FOO
141312
    1MOL0     O    1   2.883   6.476   4.524  0.1219  0.1915  0.4382
    1MOL0     C    2   2.927   6.384   4.601 -0.3977 -0.5155  0.3526
    1MOL0     O    3   2.848   6.298   4.665  0.1189  0.1256 -0.3183
    1MOL0     C    4   2.714   6.304   4.657  0.5669  0.7466  0.0109
    1MOL0     C    5   2.647   6.383   4.748 -0.3464  0.2323  0.3596
    1MOL0     C    6   2.501   6.393   4.748  0.3681 -0.1177 -0.2506
    1MOL0     C    7   2.423   6.319   4.651 -0.1453 -0.3111 -0.4851
    1MOL0     O    8   2.301   6.369   4.639  0.1124 -0.4754 -0.0125
    1MOL0     C    9   2.220   6.323   4.530  0.3715 -0.0548 -0.8084
    1MOL0     C   10   2.086   6.371   4.571  0.3098  0.5932 -0.1751
    1MOL0     C   11   2.012   6.265   4.667 -0.3691 -0.3639  0.6031
    1MOL0     C   12   2.053   6.295   4.812  0.4855  1.0510 -0.0884
    1MOL0     C   13   1.968   6.209   4.918 -0.7900  0.1896  0.3513
    1MOL0     C   14   1.976   6.064   4.887  0.1500  0.2347  0.4091
    1MOL0     C   15   1.947   5.982   5.009  0.3752  1.0284  0.7587
    1MOL0     C   16   1.986   5.833   4.964 -0.2424 -0.0950 -0.1235
    1MOL0     N   17   2.134   5.797   4.952 -0.0031 -0.1744 -0.3904
    1MOL0     C   18   2.231   5.824   5.043 -0.9079  0.4360  0.7673
    1MOL0     C   19   2.349   5.788   4.983 -0.3385  0.1598 -0.2320
    1MOL0     C   20   2.494   5.780   5.033  0.4258  0.5496 -0.6173
    1MOL0     C   21   2.512   5.657   5.110  0.1070 -0.9173 -0.0096
    1MOL0     C   22   2.660   5.631   5.122 -0.1586 -0.5307 -0.9911
    1MOL0     C   23   2.690   5.555   5.247  0.1423  0.0463  0.2439
    1MOL0     O   24   2.762   5.429   5.228  0.3475 -1.0125  0.9299
    1MOL0     C   25   2.888   5.438   5.177 -0.2505  0.3254 -1.4940
    1MOL0     C   26   2.939   5.335   5.096 -0.1226  0.4696  0.3301
    1MOL0     C   27   3.074   5.329   5.058  0.0597  0.4613 -0.1445
    1MOL0     C   28   3.102   5.204   4.969  0.5801 -0.8885 -0.5004
    1MOL0     C   29   3.158   5.441   5.076 -0.1129  0.1376  0.0774
    1MOL0     C   30   3.295   5.457   5.015 -0.4817 -1.0295  0.1687
    1MOL0     O   31   3.376   5.567   5.053 -0.1876  0.3370 -0.0740
    1MOL0     C   32   3.509   5.554   5.038  0.8774 -1.1153 -0.4179
    1MOL0     C   33   3.590   5.535   5.151  0.8832  0.2911 -0.2349
    1MOL0     C   34   3.728   5.517   5.146 -0.1679 -0.0435  0.3829
    1MOL0     C   35   3.795   5.553   5.028  1.2083 -0.1356 -0.0330
    1MOL0     O   36   3.927   5.545   5.029  0.1495 -0.5713 -0.0855
    1MOL0     C   37   4.007   5.640   4.954 -0.4762 -0.4007  0.1831
    1MOL0     C   38   4.115   5.692   5.050  0.0605  0.1797 -0.2900
    1MOL0     C   39   4.226   5.597   5.077  0.0338 -0.2661 -0.9120
    1MOL0     C   40   4.326   5.678   5.165 -0.7397  0.3735 -0.5468
    1MOL0     C   41   4.413   5.580   5.239  0.2645  0.1585  0.4832
    1MOL0     C   42   4.510   5.487   5.147 -0.1648 -0.4705  0.2170
    1MOL0     C   43   4.557   5.364   5.219  0.1065 -0.5585 -1.0358
    1MOL0     C   44   4.629   5.394   5.355 -0.3006 -0.5042  0.2591
    1MOL0    Cl   45   4.710   5.251   5.423 -0.3631 -0.0344  0.1633
    1MOL0     C   46   3.713   5.581   4.919 -0.2582  0.5197  0.8063
    1MOL0     C   47   3.573   5.584   4.924  0.5332  0.3557 -0.2931
    1MOL0     O   48   3.329   5.363   4.942  0.4491  0.4175 -0.4839
    1MOL0     C   49   3.107   5.547   5.160  0.1685  0.0122  0.0421
    1MOL0     C   50   2.975   5.543   5.202  0.3184 -0.0517  0.2572
    1MOL0     N   51   2.317   5.723   4.866 -1.1398  0.4510 -0.3465
    1MOL0     N   52   2.188   5.729   4.849 -0.0535 -0.0630  0.0739
    1MOL0     C   53   2.497   6.234   4.560 -0.9132 -0.2859  0.2130
    1MOL0     C   54   2.641   6.226   4.564 -0.1212 -0.7700  0.5610
    1MOL0     C   55   3.068   6.365   4.621 -0.2860  0.6124  0.3003
    1MOL0     C   56   3.121   6.378   4.747 -0.5953 -0.0677  0.8848
    1MOL0     C   57   3.252   6.334   4.775 -0.6427  0.8269  0.0083
    1MOL0     C   58   3.335   6.304   4.668 -0.0660  0.1192 -0.6193
    1MOL0     O   59   3.463   6.267   4.704 -0.3599 -0.1334  0.0639
    1MOL0     C   60   3.563   6.253   4.606 -0.2253  0.0338  0.4181
    1MOL0     C   61   3.701   6.242   4.670 -1.1129  0.3173  0.4946
    1MOL0     C   62   3.722   6.100   4.743  0.3009 -0.6523 -0.0328
    1MOL0     C   63   3.863   6.085   4.809 -0.0990 -0.3727  0.4270
    1MOL0     C   64   3.976   6.085   4.724  0.0568  0.1816 -0.4336
    1MOL0     C   65   4.071   6.084   4.657  0.0133  0.0008  0.2842
    1MOL0     C   66   3.287   6.307   4.538  0.6026  0.4858  0.0795
    1MOL0     C   67   3.152   6.332   4.515  0.7696  0.4243 -0.2106
    1MOL0     C   68   3.109   6.324   4.372 -0.5338  1.4909 -0.7745
    1MOL0     H   69   2.708   6.450   4.807 -1.2408  1.7828 -0.4333
    1MOL0     H   70   2.463   6.483   4.796  0.3836  0.9680 -2.1597
    1MOL0     H   71   2.223   6.216   4.508  2.1732  0.1679 -1.9135
    1MOL0     H   72   2.252   6.370   4.436  0.3374  0.5682 -0.5182
    1MOL0     H   73   2.083   6.472   4.614  1.0084 -0.0597  1.4935
    1MOL0     H   74   2.032   6.385   4.477 -2.4038  1.2435  1.3673
    1MOL0     H   75   1.903   6.265   4.658 -0.7071  0.6538  3.6776
    1MOL0     H   76   2.053   6.165   4.648  1.3038  0.3806  0.0644
    1MOL0     H   77   2.161   6.278   4.819  0.1069 -1.1263  1.6737
    1MOL0     H   78   2.045   6.399   4.843  1.5744  1.6555 -1.6683
    1MOL0     H   79   1.863   6.235   4.927 -0.6279  0.5234  1.3911
    1MOL0     H   80   2.010   6.228   5.017  0.0549 -1.4818  0.3616
    1MOL0     H   81   1.910   6.042   4.802  1.6638  0.2908 -0.8255
    1MOL0     H   82   2.076   6.030   4.859  0.3076 -1.7379  3.0002
    1MOL0     H   83   1.841   5.993   5.035  0.0604  0.5195 -0.2657
    1MOL0     H   84   2.006   6.015   5.095 -0.5601  1.1881  1.3551
    1MOL0     H   85   1.944   5.762   5.036 -0.1705 -1.8673 -1.7345
    1MOL0     H   86   1.941   5.809   4.867  0.2514  0.7164 -0.5762
    1MOL0     H   87   2.226   5.863   5.144  0.2857  0.3052  0.8856
    1MOL0     H   88   2.518   5.873   5.087 -1.8278  0.4526  0.7304
    1MOL0     H   89   2.554   5.777   4.942  1.6441 -1.4710  0.1863
    1MOL0     H   90   2.456   5.657   5.204  1.4290  2.6860  0.9309
    1MOL0     H   91   2.464   5.585   5.043  0.4406 -0.0799 -1.1730
    1MOL0     H   92   2.687   5.575   5.032 -0.1162 -1.5516 -0.3524
    1MOL0     H   93   2.714   5.726   5.121  2.6673 -2.0234 -1.0590
    1MOL0     H   94   2.740   5.626   5.314 -0.1915  2.9846 -2.4072
    1MOL0     H   95   2.598   5.539   5.305 -0.3953  0.3344 -0.5196
    1MOL0     H   96   2.876   5.248   5.082 -1.3573  1.5527 -1.0233
    1MOL0     H   97   3.039   5.116   4.986 -0.2708 -0.4032 -1.0916
    1MOL0     H   98   3.203   5.164   4.988 -1.2452 -5.0390  1.8386
    1MOL0     H   99   3.097   5.229   4.862  1.6028  1.8016  0.0110
    1MOL0     H  100   3.527   5.524   5.240 -1.4461 -0.0725 -1.8261
    1MOL0     H  101   3.785   5.494   5.236  0.7684 -0.2407 -0.2467
    1MOL0     H  102   4.051   5.590   4.867 -1.9046 -2.3212  0.4893
    1MOL0     H  103   3.952   5.727   4.917 -1.1729 -0.8429  0.1517
    1MOL0     H  104   4.146   5.784   4.999 -0.7563  0.7068  0.1215
    1MOL0     H  105   4.060   5.710   5.143  0.4407 -0.1127 -0.0108
    1MOL0     H  106   4.271   5.581   4.979  0.8020  0.1828 -0.6480
    1MOL0     H  107   4.185   5.508   5.127 -0.1519  1.1147  1.5603
    1MOL0     H  108   4.267   5.742   5.232  0.0184  1.4147 -0.8397
    1MOL0     H  109   4.398   5.732   5.103 -0.5857 -0.5361 -1.1781
    1MOL0     H  110   4.473   5.643   5.305  1.1157  1.4148 -1.4098
    1MOL0     H  111   4.352   5.510   5.297  0.6078 -0.2966  0.3064
    1MOL0     H  112   4.601   5.538   5.112 -1.0329  0.1737 -1.1969
    1MOL0     H  113   4.457   5.456   5.057 -1.0701 -0.8789  0.8796
    1MOL0     H  114   4.618   5.305   5.150 -2.1326 -2.4195 -1.5839
    1MOL0     H  115   4.470   5.300   5.240 -1.9971  1.9223 -1.6660
    1MOL0     H  116   4.560   5.437   5.428  0.1794  0.4721  0.1615
    1MOL0     H  117   4.708   5.468   5.340 -0.5551 -0.4604 -1.0363
    1MOL0     H  118   3.762   5.595   4.823 -2.7884  0.0206 -0.6741
    1MOL0     H  119   3.515   5.603   4.834  0.0685 -0.4263 -0.1675
    1MOL0     H  120   3.172   5.622   5.204 -0.1363 -1.0331  2.4363
    1MOL0     H  121   2.938   5.631   5.254  2.9005  1.5949 -0.4913
    1MOL0     H  122   2.443   6.182   4.482  1.2563 -3.4036  0.5938
    1MOL0     H  123   2.704   6.173   4.493  1.9590 -0.8525  2.3728
    1MOL0     H  124   3.062   6.417   4.830 -0.4175  1.9938  0.1068
    1MOL0     H  125   3.298   6.326   4.873 -0.6631 -1.8708 -0.1206
    1MOL0     H  126   3.550   6.167   4.540  2.3165 -0.0589 -0.0502
    1MOL0     H  127   3.563   6.343   4.543 -2.0880 -0.7059 -0.7294
    1MOL0     H  128   3.703   6.323   4.744 -2.8764  1.5213 -0.6866
    1MOL0     H  129   3.779   6.247   4.594  0.6423 -0.0415  2.1915
    1MOL0     H  130   3.647   6.094   4.822  0.0361  0.5534 -0.1845
    1MOL0     H  131   3.709   6.018   4.671 -1.7496  1.4018 -2.1826
    1MOL0     H  132   3.860   5.986   4.856  1.1792 -0.1641  0.9852
    1MOL0     H  133   3.869   6.165   4.884  1.5421 -0.2631  0.2042
    1MOL0     H  134   4.160   6.081   4.597  0.6208 -1.3430  1.2188
    1MOL0     H  135   3.345   6.273   4.452 -0.5237  0.7757 -0.8138
    1MOL0     H  136   3.005   6.290   4.365 -0.3563  0.4115  1.1748
    1MOL0     H  137   3.130   6.415   4.314  1.0430  0.1127 -2.4687
    1MOL0     H  138   3.173   6.253   4.320 -0.2281  0.2783  1.1532
    2MOL0     O  139  11.288   6.189   1.879  0.0451 -0.3560  0.1738
    2MOL0     C  140  11.212   6.280   1.848 -0.5888  0.1271  0.3196
    2MOL0     O  141  11.236   6.373   1.744 -0.2481 -0.1464 -0.0605
    2MOL0     C  142  11.354   6.358   1.675 -0.6010 -0.6868  0.2027
    2MOL0     C  143  11.356   6.302   1.544 -0.1606  0.3449 -1.4138
    2MOL0     C  144  11.480   6.284   1.480  0.2622 -0.3111 -0.3128
    2MOL0     C  145  11.596   6.335   1.533 -0.0833 -0.4468  0.4676
    2MOL0     O  146  11.704   6.332   1.452 -0.0244 -1.1263 -0.3467
    2MOL0     C  147  11.827   6.403   1.478 -0.4303 -0.0306  0.2284
    2MOL0     C  148  11.882   6.448   1.349 -0.0322 -0.7091 -0.5505
    2MOL0     C  149  12.011   6.523   1.365  0.5611  0.3813 -0.1711
    2MOL0     C  150  12.049   6.595   1.230  0.9495 -0.6838  0.3883
    2MOL0     C  151  12.190   6.663   1.239  1.1209 -0.5336  0.6441
    2MOL0     C  152  12.224   6.721   1.093 -0.1582  0.6763  0.2838
    2MOL0     C  153  12.365   6.779   1.087  0.1418  0.2123  0.2706
    2MOL0     C  154  12.363   6.933   1.106 -0.0159 -0.6605  0.6815
    2MOL0     N  155  12.500   6.990   1.115  0.0081 -0.7792 -0.1704
    2MOL0     C  156  12.591   7.030   1.019 -0.1454  0.1751  0.2983
    2MOL0     C  157  12.689   7.097   1.089  0.7778  0.6464 -0.0462
    2MOL0     C  158  12.803   7.183   1.032  0.1700 -0.1822 -0.0178
    2MOL0     C  159  12.908   7.073   0.993  0.8730 -0.6402  0.0628
    2MOL0     C  160  13.046   7.125   0.972 -0.4690 -0.3051  0.1875
    2MOL0     C  161  13.154   7.013   0.977 -1.4118  0.6846 -0.4256
    2MOL0     O  162  13.119   6.899   0.890 -0.5765 -0.3527 -0.6083
    2MOL0     C  163  13.207   6.794   0.874  0.1915 -0.2792 -1.2277
    2MOL0     C  164  13.167   6.694   0.778  0.0670 -1.0736 -1.1420
    2MOL0     C  165  13.241   6.579   0.738  0.1212 -0.2026  0.3919
    2MOL0     C  166  13.179   6.476   0.646 -0.6090  0.0993  0.4132
    2MOL0     C  167  13.381   6.577   0.782  0.7999 -0.2783  0.3301
    2MOL0     C  168  13.500   6.499   0.727 -0.4781 -0.1435  0.4781
    2MOL0     O  169  13.620   6.540   0.770 -0.0981 -0.2175 -1.1379
    2MOL0     C  170  13.729   6.477   0.722  0.0265 -0.1544  0.3632
    2MOL0     C  171  13.750   6.338   0.704 -0.9414  1.2779 -0.1255
    2MOL0     C  172  13.868   6.278   0.650 -0.1125 -0.1921  0.6784
    2MOL0     C  173  13.978   6.368   0.625  0.0042 -0.0841  0.6554
    2MOL0     O  174  14.104   6.334   0.584  0.0776  0.5362 -0.1262
    2MOL0     C  175  14.141   6.195   0.594 -0.0808  0.2744  1.1049
    2MOL0     C  176  14.283   6.178   0.540  0.0145 -0.0763  0.5153
    2MOL0     C  177  14.377   6.237   0.641  0.0815 -0.8353 -0.0154
    2MOL0     C  178  14.524   6.220   0.607 -0.7091  0.2104  0.1273
    2MOL0     C  179  14.585   6.338   0.538 -0.3660  0.0310  0.2317
    2MOL0     C  180  14.731   6.323   0.515  0.2447  0.0372  0.2292
    2MOL0     C  181  14.778   6.206   0.418 -0.4055  0.1400 -0.5495
    2MOL0     C  182  14.922   6.235   0.380 -0.2716  0.5831  0.1715
    2MOL0    Cl  183  15.041   6.221   0.511  0.0984 -0.0050 -0.5135
    2MOL0     C  184  13.958   6.508   0.634  0.1704  0.4539 -0.0907
    2MOL0     C  185  13.837   6.564   0.684  0.4679  0.1819  0.8695
    2MOL0     O  186  13.476   6.412   0.644 -0.1867  0.3727  0.2303
    2MOL0     C  187  13.423   6.674   0.879  0.1396 -0.3172 -0.2559
    2MOL0     C  188  13.335   6.774   0.928 -0.1188 -0.2559 -0.1552
    2MOL0     N  189  12.664   7.094   1.220 -0.5819  0.6825  0.2246
    2MOL0     N  190  12.554   7.030   1.233 -0.0102  0.5148  1.0098
    2MOL0     C  191  11.598   6.385   1.658 -0.3240  0.0328 -0.1836
    2MOL0     C  192  11.474   6.393   1.727 -0.0535 -0.3863 -1.2213
    2MOL0     C  193  11.086   6.303   1.928  0.6221 -0.0992 -0.6414
    2MOL0     C  194  11.052   6.437   1.949  0.5583 -0.4499 -1.2317
    2MOL0     C  195  10.934   6.462   2.022 -0.7350 -0.0353  0.0586
    2MOL0     C  196  10.858   6.362   2.077  0.7648 -0.3777 -0.0993
    2MOL0     O  197  10.744   6.374   2.154  0.3934 -0.0842 -0.2853
    2MOL0     C  198  10.690   6.510   2.177  0.3902 -0.3443 -0.2307
    2MOL0     C  199  10.588   6.516   2.292  0.6543  0.4584  0.4148
    2MOL0     C  200  10.636   6.590   2.406  0.3457  0.2037  0.3988
    2MOL0     C  201  10.564   6.568   2.539  0.0028 -0.2733  1.6373
    2MOL0     C  202  10.425   6.599   2.543 -0.2684  0.0607  0.2921
    2MOL0     C  203  10.306   6.607   2.547 -0.2322 -0.7262 -0.5835
    2MOL0     C  204  10.898   6.231   2.061 -0.8464 -0.3012  0.0779
    2MOL0     C  205  11.010   6.192   1.986  0.4895  0.1676  1.0627
    2MOL0     C  206  11.032   6.044   1.963 -0.0202 -0.7720  0.2775
    2MOL0     H  207  11.259   6.281   1.500 -1.0828  0.3933  0.5362
    2MOL0     H  208  11.469   6.242   1.381  0.4473  2.2551 -1.5007
    2MOL0     H  209  11.901   6.336   1.522 -0.2701 -1.4318 -2.0290
    2MOL0     H  210  11.809   6.494   1.537  1.3357  0.0793  0.6449
    2MOL0     H  211  11.902   6.366   1.279 -0.3215 -0.6424 -0.7120
    2MOL0     H  212  11.801   6.503   1.302  0.3317 -0.2955 -0.6989
    2MOL0     H  213  11.999   6.593   1.448 -4.1821  0.2337 -0.4763
    2MOL0     H  214  12.097   6.456   1.374  1.3569  0.6887 -3.7896
    2MOL0     H  215  12.057   6.528   1.144  0.4829 -0.4477  0.1583
    2MOL0     H  216  11.975   6.670   1.201  1.4992 -0.6209 -0.9292
    2MOL0     H  217  12.271   6.592   1.262  1.2689 -0.4994  0.2277
    2MOL0     H  218  12.192   6.749   1.306 -2.0771  0.4222 -0.3419
    2MOL0     H  219  12.219   6.632   1.029  2.2912  0.0367  0.8915
    2MOL0     H  220  12.146   6.780   1.043  1.5972  0.6839 -2.7128
    2MOL0     H  221  12.421   6.761   0.995 -1.1818  1.0499 -0.7256
    2MOL0     H  222  12.428   6.745   1.170  0.6488 -0.7146 -0.4695
    2MOL0     H  223  12.306   6.984   1.028  0.8399  3.1083  2.3267
    2MOL0     H  224  12.319   6.957   1.203 -0.8093  1.1597 -0.0879
    2MOL0     H  225  12.590   7.027   0.911  1.1617 -0.7843  0.2875
    2MOL0     H  226  12.835   7.263   1.100  2.0463 -0.2834 -0.7226
    2MOL0     H  227  12.775   7.230   0.937 -0.3077 -1.0194 -0.2999
    2MOL0     H  228  12.914   6.989   1.063  1.3964  0.3183  1.1870
    2MOL0     H  229  12.883   7.031   0.895  2.6563 -0.2511 -0.5983
    2MOL0     H  230  13.041   7.163   0.869 -1.2525 -3.8612 -1.2394
    2MOL0     H  231  13.061   7.213   1.035 -3.1529  1.8774 -1.9721
    2MOL0     H  232  13.253   7.050   0.950 -0.3445 -1.7101 -0.1271
    2MOL0     H  233  13.159   6.980   1.081 -1.5050  0.4389 -0.4965
    2MOL0     H  234  13.064   6.708   0.746 -1.0671  0.6776  2.6526
    2MOL0     H  235  13.228   6.470   0.548 -0.1607 -0.4218  0.6689
    2MOL0     H  236  13.074   6.502   0.628 -0.1440  2.7663  1.0538
    2MOL0     H  237  13.185   6.373   0.683 -1.3399 -0.3874 -0.7626
    2MOL0     H  238  13.672   6.266   0.724 -0.0635  0.8512  2.1110
    2MOL0     H  239  13.891   6.172   0.659 -1.2298 -0.5730 -0.6583
    2MOL0     H  240  14.135   6.162   0.698 -2.0780  0.9547  1.2374
    2MOL0     H  241  14.074   6.133   0.533  0.5344 -2.5151  3.0847
    2MOL0     H  242  14.304   6.072   0.524 -0.5983 -0.9031  4.2044
    2MOL0     H  243  14.289   6.239   0.450 -3.1337  0.1482  0.3663
    2MOL0     H  244  14.358   6.215   0.746  1.1847  2.2243  0.9595
    2MOL0     H  245  14.360   6.345   0.639  1.0718 -0.6189 -3.8700
    2MOL0     H  246  14.542   6.131   0.545 -1.7575 -0.0122  0.1201
    2MOL0     H  247  14.578   6.206   0.701 -0.9991  0.3317  0.3133
    2MOL0     H  248  14.535   6.342   0.441  0.6966 -0.6322 -0.3572
    2MOL0     H  249  14.563   6.427   0.599  1.9013  0.9922 -0.2713
    2MOL0     H  250  14.793   6.328   0.605 -0.7188 -1.1049  0.9947
    2MOL0     H  251  14.763   6.409   0.455  0.9982 -1.9888 -2.4368
    2MOL0     H  252  14.718   6.209   0.327  1.0479 -0.4114 -1.5584
    2MOL0     H  253  14.779   6.108   0.467  1.0827  0.0528 -0.7132
    2MOL0     H  254  14.935   6.330   0.327  0.6011  0.3545 -0.0371
    2MOL0     H  255  14.934   6.149   0.313 -0.1721  0.6888  0.0540
    2MOL0     H  256  14.031   6.580   0.597  2.3200 -1.1698  0.7166
    2MOL0     H  257  13.832   6.672   0.689  1.2414  0.1695  2.4708
    2MOL0     H  258  13.513   6.664   0.939 -0.0869 -2.8029 -0.2333
    2MOL0     H  259  13.369   6.841   1.007  1.3832 -0.7183 -0.3851
    2MOL0     H  260  11.690   6.421   1.703 -0.4124  1.3160 -0.9717
    2MOL0     H  261  11.474   6.416   1.833  1.5370  1.8750 -1.6391
    2MOL0     H  262  11.109   6.519   1.907 -1.0265  1.7011  0.6120
    2MOL0     H  263  10.922   6.568   2.043 -2.5921 -0.2102  0.0611
    2MOL0     H  264  10.767   6.587   2.189 -1.4437  1.2974  1.9097
    2MOL0     H  265  10.625   6.542   2.095 -1.4261 -1.8880  0.5367
    2MOL0     H  266  10.553   6.417   2.325 -0.9105  0.4352 -1.1511
    2MOL0     H  267  10.501   6.572   2.257  1.8695  3.0261  1.2834
    2MOL0     H  268  10.734   6.547   2.427 -0.5963 -2.2488  0.0757
    2MOL0     H  269  10.648   6.699   2.402  1.7735  0.0363 -0.0665
    2MOL0     H  270  10.607   6.633   2.617  1.5441  1.5041 -0.5616
    2MOL0     H  271  10.582   6.462   2.554 -0.3558 -0.9836 -2.1063
    2MOL0     H  272  10.200   6.623   2.553 -0.5494 -1.3903 -3.3518
    2MOL0     H  273  10.827   6.153   2.086 -1.2439 -0.0738 -0.3138
    2MOL0     H  274  11.016   6.027   1.856  0.0545  2.0349 -0.2732
    2MOL0     H  275  11.135   6.018   1.987  0.8791  0.6941 -1.6943
    2MOL0     H  276  10.962   5.989   2.027 -0.3035 -0.0351  0.6119
    3MOL0     O  277   8.213   4.091   5.963 -0.0521 -0.7083  0.8907
    3MOL0     C  278   8.294   4.187   5.946  0.7541  0.1285  0.0843
    3MOL0     O  279   8.425   4.194   5.989  0.3820 -0.0155  0.2022
    3MOL0     C  280   8.500   4.079   5.988  0.0597  0.9303  0.2134
    3MOL0     C  281   8.605   4.070   6.083 -0.7222 -1.0009  0.6507
    3MOL0     C  282   8.693   3.963   6.088 -0.2964  0.2217  0.6673
    3MOL0     C  283   8.691   3.861   5.984 -1.1350  0.3089  0.5081
    3MOL0     O  284   8.779   3.757   5.981 -0.3049 -0.2251  0.0292
    3MOL0     C  285   8.890   3.761   6.078 -0.1006  0.6631  0.3960
    3MOL0     C  286   8.974   3.628   6.054 -0.5146 -0.4571 -0.5141
    3MOL0     C  287   9.089   3.635   6.153  0.9088 -0.0740  0.1641
    3MOL0     C  288   9.199   3.724   6.105  0.3722  0.5437 -0.2477
    3MOL0     C  289   9.326   3.701   6.189 -0.2632 -0.3613 -0.2238
    3MOL0     C  290   9.439   3.796   6.156  0.4392 -0.3825  0.2462
    3MOL0     C  291   9.405   3.944   6.189 -0.6901  0.5059  0.0463
    3MOL0     C  292   9.512   4.028   6.130  0.9051  0.0939  0.0664
    3MOL0     N  293   9.643   4.001   6.194  0.0502  0.2575  0.8371
    3MOL0     C  294   9.670   4.030   6.327  0.2620  1.0688  0.7014
    3MOL0     C  295   9.799   3.995   6.338  0.1538 -0.2410  0.3346
    3MOL0     C  296   9.884   4.030   6.450  0.1023  0.8170 -0.1890
    3MOL0     C  297   9.976   4.146   6.426  0.0191  0.3258  0.7435
    3MOL0     C  298  10.057   4.178   6.547  1.3047 -0.6625  0.8921
    3MOL0     C  299  10.136   4.303   6.518 -0.4467  0.5202  0.0901
    3MOL0     O  300  10.231   4.317   6.630 -0.0632 -0.4582  0.3000
    3MOL0     C  301  10.342   4.399   6.612  0.6464  0.2994  0.1746
    3MOL0     C  302  10.366   4.469   6.499 -0.2560 -0.2825  0.5077
    3MOL0     C  303  10.490   4.540   6.483 -0.0837  1.0833  0.7208
    3MOL0     C  304  10.505   4.612   6.355 -0.0848  0.1602 -0.2815
    3MOL0     C  305  10.585   4.538   6.588 -0.5137 -0.1252 -0.0626
    3MOL0     C  306  10.726   4.611   6.585 -0.6056  0.1901  1.0735
    3MOL0     O  307  10.805   4.602   6.692 -0.0864 -0.8674 -1.1073
    3MOL0     C  308  10.935   4.635   6.676  0.2695  0.5235 -0.4716
    3MOL0     C  309  11.028   4.544   6.640 -0.0387 -0.6802 -0.0162
    3MOL0     C  310  11.168   4.570   6.629 -0.1011 -0.0266 -0.1108
    3MOL0     C  311  11.211   4.702   6.641 -0.0314  0.0038 -0.3640
    3MOL0     O  312  11.340   4.740   6.619 -0.1858 -0.0768  0.2809
    3MOL0     C  313  11.442   4.686   6.698  0.4642 -0.0907 -0.5276
    3MOL0     C  314  11.543   4.607   6.614 -0.1865 -0.3287  0.0639
    3MOL0     C  315  11.487   4.511   6.523 -0.1526 -0.3976  0.1638
    3MOL0     C  316  11.609   4.446   6.454 -0.1626 -0.2658  0.8894
    3MOL0     C  317  11.578   4.340   6.343 -0.5267  0.2221 -0.9116
    3MOL0     C  318  11.529   4.209   6.389 -0.3104 -0.5073 -0.0786
    3MOL0     C  319  11.406   4.173   6.306  0.6191  1.6268 -0.4488
    3MOL0     C  320  11.371   4.024   6.323  0.6662 -0.3933 -0.7000
    3MOL0    Cl  321  11.318   3.999   6.482 -0.2899  0.1801  0.5984
    3MOL0     C  322  11.114   4.802   6.678 -0.2146 -0.3055 -0.5631
    3MOL0     C  323  10.977   4.763   6.698  0.1741 -0.9040  0.1064
    3MOL0     O  324  10.754   4.680   6.496 -0.3580 -0.9735  0.4116
    3MOL0     C  325  10.555   4.452   6.694  0.1300  0.7127 -0.2262
    3MOL0     C  326  10.439   4.386   6.703  0.4175  0.1462 -1.0976
    3MOL0     N  327   9.844   3.947   6.214 -0.7533  0.1954  0.1556
    3MOL0     N  328   9.750   3.956   6.128 -0.8915 -0.1738  0.6099
    3MOL0     C  329   8.591   3.868   5.894  0.2506 -0.0106 -0.4977
    3MOL0     C  330   8.490   3.967   5.900  0.0573 -0.5810 -0.4285
    3MOL0     C  331   8.230   4.314   5.911 -0.1221  0.3303 -0.1992
    3MOL0     C  332   8.287   4.433   5.958  0.1082  0.3068 -1.3474
    3MOL0     C  333   8.230   4.558   5.934  0.2666  0.1755 -0.0210
    3MOL0     C  334   8.115   4.558   5.851  0.4249 -1.0111  0.0624
    3MOL0     O  335   8.053   4.674   5.809  0.6785  0.0598 -0.0681
    3MOL0     C  336   8.034   4.775   5.907  0.4345  0.2890  0.2881
    3MOL0     C  337   7.936   4.894   5.857 -0.1338 -0.1595  0.0694
    3MOL0     C  338   7.803   4.906   5.937  0.4924 -0.4030  0.2486
    3MOL0     C  339   7.685   4.952   5.852  0.0811  0.5521 -0.0482
    3MOL0     C  340   7.592   4.998   5.961  0.7738 -0.3735 -0.4100
    3MOL0     C  341   7.523   5.044   6.047 -0.3462  0.5714 -0.4872
    3MOL0     C  342   8.058   4.449   5.801  0.2982 -0.5753  0.0362
    3MOL0     C  343   8.111   4.324   5.835  0.3451  0.5943 -0.1624
    3MOL0     C  344   8.029   4.209   5.779  0.2874 -0.8087  0.1698
    3MOL0     H  345   8.622   4.144   6.160  0.8515 -0.8202  0.1571
    3MOL0     H  346   8.769   3.957   6.165  0.1391  0.9498  0.2933
    3MOL0     H  347   8.849   3.765   6.180  4.5193  1.0319  2.4912
    3MOL0     H  348   8.939   3.853   6.046  1.2140 -0.4791 -1.0344
    3MOL0     H  349   8.916   3.538   6.074 -0.6571 -0.3234 -0.3172
    3MOL0     H  350   9.004   3.633   5.949  0.8633  0.8149 -0.1139
    3MOL0     H  351   9.051   3.666   6.250 -0.6831  0.4807 -0.6023
    3MOL0     H  352   9.118   3.529   6.155 -0.7490 -0.5691 -0.4734
    3MOL0     H  353   9.234   3.711   6.002  0.1823 -1.7982 -0.0644
    3MOL0     H  354   9.169   3.828   6.122  0.6798  0.3606  1.5784
    3MOL0     H  355   9.351   3.597   6.166 -2.4427 -0.3365 -3.3138
    3MOL0     H  356   9.290   3.717   6.291 -2.1910  1.0207 -1.0794
    3MOL0     H  357   9.529   3.763   6.209 -0.1907 -2.3565  0.1693
    3MOL0     H  358   9.456   3.793   6.048 -0.6197 -0.2931  0.0667
    3MOL0     H  359   9.395   3.967   6.295  0.9046 -0.1684  0.3621
    3MOL0     H  360   9.312   3.973   6.140 -0.2015  0.5742 -0.8657
    3MOL0     H  361   9.534   4.015   6.023  0.0220  0.0783 -0.1248
    3MOL0     H  362   9.476   4.131   6.137 -0.6016  0.1495 -4.8366
    3MOL0     H  363   9.600   4.075   6.396 -1.1686 -0.5330  0.3690
    3MOL0     H  364   9.944   3.940   6.465  0.6693  1.2376  0.0798
    3MOL0     H  365   9.826   4.051   6.541  4.5596 -0.6857  3.3566
    3MOL0     H  366  10.041   4.119   6.343 -0.6193 -2.0897  0.9382
    3MOL0     H  367   9.910   4.227   6.394  0.8561  0.0232 -1.9818
    3MOL0     H  368   9.998   4.196   6.637 -0.5389 -2.1267  0.0421
    3MOL0     H  369  10.133   4.099   6.553  1.2137 -1.1458 -2.2638
    3MOL0     H  370  10.186   4.293   6.421 -0.0969  0.7409  0.2469
    3MOL0     H  371  10.065   4.385   6.508  0.8589  1.5868 -0.7966
    3MOL0     H  372  10.291   4.474   6.421  0.9250 -4.4566 -1.1739
    3MOL0     H  373  10.423   4.584   6.287 -1.6836 -0.1733  1.6839
    3MOL0     H  374  10.601   4.586   6.309 -0.1969  0.2170 -0.5473
    3MOL0     H  375  10.486   4.719   6.369  1.1304  0.5742 -1.5799
    3MOL0     H  376  10.975   4.455   6.608  0.4059  0.1579 -3.5088
    3MOL0     H  377  11.237   4.495   6.591  0.1582  0.8328 -1.4147
    3MOL0     H  378  11.482   4.764   6.763  1.4016 -2.5492  2.0456
    3MOL0     H  379  11.402   4.610   6.765  0.0813  0.7405  0.1989
    3MOL0     H  380  11.617   4.670   6.564  1.2131 -1.0722  1.1224
    3MOL0     H  381  11.604   4.549   6.685  0.4982 -1.0811 -1.1061
    3MOL0     H  382  11.423   4.552   6.444 -0.5808 -0.0367  0.6986
    3MOL0     H  383  11.431   4.438   6.583 -1.3688  1.0327  0.8167
    3MOL0     H  384  11.664   4.394   6.533  2.3661  0.2404 -0.4168
    3MOL0     H  385  11.686   4.517   6.421 -0.4590 -1.2510 -2.3306
    3MOL0     H  386  11.513   4.382   6.265 -0.8594  0.8730 -0.2907
    3MOL0     H  387  11.673   4.328   6.290 -1.6896  0.1575 -3.0833
    3MOL0     H  388  11.509   4.212   6.496  5.1150 -0.6041  1.2218
    3MOL0     H  389  11.603   4.130   6.388 -0.0466 -0.2614 -0.4157
    3MOL0     H  390  11.415   4.186   6.197 -2.5519  0.1967 -0.9966
    3MOL0     H  391  11.322   4.236   6.338 -0.1030 -0.0108  1.0502
    3MOL0     H  392  11.461   3.964   6.305  1.4219  0.2661  0.7297
    3MOL0     H  393  11.283   3.996   6.264  0.3904  1.1025 -1.0442
    3MOL0     H  394  11.124   4.909   6.694 -1.8560 -0.2285  0.1756
    3MOL0     H  395  10.912   4.848   6.717  2.7927  1.1094  0.6661
    3MOL0     H  396  10.631   4.432   6.768 -1.2113 -1.8978  0.5558
    3MOL0     H  397  10.409   4.333   6.793  0.3222  0.6415 -0.8309
    3MOL0     H  398   8.590   3.793   5.816 -0.6333  1.5765 -2.0811
    3MOL0     H  399   8.401   3.969   5.839  0.5012 -0.7384 -1.0970
    3MOL0     H  400   8.368   4.426   6.031 -2.7855 -0.6324  2.1051
    3MOL0     H  401   8.283   4.647   5.965  1.4587 -0.1503 -1.0172
    3MOL0     H  402   7.988   4.734   5.997 -1.4357 -0.7650 -1.0900
    3MOL0     H  403   8.135   4.812   5.931  0.8825  1.1918 -2.6053
    3MOL0     H  404   7.909   4.865   5.755 -3.2701 -3.0563  1.5477
    3MOL0     H  405   7.999   4.983   5.865  1.6203 -1.5054  2.3909
    3MOL0     H  406   7.788   4.808   5.982 -0.6382 -1.0276 -1.4075
    3MOL0     H  407   7.826   4.982   6.012  1.6952  0.2170 -0.6969
    3MOL0     H  408   7.643   4.871   5.791  2.2543  1.2720 -2.6702
    3MOL0     H  409   7.702   5.039   5.787  2.5044 -0.7959 -1.3653
    3MOL0     H  410   7.454   5.078   6.123  0.9717 -2.6626  2.4364
    3MOL0     H  411   7.968   4.450   5.740 -0.6052 -0.1001  1.3295
    3MOL0     H  412   7.957   4.241   5.703  0.3926 -3.7812 -1.3280
    3MOL0     H  413   8.089   4.134   5.726  0.0220 -0.0319 -1.2906
    3MOL0     H  414   7.969   4.161   5.856 -1.1603 -0.0492 -0.4442
    4MOL0     O  415   6.030   5.499   1.362 -0.6202 -1.0107 -0.1161
    4MOL0     C  416   5.947   5.550   1.432  0.4232 -0.2017  0.4259
    4MOL0     O  417   5.958   5.617   1.549  0.4149  0.2186 -0.3988
    4MOL0     C  418   6.082   5.634   1.598 -0.7972  0.1101 -0.5478
    4MOL0     C  419   6.182   5.531   1.605  0.7311  0.3631 -0.1935
    4MOL0     C  420   6.309   5.567   1.643  0.7566  0.0738 -1.0138
    4MOL0     C  421   6.344   5.692   1.679  0.2096 -0.6163  0.1680
    4MOL0     O  422   6.464   5.729   1.734  0.2453 -0.3851  0.1558
    4MOL0     C  423   6.501   5.646   1.839  0.5394  0.6551 -0.6943
    4MOL0     C  424   6.625   5.720   1.905  0.3114 -0.0934  0.0366
    4MOL0     C  425   6.660   5.659   2.041  0.2742 -0.5588 -0.9468
    4MOL0     C  426   6.723   5.518   2.038 -0.2612  0.0331 -0.4202
    4MOL0     C  427   6.862   5.508   2.000  0.2750  0.2784 -0.9920
    4MOL0     C  428   6.900   5.376   1.931  0.5360  0.5997 -0.6255
    4MOL0     C  429   7.031   5.375   1.852 -0.1945  0.4848  0.2595
    4MOL0     C  430   7.035   5.295   1.723  0.5985 -0.6134  1.2493
    4MOL0     N  431   7.166   5.304   1.657  0.6329  0.2503  0.2418
    4MOL0     C  432   7.221   5.419   1.604 -0.4069  0.0784  0.7692
    4MOL0     C  433   7.332   5.369   1.541  0.1576  0.1783 -0.5454
    4MOL0     C  434   7.429   5.458   1.463 -0.5228 -0.3693  0.1102
    4MOL0     C  435   7.561   5.504   1.550 -0.3138 -0.0316 -0.3698
    4MOL0     C  436   7.517   5.589   1.673 -0.1463 -0.0207  0.4737
    4MOL0     C  437   7.650   5.650   1.741  0.1010 -1.1389  0.1962
    4MOL0     O  438   7.730   5.721   1.646 -0.1213  0.6245 -0.4599
    4MOL0     C  439   7.842   5.786   1.682 -0.7677  0.3835 -0.1932
    4MOL0     C  440   7.908   5.797   1.805 -0.7688  0.0002 -0.4701
    4MOL0     C  441   8.031   5.873   1.831  0.6014 -0.2778 -0.2592
    4MOL0     C  442   8.102   5.847   1.959  0.8521  0.3697  0.1690
    4MOL0     C  443   8.083   5.945   1.719  0.0461 -0.2025  0.7527
    4MOL0     C  444   8.205   6.032   1.734 -0.3195  0.4905 -0.3593
    4MOL0     O  445   8.247   6.065   1.856  0.3883 -0.5694  0.5965
    4MOL0     C  446   8.374   6.130   1.870  0.3108 -0.5067  0.2430
    4MOL0     C  447   8.471   6.062   1.948 -0.2044 -0.1379 -0.0275
    4MOL0     C  448   8.597   6.123   1.970  0.5043 -0.6221 -0.2936
    4MOL0     C  449   8.638   6.243   1.902  0.2012 -0.2359 -0.4536
    4MOL0     O  450   8.758   6.311   1.911  0.3188  0.0143 -0.5586
    4MOL0     C  451   8.866   6.214   1.893 -0.3583  0.1910  0.0732
    4MOL0     C  452   8.993   6.281   1.846 -0.2874  0.0482  0.2689
    4MOL0     C  453   9.114   6.179   1.836  0.1366  0.5742  0.9508
    4MOL0     C  454   9.243   6.252   1.857  0.1877  0.2165  0.0382
    4MOL0     C  455   9.373   6.158   1.864 -0.4447  0.6891  0.2460
    4MOL0     C  456   9.509   6.228   1.886 -0.2086 -0.1768 -0.2593
    4MOL0     C  457   9.569   6.263   1.743 -0.2396 -0.1573 -0.1189
    4MOL0     C  458   9.706   6.322   1.757 -0.6500  0.3553 -0.2870
    4MOL0    Cl  459   9.815   6.218   1.847 -0.4034 -0.2607 -0.3717
    4MOL0     C  460   8.536   6.312   1.842 -0.4330 -0.0653  0.2331
    4MOL0     C  461   8.405   6.257   1.827 -0.1165  0.3105  0.1926
    4MOL0     O  462   8.267   6.069   1.637  0.1021  0.3624  0.6868
    4MOL0     C  463   8.016   5.934   1.594  0.2897 -0.3155  1.0004
    4MOL0     C  464   7.905   5.853   1.576  0.1533 -0.3328 -0.5444
    4MOL0     N  465   7.334   5.232   1.567  0.6489 -0.0418 -0.3190
    4MOL0     N  466   7.240   5.195   1.629 -0.1615  0.0051 -0.0124
    4MOL0     C  467   6.252   5.789   1.678 -0.6418 -0.1506  0.1668
    4MOL0     C  468   6.120   5.764   1.634  0.6629  1.5906  0.8827
    4MOL0     C  469   5.808   5.545   1.377  0.4820  0.5743  0.8806
    4MOL0     C  470   5.721   5.653   1.410  0.2199 -0.2396  0.3547
    4MOL0     C  471   5.594   5.669   1.342  0.0343 -0.1426 -0.5442
    4MOL0     C  472   5.549   5.576   1.248 -0.8044  0.0355  0.2431
    4MOL0     O  473   5.425   5.590   1.198  0.1830  0.5928  0.5903
    4MOL0     C  474   5.369   5.502   1.105  0.0126 -0.9435 -0.0078
    4MOL0     C  475   5.234   5.564   1.081 -0.1790  0.0904  0.5073
    4MOL0     C  476   5.149   5.563   1.208 -0.0865 -0.1929 -0.6955
    4MOL0     C  477   4.997   5.555   1.185  0.2778 -0.3015  0.2187
    4MOL0     C  478   4.918   5.600   1.301 -0.5092  0.5429  0.5225
    4MOL0     C  479   4.861   5.645   1.400  0.4169 -0.7707  0.4823
    4MOL0     C  480   5.632   5.468   1.219 -0.1097 -0.0439  0.6144
    4MOL0     C  481   5.757   5.454   1.286 -0.8191 -0.3991  0.5582
    4MOL0     C  482   5.819   5.319   1.256  0.0759  0.4234 -0.5533
    4MOL0     H  483   6.154   5.430   1.577  2.0535  0.0181 -0.3131
    4MOL0     H  484   6.382   5.487   1.639  0.4798 -0.2728  0.3071
    4MOL0     H  485   6.537   5.549   1.803  0.6258  0.6313 -0.5456
    4MOL0     H  486   6.415   5.629   1.904  0.2867 -0.7848 -1.3638
    4MOL0     H  487   6.716   5.724   1.845  0.8593  0.1132  0.8540
    4MOL0     H  488   6.602   5.823   1.931 -0.8210 -0.3631  0.1696
    4MOL0     H  489   6.724   5.729   2.094 -1.6111 -1.9263  3.6965
    4MOL0     H  490   6.563   5.656   2.093  0.7730 -0.3216  0.0212
    4MOL0     H  491   6.714   5.480   2.140 -0.5955  1.5301  0.1400
    4MOL0     H  492   6.660   5.456   1.973 -0.6912 -1.4444  1.3330
    4MOL0     H  493   6.923   5.513   2.091 -0.4332 -0.9163 -0.4293
    4MOL0     H  494   6.889   5.592   1.935  0.1239 -0.5555 -2.1613
    4MOL0     H  495   6.909   5.296   2.005  3.4636  1.9097  0.5932
    4MOL0     H  496   6.811   5.350   1.873 -0.2739  0.1374  0.7760
    4MOL0     H  497   7.104   5.333   1.922 -2.3885 -1.0699  1.7230
    4MOL0     H  498   7.050   5.479   1.822 -0.6627  0.9916  1.6531
    4MOL0     H  499   7.017   5.188   1.737  0.5107 -1.6290 -4.3118
    4MOL0     H  500   6.957   5.332   1.656  0.9934  2.0656  2.1335
    4MOL0     H  501   7.200   5.525   1.606  1.0656  0.3821  1.7124
    4MOL0     H  502   7.382   5.543   1.414  0.2098 -0.8737 -1.5362
    4MOL0     H  503   7.474   5.398   1.383 -1.2776  0.5300 -1.0190
    4MOL0     H  504   7.622   5.418   1.577  1.1907  0.0946 -3.0198
    4MOL0     H  505   7.626   5.559   1.481 -0.5571  1.8775  0.8239
    4MOL0     H  506   7.448   5.670   1.647 -2.5224 -1.3651  2.2042
    4MOL0     H  507   7.456   5.525   1.738 -1.8849  1.6422  0.5476
    4MOL0     H  508   7.629   5.721   1.821 -2.3384 -0.8692 -0.6216
    4MOL0     H  509   7.700   5.571   1.799 -0.5955 -1.4469  0.3850
    4MOL0     H  510   7.878   5.731   1.885  0.9380 -0.5064 -0.2078
    4MOL0     H  511   8.044   5.772   2.012 -1.1489  2.4178  1.0543
    4MOL0     H  512   8.105   5.937   2.023 -3.0573  1.6584 -1.1899
    4MOL0     H  513   8.203   5.810   1.937  0.8855 -1.2159  2.5607
    4MOL0     H  514   8.455   5.963   1.991  0.6145  1.1673  3.5961
    4MOL0     H  515   8.671   6.078   2.035 -0.4489 -0.9239  0.6223
    4MOL0     H  516   8.891   6.170   1.990 -1.1860 -0.6418 -0.0729
    4MOL0     H  517   8.845   6.137   1.819 -0.5904 -0.4957  0.8362
    4MOL0     H  518   8.966   6.312   1.744 -3.3630 -1.2137  0.5755
    4MOL0     H  519   9.019   6.372   1.900  1.5551  0.0964 -0.6205
    4MOL0     H  520   9.113   6.122   1.742 -1.6437  1.3163  0.4712
    4MOL0     H  521   9.111   6.108   1.919 -2.6544 -0.3244  0.1885
    4MOL0     H  522   9.244   6.302   1.954  0.2392 -2.2220  1.3532
    4MOL0     H  523   9.262   6.327   1.780  1.5064  0.3409  0.4610
    4MOL0     H  524   9.360   6.076   1.935 -0.9996  0.8099  0.2841
    4MOL0     H  525   9.384   6.107   1.768 -0.4650 -1.0410  1.1156
    4MOL0     H  526   9.565   6.157   1.948 -0.7072 -2.1877 -2.0005
    4MOL0     H  527   9.490   6.320   1.943 -1.5245 -0.5134 -0.1177
    4MOL0     H  528   9.501   6.321   1.680  2.3829  1.0413 -2.0190
    4MOL0     H  529   9.589   6.177   1.680  1.2559  0.0322  0.0672
    4MOL0     H  530   9.699   6.420   1.805  2.0256  0.2780  0.4398
    4MOL0     H  531   9.744   6.345   1.657 -1.5846  1.1933 -0.4718
    4MOL0     H  532   8.558   6.402   1.785  1.3680  0.9264  2.3673
    4MOL0     H  533   8.326   6.309   1.775 -2.5608 -4.7734 -1.8676
    4MOL0     H  534   8.053   5.996   1.513 -0.6257  1.9641  2.2201
    4MOL0     H  535   7.869   5.829   1.477  2.0630 -2.5349 -0.7960
    4MOL0     H  536   6.277   5.894   1.693 -0.4471 -0.4072  1.7991
    4MOL0     H  537   6.052   5.845   1.613  1.2564  1.9076  0.1222
    4MOL0     H  538   5.755   5.726   1.482 -3.3704  1.4206  0.6103
    4MOL0     H  539   5.537   5.760   1.359  2.8216  1.4474  1.1514
    4MOL0     H  540   5.421   5.509   1.009 -0.2629 -0.1882 -0.1063
    4MOL0     H  541   5.355   5.401   1.145 -0.6849 -0.9210 -0.1804
    4MOL0     H  542   5.186   5.501   1.006  1.6717  0.9439 -1.4948
    4MOL0     H  543   5.235   5.667   1.042  1.2102  0.6356  1.9117
    4MOL0     H  544   5.173   5.470   1.261  0.8052  0.0673 -0.6323
    4MOL0     H  545   5.172   5.653   1.265  1.0253  0.4263 -2.0461
    4MOL0     H  546   4.969   5.452   1.164  2.8689 -1.5651  2.4567
    4MOL0     H  547   4.960   5.622   1.107  0.5288  0.8183  1.0270
    4MOL0     H  548   4.821   5.687   1.490 -0.7158 -2.4635  0.8094
    4MOL0     H  549   5.606   5.397   1.141 -0.8406  0.0210  0.7918
    4MOL0     H  550   5.756   5.253   1.196 -1.0916 -0.3414  1.4388
    4MOL0     H  551   5.919   5.336   1.214 -0.7997  2.4537 -1.9771
    4MOL0     H  552   5.837   5.272   1.353  1.4270 -0.4149 -1.1672
    5MOL0     O  553   0.203   7.078  10.784 -0.1322 -0.1731  0.0535
    5MOL0     C  554   0.185   7.116  10.663  0.2763 -0.2113 -0.8744
    5MOL0     O  555   0.260   7.085  10.551 -0.0908  0.0093 -0.2962
    5MOL0     C  556   0.367   6.998  10.578  0.5978  0.0287 -0.2714
    5MOL0     C  557   0.340   6.862  10.596  0.2038 -0.0403 -0.4149
    5MOL0     C  558   0.452   6.767  10.624 -0.1436 -0.4473  0.2993
    5MOL0     C  559   0.579   6.815  10.606 -0.0317  0.1725  0.1563
    5MOL0     O  560   0.675   6.724  10.630 -0.2798 -0.1549  0.8257
    5MOL0     C  561   0.807   6.773  10.627  0.5905  0.8175  0.1909
    5MOL0     C  562   0.884   6.658  10.678  0.3086  0.0389  0.1583
    5MOL0     C  563   1.023   6.677  10.708 -0.0769  0.5812  0.4958
    5MOL0     C  564   1.111   6.673  10.579 -0.3440 -0.2883 -0.4673
    5MOL0     C  565   1.256   6.691  10.634  0.2979 -0.0130 -0.0253
    5MOL0     C  566   1.357   6.705  10.520 -0.2867 -0.6616 -0.3205
    5MOL0     C  567   1.499   6.711  10.582  0.5043 -1.3342  0.0480
    5MOL0     C  568   1.564   6.583  10.633  0.4956  0.5173  0.3525
    5MOL0     N  569   1.697   6.609  10.692 -0.2907 -0.1083 -0.2952
    5MOL0     C  570   1.801   6.654  10.615  0.1227 -0.4134 -0.4691
    5MOL0     C  571   1.905   6.654  10.701 -0.3197 -0.1406  0.0143
    5MOL0     C  572   2.035   6.716  10.670  0.1434 -0.0062  0.2138
    5MOL0     C  573   2.125   6.636  10.579 -0.9894  0.3081  0.2674
    5MOL0     C  574   2.242   6.726  10.540  0.2980 -0.5639  0.1842
    5MOL0     C  575   2.353   6.645  10.472  0.2917 -0.3154  1.0101
    5MOL0     O  576   2.448   6.707  10.385  0.1924  0.4452 -0.2281
    5MOL0     C  577   2.543   6.778  10.443 -0.1134 -0.7338  0.5111
    5MOL0     C  578   2.536   6.920  10.451 -0.5569 -0.0206  1.0970
    5MOL0     C  579   2.652   6.992  10.502 -0.0400 -0.4515  0.0690
    5MOL0     C  580   2.636   7.141  10.526 -0.4912 -1.2286 -0.3875
    5MOL0     C  581   2.768   6.926  10.540 -0.7496  0.1469  0.4380
    5MOL0     C  582   2.891   6.986  10.591  0.9094 -0.7838 -0.1580
    5MOL0     O  583   2.913   7.124  10.571 -0.8186  0.4590 -0.2766
    5MOL0     C  584   3.025   7.190  10.604 -0.4417  0.1843 -0.0773
    5MOL0     C  585   3.016   7.330  10.620  1.0377 -0.0887  0.0002
    5MOL0     C  586   3.128   7.412  10.644  0.1416  0.3400 -0.4849
    5MOL0     C  587   3.255   7.345  10.647 -0.2762 -1.0372 -0.6643
    5MOL0     O  588   3.369   7.424  10.672 -0.0156  0.7770 -0.1294
    5MOL0     C  589   3.362   7.565  10.710  0.4149  0.2789 -0.1021
    5MOL0     C  590   3.493   7.618  10.774  0.4020 -0.2130 -0.4624
    5MOL0     C  591   3.492   7.771  10.814 -0.5852  0.5130 -0.1143
    5MOL0     C  592   3.570   7.795  10.947 -0.0287 -0.0969 -0.0514
    5MOL0     C  593   3.600   7.944  10.966  0.4527 -0.6524 -0.8769
    5MOL0     C  594   3.681   7.966  11.087 -0.1401  0.3657  0.2799
    5MOL0     C  595   3.748   8.107  11.092  0.4363 -0.3096 -0.4226
    5MOL0     C  596   3.774   8.155  11.236 -1.2746 -0.7861  0.1976
    5MOL0    Cl  597   3.623   8.157  11.338 -0.6413  0.2764  0.0358
    5MOL0     C  598   3.263   7.205  10.626 -0.2023  0.6391  0.7379
    5MOL0     C  599   3.151   7.131  10.599 -0.7298  0.0777  0.3851
    5MOL0     O  600   2.963   6.917  10.662 -0.8140 -0.2874 -0.2041
    5MOL0     C  601   2.767   6.782  10.529  0.7002 -0.0850 -0.5188
    5MOL0     C  602   2.652   6.715  10.481  0.0770  0.8445 -0.0742
    5MOL0     N  603   1.867   6.611  10.826  0.7116 -0.6275 -0.6897
    5MOL0     N  604   1.743   6.585  10.825 -0.1548 -0.0716  0.0620
    5MOL0     C  605   0.607   6.950  10.581 -0.3830 -0.4151 -0.2128
    5MOL0     C  606   0.498   7.041  10.567  0.4567  0.6920 -0.9304
    5MOL0     C  607   0.083   7.209  10.645  0.0296  0.7049 -0.5877
    5MOL0     C  608  -0.049   7.171  10.691 -0.0747  0.2937  0.4157
    5MOL0     C  609  -0.155   7.264  10.665  0.2898 -0.2930  0.6200
    5MOL0     C  610  -0.138   7.379  10.592 -0.7321 -1.4162 -0.1481
    5MOL0     O  611  -0.249   7.455  10.564 -0.4466 -0.1372  0.1097
    5MOL0     C  612  -0.297   7.420  10.435  0.4229 -0.2499  0.0253
    5MOL0     C  613  -0.297   7.554  10.345  0.2967  0.1688 -0.6049
    5MOL0     C  614  -0.155   7.606  10.320 -0.5179  0.3525  0.2878
    5MOL0     C  615  -0.147   7.698  10.193  0.3730 -0.3528  0.5513
    5MOL0     C  616  -0.217   7.818  10.230  0.3904  0.2680 -0.1618
    5MOL0     C  617  -0.250   7.935  10.269 -0.6979 -0.0149 -0.1583
    5MOL0     C  618  -0.006   7.424  10.574  0.0401  0.3797  0.3280
    5MOL0     C  619   0.095   7.341  10.595  0.5665  0.5129 -0.0289
    5MOL0     C  620   0.228   7.391  10.574  0.0237  1.1680 -1.1012
    5MOL0     H  621   0.235   6.839  10.608  0.4723 -0.4291  1.5234
    5MOL0     H  622   0.434   6.661  10.644 -2.5873 -0.2383 -0.4017
    5MOL0     H  623   0.818   6.855  10.699  0.6054  0.7315  0.2884
    5MOL0     H  624   0.849   6.813  10.535  1.6582  0.4554  0.5095
    5MOL0     H  625   0.841   6.637  10.776 -0.2664 -4.0510 -0.7801
    5MOL0     H  626   0.862   6.573  10.613 -1.7112  0.4825  0.1984
    5MOL0     H  627   1.038   6.774  10.756 -1.3466  0.3985  1.3071
    5MOL0     H  628   1.059   6.601  10.779 -1.7916  0.1247  0.9223
    5MOL0     H  629   1.098   6.578  10.527 -1.5937 -0.5897  0.3503
    5MOL0     H  630   1.081   6.755  10.514 -2.3849  0.1757  0.9510
    5MOL0     H  631   1.292   6.605  10.689  0.3390  1.3584  2.1990
    5MOL0     H  632   1.274   6.782  10.692  1.2764 -1.0687  1.3953
    5MOL0     H  633   1.349   6.619  10.453  0.9844 -1.6693  0.7572
    5MOL0     H  634   1.329   6.792  10.461 -2.3035  1.0643  2.8917
    5MOL0     H  635   1.509   6.785  10.662  0.8473 -0.1035 -1.1021
    5MOL0     H  636   1.574   6.751  10.513  1.4069  2.1377  2.7316
    5MOL0     H  637   1.504   6.533  10.710  1.8546 -0.0962  1.0310
    5MOL0     H  638   1.572   6.511  10.550 -0.9353  0.3827  0.3027
    5MOL0     H  639   1.808   6.696  10.515 -0.2494  4.3613  1.2504
    5MOL0     H  640   2.095   6.741  10.759 -0.2811 -0.0158  0.5045
    5MOL0     H  641   2.013   6.811  10.622  0.8221  0.7562  1.3580
    5MOL0     H  642   2.168   6.548  10.627  1.1075  0.6826 -0.7972
    5MOL0     H  643   2.082   6.603  10.484 -1.8233  0.4753  0.5785
    5MOL0     H  644   2.216   6.813  10.479  2.5367 -0.1589 -0.3009
    5MOL0     H  645   2.273   6.783  10.628  0.2127  2.0733 -1.3858
    5MOL0     H  646   2.413   6.611  10.557  0.6865  0.2913  0.9806
    5MOL0     H  647   2.308   6.561  10.418  0.9163 -0.7456  1.1542
    5MOL0     H  648   2.447   6.976  10.423 -0.2446  1.1179  2.2960
    5MOL0     H  649   2.689   7.184  10.612  0.4524 -2.0748 -0.5357
    5MOL0     H  650   2.530   7.160  10.546 -0.2155 -1.0913  1.0561
    5MOL0     H  651   2.666   7.191  10.433  0.4981  0.4344  0.7667
    5MOL0     H  652   2.918   7.375  10.630  1.4821  0.7271  0.8144
    5MOL0     H  653   3.121   7.519  10.662 -2.2799 -0.0182  1.2441
    5MOL0     H  654   3.343   7.625  10.620  1.2431  2.6560  1.2232
    5MOL0     H  655   3.284   7.587  10.782 -0.9059  1.6094 -1.8589
    5MOL0     H  656   3.522   7.560  10.863 -0.9073 -1.6604 -0.9302
    5MOL0     H  657   3.565   7.609  10.693 -0.8743  0.6099 -1.7242
    5MOL0     H  658   3.387   7.796  10.828 -1.0228  0.0141 -2.2544
    5MOL0     H  659   3.542   7.831  10.737  1.0845 -0.1254  0.4160
    5MOL0     H  660   3.665   7.742  10.954  1.0060  1.7143  0.2177
    5MOL0     H  661   3.511   7.766  11.035 -3.2500  0.7861 -1.7661
    5MOL0     H  662   3.664   7.979  10.884  0.9043 -2.4011 -1.3063
    5MOL0     H  663   3.508   8.001  10.976  0.3839 -0.7246 -1.0849
    5MOL0     H  664   3.756   7.886  11.091 -0.9034 -0.3109  1.5841
    5MOL0     H  665   3.614   7.961  11.173  0.0345 -1.1599  0.3463
    5MOL0     H  666   3.678   8.182  11.054  1.0350  1.6686  2.0519
    5MOL0     H  667   3.846   8.107  11.045  1.7400 -1.9562  2.0825
    5MOL0     H  668   3.830   8.248  11.238 -0.5191 -1.1890 -1.2067
    5MOL0     H  669   3.846   8.084  11.278 -1.8071 -1.5883 -0.2044
    5MOL0     H  670   3.360   7.157  10.617  0.6358  2.4512 -0.5832
    5MOL0     H  671   3.166   7.026  10.579  1.2825  0.2511  0.7505
    5MOL0     H  672   2.844   6.716  10.566 -1.3634 -1.9576  0.6898
    5MOL0     H  673   2.666   6.612  10.452 -1.2695  1.5423 -3.7339
    5MOL0     H  674   0.704   6.999  10.583 -0.4228 -0.3617  0.5334
    5MOL0     H  675   0.519   7.148  10.565  4.2815  0.0853 -0.8357
    5MOL0     H  676  -0.077   7.074  10.732  1.7321 -0.6749 -0.5413
    5MOL0     H  677  -0.255   7.231  10.688 -0.0263  1.6485  2.4324
    5MOL0     H  678  -0.239   7.346  10.380  1.4171  0.1590  0.4944
    5MOL0     H  679  -0.396   7.375  10.441 -1.6476  3.3908 -2.6721
    5MOL0     H  680  -0.356   7.628  10.399 -1.1269 -1.8515  0.7830
    5MOL0     H  681  -0.339   7.552  10.244  0.0526  2.3657 -0.5858
    5MOL0     H  682  -0.110   7.649  10.410  0.0503 -1.3764  0.8687
    5MOL0     H  683  -0.084   7.527  10.296 -0.8375  0.4531 -1.0853
    5MOL0     H  684  -0.203   7.668  10.104 -2.4948  0.2621  2.0331
    5MOL0     H  685  -0.040   7.705  10.171  0.6928  1.6157  2.3318
    5MOL0     H  686  -0.268   8.036  10.298  0.0934  0.8833 -2.5687
    5MOL0     H  687   0.011   7.525  10.539 -4.0988  3.0999  4.8957
    5MOL0     H  688   0.272   7.386  10.674 -1.9370  0.7647 -0.2021
    5MOL0     H  689   0.285   7.341  10.495 -2.0026  1.6048 -2.9161
    5MOL0     H  690   0.225   7.498  10.553 -0.6194  1.0778 -1.5088
    6MOL0     O  691   6.808   8.919   5.174 -0.4611 -0.0134  0.4518
    6MOL0     C  692   6.801   8.856   5.070  0.1155  0.5749 -0.8435
    6MOL0     O  693   6.896   8.778   5.022 -0.1167 -0.0408 -0.2207
    6MOL0     C  694   7.017   8.790   5.080 -0.1575  0.7799  0.1158
    6MOL0     C  695   7.131   8.801   4.995  0.3352  0.6062 -0.1461
    6MOL0     C  696   7.258   8.794   5.052 -0.3224 -1.4623 -0.6389
    6MOL0     C  697   7.282   8.803   5.193 -0.2943 -0.6954  0.3131
    6MOL0     O  698   7.409   8.800   5.247 -0.4224  0.0051 -0.1565
    6MOL0     C  699   7.527   8.816   5.160  0.3232  0.1423  0.7958
    6MOL0     C  700   7.664   8.828   5.221  0.1400 -0.0874 -0.0938
    6MOL0     C  701   7.696   8.728   5.338  0.4263 -0.0553  0.2500
    6MOL0     C  702   7.707   8.589   5.275  0.5064 -0.2168  0.2031
    6MOL0     C  703   7.820   8.566   5.172 -0.2244  0.0451  0.4177
    6MOL0     C  704   7.869   8.417   5.163 -0.5150  0.1332  0.7018
    6MOL0     C  705   7.935   8.375   5.030 -0.1154  0.0734 -0.2880
    6MOL0     C  706   7.939   8.219   5.030  0.9417 -0.4238  0.1565
    6MOL0     N  707   7.964   8.177   4.891  0.3886  0.0015  0.6794
    6MOL0     C  708   7.865   8.166   4.798  0.5909 -0.2559  0.2006
    6MOL0     C  709   7.910   8.111   4.686  0.1008 -0.7517  0.3702
    6MOL0     C  710   7.845   8.100   4.551 -0.4229 -0.6333 -0.2289
    6MOL0     C  711   7.691   8.086   4.574  0.3974  1.2647  0.7574
    6MOL0     C  712   7.635   8.007   4.453  0.2362 -0.0715 -0.0922
    6MOL0     C  713   7.630   8.085   4.323  0.1388  0.0375  0.0901
    6MOL0     O  714   7.566   8.218   4.328 -0.1850  0.6456 -0.3334
    6MOL0     C  715   7.434   8.227   4.311  0.3397  0.0202 -0.8036
    6MOL0     C  716   7.341   8.128   4.321  0.2830 -0.5040 -0.1396
    6MOL0     C  717   7.206   8.148   4.287 -0.8354  0.9673  0.0537
    6MOL0     C  718   7.117   8.018   4.287 -0.8342 -0.6101  0.4256
    6MOL0     C  719   7.156   8.269   4.240 -0.0489 -0.4957  0.7970
    6MOL0     C  720   7.013   8.308   4.190 -0.1885 -0.1541  0.5190
    6MOL0     O  721   6.917   8.214   4.215 -0.8221 -0.8919  0.8505
    6MOL0     C  722   6.784   8.241   4.206  0.1879  0.1821 -0.2488
    6MOL0     C  723   6.706   8.155   4.279  0.1910 -0.5252  0.0101
    6MOL0     C  724   6.564   8.159   4.270 -0.6577 -0.0667  0.2131
    6MOL0     C  725   6.504   8.263   4.202 -0.2473 -0.1004 -0.0851
    6MOL0     O  726   6.371   8.255   4.209  0.4909  0.1760  0.3937
    6MOL0     C  727   6.300   8.357   4.140  0.3959  0.2828  0.5058
    6MOL0     C  728   6.300   8.337   3.983 -0.3564 -0.4159  1.2742
    6MOL0     C  729   6.252   8.193   3.943  0.0613 -0.4946  0.4454
    6MOL0     C  730   6.100   8.186   3.952  1.0082  0.8345  0.4799
    6MOL0     C  731   6.050   8.047   3.891 -0.4746  0.4694 -0.3993
    6MOL0     C  732   5.907   8.053   3.861  1.0588 -0.7532  0.4037
    6MOL0     C  733   5.808   8.086   3.972  0.2523 -0.2474  0.5311
    6MOL0     C  734   5.832   7.990   4.093 -0.4500 -0.9543 -0.0022
    6MOL0    Cl  735   5.681   7.992   4.184  0.1630 -0.1373 -0.4079
    6MOL0     C  736   6.584   8.361   4.134  0.0133  0.0999 -0.1218
    6MOL0     C  737   6.722   8.341   4.129 -0.5940 -0.6158 -0.5616
    6MOL0     O  738   6.991   8.423   4.140 -0.4409  0.3302  0.1680
    6MOL0     C  739   7.248   8.371   4.229 -0.9186 -0.4106 -0.3084
    6MOL0     C  740   7.384   8.352   4.265 -0.5806 -0.4067  0.5253
    6MOL0     N  741   8.038   8.089   4.705  0.2382 -0.0660 -0.1294
    6MOL0     N  742   8.066   8.121   4.832 -0.7916  0.0166  0.2268
    6MOL0     C  743   7.168   8.786   5.274  0.0920 -0.1486 -0.4094
    6MOL0     C  744   7.045   8.776   5.217  0.0466 -0.3837  0.3591
    6MOL0     C  745   6.665   8.834   4.995  0.0382 -0.5174 -0.3055
    6MOL0     C  746   6.659   8.739   4.903  0.2811 -0.6537 -0.0621
    6MOL0     C  747   6.537   8.699   4.843  0.1201 -1.1609  0.3503
    6MOL0     C  748   6.423   8.782   4.849  0.4390 -0.9287 -0.2469
    6MOL0     O  749   6.310   8.770   4.770 -0.8441  0.7478 -0.6639
    6MOL0     C  750   6.300   8.663   4.673 -0.4600 -0.3295  0.7393
    6MOL0     C  751   6.201   8.716   4.576  0.3122 -0.6987  0.3767
    6MOL0     C  752   6.156   8.626   4.454  1.0503  0.1075 -0.4954
    6MOL0     C  753   6.036   8.684   4.374  0.3510  0.3957 -0.8571
    6MOL0     C  754   5.917   8.705   4.460 -0.1119  0.6212 -0.1042
    6MOL0     C  755   5.814   8.719   4.525  0.0619 -0.3594  0.2585
    6MOL0     C  756   6.430   8.894   4.927  0.0760  0.5266  0.2356
    6MOL0     C  757   6.545   8.916   5.004  0.6432 -0.1602  0.0161
    6MOL0     C  758   6.529   9.042   5.092 -0.6076  0.3959 -0.2897
    6MOL0     H  759   7.109   8.807   4.888 -2.0684 -1.2691  0.1649
    6MOL0     H  760   7.351   8.814   4.998  1.1799 -0.7721  2.0239
    6MOL0     H  761   7.510   8.906   5.100  0.7918  0.1514  0.6747
    6MOL0     H  762   7.526   8.730   5.093 -1.5739  0.3524  0.4857
    6MOL0     H  763   7.738   8.816   5.141  0.6313  0.9356  0.1862
    6MOL0     H  764   7.657   8.931   5.257 -1.2393  0.3196 -1.4351
    6MOL0     H  765   7.782   8.756   5.399 -0.7905 -0.2578  2.1427
    6MOL0     H  766   7.606   8.730   5.401  0.5881  1.6488  0.4521
    6MOL0     H  767   7.726   8.518   5.355  0.4416  2.0021  2.3068
    6MOL0     H  768   7.619   8.558   5.218  0.3798  3.2202 -1.7995
    6MOL0     H  769   7.906   8.631   5.192 -0.6961  1.1795 -1.0373
    6MOL0     H  770   7.788   8.598   5.073 -1.9796  0.9163  1.2304
    6MOL0     H  771   7.933   8.404   5.251 -1.5439 -1.6602  1.2135
    6MOL0     H  772   7.776   8.361   5.173 -0.5185  0.4202  2.4522
    6MOL0     H  773   8.037   8.414   5.022  0.7790 -2.1961 -0.7805
    6MOL0     H  774   7.862   8.414   4.960 -0.1952  0.6676  0.1145
    6MOL0     H  775   8.017   8.183   5.098 -0.0092 -2.0510  0.4286
    6MOL0     H  776   7.842   8.177   5.056  0.9829 -0.7454 -0.1968
    6MOL0     H  777   7.764   8.204   4.806  0.3135 -0.6809 -1.0430
    6MOL0     H  778   7.879   8.016   4.490  1.0446 -0.0170 -0.3049
    6MOL0     H  779   7.877   8.194   4.504  0.2421 -0.2931  0.8648
    6MOL0     H  780   7.670   8.018   4.657  2.7439 -0.5426  0.0067
    6MOL0     H  781   7.635   8.179   4.581 -0.1006  0.9163  1.4658
    6MOL0     H  782   7.680   7.908   4.445 -1.3773 -0.8829  0.3881
    6MOL0     H  783   7.530   7.984   4.477 -0.1239  2.4269  1.0057
    6MOL0     H  784   7.733   8.114   4.299  0.0500  1.9389  1.7200
    6MOL0     H  785   7.582   8.030   4.242 -1.1970 -2.0494  2.1907
    6MOL0     H  786   7.367   8.031   4.361  0.8635 -0.9113 -1.4463
    6MOL0     H  787   7.049   8.026   4.372  1.7269  0.9478  2.4901
    6MOL0     H  788   7.167   7.921   4.294 -1.0583 -0.6970  0.7912
    6MOL0     H  789   7.074   8.008   4.187  1.1604 -0.8608 -0.4692
    6MOL0     H  790   6.748   8.079   4.345 -3.3092 -1.1415  1.7570
    6MOL0     H  791   6.493   8.099   4.325 -0.3850 -0.8099 -0.2241
    6MOL0     H  792   6.194   8.350   4.169  0.4447 -0.3065  0.5655
    6MOL0     H  793   6.342   8.453   4.172  2.6504  0.4637 -2.6179
    6MOL0     H  794   6.238   8.415   3.939  2.9352  1.2135 -0.8600
    6MOL0     H  795   6.401   8.338   3.941 -0.0201 -0.3499  2.0721
    6MOL0     H  796   6.303   8.113   3.996  1.7563 -0.9817 -1.7540
    6MOL0     H  797   6.296   8.182   3.843  3.3099 -1.8006  1.8781
    6MOL0     H  798   6.053   8.259   3.886 -1.7447 -0.4389  0.8731
    6MOL0     H  799   6.061   8.204   4.053 -2.9331  1.3334 -0.9377
    6MOL0     H  800   6.106   8.028   3.799 -0.5247  0.5429 -0.4450
    6MOL0     H  801   6.067   7.972   3.969  1.1752  2.0182  0.8332
    6MOL0     H  802   5.872   7.958   3.819  0.8132 -0.1381 -0.8316
    6MOL0     H  803   5.899   8.130   3.784  1.8280 -0.3557  0.7171
    6MOL0     H  804   5.707   8.076   3.932  0.4738 -0.2371 -0.0274
    6MOL0     H  805   5.833   8.189   4.001 -0.3635  0.9611 -2.8224
    6MOL0     H  806   5.913   8.014   4.162 -0.0517 -1.1648 -0.3929
    6MOL0     H  807   5.851   7.886   4.065 -2.6641 -1.0291 -1.5323
    6MOL0     H  808   6.540   8.443   4.078  1.6395  1.2709  0.2482
    6MOL0     H  809   6.781   8.396   4.055 -1.1782 -0.6126 -1.0312
    6MOL0     H  810   7.220   8.467   4.188  0.7108 -0.0811 -0.6881
    6MOL0     H  811   7.447   8.440   4.256 -0.5696 -0.5916 -1.6450
    6MOL0     H  812   7.185   8.775   5.380  1.4805 -0.1756 -0.6125
    6MOL0     H  813   6.968   8.753   5.290  0.6855  1.6876  1.8149
    6MOL0     H  814   6.741   8.673   4.877  0.8355 -1.2272  2.8665
    6MOL0     H  815   6.536   8.607   4.787  0.3817 -0.4056 -0.9384
    6MOL0     H  816   6.399   8.652   4.627  0.4299  0.0051  2.4723
    6MOL0     H  817   6.274   8.562   4.706  2.2991 -0.5938  2.4860
    6MOL0     H  818   6.249   8.805   4.535 -1.9657  0.6056  0.4172
    6MOL0     H  819   6.116   8.747   4.638  1.9007  0.9726  1.8556
    6MOL0     H  820   6.234   8.618   4.378 -0.1258 -0.4176 -1.7048
    6MOL0     H  821   6.133   8.525   4.489  0.0304  1.9352  5.2323
    6MOL0     H  822   6.008   8.614   4.294 -0.5510  0.5008 -0.6448
    6MOL0     H  823   6.059   8.779   4.326  1.6873  1.1472  1.1489
    6MOL0     H  824   5.736   8.723   4.598 -2.4671  0.1407 -2.2845
    6MOL0     H  825   6.353   8.970   4.936 -1.3673 -0.7743 -0.6158
    6MOL0     H  826   6.604   9.113   5.056 -1.2030  2.1007  1.6362
    6MOL0     H  827   6.431   9.090   5.083 -1.0457 -0.2881  0.6508
    6MOL0     H  828   6.538   9.017   5.198  1.3144 -1.0642 -0.7502
    7MOL0     O  829   3.288   1.266   9.358  0.5118 -0.1093  0.4136
    7MOL0     C  830   3.245   1.364   9.303 -0.0342  0.1511  0.3477
    7MOL0     O  831   3.299   1.487   9.318 -0.7350 -0.2407 -0.2237
    7MOL0     C  832   3.423   1.497   9.381 -0.2792  0.2125 -0.6767
    7MOL0     C  833   3.537   1.529   9.307  0.1259  0.1767 -0.6360
    7MOL0     C  834   3.663   1.526   9.358 -0.4210  0.1358 -0.5369
    7MOL0     C  835   3.681   1.490   9.489  0.6190 -0.0031 -1.1552
    7MOL0     O  836   3.810   1.474   9.527  0.6652  1.0201 -0.1951
    7MOL0     C  837   3.846   1.397   9.644  0.3388 -0.0571  0.1153
    7MOL0     C  838   3.890   1.496   9.751 -0.0255 -0.3114 -0.6510
    7MOL0     C  839   4.014   1.582   9.704 -0.0116 -0.2094 -0.3774
    7MOL0     C  840   4.071   1.657   9.821 -0.0314  0.3493  0.1035
    7MOL0     C  841   4.217   1.711   9.803 -0.7814  0.0675  0.6515
    7MOL0     C  842   4.279   1.729   9.942 -0.7711 -0.2132 -0.1336
    7MOL0     C  843   4.432   1.764   9.928  0.9017  0.2485 -0.1494
    7MOL0     C  844   4.449   1.909   9.867 -0.4303  0.1721  0.1266
    7MOL0     N  845   4.591   1.940   9.867  0.1255 -0.4177 -0.4427
    7MOL0     C  846   4.651   2.021   9.959  0.2337  1.1671  0.7739
    7MOL0     C  847   4.766   2.050   9.905  0.1403  0.1488 -0.1546
    7MOL0     C  848   4.845   2.164   9.942  0.0718  0.2404  0.0973
    7MOL0     C  849   4.907   2.146  10.076 -0.4410 -0.1511 -0.5970
    7MOL0     C  850   5.012   2.033  10.100 -0.1326 -0.2134 -0.5034
    7MOL0     C  851   5.133   2.052   9.999  0.8639 -0.0334  0.4849
    7MOL0     O  852   5.182   2.185  10.031 -0.7848  0.1416 -0.1501
    7MOL0     C  853   5.272   2.236   9.940 -0.3505  1.0801  0.2571
    7MOL0     C  854   5.250   2.371   9.905 -0.4988 -0.8484 -0.5596
    7MOL0     C  855   5.335   2.440   9.811 -0.2995 -0.4304  0.4080
    7MOL0     C  856   5.308   2.586   9.790 -0.4711  0.1565  0.4863
    7MOL0     C  857   5.444   2.369   9.747  0.4314 -0.4601  0.1338
    7MOL0     C  858   5.535   2.432   9.648 -0.2771  0.2838 -1.0628
    7MOL0     O  859   5.633   2.356   9.602  1.2029  0.6772 -1.0889
    7MOL0     C  860   5.718   2.391   9.506  0.1399 -0.5839 -0.2052
    7MOL0     C  861   5.679   2.393   9.369  0.0812 -0.4622 -0.1799
    7MOL0     C  862   5.781   2.411   9.269  0.3218  0.1923  0.4249
    7MOL0     C  863   5.920   2.421   9.308  0.2532 -0.8092  0.2607
    7MOL0     O  864   6.013   2.433   9.210  0.1555 -0.0530  1.0952
    7MOL0     C  865   6.138   2.369   9.233  0.2534 -0.1290  0.2234
    7MOL0     C  866   6.214   2.332   9.103 -0.5187  0.6264 -0.5643
    7MOL0     C  867   6.280   2.455   9.051 -0.5197  0.1946 -0.3003
    7MOL0     C  868   6.436   2.436   9.042  0.4236  0.5937 -0.2852
    7MOL0     C  869   6.481   2.566   8.977 -0.1468 -0.1709 -0.0774
    7MOL0     C  870   6.638   2.579   8.976 -0.2281  0.0191  0.0358
    7MOL0     C  871   6.690   2.719   8.945 -0.1288  0.3591 -0.8366
    7MOL0     C  872   6.805   2.724   8.851 -0.8660 -1.3656  0.4106
    7MOL0    Cl  873   6.750   2.661   8.692 -0.1110 -0.2574 -0.1401
    7MOL0     C  874   5.948   2.428   9.443  0.3921 -0.0430  0.3517
    7MOL0     C  875   5.847   2.415   9.536  0.2228  0.0971 -0.2482
    7MOL0     O  876   5.512   2.543   9.597  0.1392  0.0324 -0.1638
    7MOL0     C  877   5.456   2.234   9.777  0.0249 -0.6930 -0.3685
    7MOL0     C  878   5.387   2.164   9.880 -0.6267 -0.9590  0.1086
    7MOL0     N  879   4.783   1.987   9.778  0.7469 -0.0675 -0.0711
    7MOL0     N  880   4.670   1.925   9.759 -0.2478  0.6121  0.8617
    7MOL0     C  881   3.570   1.480   9.575  0.7212  0.6968  0.2966
    7MOL0     C  882   3.444   1.476   9.520 -0.1094 -0.5286  0.1290
    7MOL0     C  883   3.134   1.346   9.206 -1.0649 -0.0343  0.0110
    7MOL0     C  884   3.117   1.458   9.120  0.1556  0.3888  0.3317
    7MOL0     C  885   3.021   1.455   9.025  1.3583 -0.2916 -0.5159
    7MOL0     C  886   2.939   1.340   8.998 -0.7959 -0.4559 -0.2924
    7MOL0     O  887   2.851   1.356   8.899 -0.9631  0.3409  0.1360
    7MOL0     C  888   2.773   1.244   8.855 -0.0724 -0.1209  0.0642
    7MOL0     C  889   2.631   1.232   8.912  0.1932 -0.5384 -0.0951
    7MOL0     C  890   2.541   1.130   8.846  0.9382 -0.0781  0.5441
    7MOL0     C  891   2.396   1.139   8.889  0.0663 -0.1490  0.8476
    7MOL0     C  892   2.347   1.269   8.828  0.4115  0.0513  0.2802
    7MOL0     C  893   2.298   1.373   8.786  0.0127  0.7001  0.2270
    7MOL0     C  894   2.959   1.226   9.080  0.2313  0.6908 -0.1965
    7MOL0     C  895   3.053   1.225   9.187  0.0349 -0.5324  0.0754
    7MOL0     C  896   3.061   1.092   9.248 -0.2152  0.4107 -0.8662
    7MOL0     H  897   3.512   1.554   9.204 -1.7734 -1.9056 -0.7593
    7MOL0     H  898   3.746   1.540   9.290 -0.5197  0.0262 -0.6786
    7MOL0     H  899   3.926   1.333   9.607 -0.1327  0.5100 -2.0190
    7MOL0     H  900   3.765   1.339   9.690  0.4435  1.6126  2.6188
    7MOL0     H  901   3.809   1.567   9.769  1.8366  1.2322  2.6454
    7MOL0     H  902   3.919   1.445   9.844  0.0877  0.5411 -0.2165
    7MOL0     H  903   4.089   1.515   9.662  0.4942  0.2288 -0.1940
    7MOL0     H  904   3.991   1.659   9.630  0.1019  0.1969 -0.0013
    7MOL0     H  905   4.000   1.739   9.835 -0.6784 -0.4433  1.7156
    7MOL0     H  906   4.059   1.598   9.912  1.0430  0.2977  0.2185
    7MOL0     H  907   4.209   1.810   9.756 -1.0312  0.4934  1.5794
    7MOL0     H  908   4.286   1.645   9.749  1.2967  0.8570  2.2149
    7MOL0     H  909   4.230   1.810   9.999  0.0791  2.0727 -2.4522
    7MOL0     H  910   4.271   1.635   9.996  0.3491  0.9780  2.2820
    7MOL0     H  911   4.481   1.692   9.862  0.8179  0.2491 -0.2143
    7MOL0     H  912   4.483   1.741  10.022  1.8299 -3.0115 -1.3098
    7MOL0     H  913   4.413   1.890   9.765 -3.2641 -0.8656  1.2212
    7MOL0     H  914   4.390   1.985   9.918  1.8043  2.2114 -0.1920
    7MOL0     H  915   4.616   2.055  10.056  1.1089  0.9714  1.1709
    7MOL0     H  916   4.787   2.256   9.938  0.9495  0.7826 -0.7895
    7MOL0     H  917   4.921   2.179   9.864  0.0765 -2.5867 -0.5628
    7MOL0     H  918   4.964   2.236  10.101  1.7390 -1.6684  0.3016
    7MOL0     H  919   4.820   2.133  10.140  0.0141  0.5749  0.1920
    7MOL0     H  920   5.061   2.054  10.195  2.4788  0.5239 -1.9100
    7MOL0     H  921   4.967   1.934  10.095 -0.1649 -0.2197 -0.0994
    7MOL0     H  922   5.198   1.970  10.032  1.0474  0.4951  1.4698
    7MOL0     H  923   5.110   2.035   9.893  3.1140 -1.5659  0.1778
    7MOL0     H  924   5.170   2.425   9.954  1.8853  1.5168  1.0292
    7MOL0     H  925   5.396   2.631   9.837  0.3933 -0.4276 -0.5326
    7MOL0     H  926   5.218   2.612   9.845  0.0586  1.4988  0.7611
    7MOL0     H  927   5.295   2.622   9.687 -1.4435  1.8521  1.1607
    7MOL0     H  928   5.579   2.370   9.333  0.3605 -2.2512  0.1093
    7MOL0     H  929   5.743   2.396   9.169 -0.2370 -1.1866  0.8270
    7MOL0     H  930   6.201   2.433   9.295 -1.8542  2.9196 -0.5251
    7MOL0     H  931   6.125   2.274   9.286  0.0135  0.5896  1.4942
    7MOL0     H  932   6.296   2.265   9.133  0.2573  1.1910 -1.3603
    7MOL0     H  933   6.154   2.277   9.030 -0.0572 -1.1254  0.3249
    7MOL0     H  934   6.258   2.545   9.110  0.2362  1.6318 -2.1151
    7MOL0     H  935   6.245   2.474   8.949 -2.4079  1.6177  0.5549
    7MOL0     H  936   6.449   2.342   8.988 -3.0779 -0.7251  0.8564
    7MOL0     H  937   6.472   2.419   9.144 -0.5884  0.4451  0.0662
    7MOL0     H  938   6.442   2.580   8.876  0.5901 -0.6835 -0.4466
    7MOL0     H  939   6.433   2.637   9.044 -1.2449 -1.8401  0.9846
    7MOL0     H  940   6.687   2.503   8.914  1.6582  0.6086  0.7200
    7MOL0     H  941   6.654   2.552   9.081 -3.8540 -2.1181  0.2019
    7MOL0     H  942   6.708   2.775   9.038 -2.0773  1.1879 -0.9099
    7MOL0     H  943   6.608   2.775   8.899 -1.8666  0.3439  1.9696
    7MOL0     H  944   6.894   2.675   8.891  0.2334  1.2501  1.3734
    7MOL0     H  945   6.836   2.826   8.826 -0.7102 -1.6435 -0.5812
    7MOL0     H  946   6.044   2.461   9.482  0.6185  1.4511 -1.3659
    7MOL0     H  947   5.876   2.403   9.640 -1.1746 -2.4580 -0.0720
    7MOL0     H  948   5.533   2.177   9.724  0.3643 -1.1875  0.6343
    7MOL0     H  949   5.406   2.062   9.913 -1.5619 -1.0798  0.2939
    7MOL0     H  950   3.581   1.454   9.680  2.2476  2.9918  0.7743
    7MOL0     H  951   3.357   1.457   9.583  0.2834  2.1307  1.6088
    7MOL0     H  952   3.186   1.541   9.127  0.2173  0.2822  1.2196
    7MOL0     H  953   3.003   1.538   8.957  0.3849 -0.8189 -0.9213
    7MOL0     H  954   2.762   1.260   8.747  0.3473 -2.3983 -0.3484
    7MOL0     H  955   2.822   1.148   8.870  0.9326  0.6473  2.0950
    7MOL0     H  956   2.584   1.331   8.907  1.3601 -0.0436 -2.4990
    7MOL0     H  957   2.626   1.199   9.016  0.5950 -4.7781 -1.2019
    7MOL0     H  958   2.539   1.141   8.737 -0.0888  1.5654  0.6892
    7MOL0     H  959   2.580   1.033   8.878  2.8608  0.6210  0.4850
    7MOL0     H  960   2.385   1.140   8.997  1.0255  2.6557  0.9871
    7MOL0     H  961   2.346   1.051   8.846 -1.0774 -0.0402  1.8974
    7MOL0     H  962   2.269   1.472   8.755 -4.6635 -1.1360 -2.2209
    7MOL0     H  963   2.889   1.144   9.066  3.1902 -2.1740  0.4659
    7MOL0     H  964   2.979   1.024   9.223 -0.4210  0.3112  0.0600
    7MOL0     H  965   3.160   1.046   9.235 -0.7076 -0.3243 -2.1855
    7MOL0     H  966   3.046   1.106   9.355  0.1388 -1.7600 -0.4834
    8MOL0     O  967   0.598   8.353  10.083 -0.9069  0.1379  0.1621
    8MOL0     C  968   0.498   8.335  10.150 -0.4589  0.4531 -0.4530
    8MOL0     O  969   0.500   8.280  10.280 -0.3643 -0.2227  0.4252
    8MOL0     C  970   0.615   8.260  10.350  0.1233 -0.5942 -1.3387
    8MOL0     C  971   0.601   8.177  10.460 -0.2743  0.6523  0.1931
    8MOL0     C  972   0.703   8.137  10.551  1.0072 -0.6074  0.4279
    8MOL0     C  973   0.833   8.195  10.532  1.6980  0.4468  0.5609
    8MOL0     O  974   0.936   8.176  10.621 -0.5581  0.5209 -0.0023
    8MOL0     C  975   0.945   8.037  10.675  0.2903  0.7159 -0.5429
    8MOL0     C  976   1.091   7.981  10.654  0.1729  0.7023  0.5188
    8MOL0     C  977   1.184   8.034  10.763  0.6859 -0.2745  0.0229
    8MOL0     C  978   1.327   8.003  10.722  0.9211 -0.9337 -0.3460
    8MOL0     C  979   1.432   8.042  10.835 -0.2586 -0.0736  0.0019
    8MOL0     C  980   1.445   8.197  10.866  0.5891 -0.4315  0.1788
    8MOL0     C  981   1.574   8.237  10.946  0.0455  0.2031 -0.2584
    8MOL0     C  982   1.700   8.232  10.862 -0.7190 -0.1316 -0.2849
    8MOL0     N  983   1.820   8.245  10.953  0.7651  0.1344 -0.0687
    8MOL0     C  984   1.874   8.361  11.006  0.1662 -0.6720 -0.0665
    8MOL0     C  985   1.999   8.317  11.045 -0.1630  0.4580  0.1257
    8MOL0     C  986   2.099   8.397  11.115 -0.5530  0.0630  0.3372
    8MOL0     C  987   2.227   8.390  11.037  0.1036  1.1282  0.3281
    8MOL0     C  988   2.295   8.532  11.040  0.0684 -0.3554  0.8488
    8MOL0     C  989   2.428   8.527  10.981 -0.3707  0.0534 -0.2993
    8MOL0     O  990   2.530   8.454  11.055 -0.0403  0.5085 -0.8354
    8MOL0     C  991   2.663   8.457  11.015 -0.7721 -0.3616  0.4233
    8MOL0     C  992   2.719   8.529  10.899  0.5579  1.1280 -0.6445
    8MOL0     C  993   2.858   8.534  10.873 -0.9520 -0.3843 -1.4704
    8MOL0     C  994   2.913   8.629  10.767 -0.0959  0.2537 -0.1511
    8MOL0     C  995   2.942   8.460  10.964 -0.3158  0.0397 -0.3893
    8MOL0     C  996   3.088   8.446  10.947 -0.3220 -0.2497 -0.2340
    8MOL0     O  997   3.152   8.561  10.914 -0.6229 -0.6806  0.2970
    8MOL0     C  998   3.276   8.542  10.857 -0.1855  1.0885  0.3207
    8MOL0     C  999   3.387   8.536  10.934  0.1665  0.2334 -0.1657
    8MOL0     C 1000   3.515   8.523  10.874  0.1410  0.5771 -0.0195
    8MOL0     C 1001   3.529   8.520  10.738 -0.0351  0.3592  0.9895
    8MOL0     O 1002   3.644   8.487  10.666 -0.7636 -0.1310  0.0172
    8MOL0     C 1003   3.755   8.458  10.743 -0.4864 -0.0218  0.0553
    8MOL0     C 1004   3.877   8.433  10.658 -0.0190  0.3344 -0.9834
    8MOL0     C 1005   3.986   8.346  10.722  0.7744  0.5440  1.1231
    8MOL0     C 1006   4.108   8.330  10.630  0.1892  0.3019 -0.5294
    8MOL0     C 1007   4.210   8.220  10.671  0.1430 -0.0168  0.1176
    8MOL0     C 1008   4.328   8.207  10.562  0.3836  0.7919 -0.5372
    8MOL0     C 1009   4.393   8.059  10.585 -0.2055  0.2411  0.0521
    8MOL0     C 1010   4.488   8.053  10.699  0.1385  0.1725  0.1119
    8MOL0    Cl 1011   4.573   7.890  10.699 -0.0610 -0.4011 -0.2211
    8MOL0     C 1012   3.415   8.521  10.661 -0.0018 -0.6490 -0.6971
    8MOL0     C 1013   3.285   8.528  10.720  0.2625  0.1326  0.5487
    8MOL0     O 1014   3.140   8.334  10.946  0.6821  0.2766  0.3439
    8MOL0     C 1015   2.889   8.389  11.075 -0.5598 -0.6103  0.5932
    8MOL0     C 1016   2.753   8.384  11.091 -0.5802 -0.4787 -0.1598
    8MOL0     N 1017   2.006   8.183  11.024 -0.4754  1.0589 -0.6179
    8MOL0     N 1018   1.897   8.132  10.969  0.0107  0.8874  0.5434
    8MOL0     C 1019   0.852   8.281  10.419 -0.2441  0.0699 -0.5808
    8MOL0     C 1020   0.743   8.313  10.332  0.9096  0.2116 -0.2183
    8MOL0     C 1021   0.367   8.363  10.079 -0.1428 -0.1357  0.4746
    8MOL0     C 1022   0.250   8.381  10.155 -0.5155  0.4903 -0.3235
    8MOL0     C 1023   0.125   8.394  10.100 -0.3763  0.5311  0.2352
    8MOL0     C 1024   0.111   8.395   9.967  0.5020 -0.2096  1.3387
    8MOL0     O 1025  -0.018   8.407   9.917 -0.6693 -0.1431 -0.6972
    8MOL0     C 1026  -0.036   8.366   9.785  0.3812 -0.1311  0.9812
    8MOL0     C 1027  -0.176   8.410   9.747 -0.1338  0.0638 -0.1105
    8MOL0     C 1028  -0.281   8.352   9.836 -0.1460 -0.5265 -0.1127
    8MOL0     C 1029  -0.419   8.370   9.792  1.1171  0.0519 -0.3821
    8MOL0     C 1030  -0.456   8.507   9.772 -0.3283  0.0925  0.7873
    8MOL0     C 1031  -0.477   8.625   9.762 -0.4414 -0.5586  0.6855
    8MOL0     C 1032   0.226   8.383   9.887  0.2221  0.1812 -0.2190
    8MOL0     C 1033   0.344   8.365   9.939 -0.1655  0.2301 -0.2168
    8MOL0     C 1034   0.460   8.337   9.844  0.5064 -0.2910  0.6155
    8MOL0     H 1035   0.506   8.135  10.492  0.0492 -0.9822 -0.8730
    8MOL0     H 1036   0.679   8.077  10.638 -0.9821 -1.2083 -0.4676
    8MOL0     H 1037   0.871   7.972  10.627 -0.5223  0.9391  0.3602
    8MOL0     H 1038   0.917   8.043  10.781  0.6376  0.6587 -0.4476
    8MOL0     H 1039   1.084   7.872  10.666  1.7588  0.6610  1.2649
    8MOL0     H 1040   1.136   8.019  10.561 -3.1771  4.2566  0.0982
    8MOL0     H 1041   1.173   8.143  10.761  1.7798 -0.1447 -2.3876
    8MOL0     H 1042   1.149   7.997  10.860  1.6256  1.7344  1.1793
    8MOL0     H 1043   1.338   7.895  10.706 -1.4272 -2.2494  4.7564
    8MOL0     H 1044   1.346   8.055  10.628 -0.1868 -0.2323 -0.1991
    8MOL0     H 1045   1.532   8.014  10.801  1.0841  0.9617  2.7416
    8MOL0     H 1046   1.406   7.981  10.922 -1.1815  0.3007 -0.0014
    8MOL0     H 1047   1.439   8.251  10.771  2.9972 -1.8855 -0.9013
    8MOL0     H 1048   1.359   8.224  10.927  0.5629  1.1934 -0.5385
    8MOL0     H 1049   1.591   8.176  11.035  1.5024 -0.5736 -1.0377
    8MOL0     H 1050   1.569   8.341  10.980  0.3681  0.2450 -0.3318
    8MOL0     H 1051   1.702   8.144  10.797  0.9382  0.8302 -1.6119
    8MOL0     H 1052   1.694   8.319  10.796 -5.9803  0.3723  0.4491
    8MOL0     H 1053   1.826   8.458  11.014  2.4989  0.6717 -1.1746
    8MOL0     H 1054   2.123   8.356  11.214  4.4950 -0.1129 -0.6574
    8MOL0     H 1055   2.064   8.498  11.136  1.9505  1.0929 -0.0161
    8MOL0     H 1056   2.289   8.308  11.074 -2.7398 -2.0189 -1.2789
    8MOL0     H 1057   2.196   8.366  10.935 -1.9892  2.4557  0.6061
    8MOL0     H 1058   2.242   8.605  10.978 -1.0515  0.1142  2.3185
    8MOL0     H 1059   2.302   8.570  11.142  2.7690 -1.6130  1.2253
    8MOL0     H 1060   2.429   8.471  10.887  4.2860 -1.1571  0.2023
    8MOL0     H 1061   2.472   8.626  10.969  3.8101 -1.7505 -2.1570
    8MOL0     H 1062   2.660   8.592  10.833  1.0279 -1.2663 -3.5631
    8MOL0     H 1063   2.982   8.571  10.705 -2.6915 -2.3879 -0.7899
    8MOL0     H 1064   2.973   8.706  10.816  2.5083 -2.2055  0.8201
    8MOL0     H 1065   2.833   8.677  10.710 -1.1508 -0.2592  0.8535
    8MOL0     H 1066   3.377   8.534  11.042  1.1551  1.2326 -0.0387
    8MOL0     H 1067   3.606   8.530  10.934 -0.3716  0.3298  0.7993
    8MOL0     H 1068   3.782   8.545  10.803  0.7620 -1.1394  1.2063
    8MOL0     H 1069   3.739   8.371  10.808 -0.6686  0.4121  0.6062
    8MOL0     H 1070   3.842   8.368  10.578  0.9562 -2.3000  0.6043
    8MOL0     H 1071   3.919   8.524  10.613  0.6890  1.1882  1.2508
    8MOL0     H 1072   3.936   8.249  10.720  0.6088  0.6297 -0.8716
    8MOL0     H 1073   4.009   8.367  10.827  0.3542  0.8496  1.1546
    8MOL0     H 1074   4.164   8.423  10.615 -1.7526  1.5891 -0.1811
    8MOL0     H 1075   4.072   8.305  10.529 -0.5412 -0.8061 -0.0125
    8MOL0     H 1076   4.260   8.242  10.765  0.3370 -0.2614  0.0727
    8MOL0     H 1077   4.157   8.125  10.682 -1.1430  0.4601 -1.5334
    8MOL0     H 1078   4.394   8.293  10.564 -0.9731  1.9993 -3.0397
    8MOL0     H 1079   4.277   8.201  10.465  0.4558 -0.9842 -0.4986
    8MOL0     H 1080   4.450   8.031  10.496  1.4020  1.1139  0.7601
    8MOL0     H 1081   4.315   7.989  10.617  1.4379 -0.7332  2.2277
    8MOL0     H 1082   4.433   8.069  10.792  0.1015  2.7233 -0.2620
    8MOL0     H 1083   4.565   8.131  10.696 -0.0874  0.3849 -0.3305
    8MOL0     H 1084   3.425   8.524  10.553  1.1382  1.5543 -0.5814
    8MOL0     H 1085   3.188   8.535  10.673  0.6421  1.6039 -0.0719
    8MOL0     H 1086   2.942   8.333  11.151  1.7434  1.4671  0.6197
    8MOL0     H 1087   2.722   8.330  11.180  0.4826 -0.0519  0.5021
    8MOL0     H 1088   0.955   8.313  10.406  0.7070 -2.2802  0.6167
    8MOL0     H 1089   0.763   8.379  10.248  0.6968 -1.6389 -1.7836
    8MOL0     H 1090   0.255   8.393  10.263  4.4530  0.7001 -0.3657
    8MOL0     H 1091   0.041   8.412  10.166 -0.1522  0.3452  0.5791
    8MOL0     H 1092   0.027   8.422   9.715 -0.1211  2.5569  2.5468
    8MOL0     H 1093  -0.028   8.259   9.765  0.6428 -0.0617  0.6973
    8MOL0     H 1094  -0.202   8.375   9.647  0.8430  3.2129 -1.5793
    8MOL0     H 1095  -0.167   8.519   9.754  1.8205  0.0857 -2.1929
    8MOL0     H 1096  -0.261   8.244   9.844  1.2371 -0.4499 -2.0103
    8MOL0     H 1097  -0.273   8.387   9.939 -3.2791  0.1376  0.0040
    8MOL0     H 1098  -0.485   8.321   9.864 -0.7941 -0.0947 -2.1437
    8MOL0     H 1099  -0.437   8.313   9.700 -2.3029 -1.0474  0.8107
    8MOL0     H 1100  -0.489   8.731   9.753  1.0991 -0.2851  1.4548
    8MOL0     H 1101   0.216   8.365   9.780  2.5208 -1.9095 -0.1811
    8MOL0     H 1102   0.505   8.237   9.853 -1.2850 -1.1263  0.8027
    8MOL0     H 1103   0.429   8.344   9.739  0.6678  3.9571  0.6837
    8MOL0     H 1104   0.536   8.414   9.855 -0.1785  0.2279  1.9536
    9MOL0     O 1105   6.507   5.505   5.188 -0.2861  0.0754 -0.0321
    9MOL0     C 1106   6.387   5.490   5.197 -0.0435 -0.2980  0.3252
    9MOL0     O 1107   6.328   5.482   5.322 -0.0554 -0.3677  0.0713
    9MOL0     C 1108   6.398   5.461   5.433 -0.3271  0.3085 -0.2821
    9MOL0     C 1109   6.492   5.363   5.437 -0.1201  0.5625 -0.1538
    9MOL0     C 1110   6.558   5.329   5.553  0.3040  0.6378 -0.2238
    9MOL0     C 1111   6.542   5.404   5.672  0.2210 -0.2948  0.7103
    9MOL0     O 1112   6.599   5.379   5.792 -0.9806 -0.0985 -0.0954
    9MOL0     C 1113   6.742   5.414   5.783  0.3241 -0.4762  0.2197
    9MOL0     C 1114   6.761   5.546   5.857  0.0205 -0.6421  0.2264
    9MOL0     C 1115   6.912   5.559   5.894  0.3535  0.4501  0.4203
    9MOL0     C 1116   6.919   5.700   5.951  0.3669  0.5974 -0.3527
    9MOL0     C 1117   7.041   5.723   6.022 -0.0092  1.3082  0.1013
    9MOL0     C 1118   7.167   5.710   5.929  0.0482 -0.4622  0.5160
    9MOL0     C 1119   7.275   5.788   5.984 -0.0932 -0.4375  0.2757
    9MOL0     C 1120   7.335   5.736   6.108  0.2877 -0.6518 -0.6336
    9MOL0     N 1121   7.465   5.805   6.145 -0.5405  1.1326  0.8793
    9MOL0     C 1122   7.485   5.930   6.183 -0.4185  0.0085  0.3834
    9MOL0     C 1123   7.618   5.934   6.201 -0.7038  0.3206 -0.1786
    9MOL0     C 1124   7.693   6.053   6.228 -0.3298 -0.0782 -1.0702
    9MOL0     C 1125   7.833   6.030   6.281  0.6103  0.1380  0.6095
    9MOL0     C 1126   7.890   6.135   6.380  0.1894  0.2024  0.8543
    9MOL0     C 1127   8.038   6.099   6.396 -0.3692  0.2057  0.7624
    9MOL0     O 1128   8.078   6.172   6.509  0.0797 -0.3652 -0.2161
    9MOL0     C 1129   8.206   6.171   6.555 -0.0393  0.3179  0.6937
    9MOL0     C 1130   8.210   6.208   6.684 -0.5899 -0.5095  0.1210
    9MOL0     C 1131   8.338   6.227   6.745 -0.2208 -0.4021  0.2442
    9MOL0     C 1132   8.322   6.263   6.889 -0.5473  0.4611  0.1206
    9MOL0     C 1133   8.461   6.216   6.672  0.5152  0.2134 -0.1217
    9MOL0     C 1134   8.600   6.224   6.733  0.5149  0.0871 -0.2825
    9MOL0     O 1135   8.706   6.179   6.661 -0.0671  0.3088  0.2312
    9MOL0     C 1136   8.831   6.179   6.715  0.2418 -0.3825  0.1912
    9MOL0     C 1137   8.922   6.275   6.673 -0.1756  0.3901 -0.3651
    9MOL0     C 1138   9.052   6.281   6.716 -0.3334  0.5987 -0.3505
    9MOL0     C 1139   9.097   6.192   6.804 -0.6054 -0.5921 -0.4991
    9MOL0     O 1140   9.232   6.202   6.850 -0.5665  0.1553 -1.1959
    9MOL0     C 1141   9.328   6.264   6.761 -0.7498  0.1543 -0.1525
    9MOL0     C 1142   9.463   6.208   6.806  0.2351  0.3252  0.6704
    9MOL0     C 1143   9.569   6.277   6.705  0.3761 -0.1776 -0.5309
    9MOL0     C 1144   9.708   6.208   6.734 -0.0431 -0.2176  0.4506
    9MOL0     C 1145   9.785   6.207   6.604 -0.9200 -0.0900 -0.4202
    9MOL0     C 1146   9.933   6.210   6.623 -0.2708 -0.6656 -0.0977
    9MOL0     C 1147   9.978   6.083   6.700  0.0493 -0.0456 -0.2335
    9MOL0     C 1148  10.129   6.085   6.735 -0.1143  0.8958 -0.7222
    9MOL0    Cl 1149  10.229   6.130   6.602  0.0198  0.1785 -0.1829
    9MOL0     C 1150   9.017   6.086   6.847  0.1263 -0.8274 -0.2350
    9MOL0     C 1151   8.885   6.077   6.799 -0.3093 -0.4501  0.0500
    9MOL0     O 1152   8.602   6.283   6.843  0.6511 -0.0274  0.4118
    9MOL0     C 1153   8.442   6.174   6.543  0.1401  0.0980  0.2942
    9MOL0     C 1154   8.322   6.156   6.484 -0.5131 -0.3627 -0.0493
    9MOL0     N 1155   7.679   5.808   6.175  0.5759 -0.4038  0.3789
    9MOL0     N 1156   7.585   5.733   6.139 -0.4826  0.0280  0.3782
    9MOL0     C 1157   6.434   5.500   5.667 -0.4640  0.0047 -1.1648
    9MOL0     C 1158   6.371   5.535   5.549  0.3480  0.8105  0.4360
    9MOL0     C 1159   6.303   5.459   5.078  0.2892  0.0913 -0.3561
    9MOL0     C 1160   6.323   5.541   4.967  1.1240  0.7020  0.1566
    9MOL0     C 1161   6.239   5.529   4.849  0.2549 -0.2865 -0.1683
    9MOL0     C 1162   6.125   5.452   4.855 -0.1022  0.4764  0.3379
    9MOL0     O 1163   6.040   5.460   4.753  0.4970 -0.1538 -0.6172
    9MOL0     C 1164   5.964   5.346   4.704 -0.3594 -0.0992 -0.1208
    9MOL0     C 1165   5.910   5.384   4.569  0.8188  0.3931 -0.1305
    9MOL0     C 1166   6.024   5.376   4.465  0.2136  0.3705  0.2248
    9MOL0     C 1167   5.982   5.439   4.327 -0.1995  0.7827  0.5573
    9MOL0     C 1168   5.885   5.357   4.249  0.1119  0.4392 -0.1166
    9MOL0     C 1169   5.820   5.291   4.174  0.7649  1.2199  1.0754
    9MOL0     C 1170   6.116   5.365   4.966 -0.0198 -0.0417  0.0360
    9MOL0     C 1171   6.204   5.360   5.075  0.2422 -0.1771  0.0686
    9MOL0     C 1172   6.174   5.257   5.179 -0.1026 -0.4829  0.3565
    9MOL0     H 1173   6.512   5.304   5.348 -2.3820  0.4299 -0.6445
    9MOL0     H 1174   6.630   5.248   5.551 -1.2772 -0.8231 -0.5712
    9MOL0     H 1175   6.783   5.427   5.682  2.2379  0.6307  1.0835
    9MOL0     H 1176   6.802   5.335   5.827 -1.3966 -2.0437 -0.1020
    9MOL0     H 1177   6.719   5.630   5.801  3.4980  0.0376 -1.6845
    9MOL0     H 1178   6.711   5.545   5.954 -1.3681 -1.0443 -0.4745
    9MOL0     H 1179   6.937   5.476   5.961 -4.7200 -3.6830 -2.0741
    9MOL0     H 1180   6.977   5.548   5.807 -0.1730 -3.3122  0.3414
    9MOL0     H 1181   6.907   5.774   5.871 -2.5057  1.2318  0.5550
    9MOL0     H 1182   6.832   5.709   6.016  0.9453  0.0890  0.5009
    9MOL0     H 1183   7.035   5.656   6.108  0.9426  0.3317 -0.5686
    9MOL0     H 1184   7.033   5.822   6.069 -0.8731  1.0897  0.4148
    9MOL0     H 1185   7.208   5.612   5.903  1.4310  0.4273 -0.8258
    9MOL0     H 1186   7.132   5.748   5.833  1.5385  0.7558  0.4115
    9MOL0     H 1187   7.254   5.893   6.006 -0.0021  0.4412 -3.2342
    9MOL0     H 1188   7.362   5.781   5.918  2.3407 -2.9042  3.4405
    9MOL0     H 1189   7.268   5.766   6.189  1.8160  0.6036  0.2160
    9MOL0     H 1190   7.345   5.627   6.111  0.0354 -0.6672  1.7260
    9MOL0     H 1191   7.414   6.009   6.206 -0.2043 -0.1176  1.5834
    9MOL0     H 1192   7.637   6.107   6.305  1.7943  1.7827 -0.7223
    9MOL0     H 1193   7.704   6.111   6.136 -2.8621  1.6234 -0.3879
    9MOL0     H 1194   7.831   5.932   6.329 -2.9007 -0.9556 -1.3545
    9MOL0     H 1195   7.891   6.015   6.190  0.2181  0.1620  0.3501
    9MOL0     H 1196   7.873   6.235   6.338  0.0173 -0.1511  0.0534
    9MOL0     H 1197   7.842   6.124   6.477  2.2558 -0.4146  1.8648
    9MOL0     H 1198   8.067   5.995   6.413  1.5005  0.5774  0.1071
    9MOL0     H 1199   8.095   6.131   6.308  1.1279  3.3428  2.7024
    9MOL0     H 1200   8.116   6.225   6.735 -0.5134 -0.0521  0.1120
    9MOL0     H 1201   8.376   6.186   6.946 -2.5713 -1.2255 -0.1441
    9MOL0     H 1202   8.222   6.249   6.929 -1.5915 -2.7369 -3.1016
    9MOL0     H 1203   8.361   6.365   6.900 -0.1503  0.3449 -0.1803
    9MOL0     H 1204   8.895   6.366   6.620  2.3633  0.5389 -1.5587
    9MOL0     H 1205   9.119   6.359   6.683  1.4376 -1.2892 -1.4778
    9MOL0     H 1206   9.309   6.239   6.656 -3.2925  1.2603 -0.0363
    9MOL0     H 1207   9.335   6.371   6.779 -2.4415  0.5736 -1.6709
    9MOL0     H 1208   9.491   6.228   6.910  0.2941 -0.5516  0.8234
    9MOL0     H 1209   9.444   6.101   6.794 -1.4643  0.6837 -0.1800
    9MOL0     H 1210   9.580   6.383   6.734  0.0411  0.3998 -2.4024
    9MOL0     H 1211   9.543   6.275   6.599  1.9831  0.9705 -0.9941
    9MOL0     H 1212   9.685   6.102   6.745 -0.5764 -0.1162  0.3204
    9MOL0     H 1213   9.765   6.263   6.810  1.9404 -0.1824 -0.9941
    9MOL0     H 1214   9.758   6.117   6.549 -0.6827 -0.7516  0.5256
    9MOL0     H 1215   9.770   6.298   6.545  1.6632  0.1389 -0.8099
    9MOL0     H 1216   9.962   6.306   6.668 -4.8329 -0.3976  2.9579
    9MOL0     H 1217   9.969   6.211   6.520  0.8214 -1.3547  0.2507
    9MOL0     H 1218   9.963   6.004   6.625 -0.6697  0.1920 -0.3447
    9MOL0     H 1219   9.924   6.076   6.795  0.6203  3.1105  0.4432
    9MOL0     H 1220  10.168   5.991   6.775 -2.6318 -0.5611 -1.4695
    9MOL0     H 1221  10.141   6.157   6.817  1.0041 -1.6175  1.4483
    9MOL0     H 1222   9.066   6.016   6.914  0.7472  0.9853  1.3217
    9MOL0     H 1223   8.823   5.996   6.835 -1.0867  0.6828  1.3755
    9MOL0     H 1224   8.527   6.145   6.482  0.1545 -2.2464  1.3140
    9MOL0     H 1225   8.314   6.134   6.377  0.0049  0.0987 -0.1858
    9MOL0     H 1226   6.408   5.547   5.761  1.3745 -0.2596 -0.4930
    9MOL0     H 1227   6.315   5.628   5.557  3.0104  2.3304  3.0273
    9MOL0     H 1228   6.406   5.610   4.975  0.9023  1.2404 -1.6681
    9MOL0     H 1229   6.249   5.592   4.761  3.6446 -0.2957  0.0677
    9MOL0     H 1230   6.032   5.262   4.687  0.2073  0.5718 -1.3097
    9MOL0     H 1231   5.883   5.319   4.773 -0.4970  1.4429  0.3504
    9MOL0     H 1232   5.883   5.490   4.573  5.7933  2.0485 -2.3022
    9MOL0     H 1233   5.827   5.323   4.532  0.5706  1.2472 -1.0145
    9MOL0     H 1234   6.111   5.427   4.508 -0.0844  1.0553  0.0329
    9MOL0     H 1235   6.064   5.276   4.448  0.0453  0.3707 -0.1673
    9MOL0     H 1236   6.065   5.441   4.256 -1.6072 -1.4248 -1.2883
    9MOL0     H 1237   5.940   5.540   4.334  3.0696  2.1642  3.4405
    9MOL0     H 1238   5.759   5.224   4.117  1.4793 -0.4534  2.1989
    9MOL0     H 1239   6.041   5.287   4.977  3.6047 -3.8809  0.4362
    9MOL0     H 1240   6.136   5.302   5.271 -1.6853 -0.0002 -0.5072
    9MOL0     H 1241   6.094   5.190   5.149  0.2934 -0.1541 -1.5365
    9MOL0     H 1242   6.252   5.190   5.218  0.1100  1.0350  2.7745
   10MOL0     O 1243   8.177   6.710   3.689  0.5542 -0.6023  0.6550
   10MOL0     C 1244   8.098   6.714   3.786  0.1704  0.1619 -0.6358
   10MOL0     O 1245   8.120   6.788   3.903  0.1805 -0.7560  0.7712
   10MOL0     C 1246   8.245   6.838   3.937  0.3882  0.1252  0.3625
   10MOL0     C 1247   8.309   6.949   3.869  0.1249  0.5607  0.6976
   10MOL0     C 1248   8.434   6.989   3.905 -0.2511 -0.2943 -0.4265
   10MOL0     C 1249   8.495   6.937   4.019 -0.2334 -0.7732 -0.5040
   10MOL0     O 1250   8.617   6.991   4.070 -0.1528  0.8203  0.6254
   10MOL0     C 1251   8.702   7.074   3.984  0.1154 -0.0533 -1.2239
   10MOL0     C 1252   8.837   7.109   4.056  0.0486  0.7263  0.1462
   10MOL0     C 1253   8.821   7.203   4.173  0.0770 -0.3663 -0.2747
   10MOL0     C 1254   8.947   7.242   4.244 -0.1381 -0.5452  0.0400
   10MOL0     C 1255   8.911   7.352   4.336 -0.2768  0.0450  0.2152
   10MOL0     C 1256   9.022   7.349   4.444 -0.0331 -0.4172  0.8389
   10MOL0     C 1257   9.050   7.483   4.509  0.6725 -0.2638  0.7727
   10MOL0     C 1258   8.935   7.559   4.584 -0.3450  0.6045 -0.0337
   10MOL0     N 1259   8.981   7.680   4.642 -0.0193  0.0657 -0.1791
   10MOL0     C 1260   8.991   7.801   4.578 -0.2238 -0.1029  0.0149
   10MOL0     C 1261   9.057   7.879   4.666 -0.1218  0.5131 -0.3037
   10MOL0     C 1262   9.078   8.019   4.633  0.1599 -0.2825 -0.2940
   10MOL0     C 1263   9.203   8.047   4.558  0.1215 -0.0675 -0.5679
   10MOL0     C 1264   9.188   8.182   4.478 -0.2257  0.1017  0.2439
   10MOL0     C 1265   9.294   8.180   4.362 -0.5105  0.0900 -0.2601
   10MOL0     O 1266   9.424   8.202   4.413 -0.1205 -0.4989  0.0150
   10MOL0     C 1267   9.531   8.227   4.330  0.4208  0.4046  0.0858
   10MOL0     C 1268   9.649   8.254   4.397  0.5133 -0.5697  0.5834
   10MOL0     C 1269   9.775   8.284   4.333  0.3295  0.5424 -1.5497
   10MOL0     C 1270   9.891   8.304   4.428  0.0356 -0.2027  0.9232
   10MOL0     C 1271   9.782   8.270   4.194 -0.6387 -0.6102  0.2368
   10MOL0     C 1272   9.905   8.287   4.118 -0.0493  0.5948  0.1932
   10MOL0     O 1273   9.911   8.225   4.000  1.1865 -0.1019  0.5542
   10MOL0     C 1274  10.037   8.183   3.973  0.0974  0.6531  0.5661
   10MOL0     C 1275  10.130   8.263   3.898 -0.2361 -0.9111 -0.5289
   10MOL0     C 1276  10.261   8.218   3.877  0.0634 -0.9466 -0.1232
   10MOL0     C 1277  10.299   8.094   3.933 -0.6350 -0.3216 -0.0773
   10MOL0     O 1278  10.429   8.049   3.924  1.2225 -0.3394  0.2669
   10MOL0     C 1279  10.534   8.141   3.962  0.6698 -0.4955 -0.1729
   10MOL0     C 1280  10.610   8.179   3.833  0.3839 -0.3426  0.0538
   10MOL0     C 1281  10.657   8.060   3.755  0.0898  1.1217  0.0618
   10MOL0     C 1282  10.781   8.078   3.662 -0.5453 -0.7014 -0.4597
   10MOL0     C 1283  10.799   7.959   3.566 -0.1404 -0.0696 -0.2632
   10MOL0     C 1284  10.700   7.924   3.452  0.6937 -0.3433  0.7392
   10MOL0     C 1285  10.672   8.035   3.345  0.4847 -0.3773 -0.4970
   10MOL0     C 1286  10.761   8.036   3.225 -0.3278 -0.4313  0.6944
   10MOL0    Cl 1287  10.676   8.126   3.093 -0.3497  0.0159  0.3128
   10MOL0     C 1288  10.207   8.014   3.992  0.1775 -0.0152 -0.9114
   10MOL0     C 1289  10.078   8.055   4.011  0.3186 -0.9163  0.0416
   10MOL0     O 1290   9.988   8.351   4.172 -0.4586 -0.2685  0.5028
   10MOL0     C 1291   9.665   8.229   4.126 -0.5199 -0.4582  0.0547
   10MOL0     C 1292   9.540   8.214   4.190  0.7906 -0.4053  0.5392
   10MOL0     N 1293   9.103   7.798   4.771  0.1089  0.7028  0.0020
   10MOL0     N 1294   9.053   7.683   4.754 -0.4014  1.0774 -0.4547
   10MOL0     C 1295   8.436   6.833   4.089 -0.6133  0.1240 -0.2787
   10MOL0     C 1296   8.313   6.787   4.050  0.8143  0.0637  0.2889
   10MOL0     C 1297   7.965   6.636   3.778 -1.5408  0.2988 -0.3504
   10MOL0     C 1298   7.926   6.545   3.883 -0.5923  0.0882 -0.2784
   10MOL0     C 1299   7.802   6.486   3.891 -0.6077 -0.2273  0.7554
   10MOL0     C 1300   7.715   6.499   3.787  0.7692  0.4529  0.0846
   10MOL0     O 1301   7.583   6.463   3.785  0.4608 -0.8785  0.4848
   10MOL0     C 1302   7.535   6.364   3.878  0.6636 -0.3200 -0.2831
   10MOL0     C 1303   7.471   6.435   3.993  0.1987  0.1363 -0.3914
   10MOL0     C 1304   7.390   6.325   4.068 -0.3553  0.3177  0.5752
   10MOL0     C 1305   7.330   6.373   4.193  0.6292  0.2754  0.7859
   10MOL0     C 1306   7.274   6.266   4.274 -1.3659 -0.2434  0.3781
   10MOL0     C 1307   7.244   6.187   4.355  0.5377  0.2147  0.5114
   10MOL0     C 1308   7.752   6.587   3.684  0.4277 -1.2388  0.2549
   10MOL0     C 1309   7.872   6.656   3.673 -0.8923 -0.6539 -0.8240
   10MOL0     C 1310   7.897   6.755   3.565  0.0312  0.0899  0.1912
   10MOL0     H 1311   8.264   6.980   3.775  1.4157  0.6482  0.0914
   10MOL0     H 1312   8.477   7.069   3.847  0.7499 -1.5010 -1.4073
   10MOL0     H 1313   8.641   7.162   3.961 -1.3064 -0.3643  0.9652
   10MOL0     H 1314   8.728   7.032   3.887  2.3255 -1.7956  0.0392
   10MOL0     H 1315   8.877   7.012   4.088  0.0768  0.4427 -0.7105
   10MOL0     H 1316   8.903   7.154   3.981  2.7183 -3.3761 -0.3270
   10MOL0     H 1317   8.758   7.285   4.138 -0.4117 -2.0320 -3.7153
   10MOL0     H 1318   8.759   7.157   4.251  0.9734  3.0285  2.6915
   10MOL0     H 1319   8.982   7.154   4.298 -1.1802 -0.6346  0.5817
   10MOL0     H 1320   9.019   7.270   4.166 -1.7356 -0.2223 -1.3674
   10MOL0     H 1321   8.824   7.338   4.401  0.3256 -2.6027  0.5943
   10MOL0     H 1322   8.910   7.444   4.278 -0.6759 -0.2277 -0.2161
   10MOL0     H 1323   8.991   7.280   4.522 -0.0445  0.5269  1.6975
   10MOL0     H 1324   9.121   7.320   4.407 -0.9925 -2.4808 -0.2798
   10MOL0     H 1325   9.078   7.552   4.429 -0.4995 -1.2074 -0.4974
   10MOL0     H 1326   9.131   7.473   4.582  3.7275  0.4249 -2.2086
   10MOL0     H 1327   8.854   7.592   4.518 -0.1429 -0.0679 -0.6285
   10MOL0     H 1328   8.910   7.492   4.666 -2.4279 -0.0349 -1.1202
   10MOL0     H 1329   8.962   7.831   4.478  1.1970  1.3965 -0.0048
   10MOL0     H 1330   9.079   8.067   4.731  1.2907 -2.4704  0.8300
   10MOL0     H 1331   8.991   8.061   4.582 -0.9929  1.6905  2.9700
   10MOL0     H 1332   9.287   8.056   4.628 -1.7568  2.2584  1.5889
   10MOL0     H 1333   9.219   7.966   4.486  1.3467  0.3441 -0.7798
   10MOL0     H 1334   9.085   8.180   4.440 -0.6876 -0.1264  1.4681
   10MOL0     H 1335   9.201   8.271   4.540 -2.3455  0.7205 -0.0951
   10MOL0     H 1336   9.294   8.084   4.310 -1.4943 -0.3222  0.4827
   10MOL0     H 1337   9.271   8.253   4.284  1.7514 -2.6038 -3.7648
   10MOL0     H 1338   9.640   8.271   4.504 -0.0120  1.7222  0.2218
   10MOL0     H 1339   9.933   8.404   4.437  1.0270 -0.5592  0.4000
   10MOL0     H 1340   9.972   8.233   4.408 -0.3383 -0.1114 -1.2661
   10MOL0     H 1341   9.855   8.274   4.527  0.8611 -1.0224  0.9903
   10MOL0     H 1342  10.109   8.359   3.852  1.9726  1.1078  2.3623
   10MOL0     H 1343  10.339   8.282   3.836  0.2107  0.2000  1.8234
   10MOL0     H 1344  10.492   8.220   4.024 -0.3376 -1.9607  1.0994
   10MOL0     H 1345  10.589   8.073   4.028 -0.4242 -0.3592  0.9143
   10MOL0     H 1346  10.550   8.243   3.767  0.1599  1.9559  2.3433
   10MOL0     H 1347  10.696   8.237   3.866 -0.4994  1.0076  0.0669
   10MOL0     H 1348  10.572   8.024   3.697  0.4008  1.1574 -0.4186
   10MOL0     H 1349  10.687   7.984   3.828  4.6212  0.9472 -1.7039
   10MOL0     H 1350  10.866   8.101   3.726 -2.7060  0.2205  2.2786
   10MOL0     H 1351  10.762   8.163   3.595  1.4946 -1.1497 -1.7078
   10MOL0     H 1352  10.899   7.964   3.522  0.0263  2.1117  0.2386
   10MOL0     H 1353  10.804   7.875   3.635  2.4703 -0.5615 -0.9421
   10MOL0     H 1354  10.601   7.892   3.487  1.4276 -1.2795  2.0485
   10MOL0     H 1355  10.740   7.839   3.395 -0.2007 -0.3004  0.0187
   10MOL0     H 1356  10.682   8.136   3.386  3.6574 -0.3527 -1.0788
   10MOL0     H 1357  10.570   8.027   3.305  0.5544  2.2269 -1.4242
   10MOL0     H 1358  10.788   7.941   3.178 -1.7817 -0.2151 -0.6499
   10MOL0     H 1359  10.861   8.077   3.242  0.1933 -0.6441 -1.5510
   10MOL0     H 1360  10.235   7.917   4.033  4.9513  1.3728 -0.2741
   10MOL0     H 1361   9.997   7.997   4.055 -1.1809 -0.2775 -1.7241
   10MOL0     H 1362   9.669   8.200   4.022 -1.0814 -0.9111  0.1531
   10MOL0     H 1363   9.444   8.186   4.146  1.1059  0.2211 -0.5782
   10MOL0     H 1364   8.491   6.787   4.170  0.5304  3.6129  1.0884
   10MOL0     H 1365   8.271   6.704   4.105 -1.8713  1.4229  0.4525
   10MOL0     H 1366   7.985   6.523   3.971  1.4570 -2.6175 -2.1607
   10MOL0     H 1367   7.776   6.425   3.977 -1.1098 -0.5676  0.3683
   10MOL0     H 1368   7.461   6.303   3.826  0.2204  0.7664 -0.9701
   10MOL0     H 1369   7.614   6.300   3.920  0.0422 -2.4222 -2.1213
   10MOL0     H 1370   7.404   6.511   3.950  1.1547  0.5138 -1.2387
   10MOL0     H 1371   7.549   6.479   4.055  0.4286 -0.5742 -0.1716
   10MOL0     H 1372   7.306   6.298   4.003  1.5494 -0.2042 -1.8340
   10MOL0     H 1373   7.448   6.235   4.093 -2.3215 -0.6180  2.0386
   10MOL0     H 1374   7.253   6.448   4.173 -0.0899 -0.3706  1.1218
   10MOL0     H 1375   7.406   6.428   4.250  2.1918 -2.6695  1.7551
   10MOL0     H 1376   7.211   6.105   4.415 -0.7910  1.1666  1.1512
   10MOL0     H 1377   7.667   6.609   3.619 -0.4557 -2.0881  1.0853
   10MOL0     H 1378   7.912   6.856   3.605  2.2386  0.4568 -1.3707
   10MOL0     H 1379   7.992   6.739   3.513  0.4322  1.7320  0.3497
   10MOL0     H 1380   7.814   6.760   3.494  1.2918  3.8369 -1.2856
   11MOL0     O 1381  10.226   1.223   1.188  0.0032 -0.1237 -1.2147
   11MOL0     C 1382  10.108   1.234   1.160 -0.4765 -0.4341 -0.3872
   11MOL0     O 1383  10.068   1.257   1.037  0.0808  0.4287 -0.2995
   11MOL0     C 1384  10.162   1.259   0.938 -0.3658  0.2309  0.0408
   11MOL0     C 1385  10.275   1.342   0.937 -1.2114  0.6462  0.8731
   11MOL0     C 1386  10.356   1.354   0.820  0.1334 -0.4321  0.5310
   11MOL0     C 1387  10.322   1.280   0.706  0.0112 -1.1788  0.5976
   11MOL0     O 1388  10.406   1.298   0.596 -0.4925  0.2883  0.1446
   11MOL0     C 1389  10.345   1.305   0.469 -0.3347  0.8168 -0.5026
   11MOL0     C 1390  10.440   1.330   0.356 -0.6440  0.1132  0.1131
   11MOL0     C 1391  10.389   1.399   0.234 -0.1768 -0.0951  0.6096
   11MOL0     C 1392  10.495   1.384   0.120  1.1037 -0.8770 -0.4420
   11MOL0     C 1393  10.454   1.453  -0.015  0.2391  0.0494 -0.3622
   11MOL0     C 1394  10.546   1.412  -0.126  0.0663  0.1324  0.1687
   11MOL0     C 1395  10.591   1.529  -0.213  0.9487  0.5030 -0.4213
   11MOL0     C 1396  10.710   1.597  -0.160  0.6923 -1.1847  0.0193
   11MOL0     N 1397  10.761   1.711  -0.245 -0.0606  0.1761  0.0509
   11MOL0     C 1398  10.696   1.779  -0.337 -0.1938 -0.0987  0.4455
   11MOL0     C 1399  10.785   1.851  -0.409 -0.2406 -0.1315  0.3339
   11MOL0     C 1400  10.730   1.944  -0.508  0.0876  0.5332  0.9740
   11MOL0     C 1401  10.833   1.969  -0.623  0.6919 -1.0680 -1.0358
   11MOL0     C 1402  10.754   2.044  -0.732  0.1792 -0.0393 -0.3309
   11MOL0     C 1403  10.863   2.094  -0.827 -0.2114  0.2110 -0.4223
   11MOL0     O 1404  10.818   2.169  -0.949  0.0465 -0.1676  1.1321
   11MOL0     C 1405  10.910   2.231  -1.032  1.2934  0.5567  0.6140
   11MOL0     C 1406  11.048   2.210  -1.013 -0.5193 -0.7555  1.0575
   11MOL0     C 1407  11.138   2.280  -1.104 -0.3052  0.0662 -1.1090
   11MOL0     C 1408  11.287   2.268  -1.082  0.1699 -0.9031  0.2589
   11MOL0     C 1409  11.089   2.372  -1.195  0.2346  0.6458  0.3819
   11MOL0     C 1410  11.179   2.461  -1.269  0.4261 -0.1809  0.8449
   11MOL0     O 1411  11.198   2.435  -1.405  0.3417 -0.0969 -0.9099
   11MOL0     C 1412  11.275   2.518  -1.478 -0.9587  0.0047  0.0739
   11MOL0     C 1413  11.397   2.483  -1.539  0.5111  0.0331 -0.0684
   11MOL0     C 1414  11.476   2.572  -1.607  0.2646 -0.5085  0.7844
   11MOL0     C 1415  11.431   2.706  -1.634 -0.5974 -0.9011  0.1815
   11MOL0     O 1416  11.515   2.789  -1.700  0.1834  0.2835 -0.0033
   11MOL0     C 1417  11.506   2.924  -1.656 -0.3229  0.3898 -0.2007
   11MOL0     C 1418  11.624   3.003  -1.716  0.1907 -0.2721 -0.4861
   11MOL0     C 1419  11.762   2.957  -1.673 -0.8464 -0.8106 -0.0587
   11MOL0     C 1420  11.863   3.029  -1.767  0.9144  0.5171  0.1296
   11MOL0     C 1421  12.005   3.014  -1.714  0.2655 -0.0533 -0.2253
   11MOL0     C 1422  12.118   3.070  -1.797 -0.0997 -0.6723 -0.1035
   11MOL0     C 1423  12.242   3.100  -1.706 -0.0009  0.5310  0.1962
   11MOL0     C 1424  12.350   2.984  -1.701  0.4196  0.5488 -0.5642
   11MOL0    Cl 1425  12.336   2.889  -1.546 -0.1386 -0.2279  0.2798
   11MOL0     C 1426  11.311   2.747  -1.578 -0.3444 -0.2720 -0.2616
   11MOL0     C 1427  11.240   2.653  -1.505 -0.5559  0.5447 -0.6976
   11MOL0     O 1428  11.217   2.553  -1.206  0.4383  0.0409  0.3389
   11MOL0     C 1429  10.953   2.363  -1.226  0.9451 -0.6380 -0.5859
   11MOL0     C 1430  10.863   2.298  -1.141  0.1995 -0.0060  0.2688
   11MOL0     N 1431  10.911   1.818  -0.358  0.0115 -0.3476  0.7716
   11MOL0     N 1432  10.894   1.737  -0.254  0.5468  0.1579 -0.5885
   11MOL0     C 1433  10.221   1.181   0.713  0.4005  0.7624  0.5455
   11MOL0     C 1434  10.138   1.173   0.830 -0.0619  0.5071 -0.0402
   11MOL0     C 1435  10.013   1.236   1.268  0.0333  0.6360 -0.6007
   11MOL0     C 1436   9.893   1.305   1.258  0.0171  0.1248  0.5756
   11MOL0     C 1437   9.795   1.288   1.352  0.6774  0.2558 -0.2170
   11MOL0     C 1438   9.818   1.212   1.467 -0.1594 -0.1265  1.1552
   11MOL0     O 1439   9.699   1.203   1.540 -0.1280  0.1910  0.3499
   11MOL0     C 1440   9.714   1.184   1.680 -0.2969  0.2771  0.6140
   11MOL0     C 1441   9.582   1.222   1.744  0.2156  0.1839 -0.1182
   11MOL0     C 1442   9.595   1.264   1.886  0.7716 -0.4646  0.1407
   11MOL0     C 1443   9.663   1.160   1.973  1.0254  0.6674 -0.2944
   11MOL0     C 1444   9.555   1.087   2.033  1.0317 -0.4369 -0.2253
   11MOL0     C 1445   9.459   1.024   2.071 -0.1052  0.8515  0.5037
   11MOL0     C 1446   9.941   1.143   1.481 -0.2194 -0.0560 -0.8345
   11MOL0     C 1447  10.033   1.142   1.376 -0.1427  0.0919 -0.3000
   11MOL0     C 1448  10.151   1.043   1.391  0.2030 -0.4816  0.2918
   11MOL0     H 1449  10.301   1.405   1.021 -0.3860 -0.3231  1.3685
   11MOL0     H 1450  10.444   1.418   0.818  0.5719 -1.0300 -1.4552
   11MOL0     H 1451  10.268   1.382   0.457 -0.9254 -0.0348 -2.4379
   11MOL0     H 1452  10.310   1.203   0.452  2.0704 -0.3220  0.8447
   11MOL0     H 1453  10.521   1.399   0.380  0.9446 -2.1424  1.5967
   11MOL0     H 1454  10.488   1.236   0.329  1.6548  0.8387  1.4435
   11MOL0     H 1455  10.295   1.361   0.195  0.7966 -3.3653  1.1665
   11MOL0     H 1456  10.387   1.506   0.257  2.0796  0.0538  0.3874
   11MOL0     H 1457  10.591   1.422   0.156  1.5832 -2.2374 -0.2574
   11MOL0     H 1458  10.495   1.276   0.103  0.8160 -1.4121  2.4191
   11MOL0     H 1459  10.459   1.561  -0.003 -0.0884 -0.0469  0.7936
   11MOL0     H 1460  10.347   1.447  -0.037  0.3160  1.0817 -1.0804
   11MOL0     H 1461  10.628   1.353  -0.082 -1.1866  0.2472  2.8819
   11MOL0     H 1462  10.487   1.338  -0.180  1.4541 -1.0745  0.2377
   11MOL0     H 1463  10.502   1.590  -0.231  0.7158  0.5332  0.7588
   11MOL0     H 1464  10.627   1.507  -0.314 -1.2228 -0.6244 -1.0042
   11MOL0     H 1465  10.685   1.638  -0.062 -0.8022  1.7600 -1.4754
   11MOL0     H 1466  10.796   1.528  -0.152  0.6775 -1.1426  0.5752
   11MOL0     H 1467  10.589   1.773  -0.358 -0.2566  1.7337  0.0680
   11MOL0     H 1468  10.703   2.039  -0.461  3.8246  2.4733 -0.3812
   11MOL0     H 1469  10.633   1.908  -0.543  0.3359 -0.0404  0.8509
   11MOL0     H 1470  10.910   2.035  -0.583 -0.0602 -0.3931 -0.6640
   11MOL0     H 1471  10.879   1.879  -0.663  0.0771 -1.4268 -0.9587
   11MOL0     H 1472  10.693   1.976  -0.791  0.6950  0.0148 -0.9343
   11MOL0     H 1473  10.694   2.128  -0.696 -1.7330 -0.7214 -1.7593
   11MOL0     H 1474  10.936   2.156  -0.773 -0.8521  1.0689 -0.5321
   11MOL0     H 1475  10.918   2.006  -0.862 -0.6141 -0.3832  0.4221
   11MOL0     H 1476  11.086   2.148  -0.932 -0.4514 -0.8697  0.9373
   11MOL0     H 1477  11.307   2.184  -1.014  0.5663 -0.5967  0.5249
   11MOL0     H 1478  11.317   2.364  -1.039  0.0529 -0.1194 -1.3285
   11MOL0     H 1479  11.348   2.260  -1.172 -0.5127 -2.3037 -0.1036
   11MOL0     H 1480  11.426   2.379  -1.542 -0.7556 -0.3868  1.2110
   11MOL0     H 1481  11.560   2.538  -1.666 -1.6376 -0.3819 -2.2521
   11MOL0     H 1482  11.414   2.962  -1.701 -0.6338  0.1447  0.2240
   11MOL0     H 1483  11.500   2.942  -1.548 -0.9835  2.3595 -0.5221
   11MOL0     H 1484  11.617   3.006  -1.825  1.8777  1.9549 -0.6266
   11MOL0     H 1485  11.610   3.107  -1.683  1.8324  0.0033 -0.5943
   11MOL0     H 1486  11.778   2.849  -1.671 -1.0784 -0.8406  0.2245
   11MOL0     H 1487  11.782   2.994  -1.572  0.9841  1.8158 -1.2592
   11MOL0     H 1488  11.839   3.135  -1.779 -0.0337  0.3191  0.1762
   11MOL0     H 1489  11.853   2.980  -1.865 -1.9069  2.8865 -0.9117
   11MOL0     H 1490  12.002   3.062  -1.616  1.2506  0.5020 -0.4514
   11MOL0     H 1491  12.031   2.908  -1.705 -1.9064 -0.9627 -3.1375
   11MOL0     H 1492  12.076   3.167  -1.824  0.1447 -0.3814  0.5462
   11MOL0     H 1493  12.132   3.008  -1.886  0.1191  0.7351 -1.0736
   11MOL0     H 1494  12.213   3.123  -1.603  0.0909 -2.0404  0.8696
   11MOL0     H 1495  12.291   3.185  -1.755  1.5183 -1.7402 -2.5229
   11MOL0     H 1496  12.454   3.016  -1.714  1.0830 -1.7841 -1.6557
   11MOL0     H 1497  12.321   2.919  -1.785  1.1704 -0.5937  0.0298
   11MOL0     H 1498  11.276   2.849  -1.565  1.0024  0.2598 -0.6991
   11MOL0     H 1499  11.152   2.690  -1.452  1.1479  0.9232  2.1054
   11MOL0     H 1500  10.920   2.415  -1.316  1.8906 -0.9884 -1.1527
   11MOL0     H 1501  10.755   2.297  -1.145  0.1838  0.0036  0.7126
   11MOL0     H 1502  10.214   1.116   0.627 -1.9621  0.0205  1.2185
   11MOL0     H 1503  10.062   1.097   0.814  1.3324 -1.2281  1.2317
   11MOL0     H 1504   9.877   1.364   1.168 -2.3253 -1.9232 -0.4618
   11MOL0     H 1505   9.701   1.341   1.345 -0.0561 -0.4431  3.0981
   11MOL0     H 1506   9.734   1.079   1.704 -0.6548 -0.3396 -1.5872
   11MOL0     H 1507   9.793   1.251   1.716 -0.7567  1.7661 -1.0561
   11MOL0     H 1508   9.510   1.140   1.738  0.5807 -0.1514  0.0702
   11MOL0     H 1509   9.540   1.303   1.683 -0.6085  0.0332  0.2414
   11MOL0     H 1510   9.663   1.350   1.878  1.1685 -0.9691 -3.5508
   11MOL0     H 1511   9.493   1.284   1.921  0.0866 -3.4553  0.1362
   11MOL0     H 1512   9.736   1.200   2.043  0.8538 -1.1869  0.9894
   11MOL0     H 1513   9.724   1.094   1.911  0.0872  0.5153 -1.0786
   11MOL0     H 1514   9.373   0.980   2.118  1.6974  1.2996  4.5668
   11MOL0     H 1515   9.955   1.094   1.577 -0.4690  2.1403  0.4149
   11MOL0     H 1516  10.162   0.972   1.309  1.2595  0.5478 -0.4899
   11MOL0     H 1517  10.253   1.078   1.404  0.6058 -1.1532 -0.9371
   11MOL0     H 1518  10.125   0.979   1.476 -3.0029 -0.6024 -0.6470
   12MOL0     O 1519   3.021   8.491   7.396 -0.4645 -0.3554 -0.4474
   12MOL0     C 1520   2.921   8.551   7.363 -0.9244  0.4998  0.9839
   12MOL0     O 1521   2.890   8.673   7.413  0.7147  0.1675 -0.6036
   12MOL0     C 1522   2.964   8.723   7.521  0.4218  0.1933  0.2640
   12MOL0     C 1523   3.033   8.839   7.491 -0.1251 -0.2792  0.0373
   12MOL0     C 1524   3.115   8.898   7.597  0.2810 -0.3007  0.6166
   12MOL0     C 1525   3.122   8.850   7.720  1.1090  0.1980 -0.3709
   12MOL0     O 1526   3.188   8.910   7.830  0.4129 -0.0043 -0.5264
   12MOL0     C 1527   3.232   9.052   7.816 -0.7065  1.5113  0.1430
   12MOL0     C 1528   3.263   9.099   7.961  0.1622  0.5525 -0.1010
   12MOL0     C 1529   3.392   9.185   7.967  0.1488  0.0397  0.2782
   12MOL0     C 1530   3.408   9.262   8.096 -0.7509  0.1573 -0.5921
   12MOL0     C 1531   3.521   9.366   8.087 -0.4228 -0.2718 -0.0153
   12MOL0     C 1532   3.550   9.428   8.233  0.2110  0.4624  0.8718
   12MOL0     C 1533   3.669   9.536   8.226  0.0862  0.1564  0.4612
   12MOL0     C 1534   3.698   9.571   8.376  0.1275  0.7791  0.4466
   12MOL0     N 1535   3.802   9.667   8.394 -0.3362 -0.0118 -0.4961
   12MOL0     C 1536   3.791   9.805   8.425  0.4959  0.2805  0.2517
   12MOL0     C 1537   3.923   9.850   8.432  1.2871 -0.6501  0.5626
   12MOL0     C 1538   3.966   9.979   8.476 -0.2522 -0.4909  0.8095
   12MOL0     C 1539   3.918  10.006   8.621 -0.0705 -0.4412  0.2999
   12MOL0     C 1540   3.922  10.161   8.642 -0.7143 -0.1136  0.2765
   12MOL0     C 1541   3.849  10.207   8.770  0.9745  0.0035 -0.5409
   12MOL0     O 1542   3.910  10.160   8.896 -0.7178 -0.2271  0.9284
   12MOL0     C 1543   4.004  10.233   8.954 -0.4187  0.1794 -0.6476
   12MOL0     C 1544   4.064  10.345   8.896  0.1009 -0.1540 -0.5608
   12MOL0     C 1545   4.162  10.421   8.959 -0.7451  0.0032  0.0800
   12MOL0     C 1546   4.207  10.537   8.870  0.3078  0.0633 -0.5688
   12MOL0     C 1547   4.208  10.385   9.087 -0.2179 -0.0672 -0.8589
   12MOL0     C 1548   4.320  10.463   9.154 -0.2573 -0.8318 -0.8757
   12MOL0     O 1549   4.409  10.514   9.068 -0.7234 -0.4480 -0.0975
   12MOL0     C 1550   4.513  10.582   9.114 -0.2199  1.4542 -0.3714
   12MOL0     C 1551   4.511  10.712   9.163 -0.2191 -0.2054  0.4317
   12MOL0     C 1552   4.631  10.762   9.219  0.5596 -0.6403  0.5415
   12MOL0     C 1553   4.750  10.687   9.220  1.2329 -0.4350  0.7068
   12MOL0     O 1554   4.856  10.744   9.286  0.0103 -0.1278  0.1162
   12MOL0     C 1555   4.984  10.747   9.216  0.0009 -0.5691  0.1911
   12MOL0     C 1556   5.082  10.811   9.316  0.6594  0.6093  0.3726
   12MOL0     C 1557   5.227  10.816   9.267 -0.1623 -0.4355  0.5148
   12MOL0     C 1558   5.301  10.908   9.366 -0.3879  0.0657  0.1755
   12MOL0     C 1559   5.447  10.934   9.319  0.4130 -1.1038 -0.2431
   12MOL0     C 1560   5.534  10.999   9.428 -0.0569  0.1966  0.5237
   12MOL0     C 1561   5.667  11.039   9.364 -0.0414  0.2730 -0.0577
   12MOL0     C 1562   5.786  11.025   9.466 -0.1246  0.4979  0.5365
   12MOL0    Cl 1563   5.951  11.027   9.380  0.3243  0.0201  0.1678
   12MOL0     C 1564   4.744  10.557   9.161  0.5212  0.1671 -0.4034
   12MOL0     C 1565   4.628  10.507   9.109 -0.0338  0.2666 -1.4274
   12MOL0     O 1566   4.323  10.477   9.273 -0.1791 -0.0365  0.1236
   12MOL0     C 1567   4.136  10.277   9.153  0.3396  1.0534  0.1243
   12MOL0     C 1568   4.046  10.201   9.080  0.2950  0.0111 -0.5970
   12MOL0     N 1569   3.999   9.748   8.379 -0.3594  0.1906  0.0002
   12MOL0     N 1570   3.931   9.641   8.355 -0.3800  0.4237 -0.3819
   12MOL0     C 1571   3.051   8.732   7.743 -0.1808 -0.2280 -0.2081
   12MOL0     C 1572   2.975   8.659   7.649 -0.1804 -0.5362 -0.8690
   12MOL0     C 1573   2.828   8.487   7.260 -0.3228  0.0295 -0.1762
   12MOL0     C 1574   2.833   8.351   7.234  1.0902  1.0420  0.9942
   12MOL0     C 1575   2.752   8.279   7.143  0.6368 -0.1452 -0.7385
   12MOL0     C 1576   2.649   8.347   7.078 -0.0616  0.4344 -0.4365
   12MOL0     O 1577   2.570   8.262   7.015 -0.7064  0.0963 -0.3903
   12MOL0     C 1578   2.439   8.295   6.996  0.4645  0.3730 -0.1643
   12MOL0     C 1579   2.388   8.184   6.898  0.7687  0.3156 -0.2410
   12MOL0     C 1580   2.377   8.043   6.955 -0.4142 -0.0331  0.7289
   12MOL0     C 1581   2.337   7.927   6.850  0.0199  0.1846  1.3812
   12MOL0     C 1582   2.215   7.952   6.773 -0.2041 -0.2986  0.8261
   12MOL0     C 1583   2.119   7.956   6.700  0.8795  0.2533 -0.7530
   12MOL0     C 1584   2.643   8.482   7.095 -0.8678 -0.0146  0.0634
   12MOL0     C 1585   2.730   8.559   7.181 -0.5510  0.0945 -1.0382
   12MOL0     C 1586   2.716   8.713   7.191 -0.0187  0.4633  0.2019
   12MOL0     H 1587   3.027   8.890   7.396  0.4393  0.0661  0.1797
   12MOL0     H 1588   3.163   8.990   7.562 -3.7988  0.5037 -3.9363
   12MOL0     H 1589   3.149   9.110   7.774  0.6857  2.6844 -1.0700
   12MOL0     H 1590   3.322   9.052   7.754 -1.8196 -1.3342 -1.6896
   12MOL0     H 1591   3.180   9.154   8.005  2.0997  3.1014  0.6322
   12MOL0     H 1592   3.273   9.010   8.024  2.5698  0.5992 -0.3027
   12MOL0     H 1593   3.481   9.123   7.954  1.4200  2.0018 -0.9007
   12MOL0     H 1594   3.386   9.254   7.882  0.9927 -1.8072 -1.3571
   12MOL0     H 1595   3.319   9.321   8.120 -0.8155  0.2183 -0.9752
   12MOL0     H 1596   3.413   9.184   8.173 -2.2980 -0.4762 -1.1110
   12MOL0     H 1597   3.502   9.447   8.017  1.2639  0.4895  0.3676
   12MOL0     H 1598   3.614   9.318   8.054 -0.3678  0.8206 -1.5029
   12MOL0     H 1599   3.454   9.466   8.270 -1.3902 -2.6279  0.2128
   12MOL0     H 1600   3.571   9.345   8.302  0.5708 -0.2847 -0.1165
   12MOL0     H 1601   3.639   9.623   8.168 -2.5942 -1.5799 -0.9883
   12MOL0     H 1602   3.753   9.485   8.177 -0.9425 -3.2797  1.9153
   12MOL0     H 1603   3.610   9.594   8.437 -0.0518 -0.0410  0.5087
   12MOL0     H 1604   3.731   9.483   8.432  0.7332  1.5527  1.3440
   12MOL0     H 1605   3.703   9.850   8.469 -1.1314 -1.0515 -1.4886
   12MOL0     H 1606   3.947  10.060   8.404  1.4638  0.3975  1.2858
   12MOL0     H 1607   4.074   9.965   8.486  0.4453  2.5950 -1.0198
   12MOL0     H 1608   3.818   9.967   8.641  0.3820 -1.2113  1.1544
   12MOL0     H 1609   3.986   9.956   8.691 -1.2029 -2.8794 -0.2245
   12MOL0     H 1610   4.027  10.189   8.655 -1.1130  1.3558  0.4800
   12MOL0     H 1611   3.879  10.228   8.568  0.9522  2.9649  1.8897
   12MOL0     H 1612   3.845  10.316   8.766  1.2008  0.0630  0.5965
   12MOL0     H 1613   3.747  10.166   8.776  0.1400  2.0093 -0.3719
   12MOL0     H 1614   4.047  10.381   8.795  1.6783  0.1735 -0.7407
   12MOL0     H 1615   4.264  10.498   8.785  1.0284 -0.4319  0.1272
   12MOL0     H 1616   4.267  10.611   8.924 -1.1379  1.2041 -0.4672
   12MOL0     H 1617   4.115  10.591   8.847  0.0205  0.2698  0.9313
   12MOL0     H 1618   4.422  10.770   9.142 -1.9585 -2.7985  0.0410
   12MOL0     H 1619   4.637  10.864   9.255  0.9541  0.6367 -2.7612
   12MOL0     H 1620   5.015  10.644   9.193 -2.0790 -1.4932  1.2624
   12MOL0     H 1621   4.974  10.806   9.124 -0.3744  1.0760  1.2518
   12MOL0     H 1622   5.046  10.912   9.335 -0.3779  0.7714 -2.0578
   12MOL0     H 1623   5.083  10.759   9.412 -0.3786  1.6753  0.9705
   12MOL0     H 1624   5.226  10.865   9.169  0.7095 -0.2586  0.5922
   12MOL0     H 1625   5.266  10.715   9.253 -0.2582 -0.7206  2.1567
   12MOL0     H 1626   5.303  10.855   9.462 -1.7310  0.4430  0.4344
   12MOL0     H 1627   5.251  11.004   9.383  0.5111  1.0881 -2.4592
   12MOL0     H 1628   5.484  10.838   9.282  0.8866 -0.1252 -2.5522
   12MOL0     H 1629   5.448  11.005   9.235  0.4460 -0.6968  0.0964
   12MOL0     H 1630   5.542  10.932   9.515 -0.0100 -2.0502 -1.1112
   12MOL0     H 1631   5.484  11.088   9.466 -3.5904 -0.3661 -2.2435
   12MOL0     H 1632   5.666  11.140   9.323 -1.8396  0.8720  1.3550
   12MOL0     H 1633   5.696  10.971   9.282  2.8226  0.7134  0.4898
   12MOL0     H 1634   5.770  10.936   9.527 -0.4029 -0.9685 -1.5928
   12MOL0     H 1635   5.787  11.110   9.536  2.1393  0.1179  1.0217
   12MOL0     H 1636   4.836  10.500   9.149  0.0673 -1.1028  1.5948
   12MOL0     H 1637   4.633  10.406   9.069  1.3858 -1.6377  2.9467
   12MOL0     H 1638   4.164  10.234   9.248  3.6357  2.0146 -0.2727
   12MOL0     H 1639   4.003  10.115   9.129  1.5432  0.6715  1.8578
   12MOL0     H 1640   3.055   8.695   7.845  0.4273  4.0676  1.5516
   12MOL0     H 1641   2.921   8.568   7.671 -0.0515 -0.7509 -1.4290
   12MOL0     H 1642   2.899   8.303   7.305 -0.9084  1.7283  3.4412
   12MOL0     H 1643   2.766   8.173   7.130  1.3489 -0.3611  1.4255
   12MOL0     H 1644   2.396   8.295   7.096  0.4740 -2.5970 -0.1002
   12MOL0     H 1645   2.429   8.396   6.953 -1.3029  0.3427  0.0918
   12MOL0     H 1646   2.460   8.179   6.816  0.0274  0.7531 -0.9349
   12MOL0     H 1647   2.288   8.206   6.860  0.2413  1.5459  1.6704
   12MOL0     H 1648   2.471   8.006   6.997 -0.2663 -1.7292 -0.9759
   12MOL0     H 1649   2.297   8.040   7.030 -0.7281  0.2017  0.4057
   12MOL0     H 1650   2.321   7.829   6.897  1.1740  0.0938  1.6041
   12MOL0     H 1651   2.421   7.912   6.782  1.4674 -4.5906  3.8011
   12MOL0     H 1652   2.031   7.963   6.639 -2.0749  3.4000  3.3287
   12MOL0     H 1653   2.576   8.540   7.032 -0.4551  2.1402  1.4776
   12MOL0     H 1654   2.818   8.751   7.195  0.7416 -1.4379 -0.1975
   12MOL0     H 1655   2.662   8.748   7.103 -1.5674  0.5818  1.1554
   12MOL0     H 1656   2.660   8.728   7.284 -1.9117 -4.0735  0.0733
   13MOL0     O 1657   3.883   5.001   6.049  0.3352 -0.5017 -0.6921
   13MOL0     C 1658   3.868   5.122   6.076  0.1405  0.3210 -0.5548
   13MOL0     O 1659   3.967   5.216   6.082  0.5712 -0.3748 -0.1988
   13MOL0     C 1660   4.089   5.191   6.024 -0.0462  0.0303 -0.5168
   13MOL0     C 1661   4.192   5.141   6.109 -0.4206  0.2645  0.0903
   13MOL0     C 1662   4.320   5.115   6.058 -0.1600 -0.1996  0.1453
   13MOL0     C 1663   4.353   5.140   5.926  0.0613 -0.1229  1.1297
   13MOL0     O 1664   4.483   5.122   5.887  0.5425 -0.2079 -0.0483
   13MOL0     C 1665   4.508   5.084   5.751 -0.3560 -0.1520 -0.2198
   13MOL0     C 1666   4.657   5.053   5.728 -0.6243 -0.2344  1.1898
   13MOL0     C 1667   4.714   4.925   5.791  0.0057 -0.5172  0.3653
   13MOL0     C 1668   4.743   4.947   5.943 -0.4844  0.1163  0.6917
   13MOL0     C 1669   4.780   4.819   6.004  0.8442 -0.4306 -0.5836
   13MOL0     C 1670   4.911   4.750   5.963 -0.0389 -0.0739  0.3618
   13MOL0     C 1671   5.035   4.836   5.987  0.1635 -0.1093 -0.3931
   13MOL0     C 1672   5.075   4.865   6.136 -0.0660  0.1524 -0.4436
   13MOL0     N 1673   5.215   4.914   6.145  0.6443  0.2333  0.3917
   13MOL0     C 1674   5.320   4.850   6.091 -0.3949  0.1738 -0.1957
   13MOL0     C 1675   5.424   4.941   6.112  0.4803 -0.1011 -0.0700
   13MOL0     C 1676   5.563   4.904   6.054 -0.0585  0.0596 -0.2871
   13MOL0     C 1677   5.667   4.907   6.161  0.0605 -0.5837  0.0085
   13MOL0     C 1678   5.815   4.946   6.123  0.0742 -0.1919  0.3123
   13MOL0     C 1679   5.841   5.089   6.073  0.0261 -0.6321 -0.3855
   13MOL0     O 1680   5.984   5.119   6.054 -0.2740  0.8103 -0.2159
   13MOL0     C 1681   6.019   5.253   6.027  0.7226  0.1453 -0.4092
   13MOL0     C 1682   6.156   5.290   6.045  0.0712  0.5282  0.2456
   13MOL0     C 1683   6.198   5.418   6.032 -0.0567  0.5277  0.2961
   13MOL0     C 1684   6.344   5.450   6.059 -0.6660  0.1185  0.3908
   13MOL0     C 1685   6.105   5.520   5.994 -0.3481  0.1182 -0.4013
   13MOL0     C 1686   6.145   5.667   5.975 -0.5104  0.1974 -0.2708
   13MOL0     O 1687   6.269   5.718   6.013 -0.0195 -0.0206  1.1879
   13MOL0     C 1688   6.305   5.840   5.975  0.8319 -0.2765 -0.1899
   13MOL0     C 1689   6.426   5.875   5.915  0.3034  0.3427 -0.4884
   13MOL0     C 1690   6.479   6.006   5.890  0.1444 -0.1388 -0.5183
   13MOL0     C 1691   6.386   6.108   5.912 -0.7363 -0.2343  0.3732
   13MOL0     O 1692   6.415   6.243   5.894 -0.3327  0.1243  0.5140
   13MOL0     C 1693   6.441   6.288   5.761  0.3722 -0.4217  0.0758
   13MOL0     C 1694   6.455   6.446   5.762  0.1436 -0.1865  0.2408
   13MOL0     C 1695   6.327   6.523   5.785 -0.6047  0.5641 -0.2368
   13MOL0     C 1696   6.200   6.474   5.705 -0.6893 -0.2684  0.7947
   13MOL0     C 1697   6.094   6.577   5.702  0.5528 -0.5900  0.0207
   13MOL0     C 1698   6.060   6.620   5.844 -0.7420  0.2818 -0.0583
   13MOL0     C 1699   6.024   6.499   5.934 -0.2110  0.6358 -0.6942
   13MOL0     C 1700   5.984   6.527   6.077  0.6905 -0.7244 -0.0956
   13MOL0    Cl 1701   5.842   6.630   6.083 -0.0536 -0.2097 -0.1568
   13MOL0     C 1702   6.264   6.084   5.977 -0.0819  0.2001 -0.7403
   13MOL0     C 1703   6.229   5.952   6.008  0.2170 -1.4692  0.3320
   13MOL0     O 1704   6.058   5.734   5.921 -0.0483 -0.0095  0.0555
   13MOL0     C 1705   5.966   5.490   5.979  0.1289 -0.1428  0.7531
   13MOL0     C 1706   5.927   5.355   5.995  1.4326 -0.5706 -0.7198
   13MOL0     N 1707   5.374   5.050   6.179 -0.1692  0.3418 -0.0252
   13MOL0     N 1708   5.247   5.035   6.190  0.4459 -0.4213 -0.4774
   13MOL0     C 1709   4.246   5.193   5.839  0.1433  0.5409  0.1285
   13MOL0     C 1710   4.115   5.209   5.891 -0.4476  0.5509  0.6119
   13MOL0     C 1711   3.739   5.164   6.076  0.4349 -0.2455  0.1266
   13MOL0     C 1712   3.698   5.259   6.165 -0.6486 -0.2638 -0.0220
   13MOL0     C 1713   3.568   5.296   6.171  0.1797  0.5185 -0.8399
   13MOL0     C 1714   3.479   5.262   6.067  0.3467 -0.1781  0.8928
   13MOL0     O 1715   3.352   5.319   6.067  1.0243 -0.3632  0.8273
   13MOL0     C 1716   3.243   5.272   5.979 -0.2415  0.7329 -0.0241
   13MOL0     C 1717   3.120   5.346   6.011  0.7107 -0.2329  0.3594
   13MOL0     C 1718   3.048   5.291   6.142  0.0671  0.1182 -0.2606
   13MOL0     C 1719   2.991   5.403   6.228 -0.1497  0.4547  0.1209
   13MOL0     C 1720   2.851   5.439   6.197 -0.1412 -0.1878 -0.1806
   13MOL0     C 1721   2.733   5.466   6.204 -0.4117  0.5166 -0.0044
   13MOL0     C 1722   3.521   5.171   5.972  0.3839 -0.7937  0.1315
   13MOL0     C 1723   3.646   5.124   5.973  0.5522 -0.1686  0.2400
   13MOL0     C 1724   3.666   5.003   5.882 -0.2502 -0.5860 -0.3421
   13MOL0     H 1725   4.166   5.121   6.212  1.9711  0.4491  0.7974
   13MOL0     H 1726   4.388   5.067   6.127 -0.5046  1.4531  1.7101
   13MOL0     H 1727   4.474   5.164   5.685  0.3691 -0.5582 -1.1128
   13MOL0     H 1728   4.458   4.991   5.723  2.1591 -1.4161 -0.8382
   13MOL0     H 1729   4.676   5.047   5.620 -0.7884  0.9385  1.0865
   13MOL0     H 1730   4.708   5.147   5.750  0.3442  0.2276 -2.3718
   13MOL0     H 1731   4.642   4.848   5.764  1.6191 -1.5387 -1.2462
   13MOL0     H 1732   4.811   4.899   5.746 -1.1549  1.1615 -3.5544
   13MOL0     H 1733   4.826   5.018   5.951  1.7882 -2.5742  2.4349
   13MOL0     H 1734   4.662   4.999   5.995 -0.0884  0.7651  0.6799
   13MOL0     H 1735   4.701   4.745   5.986 -0.1814  0.9078 -1.7250
   13MOL0     H 1736   4.786   4.836   6.112  0.0964 -1.8541 -0.2861
   13MOL0     H 1737   4.927   4.647   5.997  1.0967 -0.4652 -1.2046
   13MOL0     H 1738   4.898   4.720   5.858 -3.6984 -0.7727  0.8994
   13MOL0     H 1739   5.032   4.934   5.940  0.8034  1.1382  2.0244
   13MOL0     H 1740   5.116   4.781   5.938 -1.1660 -4.4969  1.7953
   13MOL0     H 1741   5.004   4.941   6.172 -2.3482 -1.5140 -1.1930
   13MOL0     H 1742   5.067   4.768   6.186  0.1298  0.3095 -0.1089
   13MOL0     H 1743   5.313   4.754   6.040  2.0253 -0.3802  0.3698
   13MOL0     H 1744   5.571   4.971   5.967 -1.5269  1.4625  0.6005
   13MOL0     H 1745   5.570   4.802   6.015  0.8824  0.7209 -2.0002
   13MOL0     H 1746   5.639   4.981   6.237 -0.1210 -0.5458 -0.0953
   13MOL0     H 1747   5.654   4.810   6.211 -2.1991 -0.7909 -0.8439
   13MOL0     H 1748   5.868   4.941   6.218  0.2208 -1.9819  0.1598
   13MOL0     H 1749   5.854   4.872   6.052 -0.8983 -1.0747  0.6696
   13MOL0     H 1750   5.793   5.122   5.980 -1.8972  0.0417  0.7769
   13MOL0     H 1751   5.792   5.163   6.138  0.5464 -1.4832  1.0266
   13MOL0     H 1752   6.230   5.217   6.076 -0.7600 -0.7772 -0.7650
   13MOL0     H 1753   6.369   5.478   6.162 -2.5474  1.1747  0.5944
   13MOL0     H 1754   6.394   5.520   5.991 -0.2892 -0.2862  0.2501
   13MOL0     H 1755   6.408   5.362   6.045 -1.2354 -0.1614 -0.4983
   13MOL0     H 1756   6.482   5.786   5.887  0.6422  0.3518  0.1539
   13MOL0     H 1757   6.580   6.024   5.856  0.8233  0.2932  1.6075
   13MOL0     H 1758   6.537   6.249   5.725  0.1356 -2.9083  1.8834
   13MOL0     H 1759   6.369   6.252   5.686  0.4044 -0.4545  0.0603
   13MOL0     H 1760   6.529   6.480   5.835  2.3987 -0.0285 -1.9703
   13MOL0     H 1761   6.491   6.479   5.664 -1.8664  0.9160 -0.1927
   13MOL0     H 1762   6.358   6.623   5.753 -1.2044  1.4176  1.6515
   13MOL0     H 1763   6.314   6.537   5.893  1.6219 -4.9737  1.1294
   13MOL0     H 1764   6.165   6.376   5.738  1.1110 -0.8719  1.0129
   13MOL0     H 1765   6.229   6.458   5.601  2.1440 -1.2435  1.6403
   13MOL0     H 1766   6.127   6.669   5.653  0.0045 -1.7001 -2.6360
   13MOL0     H 1767   6.013   6.534   5.642  0.1878 -1.5054  1.1214
   13MOL0     H 1768   5.978   6.693   5.836  1.5997  3.0920 -0.2501
   13MOL0     H 1769   6.138   6.678   5.895  0.2887 -2.0687  1.1956
   13MOL0     H 1770   6.107   6.428   5.937  0.7179  1.5377  4.4824
   13MOL0     H 1771   5.937   6.444   5.895  0.1443 -0.0936 -0.4794
   13MOL0     H 1772   6.069   6.579   6.122 -0.2671  1.1529 -0.3504
   13MOL0     H 1773   5.960   6.433   6.127 -1.8161 -0.2035 -0.1696
   13MOL0     H 1774   6.202   6.173   5.989 -2.9981 -1.6378 -1.1401
   13MOL0     H 1775   6.132   5.941   6.057 -0.9613  1.3078 -1.1408
   13MOL0     H 1776   5.896   5.567   5.947  2.4199  0.9710 -1.9449
   13MOL0     H 1777   5.822   5.332   5.982  1.8446 -2.3338 -1.1275
   13MOL0     H 1778   4.265   5.233   5.740  0.9831  0.0411  0.0807
   13MOL0     H 1779   4.035   5.244   5.827 -0.2068  0.0612  0.0395
   13MOL0     H 1780   3.779   5.283   6.234 -1.1562 -0.7156  0.7414
   13MOL0     H 1781   3.524   5.371   6.236 -0.3844  0.3115 -0.9745
   13MOL0     H 1782   3.284   5.284   5.878 -0.8409 -0.0819 -0.3719
   13MOL0     H 1783   3.228   5.164   5.982 -0.8456  0.6511 -3.1195
   13MOL0     H 1784   3.058   5.336   5.922  1.9065  1.0497 -0.6538
   13MOL0     H 1785   3.136   5.453   6.025  1.3599 -0.5220  2.0036
   13MOL0     H 1786   2.975   5.218   6.107 -1.4739  2.4811 -2.3013
   13MOL0     H 1787   3.118   5.239   6.209  1.4589  1.6363 -0.4715
   13MOL0     H 1788   3.044   5.498   6.218  2.5268 -1.0211 -0.8328
   13MOL0     H 1789   2.987   5.378   6.334  2.4698 -0.6662  0.0326
   13MOL0     H 1790   2.629   5.491   6.215 -0.1295  0.6758  3.2674
   13MOL0     H 1791   3.450   5.144   5.894  1.2383 -3.2519  0.1234
   13MOL0     H 1792   3.765   5.008   5.836 -0.1426 -1.7533 -0.2846
   13MOL0     H 1793   3.655   4.911   5.942  1.4788 -1.8415 -1.8463
   13MOL0     H 1794   3.593   4.998   5.801  1.1703  2.6208 -1.9713
   14MOL0     O 1795   1.554   5.931   7.997 -0.1529 -0.7593  0.7497
   14MOL0     C 1796   1.596   5.988   8.099  0.0107 -0.1850  0.5772
   14MOL0     O 1797   1.723   5.967   8.153  0.4136  0.3407  0.3044
   14MOL0     C 1798   1.824   5.898   8.081 -0.2455 -0.3869 -0.2024
   14MOL0     C 1799   1.925   5.847   8.159 -0.7577 -0.0366  0.2463
   14MOL0     C 1800   2.037   5.799   8.088 -0.5797 -0.2124 -0.9588
   14MOL0     C 1801   2.049   5.784   7.950  0.2209  0.3530 -0.4544
   14MOL0     O 1802   2.173   5.748   7.896  0.3364  0.0751 -0.1898
   14MOL0     C 1803   2.181   5.720   7.749  0.1953 -0.4168 -0.2838
   14MOL0     C 1804   2.130   5.573   7.723 -0.2924 -0.1573  0.1085
   14MOL0     C 1805   2.179   5.511   7.595  0.7528 -0.5523  0.5576
   14MOL0     C 1806   2.327   5.461   7.605 -0.2480 -0.6141 -0.2324
   14MOL0     C 1807   2.376   5.407   7.462  1.1767  1.2049 -0.0235
   14MOL0     C 1808   2.517   5.364   7.467 -0.5940  0.1668  0.4842
   14MOL0     C 1809   2.603   5.428   7.360  0.0690 -0.8613  0.1130
   14MOL0     C 1810   2.741   5.356   7.356  0.3385 -0.1103 -0.5513
   14MOL0     N 1811   2.823   5.426   7.258  0.2250  0.3100  0.7107
   14MOL0     C 1812   2.935   5.493   7.293 -0.3570 -0.0889 -0.5241
   14MOL0     C 1813   2.990   5.512   7.170  0.6493 -0.2301 -0.1294
   14MOL0     C 1814   3.119   5.596   7.161  0.6415  0.2245 -0.0905
   14MOL0     C 1815   3.143   5.629   7.016 -0.0557  0.7252 -0.0557
   14MOL0     C 1816   3.283   5.691   7.003  0.0101 -0.3172 -0.3396
   14MOL0     C 1817   3.309   5.770   6.869  0.9546  0.3761  0.2514
   14MOL0     O 1818   3.270   5.692   6.757  0.2114  0.4569  0.1132
   14MOL0     C 1819   3.352   5.597   6.706  0.6904  0.5145  0.2512
   14MOL0     C 1820   3.285   5.496   6.629 -0.4910 -0.7455  0.2377
   14MOL0     C 1821   3.358   5.399   6.552 -0.4585  0.1634  0.1784
   14MOL0     C 1822   3.284   5.296   6.480  0.3523  0.3201 -0.3161
   14MOL0     C 1823   3.503   5.393   6.575  0.1818  0.9768 -0.0503
   14MOL0     C 1824   3.598   5.290   6.530  0.4186 -0.4649 -0.0367
   14MOL0     O 1825   3.738   5.319   6.538  0.7807  0.5015  0.0587
   14MOL0     C 1826   3.833   5.228   6.504  0.4207 -0.9328  0.7170
   14MOL0     C 1827   3.813   5.112   6.428  1.5824  1.0497 -0.3426
   14MOL0     C 1828   3.920   5.047   6.379 -0.1365  0.1433 -0.0764
   14MOL0     C 1829   4.041   5.067   6.442  0.2985  0.7442  0.2909
   14MOL0     O 1830   4.147   4.984   6.407 -0.6076  0.0190 -0.0545
   14MOL0     C 1831   4.108   4.847   6.390 -0.1836 -0.5824 -0.3313
   14MOL0     C 1832   4.209   4.764   6.470 -0.1905 -0.8258  0.5416
   14MOL0     C 1833   4.186   4.614   6.447  0.1649  0.8916  0.1815
   14MOL0     C 1834   4.035   4.559   6.466  1.1440  0.0942 -0.7040
   14MOL0     C 1835   4.024   4.410   6.485  0.5356 -0.7324  0.4964
   14MOL0     C 1836   3.882   4.382   6.528  0.1627  0.2873 -0.0770
   14MOL0     C 1837   3.839   4.437   6.663 -0.5612 -0.2335 -0.6300
   14MOL0     C 1838   3.708   4.373   6.708 -0.3187 -0.2367  0.8215
   14MOL0    Cl 1839   3.739   4.206   6.764  0.0836  0.1915 -0.2084
   14MOL0     C 1840   4.060   5.166   6.531 -0.3689 -0.2639 -0.7897
   14MOL0     C 1841   3.956   5.252   6.563 -1.0523  0.4555  0.5606
   14MOL0     O 1842   3.551   5.187   6.487  0.2906 -0.0753  0.5491
   14MOL0     C 1843   3.557   5.494   6.654 -0.0213  0.7996 -0.2835
   14MOL0     C 1844   3.488   5.595   6.710  0.1453  0.2918  0.2761
   14MOL0     N 1845   2.916   5.459   7.073 -0.1281  0.3780  0.9060
   14MOL0     N 1846   2.811   5.406   7.125 -0.0080  0.5026 -0.8577
   14MOL0     C 1847   1.930   5.817   7.876 -1.0256 -0.2987  0.2792
   14MOL0     C 1848   1.820   5.878   7.942  0.2920 -0.3695  0.4315
   14MOL0     C 1849   1.488   6.076   8.161  0.3810  0.2639  0.3039
   14MOL0     C 1850   1.383   6.129   8.076  0.4295  0.0727  0.1493
   14MOL0     C 1851   1.272   6.205   8.121  0.4104 -0.5584 -0.3723
   14MOL0     C 1852   1.253   6.215   8.260 -0.2448  0.1142  0.1111
   14MOL0     O 1853   1.144   6.279   8.320  0.1420 -0.3537  0.1782
   14MOL0     C 1854   1.061   6.364   8.230  0.3688 -0.2051 -0.0123
   14MOL0     C 1855   0.955   6.425   8.315  0.5352 -0.0154 -0.4822
   14MOL0     C 1856   0.831   6.345   8.330  0.2268  0.1302  0.0700
   14MOL0     C 1857   0.859   6.207   8.398  0.7576  0.3063  0.3783
   14MOL0     C 1858   0.731   6.152   8.454  0.3851  0.0214 -1.0947
   14MOL0     C 1859   0.577   6.061   8.522  0.1996  0.4987 -0.3158
   14MOL0     C 1860   1.350   6.162   8.346  0.2818  0.4294  0.2522
   14MOL0     C 1861   1.472   6.100   8.297  0.5482  0.7877 -0.4425
   14MOL0     C 1862   1.563   6.048   8.403  0.0339  0.3629  0.0687
   14MOL0     H 1863   1.936   5.867   8.265  2.1830 -2.0230  0.4468
   14MOL0     H 1864   2.126   5.785   8.147 -0.2688 -0.6224 -1.5181
   14MOL0     H 1865   2.288   5.724   7.726  0.2260 -1.5247 -0.3857
   14MOL0     H 1866   2.127   5.787   7.682 -1.2930 -0.2457  1.0280
   14MOL0     H 1867   2.155   5.519   7.814  0.7401 -0.2623 -0.2183
   14MOL0     H 1868   2.021   5.561   7.719 -0.6520  2.4911  0.2899
   14MOL0     H 1869   2.118   5.423   7.572  0.5969 -0.2208 -0.3284
   14MOL0     H 1870   2.172   5.581   7.511  0.5380 -0.9201  0.2664
   14MOL0     H 1871   2.388   5.545   7.638 -1.9490  0.0181  1.4297
   14MOL0     H 1872   2.344   5.387   7.684  1.0689  1.5996  1.6639
   14MOL0     H 1873   2.381   5.493   7.395  3.0137  1.8010  0.8196
   14MOL0     H 1874   2.308   5.333   7.419 -0.1473  3.0454 -1.2630
   14MOL0     H 1875   2.559   5.393   7.563 -2.2100  1.1210  0.9423
   14MOL0     H 1876   2.509   5.255   7.470 -1.3452  0.1973  4.5067
   14MOL0     H 1877   2.620   5.533   7.381 -0.4706 -0.8287  0.4074
   14MOL0     H 1878   2.558   5.429   7.260  1.6177  2.2246 -0.6567
   14MOL0     H 1879   2.787   5.347   7.454  1.0293 -1.5229 -0.9715
   14MOL0     H 1880   2.731   5.253   7.319  0.2356  0.2442 -1.5281
   14MOL0     H 1881   2.969   5.525   7.391  0.1112 -1.1739 -0.3230
   14MOL0     H 1882   3.200   5.526   7.183 -0.6815 -1.3374  0.0052
   14MOL0     H 1883   3.112   5.681   7.229  0.7593  0.0460  0.1477
   14MOL0     H 1884   3.144   5.541   6.951  0.6677  0.8043 -0.1571
   14MOL0     H 1885   3.060   5.687   6.974  0.2743  0.0662 -1.7346
   14MOL0     H 1886   3.292   5.769   7.080  1.5601 -0.7117 -0.1008
   14MOL0     H 1887   3.361   5.616   7.015  0.7279 -0.1491 -3.3125
   14MOL0     H 1888   3.246   5.859   6.869  0.4851  0.0504 -0.4825
   14MOL0     H 1889   3.415   5.795   6.854  0.4555  1.5035 -1.7059
   14MOL0     H 1890   3.177   5.505   6.629 -0.4762 -0.4991  0.9077
   14MOL0     H 1891   3.331   5.285   6.381 -0.0806  1.7396 -0.6938
   14MOL0     H 1892   3.178   5.320   6.470  0.3381  0.5342  0.2971
   14MOL0     H 1893   3.284   5.194   6.521  2.1070  0.5961  0.4619
   14MOL0     H 1894   3.716   5.083   6.389  0.8653  0.5106  1.7271
   14MOL0     H 1895   3.928   4.977   6.296  0.8335  1.5398 -1.2229
   14MOL0     H 1896   4.018   4.809   6.439  0.5610 -1.3131  0.4833
   14MOL0     H 1897   4.118   4.816   6.285  1.1107 -0.5244 -0.2424
   14MOL0     H 1898   4.313   4.790   6.449 -0.9118  1.9174 -0.0264
   14MOL0     H 1899   4.198   4.778   6.578 -0.4403  0.7698  0.3288
   14MOL0     H 1900   4.245   4.564   6.524 -1.4181  1.5100  1.8599
   14MOL0     H 1901   4.225   4.590   6.348 -1.7499  0.0175 -0.4030
   14MOL0     H 1902   3.988   4.584   6.370  1.5805 -0.0998 -0.9736
   14MOL0     H 1903   3.990   4.618   6.546  0.0419 -0.1240 -1.1401
   14MOL0     H 1904   4.056   4.361   6.392 -0.1408  1.1055 -0.7611
   14MOL0     H 1905   4.083   4.376   6.570 -1.0511 -2.0658  1.1141
   14MOL0     H 1906   3.873   4.274   6.537 -1.0398  0.4344  0.6367
   14MOL0     H 1907   3.808   4.422   6.457  1.0542  2.2961  0.0293
   14MOL0     H 1908   3.806   4.540   6.645 -2.2188 -0.2441  1.8184
   14MOL0     H 1909   3.916   4.427   6.741 -0.0410 -0.9632 -1.2333
   14MOL0     H 1910   3.641   4.375   6.622 -1.7983 -3.6865  1.7314
   14MOL0     H 1911   3.669   4.424   6.797  1.2001 -1.2363  2.1199
   14MOL0     H 1912   4.155   5.186   6.580 -0.4393 -0.2997 -0.6369
   14MOL0     H 1913   3.967   5.339   6.627 -0.3617 -0.1918  1.3499
   14MOL0     H 1914   3.664   5.490   6.674  0.2169 -0.6481 -1.6692
   14MOL0     H 1915   3.536   5.661   6.781  1.6466  1.3144 -1.6072
   14MOL0     H 1916   1.932   5.811   7.767  0.3053  0.4840  0.2397
   14MOL0     H 1917   1.743   5.915   7.874 -0.1554  0.6699  1.4773
   14MOL0     H 1918   1.389   6.127   7.968  0.1875  1.9141  0.0802
   14MOL0     H 1919   1.198   6.238   8.049  1.1523 -1.6627 -1.6683
   14MOL0     H 1920   1.124   6.433   8.174  0.0825 -0.0766 -0.1805
   14MOL0     H 1921   1.005   6.301   8.160  1.8572 -0.1758 -1.2665
   14MOL0     H 1922   0.923   6.520   8.272 -1.4647  0.6623  2.2210
   14MOL0     H 1923   0.987   6.450   8.417 -1.6221  0.1614  0.2040
   14MOL0     H 1924   0.769   6.398   8.404  0.3169 -2.5347  2.2439
   14MOL0     H 1925   0.775   6.337   8.237 -1.7905 -1.7120  1.3339
   14MOL0     H 1926   0.925   6.221   8.484 -2.7484 -1.5579  3.7005
   14MOL0     H 1927   0.908   6.132   8.335  0.9517 -0.9465  1.9611
   14MOL0     H 1928   0.495   6.001   8.559  0.9488 -0.4250 -0.1066
   14MOL0     H 1929   1.338   6.160   8.454 -0.4321 -0.6314  0.1663
   14MOL0     H 1930   1.521   5.954   8.440  1.2583 -0.2492 -0.0216
   14MOL0     H 1931   1.665   6.028   8.369  0.3684  1.6717  0.2209
   14MOL0     H 1932   1.571   6.117   8.488  0.8663 -0.2347  0.4901
   15MOL0     O 1933   7.064   8.288   5.316  0.1225 -1.0651  0.2984
   15MOL0     C 1934   6.970   8.229   5.365  0.0323  0.2462 -0.3115
   15MOL0     O 1935   6.975   8.163   5.481 -0.0404 -0.0769 -0.3841
   15MOL0     C 1936   7.098   8.115   5.536  0.1524 -1.1871  0.3914
   15MOL0     C 1937   7.099   8.103   5.677 -0.2823  0.0352 -1.1119
   15MOL0     C 1938   7.214   8.048   5.740  0.4040 -0.1118 -0.3197
   15MOL0     C 1939   7.331   8.009   5.664 -0.6434  0.0203  0.5314
   15MOL0     O 1940   7.445   7.963   5.720  0.0173 -0.0977 -0.0785
   15MOL0     C 1941   7.465   7.930   5.859 -0.2540  0.6825 -0.0632
   15MOL0     C 1942   7.609   7.886   5.884 -0.3813 -0.3474  0.9409
   15MOL0     C 1943   7.704   8.011   5.876  0.3855  0.7695  1.0019
   15MOL0     C 1944   7.852   7.982   5.894  1.3139  0.3206 -0.0248
   15MOL0     C 1945   7.933   8.117   5.900 -0.3189  0.0464 -0.0609
   15MOL0     C 1946   8.089   8.098   5.894  0.4341 -0.9957 -0.0291
   15MOL0     C 1947   8.146   8.004   6.005 -0.0331  0.8106  1.0186
   15MOL0     C 1948   8.137   8.071   6.142  0.7136 -0.3559 -0.2593
   15MOL0     N 1949   8.214   8.008   6.245 -0.5515 -0.1504 -0.4549
   15MOL0     C 1950   8.251   8.067   6.361  0.0520 -0.0385 -0.6709
   15MOL0     C 1951   8.324   7.976   6.430  0.1342  0.1498  0.6661
   15MOL0     C 1952   8.376   7.986   6.573  0.3176  0.8683 -0.1538
   15MOL0     C 1953   8.501   7.899   6.596  0.1715  0.4175 -0.3132
   15MOL0     C 1954   8.629   7.963   6.537 -0.7911 -0.0496  0.3547
   15MOL0     C 1955   8.675   8.105   6.609  0.1554 -0.1864  0.5991
   15MOL0     O 1956   8.696   8.090   6.756 -0.9742  0.7617 -1.1035
   15MOL0     C 1957   8.816   8.029   6.800  0.5273  0.0249  0.2208
   15MOL0     C 1958   8.819   8.019   6.938 -0.0719 -0.9223  0.9547
   15MOL0     C 1959   8.927   7.966   6.995 -0.1214  0.5128 -0.6284
   15MOL0     C 1960   8.924   7.952   7.141  0.1153  0.6097  0.0960
   15MOL0     C 1961   9.051   7.937   6.921  0.7472 -0.2181  0.8829
   15MOL0     C 1962   9.186   7.912   6.978 -0.3544 -0.5111 -0.5158
   15MOL0     O 1963   9.278   7.882   6.883  0.6292 -0.5236 -0.2826
   15MOL0     C 1964   9.415   7.885   6.892 -0.0605 -0.0611  0.8940
   15MOL0     C 1965   9.492   7.947   6.998  0.1824  0.4061 -0.0952
   15MOL0     C 1966   9.634   7.938   6.983 -0.2486  0.0081 -0.1453
   15MOL0     C 1967   9.693   7.884   6.863 -0.1784 -0.3148  0.1649
   15MOL0     O 1968   9.830   7.892   6.866 -0.4612  0.4229  0.7385
   15MOL0     C 1969   9.906   7.847   6.756 -0.0293 -0.5454  0.4273
   15MOL0     C 1970  10.055   7.900   6.755  0.2828 -0.1010  0.1456
   15MOL0     C 1971  10.129   7.838   6.871  0.7788  0.0914  0.0448
   15MOL0     C 1972  10.263   7.895   6.883 -0.4817 -0.1257 -0.4009
   15MOL0     C 1973  10.336   7.819   6.991 -0.3886 -0.7645  0.2158
   15MOL0     C 1974  10.351   7.663   6.982  0.1604  0.8674 -0.6147
   15MOL0     C 1975  10.464   7.612   7.069  0.1020 -0.7284 -0.4769
   15MOL0     C 1976  10.521   7.467   7.042 -0.4742  0.1776 -0.1569
   15MOL0    Cl 1977  10.677   7.450   7.138  0.2002 -0.4784 -0.0055
   15MOL0     C 1978   9.614   7.828   6.758  0.3752 -0.6306  0.3209
   15MOL0     C 1979   9.476   7.819   6.779  0.4289 -0.7623  0.2680
   15MOL0     O 1980   9.209   7.936   7.094 -0.2333  1.3574 -0.1949
   15MOL0     C 1981   9.044   7.946   6.780 -0.0264  0.2180 -0.2031
   15MOL0     C 1982   8.925   7.985   6.725  0.0756  0.1135 -0.4302
   15MOL0     N 1983   8.335   7.863   6.350 -0.0804  0.9226  1.0980
   15MOL0     N 1984   8.278   7.886   6.229  0.3434 -0.3386 -0.5690
   15MOL0     C 1985   7.338   8.056   5.528  0.1764  0.7361  0.8283
   15MOL0     C 1986   7.218   8.098   5.464 -0.2759  0.1644 -0.2769
   15MOL0     C 1987   6.846   8.224   5.278  1.4525 -0.0754 -0.2869
   15MOL0     C 1988   6.745   8.126   5.302 -0.0414  0.4488 -0.1450
   15MOL0     C 1989   6.630   8.113   5.214  0.2389 -0.3043 -0.3956
   15MOL0     C 1990   6.608   8.199   5.114  0.0273  0.8469  0.9042
   15MOL0     O 1991   6.496   8.171   5.030 -0.5332  0.1637  1.0956
   15MOL0     C 1992   6.402   8.278   5.045  0.1444 -0.0825  0.6224
   15MOL0     C 1993   6.260   8.231   5.050  0.7140 -0.1005 -0.5088
   15MOL0     C 1994   6.164   8.338   5.105 -0.1292  0.0482 -0.3312
   15MOL0     C 1995   6.026   8.275   5.122  0.5826  0.0860 -0.3021
   15MOL0     C 1996   5.933   8.380   5.161 -0.5001 -0.5024  0.0636
   15MOL0     C 1997   5.852   8.469   5.178 -0.1947 -0.6117 -0.4977
   15MOL0     C 1998   6.697   8.305   5.099 -0.4935  0.7581 -0.2507
   15MOL0     C 1999   6.808   8.320   5.177 -0.6395  0.1361 -0.3578
   15MOL0     C 2000   6.896   8.438   5.147  0.1480 -0.9261 -0.3087
   15MOL0     H 2001   7.016   8.116   5.746  0.6703 -1.7890  0.4961
   15MOL0     H 2002   7.219   8.028   5.847  1.6091 -2.8909 -0.7841
   15MOL0     H 2003   7.401   7.843   5.877  1.0081 -0.0350  1.0862
   15MOL0     H 2004   7.444   8.021   5.916  1.1196  1.6422 -1.0537
   15MOL0     H 2005   7.615   7.848   5.986 -1.5590  2.1037  1.9943
   15MOL0     H 2006   7.630   7.813   5.805 -1.6893  0.9473 -0.6915
   15MOL0     H 2007   7.699   8.056   5.776 -0.6192 -1.8033 -0.1877
   15MOL0     H 2008   7.664   8.086   5.945 -1.2830 -1.0340  2.0814
   15MOL0     H 2009   7.867   7.924   5.986  0.5394  1.7938  1.0763
   15MOL0     H 2010   7.898   7.916   5.820  1.0816  1.2532 -1.0106
   15MOL0     H 2011   7.923   8.178   5.991  2.6486 -0.8315  0.9811
   15MOL0     H 2012   7.907   8.175   5.811 -0.3335  1.6367  0.9329
   15MOL0     H 2013   8.109   8.067   5.792 -1.9912  2.8098 -1.8812
   15MOL0     H 2014   8.144   8.193   5.900  2.7379 -2.2832  0.6349
   15MOL0     H 2015   8.249   7.993   5.971 -1.0001  0.7172 -2.3217
   15MOL0     H 2016   8.099   7.906   5.995  1.0418  0.5067 -2.4835
   15MOL0     H 2017   8.184   8.168   6.129 -3.3269  1.7791 -0.4747
   15MOL0     H 2018   8.033   8.086   6.173  0.1696 -0.5657 -1.8638
   15MOL0     H 2019   8.230   8.164   6.404 -1.7467 -2.1463  3.9695
   15MOL0     H 2020   8.310   7.942   6.648  0.0886  2.0647  0.3693
   15MOL0     H 2021   8.388   8.091   6.599 -1.9880  0.5352  2.7287
   15MOL0     H 2022   8.508   7.882   6.704 -1.9574  0.3095 -0.1491
   15MOL0     H 2023   8.472   7.801   6.555 -1.8992  2.5221 -4.4721
   15MOL0     H 2024   8.710   7.892   6.557 -0.6827 -0.1787 -0.4815
   15MOL0     H 2025   8.608   7.987   6.432 -1.4899  1.4976  0.8275
   15MOL0     H 2026   8.761   8.150   6.560 -1.0930  0.7511 -0.8483
   15MOL0     H 2027   8.599   8.185   6.605  2.9912  2.6484 -1.2754
   15MOL0     H 2028   8.745   8.065   7.002  1.5471  0.1543  2.1571
   15MOL0     H 2029   8.966   7.857   7.174 -1.9715 -1.4963 -2.7601
   15MOL0     H 2030   8.816   7.959   7.161 -0.4570 -3.8842 -0.4785
   15MOL0     H 2031   8.964   8.038   7.195  1.2660 -0.0061  0.2378
   15MOL0     H 2032   9.450   7.990   7.088 -0.8968  1.3946 -1.0461
   15MOL0     H 2033   9.692   7.969   7.069  2.7284 -0.2300 -1.9522
   15MOL0     H 2034   9.915   7.738   6.762 -0.7643 -0.5528  1.8524
   15MOL0     H 2035   9.870   7.884   6.659  1.5333  1.2812  0.4744
   15MOL0     H 2036  10.107   7.876   6.662  1.0410  0.5011  0.4050
   15MOL0     H 2037  10.038   8.008   6.757 -2.5739 -0.4802  1.6780
   15MOL0     H 2038  10.136   7.730   6.853 -0.4269  0.3660 -2.5193
   15MOL0     H 2039  10.091   7.866   6.969  1.1644  0.2930  0.1371
   15MOL0     H 2040  10.254   8.000   6.913 -0.3566 -0.5688  1.2426
   15MOL0     H 2041  10.332   7.900   6.798  1.2567 -0.8358  0.9178
   15MOL0     H 2042  10.430   7.872   7.003 -1.4936  1.4678 -0.4347
   15MOL0     H 2043  10.274   7.835   7.080 -1.7173 -2.1206 -0.4172
   15MOL0     H 2044  10.381   7.635   6.880  4.6642  0.4082  0.6339
   15MOL0     H 2045  10.256   7.614   7.003 -0.1370  2.1604  1.3387
   15MOL0     H 2046  10.437   7.609   7.175  0.6064 -1.1935 -0.3596
   15MOL0     H 2047  10.551   7.678   7.063  1.6131 -2.4189  1.4614
   15MOL0     H 2048  10.527   7.444   6.935 -4.6189 -3.7486  0.1137
   15MOL0     H 2049  10.450   7.390   7.074  0.5014  0.6106  3.3805
   15MOL0     H 2050   9.653   7.801   6.661 -1.3339  2.7932 -1.4983
   15MOL0     H 2051   9.410   7.773   6.706  1.2043 -1.6349  0.0948
   15MOL0     H 2052   9.120   7.920   6.708  0.9661  0.0381  0.8700
   15MOL0     H 2053   8.918   7.992   6.617  0.7279  1.1088 -0.4191
   15MOL0     H 2054   7.422   8.020   5.470 -1.9183 -2.9733 -0.1737
   15MOL0     H 2055   7.218   8.109   5.356  1.0298  1.1058 -0.2029
   15MOL0     H 2056   6.753   8.047   5.376 -0.0820  2.7881  2.5205
   15MOL0     H 2057   6.575   8.022   5.238  1.9642 -0.5357  3.5614
   15MOL0     H 2058   6.424   8.336   5.135 -3.1603 -1.1356  2.2349
   15MOL0     H 2059   6.415   8.349   4.962 -0.8828  1.1548  1.4872
   15MOL0     H 2060   6.243   8.148   5.119 -3.6512 -0.7025 -1.9878
   15MOL0     H 2061   6.224   8.200   4.951 -4.6965 -1.1205  1.4015
   15MOL0     H 2062   6.191   8.375   5.205 -0.2583  2.6671 -1.1816
   15MOL0     H 2063   6.155   8.423   5.036  0.4636  1.3149  1.0986
   15MOL0     H 2064   6.022   8.198   5.200  1.3827 -1.7622 -2.0027
   15MOL0     H 2065   5.989   8.228   5.031 -4.3111  1.1748  0.8104
   15MOL0     H 2066   5.787   8.552   5.199 -2.1604 -2.2740  0.3018
   15MOL0     H 2067   6.681   8.378   5.020  1.6104  3.3329  1.5189
   15MOL0     H 2068   6.834   8.514   5.099 -2.7685 -2.0320  1.4517
   15MOL0     H 2069   6.938   8.481   5.239  1.4056 -0.4039 -1.0891
   15MOL0     H 2070   6.988   8.424   5.089  1.8050 -3.7045  2.6302
   16MOL0     O 2071   7.594   8.788   8.083 -0.1856 -0.0267 -0.3586
   16MOL0     C 2072   7.476   8.827   8.078 -0.4481 -0.5033 -0.0793
   16MOL0     O 2073   7.440   8.936   8.009  0.0867 -0.2775 -0.5647
   16MOL0     C 2074   7.537   9.003   7.952 -0.0628  0.4681 -0.2481
   16MOL0     C 2075   7.630   8.944   7.850  1.0311  0.0792 -0.0635
   16MOL0     C 2076   7.724   9.025   7.790  0.1156 -1.2757 -0.1235
   16MOL0     C 2077   7.741   9.156   7.835 -0.1323  0.5007 -0.0611
   16MOL0     O 2078   7.843   9.228   7.783 -0.3263  0.2837 -0.0965
   16MOL0     C 2079   7.857   9.371   7.813 -0.4163 -0.8289 -0.1220
   16MOL0     C 2080   7.993   9.420   7.772 -0.2507  0.4083  0.0686
   16MOL0     C 2081   7.990   9.573   7.777  0.2355 -0.3563  0.6621
   16MOL0     C 2082   8.119   9.634   7.720 -0.2585  0.0924  0.1884
   16MOL0     C 2083   8.234   9.616   7.816 -0.3034  0.1434  1.4118
   16MOL0     C 2084   8.357   9.646   7.731 -0.0582 -0.1884 -0.4286
   16MOL0     C 2085   8.474   9.662   7.824 -0.1758 -1.0620 -0.3881
   16MOL0     C 2086   8.600   9.688   7.730  0.1867  0.9423 -0.5350
   16MOL0     N 2087   8.722   9.724   7.807  0.9896  0.5981  0.0054
   16MOL0     C 2088   8.786   9.841   7.793  0.4669 -0.6591  0.0351
   16MOL0     C 2089   8.877   9.832   7.895 -0.1236  0.8396  0.6442
   16MOL0     C 2090   8.973   9.933   7.923 -0.1783 -0.2101 -0.0752
   16MOL0     C 2091   9.115   9.881   7.872  0.9977 -0.6040  0.4122
   16MOL0     C 2092   9.128   9.868   7.715  0.0924 -0.9526 -0.5574
   16MOL0     C 2093   9.272   9.828   7.683 -0.0281  0.1479  0.2502
   16MOL0     O 2094   9.365   9.927   7.708  0.0788  0.2815 -0.0778
   16MOL0     C 2095   9.494   9.883   7.726  0.2709 -0.1558  0.3795
   16MOL0     C 2096   9.545   9.774   7.664 -1.1942  0.4302 -0.0140
   16MOL0     C 2097   9.681   9.742   7.688  0.1655 -0.0481 -0.2429
   16MOL0     C 2098   9.725   9.613   7.626  0.1126 -0.2445  0.1871
   16MOL0     C 2099   9.764   9.829   7.767  0.4616 -0.7720 -0.4637
   16MOL0     C 2100   9.914   9.825   7.786 -0.2581  0.2731 -0.7063
   16MOL0     O 2101   9.966   9.709   7.730 -0.7581 -0.1044 -0.1668
   16MOL0     C 2102  10.089   9.675   7.765 -0.2497 -0.8354 -0.3467
   16MOL0     C 2103  10.123   9.593   7.883 -0.1957 -0.7744 -1.0431
   16MOL0     C 2104  10.258   9.596   7.926  1.0127  0.3211  0.0420
   16MOL0     C 2105  10.357   9.644   7.849  0.2200  0.1041  0.2494
   16MOL0     O 2106  10.495   9.645   7.878 -0.9450  0.0110 -0.7833
   16MOL0     C 2107  10.539   9.570   7.995  0.2998  0.7160 -0.1475
   16MOL0     C 2108  10.690   9.591   8.024 -1.1617  0.8788 -0.0944
   16MOL0     C 2109  10.732   9.528   8.158  0.3533  0.0121 -0.1966
   16MOL0     C 2110  10.888   9.532   8.201 -0.2115  0.5591  0.3032
   16MOL0     C 2111  10.908   9.451   8.330 -0.4971  0.5444  0.0872
   16MOL0     C 2112  11.046   9.481   8.396  0.1263 -0.2166  0.2830
   16MOL0     C 2113  11.091   9.374   8.500  0.9286 -0.5496  0.0675
   16MOL0     C 2114  11.229   9.399   8.548 -0.3345 -0.5204  0.2000
   16MOL0    Cl 2115  11.281   9.280   8.664 -0.2363 -0.2349  0.4945
   16MOL0     C 2116  10.330   9.703   7.733  1.1424 -0.2059  0.1151
   16MOL0     C 2117  10.198   9.731   7.694  0.6404  0.0907  0.5261
   16MOL0     O 2118   9.974   9.911   7.847 -0.1768 -0.5105 -0.3703
   16MOL0     C 2119   9.705   9.938   7.824 -0.4159  0.7221  0.5209
   16MOL0     C 2120   9.569   9.956   7.808  0.6352  0.2015 -0.8612
   16MOL0     N 2121   8.859   9.718   7.969 -0.1227  0.4262  0.0613
   16MOL0     N 2122   8.763   9.650   7.916  0.1231 -0.3461  0.0669
   16MOL0     C 2123   7.671   9.196   7.946 -0.0969  0.3835 -0.2636
   16MOL0     C 2124   7.554   9.133   7.992 -0.3499  0.1689 -0.8997
   16MOL0     C 2125   7.377   8.785   8.176  0.3137  0.3868 -0.0948
   16MOL0     C 2126   7.243   8.772   8.133 -0.4662 -1.0108 -0.4143
   16MOL0     C 2127   7.145   8.733   8.221  0.1160  0.2685 -1.2755
   16MOL0     C 2128   7.172   8.699   8.357  1.8376  0.2957 -0.1881
   16MOL0     O 2129   7.062   8.684   8.444 -0.5657 -0.0012 -0.0417
   16MOL0     C 2130   6.951   8.609   8.410  0.3773  0.4194 -0.6179
   16MOL0     C 2131   6.854   8.604   8.525  0.8117 -0.7974  0.0214
   16MOL0     C 2132   6.917   8.543   8.654  0.3380 -0.8393 -0.0949
   16MOL0     C 2133   6.809   8.537   8.763 -0.6338  0.0198  0.3254
   16MOL0     C 2134   6.872   8.510   8.889 -0.9620  0.5578  0.0126
   16MOL0     C 2135   6.927   8.475   8.992 -0.2698  0.7425 -0.0446
   16MOL0     C 2136   7.306   8.696   8.395  0.0108  0.1555 -0.5784
   16MOL0     C 2137   7.411   8.736   8.304 -0.5738 -0.7110  0.0512
   16MOL0     C 2138   7.545   8.748   8.373  0.0638  0.6514  0.0513
   16MOL0     H 2139   7.608   8.846   7.809 -0.3181 -0.0647  0.9037
   16MOL0     H 2140   7.782   8.994   7.703  1.3418 -0.2606  0.3037
   16MOL0     H 2141   7.850   9.387   7.921  3.4292 -0.7667  0.2534
   16MOL0     H 2142   7.786   9.430   7.754 -0.5705  0.0941  0.9503
   16MOL0     H 2143   8.078   9.374   7.825  1.1040 -1.1490 -3.1705
   16MOL0     H 2144   8.008   9.382   7.671  1.3356 -2.1324  1.1463
   16MOL0     H 2145   7.907   9.605   7.713  0.5409 -0.9783 -0.0741
   16MOL0     H 2146   7.966   9.600   7.880  0.4231 -1.3927  0.9907
   16MOL0     H 2147   8.130   9.589   7.620 -0.8160  0.7646 -0.1897
   16MOL0     H 2148   8.099   9.740   7.699  0.1069  0.0758 -0.2677
   16MOL0     H 2149   8.248   9.511   7.840  1.8767  0.4497  1.7351
   16MOL0     H 2150   8.238   9.677   7.907  2.2702  2.6337 -0.1686
   16MOL0     H 2151   8.375   9.564   7.661 -0.4269 -2.5614  2.0765
   16MOL0     H 2152   8.333   9.743   7.687 -5.0276  0.0360  2.0592
   16MOL0     H 2153   8.495   9.577   7.890  1.9880  0.8247  1.5327
   16MOL0     H 2154   8.454   9.754   7.880 -1.1520  0.1510 -2.6135
   16MOL0     H 2155   8.629   9.596   7.677  1.3388  1.5720 -1.0509
   16MOL0     H 2156   8.579   9.752   7.644 -0.5170 -0.3692 -1.3888
   16MOL0     H 2157   8.770   9.915   7.716  2.7820  1.6118  1.5789
   16MOL0     H 2158   8.970   9.964   8.028  0.3424 -0.2214 -0.0551
   16MOL0     H 2159   8.943  10.021   7.865  0.1911 -0.2179 -0.2779
   16MOL0     H 2160   9.189   9.959   7.896  1.5328 -1.0039  0.1011
   16MOL0     H 2161   9.141   9.789   7.926 -3.8132 -1.3863  1.7974
   16MOL0     H 2162   9.070   9.781   7.684  2.9981 -3.4659  0.5852
   16MOL0     H 2163   9.110   9.969   7.678 -2.8298 -0.3439  2.0520
   16MOL0     H 2164   9.292   9.730   7.728  1.5298  0.3949  0.1529
   16MOL0     H 2165   9.276   9.819   7.574 -0.4781 -1.0767  0.3178
   16MOL0     H 2166   9.486   9.696   7.617 -1.3814 -1.0400  2.4848
   16MOL0     H 2167   9.638   9.568   7.575  0.6656  0.0070 -1.0110
   16MOL0     H 2168   9.743   9.553   7.715 -1.3021  2.6576  2.6359
   16MOL0     H 2169   9.808   9.620   7.556 -1.2494  0.4066 -1.4452
   16MOL0     H 2170  10.045   9.556   7.949 -0.9338  3.3313  0.7025
   16MOL0     H 2171  10.278   9.545   8.020  2.2316  0.4465 -0.1384
   16MOL0     H 2172  10.483   9.609   8.080 -0.6458 -2.6610  0.9316
   16MOL0     H 2173  10.520   9.465   7.970  2.1339  0.4471 -0.5977
   16MOL0     H 2174  10.736   9.552   7.933 -1.4619  0.1731  0.0490
   16MOL0     H 2175  10.718   9.694   8.045  2.5361 -0.6599  4.0611
   16MOL0     H 2176  10.695   9.426   8.151  1.8581 -0.5201 -0.8225
   16MOL0     H 2177  10.673   9.575   8.237 -1.1578  0.8563 -1.7611
   16MOL0     H 2178  10.912   9.638   8.219 -0.6961  1.1024 -1.9180
   16MOL0     H 2179  10.955   9.486   8.128 -0.2291 -0.4120  0.8814
   16MOL0     H 2180  10.837   9.473   8.410 -1.2344 -3.1242  0.6327
   16MOL0     H 2181  10.901   9.342   8.319 -0.5577  0.5105  0.4394
   16MOL0     H 2182  11.032   9.576   8.447  0.5220 -0.0612  0.1094
   16MOL0     H 2183  11.127   9.494   8.323 -1.3146  0.6107 -1.2474
   16MOL0     H 2184  11.093   9.273   8.457  0.7535  0.5569 -2.8007
   16MOL0     H 2185  11.023   9.391   8.583 -1.9288  1.1221 -2.4213
   16MOL0     H 2186  11.230   9.498   8.594  1.5595 -0.5778  0.3836
   16MOL0     H 2187  11.307   9.396   8.471 -0.6104 -0.5104 -0.0786
   16MOL0     H 2188  10.411   9.731   7.665  2.5028 -1.7906  1.0028
   16MOL0     H 2189  10.183   9.779   7.598 -1.1160  0.0985  0.7806
   16MOL0     H 2190   9.757  10.023   7.867 -1.6760  2.0386 -0.4769
   16MOL0     H 2191   9.529  10.047   7.852  1.9496 -0.4392  1.8530
   16MOL0     H 2192   7.682   9.292   7.995 -3.4747  2.1570 -2.5303
   16MOL0     H 2193   7.492   9.176   8.071 -0.0120 -0.9613 -0.0019
   16MOL0     H 2194   7.207   8.804   8.036 -1.7048  3.0559  1.1816
   16MOL0     H 2195   7.041   8.730   8.193 -0.5406 -3.6055  0.7761
   16MOL0     H 2196   6.891   8.651   8.329 -3.6885 -0.4190  1.6485
   16MOL0     H 2197   6.972   8.506   8.382  2.0810  0.0060  1.8209
   16MOL0     H 2198   6.763   8.548   8.502  0.8842 -1.1938  0.6716
   16MOL0     H 2199   6.829   8.706   8.554 -1.8311 -1.5615  0.7730
   16MOL0     H 2200   6.964   8.447   8.629 -2.0953 -2.0900 -0.1714
   16MOL0     H 2201   6.989   8.618   8.689 -1.4237  0.2775  1.2734
   16MOL0     H 2202   6.741   8.452   8.750  0.8777 -1.1079 -0.6283
   16MOL0     H 2203   6.754   8.630   8.780  0.2818  0.4213  1.2547
   16MOL0     H 2204   6.956   8.442   9.090 -0.2207 -2.7704 -1.1167
   16MOL0     H 2205   7.327   8.654   8.493  2.1987  1.9599 -0.1750
   16MOL0     H 2206   7.594   8.845   8.361  0.2521  0.5172 -0.2967
   16MOL0     H 2207   7.528   8.728   8.479 -0.1539 -2.1409 -0.4305
   16MOL0     H 2208   7.607   8.669   8.329  0.3010  1.6440 -1.4366
   17MOL0     O 2209   9.012   4.443   9.149  0.3336  0.2489 -0.2242
   17MOL0     C 2210   8.978   4.354   9.228 -0.2140  0.3815 -0.2054
   17MOL0     O 2211   8.890   4.362   9.329  0.1052  0.3922 -0.2922
   17MOL0     C 2212   8.869   4.483   9.386 -0.6217  1.3552  0.6481
   17MOL0     C 2213   8.958   4.552   9.469 -0.0958  0.0276  0.3243
   17MOL0     C 2214   8.932   4.684   9.526  0.7056  0.2056 -0.3946
   17MOL0     C 2215   8.801   4.738   9.501 -0.7811  0.9955 -0.0658
   17MOL0     O 2216   8.764   4.865   9.538 -0.1533  0.4130  0.5858
   17MOL0     C 2217   8.634   4.876   9.606  0.0018  0.1566  0.1265
   17MOL0     C 2218   8.643   4.962   9.728 -0.6670 -0.8037 -0.2046
   17MOL0     C 2219   8.644   5.113   9.702 -0.4417 -0.2462 -0.2167
   17MOL0     C 2220   8.511   5.172   9.656  0.1462  0.3685  0.0674
   17MOL0     C 2221   8.542   5.324   9.632  1.0469  0.1790 -0.5403
   17MOL0     C 2222   8.412   5.404   9.595 -0.3595 -0.0307  0.3692
   17MOL0     C 2223   8.432   5.557   9.577  0.1436  0.1603  0.0098
   17MOL0     C 2224   8.294   5.630   9.595  0.6123  0.2796  0.4518
   17MOL0     N 2225   8.270   5.663   9.729 -0.8322  0.1503 -0.5023
   17MOL0     C 2226   8.251   5.782   9.780  0.2978 -1.6412 -0.8043
   17MOL0     C 2227   8.235   5.769   9.917 -0.2966  1.3517 -0.6189
   17MOL0     C 2228   8.204   5.878  10.019  0.3032  0.5319 -0.9502
   17MOL0     C 2229   8.049   5.900  10.024  0.4011 -0.2663  0.5758
   17MOL0     C 2230   8.014   6.024  10.115 -0.3391  0.8571  1.1021
   17MOL0     C 2231   7.854   6.039  10.124 -0.2304  0.5196  0.0120
   17MOL0     O 2232   7.790   6.044   9.999 -0.1840 -0.1493  0.2254
   17MOL0     C 2233   7.656   6.070  10.002  0.5992  1.1379  1.6738
   17MOL0     C 2234   7.577   6.076   9.885 -0.1992  0.8967  0.5225
   17MOL0     C 2235   7.449   6.115   9.877 -0.8086 -0.2025  1.3092
   17MOL0     C 2236   7.392   6.132   9.736 -0.0886  0.4153  0.9395
   17MOL0     C 2237   7.371   6.113   9.998 -0.6057 -1.2070 -0.9507
   17MOL0     C 2238   7.227   6.146  10.004 -0.4556 -0.9817 -0.1707
   17MOL0     O 2239   7.182   6.192  10.125  0.6917  0.4657  0.7197
   17MOL0     C 2240   7.046   6.202  10.144  0.3407 -0.5756 -0.2375
   17MOL0     C 2241   6.960   6.083  10.135  0.8270 -1.3529  0.5094
   17MOL0     C 2242   6.821   6.096  10.151 -0.3154  0.2713 -0.0642
   17MOL0     C 2243   6.765   6.225  10.174 -0.4904  0.0250  0.5344
   17MOL0     O 2244   6.632   6.227  10.198  0.6984 -0.3988 -0.2443
   17MOL0     C 2245   6.556   6.354  10.229 -0.6797  0.9456 -0.4735
   17MOL0     C 2246   6.407   6.323  10.250 -0.4697 -0.8608  0.0096
   17MOL0     C 2247   6.390   6.246  10.376  0.5930  1.2359 -0.1104
   17MOL0     C 2248   6.245   6.177  10.361 -0.7743  0.2308 -0.7905
   17MOL0     C 2249   6.216   6.089  10.480  0.1727 -0.0837  0.4766
   17MOL0     C 2250   6.077   6.022  10.473 -0.4956 -0.8527  0.4678
   17MOL0     C 2251   5.972   6.114  10.515  0.2503 -0.4629 -0.6727
   17MOL0     C 2252   5.839   6.022  10.539  1.0126  0.4541 -0.8176
   17MOL0    Cl 2253   5.838   5.919  10.686  0.0070  0.0810  0.1765
   17MOL0     C 2254   6.847   6.339  10.160 -0.9616 -0.0501 -0.2199
   17MOL0     C 2255   6.987   6.336  10.156  0.4573  1.3229 -0.4761
   17MOL0     O 2256   7.157   6.130   9.906 -1.0210 -0.5599  0.2980
   17MOL0     C 2257   7.440   6.110  10.119  0.1217  0.1389  0.6034
   17MOL0     C 2258   7.581   6.084  10.119  0.1602  0.2656 -0.1705
   17MOL0     N 2259   8.247   5.628   9.936  0.6667  0.0190 -0.5620
   17MOL0     N 2260   8.270   5.571   9.832  0.1581  0.7026  0.4110
   17MOL0     C 2261   8.709   4.664   9.426 -0.0503 -0.7568 -0.2442
   17MOL0     C 2262   8.738   4.537   9.375  0.1487  0.0339 -0.3217
   17MOL0     C 2263   9.025   4.216   9.188 -0.2884  0.5286  0.2152
   17MOL0     C 2264   8.948   4.102   9.211 -0.1854  0.1896 -0.2968
   17MOL0     C 2265   9.000   3.976   9.184 -0.4599  0.1539 -0.2618
   17MOL0     C 2266   9.127   3.957   9.132  0.9979 -0.0612  0.5282
   17MOL0     O 2267   9.162   3.826   9.098 -0.4383 -0.1796  0.1939
   17MOL0     C 2268   9.300   3.808   9.045 -0.1967 -1.1173 -1.5854
   17MOL0     C 2269   9.328   3.663   9.012  0.4916  0.3078  0.4268
   17MOL0     C 2270   9.454   3.637   8.928 -1.3019  0.8640 -0.1768
   17MOL0     C 2271   9.514   3.493   8.946  0.9714  0.0940 -0.0992
   17MOL0     C 2272   9.613   3.465   8.848 -0.4270  0.6948 -0.6123
   17MOL0     C 2273   9.698   3.409   8.780 -0.1753 -0.0447  0.4303
   17MOL0     C 2274   9.204   4.069   9.109  0.1438 -0.5226  0.8937
   17MOL0     C 2275   9.157   4.195   9.134  0.0130  0.0002 -0.3157
   17MOL0     C 2276   9.255   4.307   9.115  0.2127  0.7733 -0.2182
   17MOL0     H 2277   9.059   4.516   9.454 -0.6587 -0.5128 -2.8509
   17MOL0     H 2278   9.008   4.747   9.573  0.9617 -0.6260  0.3397
   17MOL0     H 2279   8.598   4.777   9.637  1.6035 -0.7733 -0.7978
   17MOL0     H 2280   8.562   4.922   9.538  1.3609 -0.6556 -1.9834
   17MOL0     H 2281   8.563   4.949   9.802 -1.0637  2.0822 -0.0128
   17MOL0     H 2282   8.736   4.943   9.783 -0.9728  1.3301  1.1711
   17MOL0     H 2283   8.688   5.162   9.789  2.7447 -0.9404 -1.2918
   17MOL0     H 2284   8.713   5.132   9.619  0.3147  0.2310  0.5035
   17MOL0     H 2285   8.467   5.140   9.562  0.2839 -0.0984  0.1608
   17MOL0     H 2286   8.429   5.167   9.729  0.5522 -2.2572  0.4256
   17MOL0     H 2287   8.621   5.336   9.558  1.2555 -2.2985 -0.8005
   17MOL0     H 2288   8.577   5.362   9.729 -1.2641 -1.9926  1.2970
   17MOL0     H 2289   8.365   5.377   9.500  2.7030 -0.3441 -1.1805
   17MOL0     H 2290   8.338   5.380   9.673 -0.0720  1.1860  1.0539
   17MOL0     H 2291   8.466   5.583   9.476  0.1516  0.5673  0.1150
   17MOL0     H 2292   8.495   5.597   9.658 -1.7291  3.0906  0.1859
   17MOL0     H 2293   8.289   5.724   9.539  0.9215 -0.1383 -0.2934
   17MOL0     H 2294   8.213   5.560   9.573 -1.5400  1.8682  2.7798
   17MOL0     H 2295   8.228   5.877   9.732 -1.7322 -1.3444  0.6132
   17MOL0     H 2296   8.249   5.974   9.991 -1.5256  1.4011 -1.0637
   17MOL0     H 2297   8.238   5.855  10.120 -2.0009  0.1708 -0.2203
   17MOL0     H 2298   8.005   5.913   9.924 -1.6729 -0.2990  1.4362
   17MOL0     H 2299   8.012   5.807  10.069 -0.0827 -0.3614 -0.0073
   17MOL0     H 2300   8.046   6.001  10.217 -1.2044  0.4833  1.2927
   17MOL0     H 2301   8.072   6.114  10.093  1.0219 -0.2103  0.1163
   17MOL0     H 2302   7.832   5.951  10.185 -1.6737 -0.3044 -1.6206
   17MOL0     H 2303   7.838   6.125  10.190  1.6740  1.4309 -0.6313
   17MOL0     H 2304   7.617   6.045   9.789 -2.7712  1.4403 -0.8033
   17MOL0     H 2305   7.363   6.236   9.727  0.4456  0.5141  0.2615
   17MOL0     H 2306   7.302   6.073   9.718  0.2762 -0.3188  1.4654
   17MOL0     H 2307   7.463   6.097   9.661 -3.1484 -0.8533 -1.5799
   17MOL0     H 2308   6.990   5.986  10.096 -0.3251 -1.2793 -0.6318
   17MOL0     H 2309   6.763   6.005  10.160 -1.9182  1.3827  1.3183
   17MOL0     H 2310   6.603   6.393  10.320 -0.8126  0.9735 -0.4163
   17MOL0     H 2311   6.573   6.427  10.150  0.5859  0.2329 -0.8936
   17MOL0     H 2312   6.358   6.421  10.256  0.4590 -0.2162 -2.1680
   17MOL0     H 2313   6.375   6.266  10.163 -0.9862  0.1768 -0.4974
   17MOL0     H 2314   6.387   6.316  10.460 -0.8786  1.4857 -0.3371
   17MOL0     H 2315   6.459   6.162  10.383  1.9291  2.2888 -0.3989
   17MOL0     H 2316   6.234   6.117  10.270 -1.0268 -2.4111  0.8705
   17MOL0     H 2317   6.177   6.262  10.346 -1.9765 -0.7837 -1.2399
   17MOL0     H 2318   6.287   6.005  10.486  0.0249 -0.4092 -1.4820
   17MOL0     H 2319   6.217   6.143  10.575 -0.3592 -2.4677  1.9207
   17MOL0     H 2320   6.076   5.927  10.526 -2.0436 -0.4366  1.2346
   17MOL0     H 2321   6.060   5.999  10.367  1.0670 -0.4927  0.1099
   17MOL0     H 2322   5.952   6.185  10.434 -0.9455  2.1826  1.7369
   17MOL0     H 2323   5.988   6.166  10.611  0.2853  0.7988 -1.3352
   17MOL0     H 2324   5.819   5.952  10.458 -1.9653  0.3196 -0.0747
   17MOL0     H 2325   5.761   6.096  10.560  1.7282  0.4784  2.3816
   17MOL0     H 2326   6.807   6.438  10.176 -1.1460 -0.6333  4.1511
   17MOL0     H 2327   7.047   6.426  10.155  1.9924  0.3786  1.0522
   17MOL0     H 2328   7.393   6.138  10.213 -1.7684  1.1176 -0.5710
   17MOL0     H 2329   7.626   6.089  10.218 -0.1867 -3.1470  0.2601
   17MOL0     H 2330   8.617   4.720   9.408  1.0468  0.8083 -1.2189
   17MOL0     H 2331   8.677   4.487   9.300 -2.0567  1.7980  0.2112
   17MOL0     H 2332   8.844   4.100   9.241 -0.0893 -0.1079  0.0264
   17MOL0     H 2333   8.945   3.886   9.208 -0.0188  0.0769  0.4984
   17MOL0     H 2334   9.312   3.882   8.966 -1.3081  1.4196  0.4816
   17MOL0     H 2335   9.373   3.838   9.121 -0.8490 -2.1754 -0.5045
   17MOL0     H 2336   9.250   3.638   8.939  2.4007  0.7303 -1.8622
   17MOL0     H 2337   9.326   3.593   9.096 -1.3900 -0.9486 -0.5927
   17MOL0     H 2338   9.419   3.663   8.827 -0.8778  0.4620 -0.4318
   17MOL0     H 2339   9.531   3.703   8.968  0.9663 -1.1834 -0.9557
   17MOL0     H 2340   9.434   3.422   8.927  1.0853 -0.4517  1.3576
   17MOL0     H 2341   9.546   3.485   9.050  0.8246  0.7207  0.0034
   17MOL0     H 2342   9.774   3.360   8.722 -1.3975 -3.6562  1.5858
   17MOL0     H 2343   9.308   4.063   9.080  0.1816  2.5782 -0.0215
   17MOL0     H 2344   9.252   4.352   9.016  0.7354 -0.2367 -0.7203
   17MOL0     H 2345   9.240   4.381   9.194  1.8174  0.3007  0.5760
   17MOL0     H 2346   9.356   4.269   9.135 -0.7372 -0.9252  1.8796
   18MOL0     O 2347   0.711   0.675   7.977  0.2279 -0.0611 -0.1463
   18MOL0     C 2348   0.694   0.769   8.062  0.0431  0.2886  0.6968
   18MOL0     O 2349   0.780   0.790   8.167  0.5783  0.9662  0.7735
   18MOL0     C 2350   0.884   0.698   8.185  0.1905 -0.6829 -0.5537
   18MOL0     C 2351   0.886   0.629   8.307 -0.5183 -0.3739 -0.5850
   18MOL0     C 2352   1.001   0.555   8.331  0.3212  0.8828  0.1899
   18MOL0     C 2353   1.110   0.548   8.243 -0.0079 -0.2783  0.1939
   18MOL0     O 2354   1.234   0.495   8.269 -0.6033  0.3646 -0.7393
   18MOL0     C 2355   1.249   0.437   8.397  0.2636  1.3268  0.1881
   18MOL0     C 2356   1.362   0.334   8.382  0.3742  0.4424 -0.2009
   18MOL0     C 2357   1.500   0.380   8.348 -0.0667 -0.2372  0.5023
   18MOL0     C 2358   1.523   0.371   8.198 -0.3086 -0.0084 -0.1998
   18MOL0     C 2359   1.660   0.450   8.159 -0.1735 -0.6844 -1.0875
   18MOL0     C 2360   1.788   0.394   8.232  0.4990  0.1790  0.2723
   18MOL0     C 2361   1.906   0.492   8.229  0.6317  0.3006 -0.0196
   18MOL0     C 2362   2.030   0.443   8.303 -0.2046 -0.3758  0.7050
   18MOL0     N 2363   2.134   0.541   8.295  0.6986 -0.7373  0.1863
   18MOL0     C 2364   2.130   0.657   8.367  0.0445 -0.2183  1.1923
   18MOL0     C 2365   2.229   0.734   8.304  0.2411  0.3212  0.2454
   18MOL0     C 2366   2.279   0.874   8.341  0.1878  0.3710  0.3138
   18MOL0     C 2367   2.432   0.889   8.364  0.6089  0.0604  0.3556
   18MOL0     C 2368   2.469   0.841   8.503 -0.7067  0.7190 -0.0685
   18MOL0     C 2369   2.618   0.844   8.526 -0.6323 -0.3137  0.5433
   18MOL0     O 2370   2.645   0.813   8.665  0.0678  0.5909 -0.6825
   18MOL0     C 2371   2.768   0.772   8.713 -0.1990 -0.5775  1.0364
   18MOL0     C 2372   2.798   0.810   8.840 -0.2484  0.7417  0.2423
   18MOL0     C 2373   2.928   0.787   8.879  0.0269  0.8412 -0.0082
   18MOL0     C 2374   2.971   0.862   9.000  0.1837 -0.2545 -0.1321
   18MOL0     C 2375   3.029   0.722   8.795  0.1198  0.6724 -0.5105
   18MOL0     C 2376   3.174   0.702   8.822 -0.7084  0.0796 -0.2450
   18MOL0     O 2377   3.255   0.704   8.714 -0.2565  0.2970  0.4486
   18MOL0     C 2378   3.392   0.701   8.716 -0.5576  0.1712 -0.8444
   18MOL0     C 2379   3.478   0.717   8.826  0.5139 -0.5720 -0.6655
   18MOL0     C 2380   3.617   0.725   8.814  0.8851  0.0617  0.8025
   18MOL0     C 2381   3.668   0.702   8.687 -0.2222  0.5155 -0.8079
   18MOL0     O 2382   3.813   0.707   8.667 -0.3864  0.3942 -0.4345
   18MOL0     C 2383   3.858   0.697   8.528 -0.0209 -0.5881  0.1143
   18MOL0     C 2384   4.010   0.714   8.511  0.1778 -0.6465 -0.6753
   18MOL0     C 2385   4.059   0.843   8.568  0.4835 -0.5963 -0.3684
   18MOL0     C 2386   4.205   0.868   8.521 -0.4969 -0.6331  0.1369
   18MOL0     C 2387   4.310   0.762   8.564  0.4958  0.3513  0.9170
   18MOL0     C 2388   4.448   0.780   8.505  0.6156  0.0475 -0.3118
   18MOL0     C 2389   4.512   0.910   8.553  0.1627  0.4438 -0.8635
   18MOL0     C 2390   4.583   0.888   8.692  0.0353  0.1248 -0.2436
   18MOL0    Cl 2391   4.700   1.011   8.722 -0.0072  0.0713 -0.1467
   18MOL0     C 2392   3.588   0.665   8.583  0.3996  0.7534 -0.2410
   18MOL0     C 2393   3.460   0.671   8.586  0.2889 -0.0560  0.3854
   18MOL0     O 2394   3.208   0.699   8.937  0.3159 -0.1055  0.2015
   18MOL0     C 2395   2.992   0.683   8.668 -0.5992 -0.7266  0.0469
   18MOL0     C 2396   2.864   0.712   8.628  0.2208  0.2736  0.0817
   18MOL0     N 2397   2.291   0.656   8.210  0.6285  0.3095 -0.4049
   18MOL0     N 2398   2.234   0.537   8.206  0.2754 -0.4401  0.4298
   18MOL0     C 2399   1.097   0.618   8.121 -0.8493  0.5752 -0.3251
   18MOL0     C 2400   0.985   0.687   8.094  0.2739  0.3428  0.3459
   18MOL0     C 2401   0.577   0.858   8.012 -0.5647  0.2166 -0.4027
   18MOL0     C 2402   0.499   0.823   7.901  0.3854  1.2609 -0.4822
   18MOL0     C 2403   0.386   0.882   7.865 -0.5608  0.9251  0.2404
   18MOL0     C 2404   0.337   0.987   7.946  0.0722  0.7928 -0.6214
   18MOL0     O 2405   0.215   1.037   7.892  0.4123 -0.6272 -0.2572
   18MOL0     C 2406   0.159   1.162   7.948  0.0843 -0.4905 -0.1808
   18MOL0     C 2407   0.037   1.220   7.888  0.2662  0.3585  0.4566
   18MOL0     C 2408   0.077   1.304   7.766  0.1042 -0.7711  0.8841
   18MOL0     C 2409  -0.030   1.292   7.656 -0.3090  0.1789 -0.5987
   18MOL0     C 2410  -0.162   1.341   7.694  0.3672 -0.2991 -0.5258
   18MOL0     C 2411  -0.259   1.391   7.740 -0.6517 -0.1504 -0.6709
   18MOL0     C 2412   0.408   1.028   8.053 -0.5357 -0.0102 -0.5379
   18MOL0     C 2413   0.532   0.968   8.090  0.2873  0.7006 -0.2847
   18MOL0     C 2414   0.593   1.034   8.219 -0.4503  0.0216  0.3763
   18MOL0     H 2415   0.799   0.638   8.371 -1.1189 -0.2819 -1.4045
   18MOL0     H 2416   0.994   0.505   8.427 -1.0037  2.0424  0.7292
   18MOL0     H 2417   1.158   0.383   8.427 -0.5443  3.6070  2.1045
   18MOL0     H 2418   1.267   0.507   8.478  0.8162  0.7498  0.5676
   18MOL0     H 2419   1.373   0.280   8.477  0.8518  1.0357  0.0843
   18MOL0     H 2420   1.334   0.258   8.309 -1.2885 -1.2095  1.9784
   18MOL0     H 2421   1.518   0.482   8.385 -1.1261  0.8834 -1.8667
   18MOL0     H 2422   1.566   0.311   8.402  0.6140 -0.1009 -0.1549
   18MOL0     H 2423   1.527   0.264   8.176  0.2367 -0.1262  0.4279
   18MOL0     H 2424   1.436   0.420   8.153  1.0129  3.1466  0.4024
   18MOL0     H 2425   1.629   0.554   8.173  0.5879 -0.6575  0.6524
   18MOL0     H 2426   1.672   0.457   8.051  4.4535  3.4658 -0.6792
   18MOL0     H 2427   1.766   0.367   8.335 -0.1070  1.0883  0.3884
   18MOL0     H 2428   1.819   0.301   8.183 -1.3499 -1.1251  1.4344
   18MOL0     H 2429   1.882   0.585   8.281  0.5300 -0.3898  1.2164
   18MOL0     H 2430   1.935   0.521   8.127 -2.0786 -1.4400 -1.3985
   18MOL0     H 2431   2.002   0.425   8.408 -2.1088 -0.0231  0.2950
   18MOL0     H 2432   2.064   0.352   8.254 -2.2947 -0.2040 -1.2106
   18MOL0     H 2433   2.061   0.697   8.440  1.7635  2.2520  1.5933
   18MOL0     H 2434   2.230   0.915   8.429  1.5015  0.8612  0.8381
   18MOL0     H 2435   2.263   0.927   8.247 -0.1319  1.0480  0.7487
   18MOL0     H 2436   2.483   0.823   8.293  1.4695  0.5527  0.5006
   18MOL0     H 2437   2.470   0.992   8.361 -0.4981  0.4757  0.0940
   18MOL0     H 2438   2.427   0.911   8.576  0.1649  1.5379 -0.3310
   18MOL0     H 2439   2.434   0.739   8.518 -1.2761  1.0591  1.0418
   18MOL0     H 2440   2.661   0.769   8.458  0.5905  0.5621  0.3131
   18MOL0     H 2441   2.655   0.938   8.486 -0.9676 -0.9996 -1.5180
   18MOL0     H 2442   2.717   0.848   8.902 -3.3976 -0.3770 -2.8263
   18MOL0     H 2443   2.981   0.798   9.088 -2.3747 -1.3446 -0.5347
   18MOL0     H 2444   2.892   0.932   9.031  0.6493  1.1105 -1.8686
   18MOL0     H 2445   3.066   0.915   8.992  2.0287 -3.3552 -0.0353
   18MOL0     H 2446   3.448   0.730   8.930 -2.5564 -0.4988 -1.4773
   18MOL0     H 2447   3.686   0.743   8.896 -0.1868 -1.2732  2.0525
   18MOL0     H 2448   3.841   0.601   8.478  0.3300  0.7243 -2.7024
   18MOL0     H 2449   3.813   0.778   8.471  0.4494 -1.6138 -1.8074
   18MOL0     H 2450   4.072   0.631   8.548  3.8146  1.0572 -2.3854
   18MOL0     H 2451   4.035   0.729   8.406  1.5702  2.0765 -0.0711
   18MOL0     H 2452   4.056   0.823   8.676  1.4717  1.4293  0.0841
   18MOL0     H 2453   3.996   0.929   8.546  2.5740  1.7463  2.0853
   18MOL0     H 2454   4.220   0.968   8.565 -0.1373 -1.3960  1.8165
   18MOL0     H 2455   4.196   0.880   8.413 -0.0187 -0.8382  0.0752
   18MOL0     H 2456   4.320   0.773   8.673 -1.8745  2.7240  1.0043
   18MOL0     H 2457   4.270   0.662   8.546  0.8866  0.4944 -0.8572
   18MOL0     H 2458   4.433   0.787   8.397  0.4297  0.0940 -0.2822
   18MOL0     H 2459   4.508   0.697   8.544 -1.7285 -1.4843  0.2517
   18MOL0     H 2460   4.436   0.988   8.550 -1.1062 -0.7997 -2.0703
   18MOL0     H 2461   4.600   0.926   8.488  3.5328 -2.1735  2.6068
   18MOL0     H 2462   4.623   0.787   8.692 -0.7943 -0.3323 -3.9087
   18MOL0     H 2463   4.506   0.898   8.770  0.1078 -0.8938 -0.0293
   18MOL0     H 2464   3.635   0.632   8.490  5.6506 -0.7285  2.5172
   18MOL0     H 2465   3.396   0.638   8.505 -0.5769  1.7358  0.2797
   18MOL0     H 2466   3.062   0.642   8.596  1.3442  3.1226 -0.5100
   18MOL0     H 2467   2.849   0.693   8.523  0.4882 -1.3600  0.3201
   18MOL0     H 2468   1.163   0.609   8.035 -1.0277  1.3948 -0.5553
   18MOL0     H 2469   0.966   0.744   8.003 -1.5896 -0.5886  0.0931
   18MOL0     H 2470   0.533   0.750   7.829 -0.2091  1.1190 -0.6309
   18MOL0     H 2471   0.347   0.853   7.768 -0.0431 -1.9568  0.8047
   18MOL0     H 2472   0.123   1.137   8.049  1.4865  0.7774  0.6826
   18MOL0     H 2473   0.233   1.242   7.954  1.0664 -0.9363 -4.0092
   18MOL0     H 2474  -0.023   1.278   7.958 -0.5660  0.8931 -0.6622
   18MOL0     H 2475  -0.020   1.129   7.863  0.1184  0.0649  1.7854
   18MOL0     H 2476   0.108   1.408   7.784 -0.2481 -0.9340  2.5271
   18MOL0     H 2477   0.172   1.268   7.726 -0.8148 -0.8622 -1.3336
   18MOL0     H 2478  -0.040   1.193   7.610  3.1305  0.7933 -3.0189
   18MOL0     H 2479   0.006   1.338   7.564  1.1825  2.4733  1.0383
   18MOL0     H 2480  -0.320   1.471   7.774 -2.3023 -1.6180 -0.0193
   18MOL0     H 2481   0.365   1.103   8.118 -0.3332 -1.7402  1.7223
   18MOL0     H 2482   0.565   0.983   8.312 -1.3182 -1.1726 -0.5037
   18MOL0     H 2483   0.702   1.034   8.218 -0.2930  4.2472  0.9499
   18MOL0     H 2484   0.551   1.135   8.230  1.1251  0.5386  2.0983
   19MOL0     O 2485  11.212   3.961   5.476 -0.2670 -0.5041 -0.6294
   19MOL0     C 2486  11.245   3.917   5.590 -0.6077 -0.3400 -0.1271
   19MOL0     O 2487  11.341   3.826   5.622 -0.7638  0.0600 -0.1384
   19MOL0     C 2488  11.403   3.765   5.516  0.2166 -0.4909 -0.4655
   19MOL0     C 2489  11.517   3.823   5.449  1.4226 -0.1607 -0.7097
   19MOL0     C 2490  11.582   3.756   5.346 -0.0652  0.5002  0.1945
   19MOL0     C 2491  11.538   3.623   5.317 -0.1208  0.4315  0.7837
   19MOL0     O 2492  11.607   3.548   5.225  0.3118 -1.0093 -0.4453
   19MOL0     C 2493  11.636   3.607   5.101  0.0169 -0.1907  0.1745
   19MOL0     C 2494  11.687   3.505   5.000  0.1891  0.7114 -0.4752
   19MOL0     C 2495  11.603   3.377   4.971  0.6314  0.3376  0.9063
   19MOL0     C 2496  11.692   3.257   4.934  0.2466 -0.1977 -0.0542
   19MOL0     C 2497  11.799   3.212   5.032  0.1407 -0.1265 -0.0673
   19MOL0     C 2498  11.872   3.094   4.976 -0.5334  0.1014  0.4010
   19MOL0     C 2499  11.977   3.030   5.064 -0.4278 -0.8632  0.0655
   19MOL0     C 2500  12.052   2.925   4.997  0.0791  0.2868 -0.0510
   19MOL0     N 2501  12.153   2.972   4.893  0.6624 -0.2824 -0.1149
   19MOL0     C 2502  12.209   2.891   4.797  0.5744  0.5905 -0.2211
   19MOL0     C 2503  12.281   2.969   4.719  0.0483  0.0246  0.0091
   19MOL0     C 2504  12.376   2.928   4.604  0.0515  0.4912 -0.0332
   19MOL0     C 2505  12.502   3.013   4.609 -0.3069  0.7609  0.1904
   19MOL0     C 2506  12.598   2.959   4.501  0.0743 -0.1340 -0.3799
   19MOL0     C 2507  12.737   3.008   4.487  0.2007 -0.0274  0.0758
   19MOL0     O 2508  12.824   2.983   4.594  0.9380 -0.1365 -0.4828
   19MOL0     C 2509  12.956   2.981   4.550 -1.2497 -0.4184 -0.1261
   19MOL0     C 2510  13.006   3.055   4.443  0.0321 -0.1596 -0.5964
   19MOL0     C 2511  13.144   3.070   4.410  0.0291  0.9196 -0.3167
   19MOL0     C 2512  13.163   3.146   4.282  0.7645  0.7025 -0.4082
   19MOL0     C 2513  13.236   3.003   4.491  0.7084 -0.4729  0.1776
   19MOL0     C 2514  13.382   3.013   4.465  0.1875 -0.1270 -0.5455
   19MOL0     O 2515  13.448   2.906   4.501  0.3266  0.0042  0.3626
   19MOL0     C 2516  13.587   2.915   4.481 -0.3443 -0.0047  0.3680
   19MOL0     C 2517  13.647   2.896   4.357  0.0594  1.0454 -0.3822
   19MOL0     C 2518  13.787   2.898   4.338  0.0409  0.2821 -0.0162
   19MOL0     C 2519  13.872   2.915   4.446  0.3435 -0.8891  0.0598
   19MOL0     O 2520  14.006   2.923   4.437  0.2310 -0.1050 -0.1391
   19MOL0     C 2521  14.060   3.006   4.336 -0.1390 -0.0052  0.3407
   19MOL0     C 2522  14.202   2.970   4.325  0.0025 -0.2833  0.4380
   19MOL0     C 2523  14.264   2.983   4.457 -0.3878  0.2440 -0.5423
   19MOL0     C 2524  14.413   2.968   4.465  0.0535  0.2296  0.3237
   19MOL0     C 2525  14.457   3.034   4.593  0.1476  1.0478 -0.4613
   19MOL0     C 2526  14.610   3.018   4.599 -0.1149  0.7205  0.1718
   19MOL0     C 2527  14.659   3.108   4.710  0.0425  0.7052 -0.0470
   19MOL0     C 2528  14.801   3.079   4.741 -0.4455 -0.6212 -0.5951
   19MOL0    Cl 2529  14.915   3.157   4.630  0.1526  0.0639 -0.3717
   19MOL0     C 2530  13.815   2.930   4.571  0.0721  0.6957 -0.1675
   19MOL0     C 2531  13.674   2.922   4.583 -0.2809  0.8486 -0.8511
   19MOL0     O 2532  13.425   3.115   4.406 -0.1704 -0.1982 -0.2610
   19MOL0     C 2533  13.191   2.924   4.597 -0.1682  0.0965  0.4323
   19MOL0     C 2534  13.054   2.919   4.635 -0.4934 -0.3491 -0.0873
   19MOL0     N 2535  12.269   3.098   4.771 -0.2386 -0.0454 -0.3056
   19MOL0     N 2536  12.187   3.100   4.868 -0.3825 -0.4478  0.5466
   19MOL0     C 2537  11.415   3.573   5.371 -0.4049 -0.2392  0.1746
   19MOL0     C 2538  11.350   3.640   5.472 -0.2739 -0.6465 -0.6508
   19MOL0     C 2539  11.170   3.971   5.714 -0.0669 -0.5976  0.7547
   19MOL0     C 2540  11.028   3.969   5.713 -0.6335 -0.1516  0.8476
   19MOL0     C 2541  10.956   4.010   5.826 -0.9015  0.8011 -0.2537
   19MOL0     C 2542  11.016   4.039   5.946 -0.1012  0.1377 -0.9222
   19MOL0     O 2543  10.938   4.070   6.058 -0.3151  0.0983 -0.4678
   19MOL0     C 2544  10.990   4.142   6.169 -0.9315  0.1033 -0.0142
   19MOL0     C 2545  10.888   4.222   6.249 -0.0247  0.2504  0.7229
   19MOL0     C 2546  10.817   4.329   6.168 -0.4195 -0.2475 -0.5711
   19MOL0     C 2547  10.689   4.286   6.091 -0.9317 -0.3819  0.1656
   19MOL0     C 2548  10.579   4.259   6.183  0.2890  0.9477 -0.7925
   19MOL0     C 2549  10.488   4.234   6.261 -0.0666 -0.7666  0.2268
   19MOL0     C 2550  11.157   4.043   5.948 -0.3660  0.2366  1.0520
   19MOL0     C 2551  11.229   4.018   5.833 -1.0302  0.3093 -0.6049
   19MOL0     C 2552  11.377   4.049   5.851 -0.1308 -0.0250 -0.6036
   19MOL0     H 2553  11.554   3.917   5.487 -0.2603 -0.3422  1.5951
   19MOL0     H 2554  11.668   3.806   5.301  0.5999 -0.5766  0.2363
   19MOL0     H 2555  11.708   3.689   5.103 -0.2750  0.0586  1.0313
   19MOL0     H 2556  11.543   3.642   5.056 -0.4608 -0.9744  0.5283
   19MOL0     H 2557  11.711   3.556   4.906  4.9439 -0.9351 -0.4304
   19MOL0     H 2558  11.778   3.464   5.046 -1.6484 -0.4119  2.4606
   19MOL0     H 2559  11.544   3.348   5.058  0.4443 -2.6440 -0.1200
   19MOL0     H 2560  11.535   3.397   4.888  1.5283  1.1151  0.3317
   19MOL0     H 2561  11.631   3.167   4.924  0.3845 -0.3375  0.3758
   19MOL0     H 2562  11.726   3.284   4.833 -2.8860 -0.4733 -1.2987
   19MOL0     H 2563  11.755   3.178   5.126 -2.1861 -1.1780 -1.4530
   19MOL0     H 2564  11.872   3.290   5.055  0.5079  0.1399 -1.9950
   19MOL0     H 2565  11.800   3.015   4.953 -0.0680  0.5407 -3.1882
   19MOL0     H 2566  11.923   3.112   4.880  1.6277 -1.8579  1.0827
   19MOL0     H 2567  11.934   2.982   5.153 -2.0690  2.3716  1.1899
   19MOL0     H 2568  12.045   3.110   5.096 -0.1677 -2.7453  5.2155
   19MOL0     H 2569  12.112   2.877   5.076  1.8746  2.5694  0.0869
   19MOL0     H 2570  11.985   2.850   4.954 -0.8959  0.9533  0.2702
   19MOL0     H 2571  12.201   2.785   4.775  2.5412  0.4763 -0.5913
   19MOL0     H 2572  12.321   2.927   4.510 -3.0798 -0.4882  1.6804
   19MOL0     H 2573  12.404   2.823   4.621  1.2591  0.7744 -0.1800
   19MOL0     H 2574  12.480   3.118   4.591 -2.0375  0.2596 -0.8534
   19MOL0     H 2575  12.552   3.005   4.707 -1.0587  1.3574  0.6341
   19MOL0     H 2576  12.603   2.850   4.509  1.7312 -0.0255  0.8107
   19MOL0     H 2577  12.556   2.985   4.404  0.5637 -0.8224 -0.7795
   19MOL0     H 2578  12.781   2.974   4.393  2.2136  0.5451  0.7494
   19MOL0     H 2579  12.713   3.113   4.467 -1.7805 -0.8565 -2.3935
   19MOL0     H 2580  12.931   3.116   4.394 -0.7895  0.6254  1.5251
   19MOL0     H 2581  13.082   3.218   4.272 -0.3084 -0.6270 -1.8997
   19MOL0     H 2582  13.156   3.086   4.190  1.0519 -0.4555  0.2993
   19MOL0     H 2583  13.256   3.203   4.287  0.7884  0.7341 -1.0627
   19MOL0     H 2584  13.594   2.885   4.262  0.7972 -2.8372 -0.4824
   19MOL0     H 2585  13.822   2.873   4.238 -1.6104  0.2760 -0.6386
   19MOL0     H 2586  14.014   2.975   4.242 -2.6235  0.9069  1.1714
   19MOL0     H 2587  14.050   3.112   4.360 -2.0382 -0.0036 -0.2676
   19MOL0     H 2588  14.212   2.864   4.300 -3.0855 -0.4860 -0.2426
   19MOL0     H 2589  14.247   3.035   4.249 -2.7311  0.5868 -0.5718
   19MOL0     H 2590  14.228   2.909   4.530 -0.9694 -0.8697 -1.9206
   19MOL0     H 2591  14.229   3.074   4.507  0.6343 -0.5020  1.6930
   19MOL0     H 2592  14.457   3.020   4.380 -1.5553  1.6166  0.2756
   19MOL0     H 2593  14.428   2.860   4.468  1.9689  0.3972 -1.3131
   19MOL0     H 2594  14.442   3.142   4.585  1.3378  1.2830  0.2614
   19MOL0     H 2595  14.406   3.000   4.683  1.3433 -0.2383 -0.2286
   19MOL0     H 2596  14.645   3.064   4.506 -0.3445 -0.9484 -0.7898
   19MOL0     H 2597  14.643   2.913   4.599 -0.2896  0.4464 -4.4127
   19MOL0     H 2598  14.601   3.082   4.798 -1.4714  0.8207 -0.9812
   19MOL0     H 2599  14.645   3.215   4.691  1.2560  0.6160 -1.7436
   19MOL0     H 2600  14.826   2.973   4.739  1.1747 -0.2760 -0.2463
   19MOL0     H 2601  14.822   3.115   4.842  0.9647 -0.2370 -0.9917
   19MOL0     H 2602  13.879   2.949   4.656  1.1464  2.2513 -1.2675
   19MOL0     H 2603  13.632   2.929   4.682 -0.4445  0.9860 -0.9291
   19MOL0     H 2604  13.260   2.869   4.660  1.0319  2.0602  0.9032
   19MOL0     H 2605  13.027   2.871   4.729 -3.0166 -1.8950 -1.5080
   19MOL0     H 2606  11.379   3.477   5.335 -2.8417  0.7828 -0.3342
   19MOL0     H 2607  11.262   3.601   5.520 -0.4936 -0.4064 -0.8554
   19MOL0     H 2608  10.980   3.941   5.620  1.3799  0.6249 -0.4864
   19MOL0     H 2609  10.848   4.022   5.820 -1.0179  1.7795  2.3667
   19MOL0     H 2610  11.042   4.069   6.232 -1.2327  0.2828  0.4433
   19MOL0     H 2611  11.069   4.210   6.136 -0.5677 -1.2316 -2.1001
   19MOL0     H 2612  10.948   4.264   6.330  1.0839  0.5883 -0.2383
   19MOL0     H 2613  10.813   4.147   6.277  1.5778 -2.2223 -1.1243
   19MOL0     H 2614  10.782   4.411   6.231  0.0836  2.9596 -4.0937
   19MOL0     H 2615  10.889   4.373   6.098 -0.0324 -0.9930 -0.6496
   19MOL0     H 2616  10.709   4.196   6.032 -0.2005 -0.2103  0.1468
   19MOL0     H 2617  10.660   4.363   6.018  0.4717  0.0356  0.0160
   19MOL0     H 2618  10.412   4.214   6.333 -1.2200 -1.2184 -1.0626
   19MOL0     H 2619  11.217   4.059   6.037 -2.3714  2.1636  2.1693
   19MOL0     H 2620  11.400   4.048   5.958 -1.6792 -2.2501 -0.2282
   19MOL0     H 2621  11.442   3.980   5.795  1.0509  0.4166  0.1922
   19MOL0     H 2622  11.399   4.148   5.810 -0.6962 -0.5463 -2.2571
   20MOL0     O 2623   6.569   6.046   5.394  0.6115  0.1791 -0.3418
   20MOL0     C 2624   6.487   5.968   5.439  0.0645 -0.2194  0.7360
   20MOL0     O 2625   6.516   5.882   5.536 -0.4611  0.0264  0.3887
   20MOL0     C 2626   6.639   5.822   5.522  0.6135  0.5804 -0.2519
   20MOL0     C 2627   6.750   5.871   5.594  0.5002  0.3090 -0.1242
   20MOL0     C 2628   6.869   5.809   5.577 -0.4933  0.4334 -0.0213
   20MOL0     C 2629   6.885   5.688   5.496  1.2516  0.2781 -0.2619
   20MOL0     O 2630   7.002   5.626   5.501  0.2939 -0.3257  0.3641
   20MOL0     C 2631   7.025   5.514   5.415 -0.3684 -0.6810  0.0461
   20MOL0     C 2632   7.172   5.510   5.405  1.0810 -0.2957  0.0105
   20MOL0     C 2633   7.249   5.453   5.520  0.5497  0.1717  0.9048
   20MOL0     C 2634   7.230   5.301   5.528 -0.4475  0.2485 -0.5739
   20MOL0     C 2635   7.250   5.244   5.669  0.2719 -1.0070  0.3635
   20MOL0     C 2636   7.153   5.305   5.761 -0.7165 -0.9563  0.2276
   20MOL0     C 2637   7.149   5.229   5.892  0.0888 -0.7923  0.4255
   20MOL0     C 2638   7.060   5.109   5.891  0.4780  0.1598  1.2375
   20MOL0     N 2639   7.037   5.048   6.023  0.4315 -0.0491 -0.5399
   20MOL0     C 2640   7.117   4.963   6.089 -0.2574  0.6411  0.4033
   20MOL0     C 2641   7.038   4.904   6.186 -0.2357  0.2323  0.0062
   20MOL0     C 2642   7.037   4.795   6.290  0.2722  0.2254  0.5430
   20MOL0     C 2643   7.117   4.844   6.410  0.1639 -0.7732 -0.2842
   20MOL0     C 2644   7.263   4.868   6.380  0.4342  0.1886  1.3361
   20MOL0     C 2645   7.331   4.969   6.467 -0.1709 -0.1500 -0.1580
   20MOL0     O 2646   7.333   4.919   6.607 -0.1247  0.1265  0.2327
   20MOL0     C 2647   7.438   4.935   6.685  0.1890 -0.2320 -0.2861
   20MOL0     C 2648   7.428   4.881   6.813 -0.2094  0.6775  0.4698
   20MOL0     C 2649   7.541   4.894   6.901  0.6642  1.1444 -0.2868
   20MOL0     C 2650   7.515   4.813   7.024  0.0905  0.1396 -0.2710
   20MOL0     C 2651   7.656   4.973   6.871  0.2346 -0.2749 -0.5318
   20MOL0     C 2652   7.769   4.990   6.962  0.0620 -0.2741  0.2188
   20MOL0     O 2653   7.770   4.919   7.082  0.0764 -0.3282 -0.4602
   20MOL0     C 2654   7.878   4.922   7.166  0.6493  0.2859 -0.3246
   20MOL0     C 2655   7.975   5.018   7.178  0.0601 -0.1309 -0.6108
   20MOL0     C 2656   8.086   5.014   7.269  0.1061 -0.0677  0.2003
   20MOL0     C 2657   8.116   4.893   7.340 -0.1141  0.5158 -0.3404
   20MOL0     O 2658   8.215   4.889   7.434 -0.7160 -0.9819  0.2254
   20MOL0     C 2659   8.254   4.762   7.489 -0.3882 -0.2345 -0.2850
   20MOL0     C 2660   8.381   4.774   7.576  0.3174 -0.1520  0.8569
   20MOL0     C 2661   8.516   4.783   7.500  0.2601 -1.0440  0.3560
   20MOL0     C 2662   8.622   4.814   7.607 -0.5628 -0.3447  0.3096
   20MOL0     C 2663   8.758   4.837   7.542 -0.2350  0.2215 -0.2642
   20MOL0     C 2664   8.866   4.868   7.650  1.1757  0.4835 -0.3087
   20MOL0     C 2665   8.859   5.021   7.702 -0.5610  0.1348 -0.2751
   20MOL0     C 2666   8.925   5.034   7.833 -0.4133 -0.0143  0.1811
   20MOL0    Cl 2667   9.096   5.029   7.800  0.4476  0.2388 -0.0655
   20MOL0     C 2668   8.023   4.794   7.328  0.0004  0.6208  0.4920
   20MOL0     C 2669   7.915   4.808   7.248  0.4443 -0.3476 -0.4571
   20MOL0     O 2670   7.859   5.064   6.928  1.0737  0.4301 -0.6492
   20MOL0     C 2671   7.651   5.026   6.743 -0.0359  1.1668 -0.0674
   20MOL0     C 2672   7.544   5.016   6.653  0.9795  0.6576 -0.4365
   20MOL0     N 2673   6.920   4.976   6.181 -0.0278 -0.2498 -1.0014
   20MOL0     N 2674   6.921   5.065   6.089 -0.5924  0.1419  0.0509
   20MOL0     C 2675   6.771   5.634   5.433  0.6725 -0.0587  0.4266
   20MOL0     C 2676   6.650   5.706   5.440 -0.1442 -0.8597 -0.4144
   20MOL0     C 2677   6.352   5.956   5.374  0.5642  0.7524  0.1063
   20MOL0     C 2678   6.316   5.828   5.329 -0.2397  1.0074 -0.0022
   20MOL0     C 2679   6.193   5.812   5.261  0.2246 -0.3756 -0.3049
   20MOL0     C 2680   6.111   5.918   5.233  0.1757  0.5228 -0.6434
   20MOL0     O 2681   5.994   5.883   5.172 -0.5792  0.6983 -0.6045
   20MOL0     C 2682   5.890   5.976   5.150 -0.1269  0.0197 -0.0395
   20MOL0     C 2683   5.780   5.897   5.069 -0.1730 -1.0043 -0.1600
   20MOL0     C 2684   5.827   5.884   4.923 -0.8895  0.2216  1.0497
   20MOL0     C 2685   5.967   5.817   4.893  0.0851  0.3307  0.8079
   20MOL0     C 2686   5.995   5.815   4.746  0.7306  1.3283 -0.4081
   20MOL0     C 2687   6.011   5.774   4.633  1.4019  0.6696 -0.2959
   20MOL0     C 2688   6.147   6.047   5.284  1.0530 -0.4565 -0.1109
   20MOL0     C 2689   6.269   6.065   5.347 -0.7916 -0.3980 -0.3519
   20MOL0     C 2690   6.309   6.206   5.393 -0.1982 -0.2603  0.2583
   20MOL0     H 2691   6.734   5.962   5.651  1.1315  1.9046 -2.3656
   20MOL0     H 2692   6.950   5.846   5.640 -0.0297 -0.4817 -0.0679
   20MOL0     H 2693   6.981   5.522   5.315  0.0767  1.7849 -0.0049
   20MOL0     H 2694   6.990   5.418   5.455 -0.2865 -1.0563 -0.7601
   20MOL0     H 2695   7.202   5.450   5.318 -0.5647 -0.9429 -0.1332
   20MOL0     H 2696   7.207   5.613   5.393 -0.8264  0.7135  2.4652
   20MOL0     H 2697   7.352   5.489   5.508  0.4984  0.3068  0.8746
   20MOL0     H 2698   7.204   5.495   5.611 -0.0578  1.3250  0.0920
   20MOL0     H 2699   7.128   5.276   5.499 -0.1885  0.0890 -1.3854
   20MOL0     H 2700   7.303   5.243   5.469 -2.0055 -2.7929  0.2587
   20MOL0     H 2701   7.349   5.260   5.712 -1.2133 -0.5258  3.9318
   20MOL0     H 2702   7.243   5.135   5.681  0.4750 -1.4233 -2.5119
   20MOL0     H 2703   7.178   5.405   5.796 -0.0012 -0.8290 -0.6110
   20MOL0     H 2704   7.050   5.309   5.723 -1.2862  1.6447  1.8272
   20MOL0     H 2705   7.119   5.295   5.974 -0.8348 -1.9013  0.9975
   20MOL0     H 2706   7.245   5.188   5.926  0.0015 -0.7538  0.7170
   20MOL0     H 2707   6.969   5.141   5.838  2.0257 -0.3785 -2.0023
   20MOL0     H 2708   7.106   5.038   5.821 -1.6012 -0.2069  0.1479
   20MOL0     H 2709   7.217   4.930   6.063  0.3377  4.4057 -2.9453
   20MOL0     H 2710   7.081   4.707   6.243  4.6727  2.0613  0.7761
   20MOL0     H 2711   6.935   4.781   6.326  0.6419  0.2063  1.5984
   20MOL0     H 2712   7.074   4.934   6.455 -0.8735 -0.8241 -1.1428
   20MOL0     H 2713   7.116   4.763   6.483  3.7596 -0.5886  0.1398
   20MOL0     H 2714   7.315   4.771   6.376 -0.5812 -0.3760 -3.0260
   20MOL0     H 2715   7.280   4.911   6.281  3.2992 -1.6134  0.9241
   20MOL0     H 2716   7.429   4.988   6.423  0.6345 -0.0439  1.6198
   20MOL0     H 2717   7.280   5.066   6.465 -1.0037 -0.5829 -0.9077
   20MOL0     H 2718   7.337   4.832   6.845  0.1957  1.5783  3.2140
   20MOL0     H 2719   7.422   4.762   7.049  1.1091 -1.1774  0.9906
   20MOL0     H 2720   7.544   4.861   7.118  3.2120 -0.5971 -0.7233
   20MOL0     H 2721   7.591   4.737   7.008  0.0753  0.4762 -2.0914
   20MOL0     H 2722   7.945   5.112   7.132 -0.4657 -0.2628 -0.5420
   20MOL0     H 2723   8.152   5.100   7.279  0.5533 -0.6182  2.8909
   20MOL0     H 2724   8.178   4.719   7.555  0.4114  2.5606  2.7044
   20MOL0     H 2725   8.269   4.698   7.402 -1.6229  1.2382 -1.6547
   20MOL0     H 2726   8.367   4.854   7.648  3.9942 -0.6490  2.3424
   20MOL0     H 2727   8.388   4.675   7.622 -0.3978  0.2739  1.9172
   20MOL0     H 2728   8.526   4.869   7.432 -0.6940 -0.3378  1.0870
   20MOL0     H 2729   8.542   4.694   7.442  1.3620 -0.9050  0.6115
   20MOL0     H 2730   8.634   4.722   7.666  2.2141 -2.0919 -2.6548
   20MOL0     H 2731   8.594   4.897   7.673  1.1586  0.8212 -0.3680
   20MOL0     H 2732   8.785   4.749   7.483 -1.3946 -0.1113 -0.3257
   20MOL0     H 2733   8.760   4.922   7.472  0.8978  0.1107 -0.3785
   20MOL0     H 2734   8.961   4.854   7.597  0.3733  0.3182 -1.7683
   20MOL0     H 2735   8.856   4.795   7.730  1.4941 -2.0654 -2.4340
   20MOL0     H 2736   8.754   5.050   7.713 -0.1365  0.8099  2.8416
   20MOL0     H 2737   8.908   5.089   7.631  0.4331 -0.9047 -0.6088
   20MOL0     H 2738   8.896   4.960   7.909 -0.3516  0.6152  0.8235
   20MOL0     H 2739   8.892   5.131   7.872 -1.1158 -0.1056 -0.1691
   20MOL0     H 2740   8.029   4.700   7.383 -0.0025  1.1120  1.3437
   20MOL0     H 2741   7.845   4.726   7.240  1.5163 -1.7315  2.8060
   20MOL0     H 2742   7.738   5.081   6.708  1.4601 -1.3033 -0.4800
   20MOL0     H 2743   7.542   5.076   6.562  0.1407  0.3759 -0.6231
   20MOL0     H 2744   6.772   5.536   5.387 -0.3522  0.3010 -0.3991
   20MOL0     H 2745   6.567   5.666   5.383 -0.2469  1.2844 -1.8551
   20MOL0     H 2746   6.389   5.750   5.345  0.4075  1.9308  1.8224
   20MOL0     H 2747   6.182   5.704   5.253  0.9937 -0.6812  2.1139
   20MOL0     H 2748   5.845   5.998   5.247 -0.4798 -2.0198  0.2879
   20MOL0     H 2749   5.928   6.068   5.104 -2.1236  1.9592  1.9037
   20MOL0     H 2750   5.692   5.962   5.071 -0.6973 -1.7088 -0.4015
   20MOL0     H 2751   5.768   5.795   5.106  0.2766 -0.4567  1.6096
   20MOL0     H 2752   5.740   5.843   4.870  0.5893 -2.3704  0.4525
   20MOL0     H 2753   5.843   5.987   4.888  1.6429  0.1266  1.6977
   20MOL0     H 2754   5.960   5.715   4.930 -0.6318 -0.2499 -0.8179
   20MOL0     H 2755   6.045   5.866   4.952 -1.3647  1.7100  1.6540
   20MOL0     H 2756   6.032   5.723   4.541 -0.0449  2.8041 -1.8940
   20MOL0     H 2757   6.086   6.132   5.255  0.9906  0.5475  2.6661
   20MOL0     H 2758   6.219   6.269   5.388  0.5029  1.2245  3.6187
   20MOL0     H 2759   6.344   6.193   5.496  1.3999 -0.1488 -0.2495
   20MOL0     H 2760   6.392   6.250   5.338  1.2565 -1.7568  1.1628
   21MOL0     O 2761   8.587  10.059   0.872 -0.0929 -0.6786 -0.1151
   21MOL0     C 2762   8.566  10.031   0.755 -0.3186  0.5086 -0.7448
   21MOL0     O 2763   8.643   9.946   0.687  0.3107  0.0977  0.4033
   21MOL0     C 2764   8.740   9.866   0.741 -0.4268 -0.0678  0.5270
   21MOL0     C 2765   8.752   9.742   0.678 -0.4407 -0.0060  0.7696
   21MOL0     C 2766   8.835   9.643   0.724 -0.3273 -0.7533  0.2562
   21MOL0     C 2767   8.926   9.666   0.830  0.8319  0.5291 -0.3412
   21MOL0     O 2768   9.004   9.562   0.866 -0.0339  0.0577 -1.1440
   21MOL0     C 2769   9.093   9.592   0.977  1.4119  0.7000  0.7698
   21MOL0     C 2770   9.210   9.500   0.964 -0.8265 -0.6218  0.1887
   21MOL0     C 2771   9.302   9.509   1.085  0.2281  0.2818 -1.4886
   21MOL0     C 2772   9.406   9.395   1.062 -0.0644  0.2454  0.6759
   21MOL0     C 2773   9.516   9.401   1.169  0.0112 -0.5796 -0.4748
   21MOL0     C 2774   9.613   9.291   1.154  0.3080  0.5156  0.8252
   21MOL0     C 2775   9.699   9.270   1.029  1.1587  0.3229  0.1085
   21MOL0     C 2776   9.790   9.389   1.016 -0.1545  0.2666  0.4027
   21MOL0     N 2777   9.894   9.375   0.914  0.5503 -0.2551 -0.2979
   21MOL0     C 2778   9.863   9.402   0.783  0.4059 -1.2170 -0.1484
   21MOL0     C 2779   9.988   9.405   0.722  0.4082 -0.1049 -0.0695
   21MOL0     C 2780  10.004   9.433   0.578 -0.1618 -0.1405  0.1536
   21MOL0     C 2781  10.133   9.378   0.516 -0.9845 -0.1702  0.1697
   21MOL0     C 2782  10.144   9.425   0.364  0.8518  0.2120  0.1819
   21MOL0     C 2783  10.291   9.433   0.322  0.9494 -0.0149 -0.2754
   21MOL0     O 2784  10.346   9.303   0.305 -0.6282  0.0479  0.5622
   21MOL0     C 2785  10.464   9.311   0.234  0.0918  0.2790  0.5133
   21MOL0     C 2786  10.588   9.339   0.298 -0.1242  0.1932  0.3984
   21MOL0     C 2787  10.707   9.330   0.220  0.7585  0.4864 -0.3034
   21MOL0     C 2788  10.837   9.351   0.299  0.3992  0.2182  0.0633
   21MOL0     C 2789  10.707   9.307   0.085  0.7244  0.7984  0.2860
   21MOL0     C 2790  10.828   9.274  -0.010  1.2273 -0.6717  0.0664
   21MOL0     O 2791  10.832   9.309  -0.145 -0.2229 -0.9290  0.2232
   21MOL0     C 2792  10.936   9.261  -0.230  0.4901  0.5189 -0.5994
   21MOL0     C 2793  11.026   9.348  -0.286  0.4635  0.1362 -0.7224
   21MOL0     C 2794  11.128   9.293  -0.368  0.5304 -0.4063 -0.1617
   21MOL0     C 2795  11.141   9.154  -0.397 -1.0372 -0.9122  0.2406
   21MOL0     O 2796  11.242   9.132  -0.487 -0.6752 -0.1598 -0.5575
   21MOL0     C 2797  11.274   8.994  -0.515  0.1513 -0.7958  0.6327
   21MOL0     C 2798  11.337   8.922  -0.394 -0.2121 -0.2139 -0.0630
   21MOL0     C 2799  11.467   8.995  -0.370  0.2802  0.5393  0.0505
   21MOL0     C 2800  11.523   8.983  -0.221  0.8261  0.5854 -0.7021
   21MOL0     C 2801  11.658   9.053  -0.206 -0.3426 -0.3854  0.1685
   21MOL0     C 2802  11.727   8.993  -0.082 -0.0384 -0.1354 -0.0617
   21MOL0     C 2803  11.861   9.055  -0.041  0.7864  0.1319  0.8895
   21MOL0     C 2804  11.915   9.011   0.106  0.2277  0.2605 -0.5337
   21MOL0    Cl 2805  12.015   9.140   0.176 -0.3804 -0.0342  0.3581
   21MOL0     C 2806  11.033   9.075  -0.352 -0.0153  0.9589  0.5713
   21MOL0     C 2807  10.933   9.124  -0.267 -0.0112 -0.4577  0.0405
   21MOL0     O 2808  10.922   9.216   0.043 -0.0508 -0.5600  0.1411
   21MOL0     C 2809  10.583   9.292   0.026 -0.4885 -0.7036 -0.5076
   21MOL0     C 2810  10.463   9.289   0.100 -0.3868 -0.0846  0.2150
   21MOL0     N 2811  10.085   9.387   0.821 -0.4216 -0.5186  0.3032
   21MOL0     N 2812  10.022   9.367   0.932 -0.3795 -0.3755 -0.6595
   21MOL0     C 2813   8.908   9.791   0.895 -0.1075  0.0960 -0.1986
   21MOL0     C 2814   8.822   9.891   0.845 -0.3155  0.6727  0.4683
   21MOL0     C 2815   8.448  10.074   0.685 -0.1733  0.6771  0.1261
   21MOL0     C 2816   8.379   9.961   0.627  1.1449  0.2344 -0.7672
   21MOL0     C 2817   8.258   9.988   0.564  0.3681 -0.4758 -0.5660
   21MOL0     C 2818   8.191  10.112   0.578  0.7383 -0.1847 -0.0720
   21MOL0     O 2819   8.063  10.110   0.528  0.2769  0.2661  0.5076
   21MOL0     C 2820   8.004  10.238   0.532 -0.0615  0.6207 -0.3197
   21MOL0     C 2821   7.866  10.248   0.476  0.4321 -0.3746 -0.6901
   21MOL0     C 2822   7.847  10.216   0.323 -0.2205  0.7479  0.2936
   21MOL0     C 2823   7.951  10.291   0.238 -0.1374  0.1460  0.0745
   21MOL0     C 2824   7.942  10.441   0.249 -1.0146  0.2263  0.1381
   21MOL0     C 2825   7.908  10.557   0.273  0.6648 -0.5413 -0.4726
   21MOL0     C 2826   8.255  10.213   0.651  0.2865  0.2717 -1.4723
   21MOL0     C 2827   8.387  10.203   0.695  0.7590 -0.6552  0.7084
   21MOL0     C 2828   8.460  10.321   0.753 -0.0741 -0.1181 -0.3975
   21MOL0     H 2829   8.684   9.735   0.594 -3.0976  4.0244  2.2753
   21MOL0     H 2830   8.823   9.556   0.661 -1.2802 -0.0846 -0.5147
   21MOL0     H 2831   9.038   9.567   1.068 -3.5524  0.2955 -1.9779
   21MOL0     H 2832   9.132   9.694   0.979  0.6496  1.0971 -1.5254
   21MOL0     H 2833   9.179   9.395   0.952 -2.6844  0.0704 -1.5853
   21MOL0     H 2834   9.266   9.530   0.875  0.5720  0.2093  1.2969
   21MOL0     H 2835   9.359   9.601   1.095  0.5613 -0.1795  1.9319
   21MOL0     H 2836   9.246   9.482   1.176  0.3960  0.0935 -1.4415
   21MOL0     H 2837   9.363   9.294   1.062 -0.1578  0.2784  1.8320
   21MOL0     H 2838   9.444   9.409   0.960 -1.5866  0.5191  0.1165
   21MOL0     H 2839   9.487   9.407   1.274  2.5133 -2.3889  0.4135
   21MOL0     H 2840   9.567   9.493   1.141  1.8114 -1.1397  0.7647
   21MOL0     H 2841   9.681   9.313   1.237  0.2508  1.2581  0.6869
   21MOL0     H 2842   9.558   9.200   1.177 -0.8480  0.5980 -1.3647
   21MOL0     H 2843   9.643   9.244   0.939  1.5794 -2.3511  0.5302
   21MOL0     H 2844   9.767   9.186   1.046  0.1172 -1.5804 -3.8477
   21MOL0     H 2845   9.718   9.471   1.006 -1.6949 -0.8264  1.9651
   21MOL0     H 2846   9.853   9.406   1.103 -0.4180 -0.5536  0.7642
   21MOL0     H 2847   9.768   9.428   0.737 -0.0331 -0.3044  1.1997
   21MOL0     H 2848   9.976   9.538   0.568  2.8645  0.7097 -0.1834
   21MOL0     H 2849   9.924   9.375   0.530  0.4205 -1.4712  0.7401
   21MOL0     H 2850  10.217   9.403   0.582 -2.8679  1.4068  2.1349
   21MOL0     H 2851  10.123   9.269   0.511 -0.8628 -0.3427  2.3982
   21MOL0     H 2852  10.093   9.348   0.306  0.4590  2.4570 -2.6253
   21MOL0     H 2853  10.086   9.516   0.348 -0.3548 -0.4881  0.4761
   21MOL0     H 2854  10.287   9.475   0.221  0.6315 -1.6870 -1.0037
   21MOL0     H 2855  10.349   9.496   0.389  1.6913  2.2295 -2.8189
   21MOL0     H 2856  10.583   9.340   0.406 -4.0849  0.8804  0.3392
   21MOL0     H 2857  10.876   9.437   0.243  0.6287 -0.1759 -0.3855
   21MOL0     H 2858  10.910   9.271   0.313 -1.0373 -0.9393  1.2463
   21MOL0     H 2859  10.818   9.380   0.402 -2.0856 -3.8618  0.9443
   21MOL0     H 2860  11.013   9.449  -0.247 -1.3767 -1.7017  4.3239
   21MOL0     H 2861  11.202   9.361  -0.408 -0.2245 -0.6560 -2.1082
   21MOL0     H 2862  11.184   8.937  -0.542 -0.1093 -0.0459 -0.1057
   21MOL0     H 2863  11.342   8.990  -0.600  1.8519  0.4602  1.8668
   21MOL0     H 2864  11.259   8.923  -0.317 -0.1596 -1.1937  0.0206
   21MOL0     H 2865  11.348   8.817  -0.423  2.1438 -0.3175  0.9625
   21MOL0     H 2866  11.466   9.102  -0.389 -0.6733  0.4460 -0.4661
   21MOL0     H 2867  11.538   8.948  -0.440 -0.2180 -0.8280  0.4206
   21MOL0     H 2868  11.541   8.876  -0.201  1.0897  0.5245 -1.2566
   21MOL0     H 2869  11.452   9.021  -0.147  0.4369  0.2458 -0.8997
   21MOL0     H 2870  11.717   9.029  -0.296 -0.7816 -0.3111 -0.1428
   21MOL0     H 2871  11.651   9.162  -0.199 -0.5383 -0.4587  1.3007
   21MOL0     H 2872  11.749   8.887  -0.098  0.2760 -0.0601 -0.1261
   21MOL0     H 2873  11.658   9.001   0.003  1.5154 -2.6716  1.5707
   21MOL0     H 2874  11.856   9.164  -0.049  1.9066  0.1299 -0.4336
   21MOL0     H 2875  11.930   9.025  -0.121  0.5365  1.3616  0.1862
   21MOL0     H 2876  11.988   8.929   0.102  0.0241  0.0221  0.3874
   21MOL0     H 2877  11.838   8.980   0.177  1.0447 -2.7509 -0.7898
   21MOL0     H 2878  11.027   8.973  -0.389  2.0866  0.6741  0.9303
   21MOL0     H 2879  10.854   9.061  -0.228  1.4380 -2.2272  0.2242
   21MOL0     H 2880  10.582   9.269  -0.080  4.0194  0.7571 -1.0731
   21MOL0     H 2881  10.371   9.277   0.044 -0.5402 -0.6697  0.5906
   21MOL0     H 2882   8.948   9.812   0.993  0.7126 -0.1801 -0.4677
   21MOL0     H 2883   8.812   9.987   0.893 -1.6414 -0.6811  3.1170
   21MOL0     H 2884   8.412   9.859   0.612  0.6555 -0.0801  0.2123
   21MOL0     H 2885   8.200   9.910   0.515 -0.0417  0.6442 -1.9411
   21MOL0     H 2886   7.994  10.255   0.640  1.7836 -3.3082  0.6391
   21MOL0     H 2887   8.077  10.306   0.488  0.5210 -0.2529 -0.7181
   21MOL0     H 2888   7.820  10.346   0.492  1.0458  0.0559 -1.4970
   21MOL0     H 2889   7.813  10.175   0.539  1.0797 -0.6875 -0.4881
   21MOL0     H 2890   7.848  10.108   0.305 -1.8325  0.5094  1.3904
   21MOL0     H 2891   7.748  10.250   0.292 -1.0618 -2.1261 -0.4350
   21MOL0     H 2892   7.955  10.264   0.132  0.1974  1.9956 -0.4164
   21MOL0     H 2893   8.048  10.256   0.275  2.0311  1.7971 -3.5346
   21MOL0     H 2894   7.877  10.657   0.295  2.0477  0.7184 -3.5290
   21MOL0     H 2895   8.201  10.302   0.684  1.6735  1.3890 -2.1194
   21MOL0     H 2896   8.554  10.343   0.702 -0.4600 -0.4918 -1.2879
   21MOL0     H 2897   8.392  10.406   0.742  0.2919  0.1420 -0.6619
   21MOL0     H 2898   8.459  10.300   0.860 -1.4644  1.6259 -0.0010
   22MOL0     O 2899  10.697   6.738   0.885 -0.1414  0.0266  0.7055
   22MOL0     C 2900  10.765   6.746   0.986  0.4935  0.5780  0.0946
   22MOL0     O 2901  10.736   6.686   1.108  0.2272 -0.9379  0.6814
   22MOL0     C 2902  10.612   6.630   1.104 -0.3365 -0.9404 -0.5340
   22MOL0     C 2903  10.591   6.498   1.057 -0.7202  0.5810  0.8245
   22MOL0     C 2904  10.476   6.432   1.078 -0.7435 -0.6828  0.8215
   22MOL0     C 2905  10.372   6.489   1.156  0.6043  0.1578 -0.0568
   22MOL0     O 2906  10.255   6.415   1.168 -0.2580  0.2507  0.2048
   22MOL0     C 2907  10.137   6.486   1.188  0.3670 -0.2040 -0.9641
   22MOL0     C 2908  10.017   6.397   1.172 -0.1307  0.5159  0.5147
   22MOL0     C 2909   9.893   6.476   1.149  0.4444  0.1803  0.2018
   22MOL0     C 2910   9.825   6.519   1.287  0.2689 -0.1025  0.1004
   22MOL0     C 2911   9.698   6.598   1.262 -0.4248  0.1446  0.0808
   22MOL0     C 2912   9.732   6.732   1.206  0.6288  0.1524  0.2150
   22MOL0     C 2913   9.749   6.846   1.310 -0.1538 -0.0108 -0.2536
   22MOL0     C 2914   9.901   6.861   1.346  0.4422 -0.0974  0.3915
   22MOL0     N 2915   9.986   6.893   1.228  0.2618 -1.0757  0.4910
   22MOL0     C 2916   9.970   6.995   1.134 -0.0295  0.5925  0.3863
   22MOL0     C 2917  10.081   6.987   1.051 -1.1422 -0.0296 -0.8472
   22MOL0     C 2918  10.111   7.073   0.932 -0.1855  0.2083 -0.0250
   22MOL0     C 2919  10.265   7.078   0.904 -0.5030 -0.4297  0.5323
   22MOL0     C 2920  10.321   7.188   1.002  0.0231 -0.4994  0.5400
   22MOL0     C 2921  10.471   7.211   0.982 -0.0975 -0.6656 -0.3355
   22MOL0     O 2922  10.516   7.331   1.051 -0.1427 -0.2104  0.2740
   22MOL0     C 2923  10.648   7.363   1.044  0.0856  0.1037  0.2511
   22MOL0     C 2924  10.692   7.495   1.082  0.0575 -0.4433  0.7473
   22MOL0     C 2925  10.830   7.536   1.073 -0.2735  0.8184 -0.1578
   22MOL0     C 2926  10.864   7.682   1.086  0.2725 -0.0191  0.3390
   22MOL0     C 2927  10.928   7.438   1.033 -0.4304 -0.0495  0.3682
   22MOL0     C 2928  11.075   7.465   1.004  0.1813  0.6016 -0.2815
   22MOL0     O 2929  11.153   7.356   0.976 -0.1719 -0.2400  0.2107
   22MOL0     C 2930  11.289   7.362   0.960  0.0780 -0.8245  0.4682
   22MOL0     C 2931  11.352   7.284   0.857 -0.1707  0.4672 -0.4314
   22MOL0     C 2932  11.494   7.291   0.844  0.5454 -0.6888 -0.6685
   22MOL0     C 2933  11.567   7.371   0.934 -0.0604 -0.0780  0.2787
   22MOL0     O 2934  11.703   7.395   0.923 -0.1338 -0.0590 -0.6327
   22MOL0     C 2935  11.783   7.345   0.816  0.1680 -0.7049  1.1016
   22MOL0     C 2936  11.918   7.428   0.819 -0.6917  0.3663 -0.6140
   22MOL0     C 2937  12.026   7.361   0.923  0.6003 -0.5555  0.9201
   22MOL0     C 2938  12.170   7.417   0.914  0.1854 -0.1799  0.4105
   22MOL0     C 2939  12.285   7.351   0.994  0.5870 -0.0438 -0.1493
   22MOL0     C 2940  12.249   7.356   1.141  0.1273 -0.0856  0.0850
   22MOL0     C 2941  12.371   7.326   1.227  0.2606 -0.4885 -0.6765
   22MOL0     C 2942  12.348   7.374   1.373 -0.9255  0.6933  0.3060
   22MOL0    Cl 2943  12.247   7.266   1.456  0.1687  0.3904  0.0248
   22MOL0     C 2944  11.504   7.421   1.041 -0.4300  0.1602  0.3523
   22MOL0     C 2945  11.366   7.429   1.055 -0.0133  0.3493  0.3330
   22MOL0     O 2946  11.102   7.583   0.980  0.0360  0.0233  0.8817
   22MOL0     C 2947  10.885   7.300   1.002  0.6583 -0.3931 -0.2581
   22MOL0     C 2948  10.746   7.270   1.003 -0.3009  0.0655 -0.1426
   22MOL0     N 2949  10.150   6.871   1.090  0.5461 -0.0305  0.9179
   22MOL0     N 2950  10.091   6.822   1.198 -0.8568 -0.6841  0.5690
   22MOL0     C 2951  10.388   6.611   1.210 -0.4488 -0.0567 -0.8715
   22MOL0     C 2952  10.511   6.675   1.192 -0.1712  0.2003  0.3340
   22MOL0     C 2953  10.900   6.819   0.975  0.1059  0.5677 -0.6564
   22MOL0     C 2954  10.997   6.787   1.079  0.1282 -0.0853  0.1254
   22MOL0     C 2955  11.116   6.858   1.080 -0.5302 -0.2128  0.2863
   22MOL0     C 2956  11.147   6.959   0.989 -0.5565  0.1561  0.4269
   22MOL0     O 2957  11.265   7.035   0.977 -0.0127  0.4800  0.3705
   22MOL0     C 2958  11.386   7.029   1.061 -0.0712 -1.0325 -0.2691
   22MOL0     C 2959  11.489   6.916   1.021 -0.0226  0.0883 -0.2898
   22MOL0     C 2960  11.619   6.960   1.087 -0.8783 -0.0293  0.2823
   22MOL0     C 2961  11.732   6.861   1.033  0.1959 -1.8901 -0.4750
   22MOL0     C 2962  11.765   6.891   0.898 -0.1412  0.3829 -0.1385
   22MOL0     C 2963  11.812   6.904   0.787 -0.2693 -0.1058 -0.2685
   22MOL0     C 2964  11.060   6.990   0.884  0.4038 -0.4351 -0.0714
   22MOL0     C 2965  10.936   6.918   0.876 -0.3476 -0.1854  1.0748
   22MOL0     C 2966  10.840   6.950   0.768  0.4307  0.4543 -0.2176
   22MOL0     H 2967  10.669   6.454   0.995 -0.7324  0.4034  0.9352
   22MOL0     H 2968  10.457   6.345   1.016  2.3478 -0.1593 -1.0922
   22MOL0     H 2969  10.139   6.568   1.115  2.0913  2.0028  1.3377
   22MOL0     H 2970  10.130   6.532   1.287  0.2207  2.2386 -2.0270
   22MOL0     H 2971  10.029   6.338   1.081 -5.2050 -1.6680  0.9273
   22MOL0     H 2972  10.000   6.331   1.257  0.2451 -0.4899 -0.1690
   22MOL0     H 2973   9.925   6.557   1.082  0.7102 -0.2276 -0.1716
   22MOL0     H 2974   9.815   6.422   1.094  1.5143 -0.2175 -0.9816
   22MOL0     H 2975   9.785   6.428   1.334  0.4811 -0.0107  0.4572
   22MOL0     H 2976   9.890   6.561   1.364 -1.1772 -2.2485  2.7102
   22MOL0     H 2977   9.642   6.606   1.356 -0.5084  1.4350 -0.0562
   22MOL0     H 2978   9.632   6.538   1.199  2.2388 -1.8934 -0.9505
   22MOL0     H 2979   9.817   6.734   1.137  0.1553  1.0741 -0.3517
   22MOL0     H 2980   9.637   6.758   1.159 -0.6247 -2.5771  1.0362
   22MOL0     H 2981   9.703   6.819   1.406  0.9714  1.7261  0.8437
   22MOL0     H 2982   9.706   6.934   1.262 -2.4424 -0.9646 -0.0827
   22MOL0     H 2983   9.907   6.936   1.426 -2.0942 -0.3351  0.8937
   22MOL0     H 2984   9.934   6.767   1.390  2.9727 -0.0859 -1.2951
   22MOL0     H 2985   9.887   7.063   1.121 -0.9114 -0.9568 -3.2792
   22MOL0     H 2986  10.064   7.171   0.928 -0.5444  0.0483  0.2110
   22MOL0     H 2987  10.064   7.018   0.850  0.0803  0.3279 -0.2575
   22MOL0     H 2988  10.311   6.980   0.924 -0.9546 -1.1061 -1.5269
   22MOL0     H 2989  10.284   7.114   0.803  4.9825 -1.8293  0.7616
   22MOL0     H 2990  10.268   7.283   0.991 -0.5996 -0.8750  0.2860
   22MOL0     H 2991  10.307   7.161   1.107 -1.6867  0.7553  0.6682
   22MOL0     H 2992  10.518   7.125   1.030  0.4752 -0.6854 -0.9026
   22MOL0     H 2993  10.490   7.227   0.875  0.9892  2.1740  0.1772
   22MOL0     H 2994  10.622   7.571   1.116  1.7006  0.9448  1.1251
   22MOL0     H 2995  10.791   7.751   1.127 -0.1935 -0.3504  0.0820
   22MOL0     H 2996  10.885   7.713   0.983 -0.0544 -0.9361 -0.0156
   22MOL0     H 2997  10.946   7.688   1.158 -0.3351 -3.7893  1.6039
   22MOL0     H 2998  11.290   7.228   0.788 -0.4041  0.2062 -0.0165
   22MOL0     H 2999  11.550   7.257   0.757  1.7879  2.8595 -1.4076
   22MOL0     H 3000  11.797   7.239   0.837  1.9734 -0.7852 -0.2263
   22MOL0     H 3001  11.730   7.362   0.722  2.6298  2.7247  0.1081
   22MOL0     H 3002  11.961   7.430   0.718  3.2063 -1.0191  0.7953
   22MOL0     H 3003  11.897   7.524   0.867  2.0723  0.5224  0.4888
   22MOL0     H 3004  12.039   7.256   0.895 -0.6649 -1.0183  1.9491
   22MOL0     H 3005  11.998   7.368   1.029  0.2426  0.8348  0.7569
   22MOL0     H 3006  12.155   7.523   0.937 -0.5578  0.0860 -1.1922
   22MOL0     H 3007  12.199   7.401   0.810  0.7378  0.0839  0.5214
   22MOL0     H 3008  12.296   7.248   0.959  1.1173  0.1823 -0.6657
   22MOL0     H 3009  12.381   7.403   0.983  0.6240 -0.1125 -0.1511
   22MOL0     H 3010  12.176   7.280   1.170 -0.0481  0.4319  1.0053
   22MOL0     H 3011  12.211   7.457   1.156  3.8068  1.6216 -0.8708
   22MOL0     H 3012  12.454   7.390   1.196 -0.1706  1.3130  1.6291
   22MOL0     H 3013  12.406   7.223   1.217  1.7785 -0.0162 -0.4304
   22MOL0     H 3014  12.303   7.474   1.377  0.0371  1.1246  0.7954
   22MOL0     H 3015  12.444   7.388   1.424 -1.4044  0.6339  1.2582
   22MOL0     H 3016  11.566   7.457   1.122  1.2674 -2.2018  0.1909
   22MOL0     H 3017  11.320   7.485   1.136 -0.5555  1.5311 -0.7624
   22MOL0     H 3018  10.964   7.227   0.991 -1.6213 -3.0899  0.1543
   22MOL0     H 3019  10.725   7.164   0.995  1.1971 -0.1281 -3.1366
   22MOL0     H 3020  10.321   6.664   1.278 -0.3315 -1.9995  0.8704
   22MOL0     H 3021  10.544   6.769   1.234  2.1541  0.7958 -2.4799
   22MOL0     H 3022  10.982   6.715   1.159 -0.4279 -0.4835 -0.3229
   22MOL0     H 3023  11.182   6.834   1.163 -0.0318 -0.4018 -0.1639
   22MOL0     H 3024  11.421   7.132   1.066 -1.5452 -0.5455  1.4254
   22MOL0     H 3025  11.347   7.021   1.163  2.6131  3.0127  1.3059
   22MOL0     H 3026  11.504   6.911   0.913 -1.7911  0.4643 -0.5845
   22MOL0     H 3027  11.458   6.818   1.058  1.6219 -0.6260 -0.7241
   22MOL0     H 3028  11.644   7.064   1.066  0.5923 -0.6347 -1.2632
   22MOL0     H 3029  11.608   6.954   1.196 -1.9697  0.5229  0.2145
   22MOL0     H 3030  11.708   6.755   1.046  1.8566 -2.1384  0.9900
   22MOL0     H 3031  11.823   6.889   1.088 -0.7166  1.0293 -0.2817
   22MOL0     H 3032  11.860   6.904   0.691  0.6085 -0.6376  0.1632
   22MOL0     H 3033  11.095   7.066   0.815  1.0609 -0.7952 -0.1382
   22MOL0     H 3034  10.736   6.976   0.789 -0.4683 -1.2007 -2.2329
   22MOL0     H 3035  10.869   7.030   0.699 -1.3186 -0.1346 -1.7250
   22MOL0     H 3036  10.837   6.858   0.708  1.7001  0.2336  0.0389
   23MOL0     O 3037   5.638   9.742  11.193 -0.3258  0.8394  0.3590
   23MOL0     C 3038   5.693   9.738  11.306  0.6738 -0.2338  0.6925
   23MOL0     O 3039   5.629   9.771  11.427 -0.2233  0.6515 -0.2223
   23MOL0     C 3040   5.511   9.837  11.415  0.6353 -0.2870  0.1507
   23MOL0     C 3041   5.488   9.967  11.356  0.0659 -0.1897  0.1465
   23MOL0     C 3042   5.361  10.025  11.342  0.9957  0.5194  0.4947
   23MOL0     C 3043   5.248   9.946  11.377 -0.0997  0.2147  0.2479
   23MOL0     O 3044   5.112   9.976  11.363 -0.4929  0.0009 -0.2930
   23MOL0     C 3045   5.088  10.104  11.316 -0.2647  0.2762  0.7839
   23MOL0     C 3046   4.935  10.125  11.319 -0.2501 -0.3388  0.9291
   23MOL0     C 3047   4.871  10.156  11.457 -2.0139 -0.0969  0.1581
   23MOL0     C 3048   4.900  10.297  11.505  0.1649 -0.5300  0.1575
   23MOL0     C 3049   4.826  10.335  11.640  0.3684  0.6100  0.0183
   23MOL0     C 3050   4.842  10.486  11.666 -0.3230  0.6766  0.5955
   23MOL0     C 3051   4.988  10.531  11.666  0.7449 -0.1099  1.5027
   23MOL0     C 3052   5.010  10.684  11.676  0.2891  0.4379  0.0811
   23MOL0     N 3053   5.146  10.720  11.661  0.1074  0.2593 -0.6664
   23MOL0     C 3054   5.207  10.759  11.546  0.0735  0.7310 -0.6657
   23MOL0     C 3055   5.343  10.759  11.572  0.5011 -0.0659 -0.2074
   23MOL0     C 3056   5.443  10.801  11.476  0.1486 -0.6801  0.6003
   23MOL0     C 3057   5.576  10.708  11.495 -0.8067 -0.0199 -0.1087
   23MOL0     C 3058   5.618  10.682  11.347  0.0836 -1.0009 -0.0014
   23MOL0     C 3059   5.769  10.649  11.323  0.7466  0.4333  0.3189
   23MOL0     O 3060   5.867  10.754  11.333  0.2178  0.3414  0.1604
   23MOL0     C 3061   6.001  10.725  11.301  0.2385  0.4862 -0.6211
   23MOL0     C 3062   6.053  10.597  11.320 -0.3949 -0.2897 -0.0233
   23MOL0     C 3063   6.192  10.583  11.297 -0.4251  0.4462  0.6980
   23MOL0     C 3064   6.256  10.443  11.306 -0.8391 -0.2449 -0.5812
   23MOL0     C 3065   6.276  10.701  11.267 -0.0995  0.5446 -0.5130
   23MOL0     C 3066   6.425  10.688  11.251 -0.8446 -0.2196 -0.1800
   23MOL0     O 3067   6.459  10.618  11.141 -0.0202 -0.4748  0.1549
   23MOL0     C 3068   6.592  10.607  11.111 -0.5650  0.4561 -0.6194
   23MOL0     C 3069   6.652  10.478  11.102  0.6351  0.5576  0.2616
   23MOL0     C 3070   6.790  10.462  11.080  0.7393 -0.3370  0.3138
   23MOL0     C 3071   6.874  10.572  11.072 -0.5695  0.0679 -0.5306
   23MOL0     O 3072   7.006  10.536  11.044 -0.0755 -0.1019 -0.2804
   23MOL0     C 3073   7.090  10.643  10.992 -0.3626  0.3601  0.2685
   23MOL0     C 3074   7.221  10.596  10.933 -0.3405  0.0018  0.1773
   23MOL0     C 3075   7.295  10.711  10.870  0.6054 -0.6390 -0.2152
   23MOL0     C 3076   7.434  10.662  10.842 -0.4182 -0.1039 -0.1929
   23MOL0     C 3077   7.517  10.765  10.772 -0.0901 -0.4879 -0.2958
   23MOL0     C 3078   7.660  10.731  10.800 -1.3792 -1.0202 -0.0675
   23MOL0     C 3079   7.762  10.809  10.719  0.5940 -0.4447  0.1031
   23MOL0     C 3080   7.909  10.803  10.761 -0.0964 -0.3921 -0.8817
   23MOL0    Cl 3081   8.016  10.933  10.692 -0.1480 -0.2406  0.2512
   23MOL0     C 3082   6.830  10.701  11.084  0.4227  0.1231  0.8022
   23MOL0     C 3083   6.687  10.712  11.098 -0.5690 -0.9743 -0.4804
   23MOL0     O 3084   6.497  10.728  11.344  0.0803 -0.6627 -0.1127
   23MOL0     C 3085   6.219  10.828  11.249  0.9335  0.3212 -0.8253
   23MOL0     C 3086   6.078  10.836  11.269 -0.0010  0.6109 -0.1452
   23MOL0     N 3087   5.366  10.723  11.708  0.2271 -0.1198  0.2941
   23MOL0     N 3088   5.245  10.684  11.747 -0.7348 -0.2130 -0.0753
   23MOL0     C 3089   5.271   9.816  11.424  0.0645  0.4287 -1.5957
   23MOL0     C 3090   5.398   9.761  11.443 -0.0262 -0.3860 -0.2277
   23MOL0     C 3091   5.838   9.704  11.307 -0.0048  0.8937 -0.7163
   23MOL0     C 3092   5.906   9.737  11.425  0.6723  0.2835  0.1964
   23MOL0     C 3093   6.038   9.692  11.452 -0.9730  0.1456  0.0775
   23MOL0     C 3094   6.106   9.605  11.368 -0.0491  0.4500  0.6082
   23MOL0     O 3095   6.230   9.564  11.399 -0.9716  0.1719 -0.0081
   23MOL0     C 3096   6.305   9.483  11.308  0.0411  0.2418  0.4709
   23MOL0     C 3097   6.451   9.512  11.338  0.2658  0.1090  0.6556
   23MOL0     C 3098   6.499   9.466  11.475  0.3012  0.3033  0.6936
   23MOL0     C 3099   6.646   9.497  11.489 -0.5365  0.0043  0.1576
   23MOL0     C 3100   6.693   9.419  11.612  0.1551  1.0780 -0.4871
   23MOL0     C 3101   6.740   9.349  11.697  0.7520  0.5861 -0.1515
   23MOL0     C 3102   6.045   9.579  11.245 -1.0395 -0.1909  0.3980
   23MOL0     C 3103   5.914   9.618  11.212  0.1810 -0.0644  0.0775
   23MOL0     C 3104   5.863   9.569  11.077  0.3600  0.0924 -0.3702
   23MOL0     H 3105   5.574  10.025  11.323  0.0827 -0.3228 -0.0424
   23MOL0     H 3106   5.358  10.118  11.286 -0.2835  0.0719 -0.2157
   23MOL0     H 3107   5.131  10.106  11.215  1.6639  3.2535  1.5472
   23MOL0     H 3108   5.141  10.179  11.375 -0.3560  0.7119  0.3198
   23MOL0     H 3109   4.909  10.204  11.249  1.2295  0.5721  1.3614
   23MOL0     H 3110   4.886  10.036  11.279  1.0947 -0.3136 -0.8744
   23MOL0     H 3111   4.764  10.136  11.446 -1.7827 -0.1309 -2.7106
   23MOL0     H 3112   4.905  10.078  11.526 -1.4750  0.3618  0.4300
   23MOL0     H 3113   5.007  10.299  11.530 -0.3833  0.3164  2.7793
   23MOL0     H 3114   4.872  10.363  11.422 -6.0440 -1.8690  0.7017
   23MOL0     H 3115   4.848  10.269  11.724 -0.6111  1.3472  0.8832
   23MOL0     H 3116   4.721  10.317  11.613  0.2720 -0.4314  1.0016
   23MOL0     H 3117   4.796  10.527  11.576 -0.0274 -2.9182 -1.4244
   23MOL0     H 3118   4.801  10.512  11.764  1.9900 -3.3211  2.9396
   23MOL0     H 3119   5.045  10.485  11.584  0.7208  0.2004  1.3103
   23MOL0     H 3120   5.038  10.487  11.753  4.1527 -2.0325 -1.1697
   23MOL0     H 3121   4.947  10.740  11.607  0.3786 -1.5726 -1.7243
   23MOL0     H 3122   4.974  10.716  11.774 -2.8630  0.5014 -0.9863
   23MOL0     H 3123   5.170  10.794  11.450 -1.4310  2.4723  0.4833
   23MOL0     H 3124   5.466  10.907  11.490  2.4616 -1.3760  2.7461
   23MOL0     H 3125   5.406  10.782  11.375  4.4933 -3.3995 -0.7694
   23MOL0     H 3126   5.648  10.760  11.560 -0.3470  1.7834 -1.9663
   23MOL0     H 3127   5.553  10.617  11.551 -1.6584 -0.4780 -1.1825
   23MOL0     H 3128   5.552  10.611  11.296 -2.1358  1.7378 -1.1484
   23MOL0     H 3129   5.616  10.776  11.292  1.0405 -0.1628  1.3410
   23MOL0     H 3130   5.791  10.577  11.403  1.2449 -1.8006 -1.7180
   23MOL0     H 3131   5.769  10.601  11.225 -4.7806 -3.3121  1.6670
   23MOL0     H 3132   5.997  10.508  11.346  0.8916 -0.5318  2.1927
   23MOL0     H 3133   6.264  10.403  11.204 -3.6197 -1.5693 -0.3591
   23MOL0     H 3134   6.184  10.382  11.360 -2.1895 -0.1553 -2.1812
   23MOL0     H 3135   6.354  10.440  11.355 -0.6908  1.8286 -0.6508
   23MOL0     H 3136   6.581  10.399  11.124  1.4517 -0.7471 -1.4935
   23MOL0     H 3137   6.823  10.359  11.072 -0.0143 -0.4917 -1.0391
   23MOL0     H 3138   7.030  10.681  10.908  1.0360  0.5813 -0.6658
   23MOL0     H 3139   7.113  10.732  11.051  2.4731 -1.3412  1.9256
   23MOL0     H 3140   7.287  10.554  11.010  1.3670  2.3331  0.1130
   23MOL0     H 3141   7.203  10.527  10.850  0.4522 -0.3499  0.2811
   23MOL0     H 3142   7.292  10.792  10.943  1.8372  0.8468 -1.7348
   23MOL0     H 3143   7.241  10.741  10.779 -2.3790 -1.4456  1.1793
   23MOL0     H 3144   7.442  10.570  10.784 -0.8088 -1.3406  1.6310
   23MOL0     H 3145   7.477  10.631  10.938  0.6342 -1.4436 -1.0572
   23MOL0     H 3146   7.501  10.766  10.664  0.8688 -0.7590 -0.4521
   23MOL0     H 3147   7.500  10.864  10.815  0.2288  0.1392 -1.5803
   23MOL0     H 3148   7.684  10.626  10.784  0.1143 -1.0081  1.7398
   23MOL0     H 3149   7.668  10.765  10.904 -2.7111 -0.9327  0.0274
   23MOL0     H 3150   7.738  10.916  10.723 -0.9219 -0.7583 -0.0570
   23MOL0     H 3151   7.772  10.766  10.619  0.8659 -2.3211  0.9035
   23MOL0     H 3152   7.947  10.704  10.733  0.9199 -0.7981  1.6825
   23MOL0     H 3153   7.929  10.793  10.868 -0.8926 -3.4817 -0.9057
   23MOL0     H 3154   6.891  10.789  11.067  0.3334  0.2060  0.9066
   23MOL0     H 3155   6.649  10.813  11.104  3.3792  0.7212 -0.7471
   23MOL0     H 3156   6.290  10.903  11.215  1.7487  0.2556  0.6456
   23MOL0     H 3157   6.035  10.932  11.244  0.7563  1.2837  1.0545
   23MOL0     H 3158   5.183   9.758  11.449  0.5861 -0.9277 -2.7716
   23MOL0     H 3159   5.410   9.656  11.470  0.0495 -0.4653 -0.5690
   23MOL0     H 3160   5.858   9.808  11.492 -1.5786  0.6314 -1.6398
   23MOL0     H 3161   6.084   9.737  11.539 -0.5769  0.9205 -0.5259
   23MOL0     H 3162   6.268   9.380  11.306 -2.5920  1.0812  1.5399
   23MOL0     H 3163   6.295   9.520  11.206 -1.2371 -1.1909  0.0432
   23MOL0     H 3164   6.473   9.619  11.332 -0.1168  0.4086  3.2763
   23MOL0     H 3165   6.510   9.457  11.264  1.9611  1.0461  1.2392
   23MOL0     H 3166   6.445   9.522  11.552  1.0947  1.5053  0.3948
   23MOL0     H 3167   6.487   9.357  11.485 -0.4563  0.5123  2.4734
   23MOL0     H 3168   6.646   9.607  11.491 -1.5974  0.0288 -0.6089
   23MOL0     H 3169   6.707   9.459  11.407 -1.0468  2.5339 -1.5067
   23MOL0     H 3170   6.793   9.287  11.767 -1.9284 -1.0588  0.5789
   23MOL0     H 3171   6.094   9.515  11.173 -1.6269  0.6631 -0.7879
   23MOL0     H 3172   5.774   9.615  11.034  0.0801  0.6094  0.7161
   23MOL0     H 3173   5.936   9.571  10.995  1.1934  0.1786  0.3631
   23MOL0     H 3174   5.830   9.467  11.096 -2.2130  0.9253  0.0288
   24MOL0     O 3175   8.381   2.038   0.058 -0.2091  0.2711 -0.0648
   24MOL0     C 3176   8.421   2.132  -0.010  0.2107  0.5009 -0.6405
   24MOL0     O 3177   8.339   2.214  -0.085 -0.8936  0.0125  0.1442
   24MOL0     C 3178   8.213   2.167  -0.123 -0.7306 -0.0764  0.5366
   24MOL0     C 3179   8.121   2.129  -0.025  0.6518  0.0039  0.3085
   24MOL0     C 3180   7.992   2.089  -0.068  0.2936  0.0849  0.4559
   24MOL0     C 3181   7.957   2.090  -0.209 -0.4410 -0.4763  0.1729
   24MOL0     O 3182   7.825   2.048  -0.237 -0.1488  0.3521 -0.2496
   24MOL0     C 3183   7.774   2.097  -0.357  0.2757  0.0489  0.2547
   24MOL0     C 3184   7.626   2.061  -0.374 -0.2307  1.0632 -1.2851
   24MOL0     C 3185   7.566   2.113  -0.497  0.2996 -0.0908 -0.1252
   24MOL0     C 3186   7.412   2.101  -0.493 -0.3385  0.1152 -0.4890
   24MOL0     C 3187   7.362   2.149  -0.627  0.7417  0.0287  0.0581
   24MOL0     C 3188   7.208   2.136  -0.647  0.7753  0.5288  0.2538
   24MOL0     C 3189   7.155   2.217  -0.770  0.3094 -0.1546  0.6895
   24MOL0     C 3190   7.006   2.188  -0.795 -0.1264 -0.0621  0.2952
   24MOL0     N 3191   6.968   2.231  -0.924  0.0150 -0.2918 -0.5529
   24MOL0     C 3192   7.025   2.204  -1.048  0.5520  1.0076  0.4200
   24MOL0     C 3193   6.945   2.266  -1.138  0.2331  0.7253 -0.4523
   24MOL0     C 3194   6.949   2.266  -1.295  0.1522  0.1741 -0.4906
   24MOL0     C 3195   6.986   2.126  -1.339 -0.0648  0.2950  0.1698
   24MOL0     C 3196   6.985   2.123  -1.492 -0.2559  0.4425  0.0730
   24MOL0     C 3197   7.012   1.978  -1.549 -0.3526  0.0300  0.9918
   24MOL0     O 3198   7.119   1.906  -1.489  0.1457  0.2682  1.1165
   24MOL0     C 3199   7.096   1.771  -1.471 -0.9267 -0.0055 -0.6031
   24MOL0     C 3200   6.999   1.688  -1.535 -0.1601 -1.1395  0.4437
   24MOL0     C 3201   6.959   1.563  -1.483 -0.2067 -0.3154  0.4358
   24MOL0     C 3202   6.834   1.493  -1.546  0.0144 -0.3857  0.0339
   24MOL0     C 3203   7.032   1.505  -1.374  0.3007  0.0168 -0.0705
   24MOL0     C 3204   7.020   1.368  -1.333  0.3358  0.3754  0.3045
   24MOL0     O 3205   7.020   1.269  -1.430 -0.3418 -0.4223 -0.1370
   24MOL0     C 3206   6.994   1.141  -1.370 -0.3257 -0.7908 -0.1171
   24MOL0     C 3207   6.873   1.102  -1.321  0.2121  0.3075 -0.8028
   24MOL0     C 3208   6.848   0.979  -1.254  0.2280 -0.3585  0.3732
   24MOL0     C 3209   6.947   0.882  -1.263 -0.8510 -0.3671  0.6486
   24MOL0     O 3210   6.939   0.749  -1.230  0.1170  0.0794 -0.1450
   24MOL0     C 3211   6.833   0.711  -1.140 -0.1883 -0.1574  0.4634
   24MOL0     C 3212   6.883   0.589  -1.065 -1.3177  0.0564 -0.3474
   24MOL0     C 3213   7.024   0.593  -0.989 -0.0279 -0.7879  0.1883
   24MOL0     C 3214   7.050   0.479  -0.882  0.3043 -0.3075  0.6623
   24MOL0     C 3215   7.189   0.498  -0.821  0.9282  0.4034  0.6937
   24MOL0     C 3216   7.240   0.367  -0.753 -0.6603  0.2076  0.1726
   24MOL0     C 3217   7.385   0.386  -0.697 -0.1562 -0.5783 -0.8451
   24MOL0     C 3218   7.463   0.246  -0.670  0.0723 -0.1866 -0.5114
   24MOL0    Cl 3219   7.628   0.277  -0.663  0.2316 -0.3370 -0.2154
   24MOL0     C 3220   7.063   0.914  -1.334 -0.5726  0.2366 -0.2738
   24MOL0     C 3221   7.091   1.046  -1.385  0.4769 -1.4054  0.8243
   24MOL0     O 3222   6.994   1.354  -1.218  0.4877  0.9225 -1.2005
   24MOL0     C 3223   7.133   1.584  -1.318 -0.2098  0.7632  0.7511
   24MOL0     C 3224   7.163   1.704  -1.366 -0.2086 -0.2136  0.0652
   24MOL0     N 3225   6.845   2.330  -1.068 -0.1792  0.1281 -0.6043
   24MOL0     N 3226   6.859   2.309  -0.938 -0.7848  0.0459  0.4363
   24MOL0     C 3227   8.067   2.122  -0.297  0.0690  0.6844 -0.3497
   24MOL0     C 3228   8.187   2.176  -0.256  0.4393 -0.3442 -0.4116
   24MOL0     C 3229   8.565   2.156  -0.021  0.2852 -0.3043  0.3044
   24MOL0     C 3230   8.651   2.055   0.027 -0.5147 -0.9892 -0.0045
   24MOL0     C 3231   8.786   2.053   0.004 -0.1225  0.2340  0.2692
   24MOL0     C 3232   8.848   2.164  -0.064  0.0997  0.6001  0.0923
   24MOL0     O 3233   8.986   2.166  -0.090  0.1312 -0.2710  0.4063
   24MOL0     C 3234   9.059   2.284  -0.069  0.3559  0.5952 -0.0134
   24MOL0     C 3235   9.212   2.279  -0.089 -0.3435  0.1611  0.6454
   24MOL0     C 3236   9.278   2.187   0.017 -0.3438 -0.1869 -0.6222
   24MOL0     C 3237   9.299   2.271   0.148  0.0786  0.0730  1.6179
   24MOL0     C 3238   9.370   2.198   0.247  0.4748  0.1097  0.0930
   24MOL0     C 3239   9.424   2.143   0.342  0.0106  0.0594 -0.6940
   24MOL0     C 3240   8.763   2.267  -0.110 -0.3038  0.6727  0.4968
   24MOL0     C 3241   8.627   2.267  -0.091 -0.2063 -0.6661  0.0138
   24MOL0     C 3242   8.557   2.388  -0.156  0.5244  0.6794  0.7663
   24MOL0     H 3243   8.148   2.132   0.080  1.0002 -1.4854  0.2853
   24MOL0     H 3244   7.918   2.059   0.005 -1.3784 -2.5412 -2.0510
   24MOL0     H 3245   7.831   2.059  -0.441 -0.0826  0.3512 -0.1326
   24MOL0     H 3246   7.773   2.205  -0.374  1.3932 -0.0695 -0.6881
   24MOL0     H 3247   7.619   1.952  -0.363 -0.0514  1.2340  1.0352
   24MOL0     H 3248   7.572   2.095  -0.285 -0.5137  0.7401 -1.3317
   24MOL0     H 3249   7.580   2.221  -0.508  0.2290  0.0396  1.0085
   24MOL0     H 3250   7.597   2.067  -0.592 -2.7678  0.1514 -1.3621
   24MOL0     H 3251   7.389   1.998  -0.464 -2.3700  0.4708 -0.6894
   24MOL0     H 3252   7.369   2.167  -0.417  0.4161  0.6474 -0.5117
   24MOL0     H 3253   7.416   2.108  -0.712  1.1476 -0.3587  0.5027
   24MOL0     H 3254   7.382   2.256  -0.615 -0.7542  0.4727 -1.0713
   24MOL0     H 3255   7.177   2.031  -0.655 -2.8404  1.2759  2.0264
   24MOL0     H 3256   7.151   2.175  -0.562  0.0665 -0.4316  0.2432
   24MOL0     H 3257   7.217   2.178  -0.852  1.2111  2.4423  0.0333
   24MOL0     H 3258   7.182   2.322  -0.759 -2.4132  0.7170 -0.3055
   24MOL0     H 3259   6.998   2.079  -0.789 -1.1231  0.0542  1.5145
   24MOL0     H 3260   6.948   2.234  -0.714 -1.0643  3.5874 -2.2088
   24MOL0     H 3261   7.101   2.133  -1.078  1.1042  3.0217 -3.6577
   24MOL0     H 3262   7.029   2.338  -1.314  1.0875 -0.6409  0.2539
   24MOL0     H 3263   6.858   2.304  -1.341 -0.3192  0.6122  0.7402
   24MOL0     H 3264   7.089   2.100  -1.314  0.5461  0.7372 -1.6936
   24MOL0     H 3265   6.917   2.050  -1.300 -1.3531  0.9727 -0.7094
   24MOL0     H 3266   6.892   2.159  -1.537  0.7804  0.2052 -2.4267
   24MOL0     H 3267   7.067   2.184  -1.532  0.3892 -0.3027  0.2477
   24MOL0     H 3268   6.918   1.925  -1.535 -0.2056 -0.3547  0.5689
   24MOL0     H 3269   7.035   1.981  -1.656  0.0003 -1.2013  1.0185
   24MOL0     H 3270   6.944   1.729  -1.619  0.7857 -1.4417 -0.3443
   24MOL0     H 3271   6.790   1.423  -1.474  2.4703 -0.4762  1.5478
   24MOL0     H 3272   6.862   1.438  -1.636  1.6525 -2.2301  1.5899
   24MOL0     H 3273   6.760   1.573  -1.560  2.6715  2.0985 -0.5963
   24MOL0     H 3274   6.797   1.179  -1.322  1.4618  1.6955  1.8091
   24MOL0     H 3275   6.748   0.967  -1.213 -0.9910  1.9964 -1.6601
   24MOL0     H 3276   6.790   0.790  -1.078 -4.0202  1.2259 -3.5339
   24MOL0     H 3277   6.743   0.671  -1.188  0.7223 -0.1696 -1.2992
   24MOL0     H 3278   6.808   0.558  -0.991  0.3880  1.0098  1.9057
   24MOL0     H 3279   6.896   0.510  -1.140 -2.4528  0.3868 -0.9145
   24MOL0     H 3280   7.040   0.694  -0.949  2.6202  0.1942 -2.8978
   24MOL0     H 3281   7.105   0.596  -1.063  1.3540  1.5782  1.6792
   24MOL0     H 3282   7.045   0.383  -0.935  0.9988  0.3963 -0.7200
   24MOL0     H 3283   6.971   0.487  -0.806  1.2354 -3.1545  2.0569
   24MOL0     H 3284   7.257   0.530  -0.901  0.2510 -1.6165 -0.7790
   24MOL0     H 3285   7.184   0.576  -0.744 -0.9888 -1.8157  2.9840
   24MOL0     H 3286   7.234   0.277  -0.815  1.0802 -0.4446  0.8965
   24MOL0     H 3287   7.178   0.355  -0.663  0.0883  0.8886  0.7889
   24MOL0     H 3288   7.389   0.440  -0.602 -1.5916 -1.8915  0.0160
   24MOL0     H 3289   7.446   0.444  -0.767  0.0512 -1.3554 -1.3235
   24MOL0     H 3290   7.441   0.174  -0.749 -0.2747 -0.1753 -0.4295
   24MOL0     H 3291   7.430   0.206  -0.574 -1.5631  0.4402 -0.7719
   24MOL0     H 3292   7.125   0.828  -1.358 -0.0190  0.1688  1.2565
   24MOL0     H 3293   7.181   1.067  -1.443  0.3643  4.2574  2.0559
   24MOL0     H 3294   7.186   1.540  -1.233  0.6230  0.3161  0.0141
   24MOL0     H 3295   7.243   1.751  -1.310 -0.7128  0.8638 -0.1079
   24MOL0     H 3296   8.054   2.108  -0.404  1.0192 -0.4229 -0.3383
   24MOL0     H 3297   8.269   2.220  -0.313  1.2986  2.3275  2.5529
   24MOL0     H 3298   8.603   1.969   0.074 -1.0284 -0.6137  0.1685
   24MOL0     H 3299   8.853   1.968   0.014  2.0573  1.5322 -1.9839
   24MOL0     H 3300   9.022   2.361  -0.137 -0.0940  0.0153 -0.4365
   24MOL0     H 3301   9.036   2.307   0.035 -0.4889  0.6786 -0.2077
   24MOL0     H 3302   9.254   2.379  -0.078 -0.8059  0.4475 -0.1659
   24MOL0     H 3303   9.241   2.230  -0.183 -3.9948 -3.2889  1.0474
   24MOL0     H 3304   9.218   2.097   0.035  3.1154 -2.1275  2.4603
   24MOL0     H 3305   9.373   2.153  -0.026 -1.4158  1.2647 -4.5720
   24MOL0     H 3306   9.206   2.318   0.181  0.8910  1.5250  1.8885
   24MOL0     H 3307   9.356   2.362   0.128  0.4615 -0.3111  0.8936
   24MOL0     H 3308   9.484   2.103   0.421  0.2280  0.1850 -0.7954
   24MOL0     H 3309   8.812   2.347  -0.165 -2.6082  1.2522 -0.8342
   24MOL0     H 3310   8.479   2.344  -0.219 -0.3514 -0.1946  2.4117
   24MOL0     H 3311   8.507   2.455  -0.086  1.2343 -0.5780  2.5645
   24MOL0     H 3312   8.622   2.435  -0.231  1.4490  0.6185  1.5081
   25MOL0     O 3313   0.630  10.033   3.644  0.0028 -0.4471  0.3769
   25MOL0     C 3314   0.534   9.999   3.567 -0.6238 -0.3368  0.0472
   25MOL0     O 3315   0.514   9.869   3.521  0.3307  0.2999  0.0525
   25MOL0     C 3316   0.616   9.781   3.535 -0.0587 -1.1772 -0.7398
   25MOL0     C 3317   0.675   9.745   3.656 -1.1507 -0.6005  0.0100
   25MOL0     C 3318   0.781   9.654   3.669 -0.7732  0.6794  0.1792
   25MOL0     C 3319   0.826   9.573   3.558  0.0382 -0.3225 -0.4936
   25MOL0     O 3320   0.930   9.485   3.577 -0.2522 -0.7155  0.4459
   25MOL0     C 3321   0.974   9.405   3.469  0.7496 -0.5652 -0.7342
   25MOL0     C 3322   1.088   9.312   3.507 -0.9008 -0.1610  1.1020
   25MOL0     C 3323   1.116   9.228   3.380 -0.4854 -0.8985 -0.0597
   25MOL0     C 3324   1.253   9.164   3.387  0.3091  0.2832 -1.2170
   25MOL0     C 3325   1.265   9.096   3.526  0.3709 -0.0220 -0.3290
   25MOL0     C 3326   1.373   8.991   3.511 -1.3743  0.6254  0.9827
   25MOL0     C 3327   1.376   8.891   3.632 -0.6095  0.0496 -0.6034
   25MOL0     C 3328   1.386   8.965   3.766 -0.7887  0.1588  0.7093
   25MOL0     N 3329   1.522   9.020   3.795  0.5421  0.2741 -0.3298
   25MOL0     C 3330   1.577   9.134   3.749 -0.5196 -0.4750 -0.1280
   25MOL0     C 3331   1.706   9.136   3.786 -0.8038  0.1121 -0.0047
   25MOL0     C 3332   1.797   9.255   3.783  0.5625  0.2855 -0.9726
   25MOL0     C 3333   1.935   9.231   3.844  0.6557  0.6751  0.5993
   25MOL0     C 3334   2.039   9.153   3.753 -0.2044 -0.6956  0.2219
   25MOL0     C 3335   2.169   9.114   3.830  0.4783 -0.6712  0.4419
   25MOL0     O 3336   2.279   9.142   3.746 -0.1052 -0.5445 -0.0118
   25MOL0     C 3337   2.392   9.159   3.815 -0.2938 -0.4020 -0.3203
   25MOL0     C 3338   2.425   9.101   3.936  0.9164 -0.2911  0.0132
   25MOL0     C 3339   2.546   9.123   4.006 -1.1302  0.2809 -0.1290
   25MOL0     C 3340   2.576   9.041   4.134 -0.5773 -0.3286  0.6261
   25MOL0     C 3341   2.638   9.215   3.944  0.3321  0.8338  0.4957
   25MOL0     C 3342   2.777   9.245   3.998  1.2109 -0.3190  0.1436
   25MOL0     O 3343   2.810   9.219   4.129  0.5900 -0.3548  0.2822
   25MOL0     C 3344   2.938   9.206   4.163  0.0399 -0.2443  0.0662
   25MOL0     C 3345   3.015   9.110   4.108  0.8518  0.3998  0.3209
   25MOL0     C 3346   3.142   9.090   4.149  0.0695 -0.4116 -0.7332
   25MOL0     C 3347   3.201   9.165   4.257  0.6085 -0.6135  0.2646
   25MOL0     O 3348   3.328   9.159   4.298  0.1495 -0.0028 -0.2481
   25MOL0     C 3349   3.392   9.041   4.316  0.0309 -0.1386 -0.1946
   25MOL0     C 3350   3.520   9.076   4.396 -0.7142  0.0812  0.4506
   25MOL0     C 3351   3.491   9.128   4.542  0.4743  0.2072 -0.1044
   25MOL0     C 3352   3.612   9.182   4.610 -0.0461 -0.2915 -0.4784
   25MOL0     C 3353   3.587   9.182   4.754  0.9207  0.6646  0.6602
   25MOL0     C 3354   3.693   9.250   4.837  0.2199 -0.2709 -0.2249
   25MOL0     C 3355   3.699   9.405   4.831 -0.8322  0.4232 -0.0963
   25MOL0     C 3356   3.785   9.474   4.937 -0.0779  0.4705 -0.2651
   25MOL0    Cl 3357   3.720   9.464   5.106 -0.4384 -0.5524 -0.3453
   25MOL0     C 3358   3.115   9.264   4.317 -0.7810 -0.5856 -0.2347
   25MOL0     C 3359   2.983   9.277   4.269 -0.9540 -1.0441 -0.3235
   25MOL0     O 3360   2.846   9.323   3.932 -0.0194 -0.1050  0.5707
   25MOL0     C 3361   2.598   9.280   3.817 -0.8200 -0.1024  0.9640
   25MOL0     C 3362   2.474   9.249   3.761 -0.1438  0.1180 -0.5085
   25MOL0     N 3363   1.737   9.011   3.845 -0.4071 -0.2335  0.0290
   25MOL0     N 3364   1.620   8.948   3.861  0.0946 -0.2427 -0.5609
   25MOL0     C 3365   0.767   9.609   3.431 -0.4621 -0.0073 -0.0629
   25MOL0     C 3366   0.665   9.717   3.422 -0.7099 -0.1449  0.8952
   25MOL0     C 3367   0.455  10.113   3.504 -0.4795  0.5601  0.0015
   25MOL0     C 3368   0.396  10.083   3.383  0.1929 -0.4776 -0.1848
   25MOL0     C 3369   0.315  10.174   3.322 -0.2996  0.9270 -1.4235
   25MOL0     C 3370   0.297  10.298   3.375 -0.3649  0.1909 -0.1115
   25MOL0     O 3371   0.217  10.392   3.309 -0.3036  0.4322 -0.7460
   25MOL0     C 3372   0.110  10.452   3.387 -0.1199  0.5760  0.5677
   25MOL0     C 3373  -0.018  10.365   3.379  0.5377  0.1676 -0.9265
   25MOL0     C 3374  -0.148  10.433   3.442 -0.1272  0.1748  0.1700
   25MOL0     C 3375  -0.270  10.346   3.457  0.3691  0.2639 -0.3079
   25MOL0     C 3376  -0.307  10.300   3.321 -0.1162  0.9938  0.5944
   25MOL0     C 3377  -0.349  10.280   3.205  0.6355 -0.2844 -0.4568
   25MOL0     C 3378   0.373  10.336   3.488 -0.3209 -0.0338  0.1285
   25MOL0     C 3379   0.449  10.243   3.556 -0.2302 -0.4845 -1.5239
   25MOL0     C 3380   0.528  10.291   3.674 -0.2120 -0.1363  0.0367
   25MOL0     H 3381   0.642   9.799   3.744  1.1722  0.6755  0.1940
   25MOL0     H 3382   0.813   9.636   3.771 -2.1702 -0.9355  0.3887
   25MOL0     H 3383   1.014   9.469   3.389  2.9176 -1.4603 -0.4402
   25MOL0     H 3384   0.887   9.347   3.435 -0.3013  0.0630  0.8038
   25MOL0     H 3385   1.172   9.376   3.536 -2.0224  0.9514  2.0333
   25MOL0     H 3386   1.060   9.249   3.592 -2.4613 -0.7213  0.2191
   25MOL0     H 3387   1.040   9.149   3.382 -0.8248 -0.6188  2.8562
   25MOL0     H 3388   1.116   9.293   3.292 -1.5661 -1.9572 -0.8742
   25MOL0     H 3389   1.272   9.097   3.302  3.3351  1.4089 -1.5415
   25MOL0     H 3390   1.332   9.239   3.375  1.3289 -0.7198 -0.9074
   25MOL0     H 3391   1.173   9.044   3.555 -0.6506 -1.7177 -5.5555
   25MOL0     H 3392   1.282   9.184   3.588 -0.7362  0.2728 -0.4100
   25MOL0     H 3393   1.348   8.929   3.424 -0.4698 -0.5574  1.5326
   25MOL0     H 3394   1.472   9.031   3.490 -1.7653  0.0598 -2.5145
   25MOL0     H 3395   1.464   8.828   3.619 -0.2195 -0.1661  2.2635
   25MOL0     H 3396   1.291   8.824   3.642  0.4946 -1.2384  0.6135
   25MOL0     H 3397   1.300   9.032   3.772  0.3840  1.7955 -0.0398
   25MOL0     H 3398   1.375   8.885   3.840  0.2901 -0.9909 -0.3358
   25MOL0     H 3399   1.520   9.216   3.706 -2.5546 -1.6824  0.1572
   25MOL0     H 3400   1.744   9.338   3.829 -1.4099 -1.0281 -0.7608
   25MOL0     H 3401   1.809   9.290   3.680  1.3619  3.2774  0.0527
   25MOL0     H 3402   1.985   9.322   3.878  3.0480 -0.9855  1.8327
   25MOL0     H 3403   1.912   9.174   3.935 -0.1867  1.0397  0.6289
   25MOL0     H 3404   2.013   9.063   3.697  1.3225  0.8011 -3.2231
   25MOL0     H 3405   2.067   9.223   3.673  2.8120 -0.2196  1.5497
   25MOL0     H 3406   2.163   9.186   3.913 -1.1563  1.9885 -1.8138
   25MOL0     H 3407   2.170   9.008   3.857 -0.7598 -0.4415  1.4786
   25MOL0     H 3408   2.355   9.038   3.990  0.6466  1.4234  1.7800
   25MOL0     H 3409   2.506   8.958   4.136 -0.0591 -0.8232 -0.5104
   25MOL0     H 3410   2.566   9.113   4.216  0.7389  1.6639 -0.8442
   25MOL0     H 3411   2.680   9.007   4.127 -1.4819 -3.4204  1.1866
   25MOL0     H 3412   2.975   9.051   4.026 -1.2810  2.1931 -0.0180
   25MOL0     H 3413   3.207   9.025   4.091 -0.3434 -2.3152  0.7895
   25MOL0     H 3414   3.341   8.970   4.381 -2.4323 -1.1753 -3.0148
   25MOL0     H 3415   3.407   8.981   4.225  1.2331 -2.4180  1.4260
   25MOL0     H 3416   3.583   8.987   4.406  0.6357  1.0228  0.6687
   25MOL0     H 3417   3.589   9.142   4.342 -1.0937 -0.4611 -0.7421
   25MOL0     H 3418   3.451   9.053   4.612  3.3299 -0.5495  0.8414
   25MOL0     H 3419   3.417   9.209   4.541  2.2346  1.9592  1.8594
   25MOL0     H 3420   3.620   9.284   4.570  2.3436  0.0872  0.7949
   25MOL0     H 3421   3.708   9.137   4.584 -0.2228 -0.9133 -0.0524
   25MOL0     H 3422   3.489   9.227   4.771  0.0162 -1.0791  0.3053
   25MOL0     H 3423   3.585   9.078   4.786  2.0818  0.0010 -1.2467
   25MOL0     H 3424   3.789   9.208   4.804 -0.2342 -1.2970 -0.2813
   25MOL0     H 3425   3.674   9.234   4.944 -2.4037 -1.5462 -0.8066
   25MOL0     H 3426   3.604   9.458   4.824 -0.8418  0.2524 -1.5867
   25MOL0     H 3427   3.750   9.429   4.737  1.8408 -0.2739  1.0555
   25MOL0     H 3428   3.775   9.576   4.900  0.7527 -0.3458 -2.9881
   25MOL0     H 3429   3.894   9.465   4.937  0.2095  1.8878  3.9183
   25MOL0     H 3430   3.147   9.325   4.401 -1.9430 -0.3391  0.0397
   25MOL0     H 3431   2.933   9.363   4.313  0.2540  0.5066 -1.8254
   25MOL0     H 3432   2.668   9.344   3.766  0.0556 -0.9229  1.1084
   25MOL0     H 3433   2.440   9.306   3.675  2.7810  1.2821 -1.0206
   25MOL0     H 3434   0.802   9.567   3.337  0.8807  1.8309 -0.4469
   25MOL0     H 3435   0.624   9.741   3.324 -0.6475 -0.4080  0.8041
   25MOL0     H 3436   0.413   9.985   3.340 -2.7606  0.3401 -3.7520
   25MOL0     H 3437   0.253  10.142   3.239 -3.6974  1.8985  0.5371
   25MOL0     H 3438   0.132  10.471   3.493  1.9956 -0.9358  0.4583
   25MOL0     H 3439   0.087  10.547   3.337 -0.5581  1.0187  1.5732
   25MOL0     H 3440  -0.009  10.270   3.432 -1.2377 -0.7827 -2.2046
   25MOL0     H 3441  -0.031  10.342   3.272  2.5640  1.3392 -1.4883
   25MOL0     H 3442  -0.123  10.457   3.546 -0.0240  1.6218 -0.1713
   25MOL0     H 3443  -0.171  10.524   3.387 -1.7825 -0.9608 -1.1160
   25MOL0     H 3444  -0.354  10.403   3.497 -1.6208 -1.4796 -1.7572
   25MOL0     H 3445  -0.250  10.261   3.522  2.8330 -0.2990 -1.6670
   25MOL0     H 3446  -0.380  10.272   3.102 -0.1784  0.1841 -0.2597
   25MOL0     H 3447   0.357  10.433   3.535  0.8001 -0.4622  1.4775
   25MOL0     H 3448   0.509  10.226   3.760 -1.0411  0.1849  0.1049
   25MOL0     H 3449   0.636  10.287   3.658  0.3369  0.7450  2.9382
   25MOL0     H 3450   0.493  10.388   3.711 -0.6118  0.0322 -0.7745
   26MOL0     O 3451   7.496   4.523   1.209 -0.0321  0.1925  0.2314
   26MOL0     C 3452   7.460   4.513   1.324  0.0437  0.0797  0.3197
   26MOL0     O 3453   7.538   4.489   1.436 -0.8996  0.0427  0.3349
   26MOL0     C 3454   7.676   4.496   1.433  0.3177  0.7204  0.6443
   26MOL0     C 3455   7.752   4.388   1.481  0.5998 -0.1945 -0.0660
   26MOL0     C 3456   7.890   4.387   1.482  0.1956 -0.0803 -0.0687
   26MOL0     C 3457   7.952   4.501   1.428 -1.0183 -0.2869  0.7687
   26MOL0     O 3458   8.092   4.502   1.438 -0.3855  0.0072  0.3462
   26MOL0     C 3459   8.172   4.619   1.398 -0.3359 -0.0315 -0.2666
   26MOL0     C 3460   8.272   4.653   1.511 -0.5150  1.0189 -0.4627
   26MOL0     C 3461   8.368   4.760   1.461  0.5603  0.6463 -0.0046
   26MOL0     C 3462   8.475   4.797   1.571 -0.5114 -0.7975 -0.9959
   26MOL0     C 3463   8.569   4.914   1.525  0.6741  0.6615  0.6560
   26MOL0     C 3464   8.646   4.980   1.646  0.3526 -0.5487  1.1114
   26MOL0     C 3465   8.769   5.069   1.602  0.1619 -0.3424  0.1752
   26MOL0     C 3466   8.738   5.195   1.523 -0.2358 -0.2136  0.1146
   26MOL0     N 3467   8.848   5.261   1.452 -0.0951  0.1472 -0.0736
   26MOL0     C 3468   8.917   5.220   1.339  0.8510  0.0867 -0.5371
   26MOL0     C 3469   9.019   5.310   1.319 -0.0138  0.9810 -0.0722
   26MOL0     C 3470   9.125   5.302   1.212 -0.0553  0.3541 -0.4120
   26MOL0     C 3471   9.064   5.327   1.078  0.8577 -0.6005  0.3854
   26MOL0     C 3472   9.150   5.365   0.963  0.0035 -0.3777 -0.7269
   26MOL0     C 3473   9.266   5.278   0.933  0.4507 -0.0151 -0.0102
   26MOL0     O 3474   9.312   5.269   0.794 -0.2463 -0.0544 -0.6182
   26MOL0     C 3475   9.446   5.283   0.758  0.5179  0.4173  0.0150
   26MOL0     C 3476   9.549   5.337   0.842  0.0673 -0.0799 -0.0020
   26MOL0     C 3477   9.684   5.350   0.812 -0.1069  0.8572 -0.1628
   26MOL0     C 3478   9.787   5.400   0.928 -0.7432  0.1225 -1.1636
   26MOL0     C 3479   9.714   5.319   0.679  0.6914  0.7678 -0.8731
   26MOL0     C 3480   9.855   5.351   0.628  0.3647  0.8481 -0.1025
   26MOL0     O 3481   9.868   5.392   0.500 -0.4140 -0.1593  0.3264
   26MOL0     C 3482   9.993   5.383   0.439 -0.2398 -0.3719  0.5631
   26MOL0     C 3483  10.052   5.256   0.430  0.7439 -0.6637 -0.0081
   26MOL0     C 3484  10.179   5.252   0.376  0.6894 -0.1727  0.8555
   26MOL0     C 3485  10.250   5.367   0.334 -0.5580 -0.3076 -0.0421
   26MOL0     O 3486  10.378   5.341   0.287 -0.7221 -0.7174  0.2393
   26MOL0     C 3487  10.486   5.438   0.322  0.1047 -0.1042  0.5824
   26MOL0     C 3488  10.556   5.407   0.456  0.4679 -0.3360 -0.7964
   26MOL0     C 3489  10.630   5.276   0.467 -0.2984 -0.1478 -0.0770
   26MOL0     C 3490  10.777   5.276   0.419  0.2023 -0.1359 -0.2462
   26MOL0     C 3491  10.870   5.162   0.462 -1.0866  0.4473  0.1066
   26MOL0     C 3492  10.804   5.032   0.403  0.7067  0.3741 -0.0559
   26MOL0     C 3493  10.903   4.917   0.390  0.2379 -0.1831 -0.8188
   26MOL0     C 3494  10.840   4.784   0.415 -0.2851  0.2705 -0.2779
   26MOL0    Cl 3495  10.952   4.642   0.400 -0.1500 -0.1086  0.4417
   26MOL0     C 3496  10.190   5.496   0.350  0.3586 -0.4528 -0.7227
   26MOL0     C 3497  10.055   5.497   0.399  0.6575 -0.7970  0.5488
   26MOL0     O 3498   9.947   5.327   0.702 -0.4241 -0.6111 -0.0583
   26MOL0     C 3499   9.618   5.271   0.584  0.1894  0.0855 -0.3314
   26MOL0     C 3500   9.486   5.259   0.626 -0.0374  0.3684  0.9225
   26MOL0     N 3501   9.014   5.391   1.425  0.8116 -0.4374 -1.1735
   26MOL0     N 3502   8.916   5.356   1.511  0.5461 -0.0354 -0.2021
   26MOL0     C 3503   7.877   4.604   1.375  0.3719 -0.8529 -1.0398
   26MOL0     C 3504   7.736   4.611   1.376 -0.1071 -0.2347  0.6835
   26MOL0     C 3505   7.314   4.536   1.343  0.7382  0.1094  0.5424
   26MOL0     C 3506   7.247   4.637   1.277  0.1016 -0.1717  0.3726
   26MOL0     C 3507   7.110   4.639   1.273  0.1333 -0.1445 -0.7041
   26MOL0     C 3508   7.029   4.567   1.365 -0.6445  0.4846 -0.0689
   26MOL0     O 3509   6.899   4.599   1.395 -0.4618  0.5197  0.4207
   26MOL0     C 3510   6.837   4.702   1.303 -1.1231  0.8361 -0.1086
   26MOL0     C 3511   6.688   4.707   1.313  1.0191  0.5541  0.1873
   26MOL0     C 3512   6.622   4.819   1.238 -0.4966 -0.5223 -0.4523
   26MOL0     C 3513   6.496   4.841   1.307 -0.0749  0.8712  0.0376
   26MOL0     C 3514   6.428   4.963   1.268 -0.6202 -1.1102  1.0475
   26MOL0     C 3515   6.367   5.068   1.246  0.7957 -0.3510  0.9050
   26MOL0     C 3516   7.099   4.473   1.447  0.6951 -1.0191 -0.5289
   26MOL0     C 3517   7.244   4.456   1.434  0.2902 -0.7720  0.6398
   26MOL0     C 3518   7.309   4.366   1.538  0.2283  0.9418 -0.7373
   26MOL0     H 3519   7.700   4.297   1.510 -0.8523  0.5344 -0.3271
   26MOL0     H 3520   7.965   4.317   1.517  2.4411  2.4275  0.4500
   26MOL0     H 3521   8.112   4.708   1.373  1.9520  0.7141 -3.6537
   26MOL0     H 3522   8.230   4.593   1.310  1.4612  1.5585  0.3729
   26MOL0     H 3523   8.211   4.701   1.588  2.5719  3.5347  0.6000
   26MOL0     H 3524   8.332   4.566   1.538  0.8347  1.8742 -0.6039
   26MOL0     H 3525   8.426   4.723   1.376 -0.0332  0.7694 -0.4693
   26MOL0     H 3526   8.317   4.848   1.421 -1.8378 -0.0886  1.2439
   26MOL0     H 3527   8.432   4.840   1.663  0.9097  0.8541 -1.0551
   26MOL0     H 3528   8.535   4.710   1.599  3.2396  2.0600  0.5955
   26MOL0     H 3529   8.512   4.993   1.476  0.1719 -0.2921 -0.3351
   26MOL0     H 3530   8.647   4.870   1.463 -1.8299 -1.4776 -1.2039
   26MOL0     H 3531   8.576   5.043   1.701  0.3233  0.0200  0.4390
   26MOL0     H 3532   8.673   4.900   1.715 -0.3764  0.0516  2.1139
   26MOL0     H 3533   8.838   5.015   1.536 -0.6536 -0.4616 -0.6012
   26MOL0     H 3534   8.828   5.094   1.690 -0.3346 -2.5605  1.1934
   26MOL0     H 3535   8.654   5.176   1.455 -0.6258  2.7958 -0.3477
   26MOL0     H 3536   8.697   5.270   1.592 -0.3638  0.4817 -0.7109
   26MOL0     H 3537   8.890   5.129   1.285  1.6873 -0.8356  0.5491
   26MOL0     H 3538   9.152   5.196   1.222  0.7292  0.7038  1.9693
   26MOL0     H 3539   9.210   5.367   1.235 -0.0064 -0.3753  1.7219
   26MOL0     H 3540   9.005   5.243   1.040 -1.0895  0.7894  0.1264
   26MOL0     H 3541   8.994   5.411   1.089  2.0247  0.4694 -0.0728
   26MOL0     H 3542   9.091   5.365   0.871 -0.1097 -0.6036 -0.6565
   26MOL0     H 3543   9.185   5.467   0.979 -1.5406 -0.1535  1.7563
   26MOL0     H 3544   9.338   5.293   1.014 -1.0704  2.4765  1.0104
   26MOL0     H 3545   9.230   5.178   0.957  0.0816  0.2623  0.6236
   26MOL0     H 3546   9.522   5.377   0.939  0.6953  4.3905 -1.4198
   26MOL0     H 3547   9.828   5.494   0.890 -2.1200  0.2273 -2.5300
   26MOL0     H 3548   9.875   5.336   0.936 -0.1861  0.8416 -1.4644
   26MOL0     H 3549   9.742   5.409   1.027 -3.1426 -0.8477 -2.0637
   26MOL0     H 3550  10.006   5.162   0.460  1.5219 -0.6940  1.1788
   26MOL0     H 3551  10.230   5.156   0.368  3.1380  1.1094 -0.0329
   26MOL0     H 3552  10.568   5.435   0.250 -0.1676  1.9575  0.1369
   26MOL0     H 3553  10.442   5.538   0.324 -0.6023 -0.3980 -0.1853
   26MOL0     H 3554  10.627   5.486   0.481  0.9605 -1.4154  1.4691
   26MOL0     H 3555  10.481   5.418   0.535  1.5473  2.2572 -0.0148
   26MOL0     H 3556  10.580   5.202   0.403 -0.9297  1.7164 -1.8300
   26MOL0     H 3557  10.616   5.246   0.571 -2.3398  0.3970 -0.1625
   26MOL0     H 3558  10.822   5.367   0.460  2.5766 -1.4971  0.3253
   26MOL0     H 3559  10.777   5.293   0.311  0.6841 -1.2524 -0.4313
   26MOL0     H 3560  10.969   5.179   0.418 -2.5655  1.3462 -3.2711
   26MOL0     H 3561  10.876   5.152   0.570  0.1507 -2.3270 -0.1256
   26MOL0     H 3562  10.756   5.046   0.306  0.1324  1.0801  0.3280
   26MOL0     H 3563  10.724   5.001   0.471 -0.2489  2.4678 -0.1625
   26MOL0     H 3564  10.989   4.931   0.456  0.8094 -0.8541 -1.4112
   26MOL0     H 3565  10.924   4.934   0.284 -0.6117  4.2026 -0.4900
   26MOL0     H 3566  10.751   4.780   0.352 -1.0621 -0.5353  0.8444
   26MOL0     H 3567  10.805   4.779   0.518  2.5648 -1.0715  0.7337
   26MOL0     H 3568  10.236   5.590   0.324 -2.7469  1.2631 -0.4138
   26MOL0     H 3569   9.996   5.586   0.416 -0.0775 -1.4319  1.4221
   26MOL0     H 3570   9.639   5.264   0.478 -3.2359  0.8899 -1.1944
   26MOL0     H 3571   9.408   5.227   0.557 -0.1666 -1.1208  1.7209
   26MOL0     H 3572   7.918   4.695   1.333 -2.9392  0.1405 -2.4635
   26MOL0     H 3573   7.680   4.689   1.326  1.0751 -0.9226 -1.8911
   26MOL0     H 3574   7.313   4.703   1.222 -0.0968  0.8476  1.3380
   26MOL0     H 3575   7.070   4.725   1.220  0.9610  1.5573  1.2711
   26MOL0     H 3576   6.875   4.801   1.332 -0.0306  0.4720 -0.2564
   26MOL0     H 3577   6.860   4.675   1.200 -1.5913  2.0339 -0.5458
   26MOL0     H 3578   6.657   4.707   1.418  0.0111  0.9274 -0.1020
   26MOL0     H 3579   6.643   4.617   1.270 -1.1173  1.8655 -0.4707
   26MOL0     H 3580   6.686   4.907   1.230 -0.5447 -0.4990 -0.5863
   26MOL0     H 3581   6.590   4.780   1.141 -0.2654 -1.5595 -0.1352
   26MOL0     H 3582   6.503   4.837   1.416  0.9206 -1.5769 -0.0434
   26MOL0     H 3583   6.425   4.763   1.278 -0.8801  2.0558 -1.3291
   26MOL0     H 3584   6.316   5.159   1.219  1.7967 -0.1730 -0.5539
   26MOL0     H 3585   7.041   4.424   1.525 -1.4966  0.9095 -0.8516
   26MOL0     H 3586   7.229   4.312   1.590  2.7604 -2.4147  0.0672
   26MOL0     H 3587   7.367   4.284   1.493 -1.4227 -0.8625  0.2674
   26MOL0     H 3588   7.364   4.422   1.614 -2.1520  0.2642  1.6136
   27MOL0     O 3589  10.527   5.322   9.703  0.6410  0.2537  0.6849
   27MOL0     C 3590  10.422   5.351   9.643  0.3475 -0.9697  0.6229
   27MOL0     O 3591  10.354   5.474   9.664  0.2482 -0.0296 -0.6589
   27MOL0     C 3592  10.367   5.551   9.774  0.4706 -0.0168  0.2422
   27MOL0     C 3593  10.374   5.497   9.901  0.5969  0.2275  1.1097
   27MOL0     C 3594  10.385   5.579  10.015 -0.1552 -0.8907 -0.2909
   27MOL0     C 3595  10.407   5.719  10.004  0.0288 -0.6505  0.1413
   27MOL0     O 3596  10.442   5.798  10.110 -0.3196  0.6856 -0.1102
   27MOL0     C 3597  10.526   5.740  10.207 -0.2293 -0.4552  0.2443
   27MOL0     C 3598  10.650   5.687  10.152 -1.4374 -0.6082 -0.0851
   27MOL0     C 3599  10.753   5.628  10.254  0.0198  0.1442  0.1965
   27MOL0     C 3600  10.698   5.545  10.370  0.1596  0.3759 -0.2450
   27MOL0     C 3601  10.814   5.509  10.468 -0.1511 -0.2623 -0.6397
   27MOL0     C 3602  10.916   5.418  10.420 -0.1025  0.1342 -0.1327
   27MOL0     C 3603  11.021   5.370  10.529 -0.1303  0.0005  0.4236
   27MOL0     C 3604  11.120   5.476  10.570 -0.6827 -0.4346 -0.4899
   27MOL0     N 3605  11.261   5.441  10.518 -0.3824  0.1268  0.4404
   27MOL0     C 3606  11.289   5.445  10.385  0.9636 -0.0180  0.6751
   27MOL0     C 3607  11.419   5.458  10.367  0.1181  0.6232 -1.1271
   27MOL0     C 3608  11.484   5.480  10.237 -0.1434  0.1339  0.2292
   27MOL0     C 3609  11.628   5.422  10.242  0.3248 -0.0945  1.5214
   27MOL0     C 3610  11.684   5.446  10.099 -0.9943 -0.1318 -0.0542
   27MOL0     C 3611  11.715   5.593  10.069  0.6650  0.4219  0.5788
   27MOL0     O 3612  11.830   5.635  10.142  0.0527  0.2844 -0.1526
   27MOL0     C 3613  11.957   5.579  10.126 -0.2842  0.2951 -0.5295
   27MOL0     C 3614  12.043   5.626  10.224 -0.0925  0.4305 -0.0992
   27MOL0     C 3615  12.182   5.598  10.224  1.2847 -0.0370 -0.1637
   27MOL0     C 3616  12.259   5.645  10.348 -0.2852 -0.3229  0.2332
   27MOL0     C 3617  12.237   5.544  10.106 -0.2309  0.0630 -0.0417
   27MOL0     C 3618  12.384   5.522  10.081 -0.4976  0.3411  0.5169
   27MOL0     O 3619  12.447   5.455  10.178 -0.8262  0.4896 -0.4305
   27MOL0     C 3620  12.576   5.403  10.141  0.7543 -0.4592 -1.1038
   27MOL0     C 3621  12.594   5.271  10.096  0.2712 -0.5020 -0.1553
   27MOL0     C 3622  12.717   5.225  10.056 -0.2948 -0.5690  0.3066
   27MOL0     C 3623  12.829   5.309  10.073  0.0975  0.0332 -1.4675
   27MOL0     O 3624  12.955   5.271  10.030  0.6473  0.2036 -0.1794
   27MOL0     C 3625  12.970   5.153   9.945 -0.0779  0.3407  0.0451
   27MOL0     C 3626  13.108   5.145   9.892  0.8671  0.3631  1.3215
   27MOL0     C 3627  13.217   5.110   9.997  0.5152 -0.4825  0.0120
   27MOL0     C 3628  13.348   5.084   9.913  0.7595  0.1203 -0.2729
   27MOL0     C 3629  13.462   5.089  10.002 -0.1264 -1.0939  0.0834
   27MOL0     C 3630  13.487   4.974  10.096 -0.3291  0.2663 -0.0268
   27MOL0     C 3631  13.638   4.972  10.156  0.1574  0.1171  0.1787
   27MOL0     C 3632  13.670   4.865  10.263  0.5955 -0.6264  0.8789
   27MOL0    Cl 3633  13.843   4.825  10.250 -0.2958  0.4973  0.3311
   27MOL0     C 3634  12.816   5.438  10.123 -0.8092  0.3034  0.0857
   27MOL0     C 3635  12.688   5.484  10.159  0.2395 -0.4565  0.1034
   27MOL0     O 3636  12.426   5.538   9.968  0.3375 -0.4226 -0.2577
   27MOL0     C 3637  12.148   5.484  10.009 -0.1970  0.1008 -0.0567
   27MOL0     C 3638  12.010   5.498  10.023 -0.0448  0.1358  0.1654
   27MOL0     N 3639  11.480   5.446  10.493 -0.2583  1.0387  0.3155
   27MOL0     N 3640  11.381   5.437  10.579  0.1743 -0.6415 -0.4427
   27MOL0     C 3641  10.391   5.775   9.875 -0.5607  1.6102  0.5021
   27MOL0     C 3642  10.363   5.690   9.760  0.4274 -0.1034  0.0760
   27MOL0     C 3643  10.371   5.253   9.544  0.9681  0.2007  0.7780
   27MOL0     C 3644  10.243   5.264   9.481 -0.2204 -1.0738 -0.2623
   27MOL0     C 3645  10.192   5.173   9.396 -0.1888  0.3645 -0.4095
   27MOL0     C 3646  10.253   5.057   9.361  0.2732 -0.8314  0.0865
   27MOL0     O 3647  10.182   4.969   9.275 -0.4554  0.7182  0.6392
   27MOL0     C 3648  10.264   4.898   9.180 -0.4340  0.7823 -0.1554
   27MOL0     C 3649  10.326   5.001   9.077  0.3904 -0.1453  0.1869
   27MOL0     C 3650  10.220   5.038   8.975  0.5987 -0.1608  0.3922
   27MOL0     C 3651  10.277   5.151   8.877  0.5672 -0.4742 -0.7370
   27MOL0     C 3652  10.326   5.276   8.940 -0.5066  1.1003 -0.3061
   27MOL0     C 3653  10.368   5.377   8.982 -0.6061  0.4026 -0.6245
   27MOL0     C 3654  10.381   5.050   9.411 -0.2452  0.0722 -0.1053
   27MOL0     C 3655  10.445   5.137   9.501  0.2534 -0.0255  0.0124
   27MOL0     C 3656  10.593   5.111   9.552 -0.5564  1.0379 -0.3359
   27MOL0     H 3657  10.377   5.390   9.918 -2.0951 -0.0575  0.2255
   27MOL0     H 3658  10.382   5.536  10.114 -0.1715  1.6433  0.8821
   27MOL0     H 3659  10.466   5.676  10.271  0.6668  1.4510  3.1814
   27MOL0     H 3660  10.553   5.813  10.284  1.3999 -1.5271  0.7485
   27MOL0     H 3661  10.633   5.612  10.074 -0.6957  0.2622 -1.1153
   27MOL0     H 3662  10.706   5.764  10.100  0.7873 -0.5257  2.2266
   27MOL0     H 3663  10.827   5.567  10.202  2.3740  2.2542  0.8773
   27MOL0     H 3664  10.811   5.716  10.284 -0.0642  0.3916 -0.3503
   27MOL0     H 3665  10.620   5.603  10.420 -0.6488 -0.7995 -0.1169
   27MOL0     H 3666  10.644   5.460  10.329  0.3503 -0.2807  0.8184
   27MOL0     H 3667  10.763   5.468  10.556  0.3525  1.2693  0.4113
   27MOL0     H 3668  10.858   5.599  10.510 -1.4306  0.3809 -0.6059
   27MOL0     H 3669  10.855   5.333  10.390 -2.1848  2.2261 -2.2464
   27MOL0     H 3670  10.971   5.449  10.331  0.8220  0.5541  0.5601
   27MOL0     H 3671  11.065   5.276  10.496  1.5305  1.3613 -1.4396
   27MOL0     H 3672  10.969   5.348  10.623  0.5444  0.7359  0.9709
   27MOL0     H 3673  11.084   5.576  10.547  1.0124  1.2802  3.4219
   27MOL0     H 3674  11.127   5.466  10.679  0.3463 -0.3850 -0.5418
   27MOL0     H 3675  11.220   5.456  10.302  0.7471 -0.7856  0.7494
   27MOL0     H 3676  11.486   5.589  10.233 -2.4636  0.1913 -1.9383
   27MOL0     H 3677  11.423   5.454  10.151  0.8421 -0.2221 -0.3729
   27MOL0     H 3678  11.680   5.481  10.319  0.1624  1.7959  0.2713
   27MOL0     H 3679  11.614   5.315  10.254 -1.8936 -0.6173 -3.4370
   27MOL0     H 3680  11.779   5.392  10.091  0.2262  1.6335  1.6347
   27MOL0     H 3681  11.614   5.395  10.032 -2.9780  1.0846  0.9906
   27MOL0     H 3682  11.734   5.604   9.962  0.5230 -0.4848  0.4512
   27MOL0     H 3683  11.624   5.652  10.082  0.4280  0.0728  0.5085
   27MOL0     H 3684  12.003   5.667  10.317 -4.0343 -0.7687 -1.0694
   27MOL0     H 3685  12.235   5.595  10.442  1.9204 -0.3821  0.8136
   27MOL0     H 3686  12.233   5.751  10.359 -0.8435 -0.2578 -1.3869
   27MOL0     H 3687  12.366   5.632  10.330 -0.3399 -2.2109  1.0620
   27MOL0     H 3688  12.506   5.210  10.082  2.0467 -2.8574 -1.8665
   27MOL0     H 3689  12.723   5.120  10.027 -4.1309 -0.3772 -1.9749
   27MOL0     H 3690  12.944   5.062   9.999  0.1163 -2.0586 -3.5563
   27MOL0     H 3691  12.890   5.160   9.871 -2.0716  1.4422  2.1665
   27MOL0     H 3692  13.112   5.065   9.817  1.2016  0.9248  0.7273
   27MOL0     H 3693  13.140   5.238   9.842  2.5743 -0.8562  0.0353
   27MOL0     H 3694  13.186   5.027  10.061  2.5242 -0.3714  1.2222
   27MOL0     H 3695  13.226   5.203  10.055 -2.8196  0.9739 -1.4840
   27MOL0     H 3696  13.368   5.162   9.838  1.0395 -1.5305 -1.9771
   27MOL0     H 3697  13.343   4.986   9.865 -1.1734  0.1256 -0.1818
   27MOL0     H 3698  13.555   5.099   9.945 -0.2571  2.9287  0.3272
   27MOL0     H 3699  13.457   5.184  10.056 -1.0508 -1.4909  0.7226
   27MOL0     H 3700  13.479   4.879  10.042  0.6265  0.5742 -0.7519
   27MOL0     H 3701  13.411   4.969  10.174  1.7128 -0.8907  2.0340
   27MOL0     H 3702  13.667   5.068  10.200 -1.8457  0.1614  1.5424
   27MOL0     H 3703  13.688   4.955  10.061  0.3487 -2.6870  0.6871
   27MOL0     H 3704  13.605   4.780  10.243 -2.0629  1.1934  1.2329
   27MOL0     H 3705  13.646   4.900  10.364  1.6071  1.1808  0.5322
   27MOL0     H 3706  12.899   5.506  10.142 -1.3538  1.3507 -1.1053
   27MOL0     H 3707  12.661   5.580  10.202 -0.2726 -0.6467  0.2132
   27MOL0     H 3708  12.189   5.422   9.929 -1.0935  0.6396 -0.9587
   27MOL0     H 3709  11.945   5.466   9.942 -0.0298  0.8153 -0.1269
   27MOL0     H 3710  10.407   5.883   9.874  1.7738  1.4666  3.7634
   27MOL0     H 3711  10.335   5.731   9.664  0.2066 -1.4044 -0.4329
   27MOL0     H 3712  10.195   5.358   9.503  0.6577 -0.8622  0.8500
   27MOL0     H 3713  10.090   5.193   9.365 -0.3457 -0.1927 -0.2597
   27MOL0     H 3714  10.335   4.852   9.249  0.0490  3.3498  1.1784
   27MOL0     H 3715  10.210   4.824   9.121 -1.2215 -0.4363  2.0000
   27MOL0     H 3716  10.409   4.962   9.017 -1.6291 -1.0329 -2.1996
   27MOL0     H 3717  10.355   5.089   9.134 -2.3848  0.2474  1.1454
   27MOL0     H 3718  10.194   4.956   8.909 -3.8085  1.7183 -0.5712
   27MOL0     H 3719  10.129   5.074   9.023  0.6005  1.4269 -0.7028
   27MOL0     H 3720  10.208   5.173   8.794  0.8845  0.9949 -0.6433
   27MOL0     H 3721  10.366   5.105   8.833  1.1080 -0.4666  0.3105
   27MOL0     H 3722  10.416   5.471   8.999  0.6712 -0.6473  2.2407
   27MOL0     H 3723  10.435   4.959   9.388 -0.7686 -0.6541  1.3974
   27MOL0     H 3724  10.666   5.191   9.536  0.3800  0.2110 -0.3163
   27MOL0     H 3725  10.603   5.103   9.660  3.0239  1.2856 -0.5032
   27MOL0     H 3726  10.619   5.016   9.504  0.7695  0.5399  1.2674
   28MOL0     O 3727   8.496   7.048   1.979  0.2501  0.2963  0.4201
   28MOL0     C 3728   8.516   6.927   1.995 -0.2392  0.2521  0.5108
   28MOL0     O 3729   8.631   6.866   1.975 -0.0117 -0.5672 -0.2114
   28MOL0     C 3730   8.749   6.942   1.982  0.1619  0.6467  0.3897
   28MOL0     C 3731   8.799   7.014   2.090  0.1686  0.5988 -0.1819
   28MOL0     C 3732   8.930   7.062   2.096 -0.3375 -0.1427 -0.1016
   28MOL0     C 3733   9.019   7.041   1.985 -0.2298 -0.9215 -0.1167
   28MOL0     O 3734   9.147   7.102   1.989 -0.0071  0.3830  0.3852
   28MOL0     C 3735   9.217   7.109   2.117 -0.1950 -0.2844  0.4244
   28MOL0     C 3736   9.367   7.133   2.087 -0.1349  0.4093 -0.5593
   28MOL0     C 3737   9.421   7.030   1.985  0.0115  0.3977  0.2970
   28MOL0     C 3738   9.576   7.050   1.953  0.2016 -0.2392  0.1867
   28MOL0     C 3739   9.638   6.964   1.839 -0.2107  0.2196  0.2269
   28MOL0     C 3740   9.793   6.970   1.840  0.5513 -0.5386  0.2528
   28MOL0     C 3741   9.854   6.845   1.768 -0.2960 -0.0056  0.3529
   28MOL0     C 3742  10.005   6.852   1.774 -0.2603 -0.0792  0.0368
   28MOL0     N 3743  10.062   6.722   1.727  0.1589 -0.2005 -0.4028
   28MOL0     C 3744  10.034   6.600   1.779  0.2290  0.3481 -0.5317
   28MOL0     C 3745  10.097   6.511   1.694  0.1309 -0.2881  0.0702
   28MOL0     C 3746  10.096   6.364   1.709  0.4962 -0.2166 -0.4313
   28MOL0     C 3747  10.238   6.318   1.673  0.4759  0.2202  0.1399
   28MOL0     C 3748  10.237   6.268   1.524 -0.5097 -0.2665  0.4731
   28MOL0     C 3749  10.370   6.220   1.476  0.0799  0.0610 -0.1859
   28MOL0     O 3750  10.439   6.124   1.557  0.6395  0.0457  0.2551
   28MOL0     C 3751  10.574   6.116   1.535 -0.0473 -0.4873  0.2488
   28MOL0     C 3752  10.638   6.023   1.614  0.0577 -0.1259 -0.2268
   28MOL0     C 3753  10.776   5.996   1.607  0.8714  0.3636 -0.3663
   28MOL0     C 3754  10.831   5.881   1.684  0.0838 -0.7948 -0.5128
   28MOL0     C 3755  10.858   6.070   1.521  0.1861 -0.0470 -0.3129
   28MOL0     C 3756  11.010   6.065   1.512  0.2556 -0.7195 -0.4651
   28MOL0     O 3757  11.059   6.062   1.386  0.3801  0.8492  0.1309
   28MOL0     C 3758  11.189   6.034   1.367  0.1587  0.8045  0.6616
   28MOL0     C 3759  11.240   6.074   1.244 -0.4665 -0.5061 -0.1645
   28MOL0     C 3760  11.358   6.025   1.189  0.3881  0.0628 -0.8560
   28MOL0     C 3761  11.437   5.938   1.267 -0.2442 -0.1938  0.1810
   28MOL0     O 3762  11.552   5.915   1.197  0.7597 -0.2638 -0.4601
   28MOL0     C 3763  11.633   5.802   1.238 -0.6042 -0.6460  0.0129
   28MOL0     C 3764  11.606   5.685   1.164  0.1742  0.0696  0.0565
   28MOL0     C 3765  11.488   5.604   1.208  0.2703  0.3983  0.2175
   28MOL0     C 3766  11.500   5.461   1.138 -0.4903 -0.8527 -0.8487
   28MOL0     C 3767  11.364   5.384   1.163  0.4024 -0.1891  0.3964
   28MOL0     C 3768  11.376   5.320   1.303  0.7260 -0.1323  0.4282
   28MOL0     C 3769  11.245   5.274   1.363 -0.3730  0.5001 -0.3233
   28MOL0     C 3770  11.187   5.138   1.323 -0.5128 -0.0447  1.0199
   28MOL0    Cl 3771  11.028   5.111   1.407 -0.0057  0.1346  0.4458
   28MOL0     C 3772  11.394   5.899   1.397 -0.6273 -0.0603  0.0784
   28MOL0     C 3773  11.272   5.944   1.447  0.2198 -0.1514  0.8050
   28MOL0     O 3774  11.078   6.073   1.612 -0.5795  0.7909 -0.0838
   28MOL0     C 3775  10.791   6.164   1.432 -0.2061  0.3443  0.6354
   28MOL0     C 3776  10.653   6.188   1.444  0.0408 -0.0204 -0.1585
   28MOL0     N 3777  10.172   6.585   1.602 -1.1404 -0.4237  0.2914
   28MOL0     N 3778  10.145   6.706   1.626 -0.3639  0.1816  0.4119
   28MOL0     C 3779   8.976   6.960   1.879  0.0068  0.1702 -0.3706
   28MOL0     C 3780   8.840   6.920   1.878  0.0017  0.3436  0.2560
   28MOL0     C 3781   8.412   6.837   2.043 -0.7656 -0.5813  0.8763
   28MOL0     C 3782   8.425   6.702   2.003  0.0893  0.1771  0.1536
   28MOL0     C 3783   8.324   6.608   1.997  0.5711 -0.3643 -1.0425
   28MOL0     C 3784   8.197   6.656   2.037  0.4807 -0.7251  0.8509
   28MOL0     O 3785   8.072   6.592   2.031 -0.1484  0.2997 -0.0991
   28MOL0     C 3786   8.068   6.446   2.030  1.0647  0.3958  0.4383
   28MOL0     C 3787   7.923   6.396   2.050 -0.8384 -0.1608  1.3992
   28MOL0     C 3788   7.888   6.417   2.192 -0.5535 -0.0739 -0.2128
   28MOL0     C 3789   7.745   6.397   2.208 -0.2131 -0.0289  0.3307
   28MOL0     C 3790   7.692   6.411   2.344  0.2055  0.4465 -0.1320
   28MOL0     C 3791   7.638   6.415   2.451  0.2513  0.4318  0.2990
   28MOL0     C 3792   8.182   6.784   2.095 -0.3662 -0.5872  0.3450
   28MOL0     C 3793   8.286   6.878   2.099  0.7239 -0.0151  0.4782
   28MOL0     C 3794   8.272   7.021   2.159  1.1016 -0.2830 -0.3399
   28MOL0     H 3795   8.734   7.033   2.175 -2.6069  0.2967 -2.0798
   28MOL0     H 3796   8.966   7.106   2.188 -1.7503  1.1680 -0.1354
   28MOL0     H 3797   9.222   7.016   2.175  0.9392  0.3592  1.4100
   28MOL0     H 3798   9.188   7.187   2.188  3.7671  0.7940  1.1372
   28MOL0     H 3799   9.376   7.238   2.060 -5.3054  1.0050 -0.9260
   28MOL0     H 3800   9.420   7.120   2.182 -3.3585  3.4685  1.9194
   28MOL0     H 3801   9.402   6.928   2.020  1.7672 -0.1587 -0.2802
   28MOL0     H 3802   9.370   7.042   1.889  2.3483  4.1959 -0.6808
   28MOL0     H 3803   9.587   7.157   1.932  2.5031 -0.6837 -1.3264
   28MOL0     H 3804   9.637   7.047   2.044  0.7853  1.8135 -0.0780
   28MOL0     H 3805   9.606   6.991   1.738  0.8908 -0.6534 -0.3751
   28MOL0     H 3806   9.601   6.863   1.859  0.6236 -0.2710 -0.6262
   28MOL0     H 3807   9.820   7.064   1.791 -1.5928  0.8760  1.5965
   28MOL0     H 3808   9.823   6.973   1.945  3.9893 -1.4663 -0.5917
   28MOL0     H 3809   9.811   6.856   1.669  1.1507 -0.9177 -0.4120
   28MOL0     H 3810   9.819   6.760   1.827  3.7716 -2.6778 -0.7011
   28MOL0     H 3811  10.047   6.934   1.715 -2.2695 -0.5358 -2.1986
   28MOL0     H 3812  10.028   6.864   1.880  0.3569 -1.2979  0.0678
   28MOL0     H 3813   9.967   6.563   1.856  1.6833 -1.5795 -0.0917
   28MOL0     H 3814  10.019   6.327   1.641 -2.0593  0.4569  1.8934
   28MOL0     H 3815  10.079   6.330   1.812 -1.2325 -0.9249 -0.9132
   28MOL0     H 3816  10.314   6.391   1.700  1.6668 -1.3335  1.1658
   28MOL0     H 3817  10.264   6.232   1.735  1.0777 -1.2787 -2.0891
   28MOL0     H 3818  10.171   6.181   1.519  0.0242 -0.6275 -0.4921
   28MOL0     H 3819  10.200   6.343   1.454  2.0495 -0.0557 -0.7487
   28MOL0     H 3820  10.349   6.179   1.377  0.9992 -1.6181  0.2632
   28MOL0     H 3821  10.420   6.316   1.465  0.7019  0.0235  1.9075
   28MOL0     H 3822  10.567   5.962   1.670 -1.6292  0.0390 -2.0868
   28MOL0     H 3823  10.835   5.901   1.792 -1.3492  0.5929 -0.6855
   28MOL0     H 3824  10.934   5.854   1.659  0.1981 -1.0014  0.1688
   28MOL0     H 3825  10.781   5.784   1.679  0.8326 -1.1593 -1.1183
   28MOL0     H 3826  11.173   6.135   1.184 -0.8665 -1.6513 -0.9232
   28MOL0     H 3827  11.393   6.068   1.096  1.5627 -0.0831 -0.5010
   28MOL0     H 3828  11.730   5.840   1.206 -1.1243  1.0631  0.3143
   28MOL0     H 3829  11.636   5.780   1.345  2.8026 -1.9022 -0.2325
   28MOL0     H 3830  11.583   5.724   1.064  2.7471 -0.8798 -0.9877
   28MOL0     H 3831  11.700   5.630   1.157  0.2917  0.1473  0.9406
   28MOL0     H 3832  11.395   5.661   1.197  0.8070  1.5316  1.2562
   28MOL0     H 3833  11.499   5.589   1.316  1.5861  2.1503  0.3748
   28MOL0     H 3834  11.590   5.410   1.173 -0.0094  1.1668  1.0951
   28MOL0     H 3835  11.522   5.464   1.031  1.3546 -1.6007 -0.5358
   28MOL0     H 3836  11.277   5.448   1.152  0.3049 -0.4128 -0.1311
   28MOL0     H 3837  11.351   5.315   1.079 -0.0449  1.0758 -0.5964
   28MOL0     H 3838  11.415   5.389   1.379 -2.5724  1.5364  0.7759
   28MOL0     H 3839  11.433   5.227   1.301 -0.9397 -1.2967  2.8864
   28MOL0     H 3840  11.169   5.353   1.361 -0.9544 -0.0372  0.0952
   28MOL0     H 3841  11.271   5.264   1.469  1.3384  0.1375 -0.7545
   28MOL0     H 3842  11.263   5.060   1.330  1.4483  1.4746 -1.4953
   28MOL0     H 3843  11.167   5.142   1.215  2.3163 -0.5120  0.4000
   28MOL0     H 3844  11.453   5.835   1.461 -1.6386 -2.0905 -0.9089
   28MOL0     H 3845  11.248   5.905   1.545 -0.4352  1.6656  1.4246
   28MOL0     H 3846  10.842   6.222   1.356 -1.2764  2.3624  1.3784
   28MOL0     H 3847  10.610   6.275   1.395  0.9374  1.5094  1.6229
   28MOL0     H 3848   9.045   6.930   1.801 -2.8259  0.0817 -3.0332
   28MOL0     H 3849   8.805   6.846   1.806 -1.4140 -1.5140  2.6895
   28MOL0     H 3850   8.515   6.655   1.964 -2.3064 -2.6490 -2.3886
   28MOL0     H 3851   8.336   6.509   1.954 -1.5410 -0.8237 -0.6898
   28MOL0     H 3852   8.097   6.409   1.931 -1.8688  1.5913 -0.9941
   28MOL0     H 3853   8.144   6.401   2.095  0.7544 -2.7577 -1.1905
   28MOL0     H 3854   7.911   6.292   2.018 -3.4269  0.7257 -0.9351
   28MOL0     H 3855   7.860   6.448   1.977  1.0784 -1.6912 -1.5767
   28MOL0     H 3856   7.948   6.352   2.256  0.0366  0.3239 -0.3510
   28MOL0     H 3857   7.921   6.518   2.218  4.9639 -0.5735 -3.6190
   28MOL0     H 3858   7.720   6.294   2.182  0.6943 -0.2042  0.1106
   28MOL0     H 3859   7.698   6.467   2.138  2.1573  0.5666 -0.7628
   28MOL0     H 3860   7.584   6.419   2.544 -1.7207  1.6445 -0.8222
   28MOL0     H 3861   8.087   6.813   2.139 -0.8877 -1.6574 -0.0231
   28MOL0     H 3862   8.258   7.095   2.080 -2.4503  0.3581  0.7289
   28MOL0     H 3863   8.186   7.029   2.225 -0.3582  0.0416 -2.1856
   28MOL0     H 3864   8.362   7.050   2.214  0.7599 -2.2370  1.3729
   29MOL0     O 3865   0.517   4.144   2.728 -0.0781  0.0698 -0.2796
   29MOL0     C 3866   0.514   4.073   2.832 -0.0062 -0.3038  1.2203
   29MOL0     O 3867   0.601   3.967   2.851  0.3763 -0.1144  0.6018
   29MOL0     C 3868   0.715   3.958   2.765  0.4631 -0.2375  0.5135
   29MOL0     C 3869   0.749   3.842   2.690  0.3100  0.3579 -1.5029
   29MOL0     C 3870   0.879   3.835   2.630 -0.1761  0.3309 -0.3070
   29MOL0     C 3871   0.967   3.938   2.633  0.1446 -1.0047  0.5903
   29MOL0     O 3872   1.098   3.932   2.577  0.2856 -0.1653  0.3690
   29MOL0     C 3873   1.195   3.872   2.668  0.0562 -0.4099 -0.7957
   29MOL0     C 3874   1.302   3.788   2.601 -1.3132 -0.6446  0.6546
   29MOL0     C 3875   1.393   3.872   2.500 -1.2949 -0.4178 -0.0708
   29MOL0     C 3876   1.499   3.784   2.429  0.2167  0.1749  0.4600
   29MOL0     C 3877   1.631   3.790   2.516 -0.0618 -0.4100 -0.1606
   29MOL0     C 3878   1.741   3.728   2.427 -0.6338  0.6758 -0.4175
   29MOL0     C 3879   1.869   3.711   2.507  0.4553 -0.6349 -0.0748
   29MOL0     C 3880   1.943   3.840   2.563  0.7091 -0.2399 -0.3963
   29MOL0     N 3881   2.032   3.809   2.670  0.2196 -0.2883 -0.5322
   29MOL0     C 3882   1.992   3.791   2.804  1.1127 -0.4496 -0.3971
   29MOL0     C 3883   2.113   3.801   2.869 -0.3901 -0.2914  0.4267
   29MOL0     C 3884   2.126   3.783   3.016 -0.1409 -0.3932  0.0378
   29MOL0     C 3885   2.163   3.649   3.057 -0.2098  0.3460 -0.0249
   29MOL0     C 3886   2.216   3.650   3.200 -0.1092 -0.6549 -0.2076
   29MOL0     C 3887   2.239   3.501   3.242  0.3025 -0.5502  0.6593
   29MOL0     O 3888   2.315   3.420   3.166 -0.5920  0.8247  0.7057
   29MOL0     C 3889   2.451   3.415   3.186 -0.1036  0.3834 -0.1889
   29MOL0     C 3890   2.529   3.348   3.090 -0.3625  0.2252 -0.0930
   29MOL0     C 3891   2.672   3.355   3.092  0.4710  0.2926  0.0981
   29MOL0     C 3892   2.739   3.286   2.967 -0.1775  0.4030 -0.7196
   29MOL0     C 3893   2.738   3.404   3.209  0.0015  0.3775 -0.8968
   29MOL0     C 3894   2.881   3.394   3.237  0.4161 -0.4220  1.1798
   29MOL0     O 3895   2.921   3.477   3.326  0.2818 -0.8615 -0.9210
   29MOL0     C 3896   3.055   3.482   3.359  0.0939  0.0072  0.4464
   29MOL0     C 3897   3.130   3.598   3.334  0.1882 -0.3243  0.2635
   29MOL0     C 3898   3.265   3.607   3.347  0.2305  0.6464 -0.1456
   29MOL0     C 3899   3.332   3.497   3.413 -0.2535 -0.5908  0.4464
   29MOL0     O 3900   3.470   3.493   3.426  0.4780 -0.5817  0.2689
   29MOL0     C 3901   3.542   3.612   3.432 -0.3509  0.0400  0.0428
   29MOL0     C 3902   3.687   3.573   3.459  0.3200 -0.8640 -0.1718
   29MOL0     C 3903   3.789   3.662   3.392  0.8263  0.1493 -0.2755
   29MOL0     C 3904   3.936   3.647   3.439  0.8508 -0.4088 -0.3931
   29MOL0     C 3905   4.015   3.758   3.373 -0.2015  0.7201  0.2159
   29MOL0     C 3906   4.172   3.742   3.394  0.4307  0.5816  0.4654
   29MOL0     C 3907   4.246   3.842   3.301 -0.0110  0.1139 -0.4998
   29MOL0     C 3908   4.398   3.833   3.336  0.3828 -0.5578 -0.4255
   29MOL0    Cl 3909   4.410   3.911   3.506 -0.0763 -0.0671  0.0231
   29MOL0     C 3910   3.260   3.382   3.440 -0.2616  0.3738  0.0159
   29MOL0     C 3911   3.124   3.372   3.414 -0.2169 -0.3269  0.4339
   29MOL0     O 3912   2.955   3.316   3.170  0.0177 -0.1478 -0.5177
   29MOL0     C 3913   2.657   3.467   3.305 -0.0929 -0.5149 -0.2350
   29MOL0     C 3914   2.520   3.476   3.289 -0.4568 -0.7778 -0.4721
   29MOL0     N 3915   2.219   3.800   2.774  0.8505 -0.2822 -0.4721
   29MOL0     N 3916   2.165   3.812   2.660 -0.3716 -0.2282 -0.1591
   29MOL0     C 3917   0.929   4.060   2.696 -0.7004  0.5089  0.4467
   29MOL0     C 3918   0.807   4.070   2.766  0.6467  1.3363  0.5980
   29MOL0     C 3919   0.406   4.076   2.933  0.8406  0.1573  0.2268
   29MOL0     C 3920   0.371   3.963   3.008  0.3810  0.0642  0.7833
   29MOL0     C 3921   0.255   3.957   3.087  0.3545  1.5120 -0.2881
   29MOL0     C 3922   0.180   4.067   3.113  0.4886 -0.2558  0.2781
   29MOL0     O 3923   0.077   4.057   3.206 -0.6721 -0.0485  0.4514
   29MOL0     C 3924  -0.015   4.163   3.235 -0.4318  0.0401 -0.0210
   29MOL0     C 3925  -0.117   4.131   3.339  0.2446 -0.1519 -0.2849
   29MOL0     C 3926  -0.052   4.103   3.474 -0.5341  0.4133  0.6545
   29MOL0     C 3927   0.073   4.184   3.518  0.0605 -0.3743 -0.3293
   29MOL0     C 3928   0.045   4.328   3.545 -0.2475 -0.2962 -0.1923
   29MOL0     C 3929   0.036   4.444   3.572  0.0015 -0.2336  1.4321
   29MOL0     C 3930   0.219   4.183   3.045 -0.6324  0.3046  0.5524
   29MOL0     C 3931   0.321   4.187   2.947  1.1323 -0.3501 -0.2654
   29MOL0     C 3932   0.334   4.310   2.858 -0.2640 -0.3098  0.9672
   29MOL0     H 3933   0.681   3.758   2.702  0.1876  0.8354  2.7731
   29MOL0     H 3934   0.909   3.737   2.593  0.5865  0.5921 -0.3878
   29MOL0     H 3935   1.150   3.812   2.748  0.8374  3.6717  3.1199
   29MOL0     H 3936   1.239   3.963   2.711 -1.8171 -0.0363  0.4704
   29MOL0     H 3937   1.379   3.743   2.665 -0.0277  1.4800  0.7286
   29MOL0     H 3938   1.251   3.713   2.541 -2.3773  2.9796 -3.5322
   29MOL0     H 3939   1.327   3.925   2.430 -3.1927  0.4181  2.1958
   29MOL0     H 3940   1.441   3.950   2.561 -0.9515 -1.8029  1.4926
   29MOL0     H 3941   1.470   3.679   2.421  0.8465  0.0951 -1.2510
   29MOL0     H 3942   1.517   3.821   2.328 -2.1109 -0.6517 -0.2962
   29MOL0     H 3943   1.617   3.729   2.606  2.7336 -2.0832 -0.7255
   29MOL0     H 3944   1.660   3.895   2.529  0.4368 -0.7950  2.2274
   29MOL0     H 3945   1.710   3.625   2.407 -0.1831  0.6620 -1.0354
   29MOL0     H 3946   1.762   3.797   2.345  0.6180  0.6345 -0.1552
   29MOL0     H 3947   1.948   3.663   2.449  0.7432 -0.6860  0.3545
   29MOL0     H 3948   1.852   3.643   2.591  0.7099 -2.5411 -1.5117
   29MOL0     H 3949   1.985   3.902   2.483 -0.5389  0.9759 -0.1342
   29MOL0     H 3950   1.870   3.903   2.614  1.7918 -0.0825  1.0451
   29MOL0     H 3951   1.900   3.777   2.859  1.6855 -1.2580  0.3777
   29MOL0     H 3952   2.042   3.811   3.081  0.9287 -0.6667  1.5937
   29MOL0     H 3953   2.202   3.856   3.048 -0.4170  0.0736 -0.3545
   29MOL0     H 3954   2.083   3.578   3.032 -0.6526  0.8872 -0.1671
   29MOL0     H 3955   2.246   3.625   2.990 -0.6655 -1.9226  0.1473
   29MOL0     H 3956   2.315   3.696   3.205 -0.6351  0.5524 -0.5955
   29MOL0     H 3957   2.154   3.689   3.281 -0.8966 -2.6852  0.2377
   29MOL0     H 3958   2.268   3.506   3.347  1.8964  0.0720  0.2276
   29MOL0     H 3959   2.141   3.452   3.237  0.4848 -0.8696 -3.7666
   29MOL0     H 3960   2.478   3.294   3.011  3.2656 -0.1793 -2.3954
   29MOL0     H 3961   2.819   3.218   2.999  1.2690  1.5418 -1.7788
   29MOL0     H 3962   2.781   3.364   2.904 -1.3688  4.2942  2.8564
   29MOL0     H 3963   2.673   3.222   2.909  0.3898 -0.8855 -0.0123
   29MOL0     H 3964   3.065   3.674   3.291  0.9919 -0.8488 -2.0326
   29MOL0     H 3965   3.313   3.692   3.299 -1.1083  1.0503 -0.8274
   29MOL0     H 3966   3.534   3.659   3.334 -1.0027 -0.8641 -0.3538
   29MOL0     H 3967   3.492   3.674   3.508 -0.1153 -1.4279  1.4387
   29MOL0     H 3968   3.702   3.580   3.567  1.9978  1.2064 -0.4794
   29MOL0     H 3969   3.702   3.466   3.439 -0.0375 -1.0298  0.4325
   29MOL0     H 3970   3.758   3.766   3.408  0.0793  1.0394 -5.5698
   29MOL0     H 3971   3.781   3.648   3.284 -0.0558 -0.0510 -0.1939
   29MOL0     H 3972   3.970   3.551   3.401  2.0714  0.0997 -0.6238
   29MOL0     H 3973   3.937   3.659   3.548  1.5238  2.3243 -0.6344
   29MOL0     H 3974   4.007   3.772   3.264  1.8518  0.9543  0.0580
   29MOL0     H 3975   3.976   3.850   3.417 -1.4433 -0.2963  1.3318
   29MOL0     H 3976   4.208   3.642   3.368 -2.5039 -0.4907  0.1249
   29MOL0     H 3977   4.199   3.743   3.500 -0.0215  0.9725  0.5798
   29MOL0     H 3978   4.206   3.943   3.315  1.8896  0.7959  0.4315
   29MOL0     H 3979   4.224   3.806   3.200  2.2288 -3.1575 -0.0132
   29MOL0     H 3980   4.445   3.908   3.271 -1.6280  1.2187  0.0426
   29MOL0     H 3981   4.443   3.734   3.327 -1.1033 -1.4910  1.7071
   29MOL0     H 3982   3.314   3.290   3.463  1.3604  1.0274 -0.9757
   29MOL0     H 3983   3.074   3.278   3.436  1.3553 -1.3717 -0.3253
   29MOL0     H 3984   2.689   3.521   3.394  0.8742  0.3438 -1.0749
   29MOL0     H 3985   2.467   3.545   3.354  0.1929  0.2614 -1.0128
   29MOL0     H 3986   1.001   4.141   2.704 -0.8562  0.6892  0.0737
   29MOL0     H 3987   0.782   4.157   2.825 -3.2428  0.7898  0.0088
   29MOL0     H 3988   0.425   3.869   3.016 -1.3764 -0.8977  2.0321
   29MOL0     H 3989   0.219   3.866   3.133 -0.5524  0.8952 -2.1020
   29MOL0     H 3990   0.030   4.258   3.264 -1.4383 -0.1180  2.3125
   29MOL0     H 3991  -0.060   4.190   3.139  0.7681  3.4980  0.2545
   29MOL0     H 3992  -0.178   4.045   3.310 -3.0035  1.0844  2.2389
   29MOL0     H 3993  -0.197   4.206   3.349 -2.1208 -2.4725 -0.6169
   29MOL0     H 3994  -0.134   4.106   3.546 -0.5205  0.1120  0.6813
   29MOL0     H 3995  -0.007   4.004   3.468 -0.1731  0.6442 -1.1054
   29MOL0     H 3996   0.156   4.191   3.447 -2.5029 -0.3694 -3.5261
   29MOL0     H 3997   0.114   4.136   3.607  0.3383  1.4176  0.5532
   29MOL0     H 3998   0.040   4.549   3.591  3.3081 -0.0106  0.0705
   29MOL0     H 3999   0.162   4.276   3.053  1.5967  1.6003  2.5333
   29MOL0     H 4000   0.293   4.298   2.757  0.2979 -0.1748  0.7175
   29MOL0     H 4001   0.265   4.386   2.897 -1.5553  0.8918 -3.0986
   29MOL0     H 4002   0.438   4.343   2.851  0.5451 -2.9507 -2.2147
   30MOL0     O 4003   0.771   8.940  10.760  0.5079 -0.1577 -0.2124
   30MOL0     C 4004   0.787   8.820  10.775  0.1837 -0.6917  0.0594
   30MOL0     O 4005   0.901   8.760  10.818  0.4282 -0.2578 -0.0294
   30MOL0     C 4006   1.013   8.840  10.855  0.2284 -0.1181  0.0056
   30MOL0     C 4007   1.028   8.977  10.885  0.2568  0.3293 -1.1131
   30MOL0     C 4008   1.153   9.041  10.901 -0.8775  0.1081  1.0971
   30MOL0     C 4009   1.273   8.968  10.895  0.1725 -0.6507  0.7997
   30MOL0     O 4010   1.394   9.031  10.911  0.5638  0.5885 -0.4131
   30MOL0     C 4011   1.512   8.949  10.912  0.4747  0.1360  0.1830
   30MOL0     C 4012   1.625   9.023  10.973  0.1244  0.0174 -0.4888
   30MOL0     C 4013   1.591   9.054  11.118  0.6575 -0.8989 -0.0904
   30MOL0     C 4014   1.691   9.153  11.183 -0.7936 -0.9118  0.5876
   30MOL0     C 4015   1.675   9.300  11.132  0.3563  0.0581  0.6491
   30MOL0     C 4016   1.767   9.402  11.202  0.3643  0.4972  0.0322
   30MOL0     C 4017   1.728   9.429  11.352  0.1452  0.1450 -0.2301
   30MOL0     C 4018   1.812   9.542  11.405 -0.3376  0.1169 -0.4970
   30MOL0     N 4019   1.938   9.490  11.459 -0.0844  0.1590  0.0267
   30MOL0     C 4020   1.958   9.446  11.588  0.0531 -0.3211  1.0441
   30MOL0     C 4021   2.082   9.389  11.575 -0.1319  0.7716  0.0399
   30MOL0     C 4022   2.150   9.305  11.681 -0.0610  0.9177  0.1239
   30MOL0     C 4023   2.126   9.154  11.677  0.5833  0.0465 -0.9400
   30MOL0     C 4024   2.197   9.069  11.784 -0.4259 -0.3389 -0.4397
   30MOL0     C 4025   2.353   9.110  11.787 -0.6598  0.9772 -0.5057
   30MOL0     O 4026   2.405   8.997  11.873  0.0152 -0.3206  0.9719
   30MOL0     C 4027   2.540   8.980  11.884  0.3039 -0.5394  0.3352
   30MOL0     C 4028   2.585   8.867  11.942 -0.3509  0.5050 -0.5287
   30MOL0     C 4029   2.718   8.824  11.936  0.1753  0.8069  0.9231
   30MOL0     C 4030   2.764   8.690  11.997 -0.0479  1.1265  0.2372
   30MOL0     C 4031   2.812   8.923  11.873  0.4220 -0.0559 -0.3180
   30MOL0     C 4032   2.954   8.895  11.849 -0.5742 -0.3600 -0.4201
   30MOL0     O 4033   3.010   8.962  11.740  0.0495  0.6440 -0.0744
   30MOL0     C 4034   3.140   8.928  11.715 -0.4381 -0.1399 -0.5153
   30MOL0     C 4035   3.241   8.994  11.781 -1.0839  0.5619 -0.1287
   30MOL0     C 4036   3.383   8.966  11.769  0.3423  0.9151  0.7883
   30MOL0     C 4037   3.419   8.874  11.673 -0.9244  0.0256  0.0999
   30MOL0     O 4038   3.552   8.838  11.643 -0.1032  0.1608 -0.3129
   30MOL0     C 4039   3.659   8.893  11.719 -0.2420  0.1016 -0.2838
   30MOL0     C 4040   3.788   8.822  11.678  0.5866 -0.3184 -0.0671
   30MOL0     C 4041   3.916   8.886  11.723 -0.5009 -0.1172 -0.8128
   30MOL0     C 4042   4.041   8.826  11.650 -1.2359 -0.0410  0.2265
   30MOL0     C 4043   4.166   8.917  11.673 -0.0288 -0.5117 -0.3601
   30MOL0     C 4044   4.209   8.936  11.824  0.4167 -0.7420 -1.5706
   30MOL0     C 4045   4.341   9.012  11.851 -0.0977 -0.0295 -0.2884
   30MOL0     C 4046   4.345   9.148  11.778  0.1259  0.9655 -0.1397
   30MOL0    Cl 4047   4.201   9.246  11.827 -0.1023 -0.1087  0.1198
   30MOL0     C 4048   3.318   8.805  11.603  0.2311  0.3446 -0.0340
   30MOL0     C 4049   3.179   8.835  11.624 -0.0395  0.3771 -0.0031
   30MOL0     O 4050   3.011   8.803  11.918  0.0479 -0.7858 -0.3996
   30MOL0     C 4051   2.764   9.046  11.825  0.1193  0.4919 -0.7050
   30MOL0     C 4052   2.631   9.081  11.842  0.3765  0.4925  0.2071
   30MOL0     N 4053   2.134   9.408  11.449 -0.3540  0.4409  0.5863
   30MOL0     N 4054   2.044   9.465  11.376  0.3564 -0.2203  0.0788
   30MOL0     C 4055   1.262   8.827  10.868 -0.3146  0.0709 -1.1627
   30MOL0     C 4056   1.130   8.765  10.858  0.3310 -0.9424 -0.1203
   30MOL0     C 4057   0.672   8.726  10.762  0.9404  0.4242  0.0666
   30MOL0     C 4058   0.694   8.609  10.685 -0.0798  0.0730  0.0414
   30MOL0     C 4059   0.600   8.510  10.669 -0.2084  0.0538  0.5061
   30MOL0     C 4060   0.473   8.524  10.732  0.3285  0.0395  0.3087
   30MOL0     O 4061   0.376   8.423  10.715 -0.4953  0.3126 -0.4734
   30MOL0     C 4062   0.347   8.428  10.576 -0.5294  0.4455  0.5332
   30MOL0     C 4063   0.212   8.368  10.556  0.5562 -0.8123 -0.5819
   30MOL0     C 4064   0.091   8.462  10.577 -0.2542  0.1437 -0.2954
   30MOL0     C 4065   0.093   8.556  10.697 -0.7917 -0.4704  0.4321
   30MOL0     C 4066  -0.039   8.619  10.698  0.1352 -0.9056 -0.3196
   30MOL0     C 4067  -0.142   8.679  10.707  0.1345  0.0144  0.1330
   30MOL0     C 4068   0.442   8.642  10.796  0.0247 -0.6369 -0.0973
   30MOL0     C 4069   0.538   8.748  10.811 -0.1082  0.3378  0.3073
   30MOL0     C 4070   0.495   8.864  10.900  0.1786  0.2426  0.7114
   30MOL0     H 4071   0.933   9.028  10.902 -0.1933 -1.1540  1.4356
   30MOL0     H 4072   1.147   9.148  10.914  1.7085  0.2453  1.7383
   30MOL0     H 4073   1.537   8.903  10.815 -4.0956 -0.5200 -0.9026
   30MOL0     H 4074   1.480   8.865  10.973 -1.5909  2.4059  2.4218
   30MOL0     H 4075   1.698   8.942  10.969  0.2160  0.1318 -1.2363
   30MOL0     H 4076   1.656   9.113  10.921 -0.5262  0.9247  0.6325
   30MOL0     H 4077   1.494   9.104  11.113  0.9417 -0.3946 -0.6166
   30MOL0     H 4078   1.579   8.961  11.174  0.3192  0.8814  3.0236
   30MOL0     H 4079   1.664   9.168  11.288  0.9193  3.1710  0.6367
   30MOL0     H 4080   1.791   9.108  11.176 -0.5496 -0.3146  0.1752
   30MOL0     H 4081   1.570   9.331  11.135  0.9207  2.8158 -2.3515
   30MOL0     H 4082   1.702   9.300  11.026 -1.8871 -2.8849 -0.0719
   30MOL0     H 4083   1.870   9.365  11.194  0.3351 -0.2379  2.3714
   30MOL0     H 4084   1.765   9.497  11.148  0.0999  0.9311  0.8085
   30MOL0     H 4085   1.754   9.351  11.425 -0.7163  1.3249  1.3912
   30MOL0     H 4086   1.621   9.450  11.349 -0.7696 -3.6485  0.0142
   30MOL0     H 4087   1.832   9.618  11.329 -0.6032 -0.5581 -1.2656
   30MOL0     H 4088   1.761   9.580  11.494 -0.3873  2.4800 -1.4539
   30MOL0     H 4089   1.887   9.444  11.670 -2.1517  2.8604 -0.5464
   30MOL0     H 4090   2.111   9.343  11.775 -0.1935 -2.2289  1.4550
   30MOL0     H 4091   2.258   9.321  11.670  0.3817 -2.2670 -1.1352
   30MOL0     H 4092   2.021   9.124  11.681 -0.0930  2.1741 -1.2737
   30MOL0     H 4093   2.168   9.128  11.580  2.7867  2.3500 -0.7270
   30MOL0     H 4094   2.158   9.088  11.884  1.2555 -6.5666  1.8185
   30MOL0     H 4095   2.182   8.961  11.777 -0.3450 -0.5222  1.6134
   30MOL0     H 4096   2.394   9.104  11.686 -0.3645  0.6912 -0.3727
   30MOL0     H 4097   2.364   9.201  11.846 -0.6023 -1.3586  3.4233
   30MOL0     H 4098   2.516   8.795  11.984 -0.1908  0.6461 -0.0265
   30MOL0     H 4099   2.847   8.697  12.067 -2.3354 -0.0840  3.2607
   30MOL0     H 4100   2.797   8.622  11.918 -2.0254 -0.1955  0.4772
   30MOL0     H 4101   2.683   8.637  12.049  2.0426 -0.1772  2.3325
   30MOL0     H 4102   3.235   9.077  11.850 -3.2098  0.7184 -0.4458
   30MOL0     H 4103   3.465   9.017  11.820  1.0600  0.8751 -0.3110
   30MOL0     H 4104   3.673   9.001  11.711 -2.7317  0.5836  0.8752
   30MOL0     H 4105   3.634   8.872  11.823 -0.5278  1.4047 -0.0670
   30MOL0     H 4106   3.783   8.720  11.718  0.7030 -0.1466  0.3993
   30MOL0     H 4107   3.793   8.813  11.569 -2.1611 -1.4049 -0.1991
   30MOL0     H 4108   3.927   8.873  11.831 -0.1491  1.1106 -0.6817
   30MOL0     H 4109   3.908   8.994  11.708  1.0165  0.1422 -0.0040
   30MOL0     H 4110   4.012   8.824  11.544  0.9137 -0.6746 -0.3907
   30MOL0     H 4111   4.056   8.723  11.684  1.4058  0.6003  1.2506
   30MOL0     H 4112   4.242   8.865  11.614 -1.1505 -2.3756 -0.2655
   30MOL0     H 4113   4.156   9.013  11.622  0.0117 -0.5631 -0.4644
   30MOL0     H 4114   4.208   8.836  11.868 -0.5040 -0.1063 -0.0324
   30MOL0     H 4115   4.140   9.000  11.880  1.3966 -0.9135 -0.1301
   30MOL0     H 4116   4.417   8.939  11.820  2.2869  1.4155  1.7178
   30MOL0     H 4117   4.352   9.031  11.958  1.2422 -0.4164 -0.3328
   30MOL0     H 4118   4.356   9.133  11.671 -0.6309 -0.1744 -0.0635
   30MOL0     H 4119   4.432   9.211  11.801 -0.4859  1.2131  1.6408
   30MOL0     H 4120   3.339   8.721  11.538 -1.0040  0.9215 -1.2215
   30MOL0     H 4121   3.111   8.768  11.573  1.4481  0.4464 -2.1851
   30MOL0     H 4122   2.832   9.124  11.793  1.1838 -0.1984 -0.1904
   30MOL0     H 4123   2.598   9.181  11.815  0.9235  0.4408 -0.6758
   30MOL0     H 4124   1.349   8.763  10.856  0.4990  1.3317 -2.2686
   30MOL0     H 4125   1.133   8.659  10.838 -0.4203 -1.0951  0.5407
   30MOL0     H 4126   0.796   8.591  10.653 -0.1770  2.5493 -1.9882
   30MOL0     H 4127   0.626   8.429  10.601 -4.1523 -0.4483 -0.6284
   30MOL0     H 4128   0.344   8.534  10.547 -0.0354  0.4542  0.5042
   30MOL0     H 4129   0.428   8.380  10.520  1.9276  1.0484  3.3426
   30MOL0     H 4130   0.200   8.291  10.633 -0.9314 -1.1878 -1.1579
   30MOL0     H 4131   0.199   8.336  10.453 -2.4710  1.0785 -0.9019
   30MOL0     H 4132   0.082   8.528  10.489 -2.0430 -1.4085 -1.3559
   30MOL0     H 4133   0.000   8.401  10.574  0.5027 -0.9663 -1.7132
   30MOL0     H 4134   0.168   8.634  10.683  0.7220 -1.8989  0.2027
   30MOL0     H 4135   0.130   8.505  10.786  2.4988  0.8783 -0.0340
   30MOL0     H 4136  -0.235   8.731  10.705 -1.1954 -2.1261  1.9811
   30MOL0     H 4137   0.345   8.649  10.844  0.1764 -0.7321  0.2295
   30MOL0     H 4138   0.386   8.874  10.908  0.2561  0.8820  1.0669
   30MOL0     H 4139   0.543   8.851  10.997  0.7945  0.7107  0.4724
   30MOL0     H 4140   0.544   8.954  10.861 -1.1305  0.5710 -0.2862
   31MOL0     O 4141   1.225   7.376   2.782  0.4993  0.1981 -0.5972
   31MOL0     C 4142   1.120   7.424   2.732  0.3793  0.4033 -0.0618
   31MOL0     O 4143   1.115   7.528   2.647 -0.1716 -0.1003 -0.1578
   31MOL0     C 4144   1.220   7.622   2.646 -0.0600 -0.1700  1.0045
   31MOL0     C 4145   1.186   7.757   2.655 -0.6657 -0.3206  0.0587
   31MOL0     C 4146   1.292   7.854   2.639 -0.3150  0.0706 -0.4272
   31MOL0     C 4147   1.429   7.808   2.619  0.0572 -0.2542  0.6317
   31MOL0     O 4148   1.530   7.899   2.625  0.8627  0.5075 -0.6276
   31MOL0     C 4149   1.578   7.942   2.498 -0.2872  0.3772 -0.4550
   31MOL0     C 4150   1.729   7.932   2.502 -0.7992 -0.9015  1.3326
   31MOL0     C 4151   1.795   7.801   2.520  0.9845  0.1836  0.0679
   31MOL0     C 4152   1.941   7.824   2.575 -0.7349 -0.2071  0.0484
   31MOL0     C 4153   2.035   7.693   2.589  0.3847 -0.0983 -0.2483
   31MOL0     C 4154   2.011   7.620   2.715  0.6379  0.6471 -0.0479
   31MOL0     C 4155   2.068   7.481   2.705 -0.2703  1.0056 -0.7239
   31MOL0     C 4156   2.021   7.403   2.833 -0.3796 -0.2992  0.2562
   31MOL0     N 4157   2.076   7.269   2.846 -0.1067 -0.9384 -0.5522
   31MOL0     C 4158   2.204   7.242   2.865 -0.1484 -0.0628  0.1849
   31MOL0     C 4159   2.219   7.114   2.834 -0.2634 -0.2849  1.4638
   31MOL0     C 4160   2.349   7.039   2.837  0.2607 -0.4259  0.8687
   31MOL0     C 4161   2.357   6.965   2.967  0.2905  0.3333  0.2405
   31MOL0     C 4162   2.480   6.871   2.975 -0.3582  0.7251 -0.4991
   31MOL0     C 4163   2.614   6.927   2.927  0.9930  0.1203 -0.8362
   31MOL0     O 4164   2.704   6.827   2.966  0.5311 -0.1768 -0.8442
   31MOL0     C 4165   2.837   6.857   2.976  0.0329 -0.5464 -0.4458
   31MOL0     C 4166   2.896   6.972   2.916  0.5946  1.5343 -0.1511
   31MOL0     C 4167   3.031   7.006   2.939 -0.0170  0.4692 -0.4344
   31MOL0     C 4168   3.089   7.136   2.868  0.0126  1.2067 -1.5227
   31MOL0     C 4169   3.115   6.918   3.020  0.7487 -0.1080  0.5946
   31MOL0     C 4170   3.255   6.942   3.028 -0.9633 -0.4472  0.5847
   31MOL0     O 4171   3.296   7.073   3.048 -0.2402  0.4932  0.5152
   31MOL0     C 4172   3.428   7.107   3.091 -0.0890  1.2256  0.2529
   31MOL0     C 4173   3.501   7.036   3.189 -0.5440  0.1337 -0.0968
   31MOL0     C 4174   3.613   7.099   3.254 -0.2299  0.5176  0.6579
   31MOL0     C 4175   3.666   7.221   3.205 -0.1554 -0.4018  0.3369
   31MOL0     O 4176   3.772   7.299   3.251 -0.4593  0.6738  0.0620
   31MOL0     C 4177   3.818   7.259   3.383 -0.3033  0.4420  0.1359
   31MOL0     C 4178   3.941   7.342   3.417  0.8665  0.8818  0.3570
   31MOL0     C 4179   4.053   7.326   3.311  0.1686  0.0308  0.1393
   31MOL0     C 4180   4.175   7.420   3.329 -0.0112  0.5929  0.1591
   31MOL0     C 4181   4.297   7.400   3.237 -0.2781 -0.3333  0.1744
   31MOL0     C 4182   4.416   7.498   3.279  0.6304 -0.1485 -0.5723
   31MOL0     C 4183   4.529   7.476   3.183 -0.7847 -0.2879 -0.6575
   31MOL0     C 4184   4.651   7.570   3.210 -0.2401  0.3200  0.9938
   31MOL0    Cl 4185   4.630   7.736   3.138 -0.1005  0.0630  0.2439
   31MOL0     C 4186   3.590   7.286   3.100 -0.2882 -0.2780 -0.6195
   31MOL0     C 4187   3.472   7.229   3.044 -0.6872 -1.1245 -0.4214
   31MOL0     O 4188   3.331   6.844   3.020 -0.0350 -0.1773 -0.4549
   31MOL0     C 4189   3.055   6.811   3.082 -0.3315  0.2189  0.2221
   31MOL0     C 4190   2.919   6.786   3.067  0.5482 -1.0522  0.1775
   31MOL0     N 4191   2.089   7.064   2.813 -0.6417  0.4326 -0.5735
   31MOL0     N 4192   2.007   7.161   2.829 -0.2979  1.1452 -0.5874
   31MOL0     C 4193   1.453   7.671   2.619  0.7619  0.0328 -0.0855
   31MOL0     C 4194   1.355   7.579   2.627 -1.0039  0.2331 -0.0871
   31MOL0     C 4195   0.987   7.363   2.778 -0.1833  0.3494  0.0797
   31MOL0     C 4196   1.002   7.242   2.849 -0.7408  1.1080 -1.4048
   31MOL0     C 4197   0.896   7.182   2.901 -0.0553 -0.1868 -0.3336
   31MOL0     C 4198   0.770   7.243   2.897 -0.8835 -0.3327 -0.2150
   31MOL0     O 4199   0.663   7.177   2.955  0.1233  0.2731  0.0862
   31MOL0     C 4200   0.620   7.058   2.889  0.2467  0.4328  0.4906
   31MOL0     C 4201   0.540   7.088   2.759 -0.1975  0.7965 -0.6669
   31MOL0     C 4202   0.639   7.082   2.646 -0.0088 -0.9582 -0.2724
   31MOL0     C 4203   0.590   7.153   2.516  0.9883  0.1321 -0.7559
   31MOL0     C 4204   0.688   7.134   2.404 -0.2944  0.0121  0.6100
   31MOL0     C 4205   0.756   7.135   2.296 -1.4493  0.8422 -0.5503
   31MOL0     C 4206   0.752   7.364   2.833 -0.0813 -0.3536  1.0118
   31MOL0     C 4207   0.861   7.423   2.769  0.1608 -0.7180 -0.3248
   31MOL0     C 4208   0.839   7.576   2.729  1.1785  0.0017  0.5014
   31MOL0     H 4209   1.085   7.796   2.661 -0.9386 -0.4135 -2.6316
   31MOL0     H 4210   1.262   7.957   2.652  0.2067 -0.0022  1.9518
   31MOL0     H 4211   1.551   8.046   2.478 -1.8926  0.0767  0.0039
   31MOL0     H 4212   1.548   7.887   2.409 -0.3334  1.0402 -0.8580
   31MOL0     H 4213   1.769   7.975   2.410 -0.1695 -1.6403  1.2615
   31MOL0     H 4214   1.763   8.001   2.580  2.2912  0.2434 -0.8455
   31MOL0     H 4215   1.731   7.738   2.582  0.5327 -2.8895 -3.1634
   31MOL0     H 4216   1.793   7.753   2.422 -1.7734 -0.9750  0.6039
   31MOL0     H 4217   1.985   7.898   2.508 -0.2912 -0.6488 -0.1560
   31MOL0     H 4218   1.946   7.874   2.672  1.9977  0.7117 -0.4858
   31MOL0     H 4219   2.137   7.730   2.574  0.2418  0.9482  1.1368
   31MOL0     H 4220   2.005   7.627   2.507 -2.2834  1.1314 -0.3630
   31MOL0     H 4221   2.052   7.671   2.802  0.0076 -0.5067  0.9642
   31MOL0     H 4222   1.904   7.609   2.733  0.9002 -0.3756  1.0448
   31MOL0     H 4223   2.176   7.488   2.693 -0.1030  0.5543  0.3983
   31MOL0     H 4224   2.028   7.428   2.619 -0.0034  1.9779 -1.4615
   31MOL0     H 4225   2.047   7.460   2.923 -0.1285  1.5491 -0.9202
   31MOL0     H 4226   1.912   7.397   2.826 -0.4489  1.7719 -1.3571
   31MOL0     H 4227   2.282   7.310   2.899  1.1221 -1.2248 -0.3192
   31MOL0     H 4228   2.431   7.110   2.829  0.3889 -0.6208  0.4084
   31MOL0     H 4229   2.358   6.966   2.756 -2.0177  0.2823 -0.0918
   31MOL0     H 4230   2.349   7.034   3.051 -1.4865 -1.2386  1.4507
   31MOL0     H 4231   2.263   6.911   2.975 -0.1869  0.9113 -1.1545
   31MOL0     H 4232   2.499   6.846   3.079  2.5859 -0.9756 -1.3187
   31MOL0     H 4233   2.446   6.786   2.915  3.0415 -0.5408 -0.8827
   31MOL0     H 4234   2.618   6.958   2.821 -0.4907  1.0096 -0.6681
   31MOL0     H 4235   2.616   7.020   2.985 -2.9504 -0.6696  0.9040
   31MOL0     H 4236   2.839   7.045   2.858  1.9790  1.8828 -1.1045
   31MOL0     H 4237   3.191   7.120   2.831  0.4373  2.1972 -0.8322
   31MOL0     H 4238   3.085   7.223   2.934  0.8152  0.5187 -0.5575
   31MOL0     H 4239   3.025   7.155   2.781 -0.2540  0.7008 -1.4393
   31MOL0     H 4240   3.462   6.944   3.232  0.0050 -0.8218 -1.5531
   31MOL0     H 4241   3.647   7.048   3.343 -1.4312 -0.0214  0.8349
   31MOL0     H 4242   3.743   7.270   3.461 -0.9795  2.0026 -0.6975
   31MOL0     H 4243   3.840   7.153   3.371 -2.1734  0.2055 -1.8184
   31MOL0     H 4244   3.910   7.447   3.420  2.6173  1.4344  0.5214
   31MOL0     H 4245   3.980   7.316   3.516 -1.1828 -1.1030  0.7095
   31MOL0     H 4246   4.018   7.346   3.210 -1.7090 -1.2655  0.4799
   31MOL0     H 4247   4.088   7.223   3.319 -0.1363 -0.1513 -0.7975
   31MOL0     H 4248   4.202   7.402   3.434 -0.7408 -1.2115  0.0718
   31MOL0     H 4249   4.149   7.525   3.318  1.0716  1.0532  1.6076
   31MOL0     H 4250   4.336   7.298   3.228  0.0936 -0.1654 -0.1757
   31MOL0     H 4251   4.261   7.433   3.139 -1.7854 -3.2676 -0.3835
   31MOL0     H 4252   4.434   7.478   3.385 -0.9152 -2.6854 -0.6812
   31MOL0     H 4253   4.380   7.598   3.256  1.3151 -0.5000 -3.5783
   31MOL0     H 4254   4.513   7.478   3.075  1.7542 -3.0717 -1.2367
   31MOL0     H 4255   4.563   7.375   3.209  3.5170  1.3746  1.0247
   31MOL0     H 4256   4.740   7.528   3.162 -1.5892 -1.5037 -0.0237
   31MOL0     H 4257   4.665   7.576   3.318  0.0112  2.7540  0.8844
   31MOL0     H 4258   3.612   7.390   3.082  1.1455 -0.0141  2.1926
   31MOL0     H 4259   3.415   7.268   2.960  0.1507  0.4866 -0.2871
   31MOL0     H 4260   3.108   6.745   3.150 -0.8487 -1.1993 -0.6973
   31MOL0     H 4261   2.863   6.710   3.120 -1.0487 -1.3298 -1.7959
   31MOL0     H 4262   1.554   7.633   2.607  0.0625 -1.3971 -1.9753
   31MOL0     H 4263   1.380   7.474   2.620  2.1084  0.7169  1.9440
   31MOL0     H 4264   1.099   7.197   2.870 -0.1614  2.1876 -1.7297
   31MOL0     H 4265   0.911   7.085   2.949  1.4198  0.2001  0.0318
   31MOL0     H 4266   0.707   6.997   2.864 -0.7091 -0.1553 -1.6251
   31MOL0     H 4267   0.563   6.992   2.955  2.2920 -1.5831  0.3303
   31MOL0     H 4268   0.501   7.190   2.761 -2.2784  0.0522  0.0162
   31MOL0     H 4269   0.452   7.023   2.747 -3.5023  4.4954  1.2924
   31MOL0     H 4270   0.736   7.123   2.674  0.0993 -0.9626 -0.6291
   31MOL0     H 4271   0.653   6.978   2.615 -3.3520 -1.5186 -0.2267
   31MOL0     H 4272   0.572   7.258   2.538 -2.0455 -0.6367  0.9019
   31MOL0     H 4273   0.488   7.122   2.490 -0.2555  0.5573  2.9752
   31MOL0     H 4274   0.822   7.134   2.212  1.0389  1.1370  1.2870
   31MOL0     H 4275   0.662   7.425   2.840  1.3500  1.8733  1.1320
   31MOL0     H 4276   0.866   7.588   2.623 -4.2759 -2.6321 -1.5908
   31MOL0     H 4277   0.734   7.608   2.733  0.4122 -1.6861 -2.5572
   31MOL0     H 4278   0.900   7.641   2.792 -0.0663  2.7008 -0.9198
   32MOL0     O 4279   1.354  10.628   0.446 -0.0515 -0.3538 -0.2546
   32MOL0     C 4280   1.461  10.565   0.460  0.3721  0.1239  0.3963
   32MOL0     O 4281   1.578  10.622   0.517  0.0297  0.2616  0.9141
   32MOL0     C 4282   1.585  10.756   0.551 -0.0718 -0.3679 -0.4046
   32MOL0     C 4283   1.575  10.795   0.686  0.4161 -0.0277  0.2126
   32MOL0     C 4284   1.586  10.935   0.715 -0.1691  1.2512  0.4810
   32MOL0     C 4285   1.614  11.028   0.608  0.2770 -1.2151  0.7981
   32MOL0     O 4286   1.624  11.164   0.641 -0.3130  0.1727 -0.4971
   32MOL0     C 4287   1.650  11.264   0.546 -0.0159  0.1750 -0.7636
   32MOL0     C 4288   1.630  11.399   0.628 -0.6663  0.3364 -0.3722
   32MOL0     C 4289   1.735  11.403   0.747  0.2096  0.2656 -0.4647
   32MOL0     C 4290   1.875  11.384   0.703  0.7691 -0.3558 -0.4131
   32MOL0     C 4291   1.974  11.375   0.825  0.3671 -0.8293 -0.3842
   32MOL0     C 4292   1.986  11.516   0.885 -1.0132 -0.4884 -0.7595
   32MOL0     C 4293   2.112  11.542   0.965  0.2023  0.9955 -0.4711
   32MOL0     C 4294   2.119  11.447   1.087 -0.0953 -0.1866  0.0436
   32MOL0     N 4295   2.261  11.451   1.146 -0.2930  0.6549  0.6381
   32MOL0     C 4296   2.368  11.522   1.107 -0.4785  0.4462  0.2602
   32MOL0     C 4297   2.461  11.499   1.206  0.5936  0.5196 -0.0638
   32MOL0     C 4298   2.596  11.551   1.206 -0.2180  0.0552 -0.2875
   32MOL0     C 4299   2.687  11.452   1.130 -0.2023 -0.2129 -0.2489
   32MOL0     C 4300   2.832  11.508   1.111  0.0548 -1.5329  0.0013
   32MOL0     C 4301   2.928  11.406   1.047 -0.6392 -0.4477  0.4668
   32MOL0     O 4302   3.062  11.461   1.040 -0.8396 -0.2540  0.1631
   32MOL0     C 4303   3.158  11.358   1.010  1.1605  0.3742 -0.3096
   32MOL0     C 4304   3.145  11.217   1.029  0.4327 -0.4253 -0.2561
   32MOL0     C 4305   3.245  11.131   1.015 -0.0017  0.3599 -0.6223
   32MOL0     C 4306   3.215  10.982   1.029  1.0299 -0.6055  0.2538
   32MOL0     C 4307   3.373  11.178   0.975  1.2072  0.2825  0.3346
   32MOL0     C 4308   3.502  11.095   0.974 -0.0904  0.1620 -0.0796
   32MOL0     O 4309   3.620  11.155   0.929  0.4188 -0.5480  0.5069
   32MOL0     C 4310   3.741  11.096   0.932  0.0633  0.3982  0.4379
   32MOL0     C 4311   3.856  11.164   0.958 -0.2943  0.4702 -0.3888
   32MOL0     C 4312   3.982  11.093   0.971 -0.3992  1.3139  0.7992
   32MOL0     C 4313   3.990  10.957   0.947 -0.1364  0.6875 -0.2079
   32MOL0     O 4314   4.098  10.879   0.969  0.0606  0.5364 -0.0636
   32MOL0     C 4315   4.232  10.941   0.980  0.1505  0.4998  0.9449
   32MOL0     C 4316   4.339  10.850   1.032 -0.1834  0.2428  0.3177
   32MOL0     C 4317   4.473  10.930   1.059  0.3458  0.0174 -0.4527
   32MOL0     C 4318   4.589  10.829   1.076  0.0329 -0.1739 -0.0029
   32MOL0     C 4319   4.644  10.819   1.218  0.1870  0.0047  0.3264
   32MOL0     C 4320   4.797  10.803   1.224 -0.4662  0.3927  1.0525
   32MOL0     C 4321   4.851  10.949   1.204  0.0668  0.4334  0.0111
   32MOL0     C 4322   4.997  10.943   1.258 -0.2461  0.0594 -0.5210
   32MOL0    Cl 4323   5.100  10.845   1.133  0.1056  0.0706 -0.2059
   32MOL0     C 4324   3.873  10.890   0.916  0.1869  0.0530 -0.1946
   32MOL0     C 4325   3.751  10.952   0.905  0.3745 -0.1558  0.7582
   32MOL0     O 4326   3.501  10.989   1.034  0.5098  0.0579 -1.1926
   32MOL0     C 4327   3.392  11.317   0.963  0.1445 -1.1468  0.4911
   32MOL0     C 4328   3.282  11.402   0.978 -0.5053 -0.4126 -0.2080
   32MOL0     N 4329   2.410  11.418   1.296 -0.2910  0.6451 -0.2824
   32MOL0     N 4330   2.287  11.381   1.258 -0.6900 -0.2381 -0.3303
   32MOL0     C 4331   1.609  10.986   0.473 -0.5277 -0.4078 -0.0073
   32MOL0     C 4332   1.595  10.849   0.441  0.2808 -0.1388 -0.0682
   32MOL0     C 4333   1.464  10.427   0.408 -1.5746 -0.8474  0.1090
   32MOL0     C 4334   1.371  10.382   0.323 -0.4147  0.1859  0.1961
   32MOL0     C 4335   1.371  10.258   0.263 -0.6004  0.2945 -0.1751
   32MOL0     C 4336   1.465  10.167   0.303 -0.9679 -0.2233  0.8444
   32MOL0     O 4337   1.483  10.043   0.246 -0.1128  0.5990 -0.3382
   32MOL0     C 4338   1.410  10.000   0.130  0.1566  0.2566 -0.2491
   32MOL0     C 4339   1.497  10.004   0.016 -0.2779 -0.9207  0.6918
   32MOL0     C 4340   1.617   9.905   0.008 -0.1593 -0.2437  0.3527
   32MOL0     C 4341   1.708   9.960  -0.105  1.1142  0.9378  0.6099
   32MOL0     C 4342   1.835   9.888  -0.097  0.3905  0.2785  0.0223
   32MOL0     C 4343   1.949   9.850  -0.089  0.4893  0.0102 -1.2843
   32MOL0     C 4344   1.566  10.209   0.391  1.2509  0.7215  0.3948
   32MOL0     C 4345   1.574  10.339   0.440  0.4958  0.1635  1.1572
   32MOL0     C 4346   1.678  10.372   0.533 -0.7195 -0.1437  0.4198
   32MOL0     H 4347   1.563  10.722   0.766  0.3949  0.6422  0.8346
   32MOL0     H 4348   1.582  10.979   0.814 -2.8968 -0.0166  1.0436
   32MOL0     H 4349   1.569  11.258   0.473 -0.7729  0.0129  0.0671
   32MOL0     H 4350   1.749  11.255   0.499  0.9642 -1.3805  1.3641
   32MOL0     H 4351   1.647  11.481   0.557  0.9127 -0.9872 -1.6124
   32MOL0     H 4352   1.527  11.409   0.664 -0.5932 -1.3303  0.4025
   32MOL0     H 4353   1.722  11.502   0.792 -1.9214 -2.2815  5.6481
   32MOL0     H 4354   1.708  11.337   0.830  0.1115  0.0231 -0.6895
   32MOL0     H 4355   1.877  11.284   0.659 -2.2858 -0.9850  0.6293
   32MOL0     H 4356   1.899  11.465   0.633  0.0299  2.2735  2.1326
   32MOL0     H 4357   2.071  11.334   0.792  2.6907 -0.0132  4.5721
   32MOL0     H 4358   1.928  11.308   0.898 -2.0146  1.6504  0.5350
   32MOL0     H 4359   1.968  11.597   0.814  1.1137  1.5896  0.8671
   32MOL0     H 4360   1.893  11.527   0.942  0.1050  1.1730  0.8815
   32MOL0     H 4361   2.114  11.641   1.012  1.1693  1.0625 -0.6383
   32MOL0     H 4362   2.198  11.520   0.901  1.0999  0.2855  0.9217
   32MOL0     H 4363   2.050  11.476   1.166 -0.1920  0.5000 -0.2823
   32MOL0     H 4364   2.094  11.345   1.056  0.8430 -0.2056 -0.7346
   32MOL0     H 4365   2.385  11.582   1.018  2.2772 -1.3442 -0.5563
   32MOL0     H 4366   2.630  11.585   1.304  3.1005  3.2423 -2.3165
   32MOL0     H 4367   2.596  11.646   1.150 -1.6329  0.6389  0.6379
   32MOL0     H 4368   2.683  11.354   1.178 -2.9234 -1.1092 -2.0555
   32MOL0     H 4369   2.654  11.436   1.027 -0.0151  0.2132 -0.3757
   32MOL0     H 4370   2.823  11.587   1.036  1.7682 -2.4763 -1.2746
   32MOL0     H 4371   2.875  11.542   1.206 -1.8648 -1.2537  0.8060
   32MOL0     H 4372   2.930  11.318   1.113  0.0575  1.2014  2.7600
   32MOL0     H 4373   2.896  11.384   0.945 -1.1040 -0.6628  0.6567
   32MOL0     H 4374   3.050  11.175   1.060  0.4875  0.6608  1.5195
   32MOL0     H 4375   3.268  10.950   1.119  0.9526  0.4862  0.7049
   32MOL0     H 4376   3.241  10.935   0.934  1.4330  1.6638 -0.8353
   32MOL0     H 4377   3.109  10.958   1.043  0.9788 -0.0259  0.9172
   32MOL0     H 4378   3.859  11.268   0.988  0.3629 -0.2419  2.2601
   32MOL0     H 4379   4.075  11.143   0.996  0.2003 -0.6946  2.9888
   32MOL0     H 4380   4.258  10.976   0.879 -0.5287 -3.1802 -0.6758
   32MOL0     H 4381   4.238  11.029   1.044  0.4718  1.2624 -0.1146
   32MOL0     H 4382   4.301  10.802   1.122 -1.9500 -0.8059 -0.9115
   32MOL0     H 4383   4.345  10.775   0.952 -1.1691 -0.3950  0.8261
   32MOL0     H 4384   4.448  10.978   1.154 -2.4611 -1.6690 -0.2376
   32MOL0     H 4385   4.479  11.000   0.976 -2.7168 -0.3927 -1.1376
   32MOL0     H 4386   4.673  10.864   1.015 -1.2465  1.5230 -0.8847
   32MOL0     H 4387   4.551  10.730   1.051 -0.6865 -0.2251  1.1770
   32MOL0     H 4388   4.614  10.914   1.264  2.6306  0.1722  1.7171
   32MOL0     H 4389   4.589  10.746   1.279 -2.3789  0.2930 -1.4641
   32MOL0     H 4390   4.843  10.737   1.150  0.0584  1.1121  0.7346
   32MOL0     H 4391   4.827  10.765   1.323 -1.2427 -2.0643  0.4089
   32MOL0     H 4392   4.789  11.021   1.258 -2.2253 -0.0708 -1.8260
   32MOL0     H 4393   4.855  10.976   1.098 -2.1492 -0.6844 -0.4004
   32MOL0     H 4394   5.018  10.911   1.361 -0.5354  0.8073 -0.2151
   32MOL0     H 4395   5.043  11.042   1.272  1.9317 -0.9100 -0.4374
   32MOL0     H 4396   3.883  10.786   0.884 -0.2087  0.0818 -0.4092
   32MOL0     H 4397   3.661  10.905   0.866  0.1339  0.7385  0.2028
   32MOL0     H 4398   3.489  11.362   0.944  0.1452 -1.7294 -1.0132
   32MOL0     H 4399   3.288  11.509   0.961 -1.7002 -0.3248 -0.1050
   32MOL0     H 4400   1.617  11.049   0.385  3.6463 -2.9851 -1.7531
   32MOL0     H 4401   1.588  10.822   0.337  2.4624  0.9057 -0.5641
   32MOL0     H 4402   1.280  10.437   0.302 -1.5434 -1.8418 -0.4907
   32MOL0     H 4403   1.288  10.234   0.197 -1.7447 -0.5332  1.5060
   32MOL0     H 4404   1.380   9.898   0.157 -1.9648  1.2796  1.6623
   32MOL0     H 4405   1.316  10.054   0.116  0.4394  0.5364 -1.0878
   32MOL0     H 4406   1.528  10.108   0.004 -4.1976  0.3805  0.4399
   32MOL0     H 4407   1.436   9.982  -0.072 -0.2144  1.8416 -0.1257
   32MOL0     H 4408   1.670   9.911   0.104 -0.2073 -0.0878  0.3690
   32MOL0     H 4409   1.581   9.805  -0.015 -2.8523  0.7124  0.0742
   32MOL0     H 4410   1.740  10.065  -0.099  1.8550  0.7883 -0.4095
   32MOL0     H 4411   1.654   9.953  -0.200 -0.7072  0.5062  1.6386
   32MOL0     H 4412   2.052   9.820  -0.079 -0.2752 -2.0080  4.2608
   32MOL0     H 4413   1.647  10.140   0.410 -0.7789 -2.0961 -0.5637
   32MOL0     H 4414   1.744  10.285   0.542  0.5304  0.7331  0.0987
   32MOL0     H 4415   1.744  10.454   0.503 -0.4612 -1.2774 -2.4358
   32MOL0     H 4416   1.633  10.373   0.632  1.9331 -2.5903  1.8137
   33MOL0     O 4417   8.506  10.274   2.065 -0.1338  0.2196  0.4071
   33MOL0     C 4418   8.417  10.244   1.988  0.5309  0.0988  1.1369
   33MOL0     O 4419   8.405  10.298   1.863  0.4702  0.2915 -0.5844
   33MOL0     C 4420   8.493  10.400   1.841 -1.0414 -0.1437  0.1118
   33MOL0     C 4421   8.603  10.363   1.758  0.2822  0.3201  0.1353
   33MOL0     C 4422   8.694  10.454   1.714 -0.2534  0.1593  0.1764
   33MOL0     C 4423   8.685  10.583   1.763  0.0061 -0.1837  0.5925
   33MOL0     O 4424   8.782  10.677   1.733 -0.7060 -0.0599  0.4898
   33MOL0     C 4425   8.916  10.627   1.731  0.3310  0.2206  0.2004
   33MOL0     C 4426   9.023  10.743   1.739 -0.5718 -0.8736 -1.2019
   33MOL0     C 4427   9.165  10.696   1.770  0.5840  0.1556  0.0797
   33MOL0     C 4428   9.274  10.799   1.802 -0.0559 -0.2668 -0.1569
   33MOL0     C 4429   9.264  10.891   1.923  0.3314  0.6161  0.1439
   33MOL0     C 4430   9.220  10.808   2.041 -0.0174  0.8099  0.2796
   33MOL0     C 4431   9.228  10.901   2.168  0.3563  0.0393 -0.4505
   33MOL0     C 4432   9.138  10.847   2.282  0.2202  0.1537 -0.0675
   33MOL0     N 4433   9.218  10.791   2.395  0.3547  0.5056  0.0330
   33MOL0     C 4434   9.294  10.681   2.394 -0.5510  0.7711  0.1459
   33MOL0     C 4435   9.353  10.693   2.513 -0.1566  0.0617  0.0032
   33MOL0     C 4436   9.438  10.581   2.570  0.4199 -0.5531 -0.0356
   33MOL0     C 4437   9.568  10.568   2.498  0.4692 -0.0192  0.3920
   33MOL0     C 4438   9.641  10.431   2.526 -0.2105 -0.4413  0.0950
   33MOL0     C 4439   9.780  10.436   2.447 -0.2406  0.1410  0.4167
   33MOL0     O 4440   9.839  10.306   2.462  1.0103  1.0673 -0.0458
   33MOL0     C 4441   9.965  10.286   2.418  0.8630  0.2025  0.2445
   33MOL0     C 4442  10.024  10.155   2.430  0.1227 -0.3080  0.6143
   33MOL0     C 4443  10.164  10.119   2.410 -0.0542 -0.1815  0.4540
   33MOL0     C 4444  10.218   9.979   2.402  0.2174  0.1238  0.0255
   33MOL0     C 4445  10.249  10.227   2.389  0.0192  0.8010  0.9137
   33MOL0     C 4446  10.385  10.202   2.335 -0.4861  0.0680  1.0997
   33MOL0     O 4447  10.430  10.269   2.220 -0.2045  0.3018 -0.0089
   33MOL0     C 4448  10.564  10.276   2.177  0.3902 -0.1691  0.2400
   33MOL0     C 4449  10.666  10.187   2.209 -0.1609  0.3924  0.1811
   33MOL0     C 4450  10.791  10.200   2.144 -0.1055  0.4118  0.4715
   33MOL0     C 4451  10.814  10.299   2.045 -0.3210  0.3053  0.2298
   33MOL0     O 4452  10.929  10.325   1.978  0.3181 -0.5158  0.2607
   33MOL0     C 4453  11.030  10.221   1.990  0.0910 -1.0629  0.5131
   33MOL0     C 4454  11.160  10.286   1.933  0.4684 -0.1868 -0.4419
   33MOL0     C 4455  11.138  10.327   1.790 -0.1217 -0.3361 -0.2031
   33MOL0     C 4456  11.272  10.363   1.719 -0.5451 -0.3733 -0.0572
   33MOL0     C 4457  11.279  10.410   1.574  0.4524 -1.0281  0.3909
   33MOL0     C 4458  11.215  10.331   1.461  0.1004  0.8487 -0.0975
   33MOL0     C 4459  11.240  10.383   1.322  0.3809  0.1431  0.2493
   33MOL0     C 4460  11.390  10.420   1.290 -0.4406  0.8315 -0.1090
   33MOL0    Cl 4461  11.441  10.571   1.369  0.4537 -0.1949  0.0118
   33MOL0     C 4462  10.711  10.386   2.015 -0.3056 -0.4350 -0.2888
   33MOL0     C 4463  10.588  10.369   2.076 -0.8836  0.3600  0.5804
   33MOL0     O 4464  10.463  10.137   2.407  0.9243  0.1576 -0.4820
   33MOL0     C 4465  10.197  10.353   2.375  0.2930 -0.0712  0.5355
   33MOL0     C 4466  10.058  10.389   2.387 -0.0353 -0.6598  0.6366
   33MOL0     N 4467   9.310  10.804   2.584 -0.1467 -0.1777  0.2013
   33MOL0     N 4468   9.229  10.863   2.514 -0.2924 -0.1154 -0.1262
   33MOL0     C 4469   8.573  10.626   1.847  0.3069 -0.0270  0.3578
   33MOL0     C 4470   8.479  10.529   1.884  0.7977 -0.0762  0.1607
   33MOL0     C 4471   8.328  10.133   2.033  0.3109 -0.4866 -0.2582
   33MOL0     C 4472   8.216  10.097   1.950 -0.6797  0.6824 -0.1616
   33MOL0     C 4473   8.124   9.990   1.984 -0.1351 -0.5266  0.3457
   33MOL0     C 4474   8.152   9.908   2.100  0.7483 -0.1221  0.3264
   33MOL0     O 4475   8.080   9.797   2.132  0.3990  0.4986  0.2603
   33MOL0     C 4476   8.007   9.728   2.031  0.0551 -0.3097  0.7662
   33MOL0     C 4477   7.862   9.777   2.025  0.5881  0.2719  1.0728
   33MOL0     C 4478   7.774   9.701   1.938  0.5665  0.5853  1.1065
   33MOL0     C 4479   7.636   9.773   1.930 -0.3697 -0.4177 -0.2295
   33MOL0     C 4480   7.546   9.718   1.827  0.4669 -0.0110  0.4689
   33MOL0     C 4481   7.462   9.679   1.753  0.1275 -0.3041  0.1513
   33MOL0     C 4482   8.253   9.954   2.184 -0.0110  0.2159 -0.3191
   33MOL0     C 4483   8.346  10.057   2.152  0.1841  0.1175 -0.2323
   33MOL0     C 4484   8.438  10.082   2.267 -0.2917  0.5442 -0.1154
   33MOL0     H 4485   8.601  10.261   1.720  1.2242  0.9049 -1.5640
   33MOL0     H 4486   8.766  10.420   1.639 -0.9771 -0.7474 -0.1217
   33MOL0     H 4487   8.932  10.573   1.638 -0.9951  1.0436 -0.5376
   33MOL0     H 4488   8.937  10.564   1.818 -1.4427  0.7218  1.0422
   33MOL0     H 4489   9.020  10.796   1.643 -0.9769  1.4772  0.0276
   33MOL0     H 4490   8.995  10.816   1.815  0.7025 -0.2538 -1.2947
   33MOL0     H 4491   9.162  10.626   1.854 -5.3294  1.4303  1.3384
   33MOL0     H 4492   9.197  10.638   1.682  0.6276 -0.2068  0.3296
   33MOL0     H 4493   9.371  10.749   1.799  1.9849  3.2066 -4.7130
   33MOL0     H 4494   9.285  10.859   1.711  2.7494 -1.4129 -0.6923
   33MOL0     H 4495   9.187  10.968   1.909 -2.6051 -1.8264  1.6072
   33MOL0     H 4496   9.363  10.937   1.935  0.3748  0.1249  2.0753
   33MOL0     H 4497   9.125  10.758   2.019  0.8492 -0.5561 -0.4664
   33MOL0     H 4498   9.290  10.726   2.062 -0.1101  1.0891  1.8238
   33MOL0     H 4499   9.186  11.000   2.145 -1.5677 -0.3481  1.1119
   33MOL0     H 4500   9.330  10.923   2.202 -0.2613  0.9292  0.9355
   33MOL0     H 4501   9.082  10.929   2.328 -0.6624 -1.3189  1.6012
   33MOL0     H 4502   9.061  10.778   2.246  0.3651 -0.5407  0.9141
   33MOL0     H 4503   9.296  10.604   2.318  1.4022  1.2276 -0.3058
   33MOL0     H 4504   9.385  10.487   2.552 -2.4205  1.1853 -1.4349
   33MOL0     H 4505   9.453  10.601   2.676  0.9188  2.3289 -0.5648
   33MOL0     H 4506   9.555  10.573   2.389 -0.1513  0.2258  0.4711
   33MOL0     H 4507   9.627  10.645   2.547 -1.6881  1.2205  1.1842
   33MOL0     H 4508   9.653  10.399   2.630  4.8305 -2.1263 -0.6984
   33MOL0     H 4509   9.578  10.355   2.482 -1.5141 -1.4586  3.3929
   33MOL0     H 4510   9.755  10.446   2.341 -1.7302  4.1484  1.0001
   33MOL0     H 4511   9.844  10.511   2.494 -0.5496 -0.6906  2.2809
   33MOL0     H 4512   9.969  10.069   2.468  2.3818 -3.1396 -1.9295
   33MOL0     H 4513  10.287   9.982   2.317 -0.9930  1.2163 -0.9614
   33MOL0     H 4514  10.138   9.915   2.363 -0.6260  0.3987  1.2544
   33MOL0     H 4515  10.249   9.945   2.501 -3.7725 -2.2757  0.6441
   33MOL0     H 4516  10.656  10.112   2.287 -2.4998  1.0560  0.5835
   33MOL0     H 4517  10.868  10.135   2.184  1.4094  0.3615 -2.3113
   33MOL0     H 4518  11.047  10.186   2.092 -0.0473  0.2536  1.0122
   33MOL0     H 4519  11.015  10.133   1.928  1.5926 -1.3230  0.4756
   33MOL0     H 4520  11.187  10.375   1.991  0.4277 -1.7837  2.1802
   33MOL0     H 4521  11.241  10.213   1.935  0.0585 -0.7753  3.7778
   33MOL0     H 4522  11.077  10.417   1.783 -1.2849 -0.7727  2.9297
   33MOL0     H 4523  11.093  10.249   1.728  0.4573 -0.0548 -0.9982
   33MOL0     H 4524  11.344  10.283   1.737  0.7261  0.7635  0.0354
   33MOL0     H 4525  11.325  10.439   1.777 -0.2581 -1.8083  1.6506
   33MOL0     H 4526  11.232  10.509   1.578  0.7215 -0.7700 -1.6328
   33MOL0     H 4527  11.385  10.429   1.559 -0.0381  0.5770 -1.4725
   33MOL0     H 4528  11.111  10.307   1.481  0.0568 -1.6422 -2.7043
   33MOL0     H 4529  11.263  10.233   1.458 -1.1958  0.1921  0.2107
   33MOL0     H 4530  11.170  10.467   1.316 -0.5482 -0.7250 -2.1950
   33MOL0     H 4531  11.203  10.314   1.246 -1.5689  4.0575 -2.6979
   33MOL0     H 4532  11.413  10.429   1.184  0.1821  0.7392  0.0122
   33MOL0     H 4533  11.461  10.346   1.328  1.2755  3.3874  1.9989
   33MOL0     H 4534  10.718  10.461   1.936 -0.0156 -0.2885 -0.1269
   33MOL0     H 4535  10.504  10.433   2.050 -0.5580  0.0455 -1.4595
   33MOL0     H 4536  10.256  10.438   2.345  1.1673  0.4839  3.4725
   33MOL0     H 4537  10.028  10.488   2.354 -1.3960 -0.8730  1.1835
   33MOL0     H 4538   8.571  10.727   1.886 -0.8146 -0.6608  2.0469
   33MOL0     H 4539   8.390  10.559   1.937  1.8378  0.2404  1.8124
   33MOL0     H 4540   8.192  10.154   1.860  0.9146  1.0706 -0.3654
   33MOL0     H 4541   8.044   9.971   1.914 -0.3040 -0.5334  0.5403
   33MOL0     H 4542   8.050   9.731   1.931  0.0149 -2.5256  0.6206
   33MOL0     H 4543   8.001   9.622   2.059 -1.0739 -0.7250 -0.9055
   33MOL0     H 4544   7.848   9.882   1.997 -2.4063 -0.5074 -0.8913
   33MOL0     H 4545   7.821   9.778   2.127  1.4173  1.9044  1.4245
   33MOL0     H 4546   7.819   9.684   1.840 -0.5541  2.8010  0.1344
   33MOL0     H 4547   7.771   9.601   1.981  2.3273 -0.4790 -1.0455
   33MOL0     H 4548   7.644   9.880   1.910 -0.1807 -0.6026 -1.2094
   33MOL0     H 4549   7.596   9.762   2.031  0.2885  0.1511  0.0965
   33MOL0     H 4550   7.381   9.648   1.690  1.6381 -0.4289 -1.8436
   33MOL0     H 4551   8.269   9.898   2.276 -1.8418  1.2175  0.6696
   33MOL0     H 4552   8.461  10.186   2.288 -0.6888  0.5177  0.4897
   33MOL0     H 4553   8.413  10.044   2.367  0.2108 -1.2280 -0.6261
   33MOL0     H 4554   8.534  10.033   2.253 -0.6969 -0.4581  0.4675
   34MOL0     O 4555   1.654   3.204   7.536  0.0299  0.2401  0.2296
   34MOL0     C 4556   1.580   3.122   7.588 -0.1008  0.7375  0.6502
   34MOL0     O 4557   1.612   3.020   7.675 -0.2937 -0.3494 -0.1789
   34MOL0     C 4558   1.745   2.989   7.699 -0.0598  0.4769  0.6350
   34MOL0     C 4559   1.779   2.899   7.800  0.5333 -0.2752  0.2141
   34MOL0     C 4560   1.905   2.849   7.823 -0.1057  0.8370  0.5711
   34MOL0     C 4561   2.010   2.885   7.737 -0.6600 -0.8408  0.9771
   34MOL0     O 4562   2.140   2.849   7.760  0.2721  0.7100 -0.0735
   34MOL0     C 4563   2.169   2.784   7.884 -0.3652 -0.0505 -0.7158
   34MOL0     C 4564   2.317   2.761   7.899  0.6296  0.4848  0.0141
   34MOL0     C 4565   2.357   2.712   8.047  0.2287 -0.1223  0.1419
   34MOL0     C 4566   2.498   2.655   8.047 -0.0784 -0.0616 -0.8874
   34MOL0     C 4567   2.616   2.761   8.042 -0.1859 -0.1091 -0.3017
   34MOL0     C 4568   2.764   2.701   8.045 -0.3478 -0.2099  0.0366
   34MOL0     C 4569   2.867   2.815   8.059  0.6535 -0.3628  0.2868
   34MOL0     C 4570   3.001   2.773   8.123  0.6281 -0.1314  0.6113
   34MOL0     N 4571   3.088   2.892   8.144 -0.4509  0.8055  0.4318
   34MOL0     C 4572   3.128   2.977   8.041 -0.7134  0.9334  0.7859
   34MOL0     C 4573   3.202   3.074   8.108  0.3627 -0.0476 -1.5645
   34MOL0     C 4574   3.259   3.197   8.058 -0.1718 -0.1821  0.3742
   34MOL0     C 4575   3.406   3.185   8.013 -0.1541  1.1145 -1.3415
   34MOL0     C 4576   3.476   3.323   8.058 -0.1011  0.5111  0.4520
   34MOL0     C 4577   3.619   3.322   8.031 -0.6145  0.7281  0.1927
   34MOL0     O 4578   3.639   3.311   7.891  0.3384 -0.2985 -0.0917
   34MOL0     C 4579   3.753   3.362   7.835  0.4875  0.1043  0.1080
   34MOL0     C 4580   3.757   3.366   7.699  0.3949 -0.3277 -0.0759
   34MOL0     C 4581   3.874   3.402   7.625  0.8139 -0.6783 -0.4121
   34MOL0     C 4582   3.886   3.377   7.476 -0.5255 -0.1665 -0.0274
   34MOL0     C 4583   3.981   3.450   7.699 -0.4905 -0.9598  0.4115
   34MOL0     C 4584   4.109   3.476   7.636  0.7376 -0.6327  1.0329
   34MOL0     O 4585   4.123   3.589   7.565  0.1875 -0.1466 -0.4556
   34MOL0     C 4586   4.234   3.615   7.495 -0.6249 -1.0521 -0.2567
   34MOL0     C 4587   4.272   3.542   7.376  0.1151  0.2175 -0.7948
   34MOL0     C 4588   4.391   3.582   7.303 -0.5077 -0.0939 -0.2090
   34MOL0     C 4589   4.465   3.682   7.357  0.6973 -0.2239  0.3796
   34MOL0     O 4590   4.562   3.734   7.281  0.5015  0.0542  0.9574
   34MOL0     C 4591   4.695   3.675   7.316  0.7029  0.0815  0.0445
   34MOL0     C 4592   4.805   3.746   7.235  0.8174 -0.1827 -0.1608
   34MOL0     C 4593   4.838   3.692   7.090 -0.1712 -0.7651 -0.3949
   34MOL0     C 4594   4.725   3.721   6.990  0.3019  0.8645  0.3544
   34MOL0     C 4595   4.723   3.870   6.965  0.3834  0.6293 -0.5559
   34MOL0     C 4596   4.615   3.897   6.851 -1.5870 -0.1252  0.0924
   34MOL0     C 4597   4.469   3.864   6.888  0.1198 -0.2470 -0.3122
   34MOL0     C 4598   4.364   3.909   6.789 -0.2345 -0.3940 -0.2355
   34MOL0    Cl 4599   4.362   4.085   6.764 -0.2581  0.2295 -0.0488
   34MOL0     C 4600   4.436   3.753   7.477 -0.4319  0.6977  0.4611
   34MOL0     C 4601   4.319   3.711   7.546  1.1598 -0.0191 -0.1603
   34MOL0     O 4602   4.193   3.383   7.641  0.5637  0.3003  0.2173
   34MOL0     C 4603   3.978   3.453   7.836 -0.6986  0.6187 -0.3165
   34MOL0     C 4604   3.871   3.399   7.900 -0.6558 -0.3054 -0.2755
   34MOL0     N 4605   3.215   3.030   8.241  0.1508  0.4786  0.7882
   34MOL0     N 4606   3.157   2.915   8.252  0.1583  0.4525  0.0723
   34MOL0     C 4607   1.980   2.970   7.628 -1.3693 -0.2043  0.8106
   34MOL0     C 4608   1.860   3.027   7.617  0.7524 -0.2621  0.8123
   34MOL0     C 4609   1.435   3.162   7.569  0.1214  0.0602 -0.0426
   34MOL0     C 4610   1.395   3.244   7.456 -0.5965  0.2990  0.5251
   34MOL0     C 4611   1.256   3.264   7.438 -0.5013  0.1895  0.8429
   34MOL0     C 4612   1.162   3.224   7.525 -0.1217  0.2864  1.1459
   34MOL0     O 4613   1.028   3.252   7.519 -0.2601 -0.3231  0.5745
   34MOL0     C 4614   0.986   3.383   7.490  0.8461  0.4479  0.4989
   34MOL0     C 4615   0.837   3.379   7.469  0.3060  0.3963  0.8185
   34MOL0     C 4616   0.752   3.375   7.601  0.6204  0.1871  0.2391
   34MOL0     C 4617   0.602   3.350   7.578  0.7163  0.0466  0.1062
   34MOL0     C 4618   0.531   3.464   7.517 -0.2139  0.0197  0.4549
   34MOL0     C 4619   0.474   3.563   7.474  0.3954  0.0197 -0.1026
   34MOL0     C 4620   1.199   3.147   7.630 -0.5846  0.3593  0.1587
   34MOL0     C 4621   1.333   3.113   7.655 -0.2667  0.1585  0.2061
   34MOL0     C 4622   1.350   3.011   7.779  0.0455  0.0198  0.0437
   34MOL0     H 4623   1.699   2.868   7.867  1.2639  0.7440  1.6289
   34MOL0     H 4624   1.926   2.771   7.896 -1.8041  0.4846  0.7282
   34MOL0     H 4625   2.112   2.691   7.894  0.5676 -0.4583  1.4639
   34MOL0     H 4626   2.139   2.842   7.972  1.1721 -0.4898  0.1229
   34MOL0     H 4627   2.347   2.679   7.833 -2.4970 -1.0543  0.3362
   34MOL0     H 4628   2.360   2.854   7.860  1.9791 -1.7899 -4.7110
   34MOL0     H 4629   2.339   2.799   8.112 -1.8619 -0.2171 -0.2178
   34MOL0     H 4630   2.289   2.631   8.074 -0.1366  0.3386  0.6409
   34MOL0     H 4631   2.519   2.582   8.125  1.2603  0.9014 -0.3046
   34MOL0     H 4632   2.501   2.588   7.961 -2.1674 -0.9746 -0.3300
   34MOL0     H 4633   2.600   2.830   8.126  2.0899 -0.6468  0.6646
   34MOL0     H 4634   2.606   2.818   7.950  1.4937  0.8839  0.0833
   34MOL0     H 4635   2.777   2.633   8.129  0.6569 -1.4743 -1.0989
   34MOL0     H 4636   2.773   2.638   7.956 -1.3218 -1.9938  1.1445
   34MOL0     H 4637   2.826   2.897   8.118 -1.5166  0.0849 -1.7005
   34MOL0     H 4638   2.886   2.850   7.957  3.4507 -0.4667  0.6842
   34MOL0     H 4639   2.968   2.728   8.217 -2.6513 -0.4789 -0.5606
   34MOL0     H 4640   3.059   2.700   8.067 -0.3879 -0.6859  0.2583
   34MOL0     H 4641   3.083   2.974   7.942  0.7938 -4.2176 -0.0583
   34MOL0     H 4642   3.244   3.267   8.141 -2.2829  1.1640 -1.0489
   34MOL0     H 4643   3.200   3.227   7.972  0.1995  0.7988  0.4561
   34MOL0     H 4644   3.458   3.105   8.066 -1.8889 -0.5674 -2.0505
   34MOL0     H 4645   3.415   3.179   7.904  2.4164  0.0963 -1.1378
   34MOL0     H 4646   3.409   3.399   8.016  0.2842  1.5166  1.5888
   34MOL0     H 4647   3.458   3.333   8.166 -0.2909  1.0518  0.3719
   34MOL0     H 4648   3.662   3.415   8.069  2.5244 -0.8750  0.8807
   34MOL0     H 4649   3.649   3.232   8.087 -0.8737 -1.5217 -3.0152
   34MOL0     H 4650   3.678   3.314   7.647  0.6191 -0.1365 -0.6197
   34MOL0     H 4651   3.794   3.325   7.446 -0.2025 -0.2427 -0.9096
   34MOL0     H 4652   3.972   3.314   7.455  2.1897  3.1515  0.2027
   34MOL0     H 4653   3.894   3.471   7.421 -0.4097 -0.4216 -0.4507
   34MOL0     H 4654   4.211   3.454   7.356 -1.2493  1.0481 -0.3782
   34MOL0     H 4655   4.426   3.533   7.212  0.0114 -1.0889  0.4981
   34MOL0     H 4656   4.701   3.674   7.425 -0.0482  0.5292  0.1004
   34MOL0     H 4657   4.705   3.570   7.289 -1.4436 -0.4056  0.8856
   34MOL0     H 4658   4.789   3.854   7.221 -1.9260 -0.1283  2.2803
   34MOL0     H 4659   4.898   3.743   7.292  1.0391  1.9591 -0.3230
   34MOL0     H 4660   4.852   3.584   7.095 -0.6077 -0.7725  0.8921
   34MOL0     H 4661   4.930   3.741   7.057 -0.4048 -0.4083 -0.5281
   34MOL0     H 4662   4.627   3.691   7.027 -0.4038  1.0227 -1.2849
   34MOL0     H 4663   4.760   3.664   6.903  0.9794 -2.4596  2.6427
   34MOL0     H 4664   4.696   3.925   7.055 -0.5830  0.0499 -0.4695
   34MOL0     H 4665   4.815   3.907   6.920 -0.1212  0.3653 -1.8784
   34MOL0     H 4666   4.651   3.843   6.763 -0.2439 -1.0115  1.1569
   34MOL0     H 4667   4.619   4.005   6.831 -0.6525  0.1888  1.8297
   34MOL0     H 4668   4.438   3.913   6.980 -0.3099  0.2401 -0.7117
   34MOL0     H 4669   4.465   3.758   6.916  0.8625 -0.1544  0.1798
   34MOL0     H 4670   4.265   3.872   6.819 -1.2951  0.1729 -2.8055
   34MOL0     H 4671   4.388   3.867   6.691  0.1530 -3.2206  0.9545
   34MOL0     H 4672   4.503   3.824   7.524  1.2304 -0.5735  0.1374
   34MOL0     H 4673   4.295   3.754   7.643 -0.9813 -1.1344 -0.1479
   34MOL0     H 4674   4.065   3.479   7.896 -1.8739 -2.9503  3.3146
   34MOL0     H 4675   3.870   3.410   8.008 -0.6763  1.2259 -0.4051
   34MOL0     H 4676   2.064   3.006   7.568 -1.6303  2.7150  2.0166
   34MOL0     H 4677   1.845   3.098   7.536 -2.7254 -1.3761  0.3196
   34MOL0     H 4678   1.472   3.283   7.391 -2.5780  3.9256  0.1015
   34MOL0     H 4679   1.231   3.330   7.356  0.4040  0.9590  1.1615
   34MOL0     H 4680   1.019   3.460   7.560  3.0218  0.3525 -0.3356
   34MOL0     H 4681   1.029   3.420   7.397  0.1708  0.7954  0.3212
   34MOL0     H 4682   0.820   3.288   7.411  0.5220 -0.0704  1.4780
   34MOL0     H 4683   0.821   3.462   7.401  2.6096  0.8984  0.8092
   34MOL0     H 4684   0.794   3.298   7.667  1.0836  2.0897  2.2855
   34MOL0     H 4685   0.760   3.476   7.643 -2.3678  2.0175 -3.0318
   34MOL0     H 4686   0.549   3.334   7.672 -2.5781 -2.8187 -1.9813
   34MOL0     H 4687   0.584   3.263   7.514 -0.2966  0.7769 -0.6293
   34MOL0     H 4688   0.399   3.637   7.452 -1.8168 -2.4046 -1.2790
   34MOL0     H 4689   1.123   3.126   7.704 -0.5493 -0.2138  0.0383
   34MOL0     H 4690   1.356   2.906   7.750  1.8755 -0.3736  1.6198
   34MOL0     H 4691   1.447   3.034   7.825  0.1386  2.5544 -1.2256
   34MOL0     H 4692   1.276   3.017   7.860 -1.2576  0.9932 -1.1734
   35MOL0     O 4693   3.908   5.092   2.564  0.8075  0.4255 -0.0727
   35MOL0     C 4694   3.957   5.022   2.653  0.2893 -0.5046  0.3564
   35MOL0     O 4695   4.091   5.006   2.676 -0.9659  0.9272 -0.2292
   35MOL0     C 4696   4.188   5.042   2.582  0.6999  0.3748 -0.3855
   35MOL0     C 4697   4.316   5.035   2.635 -0.1140 -0.4783  0.3617
   35MOL0     C 4698   4.423   5.079   2.561 -0.0073  0.7338 -0.3994
   35MOL0     C 4699   4.409   5.098   2.427  0.0627  0.0952 -0.0084
   35MOL0     O 4700   4.503   5.151   2.337  0.1906  0.3985  0.3179
   35MOL0     C 4701   4.623   5.223   2.390 -0.0388  0.3961  0.3291
   35MOL0     C 4702   4.741   5.131   2.433 -0.2693  0.3149 -0.5129
   35MOL0     C 4703   4.796   5.046   2.316  0.4988 -0.0823  0.2630
   35MOL0     C 4704   4.894   4.928   2.352  0.4259  0.2982 -0.5877
   35MOL0     C 4705   4.800   4.812   2.402 -0.3803  0.4641 -0.0304
   35MOL0     C 4706   4.872   4.685   2.455  0.0048 -0.0967  0.2882
   35MOL0     C 4707   4.776   4.569   2.486  0.4324  0.5674  0.5829
   35MOL0     C 4708   4.860   4.437   2.502 -0.1575  0.7831  0.3696
   35MOL0     N 4709   4.767   4.322   2.521  0.7849  0.1146 -0.9965
   35MOL0     C 4710   4.710   4.268   2.414 -0.1874 -0.5255  0.2967
   35MOL0     C 4711   4.630   4.171   2.463  0.1095 -0.0705  0.7184
   35MOL0     C 4712   4.537   4.105   2.363 -0.3182 -0.0654  0.3991
   35MOL0     C 4713   4.396   4.155   2.392 -1.1318 -0.1665  0.2175
   35MOL0     C 4714   4.295   4.129   2.282  0.0692  0.2192 -0.2316
   35MOL0     C 4715   4.283   3.980   2.248  0.4118  0.4736 -0.1576
   35MOL0     O 4716   4.236   3.910   2.365  0.7768 -0.5576 -0.1964
   35MOL0     C 4717   4.100   3.912   2.385  0.4973  0.1776 -0.2634
   35MOL0     C 4718   4.057   3.914   2.516 -0.2756  0.6712  0.0718
   35MOL0     C 4719   3.925   3.918   2.560  0.2409 -0.3257 -0.9498
   35MOL0     C 4720   3.900   3.932   2.709  0.3957  0.5135  0.7985
   35MOL0     C 4721   3.827   3.925   2.465 -0.6529  0.1519  0.1491
   35MOL0     C 4722   3.676   3.908   2.489  0.4658 -0.2019  0.3917
   35MOL0     O 4723   3.601   3.854   2.391 -0.4545 -0.0308  0.0459
   35MOL0     C 4724   3.459   3.848   2.396  0.4887  0.9542 -0.4651
   35MOL0     C 4725   3.383   3.938   2.334  0.3618 -0.5918  0.2301
   35MOL0     C 4726   3.242   3.949   2.355  0.4492  0.2815 -0.5064
   35MOL0     C 4727   3.171   3.859   2.425 -0.3707 -0.5360 -0.4857
   35MOL0     O 4728   3.037   3.872   2.434 -0.0963 -0.0182  0.5394
   35MOL0     C 4729   2.991   3.860   2.568  1.0140 -0.4212  0.4119
   35MOL0     C 4730   2.879   3.972   2.587  0.2614  0.2576  0.3284
   35MOL0     C 4731   2.754   3.942   2.510 -0.1978 -0.1018  0.6000
   35MOL0     C 4732   2.648   3.856   2.573 -0.4881 -0.0503 -0.5799
   35MOL0     C 4733   2.592   3.918   2.701  0.7396  0.0164 -0.8042
   35MOL0     C 4734   2.522   4.053   2.663  0.8695  0.7304 -0.5958
   35MOL0     C 4735   2.422   4.099   2.775  0.3097 -0.6205  0.1316
   35MOL0     C 4736   2.296   4.167   2.713  0.0335  0.4827  0.2746
   35MOL0    Cl 4737   2.178   4.208   2.855 -0.0405  0.2661  0.4559
   35MOL0     C 4738   3.247   3.752   2.487  0.1861  0.7282 -0.3584
   35MOL0     C 4739   3.390   3.748   2.477  0.2761 -0.0063 -0.2234
   35MOL0     O 4740   3.630   3.938   2.595  0.1383  0.5245  0.2013
   35MOL0     C 4741   3.862   3.910   2.332 -0.1122 -0.3537  0.7417
   35MOL0     C 4742   3.995   3.914   2.285 -0.8311  0.0680  0.1696
   35MOL0     N 4743   4.643   4.170   2.598  0.2775  0.2334  0.5855
   35MOL0     N 4744   4.721   4.262   2.640 -0.5393 -0.9563  0.0651
   35MOL0     C 4745   4.283   5.091   2.364 -0.7818  0.2834 -0.5888
   35MOL0     C 4746   4.172   5.068   2.450 -0.2767 -0.5730  1.3340
   35MOL0     C 4747   3.870   4.991   2.769 -0.3144  0.0177  0.2339
   35MOL0     C 4748   3.780   5.093   2.804  0.6112  0.4834 -0.8301
   35MOL0     C 4749   3.687   5.073   2.906 -0.3145 -0.0670 -0.0330
   35MOL0     C 4750   3.680   4.944   2.976  0.1595 -0.4321  0.8342
   35MOL0     O 4751   3.581   4.930   3.072  0.5367 -0.1474 -0.3147
   35MOL0     C 4752   3.460   4.851   3.030  0.4332  0.7503 -0.0054
   35MOL0     C 4753   3.341   4.950   3.002  0.0291 -0.0671  0.0811
   35MOL0     C 4754   3.281   5.037   3.120 -0.2282 -0.3603 -0.0970
   35MOL0     C 4755   3.380   5.146   3.164 -0.8148 -0.1244 -0.0967
   35MOL0     C 4756   3.324   5.232   3.268 -0.1622 -0.4504 -0.3776
   35MOL0     C 4757   3.284   5.307   3.353  1.1245  0.0552  0.2666
   35MOL0     C 4758   3.784   4.850   2.951 -0.3184 -0.3226  0.6873
   35MOL0     C 4759   3.878   4.873   2.843 -0.3390  1.0625 -0.6321
   35MOL0     C 4760   3.976   4.765   2.793  0.2306 -0.0623 -1.0602
   35MOL0     H 4761   4.317   5.019   2.742 -0.8013 -2.6597  0.0943
   35MOL0     H 4762   4.519   5.086   2.611 -0.9571  2.8511  1.2752
   35MOL0     H 4763   4.594   5.285   2.475  0.8705  1.5278 -0.1560
   35MOL0     H 4764   4.662   5.292   2.316  2.9479 -1.1008  0.3516
   35MOL0     H 4765   4.819   5.202   2.463 -0.3738  0.3561 -0.3374
   35MOL0     H 4766   4.716   5.069   2.519 -1.1559 -1.8363 -2.2323
   35MOL0     H 4767   4.710   5.008   2.260 -1.2413  3.1195  0.5216
   35MOL0     H 4768   4.858   5.111   2.253 -0.2612  0.0769 -0.3354
   35MOL0     H 4769   4.949   4.892   2.265 -0.2787  0.5763 -1.1623
   35MOL0     H 4770   4.956   4.944   2.441  3.5743 -2.4706 -2.0768
   35MOL0     H 4771   4.746   4.782   2.312  2.0543  0.3956 -1.5883
   35MOL0     H 4772   4.732   4.845   2.480 -0.6297 -0.1209  0.0013
   35MOL0     H 4773   4.946   4.657   2.378 -2.0018  1.1178 -2.2322
   35MOL0     H 4774   4.931   4.712   2.543  1.9697  3.4018 -1.8515
   35MOL0     H 4775   4.702   4.553   2.406  2.2115  2.1874 -1.4924
   35MOL0     H 4776   4.715   4.581   2.576 -0.7216  0.9346 -0.2233
   35MOL0     H 4777   4.910   4.413   2.408 -0.9641 -3.0614  0.7456
   35MOL0     H 4778   4.928   4.439   2.587  1.3176  1.7827 -0.7933
   35MOL0     H 4779   4.720   4.308   2.314 -0.4596  1.2076  0.9344
   35MOL0     H 4780   4.546   3.996   2.368  1.2323 -0.0434 -0.9090
   35MOL0     H 4781   4.568   4.133   2.262  0.7389 -1.2804  0.3498
   35MOL0     H 4782   4.364   4.118   2.490 -1.8964  0.1895  0.1138
   35MOL0     H 4783   4.408   4.264   2.396  1.1346 -0.3201 -0.9428
   35MOL0     H 4784   4.199   4.165   2.319  0.7811  0.0336  1.9185
   35MOL0     H 4785   4.315   4.189   2.192 -0.5585 -1.4331 -1.5251
   35MOL0     H 4786   4.221   3.964   2.160 -0.2361  1.8466  0.0287
   35MOL0     H 4787   4.382   3.941   2.222 -0.2798 -1.0296 -0.6564
   35MOL0     H 4788   4.139   3.911   2.587  1.8398  0.4775 -2.2406
   35MOL0     H 4789   3.976   3.881   2.770  1.0766 -0.1062 -0.5324
   35MOL0     H 4790   3.808   3.878   2.732  0.7394 -0.7798 -0.6906
   35MOL0     H 4791   3.885   4.029   2.758  0.6694 -0.8785  3.8566
   35MOL0     H 4792   3.438   4.004   2.269 -0.2355 -1.6677 -1.4513
   35MOL0     H 4793   3.188   4.035   2.316 -1.0838 -0.8372 -0.9368
   35MOL0     H 4794   2.943   3.762   2.579  1.7073 -0.9995 -1.3943
   35MOL0     H 4795   3.072   3.877   2.640  0.1456 -1.3718  1.6549
   35MOL0     H 4796   2.849   3.983   2.692  4.6207 -3.8395  2.4169
   35MOL0     H 4797   2.928   4.066   2.559  2.9374 -1.1342  0.0381
   35MOL0     H 4798   2.781   3.911   2.408  0.1272  2.6941 -0.2427
   35MOL0     H 4799   2.707   4.040   2.493  1.3112  0.9633  2.2218
   35MOL0     H 4800   2.684   3.755   2.598 -1.5784  0.0070  1.4314
   35MOL0     H 4801   2.559   3.845   2.511 -2.6975 -2.7936  2.7362
   35MOL0     H 4802   2.516   3.852   2.743 -0.5838  2.3547  0.6683
   35MOL0     H 4803   2.666   3.922   2.782 -1.7277 -1.2184  1.6806
   35MOL0     H 4804   2.473   4.050   2.565 -0.4458  2.4263 -0.0326
   35MOL0     H 4805   2.590   4.135   2.637 -0.8126  3.0424  1.7454
   35MOL0     H 4806   2.479   4.168   2.838 -1.5319  0.4920  0.6392
   35MOL0     H 4807   2.386   4.013   2.832 -3.4247  0.2347 -0.6716
   35MOL0     H 4808   2.255   4.112   2.627 -3.2855  1.8272  0.8639
   35MOL0     H 4809   2.332   4.265   2.680  1.7446  0.0037  0.6096
   35MOL0     H 4810   3.197   3.680   2.551  3.4578 -1.6875 -0.2667
   35MOL0     H 4811   3.427   3.666   2.538  0.1285  1.6020  2.1403
   35MOL0     H 4812   3.784   3.899   2.257 -1.6466 -0.4141  2.2796
   35MOL0     H 4813   4.013   3.908   2.178 -1.5339 -1.8215  0.1220
   35MOL0     H 4814   4.271   5.109   2.258  1.2817  0.4693 -0.8229
   35MOL0     H 4815   4.082   5.060   2.391  1.5894 -0.7563 -1.6913
   35MOL0     H 4816   3.779   5.188   2.750  0.8119 -0.2995 -2.2521
   35MOL0     H 4817   3.611   5.143   2.939  1.7186  1.2003  2.3482
   35MOL0     H 4818   3.479   4.799   2.935  1.4007  2.6736 -0.9274
   35MOL0     H 4819   3.431   4.774   3.101  0.7143 -0.1067 -0.8085
   35MOL0     H 4820   3.257   4.892   2.961  0.6362 -0.7032 -0.2756
   35MOL0     H 4821   3.364   5.020   2.922  0.4407 -0.9344 -0.5793
   35MOL0     H 4822   3.186   5.087   3.097  0.5071  1.0270 -0.1896
   35MOL0     H 4823   3.272   4.975   3.210  2.9923 -0.0593  0.5480
   35MOL0     H 4824   3.398   5.210   3.077 -2.5302  1.6663  0.7773
   35MOL0     H 4825   3.476   5.104   3.194 -1.1750 -0.1418  1.0667
   35MOL0     H 4826   3.242   5.395   3.399  0.2880  0.3452 -0.9874
   35MOL0     H 4827   3.792   4.759   3.009 -0.1240 -0.1980  0.8542
   35MOL0     H 4828   3.930   4.667   2.807 -1.1115  0.8242  1.7313
   35MOL0     H 4829   3.994   4.778   2.686  0.7824 -0.8233 -1.0632
   35MOL0     H 4830   4.072   4.766   2.845 -0.8789  1.9262  1.1598
   36MOL0     O 4831   2.227   4.673   2.825  0.1514 -0.9499  0.4963
   36MOL0     C 4832   2.141   4.612   2.768  0.0754  0.3022 -0.1078
   36MOL0     O 4833   2.149   4.568   2.634  0.5521  0.2031  0.7970
   36MOL0     C 4834   2.237   4.634   2.555 -0.7855 -0.7563 -1.1640
   36MOL0     C 4835   2.355   4.571   2.505  0.8206  0.0384  0.0061
   36MOL0     C 4836   2.436   4.636   2.420 -0.3174  0.7279 -0.3235
   36MOL0     C 4837   2.423   4.769   2.394  0.1770  0.0132  0.2515
   36MOL0     O 4838   2.509   4.850   2.325  0.6671  0.5632  0.0760
   36MOL0     C 4839   2.632   4.797   2.275  0.1725 -0.8852  0.8616
   36MOL0     C 4840   2.744   4.818   2.372  0.8806  0.2386  0.2544
   36MOL0     C 4841   2.794   4.965   2.380  0.2600 -0.2083 -0.5689
   36MOL0     C 4842   2.867   4.979   2.522 -0.2431  0.0681 -0.8326
   36MOL0     C 4843   2.966   4.862   2.552 -0.5578  0.3828 -0.4176
   36MOL0     C 4844   3.072   4.899   2.666 -1.1201  0.2108  0.8741
   36MOL0     C 4845   3.171   4.778   2.694  0.2587 -0.2016  0.4254
   36MOL0     C 4846   3.108   4.683   2.792  0.4374 -0.6680  0.3399
   36MOL0     N 4847   3.208   4.601   2.857 -1.1210  0.1081 -0.0488
   36MOL0     C 4848   3.305   4.526   2.795 -0.7042 -0.3809  0.0108
   36MOL0     C 4849   3.385   4.483   2.899  0.7700  0.5296  0.1001
   36MOL0     C 4850   3.512   4.397   2.894  0.8609 -0.1187 -0.0590
   36MOL0     C 4851   3.486   4.275   2.980 -0.0522  0.2047 -0.4753
   36MOL0     C 4852   3.600   4.178   2.968  0.4029  0.3006 -0.0464
   36MOL0     C 4853   3.627   4.087   3.093  0.2732 -0.0584  0.4341
   36MOL0     O 4854   3.736   3.999   3.071 -0.4004 -0.5224  0.7349
   36MOL0     C 4855   3.859   4.046   3.109  0.3628  0.1494 -0.3343
   36MOL0     C 4856   3.968   3.984   3.047  0.0518  0.2990  0.6640
   36MOL0     C 4857   4.099   4.030   3.062 -0.3157  0.5659 -0.1400
   36MOL0     C 4858   4.206   3.982   2.972 -0.3224  0.2312 -0.3881
   36MOL0     C 4859   4.134   4.136   3.150  0.0345 -0.2941  0.5076
   36MOL0     C 4860   4.266   4.210   3.171  0.3092  0.3536  0.1613
   36MOL0     O 4861   4.276   4.281   3.287  0.8079 -0.0050 -0.5843
   36MOL0     C 4862   4.375   4.382   3.296  0.1193 -0.3052 -0.0506
   36MOL0     C 4863   4.340   4.512   3.274 -0.2469 -0.3697 -0.6238
   36MOL0     C 4864   4.441   4.617   3.283 -0.1278 -0.2526  1.0085
   36MOL0     C 4865   4.576   4.591   3.288 -0.3226 -0.5259 -0.4526
   36MOL0     O 4866   4.667   4.691   3.275  0.3568  0.2462  0.3490
   36MOL0     C 4867   4.803   4.672   3.221 -0.0478  0.3799  0.0749
   36MOL0     C 4868   4.900   4.606   3.325 -0.1320 -0.2917 -0.4805
   36MOL0     C 4869   5.033   4.683   3.340  0.2090  0.1657 -0.9704
   36MOL0     C 4870   5.011   4.818   3.425 -0.6364 -0.0369 -0.1604
   36MOL0     C 4871   5.152   4.868   3.476  0.4259 -0.8957  0.4379
   36MOL0     C 4872   5.150   4.959   3.598 -0.0033 -0.3124  0.1761
   36MOL0     C 4873   5.295   4.983   3.643 -0.5532  0.0284 -0.4635
   36MOL0     C 4874   5.339   4.882   3.750  0.0872 -0.1619  0.1196
   36MOL0    Cl 4875   5.268   4.908   3.906  0.1540 -0.1954  0.2074
   36MOL0     C 4876   4.610   4.454   3.290  0.2292 -0.0126  0.0688
   36MOL0     C 4877   4.513   4.352   3.296 -0.2821  0.3162 -0.4900
   36MOL0     O 4878   4.353   4.202   3.088  0.0052  0.3740  0.8829
   36MOL0     C 4879   4.023   4.191   3.222 -0.6706 -0.8141  1.3396
   36MOL0     C 4880   3.890   4.151   3.199 -0.2927 -0.1752 -0.1564
   36MOL0     N 4881   3.340   4.542   3.022 -0.5720  0.5665  0.4137
   36MOL0     N 4882   3.236   4.611   2.989  0.6363 -0.0186 -0.5304
   36MOL0     C 4883   2.311   4.836   2.443 -0.0678  0.1362  0.0793
   36MOL0     C 4884   2.210   4.771   2.521 -0.1373  0.4718 -0.0051
   36MOL0     C 4885   2.014   4.581   2.837 -0.1454 -0.6051  1.0467
   36MOL0     C 4886   1.899   4.598   2.760  0.4081 -0.1455  0.1395
   36MOL0     C 4887   1.768   4.580   2.819  0.4202  0.2800 -0.1207
   36MOL0     C 4888   1.767   4.540   2.952  0.2892 -0.2039 -0.4213
   36MOL0     O 4889   1.643   4.511   2.999 -0.0443 -0.1197  0.9681
   36MOL0     C 4890   1.638   4.477   3.134 -0.3652  0.2877 -0.0214
   36MOL0     C 4891   1.483   4.468   3.177 -1.1573 -0.5012  0.7061
   36MOL0     C 4892   1.403   4.370   3.090  0.9093 -0.1067 -0.3505
   36MOL0     C 4893   1.283   4.323   3.164 -0.0486 -0.1316 -0.1477
   36MOL0     C 4894   1.195   4.225   3.087  0.4024 -0.2105 -0.9157
   36MOL0     C 4895   1.125   4.137   3.038  0.2150 -1.0552  0.7787
   36MOL0     C 4896   1.882   4.522   3.029  0.4124  1.1071  0.0517
   36MOL0     C 4897   2.004   4.548   2.977 -0.8180 -0.1365 -0.4614
   36MOL0     C 4898   2.114   4.541   3.082  0.3999 -0.4228  0.3047
   36MOL0     H 4899   2.379   4.467   2.526 -0.6174 -0.6177 -1.3718
   36MOL0     H 4900   2.528   4.580   2.402 -0.9581 -0.0827 -1.1941
   36MOL0     H 4901   2.651   4.854   2.183  0.3252 -1.9836  0.1843
   36MOL0     H 4902   2.621   4.689   2.259 -1.5343 -0.6957  0.4956
   36MOL0     H 4903   2.712   4.773   2.466 -0.3484 -2.3327 -1.2979
   36MOL0     H 4904   2.825   4.749   2.347  0.3326 -0.2768 -0.1232
   36MOL0     H 4905   2.861   4.997   2.300  0.1337  2.3515  0.2581
   36MOL0     H 4906   2.700   5.020   2.376 -1.5205 -3.0984 -2.4966
   36MOL0     H 4907   2.932   5.067   2.527  1.3795 -1.1486  3.1212
   36MOL0     H 4908   2.796   4.989   2.604  0.1604 -0.2882 -0.4360
   36MOL0     H 4909   3.034   4.839   2.470 -0.1901 -2.6691  0.6276
   36MOL0     H 4910   2.917   4.766   2.570  0.6389 -0.7230 -2.6688
   36MOL0     H 4911   3.138   4.975   2.622  1.0578 -1.9236  0.1880
   36MOL0     H 4912   3.023   4.944   2.753 -2.5912 -1.9929  1.2589
   36MOL0     H 4913   3.269   4.816   2.726  0.4194  0.3604 -0.6676
   36MOL0     H 4914   3.192   4.723   2.601  4.1201 -0.8064  1.4514
   36MOL0     H 4915   3.057   4.729   2.877  1.1751 -0.0207  0.4410
   36MOL0     H 4916   3.024   4.639   2.737 -1.3760  1.6344  1.1100
   36MOL0     H 4917   3.331   4.504   2.692  4.2098 -0.0648  0.9577
   36MOL0     H 4918   3.593   4.456   2.939 -1.6077  4.0578 -0.5204
   36MOL0     H 4919   3.537   4.369   2.791  2.9680  3.4760 -0.7118
   36MOL0     H 4920   3.477   4.309   3.084 -1.8246  2.2237 -1.2253
   36MOL0     H 4921   3.390   4.228   2.954  0.2915 -0.1334 -1.1497
   36MOL0     H 4922   3.576   4.116   2.881  1.8419  1.5182 -1.3856
   36MOL0     H 4923   3.695   4.224   2.938  1.7249 -2.2383  0.0444
   36MOL0     H 4924   3.635   4.157   3.177 -1.2378 -0.5698  1.0302
   36MOL0     H 4925   3.541   4.024   3.116  1.3220 -1.5905  0.2975
   36MOL0     H 4926   3.943   3.897   2.987 -1.2886 -1.0571  3.0516
   36MOL0     H 4927   4.231   4.059   2.898  0.4450 -1.4765 -2.0114
   36MOL0     H 4928   4.173   3.890   2.922  0.0294  0.3064 -0.7715
   36MOL0     H 4929   4.299   3.961   3.027  0.7494  0.6590 -1.9611
   36MOL0     H 4930   4.235   4.539   3.268  0.0969  2.6765  3.2171
   36MOL0     H 4931   4.405   4.719   3.284 -1.0390 -0.5463  0.3920
   36MOL0     H 4932   4.795   4.621   3.125  1.8018  0.7760 -0.3438
   36MOL0     H 4933   4.843   4.772   3.202  0.1355  0.0628 -1.2760
   36MOL0     H 4934   4.855   4.599   3.425  3.4369 -1.1523  1.2270
   36MOL0     H 4935   4.918   4.502   3.296 -0.2076 -1.3033  2.7303
   36MOL0     H 4936   5.070   4.712   3.241 -1.0141  1.8826 -0.9517
   36MOL0     H 4937   5.104   4.620   3.394 -0.5150 -0.7552 -1.0583
   36MOL0     H 4938   4.958   4.798   3.519 -1.5602  0.7516 -0.4959
   36MOL0     H 4939   4.964   4.898   3.367 -1.5701  0.5699  1.3508
   36MOL0     H 4940   5.205   4.780   3.513  1.7999  1.0389  3.4759
   36MOL0     H 4941   5.208   4.913   3.394 -3.5082  0.5216 -1.7325
   36MOL0     H 4942   5.088   4.925   3.682 -0.1418 -1.0769 -0.2346
   36MOL0     H 4943   5.114   5.060   3.574  2.4913  0.8840  1.1182
   36MOL0     H 4944   5.311   5.087   3.673  0.9658 -0.0623 -0.8838
   36MOL0     H 4945   5.368   4.970   3.563  1.6325 -2.2854  1.7351
   36MOL0     H 4946   5.448   4.885   3.766 -0.1836 -1.6307  2.6846
   36MOL0     H 4947   5.314   4.787   3.703  0.1455 -0.8453  1.4466
   36MOL0     H 4948   4.714   4.425   3.276 -0.0864 -0.1132 -2.5345
   36MOL0     H 4949   4.523   4.244   3.295 -3.5290 -0.0674 -0.7381
   36MOL0     H 4950   4.034   4.277   3.286  0.8476  1.5763 -1.8516
   36MOL0     H 4951   3.816   4.210   3.252 -0.4390 -0.4530 -0.0443
   36MOL0     H 4952   2.297   4.942   2.425 -1.0036  0.2701  1.4717
   36MOL0     H 4953   2.127   4.829   2.561 -1.5535 -0.4100 -1.5487
   36MOL0     H 4954   1.889   4.621   2.654 -2.7251 -0.4852  0.2646
   36MOL0     H 4955   1.670   4.593   2.773 -0.1168 -0.4630  0.7845
   36MOL0     H 4956   1.688   4.388   3.173  0.6496  1.9396  2.7497
   36MOL0     H 4957   1.674   4.558   3.197 -1.2567 -0.6866  1.8366
   36MOL0     H 4958   1.430   4.563   3.167 -0.0909 -0.1347 -3.0004
   36MOL0     H 4959   1.474   4.444   3.284 -3.7916 -2.6443  0.0954
   36MOL0     H 4960   1.363   4.413   2.998 -2.2784 -4.8586 -1.6025
   36MOL0     H 4961   1.454   4.284   3.044 -0.1296 -0.4453 -0.8938
   36MOL0     H 4962   1.219   4.408   3.191 -0.2138  0.3503 -1.9820
   36MOL0     H 4963   1.312   4.260   3.249  0.9825  0.2350 -0.2121
   36MOL0     H 4964   1.060   4.063   2.996 -0.1038 -0.6839  0.6084
   36MOL0     H 4965   1.882   4.500   3.135  3.8655  0.9301  0.1353
   36MOL0     H 4966   2.103   4.616   3.161 -0.3300 -1.4281  1.1882
   36MOL0     H 4967   2.124   4.438   3.119  1.3900  0.5313  2.8808
   36MOL0     H 4968   2.215   4.552   3.040 -0.0448 -0.8623 -0.9166
   37MOL0     O 4969  10.288   2.528   7.104  0.4720  0.0378 -0.0023
   37MOL0     C 4970  10.200   2.591   7.152  0.6133  0.3221 -0.0517
   37MOL0     O 4971  10.135   2.562   7.273 -0.1031  0.9068 -0.2653
   37MOL0     C 4972  10.177   2.466   7.357 -0.1406 -0.1827  0.4092
   37MOL0     C 4973  10.085   2.370   7.403 -0.4974 -0.3948 -0.5145
   37MOL0     C 4974  10.133   2.272   7.495 -0.2997  0.2990 -0.1735
   37MOL0     C 4975  10.270   2.249   7.511 -0.0558 -0.3817  0.3583
   37MOL0     O 4976  10.310   2.147   7.588 -0.7995 -0.2800 -0.1881
   37MOL0     C 4977  10.436   2.092   7.555  0.1586  0.3218 -0.1346
   37MOL0     C 4978  10.431   2.003   7.430 -0.5490 -0.2532 -0.1632
   37MOL0     C 4979  10.574   1.986   7.369 -0.5037 -0.5217  0.2106
   37MOL0     C 4980  10.665   1.904   7.462 -0.5831  0.4806  0.1880
   37MOL0     C 4981  10.788   1.868   7.381 -0.1368  0.4437 -0.0731
   37MOL0     C 4982  10.890   1.775   7.455  0.9385 -0.2586 -0.5017
   37MOL0     C 4983  10.952   1.840   7.583 -0.9230 -0.3734 -0.9694
   37MOL0     C 4984  11.075   1.766   7.636  0.8843  0.5076 -0.4028
   37MOL0     N 4985  11.195   1.794   7.563  0.1839 -0.6835  0.2562
   37MOL0     C 4986  11.263   1.707   7.484 -0.3622 -0.1789  0.5069
   37MOL0     C 4987  11.384   1.751   7.471 -0.0404 -0.4035 -0.0803
   37MOL0     C 4988  11.492   1.689   7.391  0.3305 -0.5540 -0.2220
   37MOL0     C 4989  11.507   1.769   7.266  0.0148  0.4405  1.2008
   37MOL0     C 4990  11.583   1.679   7.159  0.7475 -1.1139  0.7597
   37MOL0     C 4991  11.583   1.752   7.021 -0.3441 -0.1946 -0.4047
   37MOL0     O 4992  11.705   1.731   6.950 -0.2674  1.1441  0.5251
   37MOL0     C 4993  11.738   1.787   6.828  1.4001  0.1950  0.0270
   37MOL0     C 4994  11.651   1.866   6.758  0.2257  0.8252  0.1517
   37MOL0     C 4995  11.694   1.931   6.638 -0.2490 -0.5846 -0.8855
   37MOL0     C 4996  11.587   2.005   6.557 -0.0045  0.6560 -0.2362
   37MOL0     C 4997  11.815   1.900   6.581  0.3529 -0.8051  0.2380
   37MOL0     C 4998  11.869   1.965   6.456 -0.0809  0.1634 -0.0458
   37MOL0     O 4999  11.938   1.891   6.363  0.4399  0.0817 -0.6909
   37MOL0     C 5000  11.983   1.961   6.254 -0.2903 -0.2003 -0.7482
   37MOL0     C 5001  11.891   2.014   6.166 -0.6343 -0.1145  0.2361
   37MOL0     C 5002  11.946   2.078   6.058 -0.3157  0.6283 -0.5670
   37MOL0     C 5003  12.075   2.095   6.025 -1.2852 -0.8864 -0.2588
   37MOL0     O 5004  12.100   2.154   5.901  0.6982 -0.0680  0.0553
   37MOL0     C 5005  12.235   2.158   5.871  0.8674 -0.2809  0.1686
   37MOL0     C 5006  12.259   2.213   5.733 -0.4803 -0.2985  0.6725
   37MOL0     C 5007  12.214   2.362   5.734  0.0609 -0.1370  0.2434
   37MOL0     C 5008  12.322   2.455   5.785 -0.7516 -0.3399  0.2654
   37MOL0     C 5009  12.265   2.597   5.775  0.2623  0.3594 -0.0432
   37MOL0     C 5010  12.367   2.710   5.807  0.0936 -0.2337 -0.2331
   37MOL0     C 5011  12.298   2.844   5.806  0.2086  0.5508  0.2231
   37MOL0     C 5012  12.394   2.964   5.777 -0.1557  0.1238  0.8246
   37MOL0    Cl 5013  12.513   2.972   5.910  0.1651  0.4698 -0.6783
   37MOL0     C 5014  12.170   2.054   6.121  0.2356  0.1157  0.0994
   37MOL0     C 5015  12.123   1.995   6.239  0.6515 -0.6228  0.2835
   37MOL0     O 5016  11.866   2.088   6.458 -0.6256 -0.1334 -0.1858
   37MOL0     C 5017  11.898   1.812   6.651  0.5264 -0.3636 -0.2186
   37MOL0     C 5018  11.861   1.753   6.773  0.2414 -0.2548 -0.1107
   37MOL0     N 5019  11.385   1.872   7.533  0.7191 -0.4578 -0.1113
   37MOL0     N 5020  11.276   1.893   7.599 -0.4069  0.2840  0.9637
   37MOL0     C 5021  10.360   2.340   7.458 -0.4551  0.8003 -0.9231
   37MOL0     C 5022  10.310   2.451   7.384  0.0300 -0.5226 -0.1414
   37MOL0     C 5023  10.161   2.721   7.094 -0.4777  0.5108  0.5635
   37MOL0     C 5024  10.111   2.826   7.171  0.0579  0.6160 -0.4213
   37MOL0     C 5025  10.071   2.953   7.117 -0.1491 -0.5395  0.0725
   37MOL0     C 5026  10.083   2.977   6.980 -0.0562 -1.1525  0.9672
   37MOL0     O 5027  10.044   3.103   6.935  0.2636  0.6233  0.3637
   37MOL0     C 5028  10.047   3.126   6.790 -0.0378  0.7363  0.4946
   37MOL0     C 5029  10.005   3.275   6.758  0.0970  0.6552  0.6518
   37MOL0     C 5030  10.124   3.366   6.810  0.1684  0.1425  0.0710
   37MOL0     C 5031  10.261   3.356   6.747  0.2969  0.4617  0.6254
   37MOL0     C 5032  10.243   3.391   6.604 -0.2693 -0.3396 -0.0929
   37MOL0     C 5033  10.213   3.422   6.492 -0.0313  0.5016  0.5040
   37MOL0     C 5034  10.152   2.876   6.909 -0.3759  0.4528 -0.0469
   37MOL0     C 5035  10.182   2.748   6.956 -0.1735 -0.2755 -0.1028
   37MOL0     C 5036  10.243   2.650   6.858 -0.4910 -0.1130  0.8962
   37MOL0     H 5037   9.984   2.379   7.366 -0.8858 -0.5881  0.4559
   37MOL0     H 5038  10.054   2.208   7.534 -0.5439  1.4862  1.3836
   37MOL0     H 5039  10.456   2.019   7.634  1.1923 -0.5922 -1.1921
   37MOL0     H 5040  10.520   2.162   7.558  0.7668 -0.4151  1.1575
   37MOL0     H 5041  10.387   1.907   7.462 -2.9923  0.3250 -1.5056
   37MOL0     H 5042  10.370   2.041   7.348  0.0841 -1.3734 -1.1826
   37MOL0     H 5043  10.574   1.938   7.271  3.4149  0.8162 -0.6197
   37MOL0     H 5044  10.619   2.084   7.351  1.9098 -1.9699 -2.5366
   37MOL0     H 5045  10.691   1.957   7.554  1.2428  1.4061 -0.8226
   37MOL0     H 5046  10.607   1.819   7.500 -1.0758  1.5392  1.9343
   37MOL0     H 5047  10.837   1.960   7.347 -2.9967  1.1949 -2.5828
   37MOL0     H 5048  10.763   1.819   7.286  0.5128  1.3903 -0.7541
   37MOL0     H 5049  10.843   1.686   7.498 -1.8579  2.9272  3.9026
   37MOL0     H 5050  10.971   1.748   7.387  0.9687 -0.8949 -0.2181
   37MOL0     H 5051  10.883   1.843   7.668  2.2991 -1.4647  1.9244
   37MOL0     H 5052  10.994   1.937   7.555  2.4722 -0.9380  1.4646
   37MOL0     H 5053  11.088   1.796   7.740 -1.0519 -2.1652  0.7049
   37MOL0     H 5054  11.059   1.658   7.635 -0.2526  0.6572  0.0507
   37MOL0     H 5055  11.225   1.615   7.440  1.1570 -0.0704 -1.1324
   37MOL0     H 5056  11.479   1.580   7.385 -1.7619 -0.5766  2.6704
   37MOL0     H 5057  11.586   1.716   7.439 -0.0896  0.0637  0.2744
   37MOL0     H 5058  11.407   1.788   7.225  0.2222  3.2759  1.7583
   37MOL0     H 5059  11.561   1.863   7.281 -1.4634  1.1055  2.7974
   37MOL0     H 5060  11.687   1.667   7.189  1.2065  2.5089  1.0857
   37MOL0     H 5061  11.535   1.581   7.147 -1.1892 -0.1726  0.2898
   37MOL0     H 5062  11.504   1.698   6.967  0.1609 -1.6703  0.3066
   37MOL0     H 5063  11.554   1.858   7.019  0.3127 -0.0156 -1.1300
   37MOL0     H 5064  11.551   1.884   6.797  0.5822  1.8367  0.6291
   37MOL0     H 5065  11.494   1.999   6.615 -0.2433  0.4749 -0.6440
   37MOL0     H 5066  11.574   1.973   6.454  0.1810  2.1685 -0.7628
   37MOL0     H 5067  11.623   2.108   6.549  0.9726  0.2351 -1.6007
   37MOL0     H 5068  11.783   2.012   6.181 -0.8124 -0.3288 -0.9478
   37MOL0     H 5069  11.893   2.134   5.983 -1.6038  0.8081  0.4443
   37MOL0     H 5070  12.284   2.219   5.947 -1.6467  1.6676  0.3857
   37MOL0     H 5071  12.275   2.057   5.859  1.1376  0.0251 -1.8772
   37MOL0     H 5072  12.361   2.209   5.693  0.3179  2.4340  2.2171
   37MOL0     H 5073  12.196   2.141   5.679 -0.5827 -0.7905  1.4321
   37MOL0     H 5074  12.123   2.368   5.796 -0.0207 -1.3978  0.2554
   37MOL0     H 5075  12.177   2.393   5.635  1.6996 -1.1561 -0.7186
   37MOL0     H 5076  12.403   2.456   5.711  0.6338  1.3318  1.6820
   37MOL0     H 5077  12.363   2.436   5.885 -0.1784 -0.9599 -0.0732
   37MOL0     H 5078  12.221   2.609   5.676  1.1828 -0.4794 -0.5820
   37MOL0     H 5079  12.175   2.597   5.838  0.3745 -1.2099  0.1788
   37MOL0     H 5080  12.457   2.716   5.745 -0.8340  3.8663 -1.5274
   37MOL0     H 5081  12.406   2.697   5.909  3.5551  2.4380 -0.9940
   37MOL0     H 5082  12.244   2.857   5.900 -0.1270 -1.6212  0.3811
   37MOL0     H 5083  12.216   2.842   5.733 -0.1085  0.8689  0.5633
   37MOL0     H 5084  12.340   3.059   5.782  0.9126  0.6995  1.8519
   37MOL0     H 5085  12.449   2.962   5.682  1.0246 -1.5230  1.4997
   37MOL0     H 5086  12.279   2.052   6.119  0.2222 -1.4639 -0.5559
   37MOL0     H 5087  12.195   1.954   6.309  0.0819 -2.6902 -0.2572
   37MOL0     H 5088  12.001   1.782   6.632  0.8729 -1.7841  3.2240
   37MOL0     H 5089  11.932   1.687   6.823  1.6960  1.2339 -0.1318
   37MOL0     H 5090  10.468   2.335   7.460 -0.4481  0.9344 -0.9536
   37MOL0     H 5091  10.386   2.518   7.345  0.4704 -0.7034  0.3947
   37MOL0     H 5092  10.123   2.812   7.278 -2.7118  2.5904  0.2659
   37MOL0     H 5093  10.031   3.040   7.169 -1.2261  0.4667 -2.2960
   37MOL0     H 5094  10.144   3.098   6.747 -0.1835  0.6782  0.2049
   37MOL0     H 5095   9.965   3.065   6.752 -0.4630  0.4956  1.7361
   37MOL0     H 5096   9.916   3.297   6.817 -0.2007  0.2774  0.3426
   37MOL0     H 5097   9.997   3.295   6.651 -0.0843  0.3678  0.6124
   37MOL0     H 5098  10.098   3.472   6.798 -3.3810 -0.6430 -0.2796
   37MOL0     H 5099  10.145   3.342   6.914 -3.5805 -0.2279  0.8608
   37MOL0     H 5100  10.315   3.261   6.754 -1.5605 -0.6674  0.3658
   37MOL0     H 5101  10.327   3.436   6.782 -1.2458  0.4545  3.9366
   37MOL0     H 5102  10.178   3.463   6.400 -0.4619 -1.1725 -0.1232
   37MOL0     H 5103  10.166   2.887   6.802  0.5180 -0.9192 -0.0954
   37MOL0     H 5104  10.209   2.548   6.878 -0.7251 -0.2661 -0.2352
   37MOL0     H 5105  10.219   2.679   6.755 -0.7138 -0.8766  0.7263
   37MOL0     H 5106  10.350   2.670   6.856 -0.7924  1.9457 -2.6510
   38MOL0     O 5107   8.368   4.297   3.422  0.1660  0.2421  0.2197
   38MOL0     C 5108   8.372   4.407   3.471  0.2298  0.5348  0.0774
   38MOL0     O 5109   8.265   4.499   3.486  0.4433 -0.0935  0.2691
   38MOL0     C 5110   8.142   4.451   3.455  1.0212 -0.8088 -0.0017
   38MOL0     C 5111   8.057   4.520   3.362 -0.4485 -0.3135  0.3139
   38MOL0     C 5112   7.930   4.481   3.339  0.5350 -0.6039 -0.0178
   38MOL0     C 5113   7.875   4.375   3.413 -0.0218 -0.1068 -0.6871
   38MOL0     O 5114   7.743   4.341   3.387  0.0402  0.3678  0.4070
   38MOL0     C 5115   7.638   4.443   3.345 -0.4818  0.4259  0.1729
   38MOL0     C 5116   7.493   4.395   3.354  0.3903 -1.2391 -1.1176
   38MOL0     C 5117   7.458   4.365   3.498 -0.1373  0.0555  0.0258
   38MOL0     C 5118   7.311   4.338   3.497 -0.9643  0.5042 -0.9744
   38MOL0     C 5119   7.272   4.260   3.618 -0.3971 -0.2202  1.2110
   38MOL0     C 5120   7.315   4.112   3.607  0.9794 -0.0522  0.3461
   38MOL0     C 5121   7.265   4.035   3.726 -0.0603 -0.1800  1.2240
   38MOL0     C 5122   7.295   3.892   3.706  0.0161  0.4892  0.6257
   38MOL0     N 5123   7.232   3.816   3.594  0.2517  0.3065 -0.0340
   38MOL0     C 5124   7.101   3.855   3.544 -0.1253  0.4779  0.2341
   38MOL0     C 5125   7.119   3.824   3.411  0.6801  1.1478 -0.4241
   38MOL0     C 5126   7.002   3.847   3.316  0.5568 -0.5826 -0.1975
   38MOL0     C 5127   7.053   3.915   3.182  0.3132  0.6706 -0.3981
   38MOL0     C 5128   6.931   3.982   3.111 -0.1344 -0.1256  0.1676
   38MOL0     C 5129   6.986   4.061   2.996 -0.5832  0.7226 -0.3057
   38MOL0     O 5130   6.888   4.066   2.899  0.2854  0.0897 -0.3873
   38MOL0     C 5131   6.887   4.179   2.824 -0.3524 -0.3767 -0.6727
   38MOL0     C 5132   6.998   4.249   2.798 -0.2093 -0.7038  0.0439
   38MOL0     C 5133   6.990   4.366   2.708  0.0370  0.3829 -0.8375
   38MOL0     C 5134   7.125   4.423   2.659 -0.2390 -0.8922 -1.4369
   38MOL0     C 5135   6.866   4.406   2.653 -0.5270  0.3912 -0.0867
   38MOL0     C 5136   6.856   4.519   2.556  0.1223  0.1188 -0.1841
   38MOL0     O 5137   6.959   4.544   2.475  0.1780 -0.2969 -0.4249
   38MOL0     C 5138   6.973   4.668   2.415  0.4310  0.7219  0.0138
   38MOL0     C 5139   6.982   4.782   2.501  0.4903  0.3588  0.0876
   38MOL0     C 5140   6.977   4.909   2.446 -0.9946  0.6290 -0.0369
   38MOL0     C 5141   6.969   4.935   2.308  0.2341  0.5782  0.4272
   38MOL0     O 5142   6.985   5.056   2.255 -0.3941 -0.2418 -0.3184
   38MOL0     C 5143   7.033   5.154   2.349 -0.2342  0.1752  0.7128
   38MOL0     C 5144   7.088   5.271   2.263 -0.2042  0.5992  0.5820
   38MOL0     C 5145   7.238   5.276   2.245 -0.0386  1.0465 -0.2453
   38MOL0     C 5146   7.319   5.402   2.251  0.1639  0.3672 -0.2047
   38MOL0     C 5147   7.281   5.508   2.140 -0.2380 -0.6969 -0.6190
   38MOL0     C 5148   7.360   5.645   2.146  0.5975  0.2241 -0.0504
   38MOL0     C 5149   7.504   5.643   2.109  0.2426 -0.1237 -0.6030
   38MOL0     C 5150   7.556   5.792   2.087 -0.5274 -0.0421 -0.2685
   38MOL0    Cl 5151   7.732   5.769   2.108 -0.0920 -0.0726  0.0417
   38MOL0     C 5152   6.963   4.822   2.227  0.6790 -0.3344 -0.1548
   38MOL0     C 5153   6.960   4.695   2.281  0.6863  0.4327 -0.0152
   38MOL0     O 5154   6.750   4.576   2.560 -0.2221 -0.0401  0.0322
   38MOL0     C 5155   6.751   4.329   2.694 -0.9099 -0.6781 -0.2972
   38MOL0     C 5156   6.768   4.214   2.773 -0.2116  0.6654  0.5252
   38MOL0     N 5157   7.231   3.756   3.382 -0.3921  0.0370 -1.1159
   38MOL0     N 5158   7.301   3.763   3.489  0.1927 -0.5990  0.1400
   38MOL0     C 5159   7.956   4.303   3.503 -0.7241 -0.3384 -0.7179
   38MOL0     C 5160   8.086   4.348   3.525 -0.2785 -0.1510  0.5553
   38MOL0     C 5161   8.501   4.461   3.504 -0.9522 -0.6960 -0.7966
   38MOL0     C 5162   8.534   4.595   3.454  0.2937 -0.3977  0.5001
   38MOL0     C 5163   8.652   4.663   3.486  1.2295  0.1126 -0.7446
   38MOL0     C 5164   8.748   4.602   3.560  0.4345 -0.2253  0.0170
   38MOL0     O 5165   8.875   4.648   3.580  0.6805  0.2468 -0.5154
   38MOL0     C 5166   8.935   4.745   3.492 -0.3771  0.8038 -0.0619
   38MOL0     C 5167   8.922   4.885   3.558 -0.1087 -0.0542  1.2990
   38MOL0     C 5168   9.006   4.873   3.683 -0.7512 -0.5185  0.2142
   38MOL0     C 5169   9.008   5.010   3.761  0.1838  0.3797  0.2634
   38MOL0     C 5170   8.877   5.039   3.820  0.5736  0.0540 -0.7451
   38MOL0     C 5171   8.772   5.077   3.880 -1.0226 -0.6351  0.3405
   38MOL0     C 5172   8.720   4.476   3.608  0.3997  0.2998 -0.1098
   38MOL0     C 5173   8.605   4.405   3.580 -0.0118  0.7930  0.0285
   38MOL0     C 5174   8.601   4.268   3.659 -0.5134  0.1683  1.2557
   38MOL0     H 5175   8.093   4.607   3.309  1.4367 -1.0497  0.3022
   38MOL0     H 5176   7.874   4.538   3.266  0.5589  1.2712  1.3689
   38MOL0     H 5177   7.658   4.479   3.243 -0.0725 -1.7205 -0.5547
   38MOL0     H 5178   7.654   4.528   3.412  1.9554 -0.3105  0.6231
   38MOL0     H 5179   7.429   4.479   3.326 -0.0369 -0.9296  0.6363
   38MOL0     H 5180   7.469   4.310   3.290 -1.6208 -1.2296 -0.4298
   38MOL0     H 5181   7.515   4.278   3.531  4.2797  1.4021 -3.1689
   38MOL0     H 5182   7.480   4.454   3.556  0.5339  0.7930 -1.3100
   38MOL0     H 5183   7.261   4.435   3.489  1.2313  2.0442  1.9437
   38MOL0     H 5184   7.285   4.275   3.411  0.1760  0.1020 -1.0390
   38MOL0     H 5185   7.164   4.271   3.627 -0.8473 -2.6365 -0.3418
   38MOL0     H 5186   7.323   4.307   3.702  2.5564  2.3586 -1.7040
   38MOL0     H 5187   7.261   4.074   3.520  1.8217  1.6304 -0.9699
   38MOL0     H 5188   7.419   4.098   3.576  0.8697  2.0376 -1.1735
   38MOL0     H 5189   7.159   4.054   3.741  0.2972  1.9333  1.3296
   38MOL0     H 5190   7.319   4.070   3.814  1.7049  2.5295 -0.7903
   38MOL0     H 5191   7.402   3.880   3.689 -0.1401  0.4740 -0.3830
   38MOL0     H 5192   7.266   3.831   3.792  1.0153  1.9213  2.0468
   38MOL0     H 5193   7.028   3.918   3.593 -1.8234 -2.3653  1.5883
   38MOL0     H 5194   6.924   3.905   3.365  0.2208 -1.4296  0.2853
   38MOL0     H 5195   6.958   3.751   3.288 -1.1474  0.5326 -1.5211
   38MOL0     H 5196   7.130   3.988   3.211  3.5289 -1.7508 -2.1591
   38MOL0     H 5197   7.105   3.845   3.117  0.9507  1.0029 -0.2571
   38MOL0     H 5198   6.871   3.901   3.067 -1.6867  2.1237 -2.1316
   38MOL0     H 5199   6.874   4.037   3.186 -2.8178  1.4600 -2.7569
   38MOL0     H 5200   7.007   4.163   3.031 -2.4608  0.9831  0.1614
   38MOL0     H 5201   7.078   4.019   2.955 -1.1436 -2.5164  1.4313
   38MOL0     H 5202   7.100   4.223   2.822  0.2401  0.4533 -0.5313
   38MOL0     H 5203   7.152   4.375   2.564 -0.7453  0.3425 -2.2313
   38MOL0     H 5204   7.193   4.391   2.738 -2.0907  0.6312  0.9340
   38MOL0     H 5205   7.119   4.533   2.658 -1.8976 -0.8110  2.2883
   38MOL0     H 5206   6.992   4.752   2.605 -1.2838 -1.9405 -0.3099
   38MOL0     H 5207   6.983   4.975   2.531  2.4646 -1.8472  1.9190
   38MOL0     H 5208   6.948   5.181   2.413  0.3097  0.6155  1.2651
   38MOL0     H 5209   7.108   5.118   2.420 -0.6764 -2.8257 -0.1985
   38MOL0     H 5210   7.037   5.264   2.166 -2.2255 -0.8087  1.6685
   38MOL0     H 5211   7.054   5.362   2.313 -1.5425 -0.7383  2.2343
   38MOL0     H 5212   7.272   5.228   2.153 -0.4925 -1.8650  0.9731
   38MOL0     H 5213   7.280   5.219   2.329 -0.5779  1.4162  0.2905
   38MOL0     H 5214   7.424   5.376   2.234 -0.9371 -3.0788 -2.7118
   38MOL0     H 5215   7.305   5.454   2.347  2.0890  1.2109 -0.3420
   38MOL0     H 5216   7.284   5.469   2.038  0.0770 -1.6776 -0.2362
   38MOL0     H 5217   7.176   5.532   2.159  0.3131  0.1188  1.6406
   38MOL0     H 5218   7.358   5.683   2.248  0.3492  0.7963 -0.2601
   38MOL0     H 5219   7.303   5.708   2.077 -1.2463  0.1783  1.3323
   38MOL0     H 5220   7.517   5.581   2.020 -1.2489 -0.0182 -0.9175
   38MOL0     H 5221   7.567   5.599   2.187 -2.5983 -0.6836  1.5263
   38MOL0     H 5222   7.512   5.866   2.154  1.0410  0.9011 -0.2187
   38MOL0     H 5223   7.530   5.835   1.989 -2.6349 -2.3424 -0.8235
   38MOL0     H 5224   6.963   4.832   2.119  1.1356 -1.5388 -0.2787
   38MOL0     H 5225   6.960   4.616   2.206  0.2059  1.0482 -0.6686
   38MOL0     H 5226   6.652   4.361   2.662 -1.7830 -1.7681  1.1945
   38MOL0     H 5227   6.680   4.151   2.783  0.1256  0.3215  1.4241
   38MOL0     H 5228   7.898   4.228   3.557 -1.7087  0.5810 -0.4685
   38MOL0     H 5229   8.162   4.309   3.592  0.0805  1.7005  1.2649
   38MOL0     H 5230   8.454   4.645   3.401  0.7139 -0.5288 -0.2623
   38MOL0     H 5231   8.665   4.762   3.443 -1.0298 -0.1589 -2.2185
   38MOL0     H 5232   9.042   4.733   3.477 -0.3761 -1.2444  1.1204
   38MOL0     H 5233   8.883   4.732   3.396 -3.2156 -0.7907  1.5293
   38MOL0     H 5234   8.816   4.902   3.582 -0.9902 -1.7928 -1.0108
   38MOL0     H 5235   8.958   4.958   3.486  0.0327  1.6506  3.0136
   38MOL0     H 5236   8.959   4.796   3.746  2.4936 -2.5520  0.4077
   38MOL0     H 5237   9.109   4.848   3.658  0.5353  2.6658  1.8453
   38MOL0     H 5238   9.037   5.085   3.687 -2.5153  0.1974 -1.0986
   38MOL0     H 5239   9.081   4.998   3.842 -0.9460 -0.1929  1.2192
   38MOL0     H 5240   8.689   5.117   3.935 -0.8549  0.9674 -0.5008
   38MOL0     H 5241   8.786   4.443   3.687  0.2961  0.5217  0.0717
   38MOL0     H 5242   8.661   4.277   3.750 -1.8792  3.0436  2.0073
   38MOL0     H 5243   8.496   4.257   3.688 -0.1004 -0.8371  2.4615
   38MOL0     H 5244   8.622   4.183   3.593 -3.0573  0.7838 -0.4897
   39MOL0     O 5245   3.490   1.802   0.282 -0.4569  0.4334 -0.2363
   39MOL0     C 5246   3.451   1.888   0.204 -0.0430  0.6759 -0.6505
   39MOL0     O 5247   3.515   1.921   0.086  0.1004 -0.8911 -0.2729
   39MOL0     C 5248   3.631   1.856   0.058  0.1738 -1.1776  0.2975
   39MOL0     C 5249   3.627   1.720   0.020  0.0804 -0.5496 -0.1268
   39MOL0     C 5250   3.743   1.661  -0.022  0.0074  0.8085  0.5007
   39MOL0     C 5251   3.865   1.723  -0.016 -0.9117 -0.2748 -0.5802
   39MOL0     O 5252   3.980   1.657  -0.052 -0.6447  0.3121 -0.0166
   39MOL0     C 5253   4.106   1.694   0.007 -0.0198  0.4921  0.4983
   39MOL0     C 5254   4.216   1.584  -0.012 -0.5519  1.1527  0.3571
   39MOL0     C 5255   4.341   1.619   0.064 -0.1729  0.2491  0.3385
   39MOL0     C 5256   4.410   1.741  -0.006 -0.8639 -0.6638  0.4918
   39MOL0     C 5257   4.533   1.781   0.068 -0.1712  0.3770  0.0113
   39MOL0     C 5258   4.624   1.861  -0.032 -0.3501  0.2599  0.3075
   39MOL0     C 5259   4.768   1.890   0.017 -1.1555 -0.3467  0.1423
   39MOL0     C 5260   4.869   1.919  -0.097 -0.0582 -0.4016 -0.3491
   39MOL0     N 5261   5.012   1.924  -0.066 -0.0891 -0.0157  0.0647
   39MOL0     C 5262   5.075   2.024   0.002  0.0416 -0.6009  0.3450
   39MOL0     C 5263   5.199   1.983   0.019  0.0798  0.0338 -0.5882
   39MOL0     C 5264   5.318   2.051   0.075  0.3282  0.3024  0.5247
   39MOL0     C 5265   5.374   2.147  -0.035  0.1275  0.3141 -0.8945
   39MOL0     C 5266   5.286   2.273  -0.065 -0.6626  0.2063  0.4485
   39MOL0     C 5267   5.341   2.346  -0.179 -0.0657 -0.9490  0.7715
   39MOL0     O 5268   5.462   2.416  -0.138 -0.1997 -0.4158 -0.6472
   39MOL0     C 5269   5.582   2.402  -0.204  0.7512 -0.2415 -0.2979
   39MOL0     C 5270   5.599   2.429  -0.342 -0.3028  0.0897  0.3176
   39MOL0     C 5271   5.728   2.418  -0.402  0.3275  0.5319 -0.4006
   39MOL0     C 5272   5.735   2.467  -0.546 -0.3380 -0.1487 -0.0633
   39MOL0     C 5273   5.836   2.347  -0.331  0.0264  0.7173  0.0165
   39MOL0     C 5274   5.954   2.280  -0.399  0.9461 -0.2289 -1.2151
   39MOL0     O 5275   5.987   2.312  -0.522  0.2927 -0.3680  0.7690
   39MOL0     C 5276   6.102   2.266  -0.580  0.2415 -0.1156 -0.2475
   39MOL0     C 5277   6.112   2.130  -0.606 -0.5675  0.3105  0.5127
   39MOL0     C 5278   6.219   2.079  -0.677  0.1760 -0.5101 -0.4658
   39MOL0     C 5279   6.327   2.161  -0.710 -0.6600  0.1103 -0.1578
   39MOL0     O 5280   6.429   2.105  -0.782 -0.3235 -0.1089  1.1556
   39MOL0     C 5281   6.562   2.153  -0.754  0.0665  0.2423  0.3798
   39MOL0     C 5282   6.659   2.092  -0.858  0.2736 -0.0669  0.4238
   39MOL0     C 5283   6.614   1.952  -0.915 -0.2395  0.7426 -0.0853
   39MOL0     C 5284   6.703   1.926  -1.034 -0.4110 -0.1069  0.1382
   39MOL0     C 5285   6.670   1.787  -1.088  0.3207  0.3607  0.8576
   39MOL0     C 5286   6.760   1.736  -1.212 -0.0829 -0.0589 -0.8204
   39MOL0     C 5287   6.716   1.788  -1.347 -0.1666 -0.2105 -0.5276
   39MOL0     C 5288   6.577   1.753  -1.390  0.3532 -0.2381 -0.2517
   39MOL0    Cl 5289   6.528   1.584  -1.392  0.3657 -0.1884 -0.0245
   39MOL0     C 5290   6.322   2.299  -0.677  0.4325  0.6463  0.0045
   39MOL0     C 5291   6.206   2.354  -0.616  1.1440 -0.5141  0.5915
   39MOL0     O 5292   6.016   2.209  -0.323 -0.7554 -0.2212  0.3325
   39MOL0     C 5293   5.812   2.335  -0.191 -0.2778 -0.8972  0.9759
   39MOL0     C 5294   5.687   2.356  -0.129 -0.5028 -0.5027  0.4376
   39MOL0     N 5295   5.210   1.854  -0.025 -0.7877 -0.2423  0.9598
   39MOL0     N 5296   5.095   1.822  -0.078 -0.3232 -0.0922  0.0663
   39MOL0     C 5297   3.870   1.857   0.021 -0.0683  0.4373 -0.2921
   39MOL0     C 5298   3.755   1.920   0.060  0.2789 -0.1852 -0.0855
   39MOL0     C 5299   3.330   1.958   0.235  0.4561  0.0314 -1.2371
   39MOL0     C 5300   3.273   2.051   0.140 -0.0750  0.3731 -0.1440
   39MOL0     C 5301   3.149   2.118   0.152  0.4314  0.0358 -0.7095
   39MOL0     C 5302   3.062   2.086   0.264  0.2684 -0.1899  0.1391
   39MOL0     O 5303   2.926   2.127   0.266 -0.4638 -0.1482 -0.4411
   39MOL0     C 5304   2.861   2.169   0.149  0.6268  0.1010  0.3618
   39MOL0     C 5305   2.856   2.319   0.145 -0.2230 -0.0586  0.0819
   39MOL0     C 5306   2.803   2.359   0.008 -0.1267  0.1856 -0.6868
   39MOL0     C 5307   2.810   2.515  -0.017  0.5315  0.0758  0.2689
   39MOL0     C 5308   2.823   2.546  -0.162 -0.3103  0.4469 -0.0952
   39MOL0     C 5309   2.840   2.605  -0.264 -0.0330  0.1422 -0.5556
   39MOL0     C 5310   3.124   2.021   0.372  0.3164  0.1461  0.0117
   39MOL0     C 5311   3.252   1.956   0.356 -0.1822 -0.0147  0.0209
   39MOL0     C 5312   3.312   1.898   0.485  0.1474 -0.1119  0.2420
   39MOL0     H 5313   3.535   1.663   0.014 -0.1209 -0.4322  1.3139
   39MOL0     H 5314   3.737   1.565  -0.073 -2.8596  0.7069  0.8675
   39MOL0     H 5315   4.095   1.723   0.112  1.5286  0.7028  0.6223
   39MOL0     H 5316   4.136   1.789  -0.037 -2.0816  0.3757 -1.3588
   39MOL0     H 5317   4.182   1.489   0.031  0.1155 -0.5679 -2.6352
   39MOL0     H 5318   4.235   1.554  -0.115  2.2891 -1.8450  1.5838
   39MOL0     H 5319   4.331   1.645   0.170  1.2104 -0.4663  0.6750
   39MOL0     H 5320   4.407   1.533   0.054 -2.8103 -1.5838 -3.6354
   39MOL0     H 5321   4.432   1.694  -0.102 -1.7174 -0.5468  0.2372
   39MOL0     H 5322   4.349   1.829  -0.027  0.4517  0.3398  0.7165
   39MOL0     H 5323   4.587   1.695   0.108 -1.1576  0.5127  1.7310
   39MOL0     H 5324   4.493   1.840   0.151 -0.9627  0.6109 -0.5314
   39MOL0     H 5325   4.654   1.813  -0.125  0.7866  1.8846 -0.2173
   39MOL0     H 5326   4.568   1.953  -0.054 -0.3117  0.1956 -0.0600
   39MOL0     H 5327   4.816   1.805   0.068 -3.4170 -1.9090 -0.1961
   39MOL0     H 5328   4.772   1.985   0.071 -0.7629  0.3826 -1.1268
   39MOL0     H 5329   4.849   1.835  -0.164  0.2464 -1.8829  1.3515
   39MOL0     H 5330   4.845   2.015  -0.142  0.4679  0.7911  1.7624
   39MOL0     H 5331   5.046   2.126   0.024  2.0928 -0.2062  1.4899
   39MOL0     H 5332   5.395   1.980   0.107 -0.4897  0.6270  3.5750
   39MOL0     H 5333   5.290   2.112   0.162  1.7158  2.5814 -0.5130
   39MOL0     H 5334   5.480   2.167  -0.018  0.0352  3.9075 -3.3118
   39MOL0     H 5335   5.373   2.087  -0.127  0.0834  0.8018 -1.2179
   39MOL0     H 5336   5.189   2.234  -0.097 -0.6078  0.2567  0.2189
   39MOL0     H 5337   5.279   2.346   0.016  1.8150 -0.3098  1.1933
   39MOL0     H 5338   5.362   2.275  -0.260 -1.7488 -2.2041  1.3675
   39MOL0     H 5339   5.277   2.428  -0.212  2.9708  1.0985 -0.3972
   39MOL0     H 5340   5.514   2.473  -0.393 -0.0561 -0.9847 -1.0647
   39MOL0     H 5341   5.744   2.387  -0.620 -1.5259 -0.9807  0.6538
   39MOL0     H 5342   5.823   2.530  -0.545 -1.3413  1.3100 -0.5178
   39MOL0     H 5343   5.651   2.528  -0.581  0.9887  0.3686 -2.5392
   39MOL0     H 5344   6.027   2.070  -0.576 -3.5245  2.3921 -2.9298
   39MOL0     H 5345   6.232   1.973  -0.694 -1.8589 -1.3986  2.5826
   39MOL0     H 5346   6.574   2.262  -0.763  3.1152 -0.1176 -0.7893
   39MOL0     H 5347   6.594   2.135  -0.651 -0.5417  1.9393  0.9117
   39MOL0     H 5348   6.650   2.173  -0.931  0.9397  0.8447  1.3162
   39MOL0     H 5349   6.765   2.100  -0.835  0.6866  1.8425 -1.7762
   39MOL0     H 5350   6.511   1.946  -0.952  0.2332  2.4690 -1.8593
   39MOL0     H 5351   6.629   1.884  -0.831  3.0798 -0.1918 -1.2758
   39MOL0     H 5352   6.810   1.927  -1.009 -0.2677  4.1264  0.1235
   39MOL0     H 5353   6.687   2.002  -1.110 -0.5391 -0.5872 -0.3179
   39MOL0     H 5354   6.676   1.717  -1.005 -1.1328 -1.0340 -0.1499
   39MOL0     H 5355   6.564   1.785  -1.116  0.3722 -4.7447  0.1333
   39MOL0     H 5356   6.751   1.628  -1.229  1.4878 -0.1127 -1.4850
   39MOL0     H 5357   6.865   1.759  -1.192 -0.1597 -0.8311  0.6184
   39MOL0     H 5358   6.791   1.746  -1.415  0.0462 -0.4504 -0.1491
   39MOL0     H 5359   6.741   1.894  -1.356  2.4571 -0.2807  3.2751
   39MOL0     H 5360   6.570   1.793  -1.492  1.8836  0.4204 -0.1381
   39MOL0     H 5361   6.501   1.795  -1.323 -1.6073 -2.2795 -1.1089
   39MOL0     H 5362   6.401   2.371  -0.695 -0.4143  1.6556  0.2323
   39MOL0     H 5363   6.203   2.458  -0.587  3.4818 -0.3928  0.6018
   39MOL0     H 5364   5.886   2.303  -0.118 -0.3561  1.4173  2.1579
   39MOL0     H 5365   5.657   2.340  -0.026 -1.2451  1.5935  0.5927
   39MOL0     H 5366   3.971   1.896   0.027  0.7538 -1.3360 -1.4860
   39MOL0     H 5367   3.757   2.021   0.100  2.3495 -0.1382 -0.1486
   39MOL0     H 5368   3.317   2.075   0.044 -1.9089  0.5149 -0.9936
   39MOL0     H 5369   3.110   2.182   0.073 -0.6747  0.9190  0.5069
   39MOL0     H 5370   2.908   2.131   0.058 -2.0417 -1.6455 -0.3744
   39MOL0     H 5371   2.759   2.130   0.141  0.6031  0.5268 -2.3086
   39MOL0     H 5372   2.953   2.368   0.158 -0.4183  0.1251  0.8809
   39MOL0     H 5373   2.790   2.353   0.226 -1.5725 -2.1505 -0.0581
   39MOL0     H 5374   2.848   2.309  -0.078 -0.1242  3.2663 -2.6371
   39MOL0     H 5375   2.700   2.323   0.003 -0.7179  1.6454  0.2579
   39MOL0     H 5376   2.899   2.555   0.032 -0.2481 -0.3714  2.1358
   39MOL0     H 5377   2.723   2.562   0.030  0.6367  0.6253 -0.0759
   39MOL0     H 5378   2.850   2.663  -0.354 -2.9489  1.4003 -0.2035
   39MOL0     H 5379   3.067   2.006   0.463  1.1403 -1.9878  0.2295
   39MOL0     H 5380   3.419   1.919   0.490 -0.4355  3.1930  1.1236
   39MOL0     H 5381   3.272   1.953   0.570  2.4087  1.2632  0.5060
   39MOL0     H 5382   3.311   1.790   0.496  3.7560  0.0298  4.7627
   40MOL0     O 5383   1.545   4.420   5.255  0.0006  0.4936  0.0561
   40MOL0     C 5384   1.523   4.392   5.139 -0.0191 -0.1721  0.3879
   40MOL0     O 5385   1.599   4.317   5.062  0.0016 -0.2414  0.6985
   40MOL0     C 5386   1.690   4.224   5.111 -0.2230  0.3426 -0.6617
   40MOL0     C 5387   1.812   4.211   5.054 -0.4319  0.2667  0.0718
   40MOL0     C 5388   1.911   4.127   5.097 -0.2985  0.2320 -0.3965
   40MOL0     C 5389   1.877   4.031   5.204 -0.3894  0.3233  0.4663
   40MOL0     O 5390   1.959   3.934   5.258 -0.0863  0.3367 -0.1084
   40MOL0     C 5391   2.101   3.933   5.228  0.3635  0.2739  0.9435
   40MOL0     C 5392   2.150   3.784   5.239  0.4135 -0.5469  0.4271
   40MOL0     C 5393   2.300   3.760   5.225  0.1564  0.0644 -0.2837
   40MOL0     C 5394   2.341   3.611   5.236  1.5830 -0.9398  0.0985
   40MOL0     C 5395   2.468   3.574   5.182 -0.5640 -0.3320 -0.5507
   40MOL0     C 5396   2.585   3.640   5.266  1.0286 -0.2482 -0.3293
   40MOL0     C 5397   2.723   3.646   5.196  0.3188  1.1036  0.3599
   40MOL0     C 5398   2.788   3.520   5.150  0.1765  0.3520 -0.3864
   40MOL0     N 5399   2.806   3.420   5.261  0.2075  0.4578  0.2925
   40MOL0     C 5400   2.732   3.302   5.290 -0.2747  0.8709 -0.4104
   40MOL0     C 5401   2.790   3.243   5.393  0.4557 -0.9823  1.1086
   40MOL0     C 5402   2.733   3.127   5.472 -1.0952  0.0883 -0.1553
   40MOL0     C 5403   2.749   2.986   5.405  0.3973  0.0896  0.5540
   40MOL0     C 5404   2.904   2.960   5.383  0.4376 -0.3176 -0.6924
   40MOL0     C 5405   2.972   2.945   5.514 -0.3728 -0.0990 -0.3779
   40MOL0     O 5406   3.097   2.874   5.504  0.4140 -0.1211  0.5196
   40MOL0     C 5407   3.211   2.937   5.461 -0.4418 -0.0281  0.4926
   40MOL0     C 5408   3.213   3.072   5.427  0.1040  0.3928 -0.2745
   40MOL0     C 5409   3.337   3.125   5.394  0.0218  0.2854  0.3092
   40MOL0     C 5410   3.332   3.267   5.357  0.5901  0.2054  0.4591
   40MOL0     C 5411   3.459   3.043   5.394 -0.3696 -0.5768 -0.0275
   40MOL0     C 5412   3.592   3.099   5.356 -0.3539 -0.0679  0.8592
   40MOL0     O 5413   3.700   3.037   5.406 -0.0830  0.2201 -0.1623
   40MOL0     C 5414   3.825   3.071   5.358 -0.8242 -0.3727 -0.3662
   40MOL0     C 5415   3.887   3.190   5.397 -0.4902 -0.1365  0.3872
   40MOL0     C 5416   4.010   3.226   5.350 -0.4486 -0.2052 -0.8238
   40MOL0     C 5417   4.088   3.141   5.269 -1.0155 -0.8241 -0.3169
   40MOL0     O 5418   4.227   3.171   5.253  0.6047 -0.4198 -1.0212
   40MOL0     C 5419   4.306   3.076   5.181  0.7788  0.6221  0.7796
   40MOL0     C 5420   4.443   3.120   5.150 -0.3890  0.5146 -0.0724
   40MOL0     C 5421   4.448   3.223   5.037  0.3898 -0.4154 -0.1501
   40MOL0     C 5422   4.456   3.160   4.894  0.8520  0.4130  0.6583
   40MOL0     C 5423   4.459   3.285   4.796  0.4029  0.4520 -0.2338
   40MOL0     C 5424   4.429   3.264   4.648 -0.0125 -0.4458  0.0053
   40MOL0     C 5425   4.524   3.150   4.592  0.2509  0.4399 -0.2692
   40MOL0     C 5426   4.675   3.183   4.589  0.3957  0.5376  0.0489
   40MOL0    Cl 5427   4.756   3.066   4.492  0.1407  0.4552 -0.1550
   40MOL0     C 5428   4.028   3.019   5.234  0.1859 -0.3947  0.3079
   40MOL0     C 5429   3.894   2.985   5.278 -0.6819 -0.4483  0.0062
   40MOL0     O 5430   3.596   3.199   5.276 -0.4330  0.4807 -0.5176
   40MOL0     C 5431   3.448   2.908   5.428 -0.1120 -0.6529  0.8128
   40MOL0     C 5432   3.323   2.863   5.469  0.4524  0.1065  0.1660
   40MOL0     N 5433   2.903   3.312   5.421 -0.4285  0.2100 -0.9327
   40MOL0     N 5434   2.926   3.397   5.330  0.3854 -0.6679  0.2407
   40MOL0     C 5435   1.747   4.041   5.254 -0.2803 -0.3867 -0.5027
   40MOL0     C 5436   1.652   4.132   5.208 -0.9768  0.2290  0.2124
   40MOL0     C 5437   1.424   4.480   5.071 -0.1783 -0.4658 -0.8150
   40MOL0     C 5438   1.450   4.518   4.940  0.7029  0.0161 -0.2314
   40MOL0     C 5439   1.366   4.600   4.862 -0.3329  0.2303  0.7826
   40MOL0     C 5440   1.251   4.652   4.929  0.2028 -0.1704 -0.9181
   40MOL0     O 5441   1.161   4.729   4.859 -0.2287 -0.2873  0.2998
   40MOL0     C 5442   1.031   4.672   4.859 -0.7934 -0.1875  0.4423
   40MOL0     C 5443   0.948   4.735   4.741 -0.5025  0.3242 -0.1571
   40MOL0     C 5444   0.802   4.688   4.757 -0.2613 -0.7184 -0.2023
   40MOL0     C 5445   0.715   4.709   4.639  0.3019  0.8461  0.5438
   40MOL0     C 5446   0.595   4.638   4.639  0.2384  0.2438 -0.3472
   40MOL0     C 5447   0.495   4.571   4.640  0.5686  0.3177 -0.8284
   40MOL0     C 5448   1.229   4.625   5.064 -0.6538  0.3883 -0.2163
   40MOL0     C 5449   1.314   4.538   5.136  0.8212 -0.4429 -0.1349
   40MOL0     C 5450   1.276   4.514   5.283  0.2652  0.2172  0.0606
   40MOL0     H 5451   1.825   4.273   4.965 -1.0226  0.2190 -0.0510
   40MOL0     H 5452   2.005   4.118   5.043 -0.0183 -4.6221  0.3963
   40MOL0     H 5453   2.145   4.005   5.297 -2.7697  1.5946  1.7261
   40MOL0     H 5454   2.124   3.965   5.126 -1.2782 -0.6952  0.2190
   40MOL0     H 5455   2.109   3.733   5.327  2.8956 -2.6299  0.4814
   40MOL0     H 5456   2.101   3.728   5.158  1.4485 -0.2203 -0.4577
   40MOL0     H 5457   2.334   3.807   5.132  1.0662  1.5941  0.7845
   40MOL0     H 5458   2.345   3.814   5.309  2.8080 -0.7659 -1.0915
   40MOL0     H 5459   2.338   3.577   5.340 -0.7256 -1.0111  0.0600
   40MOL0     H 5460   2.262   3.559   5.181 -1.4344  2.2976  0.9556
   40MOL0     H 5461   2.465   3.621   5.083 -0.6467  2.0688  0.5258
   40MOL0     H 5462   2.479   3.465   5.171 -1.1460 -0.2470 -2.4066
   40MOL0     H 5463   2.556   3.745   5.273 -0.6986 -0.7598  0.7808
   40MOL0     H 5464   2.602   3.597   5.365  4.1733 -0.0225 -0.6637
   40MOL0     H 5465   2.800   3.687   5.262 -0.3872  1.2595  1.0924
   40MOL0     H 5466   2.717   3.713   5.109 -1.1807 -0.8896 -1.1624
   40MOL0     H 5467   2.726   3.488   5.066 -0.0375  4.0719 -1.8759
   40MOL0     H 5468   2.888   3.538   5.109  1.7322 -1.1069  2.4515
   40MOL0     H 5469   2.642   3.261   5.245 -1.2680  0.7258  1.6343
   40MOL0     H 5470   2.625   3.146   5.480 -0.7894  2.7213 -1.0803
   40MOL0     H 5471   2.775   3.119   5.572  2.4592  1.9247 -1.3263
   40MOL0     H 5472   2.701   2.909   5.466 -2.6063  1.5946  0.2547
   40MOL0     H 5473   2.688   2.989   5.314  0.3280 -1.2458  0.5355
   40MOL0     H 5474   2.922   2.877   5.315  0.8148 -2.0525  1.4201
   40MOL0     H 5475   2.945   3.048   5.332  2.1846  0.2257  1.4772
   40MOL0     H 5476   2.987   3.040   5.567 -1.9786  0.7599 -1.3530
   40MOL0     H 5477   2.915   2.879   5.580  2.4860 -1.2087  1.1705
   40MOL0     H 5478   3.131   3.143   5.432  0.7672  1.3577 -2.2521
   40MOL0     H 5479   3.249   3.317   5.407 -0.1330 -0.5694  0.0564
   40MOL0     H 5480   3.298   3.274   5.253  0.0328  1.3352  0.7030
   40MOL0     H 5481   3.418   3.330   5.382 -1.0778  1.9368  2.0688
   40MOL0     H 5482   3.836   3.250   5.471 -0.7497 -0.9742  0.8990
   40MOL0     H 5483   4.044   3.328   5.364 -0.8250  0.0343 -1.6097
   40MOL0     H 5484   4.303   2.985   5.242 -1.3533 -0.2155 -0.4382
   40MOL0     H 5485   4.258   3.061   5.084  1.0695 -1.8372  0.9464
   40MOL0     H 5486   4.479   3.175   5.237 -0.3356 -1.0002  0.8798
   40MOL0     H 5487   4.511   3.038   5.125 -2.2645 -1.3090  0.5873
   40MOL0     H 5488   4.536   3.282   5.065  0.2445 -0.7811  1.1125
   40MOL0     H 5489   4.367   3.295   5.047  1.1498  0.5608 -0.8075
   40MOL0     H 5490   4.364   3.101   4.884  1.2640 -0.1901  0.3922
   40MOL0     H 5491   4.542   3.094   4.883  0.2557 -0.8767  3.0099
   40MOL0     H 5492   4.379   3.351   4.831 -0.7474 -1.0210  0.0326
   40MOL0     H 5493   4.560   3.324   4.811  1.1583 -1.2376 -0.6743
   40MOL0     H 5494   4.455   3.359   4.601 -1.6229  0.9787  1.8509
   40MOL0     H 5495   4.322   3.248   4.635  0.0648 -0.2393 -1.0329
   40MOL0     H 5496   4.504   3.131   4.486  1.5615 -1.2516 -0.2545
   40MOL0     H 5497   4.515   3.053   4.641  0.6650 -0.1487 -1.3299
   40MOL0     H 5498   4.721   3.173   4.688  0.6471 -1.6146 -0.2268
   40MOL0     H 5499   4.701   3.280   4.546  1.1565 -1.0633 -3.4735
   40MOL0     H 5500   4.079   2.946   5.172 -1.7495 -1.0226 -0.6245
   40MOL0     H 5501   3.853   2.885   5.265 -1.0003 -0.2640 -0.4215
   40MOL0     H 5502   3.535   2.843   5.428 -1.5735 -2.7319 -0.7982
   40MOL0     H 5503   3.307   2.756   5.472  1.5573 -0.0828 -0.0619
   40MOL0     H 5504   1.710   3.975   5.332  1.6139 -0.1911  0.6328
   40MOL0     H 5505   1.545   4.137   5.223 -1.2508  3.6976 -1.8184
   40MOL0     H 5506   1.528   4.468   4.882  1.1397  0.8416 -0.3833
   40MOL0     H 5507   1.379   4.621   4.757  1.6486 -0.6204  0.8120
   40MOL0     H 5508   1.044   4.565   4.843  0.7646 -0.0822  0.8344
   40MOL0     H 5509   0.981   4.699   4.952 -1.3770  2.2508 -0.4869
   40MOL0     H 5510   0.990   4.684   4.654  2.3281  1.0421  0.6895
   40MOL0     H 5511   0.954   4.845   4.740 -1.2826  0.4588  2.5591
   40MOL0     H 5512   0.799   4.583   4.785 -0.5949 -0.6489  0.0263
   40MOL0     H 5513   0.754   4.745   4.837  3.7661  0.5441  1.6003
   40MOL0     H 5514   0.766   4.686   4.544 -1.6392 -0.0635 -0.3219
   40MOL0     H 5515   0.689   4.815   4.642 -2.1808  0.2744  1.3154
   40MOL0     H 5516   0.416   4.499   4.635  2.1116 -2.0243  3.1141
   40MOL0     H 5517   1.147   4.676   5.113  0.9823  1.0911  1.9418
   40MOL0     H 5518   1.332   4.580   5.349  2.3323 -0.3012 -1.0952
   40MOL0     H 5519   1.168   4.523   5.299 -0.1905 -0.8553 -2.0725
   40MOL0     H 5520   1.300   4.410   5.307  1.7032  0.2421 -1.1615
   41MOL0     O 5521   8.488   6.339  11.332 -0.4011 -0.4110  0.2027
   41MOL0     C 5522   8.461   6.362  11.453 -0.6169  0.2407  0.0268
   41MOL0     O 5523   8.522   6.302  11.566 -0.3963 -0.4345 -0.0455
   41MOL0     C 5524   8.639   6.224  11.557 -0.5157 -0.9237 -0.5168
   41MOL0     C 5525   8.736   6.207  11.457 -0.3984 -0.0878  0.4765
   41MOL0     C 5526   8.840   6.113  11.473  0.5292 -1.0628  0.4227
   41MOL0     C 5527   8.849   6.034  11.589  0.0743  0.4034 -0.3880
   41MOL0     O 5528   8.949   5.937  11.615  0.6871 -0.1601 -0.0358
   41MOL0     C 5529   9.084   5.953  11.570 -0.5637  0.5952 -0.2521
   41MOL0     C 5530   9.175   5.862  11.655  1.0014 -0.0107 -0.3394
   41MOL0     C 5531   9.188   5.720  11.610  0.4408  0.2062 -0.1237
   41MOL0     C 5532   9.276   5.702  11.482 -0.0818  0.0191  1.1941
   41MOL0     C 5533   9.277   5.555  11.439 -0.4476 -0.7302  0.6802
   41MOL0     C 5534   9.339   5.531  11.300  0.7387 -0.0983 -0.3251
   41MOL0     C 5535   9.485   5.590  11.300  0.0938  0.2873 -0.2120
   41MOL0     C 5536   9.544   5.597  11.158 -0.8112  0.2026 -0.0468
   41MOL0     N 5537   9.573   5.464  11.099  0.3419  0.2695  0.2978
   41MOL0     C 5538   9.657   5.371  11.153 -0.8507 -0.1528 -0.1540
   41MOL0     C 5539   9.680   5.281  11.053  0.5676  0.4920 -1.2550
   41MOL0     C 5540   9.763   5.161  11.062  0.6998  0.5441 -0.4822
   41MOL0     C 5541   9.908   5.181  11.109 -0.3686  1.6542  0.6828
   41MOL0     C 5542   9.987   5.055  11.107  0.0485  0.7533 -0.3681
   41MOL0     C 5543  10.137   5.090  11.110  0.3093  0.4508 -0.2220
   41MOL0     O 5544  10.203   4.956  11.106  0.1370 -0.8960  0.0254
   41MOL0     C 5545  10.341   4.958  11.102  0.0815  0.3309  0.5184
   41MOL0     C 5546  10.396   4.833  11.076  0.1700  0.0288 -1.0007
   41MOL0     C 5547  10.539   4.820  11.047  0.4026  0.2004 -1.5870
   41MOL0     C 5548  10.580   4.676  11.014  0.0471 -0.5965  0.6714
   41MOL0     C 5549  10.623   4.932  11.049  0.7040  0.7686  0.5935
   41MOL0     C 5550  10.771   4.929  11.007  0.5129 -0.5248 -0.2789
   41MOL0     O 5551  10.845   5.046  11.035 -0.1768  0.0189 -0.3535
   41MOL0     C 5552  10.970   5.050  10.983 -0.5031 -0.2424 -0.3087
   41MOL0     C 5553  10.990   5.099  10.858 -0.1468  0.2477 -0.0643
   41MOL0     C 5554  11.115   5.097  10.798  0.2794 -0.5822  0.2427
   41MOL0     C 5555  11.221   5.030  10.862  0.1544  0.0691 -0.1174
   41MOL0     O 5556  11.354   5.023  10.811  0.7430 -0.3893 -0.2795
   41MOL0     C 5557  11.390   5.114  10.711  0.7780 -0.3133 -0.0359
   41MOL0     C 5558  11.541   5.137  10.704 -0.0847 -0.5416 -0.1141
   41MOL0     C 5559  11.639   5.018  10.662  0.7996  0.2672  0.1096
   41MOL0     C 5560  11.637   4.993  10.509  0.2315  0.3624 -1.1471
   41MOL0     C 5561  11.705   4.862  10.470 -0.3145 -0.7660 -0.7170
   41MOL0     C 5562  11.854   4.856  10.508  0.9337  0.0925  0.0519
   41MOL0     C 5563  11.906   4.714  10.468  0.0153 -0.3212 -0.0402
   41MOL0     C 5564  12.036   4.680  10.529 -0.9738 -1.0116 -0.9084
   41MOL0    Cl 5565  12.019   4.680  10.707 -0.0402 -0.2121  0.1667
   41MOL0     C 5566  11.190   4.967  10.984  0.1360 -0.1894  0.4480
   41MOL0     C 5567  11.069   4.984  11.044 -0.5398 -0.0061  0.4479
   41MOL0     O 5568  10.816   4.821  10.960 -0.3433  0.4415 -0.2930
   41MOL0     C 5569  10.561   5.049  11.088  0.3359 -0.3907 -0.4130
   41MOL0     C 5570  10.417   5.069  11.100 -1.1369  0.5421 -0.6408
   41MOL0     N 5571   9.601   5.305  10.948 -0.4664  0.4094  0.8648
   41MOL0     N 5572   9.542   5.422  10.968 -0.3565  0.1947  0.4198
   41MOL0     C 5573   8.747   6.046  11.684  0.1269  0.5593 -0.7295
   41MOL0     C 5574   8.648   6.135  11.667 -0.3570 -0.0048 -0.5173
   41MOL0     C 5575   8.352   6.463  11.480 -0.1970  0.1243 -0.3516
   41MOL0     C 5576   8.324   6.570  11.390  0.0264  0.1332 -0.3241
   41MOL0     C 5577   8.214   6.660  11.412  0.6155  0.6863 -0.3262
   41MOL0     C 5578   8.128   6.652  11.525 -0.3876  0.3041  0.1249
   41MOL0     O 5579   8.017   6.729  11.553 -0.4133 -0.2268  0.0223
   41MOL0     C 5580   7.988   6.845  11.468 -0.2185 -0.3670 -0.2144
   41MOL0     C 5581   7.885   6.929  11.528 -0.7123 -0.1937  0.2749
   41MOL0     C 5582   7.746   6.856  11.552 -0.4416 -0.0452  0.1310
   41MOL0     C 5583   7.677   6.940  11.655 -0.2104  0.9508  0.5165
   41MOL0     C 5584   7.544   6.884  11.689 -0.7831  0.5264  0.1878
   41MOL0     C 5585   7.442   6.838  11.740  0.1824 -0.2242 -0.1771
   41MOL0     C 5586   8.165   6.543  11.610  0.2190  0.8077  0.0124
   41MOL0     C 5587   8.271   6.460  11.595 -0.1758  0.2977  0.2531
   41MOL0     C 5588   8.286   6.363  11.708  0.2306  0.4674 -0.2968
   41MOL0     H 5589   8.732   6.264  11.364 -2.9861 -0.3075  0.3965
   41MOL0     H 5590   8.909   6.101  11.390 -1.1357 -0.0370 -1.1544
   41MOL0     H 5591   9.111   6.059  11.580 -1.2540  0.7448  0.0968
   41MOL0     H 5592   9.090   5.923  11.465  0.6226  0.9206 -0.2855
   41MOL0     H 5593   9.273   5.911  11.664  0.9550 -0.2976  3.5754
   41MOL0     H 5594   9.130   5.867  11.755  1.3892 -0.8674 -0.1127
   41MOL0     H 5595   9.234   5.658  11.688 -0.4480 -0.0741  0.1901
   41MOL0     H 5596   9.089   5.679  11.588  0.4914 -0.7947  1.3341
   41MOL0     H 5597   9.224   5.764  11.408  2.1403 -0.2494 -0.6743
   41MOL0     H 5598   9.375   5.746  11.492  0.8520 -1.0835 -1.9973
   41MOL0     H 5599   9.177   5.512  11.443  0.0931 -2.1039  0.1391
   41MOL0     H 5600   9.337   5.498  11.511  0.4490  0.7516  1.1472
   41MOL0     H 5601   9.335   5.422  11.287 -0.5407 -0.5957  3.1610
   41MOL0     H 5602   9.275   5.571  11.222 -0.2388 -1.0968 -0.0660
   41MOL0     H 5603   9.543   5.532  11.372 -0.7010  1.3155  1.3201
   41MOL0     H 5604   9.485   5.695  11.330 -1.7090  0.0574  0.6758
   41MOL0     H 5605   9.467   5.653  11.104 -0.5794  0.7130  0.1470
   41MOL0     H 5606   9.641   5.645  11.169  1.3033 -3.9149  1.7002
   41MOL0     H 5607   9.706   5.383  11.249  1.1651 -1.4214 -0.9673
   41MOL0     H 5608   9.762   5.112  10.964  0.3469 -0.9990  0.2775
   41MOL0     H 5609   9.711   5.093  11.130  0.1709  0.8833 -0.5421
   41MOL0     H 5610   9.950   5.243  11.029 -0.5689  1.5418  0.4881
   41MOL0     H 5611   9.917   5.227  11.208  1.1630 -1.1576  1.9813
   41MOL0     H 5612   9.963   4.995  11.195  0.5898 -0.4073 -0.9853
   41MOL0     H 5613   9.955   4.997  11.019  2.7411  0.6719 -1.3843
   41MOL0     H 5614  10.159   5.153  11.024  0.2430 -1.3807 -1.6318
   41MOL0     H 5615  10.161   5.147  11.200  1.4720 -2.9185  1.7960
   41MOL0     H 5616  10.333   4.746  11.064 -0.3217  0.2194  0.1232
   41MOL0     H 5617  10.666   4.650  11.076  2.2503  1.5931 -1.2494
   41MOL0     H 5618  10.617   4.666  10.912  1.3434 -0.7793  1.1396
   41MOL0     H 5619  10.494   4.610  11.027 -1.5358  0.6012 -2.5903
   41MOL0     H 5620  10.903   5.109  10.794 -0.4429 -0.1449  0.2745
   41MOL0     H 5621  11.123   5.130  10.695 -0.9238 -1.7647 -0.2595
   41MOL0     H 5622  11.347   5.093  10.613 -0.8792 -3.6876  1.2553
   41MOL0     H 5623  11.342   5.205  10.749 -0.0874 -1.8467  2.8615
   41MOL0     H 5624  11.576   5.214  10.634  0.4452 -1.8997 -1.3850
   41MOL0     H 5625  11.563   5.172  10.806  1.3367 -2.4543  0.2853
   41MOL0     H 5626  11.614   4.922  10.707  1.4728  0.6060  1.2389
   41MOL0     H 5627  11.741   5.044  10.692  0.9402  4.3756 -2.9745
   41MOL0     H 5628  11.684   5.077  10.457 -1.5739  1.0725 -1.7243
   41MOL0     H 5629  11.533   4.996  10.477 -0.9588  3.0116  2.2543
   41MOL0     H 5630  11.657   4.786  10.532 -0.1435 -0.2240  0.0916
   41MOL0     H 5631  11.688   4.841  10.364 -0.1335  0.3908 -0.9837
   41MOL0     H 5632  11.860   4.873  10.616 -1.1085  1.3407  0.0306
   41MOL0     H 5633  11.913   4.931  10.455  0.7238 -0.0558 -0.3954
   41MOL0     H 5634  11.927   4.721  10.361  1.8186  0.2269  0.3178
   41MOL0     H 5635  11.829   4.640  10.489  0.6293 -1.3582 -1.2898
   41MOL0     H 5636  12.118   4.748  10.507  1.3154 -2.1460  3.1034
   41MOL0     H 5637  12.064   4.584  10.485  2.3938  0.1070 -1.4838
   41MOL0     H 5638  11.274   4.914  11.028  2.6428  2.4127 -0.8986
   41MOL0     H 5639  11.049   4.940  11.141 -1.8187  0.6381  0.4909
   41MOL0     H 5640  10.613   5.143  11.105 -0.8357 -0.0564  1.5750
   41MOL0     H 5641  10.369   5.161  11.132 -0.1142 -0.0284  2.9609
   41MOL0     H 5642   8.745   5.976  11.767 -0.4838  2.6844  1.1730
   41MOL0     H 5643   8.580   6.136  11.751  0.1182 -0.3655 -0.1217
   41MOL0     H 5644   8.373   6.580  11.294  0.6019  0.5653  0.0016
   41MOL0     H 5645   8.192   6.723  11.326 -1.4197 -0.6462 -0.8449
   41MOL0     H 5646   8.085   6.896  11.460  1.4607 -2.9254  2.2806
   41MOL0     H 5647   7.960   6.807  11.369 -0.1676 -1.3753  0.1483
   41MOL0     H 5648   7.866   7.013  11.460  0.0657  0.2418  0.5821
   41MOL0     H 5649   7.925   6.969  11.621 -2.3514  0.7690  0.5865
   41MOL0     H 5650   7.687   6.851  11.460  1.4394 -1.7729 -1.0907
   41MOL0     H 5651   7.757   6.753  11.588  1.0915  0.6536  1.8124
   41MOL0     H 5652   7.655   7.037  11.610 -1.1086  1.3140  1.6810
   41MOL0     H 5653   7.731   6.948  11.750 -0.9173  2.5868  0.8175
   41MOL0     H 5654   7.355   6.801  11.789  0.7210  1.5538  2.2756
   41MOL0     H 5655   8.093   6.535  11.691 -1.4051  5.3718 -0.6971
   41MOL0     H 5656   8.375   6.384  11.768  0.1089 -0.3246  0.1848
   41MOL0     H 5657   8.197   6.359  11.771 -0.4767  0.3660 -1.2846
   41MOL0     H 5658   8.294   6.262  11.667 -2.4322 -0.2305  0.6949
   42MOL0     O 5659   3.792   5.857   4.382  0.1893  0.9129  0.1784
   42MOL0     C 5660   3.890   5.913   4.329  0.7713 -0.5797 -0.4128
   42MOL0     O 5661   3.884   5.991   4.215 -1.3284  0.6898 -0.0738
   42MOL0     C 5662   3.764   6.037   4.178  0.4063  0.3214  0.9703
   42MOL0     C 5663   3.703   5.996   4.057 -0.6701 -0.0232  0.0787
   42MOL0     C 5664   3.577   6.039   4.026  0.2892 -0.2637 -0.9525
   42MOL0     C 5665   3.499   6.116   4.110  0.8789  0.7106 -0.0909
   42MOL0     O 5666   3.377   6.178   4.082  0.0123  0.2596 -0.1457
   42MOL0     C 5667   3.326   6.163   3.946  0.2977 -0.1338 -1.1655
   42MOL0     C 5668   3.176   6.211   3.954 -1.2442 -0.5942  0.0998
   42MOL0     C 5669   3.126   6.227   3.809 -0.2309 -0.1783 -0.0385
   42MOL0     C 5670   2.975   6.261   3.808 -0.0746  0.8624  0.1068
   42MOL0     C 5671   2.921   6.252   3.672 -0.5976 -0.5216  0.0426
   42MOL0     C 5672   2.766   6.268   3.677  0.1579  0.4335  0.1453
   42MOL0     C 5673   2.709   6.235   3.534 -0.1807  0.0150  0.2404
   42MOL0     C 5674   2.785   6.305   3.413  0.5385 -0.4706 -0.0037
   42MOL0     N 5675   2.809   6.446   3.424 -0.8509  0.5889 -0.2109
   42MOL0     C 5676   2.712   6.536   3.445 -0.5289  0.3551 -0.8160
   42MOL0     C 5677   2.777   6.654   3.465  0.1342 -0.1052 -0.6178
   42MOL0     C 5678   2.690   6.778   3.470 -0.6930  0.8602 -0.0167
   42MOL0     C 5679   2.707   6.858   3.340  0.8867  0.3218 -0.7031
   42MOL0     C 5680   2.606   6.974   3.338 -0.0654  0.2962  0.3864
   42MOL0     C 5681   2.674   7.097   3.380  0.4942 -1.1650 -0.1374
   42MOL0     O 5682   2.744   7.143   3.270  0.1407 -0.2340 -0.1246
   42MOL0     C 5683   2.688   7.234   3.176 -0.7224 -0.1163 -0.0528
   42MOL0     C 5684   2.770   7.281   3.067 -0.9974  0.3652  0.3390
   42MOL0     C 5685   2.715   7.366   2.970 -0.1669  0.3126 -0.0880
   42MOL0     C 5686   2.812   7.404   2.860  0.2962  0.9807 -0.4269
   42MOL0     C 5687   2.579   7.404   2.973  0.6010 -0.4233  0.0705
   42MOL0     C 5688   2.518   7.491   2.869 -0.4250  0.5443  0.3334
   42MOL0     O 5689   2.601   7.556   2.772  0.4723 -0.2651  0.5302
   42MOL0     C 5690   2.529   7.629   2.670 -0.4033  1.0318 -0.3225
   42MOL0     C 5691   2.570   7.758   2.656 -0.3069 -0.3748  0.4879
   42MOL0     C 5692   2.515   7.836   2.553 -0.0400 -0.2496  0.1990
   42MOL0     C 5693   2.426   7.776   2.460 -0.8834  0.3713 -0.6273
   42MOL0     O 5694   2.378   7.852   2.352 -0.2983 -0.3147  0.2871
   42MOL0     C 5695   2.411   7.989   2.352 -0.2762 -1.2156  0.6052
   42MOL0     C 5696   2.331   8.056   2.241 -0.6234  0.3767 -0.3759
   42MOL0     C 5697   2.179   8.020   2.239  0.4533 -0.2214 -0.3250
   42MOL0     C 5698   2.099   8.140   2.190 -0.1601 -0.2568 -0.4907
   42MOL0     C 5699   1.949   8.119   2.212  0.0766  0.3087  0.4059
   42MOL0     C 5700   1.854   8.185   2.110  0.4465  0.8657 -0.4783
   42MOL0     C 5701   1.703   8.144   2.121 -0.3704  0.8009 -0.5290
   42MOL0     C 5702   1.673   7.995   2.082 -0.4798 -0.5502 -0.4218
   42MOL0    Cl 5703   1.494   7.947   2.095  0.0265 -0.1203  0.1920
   42MOL0     C 5704   2.374   7.657   2.483 -0.1163  1.2172  0.8408
   42MOL0     C 5705   2.422   7.580   2.595 -0.3396  0.0984  0.0679
   42MOL0     O 5706   2.396   7.514   2.886 -0.3939 -0.1941 -0.1037
   42MOL0     C 5707   2.503   7.358   3.081  0.4821  0.2763  0.6694
   42MOL0     C 5708   2.556   7.280   3.180 -0.3922  1.0752 -0.3781
   42MOL0     N 5709   2.909   6.634   3.429  0.6818 -0.9368 -1.0392
   42MOL0     N 5710   2.929   6.506   3.418  0.1855  0.1729  0.3279
   42MOL0     C 5711   3.550   6.146   4.234  1.5273  0.0964 -0.9978
   42MOL0     C 5712   3.681   6.104   4.265  0.4612 -0.7529 -0.2354
   42MOL0     C 5713   4.023   5.873   4.378 -0.7867 -0.3915  0.7480
   42MOL0     C 5714   4.132   5.934   4.318 -0.0970 -0.7106  0.0315
   42MOL0     C 5715   4.261   5.898   4.341 -1.1956  0.4872  0.2645
   42MOL0     C 5716   4.294   5.793   4.436  0.6178 -0.3115 -0.1477
   42MOL0     O 5717   4.423   5.762   4.459  0.5458  0.0984 -0.5386
   42MOL0     C 5718   4.473   5.662   4.548 -0.4408  0.3077 -0.6732
   42MOL0     C 5719   4.453   5.703   4.698 -0.7383 -0.0206  0.1896
   42MOL0     C 5720   4.516   5.610   4.807  0.7107  0.8926 -0.0595
   42MOL0     C 5721   4.492   5.462   4.776 -0.3023 -0.2731 -0.6805
   42MOL0     C 5722   4.346   5.431   4.760  0.1840  0.2442  0.7153
   42MOL0     C 5723   4.223   5.424   4.752 -0.4721 -0.0206 -0.3909
   42MOL0     C 5724   4.185   5.732   4.502 -0.2310 -0.2659 -0.2664
   42MOL0     C 5725   4.050   5.776   4.480 -0.2291  0.2551  0.4435
   42MOL0     C 5726   3.946   5.711   4.572 -0.5556 -0.3560  0.6200
   42MOL0     H 5727   3.756   5.940   3.981 -4.7518 -0.0912 -2.9973
   42MOL0     H 5728   3.553   6.032   3.921  1.3839 -0.2948 -1.2194
   42MOL0     H 5729   3.317   6.060   3.910  1.3547 -0.3376 -0.8640
   42MOL0     H 5730   3.386   6.217   3.872  1.2983  0.0044 -0.2754
   42MOL0     H 5731   3.124   6.142   4.021  0.1571  0.3287  2.2422
   42MOL0     H 5732   3.177   6.305   4.009 -0.2969 -0.6513  0.1890
   42MOL0     H 5733   3.199   6.290   3.757  0.4965 -0.4426  0.6455
   42MOL0     H 5734   3.146   6.130   3.764 -0.6745 -0.6832  0.8183
   42MOL0     H 5735   2.923   6.191   3.875 -0.6118 -1.1938 -2.2969
   42MOL0     H 5736   2.955   6.359   3.851  2.0530  1.0823  0.6609
   42MOL0     H 5737   2.953   6.156   3.629 -1.0230 -1.7084  2.2087
   42MOL0     H 5738   2.964   6.329   3.608 -1.0929  0.4075  0.8097
   42MOL0     H 5739   2.723   6.200   3.751 -0.9239 -0.4118 -1.2229
   42MOL0     H 5740   2.746   6.369   3.714  0.8776  0.3359  0.8373
   42MOL0     H 5741   2.604   6.264   3.539 -0.3174  0.0965 -2.0730
   42MOL0     H 5742   2.699   6.127   3.516  1.7228 -0.2887  0.7056
   42MOL0     H 5743   2.876   6.251   3.387  0.8353 -0.3064  0.6987
   42MOL0     H 5744   2.729   6.293   3.319  1.2296 -2.7845 -0.1891
   42MOL0     H 5745   2.606   6.526   3.466 -0.2670  0.4712  0.6622
   42MOL0     H 5746   2.732   6.828   3.557 -0.9599 -1.4450  1.5145
   42MOL0     H 5747   2.583   6.760   3.483 -0.1446 -0.8437  3.1420
   42MOL0     H 5748   2.805   6.906   3.332  0.3724  1.1764 -2.3078
   42MOL0     H 5749   2.691   6.802   3.248  0.9712  1.8542 -1.6822
   42MOL0     H 5750   2.571   6.980   3.235  3.6149  0.3153 -1.0001
   42MOL0     H 5751   2.527   6.957   3.413 -1.0014 -3.0051 -1.1991
   42MOL0     H 5752   2.601   7.168   3.422  3.1615  0.8420  1.4275
   42MOL0     H 5753   2.756   7.080   3.450  0.2268 -0.9621  0.2295
   42MOL0     H 5754   2.875   7.255   3.065 -0.8059  1.1419 -1.9188
   42MOL0     H 5755   2.911   7.362   2.880  0.8681  1.2826 -2.4186
   42MOL0     H 5756   2.830   7.511   2.850  0.5535  0.9930  0.1566
   42MOL0     H 5757   2.770   7.359   2.770  0.7009 -2.9844  1.1503
   42MOL0     H 5758   2.647   7.807   2.716 -0.1559  0.9257 -0.7141
   42MOL0     H 5759   2.540   7.941   2.546 -0.3650 -0.2170 -0.6852
   42MOL0     H 5760   2.379   8.034   2.447  1.0568  1.3022 -0.0388
   42MOL0     H 5761   2.515   8.003   2.324 -0.6332 -2.4486 -1.4696
   42MOL0     H 5762   2.363   8.160   2.242  0.0031  0.2879 -2.7935
   42MOL0     H 5763   2.373   8.016   2.147 -0.2658  0.7739 -0.3875
   42MOL0     H 5764   2.154   8.004   2.344 -2.4923  1.5458 -0.6317
   42MOL0     H 5765   2.160   7.934   2.174  2.2726  0.6457 -2.1016
   42MOL0     H 5766   2.116   8.150   2.082  1.1718  0.4372 -0.2338
   42MOL0     H 5767   2.137   8.231   2.236 -0.6817 -0.0821 -0.3961
   42MOL0     H 5768   1.945   8.010   2.202 -2.0070  0.5744 -5.2295
   42MOL0     H 5769   1.913   8.131   2.315 -3.3260 -0.9757 -0.4983
   42MOL0     H 5770   1.896   8.175   2.010 -1.3638  1.6179 -1.3575
   42MOL0     H 5771   1.862   8.292   2.133  0.0694  1.3262 -2.3386
   42MOL0     H 5772   1.641   8.203   2.053 -1.8052  1.5423  1.3390
   42MOL0     H 5773   1.674   8.163   2.224  1.6310 -0.3681  0.3121
   42MOL0     H 5774   1.729   7.921   2.141 -1.3277 -1.4092 -0.6677
   42MOL0     H 5775   1.694   7.983   1.976 -1.1258  2.2095 -0.9202
   42MOL0     H 5776   2.307   7.608   2.414 -0.7784  0.7395  1.8008
   42MOL0     H 5777   2.384   7.480   2.609 -1.0762  0.1898 -1.0712
   42MOL0     H 5778   2.400   7.389   3.091  0.6640  2.0226 -1.7633
   42MOL0     H 5779   2.483   7.242   3.250 -0.0911  1.1580 -0.0161
   42MOL0     H 5780   3.493   6.211   4.300  1.7096  1.2102 -1.8943
   42MOL0     H 5781   3.718   6.130   4.364  0.9798 -2.0761 -0.0492
   42MOL0     H 5782   4.110   6.002   4.237  1.4811  2.8523  2.3862
   42MOL0     H 5783   4.338   5.933   4.273 -1.9592 -0.6470 -1.2636
   42MOL0     H 5784   4.415   5.572   4.528 -1.8584  0.9369  0.4588
   42MOL0     H 5785   4.580   5.647   4.529 -0.6531 -0.5812 -1.2175
   42MOL0     H 5786   4.346   5.722   4.714 -0.6934  3.4879 -2.5299
   42MOL0     H 5787   4.500   5.799   4.720  0.8836 -1.6806  5.6185
   42MOL0     H 5788   4.625   5.619   4.798  0.8013 -0.3154 -0.4642
   42MOL0     H 5789   4.495   5.640   4.909  1.4509  6.4802 -1.2638
   42MOL0     H 5790   4.539   5.409   4.859  0.1740 -0.3725 -1.0159
   42MOL0     H 5791   4.544   5.434   4.684  0.8347 -0.7882  0.1016
   42MOL0     H 5792   4.120   5.423   4.723  0.0579  1.7636 -2.7159
   42MOL0     H 5793   4.212   5.653   4.570  0.6866  1.5196  1.5335
   42MOL0     H 5794   4.003   5.655   4.647  3.3904  4.3820  1.7396
   42MOL0     H 5795   3.899   5.791   4.629  1.5256 -0.9422  3.3491
   42MOL0     H 5796   3.865   5.659   4.521  0.1904 -1.4886  0.5578
   43MOL0     O 5797   8.841   5.244   5.392 -0.5869  0.3360 -0.5011
   43MOL0     C 5798   8.837   5.342   5.463  0.1789 -0.4911 -0.6808
   43MOL0     O 5799   8.932   5.382   5.555 -0.3527 -0.1853  0.6056
   43MOL0     C 5800   9.066   5.341   5.536 -0.0332 -0.4880 -0.0242
   43MOL0     C 5801   9.151   5.381   5.642 -0.4176 -1.1498 -0.2928
   43MOL0     C 5802   9.290   5.353   5.632  0.1472  1.1991  0.2263
   43MOL0     C 5803   9.343   5.301   5.518  1.0391  0.1474  0.2535
   43MOL0     O 5804   9.476   5.310   5.503  0.1870  0.4189 -0.1396
   43MOL0     C 5805   9.540   5.209   5.424 -0.3245 -0.1356 -0.1292
   43MOL0     C 5806   9.679   5.172   5.479  0.5101  0.8609 -0.0619
   43MOL0     C 5807   9.764   5.285   5.523  0.5440  0.3216 -0.3798
   43MOL0     C 5808   9.815   5.372   5.401  0.3584  0.1639  0.3553
   43MOL0     C 5809   9.918   5.280   5.325  0.1487  0.0447  0.4828
   43MOL0     C 5810  10.059   5.353   5.315  0.3445 -0.3455  0.2906
   43MOL0     C 5811  10.170   5.272   5.266 -0.3659 -0.5370 -0.3161
   43MOL0     C 5812  10.213   5.169   5.367  0.1886 -0.3230  1.2750
   43MOL0     N 5813  10.224   5.232   5.503 -0.2766  1.2028  0.5790
   43MOL0     C 5814  10.333   5.300   5.542  0.9528 -0.1998 -0.3016
   43MOL0     C 5815  10.328   5.318   5.675 -0.1159 -0.1416 -0.5782
   43MOL0     C 5816  10.439   5.373   5.766 -0.5370  0.5550 -0.3463
   43MOL0     C 5817  10.585   5.354   5.715  0.1088  0.4486  0.3896
   43MOL0     C 5818  10.637   5.482   5.648  1.3570 -0.2275 -0.1202
   43MOL0     C 5819  10.784   5.456   5.601  0.1040 -0.2978  0.6383
   43MOL0     O 5820  10.870   5.452   5.714  0.2820  0.8538 -0.0300
   43MOL0     C 5821  10.997   5.429   5.667 -0.8217  0.0394 -0.1144
   43MOL0     C 5822  11.060   5.304   5.636  0.4080  0.1824 -0.8921
   43MOL0     C 5823  11.198   5.290   5.594  1.4091 -0.5974 -0.4526
   43MOL0     C 5824  11.243   5.149   5.569  0.0540 -0.3575 -0.7453
   43MOL0     C 5825  11.278   5.409   5.605 -0.0139  0.0219  0.2478
   43MOL0     C 5826  11.428   5.410   5.581  0.0328  0.2455  0.2877
   43MOL0     O 5827  11.505   5.492   5.658  0.3544  0.2351  0.7140
   43MOL0     C 5828  11.638   5.520   5.628  0.7399 -0.3017  0.3256
   43MOL0     C 5829  11.727   5.415   5.598 -0.5200  0.3311  0.1856
   43MOL0     C 5830  11.860   5.453   5.556 -0.0298 -0.7712  0.6076
   43MOL0     C 5831  11.897   5.591   5.553  0.5457  0.1147 -0.1227
   43MOL0     O 5832  12.021   5.640   5.518 -0.1221  0.1914  0.0713
   43MOL0     C 5833  12.125   5.544   5.531 -0.7605 -0.7338 -0.3207
   43MOL0     C 5834  12.261   5.619   5.548  1.0968 -0.3260  1.2758
   43MOL0     C 5835  12.274   5.719   5.658 -0.2816 -0.1482  0.0386
   43MOL0     C 5836  12.400   5.800   5.648  0.1741 -0.0289  0.4608
   43MOL0     C 5837  12.509   5.740   5.733  0.1583  0.7171 -0.2013
   43MOL0     C 5838  12.551   5.596   5.716 -0.4121 -0.1528  0.5491
   43MOL0     C 5839  12.490   5.493   5.821  0.1649 -0.1354  0.2197
   43MOL0     C 5840  12.564   5.488   5.953 -0.4409  0.5929 -0.6883
   43MOL0    Cl 5841  12.715   5.390   5.908 -0.4581  0.0836  0.4610
   43MOL0     C 5842  11.803   5.688   5.589 -0.3304 -0.3303 -0.0098
   43MOL0     C 5843  11.675   5.659   5.627 -0.0105  0.4400  0.4042
   43MOL0     O 5844  11.480   5.341   5.489  0.2565 -0.4808  0.8953
   43MOL0     C 5845  11.220   5.530   5.639  0.5043  0.1554  0.2173
   43MOL0     C 5846  11.087   5.536   5.678  1.1240  0.1908 -0.6833
   43MOL0     N 5847  10.204   5.277   5.712 -0.0907  0.0065 -0.5106
   43MOL0     N 5848  10.147   5.216   5.614  0.3481 -0.2342 -0.3871
   43MOL0     C 5849   9.255   5.256   5.421  0.7063 -0.2494 -0.0851
   43MOL0     C 5850   9.120   5.279   5.421 -0.5210 -0.5766 -0.2089
   43MOL0     C 5851   8.707   5.424   5.461  0.0481 -0.2553 -0.3113
   43MOL0     C 5852   8.595   5.375   5.400  0.6618 -0.3389 -0.3010
   43MOL0     C 5853   8.471   5.445   5.398  0.3018 -0.0898 -0.5185
   43MOL0     C 5854   8.460   5.558   5.472  0.1881 -0.0784 -0.1431
   43MOL0     O 5855   8.349   5.633   5.471  0.6056  0.6486  0.4632
   43MOL0     C 5856   8.224   5.574   5.427  0.5207  0.3488  0.0947
   43MOL0     C 5857   8.099   5.646   5.487 -0.6673  0.5585 -0.1864
   43MOL0     C 5858   7.977   5.557   5.477  0.5222 -0.6776 -0.0827
   43MOL0     C 5859   7.930   5.558   5.334 -0.0774  0.0440  0.3598
   43MOL0     C 5860   7.789   5.575   5.305 -0.3447  0.2602  0.4473
   43MOL0     C 5861   7.669   5.568   5.285 -0.2629 -1.0103 -1.0368
   43MOL0     C 5862   8.569   5.600   5.542 -1.1568 -0.0048  0.1408
   43MOL0     C 5863   8.703   5.540   5.535  0.7381  0.1352  0.2261
   43MOL0     C 5864   8.800   5.617   5.608 -0.0681 -0.6273 -0.1840
   43MOL0     H 5865   9.095   5.433   5.719 -0.0586 -1.0524 -0.0959
   43MOL0     H 5866   9.360   5.384   5.709 -0.2360  1.2656  0.5537
   43MOL0     H 5867   9.538   5.248   5.322 -1.3043  1.2267  0.3786
   43MOL0     H 5868   9.483   5.116   5.420 -0.4904 -0.0407  0.0226
   43MOL0     H 5869   9.670   5.111   5.570  0.3739  0.1014 -0.5752
   43MOL0     H 5870   9.727   5.112   5.401 -0.4218  0.0864 -0.0718
   43MOL0     H 5871   9.720   5.355   5.595  1.5283  2.4338 -1.7499
   43MOL0     H 5872   9.853   5.243   5.571  1.1522  2.7272  0.7226
   43MOL0     H 5873   9.733   5.404   5.336  0.2528 -2.6454 -1.0451
   43MOL0     H 5874   9.864   5.466   5.431  0.7387  0.9904 -2.4948
   43MOL0     H 5875   9.885   5.249   5.225  3.0653  2.0879 -1.2871
   43MOL0     H 5876   9.941   5.189   5.382 -0.6222 -0.3162  0.2249
   43MOL0     H 5877  10.046   5.443   5.255 -0.7525 -0.4390  0.3574
   43MOL0     H 5878  10.083   5.402   5.410  2.8488  0.2024 -0.5577
   43MOL0     H 5879  10.239   5.356   5.261  0.1902 -0.9619 -0.0150
   43MOL0     H 5880  10.160   5.231   5.165  0.3541 -1.7420  0.0811
   43MOL0     H 5881  10.156   5.076   5.371  0.6546 -0.6288  0.7882
   43MOL0     H 5882  10.308   5.133   5.329 -0.0553  0.0962  0.2377
   43MOL0     H 5883  10.420   5.325   5.483  1.5487  0.6519  0.9011
   43MOL0     H 5884  10.423   5.315   5.857  0.5148  0.2223 -0.3549
   43MOL0     H 5885  10.426   5.479   5.786  1.1516  0.9196 -1.0274
   43MOL0     H 5886  10.649   5.337   5.802  0.0565 -0.2121  0.3042
   43MOL0     H 5887  10.593   5.267   5.650 -2.1977  2.5628 -3.0715
   43MOL0     H 5888  10.579   5.514   5.560  0.9152 -0.7359 -0.0183
   43MOL0     H 5889  10.637   5.575   5.706  1.0636 -0.0206 -0.4443
   43MOL0     H 5890  10.795   5.379   5.524  0.8837  1.0008 -0.6250
   43MOL0     H 5891  10.813   5.542   5.538 -0.7941 -1.9035 -2.1526
   43MOL0     H 5892  11.001   5.214   5.649 -1.6728  1.3933 -1.4883
   43MOL0     H 5893  11.225   5.113   5.467  2.5042 -0.7626 -1.0772
   43MOL0     H 5894  11.189   5.078   5.632 -0.8218  0.4297 -0.5738
   43MOL0     H 5895  11.350   5.137   5.584 -0.1823 -1.5239  0.1506
   43MOL0     H 5896  11.700   5.310   5.603  4.1864 -1.1566 -0.6704
   43MOL0     H 5897  11.930   5.385   5.508  2.0031  2.6135 -1.6736
   43MOL0     H 5898  12.116   5.478   5.618  1.0217  0.5055  0.8759
   43MOL0     H 5899  12.133   5.481   5.442 -0.6175 -1.6372  0.3175
   43MOL0     H 5900  12.342   5.546   5.545  0.3860 -1.0937 -0.1293
   43MOL0     H 5901  12.266   5.663   5.448 -0.0409  0.9267  1.7420
   43MOL0     H 5902  12.255   5.687   5.761 -3.4869  5.4865  1.6551
   43MOL0     H 5903  12.193   5.792   5.646 -1.7358 -1.7479 -0.2416
   43MOL0     H 5904  12.370   5.899   5.684 -1.0669 -0.3681  0.4030
   43MOL0     H 5905  12.434   5.802   5.544  0.0921 -1.2838  0.3926
   43MOL0     H 5906  12.596   5.802   5.706  2.0559 -2.3306 -1.5893
   43MOL0     H 5907  12.492   5.768   5.837  3.1124  1.2931  0.2119
   43MOL0     H 5908  12.661   5.593   5.719 -0.3094 -5.3356  1.0650
   43MOL0     H 5909  12.532   5.566   5.613  1.5413  1.5488 -0.3826
   43MOL0     H 5910  12.468   5.392   5.785  0.0185  0.0186 -0.1243
   43MOL0     H 5911  12.386   5.519   5.845 -0.1765 -0.6553 -0.6664
   43MOL0     H 5912  12.510   5.433   6.031 -0.7930 -0.2113 -1.4838
   43MOL0     H 5913  12.581   5.590   5.988 -0.8156  1.6326 -3.3349
   43MOL0     H 5914  11.842   5.789   5.590 -0.2199 -0.3182 -2.0317
   43MOL0     H 5915  11.611   5.740   5.661 -0.7834  0.8756 -1.8725
   43MOL0     H 5916  11.281   5.616   5.665  0.4530  0.3302 -0.2379
   43MOL0     H 5917  11.047   5.627   5.722  0.8690 -0.4087  0.3501
   43MOL0     H 5918   9.299   5.217   5.330  2.0426  1.8258 -0.3936
   43MOL0     H 5919   9.057   5.262   5.334 -0.8998 -3.4155  0.5434
   43MOL0     H 5920   8.590   5.276   5.356 -3.3885 -1.6540  2.4946
   43MOL0     H 5921   8.395   5.389   5.344  0.5284 -0.8010 -0.1187
   43MOL0     H 5922   8.222   5.582   5.318 -1.7317  1.0985  0.1471
   43MOL0     H 5923   8.222   5.470   5.463  0.7997  1.4863  3.7674
   43MOL0     H 5924   8.086   5.740   5.433  2.7440  0.0375 -2.2068
   43MOL0     H 5925   8.119   5.665   5.593 -1.0199  1.7492 -0.3157
   43MOL0     H 5926   8.002   5.462   5.524  1.6289  0.4826  1.8410
   43MOL0     H 5927   7.906   5.600   5.549 -0.5565 -0.8746 -1.0088
   43MOL0     H 5928   7.961   5.460   5.297  1.5693 -0.1274  2.0404
   43MOL0     H 5929   7.972   5.644   5.280 -2.1648  0.1903 -1.1330
   43MOL0     H 5930   7.567   5.557   5.253 -0.0388 -2.5336 -1.3130
   43MOL0     H 5931   8.549   5.693   5.593  2.4021 -0.0910  1.9958
   43MOL0     H 5932   8.833   5.551   5.688 -0.3671 -1.5779 -0.8311
   43MOL0     H 5933   8.887   5.643   5.546  1.0524  1.2917  2.0389
   43MOL0     H 5934   8.747   5.706   5.643 -3.9347 -2.2475 -1.3985
   44MOL0     O 5935   6.808   0.108   1.669 -0.0262  0.6278 -0.0319
   44MOL0     C 5936   6.739   0.008   1.713 -0.2128 -0.1679  0.5417
   44MOL0     O 5937   6.644   0.018   1.808  0.6536 -0.0017 -0.4307
   44MOL0     C 5938   6.676   0.105   1.905 -0.6505  0.3511  0.4094
   44MOL0     C 5939   6.606   0.226   1.917 -0.2631 -0.0986  0.0230
   44MOL0     C 5940   6.643   0.326   2.007 -0.2657  0.7439  0.7892
   44MOL0     C 5941   6.752   0.304   2.090 -0.4358 -0.7928 -0.5303
   44MOL0     O 5942   6.804   0.397   2.181  0.5077 -0.7177 -0.1350
   44MOL0     C 5943   6.719   0.495   2.235 -0.0743 -0.3673 -1.1989
   44MOL0     C 5944   6.788   0.570   2.356  0.1919  0.2082  0.2763
   44MOL0     C 5945   6.910   0.642   2.308  0.0626  0.0556  0.4936
   44MOL0     C 5946   6.977   0.710   2.429  0.1934 -0.4536  0.4793
   44MOL0     C 5947   7.122   0.750   2.394 -0.9257 -0.2941 -0.5929
   44MOL0     C 5948   7.216   0.635   2.348  0.4555 -0.5770  1.4415
   44MOL0     C 5949   7.222   0.519   2.442  0.0212 -0.8433  0.4149
   44MOL0     C 5950   7.352   0.440   2.417  0.0167  0.0089 -0.0535
   44MOL0     N 5951   7.470   0.520   2.434 -0.4477 -0.6086 -0.6034
   44MOL0     C 5952   7.526   0.555   2.556  1.2284  1.4444  0.7869
   44MOL0     C 5953   7.647   0.615   2.534  0.2733 -0.0528 -0.1369
   44MOL0     C 5954   7.751   0.668   2.641 -0.5221  0.0753  0.0796
   44MOL0     C 5955   7.801   0.811   2.596 -0.7615 -0.4746  0.3311
   44MOL0     C 5956   7.891   0.882   2.687  0.4472  0.8318 -0.6485
   44MOL0     C 5957   8.035   0.821   2.683 -0.2632 -0.5560  0.6527
   44MOL0     O 5958   8.085   0.846   2.554 -0.1998 -0.3257  0.3761
   44MOL0     C 5959   8.186   0.936   2.529 -0.6088  0.1528  0.3752
   44MOL0     C 5960   8.226   1.039   2.614 -1.0876 -0.1467 -0.6655
   44MOL0     C 5961   8.333   1.125   2.576 -0.4688  0.0088 -0.4967
   44MOL0     C 5962   8.358   1.244   2.653 -0.5525 -0.3385 -0.3094
   44MOL0     C 5963   8.408   1.089   2.458  0.6982  0.0386 -1.0692
   44MOL0     C 5964   8.518   1.176   2.410 -0.0272  0.2787  1.1349
   44MOL0     O 5965   8.531   1.193   2.269 -0.4063 -0.0745 -0.1747
   44MOL0     C 5966   8.659   1.227   2.224  0.5392 -0.9051  1.0769
   44MOL0     C 5967   8.661   1.304   2.099  0.0416  0.3177 -0.6614
   44MOL0     C 5968   8.780   1.323   2.030  0.3663  0.5606 -1.1133
   44MOL0     C 5969   8.901   1.270   2.083  0.5005 -1.2302  0.9081
   44MOL0     O 5970   9.010   1.300   2.009 -0.3502  0.1623  0.0273
   44MOL0     C 5971   9.117   1.205   2.012 -0.6064  0.3071  0.2199
   44MOL0     C 5972   9.187   1.229   1.881  0.1117 -0.3114  0.2215
   44MOL0     C 5973   9.104   1.187   1.758  0.5017 -0.5580 -0.0186
   44MOL0     C 5974   9.189   1.174   1.633  0.3820  0.3456  0.0297
   44MOL0     C 5975   9.137   1.083   1.525 -0.1071 -1.2702 -0.6521
   44MOL0     C 5976   9.247   1.029   1.438  0.0066 -0.9085 -1.2687
   44MOL0     C 5977   9.208   0.903   1.352 -0.6667 -0.1078 -0.3454
   44MOL0     C 5978   9.107   0.947   1.253  0.2830  0.2678  0.6906
   44MOL0    Cl 5979   9.059   0.820   1.135  0.2776 -0.2964 -0.0415
   44MOL0     C 5980   8.902   1.191   2.201  0.6862  0.2904 -0.4445
   44MOL0     C 5981   8.787   1.175   2.270 -0.3395 -0.6180  0.2189
   44MOL0     O 5982   8.600   1.218   2.486 -0.5725  0.6960 -0.2557
   44MOL0     C 5983   8.372   0.986   2.373  0.4754 -0.3593  0.5789
   44MOL0     C 5984   8.253   0.912   2.409 -0.0493  0.0298 -0.3916
   44MOL0     N 5985   7.662   0.617   2.395  0.2768 -0.1938 -0.7253
   44MOL0     N 5986   7.557   0.563   2.343 -0.7268 -0.1277  0.1325
   44MOL0     C 5987   6.822   0.188   2.079 -0.2077 -0.4353 -1.6300
   44MOL0     C 5988   6.781   0.085   1.991 -0.2797  0.1392 -0.4952
   44MOL0     C 5989   6.748  -0.127   1.637 -0.0433 -0.1796 -0.1647
   44MOL0     C 5990   6.636  -0.205   1.651  0.5779 -0.1248  0.0966
   44MOL0     C 5991   6.625  -0.328   1.590 -0.2108  0.4120 -0.5803
   44MOL0     C 5992   6.737  -0.372   1.512  0.0902 -0.0761 -0.0547
   44MOL0     O 5993   6.725  -0.495   1.457 -0.1273  0.8829 -0.1395
   44MOL0     C 5994   6.643  -0.494   1.335 -0.1430 -0.4560  0.2580
   44MOL0     C 5995   6.701  -0.607   1.259  0.3650 -0.2879  0.4003
   44MOL0     C 5996   6.687  -0.588   1.104  0.1534  1.4488  0.1487
   44MOL0     C 5997   6.745  -0.714   1.035  0.4327 -0.3499 -0.8508
   44MOL0     C 5998   6.648  -0.829   1.033 -0.0547  0.4702 -0.3643
   44MOL0     C 5999   6.559  -0.909   1.023  0.0303  0.9924 -0.5483
   44MOL0     C 6000   6.836  -0.286   1.475 -0.5472 -0.1792  0.3240
   44MOL0     C 6001   6.845  -0.166   1.545 -0.4053  0.0204  0.0030
   44MOL0     C 6002   6.963  -0.080   1.517 -0.0619 -0.2097 -1.2971
   44MOL0     H 6003   6.525   0.229   1.844  0.2216  1.0188 -0.4936
   44MOL0     H 6004   6.574   0.410   2.006 -0.5786  0.5136 -1.2664
   44MOL0     H 6005   6.635   0.443   2.283 -0.0655  1.1721  0.6465
   44MOL0     H 6006   6.683   0.577   2.172  0.7152  0.6045 -0.4289
   44MOL0     H 6007   6.713   0.642   2.387  0.3317  0.4822 -0.0185
   44MOL0     H 6008   6.818   0.502   2.437  3.0577  1.0375  0.0461
   44MOL0     H 6009   6.974   0.570   2.255 -0.2379  0.7792 -0.9088
   44MOL0     H 6010   6.882   0.711   2.227  1.3796 -1.2323 -1.1434
   44MOL0     H 6011   6.930   0.804   2.460 -2.2518 -1.6458  0.6687
   44MOL0     H 6012   6.966   0.645   2.517 -2.3888  0.7452  1.1417
   44MOL0     H 6013   7.165   0.795   2.484  1.6768 -3.5271 -0.0453
   44MOL0     H 6014   7.110   0.819   2.310 -0.3198  0.5038 -0.0334
   44MOL0     H 6015   7.189   0.593   2.251  2.4703  2.4488 -0.5822
   44MOL0     H 6016   7.313   0.681   2.324 -0.8577  0.4535 -2.5576
   44MOL0     H 6017   7.134   0.454   2.440  0.0578 -0.8877 -0.1630
   44MOL0     H 6018   7.240   0.575   2.533  0.3314  2.2283 -1.3968
   44MOL0     H 6019   7.348   0.358   2.489  0.3514  0.5345  0.5691
   44MOL0     H 6020   7.356   0.391   2.319  0.0740 -1.4521  0.6460
   44MOL0     H 6021   7.476   0.539   2.651  0.6974 -1.6891  0.0988
   44MOL0     H 6022   7.842   0.607   2.640 -0.4419  0.1728  0.7540
   44MOL0     H 6023   7.713   0.666   2.744 -0.5703  0.7919  0.0740
   44MOL0     H 6024   7.849   0.810   2.497  0.9426 -0.3106  1.1116
   44MOL0     H 6025   7.713   0.874   2.579  0.8682  1.4209 -2.0546
   44MOL0     H 6026   7.891   0.989   2.661  2.2097  0.3835 -2.8927
   44MOL0     H 6027   7.852   0.871   2.788 -1.1959  2.0078 -1.0963
   44MOL0     H 6028   8.099   0.854   2.765  0.5766 -2.1842  0.6971
   44MOL0     H 6029   8.021   0.713   2.697 -1.6867 -0.6611 -1.2504
   44MOL0     H 6030   8.168   1.058   2.703  2.1459  1.6419  1.2500
   44MOL0     H 6031   8.341   1.332   2.590  2.3138 -0.6297 -1.6546
   44MOL0     H 6032   8.460   1.249   2.692  0.2845 -1.6460 -2.1316
   44MOL0     H 6033   8.293   1.256   2.740 -1.7725 -2.6604 -0.7883
   44MOL0     H 6034   8.561   1.330   2.066 -0.8569 -4.6927 -2.7263
   44MOL0     H 6035   8.783   1.357   1.927  0.2954  0.6789 -1.0762
   44MOL0     H 6036   9.183   1.230   2.095  1.6366 -1.6823 -0.8156
   44MOL0     H 6037   9.083   1.101   2.017 -2.0847  0.8179  1.3001
   44MOL0     H 6038   9.228   1.330   1.874  0.7628 -0.5009  1.1203
   44MOL0     H 6039   9.264   1.153   1.895 -0.0959 -0.6280 -0.3299
   44MOL0     H 6040   9.020   1.257   1.749  0.2968 -0.6353  1.0525
   44MOL0     H 6041   9.059   1.090   1.779  0.2506 -0.9518 -2.1470
   44MOL0     H 6042   9.288   1.135   1.658 -0.8501 -1.8228  1.8769
   44MOL0     H 6043   9.207   1.274   1.592  0.2195  2.1759  3.9846
   44MOL0     H 6044   9.076   1.012   1.581 -1.2418  1.8005  2.3158
   44MOL0     H 6045   9.080   1.140   1.451  0.5208  0.0431 -0.1614
   44MOL0     H 6046   9.336   1.007   1.498  1.7206  4.1020 -1.5387
   44MOL0     H 6047   9.286   1.108   1.374  1.2623  1.4542  2.1593
   44MOL0     H 6048   9.165   0.831   1.421 -3.7449  2.4097  0.6051
   44MOL0     H 6049   9.298   0.875   1.295 -0.6077  1.0274 -0.8411
   44MOL0     H 6050   9.158   1.033   1.210  1.0212 -0.6955 -0.4389
   44MOL0     H 6051   9.013   0.965   1.305  0.8888  2.3852  1.1397
   44MOL0     H 6052   8.993   1.143   2.234  0.5318  0.0972 -0.2970
   44MOL0     H 6053   8.788   1.125   2.366  0.6135 -0.3383  0.3573
   44MOL0     H 6054   8.427   0.965   2.282 -1.5173  2.2901 -1.3719
   44MOL0     H 6055   8.209   0.842   2.338 -1.1081  2.0310 -1.8237
   44MOL0     H 6056   6.903   0.163   2.147 -0.9175  0.1187 -0.5502
   44MOL0     H 6057   6.838  -0.008   1.999  4.1086  2.6653  1.1509
   44MOL0     H 6058   6.550  -0.188   1.715  1.2952 -0.8065  1.2606
   44MOL0     H 6059   6.537  -0.391   1.594 -0.4662  0.6995 -1.4499
   44MOL0     H 6060   6.541  -0.519   1.365  0.8896 -0.5920  4.1577
   44MOL0     H 6061   6.644  -0.398   1.283 -0.6613  0.4382  1.8459
   44MOL0     H 6062   6.645  -0.698   1.283  0.1292 -0.9890 -2.4444
   44MOL0     H 6063   6.808  -0.617   1.279  0.9665  3.4663 -0.0861
   44MOL0     H 6064   6.590  -0.552   1.068  1.2558  2.4537 -1.9820
   44MOL0     H 6065   6.751  -0.505   1.073  0.5158  0.7487 -1.0457
   44MOL0     H 6066   6.844  -0.742   1.073  2.1783  1.9257 -3.3427
   44MOL0     H 6067   6.757  -0.697   0.927  0.1957 -2.2515 -1.2041
   44MOL0     H 6068   6.470  -0.960   0.994  0.7188 -0.4130 -0.2879
   44MOL0     H 6069   6.916  -0.302   1.404  1.6650 -0.1741  2.6598
   44MOL0     H 6070   7.016  -0.058   1.610 -2.4451  0.0009  0.1069
   44MOL0     H 6071   7.030  -0.134   1.451 -1.5048 -1.6537 -1.6485
   44MOL0     H 6072   6.929   0.014   1.473  0.0985  0.7295  0.4692
   45MOL0     O 6073   4.387  11.375   5.255 -0.1093  0.6091  0.0081
   45MOL0     C 6074   4.446  11.395   5.364  0.4825  0.3907  0.2188
   45MOL0     O 6075   4.429  11.312   5.473  0.2969  0.0127  0.2196
   45MOL0     C 6076   4.422  11.175   5.440  0.1403 -0.4696 -0.3810
   45MOL0     C 6077   4.299  11.112   5.430 -0.1388  0.6365 -0.1863
   45MOL0     C 6078   4.291  10.976   5.404  0.0011  0.7817 -1.0515
   45MOL0     C 6079   4.412  10.896   5.398  0.0518 -0.2560  0.4402
   45MOL0     O 6080   4.380  10.769   5.366  1.0379  0.1957 -0.0610
   45MOL0     C 6081   4.487  10.681   5.339 -0.1114 -0.3634  0.0159
   45MOL0     C 6082   4.448  10.564   5.247  0.0321 -0.1822  0.3683
   45MOL0     C 6083   4.562  10.477   5.199  0.3353 -0.9455 -0.2560
   45MOL0     C 6084   4.647  10.409   5.306  0.3778  0.0280  0.1973
   45MOL0     C 6085   4.754  10.325   5.241 -0.7519  0.0958  0.9474
   45MOL0     C 6086   4.820  10.240   5.347  0.2843  0.2724  0.8765
   45MOL0     C 6087   4.947  10.169   5.282 -0.7735  0.0825 -1.1577
   45MOL0     C 6088   4.991  10.042   5.358  0.3913 -0.2906 -0.4089
   45MOL0     N 6089   5.056   9.945   5.266  0.8581  0.4118  0.3811
   45MOL0     C 6090   5.167   9.965   5.192 -0.8755 -0.1356  0.0303
   45MOL0     C 6091   5.167   9.879   5.092  0.2858 -0.0743 -0.2460
   45MOL0     C 6092   5.262   9.863   4.981 -0.1285 -0.0675 -0.7321
   45MOL0     C 6093   5.411   9.845   5.018 -0.0592 -0.2173  1.0845
   45MOL0     C 6094   5.432   9.706   5.082  0.0332  0.2437  1.1061
   45MOL0     C 6095   5.579   9.684   5.124  0.0542 -0.1266  0.3392
   45MOL0     O 6096   5.615   9.782   5.218 -1.1655  0.6431  0.2120
   45MOL0     C 6097   5.752   9.805   5.235 -0.0912 -0.7815  1.0486
   45MOL0     C 6098   5.783   9.942   5.243 -0.2415  0.0145 -0.4920
   45MOL0     C 6099   5.914   9.981   5.249  0.0061 -0.0011 -0.6314
   45MOL0     C 6100   5.950  10.125   5.250  0.1445  0.5784 -0.8430
   45MOL0     C 6101   6.011   9.884   5.262 -0.2059 -0.1391 -1.2627
   45MOL0     C 6102   6.154   9.921   5.283 -0.1252 -0.0881  0.0222
   45MOL0     O 6103   6.233   9.840   5.371  0.1641 -0.0118  0.8215
   45MOL0     C 6104   6.366   9.869   5.396  0.2388 -0.0098  0.2702
   45MOL0     C 6105   6.421   9.776   5.482 -0.4323 -0.5632  0.2959
   45MOL0     C 6106   6.548   9.799   5.542 -0.4212  0.6883 -0.1768
   45MOL0     C 6107   6.616   9.915   5.514  0.3277 -0.1247 -1.0962
   45MOL0     O 6108   6.735   9.946   5.572  0.3154  0.1808 -0.0265
   45MOL0     C 6109   6.742   9.926   5.715  0.0829  0.2641  0.1961
   45MOL0     C 6110   6.834  10.039   5.764 -0.0342  0.3292  0.6844
   45MOL0     C 6111   6.880  10.016   5.904  0.2865 -0.1687  0.4166
   45MOL0     C 6112   6.979  10.121   5.956 -0.5154  0.3046 -0.4100
   45MOL0     C 6113   7.122  10.125   5.890  0.3577  0.7179 -0.7072
   45MOL0     C 6114   7.197  10.248   5.940  0.5487  0.7338 -1.3300
   45MOL0     C 6115   7.327  10.256   5.862  1.0882 -0.6696 -0.5564
   45MOL0     C 6116   7.415  10.371   5.911  1.1372 -0.7532 -0.4083
   45MOL0    Cl 6117   7.560  10.371   5.806 -0.4973 -0.2881 -0.0152
   45MOL0     C 6118   6.569  10.003   5.416  0.1666 -0.3708 -0.4987
   45MOL0     C 6119   6.446   9.983   5.355  0.8643  0.0178 -0.8341
   45MOL0     O 6120   6.206  10.011   5.218  0.9374  0.2711  0.5706
   45MOL0     C 6121   5.981   9.747   5.272  0.2932 -0.1118  0.5271
   45MOL0     C 6122   5.850   9.711   5.247 -0.3828  0.0906 -0.4572
   45MOL0     N 6123   5.055   9.802   5.112 -0.0156  0.4670 -0.4464
   45MOL0     N 6124   4.995   9.833   5.228  0.3578  0.0441  0.5141
   45MOL0     C 6125   4.537  10.952   5.414 -0.1920 -0.1247 -0.4729
   45MOL0     C 6126   4.540  11.096   5.428 -0.6238 -0.1491 -0.1857
   45MOL0     C 6127   4.550  11.508   5.372  0.2647 -0.2470  0.5451
   45MOL0     C 6128   4.635  11.516   5.487 -0.0510 -0.7962  0.2043
   45MOL0     C 6129   4.728  11.621   5.510  0.8799 -1.2450 -0.2065
   45MOL0     C 6130   4.758  11.705   5.400  0.4539 -0.0218  0.0706
   45MOL0     O 6131   4.855  11.797   5.407 -0.7219 -0.2209  0.4807
   45MOL0     C 6132   4.895  11.883   5.297  0.1181  0.9319 -0.1596
   45MOL0     C 6133   5.028  11.943   5.344 -0.3219 -0.7007 -0.4060
   45MOL0     C 6134   5.098  12.034   5.231  0.2090  1.4967  0.2509
   45MOL0     C 6135   5.232  12.092   5.270 -0.0453 -0.0905 -0.1681
   45MOL0     C 6136   5.340  11.990   5.289 -0.2909  0.2363  0.3699
   45MOL0     C 6137   5.437  11.915   5.302  0.1060  0.6053 -0.9874
   45MOL0     C 6138   4.681  11.691   5.285 -0.4573 -0.4630 -0.4955
   45MOL0     C 6139   4.568  11.604   5.274  0.5678  0.4008 -0.1082
   45MOL0     C 6140   4.480  11.629   5.150  0.4142 -0.3689 -0.3282
   45MOL0     H 6141   4.210  11.174   5.427  1.6693  3.6252  2.0821
   45MOL0     H 6142   4.196  10.929   5.381 -0.4545  1.2219 -0.1212
   45MOL0     H 6143   4.524  10.629   5.428  0.7812  0.7110  0.2944
   45MOL0     H 6144   4.566  10.739   5.291  0.4199  1.4178  2.8128
   45MOL0     H 6145   4.368  10.503   5.289 -1.8620  0.0817 -2.5571
   45MOL0     H 6146   4.403  10.597   5.153 -2.1787  1.9830  2.0654
   45MOL0     H 6147   4.503  10.401   5.148 -1.1232  0.5736 -0.9137
   45MOL0     H 6148   4.623  10.531   5.126  1.7667 -0.9422  0.9008
   45MOL0     H 6149   4.686  10.480   5.380  1.3595 -0.6639  0.3710
   45MOL0     H 6150   4.582  10.341   5.362 -0.1479  1.0195  0.8182
   45MOL0     H 6151   4.825  10.383   5.181 -0.1244 -4.0434 -2.8613
   45MOL0     H 6152   4.709  10.252   5.174 -1.9350  0.9420  0.7751
   45MOL0     H 6153   4.848  10.294   5.438 -0.0427 -1.5926  2.1453
   45MOL0     H 6154   4.746  10.163   5.374  0.4041 -0.4567 -0.7738
   45MOL0     H 6155   5.034  10.234   5.283 -1.3497  0.8731 -0.7889
   45MOL0     H 6156   4.926  10.157   5.175 -0.4355  1.3475 -1.3828
   45MOL0     H 6157   5.059  10.046   5.443  0.9998  0.2015 -0.9062
   45MOL0     H 6158   4.906   9.993   5.407 -0.0009  0.0681 -0.7211
   45MOL0     H 6159   5.241  10.042   5.211 -0.2821 -0.6098 -0.3255
   45MOL0     H 6160   5.252   9.955   4.922 -0.0687 -0.5932 -1.5756
   45MOL0     H 6161   5.229   9.794   4.902 -0.7427  0.9244 -1.3720
   45MOL0     H 6162   5.483   9.852   4.937  2.9368  1.0250  3.6642
   45MOL0     H 6163   5.435   9.925   5.089 -2.9200  2.3617 -0.6043
   45MOL0     H 6164   5.369   9.679   5.168  1.5970 -2.6208  1.4783
   45MOL0     H 6165   5.404   9.627   5.013 -0.3211  1.3516 -0.0485
   45MOL0     H 6166   5.604   9.582   5.154 -0.6931 -0.5455 -0.3915
   45MOL0     H 6167   5.642   9.700   5.036 -0.0099 -0.2293  0.2725
   45MOL0     H 6168   5.705  10.019   5.241 -0.7545 -0.5061 -1.3214
   45MOL0     H 6169   5.865  10.192   5.264 -0.1065 -0.3298  3.2984
   45MOL0     H 6170   6.016  10.155   5.168  0.9747  0.2874 -0.3031
   45MOL0     H 6171   6.006  10.140   5.343 -0.0215 -1.4046 -0.3732
   45MOL0     H 6172   6.366   9.687   5.508 -0.2729 -0.7338  0.0520
   45MOL0     H 6173   6.592   9.734   5.616  0.4860  1.1694 -0.2848
   45MOL0     H 6174   6.650   9.953   5.768  1.1507  1.9953  1.2520
   45MOL0     H 6175   6.774   9.822   5.730  0.0366 -0.2290 -2.6005
   45MOL0     H 6176   6.910  10.064   5.689 -1.7442 -2.3934 -2.1872
   45MOL0     H 6177   6.762  10.121   5.768 -4.0171 -2.8068 -0.6996
   45MOL0     H 6178   6.924   9.917   5.913 -2.4579 -1.3724  1.6615
   45MOL0     H 6179   6.790  10.016   5.967  1.6350 -2.6856  2.5399
   45MOL0     H 6180   6.981  10.102   6.063 -0.2169 -3.0169 -0.8964
   45MOL0     H 6181   6.939  10.223   5.947 -0.4601  0.3186 -0.5111
   45MOL0     H 6182   7.173  10.033   5.921  0.2300  0.2635 -1.7946
   45MOL0     H 6183   7.104  10.116   5.782  0.9862 -1.3638 -0.6807
   45MOL0     H 6184   7.214  10.251   6.048 -0.8951  4.1760 -1.0665
   45MOL0     H 6185   7.162  10.351   5.929  1.1986  1.3731  1.7345
   45MOL0     H 6186   7.301  10.276   5.757 -1.7581  1.9736  0.4930
   45MOL0     H 6187   7.379  10.161   5.876  1.3914 -0.3322  0.7212
   45MOL0     H 6188   7.437  10.361   6.018 -5.1819  0.5376  1.4111
   45MOL0     H 6189   7.369  10.470   5.908 -0.6132 -1.5196 -0.3239
   45MOL0     H 6190   6.628  10.091   5.393  0.4191 -0.2254  0.6840
   45MOL0     H 6191   6.398  10.063   5.301 -0.6245 -0.7438 -0.6826
   45MOL0     H 6192   6.061   9.674   5.279  0.2909 -0.0211  1.6391
   45MOL0     H 6193   5.818   9.608   5.259 -0.6502  0.1806 -0.3704
   45MOL0     H 6194   4.630  10.903   5.441  1.2179  3.2048  1.3111
   45MOL0     H 6195   4.633  11.147   5.450 -1.0364 -0.3117  2.1272
   45MOL0     H 6196   4.617  11.433   5.554  0.6547 -1.8551 -0.8897
   45MOL0     H 6197   4.776  11.639   5.605 -0.2557 -1.7547  0.4845
   45MOL0     H 6198   4.909  11.820   5.208 -1.8914 -1.6190  1.1903
   45MOL0     H 6199   4.820  11.959   5.272  0.8777  1.6987 -0.1449
   45MOL0     H 6200   5.097  11.864   5.374 -1.8533 -2.3922 -1.1826
   45MOL0     H 6201   5.010  12.009   5.429 -0.4339  0.1938 -1.1132
   45MOL0     H 6202   5.106  11.981   5.136  0.1835  0.3132  0.9013
   45MOL0     H 6203   5.023  12.110   5.206 -3.1960 -2.4064 -2.8677
   45MOL0     H 6204   5.221  12.152   5.361  2.0438  0.8146 -0.4463
   45MOL0     H 6205   5.264  12.172   5.203  0.2414  1.8069  2.0901
   45MOL0     H 6206   5.532  11.868   5.313 -0.5583 -0.5202  0.2227
   45MOL0     H 6207   4.704  11.749   5.196  2.1992 -1.3588 -0.4904
   45MOL0     H 6208   4.488  11.730   5.108  0.3058 -1.0592 -2.0890
   45MOL0     H 6209   4.512  11.562   5.070  0.5908  1.1533 -1.5783
   45MOL0     H 6210   4.377  11.608   5.181  0.4155 -1.3638 -0.9367
   46MOL0     O 6211   4.627   9.868   7.394  0.1067  1.0373 -0.0747
   46MOL0     C 6212   4.551   9.774   7.420  0.5098 -0.1118 -0.2380
   46MOL0     O 6213   4.600   9.652   7.457 -0.2430  0.2420  0.0616
   46MOL0     C 6214   4.733   9.657   7.480  1.0949 -0.5111 -0.2319
   46MOL0     C 6215   4.774   9.651   7.611  0.0306  0.2214  0.5936
   46MOL0     C 6216   4.914   9.636   7.633 -0.5787 -0.1613  0.1183
   46MOL0     C 6217   5.008   9.619   7.530 -0.2013  0.2566  0.0075
   46MOL0     O 6218   5.144   9.599   7.538  0.5324  0.2609 -0.4781
   46MOL0     C 6219   5.203   9.583   7.669 -0.2832  0.6016 -0.9864
   46MOL0     C 6220   5.193   9.433   7.713 -0.6175 -1.1811  0.1970
   46MOL0     C 6221   5.312   9.347   7.668  0.4850 -0.5061 -0.3930
   46MOL0     C 6222   5.287   9.208   7.731  0.4118 -0.7445  0.6552
   46MOL0     C 6223   5.401   9.118   7.702 -0.0370 -0.7524  0.0653
   46MOL0     C 6224   5.392   9.076   7.556  0.0598  0.4436  0.4688
   46MOL0     C 6225   5.482   8.955   7.518  0.1855 -0.1263  0.1930
   46MOL0     C 6226   5.612   8.996   7.446 -1.2044 -0.9786 -0.3461
   46MOL0     N 6227   5.714   9.039   7.545 -0.1980 -0.1282  0.8037
   46MOL0     C 6228   5.774   8.969   7.640 -1.2793  0.3192  0.3425
   46MOL0     C 6229   5.840   9.065   7.723  0.4712  0.2585  0.6082
   46MOL0     C 6230   5.905   9.066   7.858  0.2628 -0.5419 -0.4786
   46MOL0     C 6231   6.055   9.051   7.849 -0.3525 -0.0712  0.3509
   46MOL0     C 6232   6.096   8.902   7.810 -0.2492 -0.7331 -0.3514
   46MOL0     C 6233   6.070   8.798   7.926 -0.1661 -0.3919 -0.3347
   46MOL0     O 6234   6.163   8.830   8.035 -0.5376 -0.9537  0.1688
   46MOL0     C 6235   6.292   8.793   8.033 -0.1893 -0.7231 -0.4042
   46MOL0     C 6236   6.370   8.827   8.145  0.4185  0.3722  1.0225
   46MOL0     C 6237   6.504   8.778   8.162 -0.2531  0.3694  0.0072
   46MOL0     C 6238   6.566   8.808   8.297 -0.4069  0.0789 -0.6208
   46MOL0     C 6239   6.564   8.697   8.060  0.1925 -0.1786  1.1751
   46MOL0     C 6240   6.712   8.650   8.068  0.6928  0.0429 -0.4407
   46MOL0     O 6241   6.755   8.551   7.990 -0.2161  0.3499  0.0050
   46MOL0     C 6242   6.893   8.526   8.005  0.5184 -0.4051 -0.2935
   46MOL0     C 6243   6.926   8.415   8.087 -0.0105  0.0437 -0.7344
   46MOL0     C 6244   7.054   8.357   8.072  0.8513 -0.0762 -0.8905
   46MOL0     C 6245   7.148   8.423   7.991 -0.7609  0.1421  0.6008
   46MOL0     O 6246   7.271   8.354   7.991  0.5247  0.6385 -0.0828
   46MOL0     C 6247   7.393   8.428   7.977  0.1030 -0.0152  0.3335
   46MOL0     C 6248   7.494   8.326   7.946  0.5055  0.5943 -0.0529
   46MOL0     C 6249   7.636   8.382   7.929  0.3073 -0.7102  0.0647
   46MOL0     C 6250   7.683   8.400   7.791 -0.9071  0.6421  0.0375
   46MOL0     C 6251   7.828   8.454   7.772  0.1283  0.8033 -0.1587
   46MOL0     C 6252   7.839   8.585   7.846 -1.0016 -0.6610  0.4661
   46MOL0     C 6253   7.953   8.671   7.792 -0.3854 -0.4756  0.2856
   46MOL0     C 6254   7.982   8.791   7.889  0.7836  0.0429  0.0764
   46MOL0    Cl 6255   8.136   8.886   7.835 -0.1772 -0.3323 -0.1902
   46MOL0     C 6256   7.118   8.546   7.925  0.0228  0.6480 -0.6371
   46MOL0     C 6257   6.993   8.601   7.933 -0.2908 -0.1189  0.5061
   46MOL0     O 6258   6.780   8.723   8.143  0.3961 -0.7044  0.1837
   46MOL0     C 6259   6.484   8.667   7.948  0.6857 -0.1209 -0.4050
   46MOL0     C 6260   6.350   8.712   7.937 -0.6343 -0.5565  0.1240
   46MOL0     N 6261   5.798   9.183   7.677 -0.6072  0.5213 -0.6315
   46MOL0     N 6262   5.724   9.167   7.574  0.3020 -1.3516 -0.4610
   46MOL0     C 6263   4.960   9.629   7.400 -0.7323  0.0508  0.6841
   46MOL0     C 6264   4.825   9.647   7.376  0.7017 -0.0049  0.6242
   46MOL0     C 6265   4.404   9.789   7.410 -0.4171  0.3184 -0.6115
   46MOL0     C 6266   4.326   9.683   7.459 -0.3402  0.0188  0.1353
   46MOL0     C 6267   4.194   9.664   7.431 -0.5350  0.0348  0.4918
   46MOL0     C 6268   4.130   9.754   7.350  0.5389 -0.0663  0.4785
   46MOL0     O 6269   3.997   9.742   7.315 -0.4888  0.1160 -0.1597
   46MOL0     C 6270   3.904   9.652   7.372  0.6531  0.1976  0.8298
   46MOL0     C 6271   3.768   9.673   7.298  0.0805  0.1642  0.0860
   46MOL0     C 6272   3.652   9.584   7.348 -0.3850  0.2363  0.4853
   46MOL0     C 6273   3.594   9.620   7.486  0.4097 -0.0108  0.1198
   46MOL0     C 6274   3.487   9.526   7.519  0.4171 -0.3064  0.2004
   46MOL0     C 6275   3.398   9.457   7.553 -0.1664  0.1198  0.6887
   46MOL0     C 6276   4.192   9.860   7.299 -1.1168 -0.0431 -0.8244
   46MOL0     C 6277   4.331   9.882   7.329 -0.4166 -0.1186 -0.1850
   46MOL0     C 6278   4.407  10.001   7.271 -0.0533 -0.9251 -0.3835
   46MOL0     H 6279   4.705   9.648   7.694  2.2283  2.2431  2.6432
   46MOL0     H 6280   4.947   9.631   7.737 -0.5255 -0.1097  0.1044
   46MOL0     H 6281   5.153   9.648   7.742  0.1149  0.8826 -0.9606
   46MOL0     H 6282   5.307   9.608   7.648 -0.8540  1.4675 -3.0193
   46MOL0     H 6283   5.205   9.433   7.821  3.5841  1.0670 -0.0351
   46MOL0     H 6284   5.102   9.387   7.673 -1.4597  0.0056  0.7026
   46MOL0     H 6285   5.314   9.348   7.558  2.0926 -2.4657 -0.4304
   46MOL0     H 6286   5.411   9.388   7.691 -1.2159  3.2097  1.1981
   46MOL0     H 6287   5.274   9.218   7.839 -0.5217 -1.9632  0.6814
   46MOL0     H 6288   5.196   9.165   7.688  1.4367 -1.6323 -0.7269
   46MOL0     H 6289   5.391   9.032   7.768  1.0135  0.4936  1.9702
   46MOL0     H 6290   5.494   9.172   7.724 -1.6100  2.2329  0.0003
   46MOL0     H 6291   5.287   9.060   7.529 -0.8081  2.3335  2.3477
   46MOL0     H 6292   5.418   9.160   7.490 -0.1273  0.0403 -0.1226
   46MOL0     H 6293   5.428   8.899   7.442  0.8665 -2.5425  1.3904
   46MOL0     H 6294   5.499   8.890   7.605  0.7361 -1.7910 -1.1009
   46MOL0     H 6295   5.652   8.906   7.398  0.6465 -1.0970  1.2951
   46MOL0     H 6296   5.606   9.082   7.379  1.3510  0.8767  1.6295
   46MOL0     H 6297   5.785   8.862   7.648  2.2055  0.6693  1.8880
   46MOL0     H 6298   5.855   8.994   7.924  0.5612  0.3631  0.7810
   46MOL0     H 6299   5.879   9.161   7.904 -2.6046 -0.6825 -1.6063
   46MOL0     H 6300   6.108   9.115   7.779  0.5762 -0.1193  0.9926
   46MOL0     H 6301   6.105   9.062   7.946  1.0476 -0.0847 -0.3508
   46MOL0     H 6302   6.038   8.873   7.722 -2.8950 -1.8102  1.6286
   46MOL0     H 6303   6.202   8.903   7.780 -0.5983 -0.6911 -1.6393
   46MOL0     H 6304   5.967   8.798   7.962 -0.3175 -0.6185 -0.7707
   46MOL0     H 6305   6.079   8.696   7.888 -0.8956 -0.4178 -0.4551
   46MOL0     H 6306   6.319   8.880   8.224  1.0229  2.8281 -0.1195
   46MOL0     H 6307   6.628   8.726   8.334  2.4576  0.5865 -3.8390
   46MOL0     H 6308   6.491   8.820   8.376  1.8222 -0.0701  1.6271
   46MOL0     H 6309   6.621   8.902   8.289 -2.0400  0.9323 -2.7298
   46MOL0     H 6310   6.846   8.361   8.136 -0.3125 -1.9002 -3.1453
   46MOL0     H 6311   7.087   8.262   8.112  1.4613  0.1864 -0.7599
   46MOL0     H 6312   7.395   8.505   7.899  3.6441  1.7376  1.9242
   46MOL0     H 6313   7.422   8.460   8.077  1.2091 -2.5017  0.8733
   46MOL0     H 6314   7.491   8.256   8.030 -3.4422 -0.2032 -0.6223
   46MOL0     H 6315   7.453   8.270   7.861 -2.7606  0.4132  1.4601
   46MOL0     H 6316   7.708   8.317   7.980 -2.3389 -1.4532  3.1425
   46MOL0     H 6317   7.642   8.479   7.978  2.6739 -1.2147  0.8826
   46MOL0     H 6318   7.607   8.459   7.738  0.7299  2.2275 -0.6468
   46MOL0     H 6319   7.674   8.300   7.746  0.2342  0.4672  0.1612
   46MOL0     H 6320   7.907   8.384   7.799 -0.8383  0.5663  2.2823
   46MOL0     H 6321   7.844   8.472   7.665  0.9160  0.0215 -0.1807
   46MOL0     H 6322   7.850   8.566   7.953  1.9550 -0.4250  0.2775
   46MOL0     H 6323   7.754   8.651   7.824  0.9396  2.1320  0.7544
   46MOL0     H 6324   7.923   8.703   7.692 -1.8110 -0.1595  0.7935
   46MOL0     H 6325   8.042   8.610   7.773  0.1304  1.2798 -4.2460
   46MOL0     H 6326   7.995   8.740   7.985  2.7024 -1.4059 -0.8847
   46MOL0     H 6327   7.894   8.854   7.903 -0.0698 -1.6890  4.0161
   46MOL0     H 6328   7.184   8.616   7.876  1.2754  0.3623  0.5691
   46MOL0     H 6329   6.976   8.693   7.879 -0.0624  0.3656  1.2417
   46MOL0     H 6330   6.525   8.603   7.870  1.7898  1.0282 -0.8020
   46MOL0     H 6331   6.302   8.699   7.841 -0.9219  0.2868  0.1487
   46MOL0     H 6332   5.024   9.620   7.313 -1.4240 -0.0967  0.1780
   46MOL0     H 6333   4.796   9.645   7.272 -0.6309 -1.0146  0.9926
   46MOL0     H 6334   4.366   9.597   7.513 -2.2552 -1.7795 -1.1258
   46MOL0     H 6335   4.139   9.580   7.472  1.9762 -0.3786  3.3321
   46MOL0     H 6336   3.950   9.552   7.366 -0.4239 -0.4256  2.3549
   46MOL0     H 6337   3.883   9.667   7.478  0.2732 -1.1827  0.9795
   46MOL0     H 6338   3.796   9.649   7.195  0.8682 -0.8818  0.5176
   46MOL0     H 6339   3.728   9.773   7.317  0.3717 -0.0423  2.0032
   46MOL0     H 6340   3.568   9.581   7.277 -2.2928  4.2530  2.2575
   46MOL0     H 6341   3.695   9.484   7.342 -1.5590 -0.2679 -0.0379
   46MOL0     H 6342   3.551   9.720   7.490 -0.7419 -0.3678 -1.9540
   46MOL0     H 6343   3.671   9.616   7.564  0.2700 -1.1607  0.2191
   46MOL0     H 6344   3.323   9.383   7.570 -2.0908  1.7810 -0.1499
   46MOL0     H 6345   4.145   9.926   7.227  2.1138  1.1817 -2.0051
   46MOL0     H 6346   4.467   9.973   7.184  0.6676 -2.9980  0.7318
   46MOL0     H 6347   4.332  10.078   7.253  0.6851  0.2083  1.1135
   46MOL0     H 6348   4.485  10.053   7.328 -1.0462  1.0455 -0.7336
   47MOL0     O 6349  11.008  10.473   7.367 -0.1208 -1.0455  0.4194
   47MOL0     C 6350  10.950  10.539   7.459  0.4648  0.0332  0.2312
   47MOL0     O 6351  10.994  10.564   7.585 -0.7259 -0.3894  0.3429
   47MOL0     C 6352  11.129  10.551   7.610 -0.1725  0.4790 -0.1410
   47MOL0     C 6353  11.183  10.436   7.676 -1.2601  0.4401  0.5177
   47MOL0     C 6354  11.324  10.429   7.699  0.6688  0.4937 -0.1035
   47MOL0     C 6355  11.410  10.539   7.663  0.1972 -0.2218 -0.2089
   47MOL0     O 6356  11.547  10.548   7.674  0.9087 -0.4503 -0.2810
   47MOL0     C 6357  11.619  10.431   7.718  0.8822  0.0694  0.4707
   47MOL0     C 6358  11.763  10.478   7.712  0.1049 -1.1762  0.2452
   47MOL0     C 6359  11.854  10.362   7.723 -0.4379 -0.2384 -0.2387
   47MOL0     C 6360  12.000  10.400   7.683  1.2045  0.5642 -0.6579
   47MOL0     C 6361  12.099  10.291   7.720  0.0133 -0.3357 -0.6445
   47MOL0     C 6362  12.239  10.347   7.708  0.2265 -0.5231  0.6137
   47MOL0     C 6363  12.358  10.256   7.714 -0.3794  0.1181  0.1351
   47MOL0     C 6364  12.344  10.165   7.838 -0.4735 -0.0116 -0.0941
   47MOL0     N 6365  12.473  10.100   7.889 -0.4059 -0.3044  0.3946
   47MOL0     C 6366  12.583  10.167   7.921  0.6476  0.0579  0.3804
   47MOL0     C 6367  12.668  10.077   7.969 -0.9364  0.5185 -0.1621
   47MOL0     C 6368  12.803  10.101   8.027 -0.1851  0.5614  0.2629
   47MOL0     C 6369  12.906   9.999   7.992 -0.7929 -0.1520 -0.3608
   47MOL0     C 6370  13.032  10.040   8.063 -0.1542 -0.6140 -0.0183
   47MOL0     C 6371  13.135   9.940   8.018 -0.2972  0.3080  0.5945
   47MOL0     O 6372  13.159   9.939   7.876  0.6625  0.1334  0.2752
   47MOL0     C 6373  13.239   9.847   7.822 -0.4384  0.2616 -0.1424
   47MOL0     C 6374  13.326   9.763   7.897  0.2940  0.5291  0.4792
   47MOL0     C 6375  13.412   9.671   7.837  1.1132 -0.0133  1.2808
   47MOL0     C 6376  13.513   9.591   7.913  0.8165  0.5603  0.5521
   47MOL0     C 6377  13.419   9.666   7.696  0.3557 -0.6372 -0.3413
   47MOL0     C 6378  13.479   9.569   7.603 -0.6505  0.2819 -0.4326
   47MOL0     O 6379  13.513   9.612   7.476  0.0329 -0.5456  0.7110
   47MOL0     C 6380  13.468   9.526   7.374  0.2181  0.1635  0.1388
   47MOL0     C 6381  13.556   9.525   7.264 -0.1383 -0.3528 -0.6831
   47MOL0     C 6382  13.532   9.447   7.156 -0.1446  0.4713  0.2887
   47MOL0     C 6383  13.414   9.369   7.148 -0.0685  0.0701  0.0305
   47MOL0     O 6384  13.392   9.290   7.044 -0.4565  0.3991 -0.0188
   47MOL0     C 6385  13.445   9.324   6.912 -0.4889  0.3937 -0.7268
   47MOL0     C 6386  13.372   9.239   6.805 -0.2499  0.6079  1.0022
   47MOL0     C 6387  13.375   9.084   6.809  0.6110 -0.6263 -0.1603
   47MOL0     C 6388  13.509   9.023   6.843 -0.0724  0.1997 -0.5765
   47MOL0     C 6389  13.627   9.054   6.740  0.3925  0.8414  0.1891
   47MOL0     C 6390  13.622   8.977   6.614  1.0170  0.9081 -0.1015
   47MOL0     C 6391  13.743   9.008   6.516 -0.0175 -0.1792  0.5540
   47MOL0     C 6392  13.731   8.925   6.390  0.6029  0.0063  0.1036
   47MOL0    Cl 6393  13.868   8.916   6.278 -0.3158 -0.0430 -0.4337
   47MOL0     C 6394  13.317   9.370   7.251 -0.3026  0.3450 -0.5306
   47MOL0     C 6395  13.345   9.453   7.365 -0.4415  0.6492 -0.6528
   47MOL0     O 6396  13.474   9.453   7.636 -0.5551 -0.7191 -0.5348
   47MOL0     C 6397  13.339   9.760   7.619 -0.2369  0.2821 -0.5797
   47MOL0     C 6398  13.250   9.845   7.682  0.3280  0.3982 -0.6849
   47MOL0     N 6399  12.608   9.952   7.960  0.0067 -1.4018  0.3527
   47MOL0     N 6400  12.492   9.967   7.910  0.5871 -0.0330  1.2817
   47MOL0     C 6401  11.351  10.641   7.606  0.3413  0.3537  0.3921
   47MOL0     C 6402  11.217  10.653   7.577  0.5334  0.4508  0.0549
   47MOL0     C 6403  10.814  10.583   7.429  0.2650  1.2720  0.6854
   47MOL0     C 6404  10.746  10.519   7.321 -0.4726 -0.5774  0.4311
   47MOL0     C 6405  10.620  10.567   7.285  0.2226  0.4142  0.7909
   47MOL0     C 6406  10.545  10.656   7.369 -0.3598 -0.1041 -0.0357
   47MOL0     O 6407  10.412  10.687   7.357  0.1147  0.2764  0.8434
   47MOL0     C 6408  10.327  10.605   7.281 -0.7796 -0.5593  0.4282
   47MOL0     C 6409  10.180  10.623   7.336 -0.2303  0.0499 -0.4897
   47MOL0     C 6410  10.086  10.506   7.302  0.0170 -0.2714 -0.6647
   47MOL0     C 6411   9.940  10.545   7.332 -1.0260 -0.2094 -0.1098
   47MOL0     C 6412   9.847  10.437   7.296  0.6079 -0.7196  0.3261
   47MOL0     C 6413   9.796  10.336   7.259  0.4209  0.4059  0.1124
   47MOL0     C 6414  10.612  10.706   7.482 -0.5801 -1.0135 -0.3156
   47MOL0     C 6415  10.751  10.687   7.501 -0.2612 -0.5311 -0.0326
   47MOL0     C 6416  10.813  10.784   7.601 -0.8614  0.5859  0.1497
   47MOL0     H 6417  11.120  10.355   7.711  1.9430 -2.7066 -0.3495
   47MOL0     H 6418  11.365  10.339   7.746 -0.1441  0.7254  1.0989
   47MOL0     H 6419  11.597  10.356   7.642 -1.0371  0.3965  0.6638
   47MOL0     H 6420  11.580  10.386   7.810 -1.9955  0.5762 -0.4343
   47MOL0     H 6421  11.782  10.531   7.618  1.5695  0.1585  1.2707
   47MOL0     H 6422  11.777  10.551   7.792 -1.1252  3.0194 -3.0154
   47MOL0     H 6423  11.845  10.336   7.829  0.6250  0.2175 -0.0285
   47MOL0     H 6424  11.817  10.277   7.665 -0.2036  0.0964 -0.8889
   47MOL0     H 6425  11.988  10.425   7.577  0.7502  1.6359 -0.3626
   47MOL0     H 6426  12.030  10.491   7.735 -1.7205  1.1671  0.1819
   47MOL0     H 6427  12.087  10.199   7.662  1.3740 -0.9712  0.0252
   47MOL0     H 6428  12.079  10.257   7.822  1.3321  3.7039  1.1423
   47MOL0     H 6429  12.253  10.400   7.614  1.2358  0.4941  1.3003
   47MOL0     H 6430  12.247  10.424   7.786 -1.2983  2.7642 -2.2019
   47MOL0     H 6431  12.446  10.320   7.723 -0.6672  0.2741  2.1811
   47MOL0     H 6432  12.359  10.197   7.622  1.6296 -2.4940  1.7095
   47MOL0     H 6433  12.293  10.224   7.914 -1.8453  0.7162 -1.5145
   47MOL0     H 6434  12.276  10.081   7.820  0.5741 -0.4792 -2.1396
   47MOL0     H 6435  12.578  10.275   7.923  1.2902  0.1285 -0.9986
   47MOL0     H 6436  12.789  10.108   8.135 -0.9382 -1.7568  0.3841
   47MOL0     H 6437  12.838  10.196   7.986  0.2558  0.4951  0.4910
   47MOL0     H 6438  12.871   9.896   8.007 -0.6533 -0.2447 -0.6564
   47MOL0     H 6439  12.927  10.000   7.884  0.7929 -1.8321 -0.1207
   47MOL0     H 6440  13.057  10.145   8.044 -2.9387  0.0313 -0.5560
   47MOL0     H 6441  13.017  10.027   8.171  0.0690  1.2028  0.2542
   47MOL0     H 6442  13.225   9.951   8.079 -0.5416  2.8911  0.6401
   47MOL0     H 6443  13.099   9.841   8.048 -0.2545  1.1479  3.8194
   47MOL0     H 6444  13.323   9.748   8.004 -2.8959 -2.1719  0.1697
   47MOL0     H 6445  13.605   9.647   7.897  0.5409  1.2540  1.3463
   47MOL0     H 6446  13.533   9.494   7.867  5.9619  0.5292  2.2891
   47MOL0     H 6447  13.488   9.585   8.019 -1.5326  2.4331  0.1925
   47MOL0     H 6448  13.652   9.576   7.265  1.8105 -3.7286 -1.1393
   47MOL0     H 6449  13.590   9.452   7.065 -1.2685 -1.1026 -0.5675
   47MOL0     H 6450  13.417   9.426   6.885 -0.9219  0.6018  0.4429
   47MOL0     H 6451  13.553   9.310   6.900 -0.4054  1.2151 -1.0579
   47MOL0     H 6452  13.267   9.270   6.804 -0.6967 -0.8086 -0.6962
   47MOL0     H 6453  13.410   9.270   6.708  2.0213 -1.7689  1.0115
   47MOL0     H 6454  13.332   9.041   6.718 -0.2395 -0.2765  0.0576
   47MOL0     H 6455  13.301   9.066   6.888 -4.2737  0.7847 -3.8904
   47MOL0     H 6456  13.496   8.915   6.845 -0.7239  0.2858 -0.0562
   47MOL0     H 6457  13.537   9.057   6.943 -2.0931  0.4783 -0.0688
   47MOL0     H 6458  13.625   9.160   6.716  0.4718  0.2513 -2.7795
   47MOL0     H 6459  13.725   9.035   6.785  0.8646  1.3177 -0.6137
   47MOL0     H 6460  13.528   8.988   6.560  0.4937 -3.9745 -0.6908
   47MOL0     H 6461  13.610   8.872   6.644 -1.1042  1.2906  0.5174
   47MOL0     H 6462  13.839   8.983   6.563 -0.7742 -0.3453  2.0686
   47MOL0     H 6463  13.729   9.112   6.484  2.0776 -0.6358 -2.2112
   47MOL0     H 6464  13.650   8.967   6.330  1.1034  1.8242  0.6409
   47MOL0     H 6465  13.691   8.827   6.420 -3.3084  2.1283  2.7470
   47MOL0     H 6466  13.228   9.309   7.244 -0.9517  1.3037 -0.9620
   47MOL0     H 6467  13.269   9.455   7.443  0.4808  0.8613  0.2627
   47MOL0     H 6468  13.340   9.765   7.511 -3.2500  0.1942 -0.6918
   47MOL0     H 6469  13.194   9.909   7.614  1.1526  1.6608 -0.2047
   47MOL0     H 6470  11.409  10.730   7.581  1.6625 -0.0820  1.7394
   47MOL0     H 6471  11.183  10.743   7.526 -0.0886 -0.2073 -0.7089
   47MOL0     H 6472  10.787  10.441   7.258 -3.3986 -2.1890  0.3645
   47MOL0     H 6473  10.571  10.531   7.196 -0.9146  1.7455  0.8546
   47MOL0     H 6474  10.333  10.629   7.174  1.1161 -0.9223  0.4192
   47MOL0     H 6475  10.359  10.502   7.297 -0.5474 -0.0824  3.6319
   47MOL0     H 6476  10.134  10.719   7.310  1.1514  1.5691  2.2620
   47MOL0     H 6477  10.191  10.631   7.444  0.1603  2.1327 -0.6334
   47MOL0     H 6478  10.091  10.469   7.200  1.0453 -1.9106 -0.0477
   47MOL0     H 6479  10.124  10.424   7.363  1.0381  1.2496  0.8557
   47MOL0     H 6480   9.918  10.630   7.267  1.0348 -0.7374 -1.6047
   47MOL0     H 6481   9.936  10.562   7.440 -1.2936 -1.9435  0.1905
   47MOL0     H 6482   9.743  10.251   7.220  0.5258  0.6816 -0.6480
   47MOL0     H 6483  10.559  10.769   7.552 -0.1023 -0.3876 -0.5150
   47MOL0     H 6484  10.921  10.781   7.582 -0.9479 -0.0767 -0.2628
   47MOL0     H 6485  10.774  10.885   7.583 -3.4958 -0.5573 -1.1720
   47MOL0     H 6486  10.794  10.753   7.704 -3.0036 -0.1307 -0.4124
   48MOL0     O 6487   7.022  10.400   3.000 -0.7144 -1.0267  0.4618
   48MOL0     C 6488   7.028  10.458   2.886  0.3007  0.4157  0.0303
   48MOL0     O 6489   7.129  10.533   2.841  0.0095  0.1142 -0.0806
   48MOL0     C 6490   7.248  10.552   2.914 -0.1068 -0.6515  0.7848
   48MOL0     C 6491   7.323  10.678   2.897 -0.4166  0.6394  0.4748
   48MOL0     C 6492   7.445  10.700   2.955 -0.8715  0.2973 -0.0718
   48MOL0     C 6493   7.501  10.593   3.037  0.0376  0.5138 -0.5834
   48MOL0     O 6494   7.619  10.598   3.107 -0.1622 -0.1385  0.5600
   48MOL0     C 6495   7.690  10.723   3.114  0.2996 -0.9558  0.3045
   48MOL0     C 6496   7.782  10.735   3.235 -0.4881 -0.1575  0.0684
   48MOL0     C 6497   7.873  10.616   3.267 -0.7135 -0.4538  1.0417
   48MOL0     C 6498   7.991  10.598   3.176  0.4850 -0.6001  0.8941
   48MOL0     C 6499   8.079  10.488   3.223 -0.3985 -0.1279  0.0964
   48MOL0     C 6500   8.215  10.481   3.146 -0.7760 -0.1504  0.4979
   48MOL0     C 6501   8.291  10.348   3.169 -0.9388  0.8362  0.1849
   48MOL0     C 6502   8.437  10.344   3.112 -0.3605 -0.4999  0.5817
   48MOL0     N 6503   8.516  10.233   3.159  0.1040 -0.3845 -0.3966
   48MOL0     C 6504   8.549  10.201   3.289  0.4428  0.3686 -0.8611
   48MOL0     C 6505   8.607  10.082   3.279 -0.2574  0.0771 -0.1530
   48MOL0     C 6506   8.643   9.992   3.392 -0.8189 -0.3669  0.0201
   48MOL0     C 6507   8.530   9.915   3.454  0.3134 -0.2681 -0.6980
   48MOL0     C 6508   8.498   9.793   3.373 -0.3741 -0.2529 -0.0536
   48MOL0     C 6509   8.380   9.727   3.454 -0.3227 -0.4650  0.0311
   48MOL0     O 6510   8.329   9.616   3.389 -0.4975  0.1307 -0.0916
   48MOL0     C 6511   8.212   9.556   3.431  0.3627 -0.0860 -0.2057
   48MOL0     C 6512   8.145   9.589   3.548  1.6000  0.1443 -0.3764
   48MOL0     C 6513   8.023   9.529   3.582 -0.7071  0.3132  0.2069
   48MOL0     C 6514   7.969   9.576   3.718 -0.1262  0.6691  0.4017
   48MOL0     C 6515   7.963   9.432   3.505 -0.2838  0.3851  1.1887
   48MOL0     C 6516   7.839   9.355   3.536 -0.3739  0.1280  0.7722
   48MOL0     O 6517   7.820   9.251   3.459  0.0664  0.3369 -0.2065
   48MOL0     C 6518   7.719   9.167   3.486 -0.5812  1.3723 -0.1685
   48MOL0     C 6519   7.749   9.040   3.537 -0.5106 -0.3874  0.3191
   48MOL0     C 6520   7.657   8.945   3.550 -0.0634  0.3869  0.0862
   48MOL0     C 6521   7.525   8.966   3.516  1.0465 -0.5570 -0.1294
   48MOL0     O 6522   7.421   8.876   3.511 -0.4857  0.6731  0.4637
   48MOL0     C 6523   7.427   8.757   3.591 -0.9950  0.0735 -0.2448
   48MOL0     C 6524   7.339   8.644   3.552 -0.2953 -0.1125 -0.4438
   48MOL0     C 6525   7.197   8.709   3.533 -0.9177  0.2976  0.9762
   48MOL0     C 6526   7.094   8.610   3.501 -0.2301  0.8380  0.4408
   48MOL0     C 6527   6.955   8.647   3.494 -0.2681  0.1794 -0.3614
   48MOL0     C 6528   6.916   8.768   3.402 -0.2996  0.0957 -0.3375
   48MOL0     C 6529   6.958   8.733   3.262 -0.5940  0.1213 -0.4489
   48MOL0     C 6530   6.878   8.620   3.188 -1.5409 -0.1322 -0.2069
   48MOL0    Cl 6531   6.707   8.624   3.186  0.5796 -0.1436  0.1840
   48MOL0     C 6532   7.491   9.090   3.472 -0.1916 -0.6855 -0.2909
   48MOL0     C 6533   7.584   9.193   3.454  0.6443 -0.2243 -0.7067
   48MOL0     O 6534   7.760   9.397   3.616 -0.0774  0.7888 -0.4678
   48MOL0     C 6535   8.029   9.402   3.378  0.1814 -0.5347 -0.3884
   48MOL0     C 6536   8.149   9.466   3.345 -0.2783 -0.1528 -0.8090
   48MOL0     N 6537   8.621  10.044   3.151 -0.6281  0.0472  1.1185
   48MOL0     N 6538   8.575  10.140   3.078  0.2836 -0.5080 -0.0663
   48MOL0     C 6539   7.436  10.472   3.047 -0.5620  0.8509 -0.1274
   48MOL0     C 6540   7.303  10.456   2.997 -0.3009 -0.0802 -0.4561
   48MOL0     C 6541   6.895  10.473   2.822 -0.7805  0.5897 -0.2389
   48MOL0     C 6542   6.858  10.604   2.768 -0.7587  0.5644  0.1683
   48MOL0     C 6543   6.735  10.621   2.711  0.1572 -0.5180  0.3353
   48MOL0     C 6544   6.643  10.515   2.699  0.4893  0.5918  0.4093
   48MOL0     O 6545   6.521  10.514   2.633 -0.6517 -0.0621  0.0426
   48MOL0     C 6546   6.476  10.624   2.540 -0.2137  0.6303 -0.3991
   48MOL0     C 6547   6.375  10.703   2.600  0.2340 -0.2033  0.3915
   48MOL0     C 6548   6.270  10.767   2.493 -1.1447  0.4556 -0.4845
   48MOL0     C 6549   6.320  10.889   2.413 -0.5116  1.0665 -1.1096
   48MOL0     C 6550   6.205  10.964   2.352 -0.1774  0.6151  0.2180
   48MOL0     C 6551   6.119  11.022   2.292  0.1718  0.4243 -0.0942
   48MOL0     C 6552   6.679  10.389   2.753 -0.7255  0.2590 -0.0215
   48MOL0     C 6553   6.802  10.367   2.816 -0.7371 -0.5381  0.0090
   48MOL0     C 6554   6.829  10.226   2.874 -0.0330 -0.2207 -0.2542
   48MOL0     H 6555   7.285  10.756   2.832 -0.5602  2.3192  2.4702
   48MOL0     H 6556   7.499  10.794   2.945  2.4460 -1.4930 -0.1655
   48MOL0     H 6557   7.622  10.807   3.127  0.4811 -0.4398 -1.6953
   48MOL0     H 6558   7.734  10.733   3.014 -0.1230  0.8370  0.2669
   48MOL0     H 6559   7.847  10.823   3.240 -1.3815  0.4470  2.5740
   48MOL0     H 6560   7.715  10.742   3.321 -1.5400  0.1615 -0.7639
   48MOL0     H 6561   7.911  10.640   3.367  3.1804  4.5315 -1.2036
   48MOL0     H 6562   7.801  10.534   3.260 -1.6567  0.3688  0.7065
   48MOL0     H 6563   7.964  10.573   3.073  2.8880 -2.7178  0.6569
   48MOL0     H 6564   8.031  10.700   3.183 -1.9123  0.6121 -1.3468
   48MOL0     H 6565   8.028  10.394   3.202  0.8959 -0.5105 -1.5493
   48MOL0     H 6566   8.094  10.504   3.330  3.2139 -0.3657 -0.2308
   48MOL0     H 6567   8.206  10.507   3.040  0.9329  0.9642  0.5848
   48MOL0     H 6568   8.273  10.564   3.188 -0.1494  0.4325 -1.4211
   48MOL0     H 6569   8.230  10.269   3.124  0.4625  0.9171 -1.9784
   48MOL0     H 6570   8.293  10.346   3.279  1.4135  0.8766  0.1852
   48MOL0     H 6571   8.449  10.345   3.003  2.4977  3.2676  0.7326
   48MOL0     H 6572   8.485  10.440   3.132 -0.4017  0.4135 -2.9801
   48MOL0     H 6573   8.518  10.244   3.383 -0.5865 -1.3147 -0.3850
   48MOL0     H 6574   8.699  10.053   3.464 -0.0102  0.3118 -1.1459
   48MOL0     H 6575   8.711   9.915   3.354 -0.4921  0.5684 -1.3915
   48MOL0     H 6576   8.559   9.883   3.555 -1.4256 -0.3538 -0.1874
   48MOL0     H 6577   8.448   9.984   3.478  1.8577  1.2407  0.5466
   48MOL0     H 6578   8.468   9.827   3.273  1.8852  1.0237 -0.3550
   48MOL0     H 6579   8.580   9.722   3.363  0.9138  1.2174 -0.2969
   48MOL0     H 6580   8.412   9.699   3.555  0.3838  1.4589  0.3682
   48MOL0     H 6581   8.298   9.800   3.456 -0.1700 -0.2879  1.6464
   48MOL0     H 6582   8.190   9.647   3.628 -1.8128  0.3866  1.5166
   48MOL0     H 6583   7.976   9.508   3.804  0.7158  0.3352  0.0823
   48MOL0     H 6584   7.863   9.599   3.705  0.3148  2.0022 -1.0050
   48MOL0     H 6585   8.017   9.668   3.752  0.8358  0.8281 -1.2792
   48MOL0     H 6586   7.853   9.015   3.549 -1.0126 -3.2449 -0.6413
   48MOL0     H 6587   7.685   8.848   3.589  0.3098  1.3211  2.2492
   48MOL0     H 6588   7.529   8.719   3.595 -0.4816  1.3901 -0.5385
   48MOL0     H 6589   7.393   8.798   3.687 -4.5706  0.3646 -1.4764
   48MOL0     H 6590   7.380   8.608   3.457  0.8123  3.2598 -1.4171
   48MOL0     H 6591   7.346   8.572   3.634  2.7328  0.1199 -0.3786
   48MOL0     H 6592   7.203   8.778   3.448  2.1993  2.1523  2.4881
   48MOL0     H 6593   7.177   8.767   3.624 -0.1110  0.2350  1.2024
   48MOL0     H 6594   7.107   8.533   3.577  1.9310 -0.4655 -1.0980
   48MOL0     H 6595   7.124   8.558   3.409  0.1878  1.8699 -0.0348
   48MOL0     H 6596   6.893   8.567   3.453 -0.2633  0.7330 -1.4852
   48MOL0     H 6597   6.929   8.666   3.599  2.4395  0.5793  0.3183
   48MOL0     H 6598   6.966   8.856   3.443  1.7685 -1.2635  0.2799
   48MOL0     H 6599   6.808   8.782   3.400 -0.4663 -1.0566 -2.4950
   48MOL0     H 6600   7.065   8.713   3.250 -0.1294  1.8194  0.4932
   48MOL0     H 6601   6.944   8.831   3.217  2.7901  2.0009  2.1184
   48MOL0     H 6602   6.918   8.521   3.210 -1.3247 -0.7608 -3.0058
   48MOL0     H 6603   6.921   8.629   3.087 -0.7855  0.1275  0.1292
   48MOL0     H 6604   7.386   9.106   3.449  0.3506 -1.1467 -3.4240
   48MOL0     H 6605   7.546   9.288   3.417  0.4449 -0.3004 -0.7046
   48MOL0     H 6606   7.989   9.339   3.298  1.8116 -0.2179 -1.5091
   48MOL0     H 6607   8.203   9.454   3.252  2.5062 -1.0233  0.8024
   48MOL0     H 6608   7.489  10.391   3.096  1.7605  2.8908  0.9161
   48MOL0     H 6609   7.270  10.352   3.001 -1.3724 -0.1127 -4.6842
   48MOL0     H 6610   6.929  10.684   2.784  2.5988 -2.0780 -0.2618
   48MOL0     H 6611   6.703  10.720   2.678  2.1642 -0.4323 -1.6162
   48MOL0     H 6612   6.562  10.688   2.519  1.7228 -0.9246  2.2500
   48MOL0     H 6613   6.438  10.580   2.447  1.4221 -0.7866 -0.4309
   48MOL0     H 6614   6.409  10.781   2.669 -2.2765  3.8246 -2.4677
   48MOL0     H 6615   6.323  10.630   2.662 -1.1549 -0.1280 -0.6372
   48MOL0     H 6616   6.225  10.690   2.429 -0.0906 -0.2220 -0.4244
   48MOL0     H 6617   6.187  10.801   2.556 -2.5157 -2.5437 -0.5229
   48MOL0     H 6618   6.380  10.833   2.341 -0.8197 -1.6066  0.5749
   48MOL0     H 6619   6.373  10.958   2.480 -1.8352  0.2864  0.8178
   48MOL0     H 6620   6.042  11.066   2.233  0.3168 -0.1333 -0.7122
   48MOL0     H 6621   6.599  10.317   2.744 -0.8360  0.5234 -1.3107
   48MOL0     H 6622   6.855  10.234   2.980  1.0828  2.5699 -0.6438
   48MOL0     H 6623   6.739  10.164   2.869 -0.6064  0.5306  0.3779
   48MOL0     H 6624   6.910  10.174   2.822 -1.2521 -1.8055 -0.6549
   49MOL0     O 6625   8.523   4.564   9.103  0.4197  0.4520  0.4494
   49MOL0     C 6626   8.427   4.587   9.026 -0.8994  0.7885 -0.5709
   49MOL0     O 6627   8.306   4.632   9.066 -0.1218 -0.0104 -0.7098
   49MOL0     C 6628   8.287   4.686   9.195 -0.8024  0.5450  0.5651
   49MOL0     C 6629   8.286   4.826   9.209 -0.1905  0.2580 -0.6452
   49MOL0     C 6630   8.286   4.880   9.338 -0.8456 -0.5692  0.3927
   49MOL0     C 6631   8.295   4.799   9.455  0.7070  0.0769  0.1644
   49MOL0     O 6632   8.290   4.862   9.582 -0.5791  0.6054 -0.2116
   49MOL0     C 6633   8.225   4.790   9.690  0.0795  0.4341 -0.6533
   49MOL0     C 6634   8.076   4.736   9.672  0.5235 -0.3635  0.1199
   49MOL0     C 6635   7.980   4.845   9.609 -0.3831 -0.0366 -0.2713
   49MOL0     C 6636   7.835   4.841   9.655  0.4672  0.2721  0.1666
   49MOL0     C 6637   7.757   4.712   9.627  0.4219 -0.1234 -0.0821
   49MOL0     C 6638   7.749   4.686   9.474 -0.4536  0.1444 -0.8370
   49MOL0     C 6639   7.646   4.571   9.431 -0.2156 -0.7635 -0.2264
   49MOL0     C 6640   7.704   4.431   9.464 -0.0647  0.0314 -0.1746
   49MOL0     N 6641   7.829   4.391   9.396 -0.6651  0.7330  0.6913
   49MOL0     C 6642   7.833   4.346   9.265 -0.3373  0.4951  0.4818
   49MOL0     C 6643   7.969   4.312   9.241  0.4119 -0.1725 -0.6008
   49MOL0     C 6644   8.046   4.292   9.115  0.9350  0.0456  0.0223
   49MOL0     C 6645   8.048   4.145   9.077  0.1569  0.6770  0.1223
   49MOL0     C 6646   7.954   4.106   8.957  0.5170 -0.0691  0.4615
   49MOL0     C 6647   8.021   4.137   8.831 -0.0384  0.2691 -0.4903
   49MOL0     O 6648   8.140   4.056   8.809  0.2134  0.9814 -0.2360
   49MOL0     C 6649   8.214   4.079   8.701  0.0046 -0.0804 -0.1816
   49MOL0     C 6650   8.159   4.097   8.577  0.7182  0.2923  0.7075
   49MOL0     C 6651   8.243   4.107   8.459  0.4799 -0.3122 -0.2760
   49MOL0     C 6652   8.168   4.116   8.322 -0.2414 -0.1418 -1.2105
   49MOL0     C 6653   8.386   4.124   8.466  0.6545 -0.1482 -0.4044
   49MOL0     C 6654   8.468   4.153   8.345 -0.1555 -0.7116  0.1103
   49MOL0     O 6655   8.601   4.161   8.372 -0.1764 -0.1484  0.4507
   49MOL0     C 6656   8.702   4.203   8.284 -0.9252 -0.4127 -0.3504
   49MOL0     C 6657   8.826   4.239   8.343 -0.4423  0.6237 -0.5667
   49MOL0     C 6658   8.941   4.281   8.276 -0.1526  0.1716  0.8440
   49MOL0     C 6659   8.933   4.289   8.140  0.1738 -0.3308  0.2582
   49MOL0     O 6660   9.038   4.326   8.060 -0.5394 -0.2924  0.2163
   49MOL0     C 6661   9.171   4.325   8.123  0.4532  0.0324  0.2686
   49MOL0     C 6662   9.262   4.409   8.032 -0.9841 -0.3891  0.7274
   49MOL0     C 6663   9.407   4.422   8.070 -0.6728  0.3455 -0.5725
   49MOL0     C 6664   9.483   4.526   7.981 -1.1278  0.7805 -0.4528
   49MOL0     C 6665   9.628   4.544   8.009 -0.1812  0.5443 -0.5686
   49MOL0     C 6666   9.664   4.572   8.158  0.1987  0.2980  1.0374
   49MOL0     C 6667   9.806   4.632   8.168 -0.1939 -0.5721  0.4808
   49MOL0     C 6668   9.918   4.528   8.159  0.5018  0.2668 -0.5033
   49MOL0    Cl 6669   9.932   4.421   8.319  0.6105  0.1902  0.3828
   49MOL0     C 6670   8.803   4.265   8.080  0.0631  0.4541 -0.1266
   49MOL0     C 6671   8.693   4.212   8.147 -0.0416 -0.6189  0.1052
   49MOL0     O 6672   8.417   4.169   8.235 -0.3680 -0.3331 -0.3957
   49MOL0     C 6673   8.438   4.110   8.595  0.3472  0.5087  0.2208
   49MOL0     C 6674   8.353   4.089   8.714  0.2686  0.2014 -0.1590
   49MOL0     N 6675   8.035   4.334   9.363 -0.2634  0.3281 -0.1087
   49MOL0     N 6676   7.952   4.375   9.450 -0.4439 -0.5046 -0.4524
   49MOL0     C 6677   8.275   4.656   9.432  0.6129  0.2288 -0.2821
   49MOL0     C 6678   8.270   4.598   9.306  0.6336  0.2590 -0.7232
   49MOL0     C 6679   8.450   4.566   8.874 -0.6298  0.1690 -0.2762
   49MOL0     C 6680   8.580   4.571   8.831  0.5979 -0.5360 -0.0985
   49MOL0     C 6681   8.606   4.564   8.693  0.3965 -0.2908  0.1378
   49MOL0     C 6682   8.506   4.533   8.602  0.2701  0.2648 -0.0209
   49MOL0     O 6683   8.542   4.512   8.471 -0.1849  0.5394 -0.0106
   49MOL0     C 6684   8.440   4.496   8.367  0.1698  0.0258  0.3980
   49MOL0     C 6685   8.358   4.628   8.365  0.4515 -0.4847 -0.6518
   49MOL0     C 6686   8.233   4.608   8.277  0.1801  0.7912  0.4530
   49MOL0     C 6687   8.094   4.631   8.344 -0.4615  0.0617 -0.2816
   49MOL0     C 6688   8.061   4.503   8.409 -0.8925 -0.4741 -0.3022
   49MOL0     C 6689   8.038   4.399   8.474 -0.8686 -0.0400 -0.0234
   49MOL0     C 6690   8.379   4.498   8.650 -1.0352 -0.1390 -0.1201
   49MOL0     C 6691   8.351   4.519   8.784 -0.2432 -0.3276  0.9670
   49MOL0     C 6692   8.212   4.485   8.820  0.6590 -0.3430  0.4643
   49MOL0     H 6693   8.300   4.886   9.120 -1.1636 -0.4648 -1.3033
   49MOL0     H 6694   8.280   4.988   9.347 -2.1244 -0.6326  0.3950
   49MOL0     H 6695   8.241   4.837   9.787  1.2643 -0.5633 -0.3316
   49MOL0     H 6696   8.289   4.701   9.698  0.0664  0.5402  0.9990
   49MOL0     H 6697   8.085   4.659   9.595 -0.8710 -0.3892 -0.0576
   49MOL0     H 6698   8.022   4.701   9.761 -0.9069  1.7543  0.1846
   49MOL0     H 6699   8.034   4.940   9.613  0.2811 -0.1466 -3.6123
   49MOL0     H 6700   7.971   4.839   9.500 -0.8111 -1.5994 -0.1651
   49MOL0     H 6701   7.834   4.858   9.763  0.3689  0.3108  0.1595
   49MOL0     H 6702   7.778   4.920   9.604 -0.2013  1.9384  3.2271
   49MOL0     H 6703   7.658   4.724   9.672  1.2002  0.6573  1.4846
   49MOL0     H 6704   7.798   4.623   9.674  0.3502  0.0491  0.3064
   49MOL0     H 6705   7.721   4.778   9.422 -2.6833  0.1305  0.2367
   49MOL0     H 6706   7.850   4.654   9.448  0.3393  0.3022  1.7850
   49MOL0     H 6707   7.618   4.582   9.326 -0.8185  2.6130  0.1665
   49MOL0     H 6708   7.550   4.603   9.473 -0.2024  0.2835 -0.9463
   49MOL0     H 6709   7.735   4.434   9.568  2.2306 -0.1444 -0.8013
   49MOL0     H 6710   7.625   4.357   9.447  1.3706 -1.2395 -1.6685
   49MOL0     H 6711   7.745   4.340   9.202 -1.4672  0.9551  1.9486
   49MOL0     H 6712   8.144   4.335   9.136 -0.1298  1.4847  2.5730
   49MOL0     H 6713   7.994   4.336   9.030  0.6229 -1.5572 -0.6449
   49MOL0     H 6714   8.149   4.119   9.046 -0.9236 -0.7893 -2.5071
   49MOL0     H 6715   8.025   4.092   9.170  3.1266  1.4203  1.3938
   49MOL0     H 6716   7.934   3.999   8.970  3.5104 -0.5975  1.4953
   49MOL0     H 6717   7.858   4.159   8.960 -0.2027 -1.3261  0.4625
   49MOL0     H 6718   7.948   4.131   8.749 -1.0288 -3.3664  0.4525
   49MOL0     H 6719   8.043   4.244   8.839 -0.7367  0.5428 -1.8690
   49MOL0     H 6720   8.052   4.081   8.561  0.7958 -3.1099  2.5547
   49MOL0     H 6721   8.167   4.221   8.291 -0.1009  0.9868  2.1926
   49MOL0     H 6722   8.067   4.072   8.325 -0.0689 -0.4829  1.5554
   49MOL0     H 6723   8.216   4.048   8.250  1.2369 -0.2896 -0.1227
   49MOL0     H 6724   8.824   4.230   8.451 -1.9755 -0.0279 -0.6161
   49MOL0     H 6725   9.025   4.305   8.341  0.7846 -0.4916 -0.0776
   49MOL0     H 6726   9.170   4.363   8.226 -2.0322  0.7041  0.0596
   49MOL0     H 6727   9.221   4.228   8.127 -2.0228 -1.4677 -1.7505
   49MOL0     H 6728   9.242   4.374   7.930 -1.0973 -0.7934  0.8840
   49MOL0     H 6729   9.220   4.510   8.023  0.1056 -0.1202 -3.1039
   49MOL0     H 6730   9.450   4.321   8.068  0.7066  0.9129 -1.2153
   49MOL0     H 6731   9.408   4.456   8.174 -1.6392 -0.8055 -0.1657
   49MOL0     H 6732   9.440   4.626   7.992 -0.9189  0.7843  0.3675
   49MOL0     H 6733   9.480   4.505   7.873  1.3122  4.6232 -1.4658
   49MOL0     H 6734   9.693   4.467   7.966  0.6407  0.4980  0.7343
   49MOL0     H 6735   9.658   4.627   7.944  1.5689  0.8677  0.6019
   49MOL0     H 6736   9.643   4.482   8.217 -1.6133  0.0710  0.1554
   49MOL0     H 6737   9.598   4.653   8.191  0.8674  1.2632  0.0737
   49MOL0     H 6738   9.820   4.688   8.261 -3.9831  2.1027 -0.3079
   49MOL0     H 6739   9.816   4.705   8.086  1.2966 -2.6834 -1.3171
   49MOL0     H 6740  10.010   4.584   8.137  0.6710  0.2302  0.0930
   49MOL0     H 6741   9.911   4.457   8.076 -0.3419 -0.5100  0.2068
   49MOL0     H 6742   8.789   4.281   7.974  0.7145  1.5286 -0.0573
   49MOL0     H 6743   8.607   4.184   8.088  0.8706  1.2281 -2.2519
   49MOL0     H 6744   8.542   4.121   8.625  0.0300  2.7378  0.6936
   49MOL0     H 6745   8.396   4.078   8.813 -0.6281 -1.3768  0.0852
   49MOL0     H 6746   8.261   4.584   9.512  0.0942 -0.9418 -1.3923
   49MOL0     H 6747   8.276   4.490   9.317  2.5022  0.6147  3.1324
   49MOL0     H 6748   8.660   4.589   8.902 -1.4326 -0.0972  2.1972
   49MOL0     H 6749   8.699   4.586   8.643 -1.2269  0.2790 -2.8896
   49MOL0     H 6750   8.488   4.484   8.269  0.3216  1.2665  0.3021
   49MOL0     H 6751   8.377   4.411   8.395  0.7989 -0.3463  0.7152
   49MOL0     H 6752   8.430   4.699   8.323 -0.7441  0.7436 -0.7013
   49MOL0     H 6753   8.314   4.653   8.462 -0.8920  1.1795 -1.6294
   49MOL0     H 6754   8.235   4.679   8.194 -0.0767  0.0653 -0.1838
   49MOL0     H 6755   8.236   4.508   8.233  1.1696  1.1856 -0.4188
   49MOL0     H 6756   8.032   4.675   8.265 -0.5730  1.1637  0.3962
   49MOL0     H 6757   8.096   4.705   8.425  1.9174 -1.2944  1.0062
   49MOL0     H 6758   8.021   4.322   8.547  1.6162  0.1915  0.9131
   49MOL0     H 6759   8.294   4.461   8.594 -1.2153  3.1144 -2.2799
   49MOL0     H 6760   8.154   4.576   8.834  1.2609  0.9604 -3.9652
   49MOL0     H 6761   8.167   4.445   8.728  4.5502 -1.1674 -1.2815
   49MOL0     H 6762   8.205   4.419   8.907  0.2317  0.1365  0.7939
   50MOL0     O 6763  10.689  10.261   4.849  0.4199  0.0312  0.5223
   50MOL0     C 6764  10.744  10.288   4.953 -0.2244 -0.0895  0.0532
   50MOL0     O 6765  10.868  10.239   4.981 -0.2742  0.7041 -0.3323
   50MOL0     C 6766  10.922  10.153   4.893  0.0270  0.3859  1.0726
   50MOL0     C 6767  10.855  10.037   4.855  0.6277  0.4270 -0.0065
   50MOL0     C 6768  10.909   9.950   4.757 -0.0413 -0.5884 -0.1758
   50MOL0     C 6769  11.030   9.979   4.690 -0.5765  0.5487  0.1807
   50MOL0     O 6770  11.077   9.904   4.581  0.1369 -0.1503 -0.2209
   50MOL0     C 6771  11.010   9.786   4.529 -0.1826 -0.1519  0.4722
   50MOL0     C 6772  11.072   9.735   4.397  0.3424 -0.6176 -0.3962
   50MOL0     C 6773  11.056   9.843   4.283  0.4560  0.7176  0.6477
   50MOL0     C 6774  11.146   9.812   4.156  1.3863 -0.5771 -0.3784
   50MOL0     C 6775  11.300   9.813   4.191 -0.3391 -0.0166 -0.6344
   50MOL0     C 6776  11.346   9.956   4.233  0.6224 -0.1810 -0.4714
   50MOL0     C 6777  11.480  10.003   4.182 -0.3415  0.8739 -0.2398
   50MOL0     C 6778  11.518  10.136   4.235 -0.5945 -0.5167  0.8609
   50MOL0     N 6779  11.660  10.166   4.212  0.1807 -0.1086 -0.6939
   50MOL0     C 6780  11.757  10.121   4.302  0.3969 -0.5804 -0.5157
   50MOL0     C 6781  11.864  10.195   4.258 -0.0994  0.2045 -0.0298
   50MOL0     C 6782  12.004  10.181   4.335  1.0029  0.0325 -0.2944
   50MOL0     C 6783  12.081  10.312   4.336 -0.3870 -0.0180 -0.1291
   50MOL0     C 6784  12.011  10.422   4.414 -1.0141  0.6464 -0.1970
   50MOL0     C 6785  12.099  10.538   4.454  0.3800 -0.7356 -0.4644
   50MOL0     O 6786  12.177  10.584   4.343  0.4452  0.1248 -0.2551
   50MOL0     C 6787  12.308  10.629   4.353 -0.4973 -0.1162 -0.1914
   50MOL0     C 6788  12.375  10.692   4.249  0.0161  0.3240 -0.4684
   50MOL0     C 6789  12.504  10.737   4.255  0.6373  0.0789  0.3677
   50MOL0     C 6790  12.550  10.800   4.128 -0.1116 -0.8953  0.1463
   50MOL0     C 6791  12.582  10.722   4.372  0.0385  0.7072 -0.2600
   50MOL0     C 6792  12.724  10.759   4.382 -0.2570  0.1664  0.0155
   50MOL0     O 6793  12.790  10.706   4.492  0.6649 -0.6028 -0.1202
   50MOL0     C 6794  12.929  10.699   4.488 -0.0022  0.1435  0.9326
   50MOL0     C 6795  12.994  10.822   4.496 -0.2837 -0.5532 -0.1785
   50MOL0     C 6796  13.133  10.817   4.483 -0.4537 -0.3827  0.1202
   50MOL0     C 6797  13.206  10.701   4.488 -0.6056  0.2719 -0.2172
   50MOL0     O 6798  13.345  10.704   4.507 -0.6842  0.4112 -0.1187
   50MOL0     C 6799  13.404  10.793   4.592  0.2765  0.5827 -0.3220
   50MOL0     C 6800  13.562  10.765   4.599 -0.5946  0.7399  0.8047
   50MOL0     C 6801  13.641  10.886   4.667  0.3642 -0.8069 -0.2534
   50MOL0     C 6802  13.785  10.862   4.664  0.0412 -0.0856 -0.1485
   50MOL0     C 6803  13.848  10.792   4.781  0.1588  0.5113  0.4355
   50MOL0     C 6804  13.831  10.874   4.905  0.6824  0.9816 -0.3053
   50MOL0     C 6805  13.950  10.870   5.006 -0.1286  0.3053  0.6890
   50MOL0     C 6806  13.923  10.950   5.130 -0.1883  1.0932  0.7592
   50MOL0    Cl 6807  14.040  10.905   5.253  0.3806 -0.2293 -0.5421
   50MOL0     C 6808  13.137  10.577   4.484  0.0927 -0.0855 -0.3074
   50MOL0     C 6809  12.995  10.573   4.479  0.2438 -0.3232 -0.2334
   50MOL0     O 6810  12.781  10.829   4.293  0.2344  0.6113 -0.1635
   50MOL0     C 6811  12.521  10.663   4.484  0.0554 -0.4337  0.2734
   50MOL0     C 6812  12.387  10.613   4.474  0.3447 -0.5840  0.6354
   50MOL0     N 6813  11.835  10.283   4.148 -0.0400 -0.2374  0.7050
   50MOL0     N 6814  11.712  10.260   4.118  0.4383  0.3517 -0.8530
   50MOL0     C 6815  11.111  10.090   4.741  0.2939 -0.1142 -0.3725
   50MOL0     C 6816  11.048  10.174   4.843 -0.5890  0.5056  0.1135
   50MOL0     C 6817  10.682  10.370   5.061  0.1715  0.1431  0.2967
   50MOL0     C 6818  10.724  10.373   5.186 -1.1642 -0.4732  0.4376
   50MOL0     C 6819  10.673  10.454   5.289 -0.7300  0.2442  0.1436
   50MOL0     C 6820  10.562  10.526   5.268  0.7357 -0.2447 -0.5148
   50MOL0     O 6821  10.491  10.567   5.376  0.8706  1.2900  0.6797
   50MOL0     C 6822  10.371  10.639   5.356  0.6375 -0.4241  0.5834
   50MOL0     C 6823  10.245  10.552   5.316 -0.1587 -0.6318  0.4663
   50MOL0     C 6824  10.111  10.639   5.311 -0.6856  0.2016 -0.6394
   50MOL0     C 6825  10.112  10.759   5.215 -0.1161  0.0371  0.1713
   50MOL0     C 6826  10.143  10.724   5.077  0.1867  0.0734 -0.1784
   50MOL0     C 6827  10.170  10.704   4.958  0.5159  0.9358  0.3496
   50MOL0     C 6828  10.524  10.546   5.133  0.1778 -0.5145  0.1248
   50MOL0     C 6829  10.582  10.468   5.028 -0.0318 -0.1012 -0.0467
   50MOL0     C 6830  10.518  10.488   4.890 -0.1174 -0.3979 -0.7327
   50MOL0     H 6831  10.774   9.999   4.916  1.9908 -2.8644 -0.0075
   50MOL0     H 6832  10.839   9.873   4.726  0.6836 -0.8514 -1.2450
   50MOL0     H 6833  10.906   9.798   4.498 -0.6409  1.9983  2.5181
   50MOL0     H 6834  11.020   9.706   4.602 -1.6321 -1.5613 -0.8137
   50MOL0     H 6835  11.177   9.713   4.418  0.6732  1.0354 -0.1442
   50MOL0     H 6836  11.024   9.641   4.370  0.1534 -0.9178  0.8952
   50MOL0     H 6837  10.954   9.852   4.247  0.1043  2.0147  1.8714
   50MOL0     H 6838  11.094   9.936   4.328 -1.5838  0.6655  2.6483
   50MOL0     H 6839  11.111   9.718   4.112  0.9070 -1.5552  1.9614
   50MOL0     H 6840  11.135   9.888   4.078 -1.2638 -0.7202 -0.2141
   50MOL0     H 6841  11.351   9.781   4.099  1.6586 -0.4564  0.5716
   50MOL0     H 6842  11.320   9.744   4.273 -4.5916 -0.8409 -0.0895
   50MOL0     H 6843  11.268  10.032   4.216 -0.2916 -0.0429  3.3699
   50MOL0     H 6844  11.342   9.955   4.342 -4.3666  2.5501 -0.3044
   50MOL0     H 6845  11.489  10.008   4.073 -0.8771 -0.2050 -0.3477
   50MOL0     H 6846  11.555   9.931   4.218 -0.6146  0.9984  0.5971
   50MOL0     H 6847  11.457  10.212   4.186 -0.1301 -1.1797 -0.8149
   50MOL0     H 6848  11.497  10.142   4.342  0.8889 -1.2542  1.2288
   50MOL0     H 6849  11.744  10.053   4.385 -2.7496  0.4457 -0.0107
   50MOL0     H 6850  12.070  10.112   4.282 -0.0673 -0.3840 -1.1143
   50MOL0     H 6851  11.976  10.151   4.437 -0.8638 -0.7227 -0.9919
   50MOL0     H 6852  12.169  10.289   4.395 -1.7365 -3.2074  0.8350
   50MOL0     H 6853  12.106  10.335   4.232 -1.5687 -4.0696 -1.4784
   50MOL0     H 6854  11.922  10.446   4.356 -0.4134  0.2659 -1.3052
   50MOL0     H 6855  11.975  10.374   4.505  0.7858  1.8201  1.2166
   50MOL0     H 6856  12.048  10.624   4.498 -1.4412 -0.9474 -2.0358
   50MOL0     H 6857  12.169  10.508   4.532  0.4400  1.5776  0.4375
   50MOL0     H 6858  12.315  10.685   4.158 -0.0241 -1.4079 -0.3449
   50MOL0     H 6859  12.469  10.799   4.055 -2.6764  1.8602  2.6737
   50MOL0     H 6860  12.631  10.738   4.088 -1.8921 -2.8286 -0.6243
   50MOL0     H 6861  12.581  10.905   4.134 -3.4106  0.2664 -0.8117
   50MOL0     H 6862  12.944  10.919   4.497 -2.0181 -1.3953 -0.6732
   50MOL0     H 6863  13.188  10.910   4.479 -0.0568 -0.6680 -1.7795
   50MOL0     H 6864  13.393  10.899   4.567  1.7287  0.7600 -0.3239
   50MOL0     H 6865  13.365  10.777   4.693  1.0462 -0.6639 -0.1969
   50MOL0     H 6866  13.586  10.677   4.658  0.5861  0.8716  0.5474
   50MOL0     H 6867  13.613  10.737   4.507 -0.6004  0.6408  0.8315
   50MOL0     H 6868  13.611  10.902   4.771 -2.6917 -2.2307 -0.7852
   50MOL0     H 6869  13.630  10.975   4.606  0.6982  0.0293  0.8703
   50MOL0     H 6870  13.827  10.961   4.651  0.8027 -0.2528  0.9641
   50MOL0     H 6871  13.817  10.814   4.571 -0.6973  0.2321 -0.5829
   50MOL0     H 6872  13.802  10.694   4.789  0.4930  0.1840 -1.2076
   50MOL0     H 6873  13.952  10.784   4.746 -0.0319 -3.1555  0.3191
   50MOL0     H 6874  13.738  10.849   4.958  1.2319  0.9572  0.6714
   50MOL0     H 6875  13.814  10.977   4.872 -2.3805  1.7114  2.9459
   50MOL0     H 6876  14.031  10.926   4.959  0.3656 -0.0461  1.1063
   50MOL0     H 6877  13.982  10.768   5.031  0.2244  0.5123  1.0730
   50MOL0     H 6878  13.820  10.924   5.157  0.6265 -1.7944  1.4578
   50MOL0     H 6879  13.928  11.058   5.110  0.1465  1.3115  1.9571
   50MOL0     H 6880  13.195  10.485   4.480 -1.7961 -1.3544 -0.3226
   50MOL0     H 6881  12.941  10.482   4.458 -0.1499  0.0027 -0.6583
   50MOL0     H 6882  12.570  10.643   4.579 -0.2210  2.8146  1.2090
   50MOL0     H 6883  12.350  10.561   4.562  0.3052 -1.2158  0.2453
   50MOL0     H 6884  11.203  10.115   4.690 -0.3646  0.6054 -1.2317
   50MOL0     H 6885  11.103  10.254   4.892 -2.8485  1.4482  1.2695
   50MOL0     H 6886  10.817  10.327   5.218  0.2067  1.5594 -0.4517
   50MOL0     H 6887  10.728  10.455   5.383  2.8397  1.0727 -1.7577
   50MOL0     H 6888  10.354  10.687   5.452  1.6087  0.1220  0.4953
   50MOL0     H 6889  10.391  10.726   5.292  2.4556 -0.8022  0.5906
   50MOL0     H 6890  10.245  10.478   5.396  2.4278  0.2441  1.3839
   50MOL0     H 6891  10.250  10.501   5.219 -0.4204  0.8340 -0.3521
   50MOL0     H 6892  10.026  10.580   5.275 -0.2863  0.2713 -1.7364
   50MOL0     H 6893  10.082  10.673   5.410 -0.7632  0.0869 -0.6219
   50MOL0     H 6894  10.189  10.826   5.256  0.1666 -1.8768  3.0329
   50MOL0     H 6895  10.020  10.818   5.218  0.1149  0.5891 -1.9962
   50MOL0     H 6896  10.182  10.670   4.857 -0.6175 -1.2977  0.9208
   50MOL0     H 6897  10.445  10.617   5.113  0.1961 -0.0607  1.5195
   50MOL0     H 6898  10.471  10.394   4.858 -1.5272 -0.8222  2.2218
   50MOL0     H 6899  10.444  10.568   4.893  2.6836  2.3831  1.3572
   50MOL0     H 6900  10.596  10.507   4.817  0.4800  0.2108  0.0395
   51MOL0     O 6901   4.702   0.475   3.607 -0.3782  0.4274  0.4918
   51MOL0     C 6902   4.725   0.569   3.684  0.4172  0.7827 -1.3917
   51MOL0     O 6903   4.633   0.643   3.751 -0.2628 -0.5812  0.4133
   51MOL0     C 6904   4.499   0.647   3.709 -0.2064 -0.3043 -0.6290
   51MOL0     C 6905   4.460   0.624   3.586  0.1728  0.8699  0.9603
   51MOL0     C 6906   4.319   0.619   3.555  0.1881 -0.1375  0.2491
   51MOL0     C 6907   4.225   0.655   3.657 -0.4514  0.0530 -0.1460
   51MOL0     O 6908   4.085   0.648   3.641 -0.0162  0.4680  0.2646
   51MOL0     C 6909   4.011   0.768   3.626  0.1029 -0.3922  0.5254
   51MOL0     C 6910   3.880   0.744   3.540  0.3454 -0.1229 -0.4398
   51MOL0     C 6911   3.790   0.866   3.519 -0.5954  0.0310 -0.1413
   51MOL0     C 6912   3.822   0.958   3.408 -0.1951 -0.1928  1.2478
   51MOL0     C 6913   3.700   1.036   3.339  0.9204  0.1280  0.2699
   51MOL0     C 6914   3.602   1.102   3.430 -0.4568  0.6208 -0.5292
   51MOL0     C 6915   3.488   1.161   3.353  1.0212 -0.0547  0.8890
   51MOL0     C 6916   3.368   1.215   3.425 -1.2715  0.5712 -0.5707
   51MOL0     N 6917   3.319   1.128   3.530  0.0205  0.7189 -0.3168
   51MOL0     C 6918   3.294   0.989   3.525  0.2137 -0.5428 -0.2265
   51MOL0     C 6919   3.223   0.958   3.640 -0.1565 -0.7973 -0.6923
   51MOL0     C 6920   3.191   0.824   3.695  0.5001  0.7098  0.8349
   51MOL0     C 6921   3.308   0.779   3.791 -0.6921 -0.0067  0.0480
   51MOL0     C 6922   3.451   0.805   3.735 -0.3888 -0.0497 -0.2813
   51MOL0     C 6923   3.559   0.759   3.823 -0.5698  0.5262 -0.4940
   51MOL0     O 6924   3.599   0.619   3.799  0.1812  0.2536 -0.4341
   51MOL0     C 6925   3.717   0.589   3.856 -0.0149  0.4343 -0.6747
   51MOL0     C 6926   3.787   0.652   3.953 -0.3781 -0.1217  0.0961
   51MOL0     C 6927   3.916   0.603   3.988 -0.1442  0.6872 -0.3774
   51MOL0     C 6928   3.980   0.680   4.105  0.3002 -0.0773 -0.1926
   51MOL0     C 6929   3.983   0.499   3.918  0.2669  0.9865  0.3815
   51MOL0     C 6930   4.117   0.448   3.950 -0.0957 -0.9838 -0.0144
   51MOL0     O 6931   4.157   0.331   3.878 -0.3504  0.4167 -0.0813
   51MOL0     C 6932   4.284   0.283   3.901  0.3703  0.7001  0.2366
   51MOL0     C 6933   4.375   0.296   3.797 -0.0487  0.5481 -0.3738
   51MOL0     C 6934   4.509   0.272   3.812 -0.5362 -0.4200  0.1128
   51MOL0     C 6935   4.560   0.229   3.932  0.3406  0.5872  0.3102
   51MOL0     O 6936   4.690   0.209   3.968  0.1456 -0.1810  0.4909
   51MOL0     C 6937   4.787   0.175   3.863 -0.5142  0.0064 -0.1453
   51MOL0     C 6938   4.916   0.133   3.926 -0.5715 -0.0619 -0.3854
   51MOL0     C 6939   5.041   0.152   3.842  0.4350  0.3173  0.8242
   51MOL0     C 6940   5.042   0.062   3.711 -0.9967  0.3415 -0.5181
   51MOL0     C 6941   5.165   0.091   3.621 -0.1674  0.0069 -0.1164
   51MOL0     C 6942   5.279  -0.003   3.682 -0.2777 -0.7816 -0.5775
   51MOL0     C 6943   5.414   0.033   3.616  0.8097  0.3469  0.2912
   51MOL0     C 6944   5.442  -0.049   3.489  0.9702 -0.6949  0.1559
   51MOL0    Cl 6945   5.429  -0.228   3.529 -0.5028 -0.1310  0.3285
   51MOL0     C 6946   4.465   0.206   4.032 -0.5782  0.1096 -0.3226
   51MOL0     C 6947   4.333   0.241   4.026  1.0514 -0.1249  0.2070
   51MOL0     O 6948   4.187   0.504   4.038 -0.0216 -0.5338 -0.1716
   51MOL0     C 6949   3.902   0.432   3.828 -0.2360 -0.0540  0.0071
   51MOL0     C 6950   3.777   0.475   3.795 -0.0770 -1.1831 -0.2259
   51MOL0     N 6951   3.194   1.080   3.694  0.2650  0.7614 -0.7918
   51MOL0     N 6952   3.262   1.177   3.643  0.2367 -0.2390  0.5994
   51MOL0     C 6953   4.268   0.700   3.782 -0.3482 -0.1812  0.5824
   51MOL0     C 6954   4.405   0.691   3.810 -0.9407  0.1415 -0.0132
   51MOL0     C 6955   4.864   0.582   3.723 -0.8243  0.7014 -0.1846
   51MOL0     C 6956   4.912   0.521   3.843 -0.5608 -0.1553 -0.9422
   51MOL0     C 6957   5.049   0.532   3.886 -1.4517  0.0352 -0.0017
   51MOL0     C 6958   5.142   0.600   3.798  0.6100 -0.6240  0.1045
   51MOL0     O 6959   5.277   0.618   3.817 -0.4984  0.6003 -0.4652
   51MOL0     C 6960   5.336   0.581   3.942 -0.0320  0.2587  0.5155
   51MOL0     C 6961   5.355   0.427   3.966 -0.0846 -0.1719  0.9296
   51MOL0     C 6962   5.424   0.412   4.101 -0.0964  0.3926  0.3829
   51MOL0     C 6963   5.570   0.464   4.096 -0.5487  0.4972 -0.0819
   51MOL0     C 6964   5.651   0.410   4.210  0.2058  0.3727 -0.3082
   51MOL0     C 6965   5.722   0.362   4.293  0.2972  0.4826  0.6508
   51MOL0     C 6966   5.088   0.655   3.681 -0.5514 -0.2109 -0.7608
   51MOL0     C 6967   4.956   0.650   3.647  0.0107  0.2018  0.6116
   51MOL0     C 6968   4.923   0.737   3.527 -0.1170  0.1947 -0.9034
   51MOL0     H 6969   4.531   0.603   3.506  0.0035 -1.7170  1.3958
   51MOL0     H 6970   4.282   0.589   3.457  0.2856  2.9063 -0.8431
   51MOL0     H 6971   4.079   0.845   3.589 -0.5367 -1.3173 -2.9179
   51MOL0     H 6972   3.971   0.806   3.721  1.3070  1.8503  0.1987
   51MOL0     H 6973   3.913   0.704   3.443 -0.4903  2.8937 -2.0867
   51MOL0     H 6974   3.818   0.670   3.592 -0.0906  1.6700  1.7121
   51MOL0     H 6975   3.695   0.821   3.491 -0.6755  0.7786 -1.1396
   51MOL0     H 6976   3.786   0.928   3.609  4.0961 -1.3981  1.3874
   51MOL0     H 6977   3.887   1.034   3.451 -2.6239  1.7316  1.7874
   51MOL0     H 6978   3.873   0.898   3.332  1.6574 -0.8763  2.9440
   51MOL0     H 6979   3.646   0.959   3.284 -0.4658  1.9495 -1.0565
   51MOL0     H 6980   3.755   1.111   3.280  1.0238 -0.7328 -0.7419
   51MOL0     H 6981   3.564   1.027   3.499 -0.4310  1.1363  0.0576
   51MOL0     H 6982   3.653   1.176   3.493  0.2579 -2.6897  3.2194
   51MOL0     H 6983   3.447   1.087   3.283  1.2968 -1.0527  1.7584
   51MOL0     H 6984   3.530   1.238   3.288 -3.1512  0.5146 -1.4899
   51MOL0     H 6985   3.394   1.310   3.473  2.4474 -0.2413 -0.6983
   51MOL0     H 6986   3.287   1.241   3.355 -1.5208 -0.9002 -0.8601
   51MOL0     H 6987   3.338   0.930   3.445  0.8730 -0.6485  0.2088
   51MOL0     H 6988   3.180   0.745   3.619  0.1633 -0.2165  1.8304
   51MOL0     H 6989   3.096   0.832   3.749 -1.3277 -0.6041 -1.9348
   51MOL0     H 6990   3.297   0.834   3.885 -2.2652 -1.2296  0.6031
   51MOL0     H 6991   3.290   0.676   3.821 -2.0923  0.4928  1.0178
   51MOL0     H 6992   3.462   0.753   3.640 -1.8285 -1.4736  0.2804
   51MOL0     H 6993   3.450   0.914   3.726 -1.8833  0.1799  1.8478
   51MOL0     H 6994   3.641   0.832   3.827  0.1217 -0.2403  2.8744
   51MOL0     H 6995   3.522   0.765   3.926  0.4449  0.5514 -0.1172
   51MOL0     H 6996   3.735   0.732   4.004  1.3128  1.1214 -0.0086
   51MOL0     H 6997   3.905   0.731   4.166  0.1198 -0.2525 -0.2660
   51MOL0     H 6998   4.052   0.753   4.065 -2.0723  1.9859 -0.9747
   51MOL0     H 6999   4.043   0.617   4.168  2.6194 -0.4877 -2.6944
   51MOL0     H 7000   4.343   0.346   3.706  1.4627 -0.0927 -1.2930
   51MOL0     H 7001   4.576   0.294   3.729  2.6775 -1.0907  2.3221
   51MOL0     H 7002   4.752   0.093   3.800 -0.5120 -0.1839  0.1032
   51MOL0     H 7003   4.798   0.266   3.803 -0.6257  0.0881 -0.0418
   51MOL0     H 7004   4.937   0.203   4.007  0.5194 -0.1997 -0.5450
   51MOL0     H 7005   4.899   0.041   3.983 -2.2975  1.0139  0.9452
   51MOL0     H 7006   5.129   0.133   3.904  1.2086 -2.9414 -1.0118
   51MOL0     H 7007   5.059   0.254   3.806  1.6582  0.2282  1.1214
   51MOL0     H 7008   4.949   0.077   3.655 -2.0219 -2.0319  0.4277
   51MOL0     H 7009   5.037  -0.038   3.755 -0.5537  0.6758  0.3094
   51MOL0     H 7010   5.142   0.060   3.519 -3.3792 -1.9069  1.0383
   51MOL0     H 7011   5.182   0.199   3.624 -2.8106  0.5170  3.5585
   51MOL0     H 7012   5.262  -0.109   3.662  2.6751 -0.9005 -3.3749
   51MOL0     H 7013   5.283   0.018   3.789  0.7152 -1.0773 -0.5401
   51MOL0     H 7014   5.493   0.010   3.690  0.0277 -2.9147  0.2737
   51MOL0     H 7015   5.424   0.139   3.594  1.0730 -0.2531 -2.9425
   51MOL0     H 7016   5.543  -0.018   3.459  0.3454  1.1245 -0.1592
   51MOL0     H 7017   5.370  -0.015   3.414 -0.4425 -0.4480  1.5866
   51MOL0     H 7018   4.503   0.159   4.121 -2.2973 -2.0679 -0.6701
   51MOL0     H 7019   4.267   0.240   4.113  1.5784 -0.8904  0.6138
   51MOL0     H 7020   3.931   0.344   3.771 -3.3612 -0.2437 -1.5142
   51MOL0     H 7021   3.722   0.428   3.714  0.6240 -0.7132 -0.9797
   51MOL0     H 7022   4.213   0.730   3.870  2.1004 -0.2563  2.2635
   51MOL0     H 7023   4.437   0.721   3.909  1.8547  0.7957 -1.0061
   51MOL0     H 7024   4.837   0.473   3.904 -0.3484  0.4228 -0.2137
   51MOL0     H 7025   5.074   0.492   3.984 -2.7726 -2.0437 -0.4546
   51MOL0     H 7026   5.438   0.616   3.922  0.2237 -1.5537 -1.7182
   51MOL0     H 7027   5.285   0.631   4.025 -1.5606 -0.6698  0.1693
   51MOL0     H 7028   5.424   0.388   3.891 -0.8671  0.6479 -0.2477
   51MOL0     H 7029   5.259   0.375   3.957  0.8720 -1.5475 -3.0844
   51MOL0     H 7030   5.372   0.471   4.177  0.3695 -0.2136  1.1801
   51MOL0     H 7031   5.416   0.306   4.123 -0.5501  0.4496  0.5012
   51MOL0     H 7032   5.566   0.573   4.105 -2.0501  0.5321 -0.8830
   51MOL0     H 7033   5.618   0.431   4.003  2.9223  1.5169  1.1730
   51MOL0     H 7034   5.787   0.327   4.371  1.0469 -0.2251 -0.2685
   51MOL0     H 7035   5.159   0.693   3.607  0.8478  1.5609  1.3453
   51MOL0     H 7036   4.877   0.827   3.569  0.4898 -0.0982  0.4506
   51MOL0     H 7037   5.006   0.758   3.459 -0.5009 -0.7962 -1.7073
   51MOL0     H 7038   4.849   0.685   3.465  0.2376 -0.0486 -1.1296
   52MOL0     O 7039   9.424   2.587   3.270 -0.3686  0.6148  0.1454
   52MOL0     C 7040   9.318   2.627   3.221 -0.8380 -0.8366  0.4840
   52MOL0     O 7041   9.259   2.746   3.244 -0.1139 -0.1230  0.3346
   52MOL0     C 7042   9.335   2.840   3.310 -0.9313 -0.5561 -0.4026
   52MOL0     C 7043   9.300   2.865   3.445  0.2940 -1.2129 -0.3022
   52MOL0     C 7044   9.376   2.957   3.519 -0.1447  0.4793 -0.1203
   52MOL0     C 7045   9.488   3.028   3.458  0.9369  0.6865 -0.9682
   52MOL0     O 7046   9.573   3.097   3.542  0.1769  0.3018  0.1467
   52MOL0     C 7047   9.536   3.131   3.671 -0.4521  0.1839 -0.7094
   52MOL0     C 7048   9.620   3.240   3.717  0.3390 -0.2089  0.8616
   52MOL0     C 7049   9.592   3.269   3.859  1.0040  0.0355  0.3255
   52MOL0     C 7050   9.658   3.402   3.901 -0.2716  0.8677  0.0413
   52MOL0     C 7051   9.618   3.425   4.045  0.1355  0.3643  0.6788
   52MOL0     C 7052   9.698   3.343   4.147 -0.4666  0.0163  0.4476
   52MOL0     C 7053   9.853   3.369   4.145 -0.1425  0.3632 -0.6169
   52MOL0     C 7054   9.943   3.277   4.073  0.4195 -0.3378  0.5601
   52MOL0     N 7055   9.938   3.131   4.117  0.3611 -0.3359 -0.2617
   52MOL0     C 7056   9.880   3.022   4.064  0.0662 -0.2353 -0.4800
   52MOL0     C 7057   9.941   2.918   4.134 -0.7395  0.3144  0.2017
   52MOL0     C 7058   9.899   2.774   4.112  0.2037 -0.6307 -0.5645
   52MOL0     C 7059   9.842   2.706   4.234  0.5870 -0.1993 -0.0411
   52MOL0     C 7060   9.701   2.769   4.272  0.7804  0.0595 -0.0548
   52MOL0     C 7061   9.635   2.711   4.404  0.3948 -0.4493  0.4000
   52MOL0     O 7062   9.721   2.748   4.513 -0.3262 -0.4336 -0.8629
   52MOL0     C 7063   9.680   2.721   4.634  0.2636 -0.1682  0.8860
   52MOL0     C 7064   9.580   2.628   4.672 -0.9111 -0.3423 -0.3185
   52MOL0     C 7065   9.540   2.619   4.807 -0.5782  0.4481  0.4187
   52MOL0     C 7066   9.448   2.506   4.842  0.8853 -0.6146 -1.3781
   52MOL0     C 7067   9.603   2.693   4.903  0.4404  0.1511 -0.1602
   52MOL0     C 7068   9.565   2.690   5.041 -0.1518  0.2028 -0.2250
   52MOL0     O 7069   9.593   2.801   5.115 -0.3762 -0.1830 -0.3061
   52MOL0     C 7070   9.630   2.792   5.247 -0.5168  0.0046 -0.8546
   52MOL0     C 7071   9.672   2.673   5.317  0.1196  0.3026 -0.2277
   52MOL0     C 7072   9.705   2.665   5.447  0.1160  0.0053 -0.6354
   52MOL0     C 7073   9.705   2.786   5.524  0.3986 -0.2655 -0.6139
   52MOL0     O 7074   9.764   2.791   5.650  0.6824  0.3246 -0.0792
   52MOL0     C 7075   9.704   2.897   5.736 -0.3191  0.2683  0.3369
   52MOL0     C 7076   9.726   2.877   5.891 -0.9404  0.7061  0.1911
   52MOL0     C 7077   9.589   2.876   5.968  0.5978  0.0380 -0.5972
   52MOL0     C 7078   9.531   2.739   5.957 -0.6773  0.2397 -0.8323
   52MOL0     C 7079   9.383   2.731   5.988  0.4086 -1.2124 -0.9548
   52MOL0     C 7080   9.309   2.600   5.960  0.4833  0.4330 -0.6727
   52MOL0     C 7081   9.156   2.631   5.940  0.4693  0.0793 -0.3027
   52MOL0     C 7082   9.073   2.523   6.008  0.4674 -0.4135 -0.5721
   52MOL0    Cl 7083   8.907   2.576   5.968  0.0168 -0.2961 -0.2507
   52MOL0     C 7084   9.664   2.905   5.459 -1.1486 -0.0144  0.2408
   52MOL0     C 7085   9.630   2.908   5.328 -0.5161 -0.1016  0.5012
   52MOL0     O 7086   9.520   2.589   5.089 -0.4693  0.1572 -0.4402
   52MOL0     C 7087   9.694   2.786   4.858  0.2305  0.0185 -1.0671
   52MOL0     C 7088   9.737   2.803   4.731  0.8403 -0.9183  0.4446
   52MOL0     N 7089  10.036   2.965   4.223 -0.1595  1.0562 -0.4652
   52MOL0     N 7090  10.029   3.091   4.213  0.5889  0.1488 -0.0289
   52MOL0     C 7091   9.513   3.003   3.329  0.3689 -0.2530  0.6280
   52MOL0     C 7092   9.445   2.907   3.250  0.3353  0.3424 -0.6063
   52MOL0     C 7093   9.225   2.522   3.166  0.3470 -0.1784  0.4193
   52MOL0     C 7094   9.081   2.527   3.189 -0.7992 -0.3509 -0.3376
   52MOL0     C 7095   8.997   2.432   3.127  0.0043  0.1843 -0.5204
   52MOL0     C 7096   9.051   2.325   3.063  0.1145  0.8222 -0.3022
   52MOL0     O 7097   8.964   2.217   3.035 -0.0045 -0.4282 -0.2420
   52MOL0     C 7098   8.947   2.131   3.155 -0.6526  0.8152 -0.3798
   52MOL0     C 7099   8.859   2.005   3.134 -0.1151 -0.6975 -0.4839
   52MOL0     C 7100   8.719   2.047   3.077 -0.2539  0.2150  0.7994
   52MOL0     C 7101   8.615   1.935   3.055  0.8490 -0.9155 -0.0122
   52MOL0     C 7102   8.654   1.823   2.968  0.0174 -0.0906  0.5788
   52MOL0     C 7103   8.683   1.726   2.900 -0.1702 -0.2298  0.2578
   52MOL0     C 7104   9.190   2.314   3.041  0.4496  0.5684 -0.0469
   52MOL0     C 7105   9.275   2.417   3.086  0.1181 -0.3349 -0.1439
   52MOL0     C 7106   9.417   2.388   3.070 -0.1517  0.4371 -0.1794
   52MOL0     H 7107   9.226   2.803   3.495  0.3950  0.9009  2.7120
   52MOL0     H 7108   9.353   2.977   3.623  1.1685  0.8134  0.1315
   52MOL0     H 7109   9.555   3.052   3.743  0.8921  2.4067  1.5280
   52MOL0     H 7110   9.430   3.157   3.680 -0.5578 -0.8798  1.8686
   52MOL0     H 7111   9.728   3.222   3.709  0.0656 -2.3877  1.5907
   52MOL0     H 7112   9.596   3.328   3.657  0.2021 -1.9953 -1.8874
   52MOL0     H 7113   9.485   3.286   3.872  1.3506  1.3341  1.9198
   52MOL0     H 7114   9.620   3.189   3.927 -0.9024 -1.6724 -0.8053
   52MOL0     H 7115   9.766   3.401   3.890  0.0247  0.9489  2.4513
   52MOL0     H 7116   9.628   3.492   3.845  1.2681  1.7058  0.5165
   52MOL0     H 7117   9.513   3.401   4.064  0.4206  0.0426  1.9512
   52MOL0     H 7118   9.628   3.532   4.065 -1.2613  0.3033  1.8306
   52MOL0     H 7119   9.660   3.370   4.246  0.2582  0.8098  0.5284
   52MOL0     H 7120   9.692   3.234   4.138  3.4688 -0.1896 -2.3814
   52MOL0     H 7121   9.880   3.363   4.251  0.5872  0.8022 -0.7687
   52MOL0     H 7122   9.860   3.470   4.104 -4.9686  0.3011 -2.1942
   52MOL0     H 7123   9.926   3.288   3.965 -2.0577 -0.1599  0.9157
   52MOL0     H 7124  10.046   3.310   4.084  0.1847 -0.0374  2.0672
   52MOL0     H 7125   9.814   3.016   3.978 -3.3060 -1.3772  2.0006
   52MOL0     H 7126   9.986   2.725   4.067  1.5958  0.5102  0.8128
   52MOL0     H 7127   9.825   2.781   4.031 -1.7500 -1.1310  1.1037
   52MOL0     H 7128   9.816   2.606   4.200  0.7398  0.7148 -3.1132
   52MOL0     H 7129   9.920   2.712   4.311 -2.0703 -1.5915  3.0188
   52MOL0     H 7130   9.718   2.876   4.287  1.1882  0.1977 -1.3918
   52MOL0     H 7131   9.636   2.754   4.185  1.4965 -0.9289 -0.4375
   52MOL0     H 7132   9.536   2.755   4.415  0.1587 -1.0239  0.6008
   52MOL0     H 7133   9.612   2.606   4.382  0.5338 -0.0968 -1.7090
   52MOL0     H 7134   9.519   2.567   4.607  0.2125 -0.7814 -0.9970
   52MOL0     H 7135   9.400   2.457   4.757 -3.4767 -0.7690  0.9147
   52MOL0     H 7136   9.365   2.542   4.903  0.6432  0.5128 -2.3551
   52MOL0     H 7137   9.495   2.423   4.896  0.4232 -0.9965 -1.5582
   52MOL0     H 7138   9.673   2.575   5.270  0.3643 -1.7664  3.7118
   52MOL0     H 7139   9.757   2.576   5.483 -1.1062  0.1864  1.8232
   52MOL0     H 7140   9.739   2.998   5.713 -0.6558  0.8897  2.3511
   52MOL0     H 7141   9.598   2.899   5.711 -0.0810 -0.5560 -0.8577
   52MOL0     H 7142   9.783   2.785   5.906  0.9260  1.5726 -1.3011
   52MOL0     H 7143   9.773   2.970   5.925 -1.6227  0.9832  0.4130
   52MOL0     H 7144   9.512   2.948   5.941 -1.3089 -1.4639  0.6264
   52MOL0     H 7145   9.611   2.893   6.074  3.6526  1.8663 -1.3939
   52MOL0     H 7146   9.576   2.670   6.030 -2.4177 -1.3904 -1.2036
   52MOL0     H 7147   9.544   2.706   5.853 -0.7877 -0.3360 -0.6707
   52MOL0     H 7148   9.377   2.753   6.095 -0.8009 -2.4917 -0.7171
   52MOL0     H 7149   9.322   2.799   5.927 -0.7015 -1.3157 -0.0024
   52MOL0     H 7150   9.327   2.544   6.052  2.1545  4.0425  1.4141
   52MOL0     H 7151   9.340   2.550   5.868 -0.6781  0.3636 -1.0423
   52MOL0     H 7152   9.129   2.635   5.834  1.6584  0.9712 -0.5934
   52MOL0     H 7153   9.134   2.728   5.984 -0.6082 -0.3460  0.1384
   52MOL0     H 7154   9.085   2.539   6.116 -4.1640  0.9591 -0.0294
   52MOL0     H 7155   9.093   2.418   5.983  1.0987  0.1642 -2.6206
   52MOL0     H 7156   9.656   3.002   5.507 -1.4825  0.6017 -1.0125
   52MOL0     H 7157   9.580   2.994   5.283  0.1541  0.0573  0.0539
   52MOL0     H 7158   9.749   2.846   4.930  0.7524 -0.7565 -0.8124
   52MOL0     H 7159   9.812   2.870   4.690 -0.0675 -0.9575 -1.3979
   52MOL0     H 7160   9.588   3.067   3.284 -0.2924 -0.7508 -1.3268
   52MOL0     H 7161   9.476   2.896   3.147  1.0187  1.4584 -0.5343
   52MOL0     H 7162   9.043   2.608   3.251 -0.1262  1.1008 -1.7541
   52MOL0     H 7163   8.889   2.425   3.140  0.1965 -1.4585  0.3930
   52MOL0     H 7164   9.044   2.104   3.197 -0.5681  2.0818  0.2809
   52MOL0     H 7165   8.907   2.183   3.242 -0.1892 -1.4323  1.2417
   52MOL0     H 7166   8.848   1.949   3.227  0.6530  1.3543  0.9154
   52MOL0     H 7167   8.898   1.935   3.059 -0.5967 -1.8377  0.3074
   52MOL0     H 7168   8.684   2.136   3.130  2.6543  3.3845 -2.1253
   52MOL0     H 7169   8.729   2.085   2.976 -2.8295 -1.1100 -0.0341
   52MOL0     H 7170   8.526   1.982   3.012  0.6984 -0.2293  1.0000
   52MOL0     H 7171   8.583   1.898   3.153 -0.4402  1.2324  0.4561
   52MOL0     H 7172   8.690   1.652   2.822 -2.8296 -1.9870  1.5699
   52MOL0     H 7173   9.237   2.222   3.007 -0.1269 -0.2269  1.2077
   52MOL0     H 7174   9.429   2.314   2.990 -1.7731 -0.9882  0.7996
   52MOL0     H 7175   9.473   2.475   3.035  0.8895  0.4463  1.4121
   52MOL0     H 7176   9.456   2.345   3.163 -0.6393 -0.0487 -0.1865
   53MOL0     O 7177   0.052   3.724  11.373  0.5257 -0.0390  0.1023
   53MOL0     C 7178   0.040   3.841  11.336 -0.3031 -0.0001 -0.2705
   53MOL0     O 7179   0.147   3.934  11.300 -0.7940 -0.6103  0.7519
   53MOL0     C 7180   0.277   3.902  11.283  0.2127  0.1246 -0.3383
   53MOL0     C 7181   0.347   3.823  11.362 -0.8501 -0.0379  0.0420
   53MOL0     C 7182   0.483   3.788  11.340 -0.8684  0.4208 -0.5185
   53MOL0     C 7183   0.549   3.832  11.226 -0.0281 -0.4256  0.4348
   53MOL0     O 7184   0.680   3.820  11.199 -0.5968  0.4698  0.3244
   53MOL0     C 7185   0.751   3.720  11.273 -0.1970  0.4080 -0.3034
   53MOL0     C 7186   0.903   3.716  11.225 -0.3438 -0.0066 -0.1588
   53MOL0     C 7187   0.971   3.859  11.247 -0.1656 -0.0431 -0.4214
   53MOL0     C 7188   1.128   3.862  11.240 -0.3227  0.9724 -0.2275
   53MOL0     C 7189   1.190   3.812  11.112 -0.0256 -0.3600 -0.0758
   53MOL0     C 7190   1.337   3.859  11.102 -0.3461 -0.2517  0.9232
   53MOL0     C 7191   1.402   3.816  10.973 -0.3307 -0.9636 -0.3598
   53MOL0     C 7192   1.493   3.696  10.994  0.6086  0.3762 -0.9413
   53MOL0     N 7193   1.611   3.722  11.070 -0.1760  0.8265 -0.9832
   53MOL0     C 7194   1.717   3.802  11.025  0.2665 -0.9447 -0.2125
   53MOL0     C 7195   1.814   3.793  11.125  0.8581  0.2964  0.5222
   53MOL0     C 7196   1.955   3.850  11.123  0.9574 -0.2800  0.2413
   53MOL0     C 7197   2.079   3.780  11.076 -0.8767 -0.1599 -0.8135
   53MOL0     C 7198   2.192   3.891  11.057  1.4910 -0.4198 -0.2568
   53MOL0     C 7199   2.320   3.831  11.007 -0.4152  0.0404 -0.8954
   53MOL0     O 7200   2.408   3.820  11.120 -0.4617 -0.7188 -0.1287
   53MOL0     C 7201   2.547   3.828  11.119  0.7507 -0.6528  1.3190
   53MOL0     C 7202   2.614   3.806  11.236 -0.6005  0.0803  0.8697
   53MOL0     C 7203   2.755   3.810  11.253  0.3677 -0.1577  0.4674
   53MOL0     C 7204   2.821   3.786  11.387  0.5069  0.1039 -0.2838
   53MOL0     C 7205   2.831   3.849  11.140 -0.1489 -0.6629 -0.8459
   53MOL0     C 7206   2.975   3.870  11.136  0.2471 -0.9550 -0.6293
   53MOL0     O 7207   3.047   3.839  11.028 -0.1445  0.0725 -0.5046
   53MOL0     C 7208   3.179   3.836  11.049  0.4826 -0.6548  0.4619
   53MOL0     C 7209   3.241   3.729  11.114 -0.1197  0.8420  0.4100
   53MOL0     C 7210   3.382   3.727  11.137  0.4634  0.4565  0.8825
   53MOL0     C 7211   3.460   3.835  11.087 -0.5341  0.2584  0.1463
   53MOL0     O 7212   3.595   3.858  11.097 -0.3509 -0.6819  0.1516
   53MOL0     C 7213   3.662   3.798  11.203 -0.0722  0.4871 -1.1507
   53MOL0     C 7214   3.642   3.873  11.344 -0.3144 -0.4890  0.0913
   53MOL0     C 7215   3.707   4.012  11.315 -0.2884  0.8777 -0.0152
   53MOL0     C 7216   3.862   4.015  11.342 -0.2654  0.1558 -0.6036
   53MOL0     C 7217   3.914   4.153  11.370 -0.7321  0.6769  0.2415
   53MOL0     C 7218   4.059   4.150  11.401 -0.1438  0.0396 -0.3155
   53MOL0     C 7219   4.106   4.283  11.465  0.0950 -0.6788  0.7311
   53MOL0     C 7220   4.076   4.411  11.388  0.5945  0.1239  0.5686
   53MOL0    Cl 7221   4.187   4.535  11.453 -0.0884  0.1839  0.1602
   53MOL0     C 7222   3.390   3.940  11.022 -0.3688  0.0021  0.8647
   53MOL0     C 7223   3.255   3.939  10.999  0.3885 -0.5848 -0.4959
   53MOL0     O 7224   3.026   3.937  11.230  0.0373  0.4438 -0.6074
   53MOL0     C 7225   2.761   3.874  11.013  0.5371 -0.2841 -0.9574
   53MOL0     C 7226   2.620   3.859  11.008  0.2638 -0.3372 -0.3876
   53MOL0     N 7227   1.767   3.702  11.223  0.2097 -0.4582 -0.6617
   53MOL0     N 7228   1.650   3.668  11.186  0.9126  0.2733  0.4372
   53MOL0     C 7229   0.472   3.908  11.138  0.6028 -0.4655  0.0148
   53MOL0     C 7230   0.333   3.942  11.165 -0.2244  0.2410 -0.6230
   53MOL0     C 7231  -0.090   3.901  11.351  0.0832  0.0327 -0.2219
   53MOL0     C 7232  -0.105   4.033  11.391  0.5630 -0.1148  0.2868
   53MOL0     C 7233  -0.230   4.097  11.393  0.2363 -0.2096 -0.1044
   53MOL0     C 7234  -0.349   4.030  11.371  0.1788  0.0761 -0.5916
   53MOL0     O 7235  -0.461   4.102  11.380 -0.1182 -0.2833 -0.1081
   53MOL0     C 7236  -0.594   4.044  11.359 -0.3696 -0.0695 -0.4073
   53MOL0     C 7237  -0.712   4.114  11.416  0.6162  0.7421  0.6049
   53MOL0     C 7238  -0.853   4.059  11.369 -0.0754  0.6279  0.4892
   53MOL0     C 7239  -0.966   4.128  11.447 -0.3314  0.8383  0.9754
   53MOL0     C 7240  -1.097   4.104  11.384 -0.6916 -0.7597 -0.4652
   53MOL0     C 7241  -1.204   4.084  11.323 -0.3249  0.4488  1.1714
   53MOL0     C 7242  -0.339   3.894  11.331  0.5218  0.0750  0.4392
   53MOL0     C 7243  -0.214   3.825  11.328 -0.2592 -0.3953 -0.2077
   53MOL0     C 7244  -0.219   3.683  11.275 -0.7487 -0.0279 -0.8147
   53MOL0     H 7245   0.305   3.794  11.458 -1.5947 -2.3583 -0.9273
   53MOL0     H 7246   0.531   3.723  11.412  1.2080  0.4182 -1.8125
   53MOL0     H 7247   0.707   3.624  11.246  1.3454 -0.1663 -0.9124
   53MOL0     H 7248   0.752   3.733  11.381 -0.0434  1.3586 -0.4110
   53MOL0     H 7249   0.949   3.645  11.295 -0.3845 -0.9242 -1.0490
   53MOL0     H 7250   0.922   3.688  11.121  1.0830  2.1181 -0.5414
   53MOL0     H 7251   0.931   3.925  11.170  0.4516  0.9876  0.1166
   53MOL0     H 7252   0.932   3.887  11.346 -0.0199 -2.1733  0.2906
   53MOL0     H 7253   1.158   3.966  11.255 -0.6037  1.1415 -0.8131
   53MOL0     H 7254   1.169   3.808  11.326 -0.0226  0.0131 -0.9565
   53MOL0     H 7255   1.136   3.847  11.023  1.5462  2.1962 -0.1133
   53MOL0     H 7256   1.173   3.704  11.115 -4.3072  0.0376 -2.2842
   53MOL0     H 7257   1.328   3.968  11.103 -2.1940 -0.3370 -0.3141
   53MOL0     H 7258   1.397   3.821  11.184  1.5743 -0.1399 -0.3718
   53MOL0     H 7259   1.467   3.895  10.934 -0.5224  1.7968  4.1779
   53MOL0     H 7260   1.321   3.802  10.901 -0.5322 -0.3878 -0.2485
   53MOL0     H 7261   1.430   3.621  11.043 -1.2053  1.2512 -1.8315
   53MOL0     H 7262   1.515   3.643  10.901  0.6467 -1.6312  0.1651
   53MOL0     H 7263   1.724   3.840  10.924  0.2136 -0.3774 -0.0059
   53MOL0     H 7264   1.969   3.893  11.223 -0.7798 -2.1085  1.3519
   53MOL0     H 7265   1.938   3.935  11.056 -3.4154 -0.7186  0.5018
   53MOL0     H 7266   2.109   3.707  11.151 -0.0646  2.0238  1.1099
   53MOL0     H 7267   2.065   3.713  10.990 -3.1156 -2.6632  1.3363
   53MOL0     H 7268   2.163   3.970  10.987 -2.4827 -2.4955 -1.2401
   53MOL0     H 7269   2.204   3.945  11.151 -1.3153  2.4511 -1.3600
   53MOL0     H 7270   2.302   3.736  10.956  0.1267 -0.5670  0.0001
   53MOL0     H 7271   2.362   3.907  10.940  0.7767  0.5579  0.3902
   53MOL0     H 7272   2.553   3.778  11.321 -1.5766  2.4019  1.0173
   53MOL0     H 7273   2.861   3.873  11.439  3.2413 -0.6125 -1.0163
   53MOL0     H 7274   2.911   3.724  11.385 -0.5971 -1.5632 -1.7165
   53MOL0     H 7275   2.746   3.736  11.449  0.5509 -0.9203 -1.0399
   53MOL0     H 7276   3.186   3.640  11.144 -1.5088  0.0707 -3.7614
   53MOL0     H 7277   3.425   3.651  11.202  0.5611  0.0051  0.2933
   53MOL0     H 7278   3.638   3.692  11.216 -1.3340  1.0696  2.3127
   53MOL0     H 7279   3.768   3.798  11.177 -0.2572 -0.0310 -1.9506
   53MOL0     H 7280   3.537   3.883  11.373  0.7565  0.8749  4.1935
   53MOL0     H 7281   3.696   3.814  11.418  3.4288 -0.1119 -2.1012
   53MOL0     H 7282   3.664   4.084  11.385  0.3438  1.4724 -0.2315
   53MOL0     H 7283   3.683   4.038  11.212 -1.0880 -0.3378 -0.1547
   53MOL0     H 7284   3.912   3.972  11.255  0.0803  0.3752 -0.5130
   53MOL0     H 7285   3.894   3.954  11.428  3.1558  1.1636 -1.0217
   53MOL0     H 7286   3.898   4.204  11.275  0.9443 -0.8354 -0.9081
   53MOL0     H 7287   3.854   4.204  11.447  0.6056  1.4457  0.8199
   53MOL0     H 7288   4.097   4.142  11.298 -2.1753 -0.0973 -1.0953
   53MOL0     H 7289   4.085   4.074  11.475  2.1357  0.1016 -0.9594
   53MOL0     H 7290   4.214   4.291  11.478  0.0985 -0.5238  0.6023
   53MOL0     H 7291   4.057   4.305  11.560 -2.0061  2.6109 -0.9157
   53MOL0     H 7292   3.973   4.441  11.410  0.5875  1.5603 -1.1583
   53MOL0     H 7293   4.095   4.387  11.283 -0.0257  1.9932 -0.0125
   53MOL0     H 7294   3.448   4.024  10.987 -2.4020  1.5209  1.0012
   53MOL0     H 7295   3.210   4.026  10.952  0.6293  2.0679  3.6672
   53MOL0     H 7296   2.801   3.885  10.913 -2.8885  3.5286 -2.1861
   53MOL0     H 7297   2.566   3.878  10.915  0.4497 -0.8456 -0.5993
   53MOL0     H 7298   0.524   3.935  11.047  1.7166 -0.9530  0.4761
   53MOL0     H 7299   0.295   4.019  11.098  1.0917  2.0583  0.6044
   53MOL0     H 7300  -0.024   4.096  11.426 -1.2795  2.7391 -0.2712
   53MOL0     H 7301  -0.235   4.196  11.438 -0.6131 -1.1583  2.0586
   53MOL0     H 7302  -0.604   4.034  11.251 -2.2282  1.5939 -0.4505
   53MOL0     H 7303  -0.588   3.942  11.398  3.3757 -1.5576 -4.1077
   53MOL0     H 7304  -0.698   4.220  11.392  2.7434  0.2521 -0.5394
   53MOL0     H 7305  -0.702   4.097  11.523 -0.9843  0.1807  0.6982
   53MOL0     H 7306  -0.858   4.090  11.264 -1.1414 -1.1498 -0.0196
   53MOL0     H 7307  -0.844   3.950  11.363  0.8769  0.7802 -1.6990
   53MOL0     H 7308  -0.936   4.233  11.460  2.9593  0.2843 -0.9143
   53MOL0     H 7309  -0.974   4.094  11.550 -1.2819 -1.2462  0.2738
   53MOL0     H 7310  -1.302   4.076  11.280  0.4533  0.5512 -0.7187
   53MOL0     H 7311  -0.432   3.846  11.302 -0.4599  0.2751  2.9167
   53MOL0     H 7312  -0.316   3.643  11.306  0.5634 -1.6217  1.5299
   53MOL0     H 7313  -0.208   3.696  11.166 -0.4923 -0.7557 -0.8781
   53MOL0     H 7314  -0.143   3.616  11.315  0.9324  3.0959  1.6816
   54MOL0     O 7315   2.892   1.375   2.735  0.6110 -0.3006 -0.3646
   54MOL0     C 7316   2.820   1.343   2.827 -1.0932  0.0535 -0.5186
   54MOL0     O 7317   2.859   1.359   2.953 -0.0631 -0.2912  0.0985
   54MOL0     C 7318   2.987   1.394   2.980  0.1948  0.0719 -0.4782
   54MOL0     C 7319   3.028   1.524   2.955  0.1289 -0.4983 -0.1472
   54MOL0     C 7320   3.162   1.547   2.975  0.5304 -1.2390  0.1366
   54MOL0     C 7321   3.257   1.455   3.026  0.3249 -0.0770  0.4042
   54MOL0     O 7322   3.393   1.477   3.036  0.6010  0.0238 -0.0414
   54MOL0     C 7323   3.457   1.598   2.975  0.1044 -0.5652 -0.3675
   54MOL0     C 7324   3.602   1.568   2.967 -0.5438  0.5487  0.3704
   54MOL0     C 7325   3.666   1.555   3.104  0.5763  1.0377 -0.8395
   54MOL0     C 7326   3.814   1.507   3.110 -0.7292 -0.4683  0.2397
   54MOL0     C 7327   3.885   1.498   3.242 -1.0312  0.3937 -1.2619
   54MOL0     C 7328   4.035   1.451   3.250 -0.0491  0.1846  0.6783
   54MOL0     C 7329   4.098   1.521   3.378  0.0225 -0.1531 -0.2554
   54MOL0     C 7330   4.242   1.465   3.408  0.3512  0.1880 -0.6640
   54MOL0     N 7331   4.329   1.435   3.297 -0.0346 -0.8073  0.1340
   54MOL0     C 7332   4.341   1.504   3.183  0.4524 -0.2611 -0.3592
   54MOL0     C 7333   4.410   1.422   3.102 -0.1576  0.6130  0.1092
   54MOL0     C 7334   4.442   1.451   2.956  0.7073  0.3825 -0.2473
   54MOL0     C 7335   4.544   1.371   2.885  0.2627  0.1195 -0.9336
   54MOL0     C 7336   4.538   1.222   2.881 -0.0301  0.6611 -0.1816
   54MOL0     C 7337   4.659   1.165   2.785 -0.2440 -0.6614  0.0070
   54MOL0     O 7338   4.785   1.200   2.843 -0.5004 -0.2116  0.1542
   54MOL0     C 7339   4.894   1.226   2.765  0.1790  1.5997 -0.5428
   54MOL0     C 7340   4.905   1.206   2.628  0.1880  0.3471 -0.3921
   54MOL0     C 7341   5.030   1.219   2.555 -0.2076  0.5364  0.9123
   54MOL0     C 7342   5.022   1.175   2.408  0.7132  0.8182 -0.2620
   54MOL0     C 7343   5.150   1.244   2.627 -0.8323  0.2432 -0.5735
   54MOL0     C 7344   5.285   1.237   2.566  0.3736  0.1448 -0.6730
   54MOL0     O 7345   5.307   1.143   2.473  0.1529  0.3849  0.0132
   54MOL0     C 7346   5.435   1.132   2.428 -0.6036 -0.1561  0.6197
   54MOL0     C 7347   5.440   1.113   2.292  0.4075 -0.9094  0.1758
   54MOL0     C 7348   5.555   1.073   2.233  0.0322  0.1407 -0.5663
   54MOL0     C 7349   5.678   1.068   2.309 -0.0802 -0.0149  0.6148
   54MOL0     O 7350   5.793   1.031   2.249  0.3737 -1.2228  0.0227
   54MOL0     C 7351   5.825   1.076   2.123  0.0165 -0.5440 -0.0995
   54MOL0     C 7352   5.967   1.093   2.098  0.9299 -0.8127  0.2090
   54MOL0     C 7353   5.989   1.128   1.948  0.6441  0.1889  0.0013
   54MOL0     C 7354   6.126   1.097   1.908 -0.1346 -0.3257 -0.1287
   54MOL0     C 7355   6.236   1.177   1.984  0.1202 -0.6546  0.2593
   54MOL0     C 7356   6.368   1.131   1.914 -0.2107  0.0529 -0.4578
   54MOL0     C 7357   6.490   1.194   1.988 -0.4298 -0.0014  0.8732
   54MOL0     C 7358   6.595   1.247   1.892 -0.2202  0.1351  0.5027
   54MOL0    Cl 7359   6.616   1.128   1.759  0.0228  0.1394  0.2314
   54MOL0     C 7360   5.686   1.103   2.444  0.6231 -0.1815  0.4263
   54MOL0     C 7361   5.561   1.130   2.502  0.0931  0.2152  0.7009
   54MOL0     O 7362   5.361   1.332   2.598  0.3673 -0.1283 -0.2612
   54MOL0     C 7363   5.135   1.275   2.763  0.0782  0.1097  1.0072
   54MOL0     C 7364   5.009   1.261   2.825  0.3445 -0.9116 -0.2346
   54MOL0     N 7365   4.452   1.312   3.171 -0.0452  0.3700  0.4541
   54MOL0     N 7366   4.401   1.316   3.288 -0.7365 -0.7795 -0.9643
   54MOL0     C 7367   3.212   1.326   3.040 -0.1769 -0.0818  0.7832
   54MOL0     C 7368   3.079   1.295   3.018  1.5065 -1.3258 -0.2132
   54MOL0     C 7369   2.683   1.287   2.797 -1.0556 -0.2950 -0.5553
   54MOL0     C 7370   2.628   1.311   2.669 -0.0591 -1.1786 -0.5228
   54MOL0     C 7371   2.511   1.251   2.633  0.6587 -0.3059 -0.7943
   54MOL0     C 7372   2.436   1.162   2.713 -0.9381  0.6305 -0.8272
   54MOL0     O 7373   2.330   1.108   2.651  1.2861  0.6603 -0.4184
   54MOL0     C 7374   2.254   1.003   2.714  0.3404 -0.7034 -0.5754
   54MOL0     C 7375   2.190   0.938   2.593  0.0809 -1.1576  0.9670
   54MOL0     C 7376   2.287   0.846   2.512 -0.1919  0.8224  1.0610
   54MOL0     C 7377   2.206   0.732   2.442  0.6102 -0.4450 -1.0378
   54MOL0     C 7378   2.145   0.781   2.325 -0.5035 -0.4489  0.5829
   54MOL0     C 7379   2.092   0.847   2.236  0.2496 -0.8998  0.7733
   54MOL0     C 7380   2.485   1.147   2.840 -0.2572 -0.4647  0.3511
   54MOL0     C 7381   2.614   1.200   2.879 -0.1891  0.1063 -0.1792
   54MOL0     C 7382   2.661   1.152   3.007  0.4223  0.0295  0.5658
   54MOL0     H 7383   2.950   1.588   2.916 -0.1201 -2.1681 -2.6751
   54MOL0     H 7384   3.175   1.653   2.955  1.5567 -1.5755 -1.1295
   54MOL0     H 7385   3.439   1.685   3.039  2.7636  1.2060 -1.8237
   54MOL0     H 7386   3.411   1.625   2.879 -1.7123  1.5871  1.0143
   54MOL0     H 7387   3.625   1.489   2.895 -4.2599  1.4709 -2.1160
   54MOL0     H 7388   3.643   1.660   2.924  0.0270  0.2640  0.3045
   54MOL0     H 7389   3.662   1.651   3.155  2.1717  0.0800  1.2654
   54MOL0     H 7390   3.618   1.476   3.164  0.6389  2.0042  0.5487
   54MOL0     H 7391   3.808   1.401   3.084 -1.7803 -0.5568  0.7967
   54MOL0     H 7392   3.876   1.555   3.033 -1.7237  2.0139  0.9010
   54MOL0     H 7393   3.822   1.439   3.309  0.4011  0.4100  0.1674
   54MOL0     H 7394   3.881   1.599   3.284 -1.9060  0.0339 -0.4596
   54MOL0     H 7395   4.034   1.343   3.265  0.2596 -0.0864 -1.0875
   54MOL0     H 7396   4.078   1.479   3.154 -0.3179 -1.1374  0.1554
   54MOL0     H 7397   4.048   1.505   3.474 -0.3437 -1.2954 -0.6152
   54MOL0     H 7398   4.108   1.628   3.358 -0.5236 -0.4465 -2.4279
   54MOL0     H 7399   4.293   1.513   3.492 -1.6685  0.7964  0.2817
   54MOL0     H 7400   4.226   1.367   3.454 -0.4329  2.2160  4.0462
   54MOL0     H 7401   4.294   1.600   3.162 -0.2866 -0.7610 -1.0672
   54MOL0     H 7402   4.476   1.555   2.963  1.4351  0.2930 -1.9790
   54MOL0     H 7403   4.348   1.448   2.900  0.9167 -0.7634 -0.5514
   54MOL0     H 7404   4.537   1.401   2.780  2.2401 -0.3132 -1.2392
   54MOL0     H 7405   4.639   1.400   2.931 -0.4043  0.2167  0.4389
   54MOL0     H 7406   4.548   1.180   2.981 -0.5818  0.0498 -0.3785
   54MOL0     H 7407   4.437   1.198   2.846  0.0154  1.0443 -0.5896
   54MOL0     H 7408   4.662   1.056   2.787  1.9102 -0.6454  1.5293
   54MOL0     H 7409   4.646   1.208   2.685 -0.6104 -1.1257 -0.1442
   54MOL0     H 7410   4.821   1.152   2.585  0.1377  0.2699 -0.1987
   54MOL0     H 7411   5.011   1.066   2.414 -2.5728  1.1430  1.6406
   54MOL0     H 7412   5.100   1.193   2.333 -1.0958 -1.4937 -2.9432
   54MOL0     H 7413   4.927   1.202   2.362 -0.4732 -2.9212 -0.3670
   54MOL0     H 7414   5.342   1.120   2.246 -1.1947 -1.8289  3.1231
   54MOL0     H 7415   5.550   1.042   2.129 -1.9204 -0.5413 -0.2950
   54MOL0     H 7416   5.783   0.998   2.059 -0.6818 -1.4527  1.3879
   54MOL0     H 7417   5.780   1.174   2.106 -2.5538 -0.7767  3.8382
   54MOL0     H 7418   6.001   1.179   2.157 -0.0970  1.2202 -2.0016
   54MOL0     H 7419   6.019   1.002   2.129  2.3938  0.6370  2.2907
   54MOL0     H 7420   5.963   1.233   1.928  1.1555 -0.1513 -2.8202
   54MOL0     H 7421   5.921   1.065   1.891  1.0027  0.4662 -0.7452
   54MOL0     H 7422   6.120   1.103   1.799 -0.4625  0.8228 -0.0563
   54MOL0     H 7423   6.157   0.996   1.939 -0.8298 -0.1983  1.0304
   54MOL0     H 7424   6.228   1.286   1.983  0.0349 -0.6618  0.0347
   54MOL0     H 7425   6.242   1.144   2.088 -2.3990  1.6259  1.2119
   54MOL0     H 7426   6.354   1.177   1.816 -0.5737  1.6933  0.3388
   54MOL0     H 7427   6.384   1.023   1.905 -2.2278 -0.3311  0.1076
   54MOL0     H 7428   6.533   1.109   2.042 -2.8824 -3.0190 -1.5575
   54MOL0     H 7429   6.464   1.260   2.071 -5.0617 -0.2549 -0.0991
   54MOL0     H 7430   6.689   1.271   1.943 -0.1758  0.9971  0.0354
   54MOL0     H 7431   6.559   1.338   1.843  1.9374  1.2267  0.8435
   54MOL0     H 7432   5.780   1.114   2.498  1.3632  0.2980 -0.9164
   54MOL0     H 7433   5.547   1.147   2.608 -0.2243  1.8349  0.4225
   54MOL0     H 7434   5.225   1.309   2.813  0.2629 -0.3175  0.9720
   54MOL0     H 7435   4.994   1.291   2.928  0.0109  2.0048 -1.0653
   54MOL0     H 7436   3.283   1.252   3.074  0.1878 -0.1593 -0.1153
   54MOL0     H 7437   3.033   1.199   3.042  0.8791 -0.6682  1.3941
   54MOL0     H 7438   2.685   1.387   2.617  0.6526  0.6316  2.6514
   54MOL0     H 7439   2.478   1.275   2.532  0.7237 -0.9598 -0.9775
   54MOL0     H 7440   2.316   0.924   2.756  0.3160  0.2213  1.2842
   54MOL0     H 7441   2.183   1.039   2.789  1.3722 -1.2694  0.7119
   54MOL0     H 7442   2.146   1.016   2.530  0.8809  0.4933  2.4126
   54MOL0     H 7443   2.109   0.870   2.623  0.3298 -2.4652 -1.0864
   54MOL0     H 7444   2.347   0.903   2.440 -0.6272  1.5737  1.2816
   54MOL0     H 7445   2.360   0.805   2.582 -2.6942 -1.6932  2.3516
   54MOL0     H 7446   2.137   0.678   2.508  0.9218 -0.0905 -0.4105
   54MOL0     H 7447   2.278   0.655   2.412 -0.2127 -2.6395  2.0747
   54MOL0     H 7448   2.034   0.904   2.165 -0.0204 -1.1408  0.7984
   54MOL0     H 7449   2.424   1.085   2.905 -0.1936  0.2584  1.1180
   54MOL0     H 7450   2.593   1.083   3.057 -1.2840  1.8685  0.9120
   54MOL0     H 7451   2.745   1.089   2.977 -1.5016 -0.9926 -3.2413
   54MOL0     H 7452   2.695   1.229   3.077  2.0455  0.4121 -0.6021
   55MOL0     O 7453   2.472   1.632   2.440 -0.4143 -0.7277  0.4203
   55MOL0     C 7454   2.379   1.683   2.510 -0.1367 -0.4933 -0.3743
   55MOL0     O 7455   2.399   1.766   2.622 -0.3444  0.7606  0.5475
   55MOL0     C 7456   2.526   1.793   2.662 -0.3559 -0.3279 -0.5182
   55MOL0     C 7457   2.612   1.689   2.684 -0.4073 -0.5847 -0.2054
   55MOL0     C 7458   2.744   1.709   2.729  0.2018 -0.9796 -0.4786
   55MOL0     C 7459   2.786   1.840   2.752  0.8159 -0.4209 -0.1896
   55MOL0     O 7460   2.911   1.867   2.793  0.5460 -1.0630  0.1619
   55MOL0     C 7461   2.932   1.971   2.898 -0.4815 -0.2373 -0.1959
   55MOL0     C 7462   3.044   2.074   2.838  0.3117  0.7842 -0.5124
   55MOL0     C 7463   3.141   2.136   2.933  0.6723  0.4724 -0.2458
   55MOL0     C 7464   3.241   2.031   2.992  0.7165 -0.2885 -0.1060
   55MOL0     C 7465   3.361   2.009   2.900 -0.8744  0.1815 -0.2359
   55MOL0     C 7466   3.497   2.000   2.970 -0.8431  0.0995  0.1049
   55MOL0     C 7467   3.603   1.988   2.871 -0.3382  0.0744 -0.2406
   55MOL0     C 7468   3.641   2.128   2.821  1.0144 -0.0940 -0.7323
   55MOL0     N 7469   3.772   2.129   2.769 -0.1463  0.6174  0.0220
   55MOL0     C 7470   3.797   2.110   2.644 -0.4653  0.6447  0.1372
   55MOL0     C 7471   3.927   2.129   2.625 -0.0199  0.7252  0.0168
   55MOL0     C 7472   4.017   2.134   2.505 -0.3393  0.0524  0.6457
   55MOL0     C 7473   4.003   2.262   2.425  0.1316 -0.2786 -0.8031
   55MOL0     C 7474   4.033   2.250   2.279 -0.1147 -0.8501 -0.1723
   55MOL0     C 7475   4.164   2.307   2.235  0.0217 -0.6189  0.2431
   55MOL0     O 7476   4.279   2.232   2.291  0.5568  0.5057 -0.3574
   55MOL0     C 7477   4.406   2.279   2.268 -0.8639 -0.0990  0.5037
   55MOL0     C 7478   4.518   2.195   2.297 -0.4586 -0.0720 -0.6658
   55MOL0     C 7479   4.652   2.231   2.267  0.1700 -0.3769 -0.6886
   55MOL0     C 7480   4.750   2.121   2.293  0.1853  0.0848 -0.1656
   55MOL0     C 7481   4.683   2.358   2.206  0.2178  0.3917 -0.3862
   55MOL0     C 7482   4.810   2.413   2.179  0.2464 -0.9620  0.2105
   55MOL0     O 7483   4.895   2.382   2.274 -0.4982  0.1717  0.0061
   55MOL0     C 7484   5.015   2.444   2.300 -0.8268 -0.2309 -0.2958
   55MOL0     C 7485   5.119   2.365   2.340 -0.7463  0.4267  0.7526
   55MOL0     C 7486   5.253   2.411   2.351 -0.2289 -0.3081  0.6453
   55MOL0     C 7487   5.278   2.544   2.309 -0.0589  0.5197  0.2726
   55MOL0     O 7488   5.398   2.610   2.287  0.3517  0.3833 -0.2439
   55MOL0     C 7489   5.522   2.543   2.321 -0.5125  0.3483 -0.0733
   55MOL0     C 7490   5.575   2.450   2.222 -1.0394  1.3695 -0.2747
   55MOL0     C 7491   5.715   2.390   2.242  0.2694 -0.5977  0.6733
   55MOL0     C 7492   5.827   2.485   2.266 -0.2519 -0.7487 -0.1535
   55MOL0     C 7493   5.965   2.409   2.284  0.8801  0.3648 -0.4808
   55MOL0     C 7494   6.072   2.494   2.344  0.0511  0.2600 -0.3814
   55MOL0     C 7495   6.180   2.409   2.406 -0.0120 -0.7479 -0.5785
   55MOL0     C 7496   6.263   2.490   2.503  0.0060 -0.5687 -1.2470
   55MOL0    Cl 7497   6.343   2.629   2.424 -0.1260 -0.6242 -0.2500
   55MOL0     C 7498   5.175   2.624   2.266  0.3103  0.1215 -0.2868
   55MOL0     C 7499   5.041   2.581   2.265  1.1794  0.5975  0.0086
   55MOL0     O 7500   4.837   2.477   2.079 -0.1508 -0.4395  0.2993
   55MOL0     C 7501   4.565   2.427   2.158 -0.6124 -0.6583  0.2591
   55MOL0     C 7502   4.437   2.402   2.193 -0.0004  0.4805  0.0208
   55MOL0     N 7503   3.978   2.177   2.739  0.1457 -0.0546  0.0870
   55MOL0     N 7504   3.884   2.174   2.826 -0.3813 -0.2457  0.5234
   55MOL0     C 7505   2.698   1.937   2.739 -0.0255 -0.1714 -0.3231
   55MOL0     C 7506   2.573   1.924   2.686 -0.3372 -0.4756 -0.2775
   55MOL0     C 7507   2.237   1.657   2.469 -0.3080 -0.3655 -0.5851
   55MOL0     C 7508   2.190   1.528   2.442  0.3567 -0.7061 -0.4491
   55MOL0     C 7509   2.063   1.510   2.396  0.2132  0.4205 -1.0392
   55MOL0     C 7510   1.980   1.624   2.373  0.8418  0.0515  0.1029
   55MOL0     O 7511   1.844   1.621   2.338 -0.5782 -0.5642  0.0606
   55MOL0     C 7512   1.797   1.487   2.317 -0.7985  0.4375  0.2810
   55MOL0     C 7513   1.651   1.474   2.270  0.5267  1.1444  0.6146
   55MOL0     C 7514   1.588   1.333   2.256 -0.2207  0.2281 -0.2711
   55MOL0     C 7515   1.616   1.248   2.373 -0.5127 -0.4418 -0.1234
   55MOL0     C 7516   1.525   1.127   2.355  0.0253  0.3497  0.2683
   55MOL0     C 7517   1.477   1.021   2.329 -0.3663  0.5795  0.1132
   55MOL0     C 7518   2.033   1.750   2.403  0.4348  0.1875 -0.1760
   55MOL0     C 7519   2.158   1.767   2.451 -0.5561 -0.3385 -0.2682
   55MOL0     C 7520   2.195   1.910   2.480 -0.0696 -0.1987  0.5332
   55MOL0     H 7521   2.582   1.587   2.664 -3.1047 -0.3705  2.1090
   55MOL0     H 7522   2.813   1.626   2.736  1.9422  0.2715 -1.8948
   55MOL0     H 7523   2.967   1.918   2.988  0.3087  0.0745 -0.3062
   55MOL0     H 7524   2.840   2.024   2.923 -1.6847 -1.7247 -1.3391
   55MOL0     H 7525   3.096   2.016   2.762 -3.3123 -1.6994 -1.3601
   55MOL0     H 7526   2.996   2.158   2.786  0.6213  1.3124  0.0336
   55MOL0     H 7527   3.185   2.216   2.873 -0.9608 -0.6488 -3.1927
   55MOL0     H 7528   3.084   2.177   3.017 -3.1761 -2.6994 -0.9581
   55MOL0     H 7529   3.284   2.086   3.076  2.0226 -2.4619  0.7343
   55MOL0     H 7530   3.205   1.941   3.043 -0.2948  0.3261  0.2990
   55MOL0     H 7531   3.368   2.087   2.824 -1.5531  0.9763  0.4907
   55MOL0     H 7532   3.358   1.909   2.857  4.3057 -0.4278  0.2322
   55MOL0     H 7533   3.523   2.080   3.041 -3.2101  0.7023  0.3726
   55MOL0     H 7534   3.493   1.909   3.031  0.7090  0.8905  1.4937
   55MOL0     H 7535   3.584   1.918   2.789  0.4092  0.1312 -0.4668
   55MOL0     H 7536   3.688   1.942   2.923  1.2989  1.8831 -1.2033
   55MOL0     H 7537   3.568   2.157   2.744 -0.0572  0.0042  0.2935
   55MOL0     H 7538   3.639   2.198   2.905  1.7300 -3.3075  2.1725
   55MOL0     H 7539   3.721   2.081   2.573 -1.8324  1.8376  1.0434
   55MOL0     H 7540   3.970   2.054   2.447 -0.1945  0.1324  0.4135
   55MOL0     H 7541   4.120   2.112   2.533  1.1216  2.4816 -2.1397
   55MOL0     H 7542   3.899   2.293   2.440 -0.1371 -1.2156 -0.6485
   55MOL0     H 7543   4.075   2.334   2.466  0.1756  0.9675 -2.9291
   55MOL0     H 7544   4.037   2.146   2.245  0.1652 -0.4953 -1.2825
   55MOL0     H 7545   3.952   2.298   2.223 -0.9008 -1.3634  0.5060
   55MOL0     H 7546   4.175   2.293   2.127  1.9428  0.3867  0.2520
   55MOL0     H 7547   4.163   2.414   2.257 -2.9852 -0.1246 -1.7919
   55MOL0     H 7548   4.492   2.098   2.338 -2.6222  0.6603 -0.1542
   55MOL0     H 7549   4.718   2.016   2.290  1.2286 -0.2367 -0.6213
   55MOL0     H 7550   4.815   2.133   2.380 -0.2801 -1.6692  0.4594
   55MOL0     H 7551   4.814   2.116   2.204 -1.9486  0.2531 -1.7929
   55MOL0     H 7552   5.100   2.259   2.352 -0.3313  0.0310 -1.5752
   55MOL0     H 7553   5.329   2.338   2.376  1.1626  0.5196 -0.9706
   55MOL0     H 7554   5.596   2.622   2.338  0.3143 -0.7329  1.5524
   55MOL0     H 7555   5.507   2.490   2.415 -1.3421  1.9205  0.7144
   55MOL0     H 7556   5.503   2.367   2.216 -1.1097  1.4425 -0.4446
   55MOL0     H 7557   5.569   2.497   2.124 -0.6452  0.8952 -0.5320
   55MOL0     H 7558   5.736   2.344   2.145  0.5290 -0.2987  0.5881
   55MOL0     H 7559   5.707   2.305   2.311 -2.5394 -2.3734 -1.5595
   55MOL0     H 7560   5.800   2.538   2.358  0.3052 -0.0900 -0.3636
   55MOL0     H 7561   5.830   2.558   2.184  2.4905 -1.7850 -1.0929
   55MOL0     H 7562   5.944   2.327   2.353  0.1478  2.0796  1.4346
   55MOL0     H 7563   5.989   2.370   2.184  0.1917 -0.1853 -0.4455
   55MOL0     H 7564   6.024   2.556   2.420 -3.0726 -2.8145  0.4408
   55MOL0     H 7565   6.110   2.564   2.269  0.2631  1.0340  0.4361
   55MOL0     H 7566   6.260   2.368   2.344  2.0334 -0.9484  2.0088
   55MOL0     H 7567   6.138   2.326   2.465 -0.6769 -0.8555 -1.1944
   55MOL0     H 7568   6.332   2.422   2.553  1.3674  0.6317 -1.4435
   55MOL0     H 7569   6.187   2.529   2.572 -0.1084 -1.7464 -0.6894
   55MOL0     H 7570   5.210   2.723   2.240 -1.1841  1.2371  1.6880
   55MOL0     H 7571   4.957   2.642   2.231 -0.8032 -0.3083  2.9451
   55MOL0     H 7572   4.593   2.503   2.087 -0.9893 -0.3725  0.4142
   55MOL0     H 7573   4.362   2.460   2.142 -2.1696 -1.1703  1.1550
   55MOL0     H 7574   2.728   2.039   2.761 -1.5651  0.5404 -1.3669
   55MOL0     H 7575   2.501   2.004   2.675  0.3917  0.4694  1.4532
   55MOL0     H 7576   2.251   1.440   2.459 -2.0465 -2.0957  1.7555
   55MOL0     H 7577   2.036   1.407   2.378  2.1613 -0.3627  0.1806
   55MOL0     H 7578   1.861   1.451   2.236 -1.0261  2.2453 -0.7605
   55MOL0     H 7579   1.813   1.425   2.406  2.3872 -0.6737 -0.9370
   55MOL0     H 7580   1.648   1.514   2.168 -0.0279 -0.8047 -0.1666
   55MOL0     H 7581   1.586   1.534   2.335 -0.6544  0.4284  0.1273
   55MOL0     H 7582   1.483   1.350   2.229 -0.1017  0.7394 -0.4215
   55MOL0     H 7583   1.622   1.288   2.163 -0.9100  0.3592 -0.5994
   55MOL0     H 7584   1.603   1.286   2.475 -0.1060 -1.2769  0.2439
   55MOL0     H 7585   1.718   1.210   2.363  0.1431  0.9909  0.7038
   55MOL0     H 7586   1.418   0.931   2.327 -0.5490  0.7129 -0.9789
   55MOL0     H 7587   1.971   1.838   2.388 -0.0643 -0.2676 -0.8893
   55MOL0     H 7588   2.152   1.979   2.407 -0.3174 -1.0717 -0.1707
   55MOL0     H 7589   2.156   1.929   2.581 -2.8762  0.3365 -0.5608
   55MOL0     H 7590   2.302   1.934   2.484 -0.4502  1.5258  1.3656
   56MOL0     O 7591   4.347  11.212   0.346 -0.7487 -0.2858  0.5861
   56MOL0     C 7592   4.309  11.103   0.321 -0.3919  0.1672  0.2062
   56MOL0     O 7593   4.390  10.986   0.311  0.0450  0.2345 -0.2947
   56MOL0     C 7594   4.526  11.014   0.303 -0.5736 -0.5069 -0.3965
   56MOL0     C 7595   4.597  11.084   0.406 -0.2958 -0.1203  0.0814
   56MOL0     C 7596   4.730  11.114   0.381  0.1057 -0.3917  0.5323
   56MOL0     C 7597   4.801  11.081   0.265  0.4310 -0.2754  0.9064
   56MOL0     O 7598   4.936  11.111   0.261  1.2665  0.2449 -0.0887
   56MOL0     C 7599   5.006  11.117   0.139  0.4970 -0.3150  0.0920
   56MOL0     C 7600   5.159  11.100   0.156 -0.7638 -0.4280 -0.8110
   56MOL0     C 7601   5.231  11.100   0.025 -0.7639  0.1650  1.1770
   56MOL0     C 7602   5.359  11.181   0.039 -0.6873 -0.2919  0.4762
   56MOL0     C 7603   5.435  11.173  -0.099  0.7025  0.4506 -0.9584
   56MOL0     C 7604   5.560  11.252  -0.094 -0.1568 -0.4310 -0.0994
   56MOL0     C 7605   5.678  11.204  -0.008 -0.5565  1.0010  0.1455
   56MOL0     C 7606   5.742  11.082  -0.054  0.4380  0.1634  0.0563
   56MOL0     N 7607   5.810  11.094  -0.180  0.1545  0.2141 -0.2835
   56MOL0     C 7608   5.894  11.192  -0.215 -0.0073  0.2994  0.7987
   56MOL0     C 7609   5.930  11.160  -0.341 -0.1981  0.5041 -0.9496
   56MOL0     C 7610   6.050  11.227  -0.405 -0.1170 -0.0958 -0.6231
   56MOL0     C 7611   6.183  11.157  -0.401  0.0785 -0.1769  0.5593
   56MOL0     C 7612   6.167  11.009  -0.462  0.1651 -0.5822  0.5026
   56MOL0     C 7613   6.307  10.960  -0.526  0.5888 -0.2232 -0.6452
   56MOL0     O 7614   6.408  10.964  -0.411 -0.4010  0.7876 -0.0739
   56MOL0     C 7615   6.535  11.017  -0.435  0.6105  0.1694  0.3326
   56MOL0     C 7616   6.589  11.099  -0.340 -0.0435 -0.0592 -0.3030
   56MOL0     C 7617   6.725  11.153  -0.356 -0.1745  0.6648 -0.0888
   56MOL0     C 7618   6.794  11.228  -0.242 -0.8938  0.1016 -0.0703
   56MOL0     C 7619   6.785  11.156  -0.487 -1.1988  0.1341 -0.2192
   56MOL0     C 7620   6.923  11.210  -0.508  0.4225 -0.1478  0.2915
   56MOL0     O 7621   7.001  11.141  -0.603 -0.5419 -0.5482  0.6259
   56MOL0     C 7622   7.137  11.180  -0.612  0.4618  0.6593  0.2935
   56MOL0     C 7623   7.166  11.281  -0.701  0.4667 -0.1460 -0.7837
   56MOL0     C 7624   7.296  11.325  -0.703  0.9268 -0.4597  0.0920
   56MOL0     C 7625   7.396  11.265  -0.629 -1.0058 -0.6266  0.1945
   56MOL0     O 7626   7.521  11.325  -0.622 -0.8826  0.4933  0.3748
   56MOL0     C 7627   7.599  11.318  -0.744 -0.6875 -0.1487  0.2125
   56MOL0     C 7628   7.686  11.191  -0.736  0.5294  0.5850  0.8552
   56MOL0     C 7629   7.804  11.191  -0.831 -0.0089 -0.1936 -0.2995
   56MOL0     C 7630   7.912  11.294  -0.792 -1.1543  0.0003  0.4419
   56MOL0     C 7631   8.020  11.328  -0.898  0.3586  0.4160 -0.4524
   56MOL0     C 7632   8.097  11.459  -0.866  0.1683  0.3476  0.8956
   56MOL0     C 7633   8.146  11.487  -0.725 -0.0316 -0.8235 -0.8339
   56MOL0     C 7634   8.160  11.640  -0.700  0.5620 -0.3357 -1.0309
   56MOL0    Cl 7635   8.296  11.701  -0.786 -0.0618 -0.3093  0.1401
   56MOL0     C 7636   7.363  11.168  -0.535 -0.2678  0.3892 -0.2243
   56MOL0     C 7637   7.229  11.124  -0.527 -0.1865  0.6350 -0.3027
   56MOL0     O 7638   6.951  11.318  -0.459 -0.0816  0.2105 -0.1171
   56MOL0     C 7639   6.730  11.079  -0.584  0.7839 -0.8346  0.7889
   56MOL0     C 7640   6.603  11.013  -0.560 -0.4407 -0.4620 -0.2608
   56MOL0     N 7641   5.868  11.040  -0.381 -1.2864 -0.3917  0.0608
   56MOL0     N 7642   5.790  11.013  -0.287  0.1033 -0.5618 -0.7064
   56MOL0     C 7643   4.742  10.992   0.185  0.0126 -0.8246 -0.3066
   56MOL0     C 7644   4.605  10.964   0.191  0.0291  0.6136 -0.3785
   56MOL0     C 7645   4.166  11.075   0.297 -0.6811 -0.2921  0.0730
   56MOL0     C 7646   4.114  10.944   0.293 -0.4987 -0.0368 -0.6327
   56MOL0     C 7647   3.987  10.911   0.243  0.5354  0.0143 -0.0808
   56MOL0     C 7648   3.891  11.011   0.224 -0.2129 -1.2104  0.3120
   56MOL0     O 7649   3.766  10.993   0.171  0.1679  0.4890  0.3741
   56MOL0     C 7650   3.666  11.080   0.210 -0.3527  0.8081 -0.6345
   56MOL0     C 7651   3.529  11.027   0.138 -1.1602  0.1236 -0.6350
   56MOL0     C 7652   3.406  11.113   0.186  0.2759  0.6992  0.7790
   56MOL0     C 7653   3.377  11.257   0.135  0.0267  1.6907  1.0977
   56MOL0     C 7654   3.236  11.301   0.151 -1.1879  0.2334  0.5403
   56MOL0     C 7655   3.124  11.343   0.165  0.5402  0.1707  1.1752
   56MOL0     C 7656   3.938  11.141   0.254 -0.6806  0.6945  0.8623
   56MOL0     C 7657   4.072  11.178   0.280 -0.8856 -0.1845 -0.3583
   56MOL0     C 7658   4.099  11.329   0.301  0.3193 -0.1495  0.0487
   56MOL0     H 7659   4.542  11.112   0.495 -1.5625 -2.4203  0.0962
   56MOL0     H 7660   4.789  11.166   0.456 -0.3914  0.2828  0.4727
   56MOL0     H 7661   4.992  11.220   0.106  1.4811  0.7532  2.7388
   56MOL0     H 7662   4.967  11.051   0.061 -2.1623 -0.6341  1.6037
   56MOL0     H 7663   5.191  11.189   0.210 -1.3171  0.6606 -2.2047
   56MOL0     H 7664   5.185  11.006   0.205 -0.5674 -0.8177 -1.6401
   56MOL0     H 7665   5.240  10.996  -0.007 -1.8791  0.5653 -0.5572
   56MOL0     H 7666   5.165  11.146  -0.048 -1.3733 -0.6246  1.2137
   56MOL0     H 7667   5.341  11.289   0.047 -2.5398 -0.3511 -1.8360
   56MOL0     H 7668   5.418  11.154   0.128 -0.0741  3.3109  1.3157
   56MOL0     H 7669   5.363  11.213  -0.170 -1.2178 -0.3801  0.4515
   56MOL0     H 7670   5.465  11.069  -0.117  0.3218  0.1448  0.0496
   56MOL0     H 7671   5.592  11.283  -0.194 -0.3264  2.0591  0.5514
   56MOL0     H 7672   5.535  11.345  -0.042 -0.8402 -0.0209 -1.1235
   56MOL0     H 7673   5.648  11.182   0.095 -1.3411 -0.6293 -0.3946
   56MOL0     H 7674   5.756  11.279   0.007  0.4851  0.0215 -0.2368
   56MOL0     H 7675   5.816  11.055   0.022 -0.4506  0.0541  0.8969
   56MOL0     H 7676   5.664  11.007  -0.062 -0.9402  1.4816  0.6540
   56MOL0     H 7677   5.929  11.269  -0.147 -0.9899 -1.3043  3.2305
   56MOL0     H 7678   6.057  11.320  -0.349 -1.1416  0.3947 -1.2905
   56MOL0     H 7679   6.026  11.239  -0.511  0.5605 -0.9480 -0.8915
   56MOL0     H 7680   6.247  11.207  -0.475  0.7424 -4.0049 -1.7815
   56MOL0     H 7681   6.215  11.162  -0.297  1.0421  0.1927  0.2613
   56MOL0     H 7682   6.126  10.931  -0.398 -1.2572 -1.7571 -1.7138
   56MOL0     H 7683   6.105  11.009  -0.552 -0.3561  0.5374  0.8390
   56MOL0     H 7684   6.294  10.862  -0.573 -0.5448  0.8816 -2.7881
   56MOL0     H 7685   6.322  11.033  -0.606  2.4480  0.6256  0.4119
   56MOL0     H 7686   6.546  11.098  -0.240 -0.0404 -0.6765 -0.3013
   56MOL0     H 7687   6.767  11.332  -0.263 -4.4352 -0.8476 -0.9494
   56MOL0     H 7688   6.901  11.208  -0.230 -1.1412  0.4288  4.1892
   56MOL0     H 7689   6.757  11.199  -0.144  0.8160  0.5473  0.7416
   56MOL0     H 7690   7.103  11.324  -0.778  0.3546  0.2312 -0.4859
   56MOL0     H 7691   7.319  11.405  -0.773 -2.7305  0.3276 -0.4061
   56MOL0     H 7692   7.534  11.320  -0.832 -2.7806 -0.4708  1.6838
   56MOL0     H 7693   7.672  11.399  -0.754  1.1571 -1.5373  1.6802
   56MOL0     H 7694   7.720  11.190  -0.632  1.2126 -0.0213  0.6394
   56MOL0     H 7695   7.624  11.104  -0.760  1.9834 -0.6984  1.5671
   56MOL0     H 7696   7.767  11.210  -0.932  3.1317 -0.5537 -1.6433
   56MOL0     H 7697   7.839  11.087  -0.836  0.4691 -0.2169  2.2546
   56MOL0     H 7698   7.972  11.255  -0.710  0.0809 -2.8554 -1.6434
   56MOL0     H 7699   7.872  11.393  -0.770 -0.3624  1.1935 -2.8159
   56MOL0     H 7700   8.083  11.238  -0.899  0.2413  0.1963  2.5066
   56MOL0     H 7701   7.962  11.349  -0.988 -0.3839 -2.0822 -0.6183
   56MOL0     H 7702   8.026  11.532  -0.905 -1.0488 -0.5608  1.3340
   56MOL0     H 7703   8.188  11.470  -0.926  0.1097 -2.0928  0.2559
   56MOL0     H 7704   8.239  11.430  -0.710 -0.3143 -1.3620 -1.0989
   56MOL0     H 7705   8.084  11.445  -0.646  1.2637 -0.0193  0.6782
   56MOL0     H 7706   8.169  11.656  -0.592  1.2444 -1.3452 -0.9339
   56MOL0     H 7707   8.065  11.691  -0.720 -0.4445 -1.2714  1.0328
   56MOL0     H 7708   7.431  11.119  -0.466 -3.6468 -2.9286  1.0921
   56MOL0     H 7709   7.210  11.036  -0.467  1.6109  0.0054 -0.5819
   56MOL0     H 7710   6.777  11.066  -0.682  2.5352  1.9819  1.1379
   56MOL0     H 7711   6.555  10.948  -0.631 -0.4179 -1.5309  0.6823
   56MOL0     H 7712   4.796  10.939   0.108  1.3078 -1.4700  1.0142
   56MOL0     H 7713   4.569  10.885   0.126  2.2624 -2.0822  1.3975
   56MOL0     H 7714   4.177  10.862   0.326  1.1002  1.2459 -0.3666
   56MOL0     H 7715   3.946  10.813   0.218 -2.4702  0.4698  2.3918
   56MOL0     H 7716   3.668  11.057   0.317  0.8393 -1.9345 -1.1628
   56MOL0     H 7717   3.682  11.187   0.194  1.0769  0.6467 -0.3684
   56MOL0     H 7718   3.516  10.924   0.172  0.3114 -0.2693 -1.1862
   56MOL0     H 7719   3.551  11.030   0.031  1.9885 -4.0375 -0.3848
   56MOL0     H 7720   3.322  11.048   0.159  1.4809 -0.7314  0.3700
   56MOL0     H 7721   3.415  11.115   0.295 -1.1502  1.0466  0.9131
   56MOL0     H 7722   3.390  11.252   0.026  1.1028  2.1129  1.1899
   56MOL0     H 7723   3.442  11.335   0.176 -0.1249  3.8016 -2.2449
   56MOL0     H 7724   3.020  11.365   0.171  0.6746  1.9989 -1.3163
   56MOL0     H 7725   3.871  11.224   0.239 -1.2007  0.0730 -0.4241
   56MOL0     H 7726   4.014  11.397   0.288  0.7188  0.3323 -0.0586
   56MOL0     H 7727   4.127  11.335   0.407 -0.0175  0.4072  0.1117
   56MOL0     H 7728   4.177  11.365   0.234 -2.1434  4.2185 -0.8389
   57MOL0     O 7729   0.238   5.022   9.902  0.1474 -0.2383 -0.0560
   57MOL0     C 7730   0.209   5.071  10.011  0.2391  0.4802 -0.4449
   57MOL0     O 7731   0.302   5.083  10.120 -0.3334  0.3763  0.2272
   57MOL0     C 7732   0.430   5.043  10.092 -0.3763 -0.0328  0.4064
   57MOL0     C 7733   0.476   4.918  10.123 -0.9902  0.5422  0.3005
   57MOL0     C 7734   0.609   4.897  10.122  0.1813  0.3782  0.3564
   57MOL0     C 7735   0.705   4.986  10.078  0.5533 -0.9729 -0.0052
   57MOL0     O 7736   0.850   4.978  10.074 -0.0349  0.0206  0.1946
   57MOL0     C 7737   0.908   4.887  10.174 -1.0203  0.3435 -0.3133
   57MOL0     C 7738   1.044   4.928  10.233  0.6141  0.6002 -0.5459
   57MOL0     C 7739   1.158   4.869  10.155 -0.0666 -0.3976 -0.3591
   57MOL0     C 7740   1.290   4.900  10.226 -0.0204  0.1216  0.2019
   57MOL0     C 7741   1.412   4.840  10.151 -0.2902  0.3165 -0.0853
   57MOL0     C 7742   1.405   4.691  10.132 -0.1023  0.6531  0.1317
   57MOL0     C 7743   1.402   4.609  10.266 -0.1927 -0.1118 -0.6352
   57MOL0     C 7744   1.475   4.475  10.249  0.3889  0.5468 -1.3714
   57MOL0     N 7745   1.393   4.384  10.162 -0.4433  0.1312  0.3966
   57MOL0     C 7746   1.354   4.261  10.214  0.1139  0.7865  0.1956
   57MOL0     C 7747   1.302   4.199  10.112  0.4778 -1.0515  0.2485
   57MOL0     C 7748   1.263   4.055  10.115  0.6417  0.7943 -0.5480
   57MOL0     C 7749   1.385   3.974  10.081  0.0961 -0.3287  0.2875
   57MOL0     C 7750   1.343   3.843  10.028 -0.5179  0.4522 -0.4417
   57MOL0     C 7751   1.474   3.758   9.992 -0.1604 -0.4524 -0.0287
   57MOL0     O 7752   1.525   3.690  10.108 -0.1092 -0.1265 -0.3949
   57MOL0     C 7753   1.666   3.686  10.116  0.2104 -1.1268  0.7611
   57MOL0     C 7754   1.725   3.605  10.022 -0.4569  0.7704  0.1134
   57MOL0     C 7755   1.862   3.581  10.031 -0.7386 -0.5307  0.1488
   57MOL0     C 7756   1.915   3.495   9.922  0.2331  0.2463  0.4764
   57MOL0     C 7757   1.941   3.648  10.124 -0.1727 -0.2907 -0.5315
   57MOL0     C 7758   2.088   3.642  10.120 -0.3624  1.0550  0.4704
   57MOL0     O 7759   2.165   3.643  10.238 -0.4332  0.3638 -0.2626
   57MOL0     C 7760   2.299   3.646  10.240  0.1995  0.1699 -0.5656
   57MOL0     C 7761   2.374   3.536  10.278 -0.2300  0.8291  0.7603
   57MOL0     C 7762   2.512   3.543  10.278 -0.5318  0.0288  0.1108
   57MOL0     C 7763   2.578   3.664  10.257  0.0030 -0.8386  0.1393
   57MOL0     O 7764   2.716   3.663  10.267 -0.3708  0.4775 -0.0811
   57MOL0     C 7765   2.799   3.764  10.213  1.5535  0.1333  0.0663
   57MOL0     C 7766   2.944   3.721  10.251  0.9659  0.4614 -1.1634
   57MOL0     C 7767   2.990   3.609  10.160  0.5468 -0.1808  0.0222
   57MOL0     C 7768   3.120   3.549  10.220  0.2122 -0.4836  0.0612
   57MOL0     C 7769   3.238   3.642  10.195  0.6514 -0.6496  0.0225
   57MOL0     C 7770   3.368   3.573  10.237 -0.3622 -0.5838  0.7079
   57MOL0     C 7771   3.390   3.551  10.392 -0.1744 -0.2773  0.3387
   57MOL0     C 7772   3.374   3.399  10.420 -0.8667  0.1124 -0.1142
   57MOL0    Cl 7773   3.512   3.318  10.330 -0.3796  0.0764  0.7894
   57MOL0     C 7774   2.503   3.779  10.231  0.3786  0.1765  0.2071
   57MOL0     C 7775   2.361   3.769  10.224  0.1922 -0.2913 -0.5824
   57MOL0     O 7776   2.134   3.651  10.004  0.1210 -1.5694 -0.1284
   57MOL0     C 7777   1.876   3.739  10.211  1.2757  0.2122 -0.8010
   57MOL0     C 7778   1.736   3.754  10.209 -0.1690  0.6654  0.3428
   57MOL0     N 7779   1.306   4.281   9.997  0.7063  0.1551 -0.3188
   57MOL0     N 7780   1.358   4.392  10.030 -0.5372 -0.0091 -0.1628
   57MOL0     C 7781   0.657   5.096  10.032 -0.1601 -1.0428  0.6066
   57MOL0     C 7782   0.519   5.136  10.038  0.4023  1.6726  0.2593
   57MOL0     C 7783   0.070   5.132  10.036  0.3835  0.5568 -0.0604
   57MOL0     C 7784   0.013   5.119  10.164  0.2802  0.7374  0.2081
   57MOL0     C 7785  -0.110   5.160  10.191  0.0625 -0.3180 -0.4905
   57MOL0     C 7786  -0.185   5.234  10.102 -0.1206  0.1494  0.2548
   57MOL0     O 7787  -0.307   5.270  10.150  0.4439  0.1673  0.8124
   57MOL0     C 7788  -0.412   5.297  10.053  0.7362  0.4259 -0.8807
   57MOL0     C 7789  -0.550   5.252  10.093 -0.0739  0.5594 -0.1470
   57MOL0     C 7790  -0.646   5.256   9.984 -0.1824  0.9018  0.9714
   57MOL0     C 7791  -0.781   5.178   9.998 -0.3734 -0.2984  0.8876
   57MOL0     C 7792  -0.850   5.178  10.126  0.0667  0.5973 -0.7498
   57MOL0     C 7793  -0.897   5.174  10.239  0.5422  0.0738 -0.3289
   57MOL0     C 7794  -0.133   5.272   9.981 -0.3259  0.0887  0.6805
   57MOL0     C 7795  -0.005   5.214   9.938 -0.1765 -0.3334 -0.4516
   57MOL0     C 7796   0.048   5.242   9.804 -0.4845  0.1837  0.0563
   57MOL0     H 7797   0.413   4.847  10.175  0.2741 -1.3075 -0.6023
   57MOL0     H 7798   0.640   4.803  10.166 -1.8856  0.0710  1.2307
   57MOL0     H 7799   0.924   4.792  10.124  1.2539  1.2469 -1.4377
   57MOL0     H 7800   0.840   4.861  10.256 -1.0030  1.4800  0.0845
   57MOL0     H 7801   1.057   5.036  10.237  1.9670  0.4622 -0.7689
   57MOL0     H 7802   1.038   4.885  10.333 -2.4913 -0.6619 -1.1338
   57MOL0     H 7803   1.136   4.762  10.150 -0.8172 -0.2055 -3.4903
   57MOL0     H 7804   1.159   4.913  10.055  0.6696 -0.2818 -0.3089
   57MOL0     H 7805   1.307   5.008  10.219 -1.8816  0.3707 -1.4408
   57MOL0     H 7806   1.283   4.882  10.334  0.5722 -1.0226  0.0625
   57MOL0     H 7807   1.500   4.881  10.202 -1.0768  1.3980  0.4281
   57MOL0     H 7808   1.413   4.874  10.047  0.9620  0.7455  0.0498
   57MOL0     H 7809   1.313   4.664  10.080  1.0854  0.2011 -1.8708
   57MOL0     H 7810   1.489   4.652  10.073  0.3302  2.6231 -0.6410
   57MOL0     H 7811   1.297   4.589  10.289 -0.1114 -1.3669 -1.2763
   57MOL0     H 7812   1.445   4.660  10.353  0.2586 -1.3876 -0.0665
   57MOL0     H 7813   1.575   4.487  10.205  1.0532  0.2885  0.0294
   57MOL0     H 7814   1.499   4.430  10.345 -0.2038  0.8428 -1.0760
   57MOL0     H 7815   1.366   4.214  10.311  0.1985 -0.8115 -0.5654
   57MOL0     H 7816   1.181   4.042  10.044  0.1281  3.1801 -0.4864
   57MOL0     H 7817   1.230   4.021  10.214 -0.4608  0.1234 -1.1188
   57MOL0     H 7818   1.430   4.029   9.998  1.1037 -2.5145 -0.6924
   57MOL0     H 7819   1.459   3.961  10.161  1.9348 -3.2643 -1.6981
   57MOL0     H 7820   1.280   3.785  10.096 -0.8777  0.8628 -0.4132
   57MOL0     H 7821   1.281   3.854   9.938  1.1617 -0.9690 -1.8227
   57MOL0     H 7822   1.448   3.690   9.910  2.0385 -0.3923 -0.8390
   57MOL0     H 7823   1.541   3.831   9.947 -0.3356 -0.1946  0.1276
   57MOL0     H 7824   1.671   3.539   9.956  1.7114 -1.9156  0.8317
   57MOL0     H 7825   1.966   3.551   9.843 -0.4875 -0.2150 -0.3273
   57MOL0     H 7826   1.833   3.443   9.872 -1.9922  2.7142  1.3019
   57MOL0     H 7827   1.981   3.414   9.955 -0.6422 -2.1029 -3.0363
   57MOL0     H 7828   2.336   3.437  10.300  0.3879  1.2947  4.5144
   57MOL0     H 7829   2.566   3.449  10.284  0.9914  0.9454  1.4735
   57MOL0     H 7830   2.786   3.770  10.105 -4.3876 -2.8717  0.2202
   57MOL0     H 7831   2.778   3.859  10.264 -3.5975  0.0053 -1.2887
   57MOL0     H 7832   3.021   3.799  10.245  1.5579  0.0161  0.2909
   57MOL0     H 7833   2.939   3.685  10.354  0.7121  1.5752 -0.7709
   57MOL0     H 7834   3.007   3.641  10.057  1.0065 -3.3570 -0.9951
   57MOL0     H 7835   2.909   3.536  10.160  1.0651 -0.7672  0.0899
   57MOL0     H 7836   3.139   3.456  10.167  0.2573 -0.4726  0.0585
   57MOL0     H 7837   3.092   3.533  10.325 -0.1924  2.9442  0.6035
   57MOL0     H 7838   3.249   3.670  10.090  2.1157 -0.8506  0.1032
   57MOL0     H 7839   3.220   3.736  10.247 -1.1671 -0.3238 -1.1082
   57MOL0     H 7840   3.444   3.643  10.200 -3.8845  2.3479 -1.6627
   57MOL0     H 7841   3.372   3.476  10.188 -1.5716 -0.7558  0.9238
   57MOL0     H 7842   3.321   3.616  10.448 -0.4024  0.4370 -0.7364
   57MOL0     H 7843   3.490   3.593  10.410 -0.4913  0.4127  0.5279
   57MOL0     H 7844   3.276   3.361  10.390 -1.3795 -0.2496  1.9065
   57MOL0     H 7845   3.386   3.385  10.528  2.3132  2.8682  0.0661
   57MOL0     H 7846   2.525   3.884  10.220 -2.3364  0.7076 -1.2315
   57MOL0     H 7847   2.309   3.864  10.220 -0.6069 -0.3920  3.2974
   57MOL0     H 7848   1.940   3.789  10.283 -0.2694 -0.0818  0.8404
   57MOL0     H 7849   1.686   3.831  10.268  0.6756  0.3941  1.4522
   57MOL0     H 7850   0.732   5.166   9.994 -1.4173  1.9019  3.1493
   57MOL0     H 7851   0.488   5.234  10.004 -0.3647  1.1902 -0.4573
   57MOL0     H 7852   0.062   5.071  10.247  3.0331 -2.7386 -3.0922
   57MOL0     H 7853  -0.139   5.153  10.296  3.1999 -0.2559  0.4702
   57MOL0     H 7854  -0.420   5.406  10.045 -1.1951  0.2401 -2.1182
   57MOL0     H 7855  -0.386   5.251   9.957  0.0599 -0.1591 -0.7849
   57MOL0     H 7856  -0.588   5.317  10.174  1.7908  0.8715  0.5194
   57MOL0     H 7857  -0.538   5.150  10.128 -0.2108  0.6776  0.2553
   57MOL0     H 7858  -0.673   5.359   9.957 -1.2343 -0.0036 -1.8239
   57MOL0     H 7859  -0.600   5.210   9.897  0.6777  1.7913  0.9419
   57MOL0     H 7860  -0.754   5.079   9.962 -1.9971 -0.8385  1.0907
   57MOL0     H 7861  -0.844   5.229   9.925  0.0679  0.5944  1.1176
   57MOL0     H 7862  -0.923   5.173  10.343 -0.6744 -0.6723 -0.6176
   57MOL0     H 7863  -0.189   5.330   9.908  1.1874  1.5288  0.5843
   57MOL0     H 7864   0.157   5.252   9.808 -0.5377  0.5789  0.5411
   57MOL0     H 7865   0.026   5.166   9.728 -1.8731 -0.2846  0.8993
   57MOL0     H 7866   0.017   5.341   9.767 -1.3246 -0.0133  0.2121
   58MOL0     O 7867  10.826   9.623  11.387 -0.0699  0.5382  0.4888
   58MOL0     C 7868  10.874   9.703  11.472 -0.4062 -0.1827  0.3069
   58MOL0     O 7869  11.007   9.716  11.498  0.4999  0.1708  0.4705
   58MOL0     C 7870  11.094   9.677  11.392  0.1248 -0.1807 -0.9690
   58MOL0     C 7871  11.126   9.770  11.285 -0.2660 -0.0966 -0.4341
   58MOL0     C 7872  11.217   9.735  11.188  0.0631  0.1268 -0.8472
   58MOL0     C 7873  11.280   9.608  11.191 -0.7993 -0.4253  0.5678
   58MOL0     O 7874  11.360   9.560  11.090  0.1419 -0.0623  0.6083
   58MOL0     C 7875  11.502   9.564  11.113  0.4814 -0.0466 -0.0498
   58MOL0     C 7876  11.578   9.534  10.980  0.8235 -0.4736  0.7765
   58MOL0     C 7877  11.546   9.395  10.922 -0.7732 -1.3415  0.3404
   58MOL0     C 7878  11.598   9.379  10.783  0.4847 -0.5764 -0.4004
   58MOL0     C 7879  11.613   9.224  10.753 -1.6286 -0.0953  0.0894
   58MOL0     C 7880  11.688   9.215  10.615  0.4345  0.0799  0.0893
   58MOL0     C 7881  11.659   9.088  10.530 -0.3681 -0.2035  0.0398
   58MOL0     C 7882  11.684   8.952  10.597  0.1284  0.3476 -0.7819
   58MOL0     N 7883  11.739   8.863  10.500 -0.6068 -0.2201 -0.4248
   58MOL0     C 7884  11.863   8.811  10.486 -0.3657  0.7383  0.6347
   58MOL0     C 7885  11.867   8.744  10.368  0.7250 -0.3040  1.1677
   58MOL0     C 7886  11.982   8.668  10.306 -0.3331 -0.5545 -0.3337
   58MOL0     C 7887  12.118   8.744  10.309  0.8301 -0.4098 -0.1284
   58MOL0     C 7888  12.218   8.665  10.235 -0.8551  0.2851 -0.1124
   58MOL0     C 7889  12.354   8.729  10.212 -0.2579  1.0556  0.7102
   58MOL0     O 7890  12.418   8.762  10.341 -0.1984  0.0500  0.7159
   58MOL0     C 7891  12.528   8.680  10.362 -0.3649 -0.5572  0.1881
   58MOL0     C 7892  12.652   8.723  10.316 -0.6241  0.1126  0.4970
   58MOL0     C 7893  12.771   8.657  10.344  0.0712  0.1160  1.4988
   58MOL0     C 7894  12.895   8.688  10.265 -0.0888 -0.2416 -0.5478
   58MOL0     C 7895  12.767   8.546  10.428  0.2007 -0.3569 -0.3067
   58MOL0     C 7896  12.888   8.471  10.471 -0.4579 -0.5420 -0.4781
   58MOL0     O 7897  12.997   8.546  10.503  0.6161 -0.7168 -0.8193
   58MOL0     C 7898  13.119   8.487  10.543  0.1986 -0.5153  0.3885
   58MOL0     C 7899  13.198   8.547  10.637  0.2786 -1.0341  0.5791
   58MOL0     C 7900  13.317   8.495  10.672 -0.5927  0.5029  0.2423
   58MOL0     C 7901  13.356   8.369  10.642 -0.2919 -1.0945  0.2959
   58MOL0     O 7902  13.475   8.326  10.693  0.5346  0.2421  0.0319
   58MOL0     C 7903  13.508   8.195  10.652 -0.6362  1.0147 -0.1788
   58MOL0     C 7904  13.609   8.198  10.524 -0.3618 -0.2400 -0.0794
   58MOL0     C 7905  13.731   8.287  10.558 -0.7411 -0.9444 -0.2314
   58MOL0     C 7906  13.731   8.396  10.453 -0.0921  0.2870 -0.0854
   58MOL0     C 7907  13.836   8.503  10.486  0.2796 -0.2025 -0.9160
   58MOL0     C 7908  13.859   8.605  10.376  0.8192  0.9285 -0.8314
   58MOL0     C 7909  13.912   8.537  10.247 -0.5498 -0.1057  0.0829
   58MOL0     C 7910  14.017   8.630  10.190  0.7055  0.8648  0.0323
   58MOL0    Cl 7911  13.945   8.782  10.144  0.2627  0.2774 -0.1954
   58MOL0     C 7912  13.272   8.305  10.544  0.3320 -0.1698 -0.5010
   58MOL0     C 7913  13.158   8.364  10.494  0.1584 -0.0317  1.0254
   58MOL0     O 7914  12.876   8.349  10.478 -0.1208 -0.2931 -0.0850
   58MOL0     C 7915  12.643   8.505  10.478  0.1532 -0.0455 -0.1207
   58MOL0     C 7916  12.530   8.574  10.454  0.1473  0.2157  0.0484
   58MOL0     N 7917  11.745   8.738  10.313  0.4174  0.0267  0.7522
   58MOL0     N 7918  11.673   8.812  10.392  0.5699 -0.5752  1.2054
   58MOL0     C 7919  11.240   9.521  11.290  0.6411  0.8410  0.5132
   58MOL0     C 7920  11.150   9.551  11.390  0.0257  0.0218 -0.2992
   58MOL0     C 7921  10.790   9.787  11.559  0.7110  0.2438 -0.5376
   58MOL0     C 7922  10.848   9.884  11.653  0.4642 -0.5903 -0.7778
   58MOL0     C 7923  10.774   9.968  11.730 -0.0004  0.2930  0.3383
   58MOL0     C 7924  10.635   9.966  11.723  0.9199  0.4635 -0.2163
   58MOL0     O 7925  10.548  10.044  11.800  0.9089 -0.2520 -0.3394
   58MOL0     C 7926  10.604  10.163  11.863  0.5494 -0.4283 -0.5507
   58MOL0     C 7927  10.512  10.200  11.983 -0.8503  1.1714  0.0479
   58MOL0     C 7928  10.503  10.087  12.098  0.9820 -0.4979 -0.0145
   58MOL0     C 7929  10.424  10.134  12.218 -0.8226  0.5913  0.2992
   58MOL0     C 7930  10.291  10.168  12.196  0.8637  0.2558  0.3102
   58MOL0     C 7931  10.172  10.183  12.188  0.9369  0.0881 -0.1013
   58MOL0     C 7932  10.572   9.869  11.639 -0.5570  1.1492  1.1458
   58MOL0     C 7933  10.644   9.785  11.556 -1.4408 -0.4086 -0.4909
   58MOL0     C 7934  10.566   9.685  11.475 -0.0001 -0.3249  0.3212
   58MOL0     H 7935  11.091   9.872  11.296  0.1588 -0.1778  2.7332
   58MOL0     H 7936  11.239   9.811  11.114  2.4474  1.0556  0.6826
   58MOL0     H 7937  11.551   9.503  11.190  1.8011  0.7856 -0.1807
   58MOL0     H 7938  11.514   9.669  11.144 -1.4700 -0.1808  1.3426
   58MOL0     H 7939  11.545   9.608  10.907  0.4279 -1.3879  0.0085
   58MOL0     H 7940  11.686   9.531  10.994  0.7294  0.1156  1.7032
   58MOL0     H 7941  11.606   9.332  10.989 -0.1847 -0.8934  0.2440
   58MOL0     H 7942  11.443   9.359  10.927 -0.6381 -1.7939 -0.0661
   58MOL0     H 7943  11.539   9.434  10.709  1.2955  0.2579 -0.4522
   58MOL0     H 7944  11.696   9.427  10.773  0.0267  0.4481 -0.1109
   58MOL0     H 7945  11.514   9.177  10.751 -1.3299 -0.7338 -0.0923
   58MOL0     H 7946  11.672   9.175  10.831 -0.7397 -1.9635 -1.6382
   58MOL0     H 7947  11.659   9.305  10.560 -2.3313 -0.7737 -0.0178
   58MOL0     H 7948  11.795   9.227  10.633  0.6885 -1.5256 -0.1844
   58MOL0     H 7949  11.718   9.105  10.440 -3.1416  5.1505 -1.1852
   58MOL0     H 7950  11.552   9.094  10.507 -0.7705  1.4241  2.0755
   58MOL0     H 7951  11.754   8.950  10.681 -1.4049 -1.3983  0.5426
   58MOL0     H 7952  11.589   8.918  10.639 -0.0142  0.7991 -0.7318
   58MOL0     H 7953  11.950   8.830  10.548  0.9020 -0.7193 -0.6101
   58MOL0     H 7954  11.965   8.641  10.202  0.3233 -0.6251 -0.4288
   58MOL0     H 7955  11.995   8.569  10.351 -2.7054 -1.5377 -1.6560
   58MOL0     H 7956  12.115   8.843  10.265 -1.7888  0.3807  1.5750
   58MOL0     H 7957  12.146   8.765  10.413 -0.2844 -0.7559  0.2501
   58MOL0     H 7958  12.245   8.578  10.296 -1.8057 -0.6929 -1.0360
   58MOL0     H 7959  12.169   8.636  10.141 -0.4487  2.8349 -1.2050
   58MOL0     H 7960  12.416   8.660  10.155 -0.4538 -0.5733  2.3415
   58MOL0     H 7961  12.329   8.819  10.155 -1.1002  0.7316  0.5508
   58MOL0     H 7962  12.665   8.805  10.245  1.4056 -1.1469 -0.6673
   58MOL0     H 7963  12.921   8.603  10.201 -0.2208 -0.7308  0.0355
   58MOL0     H 7964  12.983   8.730  10.314  1.5520  0.0009 -3.4456
   58MOL0     H 7965  12.870   8.772  10.199  1.7099  0.5677 -0.2498
   58MOL0     H 7966  13.160   8.641  10.675 -0.7308 -0.0666 -2.5044
   58MOL0     H 7967  13.382   8.555  10.734 -3.2893  1.8122  1.9781
   58MOL0     H 7968  13.571   8.146  10.726  2.0763  0.1558 -2.8290
   58MOL0     H 7969  13.426   8.125  10.638  0.0421  0.6242 -2.8175
   58MOL0     H 7970  13.639   8.093  10.517 -4.1295 -1.4635  0.3223
   58MOL0     H 7971  13.553   8.232  10.437 -1.9111  2.2337  1.7296
   58MOL0     H 7972  13.828   8.239  10.548  0.6918  1.7903 -0.2569
   58MOL0     H 7973  13.718   8.331  10.657 -1.9998 -0.5866 -0.5372
   58MOL0     H 7974  13.632   8.440  10.442 -0.9525 -1.5063  0.0247
   58MOL0     H 7975  13.762   8.351  10.358  0.8244  0.3732  0.1610
   58MOL0     H 7976  13.815   8.551  10.583  0.2400 -3.0196  0.5790
   58MOL0     H 7977  13.932   8.454  10.502  1.0906  1.2511 -1.1465
   58MOL0     H 7978  13.937   8.671  10.416  0.9308 -0.6818  1.8689
   58MOL0     H 7979  13.770   8.664  10.356 -0.6227 -1.5305 -2.1678
   58MOL0     H 7980  13.845   8.520  10.162 -1.6182  2.5359  0.2883
   58MOL0     H 7981  13.953   8.441  10.279  0.2467  0.4207  0.6813
   58MOL0     H 7982  14.053   8.586  10.096  0.4000  3.8445 -1.5963
   58MOL0     H 7983  14.098   8.659  10.258  1.3365  1.3522 -0.9151
   58MOL0     H 7984  13.306   8.216  10.492 -0.8920  0.3336 -2.2665
   58MOL0     H 7985  13.112   8.308  10.413  1.1008  2.3938 -1.3273
   58MOL0     H 7986  12.636   8.422  10.548 -0.8048 -0.3564 -0.5809
   58MOL0     H 7987  12.442   8.530  10.500  0.3579  0.6783  0.9161
   58MOL0     H 7988  11.281   9.420  11.291 -0.4657  0.3742  0.1405
   58MOL0     H 7989  11.138   9.494  11.481 -1.9516  3.4042  1.7458
   58MOL0     H 7990  10.956   9.890  11.662  0.2945  0.0816  1.3908
   58MOL0     H 7991  10.831  10.037  11.792  2.6683  1.6407 -3.2143
   58MOL0     H 7992  10.703  10.150  11.907 -0.8172 -1.4926  2.5248
   58MOL0     H 7993  10.600  10.257  11.808  3.8121  0.0725 -0.1346
   58MOL0     H 7994  10.423  10.244  11.937  0.3082 -0.2641 -3.9402
   58MOL0     H 7995  10.573  10.273  12.038 -0.3925 -0.0520  1.2156
   58MOL0     H 7996  10.449   9.999  12.063 -0.8488  0.4175  0.3406
   58MOL0     H 7997  10.598  10.046  12.134  1.5047 -1.4630 -2.3322
   58MOL0     H 7998  10.477  10.212  12.272 -0.0480  2.3238 -2.7134
   58MOL0     H 7999  10.428  10.049  12.286  1.2568 -0.2715 -0.8234
   58MOL0     H 8000  10.066  10.192  12.179  0.6155  0.3966  3.0165
   58MOL0     H 8001  10.467   9.873  11.664 -1.1052  0.8871 -0.9340
   58MOL0     H 8002  10.609   9.586  11.461 -0.2127 -0.5818  1.4418
   58MOL0     H 8003  10.464   9.669  11.512 -0.6393  0.7829 -0.8423
   58MOL0     H 8004  10.544   9.726  11.376  1.4139 -3.0092 -1.2209
   59MOL0     O 8005  10.466   1.933   4.543  0.4969  0.1167  0.5768
   59MOL0     C 8006  10.390   1.866   4.607  1.3372 -0.8337 -0.0169
   59MOL0     O 8007  10.416   1.787   4.709 -0.6447 -0.4668 -0.1083
   59MOL0     C 8008  10.550   1.769   4.750  0.1411 -0.0860 -0.2233
   59MOL0     C 8009  10.595   1.647   4.788 -0.1786  0.5927 -0.1054
   59MOL0     C 8010  10.730   1.633   4.828  1.1625 -0.8766 -0.1002
   59MOL0     C 8011  10.825   1.740   4.819 -0.1889 -0.3632  0.0547
   59MOL0     O 8012  10.954   1.733   4.860  0.1631 -0.0686 -0.5315
   59MOL0     C 8013  11.019   1.609   4.854  0.6027  0.7900 -0.2697
   59MOL0     C 8014  11.172   1.636   4.852 -0.1774 -0.5060  0.5872
   59MOL0     C 8015  11.210   1.744   4.747 -0.1772 -1.0358  0.7162
   59MOL0     C 8016  11.366   1.790   4.752  0.4535 -0.0190  0.7656
   59MOL0     C 8017  11.395   1.882   4.639  0.7360 -0.2004 -0.2353
   59MOL0     C 8018  11.534   1.932   4.652 -0.6782 -0.2115  0.3125
   59MOL0     C 8019  11.591   2.009   4.527 -0.3841 -0.1847 -0.0750
   59MOL0     C 8020  11.742   2.039   4.529 -0.5265  0.4181  0.6033
   59MOL0     N 8021  11.761   2.121   4.410 -1.3955  0.4787  0.1578
   59MOL0     C 8022  11.823   2.066   4.302  0.1334 -0.0225  1.0389
   59MOL0     C 8023  11.855   2.182   4.228  0.3824 -0.0053 -0.2933
   59MOL0     C 8024  11.919   2.180   4.093 -0.6838 -0.3895  0.2879
   59MOL0     C 8025  12.055   2.246   4.098  0.3982 -0.3112 -0.7396
   59MOL0     C 8026  12.115   2.275   3.961 -0.9768  0.7054 -0.3735
   59MOL0     C 8027  12.048   2.379   3.878 -0.6299  0.0615  0.5097
   59MOL0     O 8028  12.041   2.517   3.922 -0.1013 -0.1173  0.6974
   59MOL0     C 8029  12.159   2.587   3.911  0.3798  0.1687 -0.1657
   59MOL0     C 8030  12.270   2.542   3.848 -0.4751 -0.7875  0.1504
   59MOL0     C 8031  12.384   2.625   3.833  0.3059  0.4776  0.0205
   59MOL0     C 8032  12.492   2.560   3.749 -0.3168 -0.6744 -1.1146
   59MOL0     C 8033  12.387   2.756   3.893 -0.0429  0.2775 -0.0220
   59MOL0     C 8034  12.501   2.843   3.902 -0.4477 -0.7767 -0.3626
   59MOL0     O 8035  12.494   2.965   3.971 -0.2399 -0.3378  0.6952
   59MOL0     C 8036  12.612   3.039   3.986  0.5299 -0.0332  0.1140
   59MOL0     C 8037  12.707   3.005   4.084  1.0081 -0.3545 -0.3034
   59MOL0     C 8038  12.833   3.074   4.100  0.3512  0.0784  0.2648
   59MOL0     C 8039  12.862   3.171   4.006 -0.3924 -0.5816 -0.6076
   59MOL0     O 8040  12.963   3.262   4.025 -0.4659  0.7758 -0.7057
   59MOL0     C 8041  13.057   3.271   3.918  0.0796 -0.4859 -1.4279
   59MOL0     C 8042  13.186   3.326   3.975 -0.6326  0.0319 -0.2408
   59MOL0     C 8043  13.167   3.476   4.014 -0.6872  0.3985  0.6531
   59MOL0     C 8044  13.291   3.562   4.010 -0.1007 -0.0310  0.2643
   59MOL0     C 8045  13.407   3.508   4.096 -0.1327 -0.9645  0.1471
   59MOL0     C 8046  13.376   3.521   4.245  0.6592 -0.3491 -0.2855
   59MOL0     C 8047  13.498   3.477   4.328 -0.2139 -0.0066 -0.1043
   59MOL0     C 8048  13.464   3.453   4.473 -0.4322 -0.5548  0.3881
   59MOL0    Cl 8049  13.408   3.589   4.553  0.4210  0.1240  0.1054
   59MOL0     C 8050  12.772   3.196   3.902 -0.4229 -0.7042  0.3263
   59MOL0     C 8051  12.652   3.129   3.890  0.3770 -0.3800 -0.5132
   59MOL0     O 8052  12.605   2.811   3.840  0.0045  0.8203 -0.0970
   59MOL0     C 8053  12.268   2.801   3.960  0.2215  0.1619 -0.0259
   59MOL0     C 8054  12.165   2.711   3.974  0.2771 -0.6489  0.0832
   59MOL0     N 8055  11.806   2.288   4.297 -0.4860 -0.4662 -0.0556
   59MOL0     N 8056  11.751   2.258   4.405  0.2698  0.5458  0.6885
   59MOL0     C 8057  10.774   1.871   4.798  0.4054  0.8924  0.7841
   59MOL0     C 8058  10.641   1.876   4.753 -0.4193 -0.5706  1.3859
   59MOL0     C 8059  10.241   1.876   4.566  0.5037 -0.4761 -0.2565
   59MOL0     C 8060  10.183   1.758   4.520  0.5767 -0.5090  0.5768
   59MOL0     C 8061  10.043   1.746   4.496 -0.7484 -0.8099 -0.2241
   59MOL0     C 8062   9.961   1.860   4.511  0.0016 -0.2881  0.8765
   59MOL0     O 8063   9.830   1.847   4.479  1.0775  0.3961  0.5015
   59MOL0     C 8064   9.735   1.959   4.473  0.3837  0.5788  0.3435
   59MOL0     C 8065   9.614   1.918   4.384 -0.9566 -0.2502 -0.4235
   59MOL0     C 8066   9.603   1.967   4.244 -0.1335  0.4058 -0.9388
   59MOL0     C 8067   9.718   1.921   4.148 -0.0103 -0.8778  0.2974
   59MOL0     C 8068   9.691   1.975   4.008 -0.5485  0.0558  0.5699
   59MOL0     C 8069   9.681   2.018   3.890 -0.1249  0.3838 -0.7980
   59MOL0     C 8070  10.024   1.980   4.538 -0.4495  0.5550 -1.0750
   59MOL0     C 8071  10.159   1.991   4.573 -0.5759  0.1739 -0.1409
   59MOL0     C 8072  10.214   2.123   4.615  0.1825  0.4089 -1.0025
   59MOL0     H 8073  10.517   1.571   4.797  0.4115 -0.4386 -2.7337
   59MOL0     H 8074  10.767   1.541   4.871  0.9970 -1.7532 -1.7365
   59MOL0     H 8075  10.996   1.552   4.763 -2.2560  0.4502  0.5655
   59MOL0     H 8076  11.003   1.558   4.949  2.8720 -1.2882 -0.8807
   59MOL0     H 8077  11.198   1.680   4.949 -3.1083 -0.0190  1.2378
   59MOL0     H 8078  11.224   1.542   4.832  0.5244 -0.0033 -0.0113
   59MOL0     H 8079  11.186   1.711   4.645 -2.0922  0.8124  0.4960
   59MOL0     H 8080  11.145   1.832   4.754 -2.6438 -2.8357  1.7086
   59MOL0     H 8081  11.391   1.836   4.848  0.3193  0.5649  0.5205
   59MOL0     H 8082  11.427   1.701   4.734 -0.2910 -0.4974  0.5631
   59MOL0     H 8083  11.318   1.958   4.650 -1.9050 -2.8190  0.4926
   59MOL0     H 8084  11.381   1.834   4.541  0.8434  2.0279 -1.3969
   59MOL0     H 8085  11.535   1.995   4.741  2.8115 -0.7409  0.8103
   59MOL0     H 8086  11.591   1.838   4.654 -0.0365 -0.0379 -3.2302
   59MOL0     H 8087  11.530   2.091   4.488  1.1535  1.0202 -0.0248
   59MOL0     H 8088  11.588   1.932   4.449  0.0082 -2.0132  1.6245
   59MOL0     H 8089  11.768   2.084   4.626  1.1836 -2.2386  1.4885
   59MOL0     H 8090  11.805   1.950   4.523  0.7054  1.3764 -2.5315
   59MOL0     H 8091  11.833   1.963   4.271 -4.1022 -0.9383  2.0553
   59MOL0     H 8092  11.866   2.229   4.012  3.5684  3.6338 -0.4909
   59MOL0     H 8093  11.935   2.075   4.066 -1.5863 -0.6241  0.6429
   59MOL0     H 8094  12.036   2.344   4.143 -0.6308 -0.4466 -0.8716
   59MOL0     H 8095  12.121   2.189   4.164 -0.2490 -0.5413 -0.2853
   59MOL0     H 8096  12.213   2.318   3.979 -0.9968  0.5834  0.0244
   59MOL0     H 8097  12.127   2.179   3.911  0.6011  0.5919  0.1809
   59MOL0     H 8098  12.089   2.369   3.777 -1.8816 -0.4510  0.0351
   59MOL0     H 8099  11.951   2.335   3.855  0.5822 -2.1264 -0.7636
   59MOL0     H 8100  12.283   2.442   3.809 -0.8181 -1.0346  0.6484
   59MOL0     H 8101  12.585   2.552   3.806 -1.1007  2.5063  0.8182
   59MOL0     H 8102  12.499   2.615   3.656 -3.3879  1.3726 -0.2649
   59MOL0     H 8103  12.460   2.462   3.713  0.0028 -0.6776 -1.3873
   59MOL0     H 8104  12.690   2.925   4.155  0.9175 -1.2625 -1.3279
   59MOL0     H 8105  12.910   3.051   4.173  1.7949  0.6200 -1.0234
   59MOL0     H 8106  13.076   3.172   3.877 -0.9058 -1.3194  0.0519
   59MOL0     H 8107  13.021   3.336   3.838 -1.4626  0.1504 -0.2894
   59MOL0     H 8108  13.223   3.266   4.058 -0.6498 -1.8015 -1.5139
   59MOL0     H 8109  13.268   3.325   3.902 -1.4632 -0.3864 -1.1910
   59MOL0     H 8110  13.121   3.477   4.113  3.1551 -2.6959  2.7626
   59MOL0     H 8111  13.101   3.514   3.936  0.4589 -0.7126 -0.9151
   59MOL0     H 8112  13.259   3.660   4.048 -2.6926 -1.1920  1.3550
   59MOL0     H 8113  13.316   3.563   3.903 -0.9977  0.7402  0.0435
   59MOL0     H 8114  13.445   3.407   4.075 -1.9799 -1.4710 -1.0061
   59MOL0     H 8115  13.491   3.573   4.070  0.0569 -1.5200 -0.6796
   59MOL0     H 8116  13.287   3.461   4.269 -0.4418  0.4268 -2.1472
   59MOL0     H 8117  13.352   3.626   4.262  3.4334  0.7661 -2.3761
   59MOL0     H 8118  13.573   3.556   4.319 -1.5884  1.2737 -0.9839
   59MOL0     H 8119  13.542   3.384   4.292 -2.8328 -0.3664 -2.8053
   59MOL0     H 8120  13.552   3.410   4.522 -0.0895  0.1093  0.3712
   59MOL0     H 8121  13.394   3.370   4.459  0.3950 -1.0139 -1.3680
   59MOL0     H 8122  12.796   3.270   3.827  2.5683 -3.0453 -1.2727
   59MOL0     H 8123  12.591   3.133   3.801 -0.9857 -0.5925  0.3904
   59MOL0     H 8124  12.259   2.897   4.011  2.4701 -0.3300  1.4358
   59MOL0     H 8125  12.085   2.748   4.037 -0.4843 -0.6791 -0.8502
   59MOL0     H 8126  10.838   1.959   4.800  1.1087  0.5681 -2.2030
   59MOL0     H 8127  10.601   1.969   4.714  2.0598 -0.5679 -1.4713
   59MOL0     H 8128  10.245   1.669   4.524  0.7153 -0.5097 -0.9314
   59MOL0     H 8129  10.003   1.648   4.471 -3.2285 -0.5171  2.1834
   59MOL0     H 8130   9.699   1.983   4.573 -0.0012  1.1331  0.0817
   59MOL0     H 8131   9.784   2.044   4.425 -0.9440  0.3335 -1.5777
   59MOL0     H 8132   9.522   1.956   4.429 -0.0167  1.7728 -0.0686
   59MOL0     H 8133   9.616   1.809   4.376 -2.2128 -0.3937  0.7987
   59MOL0     H 8134   9.512   1.927   4.199  0.3121  1.8524 -3.3073
   59MOL0     H 8135   9.608   2.076   4.243  5.0434  0.4072 -1.9766
   59MOL0     H 8136   9.719   1.811   4.146  2.6084 -0.9235  0.5814
   59MOL0     H 8137   9.814   1.958   4.187 -1.6962  2.2259  1.8866
   59MOL0     H 8138   9.665   2.055   3.791  0.0552  0.4803 -0.7907
   59MOL0     H 8139   9.969   2.073   4.531 -0.4963  0.4335 -2.6999
   59MOL0     H 8140  10.144   2.207   4.607  2.8818  3.2381  1.8661
   59MOL0     H 8141  10.270   2.121   4.709  1.1227 -1.7223 -1.5573
   59MOL0     H 8142  10.299   2.149   4.551 -0.7142 -1.3652 -3.0400
   60MOL0     O 8143   4.825  10.759   2.267 -0.3807 -0.2365 -0.6347
   60MOL0     C 8144   4.752  10.661   2.249 -0.6443 -0.1009 -0.0568
   60MOL0     O 8145   4.797  10.528   2.253  0.6827  0.4235 -0.0218
   60MOL0     C 8146   4.935  10.515   2.232  0.4897  0.8069 -0.5836
   60MOL0     C 8147   5.009  10.582   2.134  0.6142  0.0128 -0.4463
   60MOL0     C 8148   5.144  10.563   2.119  0.5088 -0.0439  0.2315
   60MOL0     C 8149   5.216  10.490   2.209  0.2146 -0.6752 -0.0053
   60MOL0     O 8150   5.349  10.485   2.192  0.3071 -0.5217  0.1158
   60MOL0     C 8151   5.431  10.392   2.266 -0.3985 -0.2269 -0.5829
   60MOL0     C 8152   5.568  10.371   2.185  0.9879  0.1333  0.0374
   60MOL0     C 8153   5.664  10.481   2.229  0.0092  1.0051  0.4774
   60MOL0     C 8154   5.780  10.500   2.126  0.1510 -0.4398 -1.4381
   60MOL0     C 8155   5.892  10.578   2.210  0.0830 -0.5050  0.4180
   60MOL0     C 8156   6.037  10.562   2.155  0.4675  1.0495  0.4194
   60MOL0     C 8157   6.050  10.646   2.018  0.6651 -0.1663  0.7420
   60MOL0     C 8158   6.070  10.793   2.045  0.3195  0.5384 -0.2752
   60MOL0     N 8159   6.121  10.856   1.921  0.1752  0.7659  0.0578
   60MOL0     C 8160   6.048  10.920   1.820  0.5030 -1.0667  0.6236
   60MOL0     C 8161   6.139  10.974   1.732 -0.0675 -0.2630 -0.4831
   60MOL0     C 8162   6.115  11.069   1.612 -0.0152  0.4150  0.2143
   60MOL0     C 8163   6.209  11.191   1.605  0.1327  0.4312  0.7315
   60MOL0     C 8164   6.173  11.270   1.473 -0.2929 -0.8672  0.4499
   60MOL0     C 8165   6.251  11.404   1.463 -0.3858  0.3438 -0.7942
   60MOL0     O 8166   6.391  11.365   1.467  0.0435  0.8659 -0.9340
   60MOL0     C 8167   6.445  11.344   1.345 -0.7662  0.4243 -0.1612
   60MOL0     C 8168   6.388  11.316   1.225  0.2669 -0.2508 -0.6067
   60MOL0     C 8169   6.463  11.295   1.106  0.9158  0.5141 -0.1228
   60MOL0     C 8170   6.377  11.284   0.978 -0.4914  0.1451 -0.4679
   60MOL0     C 8171   6.603  11.307   1.104 -0.3395  0.0390 -0.4704
   60MOL0     C 8172   6.697  11.274   0.992  0.1829  0.4412  0.1856
   60MOL0     O 8173   6.832  11.318   1.022 -0.2166 -0.9934  0.0210
   60MOL0     C 8174   6.916  11.276   0.920 -0.3131 -0.3745  0.5956
   60MOL0     C 8175   6.958  11.148   0.909  0.7624 -0.1460  0.3585
   60MOL0     C 8176   7.045  11.108   0.804 -0.8720 -0.2782  0.1064
   60MOL0     C 8177   7.097  11.207   0.710 -0.9366 -0.2828  0.1052
   60MOL0     O 8178   7.186  11.159   0.615 -0.0076  0.8639 -0.1066
   60MOL0     C 8179   7.305  11.235   0.602 -1.0279  0.3175  0.3007
   60MOL0     C 8180   7.400  11.243   0.724  0.3578 -0.3847 -0.3895
   60MOL0     C 8181   7.429  11.102   0.793 -0.1313  0.7514 -0.3287
   60MOL0     C 8182   7.518  11.016   0.686  0.2061 -0.4600 -0.5579
   60MOL0     C 8183   7.567  10.879   0.739  0.2143 -1.1447  0.1379
   60MOL0     C 8184   7.640  10.898   0.874  0.2030 -0.7711 -0.4403
   60MOL0     C 8185   7.693  10.765   0.923 -1.0224 -0.6139  0.4038
   60MOL0     C 8186   7.718  10.761   1.073  0.0198  0.2487 -0.0333
   60MOL0    Cl 8187   7.839  10.893   1.110 -0.2779  0.0504 -0.1392
   60MOL0     C 8188   7.059  11.339   0.731 -0.2144 -0.5114 -0.4436
   60MOL0     C 8189   6.976  11.376   0.839 -0.1930  0.4751 -0.0831
   60MOL0     O 8190   6.668  11.213   0.895  0.4650  0.1508  0.1299
   60MOL0     C 8191   6.664  11.355   1.224  0.0105  0.2957  0.1242
   60MOL0     C 8192   6.586  11.366   1.343  0.3271  0.5552 -0.2234
   60MOL0     N 8193   6.264  10.937   1.779  0.7202 -0.3787  0.2575
   60MOL0     N 8194   6.254  10.881   1.897 -0.0445 -0.4511 -0.3601
   60MOL0     C 8195   5.147  10.422   2.312  0.1597  0.0781 -0.9715
   60MOL0     C 8196   5.008  10.435   2.322  0.7277  0.2360 -0.2921
   60MOL0     C 8197   4.610  10.679   2.238 -0.0910 -0.7832  0.1285
   60MOL0     C 8198   4.523  10.567   2.244 -0.4188  0.2374  0.2115
   60MOL0     C 8199   4.387  10.582   2.272 -0.0463 -0.0237  0.0207
   60MOL0     C 8200   4.329  10.706   2.278 -0.3953 -0.3094 -0.1493
   60MOL0     O 8201   4.192  10.723   2.303  0.6686  0.1895  0.2743
   60MOL0     C 8202   4.136  10.849   2.354 -0.2535 -0.4336  0.0611
   60MOL0     C 8203   4.095  10.941   2.239 -0.3426  0.1785 -0.0925
   60MOL0     C 8204   3.987  10.895   2.145  0.6789 -0.6111  0.3817
   60MOL0     C 8205   3.961  10.984   2.023  0.4057  0.1095  0.4107
   60MOL0     C 8206   3.952  11.126   2.065 -0.2230  0.4110 -0.0989
   60MOL0     C 8207   3.936  11.240   2.099 -0.5893 -0.2970  0.3662
   60MOL0     C 8208   4.416  10.814   2.263 -0.8609 -0.2470  0.2921
   60MOL0     C 8209   4.546  10.809   2.235 -0.0762  1.0102  0.2331
   60MOL0     C 8210   4.615  10.930   2.196  0.3003 -0.6913  0.0062
   60MOL0     H 8211   4.955  10.643   2.062  0.6871 -0.7881 -1.1960
   60MOL0     H 8212   5.197  10.625   2.047  0.0828 -1.2787 -1.1988
   60MOL0     H 8213   5.378  10.297   2.276  0.9424 -0.8508  1.0656
   60MOL0     H 8214   5.456  10.424   2.368  0.4495 -0.2833 -0.7681
   60MOL0     H 8215   5.612  10.274   2.210  0.9295 -0.1768 -1.0249
   60MOL0     H 8216   5.545  10.378   2.078 -1.5143 -2.5834  0.2612
   60MOL0     H 8217   5.620  10.580   2.241 -2.7804  0.4902 -3.5969
   60MOL0     H 8218   5.700  10.440   2.324 -0.7478 -0.9124 -0.0228
   60MOL0     H 8219   5.801  10.397   2.100 -2.4999 -1.2645 -0.6688
   60MOL0     H 8220   5.751  10.544   2.030 -1.2602 -3.2151 -2.3759
   60MOL0     H 8221   5.888  10.543   2.314  0.5846  1.3130  1.0957
   60MOL0     H 8222   5.859  10.682   2.220  1.5016 -0.1640  2.0269
   60MOL0     H 8223   6.113  10.594   2.227  0.1499  2.4366  0.1786
   60MOL0     H 8224   6.049  10.455   2.137 -2.4322  0.7458 -0.1581
   60MOL0     H 8225   5.954  10.646   1.965 -0.0526  0.9403  1.9906
   60MOL0     H 8226   6.124  10.604   1.949 -2.5040 -0.1840 -3.0151
   60MOL0     H 8227   5.979  10.840   2.083  2.3622  2.7367  2.3939
   60MOL0     H 8228   6.148  10.801   2.122  0.1134 -1.9396  0.2762
   60MOL0     H 8229   5.941  10.933   1.809  0.8744  0.5454 -1.8971
   60MOL0     H 8230   6.010  11.097   1.608 -0.5217 -1.5062 -1.9401
   60MOL0     H 8231   6.136  11.004   1.527  2.1104  0.5296  0.5842
   60MOL0     H 8232   6.192  11.255   1.692 -1.1396  2.4540 -0.8938
   60MOL0     H 8233   6.313  11.158   1.592 -0.0856  0.6612 -2.5989
   60MOL0     H 8234   6.186  11.205   1.385  1.1887 -2.1235  1.5490
   60MOL0     H 8235   6.067  11.296   1.472 -0.0149  0.3074 -0.2074
   60MOL0     H 8236   6.225  11.462   1.374 -2.1723 -1.4005 -1.4656
   60MOL0     H 8237   6.229  11.465   1.551  0.3045  0.2126 -0.5281
   60MOL0     H 8238   6.283  11.302   1.204  0.0787 -0.3461  0.3482
   60MOL0     H 8239   6.401  11.349   0.893  1.1276  0.2366  0.0198
   60MOL0     H 8240   6.274  11.316   0.998 -0.7833 -0.3261 -1.1970
   60MOL0     H 8241   6.365  11.180   0.947 -0.8598  0.6680 -2.1312
   60MOL0     H 8242   6.923  11.080   0.985  1.9959  0.6990  1.7428
   60MOL0     H 8243   7.081  11.007   0.788 -1.7419 -0.5726 -0.0958
   60MOL0     H 8244   7.365  11.178   0.531  1.2283 -0.6030  2.7509
   60MOL0     H 8245   7.289  11.334   0.558 -0.8826 -0.1813 -0.9091
   60MOL0     H 8246   7.492  11.293   0.694 -1.0019  1.9846 -0.9149
   60MOL0     H 8247   7.356  11.321   0.787  0.8058  1.6401 -2.4349
   60MOL0     H 8248   7.342  11.048   0.832  0.0902  1.7939  1.7742
   60MOL0     H 8249   7.479  11.112   0.890 -1.6822 -0.3420  0.6336
   60MOL0     H 8250   7.613  11.066   0.662  1.9946 -3.2365  0.3020
   60MOL0     H 8251   7.453  11.006   0.599  0.2193 -0.0021 -0.6231
   60MOL0     H 8252   7.489  10.803   0.745  0.8586 -1.8365 -0.0023
   60MOL0     H 8253   7.637  10.836   0.666 -0.8191 -0.1168 -1.5046
   60MOL0     H 8254   7.561  10.934   0.940 -0.8237  0.7647 -2.3828
   60MOL0     H 8255   7.723  10.968   0.869 -0.0540 -0.5254 -4.5435
   60MOL0     H 8256   7.786  10.743   0.870 -0.0654 -0.1007  1.8064
   60MOL0     H 8257   7.620  10.684   0.912  0.5458 -2.0675  0.1941
   60MOL0     H 8258   7.753  10.662   1.102  1.0753  1.0060  1.3803
   60MOL0     H 8259   7.628  10.781   1.132 -0.9170  0.3625 -1.4521
   60MOL0     H 8260   7.110  11.411   0.667 -0.3374  0.6378  0.7155
   60MOL0     H 8261   6.951  11.480   0.858  1.5001  0.5719  2.0709
   60MOL0     H 8262   6.770  11.372   1.235 -0.1057 -0.3623  3.4913
   60MOL0     H 8263   6.630  11.388   1.440  0.3596  5.0160 -1.0435
   60MOL0     H 8264   5.199  10.362   2.387  2.8651  2.4725 -0.7502
   60MOL0     H 8265   4.958  10.386   2.405  0.6279 -0.7180 -0.8993
   60MOL0     H 8266   4.563  10.467   2.235  0.3318  0.4345  1.2011
   60MOL0     H 8267   4.319  10.497   2.279 -3.5151  2.4254 -1.2108
   60MOL0     H 8268   4.060  10.819   2.427  0.0229 -1.0577  0.0952
   60MOL0     H 8269   4.212  10.907   2.407  0.1789 -0.4550 -0.5409
   60MOL0     H 8270   4.182  10.985   2.190  0.3834 -0.4673  0.6134
   60MOL0     H 8271   4.052  11.033   2.279 -0.3441  2.0161 -3.8710
   60MOL0     H 8272   4.010  10.803   2.091 -1.3145 -0.3722 -0.9724
   60MOL0     H 8273   3.898  10.873   2.206  0.7164 -0.3052  0.5470
   60MOL0     H 8274   3.878  10.950   1.961 -0.1770  3.8682 -1.1485
   60MOL0     H 8275   4.042  10.969   1.950 -1.2349 -1.1627 -1.2657
   60MOL0     H 8276   3.937  11.344   2.123  2.0775 -0.1955  0.1000
   60MOL0     H 8277   4.377  10.915   2.270  0.0923  0.1365  0.1166
   60MOL0     H 8278   4.672  10.981   2.275  0.6509 -1.8244  0.5013
   60MOL0     H 8279   4.681  10.913   2.110 -0.0211  1.2684 -0.6772
   60MOL0     H 8280   4.542  11.009   2.175  1.3137 -0.6305 -4.0069
   61MOL0     O 8281   9.924  11.070   8.548  0.6269 -0.3287  1.0652
   61MOL0     C 8282   9.911  10.991   8.641  0.7749  0.6779 -0.0011
   61MOL0     O 8283  10.008  10.947   8.721  1.2685 -0.1770 -1.0988
   61MOL0     C 8284  10.129  11.009   8.702  0.2729 -0.9799  1.7759
   61MOL0     C 8285  10.213  10.970   8.600  0.0434  0.4542 -0.4321
   61MOL0     C 8286  10.345  11.019   8.601 -0.0989  0.1612  1.2106
   61MOL0     C 8287  10.386  11.116   8.694 -0.0798  0.0428 -0.0404
   61MOL0     O 8288  10.514  11.155   8.691  0.1515  1.0392  0.3941
   61MOL0     C 8289  10.543  11.287   8.746  0.0548  0.6099  0.6224
   61MOL0     C 8290  10.653  11.355   8.658  0.5348  0.0853 -0.6969
   61MOL0     C 8291  10.786  11.284   8.641 -0.4900  0.0518  0.9839
   61MOL0     C 8292  10.868  11.343   8.525 -0.3266  0.2162  0.5849
   61MOL0     C 8293  10.965  11.247   8.460  0.4507  0.2567  0.5018
   61MOL0     C 8294  11.088  11.207   8.549 -0.0597 -0.7294 -0.7615
   61MOL0     C 8295  11.168  11.089   8.483 -0.4639 -0.3442  0.2236
   61MOL0     C 8296  11.300  11.061   8.552  0.4040  0.1005 -0.2254
   61MOL0     N 8297  11.385  11.182   8.544 -0.8418  0.2359  0.4004
   61MOL0     C 8298  11.416  11.241   8.420 -0.7224  0.4899 -0.9631
   61MOL0     C 8299  11.466  11.366   8.451  0.0046  0.3235 -0.4396
   61MOL0     C 8300  11.513  11.464   8.348 -0.3258  0.0262  0.4805
   61MOL0     C 8301  11.634  11.403   8.267 -0.6238 -0.4237  0.0860
   61MOL0     C 8302  11.717  11.510   8.202  0.5871 -0.1225  0.2767
   61MOL0     C 8303  11.802  11.445   8.096  0.3585 -0.0766  0.4096
   61MOL0     O 8304  11.890  11.351   8.153 -0.5756 -0.2399 -0.2274
   61MOL0     C 8305  11.991  11.292   8.082  0.4940  0.5566  0.1882
   61MOL0     C 8306  12.023  11.314   7.947  0.3408  0.4084 -0.2840
   61MOL0     C 8307  12.135  11.257   7.884  0.1150  0.1096 -0.1444
   61MOL0     C 8308  12.176  11.312   7.748  0.5613 -0.5650 -0.3694
   61MOL0     C 8309  12.216  11.164   7.959  1.1129  1.2994 -0.1023
   61MOL0     C 8310  12.352  11.113   7.909  0.2849  0.0717 -0.3202
   61MOL0     O 8311  12.437  11.080   8.004  0.1714 -0.4052 -0.1933
   61MOL0     C 8312  12.567  11.042   8.007  0.0656  0.2212  0.2897
   61MOL0     C 8313  12.611  10.984   8.130  0.0047 -0.0979  0.2548
   61MOL0     C 8314  12.740  10.926   8.135 -0.5156  1.2283  0.9136
   61MOL0     C 8315  12.815  10.913   8.027  0.4230  0.5174  0.7013
   61MOL0     O 8316  12.930  10.843   8.052 -0.3183 -0.4489 -0.1700
   61MOL0     C 8317  13.008  10.813   7.932 -0.1328  0.6207 -0.8500
   61MOL0     C 8318  13.141  10.746   7.984  0.3950  0.0299  0.5636
   61MOL0     C 8319  13.111  10.627   8.067  1.2839  0.7406 -0.8832
   61MOL0     C 8320  13.224  10.535   8.096 -0.1188 -0.0415 -0.4313
   61MOL0     C 8321  13.349  10.604   8.160  0.1505  0.3392 -0.4809
   61MOL0     C 8322  13.470  10.517   8.209 -0.4598 -0.3819 -0.4909
   61MOL0     C 8323  13.529  10.419   8.099 -0.2126 -0.5781 -0.3962
   61MOL0     C 8324  13.658  10.363   8.144 -0.6102 -0.1904  0.1200
   61MOL0    Cl 8325  13.787  10.494   8.123  0.5099 -0.2742  0.0842
   61MOL0     C 8326  12.776  10.965   7.903  0.3036  0.1590 -0.3266
   61MOL0     C 8327  12.650  11.032   7.885 -0.2541 -0.2592  0.0305
   61MOL0     O 8328  12.377  11.108   7.789 -0.9694 -0.0134 -0.1696
   61MOL0     C 8329  12.172  11.121   8.089 -0.1482  0.2502  0.3946
   61MOL0     C 8330  12.067  11.191   8.151  1.1388 -0.2837 -0.2887
   61MOL0     N 8331  11.472  11.369   8.589  0.4287 -0.2241  0.2473
   61MOL0     N 8332  11.410  11.270   8.640 -0.0619  0.0008  0.1674
   61MOL0     C 8333  10.292  11.154   8.797  0.4197  0.4774 -0.0292
   61MOL0     C 8334  10.162  11.106   8.792  0.0792 -0.8775  0.4011
   61MOL0     C 8335   9.781  10.917   8.641  0.0731  0.0749 -0.2296
   61MOL0     C 8336   9.666  10.983   8.587 -0.0280  0.9955 -0.3007
   61MOL0     C 8337   9.542  10.915   8.571  0.4515  0.2368  0.1695
   61MOL0     C 8338   9.525  10.790   8.611 -0.2324  1.1321  0.2600
   61MOL0     O 8339   9.409  10.718   8.590  0.6616  0.0353 -0.4521
   61MOL0     C 8340   9.400  10.667   8.457 -0.5134 -0.0766 -0.4531
   61MOL0     C 8341   9.264  10.626   8.409 -0.0380 -0.4774  0.1198
   61MOL0     C 8342   9.226  10.476   8.450 -0.3362  1.1026 -0.3234
   61MOL0     C 8343   9.182  10.481   8.596 -0.1306  0.2721  0.1499
   61MOL0     C 8344   9.045  10.537   8.613 -0.2824  0.0691 -0.6723
   61MOL0     C 8345   8.931  10.574   8.620 -0.1197  0.6385 -0.1002
   61MOL0     C 8346   9.634  10.718   8.663  0.1171 -0.3312 -0.5929
   61MOL0     C 8347   9.759  10.783   8.689 -0.4098  0.0078  0.1201
   61MOL0     C 8348   9.872  10.703   8.747  0.4567  0.6123  0.6045
   61MOL0     H 8349  10.175  10.904   8.522  2.2763 -0.5687 -0.7413
   61MOL0     H 8350  10.411  10.980   8.524  2.2234 -0.2214  3.2908
   61MOL0     H 8351  10.578  11.275   8.849 -1.7028 -0.0415  1.1767
   61MOL0     H 8352  10.454  11.351   8.749  0.6570  1.4883  0.1447
   61MOL0     H 8353  10.599  11.366   8.564  0.4117  1.2090 -0.5055
   61MOL0     H 8354  10.671  11.458   8.691  2.0056 -0.2880 -0.2744
   61MOL0     H 8355  10.835  11.276   8.739  0.8219 -0.6964  0.2982
   61MOL0     H 8356  10.755  11.183   8.613  0.9579  0.0227 -0.6805
   61MOL0     H 8357  10.796  11.382   8.452 -2.6358 -1.3548  1.8653
   61MOL0     H 8358  10.931  11.423   8.564  0.6964  0.0990 -0.7699
   61MOL0     H 8359  11.004  11.279   8.363  1.2025 -1.7351  0.1083
   61MOL0     H 8360  10.913  11.157   8.426 -0.1316  1.0933 -0.9682
   61MOL0     H 8361  11.150  11.295   8.567 -0.1513 -0.9578  0.7874
   61MOL0     H 8362  11.058  11.170   8.648  4.0816 -0.9116  0.6168
   61MOL0     H 8363  11.186  11.107   8.376  1.2677 -0.0834  0.5255
   61MOL0     H 8364  11.105  11.001   8.494 -0.1245 -1.2312 -3.4471
   61MOL0     H 8365  11.278  11.026   8.654 -0.3031 -1.0307 -0.7444
   61MOL0     H 8366  11.362  10.982   8.510 -0.2035  0.1321 -1.2169
   61MOL0     H 8367  11.399  11.203   8.319 -1.3228  0.5894 -0.9053
   61MOL0     H 8368  11.545  11.555   8.397  1.5439 -0.9586  1.1833
   61MOL0     H 8369  11.427  11.489   8.285 -0.7149 -1.7961  0.2085
   61MOL0     H 8370  11.702  11.362   8.341 -0.8505 -0.1518  0.4474
   61MOL0     H 8371  11.613  11.323   8.195  0.1884  1.0124 -1.8377
   61MOL0     H 8372  11.654  11.591   8.164  0.2714 -0.3348  0.3393
   61MOL0     H 8373  11.782  11.558   8.276  0.0349 -1.3414  1.6163
   61MOL0     H 8374  11.734  11.391   8.030 -0.8951  0.9980  0.7892
   61MOL0     H 8375  11.857  11.511   8.029  0.6410 -1.3170 -0.6295
   61MOL0     H 8376  11.960  11.386   7.896  0.4991  1.0713  0.4414
   61MOL0     H 8377  12.279  11.348   7.751 -0.6353  3.4440 -0.9949
   61MOL0     H 8378  12.111  11.388   7.704  0.6529  0.7581  1.6353
   61MOL0     H 8379  12.163  11.229   7.678 -0.4842 -1.9423  1.3462
   61MOL0     H 8380  12.545  10.984   8.216  0.3782 -1.4299  0.5624
   61MOL0     H 8381  12.787  10.894   8.228  0.3638 -1.4125 -0.3408
   61MOL0     H 8382  12.959  10.741   7.866  1.7203 -0.1623 -1.4424
   61MOL0     H 8383  13.028  10.908   7.881 -1.3489  1.3001 -0.1059
   61MOL0     H 8384  13.187  10.718   7.888 -2.3076  0.4823 -0.9609
   61MOL0     H 8385  13.193  10.830   8.030 -0.7979  0.7424  0.6572
   61MOL0     H 8386  13.028  10.580   8.013 -2.0351  4.4178  0.5293
   61MOL0     H 8387  13.078  10.659   8.166 -0.9121  2.4089 -2.0618
   61MOL0     H 8388  13.240  10.479   8.004 -0.8053 -3.2368  1.2590
   61MOL0     H 8389  13.199  10.454   8.165 -0.0116 -0.5767 -1.0225
   61MOL0     H 8390  13.391  10.673   8.086 -1.9581 -0.4027 -2.4847
   61MOL0     H 8391  13.305  10.669   8.237 -0.0750 -1.2220  0.7740
   61MOL0     H 8392  13.449  10.455   8.297  2.4949 -1.9421 -0.7752
   61MOL0     H 8393  13.546  10.587   8.244 -3.2169  1.6970  1.8805
   61MOL0     H 8394  13.532  10.467   8.001 -1.6585  1.4525  0.4865
   61MOL0     H 8395  13.456  10.340   8.079 -1.6847  0.7669 -0.4916
   61MOL0     H 8396  13.684  10.272   8.090  4.0674  0.7806  0.2949
   61MOL0     H 8397  13.654  10.325   8.247  0.2826 -1.7302 -0.3904
   61MOL0     H 8398  12.840  10.954   7.816 -0.1555  0.9842 -0.7846
   61MOL0     H 8399  12.622  11.062   7.785  0.1238 -1.8314 -0.5805
   61MOL0     H 8400  12.210  11.035   8.143 -2.6432 -0.5285  1.0747
   61MOL0     H 8401  12.030  11.167   8.250  0.9409  0.2833 -0.2201
   61MOL0     H 8402  10.318  11.212   8.885  0.8360  1.4059 -0.7490
   61MOL0     H 8403  10.085  11.134   8.864  0.9001 -1.0754  1.3768
   61MOL0     H 8404   9.675  11.075   8.530  0.2081  1.5338  0.5870
   61MOL0     H 8405   9.457  10.969   8.529 -0.7961 -0.6512  1.4450
   61MOL0     H 8406   9.443  10.738   8.387  0.0946  1.5589  1.4954
   61MOL0     H 8407   9.469  10.583   8.459 -0.1239  0.2336 -0.8087
   61MOL0     H 8408   9.258  10.655   8.304 -1.2163  1.4890  0.6796
   61MOL0     H 8409   9.195  10.699   8.452 -0.6200 -0.5806 -0.6212
   61MOL0     H 8410   9.150  10.422   8.392  1.8724 -0.8499 -1.5666
   61MOL0     H 8411   9.319  10.419   8.451 -0.5422  0.7100  1.7495
   61MOL0     H 8412   9.252  10.545   8.651 -1.5984  1.2925  0.8893
   61MOL0     H 8413   9.190  10.377   8.630  1.5299  0.6538  1.0874
   61MOL0     H 8414   8.825  10.589   8.623 -0.6480 -2.3251 -1.0275
   61MOL0     H 8415   9.610  10.617   8.695 -2.1550  0.1852 -0.5084
   61MOL0     H 8416   9.850  10.598   8.765 -2.7276  0.8010 -1.4393
   61MOL0     H 8417   9.970  10.707   8.698  1.2923  1.0628  2.2375
   61MOL0     H 8418   9.898  10.738   8.847  3.5132  0.4919 -0.0315
   62MOL0     O 8419   5.966   5.839   6.662  0.1162  0.0867  0.1752
   62MOL0     C 8420   5.896   5.803   6.567  0.3953  0.1770 -0.6238
   62MOL0     O 8421   5.924   5.806   6.426  0.4464  0.5094  0.0924
   62MOL0     C 8422   6.053   5.835   6.399  0.0065 -1.0151  0.1863
   62MOL0     C 8423   6.060   5.967   6.347  1.1997 -0.3963  0.0600
   62MOL0     C 8424   6.187   6.010   6.317 -0.5967 -0.2842  0.5631
   62MOL0     C 8425   6.302   5.937   6.340  0.0376  0.6909 -0.0821
   62MOL0     O 8426   6.419   6.002   6.326  0.0323 -0.0459  0.3252
   62MOL0     C 8427   6.537   5.944   6.377 -0.7316  1.3707 -0.3138
   62MOL0     C 8428   6.580   5.826   6.278  0.1478 -0.1453  0.3098
   62MOL0     C 8429   6.669   5.719   6.340 -0.2626 -0.1911  0.8517
   62MOL0     C 8430   6.763   5.759   6.449 -0.2010  0.0595  0.3463
   62MOL0     C 8431   6.834   5.640   6.515  0.0880  0.6746 -0.2907
   62MOL0     C 8432   6.941   5.691   6.614  0.0129 -0.4493 -0.0868
   62MOL0     C 8433   6.885   5.724   6.755  0.4990  0.4149  0.4978
   62MOL0     C 8434   6.973   5.786   6.862  0.5516 -0.2534 -0.1014
   62MOL0     N 8435   6.965   5.932   6.861 -0.5216 -0.1579  0.0318
   62MOL0     C 8436   7.044   6.022   6.789 -0.7131  0.5964 -0.0045
   62MOL0     C 8437   7.014   6.141   6.836  0.2267 -0.3184  0.3273
   62MOL0     C 8438   7.081   6.276   6.802 -0.6470 -0.0249 -0.4999
   62MOL0     C 8439   7.199   6.293   6.887 -0.0969 -0.0979 -0.2114
   62MOL0     C 8440   7.279   6.428   6.854 -0.7530 -0.2983  0.6959
   62MOL0     C 8441   7.431   6.418   6.884 -0.2084  0.0524  0.2162
   62MOL0     O 8442   7.449   6.388   7.024  0.2915 -0.0867  0.5838
   62MOL0     C 8443   7.583   6.348   7.063  0.4229 -0.3398  1.2976
   62MOL0     C 8444   7.698   6.389   6.999 -0.4042  0.1589  0.6656
   62MOL0     C 8445   7.825   6.350   7.035  0.3517 -0.2338 -0.4354
   62MOL0     C 8446   7.941   6.399   6.958  0.7139  0.0527  0.3569
   62MOL0     C 8447   7.834   6.262   7.157 -0.3310 -1.0871 -0.3201
   62MOL0     C 8448   7.964   6.204   7.211  0.0820 -0.2908 -0.2842
   62MOL0     O 8449   7.969   6.198   7.344  0.0307  0.9502  0.0866
   62MOL0     C 8450   8.094   6.172   7.411 -0.0633 -0.0577  0.1164
   62MOL0     C 8451   8.226   6.195   7.360 -0.6512  0.5627 -0.0747
   62MOL0     C 8452   8.335   6.191   7.448 -0.6195  0.6753  0.3456
   62MOL0     C 8453   8.319   6.139   7.578 -0.3337 -0.1006  0.8259
   62MOL0     O 8454   8.428   6.105   7.653 -0.4520 -0.0244 -0.2813
   62MOL0     C 8455   8.568   6.106   7.613 -0.3645 -0.0733  0.6701
   62MOL0     C 8456   8.645   5.988   7.677 -0.3291  0.0228 -0.3430
   62MOL0     C 8457   8.571   5.857   7.675 -0.1466 -0.2830  0.3639
   62MOL0     C 8458   8.461   5.820   7.775 -0.0918 -0.4569  0.7119
   62MOL0     C 8459   8.422   5.677   7.758  0.1520  0.0642  0.3853
   62MOL0     C 8460   8.314   5.634   7.853 -0.3526 -0.2380  0.0186
   62MOL0     C 8461   8.176   5.715   7.855 -0.2834 -0.3346  0.0363
   62MOL0     C 8462   8.105   5.714   7.719 -0.0715 -0.7067 -0.4485
   62MOL0    Cl 8463   7.971   5.842   7.733  0.5106 -0.3500 -0.1218
   62MOL0     C 8464   8.192   6.119   7.626 -0.1101 -0.6327 -0.5750
   62MOL0     C 8465   8.082   6.143   7.547 -0.3250 -0.7646 -0.2584
   62MOL0     O 8466   8.053   6.174   7.131 -0.4600 -0.2672  0.5757
   62MOL0     C 8467   7.714   6.223   7.219 -0.0594 -1.0410 -0.5282
   62MOL0     C 8468   7.590   6.271   7.175  0.4072  0.1912 -0.5554
   62MOL0     N 8469   6.911   6.138   6.922 -1.0659 -0.3440  0.2174
   62MOL0     N 8470   6.884   6.013   6.940 -0.1824 -0.2574 -0.0246
   62MOL0     C 8471   6.288   5.802   6.391 -0.4665 -0.2388  0.6486
   62MOL0     C 8472   6.161   5.751   6.395 -0.0811  0.2591  0.0971
   62MOL0     C 8473   5.755   5.746   6.603 -0.1930 -0.6073 -0.0155
   62MOL0     C 8474   5.727   5.717   6.742 -0.7054  0.3513 -0.1358
   62MOL0     C 8475   5.597   5.689   6.783  0.0041  0.4586  0.3583
   62MOL0     C 8476   5.503   5.657   6.689 -0.0462  0.8824  0.6325
   62MOL0     O 8477   5.381   5.604   6.706  0.3134  0.1632 -0.2981
   62MOL0     C 8478   5.365   5.512   6.817  0.2843 -0.1002  0.3262
   62MOL0     C 8479   5.226   5.445   6.833  0.5378 -0.3508 -0.1786
   62MOL0     C 8480   5.179   5.360   6.707  0.1436 -0.3550  0.0105
   62MOL0     C 8481   5.067   5.258   6.743 -0.1188 -0.1447 -0.0815
   62MOL0     C 8482   4.944   5.310   6.793 -0.2975 -0.7421 -1.2753
   62MOL0     C 8483   4.839   5.362   6.817 -0.6301  0.3758 -0.1252
   62MOL0     C 8484   5.530   5.684   6.559  0.3715 -0.5860 -0.4413
   62MOL0     C 8485   5.650   5.732   6.508  0.8633 -0.2836  0.4693
   62MOL0     C 8486   5.652   5.750   6.355  0.0657 -0.4718 -0.0847
   62MOL0     H 8487   5.979   6.039   6.338  1.9142  0.4258  0.1283
   62MOL0     H 8488   6.208   6.107   6.273  2.3512 -0.8580  0.4961
   62MOL0     H 8489   6.525   5.905   6.478  0.8229  3.2639  0.6627
   62MOL0     H 8490   6.617   6.019   6.372 -0.9989  1.6381 -0.7024
   62MOL0     H 8491   6.501   5.787   6.213  0.9627  0.1411 -0.8957
   62MOL0     H 8492   6.649   5.871   6.206  0.0566 -1.7453 -0.8398
   62MOL0     H 8493   6.601   5.642   6.378 -1.0945  0.0254 -0.1611
   62MOL0     H 8494   6.721   5.669   6.258  0.4662  1.5130  0.2329
   62MOL0     H 8495   6.842   5.821   6.406 -1.2520  1.6139  0.5803
   62MOL0     H 8496   6.719   5.835   6.514  0.3545  2.6623 -2.0764
   62MOL0     H 8497   6.872   5.569   6.441  1.7091 -0.2021  1.3337
   62MOL0     H 8498   6.759   5.586   6.573 -0.1209  0.6775 -0.5528
   62MOL0     H 8499   7.014   5.614   6.638  2.0267  0.7976 -1.8644
   62MOL0     H 8500   6.992   5.784   6.587  0.2938  0.1472  2.2165
   62MOL0     H 8501   6.835   5.639   6.803 -0.5892  0.5259 -0.4028
   62MOL0     H 8502   6.801   5.793   6.744 -0.3487 -0.9414 -2.4903
   62MOL0     H 8503   6.933   5.749   6.957  1.8204 -0.4822  0.3684
   62MOL0     H 8504   7.078   5.753   6.862 -0.4682 -3.9162 -0.8840
   62MOL0     H 8505   7.125   6.003   6.720  0.0638 -0.9841  1.2939
   62MOL0     H 8506   7.011   6.359   6.815 -3.1380 -1.4902 -3.2736
   62MOL0     H 8507   7.100   6.272   6.694 -0.4639  0.6583 -0.5013
   62MOL0     H 8508   7.179   6.302   6.994 -0.2800  4.4304 -0.3940
   62MOL0     H 8509   7.263   6.211   6.854 -1.1727 -1.7687  1.6480
   62MOL0     H 8510   7.257   6.448   6.748 -1.2641 -1.3726  0.5830
   62MOL0     H 8511   7.245   6.519   6.905  1.3603  0.6512  0.5027
   62MOL0     H 8512   7.466   6.329   6.832 -1.7419 -0.2103 -0.4258
   62MOL0     H 8513   7.479   6.510   6.848 -0.4914 -0.2484 -0.9474
   62MOL0     H 8514   7.698   6.456   6.914  3.0321 -1.1228 -0.5451
   62MOL0     H 8515   7.911   6.464   6.875 -3.1103 -0.8062  0.8589
   62MOL0     H 8516   7.999   6.314   6.923  0.8618  0.1660  0.3267
   62MOL0     H 8517   8.004   6.452   7.030  0.7910 -1.4186  1.4158
   62MOL0     H 8518   8.246   6.224   7.257  2.5645 -2.6572 -0.5811
   62MOL0     H 8519   8.430   6.194   7.397 -0.8221 -0.3563 -0.1017
   62MOL0     H 8520   8.586   6.098   7.506 -1.1024  0.8668  0.4627
   62MOL0     H 8521   8.615   6.200   7.644  1.3999 -1.1387  1.3924
   62MOL0     H 8522   8.740   5.983   7.623  0.4279 -0.5518  0.9859
   62MOL0     H 8523   8.661   6.008   7.784  1.1513  2.4547 -0.9418
   62MOL0     H 8524   8.647   5.779   7.686 -1.2016 -1.2265  1.2172
   62MOL0     H 8525   8.517   5.841   7.582 -2.4494  0.3484  1.5094
   62MOL0     H 8526   8.378   5.892   7.772 -0.0284 -0.3932 -1.3770
   62MOL0     H 8527   8.503   5.821   7.876 -1.4097  3.1245  1.3804
   62MOL0     H 8528   8.390   5.660   7.655 -0.4877 -1.2969  0.7870
   62MOL0     H 8529   8.518   5.625   7.766  1.2672  1.4511 -2.5225
   62MOL0     H 8530   8.357   5.648   7.953 -0.0177 -1.9265  0.1477
   62MOL0     H 8531   8.296   5.527   7.840 -1.9760 -0.0484  0.4548
   62MOL0     H 8532   8.191   5.820   7.881 -0.1052 -0.4372  0.3504
   62MOL0     H 8533   8.113   5.663   7.928 -0.5584 -1.8019 -1.1899
   62MOL0     H 8534   8.075   5.613   7.688 -0.7435 -0.0405 -2.0448
   62MOL0     H 8535   8.187   5.749   7.655  0.6919 -2.2824 -0.3821
   62MOL0     H 8536   8.166   6.089   7.727  3.4153 -3.2490 -0.2536
   62MOL0     H 8537   7.982   6.126   7.584 -0.4654 -1.3623 -0.8910
   62MOL0     H 8538   7.713   6.147   7.297 -1.9734 -0.9261 -0.3793
   62MOL0     H 8539   7.503   6.239   7.231  2.2265 -1.1917  1.6651
   62MOL0     H 8540   6.364   5.727   6.409 -1.2891 -0.5629  3.2243
   62MOL0     H 8541   6.132   5.651   6.425 -1.6760  0.0441 -1.9280
   62MOL0     H 8542   5.801   5.737   6.819  2.3423 -0.3798 -2.6573
   62MOL0     H 8543   5.567   5.673   6.887 -1.1582  1.2221  0.1600
   62MOL0     H 8544   5.439   5.434   6.802 -0.3295 -0.4650 -0.9730
   62MOL0     H 8545   5.376   5.570   6.910  2.8342 -0.3138  0.2358
   62MOL0     H 8546   5.145   5.515   6.858  1.0767 -0.0829  0.8674
   62MOL0     H 8547   5.224   5.373   6.915 -1.2359 -0.4478 -0.2531
   62MOL0     H 8548   5.157   5.425   6.621 -0.1632 -0.9219 -0.3458
   62MOL0     H 8549   5.273   5.312   6.681  1.7064  1.9892  0.9709
   62MOL0     H 8550   5.106   5.193   6.823  2.0411  1.0447 -0.1061
   62MOL0     H 8551   5.029   5.195   6.662 -2.7826 -1.0841  1.7204
   62MOL0     H 8552   4.750   5.409   6.854 -1.1338 -0.5585 -0.1013
   62MOL0     H 8553   5.448   5.660   6.492 -0.1956 -0.9869  0.3659
   62MOL0     H 8554   5.676   5.853   6.328  2.5843 -0.9698  0.0283
   62MOL0     H 8555   5.738   5.703   6.307 -2.6202 -3.7321 -2.1415
   62MOL0     H 8556   5.554   5.722   6.315 -1.2956 -1.3485  3.4596
   63MOL0     O 8557  11.329  10.658   2.141  0.0804  0.2031 -0.1098
   63MOL0     C 8558  11.291  10.716   2.245  0.0059 -0.5621 -1.1876
   63MOL0     O 8559  11.352  10.720   2.371  0.3735  0.1043 -1.0919
   63MOL0     C 8560  11.482  10.691   2.387  0.1955  0.4157  0.4727
   63MOL0     C 8561  11.584  10.703   2.290 -0.2678  0.4471 -0.5063
   63MOL0     C 8562  11.719  10.672   2.315  0.2878 -0.0665 -0.2230
   63MOL0     C 8563  11.749  10.642   2.452 -0.5325 -0.3079  0.1449
   63MOL0     O 8564  11.875  10.633   2.489 -1.0347 -0.0917  0.4581
   63MOL0     C 8565  11.940  10.756   2.513 -0.0912 -0.5955  0.0823
   63MOL0     C 8566  12.040  10.749   2.630 -0.3956  0.5517 -0.7173
   63MOL0     C 8567  12.124  10.628   2.661  0.1720  0.2438 -0.2223
   63MOL0     C 8568  12.258  10.643   2.742  0.1548 -0.5618 -0.6623
   63MOL0     C 8569  12.372  10.686   2.652  0.1315 -0.6834 -0.4162
   63MOL0     C 8570  12.416  10.573   2.557  0.5762  1.2812  0.7786
   63MOL0     C 8571  12.569  10.578   2.523  0.0912 -0.4612  0.1226
   63MOL0     C 8572  12.656  10.511   2.628 -1.0550 -0.0818 -0.3525
   63MOL0     N 8573  12.798  10.509   2.602  0.3770 -0.1382 -0.6877
   63MOL0     C 8574  12.865  10.439   2.508  0.0965  0.1829 -0.0436
   63MOL0     C 8575  12.995  10.466   2.512  0.2283  0.5299 -0.1972
   63MOL0     C 8576  13.109  10.397   2.441 -0.0351 -0.2366 -0.0869
   63MOL0     C 8577  13.240  10.481   2.430 -0.0901 -0.0878  0.3175
   63MOL0     C 8578  13.344  10.423   2.336  0.4589 -0.5133 -0.3053
   63MOL0     C 8579  13.490  10.475   2.379  0.4199  0.2043 -0.0793
   63MOL0     O 8580  13.588  10.379   2.339  0.3354 -0.3113  0.0602
   63MOL0     C 8581  13.651  10.379   2.220 -0.1359  0.7650 -0.4628
   63MOL0     C 8582  13.605  10.454   2.114 -1.0936  0.2789  0.0828
   63MOL0     C 8583  13.681  10.454   1.994 -0.1534 -1.1556 -0.4940
   63MOL0     C 8584  13.646  10.564   1.892 -0.2496  0.1812  0.5771
   63MOL0     C 8585  13.802  10.374   1.991 -0.0749  0.4134  0.6121
   63MOL0     C 8586  13.893  10.371   1.877 -0.7125 -0.9448  0.1295
   63MOL0     O 8587  13.954  10.255   1.849  0.2360 -0.1323  0.0436
   63MOL0     C 8588  14.058  10.266   1.759 -0.0587 -1.1533  0.2380
   63MOL0     C 8589  14.189  10.269   1.798  0.3848 -0.4546 -0.7529
   63MOL0     C 8590  14.287  10.303   1.704  0.5233  0.1147 -0.0620
   63MOL0     C 8591  14.273  10.331   1.566 -0.3440 -0.8060 -0.9462
   63MOL0     O 8592  14.372  10.395   1.494  0.5367  0.0219  0.0178
   63MOL0     C 8593  14.508  10.408   1.540 -0.5711  0.7628 -0.0019
   63MOL0     C 8594  14.567  10.523   1.465 -0.5433 -0.4667 -0.5841
   63MOL0     C 8595  14.706  10.554   1.514  0.0587 -0.0637  0.4547
   63MOL0     C 8596  14.788  10.633   1.402  0.1842  0.5928 -0.9686
   63MOL0     C 8597  14.926  10.674   1.462  0.7239 -0.3468  1.0139
   63MOL0     C 8598  14.996  10.741   1.336  0.3522  0.1749 -0.2065
   63MOL0     C 8599  15.122  10.808   1.376  0.2345 -0.3995 -0.3193
   63MOL0     C 8600  15.184  10.863   1.248 -0.0888 -0.8828 -0.4110
   63MOL0    Cl 8601  15.343  10.947   1.286  0.0386  0.1964  0.2460
   63MOL0     C 8602  14.133  10.334   1.527 -0.7369  0.3088  0.7160
   63MOL0     C 8603  14.032  10.302   1.623  0.6243 -0.0441 -0.1022
   63MOL0     O 8604  13.921  10.482   1.836  0.2269  0.1966 -0.2177
   63MOL0     C 8605  13.836  10.293   2.100  0.3745  0.0444 -0.1829
   63MOL0     C 8606  13.758  10.299   2.207 -0.6353  0.6261 -0.1644
   63MOL0     N 8607  13.010  10.545   2.619 -0.1802  0.4941  0.9185
   63MOL0     N 8608  12.894  10.575   2.669 -0.0252 -0.6704  0.5960
   63MOL0     C 8609  11.649  10.632   2.549 -0.9062  0.4225  0.0474
   63MOL0     C 8610  11.519  10.661   2.521 -0.0546  0.0519 -0.4593
   63MOL0     C 8611  11.152  10.780   2.237 -0.8555 -0.1458  0.5493
   63MOL0     C 8612  11.123  10.876   2.335 -0.2632 -0.4524  0.1749
   63MOL0     C 8613  10.998  10.941   2.344  0.1086  0.4821  0.9688
   63MOL0     C 8614  10.910  10.916   2.232  0.4450 -0.1149  0.5945
   63MOL0     O 8615  10.791  10.982   2.222 -0.1599  0.1553 -0.5430
   63MOL0     C 8616  10.688  10.898   2.271  0.0086 -0.2281  0.0158
   63MOL0     C 8617  10.601  10.853   2.155 -0.2368 -0.3493  0.5693
   63MOL0     C 8618  10.495  10.764   2.221  0.7341 -0.5581 -0.1716
   63MOL0     C 8619  10.376  10.739   2.122  0.1588 -0.0221  0.5659
   63MOL0     C 8620  10.407  10.681   1.993  0.1465 -0.3291  0.1557
   63MOL0     C 8621  10.432  10.637   1.889  0.5738 -0.1456  0.7472
   63MOL0     C 8622  10.945  10.831   2.130  0.1059 -0.0340  0.5833
   63MOL0     C 8623  11.061  10.755   2.129 -0.0576  0.2155 -0.7239
   63MOL0     C 8624  11.075  10.660   2.017  0.4535 -0.3215 -0.0070
   63MOL0     H 8625  11.556  10.733   2.189 -0.1570  1.3812 -0.2681
   63MOL0     H 8626  11.793  10.689   2.238 -0.0244  1.4434 -0.2116
   63MOL0     H 8627  11.869  10.839   2.526 -0.5957 -0.6442 -1.9897
   63MOL0     H 8628  11.991  10.777   2.418  2.7860  1.5796  1.9481
   63MOL0     H 8629  12.110  10.830   2.614 -1.0449  1.1691 -0.4895
   63MOL0     H 8630  11.979  10.770   2.719 -1.0323  0.8540 -1.2210
   63MOL0     H 8631  12.048  10.577   2.720 -1.7505  1.3493 -1.6011
   63MOL0     H 8632  12.143  10.589   2.560 -0.4539  0.1703 -0.3173
   63MOL0     H 8633  12.229  10.729   2.804 -3.4538  0.7928 -3.8058
   63MOL0     H 8634  12.277  10.558   2.809 -1.7295 -1.9568 -1.7779
   63MOL0     H 8635  12.453  10.723   2.716  0.9405 -0.1506 -1.7063
   63MOL0     H 8636  12.340  10.777   2.600 -1.1065  0.5421  2.2803
   63MOL0     H 8637  12.390  10.479   2.606  1.6764  0.3492 -0.3681
   63MOL0     H 8638  12.358  10.573   2.464  0.9031 -1.3842  0.5158
   63MOL0     H 8639  12.600  10.681   2.504 -1.6660 -0.2738 -2.1265
   63MOL0     H 8640  12.592  10.534   2.426 -2.8601  0.8904 -1.3166
   63MOL0     H 8641  12.637  10.569   2.720 -3.5616  1.9321 -1.9877
   63MOL0     H 8642  12.615  10.411   2.645 -1.5944  0.0816 -0.6566
   63MOL0     H 8643  12.818  10.364   2.445  1.5573 -0.9557  0.1710
   63MOL0     H 8644  13.083  10.390   2.335 -1.0904  3.5528 -0.2462
   63MOL0     H 8645  13.119  10.300   2.490 -0.7024 -0.2841 -0.0298
   63MOL0     H 8646  13.217  10.587   2.414  1.6989  1.0140  3.9173
   63MOL0     H 8647  13.283  10.487   2.530  1.3695  1.8600 -0.3612
   63MOL0     H 8648  13.351  10.314   2.348  0.3038 -0.6737 -1.5222
   63MOL0     H 8649  13.309  10.440   2.233 -0.2567 -0.0965 -0.0047
   63MOL0     H 8650  13.510  10.571   2.332 -0.1048  0.0864 -0.5523
   63MOL0     H 8651  13.493  10.492   2.487 -0.9425  1.4923 -0.2215
   63MOL0     H 8652  13.514  10.513   2.112 -0.3526  1.5971  1.9683
   63MOL0     H 8653  13.538  10.583   1.897 -0.5229 -1.2879  0.6279
   63MOL0     H 8654  13.665  10.524   1.793 -1.8111  0.0315  0.3084
   63MOL0     H 8655  13.698  10.656   1.919  2.2505 -0.7179 -0.8619
   63MOL0     H 8656  14.219  10.269   1.902 -1.3871  2.8096 -0.1056
   63MOL0     H 8657  14.387  10.304   1.748 -0.2470 -0.8698  1.8477
   63MOL0     H 8658  14.524  10.434   1.646 -2.2812  2.4262 -0.0875
   63MOL0     H 8659  14.564  10.315   1.533 -2.0850 -0.2520  0.7276
   63MOL0     H 8660  14.579  10.491   1.362 -0.1941  1.8447 -1.3110
   63MOL0     H 8661  14.506  10.614   1.466  0.3722  0.1554 -0.9846
   63MOL0     H 8662  14.752  10.459   1.543 -1.1436 -0.7561  0.1577
   63MOL0     H 8663  14.687  10.617   1.601 -0.4279  1.6565 -0.8382
   63MOL0     H 8664  14.727  10.717   1.369 -0.2748  0.6799  0.0546
   63MOL0     H 8665  14.804  10.557   1.325 -1.7252 -1.4725  0.5352
   63MOL0     H 8666  14.909  10.745   1.542  2.2213 -0.9187  1.8908
   63MOL0     H 8667  14.987  10.589   1.494  1.9920 -0.4763 -1.5080
   63MOL0     H 8668  14.932  10.813   1.285  1.3054  2.0253  1.0831
   63MOL0     H 8669  15.022  10.668   1.259 -2.3294  1.8136 -2.8551
   63MOL0     H 8670  15.191  10.731   1.411  0.0797 -0.6389 -0.5425
   63MOL0     H 8671  15.104  10.885   1.452 -0.1702 -0.8990  0.0899
   63MOL0     H 8672  15.116  10.935   1.203 -0.2689  1.0993  2.6854
   63MOL0     H 8673  15.207  10.790   1.170 -1.0943 -1.2351 -0.3945
   63MOL0     H 8674  14.102  10.366   1.429  1.5471 -0.2402 -0.2438
   63MOL0     H 8675  13.930  10.300   1.584  1.1494 -0.6300 -1.5064
   63MOL0     H 8676  13.924  10.230   2.104  0.5986  0.3425 -0.4131
   63MOL0     H 8677  13.786  10.248   2.300 -0.0552  0.9820 -0.1436
   63MOL0     H 8678  11.677  10.601   2.649  1.5426  0.2231 -0.6370
   63MOL0     H 8679  11.452  10.649   2.605 -1.1093 -1.9282 -1.5029
   63MOL0     H 8680  11.191  10.896   2.417  0.4280  1.5848 -0.8330
   63MOL0     H 8681  10.966  11.002   2.427  1.5574 -1.4382  3.0806
   63MOL0     H 8682  10.733  10.816   2.327 -0.1341 -1.7404 -1.9553
   63MOL0     H 8683  10.645  10.962   2.349  0.7504 -0.5228  0.6751
   63MOL0     H 8684  10.650  10.784   2.084 -1.0597  2.5667 -3.1500
   63MOL0     H 8685  10.564  10.937   2.095 -0.5899  0.0769  1.3818
   63MOL0     H 8686  10.538  10.667   2.246 -1.3432 -1.7537 -1.0116
   63MOL0     H 8687  10.455  10.811   2.311  2.7814 -2.7161  2.0099
   63MOL0     H 8688  10.318  10.828   2.095 -1.4320 -1.3723 -0.6381
   63MOL0     H 8689  10.312  10.661   2.164 -1.0841  0.9954  0.6294
   63MOL0     H 8690  10.448  10.580   1.799 -2.9045  1.1087 -0.8299
   63MOL0     H 8691  10.869  10.818   2.054  0.0948 -2.4363  0.9229
   63MOL0     H 8692  11.072  10.560   2.063  1.0695  1.1272  3.5431
   63MOL0     H 8693  11.001  10.667   1.937  1.1618  0.2265 -0.6304
   63MOL0     H 8694  11.168  10.674   1.962 -0.1581 -1.2280 -1.3125
   64MOL0     O 8695  10.414   8.319   8.054 -0.5727 -0.4959  0.0579
   64MOL0     C 8696  10.333   8.224   8.034 -0.3590 -0.0269  0.0105
   64MOL0     O 8697  10.336   8.108   8.105  0.8672 -0.4787  0.2364
   64MOL0     C 8698  10.439   8.075   8.184  0.1011 -0.2861 -0.9036
   64MOL0     C 8699  10.413   8.013   8.307  0.5405  0.0162 -0.2985
   64MOL0     C 8700  10.519   7.967   8.393  0.9365 -0.4480  0.6871
   64MOL0     C 8701  10.651   7.987   8.356 -0.5549 -0.0605 -0.4061
   64MOL0     O 8702  10.742   7.932   8.442  0.3711 -0.1534  0.2912
   64MOL0     C 8703  10.870   8.000   8.454 -0.2819 -0.4464  0.7383
   64MOL0     C 8704  10.983   7.911   8.393  0.4851  0.8151 -0.2327
   64MOL0     C 8705  11.108   7.999   8.382 -0.5586  0.5317  0.0204
   64MOL0     C 8706  11.225   7.936   8.458 -0.0779  1.0268 -0.9720
   64MOL0     C 8707  11.357   8.009   8.439 -0.0079 -0.4057 -0.1142
   64MOL0     C 8708  11.465   7.954   8.526 -0.7916 -0.0631 -0.4222
   64MOL0     C 8709  11.590   8.044   8.532 -0.6108  0.6250  0.3274
   64MOL0     C 8710  11.655   8.071   8.396  0.4507 -0.3893 -0.1213
   64MOL0     N 8711  11.787   8.132   8.398 -0.0284  0.3051 -0.6381
   64MOL0     C 8712  11.818   8.255   8.449  0.4228  0.3602 -0.3368
   64MOL0     C 8713  11.953   8.257   8.431  0.1394 -0.2973  0.4664
   64MOL0     C 8714  12.030   8.367   8.499 -0.4220 -0.2459 -0.4350
   64MOL0     C 8715  12.181   8.329   8.530  0.7028 -0.2135 -0.8703
   64MOL0     C 8716  12.277   8.447   8.577  0.3289 -0.2346  0.8950
   64MOL0     C 8717  12.421   8.397   8.569 -0.4830 -0.0150 -0.4745
   64MOL0     O 8718  12.513   8.508   8.576  0.2058  0.0772  0.2861
   64MOL0     C 8719  12.639   8.480   8.592  0.0137 -0.6961 -0.0855
   64MOL0     C 8720  12.704   8.381   8.516  0.0347 -0.2027 -1.0302
   64MOL0     C 8721  12.844   8.361   8.535 -0.7282 -0.4173  0.4033
   64MOL0     C 8722  12.904   8.248   8.454  0.8969 -0.4262 -0.4929
   64MOL0     C 8723  12.919   8.442   8.618 -0.0021 -0.6492 -0.0153
   64MOL0     C 8724  13.066   8.446   8.626 -0.1053 -0.2368 -0.4780
   64MOL0     O 8725  13.117   8.569   8.671  0.7818  0.6859 -0.0093
   64MOL0     C 8726  13.255   8.577   8.689  0.4627 -0.1176 -0.3335
   64MOL0     C 8727  13.329   8.483   8.763  0.7979  0.4844  0.0752
   64MOL0     C 8728  13.463   8.513   8.791  0.5599 -0.8824  0.2021
   64MOL0     C 8729  13.526   8.626   8.738 -0.1860 -0.3011 -0.7409
   64MOL0     O 8730  13.663   8.640   8.744 -0.0673 -0.6061  0.6018
   64MOL0     C 8731  13.723   8.767   8.758  0.6649 -0.4627  0.0940
   64MOL0     C 8732  13.856   8.754   8.830 -0.1303 -0.0898 -0.4868
   64MOL0     C 8733  13.942   8.880   8.817  0.5826  0.2960 -0.1746
   64MOL0     C 8734  13.900   8.981   8.916 -0.6101 -0.3449 -0.7470
   64MOL0     C 8735  13.973   9.111   8.890 -0.2280 -0.5972  0.7356
   64MOL0     C 8736  13.977   9.196   9.019  0.8200  0.0924 -0.3272
   64MOL0     C 8737  14.044   9.342   9.002 -0.5047  0.5037  0.4674
   64MOL0     C 8738  13.975   9.424   8.897  0.2222 -0.0226  0.1026
   64MOL0    Cl 8739  14.030   9.398   8.731 -0.0590 -0.2187  0.3413
   64MOL0     C 8740  13.455   8.712   8.661  0.1699  0.0307  0.9408
   64MOL0     C 8741  13.317   8.687   8.634 -0.0851  0.2825  0.1816
   64MOL0     O 8742  13.133   8.347   8.599  0.1318 -0.4881 -0.9756
   64MOL0     C 8743  12.853   8.547   8.688 -0.4789  0.1944 -0.1880
   64MOL0     C 8744  12.718   8.562   8.673 -0.2305  0.5945 -0.7067
   64MOL0     N 8745  12.000   8.143   8.363 -0.8292 -0.2500 -0.2009
   64MOL0     N 8746  11.901   8.071   8.347 -0.5863 -0.2413 -0.2439
   64MOL0     C 8747  10.680   8.060   8.237  0.4022 -0.3887  0.0197
   64MOL0     C 8748  10.575   8.100   8.149  0.2411 -0.5564  0.5497
   64MOL0     C 8749  10.220   8.241   7.944 -0.7724  0.5704 -0.7321
   64MOL0     C 8750  10.096   8.177   7.979 -0.3624 -0.5865  0.0152
   64MOL0     C 8751   9.988   8.201   7.893 -0.7249  0.6843  0.2247
   64MOL0     C 8752  10.006   8.281   7.781 -0.6569 -0.4597 -0.0453
   64MOL0     O 8753   9.896   8.295   7.710 -0.2073  0.0202 -0.3184
   64MOL0     C 8754   9.910   8.285   7.569  0.5660 -0.9854 -0.5165
   64MOL0     C 8755   9.790   8.324   7.491 -0.1377  0.2439 -0.5801
   64MOL0     C 8756   9.704   8.202   7.448 -0.1704 -0.3490  0.0605
   64MOL0     C 8757   9.566   8.261   7.410 -1.1965 -0.1021  0.3786
   64MOL0     C 8758   9.465   8.149   7.379 -0.5859 -0.4175  0.3665
   64MOL0     C 8759   9.377   8.077   7.346  0.0772  0.2531 -0.0466
   64MOL0     C 8760  10.127   8.348   7.754  0.1823 -0.2581 -0.3475
   64MOL0     C 8761  10.233   8.319   7.825 -0.1905 -0.2157 -0.1313
   64MOL0     C 8762  10.370   8.360   7.764  0.2008 -1.2790 -0.9664
   64MOL0     H 8763  10.309   8.009   8.338  0.4616  3.4428  0.2391
   64MOL0     H 8764  10.489   7.915   8.484  2.9956  0.9806  2.2876
   64MOL0     H 8765  10.890   8.032   8.556 -1.2945  1.8404  0.2683
   64MOL0     H 8766  10.876   8.095   8.401  1.8651  0.4429  2.4340
   64MOL0     H 8767  11.008   7.836   8.468  3.9883  1.9824 -0.0422
   64MOL0     H 8768  10.958   7.850   8.306 -2.0466  0.3935  0.7101
   64MOL0     H 8769  11.139   8.003   8.277  2.4761  1.0856  0.8376
   64MOL0     H 8770  11.107   8.104   8.412  2.9933  1.1051 -1.3265
   64MOL0     H 8771  11.199   7.919   8.563  0.3865 -1.5763 -1.2006
   64MOL0     H 8772  11.244   7.835   8.419 -0.6660 -0.5391  2.4234
   64MOL0     H 8773  11.335   8.112   8.469  0.5839 -0.9062  2.2944
   64MOL0     H 8774  11.388   8.007   8.335  0.5302  0.0725  0.0327
   64MOL0     H 8775  11.420   7.938   8.624 -1.2759 -2.2895 -0.9453
   64MOL0     H 8776  11.485   7.850   8.497 -3.2070 -2.1601  4.3458
   64MOL0     H 8777  11.662   8.004   8.604 -3.5490 -0.5410  2.8396
   64MOL0     H 8778  11.576   8.149   8.561 -1.4851  0.6222 -0.0621
   64MOL0     H 8779  11.669   7.976   8.344 -0.0603  0.6042 -2.1630
   64MOL0     H 8780  11.592   8.128   8.328  4.3300  4.3810 -0.3028
   64MOL0     H 8781  11.754   8.315   8.513 -2.7508 -2.7154 -0.3082
   64MOL0     H 8782  11.971   8.389   8.589  0.1077 -0.7979  0.0553
   64MOL0     H 8783  12.031   8.458   8.438 -0.9259 -0.8664 -1.3809
   64MOL0     H 8784  12.189   8.247   8.601 -1.0460 -0.2202 -0.6347
   64MOL0     H 8785  12.216   8.280   8.438  2.1767 -2.1308  0.6400
   64MOL0     H 8786  12.259   8.528   8.505 -0.0005 -1.9326 -1.0355
   64MOL0     H 8787  12.252   8.487   8.676  1.1806  2.5133  0.0827
   64MOL0     H 8788  12.440   8.332   8.655 -2.2851 -2.1581 -1.5894
   64MOL0     H 8789  12.437   8.338   8.478 -0.9296 -0.4582 -0.2678
   64MOL0     H 8790  12.645   8.315   8.452  2.0482 -2.9334 -0.2564
   64MOL0     H 8791  12.917   8.153   8.507  3.3750  0.6307  1.0086
   64MOL0     H 8792  13.001   8.266   8.407  1.1295  1.2808  0.5549
   64MOL0     H 8793  12.832   8.234   8.373  0.6547  0.2636 -0.4060
   64MOL0     H 8794  13.280   8.395   8.804 -0.4305  0.6967 -0.8369
   64MOL0     H 8795  13.524   8.458   8.861 -0.9407 -2.0433  0.6530
   64MOL0     H 8796  13.744   8.809   8.659 -0.7504  0.8152  0.2843
   64MOL0     H 8797  13.654   8.828   8.818  0.7131 -0.3611  0.0480
   64MOL0     H 8798  13.853   8.734   8.938  2.4316  0.1974 -0.2991
   64MOL0     H 8799  13.909   8.674   8.779 -0.7596 -1.9277  1.5934
   64MOL0     H 8800  13.920   8.919   8.717  0.0390  1.3309  0.3336
   64MOL0     H 8801  14.050   8.858   8.819  0.5234 -0.0637 -0.7502
   64MOL0     H 8802  13.927   8.955   9.019  1.8760  1.7916 -0.7485
   64MOL0     H 8803  13.792   8.991   8.911 -0.6821 -1.3795 -1.6615
   64MOL0     H 8804  14.076   9.083   8.865 -0.0766 -1.2589  2.0210
   64MOL0     H 8805  13.928   9.160   8.804  1.6540 -2.0167 -1.1635
   64MOL0     H 8806  14.031   9.145   9.099  0.4366  0.0467 -0.0965
   64MOL0     H 8807  13.872   9.207   9.047 -0.2350 -2.4357 -2.7566
   64MOL0     H 8808  14.148   9.329   8.972 -0.6400  2.4923 -1.0435
   64MOL0     H 8809  14.029   9.386   9.100 -0.7268  1.4043  0.0355
   64MOL0     H 8810  13.983   9.532   8.912 -0.8060 -0.2028  2.3905
   64MOL0     H 8811  13.868   9.408   8.906  0.2326  0.0507  0.3717
   64MOL0     H 8812  13.494   8.801   8.614 -1.2276  1.3504  2.1571
   64MOL0     H 8813  13.276   8.771   8.579  1.0132  1.1578  0.6586
   64MOL0     H 8814  12.906   8.611   8.757  0.0219  0.7877 -1.1121
   64MOL0     H 8815  12.669   8.639   8.732  0.5103  1.1054 -0.7547
   64MOL0     H 8816  10.784   8.066   8.204  0.2339 -1.0201 -0.6663
   64MOL0     H 8817  10.601   8.147   8.055 -0.9530  3.9794  2.1842
   64MOL0     H 8818  10.098   8.106   8.061 -0.1232 -2.0216 -1.2138
   64MOL0     H 8819   9.893   8.153   7.916 -0.3157  0.8819  2.5653
   64MOL0     H 8820   9.997   8.348   7.548 -0.0231 -0.0687 -0.2524
   64MOL0     H 8821   9.946   8.184   7.544 -0.5858 -1.1497 -1.5901
   64MOL0     H 8822   9.816   8.371   7.396 -1.3851 -0.9171 -1.5488
   64MOL0     H 8823   9.739   8.405   7.543 -0.6855  2.0708 -3.7012
   64MOL0     H 8824   9.752   8.146   7.367 -1.2870  0.3303 -1.0967
   64MOL0     H 8825   9.690   8.130   7.530 -2.2733 -0.1850 -0.1091
   64MOL0     H 8826   9.576   8.336   7.332  0.3910 -0.4242  0.2536
   64MOL0     H 8827   9.530   8.312   7.500  0.8078  0.1882  1.0629
   64MOL0     H 8828   9.297   8.009   7.326  0.2023 -0.2685  1.1366
   64MOL0     H 8829  10.136   8.424   7.677 -1.2491 -0.7014 -0.9975
   64MOL0     H 8830  10.426   8.425   7.832 -2.6032  0.0410  0.2106
   64MOL0     H 8831  10.434   8.272   7.752  2.1446  0.1435 -1.7421
   64MOL0     H 8832  10.357   8.400   7.663  1.7452  0.5739 -0.5039
   65MOL0     O 8833   6.772   4.198   5.937  0.1412  0.6051 -0.0644
   65MOL0     C 8834   6.831   4.303   5.919 -0.2897 -0.7909 -0.5434
   65MOL0     O 8835   6.962   4.322   5.904  0.0266  0.0419  0.0662
   65MOL0     C 8836   7.052   4.222   5.918 -1.0071 -0.3486 -0.0256
   65MOL0     C 8837   7.073   4.161   6.044  0.0253 -0.6184  0.4035
   65MOL0     C 8838   7.175   4.058   6.057  0.6796  0.6166  0.9575
   65MOL0     C 8839   7.252   4.011   5.950  0.1740 -0.5894  0.3515
   65MOL0     O 8840   7.337   3.899   5.956 -0.1447  0.5044 -0.3508
   65MOL0     C 8841   7.376   3.850   6.083  0.2851 -0.2286  0.5443
   65MOL0     C 8842   7.472   3.732   6.062 -0.5067 -0.4419 -0.5295
   65MOL0     C 8843   7.619   3.771   6.007  0.2231 -0.4676  0.1454
   65MOL0     C 8844   7.702   3.647   5.980  0.0160  1.2056 -0.0901
   65MOL0     C 8845   7.825   3.669   5.892 -0.2481 -0.4732  0.1487
   65MOL0     C 8846   7.912   3.791   5.944 -0.1681  0.6505  0.5660
   65MOL0     C 8847   8.048   3.779   5.881  0.3006  0.3142  0.8434
   65MOL0     C 8848   8.047   3.798   5.732  0.3582  0.3300 -0.5000
   65MOL0     N 8849   8.175   3.744   5.676  0.3102 -0.3053 -0.7954
   65MOL0     C 8850   8.216   3.614   5.691 -0.1085 -0.0981 -0.5831
   65MOL0     C 8851   8.339   3.605   5.633 -0.0913  0.5479 -0.5482
   65MOL0     C 8852   8.421   3.482   5.614  0.1819 -0.9333  0.0628
   65MOL0     C 8853   8.569   3.521   5.620  0.0366 -0.3826  0.0222
   65MOL0     C 8854   8.654   3.401   5.571 -0.0938 -0.8816  0.1321
   65MOL0     C 8855   8.811   3.411   5.579 -0.4950 -0.8837  0.1770
   65MOL0     O 8856   8.878   3.286   5.561 -0.7545  0.2570  0.4672
   65MOL0     C 8857   9.008   3.272   5.611  0.0743 -0.2570  0.7387
   65MOL0     C 8858   9.058   3.143   5.627  0.0169  0.1470 -0.3898
   65MOL0     C 8859   9.195   3.120   5.674  0.8325  0.1397 -0.2137
   65MOL0     C 8860   9.228   2.977   5.714 -0.1140  0.2180 -0.0880
   65MOL0     C 8861   9.281   3.230   5.700 -0.0566  0.0369  1.1996
   65MOL0     C 8862   9.420   3.213   5.732 -0.4300 -0.6459 -0.2022
   65MOL0     O 8863   9.484   3.300   5.814  0.1162 -0.4142  0.5904
   65MOL0     C 8864   9.619   3.271   5.839 -0.4594  0.6219  0.4352
   65MOL0     C 8865   9.669   3.266   5.967  0.2642  0.0729 -0.1117
   65MOL0     C 8866   9.806   3.269   5.998 -0.3399  0.3279 -0.3729
   65MOL0     C 8867   9.897   3.254   5.886 -0.2787  0.1221 -0.0083
   65MOL0     O 8868  10.033   3.241   5.894  0.0107  0.1734 -0.2681
   65MOL0     C 8869  10.081   3.208   6.022 -0.2423  0.3571 -0.2328
   65MOL0     C 8870  10.228   3.158   6.016 -0.0759 -0.9008  0.1686
   65MOL0     C 8871  10.327   3.271   5.981  0.0191 -1.1114  0.1777
   65MOL0     C 8872  10.472   3.228   5.966 -0.0688  1.1056 -0.7317
   65MOL0     C 8873  10.559   3.335   5.893  0.1363 -0.7066 -1.2680
   65MOL0     C 8874  10.698   3.281   5.857 -0.0711 -0.1664 -0.1837
   65MOL0     C 8875  10.788   3.402   5.806  0.3759  1.2468  0.2240
   65MOL0     C 8876  10.920   3.342   5.750  0.2880  0.0703  1.1683
   65MOL0    Cl 8877  10.995   3.457   5.637 -0.4778 -0.4385 -0.2454
   65MOL0     C 8878   9.847   3.268   5.757 -0.0956 -0.0776 -0.4677
   65MOL0     C 8879   9.712   3.277   5.727  0.7331  0.5306 -0.1084
   65MOL0     O 8880   9.469   3.117   5.672  0.0948 -0.3941  0.0772
   65MOL0     C 8881   9.237   3.359   5.680 -0.2383  0.3887  0.7507
   65MOL0     C 8882   9.102   3.378   5.636 -0.5077 -0.5395 -0.0520
   65MOL0     N 8883   8.375   3.738   5.593  0.4855  0.3946  0.3701
   65MOL0     N 8884   8.276   3.814   5.622  0.2564  0.1722 -0.4588
   65MOL0     C 8885   7.228   4.077   5.826 -0.2486  1.5632  0.1615
   65MOL0     C 8886   7.134   4.179   5.805  0.3542  0.3615 -0.7481
   65MOL0     C 8887   6.748   4.418   5.939  0.6540 -0.3911 -0.5491
   65MOL0     C 8888   6.744   4.476   6.070 -0.2763  0.2361  0.7597
   65MOL0     C 8889   6.683   4.604   6.089 -0.1341 -0.1072 -0.2205
   65MOL0     C 8890   6.607   4.665   5.992 -0.5142  0.2903  0.4287
   65MOL0     O 8891   6.544   4.792   6.010 -0.2021  0.6292  0.8244
   65MOL0     C 8892   6.641   4.897   6.038 -0.1578  0.5600  0.2041
   65MOL0     C 8893   6.576   5.025   5.990  0.1146 -0.0565 -0.3721
   65MOL0     C 8894   6.522   5.016   5.846  0.9884 -0.8981  0.0514
   65MOL0     C 8895   6.632   5.002   5.740 -0.0277 -0.8927 -0.6108
   65MOL0     C 8896   6.578   5.004   5.607  0.0354  0.8136  1.0009
   65MOL0     C 8897   6.516   4.978   5.504  0.0291  1.1987 -1.1334
   65MOL0     C 8898   6.609   4.604   5.867 -0.4170 -0.4375  0.0088
   65MOL0     C 8899   6.677   4.485   5.839  0.2992  0.4178 -0.3239
   65MOL0     C 8900   6.682   4.429   5.695 -0.2351 -0.5791 -0.2162
   65MOL0     H 8901   7.006   4.169   6.129  0.8197  0.9293  0.9285
   65MOL0     H 8902   7.198   4.019   6.156 -0.5316 -1.5081  0.4799
   65MOL0     H 8903   7.281   3.820   6.128 -0.6988  0.7410 -0.7948
   65MOL0     H 8904   7.427   3.924   6.146  0.3794  0.8268 -0.7231
   65MOL0     H 8905   7.485   3.705   6.167  3.1013  1.3862 -0.3395
   65MOL0     H 8906   7.432   3.659   5.991  0.9410 -1.5167 -0.2862
   65MOL0     H 8907   7.611   3.825   5.912  2.7766  2.7190  1.5502
   65MOL0     H 8908   7.678   3.832   6.076 -0.0620 -0.4652  0.3879
   65MOL0     H 8909   7.717   3.590   6.072  2.8704 -0.6481 -1.5329
   65MOL0     H 8910   7.630   3.586   5.923  0.3774  0.0186  0.7021
   65MOL0     H 8911   7.795   3.676   5.787  0.2031 -1.8038 -0.0923
   65MOL0     H 8912   7.886   3.578   5.898  3.2940  1.4517 -2.6519
   65MOL0     H 8913   7.854   3.877   5.907 -0.2587  0.6583  0.7243
   65MOL0     H 8914   7.928   3.799   6.052  0.4920 -0.7313  0.5845
   65MOL0     H 8915   8.094   3.685   5.913 -1.0447 -0.2443  1.2271
   65MOL0     H 8916   8.118   3.853   5.921 -0.4857  1.2091  0.6071
   65MOL0     H 8917   7.966   3.741   5.686  0.1164  1.5285 -1.6399
   65MOL0     H 8918   8.032   3.906   5.718 -1.9656 -0.0179 -1.1153
   65MOL0     H 8919   8.156   3.532   5.729  3.4457 -3.5997 -1.8294
   65MOL0     H 8920   8.387   3.428   5.525  3.8141 -2.7270 -0.4357
   65MOL0     H 8921   8.399   3.421   5.702  0.2414 -1.6775 -0.4263
   65MOL0     H 8922   8.594   3.597   5.545  2.4882 -0.5821  0.5323
   65MOL0     H 8923   8.608   3.556   5.717  0.4387 -1.6058  0.3175
   65MOL0     H 8924   8.617   3.316   5.629 -1.5153  1.5858  3.1291
   65MOL0     H 8925   8.638   3.391   5.463 -0.7953  2.0733 -0.1192
   65MOL0     H 8926   8.827   3.482   5.498 -3.6848  0.5657  0.6445
   65MOL0     H 8927   8.834   3.465   5.671 -0.3262 -0.1818 -0.2656
   65MOL0     H 8928   9.001   3.052   5.610  0.3734 -0.2743  0.5843
   65MOL0     H 8929   9.289   2.978   5.805 -0.3434  1.6679  0.0800
   65MOL0     H 8930   9.286   2.928   5.635  0.0044  0.8470 -0.3993
   65MOL0     H 8931   9.138   2.922   5.743  0.8127 -2.0719 -1.3122
   65MOL0     H 8932   9.602   3.272   6.052 -1.4120  1.6896 -1.4733
   65MOL0     H 8933   9.843   3.264   6.100  3.0423  1.3622 -1.4250
   65MOL0     H 8934  10.073   3.296   6.086 -4.2362 -0.9472  1.4148
   65MOL0     H 8935  10.020   3.129   6.067  1.9897 -0.9549  0.6869
   65MOL0     H 8936  10.251   3.124   6.117  2.2583  1.2498  0.4649
   65MOL0     H 8937  10.241   3.072   5.950  3.3441 -1.1707  1.0042
   65MOL0     H 8938  10.326   3.342   6.065  3.5348  1.5676 -1.7872
   65MOL0     H 8939  10.298   3.322   5.889 -1.1651 -2.2115 -0.0907
   65MOL0     H 8940  10.473   3.131   5.917  1.9333  1.0586 -0.6946
   65MOL0     H 8941  10.519   3.199   6.060 -0.7016  0.3560 -0.6408
   65MOL0     H 8942  10.515   3.374   5.801  0.9024  1.1897 -0.8914
   65MOL0     H 8943  10.573   3.419   5.961 -1.5654 -2.0336  0.8332
   65MOL0     H 8944  10.684   3.207   5.777 -4.7767  1.2016 -0.9621
   65MOL0     H 8945  10.740   3.221   5.938 -2.3940 -1.8139 -0.1078
   65MOL0     H 8946  10.815   3.464   5.892  1.7313 -0.8240  1.3740
   65MOL0     H 8947  10.740   3.472   5.737 -1.1284 -0.7078 -0.8299
   65MOL0     H 8948  10.896   3.261   5.680 -2.0766 -0.5377  2.5853
   65MOL0     H 8949  10.988   3.305   5.826  2.8799 -0.4524 -1.2428
   65MOL0     H 8950   9.916   3.294   5.677  0.7695  0.2617  0.3690
   65MOL0     H 8951   9.670   3.302   5.631  3.5953 -3.1990 -2.6221
   65MOL0     H 8952   9.294   3.449   5.699  0.4660  0.3369 -0.9047
   65MOL0     H 8953   9.052   3.474   5.625  2.8567  1.0852 -4.1322
   65MOL0     H 8954   7.281   4.049   5.737  0.4150  2.7338  0.1734
   65MOL0     H 8955   7.119   4.235   5.714 -1.2626  2.6214  0.8009
   65MOL0     H 8956   6.801   4.425   6.147 -2.2296 -1.7716  1.0155
   65MOL0     H 8957   6.693   4.651   6.187 -1.0821 -1.8890  0.7897
   65MOL0     H 8958   6.674   4.908   6.141 -0.6977  0.2342  0.4206
   65MOL0     H 8959   6.733   4.886   5.980 -0.0269  4.5658 -0.6489
   65MOL0     H 8960   6.653   5.102   5.998  2.9471 -2.5701 -1.7370
   65MOL0     H 8961   6.495   5.047   6.061  0.2973 -1.6068  0.3572
   65MOL0     H 8962   6.447   4.936   5.838 -1.3499  1.1602 -0.0283
   65MOL0     H 8963   6.463   5.104   5.819  0.2299 -0.4517  2.8540
   65MOL0     H 8964   6.680   4.906   5.760 -1.7287 -1.5530  0.4656
   65MOL0     H 8965   6.714   5.075   5.746  0.5960 -1.4001 -2.3061
   65MOL0     H 8966   6.448   4.966   5.422 -2.6588 -1.7373  1.2509
   65MOL0     H 8967   6.552   4.658   5.792 -2.9112 -3.7874 -0.7643
   65MOL0     H 8968   6.590   4.444   5.638 -2.3272 -7.4808  0.4116
   65MOL0     H 8969   6.771   4.471   5.647 -0.1847  0.7784  1.0009
   65MOL0     H 8970   6.690   4.321   5.708 -3.4866 -0.7967  0.8912
   66MOL0     O 8971   0.385   9.804   4.037 -0.8566  0.8214 -0.4011
   66MOL0     C 8972   0.462   9.885   3.980  1.2565 -0.2944 -0.6596
   66MOL0     O 8973   0.419   9.974   3.885  0.2959 -0.9499  0.1856
   66MOL0     C 8974   0.283   9.972   3.852 -0.9223 -1.4466  0.7469
   66MOL0     C 8975   0.227  10.095   3.838  0.0106 -1.1944  0.6658
   66MOL0     C 8976   0.097  10.109   3.787 -0.1127 -0.0787  0.1475
   66MOL0     C 8977   0.014   9.999   3.761  0.4761  0.2755 -0.3284
   66MOL0     O 8978  -0.115  10.018   3.723 -0.0761 -0.8819 -0.1645
   66MOL0     C 8979  -0.208  10.008   3.835  0.1596  0.7094  0.1982
   66MOL0     C 8980  -0.338  10.081   3.795 -0.0846 -0.0265 -0.1630
   66MOL0     C 8981  -0.452  10.002   3.738 -0.5047  0.3630  0.0807
   66MOL0     C 8982  -0.518   9.899   3.835  0.0174 -0.3413  1.4555
   66MOL0     C 8983  -0.660   9.862   3.804  0.6152 -0.2738 -0.5144
   66MOL0     C 8984  -0.777   9.966   3.813  0.1519  1.0184 -0.2339
   66MOL0     C 8985  -0.786  10.048   3.944 -0.1301 -0.0608  0.4922
   66MOL0     C 8986  -0.935  10.094   3.963  0.5029 -0.0018  0.1804
   66MOL0     N 8987  -0.959  10.205   4.055  0.2206 -0.0047  0.5013
   66MOL0     C 8988  -0.928  10.335   4.030  0.6927  0.3229  0.4610
   66MOL0     C 8989  -0.980  10.406   4.135 -0.4369 -0.4662 -0.6099
   66MOL0     C 8990  -0.975  10.549   4.169  0.2998 -0.1709 -0.2479
   66MOL0     C 8991  -0.871  10.568   4.278 -0.0602  1.1154 -0.2785
   66MOL0     C 8992  -0.860  10.703   4.342  0.5247 -0.7314 -0.0519
   66MOL0     C 8993  -0.744  10.719   4.435  0.1617 -0.0569  0.2205
   66MOL0     O 8994  -0.628  10.673   4.365 -0.7067 -0.8484  0.4871
   66MOL0     C 8995  -0.516  10.756   4.327 -0.1835  0.6049 -0.1740
   66MOL0     C 8996  -0.509  10.903   4.334  0.2452  0.2017  0.4516
   66MOL0     C 8997  -0.408  10.976   4.270  0.1663  0.2798  0.3454
   66MOL0     C 8998  -0.407  11.129   4.289 -0.0093  0.5056  0.3562
   66MOL0     C 8999  -0.296  10.903   4.204 -0.5967  0.3177  0.4660
   66MOL0     C 9000  -0.174  10.961   4.130 -0.0037 -0.2765 -0.4580
   66MOL0     O 9001  -0.083  10.882   4.079 -0.0519  0.0895 -0.1586
   66MOL0     C 9002   0.019  10.941   4.005 -0.6242 -0.4244 -0.7704
   66MOL0     C 9003   0.138  10.989   4.062  0.2273  0.4985 -0.9718
   66MOL0     C 9004   0.232  11.052   3.983 -0.7180 -0.2953  0.3869
   66MOL0     C 9005   0.205  11.070   3.847 -0.0263 -0.0850  1.0232
   66MOL0     O 9006   0.302  11.136   3.764 -0.1466  0.6248  0.1105
   66MOL0     C 9007   0.287  11.280   3.767 -0.2989  0.7164 -0.2260
   66MOL0     C 9008   0.394  11.354   3.689  0.9629 -0.3809  0.3129
   66MOL0     C 9009   0.538  11.339   3.734 -0.3981 -0.0375  0.1527
   66MOL0     C 9010   0.655  11.360   3.638  0.8130  0.2393  0.1042
   66MOL0     C 9011   0.661  11.501   3.592 -0.7119 -0.2037  0.1745
   66MOL0     C 9012   0.726  11.603   3.694  0.1021  0.4258  1.2055
   66MOL0     C 9013   0.851  11.547   3.771  0.4903 -0.4700  0.1563
   66MOL0     C 9014   0.931  11.670   3.803 -1.3986 -0.2828  0.0812
   66MOL0    Cl 9015   1.029  11.724   3.662  0.5186  0.0702  0.4868
   66MOL0     C 9016   0.089  11.009   3.787  0.1983  0.0608 -1.4455
   66MOL0     C 9017  -0.001  10.945   3.870  0.3870  0.3160  0.5874
   66MOL0     O 9018  -0.171  11.084   4.122  0.3898  1.2743  0.2751
   66MOL0     C 9019  -0.291  10.760   4.214 -0.1367 -0.0706  0.6950
   66MOL0     C 9020  -0.403  10.690   4.267  0.5170 -0.6253  0.3528
   66MOL0     N 9021  -1.022  10.311   4.229  0.4503  0.0108  0.9992
   66MOL0     N 9022  -1.022  10.190   4.175 -0.0626 -0.4919  0.8596
   66MOL0     C 9023   0.071   9.877   3.764 -0.4449 -0.0960 -0.3614
   66MOL0     C 9024   0.203   9.862   3.812 -0.2769 -0.0874  0.0379
   66MOL0     C 9025   0.601   9.866   4.018  0.0202  0.4372 -0.6293
   66MOL0     C 9026   0.648   9.730   4.046 -0.8349  0.3035  0.1596
   66MOL0     C 9027   0.781   9.695   4.067  0.5325 -0.5401  0.3491
   66MOL0     C 9028   0.876   9.799   4.074  0.1954  0.6303 -0.5012
   66MOL0     O 9029   1.002   9.756   4.106  0.3897  0.1877 -0.1418
   66MOL0     C 9030   1.109   9.851   4.091 -0.2236 -0.6650  0.1690
   66MOL0     C 9031   1.148   9.885   3.945 -0.3541 -0.0556 -0.7411
   66MOL0     C 9032   1.200   9.760   3.878 -0.7492 -0.9023  0.0607
   66MOL0     C 9033   1.343   9.730   3.913 -0.3472  0.0564 -0.5594
   66MOL0     C 9034   1.357   9.590   3.939  0.3093 -0.7498  0.1165
   66MOL0     C 9035   1.359   9.475   3.954  1.2575 -0.4481  0.4418
   66MOL0     C 9036   0.837   9.931   4.061 -0.1934  0.1777  0.7870
   66MOL0     C 9037   0.705   9.964   4.025  0.0882 -0.1729  0.6287
   66MOL0     C 9038   0.677  10.113   3.989 -0.5493 -0.1127  0.1074
   66MOL0     H 9039   0.282  10.183   3.868 -0.7927  0.5126 -2.4245
   66MOL0     H 9040   0.051  10.207   3.792 -0.6827 -0.0995 -2.9609
   66MOL0     H 9041  -0.157  10.049   3.922 -0.0155 -0.7612  1.0344
   66MOL0     H 9042  -0.236   9.906   3.863 -3.2378  0.8148 -2.2335
   66MOL0     H 9043  -0.367  10.138   3.884  3.6879  3.1714 -0.6602
   66MOL0     H 9044  -0.307  10.162   3.728 -2.9480 -1.5089 -3.6143
   66MOL0     H 9045  -0.522  10.077   3.698  1.1582  1.6156 -0.5811
   66MOL0     H 9046  -0.409   9.945   3.656 -0.1102  0.6843  0.0645
   66MOL0     H 9047  -0.449   9.814   3.838  1.2406  0.6504  3.0283
   66MOL0     H 9048  -0.523   9.938   3.937  0.9453  1.4812  0.8613
   66MOL0     H 9049  -0.684   9.792   3.885  1.4437  1.2373  1.1091
   66MOL0     H 9050  -0.679   9.824   3.703 -3.5628 -1.3065  0.4608
   66MOL0     H 9051  -0.769  10.034   3.727  2.4668  2.0103  0.7072
   66MOL0     H 9052  -0.873   9.913   3.810 -0.5779  2.1090  2.1041
   66MOL0     H 9053  -0.722  10.136   3.936  0.9965 -0.8276  0.9386
   66MOL0     H 9054  -0.756   9.984   4.028  1.5896 -0.1494 -0.1547
   66MOL0     H 9055  -0.976  10.122   3.866 -0.6945  0.0953  0.6967
   66MOL0     H 9056  -0.986  10.003   3.997 -0.2147 -0.6030 -2.3397
   66MOL0     H 9057  -0.908  10.393   3.941 -1.0195 -0.4933 -0.4951
   66MOL0     H 9058  -1.076  10.569   4.204  0.4893  0.9091 -0.2821
   66MOL0     H 9059  -0.948  10.624   4.094  2.7911  0.8030  1.4438
   66MOL0     H 9060  -0.893  10.505   4.364 -0.4715  2.1458  0.3919
   66MOL0     H 9061  -0.776  10.538   4.230 -0.5795  1.3468 -1.4955
   66MOL0     H 9062  -0.863  10.786   4.271 -2.4503 -1.1461 -0.5671
   66MOL0     H 9063  -0.948  10.721   4.404 -0.1335 -1.5086 -0.7359
   66MOL0     H 9064  -0.740  10.824   4.465 -0.6395  0.2113 -0.5679
   66MOL0     H 9065  -0.764  10.655   4.521 -1.7961 -1.4998 -1.2200
   66MOL0     H 9066  -0.579  10.968   4.385  1.5498  2.7310 -0.8162
   66MOL0     H 9067  -0.476  11.164   4.366 -1.0445 -0.7850  0.0428
   66MOL0     H 9068  -0.451  11.161   4.194  1.0379 -0.3205 -0.4413
   66MOL0     H 9069  -0.306  11.169   4.304  0.5577 -0.4598 -0.7034
   66MOL0     H 9070   0.152  10.990   4.170 -0.6397  1.4674 -0.8551
   66MOL0     H 9071   0.313  11.099   4.038  0.4990 -2.2849  0.3692
   66MOL0     H 9072   0.191  11.313   3.727 -1.4243 -0.2334  1.5374
   66MOL0     H 9073   0.295  11.297   3.875  2.1681 -3.2535  0.4312
   66MOL0     H 9074   0.392  11.319   3.586  1.9648  0.4258  0.0062
   66MOL0     H 9075   0.375  11.461   3.687 -0.2700 -0.5868  0.3004
   66MOL0     H 9076   0.565  11.247   3.786  2.6848  0.6681 -0.0041
   66MOL0     H 9077   0.546  11.412   3.815 -2.5711  3.6034 -2.5689
   66MOL0     H 9078   0.638  11.290   3.556  3.1514  0.3109 -0.5038
   66MOL0     H 9079   0.751  11.331   3.682  0.4620 -2.2390 -0.5936
   66MOL0     H 9080   0.709  11.502   3.493 -0.6873  2.5898  0.1579
   66MOL0     H 9081   0.561  11.535   3.567 -0.9257 -0.3690  0.8068
   66MOL0     H 9082   0.649  11.625   3.768 -0.4945  0.1621  0.6714
   66MOL0     H 9083   0.754  11.693   3.638 -1.6847 -0.6153 -1.5808
   66MOL0     H 9084   0.918  11.482   3.714  3.1977  2.2876 -0.0746
   66MOL0     H 9085   0.827  11.497   3.866  2.8387  1.3547  1.8481
   66MOL0     H 9086   0.998  11.650   3.888  0.1295  2.9915 -0.2001
   66MOL0     H 9087   0.871  11.752   3.844  3.2031  1.7638  3.7017
   66MOL0     H 9088   0.074  11.019   3.680  2.3995 -1.1797 -1.9367
   66MOL0     H 9089  -0.092  10.917   3.818  0.6081  2.8615 -1.3630
   66MOL0     H 9090  -0.214  10.697   4.171 -0.9525 -0.6564  0.0367
   66MOL0     H 9091  -0.409  10.582   4.255 -1.8292 -0.4240 -0.8605
   66MOL0     H 9092   0.008   9.793   3.737 -1.2610  0.4501 -0.2364
   66MOL0     H 9093   0.253   9.767   3.823  0.0787 -0.0980 -1.4563
   66MOL0     H 9094   0.586   9.643   4.028  2.3484 -1.9428 -0.6906
   66MOL0     H 9095   0.805   9.590   4.073 -2.5361 -1.2936  0.8742
   66MOL0     H 9096   1.092   9.944   4.146  1.0245  0.1494 -0.7631
   66MOL0     H 9097   1.187   9.793   4.142 -0.5779 -2.0727 -0.8341
   66MOL0     H 9098   1.215   9.969   3.925  0.1312 -0.4995 -0.9899
   66MOL0     H 9099   1.052   9.912   3.899  0.5895  0.0205 -2.7687
   66MOL0     H 9100   1.131   9.676   3.888 -0.7620 -0.8991  0.0017
   66MOL0     H 9101   1.193   9.777   3.770  0.6120  3.0122  0.4313
   66MOL0     H 9102   1.370   9.784   4.004 -1.9065  1.6479 -0.9671
   66MOL0     H 9103   1.411   9.766   3.836 -1.0442  0.1843 -1.1291
   66MOL0     H 9104   1.347   9.373   3.982 -1.4422  0.2663  2.2323
   66MOL0     H 9105   0.906  10.013   4.048 -0.1717  0.0426 -0.0082
   66MOL0     H 9106   0.729  10.178   4.060 -0.6035 -0.4118  0.4211
   66MOL0     H 9107   0.712  10.131   3.887 -1.5392  0.9121 -0.0684
   66MOL0     H 9108   0.570  10.133   3.982 -1.6122 -4.7569 -0.4784
   67MOL0     O 9109   2.713   5.643   4.215 -0.3827  0.2259  0.2044
   67MOL0     C 9110   2.741   5.571   4.123  0.1571  0.5532 -0.1012
   67MOL0     O 9111   2.655   5.535   4.023  0.9705 -0.1624  0.1971
   67MOL0     C 9112   2.519   5.556   4.024 -0.0955 -0.3289 -0.2405
   67MOL0     C 9113   2.455   5.530   3.904  0.1221 -0.5528  0.0171
   67MOL0     C 9114   2.319   5.546   3.891 -0.2280  0.4558 -0.2546
   67MOL0     C 9115   2.242   5.582   3.999  0.6607  0.0602 -0.6829
   67MOL0     O 9116   2.111   5.607   3.976  0.5633 -0.7998 -0.0019
   67MOL0     C 9117   2.052   5.726   4.039  1.0373  1.2803  0.1410
   67MOL0     C 9118   1.909   5.744   3.982  0.2054  0.2952  0.8969
   67MOL0     C 9119   1.823   5.827   4.076  0.5038  1.1218 -0.5057
   67MOL0     C 9120   1.673   5.841   4.043  0.3186 -0.6690 -0.0861
   67MOL0     C 9121   1.592   5.917   4.146  0.9952  0.1537  0.7303
   67MOL0     C 9122   1.443   5.950   4.097 -0.6795  0.8771 -0.2846
   67MOL0     C 9123   1.361   5.814   4.079 -0.6633  0.3644  1.4397
   67MOL0     C 9124   1.223   5.846   4.024 -1.2424 -0.4160 -0.3087
   67MOL0     N 9125   1.137   5.905   4.129  0.0535  0.2399  0.3864
   67MOL0     C 9126   1.088   5.850   4.249  0.7507  0.2133  0.7032
   67MOL0     C 9127   0.999   5.933   4.296  0.3276 -0.0972  1.2908
   67MOL0     C 9128   0.924   5.928   4.419 -0.5203 -0.3002  0.5273
   67MOL0     C 9129   1.006   5.863   4.527  1.1112  0.0698 -0.3321
   67MOL0     C 9130   0.927   5.804   4.637  0.3548  0.0410  1.0007
   67MOL0     C 9131   0.984   5.674   4.690  0.2190 -0.8683 -0.2383
   67MOL0     O 9132   1.119   5.692   4.736 -0.0290  0.2480  0.2388
   67MOL0     C 9133   1.216   5.618   4.671 -0.5337 -1.3815  0.3253
   67MOL0     C 9134   1.331   5.670   4.640 -0.6928  0.2871 -0.3264
   67MOL0     C 9135   1.430   5.596   4.570  1.0916 -0.2051 -0.4970
   67MOL0     C 9136   1.552   5.664   4.537 -0.2074 -0.2191  0.0433
   67MOL0     C 9137   1.403   5.455   4.544 -0.4690  0.2228 -0.1843
   67MOL0     C 9138   1.501   5.361   4.487  0.1593  0.3892 -0.1846
   67MOL0     O 9139   1.577   5.407   4.396 -0.0214 -0.2342  0.5115
   67MOL0     C 9140   1.699   5.352   4.346 -0.3396  0.1359  0.1447
   67MOL0     C 9141   1.776   5.444   4.286 -0.9431 -0.3279  0.4567
   67MOL0     C 9142   1.902   5.401   4.221  0.4353 -0.5630  0.3191
   67MOL0     C 9143   1.941   5.271   4.216  0.4558 -0.3745  0.3489
   67MOL0     O 9144   2.062   5.246   4.157 -1.0563 -0.4095  0.3791
   67MOL0     C 9145   2.114   5.115   4.161 -0.0900  0.6573  0.0248
   67MOL0     C 9146   2.258   5.124   4.150 -0.9232 -0.4541  0.0065
   67MOL0     C 9147   2.303   5.160   4.007 -0.3996 -0.0386 -0.3810
   67MOL0     C 9148   2.451   5.189   4.018 -1.0405 -0.0006 -0.2729
   67MOL0     C 9149   2.523   5.174   3.885  0.4617 -0.4406  0.0341
   67MOL0     C 9150   2.529   5.029   3.822 -0.4779 -0.4070  0.3496
   67MOL0     C 9151   2.610   5.012   3.694  0.2741 -0.2041 -0.0870
   67MOL0     C 9152   2.654   4.862   3.677 -0.2726 -0.0193  0.3995
   67MOL0    Cl 9153   2.509   4.752   3.644 -0.3497 -0.5206 -0.5075
   67MOL0     C 9154   1.855   5.173   4.276 -0.3036 -0.0555 -0.1124
   67MOL0     C 9155   1.743   5.225   4.351 -0.6108  0.4096  0.0102
   67MOL0     O 9156   1.491   5.241   4.521 -0.6020  0.0392  0.2930
   67MOL0     C 9157   1.284   5.401   4.589  0.0699 -0.0817 -0.7599
   67MOL0     C 9158   1.190   5.478   4.657 -0.7446  0.1751  0.6209
   67MOL0     N 9159   0.984   6.041   4.206 -0.1732 -0.4898  0.6850
   67MOL0     N 9160   1.065   6.020   4.106 -0.9074  0.1600  0.2094
   67MOL0     C 9161   2.308   5.605   4.121  0.4424  0.6958 -0.1056
   67MOL0     C 9162   2.439   5.585   4.136 -0.1395  0.1996  0.1361
   67MOL0     C 9163   2.879   5.518   4.121  0.2321  0.3218 -0.4187
   67MOL0     C 9164   2.949   5.523   4.246 -0.6512 -0.5690  0.8460
   67MOL0     C 9165   3.069   5.447   4.264 -0.7441  1.2633 -0.3956
   67MOL0     C 9166   3.128   5.379   4.159  0.1518  0.2798  0.0600
   67MOL0     O 9167   3.242   5.305   4.189  0.7803 -0.4503 -0.8456
   67MOL0     C 9168   3.335   5.282   4.086  0.2531  0.2824 -0.3939
   67MOL0     C 9169   3.479   5.292   4.134  0.6305 -0.2743 -0.7826
   67MOL0     C 9170   3.537   5.157   4.170 -0.5627  0.0697 -0.5151
   67MOL0     C 9171   3.693   5.184   4.196  0.1013 -0.3136  0.6874
   67MOL0     C 9172   3.742   5.061   4.258  0.6582  0.6999  0.7832
   67MOL0     C 9173   3.807   4.967   4.305 -1.2702 -0.3027  0.3348
   67MOL0     C 9174   3.065   5.385   4.040  0.2315  0.0244  0.4947
   67MOL0     C 9175   2.943   5.449   4.017  1.0112  0.7012  0.8664
   67MOL0     C 9176   2.883   5.443   3.872  0.6652  0.3686 -0.1954
   67MOL0     H 9177   2.528   5.510   3.825  0.0078  2.7177 -1.0822
   67MOL0     H 9178   2.265   5.540   3.797 -1.2713 -0.0499  0.3582
   67MOL0     H 9179   2.115   5.815   4.028  1.8411  0.7137  0.1153
   67MOL0     H 9180   2.039   5.707   4.146 -0.2529 -3.8113 -0.6659
   67MOL0     H 9181   1.913   5.799   3.887  1.6335 -0.3934  0.5221
   67MOL0     H 9182   1.869   5.648   3.948  1.0073  0.7436 -1.4722
   67MOL0     H 9183   1.825   5.775   4.172  2.6436  2.7493  0.4292
   67MOL0     H 9184   1.876   5.917   4.110  3.4879 -0.2123 -1.2552
   67MOL0     H 9185   1.666   5.886   3.943 -0.8948  0.2880  0.3946
   67MOL0     H 9186   1.635   5.740   4.026 -0.5998 -0.2435 -0.6934
   67MOL0     H 9187   1.640   6.011   4.175  2.2178 -1.1260  3.1891
   67MOL0     H 9188   1.586   5.872   4.246  2.8528  0.4834  1.0328
   67MOL0     H 9189   1.402   6.021   4.168 -1.8831 -0.0488 -0.0145
   67MOL0     H 9190   1.444   5.996   3.998 -0.6291  0.6343 -0.3977
   67MOL0     H 9191   1.357   5.757   4.173 -0.3678  0.6998  1.6585
   67MOL0     H 9192   1.414   5.772   3.992 -1.0526  2.2186  0.2608
   67MOL0     H 9193   1.238   5.920   3.946 -0.7131  1.7556  1.7261
   67MOL0     H 9194   1.181   5.763   3.967 -1.6240  0.4088 -1.2632
   67MOL0     H 9195   1.114   5.755   4.294  0.7006 -1.0382 -1.7737
   67MOL0     H 9196   0.840   5.866   4.387 -0.4915 -0.9934  1.7348
   67MOL0     H 9197   0.882   6.022   4.456  0.4622 -0.9292  3.5112
   67MOL0     H 9198   1.065   5.782   4.485 -2.1796 -0.7335 -3.9837
   67MOL0     H 9199   1.073   5.938   4.571  2.8775 -0.0096 -2.7181
   67MOL0     H 9200   0.935   5.877   4.718  1.8959 -2.9790  3.8618
   67MOL0     H 9201   0.820   5.807   4.617 -0.1805 -2.1267  3.0479
   67MOL0     H 9202   0.927   5.637   4.776  2.0150 -0.5021  1.1967
   67MOL0     H 9203   0.967   5.594   4.618 -3.4616  0.9278 -1.6236
   67MOL0     H 9204   1.352   5.770   4.678 -0.6199 -0.0992  0.6590
   67MOL0     H 9205   1.559   5.709   4.438  3.2647  0.5151  0.4946
   67MOL0     H 9206   1.633   5.591   4.541  1.2010  1.1656 -1.5268
   67MOL0     H 9207   1.589   5.743   4.602 -2.0386  0.2649  0.5525
   67MOL0     H 9208   1.757   5.550   4.298  2.6152  0.2681  1.9962
   67MOL0     H 9209   1.965   5.480   4.182  1.9211 -1.2667  1.2182
   67MOL0     H 9210   2.098   5.072   4.261  0.4318 -1.4390 -0.7486
   67MOL0     H 9211   2.067   5.048   4.090  0.8712 -1.3351  1.1747
   67MOL0     H 9212   2.295   5.199   4.220 -1.0186 -0.5412  0.1509
   67MOL0     H 9213   2.297   5.027   4.183 -1.6114 -1.6062 -2.3385
   67MOL0     H 9214   2.259   5.242   3.950 -1.5947  1.2317  2.1814
   67MOL0     H 9215   2.282   5.064   3.960 -1.3869 -0.0751  0.1101
   67MOL0     H 9216   2.507   5.125   4.087  2.4319  3.4415  0.4338
   67MOL0     H 9217   2.469   5.283   4.070 -2.8922 -0.7725  1.8890
   67MOL0     H 9218   2.477   5.226   3.801  0.8046 -3.2616 -2.0445
   67MOL0     H 9219   2.620   5.225   3.891  0.4717 -0.5129  0.5292
   67MOL0     H 9220   2.433   4.988   3.790  0.8385 -2.6113 -0.9958
   67MOL0     H 9221   2.574   4.972   3.904  1.2166  2.1198  1.2845
   67MOL0     H 9222   2.696   5.079   3.697  0.6737 -0.7433  0.8712
   67MOL0     H 9223   2.546   5.039   3.609  2.2727  2.6811 -0.8203
   67MOL0     H 9224   2.717   4.832   3.762  1.2701  3.2378  0.5395
   67MOL0     H 9225   2.723   4.861   3.592  0.4656 -1.1040  0.9781
   67MOL0     H 9226   1.874   5.066   4.282  0.1472 -0.0470 -1.1876
   67MOL0     H 9227   1.686   5.146   4.400  0.1146 -0.0127  0.1929
   67MOL0     H 9228   1.266   5.294   4.582 -2.1521  0.2645 -0.9502
   67MOL0     H 9229   1.100   5.428   4.693 -1.7098 -0.0189 -1.9060
   67MOL0     H 9230   2.248   5.622   4.210  1.2424 -0.9822  0.8018
   67MOL0     H 9231   2.474   5.608   4.236  1.2392 -0.4297 -0.1838
   67MOL0     H 9232   2.918   5.583   4.331 -1.1356  0.2032  0.1527
   67MOL0     H 9233   3.109   5.442   4.365 -4.1749  0.6211  1.0886
   67MOL0     H 9234   3.309   5.185   4.044 -2.0772  0.0040  1.4817
   67MOL0     H 9235   3.334   5.353   4.003 -0.2224 -1.5428 -2.0247
   67MOL0     H 9236   3.481   5.371   4.209  2.2268 -0.9439 -0.0720
   67MOL0     H 9237   3.544   5.328   4.054 -0.3735 -0.9812 -1.9533
   67MOL0     H 9238   3.492   5.107   4.257 -0.7753 -0.8992 -1.1669
   67MOL0     H 9239   3.531   5.080   4.092  1.8689 -1.3273  0.5417
   67MOL0     H 9240   3.705   5.259   4.275  1.7312  1.1919 -0.8962
   67MOL0     H 9241   3.740   5.215   4.102 -2.6680 -1.5881 -1.2671
   67MOL0     H 9242   3.860   4.877   4.330  1.7734  0.4767 -2.6010
   67MOL0     H 9243   3.112   5.332   3.958 -0.5739  0.0463  0.0082
   67MOL0     H 9244   2.960   5.424   3.797 -1.4106 -0.4683 -2.2259
   67MOL0     H 9245   2.809   5.363   3.861 -1.9723  1.9901  3.6197
   67MOL0     H 9246   2.833   5.538   3.850  0.9186  0.8106  1.0590
   68MOL0     O 9247   3.274   3.919   3.052 -0.3000  0.1941  0.2772
   68MOL0     C 9248   3.293   3.945   2.937 -0.1611 -0.3640 -0.4220
   68MOL0     O 9249   3.373   3.876   2.856  0.4062 -0.0479  0.7531
   68MOL0     C 9250   3.436   3.764   2.910  0.0603 -0.4126  0.5185
   68MOL0     C 9251   3.374   3.658   2.991 -0.2595 -0.7769 -0.6124
   68MOL0     C 9252   3.454   3.560   3.059  0.0425 -0.6244  0.3253
   68MOL0     C 9253   3.588   3.567   3.049 -0.4183  0.6802  0.7597
   68MOL0     O 9254   3.675   3.476   3.102  0.6413  0.2559  0.7359
   68MOL0     C 9255   3.634   3.346   3.136 -0.8844  0.4100 -0.8777
   68MOL0     C 9256   3.756   3.246   3.143  0.1711  0.7300  0.0286
   68MOL0     C 9257   3.865   3.306   3.235  0.4294 -0.2927 -0.0231
   68MOL0     C 9258   3.992   3.212   3.238 -0.6882 -0.4579  0.7255
   68MOL0     C 9259   4.129   3.265   3.292 -0.2033 -0.6862 -0.5193
   68MOL0     C 9260   4.233   3.149   3.264  0.7800 -0.1651 -0.0798
   68MOL0     C 9261   4.376   3.191   3.285 -0.2611 -0.1861 -0.3979
   68MOL0     C 9262   4.469   3.076   3.286 -0.4367 -1.0888 -0.2831
   68MOL0     N 9263   4.609   3.106   3.289 -0.4156  0.2395 -0.7416
   68MOL0     C 9264   4.711   3.097   3.197  0.7588  1.0803  0.1363
   68MOL0     C 9265   4.824   3.125   3.260 -0.0474 -0.0155 -0.9088
   68MOL0     C 9266   4.967   3.117   3.197  0.1731  0.3231 -0.6183
   68MOL0     C 9267   5.048   3.239   3.204  0.2533  0.3295 -0.0769
   68MOL0     C 9268   5.121   3.265   3.335  0.0020 -0.0086 -0.1572
   68MOL0     C 9269   5.258   3.315   3.299 -0.4795 -0.2899  0.0728
   68MOL0     O 9270   5.328   3.214   3.218  0.0156 -0.2412 -0.0885
   68MOL0     C 9271   5.417   3.265   3.127  0.4120  0.2940 -1.0622
   68MOL0     C 9272   5.521   3.346   3.163 -0.6384 -0.3036  0.2901
   68MOL0     C 9273   5.619   3.389   3.064 -1.1966  0.2942  0.0326
   68MOL0     C 9274   5.737   3.472   3.116 -0.5253 -0.4767  0.0372
   68MOL0     C 9275   5.615   3.335   2.934 -0.0065  0.3909 -0.6298
   68MOL0     C 9276   5.707   3.362   2.824  0.7347 -0.0181 -0.1328
   68MOL0     O 9277   5.719   3.280   2.718 -0.2314  0.0255  0.5077
   68MOL0     C 9278   5.792   3.320   2.605 -0.1623  0.0390 -0.3913
   68MOL0     C 9279   5.746   3.416   2.513  0.8161  0.1565 -0.5708
   68MOL0     C 9280   5.824   3.467   2.411 -0.1238 -0.7253  0.1131
   68MOL0     C 9281   5.951   3.418   2.373 -0.1497 -0.7177 -0.1814
   68MOL0     O 9282   5.998   3.472   2.256 -0.2814 -0.0820  0.8296
   68MOL0     C 9283   6.124   3.406   2.209  0.1285 -0.1109 -0.3831
   68MOL0     C 9284   6.208   3.504   2.128 -0.3929 -0.5697 -0.0506
   68MOL0     C 9285   6.273   3.611   2.226 -0.9563  0.9186  0.1279
   68MOL0     C 9286   6.191   3.735   2.262 -0.2643  0.4069 -0.1751
   68MOL0     C 9287   6.265   3.867   2.288 -0.9937  0.0579  0.1335
   68MOL0     C 9288   6.369   3.870   2.407 -0.0258  0.6647  0.1499
   68MOL0     C 9289   6.452   4.001   2.395 -0.4963  0.3378  0.4573
   68MOL0     C 9290   6.489   4.047   2.537 -0.2217  0.2794 -0.0498
   68MOL0    Cl 9291   6.593   3.936   2.646 -0.6204  0.5923  0.2240
   68MOL0     C 9292   6.003   3.313   2.461  0.3074  0.7772 -0.7573
   68MOL0     C 9293   5.923   3.269   2.580 -0.5801  0.3055  0.5283
   68MOL0     O 9294   5.769   3.466   2.835  0.3240 -0.4303  0.4804
   68MOL0     C 9295   5.512   3.245   2.908 -0.2601  0.6144  0.3163
   68MOL0     C 9296   5.421   3.204   3.000 -0.4160  0.6735 -0.3935
   68MOL0     N 9297   4.794   3.146   3.396 -0.8722 -0.3684  0.5352
   68MOL0     N 9298   4.670   3.132   3.412  0.8990  0.4573  0.5557
   68MOL0     C 9299   3.649   3.668   2.973  0.0035  0.1720  0.3194
   68MOL0     C 9300   3.573   3.765   2.902  0.3231  0.1531  0.4867
   68MOL0     C 9301   3.215   4.055   2.869  0.1254 -0.2244 -0.4882
   68MOL0     C 9302   3.238   4.078   2.724 -0.2038 -0.0615  0.1066
   68MOL0     C 9303   3.170   4.185   2.656  0.8366  0.4749 -0.1112
   68MOL0     C 9304   3.071   4.261   2.725 -0.3491 -0.0874 -0.8828
   68MOL0     O 9305   2.977   4.338   2.669  0.4125  0.3191  0.3111
   68MOL0     C 9306   2.996   4.384   2.539 -0.1708 -0.0468  0.6097
   68MOL0     C 9307   2.853   4.412   2.479 -0.1076 -0.0187 -0.1375
   68MOL0     C 9308   2.730   4.404   2.570  0.2027 -0.1181 -0.7457
   68MOL0     C 9309   2.716   4.524   2.664  0.8514 -0.0050  0.5761
   68MOL0     C 9310   2.599   4.491   2.738  0.9210 -0.1847 -0.4183
   68MOL0     C 9311   2.494   4.472   2.816  0.3274 -0.7322  0.0336
   68MOL0     C 9312   3.052   4.235   2.861 -0.2956  0.4645 -0.6506
   68MOL0     C 9313   3.122   4.144   2.934 -0.4099  0.1797 -0.5047
   68MOL0     C 9314   3.067   4.137   3.082  0.4185 -0.8317  0.4325
   68MOL0     H 9315   3.267   3.652   3.003 -0.4639  1.0816 -1.2050
   68MOL0     H 9316   3.405   3.478   3.111 -0.8321  0.1303  0.7186
   68MOL0     H 9317   3.565   3.311   3.059 -2.9808  2.1521  0.1143
   68MOL0     H 9318   3.567   3.337   3.222 -1.4029 -1.0735 -1.4050
   68MOL0     H 9319   3.723   3.149   3.180  1.7709 -0.7102 -2.0498
   68MOL0     H 9320   3.798   3.232   3.043 -1.7033  1.3483 -0.8847
   68MOL0     H 9321   3.895   3.401   3.191  0.6052 -0.7162 -0.8354
   68MOL0     H 9322   3.823   3.328   3.334 -0.3646  0.5018 -0.5131
   68MOL0     H 9323   3.952   3.134   3.304 -0.9171 -0.2641  0.8207
   68MOL0     H 9324   4.018   3.190   3.134 -0.3394  1.1871  0.4363
   68MOL0     H 9325   4.124   3.298   3.396  1.7007 -0.4060 -0.4915
   68MOL0     H 9326   4.165   3.351   3.234 -0.4863  0.0547  0.3725
   68MOL0     H 9327   4.207   3.060   3.322  0.6393  1.2843  2.1964
   68MOL0     H 9328   4.228   3.120   3.158  3.3569  1.3035 -0.7037
   68MOL0     H 9329   4.398   3.240   3.380  2.3644  3.6115 -2.6384
   68MOL0     H 9330   4.413   3.264   3.212 -0.5205  0.7614  0.4025
   68MOL0     H 9331   4.442   3.011   3.369 -1.1749  1.0490  1.2594
   68MOL0     H 9332   4.444   3.023   3.194 -0.8964 -0.6953 -0.3902
   68MOL0     H 9333   4.700   3.060   3.096 -0.4749  2.4983 -0.2799
   68MOL0     H 9334   4.957   3.087   3.092 -1.2908 -2.5814  0.2261
   68MOL0     H 9335   5.013   3.029   3.243  2.2312  1.9934  0.7047
   68MOL0     H 9336   5.114   3.223   3.119 -1.6857 -0.2407 -1.5593
   68MOL0     H 9337   4.991   3.331   3.185 -2.4905 -0.9775  1.1877
   68MOL0     H 9338   5.070   3.338   3.398 -1.9256 -2.2891  1.1155
   68MOL0     H 9339   5.128   3.175   3.397 -0.9283  0.1983  0.2655
   68MOL0     H 9340   5.249   3.404   3.235  0.7248 -0.1622  0.0661
   68MOL0     H 9341   5.316   3.336   3.389 -1.0561 -1.5123  0.7487
   68MOL0     H 9342   5.511   3.389   3.262  2.2280 -0.4723  0.7371
   68MOL0     H 9343   5.731   3.577   3.086 -1.7373  1.4474  5.7670
   68MOL0     H 9344   5.831   3.432   3.076 -0.4788  0.9140 -1.3460
   68MOL0     H 9345   5.728   3.480   3.224 -4.7422 -0.3045 -0.1666
   68MOL0     H 9346   5.647   3.459   2.523  0.9265  0.3370 -0.2573
   68MOL0     H 9347   5.769   3.542   2.355 -1.7149 -0.9158  1.3457
   68MOL0     H 9348   6.181   3.358   2.288 -0.1369  2.3165  1.3891
   68MOL0     H 9349   6.094   3.336   2.130  0.8746 -1.1926  0.2672
   68MOL0     H 9350   6.279   3.451   2.064  0.5154  0.9014 -0.3112
   68MOL0     H 9351   6.146   3.569   2.066  1.1794  0.2274 -0.8688
   68MOL0     H 9352   6.357   3.651   2.168 -1.5093  0.6126 -0.8918
   68MOL0     H 9353   6.305   3.555   2.315 -3.3112  1.9452  1.7259
   68MOL0     H 9354   6.127   3.711   2.347 -0.5745  0.7637 -0.3107
   68MOL0     H 9355   6.131   3.764   2.175 -2.7489 -2.5768  0.3472
   68MOL0     H 9356   6.315   3.907   2.199  1.3009  0.6297  1.6210
   68MOL0     H 9357   6.180   3.930   2.318 -1.2980  0.4078 -1.3651
   68MOL0     H 9358   6.437   3.785   2.411 -1.6940 -0.7057  0.4106
   68MOL0     H 9359   6.308   3.862   2.498  0.0681 -4.0223  0.0322
   68MOL0     H 9360   6.395   4.078   2.344  0.0744  0.7019  0.3540
   68MOL0     H 9361   6.539   3.970   2.336  0.4678  2.1026  0.8711
   68MOL0     H 9362   6.402   4.076   2.596 -1.0446  1.5619 -1.7827
   68MOL0     H 9363   6.546   4.138   2.517 -0.1314 -0.4652 -4.1341
   68MOL0     H 9364   6.101   3.266   2.457  1.5725  3.0592  0.8392
   68MOL0     H 9365   5.965   3.202   2.654 -2.7474  3.2998  4.8800
   68MOL0     H 9366   5.497   3.199   2.811 -2.4051 -0.5273  1.1309
   68MOL0     H 9367   5.353   3.123   2.976  2.0762 -3.1390  3.9223
   68MOL0     H 9368   3.755   3.670   2.950 -0.2127  1.8082 -0.6943
   68MOL0     H 9369   3.625   3.849   2.857 -0.5263  0.0516 -0.7492
   68MOL0     H 9370   3.306   4.014   2.669  0.8597  0.5153  0.7068
   68MOL0     H 9371   3.174   4.187   2.548  0.6309 -1.7381 -0.2105
   68MOL0     H 9372   3.050   4.478   2.527  2.0134 -1.2971  0.1154
   68MOL0     H 9373   3.041   4.308   2.474 -1.1213 -0.0974 -0.0038
   68MOL0     H 9374   2.847   4.334   2.403  3.4356  0.8491 -1.5361
   68MOL0     H 9375   2.851   4.511   2.431  2.3895  0.8963  1.4101
   68MOL0     H 9376   2.635   4.387   2.519  1.6886 -1.4836 -3.2566
   68MOL0     H 9377   2.739   4.313   2.631 -0.4978 -1.7443 -2.9276
   68MOL0     H 9378   2.685   4.610   2.605 -0.3614 -1.9539 -1.8223
   68MOL0     H 9379   2.799   4.538   2.734  1.4090 -0.1486 -0.0425
   68MOL0     H 9380   2.419   4.448   2.888 -0.4135 -0.6548 -0.6947
   68MOL0     H 9381   2.971   4.290   2.908 -0.7594 -0.3298 -0.5097
   68MOL0     H 9382   3.068   4.031   3.111 -1.2158 -1.9932 -3.1754
   68MOL0     H 9383   3.130   4.189   3.155 -0.7716 -0.9746  1.5970
   68MOL0     H 9384   2.972   4.191   3.088  0.6305 -0.1922 -1.2671
   69MOL0     O 9385   8.465   2.644   5.447 -0.8785  0.1820  0.0642
   69MOL0     C 9386   8.432   2.639   5.331 -0.5082 -0.3688  0.7139
   69MOL0     O 9387   8.498   2.563   5.238  0.1423 -0.4822 -0.2565
   69MOL0     C 9388   8.604   2.486   5.280 -0.0486  0.3527  0.4890
   69MOL0     C 9389   8.574   2.362   5.334  0.9780 -0.7545 -0.6112
   69MOL0     C 9390   8.664   2.261   5.346 -0.3415  0.2275  0.7156
   69MOL0     C 9391   8.804   2.291   5.329  0.1871 -0.3011 -0.3628
   69MOL0     O 9392   8.896   2.209   5.382  0.3173 -0.6862  0.4913
   69MOL0     C 9393   8.892   2.064   5.372 -0.6175 -0.8792  0.7839
   69MOL0     C 9394   8.851   2.010   5.507  0.2916  0.2985 -0.4214
   69MOL0     C 9395   8.879   1.863   5.523  0.7316 -0.6391  0.4802
   69MOL0     C 9396   8.793   1.768   5.444  0.2432  0.1049  0.0360
   69MOL0     C 9397   8.819   1.622   5.499  0.2578 -0.6526 -0.7541
   69MOL0     C 9398   8.704   1.517   5.451  0.6427  0.2118  0.4062
   69MOL0     C 9399   8.751   1.378   5.470 -0.0361  0.0806 -0.1305
   69MOL0     C 9400   8.802   1.327   5.602  0.6029 -0.5227 -0.8634
   69MOL0     N 9401   8.705   1.360   5.708 -0.0607 -0.3839  0.1135
   69MOL0     C 9402   8.585   1.296   5.735  0.7464  0.0395  0.2288
   69MOL0     C 9403   8.525   1.355   5.841 -0.0233  0.3280 -1.1055
   69MOL0     C 9404   8.379   1.334   5.883  0.0058  0.4992  0.1666
   69MOL0     C 9405   8.338   1.422   6.008  0.0512  0.0141  0.8387
   69MOL0     C 9406   8.183   1.443   6.021  0.3463  0.9873 -0.6673
   69MOL0     C 9407   8.165   1.501   6.166  0.2092  0.3861 -0.9237
   69MOL0     O 9408   8.093   1.413   6.251  0.0325  0.2624 -0.6396
   69MOL0     C 9409   7.956   1.386   6.243  0.4049 -1.0243 -0.2568
   69MOL0     C 9410   7.871   1.455   6.157 -0.0642  0.3889 -0.7642
   69MOL0     C 9411   7.735   1.415   6.146 -0.1067  0.8029  0.4273
   69MOL0     C 9412   7.660   1.491   6.037  0.1578  0.2832  0.4192
   69MOL0     C 9413   7.684   1.321   6.238 -0.6377  0.6069  0.3024
   69MOL0     C 9414   7.542   1.270   6.229  1.0793  0.0819  0.1712
   69MOL0     O 9415   7.495   1.220   6.349 -0.0887  0.7504  0.4864
   69MOL0     C 9416   7.383   1.131   6.326 -0.7451  0.3410 -0.0029
   69MOL0     C 9417   7.252   1.178   6.334  1.3228  0.6898  0.5764
   69MOL0     C 9418   7.138   1.098   6.309  0.2747 -0.4219 -0.1928
   69MOL0     C 9419   7.162   0.966   6.276 -0.6748 -1.0536  0.2343
   69MOL0     O 9420   7.053   0.888   6.259  0.3051 -1.1420 -0.0398
   69MOL0     C 9421   7.032   0.869   6.119 -0.5383  0.3328  0.5765
   69MOL0     C 9422   6.892   0.812   6.078 -0.1212  0.3639  0.5205
   69MOL0     C 9423   6.851   0.684   6.153  0.5163 -0.5025  0.4248
   69MOL0     C 9424   6.963   0.573   6.154 -0.4665 -0.0706  0.4716
   69MOL0     C 9425   6.928   0.464   6.255 -0.3894  0.6566 -0.8830
   69MOL0     C 9426   6.893   0.326   6.185  0.4823  0.2764  0.0610
   69MOL0     C 9427   6.864   0.211   6.283  0.5521  0.3580  0.2719
   69MOL0     C 9428   6.844   0.074   6.214 -0.5128  0.9265 -0.0091
   69MOL0    Cl 9429   6.719  -0.016   6.315 -0.1148  0.4428  0.0132
   69MOL0     C 9430   7.288   0.911   6.273 -0.8372 -1.0488 -0.0797
   69MOL0     C 9431   7.407   0.994   6.298 -0.4090 -0.0133 -0.1396
   69MOL0     O 9432   7.471   1.286   6.129 -1.0398 -0.5691 -0.3505
   69MOL0     C 9433   7.765   1.275   6.339  0.9022  0.2565 -0.3766
   69MOL0     C 9434   7.900   1.310   6.340 -0.4854 -0.6331 -0.3991
   69MOL0     N 9435   8.608   1.456   5.880  0.7346  0.2563  0.2614
   69MOL0     N 9436   8.717   1.456   5.806  0.4286  0.2636  0.2926
   69MOL0     C 9437   8.837   2.422   5.293 -0.2307 -0.2923  0.1778
   69MOL0     C 9438   8.739   2.517   5.253 -0.1025  0.4874  0.5179
   69MOL0     C 9439   8.311   2.712   5.281 -0.0264 -0.2230 -0.1013
   69MOL0     C 9440   8.296   2.722   5.144 -0.2337  0.0354  0.7131
   69MOL0     C 9441   8.193   2.802   5.093  0.3421 -0.1217 -0.1875
   69MOL0     C 9442   8.106   2.856   5.182 -0.7556  0.4840  0.3661
   69MOL0     O 9443   8.014   2.932   5.120  0.3303  0.3655 -0.1372
   69MOL0     C 9444   7.953   3.045   5.199 -0.4540  0.1751 -0.0292
   69MOL0     C 9445   7.891   3.160   5.108 -0.6170  1.0136 -0.5210
   69MOL0     C 9446   7.998   3.221   5.012  0.1644 -0.8019  0.5486
   69MOL0     C 9447   7.940   3.353   4.953 -0.7613  0.2292 -0.0332
   69MOL0     C 9448   7.858   3.325   4.835  0.0266  0.2298 -0.2065
   69MOL0     C 9449   7.774   3.311   4.748 -0.8750 -0.2757  0.1971
   69MOL0     C 9450   8.116   2.840   5.319 -0.4077  0.5403 -0.2544
   69MOL0     C 9451   8.229   2.782   5.371 -0.3017 -0.7112 -0.4570
   69MOL0     C 9452   8.230   2.775   5.523 -0.0612 -0.7411 -0.6971
   69MOL0     H 9453   8.481   2.319   5.370  1.7135 -2.9521 -1.1677
   69MOL0     H 9454   8.644   2.165   5.393  0.8602 -2.0424 -2.9867
   69MOL0     H 9455   8.995   2.044   5.343 -1.3395 -2.3571 -1.0081
   69MOL0     H 9456   8.821   2.028   5.297  1.0498 -0.1919 -1.2337
   69MOL0     H 9457   8.905   2.049   5.594  0.2738 -1.9262  0.6490
   69MOL0     H 9458   8.746   2.032   5.526 -0.0663 -0.3434 -1.5954
   69MOL0     H 9459   8.984   1.845   5.499  1.7009  3.3695  1.0091
   69MOL0     H 9460   8.887   1.844   5.630  0.8986  0.1488  0.6154
   69MOL0     H 9461   8.685   1.784   5.446  0.0236 -1.3099  0.7762
   69MOL0     H 9462   8.815   1.771   5.337 -0.5135  0.2190 -0.1183
   69MOL0     H 9463   8.826   1.635   5.607 -1.1420  0.8272 -0.8000
   69MOL0     H 9464   8.917   1.583   5.471  1.2040 -2.9364  4.5978
   69MOL0     H 9465   8.612   1.530   5.509 -1.9262 -2.7704 -2.5595
   69MOL0     H 9466   8.675   1.533   5.347  0.4176  2.7144  0.7899
   69MOL0     H 9467   8.821   1.357   5.389  0.3576 -0.1815  0.2739
   69MOL0     H 9468   8.673   1.310   5.437  1.2795  0.3453 -4.5216
   69MOL0     H 9469   8.804   1.218   5.592 -0.8180 -0.6485  0.0054
   69MOL0     H 9470   8.902   1.356   5.638  0.8619 -2.6514  0.3002
   69MOL0     H 9471   8.538   1.218   5.678  1.1165 -2.7161  3.3591
   69MOL0     H 9472   8.352   1.231   5.908  2.0326  0.2103  1.4354
   69MOL0     H 9473   8.314   1.364   5.800 -3.4693 -2.6237  1.5138
   69MOL0     H 9474   8.377   1.372   6.097 -0.2093  1.1384  1.6197
   69MOL0     H 9475   8.399   1.513   6.007  2.1505 -1.3270 -1.1798
   69MOL0     H 9476   8.148   1.514   5.945  0.8322 -0.0729 -1.9229
   69MOL0     H 9477   8.122   1.354   6.002  0.9176  0.6124 -0.7625
   69MOL0     H 9478   8.256   1.530   6.218  0.2681 -0.7862 -0.3429
   69MOL0     H 9479   8.108   1.594   6.165  3.1163  2.4519  2.6072
   69MOL0     H 9480   7.905   1.534   6.090 -1.5570  1.2675 -0.5095
   69MOL0     H 9481   7.636   1.428   5.950  0.5815 -0.8126  1.0761
   69MOL0     H 9482   7.720   1.576   6.001  1.9130 -0.5990  1.1344
   69MOL0     H 9483   7.567   1.521   6.084 -0.8530 -0.4023 -1.0508
   69MOL0     H 9484   7.241   1.284   6.354 -2.6228  1.0596 -2.4191
   69MOL0     H 9485   7.044   1.151   6.310  0.9514  0.9009  2.2202
   69MOL0     H 9486   7.056   0.955   6.056  1.0864 -0.2997  0.2845
   69MOL0     H 9487   7.094   0.786   6.084 -1.5449 -1.4039  2.6644
   69MOL0     H 9488   6.816   0.890   6.083  0.3341  0.9381 -0.9956
   69MOL0     H 9489   6.907   0.787   5.973  2.3543  0.4724  0.7761
   69MOL0     H 9490   6.776   0.634   6.091  0.7595  0.6270 -0.8212
   69MOL0     H 9491   6.803   0.711   6.248  1.1737  2.1798  0.0585
   69MOL0     H 9492   7.058   0.618   6.188 -1.4152  1.6918  0.9254
   69MOL0     H 9493   6.990   0.533   6.056  3.2462  0.4447  1.1028
   69MOL0     H 9494   7.015   0.451   6.318  0.7860  3.0323 -1.8705
   69MOL0     H 9495   6.854   0.498   6.329  2.0805 -0.9218  2.5204
   69MOL0     H 9496   6.981   0.297   6.126  1.0528  0.4599  0.8124
   69MOL0     H 9497   6.811   0.340   6.114  2.0501  0.1216 -1.8808
   69MOL0     H 9498   6.766   0.229   6.329 -0.2341 -0.4692 -1.0367
   69MOL0     H 9499   6.931   0.205   6.369 -0.1340  0.3415  0.8213
   69MOL0     H 9500   6.934   0.012   6.205 -0.9113  0.2231  0.6845
   69MOL0     H 9501   6.798   0.095   6.117 -2.7027 -0.8888  0.5308
   69MOL0     H 9502   7.296   0.803   6.265 -3.1089 -1.4922  2.3753
   69MOL0     H 9503   7.506   0.951   6.292  0.1571  1.1069  0.6645
   69MOL0     H 9504   7.732   1.196   6.406  2.1767 -1.8607 -2.1213
   69MOL0     H 9505   7.959   1.268   6.420  0.7289  3.2282  0.9442
   69MOL0     H 9506   8.942   2.442   5.272  0.0889 -2.9653 -1.2434
   69MOL0     H 9507   8.756   2.615   5.208 -1.3347 -1.1140 -3.9210
   69MOL0     H 9508   8.376   2.692   5.078  0.6234 -1.1548  2.2132
   69MOL0     H 9509   8.183   2.832   4.990 -0.5218  0.0460 -0.0597
   69MOL0     H 9510   7.885   2.998   5.270 -0.4594 -0.6452 -0.5482
   69MOL0     H 9511   8.024   3.086   5.271  3.4175 -0.0065 -3.3492
   69MOL0     H 9512   7.852   3.240   5.171 -5.2340 -0.6063 -0.9764
   69MOL0     H 9513   7.806   3.120   5.052 -0.2627 -1.2335  0.4114
   69MOL0     H 9514   8.085   3.249   5.071  0.1806 -0.6475  0.4526
   69MOL0     H 9515   8.017   3.160   4.922 -2.5382  1.4354 -1.7249
   69MOL0     H 9516   8.030   3.404   4.916  1.5922 -3.9067 -0.7104
   69MOL0     H 9517   7.883   3.416   5.022 -0.6934 -0.7025  0.9119
   69MOL0     H 9518   7.702   3.289   4.671 -0.9466  1.1168 -0.1484
   69MOL0     H 9519   8.035   2.872   5.383 -1.1436  0.3456 -1.0701
   69MOL0     H 9520   8.137   2.807   5.571 -0.1082 -0.1103 -1.2036
   69MOL0     H 9521   8.235   2.671   5.556 -1.4090 -0.5741  0.1068
   69MOL0     H 9522   8.305   2.841   5.566 -1.8740  1.5996 -0.9231
   70MOL0     O 9523   2.424   8.380   2.486 -0.1603 -0.1828  0.2423
   70MOL0     C 9524   2.339   8.317   2.547  1.5807  0.5408 -0.1885
   70MOL0     O 9525   2.368   8.243   2.659  0.4350 -0.5512  0.9101
   70MOL0     C 9526   2.492   8.213   2.697  0.2492  0.4920  0.5834
   70MOL0     C 9527   2.610   8.271   2.663 -0.1638 -0.0310 -0.5705
   70MOL0     C 9528   2.736   8.221   2.694 -0.4882 -0.3480 -0.2548
   70MOL0     C 9529   2.750   8.118   2.788 -0.5233 -0.1281 -0.6332
   70MOL0     O 9530   2.879   8.075   2.825 -0.0967 -0.2408  0.4692
   70MOL0     C 9531   2.894   7.958   2.896 -0.0661  0.1200 -0.4179
   70MOL0     C 9532   3.034   7.905   2.922 -0.2166 -1.5623 -0.2312
   70MOL0     C 9533   3.115   7.997   3.017 -0.2473 -0.2505 -0.3649
   70MOL0     C 9534   3.227   7.926   3.095 -0.5372 -0.1631 -0.6673
   70MOL0     C 9535   3.308   8.034   3.169  0.5930 -0.7833 -0.0605
   70MOL0     C 9536   3.421   7.971   3.251 -0.2383 -0.3548 -0.2728
   70MOL0     C 9537   3.517   8.071   3.312 -0.3272  0.2890 -0.0207
   70MOL0     C 9538   3.620   8.002   3.408  0.3351  1.0769  0.8488
   70MOL0     N 9539   3.746   7.973   3.337 -0.4754 -0.3402  0.4757
   70MOL0     C 9540   3.776   7.858   3.269  0.0449  0.8424  0.2836
   70MOL0     C 9541   3.907   7.866   3.240 -0.4283 -0.1499  0.1875
   70MOL0     C 9542   3.986   7.757   3.168  0.0102 -0.0819  0.3383
   70MOL0     C 9543   3.906   7.678   3.066  0.3701 -0.5150 -0.1487
   70MOL0     C 9544   4.000   7.577   3.005  0.0312 -0.1942  0.8266
   70MOL0     C 9545   3.931   7.463   2.927  0.2445 -0.4532  1.1475
   70MOL0     O 9546   3.843   7.514   2.834 -0.5980  0.0705  0.5116
   70MOL0     C 9547   3.747   7.430   2.782 -0.3481 -0.2881 -0.8424
   70MOL0     C 9548   3.754   7.286   2.786  0.5082 -0.0403  0.1793
   70MOL0     C 9549   3.645   7.214   2.724 -0.3693 -0.5127  0.0577
   70MOL0     C 9550   3.652   7.068   2.746  0.2258 -0.1677 -0.5316
   70MOL0     C 9551   3.540   7.277   2.663 -0.0019 -0.8484 -0.2309
   70MOL0     C 9552   3.428   7.206   2.589  0.7017  0.9183  0.2932
   70MOL0     O 9553   3.461   7.097   2.512  1.0005  0.5569 -0.3539
   70MOL0     C 9554   3.365   7.011   2.453 -0.1654 -0.1613  0.0617
   70MOL0     C 9555   3.383   6.947   2.331  0.6263  0.4297 -0.4708
   70MOL0     C 9556   3.279   6.873   2.275 -0.3867 -0.1075  0.5079
   70MOL0     C 9557   3.166   6.835   2.342 -0.4046 -0.6426  0.1820
   70MOL0     O 9558   3.076   6.762   2.261 -0.7744  0.2193  0.1392
   70MOL0     C 9559   2.963   6.708   2.327 -0.2789 -0.1485 -0.0428
   70MOL0     C 9560   2.891   6.623   2.217 -0.8644  0.5631 -0.1232
   70MOL0     C 9561   2.770   6.539   2.272  0.2457 -0.0686 -0.0207
   70MOL0     C 9562   2.688   6.481   2.150  0.2242 -0.5015 -0.2406
   70MOL0     C 9563   2.566   6.397   2.203 -1.0795  1.0528 -0.5773
   70MOL0     C 9564   2.444   6.470   2.269 -0.3655  0.0563  0.3378
   70MOL0     C 9565   2.343   6.372   2.320 -0.2335 -0.5434 -0.0481
   70MOL0     C 9566   2.211   6.434   2.362  0.3501  0.9099  0.6539
   70MOL0    Cl 9567   2.082   6.314   2.370  0.0768  0.1998  0.0439
   70MOL0     C 9568   3.152   6.886   2.471 -0.9316  0.0455 -0.5312
   70MOL0     C 9569   3.246   6.979   2.519 -0.1394  0.9523  0.5821
   70MOL0     O 9570   3.316   7.262   2.597  0.6446  0.8731  0.3731
   70MOL0     C 9571   3.549   7.421   2.653  0.0910 -0.1341 -0.9718
   70MOL0     C 9572   3.642   7.500   2.720 -0.0545 -0.0821 -0.9718
   70MOL0     N 9573   3.957   7.985   3.280  0.0236 -1.0543  0.5059
   70MOL0     N 9574   3.863   8.045   3.350  0.1789  0.6079  0.6015
   70MOL0     C 9575   2.624   8.056   2.828  0.0478  0.6391 -0.3859
   70MOL0     C 9576   2.501   8.100   2.776  0.1441 -0.4558 -0.0930
   70MOL0     C 9577   2.190   8.343   2.503 -1.1194 -0.1923 -0.3168
   70MOL0     C 9578   2.173   8.446   2.406 -1.0022 -0.2003 -0.4849
   70MOL0     C 9579   2.050   8.478   2.356  0.2512 -0.4602  0.3320
   70MOL0     C 9580   1.934   8.409   2.393  0.3419  0.3490  0.1690
   70MOL0     O 9581   1.812   8.445   2.342 -0.4528  0.5734  1.2091
   70MOL0     C 9582   1.751   8.559   2.407 -0.0103 -0.6436  0.4745
   70MOL0     C 9583   1.619   8.604   2.337 -0.8163  0.7417 -0.4841
   70MOL0     C 9584   1.656   8.679   2.202 -0.3032  0.8715  1.4099
   70MOL0     C 9585   1.526   8.730   2.128  0.7863  0.6520  0.7299
   70MOL0     C 9586   1.550   8.828   2.015 -0.4623  0.5290 -0.5439
   70MOL0     C 9587   1.564   8.906   1.922 -0.0732  0.5422  0.3032
   70MOL0     C 9588   1.953   8.316   2.502 -0.3323  0.3641 -0.4350
   70MOL0     C 9589   2.078   8.278   2.553 -0.7424 -0.3765 -0.9631
   70MOL0     C 9590   2.078   8.179   2.668  0.3719 -0.1850 -0.7258
   70MOL0     H 9591   2.609   8.365   2.609 -0.2321 -0.6107 -1.5825
   70MOL0     H 9592   2.825   8.252   2.640 -0.3829 -1.3210 -0.6614
   70MOL0     H 9593   2.847   7.881   2.834 -0.0369  0.4457 -0.8466
   70MOL0     H 9594   2.849   7.969   2.996 -0.7846  0.9696 -0.8170
   70MOL0     H 9595   3.026   7.802   2.958 -1.2191 -1.2297  0.5380
   70MOL0     H 9596   3.083   7.891   2.825 -1.8166 -1.7040 -1.0627
   70MOL0     H 9597   3.157   8.081   2.960 -2.3887  0.5515 -0.8509
   70MOL0     H 9598   3.050   8.049   3.087 -0.9851 -2.9933  1.1302
   70MOL0     H 9599   3.191   7.857   3.172 -0.0004  0.1890 -0.0947
   70MOL0     H 9600   3.283   7.861   3.028 -0.5575 -0.3539 -0.4982
   70MOL0     H 9601   3.245   8.103   3.225 -0.3210  0.0517 -2.0463
   70MOL0     H 9602   3.350   8.088   3.084 -0.6576 -0.9143 -0.7763
   70MOL0     H 9603   3.377   7.901   3.322  0.1843 -0.1446  0.2038
   70MOL0     H 9604   3.475   7.894   3.196  0.9988 -1.3068  2.1547
   70MOL0     H 9605   3.456   8.146   3.363 -0.9886 -1.3282  1.6807
   70MOL0     H 9606   3.575   8.124   3.235 -1.5411  2.5136  0.4994
   70MOL0     H 9607   3.638   8.079   3.483 -0.4175  3.6018 -1.3843
   70MOL0     H 9608   3.592   7.912   3.463 -2.5859  2.2942  1.5459
   70MOL0     H 9609   3.713   7.773   3.245 -1.7387  2.1407  0.2114
   70MOL0     H 9610   4.038   7.695   3.241 -0.3823 -0.4689  0.2931
   70MOL0     H 9611   4.058   7.813   3.109 -0.7447 -0.1969 -0.7242
   70MOL0     H 9612   3.818   7.633   3.115  1.1958 -0.8695  1.0498
   70MOL0     H 9613   3.856   7.747   2.998 -0.1284 -0.0121  0.7006
   70MOL0     H 9614   4.063   7.626   2.931 -2.0414  0.7212 -0.4370
   70MOL0     H 9615   4.070   7.533   3.077  0.8824  0.1667  0.2305
   70MOL0     H 9616   3.998   7.393   2.875 -2.5262 -2.7639  0.4657
   70MOL0     H 9617   3.869   7.401   2.992 -0.0010 -0.8296  0.5626
   70MOL0     H 9618   3.831   7.235   2.842 -2.0989 -0.3745  3.8152
   70MOL0     H 9619   3.670   7.011   2.654  0.1687 -0.2426 -0.4970
   70MOL0     H 9620   3.556   7.033   2.785  0.6900 -0.7365  0.1174
   70MOL0     H 9621   3.720   7.051   2.829  0.3757  1.5484 -0.2854
   70MOL0     H 9622   3.471   6.969   2.273 -0.8729  1.6151 -2.4080
   70MOL0     H 9623   3.295   6.851   2.170  0.6401 -1.0602  0.8413
   70MOL0     H 9624   2.986   6.651   2.417  3.4856  2.4348  0.8566
   70MOL0     H 9625   2.900   6.791   2.360  0.7774  2.0239 -3.0367
   70MOL0     H 9626   2.843   6.695   2.149 -0.1761  0.2018 -1.0214
   70MOL0     H 9627   2.961   6.564   2.156 -2.2787 -0.1443 -1.1253
   70MOL0     H 9628   2.702   6.600   2.333 -2.3400 -0.5513 -2.2098
   70MOL0     H 9629   2.801   6.454   2.332 -0.1797  0.1750  0.5579
   70MOL0     H 9630   2.748   6.418   2.084  0.8896 -2.0227  1.7104
   70MOL0     H 9631   2.633   6.561   2.099  1.7823 -0.0317 -1.2510
   70MOL0     H 9632   2.525   6.337   2.121 -1.6663 -0.2214  0.6077
   70MOL0     H 9633   2.601   6.320   2.272  0.2244  2.6884  0.6466
   70MOL0     H 9634   2.401   6.531   2.188  1.7750  0.3415 -0.6573
   70MOL0     H 9635   2.470   6.548   2.341 -4.3938  0.3925  1.6971
   70MOL0     H 9636   2.374   6.317   2.409 -1.5120 -1.0192  0.1297
   70MOL0     H 9637   2.336   6.297   2.241 -0.7711 -1.2082  0.6151
   70MOL0     H 9638   2.187   6.511   2.288  0.6976 -0.1691 -0.6354
   70MOL0     H 9639   2.218   6.481   2.460  1.4274  3.2106 -0.4376
   70MOL0     H 9640   3.069   6.864   2.537 -1.6198 -3.6189 -2.3651
   70MOL0     H 9641   3.229   7.027   2.615  0.9326 -1.0579  1.8444
   70MOL0     H 9642   3.473   7.479   2.602 -1.2886  2.2486  3.3385
   70MOL0     H 9643   3.655   7.607   2.717 -1.3845  0.1558  0.5120
   70MOL0     H 9644   2.630   7.970   2.895 -1.2228 -0.2584 -1.3742
   70MOL0     H 9645   2.411   8.041   2.784 -0.8111  0.2721 -3.6709
   70MOL0     H 9646   2.261   8.492   2.362  0.9704  0.2920  3.4814
   70MOL0     H 9647   2.044   8.552   2.277  0.1487 -1.0615 -0.2308
   70MOL0     H 9648   1.738   8.556   2.515  0.6668 -1.2039  0.5496
   70MOL0     H 9649   1.820   8.643   2.394 -0.7742 -0.3434 -2.2614
   70MOL0     H 9650   1.560   8.680   2.388 -2.3998  1.8275 -3.6921
   70MOL0     H 9651   1.563   8.511   2.325  1.7641 -1.1576  1.0673
   70MOL0     H 9652   1.715   8.768   2.224 -0.2998  0.9197  1.2053
   70MOL0     H 9653   1.700   8.613   2.128  1.3306  1.3144  1.9417
   70MOL0     H 9654   1.455   8.780   2.195 -2.0581  0.0994 -1.6322
   70MOL0     H 9655   1.460   8.652   2.088 -0.2832  1.2170  1.3282
   70MOL0     H 9656   1.577   8.971   1.837 -2.3603 -0.1400 -0.6240
   70MOL0     H 9657   1.862   8.271   2.541 -1.4948  1.6254 -1.5659
   70MOL0     H 9658   1.976   8.138   2.670  0.6436 -0.9008  1.7540
   70MOL0     H 9659   2.157   8.103   2.665  1.2045  0.6930 -1.4801
   70MOL0     H 9660   2.085   8.230   2.764 -1.6384  1.4765 -1.3919
   71MOL0     O 9661   8.066   2.430  10.959 -0.9971  0.9123  0.5739
   71MOL0     C 9662   8.135   2.475  10.863  0.5660 -0.6331 -0.2873
   71MOL0     O 9663   8.110   2.465  10.728  0.4843  0.7346 -0.1797
   71MOL0     C 9664   7.995   2.439  10.667 -0.0119  0.5530 -0.6849
   71MOL0     C 9665   7.877   2.405  10.728  0.5884 -0.1922  0.0502
   71MOL0     C 9666   7.761   2.379  10.649  0.8280 -0.3184  0.5540
   71MOL0     C 9667   7.764   2.390  10.502  0.3170 -0.2757 -0.5272
   71MOL0     O 9668   7.661   2.349  10.422 -0.4385  0.1771 -0.1417
   71MOL0     C 9669   7.522   2.334  10.461 -0.0706  0.3523  0.1420
   71MOL0     C 9670   7.435   2.379  10.348  0.0899  0.1646 -0.2385
   71MOL0     C 9671   7.445   2.303  10.215 -0.2008 -0.1331 -0.3514
   71MOL0     C 9672   7.418   2.150  10.226 -0.2011 -0.3156  0.5280
   71MOL0     C 9673   7.398   2.085  10.088  0.2893  0.7454 -0.2727
   71MOL0     C 9674   7.527   2.091   9.998 -0.4458 -0.0210  0.1569
   71MOL0     C 9675   7.525   2.017   9.862 -0.2118 -0.6839  0.6162
   71MOL0     C 9676   7.495   1.872   9.879 -0.7693  0.5770 -0.1163
   71MOL0     N 9677   7.615   1.807   9.950  0.4364 -0.0298  0.0619
   71MOL0     C 9678   7.619   1.790  10.088 -0.3971  0.7833  0.0588
   71MOL0     C 9679   7.735   1.729  10.112 -0.8711  0.7915  0.0184
   71MOL0     C 9680   7.785   1.694  10.253  0.8117 -0.0124 -0.2910
   71MOL0     C 9681   7.794   1.547  10.287  0.9393  0.0267  0.2231
   71MOL0     C 9682   7.785   1.521  10.445 -0.4216 -0.3992  0.0669
   71MOL0     C 9683   7.923   1.567  10.511  0.1979  0.8600  0.0528
   71MOL0     O 9684   8.025   1.483  10.451  0.0681 -0.6923 -0.1591
   71MOL0     C 9685   8.162   1.512  10.470  0.1137  0.8205 -0.1897
   71MOL0     C 9686   8.254   1.439  10.394  0.4052 -0.1396  0.5653
   71MOL0     C 9687   8.393   1.451  10.404 -0.0497 -0.5005 -0.4887
   71MOL0     C 9688   8.481   1.362  10.317  0.4197 -0.1237 -0.1174
   71MOL0     C 9689   8.445   1.546  10.494 -0.2141  0.0859 -0.3441
   71MOL0     C 9690   8.591   1.580  10.507 -0.5419 -0.3667 -0.3042
   71MOL0     O 9691   8.619   1.655  10.612 -0.9531 -0.3811 -0.5495
   71MOL0     C 9692   8.754   1.646  10.644  0.3140  0.6146  0.0360
   71MOL0     C 9693   8.798   1.543  10.726  0.9559 -0.4974 -0.2330
   71MOL0     C 9694   8.924   1.538  10.770  0.1211 -0.8596 -0.3600
   71MOL0     C 9695   9.016   1.640  10.733 -0.2195 -0.1829  0.5648
   71MOL0     O 9696   9.148   1.620  10.773  0.3385 -0.0333  0.1294
   71MOL0     C 9697   9.250   1.707  10.724 -0.5783  0.3656 -0.1451
   71MOL0     C 9698   9.389   1.658  10.781  0.2260 -0.5120 -0.3817
   71MOL0     C 9699   9.473   1.777  10.838  0.7030  0.4090  0.3787
   71MOL0     C 9700   9.615   1.727  10.843 -1.0846 -0.0853 -0.1526
   71MOL0     C 9701   9.712   1.843  10.874 -0.2450 -0.6658 -0.0944
   71MOL0     C 9702   9.850   1.801  10.916 -0.6873 -0.0171 -0.2620
   71MOL0     C 9703   9.920   1.921  10.961  0.2557  0.3322 -0.3311
   71MOL0     C 9704  10.053   1.897  11.035  0.2627 -0.4961  0.4401
   71MOL0    Cl 9705  10.153   1.802  10.921 -0.4993 -0.0038  0.0773
   71MOL0     C 9706   8.981   1.740  10.642  0.0492  1.2241  0.2863
   71MOL0     C 9707   8.849   1.743  10.605 -0.4725  0.0889 -1.0346
   71MOL0     O 9708   8.671   1.543  10.427  0.0024 -0.3062 -0.1594
   71MOL0     C 9709   8.355   1.614  10.578 -0.6374 -0.4106 -0.8630
   71MOL0     C 9710   8.217   1.597  10.563 -0.0571 -0.5257  0.2000
   71MOL0     N 9711   7.809   1.722   9.994  0.0947 -0.0795 -0.6852
   71MOL0     N 9712   7.734   1.781   9.906 -0.0950  0.1880 -0.4824
   71MOL0     C 9713   7.888   2.411  10.446 -0.5128 -0.4229 -0.4201
   71MOL0     C 9714   8.001   2.447  10.525 -0.5548  0.5642 -0.1317
   71MOL0     C 9715   8.273   2.516  10.884 -0.6142 -0.5553 -0.1687
   71MOL0     C 9716   8.372   2.466  10.801 -0.3110  0.1220  0.2541
   71MOL0     C 9717   8.508   2.499  10.822 -0.2168  0.3075  0.2958
   71MOL0     C 9718   8.551   2.583  10.924  0.6121 -0.0355 -0.5345
   71MOL0     O 9719   8.681   2.613  10.932 -0.3006 -0.3176 -0.5164
   71MOL0     C 9720   8.725   2.710  11.031  0.3820  0.4246  0.1883
   71MOL0     C 9721   8.877   2.721  11.036  0.9840 -0.6991 -0.4791
   71MOL0     C 9722   8.921   2.831  11.127  0.3770  0.2222 -0.1435
   71MOL0     C 9723   9.076   2.871  11.134 -0.5966  0.5338 -0.9163
   71MOL0     C 9724   9.165   2.749  11.141 -0.2978 -0.6021  0.0875
   71MOL0     C 9725   9.234   2.648  11.151  0.0453  0.7859 -0.3643
   71MOL0     C 9726   8.453   2.625  11.016 -0.2620  0.9357  0.2688
   71MOL0     C 9727   8.314   2.588  10.998 -0.9148 -0.1678  0.5289
   71MOL0     C 9728   8.204   2.626  11.106  0.8020 -0.2993  0.7136
   71MOL0     H 9729   7.867   2.384  10.834 -2.6428 -0.6212 -0.2236
   71MOL0     H 9730   7.679   2.349  10.714  0.8810 -0.5032  0.5366
   71MOL0     H 9731   7.486   2.398  10.542 -6.4605  1.6816 -3.1290
   71MOL0     H 9732   7.503   2.231  10.492 -0.8231  0.8441  1.3755
   71MOL0     H 9733   7.331   2.369  10.380 -0.0623 -1.9648 -1.2312
   71MOL0     H 9734   7.459   2.485  10.339 -2.6452  1.0950  2.0810
   71MOL0     H 9735   7.372   2.340  10.142  0.6822  1.7646 -0.3270
   71MOL0     H 9736   7.542   2.315  10.166 -0.7902 -0.2804 -1.5912
   71MOL0     H 9737   7.495   2.111  10.294  0.8600 -0.6922 -0.8435
   71MOL0     H 9738   7.324   2.140  10.280  1.2536 -0.2510  3.2925
   71MOL0     H 9739   7.321   2.134  10.027 -0.0960 -1.4821 -1.6985
   71MOL0     H 9740   7.374   1.980  10.104  2.2516  0.0381 -1.6249
   71MOL0     H 9741   7.557   2.194   9.978  0.7396 -0.4573 -0.4702
   71MOL0     H 9742   7.608   2.046  10.056 -1.1484 -1.4537  0.0772
   71MOL0     H 9743   7.625   2.023   9.818 -0.3514  0.0009  0.3843
   71MOL0     H 9744   7.467   2.078   9.791  2.0764  0.8172 -0.0762
   71MOL0     H 9745   7.400   1.864   9.934  1.4666  0.6741  4.1698
   71MOL0     H 9746   7.479   1.832   9.779  0.5472 -0.1419 -0.0609
   71MOL0     H 9747   7.549   1.812  10.168  0.7345 -1.7995  1.8908
   71MOL0     H 9748   7.727   1.753  10.324  0.7715  0.8909 -1.0483
   71MOL0     H 9749   7.883   1.741  10.260 -0.1029  2.3568 -1.9641
   71MOL0     H 9750   7.711   1.492  10.241  0.9226 -0.4434  0.8060
   71MOL0     H 9751   7.890   1.506  10.254 -0.7023 -3.0263 -1.2031
   71MOL0     H 9752   7.706   1.571  10.501 -0.3259 -0.2972  0.1107
   71MOL0     H 9753   7.767   1.414  10.462 -1.3792 -0.3716 -0.6794
   71MOL0     H 9754   7.936   1.673  10.490  1.8085  0.4695 -1.1958
   71MOL0     H 9755   7.914   1.543  10.617 -1.2484 -0.1287 -0.2579
   71MOL0     H 9756   8.206   1.367  10.328  0.5793 -0.6009  0.9360
   71MOL0     H 9757   8.575   1.326  10.360  0.8149  0.5528 -0.4087
   71MOL0     H 9758   8.515   1.420  10.231 -0.6995 -0.6922 -0.9803
   71MOL0     H 9759   8.427   1.274  10.280  1.7959 -0.6002 -1.0421
   71MOL0     H 9760   8.724   1.471  10.759  0.9395 -0.4016 -0.0620
   71MOL0     H 9761   8.957   1.467  10.845  3.1550  3.2272  2.6716
   71MOL0     H 9762   9.252   1.706  10.615 -3.9339  1.3055 -0.3253
   71MOL0     H 9763   9.227   1.811  10.749  0.3706  0.6186 -0.3169
   71MOL0     H 9764   9.367   1.584  10.859 -0.4798  0.8589  0.7723
   71MOL0     H 9765   9.442   1.599  10.706 -0.4160 -0.9068 -0.5310
   71MOL0     H 9766   9.437   1.803  10.938 -1.1508 -0.8545  0.0828
   71MOL0     H 9767   9.465   1.866  10.775  3.1211  1.6581  1.7164
   71MOL0     H 9768   9.648   1.695  10.743 -2.5389  3.8040 -2.0622
   71MOL0     H 9769   9.630   1.651  10.920 -0.1707  0.7551  0.5287
   71MOL0     H 9770   9.726   1.905  10.785 -0.6762 -3.2521 -2.0781
   71MOL0     H 9771   9.663   1.905  10.950 -2.2814  2.2850 -3.4862
   71MOL0     H 9772   9.895   1.750  10.831 -3.7086 -1.6643 -0.9803
   71MOL0     H 9773   9.846   1.730  10.999 -2.2992  2.5018  2.0083
   71MOL0     H 9774   9.866   1.975  11.039 -1.1250 -1.7310  0.2389
   71MOL0     H 9775   9.942   1.986  10.876  3.0036 -1.2106 -0.9014
   71MOL0     H 9776  10.036   1.835  11.123 -0.9327  1.5508  1.7293
   71MOL0     H 9777  10.091   1.996  11.060 -1.4868  0.3699 -0.2022
   71MOL0     H 9778   9.051   1.811  10.599  0.9075 -0.2810 -0.8789
   71MOL0     H 9779   8.830   1.823  10.534  1.4684  2.2557  0.7450
   71MOL0     H 9780   8.399   1.670  10.660 -0.0043 -0.2014 -1.3382
   71MOL0     H 9781   8.149   1.643  10.635 -1.5591  0.2381 -1.6098
   71MOL0     H 9782   7.893   2.401  10.338  1.0105 -1.5634 -0.2686
   71MOL0     H 9783   8.098   2.451  10.477  1.2383  1.9688  3.2253
   71MOL0     H 9784   8.356   2.404  10.713 -1.0188 -0.8349  1.0312
   71MOL0     H 9785   8.589   2.463  10.760 -0.2869 -1.3331  1.0868
   71MOL0     H 9786   8.691   2.806  10.990  1.4558  0.6093 -0.2897
   71MOL0     H 9787   8.679   2.685  11.127  1.6491  1.7934  1.1897
   71MOL0     H 9788   8.923   2.751  10.941  0.8236  1.5030  0.0713
   71MOL0     H 9789   8.919   2.627  11.073  1.6455 -0.8151 -1.4808
   71MOL0     H 9790   8.864   2.923  11.111  0.3433  0.1793 -0.2726
   71MOL0     H 9791   8.903   2.794  11.229  2.3665 -0.4509  0.0029
   71MOL0     H 9792   9.093   2.921  11.230 -1.9850  0.9358 -0.8506
   71MOL0     H 9793   9.110   2.942  11.058 -0.1633  2.1424  0.7180
   71MOL0     H 9794   9.300   2.566  11.171 -0.1235  1.2647  2.5804
   71MOL0     H 9795   8.473   2.687  11.103  1.1728 -1.3514  1.6568
   71MOL0     H 9796   8.264   2.678  11.182  4.2355  1.1888 -2.7132
   71MOL0     H 9797   8.128   2.686  11.056  1.3885  0.8972  1.2153
   71MOL0     H 9798   8.153   2.546  11.162  1.0926 -1.5692 -0.7643
   72MOL0     O 9799  10.383   5.871   4.381  0.2161  0.5232  0.2481
   72MOL0     C 9800  10.356   5.828   4.496  0.4672  0.7311  0.1605
   72MOL0     O 9801  10.449   5.779   4.581 -0.4573  0.1367 -1.0154
   72MOL0     C 9802  10.590   5.783   4.552  0.3155 -0.7875  0.2875
   72MOL0     C 9803  10.657   5.902   4.524  0.0975 -0.7074  0.1177
   72MOL0     C 9804  10.796   5.895   4.512 -0.3585  0.4298 -0.3711
   72MOL0     C 9805  10.865   5.772   4.510  0.0364 -0.8720 -0.6871
   72MOL0     O 9806  11.001   5.751   4.499 -0.5164 -0.1443 -0.2576
   72MOL0     C 9807  11.074   5.868   4.455 -0.8553 -0.0551  0.8782
   72MOL0     C 9808  11.215   5.824   4.418  0.4147  0.3813 -0.0382
   72MOL0     C 9809  11.310   5.923   4.360 -0.0125  0.2815 -0.7099
   72MOL0     C 9810  11.444   5.850   4.317 -0.2848 -0.9609  0.4249
   72MOL0     C 9811  11.535   5.950   4.245 -0.8329  0.2117 -0.6483
   72MOL0     C 9812  11.685   5.925   4.277  0.3575  0.1235 -0.2360
   72MOL0     C 9813  11.769   6.048   4.277 -0.6309 -0.5612  0.1282
   72MOL0     C 9814  11.919   6.022   4.303 -0.6358  0.2268  0.1668
   72MOL0     N 9815  11.996   6.144   4.303  1.2115 -0.3394 -0.2961
   72MOL0     C 9816  12.068   6.196   4.411 -0.3393 -0.2833  0.5903
   72MOL0     C 9817  12.131   6.305   4.357  0.0883  0.4150 -0.1060
   72MOL0     C 9818  12.222   6.400   4.424  0.3437 -0.2312 -0.2634
   72MOL0     C 9819  12.315   6.468   4.324 -0.4416  0.1358 -0.7290
   72MOL0     C 9820  12.421   6.373   4.268  0.2494 -0.1457  0.2627
   72MOL0     C 9821  12.566   6.370   4.328  0.3934 -0.6546  0.0389
   72MOL0     O 9822  12.561   6.300   4.444  0.7096 -0.1586  0.6610
   72MOL0     C 9823  12.678   6.251   4.478  0.7668  0.0765 -0.0529
   72MOL0     C 9824  12.767   6.320   4.558  0.0837 -0.4215 -0.1873
   72MOL0     C 9825  12.890   6.264   4.597  0.0672 -0.2655  0.3592
   72MOL0     C 9826  12.982   6.338   4.693 -0.2659  0.0357 -0.2398
   72MOL0     C 9827  12.927   6.145   4.535 -0.3366 -0.6735  0.4999
   72MOL0     C 9828  13.060   6.083   4.552  0.4570 -0.0797  0.0650
   72MOL0     O 9829  13.127   6.044   4.442  0.7456  0.4246  0.2885
   72MOL0     C 9830  13.252   6.003   4.443  0.3574 -0.7172  0.9004
   72MOL0     C 9831  13.291   5.893   4.522 -0.2325  0.0113  1.3436
   72MOL0     C 9832  13.422   5.857   4.513 -0.1849  0.3838  0.7949
   72MOL0     C 9833  13.519   5.929   4.437 -0.4698 -0.1869 -0.1388
   72MOL0     O 9834  13.653   5.892   4.433  0.3778 -0.3798  0.5863
   72MOL0     C 9835  13.724   5.860   4.557  0.5068 -0.7324 -0.3556
   72MOL0     C 9836  13.873   5.842   4.524  0.3326 -1.0665  0.2036
   72MOL0     C 9837  13.940   5.803   4.649 -0.8437 -0.7437  0.1182
   72MOL0     C 9838  14.086   5.784   4.625 -0.5599 -0.5226 -0.3204
   72MOL0     C 9839  14.148   5.680   4.713  0.0445  0.4209  0.0876
   72MOL0     C 9840  14.298   5.673   4.673  0.9048  0.1878  0.6484
   72MOL0     C 9841  14.380   5.580   4.753 -0.4203  0.3355  0.6240
   72MOL0     C 9842  14.334   5.434   4.742 -0.4968  0.8863 -0.5408
   72MOL0    Cl 9843  14.326   5.379   4.572 -0.2680  0.2621 -0.3148
   72MOL0     C 9844  13.478   6.039   4.357 -0.1867  0.1794  0.6620
   72MOL0     C 9845  13.348   6.076   4.364  0.2828 -0.2104 -0.0153
   72MOL0     O 9846  13.091   6.056   4.670 -0.6659  0.2884  1.1327
   72MOL0     C 9847  12.833   6.080   4.445  0.3725 -0.9280 -0.0453
   72MOL0     C 9848  12.712   6.134   4.424  0.5357 -0.6196  0.4079
   72MOL0     N 9849  12.097   6.310   4.223  0.4395 -0.7351 -0.1699
   72MOL0     N 9850  12.001   6.227   4.195  0.1037 -0.0913 -0.2041
   72MOL0     C 9851  10.796   5.663   4.542 -0.0488  0.1953 -0.1421
   72MOL0     C 9852  10.661   5.664   4.556 -0.5537  0.7548 -0.7347
   72MOL0     C 9853  10.208   5.820   4.543  0.5134  0.1415 -0.7600
   72MOL0     C 9854  10.169   5.834   4.679 -0.3802  0.2032 -0.0461
   72MOL0     C 9855  10.046   5.846   4.732  0.3223 -0.5874  0.9585
   72MOL0     C 9856   9.938   5.823   4.641  1.1570 -0.7906 -0.5323
   72MOL0     O 9857   9.812   5.828   4.697 -0.6519  0.3658 -0.0721
   72MOL0     C 9858   9.703   5.863   4.607  0.3744  0.1014  0.5703
   72MOL0     C 9859   9.598   5.912   4.709  0.6871  0.1853 -0.0368
   72MOL0     C 9860   9.459   5.922   4.636  0.2280  0.1200  0.0744
   72MOL0     C 9861   9.434   6.060   4.577 -0.2623 -0.0411  0.4169
   72MOL0     C 9862   9.315   6.053   4.498  1.4032  0.1458 -0.3036
   72MOL0     C 9863   9.215   6.049   4.426  0.5441 -0.9073 -0.5180
   72MOL0     C 9864   9.965   5.808   4.504 -0.3228  0.5965 -0.7546
   72MOL0     C 9865  10.099   5.803   4.455  1.0487  0.6091  0.4599
   72MOL0     C 9866  10.105   5.773   4.308 -0.4502  0.2569 -0.4179
   72MOL0     H 9867  10.609   5.999   4.526  0.4703 -0.4329 -1.8955
   72MOL0     H 9868  10.848   5.988   4.492  1.1563 -0.5537 -1.1840
   72MOL0     H 9869  11.078   5.943   4.534 -0.4899  0.8920 -0.0079
   72MOL0     H 9870  11.022   5.914   4.370 -1.6783 -0.9903  0.8587
   72MOL0     H 9871  11.256   5.787   4.513  2.4689  0.4093 -0.8571
   72MOL0     H 9872  11.207   5.753   4.335 -0.4545  1.7430 -1.1587
   72MOL0     H 9873  11.259   5.980   4.282  0.0303  2.4181  0.7287
   72MOL0     H 9874  11.343   5.991   4.439 -1.1726 -0.5152  0.4947
   72MOL0     H 9875  11.510   5.805   4.392  1.5926  0.2231 -0.4330
   72MOL0     H 9876  11.423   5.771   4.244  0.4330 -0.0349 -0.8195
   72MOL0     H 9877  11.509   6.053   4.271  4.4515  1.8747 -0.7938
   72MOL0     H 9878  11.526   5.959   4.136  4.7397 -0.9333 -1.4944
   72MOL0     H 9879  11.707   5.873   4.371 -1.5639 -1.8248 -0.7988
   72MOL0     H 9880  11.718   5.859   4.197 -2.2732 -0.2878 -1.0580
   72MOL0     H 9881  11.736   6.099   4.367  0.3848 -0.1323  0.2791
   72MOL0     H 9882  11.751   6.114   4.191  1.5149  1.3008  0.9767
   72MOL0     H 9883  11.927   5.978   4.403  1.8584  3.0195  1.3256
   72MOL0     H 9884  11.952   5.956   4.222 -1.4651 -0.5298  0.4234
   72MOL0     H 9885  12.097   6.162   4.509  2.4130  1.3952  0.4457
   72MOL0     H 9886  12.276   6.346   4.502  0.0386  1.2040  0.9910
   72MOL0     H 9887  12.155   6.476   4.465 -0.0680 -0.3499 -0.7065
   72MOL0     H 9888  12.249   6.508   4.246  0.6603  3.4220 -0.1380
   72MOL0     H 9889  12.374   6.546   4.373  0.4861 -1.8989  1.5932
   72MOL0     H 9890  12.383   6.271   4.276 -0.6704  0.1141 -0.6354
   72MOL0     H 9891  12.436   6.396   4.162 -2.3017 -1.5560 -0.5016
   72MOL0     H 9892  12.623   6.322   4.248 -4.0526 -0.4018 -3.7041
   72MOL0     H 9893  12.595   6.474   4.343 -2.0654  0.3024 -1.2298
   72MOL0     H 9894  12.737   6.415   4.600 -0.2374  0.0251 -1.3875
   72MOL0     H 9895  12.929   6.424   4.736  1.1089  0.4660  0.6447
   72MOL0     H 9896  13.069   6.379   4.642  0.1483  1.6361  1.6458
   72MOL0     H 9897  13.014   6.274   4.776 -0.1099 -0.5908 -0.7769
   72MOL0     H 9898  13.221   5.835   4.580 -1.4364  1.6141  1.5716
   72MOL0     H 9899  13.437   5.762   4.563 -2.5363 -0.7516 -0.5128
   72MOL0     H 9900  13.706   5.936   4.633  2.8679 -0.3472 -0.1147
   72MOL0     H 9901  13.688   5.762   4.590 -1.2684  0.3092  0.9956
   72MOL0     H 9902  13.889   5.766   4.447  0.9766  0.7155 -1.5083
   72MOL0     H 9903  13.906   5.939   4.486 -0.2850 -0.3634  1.3993
   72MOL0     H 9904  13.899   5.708   4.685 -1.6590 -0.0524  1.0478
   72MOL0     H 9905  13.932   5.875   4.731  1.1270  0.5469 -0.7419
   72MOL0     H 9906  14.137   5.880   4.621 -0.6143 -0.3849  1.6889
   72MOL0     H 9907  14.099   5.742   4.524  2.8327 -1.7386  0.4853
   72MOL0     H 9908  14.132   5.709   4.818 -1.3272  0.2113 -0.0465
   72MOL0     H 9909  14.102   5.582   4.698  0.0204  0.7681 -2.5527
   72MOL0     H 9910  14.338   5.774   4.679 -1.7023  1.3176  0.0478
   72MOL0     H 9911  14.311   5.643   4.569  0.9697  0.4150  0.5927
   72MOL0     H 9912  14.383   5.617   4.855 -1.3994  0.8202  0.4915
   72MOL0     H 9913  14.481   5.573   4.711  0.3388 -0.0579  2.4336
   72MOL0     H 9914  14.240   5.412   4.794 -1.5948  0.0621 -2.7033
   72MOL0     H 9915  14.421   5.389   4.789  0.2134  2.1257 -0.6371
   72MOL0     H 9916  13.553   6.096   4.305  1.3483 -0.1495  2.4221
   72MOL0     H 9917  13.320   6.167   4.313  3.6429  1.8407  1.4093
   72MOL0     H 9918  12.848   5.990   4.387  2.5930 -0.3815 -0.4210
   72MOL0     H 9919  12.632   6.094   4.363 -0.4922 -0.4214  1.5970
   72MOL0     H 9920  10.844   5.566   4.550  0.4933  0.2545 -2.1277
   72MOL0     H 9921  10.604   5.572   4.563  1.9164 -0.8872 -1.0364
   72MOL0     H 9922  10.247   5.851   4.751 -0.7996  0.8810  0.2602
   72MOL0     H 9923  10.017   5.869   4.834 -0.3282  0.6471  0.5145
   72MOL0     H 9924   9.726   5.938   4.531 -1.0816 -2.5314 -2.7228
   72MOL0     H 9925   9.669   5.767   4.565  2.4132 -0.6832  0.6265
   72MOL0     H 9926   9.613   6.011   4.754 -1.5666  1.0026 -0.9493
   72MOL0     H 9927   9.576   5.840   4.789  0.7218  0.0915 -0.1127
   72MOL0     H 9928   9.442   5.847   4.558  0.6637  1.0032 -0.8852
   72MOL0     H 9929   9.377   5.914   4.707 -0.5768  1.6706 -0.6538
   72MOL0     H 9930   9.513   6.103   4.515 -0.9205  2.6631  1.3250
   72MOL0     H 9931   9.426   6.127   4.663 -1.3867 -0.4652  0.6521
   72MOL0     H 9932   9.134   6.051   4.357 -0.4030 -1.0772  0.5612
   72MOL0     H 9933   9.881   5.779   4.441 -1.4209 -0.6544  1.1746
   72MOL0     H 9934  10.133   5.670   4.284 -1.3853  0.3275 -1.9881
   72MOL0     H 9935  10.008   5.801   4.266 -1.6049 -1.4335  0.9593
   72MOL0     H 9936  10.183   5.838   4.268  1.4781 -1.7154 -0.0608
   73MOL0     O 9937   7.409   5.498   0.001 -0.3560  0.0217 -0.0669
   73MOL0     C 9938   7.380   5.414  -0.080  0.3808 -0.2808 -0.0178
   73MOL0     O 9939   7.464   5.325  -0.141 -0.3471 -0.3064 -0.0183
   73MOL0     C 9940   7.604   5.335  -0.127 -0.0842 -0.6837  0.2630
   73MOL0     C 9941   7.665   5.381  -0.011 -0.2575 -0.3616 -0.0634
   73MOL0     C 9942   7.800   5.377   0.006  0.3331  0.5235 -0.0976
   73MOL0     C 9943   7.878   5.342  -0.106 -0.3274 -0.1503 -0.6938
   73MOL0     O 9944   8.015   5.349  -0.102 -0.2532 -0.1028  0.8351
   73MOL0     C 9945   8.084   5.325   0.023 -0.2629 -0.7348 -0.7010
   73MOL0     C 9946   8.233   5.284   0.007  0.3829 -0.5020 -0.4132
   73MOL0     C 9947   8.332   5.403  -0.017 -0.4942 -0.2258  0.6025
   73MOL0     C 9948   8.465   5.342  -0.062 -0.6772  0.3449  0.5113
   73MOL0     C 9949   8.468   5.300  -0.212  0.5320  0.6889 -0.6002
   73MOL0     C 9950   8.592   5.216  -0.239  0.6296 -0.1592  0.1696
   73MOL0     C 9951   8.722   5.295  -0.232 -0.2748 -0.2276  0.3305
   73MOL0     C 9952   8.836   5.194  -0.230 -0.3769 -0.9855 -0.1438
   73MOL0     N 9953   8.891   5.182  -0.096  0.3154  0.4307 -1.7240
   73MOL0     C 9954   9.013   5.239  -0.051  0.3843  0.1034  0.2091
   73MOL0     C 9955   9.049   5.176   0.061  0.6704  0.0387  0.5374
   73MOL0     C 9956   9.177   5.196   0.138 -0.2747 -0.1107  0.7583
   73MOL0     C 9957   9.155   5.289   0.256 -0.2023 -0.2791  0.2688
   73MOL0     C 9958   9.071   5.214   0.367 -0.2549  0.3604 -0.4049
   73MOL0     C 9959   9.073   5.300   0.497  0.2455 -0.6122  0.7779
   73MOL0     O 9960   8.937   5.297   0.554 -0.2788  0.4546  0.7191
   73MOL0     C 9961   8.898   5.224   0.666 -0.5370 -1.0560  0.2790
   73MOL0     C 9962   8.774   5.249   0.712  0.8208 -0.7450  1.1133
   73MOL0     C 9963   8.716   5.171   0.823  0.5272 -0.3174  0.2758
   73MOL0     C 9964   8.570   5.216   0.866  0.1027  0.9255 -0.0728
   73MOL0     C 9965   8.793   5.069   0.883 -0.3904  0.3251 -0.4424
   73MOL0     C 9966   8.754   4.988   1.006 -0.6824  0.6684 -0.3332
   73MOL0     O 9967   8.851   4.903   1.056  0.1160 -0.4743  0.3415
   73MOL0     C 9968   8.824   4.817   1.160  1.2334 -0.3116 -0.5136
   73MOL0     C 9969   8.902   4.807   1.274 -0.3670 -0.6110 -0.5078
   73MOL0     C 9970   8.874   4.729   1.381 -0.1572  1.1479 -0.5606
   73MOL0     C 9971   8.773   4.632   1.377 -0.1608  1.0464  1.0517
   73MOL0     O 9972   8.744   4.523   1.459 -0.5708 -0.0456 -0.1925
   73MOL0     C 9973   8.779   4.519   1.595 -0.2745  0.3466 -0.2769
   73MOL0     C 9974   8.715   4.405   1.655  1.4274 -0.8056  0.3705
   73MOL0     C 9975   8.760   4.277   1.588  1.0789  0.0679 -0.9921
   73MOL0     C 9976   8.691   4.170   1.655  0.4830 -0.0093  0.2022
   73MOL0     C 9977   8.720   4.032   1.612 -0.1420  0.0484  0.0861
   73MOL0     C 9978   8.644   3.928   1.695  0.0096  0.9599 -0.6404
   73MOL0     C 9979   8.672   3.783   1.643  0.3206 -1.0780  0.3767
   73MOL0     C 9980   8.824   3.742   1.663  0.5521  0.0433 -0.0594
   73MOL0    Cl 9981   8.884   3.757   1.831  0.2344  0.3564  0.6442
   73MOL0     C 9982   8.699   4.632   1.260 -0.9073  0.1299 -0.3831
   73MOL0     C 9983   8.717   4.720   1.155  0.0217 -0.5160  0.5365
   73MOL0     O 9984   8.641   4.996   1.049  0.5457 -0.0892  0.2404
   73MOL0     C 9985   8.918   5.051   0.838 -0.1441 -0.5075  0.3915
   73MOL0     C 9986   8.975   5.128   0.730  0.2915 -0.1746 -0.3036
   73MOL0     N 9987   8.967   5.070   0.080  0.1682 -0.4027  0.4473
   73MOL0     N 9988   8.870   5.076  -0.014  0.1604 -0.0402 -0.0453
   73MOL0     C 9989   7.831   5.289  -0.224 -0.5350  0.5266 -0.0914
   73MOL0     C 9990   7.695   5.293  -0.230  0.0139 -0.2811 -0.2197
   73MOL0     C 9991   7.237   5.417  -0.110  0.0288  0.7738 -0.1343
   73MOL0     C 9992   7.204   5.368  -0.238 -0.1478  0.6245  0.3490
   73MOL0     C 9993   7.072   5.335  -0.270  0.0640  0.3056 -0.0539
   73MOL0     C 9994   6.972   5.370  -0.182  0.2868 -0.8086  0.4378
   73MOL0     O 9995   6.837   5.365  -0.204 -0.6225 -0.2203  0.0037
   73MOL0     C 9996   6.797   5.336  -0.331  0.6217 -0.2148 -0.0385
   73MOL0     C 9997   6.650   5.360  -0.347  0.6505 -0.9697  0.5309
   73MOL0     C 9998   6.633   5.518  -0.363  0.4540  0.6078  1.4045
   73MOL0     C 9999   6.493   5.566  -0.375 -0.2278  0.0034 -0.7269
   73MOL0     C10000   6.435   5.492  -0.487  0.3057  1.0093 -0.5498
   73MOL0     C10001   6.396   5.423  -0.579 -0.5587  0.8739  0.0266
   73MOL0     C10002   7.010   5.438  -0.063  0.0319  0.0350  0.5131
   73MOL0     C10003   7.140   5.464  -0.027  0.0850  0.6644  1.1355
   73MOL0     C10004   7.151   5.519   0.114 -0.1141 -0.2833 -0.1820
   73MOL0     H10005   7.607   5.398   0.079 -0.6509  1.4943 -0.6274
   73MOL0     H10006   7.859   5.414   0.089  3.5687 -1.4598 -1.2855
   73MOL0     H10007   8.047   5.239   0.079 -1.2191  0.0123 -0.1618
   73MOL0     H10008   8.069   5.408   0.092  1.2366 -1.3878  0.4710
   73MOL0     H10009   8.260   5.231   0.098  0.7200 -1.6224 -1.1469
   73MOL0     H10010   8.254   5.206  -0.067 -0.7400 -0.2722 -1.0080
   73MOL0     H10011   8.293   5.473  -0.091 -0.5964 -2.6916 -1.8065
   73MOL0     H10012   8.340   5.453   0.080 -2.1498  1.6504 -0.1719
   73MOL0     H10013   8.551   5.406  -0.043  1.3765 -2.0821 -0.0372
   73MOL0     H10014   8.477   5.245  -0.012  0.7698 -0.9040 -2.0540
   73MOL0     H10015   8.465   5.391  -0.273 -1.8511  0.2479 -1.2732
   73MOL0     H10016   8.380   5.237  -0.231 -0.3879  1.1808  1.7013
   73MOL0     H10017   8.582   5.137  -0.164  1.1469  3.2122  4.1859
   73MOL0     H10018   8.576   5.164  -0.334 -0.8072  0.3922  0.0873
   73MOL0     H10019   8.733   5.347  -0.136 -3.5985  2.3558 -0.4867
   73MOL0     H10020   8.736   5.361  -0.318 -4.2215 -0.2622 -0.5155
   73MOL0     H10021   8.817   5.097  -0.278  1.5930 -2.4629  1.8558
   73MOL0     H10022   8.923   5.231  -0.286  2.4856 -2.1333  3.1637
   73MOL0     H10023   9.059   5.316  -0.111  0.1439  0.0962  0.0096
   73MOL0     H10024   9.251   5.247   0.075  0.4333 -1.0499  0.8158
   73MOL0     H10025   9.219   5.099   0.165 -0.2614  0.0972  1.5180
   73MOL0     H10026   9.255   5.319   0.291  0.2218  0.2990 -1.3362
   73MOL0     H10027   9.104   5.382   0.230 -1.2140 -0.2363  2.2459
   73MOL0     H10028   8.968   5.182   0.351 -1.1116  0.6140  3.4714
   73MOL0     H10029   9.115   5.114   0.378  0.2419  0.7976  2.6413
   73MOL0     H10030   9.143   5.245   0.560  2.0571 -0.3680 -0.9424
   73MOL0     H10031   9.109   5.400   0.474  0.5774 -0.4780  1.8278
   73MOL0     H10032   8.722   5.327   0.658  2.0848 -1.6620 -1.6433
   73MOL0     H10033   8.511   5.261   0.786  1.5770 -0.4859 -2.0652
   73MOL0     H10034   8.580   5.271   0.960  1.5003 -2.6712  2.1025
   73MOL0     H10035   8.512   5.125   0.886 -1.0300  1.6468 -0.0062
   73MOL0     H10036   8.986   4.869   1.303 -0.0197 -1.1865 -0.2775
   73MOL0     H10037   8.925   4.744   1.475 -4.2597  1.5842  1.8345
   73MOL0     H10038   8.888   4.518   1.597 -0.2434 -0.3583  2.7774
   73MOL0     H10039   8.752   4.609   1.651  1.1295  1.6740 -1.6240
   73MOL0     H10040   8.737   4.418   1.762 -1.5943 -0.5811  1.0708
   73MOL0     H10041   8.607   4.421   1.645  1.9574  3.7613  0.2461
   73MOL0     H10042   8.868   4.263   1.591  0.8807 -1.8744 -1.6423
   73MOL0     H10043   8.736   4.266   1.482  0.5465 -0.6375 -0.8023
   73MOL0     H10044   8.587   4.204   1.650  2.0948  6.5764  1.9835
   73MOL0     H10045   8.724   4.186   1.758  1.4887  0.3647 -0.1709
   73MOL0     H10046   8.691   4.021   1.507  2.1918  0.0970 -0.6224
   73MOL0     H10047   8.826   4.013   1.632  0.2057 -0.4705 -1.9632
   73MOL0     H10048   8.536   3.942   1.695 -0.0598  1.1658  2.3928
   73MOL0     H10049   8.680   3.929   1.798 -2.2829 -1.4809  0.2930
   73MOL0     H10050   8.649   3.783   1.536  2.7943 -4.9394 -0.3696
   73MOL0     H10051   8.610   3.716   1.704  1.2278  0.5595  3.2872
   73MOL0     H10052   8.885   3.802   1.596 -0.3199  2.0197  0.8209
   73MOL0     H10053   8.841   3.638   1.633 -0.2991 -0.2002  0.2648
   73MOL0     H10054   8.636   4.545   1.245  0.1087 -0.6323 -0.3824
   73MOL0     H10055   8.653   4.719   1.067 -1.1760 -0.5007  1.3887
   73MOL0     H10056   8.985   4.978   0.883  0.5216 -1.3254 -1.8160
   73MOL0     H10057   9.076   5.110   0.696  1.2876  1.9338  1.3435
   73MOL0     H10058   7.892   5.249  -0.304  0.2415 -0.5908  1.0319
   73MOL0     H10059   7.652   5.255  -0.323 -1.1997  0.4482  0.0255
   73MOL0     H10060   7.276   5.326  -0.307 -0.7669 -0.6266  0.4367
   73MOL0     H10061   7.053   5.290  -0.367 -0.3957 -2.1137  1.0826
   73MOL0     H10062   6.849   5.403  -0.401  1.1387 -0.1428  0.4079
   73MOL0     H10063   6.829   5.235  -0.359 -2.0133 -0.8166 -1.1893
   73MOL0     H10064   6.592   5.320  -0.263 -2.3935  1.7842 -0.0600
   73MOL0     H10065   6.606   5.308  -0.433  0.6725 -0.7670  0.3965
   73MOL0     H10066   6.683   5.568  -0.279  0.9550 -0.1532  1.5772
   73MOL0     H10067   6.682   5.557  -0.452 -1.1989 -1.1111 -0.3420
   73MOL0     H10068   6.490   5.672  -0.404 -1.5934  0.5174  1.0880
   73MOL0     H10069   6.437   5.555  -0.282 -0.3718  1.4445 -0.6204
   73MOL0     H10070   6.376   5.355  -0.660 -0.3958  1.9881 -0.9739
   73MOL0     H10071   6.920   5.469  -0.010 -1.2530  1.4580 -2.2972
   73MOL0     H10072   7.060   5.500   0.172 -0.5036 -0.8167 -0.9550
   73MOL0     H10073   7.235   5.474   0.168  0.8256  0.3247 -1.0823
   73MOL0     H10074   7.172   5.626   0.112  1.3843 -0.4966  1.5436
   74MOL0     O10075   8.263   0.409   7.201  0.1566  0.2428 -0.2152
   74MOL0     C10076   8.246   0.384   7.085 -0.1149  0.0310 -0.3843
   74MOL0     O10077   8.321   0.432   6.988 -0.3461 -0.4214 -0.2090
   74MOL0     C10078   8.429   0.502   7.033  0.8563 -0.0520  0.8721
   74MOL0     C10079   8.426   0.639   7.052  1.3192 -0.6594  0.1823
   74MOL0     C10080   8.525   0.710   7.119  0.3128  0.2047 -0.0472
   74MOL0     C10081   8.644   0.648   7.159  0.3864 -0.9637  0.1084
   74MOL0     O10082   8.750   0.705   7.223 -0.1098 -0.4339 -0.0595
   74MOL0     C10083   8.772   0.845   7.210 -0.1318  0.2806  0.4744
   74MOL0     C10084   8.922   0.885   7.203  0.7378 -0.9147 -0.0027
   74MOL0     C10085   8.973   0.831   7.062  0.4686 -0.1432  0.7203
   74MOL0     C10086   9.121   0.840   7.033  0.2277  0.0594  0.2312
   74MOL0     C10087   9.208   0.749   7.122 -0.8967 -0.4101 -0.3055
   74MOL0     C10088   9.188   0.600   7.098 -0.0691  0.3717  0.2602
   74MOL0     C10089   9.290   0.517   7.166 -0.2086 -1.1585  0.2248
   74MOL0     C10090   9.268   0.368   7.167  0.0807 -0.0113 -0.4471
   74MOL0     N10091   9.140   0.320   7.220 -0.8876 -0.1608 -0.5802
   74MOL0     C10092   9.092   0.339   7.346 -0.3749  0.8852 -0.3437
   74MOL0     C10093   8.990   0.245   7.363 -0.0797 -0.3199 -0.3839
   74MOL0     C10094   8.906   0.218   7.483 -0.1866 -0.5072 -0.4412
   74MOL0     C10095   8.769   0.153   7.456 -0.1281  0.3530  0.5738
   74MOL0     C10096   8.661   0.246   7.391 -0.3555 -0.8282  0.3752
   74MOL0     C10097   8.534   0.160   7.370 -0.6160  0.4213 -0.4582
   74MOL0     O10098   8.558   0.041   7.293  0.0684  0.9354 -0.3189
   74MOL0     C10099   8.512   0.043   7.165  1.8354  0.2605 -0.0613
   74MOL0     C10100   8.592   0.072   7.050 -0.0522  0.6309 -0.4554
   74MOL0     C10101   8.536   0.083   6.924 -0.2688  0.1314  0.1320
   74MOL0     C10102   8.624   0.127   6.805 -0.6043  0.2380 -0.0367
   74MOL0     C10103   8.399   0.064   6.910  0.1494  0.0794 -0.4014
   74MOL0     C10104   8.329   0.066   6.776  0.0295 -0.1164 -0.2728
   74MOL0     O10105   8.398   0.020   6.674  0.1438 -0.0457  0.0060
   74MOL0     C10106   8.327  -0.012   6.560 -0.7055  0.0465 -0.9916
   74MOL0     C10107   8.247   0.089   6.496 -0.4170  0.2133  0.5133
   74MOL0     C10108   8.193   0.062   6.368  0.0988 -0.4250  0.6618
   74MOL0     C10109   8.208  -0.064   6.305 -0.8569  0.7392 -0.0258
   74MOL0     O10110   8.168  -0.088   6.178  0.1136 -0.2081  0.1149
   74MOL0     C10111   8.047  -0.034   6.124  0.9993 -0.6077 -0.4969
   74MOL0     C10112   7.915  -0.079   6.191 -0.7768  0.2904 -0.1613
   74MOL0     C10113   7.797  -0.043   6.100 -0.3439  0.4484 -0.1476
   74MOL0     C10114   7.692   0.054   6.162 -0.1990 -0.6078 -0.2190
   74MOL0     C10115   7.605  -0.002   6.272  0.1012  0.3576 -0.2276
   74MOL0     C10116   7.499   0.096   6.326 -0.4370  1.0998  0.3945
   74MOL0     C10117   7.386   0.013   6.387  1.0784  0.6440  0.2518
   74MOL0     C10118   7.255   0.089   6.388  0.7853  0.2492  1.0213
   74MOL0    Cl10119   7.104  -0.003   6.443 -0.1560 -0.0105  0.4370
   74MOL0     C10120   8.292  -0.160   6.374  0.5621 -0.4464  0.5602
   74MOL0     C10121   8.345  -0.133   6.500  0.2816  0.4484  0.7307
   74MOL0     O10122   8.211   0.090   6.779  0.2630 -0.0797 -0.1178
   74MOL0     C10123   8.321   0.023   7.016  0.3485 -0.5738 -1.0928
   74MOL0     C10124   8.379   0.011   7.144  0.0861  0.2547  0.5214
   74MOL0     N10125   8.972   0.188   7.240  0.1379 -0.4894 -0.6496
   74MOL0     N10126   9.055   0.236   7.153 -0.6196  0.2343  0.8886
   74MOL0     C10127   8.652   0.512   7.125  0.3304  0.2887 -0.5342
   74MOL0     C10128   8.542   0.439   7.064 -0.5016 -0.5680  0.3520
   74MOL0     C10129   8.112   0.305   7.067 -0.1880 -0.2459  0.4006
   74MOL0     C10130   8.047   0.315   6.942 -0.1569  1.1137 -0.8042
   74MOL0     C10131   7.923   0.252   6.917 -0.0243  0.0974 -0.0772
   74MOL0     C10132   7.862   0.180   7.019  0.0368  0.3835  0.6265
   74MOL0     O10133   7.736   0.127   6.998 -0.6682 -0.1863 -0.6819
   74MOL0     C10134   7.643   0.220   6.945 -0.7496  0.0272 -0.3618
   74MOL0     C10135   7.492   0.175   6.978  0.0317 -0.7466  0.2452
   74MOL0     C10136   7.392   0.276   6.925 -0.0080 -0.3336  0.4347
   74MOL0     C10137   7.255   0.229   6.977  0.7772 -0.1778  0.3033
   74MOL0     C10138   7.214   0.108   6.904  0.3822 -0.9574  0.5357
   74MOL0     C10139   7.202   0.001   6.844 -1.3250  0.4527  0.3170
   74MOL0     C10140   7.930   0.164   7.143  0.2435  0.9086  0.4275
   74MOL0     C10141   8.052   0.223   7.168  0.1932 -0.7909 -0.0235
   74MOL0     C10142   8.115   0.185   7.301  0.5731  0.1635 -0.2406
   74MOL0     H10143   8.334   0.687   7.020  2.0204 -0.3296 -1.4501
   74MOL0     H10144   8.516   0.817   7.133  2.3424  0.2708  1.1487
   74MOL0     H10145   8.707   0.893   7.284 -3.9618 -3.5373  0.0034
   74MOL0     H10146   8.727   0.880   7.116  1.0601  0.2181 -0.1361
   74MOL0     H10147   8.928   0.994   7.210  0.0399 -0.8143 -0.7643
   74MOL0     H10148   8.985   0.843   7.281  0.7046  0.0003  0.5243
   74MOL0     H10149   8.937   0.731   7.034 -0.0774  0.7896 -2.1991
   74MOL0     H10150   8.915   0.895   6.995 -1.5429  0.7637  3.1414
   74MOL0     H10151   9.133   0.809   6.928  0.2439 -2.8741  1.0026
   74MOL0     H10152   9.148   0.946   7.042 -2.2177  0.8021 -0.4404
   74MOL0     H10153   9.199   0.776   7.228  0.2017  2.8257 -0.8922
   74MOL0     H10154   9.312   0.765   7.093 -1.2838  2.1733 -0.5182
   74MOL0     H10155   9.084   0.573   7.120 -0.3244 -1.5416 -2.6823
   74MOL0     H10156   9.193   0.582   6.990 -0.9249  0.9385  0.1159
   74MOL0     H10157   9.300   0.549   7.271 -0.3524  1.5866 -0.5148
   74MOL0     H10158   9.386   0.546   7.121 -0.0758 -1.6782  0.1712
   74MOL0     H10159   9.277   0.333   7.064  4.6700 -1.5628  0.2162
   74MOL0     H10160   9.349   0.325   7.227 -0.6276  0.9873  1.2990
   74MOL0     H10161   9.130   0.389   7.435 -2.6268 -0.5331  1.5567
   74MOL0     H10162   8.906   0.306   7.548 -2.6529 -0.4880 -0.3752
   74MOL0     H10163   8.966   0.146   7.540 -1.7125 -2.0806 -0.7726
   74MOL0     H10164   8.777   0.065   7.391 -2.4693 -0.3509  1.1464
   74MOL0     H10165   8.734   0.130   7.557  0.9991 -1.2305  0.6431
   74MOL0     H10166   8.626   0.328   7.455 -0.6460 -1.0808  0.5421
   74MOL0     H10167   8.700   0.296   7.302  0.1690 -0.5232  0.7700
   74MOL0     H10168   8.487   0.130   7.465  1.4174 -1.4642  0.0442
   74MOL0     H10169   8.457   0.218   7.319 -1.4231 -0.4017 -0.2140
   74MOL0     H10170   8.700   0.075   7.059  0.1695 -3.9742  1.2745
   74MOL0     H10171   8.674   0.038   6.767  0.6072  0.8984 -0.0495
   74MOL0     H10172   8.696   0.203   6.838  0.0713  0.5953 -2.1686
   74MOL0     H10173   8.580   0.179   6.719 -0.2635  2.6123  1.1387
   74MOL0     H10174   8.218   0.180   6.548 -2.2954 -0.0472 -0.0123
   74MOL0     H10175   8.130   0.138   6.323  1.3828 -0.7432 -1.8721
   74MOL0     H10176   8.060   0.074   6.124 -1.7161 -0.2129  0.5811
   74MOL0     H10177   8.043  -0.076   6.023  1.6723 -2.1011  0.0661
   74MOL0     H10178   7.930  -0.188   6.193 -0.8670  0.2071  3.8250
   74MOL0     H10179   7.910  -0.048   6.296  2.2497 -4.2848  1.6737
   74MOL0     H10180   7.752  -0.136   6.064 -2.7452 -0.3282  4.1739
   74MOL0     H10181   7.846   0.016   6.022  0.3388  0.9355  0.6372
   74MOL0     H10182   7.640   0.100   6.078 -0.9785 -0.9786  0.0415
   74MOL0     H10183   7.759   0.125   6.212  0.9046 -0.4671 -1.8412
   74MOL0     H10184   7.549  -0.089   6.236  0.2796 -1.2285  2.9912
   74MOL0     H10185   7.662  -0.046   6.354 -0.6448  0.8881  0.6024
   74MOL0     H10186   7.469   0.153   6.238  2.0712  0.4400 -0.9898
   74MOL0     H10187   7.552   0.151   6.404  3.4920 -2.6770  0.7528
   74MOL0     H10188   7.418  -0.016   6.487 -1.6522  0.0926  1.0645
   74MOL0     H10189   7.354  -0.078   6.334  1.7982  0.4002  0.2278
   74MOL0     H10190   7.245   0.116   6.282  0.4046 -0.8759  0.7515
   74MOL0     H10191   7.271   0.179   6.447  1.3236 -0.5682  2.1499
   74MOL0     H10192   8.311  -0.253   6.322  1.2378 -0.1013  0.1858
   74MOL0     H10193   8.404  -0.212   6.546  1.5849  0.2610 -1.1256
   74MOL0     H10194   8.221  -0.009   6.988  0.2832  1.5967 -3.7895
   74MOL0     H10195   8.312  -0.009   7.228 -0.1168  0.0729  0.3185
   74MOL0     H10196   8.742   0.453   7.140  0.5974  0.5233 -1.1901
   74MOL0     H10197   8.570   0.337   7.037  1.2688  0.0383 -0.2726
   74MOL0     H10198   8.097   0.371   6.864  1.0025  2.5305  0.8812
   74MOL0     H10199   7.880   0.258   6.817  0.7575 -0.3892 -0.4580
   74MOL0     H10200   7.659   0.318   6.990 -0.0024 -0.1830 -0.1433
   74MOL0     H10201   7.652   0.229   6.836  2.6085 -0.4042 -0.2521
   74MOL0     H10202   7.476   0.144   7.082 -1.9351 -2.7923 -0.5959
   74MOL0     H10203   7.482   0.088   6.913 -1.1167  0.0143 -0.6214
   74MOL0     H10204   7.418   0.378   6.954 -1.8268 -0.0188  1.1298
   74MOL0     H10205   7.400   0.272   6.816 -1.8336 -0.7027  0.2826
   74MOL0     H10206   7.175   0.299   6.954 -0.8181 -2.1252 -0.4005
   74MOL0     H10207   7.251   0.209   7.085 -1.3073  1.0960  0.5123
   74MOL0     H10208   7.189  -0.094   6.796 -2.1242  1.2257 -1.0667
   74MOL0     H10209   7.887   0.092   7.212  1.3847 -0.7118 -0.4806
   74MOL0     H10210   8.063   0.255   7.367  0.2121 -1.5243  1.3403
   74MOL0     H10211   8.104   0.077   7.319  0.5578 -0.1328 -1.8340
   74MOL0     H10212   8.223   0.200   7.301  1.2706 -3.7679 -0.7279
   75MOL0     O10213   0.362   0.477   6.012  0.5010 -0.0161 -0.2631
   75MOL0     C10214   0.374   0.601   6.007  0.2077 -0.0139  0.5017
   75MOL0     O10215   0.451   0.665   5.917 -0.1442  0.9209  0.0127
   75MOL0     C10216   0.527   0.584   5.837  0.0561 -0.0256  0.1295
   75MOL0     C10217   0.472   0.536   5.717  0.5258  0.7499  0.0604
   75MOL0     C10218   0.548   0.441   5.650  0.0870 -0.2664 -0.2360
   75MOL0     C10219   0.673   0.405   5.692 -0.1082 -0.2232 -0.0693
   75MOL0     O10220   0.753   0.308   5.631 -0.1739  0.2212  0.0186
   75MOL0     C10221   0.701   0.233   5.519  0.7909  0.3347  0.4247
   75MOL0     C10222   0.814   0.178   5.430  0.2258 -0.2522  1.2192
   75MOL0     C10223   0.908   0.097   5.508  0.5675  0.2641 -0.1138
   75MOL0     C10224   1.014   0.028   5.420 -0.1739 -0.4351 -0.3785
   75MOL0     C10225   1.104   0.122   5.346  0.3809 -0.7192 -0.4502
   75MOL0     C10226   1.208   0.048   5.263 -0.1323 -0.1325 -0.3132
   75MOL0     C10227   1.277   0.155   5.179  0.2044 -0.2557 -0.3811
   75MOL0     C10228   1.424   0.100   5.133  0.8992  0.1313  0.4649
   75MOL0     N10229   1.521   0.105   5.246  0.2377 -0.0660  0.2743
   75MOL0     C10230   1.535   0.203   5.347  0.6434  0.1229  0.2286
   75MOL0     C10231   1.652   0.154   5.405 -0.2810 -0.8392  0.3488
   75MOL0     C10232   1.726   0.210   5.528  0.0020 -0.6098  0.1975
   75MOL0     C10233   1.876   0.239   5.509  0.8036  0.0832  0.9419
   75MOL0     C10234   1.900   0.369   5.428  0.4921 -0.6093  0.3375
   75MOL0     C10235   2.052   0.360   5.397  0.0868 -0.8073  0.3348
   75MOL0     O10236   2.090   0.248   5.311 -0.1297  0.7291 -0.1550
   75MOL0     C10237   2.221   0.217   5.277 -0.5700 -0.7361  0.6826
   75MOL0     C10238   2.237   0.102   5.201  0.4673 -0.9621  0.4571
   75MOL0     C10239   2.358   0.043   5.174  0.6940  0.0638 -0.4575
   75MOL0     C10240   2.351  -0.070   5.085 -0.6143  1.3966 -0.4650
   75MOL0     C10241   2.476   0.102   5.224 -1.2598 -0.1748  0.9380
   75MOL0     C10242   2.608   0.039   5.201  0.4470 -0.1422  0.1083
   75MOL0     O10243   2.614  -0.098   5.179 -0.3149  0.4843  0.4183
   75MOL0     C10244   2.733  -0.164   5.160  1.2433  0.6513 -0.3597
   75MOL0     C10245   2.824  -0.175   5.263  0.6244 -0.9617  0.3467
   75MOL0     C10246   2.946  -0.243   5.249 -0.7265  0.1731 -0.4682
   75MOL0     C10247   2.971  -0.311   5.129 -0.3725  0.6218 -0.6083
   75MOL0     O10248   3.094  -0.364   5.097 -0.3268 -0.5437  0.2800
   75MOL0     C10249   3.148  -0.463   5.186 -0.2794 -1.0332 -0.1457
   75MOL0     C10250   3.114  -0.595   5.124 -0.2435 -0.4922  0.5720
   75MOL0     C10251   2.965  -0.640   5.126  0.2695 -0.0434  0.0364
   75MOL0     C10252   2.951  -0.787   5.057  0.0188 -0.3002  0.1506
   75MOL0     C10253   2.800  -0.825   5.059  0.6762 -0.6056  0.0738
   75MOL0     C10254   2.759  -0.953   4.984  0.8314  0.6706  0.2561
   75MOL0     C10255   2.614  -0.986   4.987  0.4562 -0.5121 -0.2309
   75MOL0     C10256   2.581  -1.076   4.865 -0.1604 -0.1979  0.0684
   75MOL0    Cl10257   2.409  -1.076   4.876  0.0861 -0.2722  0.3190
   75MOL0     C10258   2.886  -0.294   5.026  0.4090 -0.0467 -0.5930
   75MOL0     C10259   2.769  -0.216   5.040 -0.5124  0.0708 -0.3674
   75MOL0     O10260   2.708   0.110   5.209 -0.5775  0.3095  0.1860
   75MOL0     C10261   2.459   0.226   5.287 -1.3621  0.7294  0.2810
   75MOL0     C10262   2.335   0.286   5.312 -0.4155  0.0090 -0.5304
   75MOL0     N10263   1.701   0.046   5.342  0.4242  0.7329  1.1490
   75MOL0     N10264   1.624   0.017   5.245 -0.2430  0.2657 -0.2388
   75MOL0     C10265   0.731   0.464   5.802 -0.7609 -0.5144 -0.8569
   75MOL0     C10266   0.660   0.557   5.878  0.4941  0.9437 -0.0668
   75MOL0     C10267   0.323   0.674   6.124  0.8304  0.2969 -1.0652
   75MOL0     C10268   0.396   0.795   6.173  0.0347  0.9050  0.5690
   75MOL0     C10269   0.358   0.852   6.297 -0.4879  0.9200  0.4561
   75MOL0     C10270   0.258   0.795   6.371  0.6075 -0.4374 -0.7018
   75MOL0     O10271   0.204   0.854   6.488  0.2321 -0.5584 -0.0377
   75MOL0     C10272   0.233   0.989   6.515 -0.9823 -0.4573  0.5853
   75MOL0     C10273   0.129   1.080   6.442 -0.3083  0.1247 -0.1972
   75MOL0     C10274   0.150   1.094   6.289 -0.0371  0.2903  0.1775
   75MOL0     C10275   0.044   1.191   6.238 -0.2509  0.1678  0.4183
   75MOL0     C10276   0.056   1.187   6.087 -0.0896  0.5578  0.5210
   75MOL0     C10277   0.074   1.179   5.967  0.5696  0.5962 -1.1000
   75MOL0     C10278   0.187   0.689   6.322  0.0173 -0.5332 -0.5408
   75MOL0     C10279   0.210   0.629   6.204 -0.4128  0.1706  0.3692
   75MOL0     C10280   0.138   0.503   6.163 -0.2693  0.3524  0.0105
   75MOL0     H10281   0.374   0.566   5.683 -0.8877 -2.6688  0.6551
   75MOL0     H10282   0.498   0.390   5.568  0.2565 -0.7722 -0.0237
   75MOL0     H10283   0.634   0.295   5.458  0.6179 -0.9920 -0.7942
   75MOL0     H10284   0.645   0.145   5.551  1.1734 -0.5614 -1.2823
   75MOL0     H10285   0.775   0.115   5.350 -0.7623 -0.7753  2.0947
   75MOL0     H10286   0.871   0.251   5.371  1.6841 -2.4427 -0.2196
   75MOL0     H10287   0.970   0.162   5.571 -1.4501  1.8061  0.3568
   75MOL0     H10288   0.858   0.025   5.572  2.5866 -1.2785 -0.1699
   75MOL0     H10289   1.087  -0.023   5.483  0.7224  0.3050 -0.7930
   75MOL0     H10290   0.973  -0.038   5.342  1.7107 -0.9261 -1.0119
   75MOL0     H10291   1.147   0.193   5.417  1.3988 -1.7004 -0.0579
   75MOL0     H10292   1.033   0.166   5.275 -1.3775  0.3497  1.8439
   75MOL0     H10293   1.282   0.002   5.330  1.7400  0.3383 -1.9645
   75MOL0     H10294   1.164  -0.034   5.206  1.5876 -1.8547  0.6933
   75MOL0     H10295   1.284   0.247   5.239  0.1606 -0.2545 -0.3774
   75MOL0     H10296   1.207   0.177   5.097  1.1221  1.1246 -0.8302
   75MOL0     H10297   1.408  -0.001   5.094  0.4171  1.5062 -3.2778
   75MOL0     H10298   1.468   0.155   5.049  0.6817 -1.1318 -0.4923
   75MOL0     H10299   1.468   0.284   5.375  1.9951  1.4924 -0.3895
   75MOL0     H10300   1.707   0.145   5.614  1.3779  0.3723  1.2996
   75MOL0     H10301   1.677   0.306   5.548 -0.9132 -0.6711 -1.5622
   75MOL0     H10302   1.924   0.233   5.606  1.6173 -4.2310  0.4626
   75MOL0     H10303   1.905   0.150   5.452 -0.7696 -1.6206  2.6744
   75MOL0     H10304   1.838   0.382   5.339  2.5655  2.9843 -0.7872
   75MOL0     H10305   1.872   0.451   5.495 -1.6303  0.7706 -2.0367
   75MOL0     H10306   2.081   0.449   5.341 -1.6425 -1.4915 -1.8041
   75MOL0     H10307   2.105   0.359   5.492 -0.4196  1.0712  0.6742
   75MOL0     H10308   2.140   0.065   5.170 -1.4636  1.5656  2.9011
   75MOL0     H10309   2.433  -0.054   5.014  0.4041  1.6752  0.7308
   75MOL0     H10310   2.257  -0.083   5.030  0.3251 -1.8027 -1.5857
   75MOL0     H10311   2.371  -0.159   5.146 -0.9495  1.6758  0.0535
   75MOL0     H10312   2.801  -0.119   5.353  0.7968  0.4142 -0.4471
   75MOL0     H10313   3.016  -0.244   5.331 -1.3558 -1.1005  0.0807
   75MOL0     H10314   3.256  -0.449   5.189 -0.0914  2.1713 -6.2081
   75MOL0     H10315   3.116  -0.449   5.290  1.2604  2.4101  0.0003
   75MOL0     H10316   3.158  -0.594   5.024  1.1334 -0.8118  1.1424
   75MOL0     H10317   3.163  -0.677   5.178 -1.2630 -1.8062 -0.4183
   75MOL0     H10318   2.913  -0.561   5.071  0.1912  0.3127  0.6228
   75MOL0     H10319   2.925  -0.639   5.228  0.9546 -0.1337  0.3094
   75MOL0     H10320   3.009  -0.865   5.106 -0.9526 -3.0672 -2.7822
   75MOL0     H10321   2.991  -0.779   4.955 -0.6783  0.2920 -0.0889
   75MOL0     H10322   2.758  -0.836   5.160 -2.8892  1.6333 -0.9923
   75MOL0     H10323   2.745  -0.743   5.013 -1.8850 -2.0604  0.3324
   75MOL0     H10324   2.816  -1.037   5.023 -0.1074  0.1913  0.6144
   75MOL0     H10325   2.790  -0.936   4.880 -1.7728  3.0820 -0.2440
   75MOL0     H10326   2.554  -0.895   4.979 -0.2991 -0.8562  1.1907
   75MOL0     H10327   2.581  -1.029   5.083 -1.0784 -0.1771 -0.5726
   75MOL0     H10328   2.631  -1.171   4.885  3.7671  2.1054  2.4154
   75MOL0     H10329   2.613  -1.026   4.773 -1.4167  0.9557  0.2226
   75MOL0     H10330   2.911  -0.332   4.928  1.9738  0.0643 -0.2508
   75MOL0     H10331   2.695  -0.202   4.961 -1.7568  0.5798  0.8445
   75MOL0     H10332   2.555   0.269   5.316 -0.2487 -2.1909  1.2543
   75MOL0     H10333   2.338   0.376   5.373 -1.2442  0.8395 -1.6683
   75MOL0     H10334   0.825   0.437   5.848 -1.0042 -3.0450 -1.6914
   75MOL0     H10335   0.704   0.601   5.967  2.1288  0.4818 -0.6096
   75MOL0     H10336   0.487   0.832   6.128  0.1440 -1.9644 -1.8662
   75MOL0     H10337   0.414   0.943   6.316 -0.0236  0.5182  1.0580
   75MOL0     H10338   0.239   0.996   6.624 -1.0104 -0.5698  0.5943
   75MOL0     H10339   0.334   1.019   6.485 -0.9377 -0.1168  1.0733
   75MOL0     H10340   0.120   1.170   6.504  0.5560  0.4252 -0.4903
   75MOL0     H10341   0.036   1.022   6.439 -0.4881  0.3306  0.8969
   75MOL0     H10342   0.249   1.135   6.269  1.4500 -3.1473 -0.1509
   75MOL0     H10343   0.158   1.001   6.233  2.2986  1.8811 -2.3885
   75MOL0     H10344   0.048   1.296   6.270 -2.3759  1.1130 -2.0314
   75MOL0     H10345  -0.056   1.155   6.264  0.6999 -2.2894  0.9188
   75MOL0     H10346   0.094   1.189   5.862  2.8429  2.9752 -0.5452
   75MOL0     H10347   0.115   0.657   6.397  2.7780 -0.6940  2.3064
   75MOL0     H10348   0.043   0.507   6.217  0.4717 -0.3730  1.4321
   75MOL0     H10349   0.118   0.496   6.055 -0.1358 -0.2905  0.0188
   75MOL0     H10350   0.185   0.406   6.187 -3.2969 -0.9494  1.0944
   76MOL0     O10351   2.105   6.492   2.719 -0.2170  1.0423  0.0943
   76MOL0     C10352   2.079   6.605   2.688  0.1839 -0.1413  0.1192
   76MOL0     O10353   2.168   6.698   2.646 -0.2012 -0.6866  0.6258
   76MOL0     C10354   2.305   6.685   2.647 -0.2788 -0.0748 -0.1202
   76MOL0     C10355   2.392   6.762   2.559  0.6449 -0.0824 -0.5218
   76MOL0     C10356   2.528   6.740   2.553 -0.5031 -0.4776 -0.2313
   76MOL0     C10357   2.585   6.638   2.632 -0.6956  0.2474  0.1440
   76MOL0     O10358   2.717   6.622   2.626 -0.7239  0.0733 -0.0007
   76MOL0     C10359   2.778   6.509   2.700 -0.2794  0.0342 -0.1943
   76MOL0     C10360   2.924   6.472   2.660 -0.2103  0.0513 -0.8192
   76MOL0     C10361   3.016   6.581   2.705  0.5343 -0.1825 -0.1541
   76MOL0     C10362   3.157   6.545   2.674 -1.3312  0.1233 -0.8073
   76MOL0     C10363   3.247   6.626   2.759  0.2500  0.2722 -0.9403
   76MOL0     C10364   3.382   6.628   2.681 -0.3379 -0.1692 -0.7352
   76MOL0     C10365   3.499   6.692   2.770  0.8025 -0.4711 -0.5477
   76MOL0     C10366   3.553   6.608   2.878  0.1097 -0.3055 -0.1027
   76MOL0     N10367   3.674   6.653   2.943  1.1440  0.0389  0.1541
   76MOL0     C10368   3.687   6.780   3.009 -0.0834  0.1863 -0.6522
   76MOL0     C10369   3.818   6.778   3.061  1.4586  0.3759  0.0814
   76MOL0     C10370   3.880   6.877   3.157  0.3662 -0.1175 -0.4316
   76MOL0     C10371   4.017   6.922   3.100 -0.5657  0.5829  0.2553
   76MOL0     C10372   3.994   7.026   2.993  0.1553  0.1037  0.0431
   76MOL0     C10373   4.125   7.068   2.932  0.0214  0.6356 -0.2493
   76MOL0     O10374   4.233   7.102   3.019 -0.5721  0.5013  0.2449
   76MOL0     C10375   4.359   7.104   2.963 -0.3972 -0.4811  0.2478
   76MOL0     C10376   4.459   7.095   3.056  0.0978 -0.1541  0.4747
   76MOL0     C10377   4.593   7.087   3.025 -0.6310  0.7763 -0.1253
   76MOL0     C10378   4.695   7.092   3.129  0.6845  0.4626 -0.4594
   76MOL0     C10379   4.631   7.093   2.884 -0.0371 -0.0723 -1.0051
   76MOL0     C10380   4.776   7.099   2.843 -0.9460 -0.1159  0.0167
   76MOL0     O10381   4.805   7.109   2.706 -0.2484 -0.5183  0.7361
   76MOL0     C10382   4.938   7.091   2.672  0.5743 -0.9262 -0.0266
   76MOL0     C10383   5.006   6.972   2.694 -0.2584 -0.2070 -0.0558
   76MOL0     C10384   5.135   6.951   2.649 -0.1890  0.4651  0.5978
   76MOL0     C10385   5.201   7.054   2.577 -0.4438 -0.3241 -0.1644
   76MOL0     O10386   5.333   7.047   2.547  0.0465 -0.2771  0.0274
   76MOL0     C10387   5.382   6.915   2.501  0.5925  0.5700 -0.3237
   76MOL0     C10388   5.477   6.870   2.605  0.3497 -0.1737  0.5387
   76MOL0     C10389   5.543   6.736   2.564 -0.7167  0.1259  0.1835
   76MOL0     C10390   5.654   6.690   2.663 -0.1663 -0.0844  0.3519
   76MOL0     C10391   5.734   6.585   2.588  0.2764 -0.0020  0.4956
   76MOL0     C10392   5.836   6.526   2.684 -0.1918 -0.2898  0.6322
   76MOL0     C10393   5.947   6.631   2.710  0.3317 -0.6069 -0.0262
   76MOL0     C10394   6.082   6.580   2.740 -0.5620  1.0749  0.8545
   76MOL0    Cl10395   6.184   6.722   2.777  0.0530 -0.2390 -0.4149
   76MOL0     C10396   5.134   7.175   2.561  0.1733  0.3631  0.1731
   76MOL0     C10397   5.001   7.197   2.608 -0.0924  0.6401 -0.5302
   76MOL0     O10398   4.861   7.100   2.930 -0.0239 -0.0864  0.0012
   76MOL0     C10399   4.529   7.117   2.791  0.0616 -0.0478  0.1945
   76MOL0     C10400   4.389   7.126   2.823 -0.3118  0.5848  0.1816
   76MOL0     N10401   3.869   6.654   3.029  0.4889  0.3776  0.0347
   76MOL0     N10402   3.785   6.579   2.952 -0.2119  0.0799  1.0649
   76MOL0     C10403   2.502   6.569   2.723  0.3589  0.1839  0.6660
   76MOL0     C10404   2.364   6.592   2.731 -0.0767  0.3367 -1.3243
   76MOL0     C10405   1.946   6.670   2.682  0.1159  0.0910  0.1053
   76MOL0     C10406   1.929   6.805   2.675 -0.8368 -0.3893  0.3116
   76MOL0     C10407   1.803   6.859   2.675  0.0732  0.2479  0.1798
   76MOL0     C10408   1.681   6.784   2.685  0.0005 -0.1371  0.1519
   76MOL0     O10409   1.562   6.847   2.689  0.0213 -0.3495 -0.3269
   76MOL0     C10410   1.495   6.831   2.564  0.9520  0.5082  0.2438
   76MOL0     C10411   1.346   6.795   2.589 -0.5565 -0.8787  0.6806
   76MOL0     C10412   1.259   6.901   2.664  0.1810  0.6755 -0.6547
   76MOL0     C10413   1.207   7.022   2.575  0.1105  0.3301 -0.7708
   76MOL0     C10414   1.066   6.991   2.568  0.0420  0.2662 -0.0964
   76MOL0     C10415   0.952   6.960   2.553 -0.5982  0.3329 -0.0467
   76MOL0     C10416   1.703   6.650   2.706  0.2983  1.1635  0.0577
   76MOL0     C10417   1.831   6.590   2.700 -0.6027 -0.1614  0.4533
   76MOL0     C10418   1.838   6.442   2.711 -0.8189  0.6289  0.3116
   76MOL0     H10419   2.350   6.841   2.498  0.2442  1.3405  1.4782
   76MOL0     H10420   2.590   6.785   2.476 -1.7127  1.5185 -0.1059
   76MOL0     H10421   2.723   6.417   2.679  0.6456 -0.7203  0.5974
   76MOL0     H10422   2.773   6.521   2.808  1.3958 -3.2450  0.3746
   76MOL0     H10423   2.944   6.368   2.687 -2.8091 -0.9747 -2.4348
   76MOL0     H10424   2.924   6.468   2.550  0.2204 -3.2370 -0.8118
   76MOL0     H10425   2.985   6.673   2.654  2.2953  0.2503 -0.4901
   76MOL0     H10426   3.004   6.598   2.813 -1.6144  1.0611 -0.5150
   76MOL0     H10427   3.173   6.439   2.695 -2.6437 -0.0360 -0.5647
   76MOL0     H10428   3.187   6.559   2.570  1.9293  1.5804  0.1730
   76MOL0     H10429   3.263   6.590   2.861  0.0770  1.2124 -0.5664
   76MOL0     H10430   3.212   6.730   2.766  2.0518  1.1016 -2.9400
   76MOL0     H10431   3.415   6.532   2.639  0.4791  1.0171 -2.9632
   76MOL0     H10432   3.357   6.689   2.594 -0.4044  1.3283  0.3072
   76MOL0     H10433   3.449   6.781   2.811  2.0107 -0.5078  1.1117
   76MOL0     H10434   3.573   6.737   2.703 -0.0950 -0.8185 -1.8091
   76MOL0     H10435   3.490   6.593   2.967  0.6163 -1.7760  0.0331
   76MOL0     H10436   3.566   6.505   2.844  1.0567 -0.3610  0.4047
   76MOL0     H10437   3.609   6.854   3.021  2.1258  2.5228  0.1641
   76MOL0     H10438   3.883   6.829   3.255 -2.0843  2.8419  1.2569
   76MOL0     H10439   3.816   6.964   3.168 -1.8073 -1.6505 -0.2338
   76MOL0     H10440   4.076   6.974   3.176  0.5542  0.6833 -0.6635
   76MOL0     H10441   4.086   6.841   3.074 -1.0146  0.1799  0.3004
   76MOL0     H10442   3.938   6.973   2.915  0.5330 -4.0675  2.3117
   76MOL0     H10443   3.942   7.111   3.037 -0.0648  0.7882 -1.4777
   76MOL0     H10444   4.151   6.981   2.871  0.3806  1.1895 -0.8965
   76MOL0     H10445   4.095   7.142   2.858 -2.2922 -0.6098 -0.6603
   76MOL0     H10446   4.426   7.083   3.158  1.1252  4.7697  1.6522
   76MOL0     H10447   4.747   7.188   3.127  1.3580  0.2346  2.2668
   76MOL0     H10448   4.763   7.006   3.124 -2.7234 -2.4453 -1.4495
   76MOL0     H10449   4.651   7.060   3.224 -0.7838 -0.9227 -1.5545
   76MOL0     H10450   4.953   6.884   2.729  0.0693 -0.5731 -0.4537
   76MOL0     H10451   5.182   6.859   2.682 -1.0759  0.3198  1.5193
   76MOL0     H10452   5.301   6.842   2.492 -1.2886  2.2445  1.6746
   76MOL0     H10453   5.435   6.925   2.406 -0.1574  0.6357 -0.7459
   76MOL0     H10454   5.554   6.947   2.615 -1.3715  1.6206  0.6314
   76MOL0     H10455   5.422   6.865   2.700  0.9293  0.2097  0.9042
   76MOL0     H10456   5.579   6.736   2.461 -1.5825 -1.6178 -0.1666
   76MOL0     H10457   5.457   6.668   2.565 -0.1595 -0.6309 -0.9052
   76MOL0     H10458   5.612   6.647   2.755 -0.2142 -3.0239 -0.9390
   76MOL0     H10459   5.710   6.782   2.680 -1.8525  1.3645 -1.5401
   76MOL0     H10460   5.675   6.499   2.554 -1.3756  1.9709 -1.9599
   76MOL0     H10461   5.788   6.634   2.506  1.0069  0.0228  0.9801
   76MOL0     H10462   5.865   6.428   2.642 -1.2919  0.3208 -1.7136
   76MOL0     H10463   5.787   6.500   2.778 -1.5145 -2.6610 -0.5929
   76MOL0     H10464   5.925   6.692   2.799  1.3028  1.3688 -1.0876
   76MOL0     H10465   5.942   6.705   2.630 -0.7970  0.0453  0.6118
   76MOL0     H10466   6.126   6.513   2.665  0.7550 -1.0782  3.3473
   76MOL0     H10467   6.073   6.509   2.824 -1.7578  0.7265  0.4533
   76MOL0     H10468   5.179   7.258   2.509  1.2455 -0.0698  0.3822
   76MOL0     H10469   4.946   7.289   2.587 -1.8478 -0.6622 -2.0083
   76MOL0     H10470   4.566   7.150   2.694  3.6735 -0.7262  1.1624
   76MOL0     H10471   4.312   7.133   2.748  0.7135 -1.8063 -1.2181
   76MOL0     H10472   2.545   6.492   2.786  2.0928  0.6461  0.0993
   76MOL0     H10473   2.313   6.530   2.805 -2.6290  2.5308 -1.0914
   76MOL0     H10474   2.015   6.871   2.673 -1.7525  0.8612 -2.2107
   76MOL0     H10475   1.816   6.967   2.677  0.4835  0.2611 -1.5848
   76MOL0     H10476   1.505   6.931   2.520 -0.7561 -0.1164 -1.7097
   76MOL0     H10477   1.546   6.756   2.503 -1.0173 -0.0035 -0.8583
   76MOL0     H10478   1.342   6.694   2.629 -0.7072 -1.7332 -1.3761
   76MOL0     H10479   1.296   6.790   2.491 -2.2763 -1.0474  1.5332
   76MOL0     H10480   1.176   6.841   2.705  1.4777 -1.0413 -0.4492
   76MOL0     H10481   1.303   6.947   2.753  0.0006  3.5871 -1.9372
   76MOL0     H10482   1.249   7.022   2.474  1.9963  2.0063 -0.0413
   76MOL0     H10483   1.229   7.119   2.620 -2.7897  1.4677 -1.5355
   76MOL0     H10484   0.854   6.930   2.522 -1.2768  0.8998  1.4694
   76MOL0     H10485   1.621   6.580   2.712  0.9601  0.3976  0.4092
   76MOL0     H10486   1.737   6.401   2.708 -0.9556  1.0010 -0.7681
   76MOL0     H10487   1.895   6.400   2.627  2.8079  1.1524  2.2665
   76MOL0     H10488   1.887   6.419   2.806  0.9023 -0.6896 -0.8273
   77MOL0     O10489   5.748  11.401  10.386 -0.4720  0.0055 -0.4215
   77MOL0     C10490   5.688  11.295  10.344  0.5689  0.1496  0.5201
   77MOL0     O10491   5.751  11.168  10.321  0.4276 -0.0196 -0.2253
   77MOL0     C10492   5.871  11.166  10.386 -0.3920 -0.3414 -0.7672
   77MOL0     C10493   5.988  11.206  10.321 -0.2451  0.4404 -0.8539
   77MOL0     C10494   6.096  11.213  10.402 -0.2694  0.3307 -0.3761
   77MOL0     C10495   6.093  11.173  10.540  0.2934  0.4903 -0.1474
   77MOL0     O10496   6.205  11.184  10.619  0.0487 -0.3102 -0.4756
   77MOL0     C10497   6.333  11.243  10.578 -0.5382  0.2084 -0.6805
   77MOL0     C10498   6.340  11.388  10.618 -0.6814 -0.0574 -0.5351
   77MOL0     C10499   6.374  11.424  10.760  0.1733 -0.0751  0.2352
   77MOL0     C10500   6.501  11.369  10.825  0.0615 -0.1113 -0.6576
   77MOL0     C10501   6.529  11.452  10.954  0.0920  0.2030 -0.1188
   77MOL0     C10502   6.414  11.453  11.059  0.1595 -0.1942  0.5100
   77MOL0     C10503   6.457  11.526  11.184 -0.8542 -0.3468 -0.2247
   77MOL0     C10504   6.352  11.552  11.294 -0.1193 -0.5378 -0.3664
   77MOL0     N10505   6.291  11.419  11.337  1.0794  0.2707  0.8945
   77MOL0     C10506   6.362  11.335  11.409  0.2674 -0.0032 -0.4838
   77MOL0     C10507   6.290  11.223  11.425 -0.4596  0.5187 -0.2811
   77MOL0     C10508   6.336  11.099  11.485  0.2731  0.1924 -0.2959
   77MOL0     C10509   6.298  11.098  11.635 -0.7048 -0.3997  0.1790
   77MOL0     C10510   6.383  11.199  11.719 -0.6265  0.3004  0.6218
   77MOL0     C10511   6.537  11.197  11.689  0.2401 -0.3533  0.0760
   77MOL0     O10512   6.601  11.066  11.684  0.5965  0.1014 -0.3416
   77MOL0     C10513   6.710  11.057  11.596  0.2227 -0.8493  0.2629
   77MOL0     C10514   6.819  11.143  11.595 -0.4684 -0.2485 -0.9298
   77MOL0     C10515   6.931  11.117  11.524  0.4336  0.0538 -0.3443
   77MOL0     C10516   7.032  11.233  11.532 -0.3137 -0.3798 -0.9371
   77MOL0     C10517   6.936  11.011  11.439  0.1190 -0.0986  0.6919
   77MOL0     C10518   7.045  10.977  11.360 -0.0011  0.6187  0.3257
   77MOL0     O10519   7.165  11.003  11.415 -0.5100  0.4529 -0.6297
   77MOL0     C10520   7.292  10.990  11.352  0.8130  0.4035  0.4454
   77MOL0     C10521   7.330  10.899  11.259 -0.4520 -0.2987 -1.1337
   77MOL0     C10522   7.454  10.905  11.196 -1.2000  0.0959  0.4133
   77MOL0     C10523   7.544  11.015  11.220  0.5830 -0.0872 -0.2083
   77MOL0     O10524   7.660  11.015  11.153  0.0432 -0.2502  0.2172
   77MOL0     C10525   7.741  11.131  11.147 -0.0197  0.0378  0.0231
   77MOL0     C10526   7.851  11.095  11.044 -1.2308  0.1578  0.0013
   77MOL0     C10527   7.971  11.037  11.111 -1.1216  0.1638 -1.1383
   77MOL0     C10528   8.095  11.034  11.017  0.1330  0.1331 -0.6408
   77MOL0     C10529   8.214  10.991  11.112  0.2146 -0.4616  0.2638
   77MOL0     C10530   8.340  10.948  11.038  0.8082  0.3691  0.9399
   77MOL0     C10531   8.445  10.868  11.123  0.7503  0.1602  0.1676
   77MOL0     C10532   8.569  10.837  11.046  0.4590 -0.3364  0.3872
   77MOL0    Cl10533   8.636  10.678  11.103 -0.1559  0.2427  0.4566
   77MOL0     C10534   7.503  11.116  11.306  0.1761  1.6618 -0.1108
   77MOL0     C10535   7.376  11.101  11.361  0.2372  0.2444  0.1023
   77MOL0     O10536   7.032  10.947  11.247  0.2188  0.7082 -0.1221
   77MOL0     C10537   6.821  10.930  11.423 -0.3896  0.0733 -0.4333
   77MOL0     C10538   6.712  10.949  11.509 -0.2877 -0.4179  0.4145
   77MOL0     N10539   6.169  11.247  11.364 -0.0527 -0.4856 -1.1526
   77MOL0     N10540   6.170  11.362  11.306 -0.7423 -0.7040  0.9203
   77MOL0     C10541   5.979  11.123  10.595 -0.4438 -0.8747 -0.2122
   77MOL0     C10542   5.867  11.121  10.514 -0.0305  0.5238  0.1632
   77MOL0     C10543   5.540  11.305  10.311  0.3279 -0.2003 -0.2103
   77MOL0     C10544   5.471  11.408  10.372 -0.3330 -0.2439 -0.1690
   77MOL0     C10545   5.329  11.414  10.355 -0.7271 -0.2053 -0.7601
   77MOL0     C10546   5.263  11.329  10.270  0.1731 -0.5968  0.0154
   77MOL0     O10547   5.132  11.339  10.248  0.7979 -0.3150 -0.4231
   77MOL0     C10548   5.049  11.403  10.355 -0.1619  0.1986  0.3399
   77MOL0     C10549   4.900  11.401  10.302  0.8592  0.3736 -0.4117
   77MOL0     C10550   4.861  11.258  10.246  0.2839  0.6205 -0.7889
   77MOL0     C10551   4.893  11.140  10.341 -0.0871  1.0989  0.4826
   77MOL0     C10552   4.865  11.169  10.483  0.1668 -0.3721 -0.0824
   77MOL0     C10553   4.848  11.203  10.593 -0.0447  0.8743  0.3696
   77MOL0     C10554   5.339  11.226  10.214 -0.0199 -0.6252  0.6481
   77MOL0     C10555   5.475  11.218  10.229 -0.0775 -0.1209 -0.7708
   77MOL0     C10556   5.545  11.123  10.140 -0.4287 -0.8290 -0.4281
   77MOL0     H10557   5.987  11.256  10.225  2.7348  3.4286  0.4628
   77MOL0     H10558   6.185  11.264  10.366 -0.9509  0.8856 -1.2894
   77MOL0     H10559   6.364  11.210  10.478  1.1499  0.0214 -0.1324
   77MOL0     H10560   6.414  11.203  10.640 -2.6952 -4.1273 -0.2828
   77MOL0     H10561   6.411  11.444  10.557 -2.3531  2.9248  0.0688
   77MOL0     H10562   6.241  11.431  10.598 -0.8029 -0.4937 -0.8845
   77MOL0     H10563   6.389  11.533  10.764 -1.5047  0.2435 -1.0498
   77MOL0     H10564   6.289  11.387  10.817  1.3177 -0.7259  1.5783
   77MOL0     H10565   6.487  11.265  10.855  0.9341  0.1113  0.6048
   77MOL0     H10566   6.581  11.354  10.751 -1.0213  0.9694 -2.1016
   77MOL0     H10567   6.550  11.555  10.925  0.3445  0.0803 -0.3794
   77MOL0     H10568   6.625  11.419  10.995  1.4189  3.3895 -0.4486
   77MOL0     H10569   6.326  11.502  11.015 -1.5249 -2.0535  1.6162
   77MOL0     H10570   6.389  11.348  11.077  0.5811 -0.6682 -1.4595
   77MOL0     H10571   6.478  11.628  11.152 -2.5663 -0.2934 -1.3468
   77MOL0     H10572   6.547  11.477  11.221  0.6985  1.9583 -0.7516
   77MOL0     H10573   6.387  11.597  11.387  0.0041  1.9580 -1.5489
   77MOL0     H10574   6.278  11.627  11.267  1.2009  0.7430 -0.5947
   77MOL0     H10575   6.465  11.358  11.436 -0.6548  2.1817  1.4798
   77MOL0     H10576   6.444  11.088  11.475  0.7952 -0.3124  3.8247
   77MOL0     H10577   6.284  11.017  11.434 -3.1807  1.0127  1.5133
   77MOL0     H10578   6.196  11.139  11.639 -0.7519 -0.5515  0.5642
   77MOL0     H10579   6.301  11.000  11.682  0.9540 -0.6952 -0.4689
   77MOL0     H10580   6.348  11.302  11.708 -2.4924 -0.5098 -2.0036
   77MOL0     H10581   6.365  11.166  11.822 -1.0385 -1.0386  0.1474
   77MOL0     H10582   6.544  11.248  11.593 -1.2074 -0.4891 -0.1220
   77MOL0     H10583   6.591  11.251  11.767 -2.6613 -0.3828  2.2932
   77MOL0     H10584   6.825  11.221  11.670  0.3069  1.0049 -2.2374
   77MOL0     H10585   7.130  11.205  11.569  0.9568  3.1665 -1.1798
   77MOL0     H10586   7.003  11.309  11.606  1.4824  0.5162 -1.1095
   77MOL0     H10587   7.038  11.288  11.437 -1.1783 -1.0631 -1.4054
   77MOL0     H10588   7.264  10.816  11.234  0.1944 -0.3452 -2.8035
   77MOL0     H10589   7.498  10.832  11.129  2.2791  2.2714  0.1037
   77MOL0     H10590   7.679  11.208  11.099  0.8534  0.2195 -0.8532
   77MOL0     H10591   7.782  11.172  11.239 -1.7502  1.5443  0.1778
   77MOL0     H10592   7.813  11.018  10.976  0.1201 -3.4829  3.0432
   77MOL0     H10593   7.879  11.188  10.993 -0.0811 -1.2258 -1.9879
   77MOL0     H10594   7.942  10.936  11.141  0.9422  0.4563  2.3461
   77MOL0     H10595   8.000  11.092  11.202  1.3132  0.6346 -2.1322
   77MOL0     H10596   8.112  11.127  10.963  1.3787  0.5820  0.4870
   77MOL0     H10597   8.078  10.953  10.945 -0.9673  0.9711 -1.3556
   77MOL0     H10598   8.239  11.077  11.174 -2.7327 -0.0912  1.1143
   77MOL0     H10599   8.177  10.904  11.168  0.9017 -1.2958 -0.5484
   77MOL0     H10600   8.391  11.032  10.991  2.9445 -1.7534 -0.8187
   77MOL0     H10601   8.312  10.884  10.954  3.0146 -1.0906  1.2199
   77MOL0     H10602   8.388  10.781  11.159  0.7543  1.1753  2.8351
   77MOL0     H10603   8.467  10.924  11.214  2.1667  3.3345 -1.9466
   77MOL0     H10604   8.648  10.911  11.056 -0.1947  0.4557 -0.0936
   77MOL0     H10605   8.549  10.826  10.939 -1.0466  1.3444  0.4486
   77MOL0     H10606   7.568  11.203  11.308  0.6585  1.3204 -0.6908
   77MOL0     H10607   7.344  11.186  11.421  0.3216  0.9261 -0.7893
   77MOL0     H10608   6.814  10.853  11.347 -2.4935 -0.7118  0.4805
   77MOL0     H10609   6.630  10.877  11.508  2.7315 -4.1658 -0.4659
   77MOL0     H10610   5.983  11.101  10.701  0.6048  2.8868  0.7011
   77MOL0     H10611   5.780  11.085  10.568  1.3260 -2.2459  0.6956
   77MOL0     H10612   5.532  11.467  10.441 -2.2238  0.8531  0.6543
   77MOL0     H10613   5.286  11.504  10.398 -1.3326  0.9268 -3.5059
   77MOL0     H10614   5.044  11.353  10.452 -3.0379  1.4634  0.9501
   77MOL0     H10615   5.086  11.505  10.371 -0.1852  0.3846 -0.6875
   77MOL0     H10616   4.879  11.480  10.229  0.4990  0.7972  0.1370
   77MOL0     H10617   4.842  11.441  10.386  1.3258  0.5063 -0.1498
   77MOL0     H10618   4.756  11.258  10.214 -0.8441  1.3848  2.4678
   77MOL0     H10619   4.911  11.243  10.150  2.2860 -2.4609  0.5748
   77MOL0     H10620   5.001  11.118  10.337 -0.1218  0.2805  2.5939
   77MOL0     H10621   4.850  11.047  10.302  2.0165  0.0308  0.5493
   77MOL0     H10622   4.832  11.233  10.694 -1.6775  2.4134 -0.2838
   77MOL0     H10623   5.279  11.153  10.160 -1.6606  1.7781 -0.9585
   77MOL0     H10624   5.576  11.028  10.185 -2.0565 -1.3621 -0.3647
   77MOL0     H10625   5.476  11.091  10.061 -0.5154  0.9162 -1.0997
   77MOL0     H10626   5.626  11.168  10.082  1.4389 -0.5818  2.2087
   78MOL0     O10627   2.020   9.698   4.052 -0.1613  0.0187 -0.2566
   78MOL0     C10628   2.066   9.639   3.958  0.7216 -0.1557 -1.0191
   78MOL0     O10629   2.181   9.565   3.952 -0.4323  0.6264  0.7365
   78MOL0     C10630   2.305   9.596   4.008  0.0351 -0.5709 -0.4995
   78MOL0     C10631   2.411   9.515   3.980  0.5991  1.1784  0.0140
   78MOL0     C10632   2.541   9.543   4.020  0.0477 -0.4720 -0.3691
   78MOL0     C10633   2.567   9.654   4.093  0.5012 -0.6048 -1.0976
   78MOL0     O10634   2.701   9.667   4.125  0.9890 -0.0072 -0.3915
   78MOL0     C10635   2.727   9.784   4.209 -0.3551 -0.5040 -0.5776
   78MOL0     C10636   2.858   9.760   4.272 -0.1624 -0.3004  0.5001
   78MOL0     C10637   2.973   9.759   4.163 -0.3553 -0.4525  0.1824
   78MOL0     C10638   3.009   9.616   4.107  0.1085  0.6213  0.1992
   78MOL0     C10639   3.133   9.618   4.030 -0.5945  0.2581  0.2267
   78MOL0     C10640   3.184   9.481   3.970  0.4340 -0.1942  0.4963
   78MOL0     C10641   3.309   9.505   3.891 -0.0872 -0.2330  0.3666
   78MOL0     C10642   3.368   9.373   3.840 -0.1176 -0.6197  0.6944
   78MOL0     N10643   3.477   9.326   3.932  0.6008  0.7313  0.2015
   78MOL0     C10644   3.586   9.391   3.988 -0.8140  0.2456 -0.3987
   78MOL0     C10645   3.646   9.300   4.073 -0.6165 -0.2908 -1.1585
   78MOL0     C10646   3.765   9.324   4.157 -0.1902 -1.0386 -0.9519
   78MOL0     C10647   3.889   9.264   4.089 -0.5268 -0.4110 -0.1885
   78MOL0     C10648   3.891   9.114   4.067  0.2750  0.4508  0.9777
   78MOL0     C10649   4.026   9.045   4.050 -0.7572 -0.4673  0.7873
   78MOL0     O10650   4.102   9.115   3.951  0.0656  0.3132  0.2882
   78MOL0     C10651   4.239   9.095   3.943 -0.7678  0.7391 -0.2327
   78MOL0     C10652   4.315   9.020   4.034 -0.4752  0.3920  0.1259
   78MOL0     C10653   4.459   9.004   4.030 -0.0674 -0.4735 -0.7624
   78MOL0     C10654   4.527   8.934   4.143 -0.3199 -0.3998  0.5706
   78MOL0     C10655   4.526   9.072   3.920  0.1955 -0.2311 -0.3227
   78MOL0     C10656   4.673   9.067   3.900 -0.1452 -0.0721  1.0194
   78MOL0     O10657   4.703   9.113   3.777  0.3675 -0.5980  0.5838
   78MOL0     C10658   4.836   9.137   3.739 -0.4546 -0.2205 -0.6017
   78MOL0     C10659   4.953   9.070   3.770  0.3967 -0.5174  0.0799
   78MOL0     C10660   5.080   9.108   3.724 -0.0642 -0.1661 -0.1636
   78MOL0     C10661   5.097   9.211   3.631  0.2508  0.8861  0.2851
   78MOL0     O10662   5.213   9.232   3.565  0.0886  0.7571 -0.3779
   78MOL0     C10663   5.339   9.207   3.623 -0.2727 -0.1630 -0.4387
   78MOL0     C10664   5.448   9.171   3.511  0.9262  0.0331 -0.5574
   78MOL0     C10665   5.577   9.108   3.567  0.1532  0.3084  0.7162
   78MOL0     C10666   5.698   9.122   3.467  0.4987 -0.2149 -1.0338
   78MOL0     C10667   5.809   9.017   3.489  0.6012  0.8300 -1.0535
   78MOL0     C10668   5.891   9.032   3.612 -0.2319 -0.5570  0.4773
   78MOL0     C10669   6.018   8.949   3.601  0.8922 -0.4634 -0.4598
   78MOL0     C10670   6.075   8.920   3.740  0.3130  0.7297 -0.0646
   78MOL0    Cl10671   6.233   8.851   3.715  0.1179 -0.5462  0.3415
   78MOL0     C10672   4.984   9.286   3.601 -1.0520  0.5121  0.4604
   78MOL0     C10673   4.854   9.249   3.659 -0.2907 -1.0793 -0.0111
   78MOL0     O10674   4.745   9.018   3.981 -0.2065  0.2162  0.0289
   78MOL0     C10675   4.440   9.140   3.828  0.2211 -0.6743 -0.5630
   78MOL0     C10676   4.302   9.154   3.845 -0.5906  0.4307  0.0383
   78MOL0     N10677   3.593   9.181   4.054 -0.3402  0.5221 -0.0841
   78MOL0     N10678   3.492   9.196   3.975 -0.6655  0.3582 -0.2565
   78MOL0     C10679   2.463   9.749   4.109  0.5032 -0.1731 -0.0128
   78MOL0     C10680   2.330   9.718   4.068 -0.3465 -0.8499  0.0751
   78MOL0     C10681   1.978   9.628   3.842 -0.0686 -0.8112 -0.9666
   78MOL0     C10682   2.036   9.633   3.714 -0.6428  0.8793 -0.9162
   78MOL0     C10683   1.969   9.638   3.595  0.3659  0.0258  0.9932
   78MOL0     C10684   1.829   9.634   3.600 -0.5071 -0.3387 -0.5684
   78MOL0     O10685   1.762   9.643   3.476 -0.1037  0.7543 -0.7958
   78MOL0     C10686   1.693   9.762   3.463  0.3473  0.4368  0.0725
   78MOL0     C10687   1.636   9.786   3.323  0.2875  0.1260 -0.4930
   78MOL0     C10688   1.613   9.939   3.281 -0.0631  0.3510  0.5020
   78MOL0     C10689   1.753  10.016   3.259 -0.2152  0.1601  0.0180
   78MOL0     C10690   1.809   9.979   3.127 -0.1262  0.3995  0.3158
   78MOL0     C10691   1.862   9.962   3.020  0.0163  0.4900  0.0613
   78MOL0     C10692   1.766   9.636   3.726  0.1240 -0.2753 -0.0977
   78MOL0     C10693   1.838   9.630   3.852 -0.4121  0.1730  1.0274
   78MOL0     C10694   1.765   9.623   3.985 -0.1741 -0.0703 -0.7716
   78MOL0     H10695   2.381   9.435   3.913 -0.1356  1.5902 -0.1621
   78MOL0     H10696   2.628   9.481   3.998  1.8189  2.3551 -1.8511
   78MOL0     H10697   2.649   9.798   4.285 -0.6852  2.0251 -1.2966
   78MOL0     H10698   2.732   9.876   4.150  1.4143 -1.1417 -1.5025
   78MOL0     H10699   2.875   9.836   4.349 -1.8875  0.7170 -0.0572
   78MOL0     H10700   2.849   9.663   4.323  0.1086  0.5556  2.2539
   78MOL0     H10701   2.944   9.826   4.082 -0.1576  0.4110  0.8049
   78MOL0     H10702   3.069   9.797   4.201 -1.2011  2.3528 -0.2224
   78MOL0     H10703   3.014   9.545   4.190 -0.4011 -1.2588 -1.2982
   78MOL0     H10704   2.935   9.572   4.038 -0.0131  0.6259  0.3254
   78MOL0     H10705   3.211   9.664   4.092 -1.1307 -0.3223  1.3731
   78MOL0     H10706   3.127   9.684   3.943  0.6338 -1.1591 -0.9797
   78MOL0     H10707   3.199   9.408   4.049 -1.7598 -0.5043  0.6802
   78MOL0     H10708   3.114   9.439   3.897  1.4154  0.5244 -0.9186
   78MOL0     H10709   3.382   9.557   3.953  0.1229 -1.6089  1.3127
   78MOL0     H10710   3.281   9.578   3.814  2.4576  0.5543  0.0853
   78MOL0     H10711   3.294   9.292   3.838 -1.1099  0.2632  0.4301
   78MOL0     H10712   3.397   9.378   3.735 -0.8076 -1.2787  0.4586
   78MOL0     H10713   3.626   9.490   3.969 -1.2289  1.1547  2.9759
   78MOL0     H10714   3.757   9.280   4.257  0.9149  1.9872  0.5987
   78MOL0     H10715   3.777   9.431   4.177  0.8926 -1.4722  1.0511
   78MOL0     H10716   3.901   9.311   3.991  1.2095 -1.4931 -0.5420
   78MOL0     H10717   3.970   9.292   4.158 -1.2786 -0.0278  0.5544
   78MOL0     H10718   3.836   9.062   4.146 -1.4881  1.5209  0.5017
   78MOL0     H10719   3.838   9.089   3.975  1.4711 -0.2940  0.4693
   78MOL0     H10720   4.068   9.049   4.151  1.2048  1.1734 -0.0359
   78MOL0     H10721   4.012   8.940   4.022 -1.9464 -0.8541  2.6334
   78MOL0     H10722   4.265   8.980   4.121  0.0364  2.6451  1.5360
   78MOL0     H10723   4.584   9.006   4.204 -1.4457  2.5983 -1.6912
   78MOL0     H10724   4.586   8.851   4.104 -2.5997 -2.8390  2.0048
   78MOL0     H10725   4.461   8.890   4.218 -0.4411 -0.3563  0.4898
   78MOL0     H10726   4.936   8.991   3.843  0.3161  0.1199  0.7642
   78MOL0     H10727   5.165   9.049   3.758  0.5588  1.5700  1.4908
   78MOL0     H10728   5.379   9.285   3.689  1.4923 -2.9838  2.0680
   78MOL0     H10729   5.326   9.118   3.685 -0.5860 -0.3185 -0.7272
   78MOL0     H10730   5.407   9.100   3.439 -0.5958 -0.4184  0.6925
   78MOL0     H10731   5.469   9.257   3.447  2.1467 -2.3393 -3.5991
   78MOL0     H10732   5.564   9.002   3.594  1.4700  0.5013  2.2464
   78MOL0     H10733   5.590   9.159   3.662 -0.5208 -0.4298  1.2231
   78MOL0     H10734   5.740   9.222   3.472  1.4284 -0.6036 -0.8031
   78MOL0     H10735   5.659   9.102   3.367 -0.2769 -1.2663 -0.5608
   78MOL0     H10736   5.762   8.920   3.502  0.6741  0.7926 -1.0713
   78MOL0     H10737   5.864   9.024   3.395 -1.1913  0.9845 -2.1522
   78MOL0     H10738   5.841   9.004   3.705  0.2780  0.6161  1.1293
   78MOL0     H10739   5.912   9.139   3.623  2.0677 -0.9727  0.6000
   78MOL0     H10740   6.082   9.013   3.540 -0.6609  1.8617  0.2243
   78MOL0     H10741   5.997   8.856   3.547  0.8823 -0.2142 -0.8880
   78MOL0     H10742   6.018   8.844   3.794  0.0846  1.7041  1.1196
   78MOL0     H10743   6.077   9.016   3.792 -2.7080  2.9173 -3.4415
   78MOL0     H10744   4.987   9.366   3.527 -0.3790  0.1672  0.1037
   78MOL0     H10745   4.763   9.305   3.644  1.3630  1.4445 -1.3657
   78MOL0     H10746   4.486   9.176   3.737 -0.6179  0.9086 -0.4046
   78MOL0     H10747   4.232   9.206   3.780 -3.1076 -3.1933 -0.4322
   78MOL0     H10748   2.476   9.847   4.151  1.7997  0.8817 -2.6420
   78MOL0     H10749   2.256   9.795   4.085  3.1743  2.3772  2.2451
   78MOL0     H10750   2.143   9.616   3.709 -0.8979 -1.6913  0.2338
   78MOL0     H10751   2.019   9.648   3.499  1.0495 -0.7020  1.2656
   78MOL0     H10752   1.609   9.768   3.533 -0.1110  0.0644 -0.4422
   78MOL0     H10753   1.761   9.843   3.492 -0.4143  0.5631  1.6442
   78MOL0     H10754   1.536   9.740   3.317  1.1052 -2.3369  2.3592
   78MOL0     H10755   1.699   9.731   3.252  0.1051  0.5901 -1.0268
   78MOL0     H10756   1.543   9.951   3.198  0.3146  1.6622  0.3503
   78MOL0     H10757   1.574   9.992   3.369 -0.7574 -0.4416  0.6883
   78MOL0     H10758   1.819  10.003   3.345 -1.3462 -0.5966  0.8148
   78MOL0     H10759   1.716  10.119   3.253 -2.4657 -0.5771  0.0284
   78MOL0     H10760   1.900   9.944   2.922 -0.1232 -1.7927  0.3740
   78MOL0     H10761   1.658   9.644   3.736  0.1136  0.7362 -0.8369
   78MOL0     H10762   1.660   9.594   3.980 -0.2299 -0.5847  1.8775
   78MOL0     H10763   1.821   9.552   4.047  0.6214  0.8905 -0.3744
   78MOL0     H10764   1.780   9.723   4.026  1.1120 -0.6938  0.3425
   79MOL0     O10765   6.604   9.174   0.970 -0.5602 -0.3658  0.1727
   79MOL0     C10766   6.561   9.257   1.051  0.1540 -0.9467  0.2804
   79MOL0     O10767   6.631   9.329   1.132 -0.5508  0.1491 -0.0942
   79MOL0     C10768   6.770   9.333   1.109 -0.3283  0.0637 -0.0518
   79MOL0     C10769   6.830   9.455   1.084 -0.1202 -0.6383 -0.1591
   79MOL0     C10770   6.968   9.469   1.072  0.2749 -0.1382 -0.4830
   79MOL0     C10771   7.049   9.349   1.101  0.1833 -1.0393  0.2550
   79MOL0     O10772   7.185   9.350   1.112 -0.3997 -0.0979 -0.5792
   79MOL0     C10773   7.247   9.459   1.061  0.2786 -0.2839 -0.3701
   79MOL0     C10774   7.393   9.452   1.065 -0.5198 -0.2281  0.2943
   79MOL0     C10775   7.446   9.336   0.974 -0.1187  1.0367  0.5370
   79MOL0     C10776   7.598   9.338   0.949  0.3434  0.2650  0.0902
   79MOL0     C10777   7.645   9.216   0.859  0.6438 -1.0343  0.2246
   79MOL0     C10778   7.798   9.221   0.830 -0.3388 -0.7861 -0.9226
   79MOL0     C10779   7.854   9.120   0.729 -1.2188  0.0606 -0.4828
   79MOL0     C10780   7.890   8.982   0.785  0.4199 -0.8986  0.8675
   79MOL0     N10781   7.970   8.904   0.685  0.0925  0.7275  0.8421
   79MOL0     C10782   7.948   8.778   0.643  0.8119 -0.3974 -0.0485
   79MOL0     C10783   8.052   8.751   0.563  0.1995 -0.3590  1.2021
   79MOL0     C10784   8.104   8.622   0.507  0.4938  0.6988 -0.9388
   79MOL0     C10785   8.186   8.540   0.617 -0.4170 -0.0574  0.3741
   79MOL0     C10786   8.331   8.596   0.664  0.7641 -0.1837 -0.0804
   79MOL0     C10787   8.438   8.603   0.558 -0.5459  0.0182  0.9683
   79MOL0     O10788   8.453   8.470   0.515  0.1830  0.2902  0.2870
   79MOL0     C10789   8.544   8.451   0.418 -0.3641  0.1159 -0.0824
   79MOL0     C10790   8.564   8.319   0.384 -0.0093 -0.1468 -0.1577
   79MOL0     C10791   8.650   8.283   0.280  0.2626 -0.5935  0.4039
   79MOL0     C10792   8.658   8.136   0.260 -0.3960  0.1065  0.3521
   79MOL0     C10793   8.716   8.375   0.196 -0.5183  0.1160 -0.2253
   79MOL0     C10794   8.815   8.336   0.085  0.2063 -0.8386  0.4968
   79MOL0     O10795   8.829   8.202   0.050  0.0314 -0.0054  0.3572
   79MOL0     C10796   8.923   8.175  -0.043 -0.1021 -0.0341  1.1419
   79MOL0     C10797   9.047   8.142   0.003 -0.1322  0.4402  0.9332
   79MOL0     C10798   9.143   8.126  -0.102 -0.6615 -0.8356 -1.1705
   79MOL0     C10799   9.123   8.154  -0.240  0.3150  0.4531 -0.3820
   79MOL0     O10800   9.219   8.133  -0.335  0.2991 -0.3309  0.3815
   79MOL0     C10801   9.336   8.222  -0.331  0.2236  0.1580 -0.8624
   79MOL0     C10802   9.384   8.281  -0.464  1.2276  0.3117 -0.7200
   79MOL0     C10803   9.274   8.378  -0.512  0.1225  0.0916 -0.8987
   79MOL0     C10804   9.320   8.421  -0.656 -0.1036 -0.5517 -0.5389
   79MOL0     C10805   9.260   8.550  -0.713  0.0664 -0.8600 -0.5792
   79MOL0     C10806   9.288   8.664  -0.621  0.0499 -0.0484  0.3212
   79MOL0     C10807   9.302   8.788  -0.709 -0.1978 -0.7943 -0.0748
   79MOL0     C10808   9.173   8.828  -0.792  0.7305 -0.1709 -0.3938
   79MOL0    Cl10809   9.193   9.001  -0.839 -0.1256  0.1680  0.0190
   79MOL0     C10810   8.998   8.193  -0.274  0.5007 -0.0305  0.0004
   79MOL0     C10811   8.893   8.203  -0.179  0.7134  0.0242  0.0957
   79MOL0     O10812   8.861   8.437   0.024 -0.5232 -0.3707 -1.3117
   79MOL0     C10813   8.695   8.509   0.228 -0.8569  0.1042 -0.6092
   79MOL0     C10814   8.601   8.549   0.331  0.3021  0.0953  0.6374
   79MOL0     N10815   8.118   8.872   0.538 -0.6083  0.0177  0.4575
   79MOL0     N10816   8.068   8.961   0.609 -0.7436 -0.0229 -0.0990
   79MOL0     C10817   6.981   9.231   1.127  0.0008 -0.7694  0.1447
   79MOL0     C10818   6.844   9.224   1.130 -0.0047  0.3538 -0.4834
   79MOL0     C10819   6.415   9.286   1.053  0.0515  0.5884 -0.0615
   79MOL0     C10820   6.362   9.409   1.087 -0.4763  0.4541 -0.2487
   79MOL0     C10821   6.226   9.438   1.080 -0.2046  0.1028 -0.4357
   79MOL0     C10822   6.132   9.344   1.036 -0.1438  0.0141  0.4904
   79MOL0     O10823   6.001   9.383   1.045 -0.0426  0.0289  0.1435
   79MOL0     C10824   5.901   9.294   1.000 -0.6427  0.3053 -0.8651
   79MOL0     C10825   5.886   9.312   0.853  0.2210 -0.1672  0.7647
   79MOL0     C10826   5.769   9.217   0.808  0.3031  0.2157  0.2149
   79MOL0     C10827   5.781   9.065   0.836  0.5286  0.9062 -0.7127
   79MOL0     C10828   5.913   9.008   0.805 -0.2695  0.9796  0.0145
   79MOL0     C10829   6.016   8.959   0.767  0.2907 -0.6568 -0.3049
   79MOL0     C10830   6.184   9.217   1.008 -0.0159 -0.3195  0.2866
   79MOL0     C10831   6.321   9.189   1.013 -0.8158  0.0870 -0.7352
   79MOL0     C10832   6.362   9.054   0.956  0.6873 -0.0265  0.1189
   79MOL0     H10833   6.765   9.542   1.080  1.1631  0.5111  1.9438
   79MOL0     H10834   7.014   9.567   1.061  0.5725 -0.1145  0.8022
   79MOL0     H10835   7.221   9.548   1.119  2.8221  0.7520 -0.6541
   79MOL0     H10836   7.216   9.488   0.960  1.5109 -0.3120 -0.7831
   79MOL0     H10837   7.432   9.536   1.006  0.2812 -0.4622  0.4701
   79MOL0     H10838   7.438   9.458   1.165 -0.1438  1.3069  0.0602
   79MOL0     H10839   7.425   9.247   1.033  0.6227  2.3175  2.8798
   79MOL0     H10840   7.391   9.336   0.879  0.9964 -2.7177 -0.2943
   79MOL0     H10841   7.621   9.438   0.911  0.7864  1.9100  4.1388
   79MOL0     H10842   7.647   9.315   1.044 -0.1643 -0.0398  0.2835
   79MOL0     H10843   7.600   9.236   0.761 -0.5892  0.4852  1.0713
   79MOL0     H10844   7.610   9.123   0.903  2.6881 -0.1142  4.3023
   79MOL0     H10845   7.821   9.322   0.795  1.4012 -1.0189 -0.5463
   79MOL0     H10846   7.857   9.218   0.922 -0.6999 -0.2532 -0.6731
   79MOL0     H10847   7.949   9.162   0.695  1.5662 -4.8349  0.3011
   79MOL0     H10848   7.789   9.092   0.645 -1.5323  1.3113 -0.6765
   79MOL0     H10849   7.956   8.998   0.871  0.5573  4.5160  0.0809
   79MOL0     H10850   7.792   8.938   0.806  0.0439 -0.6353 -0.2879
   79MOL0     H10851   7.864   8.717   0.675 -1.7733  3.0196  0.2777
   79MOL0     H10852   8.168   8.620   0.418  1.9601 -1.1984  0.0802
   79MOL0     H10853   8.012   8.566   0.486 -0.7182  1.5727  1.5829
   79MOL0     H10854   8.125   8.526   0.706  0.6901  0.9481  1.3299
   79MOL0     H10855   8.196   8.440   0.574 -1.0558  0.4002 -0.8643
   79MOL0     H10856   8.316   8.695   0.708  0.5225  1.0830 -2.8219
   79MOL0     H10857   8.366   8.530   0.744 -0.0902  1.1994  1.4854
   79MOL0     H10858   8.406   8.666   0.474 -0.1666 -1.2459 -0.1446
   79MOL0     H10859   8.529   8.639   0.607  0.0102 -2.0027  1.4862
   79MOL0     H10860   8.524   8.245   0.453  1.2816 -0.5025  0.2367
   79MOL0     H10861   8.624   8.115   0.158 -1.5434 -1.8287  1.0813
   79MOL0     H10862   8.595   8.087   0.334 -3.7872  0.1808 -2.2428
   79MOL0     H10863   8.760   8.103   0.282 -1.6215 -3.5650  1.1565
   79MOL0     H10864   9.063   8.131   0.109 -0.3680 -0.5750  0.8733
   79MOL0     H10865   9.248   8.120  -0.074 -0.2354  1.7918 -1.9443
   79MOL0     H10866   9.319   8.305  -0.262 -2.4526  0.4488 -1.7780
   79MOL0     H10867   9.414   8.156  -0.291 -1.2742  0.0376  2.1844
   79MOL0     H10868   9.470   8.345  -0.440 -0.1571  2.1590 -0.4206
   79MOL0     H10869   9.408   8.193  -0.524  1.1429  0.9696 -1.7399
   79MOL0     H10870   9.272   8.461  -0.440  2.5000  0.2784 -0.9672
   79MOL0     H10871   9.176   8.331  -0.521  0.4456 -0.5900 -0.8520
   79MOL0     H10872   9.298   8.348  -0.734  0.7870  0.1635 -1.4937
   79MOL0     H10873   9.428   8.433  -0.643  0.0669 -1.7822 -0.7810
   79MOL0     H10874   9.299   8.571  -0.813  0.0240 -1.6251 -0.7630
   79MOL0     H10875   9.154   8.544  -0.740  0.2917 -0.8737 -1.4689
   79MOL0     H10876   9.377   8.644  -0.562  1.7731  1.5272 -1.5713
   79MOL0     H10877   9.207   8.675  -0.548 -0.4608 -0.0511 -0.2345
   79MOL0     H10878   9.391   8.758  -0.764 -0.4188  0.8398 -1.3919
   79MOL0     H10879   9.340   8.874  -0.654 -0.6995 -0.2946 -0.4944
   79MOL0     H10880   9.087   8.817  -0.725 -0.1269  1.3392 -1.1877
   79MOL0     H10881   9.154   8.759  -0.874 -2.9764 -0.4364  0.5208
   79MOL0     H10882   8.974   8.226  -0.374 -0.1875 -0.1397  0.1231
   79MOL0     H10883   8.801   8.252  -0.211  0.4401 -0.3460  0.2989
   79MOL0     H10884   8.748   8.588   0.175 -1.8369 -0.2436 -2.1637
   79MOL0     H10885   8.579   8.655   0.334  1.5660  0.3597  1.6614
   79MOL0     H10886   7.047   9.148   1.148  0.9997 -0.3875 -1.3287
   79MOL0     H10887   6.787   9.139   1.168  0.1134  0.1986 -0.6520
   79MOL0     H10888   6.429   9.491   1.112  0.0014 -0.0720  0.2070
   79MOL0     H10889   6.182   9.532   1.113 -3.3062 -1.5613  0.5745
   79MOL0     H10890   5.925   9.189   1.021 -2.8073 -0.5580 -2.3429
   79MOL0     H10891   5.806   9.308   1.054 -0.2139 -3.8872  1.5015
   79MOL0     H10892   5.978   9.293   0.798  0.3789 -0.8406  1.2512
   79MOL0     H10893   5.849   9.412   0.827  0.6272 -0.4693 -1.1767
   79MOL0     H10894   5.683   9.246   0.867  0.4197 -1.4513  1.2707
   79MOL0     H10895   5.758   9.221   0.699 -2.0433  0.1675  0.4055
   79MOL0     H10896   5.702   9.008   0.788  1.5403 -0.9079 -0.3042
   79MOL0     H10897   5.762   9.056   0.943 -2.3590  0.2586 -1.2169
   79MOL0     H10898   6.112   8.925   0.735  0.6052 -1.0956  1.0194
   79MOL0     H10899   6.113   9.136   0.991 -0.2487  0.0952 -0.7883
   79MOL0     H10900   6.281   8.980   0.965 -0.6662  1.1722 -1.5527
   79MOL0     H10901   6.376   9.057   0.848 -0.7268 -1.0288 -0.1244
   79MOL0     H10902   6.443   9.008   1.013 -0.0242 -3.6174 -1.4214
   80MOL0     O10903   4.513   2.215   5.810  0.4059  0.6083  0.1106
   80MOL0     C10904   4.431   2.128   5.840 -0.0931  0.2106 -0.3006
   80MOL0     O10905   4.448   2.017   5.912  0.1860  0.2600  0.2092
   80MOL0     C10906   4.556   1.985   5.986  0.0518 -0.0837  0.1980
   80MOL0     C10907   4.666   2.069   6.013 -0.2772  0.3211 -0.4248
   80MOL0     C10908   4.789   2.031   6.079  0.8392  0.4399 -0.3107
   80MOL0     C10909   4.794   1.905   6.137 -0.5349  0.1088 -0.1296
   80MOL0     O10910   4.915   1.888   6.211  0.1103  0.3881 -0.1821
   80MOL0     C10911   4.930   1.765   6.294  0.1735 -0.1139 -0.1892
   80MOL0     C10912   5.061   1.756   6.381  0.2848 -0.0028  0.2672
   80MOL0     C10913   5.180   1.740   6.296 -0.0841 -0.5605  0.8378
   80MOL0     C10914   5.308   1.713   6.379 -0.6341 -0.2441  0.2147
   80MOL0     C10915   5.434   1.737   6.299  0.1647  0.2729  0.0243
   80MOL0     C10916   5.554   1.704   6.384  0.6790  1.1668 -0.2298
   80MOL0     C10917   5.683   1.723   6.291 -0.0695  0.3078  0.6402
   80MOL0     C10918   5.802   1.672   6.367  0.3410 -0.1245  0.0365
   80MOL0     N10919   5.820   1.733   6.495 -0.0450  0.3942 -0.5307
   80MOL0     C10920   5.828   1.868   6.519 -0.2133 -0.9538  0.5377
   80MOL0     C10921   5.845   1.878   6.650 -0.4077  0.2388  0.7177
   80MOL0     C10922   5.863   2.002   6.730 -0.3235  0.9675 -0.0641
   80MOL0     C10923   5.998   2.064   6.697 -0.6360  0.8236 -0.1062
   80MOL0     C10924   6.044   2.198   6.774  0.5822 -0.5392  0.2699
   80MOL0     C10925   6.188   2.233   6.765 -0.5293  0.0238  0.6019
   80MOL0     O10926   6.216   2.361   6.824  0.6941 -0.5207  0.8044
   80MOL0     C10927   6.338   2.398   6.867  0.1837 -0.2334 -0.1973
   80MOL0     C10928   6.444   2.312   6.869  0.8759  0.3530  1.2402
   80MOL0     C10929   6.577   2.363   6.882 -0.0214  0.1019 -0.0036
   80MOL0     C10930   6.688   2.260   6.864 -0.4372  0.6185  0.1953
   80MOL0     C10931   6.598   2.501   6.908  0.1893 -0.1775 -0.7470
   80MOL0     C10932   6.728   2.563   6.931  0.9174  1.0766  0.1230
   80MOL0     O10933   6.727   2.697   6.967 -0.3681  0.2517  0.5253
   80MOL0     C10934   6.843   2.766   6.956  0.1128  0.6495 -0.0599
   80MOL0     C10935   6.838   2.866   6.865  0.2218 -0.2683 -0.7848
   80MOL0     C10936   6.950   2.939   6.824 -0.0059 -0.3484 -0.1245
   80MOL0     C10937   7.071   2.910   6.886  0.3944 -0.4126 -0.0706
   80MOL0     O10938   7.177   2.971   6.827 -0.7287 -0.5522  0.0380
   80MOL0     C10939   7.310   2.902   6.848  0.9650  0.0566 -0.3096
   80MOL0     C10940   7.429   2.969   6.783  0.0838 -0.2765 -0.2289
   80MOL0     C10941   7.466   3.086   6.868  0.7963 -0.4071 -0.0096
   80MOL0     C10942   7.582   3.161   6.806  0.2341 -0.4677  0.1588
   80MOL0     C10943   7.640   3.275   6.902  0.1247  0.1849 -0.1445
   80MOL0     C10944   7.792   3.302   6.873 -0.0918 -0.7856 -0.0030
   80MOL0     C10945   7.855   3.411   6.975 -1.3811  0.7109 -0.5684
   80MOL0     C10946   8.012   3.420   6.950  0.5485 -0.8817  0.2856
   80MOL0    Cl10947   8.049   3.533   6.815  0.1061  0.3718  0.0094
   80MOL0     C10948   7.076   2.812   6.986 -0.4887 -0.3271 -0.5931
   80MOL0     C10949   6.963   2.739   7.024  0.9122  0.1984 -0.0078
   80MOL0     O10950   6.827   2.497   6.902 -0.4602  0.5328 -0.4867
   80MOL0     C10951   6.487   2.584   6.931  0.0223  0.4152  0.0287
   80MOL0     C10952   6.362   2.532   6.906 -0.0223 -1.0436  0.0973
   80MOL0     N10953   5.860   1.752   6.709  0.0679 -0.1844  0.3344
   80MOL0     N10954   5.840   1.668   6.617  0.3423 -0.3006 -0.0753
   80MOL0     C10955   4.679   1.824   6.120  0.2864 -0.2367 -0.1302
   80MOL0     C10956   4.558   1.860   6.053 -0.3466  0.0770 -0.6187
   80MOL0     C10957   4.295   2.164   5.792 -0.5969  0.6675 -0.1584
   80MOL0     C10958   4.193   2.121   5.875  1.1561 -0.0793 -0.4947
   80MOL0     C10959   4.065   2.148   5.834  0.3412 -0.0943  0.7805
   80MOL0     C10960   4.031   2.215   5.707 -0.7790  0.7140  0.2947
   80MOL0     O10961   3.912   2.252   5.657 -0.6686 -0.2559 -0.0449
   80MOL0     C10962   3.798   2.251   5.738  0.1889 -0.2114 -0.2448
   80MOL0     C10963   3.672   2.306   5.666 -0.8428  0.5299 -0.7059
   80MOL0     C10964   3.692   2.434   5.588 -0.4327  0.0826  0.8369
   80MOL0     C10965   3.576   2.484   5.502 -0.7708  0.7331  0.0116
   80MOL0     C10966   3.507   2.373   5.429 -0.1473  0.7016  0.2311
   80MOL0     C10967   3.448   2.272   5.380  0.1062 -0.3277 -1.0791
   80MOL0     C10968   4.140   2.242   5.623  0.6515 -0.1266 -0.0501
   80MOL0     C10969   4.275   2.213   5.659 -0.0286  0.1091 -0.1540
   80MOL0     C10970   4.382   2.236   5.558  0.2788 -0.4874 -0.2079
   80MOL0     H10971   4.678   2.169   5.970  2.1622  0.3645  0.2088
   80MOL0     H10972   4.863   2.109   6.091  0.9907  0.5907 -1.9167
   80MOL0     H10973   4.902   1.670   6.246 -0.8372 -0.0784  0.2975
   80MOL0     H10974   4.845   1.769   6.363  0.6338  2.4004  0.3021
   80MOL0     H10975   5.070   1.842   6.448 -1.5847 -0.0079  0.5718
   80MOL0     H10976   5.055   1.671   6.449 -0.1327 -0.7202 -0.6430
   80MOL0     H10977   5.181   1.667   6.214  1.0883  0.5145 -0.1454
   80MOL0     H10978   5.196   1.829   6.236  1.1715 -1.3905 -0.1106
   80MOL0     H10979   5.301   1.792   6.455 -0.8790  1.7132 -1.7197
   80MOL0     H10980   5.305   1.613   6.422 -0.0580 -0.8780 -1.1897
   80MOL0     H10981   5.442   1.838   6.258 -1.3621  0.4726  0.1921
   80MOL0     H10982   5.428   1.662   6.220  1.4120  0.8911 -0.6806
   80MOL0     H10983   5.557   1.768   6.472  1.3974  2.2808 -1.0385
   80MOL0     H10984   5.544   1.600   6.417 -0.9265  0.5607 -2.4075
   80MOL0     H10985   5.698   1.829   6.268  0.5236 -0.2661 -1.9817
   80MOL0     H10986   5.673   1.674   6.194  1.1460  1.7361 -0.2638
   80MOL0     H10987   5.781   1.566   6.382 -2.5989  0.4029  0.2479
   80MOL0     H10988   5.895   1.697   6.315  1.9086  0.7729  3.0311
   80MOL0     H10989   5.831   1.951   6.449  1.9975  1.3254  3.1047
   80MOL0     H10990   5.848   1.987   6.837 -2.1498  4.3221  0.2698
   80MOL0     H10991   5.788   2.071   6.690  2.2508  2.1031 -3.3891
   80MOL0     H10992   6.082   1.995   6.706  0.9240  2.5132 -0.9521
   80MOL0     H10993   5.994   2.095   6.592 -1.4977  0.5515 -0.1616
   80MOL0     H10994   5.985   2.275   6.724  0.2014 -0.9983 -0.0052
   80MOL0     H10995   6.009   2.184   6.877 -3.8627 -2.0429 -1.1965
   80MOL0     H10996   6.238   2.156   6.825  2.4649 -1.1240 -2.9957
   80MOL0     H10997   6.221   2.233   6.661  1.9929 -0.1406  1.3273
   80MOL0     H10998   6.439   2.210   6.832  3.4872  0.8190 -0.7065
   80MOL0     H10999   6.748   2.278   6.774  1.3120 -3.3151  0.3781
   80MOL0     H11000   6.641   2.162   6.856  1.9055 -0.7345  1.8305
   80MOL0     H11001   6.748   2.251   6.955  2.1016 -0.5094 -1.4931
   80MOL0     H11002   6.741   2.895   6.826 -0.3928  0.1463  0.9389
   80MOL0     H11003   6.941   3.017   6.749  0.4355 -0.5558 -0.3957
   80MOL0     H11004   7.329   2.891   6.955  1.8604 -1.1846 -0.5742
   80MOL0     H11005   7.297   2.800   6.813 -1.2136  1.2527 -3.4596
   80MOL0     H11006   7.513   2.899   6.797  1.6585  1.9561  2.7292
   80MOL0     H11007   7.412   2.996   6.679 -0.5217 -1.3394 -0.4186
   80MOL0     H11008   7.497   3.058   6.969  1.7479  1.0548  0.1334
   80MOL0     H11009   7.385   3.159   6.863  0.2417 -0.8769  1.5549
   80MOL0     H11010   7.540   3.211   6.718 -1.0049  2.9212  2.4906
   80MOL0     H11011   7.662   3.096   6.768 -1.3710 -0.7658 -3.0842
   80MOL0     H11012   7.577   3.363   6.890  0.7696  0.9686  1.9377
   80MOL0     H11013   7.630   3.248   7.007  0.9950  0.4377  0.0145
   80MOL0     H11014   7.797   3.340   6.771  2.3228  0.0314  0.3654
   80MOL0     H11015   7.847   3.208   6.869 -2.4936 -2.2380 -0.5105
   80MOL0     H11016   7.841   3.372   7.076  0.3249  0.0012 -0.5657
   80MOL0     H11017   7.813   3.510   6.960 -1.8663  0.5078 -0.5688
   80MOL0     H11018   8.048   3.318   6.941 -3.6678 -2.4538 -1.4427
   80MOL0     H11019   8.040   3.463   7.047 -0.1253  4.0676 -1.3956
   80MOL0     H11020   7.171   2.782   7.030  0.1923 -0.7969 -2.3193
   80MOL0     H11021   6.972   2.669   7.106  0.0739  0.8891  0.7033
   80MOL0     H11022   6.497   2.685   6.970 -0.0115  0.3087  0.3135
   80MOL0     H11023   6.283   2.605   6.926  1.5046  0.4934  0.8211
   80MOL0     H11024   4.680   1.733   6.178  1.0263 -0.6701 -0.8079
   80MOL0     H11025   4.474   1.792   6.046 -0.2452 -0.0456 -0.6557
   80MOL0     H11026   4.215   2.067   5.966 -0.8778 -0.3474 -0.1155
   80MOL0     H11027   3.984   2.104   5.891  1.3652 -3.9219 -0.3880
   80MOL0     H11028   3.777   2.148   5.769  2.3732 -0.9012 -0.8407
   80MOL0     H11029   3.812   2.311   5.828 -1.2365  0.3543 -0.3815
   80MOL0     H11030   3.591   2.298   5.739 -0.2301  0.8852  0.0245
   80MOL0     H11031   3.640   2.236   5.587 -0.8274  0.3321 -0.5378
   80MOL0     H11032   3.732   2.505   5.660  0.3876 -1.1946  1.6886
   80MOL0     H11033   3.756   2.415   5.502 -0.9972 -0.9308  0.6231
   80MOL0     H11034   3.610   2.563   5.435  1.5334 -0.3826 -0.2461
   80MOL0     H11035   3.509   2.536   5.571  0.8022 -0.6774  2.7915
   80MOL0     H11036   3.399   2.190   5.332 -0.8066 -0.3568 -0.1423
   80MOL0     H11037   4.117   2.281   5.524 -0.1920 -0.7854 -0.1289
   80MOL0     H11038   4.335   2.264   5.463  0.4644  0.0262 -0.1562
   80MOL0     H11039   4.440   2.321   5.595 -2.6808  1.1311  1.0792
   80MOL0     H11040   4.452   2.154   5.542  2.1807  1.2780 -1.5533
   81MOL0     O11041   7.640   8.436   2.573  0.6033 -0.3254  0.7340
   81MOL0     C11042   7.566   8.469   2.670 -0.3771  0.3307 -1.0103
   81MOL0     O11043   7.613   8.530   2.780  0.2058 -0.3658 -0.6116
   81MOL0     C11044   7.739   8.574   2.787  0.1038  0.0405  0.1573
   81MOL0     C11045   7.839   8.477   2.798  0.0498 -0.0458 -0.7308
   81MOL0     C11046   7.976   8.516   2.798  0.3257 -1.2286  0.2785
   81MOL0     C11047   8.016   8.651   2.784  0.3075 -0.5305  0.1177
   81MOL0     O11048   8.154   8.681   2.767  0.0911 -0.3729  0.9057
   81MOL0     C11049   8.210   8.791   2.838  0.2638 -0.3769 -0.8786
   81MOL0     C11050   8.345   8.826   2.768 -0.0131 -0.3159  0.1771
   81MOL0     C11051   8.458   8.730   2.789 -0.3725 -0.0771 -1.0905
   81MOL0     C11052   8.506   8.730   2.933  0.0812  0.4526  0.4844
   81MOL0     C11053   8.546   8.864   2.995  0.2781 -0.6615  0.1423
   81MOL0     C11054   8.674   8.918   2.935  0.2534  0.1160  0.4154
   81MOL0     C11055   8.678   9.062   2.984 -1.2182  0.5142  0.0776
   81MOL0     C11056   8.809   9.140   2.938  0.5479 -0.3879  0.0224
   81MOL0     N11057   8.926   9.129   3.023 -0.4855  0.6929  0.2674
   81MOL0     C11058   8.976   9.008   3.088 -0.3826  0.2791 -1.2892
   81MOL0     C11059   9.100   9.039   3.136  0.7545 -0.2574  0.3272
   81MOL0     C11060   9.190   8.961   3.220 -0.1011  0.0678 -0.2968
   81MOL0     C11061   9.336   8.988   3.183 -0.4403  1.3275 -0.5388
   81MOL0     C11062   9.431   8.887   3.248  0.0683 -0.0454 -0.1221
   81MOL0     C11063   9.574   8.932   3.215  1.1993  0.0055 -0.0294
   81MOL0     O11064   9.664   8.831   3.232  0.3303 -0.1477 -0.0632
   81MOL0     C11065   9.790   8.850   3.274 -0.0494  0.5654  0.1484
   81MOL0     C11066   9.847   8.738   3.338  0.4451  0.5977 -0.8871
   81MOL0     C11067   9.981   8.739   3.386  0.0676 -0.1021  0.2827
   81MOL0     C11068  10.031   8.614   3.454 -0.4580  0.3690 -0.7250
   81MOL0     C11069  10.067   8.846   3.347 -0.6641  0.2133 -0.0019
   81MOL0     C11070  10.219   8.860   3.381 -0.5317 -0.6453 -0.6989
   81MOL0     O11071  10.275   8.977   3.342  1.0153 -0.2968 -0.4575
   81MOL0     C11072  10.405   8.996   3.349 -0.6419 -0.3243  0.3799
   81MOL0     C11073  10.488   8.930   3.258 -0.3037  0.6486 -0.0933
   81MOL0     C11074  10.628   8.955   3.258 -0.3037 -0.5377  0.1501
   81MOL0     C11075  10.683   9.022   3.373 -0.1866  0.7956  0.4258
   81MOL0     O11076  10.818   9.035   3.388 -0.0178  0.3848 -0.5418
   81MOL0     C11077  10.909   8.975   3.288  0.0556 -0.4377 -0.7635
   81MOL0     C11078  11.057   9.002   3.320  0.2089 -0.1021  0.1593
   81MOL0     C11079  11.159   8.919   3.230  0.1316  0.1691 -0.5887
   81MOL0     C11080  11.143   8.914   3.084  0.1835  0.3829  0.2276
   81MOL0     C11081  11.242   8.837   3.007 -0.7604 -0.2279 -0.5367
   81MOL0     C11082  11.385   8.905   3.004  0.1812 -0.1097 -0.2399
   81MOL0     C11083  11.499   8.808   2.964  0.0571 -0.4559  0.3877
   81MOL0     C11084  11.626   8.877   2.924 -0.3600  0.2643  0.1426
   81MOL0    Cl11085  11.609   9.000   2.783 -0.0956  0.2512 -0.1250
   81MOL0     C11086  10.601   9.066   3.474 -0.1903  0.2608  0.0381
   81MOL0     C11087  10.463   9.063   3.455  0.6292  0.2328  0.0685
   81MOL0     O11088  10.281   8.772   3.443 -0.4565  0.3508 -0.4140
   81MOL0     C11089  10.007   8.954   3.293  0.5691  0.1608 -0.3807
   81MOL0     C11090   9.874   8.958   3.257  0.3566 -0.3379  0.2685
   81MOL0     N11091   9.125   9.175   3.112  0.4008 -0.0883 -0.3310
   81MOL0     N11092   9.025   9.223   3.039  0.5374 -0.4868  0.0000
   81MOL0     C11093   7.909   8.750   2.784  0.2860  0.6253  0.5221
   81MOL0     C11094   7.771   8.708   2.784 -0.1306  0.3828 -0.0882
   81MOL0     C11095   7.418   8.432   2.672 -0.5882  0.5495 -0.3949
   81MOL0     C11096   7.354   8.448   2.791  1.5495 -0.2175 -0.2541
   81MOL0     C11097   7.218   8.411   2.796 -0.4413  0.5611  0.7361
   81MOL0     C11098   7.149   8.361   2.687  0.4377 -0.6081 -0.4038
   81MOL0     O11099   7.017   8.332   2.707 -0.2194 -0.8798 -0.4844
   81MOL0     C11100   6.940   8.275   2.600  0.3919 -0.0777 -0.0628
   81MOL0     C11101   6.950   8.122   2.592  0.4906 -0.3579  1.4537
   81MOL0     C11102   6.836   8.057   2.505 -0.8758 -0.4669  0.1549
   81MOL0     C11103   6.692   8.056   2.557 -0.0906  0.0367 -1.4644
   81MOL0     C11104   6.679   7.993   2.694 -1.0587  0.0983  0.4920
   81MOL0     C11105   6.656   7.942   2.797  0.0845  0.2842  0.3249
   81MOL0     C11106   7.213   8.350   2.568  0.1900 -1.0773  0.7869
   81MOL0     C11107   7.351   8.384   2.559 -0.4557  0.4433 -0.3657
   81MOL0     C11108   7.397   8.393   2.418  0.2076 -0.0791  0.5443
   81MOL0     H11109   7.812   8.372   2.806 -0.4936 -0.3345 -4.4213
   81MOL0     H11110   8.061   8.450   2.808  0.9206 -0.7033 -1.0949
   81MOL0     H11111   8.231   8.756   2.940  2.6126 -2.1226 -1.8421
   81MOL0     H11112   8.146   8.879   2.834  1.0096  0.1443 -1.6561
   81MOL0     H11113   8.318   8.815   2.662 -2.0607 -2.4011  0.8303
   81MOL0     H11114   8.371   8.926   2.803 -1.0714 -1.4778  4.9620
   81MOL0     H11115   8.432   8.627   2.763 -0.6886 -0.6329  1.2595
   81MOL0     H11116   8.539   8.760   2.722  1.4877  1.4471  1.6589
   81MOL0     H11117   8.432   8.679   2.996  0.0565  0.2625  0.3019
   81MOL0     H11118   8.599   8.671   2.933  0.0982  0.3957 -2.0350
   81MOL0     H11119   8.552   8.866   3.105  1.2353  0.1974  0.0888
   81MOL0     H11120   8.467   8.936   2.972 -2.0794 -2.2463  2.6483
   81MOL0     H11121   8.753   8.850   2.967 -0.1356 -0.4677  0.1704
   81MOL0     H11122   8.681   8.906   2.826  2.5012 -0.0099  0.5318
   81MOL0     H11123   8.672   9.052   3.092 -0.0675  0.1058  0.1129
   81MOL0     H11124   8.587   9.116   2.956 -2.1545  0.3307  2.5051
   81MOL0     H11125   8.840   9.114   2.836  0.5689  0.7843 -0.2835
   81MOL0     H11126   8.785   9.245   2.919  2.1906  0.0214  0.0675
   81MOL0     H11127   8.928   8.913   3.113 -1.1773  1.2454  1.1808
   81MOL0     H11128   9.163   8.856   3.206  0.4545  0.1708 -2.7155
   81MOL0     H11129   9.185   8.976   3.328  0.7890 -3.5969  0.4064
   81MOL0     H11130   9.356   8.996   3.075  1.8416  2.8306 -0.0682
   81MOL0     H11131   9.360   9.082   3.234 -0.0215  0.1114  1.5814
   81MOL0     H11132   9.420   8.891   3.357 -1.1975 -1.3815 -0.1688
   81MOL0     H11133   9.414   8.786   3.208 -1.0563  0.5584 -1.2156
   81MOL0     H11134   9.577   8.969   3.113 -3.7666  2.2707  0.3384
   81MOL0     H11135   9.601   9.009   3.288  2.6187 -1.7922  1.4665
   81MOL0     H11136   9.787   8.650   3.359 -1.5824  2.6531  3.3545
   81MOL0     H11137  10.049   8.639   3.559 -0.7375 -0.8720 -0.3575
   81MOL0     H11138  10.122   8.578   3.406  0.5889 -1.1921  2.1687
   81MOL0     H11139   9.953   8.537   3.464 -0.4043  0.3812 -0.1880
   81MOL0     H11140  10.439   8.879   3.175 -0.0183 -0.5516  0.4432
   81MOL0     H11141  10.685   8.919   3.173  3.0426  0.5835  1.7337
   81MOL0     H11142  10.898   8.866   3.286 -1.6995 -0.4128  2.0700
   81MOL0     H11143  10.878   9.011   3.189 -1.3872  2.1850  0.5390
   81MOL0     H11144  11.076   9.110   3.316 -0.0111 -0.0968 -1.3396
   81MOL0     H11145  11.071   8.974   3.425 -1.7374 -3.0113 -0.2422
   81MOL0     H11146  11.171   8.820   3.274  1.7614  0.8048  0.5196
   81MOL0     H11147  11.252   8.973   3.251  0.3697 -0.5580  0.3128
   81MOL0     H11148  11.159   9.009   3.032  0.2608 -0.0005 -0.4551
   81MOL0     H11149  11.044   8.875   3.058  0.3289  0.9365 -1.2407
   81MOL0     H11150  11.243   8.731   3.036 -1.8393 -0.2426 -0.5091
   81MOL0     H11151  11.212   8.843   2.902 -0.8740 -0.2013 -0.5023
   81MOL0     H11152  11.406   8.933   3.108  2.5390 -2.0696 -0.1133
   81MOL0     H11153  11.383   8.995   2.941  0.6260  1.4649  1.9040
   81MOL0     H11154  11.467   8.741   2.884  0.8732  3.0058 -3.1845
   81MOL0     H11155  11.519   8.754   3.057 -2.6074  0.8561  1.8242
   81MOL0     H11156  11.699   8.799   2.902  0.7823  0.4423  2.9472
   81MOL0     H11157  11.657   8.938   3.009  0.5666  0.5553 -0.3902
   81MOL0     H11158  10.655   9.128   3.545  0.7681  1.3436 -1.5838
   81MOL0     H11159  10.399   9.123   3.520  0.8590  2.6834 -1.8102
   81MOL0     H11160  10.069   9.039   3.267  1.3335 -0.8479 -2.0568
   81MOL0     H11161   9.840   9.051   3.212 -0.6588 -1.0449 -0.4657
   81MOL0     H11162   7.936   8.855   2.786 -0.2000  0.7665  0.0254
   81MOL0     H11163   7.693   8.784   2.784  0.0690  0.5891  0.6372
   81MOL0     H11164   7.404   8.463   2.886 -1.7204 -4.2795  2.5238
   81MOL0     H11165   7.184   8.432   2.897  0.7033 -1.7931  1.6796
   81MOL0     H11166   6.834   8.288   2.626 -0.4035 -2.0130 -2.0582
   81MOL0     H11167   6.957   8.334   2.510 -3.7061  0.2737 -0.8371
   81MOL0     H11168   6.946   8.083   2.694  4.4267 -0.1659  1.8227
   81MOL0     H11169   7.050   8.097   2.555  0.0643  1.4419 -1.2200
   81MOL0     H11170   6.835   8.111   2.410 -0.4701  1.3776  1.1481
   81MOL0     H11171   6.865   7.952   2.493 -1.7398 -0.5297 -1.6887
   81MOL0     H11172   6.621   8.005   2.491 -0.4829 -1.2967 -0.0724
   81MOL0     H11173   6.681   8.164   2.576 -5.1620 -0.3625 -0.5669
   81MOL0     H11174   6.647   7.908   2.898 -3.2707  0.0232  0.0443
   81MOL0     H11175   7.172   8.313   2.475  1.2939 -1.4387  0.4207
   81MOL0     H11176   7.321   8.386   2.340  1.6702  1.3698 -1.1154
   81MOL0     H11177   7.440   8.492   2.398  0.0627 -0.3474 -1.2442
   81MOL0     H11178   7.473   8.319   2.393  1.9961  1.7307  0.2844
   82MOL0     O11179   4.480  10.082   5.108  0.1619 -0.3314  0.1141
   82MOL0     C11180   4.420   9.980   5.082 -0.1450 -0.1112  0.2823
   82MOL0     O11181   4.461   9.889   4.986 -0.2171  0.7530  0.4270
   82MOL0     C11182   4.588   9.900   4.912  0.7150 -0.1109  1.1364
   82MOL0     C11183   4.583   9.879   4.773  0.1425 -0.1782  0.7380
   82MOL0     C11184   4.702   9.886   4.695  0.1868  0.0072  0.9652
   82MOL0     C11185   4.822   9.917   4.752 -0.0572  0.1052 -1.0101
   82MOL0     O11186   4.941   9.922   4.695 -0.1623  0.1240 -0.6853
   82MOL0     C11187   4.966   9.855   4.576 -0.1156 -0.2182  0.0548
   82MOL0     C11188   5.103   9.883   4.504 -0.4223 -0.3132  0.1809
   82MOL0     C11189   5.139  10.038   4.485  0.0077 -0.1176 -0.5282
   82MOL0     C11190   5.274  10.045   4.404 -0.3369 -0.2261  0.6236
   82MOL0     C11191   5.397   9.963   4.465  0.5436  0.2701 -0.1406
   82MOL0     C11192   5.423   9.842   4.381 -0.0863  0.0679  0.7209
   82MOL0     C11193   5.566   9.792   4.375 -0.3805 -0.3127  0.0042
   82MOL0     C11194   5.656   9.868   4.273 -0.3488  0.5056 -0.2916
   82MOL0     N11195   5.803   9.827   4.281  0.3088  0.7317  0.2694
   82MOL0     C11196   5.911   9.910   4.273 -0.1352  0.5207 -0.0208
   82MOL0     C11197   6.018   9.824   4.293  0.0893  0.8137 -0.5921
   82MOL0     C11198   6.169   9.847   4.295  0.5399 -0.2419  0.5768
   82MOL0     C11199   6.234   9.828   4.437  0.4260 -0.8647  0.1226
   82MOL0     C11200   6.229   9.960   4.517  0.2733 -0.2319  0.1873
   82MOL0     C11201   6.296  10.084   4.450 -0.6425  0.2694 -0.4875
   82MOL0     O11202   6.406  10.039   4.363  0.5949  0.6705 -0.1938
   82MOL0     C11203   6.522  10.111   4.379 -0.8358  0.1462 -0.3378
   82MOL0     C11204   6.584  10.152   4.260 -0.5831  0.1131  0.5499
   82MOL0     C11205   6.712  10.212   4.261 -0.2359 -0.2821 -0.0723
   82MOL0     C11206   6.757  10.274   4.128 -0.0741  0.1412  0.6022
   82MOL0     C11207   6.780  10.225   4.382 -0.3298  0.0571 -0.4366
   82MOL0     C11208   6.920  10.251   4.388 -0.5352 -0.3324  0.2811
   82MOL0     O11209   6.994  10.158   4.448 -0.8417 -0.6734  0.0904
   82MOL0     C11210   7.135  10.160   4.437 -0.2826  0.2398  0.2836
   82MOL0     C11211   7.228  10.174   4.545 -0.1012  0.3911 -0.5824
   82MOL0     C11212   7.363  10.170   4.524 -0.0007 -0.4260 -0.4650
   82MOL0     C11213   7.425  10.163   4.394  0.6851  0.1859  0.1495
   82MOL0     O11214   7.559  10.181   4.383  0.8970  0.9558  0.0114
   82MOL0     C11215   7.622  10.125   4.266 -0.8941  0.2190 -0.0812
   82MOL0     C11216   7.759  10.076   4.283 -0.4575  0.5047 -0.5346
   82MOL0     C11217   7.849  10.146   4.383  0.1964  0.3278 -0.5442
   82MOL0     C11218   7.976  10.069   4.418  1.2541 -0.2610  0.9680
   82MOL0     C11219   8.055  10.157   4.510 -0.7493 -0.2250  1.1059
   82MOL0     C11220   8.187  10.099   4.549  0.0049  0.6117  0.6518
   82MOL0     C11221   8.256  10.208   4.640 -0.1887  0.1782  0.0030
   82MOL0     C11222   8.388  10.163   4.714  0.0159  0.7218 -0.1153
   82MOL0    Cl11223   8.370  10.007   4.792 -0.5010  0.4065 -0.1428
   82MOL0     C11224   7.336  10.148   4.291  0.3750  1.1993  0.4149
   82MOL0     C11225   7.191  10.149   4.311 -0.8704 -0.7821  1.2296
   82MOL0     O11226   6.949  10.363   4.348 -0.2387 -0.9330 -0.6467
   82MOL0     C11227   6.721  10.177   4.494  0.1880 -0.0985  0.2219
   82MOL0     C11228   6.588  10.128   4.495  0.3535 -0.9658  0.5975
   82MOL0     N11229   5.978   9.693   4.306 -0.1653  0.0463  0.3572
   82MOL0     N11230   5.851   9.695   4.295  0.6089 -0.2974 -0.1247
   82MOL0     C11231   4.827   9.928   4.889  0.0458 -0.1046  0.8490
   82MOL0     C11232   4.717   9.923   4.970  0.9134 -1.1887  0.2106
   82MOL0     C11233   4.285   9.958   5.146 -0.9615 -0.0799 -0.1130
   82MOL0     C11234   4.178   9.897   5.077  0.0111 -0.0629  0.3645
   82MOL0     C11235   4.055   9.881   5.130  0.4688  0.9381 -1.2089
   82MOL0     C11236   4.025   9.931   5.259 -0.0372 -0.2986  0.4347
   82MOL0     O11237   3.895   9.925   5.295 -0.6252  0.1165 -0.2794
   82MOL0     C11238   3.852   9.995   5.414 -0.0999  0.0785 -1.0320
   82MOL0     C11239   3.695   9.987   5.408 -0.0336 -0.4596  0.1671
   82MOL0     C11240   3.629  10.028   5.542  0.2868  0.0955  0.5983
   82MOL0     C11241   3.476  10.011   5.537  0.4090  0.2401 -0.4525
   82MOL0     C11242   3.437   9.873   5.512 -0.6084 -0.3597  0.2222
   82MOL0     C11243   3.408   9.757   5.502 -0.0599  0.1970  0.0362
   82MOL0     C11244   4.128   9.987   5.334 -0.2778  0.0895  0.1677
   82MOL0     C11245   4.250  10.000   5.280  0.2851 -0.0475  0.5807
   82MOL0     C11246   4.358  10.061   5.363  0.7838  0.7628 -0.1927
   82MOL0     H11247   4.493   9.856   4.717  0.3358 -2.5175  1.2995
   82MOL0     H11248   4.695   9.872   4.587 -1.2603 -2.1666  1.2752
   82MOL0     H11249   4.889   9.875   4.501  0.1964 -0.3553 -0.3058
   82MOL0     H11250   4.967   9.750   4.607 -1.0629 -1.4332 -3.5331
   82MOL0     H11251   5.188   9.847   4.564 -0.4887 -1.9493 -0.6667
   82MOL0     H11252   5.116   9.837   4.406  0.0338  1.4855 -0.6577
   82MOL0     H11253   5.062  10.100   4.440 -0.4744 -0.7981 -0.6509
   82MOL0     H11254   5.159  10.087   4.581 -1.6085  0.5380 -0.4987
   82MOL0     H11255   5.253  10.019   4.300  1.1995  1.2107 -0.0936
   82MOL0     H11256   5.300  10.151   4.405 -2.3616  0.3151  0.0922
   82MOL0     H11257   5.385   9.929   4.568 -0.2721 -3.4489 -1.3139
   82MOL0     H11258   5.483  10.031   4.469  1.4095 -0.5313 -2.7980
   82MOL0     H11259   5.363   9.763   4.427  0.1624  1.0631  2.8814
   82MOL0     H11260   5.385   9.845   4.279 -2.1933 -1.9621  1.3767
   82MOL0     H11261   5.568   9.684   4.356 -1.7108 -0.4721  0.6251
   82MOL0     H11262   5.617   9.807   4.470  1.2944 -0.2003 -0.8795
   82MOL0     H11263   5.622   9.851   4.170  4.2215  1.6318 -2.2450
   82MOL0     H11264   5.659   9.976   4.287  2.2134  0.4672 -0.0823
   82MOL0     H11265   5.930  10.014   4.247  0.3595  0.9915  2.0514
   82MOL0     H11266   6.202   9.936   4.240  1.6597 -2.1520 -2.0572
   82MOL0     H11267   6.216   9.771   4.232  2.6521  2.0440 -0.8238
   82MOL0     H11268   6.181   9.756   4.500  1.7651  0.6961  3.3057
   82MOL0     H11269   6.335   9.788   4.425 -0.0353 -1.2967 -2.8910
   82MOL0     H11270   6.127   9.991   4.540 -0.5641  0.7610 -4.0871
   82MOL0     H11271   6.286   9.935   4.608  1.2758  0.5654 -0.2044
   82MOL0     H11272   6.218  10.123   4.384 -2.8878 -3.3495 -0.1863
   82MOL0     H11273   6.328  10.167   4.514  2.1113  0.4053 -1.8778
   82MOL0     H11274   6.514  10.145   4.177 -1.2200 -0.9590  1.1506
   82MOL0     H11275   6.796  10.376   4.126 -3.4542  1.5394 -1.0182
   82MOL0     H11276   6.671  10.285   4.061 -0.1357  3.6858  1.0846
   82MOL0     H11277   6.837  10.218   4.079  2.6594  3.2793  1.1263
   82MOL0     H11278   7.193  10.186   4.647  1.4765 -0.4763  0.1008
   82MOL0     H11279   7.410  10.177   4.622 -2.4157 -1.7997  0.8891
   82MOL0     H11280   7.560  10.042   4.230  0.5575 -1.5717  1.3401
   82MOL0     H11281   7.624  10.200   4.186  0.2713 -0.6766 -0.9108
   82MOL0     H11282   7.747   9.969   4.306 -1.0703  0.0464 -2.7538
   82MOL0     H11283   7.805  10.090   4.185  1.3867  3.8354  0.6501
   82MOL0     H11284   7.787  10.146   4.473  0.6160  1.4108 -0.2356
   82MOL0     H11285   7.871  10.248   4.349 -0.4673  0.0975 -1.6958
   82MOL0     H11286   8.035  10.054   4.327 -0.3755  2.6409 -0.7477
   82MOL0     H11287   7.959   9.974   4.469 -1.7961  0.5131  1.6521
   82MOL0     H11288   8.070  10.243   4.445 -2.3745 -2.6518 -2.8231
   82MOL0     H11289   8.002  10.191   4.600 -1.3203  1.9395  0.0209
   82MOL0     H11290   8.249  10.065   4.466 -0.8524 -0.9833  0.6240
   82MOL0     H11291   8.159  10.008   4.603 -1.4445 -0.5526 -1.8847
   82MOL0     H11292   8.186  10.229   4.720 -1.7222  0.5592 -1.3816
   82MOL0     H11293   8.274  10.302   4.588  1.1615 -0.9371 -1.6737
   82MOL0     H11294   8.416  10.244   4.782  0.0200  0.4699  0.1801
   82MOL0     H11295   8.462  10.138   4.637 -0.7733 -0.8743 -0.3932
   82MOL0     H11296   7.373  10.129   4.190  2.0092 -2.2925  1.5305
   82MOL0     H11297   7.140  10.133   4.216  3.3501 -1.7592 -1.1325
   82MOL0     H11298   6.779  10.172   4.586 -0.3612 -2.0638  0.5103
   82MOL0     H11299   6.544  10.082   4.583  0.1920 -2.2832 -0.1396
   82MOL0     H11300   4.926   9.940   4.931  0.8329  1.5106 -1.2764
   82MOL0     H11301   4.736   9.934   5.076  0.7108 -0.3755  0.1679
   82MOL0     H11302   4.213   9.867   4.978  0.6764 -2.2947  1.2086
   82MOL0     H11303   3.975   9.837   5.072 -0.9232 -1.0095  1.9173
   82MOL0     H11304   3.887   9.951   5.507  2.7298  0.3875 -1.8610
   82MOL0     H11305   3.875  10.101   5.424 -3.2100  0.6228  2.7018
   82MOL0     H11306   3.656   9.890   5.377  0.4366  0.0136 -2.0452
   82MOL0     H11307   3.662  10.062   5.335 -2.4433 -0.2470  1.3804
   82MOL0     H11308   3.654   9.969   5.630 -2.1856  2.9638  3.5294
   82MOL0     H11309   3.658  10.129   5.575  0.4222 -0.3080  1.7655
   82MOL0     H11310   3.445  10.078   5.456 -1.8348 -1.9818 -1.5763
   82MOL0     H11311   3.430  10.043   5.631  0.5184  3.4623 -1.3633
   82MOL0     H11312   3.375   9.656   5.487  0.2919  0.5418 -4.0191
   82MOL0     H11313   4.116  10.029   5.434  3.2024 -0.8798  1.1435
   82MOL0     H11314   4.325  10.074   5.466  1.4404  0.3889  0.0697
   82MOL0     H11315   4.451  10.003   5.369  0.7124  0.5878 -0.7240
   82MOL0     H11316   4.376  10.162   5.325 -0.7928  1.3849  0.6293
   83MOL0     O11317  10.483   3.978   9.602 -0.3272 -0.1112 -0.2080
   83MOL0     C11318  10.483   3.965   9.480 -0.3487 -0.0769 -0.5123
   83MOL0     O11319  10.374   3.974   9.404 -0.2158  0.5136  0.5283
   83MOL0     C11320  10.272   4.054   9.454  0.3940  0.9661  0.1533
   83MOL0     C11321  10.292   4.173   9.515 -0.5654 -0.2571  0.7026
   83MOL0     C11322  10.186   4.256   9.553  0.1750 -0.6431  0.5186
   83MOL0     C11323  10.057   4.213   9.544 -0.0813  0.0505 -0.3938
   83MOL0     O11324   9.966   4.293   9.600 -0.2741 -0.3873 -0.2778
   83MOL0     C11325   9.823   4.273   9.605  0.2831  0.3017  0.5850
   83MOL0     C11326   9.751   4.381   9.690  0.3009  0.6254 -0.1896
   83MOL0     C11327   9.789   4.527   9.635  0.0893 -0.6404 -0.2643
   83MOL0     C11328   9.709   4.637   9.709 -0.4588 -0.3264  0.1425
   83MOL0     C11329   9.725   4.771   9.633 -0.1161 -0.5021  0.0005
   83MOL0     C11330   9.684   4.886   9.724  0.2293  0.4880  0.5236
   83MOL0     C11331   9.715   5.021   9.645  0.3077  0.6394 -0.2959
   83MOL0     C11332   9.585   5.070   9.580 -1.3004  0.0622  0.6055
   83MOL0     N11333   9.496   5.121   9.685 -0.1355 -0.3584 -1.1241
   83MOL0     C11334   9.359   5.133   9.672  0.2417 -0.1975 -0.2766
   83MOL0     C11335   9.312   5.195   9.794 -0.4991  0.2022  0.3805
   83MOL0     C11336   9.159   5.215   9.823  0.6582  0.0600 -0.8037
   83MOL0     C11337   9.079   5.272   9.711 -0.8182 -0.2710  0.4201
   83MOL0     C11338   9.125   5.396   9.631  0.3613 -0.3948  0.1383
   83MOL0     C11339   9.154   5.529   9.713  0.3438  0.1810 -0.1451
   83MOL0     O11340   9.286   5.542   9.763 -0.0153 -0.2309 -0.2966
   83MOL0     C11341   9.385   5.593   9.679  0.7744  0.4004  0.9328
   83MOL0     C11342   9.377   5.710   9.609 -0.0328 -0.9704 -0.1038
   83MOL0     C11343   9.496   5.754   9.535  0.3734  0.3602 -0.2657
   83MOL0     C11344   9.482   5.887   9.467 -0.0426  0.5453 -0.5408
   83MOL0     C11345   9.614   5.671   9.525 -0.9569 -0.1977 -0.2805
   83MOL0     C11346   9.742   5.702   9.453 -0.2901  0.4171  0.1734
   83MOL0     O11347   9.809   5.592   9.412 -0.1901 -0.7690 -0.7765
   83MOL0     C11348   9.940   5.605   9.369  0.0845  0.1951 -0.8608
   83MOL0     C11349  10.036   5.678   9.445  0.4265 -1.4441  0.7837
   83MOL0     C11350  10.170   5.676   9.391  0.1050 -0.5736 -0.3674
   83MOL0     C11351  10.199   5.617   9.268 -0.4580 -0.6763 -0.1418
   83MOL0     O11352  10.326   5.619   9.212  0.1023 -0.2386  0.9526
   83MOL0     C11353  10.440   5.689   9.269  0.7186  0.8760  0.6325
   83MOL0     C11354  10.531   5.585   9.330 -0.5147  0.8042  0.2791
   83MOL0     C11355  10.569   5.465   9.239  0.4712  0.2763  0.2497
   83MOL0     C11356  10.696   5.394   9.295 -0.5353 -0.7270 -0.2254
   83MOL0     C11357  10.708   5.250   9.232  1.0281 -0.6431 -0.4122
   83MOL0     C11358  10.841   5.187   9.252  0.2392  0.1334  0.5850
   83MOL0     C11359  10.837   5.042   9.213 -1.3036  0.3255  0.0926
   83MOL0     C11360  10.973   4.989   9.177 -0.0175  0.0138  0.3428
   83MOL0    Cl11361  10.959   4.810   9.146 -0.1817 -0.2032  0.1329
   83MOL0     C11362  10.103   5.557   9.190  0.2400 -0.4093  0.4435
   83MOL0     C11363   9.970   5.546   9.241  0.0955 -0.4068  0.1939
   83MOL0     O11364   9.785   5.818   9.453  0.7059 -0.2731 -0.1733
   83MOL0     C11365   9.614   5.551   9.589 -0.3912  0.0020 -0.0298
   83MOL0     C11366   9.502   5.518   9.666  0.0503  0.3245 -0.5178
   83MOL0     N11367   9.425   5.208   9.871 -0.6009  0.6455 -0.7569
   83MOL0     N11368   9.534   5.167   9.804 -0.1783 -0.6689 -1.1719
   83MOL0     C11369  10.029   4.090   9.495  0.3983 -0.0321 -0.0860
   83MOL0     C11370  10.136   4.011   9.442  0.0630  0.4476  0.3439
   83MOL0     C11371  10.608   3.913   9.416  0.9150 -0.8435 -0.2810
   83MOL0     C11372  10.586   3.864   9.287 -0.2327 -0.5957 -0.1737
   83MOL0     C11373  10.695   3.812   9.213 -0.7050 -0.7206  0.1808
   83MOL0     C11374  10.822   3.806   9.270 -0.6369 -0.8790  0.0273
   83MOL0     O11375  10.936   3.775   9.196  0.1837  0.4217 -1.6840
   83MOL0     C11376  10.956   3.629   9.199  0.8447  0.3658  1.1885
   83MOL0     C11377  11.039   3.580   9.318  1.0145  0.2405  0.8507
   83MOL0     C11378  11.167   3.666   9.331 -0.5279  0.2818 -0.2812
   83MOL0     C11379  11.274   3.603   9.418 -1.3991  0.7637 -0.5137
   83MOL0     C11380  11.231   3.607   9.554  0.1071  0.5787 -0.4318
   83MOL0     C11381  11.196   3.602   9.677  0.3195  0.2949 -0.2408
   83MOL0     C11382  10.844   3.862   9.395 -1.0751  0.3067 -0.5380
   83MOL0     C11383  10.743   3.918   9.470  0.2449 -0.2308  1.0350
   83MOL0     C11384  10.771   3.987   9.597  0.5826  0.1134  0.6777
   83MOL0     H11385  10.395   4.206   9.527 -0.3466 -1.0077  0.9084
   83MOL0     H11386  10.216   4.350   9.599 -0.2113 -0.3820  0.2381
   83MOL0     H11387   9.787   4.175   9.635  2.6275 -0.1719  2.1099
   83MOL0     H11388   9.787   4.287   9.503  1.6104  1.0141  0.1972
   83MOL0     H11389   9.643   4.367   9.688 -0.1485  3.4425  0.5299
   83MOL0     H11390   9.784   4.368   9.794  2.1797 -0.8932 -0.9089
   83MOL0     H11391   9.897   4.540   9.648  0.7709 -4.4451 -1.0371
   83MOL0     H11392   9.776   4.529   9.527  0.8956 -2.0155 -0.4167
   83MOL0     H11393   9.603   4.611   9.710 -1.1156  2.1368 -0.6401
   83MOL0     H11394   9.744   4.646   9.812  2.0936 -3.8347 -0.2050
   83MOL0     H11395   9.657   4.769   9.547 -1.5353  1.2225  1.0245
   83MOL0     H11396   9.830   4.779   9.604 -0.3526 -0.0949 -0.7553
   83MOL0     H11397   9.577   4.873   9.740 -0.2005  0.8551 -1.6813
   83MOL0     H11398   9.741   4.878   9.817 -0.4322  0.5355  0.9327
   83MOL0     H11399   9.792   4.990   9.573 -0.8595 -0.9504 -0.9231
   83MOL0     H11400   9.767   5.088   9.715  1.3890  0.6225 -1.0662
   83MOL0     H11401   9.603   5.151   9.509 -2.3730 -0.2151 -0.0137
   83MOL0     H11402   9.533   4.983   9.540 -2.1264 -0.3767  2.5284
   83MOL0     H11403   9.307   5.079   9.594  0.2061  0.8217 -0.9781
   83MOL0     H11404   9.141   5.281   9.908  0.6347 -1.0799  0.0963
   83MOL0     H11405   9.117   5.118   9.849 -3.9745  2.1616  0.6141
   83MOL0     H11406   9.054   5.194   9.638 -0.4614  0.2317 -0.2459
   83MOL0     H11407   8.983   5.292   9.759 -1.4832 -2.6666  0.2358
   83MOL0     H11408   9.211   5.375   9.567  0.9656  2.0737  0.0457
   83MOL0     H11409   9.034   5.415   9.574 -0.8244 -0.4983  1.9174
   83MOL0     H11410   9.117   5.617   9.661  0.1231  0.4686  0.4845
   83MOL0     H11411   9.086   5.525   9.799 -0.9186  1.7207 -1.0271
   83MOL0     H11412   9.280   5.758   9.620  0.3510 -0.4286  1.2120
   83MOL0     H11413   9.543   5.959   9.522  1.5005 -1.0626 -0.0397
   83MOL0     H11414   9.376   5.913   9.464 -1.1532 -2.6251  2.7547
   83MOL0     H11415   9.526   5.872   9.368  0.1696 -1.0007 -0.2338
   83MOL0     H11416  10.007   5.740   9.530  1.0051  0.2977 -0.2367
   83MOL0     H11417  10.250   5.720   9.451  0.3244 -0.4278 -0.7630
   83MOL0     H11418  10.485   5.736   9.181  0.1649 -0.8485 -0.6462
   83MOL0     H11419  10.401   5.769   9.332 -1.6935 -0.2843  0.7375
   83MOL0     H11420  10.623   5.634   9.362 -1.0895  0.9925  1.6939
   83MOL0     H11421  10.471   5.565   9.419 -0.6462  0.4742  0.1198
   83MOL0     H11422  10.588   5.496   9.136 -0.0297  2.0352  0.6389
   83MOL0     H11423  10.482   5.398   9.239  0.1445  0.6590 -1.2622
   83MOL0     H11424  10.688   5.397   9.404 -0.4271 -1.1022 -0.2058
   83MOL0     H11425  10.780   5.462   9.279 -3.2201  2.7682 -0.8008
   83MOL0     H11426  10.620   5.194   9.265 -1.6691  1.9895 -2.5129
   83MOL0     H11427  10.687   5.250   9.124  0.4198  0.2519 -0.3043
   83MOL0     H11428  10.865   5.188   9.358  1.5462 -3.9819  0.4848
   83MOL0     H11429  10.925   5.236   9.202  0.7937 -0.5628  0.8206
   83MOL0     H11430  10.774   5.022   9.126  1.1782 -0.6760 -1.5800
   83MOL0     H11431  10.792   4.994   9.301 -1.0175 -0.0223  0.0524
   83MOL0     H11432  11.048   4.999   9.256  0.4516 -1.4401  0.1146
   83MOL0     H11433  11.008   5.040   9.088 -1.5245 -0.5976 -0.6392
   83MOL0     H11434  10.128   5.509   9.096  0.8479 -1.0238  0.9079
   83MOL0     H11435   9.886   5.506   9.185 -1.2079  3.5239 -1.0097
   83MOL0     H11436   9.702   5.488   9.597 -0.9669 -0.6032  2.2204
   83MOL0     H11437   9.504   5.426   9.725  1.0272  0.6600 -0.0043
   83MOL0     H11438   9.925   4.063   9.508 -0.5566  2.7779 -1.0429
   83MOL0     H11439  10.116   3.911   9.403 -0.5023 -0.0700  1.8683
   83MOL0     H11440  10.490   3.857   9.238 -0.4558 -3.1073  0.4639
   83MOL0     H11441  10.684   3.794   9.107 -0.8584  3.8089 -0.7900
   83MOL0     H11442  10.855   3.588   9.206  0.5096  1.0157  0.3728
   83MOL0     H11443  11.001   3.597   9.105 -1.3183 -1.4690  0.7105
   83MOL0     H11444  11.067   3.476   9.299  1.0640  0.1468  1.4283
   83MOL0     H11445  10.977   3.582   9.408  0.7404 -1.0936  0.7135
   83MOL0     H11446  11.214   3.672   9.232  2.5715 -1.1203  0.9535
   83MOL0     H11447  11.139   3.760   9.378 -1.2906 -0.3089  0.4739
   83MOL0     H11448  11.369   3.656   9.410 -1.3136  0.5426 -1.0085
   83MOL0     H11449  11.303   3.501   9.392  2.4163  1.8827 -1.3251
   83MOL0     H11450  11.173   3.598   9.781 -0.3362  0.5689 -0.3672
   83MOL0     H11451  10.947   3.864   9.428 -0.8209 -0.3082 -1.2607
   83MOL0     H11452  10.753   3.920   9.682 -3.0970  3.3692  2.7674
   83MOL0     H11453  10.874   4.022   9.603 -0.0522  2.2997 -0.3741
   83MOL0     H11454  10.701   4.070   9.612 -1.9972 -1.8049  0.1581
   84MOL0     O11455  11.247   4.359   5.300  0.8390 -0.5073 -0.1362
   84MOL0     C11456  11.231   4.335   5.423  0.1359  0.8877 -0.7157
   84MOL0     O11457  11.332   4.292   5.511 -0.3165 -0.2737  0.5077
   84MOL0     C11458  11.454   4.258   5.462 -0.1601  0.7701 -0.0985
   84MOL0     C11459  11.561   4.276   5.550 -0.1974 -0.4785 -0.3481
   84MOL0     C11460  11.684   4.224   5.524  0.4708  0.0185  0.5997
   84MOL0     C11461  11.705   4.142   5.407 -0.3566 -0.1109 -0.1590
   84MOL0     O11462  11.833   4.099   5.394 -0.0854 -0.5570 -0.4862
   84MOL0     C11463  11.900   4.155   5.281  0.0585 -0.2238  0.1596
   84MOL0     C11464  12.034   4.082   5.270  0.5183 -0.1309 -1.1490
   84MOL0     C11465  12.009   3.942   5.228 -0.1445 -0.7434 -0.0603
   84MOL0     C11466  11.979   3.845   5.353 -0.3535 -0.8260  0.5924
   84MOL0     C11467  12.002   3.699   5.317 -0.5483  0.4187  0.5443
   84MOL0     C11468  11.949   3.594   5.408  0.5358  0.3133 -0.1822
   84MOL0     C11469  12.049   3.475   5.421  0.4045  0.0053  0.4818
   84MOL0     C11470  12.011   3.385   5.540 -0.0012 -0.3089  0.3413
   84MOL0     N11471  11.884   3.305   5.534 -0.5700  0.7247  0.0649
   84MOL0     C11472  11.763   3.373   5.546 -0.3702 -0.5607  0.0195
   84MOL0     C11473  11.677   3.270   5.569 -0.2493 -0.0529  0.2777
   84MOL0     C11474  11.536   3.301   5.613  0.2012  0.2044  0.0927
   84MOL0     C11475  11.449   3.196   5.555  0.9052 -0.9514 -0.3829
   84MOL0     C11476  11.299   3.250   5.564  0.6085  0.1614 -0.6674
   84MOL0     C11477  11.194   3.143   5.545  0.7521  0.4218  0.0266
   84MOL0     O11478  11.224   3.039   5.644 -0.0875 -0.2697  0.7599
   84MOL0     C11479  11.130   3.026   5.738  0.0896  1.3048 -0.9197
   84MOL0     C11480  11.167   3.045   5.874  0.3591  0.2977 -1.0673
   84MOL0     C11481  11.083   3.007   5.984  0.6577 -0.4019  0.0042
   84MOL0     C11482  11.132   3.027   6.122  0.5095  0.3208  0.3961
   84MOL0     C11483  10.944   2.967   5.953 -0.0260 -0.7084 -0.1362
   84MOL0     C11484  10.835   2.936   6.046  0.5120  0.1407 -0.7286
   84MOL0     O11485  10.738   2.846   6.010 -0.2524 -0.3459  0.1134
   84MOL0     C11486  10.663   2.788   6.115  0.4646  0.0340 -0.3979
   84MOL0     C11487  10.510   2.791   6.103 -0.0679 -0.2898  0.1739
   84MOL0     C11488  10.435   2.719   6.193  0.6676 -0.1736 -0.1096
   84MOL0     C11489  10.500   2.646   6.294  0.2385  0.2159 -0.9181
   84MOL0     O11490  10.429   2.585   6.393  1.3677 -0.5209  0.9786
   84MOL0     C11491  10.436   2.441   6.382 -0.1115 -0.0949 -1.0783
   84MOL0     C11492  10.383   2.366   6.509 -0.3766 -0.8272  0.1453
   84MOL0     C11493  10.475   2.362   6.633  0.9484 -0.5418  0.3375
   84MOL0     C11494  10.455   2.229   6.716 -0.1432 -0.2055 -0.1448
   84MOL0     C11495  10.541   2.216   6.826 -0.7693  0.8063 -0.5522
   84MOL0     C11496  10.482   2.298   6.950  0.5709  0.5369 -0.0702
   84MOL0     C11497  10.527   2.247   7.085  0.9888  0.4182 -0.3859
   84MOL0     C11498  10.679   2.224   7.097  0.1117 -0.3777  0.5944
   84MOL0    Cl11499  10.714   2.051   7.043 -0.4471  0.3020  0.1001
   84MOL0     C11500  10.650   2.651   6.312  0.3875 -0.3989 -0.1841
   84MOL0     C11501  10.724   2.722   6.217 -0.0671 -0.4959 -0.7037
   84MOL0     O11502  10.845   2.995   6.158  0.0125  0.5699 -0.4433
   84MOL0     C11503  10.908   2.950   5.816  0.3250  0.4082  0.0652
   84MOL0     C11504  10.998   2.975   5.708 -0.6875 -0.3845  0.2723
   84MOL0     N11505  11.737   3.153   5.574  0.2270  0.6024 -0.1445
   84MOL0     N11506  11.864   3.171   5.569 -0.6602  0.2433  0.4380
   84MOL0     C11507  11.599   4.136   5.312 -0.5183  0.0188  0.2667
   84MOL0     C11508  11.478   4.198   5.337 -0.2954  0.9659  0.4667
   84MOL0     C11509  11.094   4.353   5.488  0.0222  0.5256  1.2777
   84MOL0     C11510  10.979   4.347   5.408  0.2718 -1.0375  0.3564
   84MOL0     C11511  10.846   4.354   5.455  0.1494  0.6574  0.5350
   84MOL0     C11512  10.824   4.375   5.596 -0.2162  0.1293  0.1977
   84MOL0     O11513  10.701   4.404   5.648 -0.3050  0.4924 -0.3674
   84MOL0     C11514  10.581   4.381   5.578 -0.1960  0.5743 -0.4168
   84MOL0     C11515  10.537   4.491   5.487  0.2096  0.4509  0.3510
   84MOL0     C11516  10.533   4.627   5.547  0.1714 -0.2366 -0.7403
   84MOL0     C11517  10.499   4.735   5.440 -0.4577  1.2264 -0.8272
   84MOL0     C11518  10.452   4.862   5.497  0.5109  0.1196 -0.4371
   84MOL0     C11519  10.418   4.959   5.561  0.1041 -0.5393 -0.1580
   84MOL0     C11520  10.940   4.383   5.676 -0.8991 -0.0002 -0.8926
   84MOL0     C11521  11.076   4.365   5.626 -0.6816 -0.8413  0.0604
   84MOL0     C11522  11.191   4.374   5.727 -0.9065 -0.5875 -0.1345
   84MOL0     H11523  11.542   4.332   5.642 -0.6647 -0.2482 -0.5820
   84MOL0     H11524  11.761   4.225   5.601  0.3446 -3.6506  0.9819
   84MOL0     H11525  11.916   4.263   5.288 -1.6656  0.0662  0.1455
   84MOL0     H11526  11.840   4.136   5.191 -1.2089  1.4407  0.6046
   84MOL0     H11527  12.101   4.121   5.193 -2.3842 -2.0963 -5.0174
   84MOL0     H11528  12.084   4.086   5.367 -2.0523  1.1341  0.2090
   84MOL0     H11529  11.940   3.944   5.143  2.5302  2.4659 -2.4144
   84MOL0     H11530  12.103   3.903   5.187  0.0776  1.4443 -1.8427
   84MOL0     H11531  12.037   3.865   5.444 -1.6582  1.2208  1.0295
   84MOL0     H11532  11.872   3.857   5.370 -0.9345 -2.3770 -1.4732
   84MOL0     H11533  12.111   3.686   5.314 -0.7571 -1.5693  0.0116
   84MOL0     H11534  11.960   3.677   5.219 -1.2672  3.2209  0.1341
   84MOL0     H11535  11.946   3.641   5.507  0.9407 -3.5227  1.8221
   84MOL0     H11536  11.851   3.562   5.372  0.6230 -0.9282  0.6570
   84MOL0     H11537  12.151   3.508   5.442 -0.4561  2.5563  0.9685
   84MOL0     H11538  12.043   3.420   5.327 -0.6498  1.1509 -0.1417
   84MOL0     H11539  12.096   3.317   5.546  2.4887  2.0111 -3.8723
   84MOL0     H11540  12.002   3.441   5.634 -0.1051  1.4226 -0.6577
   84MOL0     H11541  11.739   3.479   5.545  0.0812 -0.4560 -0.6991
   84MOL0     H11542  11.507   3.402   5.584  1.6804  1.6441  3.2131
   84MOL0     H11543  11.532   3.296   5.722  0.7300 -0.8150  0.0852
   84MOL0     H11544  11.479   3.173   5.452  1.8775  0.9901 -0.5643
   84MOL0     H11545  11.451   3.106   5.617  0.0865 -0.2034  0.7666
   84MOL0     H11546  11.285   3.289   5.665  2.5857  2.8886 -1.3141
   84MOL0     H11547  11.276   3.335   5.499 -1.7253 -1.1085 -1.5925
   84MOL0     H11548  11.097   3.189   5.567  0.5309  0.5328 -1.1642
   84MOL0     H11549  11.201   3.102   5.444 -1.1388 -0.2427  0.1191
   84MOL0     H11550  11.270   3.062   5.903 -1.0529  2.0487  3.9538
   84MOL0     H11551  11.241   3.034   6.125  0.4578  2.0725 -0.5708
   84MOL0     H11552  11.106   2.935   6.176 -0.3721  0.8086  0.8236
   84MOL0     H11553  11.079   3.116   6.157 -0.0546  0.5195 -0.8929
   84MOL0     H11554  10.471   2.862   6.031  0.4007  0.6973  0.8629
   84MOL0     H11555  10.327   2.716   6.188  0.6252 -0.7823  0.8428
   84MOL0     H11556  10.372   2.416   6.297  0.0965  0.1822 -1.3165
   84MOL0     H11557  10.542   2.414   6.376 -0.2859 -1.6682  1.3155
   84MOL0     H11558  10.292   2.423   6.532  1.8683  2.1096  2.5444
   84MOL0     H11559  10.361   2.264   6.478  2.1573 -1.4720  0.2868
   84MOL0     H11560  10.452   2.447   6.699 -2.6504 -0.7374 -0.4547
   84MOL0     H11561  10.578   2.354   6.597  0.2274 -4.3647 -1.3709
   84MOL0     H11562  10.476   2.135   6.665  0.7267 -0.0842 -0.0176
   84MOL0     H11563  10.358   2.219   6.767  0.4599 -2.8008  0.6824
   84MOL0     H11564  10.541   2.112   6.860 -1.1649  0.8932 -0.2844
   84MOL0     H11565  10.648   2.238   6.813 -1.3480  3.2419 -1.9424
   84MOL0     H11566  10.373   2.290   6.957  0.6946 -1.7584 -0.0759
   84MOL0     H11567  10.513   2.403   6.945  1.1996  0.3674  0.2703
   84MOL0     H11568  10.473   2.157   7.116  2.9530 -0.0679  1.9222
   84MOL0     H11569  10.507   2.332   7.152  0.2895  0.9851 -1.2840
   84MOL0     H11570  10.717   2.242   7.198  2.1890 -3.6687  0.5688
   84MOL0     H11571  10.721   2.299   7.029  2.0128  2.0667  4.1623
   84MOL0     H11572  10.707   2.599   6.388 -2.2759 -1.5706  1.1617
   84MOL0     H11573  10.832   2.727   6.231 -0.2742 -0.4276  1.2432
   84MOL0     H11574  10.812   2.904   5.796  0.5310 -1.3704  2.6384
   84MOL0     H11575  10.964   2.955   5.607 -2.7473 -0.6329  0.9583
   84MOL0     H11576  11.619   4.067   5.230  2.8565  0.5245  0.5188
   84MOL0     H11577  11.399   4.184   5.264 -1.4897  0.3012  1.8565
   84MOL0     H11578  10.984   4.334   5.301  1.1702  1.9537 -0.0508
   84MOL0     H11579  10.765   4.352   5.384  0.0049 -1.4373  0.6954
   84MOL0     H11580  10.594   4.279   5.542 -0.7145  0.3552  0.0188
   84MOL0     H11581  10.498   4.377   5.648 -3.8735  2.9536 -4.1807
   84MOL0     H11582  10.438   4.466   5.448  1.0792  0.7100 -2.2066
   84MOL0     H11583  10.602   4.494   5.399  1.0392  0.3295  0.9472
   84MOL0     H11584  10.450   4.626   5.619  1.2608 -0.0266  0.5524
   84MOL0     H11585  10.625   4.660   5.596  1.0245  0.6815 -2.8026
   84MOL0     H11586  10.430   4.682   5.374  1.2327 -1.5745 -0.4862
   84MOL0     H11587  10.588   4.756   5.380 -0.0495  1.3221 -0.1988
   84MOL0     H11588  10.375   5.047   5.604  0.7397 -1.5377  2.7551
   84MOL0     H11589  10.912   4.402   5.779  2.2935 -3.8115  0.9044
   84MOL0     H11590  11.168   4.432   5.817 -0.4023  2.1044 -1.6116
   84MOL0     H11591  11.230   4.274   5.745 -0.5184 -0.3282  0.4923
   84MOL0     H11592  11.262   4.443   5.679 -0.6689 -0.6314  0.1496
   85MOL0     O11593   9.462   3.571   6.983  0.1921 -0.0897 -0.4916
   85MOL0     C11594   9.442   3.645   7.078  0.2817 -0.3133 -0.3339
   85MOL0     O11595   9.317   3.652   7.142 -0.2248 -0.1386  0.0857
   85MOL0     C11596   9.216   3.570   7.134  0.2571  0.1979  0.1441
   85MOL0     C11597   9.200   3.446   7.067 -0.0046  0.0646  0.4485
   85MOL0     C11598   9.083   3.375   7.073  0.5285  0.2223  0.7831
   85MOL0     C11599   8.976   3.438   7.134  0.0563  0.2414 -0.5149
   85MOL0     O11600   8.853   3.374   7.147  0.1937 -0.6494  0.1259
   85MOL0     C11601   8.801   3.306   7.032  0.6812  0.1752 -0.1281
   85MOL0     C11602   8.666   3.375   6.999  0.5029  0.0548  0.6587
   85MOL0     C11603   8.595   3.306   6.882  0.3919  0.4821  0.0076
   85MOL0     C11604   8.476   3.384   6.856  0.3163 -0.2282 -0.5174
   85MOL0     C11605   8.492   3.529   6.785  0.0503  0.1131  0.5304
   85MOL0     C11606   8.517   3.504   6.639 -0.0384  0.0241 -0.2183
   85MOL0     C11607   8.505   3.643   6.559 -0.6086 -0.7270 -0.3176
   85MOL0     C11608   8.603   3.756   6.600  0.2670 -0.8077  0.1344
   85MOL0     N11609   8.736   3.713   6.594 -0.4212  0.3212  0.2115
   85MOL0     C11610   8.808   3.634   6.683  0.0364 -1.3110  0.3889
   85MOL0     C11611   8.926   3.614   6.628 -1.2737  0.4627 -0.1728
   85MOL0     C11612   9.044   3.541   6.690  0.5816  0.9612  0.3128
   85MOL0     C11613   9.075   3.389   6.633 -0.1133  0.0694  0.6610
   85MOL0     C11614   9.222   3.354   6.674  0.3558  0.4255 -0.0768
   85MOL0     C11615   9.263   3.203   6.646 -0.5913 -0.1715 -0.0946
   85MOL0     O11616   9.397   3.177   6.692 -0.0506 -0.1537  0.2124
   85MOL0     C11617   9.426   3.061   6.761  0.5201 -0.1983 -0.2716
   85MOL0     C11618   9.556   3.037   6.808  0.5239  0.1872  0.6327
   85MOL0     C11619   9.604   2.916   6.849  0.0922 -0.8640 -0.5766
   85MOL0     C11620   9.750   2.911   6.892  0.0972  0.2859 -0.2444
   85MOL0     C11621   9.510   2.813   6.879  0.5893  0.2107  1.1119
   85MOL0     C11622   9.549   2.679   6.930  0.0776 -0.4858 -0.0041
   85MOL0     O11623   9.681   2.650   6.946 -0.9343 -1.2622 -0.3452
   85MOL0     C11624   9.741   2.533   6.996 -0.0285 -1.1665 -0.5337
   85MOL0     C11625   9.876   2.521   6.956  0.0184  0.0866  0.2415
   85MOL0     C11626   9.951   2.418   7.011 -0.2092  0.7263 -0.0620
   85MOL0     C11627   9.894   2.332   7.109 -0.3378  1.0887  0.2371
   85MOL0     O11628   9.958   2.231   7.171 -0.3837 -0.2898  0.2428
   85MOL0     C11629  10.084   2.180   7.122  0.6043 -0.6766  0.2629
   85MOL0     C11630  10.067   2.097   6.994 -0.5524 -0.8096  0.6173
   85MOL0     C11631  10.189   2.026   6.951 -0.3123  0.5051  0.2264
   85MOL0     C11632  10.176   1.982   6.808  0.1194  0.1932  0.3827
   85MOL0     C11633  10.294   1.885   6.757  0.7333  0.3117  0.0039
   85MOL0     C11634  10.256   1.831   6.618  0.0906  0.3425 -0.3328
   85MOL0     C11635  10.141   1.736   6.616 -1.0207 -0.4281 -0.2315
   85MOL0     C11636  10.148   1.624   6.511 -0.2308  0.1407  0.1808
   85MOL0    Cl11637  10.304   1.537   6.532 -0.1027 -0.1765  0.1843
   85MOL0     C11638   9.769   2.351   7.156  1.1437  0.1972  0.4550
   85MOL0     C11639   9.691   2.454   7.102 -0.7355 -0.0416  1.4875
   85MOL0     O11640   9.456   2.612   6.960 -0.1884  1.0143 -0.3872
   85MOL0     C11641   9.381   2.831   6.844 -0.2163 -0.6985  0.4336
   85MOL0     C11642   9.337   2.952   6.774  0.1469  0.6472 -0.4754
   85MOL0     N11643   8.928   3.674   6.504  0.7015 -0.2764 -0.2327
   85MOL0     N11644   8.812   3.721   6.477 -0.4250 -0.3315 -0.2987
   85MOL0     C11645   8.977   3.565   7.191 -0.0051 -0.5879  0.8252
   85MOL0     C11646   9.098   3.628   7.189 -0.1501  0.0922 -0.4032
   85MOL0     C11647   9.554   3.744   7.117 -0.0810 -0.5336 -0.3363
   85MOL0     C11648   9.524   3.858   7.197 -0.5708 -0.0043 -0.5013
   85MOL0     C11649   9.618   3.955   7.247  0.6278  0.5315 -0.3416
   85MOL0     C11650   9.751   3.947   7.202 -0.3371  0.3864 -0.6996
   85MOL0     O11651   9.843   4.042   7.253 -0.6293  0.5278 -0.4622
   85MOL0     C11652   9.980   4.032   7.223 -0.4085 -0.0156 -0.1307
   85MOL0     C11653  10.045   3.938   7.329  0.6604  0.1761 -0.7866
   85MOL0     C11654  10.147   3.846   7.259  0.2741 -0.2822  0.6379
   85MOL0     C11655  10.220   3.735   7.335  0.2157  0.7333  0.0595
   85MOL0     C11656  10.303   3.662   7.242 -0.0183 -0.4159  0.3670
   85MOL0     C11657  10.342   3.573   7.174 -0.7664 -0.4836  0.3620
   85MOL0     C11658   9.791   3.828   7.125  0.2817 -0.0255 -0.5167
   85MOL0     C11659   9.691   3.738   7.072  0.2584 -0.4695 -1.0744
   85MOL0     C11660   9.742   3.621   6.997 -0.7358  0.8478 -0.6783
   85MOL0     H11661   9.284   3.402   7.013  1.7747  1.4747  1.9100
   85MOL0     H11662   9.073   3.272   7.041 -1.8632  0.5835  0.1291
   85MOL0     H11663   8.770   3.204   7.054 -3.0878  1.7022  2.7160
   85MOL0     H11664   8.864   3.303   6.942 -0.6472  1.3779 -1.1533
   85MOL0     H11665   8.606   3.407   7.084 -0.5246 -0.6806  0.2244
   85MOL0     H11666   8.695   3.472   6.959 -0.6691 -0.8843 -2.7885
   85MOL0     H11667   8.660   3.309   6.794  1.2906  0.3129  0.6559
   85MOL0     H11668   8.559   3.208   6.914 -0.7732  2.0313  4.0147
   85MOL0     H11669   8.413   3.327   6.787 -1.2764  1.2867 -0.3920
   85MOL0     H11670   8.420   3.402   6.948  1.5752 -1.4834  0.5342
   85MOL0     H11671   8.577   3.588   6.821  0.1989 -0.2850  0.8414
   85MOL0     H11672   8.400   3.586   6.805  0.6682  1.4059 -0.1793
   85MOL0     H11673   8.610   3.453   6.615  1.4293  1.0497  2.8094
   85MOL0     H11674   8.435   3.441   6.604 -0.3053  0.2794 -0.0574
   85MOL0     H11675   8.402   3.677   6.576  0.6452  2.4397  1.7565
   85MOL0     H11676   8.504   3.616   6.453 -3.1062 -1.9859 -0.0740
   85MOL0     H11677   8.588   3.843   6.536  0.5542  0.3571  1.5831
   85MOL0     H11678   8.582   3.798   6.699 -0.4981  0.6769 -0.6343
   85MOL0     H11679   8.786   3.617   6.788 -5.2592 -0.5086 -0.2889
   85MOL0     H11680   9.027   3.530   6.797  3.2184 -1.9761  0.5569
   85MOL0     H11681   9.135   3.601   6.680  1.5524 -0.7249 -1.4590
   85MOL0     H11682   9.001   3.316   6.667  0.6315 -1.6490 -1.1763
   85MOL0     H11683   9.082   3.394   6.524 -3.2432  0.1816  0.3797
   85MOL0     H11684   9.296   3.413   6.619  1.1775 -1.5963 -1.2592
   85MOL0     H11685   9.238   3.369   6.781  4.1813 -1.0915 -0.2510
   85MOL0     H11686   9.183   3.141   6.687 -0.3378  0.1163  0.8723
   85MOL0     H11687   9.263   3.183   6.538 -1.0891  3.7332 -0.9929
   85MOL0     H11688   9.631   3.114   6.795 -0.5115  1.0836 -0.2079
   85MOL0     H11689   9.757   2.863   6.990  0.1911  1.2440  0.2255
   85MOL0     H11690   9.794   3.011   6.899 -1.0198  0.8299 -0.9430
   85MOL0     H11691   9.807   2.849   6.822  0.8609  0.7742 -0.0748
   85MOL0     H11692   9.909   2.589   6.879  1.5916 -0.8927  0.0077
   85MOL0     H11693  10.056   2.414   6.984 -0.2050 -3.4728 -0.0405
   85MOL0     H11694  10.146   2.270   7.119  0.8688 -0.8711 -0.1559
   85MOL0     H11695  10.127   2.118   7.201 -1.1278 -3.7370 -1.0009
   85MOL0     H11696  10.000   2.014   7.017 -0.6689 -0.5033  1.4365
   85MOL0     H11697  10.023   2.154   6.913 -0.1595 -2.9800 -1.2183
   85MOL0     H11698  10.201   1.949   7.028  1.0712  3.0563  2.7445
   85MOL0     H11699  10.277   2.091   6.962  0.2666 -0.3562  0.8825
   85MOL0     H11700  10.171   2.067   6.739 -0.8154 -0.4405 -0.3656
   85MOL0     H11701  10.081   1.928   6.799  2.2838 -3.9582  0.5068
   85MOL0     H11702  10.385   1.945   6.743  1.6801 -1.4796 -2.2388
   85MOL0     H11703  10.312   1.812   6.836  2.3226  0.7402  0.0649
   85MOL0     H11704  10.339   1.780   6.567 -2.0099 -1.1368 -2.4529
   85MOL0     H11705  10.245   1.922   6.558 -0.2877  0.6416  0.1833
   85MOL0     H11706  10.047   1.791   6.605 -2.3267 -2.0722  1.8871
   85MOL0     H11707  10.136   1.682   6.711 -2.5831  0.0366 -0.0257
   85MOL0     H11708  10.137   1.661   6.408  2.5239 -1.3174 -0.7383
   85MOL0     H11709  10.061   1.561   6.532 -2.2231  2.2134 -1.3082
   85MOL0     H11710   9.726   2.295   7.238  1.5133 -0.0500  0.4806
   85MOL0     H11711   9.593   2.482   7.141 -0.6482  1.2471  0.8356
   85MOL0     H11712   9.304   2.755   6.838 -0.1459 -0.7021 -0.4967
   85MOL0     H11713   9.233   2.955   6.744 -0.1974 -0.1311  0.5725
   85MOL0     H11714   8.885   3.613   7.221 -0.3959 -1.4545  1.0373
   85MOL0     H11715   9.116   3.731   7.217 -1.0914 -0.6123  3.2189
   85MOL0     H11716   9.422   3.866   7.233 -0.0009  0.7697  1.0374
   85MOL0     H11717   9.580   4.037   7.307  0.7404  1.2969 -1.2945
   85MOL0     H11718   9.997   3.999   7.120  0.5778  4.0965 -1.4678
   85MOL0     H11719  10.025   4.130   7.237 -0.1602 -0.3068  1.3097
   85MOL0     H11720   9.972   3.862   7.362  2.3235 -2.5637 -2.9720
   85MOL0     H11721  10.085   3.991   7.416  1.6210  2.0182 -2.2970
   85MOL0     H11722  10.088   3.792   7.183 -2.3905  0.4034  2.0932
   85MOL0     H11723  10.217   3.913   7.208 -0.6534  0.6449  0.5628
   85MOL0     H11724  10.151   3.664   7.381 -0.9930  1.7873 -0.0927
   85MOL0     H11725  10.277   3.770   7.422 -0.3460  1.3317  0.1911
   85MOL0     H11726  10.389   3.498   7.113  1.5845  1.2733 -0.1650
   85MOL0     H11727   9.895   3.823   7.095  0.6758 -1.0512  0.9629
   85MOL0     H11728   9.715   3.530   7.050  0.7048  0.3072 -0.8177
   85MOL0     H11729   9.680   3.613   6.907  1.1356 -0.3752 -1.9320
   85MOL0     H11730   9.848   3.627   6.971 -0.0402 -1.2314  1.3943
   86MOL0     O11731   5.070   8.475   9.939 -0.3009 -0.0502 -1.0748
   86MOL0     C11732   4.997   8.537   9.865  1.0228 -0.4144  0.7094
   86MOL0     O11733   5.032   8.645   9.790  0.2969 -0.7352 -1.3966
   86MOL0     C11734   5.162   8.657   9.734  0.4433  1.0840 -0.5837
   86MOL0     C11735   5.222   8.778   9.715  1.4978 -0.0836  0.3330
   86MOL0     C11736   5.339   8.788   9.642 -0.3975 -0.8705 -0.1090
   86MOL0     C11737   5.396   8.673   9.583  0.0823 -0.2324 -0.6265
   86MOL0     O11738   5.509   8.681   9.514 -0.0505 -0.1607 -0.4350
   86MOL0     C11739   5.602   8.777   9.562 -0.8076  0.1448 -0.0774
   86MOL0     C11740   5.737   8.714   9.532  0.0224  0.1024  0.0371
   86MOL0     C11741   5.751   8.587   9.615 -0.4075  0.0558  0.1134
   86MOL0     C11742   5.896   8.540   9.625 -0.3915  0.1812 -0.0630
   86MOL0     C11743   5.901   8.403   9.696 -0.3314  0.1090  0.4713
   86MOL0     C11744   6.045   8.357   9.697 -0.0978 -0.3275 -0.5405
   86MOL0     C11745   6.058   8.205   9.737 -0.9643 -0.7109  0.1362
   86MOL0     C11746   6.207   8.167   9.719 -0.5335  1.2501  0.2994
   86MOL0     N11747   6.298   8.261   9.783 -0.0352  0.3163 -0.0157
   86MOL0     C11748   6.307   8.283   9.919 -0.2646  0.2943 -0.5728
   86MOL0     C11749   6.402   8.375   9.938 -0.7432 -0.5742 -0.2270
   86MOL0     C11750   6.446   8.421  10.072 -0.8535  0.7497 -0.5631
   86MOL0     C11751   6.589   8.376  10.083  0.5759  0.3322  0.7792
   86MOL0     C11752   6.651   8.357  10.216 -0.1241 -1.1436 -0.7641
   86MOL0     C11753   6.807   8.321  10.218  0.6572  0.5098  1.0817
   86MOL0     O11754   6.822   8.184  10.187  0.9289 -0.4819 -0.7850
   86MOL0     C11755   6.922   8.121  10.261 -0.1171 -0.0337  0.5177
   86MOL0     C11756   6.913   7.989  10.288  0.0933 -0.6518 -0.1327
   86MOL0     C11757   7.021   7.911  10.339  0.0388 -0.6204 -0.2654
   86MOL0     C11758   6.985   7.766  10.363  0.2650 -0.2965  1.0742
   86MOL0     C11759   7.149   7.974  10.357  0.2078 -0.1856 -0.2339
   86MOL0     C11760   7.267   7.905  10.400 -0.6560 -0.8472  0.6261
   86MOL0     O11761   7.392   7.927  10.346  0.1914 -0.1265  0.1184
   86MOL0     C11762   7.500   7.860  10.395  0.0165  0.9759  0.3113
   86MOL0     C11763   7.507   7.719  10.373  0.1582 -0.0866  0.8128
   86MOL0     C11764   7.616   7.642  10.414 -0.4362 -0.2726  0.1369
   86MOL0     C11765   7.719   7.700  10.493 -0.2689  0.1834 -0.3629
   86MOL0     O11766   7.820   7.629  10.560  0.2590  0.1178  0.4955
   86MOL0     C11767   7.833   7.481  10.534 -0.4108 -0.2784  0.7927
   86MOL0     C11768   7.929   7.412  10.641 -0.6074 -0.4226 -0.2194
   86MOL0     C11769   7.966   7.262  10.615  0.6408  0.0680 -0.1318
   86MOL0     C11770   8.045   7.248  10.490  0.5967  0.1946  0.0336
   86MOL0     C11771   8.085   7.111  10.446  0.8673 -0.7479 -0.6871
   86MOL0     C11772   8.152   7.117  10.307  0.6087 -0.5456  0.0816
   86MOL0     C11773   8.288   7.192  10.315 -0.0081 -0.1099 -0.1646
   86MOL0     C11774   8.388   7.125  10.216  0.4835 -0.2231 -0.3818
   86MOL0    Cl11775   8.313   7.102  10.050 -0.3209  0.5269  0.0562
   86MOL0     C11776   7.711   7.838  10.520 -0.2344 -0.0538  0.4420
   86MOL0     C11777   7.599   7.921  10.471 -0.7654  0.5133  0.6516
   86MOL0     O11778   7.250   7.823  10.492 -0.4173 -0.7338 -0.7828
   86MOL0     C11779   7.155   8.112  10.331  0.5366 -0.7186 -0.1381
   86MOL0     C11780   7.050   8.185  10.281  0.4101 -0.5195 -0.0794
   86MOL0     N11781   6.443   8.412   9.810 -0.4000  0.2790 -0.0507
   86MOL0     N11782   6.377   8.348   9.717 -0.5669 -0.0180 -0.0863
   86MOL0     C11783   5.337   8.549   9.608  0.0310  0.4563 -0.3910
   86MOL0     C11784   5.220   8.539   9.686 -0.3502 -0.3284 -0.1230
   86MOL0     C11785   4.849   8.502   9.863  0.3545  0.2718 -0.4132
   86MOL0     C11786   4.759   8.604   9.823  0.2233  0.3514  0.8766
   86MOL0     C11787   4.624   8.592   9.833 -0.0083  0.3352  0.1864
   86MOL0     C11788   4.570   8.474   9.872  0.3135  0.3272 -0.4559
   86MOL0     O11789   4.436   8.457   9.883  0.8501  0.3778 -0.6075
   86MOL0     C11790   4.349   8.525   9.790  0.4278  0.5162 -0.2185
   86MOL0     C11791   4.386   8.489   9.651 -0.8962  0.0033 -0.2280
   86MOL0     C11792   4.266   8.515   9.554  0.1576 -0.2320 -1.0911
   86MOL0     C11793   4.297   8.489   9.400  0.4142  0.0121  0.0938
   86MOL0     C11794   4.172   8.499   9.330  0.3291  0.4060  0.2360
   86MOL0     C11795   4.069   8.495   9.264  0.1977 -0.0330  0.7796
   86MOL0     C11796   4.651   8.367   9.916 -0.0352 -0.1668 -0.6581
   86MOL0     C11797   4.793   8.381   9.912  0.6724 -0.0182 -0.7310
   86MOL0     C11798   4.869   8.273   9.971 -0.1065 -0.7405 -0.2556
   86MOL0     H11799   5.168   8.870   9.736 -0.1656 -0.7305 -0.9167
   86MOL0     H11800   5.367   8.889   9.615  2.2356  0.0177  4.7095
   86MOL0     H11801   5.587   8.779   9.670 -0.5804 -2.3660  0.0504
   86MOL0     H11802   5.600   8.871   9.506  0.4297  1.2232  1.5880
   86MOL0     H11803   5.752   8.684   9.428  3.4944 -2.4201  1.0910
   86MOL0     H11804   5.811   8.792   9.554  0.0365  0.6751 -1.8772
   86MOL0     H11805   5.721   8.605   9.719  1.7859 -1.8883  1.1951
   86MOL0     H11806   5.688   8.508   9.575 -1.4976 -0.3314  2.4231
   86MOL0     H11807   5.939   8.521   9.526 -2.1862  0.1588 -0.8687
   86MOL0     H11808   5.955   8.618   9.672 -2.5360  2.5152 -1.0383
   86MOL0     H11809   5.833   8.333   9.648 -2.1231  2.5723 -0.7815
   86MOL0     H11810   5.858   8.398   9.797 -1.4619  1.5773  0.1015
   86MOL0     H11811   6.080   8.363   9.593 -0.1482 -0.3544 -0.5581
   86MOL0     H11812   6.117   8.415   9.757  1.5029 -2.7658  0.0423
   86MOL0     H11813   5.986   8.150   9.676 -2.1868  0.2788  0.6271
   86MOL0     H11814   6.045   8.181   9.843  1.7242 -2.0761  0.2385
   86MOL0     H11815   6.223   8.073   9.772  0.0377 -0.5529 -2.8280
   86MOL0     H11816   6.229   8.145   9.614 -1.5564 -0.7211  0.4488
   86MOL0     H11817   6.268   8.230  10.005  3.6258 -1.5107  0.2871
   86MOL0     H11818   6.380   8.384  10.151  0.6022 -0.3339  0.1907
   86MOL0     H11819   6.449   8.529  10.088  0.0613  0.6963 -0.3206
   86MOL0     H11820   6.585   8.280  10.031 -1.1460  0.9529 -0.3263
   86MOL0     H11821   6.655   8.435  10.018  2.5050 -1.5063  0.9476
   86MOL0     H11822   6.632   8.457  10.256 -1.5122 -0.9760 -1.7803
   86MOL0     H11823   6.595   8.288  10.279  1.2505 -0.8434  0.8650
   86MOL0     H11824   6.860   8.373  10.137  1.2747 -1.0415  0.4430
   86MOL0     H11825   6.849   8.345  10.316 -0.8393 -0.0111  1.8938
   86MOL0     H11826   6.817   7.938  10.281 -0.1126 -0.4168  0.8246
   86MOL0     H11827   6.883   7.744  10.332  0.3480  1.0243 -0.2431
   86MOL0     H11828   6.975   7.753  10.471 -0.5821 -0.0757  1.0261
   86MOL0     H11829   7.050   7.685  10.328  0.6285  0.5512 -0.2809
   86MOL0     H11830   7.436   7.684  10.299 -0.1285  2.7563 -0.3686
   86MOL0     H11831   7.619   7.541  10.376 -1.7651  1.0878 -4.2703
   86MOL0     H11832   7.733   7.437  10.542 -0.1049 -0.8891  1.3299
   86MOL0     H11833   7.875   7.462  10.435  1.4484 -2.5878  1.9363
   86MOL0     H11834   8.024   7.462  10.656  1.6375 -4.3475  0.0447
   86MOL0     H11835   7.872   7.409  10.735 -0.3870 -0.8381 -0.0934
   86MOL0     H11836   7.881   7.194  10.608  0.8223  0.0308 -3.3354
   86MOL0     H11837   8.029   7.227  10.698  0.7178  0.8993  0.1715
   86MOL0     H11838   8.140   7.299  10.503 -0.0142  1.2698  0.4232
   86MOL0     H11839   7.988   7.295  10.408  1.4563 -2.2650 -2.1154
   86MOL0     H11840   8.155   7.074  10.522  0.0089 -0.4953  0.2531
   86MOL0     H11841   8.000   7.042  10.441 -1.8966  2.5558 -3.9771
   86MOL0     H11842   8.082   7.165  10.238 -0.3761 -0.4018  1.1413
   86MOL0     H11843   8.174   7.016  10.271 -2.2543 -1.7194  1.2494
   86MOL0     H11844   8.325   7.193  10.418  1.9432 -3.4319 -0.6826
   86MOL0     H11845   8.270   7.296  10.286  3.5971  0.4924 -0.7343
   86MOL0     H11846   8.416   7.026  10.254  1.1427 -0.4845 -1.4974
   86MOL0     H11847   8.474   7.192  10.210 -0.6146  1.2432 -0.2228
   86MOL0     H11848   7.783   7.886  10.585  1.9153 -2.4482 -0.0106
   86MOL0     H11849   7.592   8.027  10.494  3.8639  0.8881  1.2980
   86MOL0     H11850   7.248   8.168  10.326  0.1103  0.0160 -0.0930
   86MOL0     H11851   7.064   8.289  10.256 -1.3563 -0.3277 -0.3955
   86MOL0     H11852   5.378   8.456   9.568  0.7770  0.4200  0.4218
   86MOL0     H11853   5.186   8.438   9.707  2.7725 -1.8892 -1.8406
   86MOL0     H11854   4.804   8.700   9.799 -2.0567  1.4217  0.6253
   86MOL0     H11855   4.572   8.683   9.804 -0.2777  0.6633  1.6275
   86MOL0     H11856   4.251   8.483   9.816  0.7879 -0.6488 -0.6473
   86MOL0     H11857   4.347   8.632   9.808  1.9315  0.7727 -1.3668
   86MOL0     H11858   4.421   8.386   9.645  0.4944  0.5164 -1.7820
   86MOL0     H11859   4.458   8.558   9.605 -1.8870  0.3819 -1.2710
   86MOL0     H11860   4.191   8.446   9.594  0.4861 -0.2902 -0.5649
   86MOL0     H11861   4.225   8.615   9.568 -0.8073 -0.7516 -0.0852
   86MOL0     H11862   4.343   8.391   9.388 -3.9262 -2.0083 -2.4219
   86MOL0     H11863   4.368   8.568   9.376 -0.5360  1.3089  1.3272
   86MOL0     H11864   3.988   8.477   9.195 -0.9318  3.4466  0.9608
   86MOL0     H11865   4.611   8.278   9.963 -0.2901  0.5753  0.6098
   86MOL0     H11866   4.803   8.194  10.009 -0.5193  0.3555  1.4018
   86MOL0     H11867   4.946   8.235   9.904 -0.5128 -1.3557 -0.3911
   86MOL0     H11868   4.900   8.318  10.066 -0.5390 -0.6561 -0.1500
   87MOL0     O11869   8.458   5.420   9.238  0.1801 -0.4783 -0.1836
   87MOL0     C11870   8.473   5.426   9.117  0.4126 -0.7266 -0.3025
   87MOL0     O11871   8.595   5.436   9.051 -0.3016  0.1951  0.0161
   87MOL0     C11872   8.717   5.441   9.119  0.2402  0.1243  0.4812
   87MOL0     C11873   8.797   5.546   9.083  0.2511 -1.4978 -0.4884
   87MOL0     C11874   8.916   5.570   9.151 -0.8710  1.1235  0.0988
   87MOL0     C11875   8.954   5.480   9.251 -0.0027  0.0197 -0.5687
   87MOL0     O11876   9.070   5.490   9.321 -0.6386  0.3548  0.4585
   87MOL0     C11877   9.177   5.559   9.249  0.5876 -0.1740  0.2043
   87MOL0     C11878   9.310   5.511   9.309 -0.5282  1.0098  1.0428
   87MOL0     C11879   9.359   5.382   9.249 -0.5598  0.4921  0.2666
   87MOL0     C11880   9.477   5.333   9.325 -0.7713 -0.3716  0.1843
   87MOL0     C11881   9.545   5.234   9.227 -0.3830  0.1537  0.3089
   87MOL0     C11882   9.697   5.214   9.265  0.1650  0.8204  0.3510
   87MOL0     C11883   9.788   5.176   9.140  0.5703  0.5815  0.0824
   87MOL0     C11884   9.739   5.057   9.050  0.1774 -0.7524 -0.8591
   87MOL0     N11885   9.755   4.930   9.130 -0.3222 -0.5949 -0.0230
   87MOL0     C11886   9.878   4.888   9.176 -0.6157  0.6888  0.0006
   87MOL0     C11887   9.860   4.776   9.255  0.0221 -0.3201  0.3575
   87MOL0     C11888   9.967   4.686   9.313  0.5008 -0.2671 -0.2113
   87MOL0     C11889   9.972   4.549   9.238 -0.5383 -0.2249  0.1818
   87MOL0     C11890  10.092   4.459   9.292 -0.0513  0.4575 -0.6437
   87MOL0     C11891  10.227   4.505   9.243 -0.0070 -0.5297 -0.5378
   87MOL0     O11892  10.223   4.500   9.104  0.2217 -0.4497  0.2349
   87MOL0     C11893  10.350   4.491   9.039 -0.7022 -0.2154  0.1992
   87MOL0     C11894  10.470   4.530   9.101  1.0143  0.2745 -0.1600
   87MOL0     C11895  10.593   4.525   9.046  0.3239 -0.1572  0.7216
   87MOL0     C11896  10.708   4.576   9.129 -0.3127 -0.0536 -0.5129
   87MOL0     C11897  10.605   4.462   8.915 -0.0845  0.1274 -0.0876
   87MOL0     C11898  10.728   4.426   8.844 -0.0276  0.2051  0.5758
   87MOL0     O11899  10.726   4.424   8.700  0.1048  0.3530  0.0608
   87MOL0     C11900  10.822   4.346   8.636  0.9611 -0.1960 -0.0990
   87MOL0     C11901  10.882   4.385   8.519 -0.2628 -0.5012 -0.2152
   87MOL0     C11902  10.982   4.313   8.451  0.6182  0.0696 -1.0468
   87MOL0     C11903  11.022   4.193   8.505 -0.4425  0.3978  0.0161
   87MOL0     O11904  11.124   4.118   8.452  0.3500 -0.4696  0.5867
   87MOL0     C11905  11.150   4.135   8.310 -0.5132 -0.2121  0.0966
   87MOL0     C11906  11.217   4.005   8.248  0.0146  0.0961 -0.5269
   87MOL0     C11907  11.272   4.039   8.111  0.0095  0.6566  0.0195
   87MOL0     C11908  11.330   3.918   8.052 -0.9024 -0.1537 -1.2729
   87MOL0     C11909  11.374   3.941   7.901  0.4151 -0.4846  0.3881
   87MOL0     C11910  11.427   3.818   7.844  0.5628  0.9719  0.1796
   87MOL0     C11911  11.434   3.814   7.692 -0.0835  0.2614  0.0665
   87MOL0     C11912  11.538   3.893   7.614 -0.2752  0.4445  0.1777
   87MOL0    Cl11913  11.697   3.837   7.673 -0.0341  0.0858  0.3720
   87MOL0     C11914  10.960   4.153   8.621  0.7556  0.2857 -0.5217
   87MOL0     C11915  10.858   4.220   8.681  0.1881  0.2324  0.4436
   87MOL0     O11916  10.831   4.398   8.909 -0.1968 -0.4246 -0.3463
   87MOL0     C11917  10.487   4.436   8.846  0.6237  0.8385  0.3328
   87MOL0     C11918  10.363   4.445   8.908  0.3937  0.0225 -1.1346
   87MOL0     N11919   9.726   4.763   9.252  0.5612 -0.0043 -0.4538
   87MOL0     N11920   9.662   4.851   9.184 -0.0707 -0.3643  0.9818
   87MOL0     C11921   8.868   5.376   9.292 -0.1548 -0.3762  0.2110
   87MOL0     C11922   8.748   5.357   9.224  0.1792  0.0979  0.8651
   87MOL0     C11923   8.347   5.399   9.045  0.2512 -0.3301  0.1932
   87MOL0     C11924   8.361   5.361   8.910  1.0323 -0.0539  0.1937
   87MOL0     C11925   8.247   5.360   8.821  0.6359  0.4195  0.8683
   87MOL0     C11926   8.119   5.368   8.875  0.1730 -0.0219 -0.3238
   87MOL0     O11927   8.016   5.348   8.790  0.3123 -0.1668 -0.3207
   87MOL0     C11928   7.880   5.345   8.838 -0.3503  0.1152  0.5304
   87MOL0     C11929   7.815   5.491   8.836 -0.2866 -0.0424 -0.7515
   87MOL0     C11930   7.791   5.540   8.697 -0.7409 -0.0958  0.9366
   87MOL0     C11931   7.700   5.667   8.704  0.8436  0.4262  0.2286
   87MOL0     C11932   7.665   5.711   8.563  0.3105  0.6791  0.3831
   87MOL0     C11933   7.621   5.747   8.453  0.2702 -0.1566 -0.1676
   87MOL0     C11934   8.102   5.412   9.006  0.0917  0.5437  0.0507
   87MOL0     C11935   8.215   5.433   9.089 -0.4953 -1.8656  0.6957
   87MOL0     C11936   8.192   5.492   9.221  0.2834 -0.3639 -0.7303
   87MOL0     H11937   8.770   5.622   9.010  1.1757 -0.4186  0.2650
   87MOL0     H11938   8.976   5.651   9.111  0.0965 -0.3948 -1.7077
   87MOL0     H11939   9.175   5.668   9.262  0.2439 -0.1019 -0.4116
   87MOL0     H11940   9.173   5.532   9.143  2.0993  4.3107 -1.2401
   87MOL0     H11941   9.387   5.588   9.299 -0.2221  0.9900  2.8293
   87MOL0     H11942   9.297   5.490   9.416 -1.1424 -1.5348  0.5305
   87MOL0     H11943   9.280   5.307   9.258 -0.2225 -0.0463 -0.9941
   87MOL0     H11944   9.389   5.403   9.146  1.8253  1.1189  1.0275
   87MOL0     H11945   9.536   5.415   9.366 -2.1630  0.7908 -0.0841
   87MOL0     H11946   9.442   5.273   9.410 -1.2092  0.1630  0.3864
   87MOL0     H11947   9.532   5.264   9.123 -0.0073 -1.7772 -0.3182
   87MOL0     H11948   9.491   5.139   9.235 -4.4440  2.2033  0.0764
   87MOL0     H11949   9.736   5.308   9.306  1.7105  0.4916 -0.3171
   87MOL0     H11950   9.722   5.134   9.336  2.8550  1.1170 -0.1516
   87MOL0     H11951   9.894   5.165   9.167  0.7398 -2.4730 -1.3901
   87MOL0     H11952   9.774   5.267   9.081  1.2069  0.3967 -0.3650
   87MOL0     H11953   9.636   5.082   9.024  0.2805  1.5229  0.6732
   87MOL0     H11954   9.800   5.052   8.960 -0.2797 -2.0639 -1.1267
   87MOL0     H11955   9.979   4.922   9.157 -1.9212  3.2977 -3.3369
   87MOL0     H11956   9.950   4.667   9.420 -0.6299 -1.6825 -0.6150
   87MOL0     H11957  10.066   4.733   9.308 -0.0076  0.8246 -0.2775
   87MOL0     H11958   9.878   4.500   9.265 -0.6868  0.4416  0.9074
   87MOL0     H11959   9.963   4.554   9.129 -3.7649 -0.8438  0.3201
   87MOL0     H11960  10.101   4.459   9.401  0.0209  1.6510 -0.6391
   87MOL0     H11961  10.089   4.357   9.253 -0.1822 -0.2871  1.1988
   87MOL0     H11962  10.237   4.603   9.290 -1.1444 -1.1984  1.2000
   87MOL0     H11963  10.292   4.431   9.291 -0.9707 -1.4107 -0.5661
   87MOL0     H11964  10.459   4.568   9.202 -0.8569 -1.9213  0.5613
   87MOL0     H11965  10.794   4.608   9.070  1.1542 -1.0838  0.9797
   87MOL0     H11966  10.741   4.501   9.202 -0.1582 -0.3558 -0.8895
   87MOL0     H11967  10.678   4.669   9.179 -0.0610 -0.5279  0.5617
   87MOL0     H11968  10.847   4.481   8.481 -0.8864  0.0488  1.6319
   87MOL0     H11969  11.015   4.355   8.356 -1.9171  3.2095 -0.7071
   87MOL0     H11970  11.058   4.151   8.254  0.6530  0.2617 -1.7515
   87MOL0     H11971  11.208   4.225   8.290 -0.8455  0.1128  0.5622
   87MOL0     H11972  11.302   3.973   8.309 -0.9777 -0.5038  0.5849
   87MOL0     H11973  11.145   3.924   8.245  1.3715 -1.1123 -2.4094
   87MOL0     H11974  11.353   4.112   8.121 -1.0601  2.2386 -2.0144
   87MOL0     H11975  11.198   4.086   8.045  0.4026 -1.4485 -2.0783
   87MOL0     H11976  11.262   3.833   8.067 -0.7034 -0.4470 -2.0151
   87MOL0     H11977  11.420   3.886   8.107 -0.6752  1.6290 -0.5215
   87MOL0     H11978  11.280   3.962   7.850 -0.2905  1.1548  2.2462
   87MOL0     H11979  11.445   4.023   7.890  1.0646 -1.2029 -1.1241
   87MOL0     H11980  11.357   3.739   7.873  1.4765 -0.6766 -1.8237
   87MOL0     H11981  11.520   3.779   7.886 -0.4062 -2.3233 -0.4178
   87MOL0     H11982  11.336   3.850   7.662  0.2994  1.1475 -0.1589
   87MOL0     H11983  11.435   3.708   7.667 -0.7924  0.4344 -0.7079
   87MOL0     H11984  11.534   3.999   7.641 -0.7516  0.2151  1.0374
   87MOL0     H11985  11.527   3.882   7.505 -3.2028 -0.3293  0.4542
   87MOL0     H11986  10.991   4.063   8.673 -1.2528  0.7941  1.7524
   87MOL0     H11987  10.825   4.186   8.778 -2.4579  3.2097  0.7392
   87MOL0     H11988  10.481   4.392   8.747 -4.7159 -0.3534  0.8787
   87MOL0     H11989  10.269   4.413   8.864 -1.1208  1.9650  0.4356
   87MOL0     H11990   8.903   5.311   9.372  2.2076  2.5810  1.7917
   87MOL0     H11991   8.687   5.274   9.259  2.8725 -3.5150 -2.2525
   87MOL0     H11992   8.457   5.333   8.866  0.5140 -1.4175 -0.1203
   87MOL0     H11993   8.249   5.328   8.717  0.1461 -1.0823  1.2846
   87MOL0     H11994   7.827   5.279   8.769 -1.3349  0.1505  1.2452
   87MOL0     H11995   7.869   5.298   8.936 -1.0099  1.6358  1.2038
   87MOL0     H11996   7.871   5.561   8.898  0.7858 -0.7479 -0.8876
   87MOL0     H11997   7.715   5.487   8.881 -0.0738 -2.8730 -0.2903
   87MOL0     H11998   7.891   5.564   8.658 -1.0170 -1.9415 -1.0989
   87MOL0     H11999   7.755   5.463   8.628  0.5590 -0.3385  0.4922
   87MOL0     H12000   7.762   5.736   8.763  2.6313 -1.2241  0.3733
   87MOL0     H12001   7.602   5.643   8.746 -0.2367  0.6265 -2.0391
   87MOL0     H12002   7.571   5.766   8.361  0.3398 -2.3013 -0.7168
   87MOL0     H12003   8.002   5.441   9.037  0.3695  1.8867 -0.2275
   87MOL0     H12004   8.087   5.505   9.248  0.8244  1.8263  0.4818
   87MOL0     H12005   8.239   5.430   9.297  0.0249  0.4686  0.1272
   87MOL0     H12006   8.238   5.590   9.232 -0.1156 -0.4127  1.9660
   88MOL0     O12007   9.305   2.671   9.305  0.2573  0.2832  0.8354
   88MOL0     C12008   9.307   2.634   9.416  0.3516  0.9351 -0.6852
   88MOL0     O12009   9.381   2.689   9.516 -0.1859  0.0812 -0.4600
   88MOL0     C12010   9.479   2.767   9.489  0.6965 -0.3637 -0.4553
   88MOL0     C12011   9.595   2.733   9.431 -0.2286 -0.2194  0.4594
   88MOL0     C12012   9.697   2.824   9.409  0.6324 -0.3814  0.5575
   88MOL0     C12013   9.667   2.960   9.441 -0.4403  0.9980 -0.1861
   88MOL0     O12014   9.756   3.053   9.396 -0.1792 -0.1557  0.8427
   88MOL0     C12015   9.799   3.160   9.485  0.1389  0.6757 -0.2367
   88MOL0     C12016   9.771   3.294   9.408  0.2887  0.2551 -0.3560
   88MOL0     C12017   9.855   3.300   9.278 -0.6916 -0.0596  0.8480
   88MOL0     C12018   9.848   3.428   9.209  1.0970 -0.4466  0.2796
   88MOL0     C12019   9.941   3.417   9.085 -0.2022  0.4039 -0.6300
   88MOL0     C12020   9.950   3.547   9.015  0.2428 -0.0954  0.0837
   88MOL0     C12021  10.048   3.553   8.897  0.4400 -0.2096  0.3560
   88MOL0     C12022  10.075   3.700   8.867  0.1997 -0.0779  0.6366
   88MOL0     N12023  10.148   3.712   8.735 -0.1829  0.3306  1.2341
   88MOL0     C12024  10.096   3.715   8.604  0.3972  0.1875 -0.0653
   88MOL0     C12025  10.202   3.720   8.524  0.1484 -0.9620  0.5306
   88MOL0     C12026  10.191   3.729   8.370  0.4147  0.5901 -0.3262
   88MOL0     C12027  10.303   3.648   8.297  0.3705 -0.5133 -1.2782
   88MOL0     C12028  10.305   3.664   8.146  0.4285  0.8291  0.2404
   88MOL0     C12029  10.346   3.532   8.087 -0.6752  0.0863 -0.5005
   88MOL0     O12030  10.490   3.524   8.125 -0.6680 -0.0695  0.0563
   88MOL0     C12031  10.568   3.428   8.060 -0.2663 -0.8254 -0.9359
   88MOL0     C12032  10.644   3.340   8.143  0.4293 -0.3154 -0.2585
   88MOL0     C12033  10.722   3.242   8.082 -0.6074  0.3475  0.6748
   88MOL0     C12034  10.794   3.152   8.175  0.0061  0.2625  0.3045
   88MOL0     C12035  10.718   3.234   7.934 -0.5057 -1.0586 -0.0855
   88MOL0     C12036  10.807   3.136   7.856 -0.1316  0.3007 -0.8965
   88MOL0     O12037  10.765   3.108   7.728  0.5031  0.3954 -0.0450
   88MOL0     C12038  10.823   3.027   7.630 -1.1531  0.4741 -0.3575
   88MOL0     C12039  10.758   3.020   7.512 -0.2961 -0.6127 -0.0028
   88MOL0     C12040  10.797   2.944   7.400  0.3540  0.5768  0.4043
   88MOL0     C12041  10.907   2.856   7.419 -0.0565 -0.0195  0.4156
   88MOL0     O12042  10.954   2.767   7.328  0.3378 -0.0788 -0.4454
   88MOL0     C12043  10.861   2.670   7.286  0.6682 -0.8339  0.1326
   88MOL0     C12044  10.890   2.629   7.139  0.0731 -0.1214 -0.7821
   88MOL0     C12045  11.018   2.559   7.139  0.2870 -0.3633 -0.3635
   88MOL0     C12046  10.994   2.413   7.196  0.5125  0.2865 -0.1873
   88MOL0     C12047  11.130   2.338   7.214 -0.1153  0.0556 -0.4019
   88MOL0     C12048  11.102   2.184   7.253 -0.4695 -0.8047 -0.3345
   88MOL0     C12049  11.230   2.115   7.315 -0.4850 -0.3746 -0.4840
   88MOL0     C12050  11.355   2.110   7.225  0.5432 -0.1558 -0.7401
   88MOL0    Cl12051  11.316   2.061   7.044  0.1565 -0.3334 -0.0278
   88MOL0     C12052  10.984   2.875   7.539  0.1803 -0.4833  1.0839
   88MOL0     C12053  10.949   2.958   7.644  0.0320 -0.2563  0.1244
   88MOL0     O12054  10.917   3.109   7.899 -0.3368  0.6525  0.0437
   88MOL0     C12055  10.649   3.332   7.857 -0.8694  0.4009  0.4999
   88MOL0     C12056  10.573   3.424   7.923 -0.1821  0.6714  0.0096
   88MOL0     N12057  10.319   3.729   8.594  0.2044  0.1216  0.3834
   88MOL0     N12058  10.278   3.723   8.720  0.2547 -0.2467  0.8734
   88MOL0     C12059   9.547   3.000   9.497  0.5989 -0.1109  1.4368
   88MOL0     C12060   9.457   2.899   9.535 -0.1069  0.0511  0.1666
   88MOL0     C12061   9.198   2.533   9.453  0.8489 -0.2385  0.2713
   88MOL0     C12062   9.185   2.509   9.590 -0.1849  0.5361 -0.4058
   88MOL0     C12063   9.083   2.426   9.633  0.3845  0.0046 -0.6281
   88MOL0     C12064   9.004   2.353   9.547  0.3156 -0.0182 -0.7401
   88MOL0     O12065   8.929   2.246   9.600 -0.0122  0.2142 -0.4557
   88MOL0     C12066   8.851   2.167   9.504 -0.0856  0.2232 -0.2731
   88MOL0     C12067   8.815   2.035   9.575  0.7218 -0.3797 -0.1281
   88MOL0     C12068   8.708   2.054   9.682  0.9353  0.4805 -0.0470
   88MOL0     C12069   8.581   2.114   9.635 -0.2392  0.6496 -0.3831
   88MOL0     C12070   8.486   2.117   9.748 -0.3633  0.3354 -0.3597
   88MOL0     C12071   8.418   2.121   9.851 -0.5168 -0.0283 -0.3465
   88MOL0     C12072   9.013   2.385   9.414 -0.3962 -0.7151  0.0033
   88MOL0     C12073   9.107   2.468   9.364  0.0114 -0.1386  0.1792
   88MOL0     C12074   9.095   2.506   9.216 -0.2199  0.2393  0.2210
   88MOL0     H12075   9.612   2.629   9.407 -3.1717 -0.7920  0.5123
   88MOL0     H12076   9.788   2.800   9.355 -0.6861 -0.3773 -1.8046
   88MOL0     H12077   9.905   3.157   9.511  0.7575 -3.5088 -2.4289
   88MOL0     H12078   9.739   3.148   9.576 -0.5377  0.2064 -0.7410
   88MOL0     H12079   9.664   3.293   9.385 -0.2559  1.4278  1.7896
   88MOL0     H12080   9.783   3.381   9.473  0.9738 -0.4901  0.5509
   88MOL0     H12081   9.957   3.279   9.314 -0.6232 -0.7888  0.2467
   88MOL0     H12082   9.831   3.225   9.202  0.8022 -0.2316  0.4961
   88MOL0     H12083   9.745   3.437   9.174  0.4402 -0.3454  2.1173
   88MOL0     H12084   9.882   3.508   9.275  0.5024 -1.0798  1.3880
   88MOL0     H12085   9.905   3.349   9.008 -0.4181  0.7461 -0.8373
   88MOL0     H12086  10.038   3.385   9.122 -1.2052 -1.3253  0.6349
   88MOL0     H12087   9.853   3.582   8.979  1.1128 -0.5284 -2.9377
   88MOL0     H12088   9.982   3.620   9.090 -0.4045  0.0822  0.2013
   88MOL0     H12089  10.009   3.504   8.808  2.2344 -2.7305  0.8351
   88MOL0     H12090  10.142   3.502   8.918  0.5943 -0.8992 -1.8009
   88MOL0     H12091   9.980   3.755   8.859 -0.5348 -1.3184  0.5196
   88MOL0     H12092  10.137   3.742   8.947 -0.7789 -0.0255  1.3911
   88MOL0     H12093   9.993   3.703   8.572  0.7342 -1.6953 -0.5859
   88MOL0     H12094  10.193   3.834   8.340 -0.3475  1.1649  1.4730
   88MOL0     H12095  10.092   3.701   8.334 -0.0783  1.8860 -0.0238
   88MOL0     H12096  10.402   3.682   8.330  0.4398 -2.7438  1.1646
   88MOL0     H12097  10.291   3.543   8.325 -1.5687  0.2240  0.9865
   88MOL0     H12098  10.200   3.674   8.117 -0.5966 -2.7017  2.1361
   88MOL0     H12099  10.372   3.743   8.110  0.0782  1.2224  0.4491
   88MOL0     H12100  10.296   3.450   8.140 -1.6320 -1.1753 -3.1546
   88MOL0     H12101  10.331   3.527   7.978 -0.1973 -0.3917 -0.5462
   88MOL0     H12102  10.637   3.346   8.251  1.0585  0.7251 -0.2651
   88MOL0     H12103  10.827   3.064   8.119  0.4107  1.0416 -0.7093
   88MOL0     H12104  10.729   3.124   8.259  0.3372 -1.3630  0.0518
   88MOL0     H12105  10.877   3.214   8.209  0.1226 -0.3259  1.1451
   88MOL0     H12106  10.677   3.092   7.514  0.8119  0.6974  2.1781
   88MOL0     H12107  10.738   2.950   7.309 -0.8713  1.0385  1.1999
   88MOL0     H12108  10.853   2.588   7.358  0.6363 -0.8399  0.1224
   88MOL0     H12109  10.760   2.710   7.290  0.4907 -1.2752  0.0946
   88MOL0     H12110  10.810   2.562   7.106 -1.3562  1.5390 -0.7950
   88MOL0     H12111  10.891   2.719   7.078 -0.7893  0.1089 -0.4638
   88MOL0     H12112  11.093   2.612   7.198  0.9403  0.5163 -1.9169
   88MOL0     H12113  11.053   2.556   7.035  1.0824  4.5077 -0.4497
   88MOL0     H12114  10.929   2.364   7.123  1.8130  2.2455 -2.8310
   88MOL0     H12115  10.955   2.416   7.298  1.2323  6.0767  0.2570
   88MOL0     H12116  11.191   2.332   7.124 -0.0062 -0.2497 -0.3076
   88MOL0     H12117  11.188   2.378   7.298  1.1953 -1.4856 -0.5307
   88MOL0     H12118  11.075   2.119   7.170  0.7229 -1.3395 -0.3210
   88MOL0     H12119  11.017   2.175   7.320 -0.9343 -2.8983 -1.1405
   88MOL0     H12120  11.204   2.011   7.339  0.2144  0.0291  2.4439
   88MOL0     H12121  11.264   2.166   7.406  1.0089 -1.7356 -0.2398
   88MOL0     H12122  11.421   2.032   7.265 -1.4500 -0.5559  2.0883
   88MOL0     H12123  11.399   2.210   7.227  0.2000  0.0587 -2.4545
   88MOL0     H12124  11.071   2.817   7.569  1.1932  0.7671  0.6325
   88MOL0     H12125  10.995   2.969   7.742 -0.5473 -0.7512  0.4557
   88MOL0     H12126  10.659   3.334   7.749 -1.9230 -0.4025  0.3690
   88MOL0     H12127  10.519   3.502   7.870 -1.6221 -0.0151  0.4189
   88MOL0     H12128   9.523   3.106   9.501  0.7717  0.1945 -2.4027
   88MOL0     H12129   9.362   2.903   9.587 -0.3794 -1.7317 -0.1579
   88MOL0     H12130   9.248   2.568   9.656 -1.6017  2.2754 -0.5706
   88MOL0     H12131   9.068   2.410   9.739  2.9032  3.2076  0.3832
   88MOL0     H12132   8.771   2.234   9.471 -2.1748 -1.1800  1.5861
   88MOL0     H12133   8.910   2.128   9.421 -1.0794 -0.5463 -0.6363
   88MOL0     H12134   8.908   1.993   9.615  1.5345  0.9001 -0.6173
   88MOL0     H12135   8.781   1.960   9.503  0.4909 -0.3775 -0.0237
   88MOL0     H12136   8.673   1.954   9.708  0.3909  0.2722 -1.4890
   88MOL0     H12137   8.752   2.111   9.765  1.8822 -2.3001  1.4794
   88MOL0     H12138   8.547   2.050   9.554  2.7970 -2.5265  0.6130
   88MOL0     H12139   8.601   2.216   9.599 -0.6133  0.6524 -0.5899
   88MOL0     H12140   8.344   2.111   9.928 -0.6528 -0.9050 -0.5754
   88MOL0     H12141   8.942   2.350   9.339 -1.1167  1.6652 -0.4913
   88MOL0     H12142   9.040   2.600   9.199  0.8879  1.2587  1.9927
   88MOL0     H12143   9.198   2.505   9.177 -0.6962 -0.2124 -1.1068
   88MOL0     H12144   9.044   2.428   9.158  2.1128 -2.5763  1.7251
   89MOL0     O12145   3.614  10.654   7.416 -0.1257  0.4128  0.1102
   89MOL0     C12146   3.580  10.644   7.300  0.3586  0.1079 -0.1891
   89MOL0     O12147   3.644  10.581   7.198  0.1503 -0.4631 -0.0078
   89MOL0     C12148   3.779  10.551   7.203 -0.4655 -1.0216  0.3820
   89MOL0     C12149   3.873  10.626   7.284  0.2914  0.0511  0.3731
   89MOL0     C12150   4.016  10.600   7.280  0.9627 -0.1668  0.3386
   89MOL0     C12151   4.061  10.479   7.212  0.4566 -0.5164 -0.5699
   89MOL0     O12152   4.189  10.441   7.243  0.3983 -0.1487  0.0024
   89MOL0     C12153   4.296  10.522   7.191  0.5218  0.1868 -0.3400
   89MOL0     C12154   4.421  10.498   7.270  0.5302  0.5710 -0.3836
   89MOL0     C12155   4.541  10.562   7.191 -1.0096  0.0755 -0.7568
   89MOL0     C12156   4.660  10.570   7.284 -0.3325  0.6738 -0.9034
   89MOL0     C12157   4.750  10.681   7.244 -0.0040 -0.4081 -0.5418
   89MOL0     C12158   4.870  10.684   7.350 -0.1467  0.4869 -0.9827
   89MOL0     C12159   4.975  10.783   7.316  0.1718  0.6077 -0.1254
   89MOL0     C12160   5.102  10.779   7.406 -0.7224  0.1731  0.2313
   89MOL0     N12161   5.204  10.674   7.374  0.2335  1.1941  0.9652
   89MOL0     C12162   5.191  10.537   7.412  0.8208  0.0208  0.3151
   89MOL0     C12163   5.305  10.479   7.363 -0.3033  0.0415  0.0339
   89MOL0     C12164   5.319  10.327   7.349  0.2988  0.7469  0.5934
   89MOL0     C12165   5.342  10.261   7.483  0.0088 -0.1067  0.4406
   89MOL0     C12166   5.335  10.107   7.477 -0.3372  0.2429  0.3374
   89MOL0     C12167   5.254  10.047   7.591  0.0247  0.7488 -0.1692
   89MOL0     O12168   5.114  10.079   7.583  0.0579 -0.2068 -0.4210
   89MOL0     C12169   5.021  10.025   7.669 -1.0270  0.0791  0.8788
   89MOL0     C12170   5.044   9.953   7.786 -0.2210  0.4570 -0.0587
   89MOL0     C12171   4.945   9.904   7.869  0.2839 -0.0593 -0.7180
   89MOL0     C12172   4.980   9.828   7.990  0.0785  0.7850 -1.0129
   89MOL0     C12173   4.813   9.933   7.825 -0.2875 -0.4059 -0.7406
   89MOL0     C12174   4.692   9.875   7.879 -0.1924 -0.3671 -0.5945
   89MOL0     O12175   4.588   9.863   7.798  0.1849 -0.3432 -0.1387
   89MOL0     C12176   4.494   9.773   7.830  0.3050 -0.3724 -0.2635
   89MOL0     C12177   4.361   9.802   7.798 -0.1193  0.6580  0.2381
   89MOL0     C12178   4.262   9.710   7.853 -0.4621  0.6849  0.1812
   89MOL0     C12179   4.297   9.598   7.930 -0.4101 -0.1529  0.0527
   89MOL0     O12180   4.209   9.504   7.972  0.5350  1.0064 -0.2594
   89MOL0     C12181   4.096   9.566   8.043  0.6998  0.6620  0.9996
   89MOL0     C12182   3.968   9.548   7.960  0.2811  0.7548  0.2412
   89MOL0     C12183   3.925   9.398   7.936  0.5496 -0.7309  0.3933
   89MOL0     C12184   3.810   9.383   7.836 -0.7791 -0.2828 -0.1810
   89MOL0     C12185   3.776   9.228   7.806  0.3805 -0.0779 -0.5660
   89MOL0     C12186   3.689   9.217   7.674  0.1895 -0.6773 -0.5060
   89MOL0     C12187   3.762   9.231   7.540 -0.0160  0.4621  0.0922
   89MOL0     C12188   3.897   9.154   7.528  0.4681 -0.7086  0.1982
   89MOL0    Cl12189   4.035   9.262   7.557 -0.5879  0.4732 -0.2087
   89MOL0     C12190   4.431   9.571   7.959  0.3815  0.1390  0.1478
   89MOL0     C12191   4.526   9.648   7.893 -0.8236 -0.6290  0.5135
   89MOL0     O12192   4.694   9.840   7.998  0.1066 -0.5164 -0.0579
   89MOL0     C12193   4.783  10.009   7.703 -0.6141  0.2774  0.1186
   89MOL0     C12194   4.894  10.065   7.638 -0.4892 -0.3016  0.3590
   89MOL0     N12195   5.378  10.580   7.298  0.3767  0.1218 -1.2004
   89MOL0     N12196   5.321  10.693   7.308 -0.2409  0.4273  0.1386
   89MOL0     C12197   3.967  10.400   7.144  0.1967  0.9033 -0.2845
   89MOL0     C12198   3.833  10.437   7.127  0.0442 -0.8070 -0.4984
   89MOL0     C12199   3.434  10.679   7.273  0.3823  0.3678 -0.3161
   89MOL0     C12200   3.373  10.639   7.151  0.5480  0.7155 -0.5318
   89MOL0     C12201   3.234  10.652   7.129 -1.4433  0.0996  0.1684
   89MOL0     C12202   3.152  10.721   7.216  0.5732 -0.1172  0.0849
   89MOL0     O12203   3.025  10.750   7.177 -0.1486 -0.2130  0.3314
   89MOL0     C12204   2.915  10.743   7.273 -0.1560 -0.5182 -0.0990
   89MOL0     C12205   2.835  10.618   7.252 -0.2740  0.3812  0.3668
   89MOL0     C12206   2.713  10.625   7.340  0.2896  0.0470 -0.5078
   89MOL0     C12207   2.621  10.515   7.299  0.8662 -0.9145  0.0912
   89MOL0     C12208   2.476  10.528   7.343 -1.0780 -0.2453 -0.2983
   89MOL0     C12209   2.367  10.558   7.391 -0.1190 -0.3774  1.0795
   89MOL0     C12210   3.210  10.771   7.337  0.3542  0.1404  0.1407
   89MOL0     C12211   3.349  10.748   7.368 -0.0576  0.2178  0.3643
   89MOL0     C12212   3.402  10.794   7.506  1.0829 -0.7736  0.2373
   89MOL0     H12213   3.843  10.715   7.339 -0.5964  0.3055 -0.5013
   89MOL0     H12214   4.071  10.679   7.329 -1.4914  0.2249  2.7000
   89MOL0     H12215   4.275  10.629   7.187  1.1878  0.3028 -1.0480
   89MOL0     H12216   4.292  10.493   7.086 -3.1809  0.6758 -0.4766
   89MOL0     H12217   4.413  10.537   7.371  0.7116 -3.1624  1.2201
   89MOL0     H12218   4.447  10.392   7.271 -1.1249  0.0620 -2.7668
   89MOL0     H12219   4.559  10.499   7.103  0.1842 -1.5064  0.5563
   89MOL0     H12220   4.507  10.658   7.151 -1.8704  0.6769  1.2736
   89MOL0     H12221   4.626  10.588   7.386 -0.5527 -0.1008 -0.8405
   89MOL0     H12222   4.721  10.480   7.284 -1.5285 -0.1856  0.9335
   89MOL0     H12223   4.693  10.774   7.246 -0.4741 -0.7003 -0.0957
   89MOL0     H12224   4.778  10.674   7.138  2.1431  3.8705 -0.4881
   89MOL0     H12225   4.834  10.695   7.452  1.4533 -4.5805  0.4297
   89MOL0     H12226   4.924  10.589   7.340  0.0149  0.3912  0.5719
   89MOL0     H12227   4.929  10.880   7.338  0.6932  0.7110  0.5333
   89MOL0     H12228   5.002  10.766   7.211 -0.9653 -0.2001 -0.3032
   89MOL0     H12229   5.152  10.873   7.381 -0.0492 -0.5383 -1.1521
   89MOL0     H12230   5.082  10.790   7.513 -1.4267  2.3871 -0.0751
   89MOL0     H12231   5.111  10.480   7.457 -0.5503 -1.1328 -3.2492
   89MOL0     H12232   5.404  10.302   7.285 -0.5690  0.7055 -0.5711
   89MOL0     H12233   5.225  10.288   7.309  0.5836 -1.7317  2.0774
   89MOL0     H12234   5.440  10.295   7.517  0.4573 -1.8234  0.9474
   89MOL0     H12235   5.269  10.295   7.557 -1.1761 -0.2349 -0.6381
   89MOL0     H12236   5.295  10.066   7.384  0.1589 -0.0488  0.2450
   89MOL0     H12237   5.435  10.062   7.481 -1.5115 -2.5546  0.9845
   89MOL0     H12238   5.271   9.940   7.573  2.3281  1.1462 -0.7340
   89MOL0     H12239   5.288  10.081   7.689 -1.8413  2.4271 -0.0519
   89MOL0     H12240   5.146   9.937   7.818 -0.6601 -0.0067  1.1963
   89MOL0     H12241   4.946   9.878   8.082 -0.8891  0.8002 -1.3600
   89MOL0     H12242   5.088   9.815   8.002  0.4497  0.7125 -3.8643
   89MOL0     H12243   4.923   9.735   7.995 -0.6795  1.2998  2.1151
   89MOL0     H12244   4.341   9.898   7.753  1.4261  0.2390 -1.4685
   89MOL0     H12245   4.156   9.710   7.830 -0.8918 -2.3055  1.5900
   89MOL0     H12246   4.077   9.520   8.141  0.1659 -1.3563 -0.0032
   89MOL0     H12247   4.106   9.673   8.063 -2.0197  0.8675  1.6983
   89MOL0     H12248   3.882   9.598   8.005  0.2200  1.0699 -0.2117
   89MOL0     H12249   3.987   9.608   7.869  1.5201 -0.8775 -0.6298
   89MOL0     H12250   3.898   9.349   8.031 -1.0381  1.0489  0.9222
   89MOL0     H12251   4.004   9.342   7.886 -0.4998  0.6372 -3.0305
   89MOL0     H12252   3.835   9.429   7.740  3.4331 -1.1301  0.3194
   89MOL0     H12253   3.721   9.432   7.877  0.0198  0.8857  0.2212
   89MOL0     H12254   3.862   9.161   7.797 -0.6018 -1.2114 -1.8729
   89MOL0     H12255   3.721   9.204   7.897  1.2790 -1.4697 -0.3703
   89MOL0     H12256   3.609   9.290   7.690 -0.1953 -1.1368 -0.3452
   89MOL0     H12257   3.641   9.119   7.673 -2.9043  0.7391 -1.8308
   89MOL0     H12258   3.782   9.336   7.517 -2.5491  0.2663 -3.9195
   89MOL0     H12259   3.707   9.191   7.454 -0.4230 -0.3005  0.6920
   89MOL0     H12260   3.904   9.119   7.425 -0.2310  0.1594 -0.1577
   89MOL0     H12261   3.897   9.066   7.594  1.9547 -0.9601 -0.0955
   89MOL0     H12262   4.458   9.488   8.023  0.4206 -0.3928 -0.5546
   89MOL0     H12263   4.631   9.627   7.910 -1.2813 -0.6802  4.1590
   89MOL0     H12264   4.685  10.011   7.657 -0.4749 -2.1300 -0.3738
   89MOL0     H12265   4.874  10.128   7.552 -1.1259 -2.8058 -1.4455
   89MOL0     H12266   3.992  10.300   7.111 -0.1007 -0.1896  2.5440
   89MOL0     H12267   3.771  10.366   7.072 -2.9309 -0.8011  2.4607
   89MOL0     H12268   3.432  10.590   7.075  0.5030  3.2404 -2.3217
   89MOL0     H12269   3.189  10.602   7.044  2.4034 -4.3785  0.3313
   89MOL0     H12270   2.943  10.755   7.378  1.0577  1.4245 -0.6149
   89MOL0     H12271   2.850  10.829   7.254 -1.6025 -1.2625  1.1968
   89MOL0     H12272   2.889  10.530   7.288 -2.5991 -0.2283  2.6996
   89MOL0     H12273   2.809  10.602   7.147  1.8367 -2.7563  0.1784
   89MOL0     H12274   2.736  10.600   7.444  0.9878  0.2467 -0.6090
   89MOL0     H12275   2.663  10.722   7.331 -1.7019 -0.7456  1.2837
   89MOL0     H12276   2.661  10.426   7.347  0.5651 -0.5734  0.9787
   89MOL0     H12277   2.602  10.502   7.192 -4.0942 -2.1550  0.8621
   89MOL0     H12278   2.268  10.587   7.420 -0.2203  2.5323 -1.7059
   89MOL0     H12279   3.136  10.814   7.403  0.7438  0.0229  0.6609
   89MOL0     H12280   3.493  10.853   7.494  0.3127  0.4893  0.5038
   89MOL0     H12281   3.328  10.854   7.559  0.8920  1.7200 -2.5739
   89MOL0     H12282   3.432  10.711   7.571  0.7398 -1.6781 -0.7132
   90MOL0     O12283   8.356   0.918   5.244 -0.2310  0.8154  0.0966
   90MOL0     C12284   8.350   1.008   5.327  0.3295 -0.0719 -1.7099
   90MOL0     O12285   8.456   1.051   5.408  0.7531 -0.3354 -0.0741
   90MOL0     C12286   8.580   0.986   5.406 -0.9204 -0.6105  0.3307
   90MOL0     C12287   8.658   1.006   5.288  0.0389 -1.0304 -0.8060
   90MOL0     C12288   8.786   0.951   5.282 -0.4100  0.1718  0.5777
   90MOL0     C12289   8.835   0.878   5.387 -0.0883  0.1337 -1.0025
   90MOL0     O12290   8.968   0.846   5.374  0.2376  0.4747  0.7425
   90MOL0     C12291   9.016   0.725   5.432  0.3075  0.0025  0.6883
   90MOL0     C12292   9.154   0.707   5.360  0.4022  0.2209  0.7725
   90MOL0     C12293   9.260   0.803   5.413  0.8810 -0.1603 -0.5721
   90MOL0     C12294   9.380   0.813   5.321  0.0648 -0.3072  1.0491
   90MOL0     C12295   9.508   0.870   5.385 -0.7676  0.2492  0.3816
   90MOL0     C12296   9.559   0.784   5.502  0.1047  0.2068  0.1681
   90MOL0     C12297   9.597   0.635   5.463  0.8389 -0.6373  0.5703
   90MOL0     C12298   9.686   0.571   5.565  0.4996  1.2939 -0.2340
   90MOL0     N12299   9.827   0.585   5.551 -0.7610 -0.2114  0.2025
   90MOL0     C12300   9.918   0.484   5.534  0.6263  0.1801 -0.1110
   90MOL0     C12301  10.034   0.541   5.516 -0.1735  0.4854 -0.0505
   90MOL0     C12302  10.165   0.471   5.472  1.0423  0.4208 -0.7125
   90MOL0     C12303  10.201   0.476   5.320 -0.0558  0.2062  0.5604
   90MOL0     C12304  10.091   0.420   5.233  0.2818  0.8495  0.6446
   90MOL0     C12305  10.148   0.390   5.090 -0.1819 -0.0317  0.3896
   90MOL0     O12306  10.208   0.518   5.042  0.5369  0.8302 -0.2593
   90MOL0     C12307  10.331   0.520   4.991  0.5697  0.3934  0.5257
   90MOL0     C12308  10.377   0.425   4.898 -0.2108 -0.2090 -0.5678
   90MOL0     C12309  10.518   0.410   4.870 -0.3657 -1.5505  0.2627
   90MOL0     C12310  10.575   0.311   4.765 -0.0472 -0.0279 -0.8071
   90MOL0     C12311  10.605   0.510   4.917 -0.0182  0.3608 -0.0419
   90MOL0     C12312  10.748   0.526   4.868 -0.4239 -0.3758  0.0598
   90MOL0     O12313  10.763   0.513   4.735  0.1452 -0.7201 -0.1062
   90MOL0     C12314  10.871   0.576   4.676 -0.1977  0.2137 -0.5906
   90MOL0     C12315  10.987   0.505   4.643  0.1244  0.6863  0.4520
   90MOL0     C12316  11.076   0.581   4.572 -0.4872  1.1615 -0.2858
   90MOL0     C12317  11.068   0.717   4.552 -0.1282  0.6860 -0.5893
   90MOL0     O12318  11.147   0.805   4.488  0.7480  0.9060 -0.9183
   90MOL0     C12319  11.268   0.761   4.423 -0.0057 -0.6370  0.4638
   90MOL0     C12320  11.349   0.882   4.374  0.6552 -0.1413  0.4245
   90MOL0     C12321  11.467   0.842   4.282  0.8546  0.2241  0.4697
   90MOL0     C12322  11.549   0.957   4.212  0.6640  0.5960 -1.0273
   90MOL0     C12323  11.692   0.899   4.188  0.7753 -0.7520  0.3575
   90MOL0     C12324  11.775   1.010   4.117 -0.0460  0.0631 -0.4302
   90MOL0     C12325  11.919   0.964   4.105  0.0074 -0.6964  0.0594
   90MOL0     C12326  12.008   1.066   4.040  0.1107 -0.6361  0.1794
   90MOL0    Cl12327  12.164   0.996   4.008 -0.3425 -0.4188  0.3978
   90MOL0     C12328  10.955   0.780   4.607  0.1533 -0.1621 -0.6330
   90MOL0     C12329  10.859   0.709   4.671 -0.7973 -0.7753 -0.5953
   90MOL0     O12330  10.835   0.571   4.953  0.6723  0.6517  0.0194
   90MOL0     C12331  10.555   0.608   5.011  0.5343 -0.6740 -0.3507
   90MOL0     C12332  10.420   0.610   5.044 -0.4442 -0.1076 -0.4182
   90MOL0     N12333  10.025   0.674   5.534 -0.2853 -0.2578  0.1369
   90MOL0     N12334   9.898   0.703   5.539  0.6166  1.2380  0.7585
   90MOL0     C12335   8.767   0.867   5.497 -0.0052 -0.2531 -0.2525
   90MOL0     C12336   8.637   0.921   5.515  0.0570 -0.6025 -0.3661
   90MOL0     C12337   8.220   1.085   5.335 -0.4522 -0.3326 -0.0653
   90MOL0     C12338   8.122   1.052   5.240 -0.0075  0.4804 -1.2735
   90MOL0     C12339   8.003   1.123   5.238 -0.1509  0.6903  0.0454
   90MOL0     C12340   7.971   1.226   5.328  0.3199  0.6853 -0.0837
   90MOL0     O12341   7.851   1.294   5.322  0.3117  0.2117 -0.0684
   90MOL0     C12342   7.752   1.233   5.396 -0.0663 -0.1454  0.2069
   90MOL0     C12343   7.647   1.154   5.312 -1.1945  0.3774 -0.1547
   90MOL0     C12344   7.550   1.241   5.224  0.0679  0.4933 -0.1384
   90MOL0     C12345   7.407   1.244   5.272  0.5842 -0.4030  0.1535
   90MOL0     C12346   7.400   1.308   5.408  0.2987 -0.8299 -0.5295
   90MOL0     C12347   7.374   1.352   5.525 -0.1894 -0.6078  0.4818
   90MOL0     C12348   8.068   1.257   5.430  0.4257 -0.9549  0.3600
   90MOL0     C12349   8.187   1.178   5.439 -0.8623 -0.1754 -0.7233
   90MOL0     C12350   8.270   1.196   5.561  0.2799 -0.3980 -0.5307
   90MOL0     H12351   8.615   1.066   5.209 -0.3410  1.5385  1.2143
   90MOL0     H12352   8.857   0.979   5.205 -0.2985 -0.4596  0.4383
   90MOL0     H12353   8.944   0.650   5.399  0.6944  0.3628 -1.0501
   90MOL0     H12354   9.026   0.721   5.541 -0.5168 -0.9497  0.7478
   90MOL0     H12355   9.195   0.609   5.384 -1.4176 -1.0580 -1.0178
   90MOL0     H12356   9.135   0.727   5.254 -0.6923  2.0090  1.2592
   90MOL0     H12357   9.215   0.901   5.428  2.2692  0.2379  1.3144
   90MOL0     H12358   9.284   0.770   5.514  1.0584 -0.0045 -0.5615
   90MOL0     H12359   9.402   0.710   5.290  0.8565 -0.0464  0.7298
   90MOL0     H12360   9.352   0.873   5.234  3.0472  0.7477  0.6893
   90MOL0     H12361   9.498   0.977   5.409  2.1847  0.4150  1.2823
   90MOL0     H12362   9.587   0.860   5.310  0.4091  0.7472  1.5093
   90MOL0     H12363   9.639   0.844   5.546 -0.5434  0.1107  1.5339
   90MOL0     H12364   9.483   0.783   5.580 -1.0511  0.0094 -0.9241
   90MOL0     H12365   9.644   0.628   5.365  2.2808 -2.3117  1.3169
   90MOL0     H12366   9.506   0.576   5.454 -0.0944  0.5724  1.7812
   90MOL0     H12367   9.649   0.611   5.659 -2.0526 -1.4402  0.0861
   90MOL0     H12368   9.668   0.463   5.566 -1.2218  1.5638  0.5710
   90MOL0     H12369   9.913   0.376   5.533  0.5441  0.1827 -0.0096
   90MOL0     H12370  10.156   0.369   5.513 -0.7194  0.0665 -1.8811
   90MOL0     H12371  10.244   0.520   5.528  1.6212 -0.4250 -0.7761
   90MOL0     H12372  10.203   0.582   5.292 -1.1854 -0.1428 -0.9997
   90MOL0     H12373  10.296   0.430   5.292  0.1025  1.2547 -0.7378
   90MOL0     H12374  10.057   0.334   5.290  1.3584  0.5857  0.9044
   90MOL0     H12375  10.011   0.495   5.234 -0.4240  0.1771 -1.1280
   90MOL0     H12376  10.225   0.313   5.094  1.1130  1.2463  0.5698
   90MOL0     H12377  10.073   0.349   5.021  0.2334 -0.6770  0.3159
   90MOL0     H12378  10.313   0.348   4.854  0.5594 -2.7206  2.3316
   90MOL0     H12379  10.582   0.360   4.667  1.1643 -0.8247 -1.1514
   90MOL0     H12380  10.520   0.216   4.762 -1.5793  0.7628  0.9848
   90MOL0     H12381  10.676   0.281   4.793 -0.9268 -0.9155  1.6614
   90MOL0     H12382  10.996   0.402   4.678  0.0534  0.7809  0.7531
   90MOL0     H12383  11.173   0.543   4.542  0.7451  2.4332  1.8134
   90MOL0     H12384  11.316   0.691   4.493 -0.8710  0.0489  1.7864
   90MOL0     H12385  11.234   0.707   4.335  2.8597 -0.2842 -0.9875
   90MOL0     H12386  11.278   0.943   4.317  0.7741 -2.4868 -2.4899
   90MOL0     H12387  11.388   0.936   4.461  1.9207 -0.2629 -0.0581
   90MOL0     H12388  11.421   0.777   4.207  1.0322  0.1289  0.4448
   90MOL0     H12389  11.529   0.781   4.349 -1.4244 -1.3133  1.3111
   90MOL0     H12390  11.556   1.043   4.280 -2.9017 -0.8832  1.5226
   90MOL0     H12391  11.498   0.988   4.121 -1.0620  0.3272 -0.2024
   90MOL0     H12392  11.739   0.886   4.286 -0.3605  1.1865  1.2148
   90MOL0     H12393  11.697   0.802   4.138 -0.5869  0.6615 -2.7819
   90MOL0     H12394  11.776   1.101   4.177 -1.1256  0.6442 -1.2640
   90MOL0     H12395  11.736   1.032   4.017 -1.8286  0.4127  0.3105
   90MOL0     H12396  11.920   0.876   4.040 -1.5235  0.7615 -2.0605
   90MOL0     H12397  11.957   0.948   4.206 -4.3058 -0.5194  1.9150
   90MOL0     H12398  12.012   1.153   4.107 -0.0215 -0.0498 -0.5596
   90MOL0     H12399  11.963   1.110   3.950 -0.9786  0.0408  1.0240
   90MOL0     H12400  10.942   0.885   4.584 -2.0269 -0.2055  0.1345
   90MOL0     H12401  10.765   0.759   4.692 -0.4162 -0.0949 -0.4916
   90MOL0     H12402  10.624   0.670   5.068  0.8275  0.7949 -2.2313
   90MOL0     H12403  10.385   0.688   5.110 -1.9827  0.3297 -1.6814
   90MOL0     H12404   8.815   0.821   5.583  1.6501  0.9178 -0.5005
   90MOL0     H12405   8.584   0.923   5.610  0.8852 -2.8141  0.2136
   90MOL0     H12406   8.144   0.985   5.157  0.0007 -1.1984  0.0360
   90MOL0     H12407   7.936   1.097   5.157 -0.5882  1.6280  0.0861
   90MOL0     H12408   7.787   1.151   5.459  1.2302  0.0430 -0.2492
   90MOL0     H12409   7.703   1.315   5.450 -1.3687  0.6257 -1.9947
   90MOL0     H12410   7.590   1.096   5.386 -1.5116  0.1293 -0.5901
   90MOL0     H12411   7.707   1.083   5.255  0.4049  0.4803  1.3070
   90MOL0     H12412   7.584   1.343   5.207  1.9561  0.2604  1.7365
   90MOL0     H12413   7.537   1.183   5.132  0.4959 -0.7380  0.5458
   90MOL0     H12414   7.363   1.144   5.269  2.3303 -1.2163  0.3586
   90MOL0     H12415   7.363   1.304   5.191 -0.2928 -1.4468 -0.1703
   90MOL0     H12416   7.349   1.398   5.618  1.9291 -2.1011  1.8703
   90MOL0     H12417   8.056   1.335   5.505  0.8561 -0.9083  0.3797
   90MOL0     H12418   8.362   1.248   5.531 -0.8393  0.3776 -2.8236
   90MOL0     H12419   8.223   1.265   5.632  0.0182  2.1168 -2.9854
   90MOL0     H12420   8.302   1.105   5.612  1.2867  1.6815  2.8476
   91MOL0     O12421   7.645   7.073   3.017  0.9786  0.3547 -0.5652
   91MOL0     C12422   7.707   7.171   3.054  0.4111  0.4152  0.3680
   91MOL0     O12423   7.688   7.292   2.997 -0.1585  0.1131 -0.5923
   91MOL0     C12424   7.614   7.308   2.881 -0.6875  0.2937 -0.1087
   91MOL0     C12425   7.629   7.231   2.764 -0.3487  0.0424 -0.4248
   91MOL0     C12426   7.548   7.265   2.652 -0.2751 -0.4185 -0.3004
   91MOL0     C12427   7.458   7.368   2.650 -0.1410 -0.1876  0.2926
   91MOL0     O12428   7.384   7.393   2.538  0.1935 -0.2934 -0.0953
   91MOL0     C12429   7.257   7.457   2.556 -0.3713  0.3064  0.9293
   91MOL0     C12430   7.179   7.430   2.428 -0.5495 -0.1998  0.4396
   91MOL0     C12431   7.052   7.514   2.415  0.3573  0.9957 -1.2438
   91MOL0     C12432   6.942   7.446   2.506 -0.0806 -0.7817 -0.7924
   91MOL0     C12433   6.823   7.544   2.520 -0.1475 -0.4044 -0.0733
   91MOL0     C12434   6.757   7.576   2.384 -0.7502 -0.4047 -0.1740
   91MOL0     C12435   6.653   7.684   2.394 -0.1814 -0.3400 -0.6358
   91MOL0     C12436   6.609   7.729   2.251  0.6992  0.0471  0.3205
   91MOL0     N12437   6.537   7.856   2.256  0.4946  0.3314  0.2908
   91MOL0     C12438   6.581   7.973   2.195 -0.0430  0.0685  0.0466
   91MOL0     C12439   6.486   8.064   2.222 -0.5108  0.0256 -0.1498
   91MOL0     C12440   6.484   8.212   2.195  0.3774 -0.1971  0.6647
   91MOL0     C12441   6.553   8.296   2.307  0.8251  0.6256  0.2327
   91MOL0     C12442   6.562   8.441   2.264  0.8133  0.8733  0.0365
   91MOL0     C12443   6.665   8.504   2.360 -0.3704 -0.3466  0.5343
   91MOL0     O12444   6.662   8.447   2.497 -0.7995  0.5526  0.8263
   91MOL0     C12445   6.692   8.535   2.600 -0.5886  0.0476  0.2113
   91MOL0     C12446   6.816   8.574   2.636 -0.2925 -0.3785 -0.3521
   91MOL0     C12447   6.834   8.687   2.720 -0.0770  0.6161 -0.3459
   91MOL0     C12448   6.980   8.735   2.725 -0.0317  0.0323  0.5822
   91MOL0     C12449   6.727   8.751   2.776  0.2113  0.3197 -0.3481
   91MOL0     C12450   6.744   8.872   2.865  0.9266 -0.4087 -0.4087
   91MOL0     O12451   6.621   8.922   2.904 -0.9347 -0.2619 -0.4790
   91MOL0     C12452   6.635   9.041   2.977  0.7509 -0.2813  0.5179
   91MOL0     C12453   6.627   9.161   2.906  0.5866  1.6534 -0.6982
   91MOL0     C12454   6.642   9.279   2.975  0.4990 -0.5323 -0.0540
   91MOL0     C12455   6.666   9.288   3.117  0.1289 -0.5900  0.4978
   91MOL0     O12456   6.695   9.414   3.169 -0.3302 -0.2783 -0.4424
   91MOL0     C12457   6.690   9.435   3.310 -0.3635  0.2120  0.6016
   91MOL0     C12458   6.730   9.577   3.350 -0.4799 -0.3096  0.3198
   91MOL0     C12459   6.782   9.586   3.491 -0.0461  0.3559 -0.2953
   91MOL0     C12460   6.848   9.715   3.532 -1.1703 -0.1682 -0.0354
   91MOL0     C12461   6.897   9.719   3.678 -0.2728  0.1602 -0.3284
   91MOL0     C12462   6.959   9.854   3.719 -0.0115  0.0923 -0.1572
   91MOL0     C12463   6.950   9.878   3.873  0.0420  0.0354 -0.3621
   91MOL0     C12464   7.021  10.003   3.928  0.4417  1.1178  0.1474
   91MOL0    Cl12465   6.983  10.157   3.841 -0.0038  0.2551  0.0238
   91MOL0     C12466   6.668   9.167   3.184 -0.9769 -0.3979  1.6011
   91MOL0     C12467   6.645   9.043   3.114 -0.5493  0.1543  0.2063
   91MOL0     O12468   6.858   8.909   2.902 -0.5486 -0.0699 -0.3017
   91MOL0     C12469   6.599   8.700   2.760 -1.0400 -0.0496  0.5281
   91MOL0     C12470   6.584   8.593   2.665 -1.2721 -0.6039 -0.6289
   91MOL0     N12471   6.390   8.008   2.306  0.3994  0.0777 -0.6100
   91MOL0     N12472   6.419   7.881   2.317 -0.4271  1.1719  0.0090
   91MOL0     C12473   7.456   7.443   2.765  0.8187  0.3255 -0.2627
   91MOL0     C12474   7.523   7.417   2.883  0.1583 -0.3524  0.0183
   91MOL0     C12475   7.787   7.164   3.181  0.0261 -0.3613 -0.1023
   91MOL0     C12476   7.745   7.091   3.290  0.1744 -0.6842 -0.2135
   91MOL0     C12477   7.810   7.081   3.413 -0.2080  0.6009 -0.1576
   91MOL0     C12478   7.936   7.141   3.434  1.0864  0.2374 -0.2221
   91MOL0     O12479   7.985   7.139   3.564 -0.2292 -0.2931  0.4347
   91MOL0     C12480   8.121   7.164   3.587 -0.4108 -0.8100  0.2958
   91MOL0     C12481   8.164   7.308   3.612 -0.8002 -0.6537 -0.6442
   91MOL0     C12482   8.312   7.312   3.680  0.6537 -0.3581 -0.2889
   91MOL0     C12483   8.414   7.239   3.594 -0.1994 -0.7615 -0.7083
   91MOL0     C12484   8.556   7.256   3.636 -0.3897 -0.0010  0.8369
   91MOL0     C12485   8.676   7.274   3.658 -0.0266 -0.6033  0.7845
   91MOL0     C12486   7.989   7.207   3.319  0.9172  0.3831 -0.8159
   91MOL0     C12487   7.917   7.217   3.197 -0.4910 -0.3050  0.2711
   91MOL0     C12488   7.987   7.286   3.088  0.6612  0.6689  1.2080
   91MOL0     H12489   7.705   7.154   2.769 -0.3956 -0.0552 -1.1796
   91MOL0     H12490   7.564   7.205   2.563 -0.1809  0.8855 -1.2016
   91MOL0     H12491   7.268   7.565   2.566  1.1178  0.1212  1.6585
   91MOL0     H12492   7.211   7.406   2.642  0.0340  2.2354  2.3674
   91MOL0     H12493   7.243   7.472   2.350 -2.1009  3.7179  1.0766
   91MOL0     H12494   7.141   7.329   2.407 -2.8906  0.3224  1.7356
   91MOL0     H12495   7.064   7.618   2.444 -0.7138  1.3233 -1.9319
   91MOL0     H12496   7.020   7.527   2.311  0.2592  0.5841 -1.2700
   91MOL0     H12497   6.909   7.351   2.462  0.2488 -1.5255  0.5248
   91MOL0     H12498   6.977   7.417   2.605  0.7583 -0.1040 -0.8744
   91MOL0     H12499   6.857   7.637   2.567  0.1397 -0.9734  0.8524
   91MOL0     H12500   6.740   7.496   2.574 -2.0945  0.5133 -2.0529
   91MOL0     H12501   6.837   7.615   2.321 -0.0030 -1.1608  0.2830
   91MOL0     H12502   6.714   7.492   2.330  1.0301 -1.5125  0.0719
   91MOL0     H12503   6.694   7.771   2.445 -2.1482  0.2032  0.0991
   91MOL0     H12504   6.566   7.661   2.457 -0.9710  2.0031 -0.7664
   91MOL0     H12505   6.693   7.737   2.182 -0.3363 -2.7570 -1.4469
   91MOL0     H12506   6.543   7.656   2.204  0.2297  1.2903 -1.0301
   91MOL0     H12507   6.672   7.988   2.138 -0.8773  0.6512 -1.1817
   91MOL0     H12508   6.381   8.247   2.186  0.5872  0.0515 -1.2768
   91MOL0     H12509   6.537   8.240   2.103 -1.0294 -0.0354 -0.1252
   91MOL0     H12510   6.487   8.291   2.394 -1.4975  0.6679 -1.4439
   91MOL0     H12511   6.653   8.255   2.325  1.9068  3.1652  0.5522
   91MOL0     H12512   6.613   8.446   2.168  3.0306  2.7444  1.2338
   91MOL0     H12513   6.463   8.486   2.251  1.0441  0.6216 -3.7527
   91MOL0     H12514   6.760   8.501   2.306 -1.0573  1.1034 -0.8267
   91MOL0     H12515   6.641   8.609   2.378 -0.0664 -0.4171  1.3776
   91MOL0     H12516   6.902   8.538   2.580 -1.7078 -0.5831 -2.5014
   91MOL0     H12517   7.049   8.676   2.664 -0.1760  0.1523  0.2969
   91MOL0     H12518   7.020   8.730   2.827 -2.1696 -0.0912  1.4551
   91MOL0     H12519   6.989   8.837   2.686  3.8293 -0.6411 -0.7082
   91MOL0     H12520   6.608   9.162   2.799  1.1874 -0.4508 -0.8685
   91MOL0     H12521   6.634   9.371   2.919  3.3377  0.0462  0.3704
   91MOL0     H12522   6.587   9.418   3.345  0.4637  0.2697  3.3351
   91MOL0     H12523   6.752   9.361   3.363 -2.8225 -0.5760  2.5914
   91MOL0     H12524   6.816   9.592   3.284 -0.5576 -2.7981 -0.4901
   91MOL0     H12525   6.648   9.646   3.328 -0.3579  0.4340  2.0638
   91MOL0     H12526   6.858   9.508   3.507  0.3556  0.8357  0.1923
   91MOL0     H12527   6.706   9.553   3.562  0.9497  0.1273  0.7019
   91MOL0     H12528   6.766   9.788   3.529 -0.8872  0.2091  0.9601
   91MOL0     H12529   6.925   9.754   3.465  0.1761  2.9008  3.0208
   91MOL0     H12530   6.821   9.686   3.749 -0.1782  2.2558  0.8233
   91MOL0     H12531   6.981   9.649   3.680  0.3527  0.8655  2.1458
   91MOL0     H12532   6.919   9.930   3.651  1.3706 -0.4048 -1.5794
   91MOL0     H12533   7.064   9.855   3.688 -0.1660 -2.1137 -0.9120
   91MOL0     H12534   6.989   9.790   3.924 -2.1044 -0.6533  0.1762
   91MOL0     H12535   6.848   9.890   3.911  1.5348  1.7838  3.5850
   91MOL0     H12536   7.127   9.979   3.920 -0.4982 -3.0890 -2.8541
   91MOL0     H12537   6.987  10.016   4.032 -1.0533  0.1595 -0.1800
   91MOL0     H12538   6.697   9.154   3.288 -0.1101 -0.4041  1.3660
   91MOL0     H12539   6.641   8.950   3.170  0.2720 -0.4914 -0.7585
   91MOL0     H12540   6.507   8.738   2.803 -1.9414 -1.8690  0.3002
   91MOL0     H12541   6.485   8.562   2.634 -0.4578 -1.6088 -2.3497
   91MOL0     H12542   7.381   7.521   2.774 -1.2775 -1.8285  2.5041
   91MOL0     H12543   7.509   7.467   2.978 -0.5311 -2.7847  1.2552
   91MOL0     H12544   7.642   7.060   3.284 -0.1904  0.7143 -3.2635
   91MOL0     H12545   7.778   7.020   3.497  1.8732  0.4577  0.5957
   91MOL0     H12546   8.141   7.104   3.677  0.4903  0.8282  1.2532
   91MOL0     H12547   8.186   7.128   3.507  0.5202  0.2611  0.5480
   91MOL0     H12548   8.097   7.358   3.683  2.0641  2.9312 -0.1538
   91MOL0     H12549   8.165   7.362   3.517  1.3374 -0.1522 -0.3793
   91MOL0     H12550   8.325   7.421   3.686  1.8646 -0.4878 -0.2678
   91MOL0     H12551   8.311   7.265   3.779  2.8278 -1.7754 -0.8691
   91MOL0     H12552   8.409   7.258   3.487 -1.7596  2.2205 -0.2127
   91MOL0     H12553   8.401   7.131   3.608 -0.8719 -0.6955 -0.7943
   91MOL0     H12554   8.781   7.296   3.657 -0.6553  3.2379 -1.3729
   91MOL0     H12555   8.086   7.255   3.327  0.1336  1.7162  1.9277
   91MOL0     H12556   7.941   7.270   2.990  1.1553 -1.1321  1.2350
   91MOL0     H12557   8.000   7.394   3.096  4.2259  0.4818 -0.1577
   91MOL0     H12558   8.085   7.236   3.086 -0.4575 -1.6628 -0.9249
   92MOL0     O12559  10.559  10.772   3.138  0.1669  0.8047  0.6504
   92MOL0     C12560  10.563  10.715   3.247 -0.5049 -0.4970 -0.5570
   92MOL0     O12561  10.676  10.679   3.322  0.3327 -0.1701  0.3545
   92MOL0     C12562  10.799  10.739   3.288 -0.6502  0.4112 -0.2190
   92MOL0     C12563  10.889  10.680   3.199 -0.9408  0.5547 -0.2918
   92MOL0     C12564  11.016  10.749   3.185  0.2531 -0.2142 -1.3582
   92MOL0     C12565  11.055  10.868   3.249  0.0667  0.1030  0.5945
   92MOL0     O12566  11.179  10.931   3.226 -0.4439  0.0678 -0.2333
   92MOL0     C12567  11.270  10.864   3.136 -0.1326  0.9678 -0.7460
   92MOL0     C12568  11.404  10.935   3.122 -0.5257 -0.5112 -0.2012
   92MOL0     C12569  11.480  10.964   3.254 -0.3452  0.4682 -0.8240
   92MOL0     C12570  11.611  11.045   3.222  0.3446  0.2578 -0.2089
   92MOL0     C12571  11.691  11.051   3.348  0.8386 -0.1573 -0.2033
   92MOL0     C12572  11.720  10.917   3.432 -0.6620 -0.7400 -0.3029
   92MOL0     C12573  11.773  10.799   3.349 -0.3705  0.8532  0.0781
   92MOL0     C12574  11.913  10.823   3.279  0.2722 -0.0456  0.3377
   92MOL0     N12575  11.945  10.720   3.177 -1.4551  0.3908  0.5917
   92MOL0     C12576  11.932  10.583   3.207 -0.2204  0.7562  0.1860
   92MOL0     C12577  12.019  10.519   3.120  0.1851 -0.0733  0.1426
   92MOL0     C12578  12.033  10.371   3.106  1.3394  1.2535 -0.6173
   92MOL0     C12579  12.180  10.324   3.106 -0.5856 -0.7542 -0.2819
   92MOL0     C12580  12.266  10.376   3.219  0.0330 -0.1538 -0.0009
   92MOL0     C12581  12.230  10.331   3.359  0.2069 -0.2023  0.5427
   92MOL0     O12582  12.228  10.181   3.355  0.1168  0.0257 -0.0161
   92MOL0     C12583  12.346  10.112   3.384  0.2286 -0.1240  0.9909
   92MOL0     C12584  12.473  10.157   3.410 -0.4156 -0.3640 -0.1422
   92MOL0     C12585  12.579  10.079   3.461 -0.6168  0.0630  0.4238
   92MOL0     C12586  12.707  10.150   3.474 -0.1580 -1.2583  0.2087
   92MOL0     C12587  12.553   9.941   3.477  0.2975  0.8635 -0.7977
   92MOL0     C12588  12.669   9.841   3.505  0.2113 -0.5147  0.8711
   92MOL0     O12589  12.644   9.716   3.451  0.1123 -0.0522  0.1007
   92MOL0     C12590  12.732   9.614   3.448 -0.4276 -0.7521  0.2734
   92MOL0     C12591  12.755   9.555   3.325 -0.7005 -0.3105  0.5353
   92MOL0     C12592  12.850   9.458   3.324  0.0915 -0.0801 -0.0282
   92MOL0     C12593  12.914   9.407   3.444  0.0238 -0.7445 -0.8482
   92MOL0     O12594  13.003   9.301   3.444 -0.1659  0.4228  0.4247
   92MOL0     C12595  13.055   9.247   3.320  0.0307  0.3828  0.0579
   92MOL0     C12596  13.177   9.330   3.276  1.0528  0.5436 -0.0510
   92MOL0     C12597  13.291   9.324   3.375 -0.0495  0.2556  0.7629
   92MOL0     C12598  13.409   9.402   3.304  0.5889  0.6478 -0.5214
   92MOL0     C12599  13.538   9.395   3.393 -0.5284 -0.3467 -0.9106
   92MOL0     C12600  13.635   9.492   3.323  0.2072 -0.7974 -0.7433
   92MOL0     C12601  13.779   9.477   3.387  0.3613 -0.3781  0.6717
   92MOL0     C12602  13.849   9.614   3.369 -0.5050 -0.5914  0.1684
   92MOL0    Cl12603  13.818   9.730   3.501  0.4121 -0.2061 -0.2398
   92MOL0     C12604  12.879   9.468   3.564 -0.1986  0.7193 -0.4009
   92MOL0     C12605  12.799   9.579   3.564  0.5774 -0.3316 -0.0435
   92MOL0     O12606  12.758   9.876   3.585 -0.0722  0.1027 -0.3753
   92MOL0     C12607  12.418   9.897   3.449 -0.8267 -0.8691  0.3600
   92MOL0     C12608  12.319   9.979   3.396 -0.7273 -0.4189 -1.4214
   92MOL0     N12609  12.078  10.616   3.043 -0.8204  0.0553 -0.1977
   92MOL0     N12610  12.044  10.731   3.083  0.1339 -0.2594  0.7568
   92MOL0     C12611  10.959  10.922   3.334  0.0900  0.4977 -0.3547
   92MOL0     C12612  10.836  10.862   3.349 -0.3835  0.0414 -0.7452
   92MOL0     C12613  10.433  10.688   3.314  1.3669 -0.4565 -0.1246
   92MOL0     C12614  10.344  10.599   3.238  0.1225  0.1794 -0.0863
   92MOL0     C12615  10.216  10.587   3.278  1.1859 -0.5788 -0.3712
   92MOL0     C12616  10.154  10.666   3.384  0.7252 -0.4649  0.7719
   92MOL0     O12617  10.014  10.645   3.415 -1.3712 -0.6122  0.0945
   92MOL0     C12618   9.956  10.758   3.482 -0.0182  0.2719 -0.0453
   92MOL0     C12619   9.946  10.889   3.399 -0.0129  0.1894 -0.0182
   92MOL0     C12620   9.863  10.995   3.478 -0.5834 -0.0937  0.4124
   92MOL0     C12621   9.814  11.116   3.401  0.3226  0.3422 -0.4795
   92MOL0     C12622   9.761  11.219   3.496 -0.2915  0.2238 -0.5366
   92MOL0     C12623   9.707  11.296   3.579 -0.6341 -0.0396  0.1831
   92MOL0     C12624  10.237  10.751   3.452 -0.0123  1.0736 -0.5444
   92MOL0     C12625  10.380  10.768   3.412  0.5736  1.2743 -0.9204
   92MOL0     C12626  10.460  10.872   3.480 -0.7358 -0.3380 -0.0420
   92MOL0     H12627  10.864  10.588   3.148  2.3758 -0.0055 -1.1274
   92MOL0     H12628  11.079  10.691   3.119  0.7906 -0.5299 -0.5638
   92MOL0     H12629  11.225  10.864   3.036 -3.5071 -2.5703  0.5043
   92MOL0     H12630  11.285  10.762   3.172 -1.7243  0.9573 -0.0510
   92MOL0     H12631  11.469  10.864   3.069  0.8758  1.7475 -1.7236
   92MOL0     H12632  11.398  11.026   3.062 -2.3360  2.5854  4.1740
   92MOL0     H12633  11.414  11.019   3.321  0.9561  1.2441 -0.1294
   92MOL0     H12634  11.513  10.867   3.290 -1.7382  0.4937  0.5740
   92MOL0     H12635  11.672  10.996   3.145  0.5199 -1.4811  0.9776
   92MOL0     H12636  11.589  11.146   3.186  1.5951  0.4082 -0.6046
   92MOL0     H12637  11.624  11.104   3.416 -0.9407 -0.1336 -1.8939
   92MOL0     H12638  11.788  11.100   3.333  0.4471  0.0853 -2.2597
   92MOL0     H12639  11.793  10.941   3.510 -1.9372 -1.5049  1.1985
   92MOL0     H12640  11.634  10.887   3.492 -0.3663 -0.3573  0.3210
   92MOL0     H12641  11.703  10.780   3.266  0.9207 -2.5441 -0.4097
   92MOL0     H12642  11.781  10.701   3.396 -1.5029  1.5489  1.8193
   92MOL0     H12643  11.902  10.919   3.229 -1.2280  0.3126  1.3029
   92MOL0     H12644  11.990  10.820   3.356  0.6014  3.0312  0.2363
   92MOL0     H12645  11.874  10.529   3.281  0.5978 -2.0520 -1.0818
   92MOL0     H12646  11.976  10.346   3.016 -2.3420 -1.5672  2.1669
   92MOL0     H12647  11.981  10.311   3.182  1.7862 -0.6326 -1.7391
   92MOL0     H12648  12.181  10.215   3.116 -3.3621 -0.7775  0.8590
   92MOL0     H12649  12.223  10.349   3.009 -0.2785 -0.4493 -0.0650
   92MOL0     H12650  12.371  10.348   3.206  0.7051  0.9905  2.3517
   92MOL0     H12651  12.265  10.484   3.209 -2.0392 -0.2101 -0.9164
   92MOL0     H12652  12.317  10.369   3.413  0.7643  1.7651 -1.5929
   92MOL0     H12653  12.141  10.380   3.400  0.2398  0.5171 -0.2148
   92MOL0     H12654  12.481  10.265   3.403  0.3730 -0.4954 -1.5005
   92MOL0     H12655  12.697  10.241   3.414 -0.1843 -1.1294  0.4072
   92MOL0     H12656  12.785  10.092   3.424 -3.3249 -2.6133 -3.6213
   92MOL0     H12657  12.732  10.178   3.577  0.2275 -0.2781 -0.1324
   92MOL0     H12658  12.698   9.593   3.241 -2.6105 -0.2788  1.7736
   92MOL0     H12659  12.877   9.408   3.231  1.8913 -2.1697  1.5120
   92MOL0     H12660  13.089   9.145   3.336  3.0065  1.1378 -0.7896
   92MOL0     H12661  12.982   9.246   3.238 -0.4544  3.7473  0.3007
   92MOL0     H12662  13.201   9.299   3.174 -3.6070  4.7182 -2.8888
   92MOL0     H12663  13.152   9.436   3.279  0.8459  0.4724  1.7512
   92MOL0     H12664  13.314   9.219   3.392 -3.2857 -0.8952 -1.0736
   92MOL0     H12665  13.276   9.369   3.474  1.0844  3.4874 -0.3964
   92MOL0     H12666  13.370   9.504   3.298 -1.0074  0.7568  5.5310
   92MOL0     H12667  13.426   9.360   3.204 -4.9985  2.3378 -2.5986
   92MOL0     H12668  13.537   9.422   3.499  0.9679 -1.6766 -0.5066
   92MOL0     H12669  13.574   9.292   3.386 -1.1376 -1.0881  3.6608
   92MOL0     H12670  13.604   9.597   3.329 -0.8192 -1.1049 -0.5658
   92MOL0     H12671  13.646   9.471   3.216  0.7953 -0.1516 -0.8221
   92MOL0     H12672  13.849   9.403   3.348  1.4472  0.1153  1.6287
   92MOL0     H12673  13.770   9.453   3.493  2.5076 -1.0327  0.7511
   92MOL0     H12674  13.832   9.669   3.276 -0.7662 -0.7772  0.1047
   92MOL0     H12675  13.957   9.599   3.377 -0.4776 -0.7517 -0.4306
   92MOL0     H12676  12.927   9.436   3.656  0.1213  1.1887 -0.4046
   92MOL0     H12677  12.789   9.637   3.654 -0.3311  1.2300 -1.1020
   92MOL0     H12678  12.393   9.791   3.451  0.0925 -1.0833  1.1958
   92MOL0     H12679  12.218   9.944   3.375 -1.1930 -1.3111  1.8527
   92MOL0     H12680  10.976  11.013   3.392  2.0520 -0.9820  1.6135
   92MOL0     H12681  10.759  10.897   3.417 -2.3668 -1.7763 -1.9767
   92MOL0     H12682  10.379  10.543   3.152 -1.7279  0.2753 -0.9498
   92MOL0     H12683  10.167  10.510   3.219  1.7309 -2.2625  1.2702
   92MOL0     H12684   9.856  10.722   3.510 -0.6971  1.3494 -0.9565
   92MOL0     H12685  10.007  10.793   3.572  1.6275 -2.4493  0.1855
   92MOL0     H12686   9.900  10.866   3.302  1.0296  0.2369 -0.5320
   92MOL0     H12687  10.045  10.927   3.372 -0.0672 -0.4869 -1.2668
   92MOL0     H12688   9.774  10.946   3.520  0.4611 -1.0184  1.6422
   92MOL0     H12689   9.928  11.025   3.561 -0.3721 -0.9616  0.5755
   92MOL0     H12690   9.733  11.081   3.336  0.7871 -0.4774 -0.6313
   92MOL0     H12691   9.897  11.153   3.341  0.6495 -1.2940 -1.0831
   92MOL0     H12692   9.654  11.364   3.642 -0.7120  1.4909 -1.4584
   92MOL0     H12693  10.202  10.821   3.527  3.9176  2.1919  0.5145
   92MOL0     H12694  10.493  10.949   3.409  1.6960 -2.1009 -0.9707
   92MOL0     H12695  10.415  10.928   3.563  0.8393  0.4609  0.3196
   92MOL0     H12696  10.548  10.826   3.527  0.0182  1.1003  0.0079
   93MOL0     O12697   9.189   1.036   9.202 -0.0878  0.5333 -0.6203
   93MOL0     C12698   9.275   1.093   9.271  0.0853  0.7384  0.4853
   93MOL0     O12699   9.405   1.052   9.274 -0.1929  0.4175  0.1214
   93MOL0     C12700   9.446   0.931   9.213  0.2944 -0.1900 -0.3750
   93MOL0     C12701   9.542   0.939   9.113 -0.1690 -0.4653  0.1466
   93MOL0     C12702   9.580   0.827   9.040  0.0581 -0.8213 -0.3468
   93MOL0     C12703   9.536   0.698   9.068  0.7221  0.0743  0.2633
   93MOL0     O12704   9.601   0.603   8.995  1.2063  0.3140 -0.0047
   93MOL0     C12705   9.562   0.469   9.026 -0.6745 -0.0335 -0.1566
   93MOL0     C12706   9.664   0.372   8.974 -1.0123  0.3693  0.1781
   93MOL0     C12707   9.804   0.405   9.034  0.2560  0.1313  0.2344
   93MOL0     C12708   9.915   0.300   8.996 -0.5981  0.3450  0.0071
   93MOL0     C12709   9.971   0.310   8.853  0.1495  0.1119  0.5970
   93MOL0     C12710  10.092   0.207   8.841 -0.2642  0.8031 -0.0752
   93MOL0     C12711  10.148   0.222   8.705  0.4951  0.0361  1.4691
   93MOL0     C12712  10.270   0.128   8.696 -1.3956 -0.4123  0.8975
   93MOL0     N12713  10.365   0.181   8.595 -0.3079 -0.2148  0.2636
   93MOL0     C12714  10.469   0.271   8.609  0.4414 -0.4561 -0.2971
   93MOL0     C12715  10.515   0.289   8.483 -0.3540 -0.1956 -0.7201
   93MOL0     C12716  10.626   0.385   8.443  0.0463  0.1184 -0.8949
   93MOL0     C12717  10.748   0.315   8.388  0.0093 -0.4610  0.2452
   93MOL0     C12718  10.875   0.395   8.360  1.2807 -0.5811  0.7390
   93MOL0     C12719  10.910   0.511   8.454 -0.7899 -0.4651  0.2156
   93MOL0     O12720  11.026   0.583   8.415  0.2798 -0.5097 -0.5688
   93MOL0     C12721  11.151   0.546   8.458  0.4311 -0.0275  0.2479
   93MOL0     C12722  11.174   0.422   8.531  0.0447 -0.5860 -0.2082
   93MOL0     C12723  11.306   0.396   8.562 -0.5534 -0.2371  0.1594
   93MOL0     C12724  11.327   0.255   8.599  0.1818  0.1708 -0.7369
   93MOL0     C12725  11.415   0.486   8.527  0.0836  0.1368 -0.2706
   93MOL0     C12726  11.550   0.455   8.554  0.1309  0.3657 -0.4169
   93MOL0     O12727  11.644   0.465   8.454 -0.8805 -0.6528 -0.0604
   93MOL0     C12728  11.769   0.494   8.504  0.3954  0.2291 -0.3126
   93MOL0     C12729  11.802   0.632   8.521  0.1569  0.1837  0.7360
   93MOL0     C12730  11.926   0.657   8.593 -0.4063  0.2636 -0.5075
   93MOL0     C12731  12.016   0.551   8.622 -0.1273 -0.7207  0.5626
   93MOL0     O12732  12.127   0.589   8.699  0.2749 -0.1162 -0.1913
   93MOL0     C12733  12.223   0.490   8.724 -0.3545  0.0689 -0.0162
   93MOL0     C12734  12.344   0.549   8.796  0.0465  0.9273  0.3499
   93MOL0     C12735  12.477   0.486   8.760  0.5719  0.2515  0.5522
   93MOL0     C12736  12.484   0.334   8.805  0.0742 -0.3854  1.3070
   93MOL0     C12737  12.625   0.266   8.769 -0.0869  0.4521 -0.8575
   93MOL0     C12738  12.620   0.115   8.798  0.4828 -0.1128 -0.4670
   93MOL0     C12739  12.585   0.077   8.941  0.0609 -0.1292  0.3522
   93MOL0     C12740  12.596  -0.078   8.954  0.0788 -0.5034  0.5712
   93MOL0    Cl12741  12.471  -0.155   8.848 -0.2089  0.0094  0.1603
   93MOL0     C12742  11.983   0.420   8.593  0.2232  0.4202  0.0275
   93MOL0     C12743  11.866   0.392   8.536  1.3747 -0.9743  0.1520
   93MOL0     O12744  11.571   0.453   8.675 -0.6578  0.3263 -0.0942
   93MOL0     C12745  11.389   0.602   8.456  0.2290  0.2487  0.1039
   93MOL0     C12746  11.259   0.628   8.418 -1.0483 -0.1796  0.5025
   93MOL0     N12747  10.439   0.211   8.398  0.3271 -0.0216 -0.4149
   93MOL0     N12748  10.357   0.143   8.469  0.2296 -0.3635 -0.0401
   93MOL0     C12749   9.441   0.688   9.169  0.4303 -0.1666  0.8539
   93MOL0     C12750   9.398   0.801   9.239  0.4147 -1.0901  0.8273
   93MOL0     C12751   9.253   1.218   9.345 -0.4765 -0.2546  0.3374
   93MOL0     C12752   9.360   1.287   9.402  0.7411  0.1080  0.4164
   93MOL0     C12753   9.348   1.405   9.470 -0.0561 -0.0328  0.2003
   93MOL0     C12754   9.226   1.475   9.467  0.2009  0.3556  0.2033
   93MOL0     O12755   9.217   1.608   9.502  0.6244 -0.1753 -0.0671
   93MOL0     C12756   9.322   1.696   9.516 -0.8642  0.4945  0.0859
   93MOL0     C12757   9.279   1.830   9.551  0.3006 -0.0230  0.1168
   93MOL0     C12758   9.398   1.914   9.590 -0.1607  0.5705  0.1136
   93MOL0     C12759   9.378   2.067   9.615 -0.8962  0.4279 -0.0606
   93MOL0     C12760   9.260   2.087   9.697  0.1313  1.0524 -0.8148
   93MOL0     C12761   9.172   2.116   9.781 -0.3624  0.0202 -0.7910
   93MOL0     C12762   9.122   1.415   9.401 -0.3387 -0.2188  0.1262
   93MOL0     C12763   9.126   1.287   9.356 -0.4226  0.9624  0.0524
   93MOL0     C12764   9.002   1.235   9.291 -0.5395 -0.2578 -0.4116
   93MOL0     H12765   9.589   1.036   9.097 -2.3352  0.4554 -1.1349
   93MOL0     H12766   9.650   0.843   8.959 -0.3195  1.4015 -0.2829
   93MOL0     H12767   9.467   0.444   8.978  0.0612 -0.3013 -1.5307
   93MOL0     H12768   9.550   0.444   9.132 -0.6745  0.0235 -0.1428
   93MOL0     H12769   9.631   0.271   8.999  1.8610 -1.1221 -1.5669
   93MOL0     H12770   9.683   0.382   8.866 -2.1789 -0.3590 -0.1200
   93MOL0     H12771   9.835   0.507   9.008  0.9578  0.0344  0.6717
   93MOL0     H12772   9.803   0.390   9.143 -1.8266 -0.0859  0.2227
   93MOL0     H12773   9.993   0.302   9.072 -2.5615 -0.9949  2.2101
   93MOL0     H12774   9.866   0.204   9.012  0.7684 -0.0659  2.0845
   93MOL0     H12775   9.995   0.412   8.825 -1.5122 -0.2926 -2.8096
   93MOL0     H12776   9.888   0.276   8.790 -0.5111  1.1906  0.8593
   93MOL0     H12777  10.164   0.237   8.917 -0.9616 -0.7015  1.2258
   93MOL0     H12778  10.067   0.103   8.860  0.8536  0.7978  1.4601
   93MOL0     H12779  10.178   0.326   8.686 -0.1887 -0.2410 -1.6650
   93MOL0     H12780  10.069   0.206   8.632  0.3442 -1.7170  1.9952
   93MOL0     H12781  10.310   0.113   8.797  0.9179 -0.1465  0.0586
   93MOL0     H12782  10.242   0.027   8.662  0.6700 -0.5293 -0.6236
   93MOL0     H12783  10.497   0.322   8.700  0.6018  0.8106 -1.0389
   93MOL0     H12784  10.645   0.435   8.538 -0.6447  0.0630 -0.7227
   93MOL0     H12785  10.585   0.454   8.370 -2.8515  1.6817  1.9425
   93MOL0     H12786  10.782   0.234   8.454  2.4744 -1.9924 -2.6248
   93MOL0     H12787  10.732   0.268   8.290  4.6825 -2.3043  0.0952
   93MOL0     H12788  10.957   0.323   8.360  2.4086  0.6702  1.8362
   93MOL0     H12789  10.877   0.430   8.256  2.5485 -1.1949  0.5404
   93MOL0     H12790  10.833   0.588   8.451  0.4333  0.7763 -1.4365
   93MOL0     H12791  10.912   0.476   8.557 -1.2846  0.4442  0.5421
   93MOL0     H12792  11.088   0.366   8.566 -2.9788  3.4807 -0.4227
   93MOL0     H12793  11.375   0.199   8.518 -1.5575 -3.2143  0.3931
   93MOL0     H12794  11.233   0.202   8.617  0.4144  0.1314  0.4864
   93MOL0     H12795  11.393   0.257   8.687  3.1333 -1.1799 -2.7626
   93MOL0     H12796  11.733   0.714   8.512 -0.0702 -0.0439  0.3660
   93MOL0     H12797  11.945   0.759   8.626  1.8775  0.0552 -1.0308
   93MOL0     H12798  12.169   0.420   8.789  0.6336  1.0680  1.9816
   93MOL0     H12799  12.249   0.439   8.631 -0.6286 -0.8225  0.3836
   93MOL0     H12800  12.358   0.648   8.752 -0.7027  0.6113 -0.6367
   93MOL0     H12801  12.329   0.553   8.904 -2.1176 -0.6508  0.1684
   93MOL0     H12802  12.550   0.542   8.818  0.0831  0.6859  0.7584
   93MOL0     H12803  12.500   0.506   8.655 -1.2995 -2.8409 -0.5809
   93MOL0     H12804  12.409   0.267   8.763  1.1918 -1.2877  0.7056
   93MOL0     H12805  12.469   0.345   8.912 -1.9738  1.5584  0.9015
   93MOL0     H12806  12.653   0.282   8.664 -1.7363 -1.5393 -1.6631
   93MOL0     H12807  12.706   0.307   8.830 -0.2031  0.1617 -0.5074
   93MOL0     H12808  12.719   0.071   8.783  1.8208  2.6081 -0.1782
   93MOL0     H12809  12.548   0.071   8.729 -2.3587  0.3318  2.0164
   93MOL0     H12810  12.483   0.111   8.965 -0.5370  0.5229 -2.7249
   93MOL0     H12811  12.646   0.132   9.013  0.5030  0.4740 -0.4809
   93MOL0     H12812  12.584  -0.107   9.059 -0.0349  2.7437  1.5667
   93MOL0     H12813  12.698  -0.106   8.928 -0.5728 -3.4464  0.8147
   93MOL0     H12814  12.035   0.329   8.621 -0.5660  0.4015  1.5307
   93MOL0     H12815  11.847   0.286   8.524  2.3746 -1.2436  0.8258
   93MOL0     H12816  11.464   0.674   8.424  0.6513 -0.1748  0.1246
   93MOL0     H12817  11.227   0.724   8.378  0.6705  1.2667  2.3965
   93MOL0     H12818   9.397   0.596   9.206 -2.4880  1.5152  1.8667
   93MOL0     H12819   9.315   0.806   9.308 -0.4186 -3.1869  0.0442
   93MOL0     H12820   9.460   1.245   9.413  2.4861  3.9298  0.7100
   93MOL0     H12821   9.436   1.449   9.516 -0.7644  0.2745  1.2996
   93MOL0     H12822   9.388   1.655   9.594  1.2401  0.7069 -1.4882
   93MOL0     H12823   9.376   1.700   9.421 -0.3386  2.2493  0.4128
   93MOL0     H12824   9.214   1.816   9.638  4.0943  0.6410  3.3448
   93MOL0     H12825   9.221   1.890   9.480  1.7285  1.0690 -0.1729
   93MOL0     H12826   9.443   1.859   9.673 -0.9503 -2.1288 -1.1344
   93MOL0     H12827   9.482   1.902   9.520 -0.3813 -2.4220  0.2454
   93MOL0     H12828   9.379   2.104   9.512 -0.1020 -3.7089 -1.7263
   93MOL0     H12829   9.464   2.112   9.666 -0.6370  2.8749 -2.4452
   93MOL0     H12830   9.105   2.118   9.865  2.8950  1.1084  2.0625
   93MOL0     H12831   9.028   1.470   9.396 -2.5025 -3.6754 -1.2546
   93MOL0     H12832   8.990   1.141   9.345 -2.0020  1.1967  1.9871
   93MOL0     H12833   8.916   1.301   9.308 -0.2387  0.2036 -0.6741
   93MOL0     H12834   9.014   1.234   9.182  0.8178  1.3192 -0.3065
   94MOL0     O12835   4.755   2.387   6.247 -0.3867  0.2475 -0.8527
   94MOL0     C12836   4.657   2.330   6.293 -0.3733  0.3400  0.1113
   94MOL0     O12837   4.667   2.236   6.390  0.1467 -0.1664 -0.1583
   94MOL0     C12838   4.778   2.239   6.472  0.0947 -0.5121  0.6197
   94MOL0     C12839   4.898   2.171   6.436 -0.2658  0.5945  1.1164
   94MOL0     C12840   5.009   2.165   6.518 -0.5785 -0.7178 -0.0280
   94MOL0     C12841   5.002   2.229   6.639  0.1184  1.3907  0.3390
   94MOL0     O12842   5.101   2.196   6.715  0.3234 -0.5675 -0.7575
   94MOL0     C12843   5.105   2.189   6.862  0.3695 -0.0257 -0.0247
   94MOL0     C12844   5.162   2.060   6.916  0.9016 -0.7882 -1.2342
   94MOL0     C12845   5.302   2.026   6.885  0.4853  0.1498 -0.2805
   94MOL0     C12846   5.329   1.876   6.906  0.0058 -0.0114  0.2198
   94MOL0     C12847   5.468   1.832   6.850  0.7005 -0.6823 -0.5366
   94MOL0     C12848   5.504   1.686   6.877  0.3355  0.1730  0.6939
   94MOL0     C12849   5.431   1.595   6.783 -0.2893 -1.0270  0.4250
   94MOL0     C12850   5.446   1.453   6.816  0.0388 -0.1233 -0.3532
   94MOL0     N12851   5.363   1.392   6.714 -0.4683 -0.1355 -0.1388
   94MOL0     C12852   5.228   1.360   6.728 -0.2045  0.3845  0.3744
   94MOL0     C12853   5.191   1.297   6.618  0.4181  0.2449 -0.0105
   94MOL0     C12854   5.056   1.245   6.607  0.5736  0.8142 -1.4065
   94MOL0     C12855   5.048   1.102   6.547 -0.0408 -0.8396 -0.6509
   94MOL0     C12856   5.077   0.993   6.648 -0.4835  1.3556 -0.2247
   94MOL0     C12857   5.073   0.855   6.579  0.5022  0.3254  0.7913
   94MOL0     O12858   4.956   0.842   6.499 -0.1661 -0.4867 -0.5142
   94MOL0     C12859   4.938   0.725   6.435 -0.0606  0.4647 -0.0452
   94MOL0     C12860   5.029   0.625   6.400 -1.2635  0.3292 -0.8236
   94MOL0     C12861   4.989   0.493   6.355  0.7473 -0.7811  0.4805
   94MOL0     C12862   5.103   0.403   6.312 -0.5321 -0.7847  0.2237
   94MOL0     C12863   4.853   0.468   6.322 -0.7515 -0.8255 -0.1369
   94MOL0     C12864   4.797   0.335   6.277  0.1427  0.1364  0.4023
   94MOL0     O12865   4.676   0.338   6.213 -0.4691  0.4750 -0.3610
   94MOL0     C12866   4.600   0.224   6.194  0.7787  0.2292 -0.0556
   94MOL0     C12867   4.561   0.180   6.064 -0.1319  0.2857  0.6063
   94MOL0     C12868   4.502   0.054   6.044  0.2051 -0.2094  0.7136
   94MOL0     C12869   4.475  -0.022   6.161 -0.2622 -0.2905 -0.4460
   94MOL0     O12870   4.405  -0.137   6.148  0.2893 -0.1811  0.0222
   94MOL0     C12871   4.445  -0.247   6.228  0.5927 -0.1126  0.6187
   94MOL0     C12872   4.361  -0.370   6.179 -0.6354  0.4343 -0.0367
   94MOL0     C12873   4.223  -0.368   6.233  0.1979 -0.3136  0.2535
   94MOL0     C12874   4.216  -0.397   6.388 -0.1264 -0.0573 -0.9508
   94MOL0     C12875   4.078  -0.443   6.423  0.6821  0.8596  0.7605
   94MOL0     C12876   3.960  -0.352   6.385 -0.9952  0.1139  0.0018
   94MOL0     C12877   3.833  -0.389   6.453  0.8881  1.2354  0.3841
   94MOL0     C12878   3.725  -0.281   6.427 -0.8147 -1.4707 -0.4389
   94MOL0    Cl12879   3.698  -0.268   6.258 -0.0514  0.2302  0.1568
   94MOL0     C12880   4.517   0.015   6.284 -0.1891 -0.0683 -0.5382
   94MOL0     C12881   4.577   0.139   6.305 -0.0834 -0.0333  0.5262
   94MOL0     O12882   4.858   0.233   6.309 -0.4421 -0.5275 -0.3052
   94MOL0     C12883   4.757   0.578   6.345  0.7309 -0.2691 -0.0943
   94MOL0     C12884   4.801   0.706   6.404 -0.5536 -0.1216 -0.8525
   94MOL0     N12885   5.298   1.298   6.524  0.2411  0.1247 -0.1478
   94MOL0     N12886   5.401   1.368   6.582  0.7826  0.1999 -0.1183
   94MOL0     C12887   4.893   2.300   6.669  0.6087  0.3001 -0.6360
   94MOL0     C12888   4.778   2.298   6.591  0.5294 -0.9034  0.1590
   94MOL0     C12889   4.526   2.372   6.237 -0.9031  0.3796  0.4368
   94MOL0     C12890   4.420   2.281   6.250  0.1280 -0.5078 -0.1261
   94MOL0     C12891   4.298   2.297   6.181  0.4291  0.0313 -0.3162
   94MOL0     C12892   4.275   2.424   6.119 -0.2470  0.2453  0.4356
   94MOL0     O12893   4.150   2.449   6.067  0.3029  0.3685  0.4318
   94MOL0     C12894   4.104   2.591   6.056  0.5378  1.0661  0.2250
   94MOL0     C12895   4.123   2.642   5.913  0.7117  0.8350 -0.2667
   94MOL0     C12896   4.029   2.585   5.812  0.4397  0.6852 -0.1430
   94MOL0     C12897   4.068   2.631   5.665 -0.9213  0.5761  0.0160
   94MOL0     C12898   4.041   2.771   5.647 -0.2151 -1.1494 -0.5110
   94MOL0     C12899   4.002   2.883   5.618 -0.6616  0.1084 -0.0371
   94MOL0     C12900   4.375   2.516   6.109 -0.4909 -0.1698 -0.5591
   94MOL0     C12901   4.503   2.492   6.160 -0.3689 -0.2400 -0.6079
   94MOL0     C12902   4.604   2.608   6.159  0.3151  0.5343  0.7089
   94MOL0     H12903   4.909   2.123   6.339  0.8200 -0.8412  1.9139
   94MOL0     H12904   5.095   2.111   6.479  0.2606  1.1305 -0.8692
   94MOL0     H12905   5.004   2.199   6.902  0.3321 -0.8802  0.1153
   94MOL0     H12906   5.164   2.274   6.899  1.9624 -0.4123 -1.5282
   94MOL0     H12907   5.145   2.061   7.024 -1.9977 -1.8017 -1.6090
   94MOL0     H12908   5.101   1.982   6.870  2.1884 -1.9544 -1.0135
   94MOL0     H12909   5.329   2.039   6.780 -0.4237 -1.8666 -0.8139
   94MOL0     H12910   5.369   2.084   6.948 -1.1214 -0.0931  1.7683
   94MOL0     H12911   5.313   1.847   7.010 -0.7501 -0.2552  0.0422
   94MOL0     H12912   5.254   1.818   6.852  0.6164  0.1844 -0.8815
   94MOL0     H12913   5.546   1.890   6.902  0.6199 -1.6023  0.6450
   94MOL0     H12914   5.465   1.856   6.743 -1.3872 -1.3989 -0.6822
   94MOL0     H12915   5.613   1.680   6.869  0.1682 -1.7326 -0.8582
   94MOL0     H12916   5.474   1.653   6.977 -1.9354 -0.6729 -0.2068
   94MOL0     H12917   5.469   1.622   6.684  1.7273  2.7688  2.0087
   94MOL0     H12918   5.327   1.629   6.792 -0.2364 -0.4936 -0.7688
   94MOL0     H12919   5.554   1.434   6.814  1.0743  4.2188  1.9584
   94MOL0     H12920   5.403   1.436   6.915  2.9356 -0.7417  0.9233
   94MOL0     H12921   5.173   1.360   6.822  1.1270  1.8606  1.2005
   94MOL0     H12922   5.000   1.303   6.533 -0.3904  0.3932 -1.0269
   94MOL0     H12923   5.004   1.244   6.704  1.6053 -0.7811 -0.8330
   94MOL0     H12924   4.940   1.096   6.529 -0.5130  1.6232  0.8918
   94MOL0     H12925   5.097   1.095   6.449 -1.4757 -0.4354 -1.4367
   94MOL0     H12926   5.177   1.008   6.689 -0.9573 -1.5758  2.4525
   94MOL0     H12927   5.016   0.999   6.739  1.0621 -0.5265  1.0204
   94MOL0     H12928   5.164   0.841   6.520  0.8748 -1.4096  1.7116
   94MOL0     H12929   5.076   0.780   6.659  0.6805 -0.1216  0.3727
   94MOL0     H12930   5.135   0.640   6.415 -0.5205 -2.5614 -2.4097
   94MOL0     H12931   5.197   0.447   6.347 -1.3332 -0.7194  2.4985
   94MOL0     H12932   5.106   0.390   6.204 -0.7577 -4.2695  0.5183
   94MOL0     H12933   5.105   0.303   6.356  0.0918 -0.5260  0.8069
   94MOL0     H12934   4.573   0.242   5.975  0.1917 -0.7678 -0.1091
   94MOL0     H12935   4.463   0.021   5.949 -1.9165  0.2005  1.4036
   94MOL0     H12936   4.545  -0.259   6.184 -0.5645  2.3556 -3.1319
   94MOL0     H12937   4.451  -0.250   6.337 -3.0891 -0.9742  0.9164
   94MOL0     H12938   4.363  -0.366   6.070 -1.0049 -2.8367 -0.2635
   94MOL0     H12939   4.413  -0.459   6.217  2.9944  3.1269  1.8532
   94MOL0     H12940   4.172  -0.450   6.181  1.6615  0.6223 -2.8825
   94MOL0     H12941   4.175  -0.272   6.210  1.0655  0.2102  0.5584
   94MOL0     H12942   4.228  -0.304   6.446 -3.1117 -2.0245  3.3594
   94MOL0     H12943   4.292  -0.467   6.424 -0.7558  0.5704  1.8521
   94MOL0     H12944   4.060  -0.534   6.363 -0.8165  1.1693  0.6831
   94MOL0     H12945   4.067  -0.471   6.528  1.1992 -0.8192  0.4058
   94MOL0     H12946   3.961  -0.362   6.276  2.9398 -2.0573  0.0430
   94MOL0     H12947   3.979  -0.249   6.414  1.2009  0.4490 -2.2992
   94MOL0     H12948   3.843  -0.383   6.562 -1.5405  2.2053  0.6263
   94MOL0     H12949   3.790  -0.485   6.419  0.8292  1.1808  0.6124
   94MOL0     H12950   3.746  -0.182   6.469  0.3100 -1.4364 -1.0316
   94MOL0     H12951   3.626  -0.304   6.467  0.0803  1.1713  4.0445
   94MOL0     H12952   4.491  -0.041   6.373  1.4836  2.8378  1.9300
   94MOL0     H12953   4.606   0.178   6.401  1.2723  0.0527  0.1043
   94MOL0     H12954   4.651   0.567   6.325  0.3948 -0.2844  1.5712
   94MOL0     H12955   4.730   0.783   6.432 -0.2078 -0.2798  0.5294
   94MOL0     H12956   4.885   2.346   6.768  0.4543 -0.1556 -0.4369
   94MOL0     H12957   4.696   2.368   6.604  1.8482  0.7993 -0.2842
   94MOL0     H12958   4.442   2.194   6.312  0.0773  0.0934  0.7632
   94MOL0     H12959   4.223   2.219   6.183  1.0417 -0.5723 -0.3234
   94MOL0     H12960   4.000   2.599   6.088  0.5873 -1.3164  1.2298
   94MOL0     H12961   4.161   2.647   6.130 -0.9336  0.5601  1.7970
   94MOL0     H12962   4.224   2.614   5.883  0.2416  0.9232 -2.0841
   94MOL0     H12963   4.112   2.751   5.903 -2.1780  0.6938  0.5967
   94MOL0     H12964   4.019   2.476   5.813  0.1744  0.7041  0.6697
   94MOL0     H12965   3.923   2.600   5.832  0.0772 -1.7843  0.1312
   94MOL0     H12966   4.014   2.573   5.589 -0.7808 -1.7542  1.5708
   94MOL0     H12967   4.174   2.622   5.641 -1.1317 -1.2509 -0.3872
   94MOL0     H12968   3.966   2.982   5.596 -0.0214  0.1057 -1.1941
   94MOL0     H12969   4.363   2.613   6.064  0.7003  1.2721  1.9930
   94MOL0     H12970   4.555   2.694   6.114  0.2520 -0.8723 -2.1545
   94MOL0     H12971   4.639   2.638   6.258  1.7875 -0.5779  0.5680
   94MOL0     H12972   4.690   2.587   6.094 -0.4300 -2.8297  0.6136
   95MOL0     O12973   6.646   0.936   3.865  0.1714  0.1166  0.1033
   95MOL0     C12974   6.671   0.892   3.755  0.1889  1.2076  0.4306
   95MOL0     O12975   6.770   0.808   3.729 -0.1789  0.6068  0.4865
   95MOL0     C12976   6.859   0.749   3.811  0.4928 -0.0950 -0.5852
   95MOL0     C12977   6.993   0.744   3.780 -0.3342  0.2840 -1.1270
   95MOL0     C12978   7.091   0.681   3.851 -0.4113  0.3028 -1.3406
   95MOL0     C12979   7.052   0.610   3.975 -0.4077  0.0786  0.3291
   95MOL0     O12980   7.139   0.527   4.050  0.3823 -0.1643 -0.9819
   95MOL0     C12981   7.279   0.547   4.033  0.4143 -0.2369 -0.1345
   95MOL0     C12982   7.347   0.477   4.147 -0.8953 -0.0456 -0.4308
   95MOL0     C12983   7.403   0.334   4.100  0.2700 -0.0683 -0.2729
   95MOL0     C12984   7.503   0.282   4.207 -0.1026 -0.0119 -0.0412
   95MOL0     C12985   7.563   0.148   4.166  0.2674  0.5258 -0.0624
   95MOL0     C12986   7.655   0.084   4.273 -0.1826 -0.1460  0.2728
   95MOL0     C12987   7.774   0.167   4.321 -0.8333 -0.1395 -0.5185
   95MOL0     C12988   7.883   0.154   4.219 -0.9631  0.1471 -0.2687
   95MOL0     N12989   7.962   0.028   4.228  0.6310  0.0855  0.1264
   95MOL0     C12990   8.029  -0.037   4.125 -0.0566 -0.8193  0.3285
   95MOL0     C12991   8.071  -0.153   4.183 -0.0907  0.1204 -0.7854
   95MOL0     C12992   8.146  -0.260   4.123 -0.9146  0.6667  0.3902
   95MOL0     C12993   8.301  -0.243   4.125  0.0903  0.4238 -0.3271
   95MOL0     C12994   8.350  -0.294   4.268 -0.2328 -0.5493  0.3211
   95MOL0     C12995   8.510  -0.310   4.272  0.6377 -0.5807 -0.4953
   95MOL0     O12996   8.532  -0.400   4.158 -0.5354  0.4322 -0.9960
   95MOL0     C12997   8.664  -0.441   4.161  0.3931  0.3575  0.0962
   95MOL0     C12998   8.702  -0.552   4.079  0.6444 -0.5186  0.1801
   95MOL0     C12999   8.830  -0.606   4.067  0.0555 -0.2628 -0.4826
   95MOL0     C13000   8.842  -0.732   3.978  0.1280  0.0595  0.1066
   95MOL0     C13001   8.936  -0.539   4.135  0.1273 -0.5645 -0.3465
   95MOL0     C13002   9.082  -0.578   4.132 -0.1350  0.3300  0.4140
   95MOL0     O13003   9.153  -0.576   4.249  0.1786  0.7737  0.3295
   95MOL0     C13004   9.290  -0.575   4.264  0.5151  0.6236 -0.2593
   95MOL0     C13005   9.337  -0.608   4.390  0.1139  0.4542  0.7065
   95MOL0     C13006   9.473  -0.582   4.421 -0.3854 -0.3862  0.7212
   95MOL0     C13007   9.565  -0.536   4.325  0.0741 -0.7647  0.3995
   95MOL0     O13008   9.697  -0.497   4.347 -0.2518 -0.4329 -0.5916
   95MOL0     C13009   9.800  -0.537   4.253 -0.0979 -0.3281 -0.3878
   95MOL0     C13010   9.932  -0.521   4.335 -0.2026  0.0394  0.0706
   95MOL0     C13011  10.052  -0.532   4.239 -0.4858  0.5328 -0.9095
   95MOL0     C13012  10.174  -0.470   4.299 -0.0276  0.0774 -0.2922
   95MOL0     C13013  10.292  -0.468   4.205  0.0623  0.3557  0.2067
   95MOL0     C13014  10.407  -0.369   4.246  0.4004  1.2916  0.3410
   95MOL0     C13015  10.506  -0.332   4.135 -0.8211 -0.8380 -0.0106
   95MOL0     C13016  10.608  -0.234   4.190 -0.5274  0.4575 -0.7510
   95MOL0    Cl13017  10.725  -0.181   4.078  0.3051  0.1061  0.2622
   95MOL0     C13018   9.510  -0.499   4.193 -0.2211  0.9863 -0.8023
   95MOL0     C13019   9.373  -0.525   4.165  0.2847  0.5379 -0.6280
   95MOL0     O13020   9.131  -0.609   4.025 -0.1624 -0.1328  0.2130
   95MOL0     C13021   8.902  -0.431   4.217  0.9208 -0.2479 -0.2138
   95MOL0     C13022   8.766  -0.392   4.236 -0.2385 -0.0745 -1.1791
   95MOL0     N13023   8.038  -0.159   4.316 -0.0767 -0.5633  0.1709
   95MOL0     N13024   7.979  -0.052   4.342  0.2299  0.6556  0.4230
   95MOL0     C13025   6.915   0.622   4.007 -0.0496  0.5199  0.2711
   95MOL0     C13026   6.818   0.688   3.928  0.1660  0.9170  0.3100
   95MOL0     C13027   6.572   0.934   3.642 -0.5294  0.5341  0.0037
   95MOL0     C13028   6.588   0.848   3.531 -0.0204 -0.6477 -0.3314
   95MOL0     C13029   6.512   0.871   3.419  0.5573  0.6010 -0.1380
   95MOL0     C13030   6.425   0.978   3.410  0.1312 -0.9908 -0.5974
   95MOL0     O13031   6.342   0.993   3.304 -0.3450  0.7402  0.3568
   95MOL0     C13032   6.395   1.050   3.178  0.2771  1.1303 -0.4346
   95MOL0     C13033   6.333   1.182   3.152  0.2029 -0.4220 -0.1487
   95MOL0     C13034   6.409   1.242   3.021  1.0006 -0.0143 -0.5431
   95MOL0     C13035   6.388   1.161   2.898  0.4957 -0.7310  0.4830
   95MOL0     C13036   6.420   1.232   2.778  0.5619 -0.1661  0.5427
   95MOL0     C13037   6.454   1.280   2.672  0.0956 -0.5384  0.3516
   95MOL0     C13038   6.413   1.068   3.513 -0.0890  0.1637 -1.0934
   95MOL0     C13039   6.486   1.052   3.633 -0.2235  0.5803  0.7849
   95MOL0     C13040   6.479   1.153   3.748 -0.6975  0.4126 -0.2686
   95MOL0     H13041   7.024   0.802   3.693 -1.1611  2.3523 -0.1213
   95MOL0     H13042   7.194   0.693   3.820  0.1197 -1.6727 -0.4517
   95MOL0     H13043   7.303   0.650   4.063  2.1533 -1.2751  2.4416
   95MOL0     H13044   7.304   0.524   3.929 -1.2785  0.7114 -0.8051
   95MOL0     H13045   7.438   0.533   4.170 -1.4015  0.5626  0.1216
   95MOL0     H13046   7.285   0.460   4.235  0.9225 -4.0460  0.2980
   95MOL0     H13047   7.330   0.255   4.078  1.5154 -0.9026 -1.5660
   95MOL0     H13048   7.451   0.346   4.002  0.1196 -0.7972 -0.4436
   95MOL0     H13049   7.578   0.361   4.218 -0.5338  0.0506  4.0117
   95MOL0     H13050   7.465   0.281   4.310  0.9003 -0.2980  0.3389
   95MOL0     H13051   7.621   0.164   4.074 -4.9167 -0.0350 -3.8620
   95MOL0     H13052   7.481   0.081   4.140  0.2721  0.4201  0.1893
   95MOL0     H13053   7.592   0.062   4.359 -0.2294 -1.2781 -0.0328
   95MOL0     H13054   7.699  -0.013   4.246 -0.5154  0.3735 -2.4651
   95MOL0     H13055   7.811   0.130   4.417  1.5625  2.4157 -0.3187
   95MOL0     H13056   7.757   0.273   4.342  4.0636  0.5342  1.2069
   95MOL0     H13057   7.838   0.167   4.120 -0.6981 -0.7063 -0.5186
   95MOL0     H13058   7.960   0.231   4.231 -2.6185  1.6795  0.8116
   95MOL0     H13059   8.041  -0.006   4.022  2.1824 -3.5399 -0.3447
   95MOL0     H13060   8.120  -0.270   4.017  1.8985 -0.7831 -0.2657
   95MOL0     H13061   8.118  -0.361   4.154 -1.3871 -0.0782 -2.2083
   95MOL0     H13062   8.361  -0.291   4.048  2.3092 -0.3246  1.7259
   95MOL0     H13063   8.310  -0.134   4.123 -0.6993  0.4793 -2.0118
   95MOL0     H13064   8.319  -0.222   4.344 -1.1327  1.1185 -1.5379
   95MOL0     H13065   8.320  -0.397   4.290 -0.3695 -0.3259  1.2110
   95MOL0     H13066   8.555  -0.210   4.265  0.1189 -0.3072 -0.0285
   95MOL0     H13067   8.536  -0.344   4.372 -1.6540  0.3932  0.5183
   95MOL0     H13068   8.631  -0.600   4.012  1.9541 -2.3501 -0.0095
   95MOL0     H13069   8.811  -0.701   3.878  0.5589  1.3343  0.3544
   95MOL0     H13070   8.775  -0.811   4.014 -0.5701  1.4716  2.1304
   95MOL0     H13071   8.943  -0.770   3.964 -0.5621 -1.5956 -0.6034
   95MOL0     H13072   9.262  -0.649   4.457 -1.5160 -0.8259 -1.7325
   95MOL0     H13073   9.515  -0.603   4.519 -0.5911  0.1231  0.9159
   95MOL0     H13074   9.779  -0.640   4.223 -1.5241  0.1716 -1.2009
   95MOL0     H13075   9.804  -0.476   4.162  3.3426 -1.9832 -1.5413
   95MOL0     H13076   9.930  -0.432   4.397  1.2082  2.3954 -3.0081
   95MOL0     H13077   9.942  -0.606   4.404  0.6966 -0.0924 -0.2021
   95MOL0     H13078  10.021  -0.496   4.140 -3.3766  4.1034  1.0721
   95MOL0     H13079  10.087  -0.632   4.212  2.7548  2.3028 -4.2734
   95MOL0     H13080  10.205  -0.540   4.378  1.0372  0.1753 -0.5999
   95MOL0     H13081  10.156  -0.370   4.339 -1.6564 -0.1528 -0.3949
   95MOL0     H13082  10.333  -0.569   4.197  2.5834  1.4493 -3.1235
   95MOL0     H13083  10.251  -0.435   4.109  0.3960 -1.9606 -0.8086
   95MOL0     H13084  10.466  -0.418   4.325  1.2761  0.9832 -0.4798
   95MOL0     H13085  10.369  -0.272   4.278 -2.4110  0.4950 -0.2826
   95MOL0     H13086  10.443  -0.300   4.051 -0.3419 -1.9719 -0.8123
   95MOL0     H13087  10.556  -0.421   4.097 -0.6707 -0.7325 -0.0632
   95MOL0     H13088  10.659  -0.286   4.272 -0.4312 -1.4307 -1.9543
   95MOL0     H13089  10.552  -0.150   4.233 -2.4573 -1.4109  0.5833
   95MOL0     H13090   9.577  -0.454   4.120 -1.3640  2.2751 -1.0881
   95MOL0     H13091   9.346  -0.489   4.066  2.2339 -1.3196 -1.9113
   95MOL0     H13092   8.984  -0.381   4.268 -1.4129  0.5127  3.1883
   95MOL0     H13093   8.753  -0.310   4.306 -0.4607  0.6279 -2.0217
   95MOL0     H13094   6.876   0.595   4.104  0.2298  0.5712  0.3983
   95MOL0     H13095   6.713   0.699   3.955  0.3600  2.1200  0.6188
   95MOL0     H13096   6.662   0.769   3.534  1.4604  0.7076  1.3508
   95MOL0     H13097   6.527   0.805   3.334  0.3572  0.7054 -0.2556
   95MOL0     H13098   6.503   1.062   3.171  0.7038 -1.0765  1.2808
   95MOL0     H13099   6.364   0.988   3.094 -0.0231  0.2574  0.3090
   95MOL0     H13100   6.350   1.249   3.237  1.0809 -0.2554 -0.4441
   95MOL0     H13101   6.226   1.178   3.131  0.2741  0.6398 -0.7592
   95MOL0     H13102   6.357   1.337   3.005  2.3043  0.3005 -3.4358
   95MOL0     H13103   6.514   1.254   3.049  0.6574 -1.5356  1.6702
   95MOL0     H13104   6.287   1.120   2.894 -0.5678  1.8080 -1.2482
   95MOL0     H13105   6.453   1.073   2.898  1.9828  0.3268  0.8073
   95MOL0     H13106   6.485   1.325   2.579  2.0022 -1.3007  0.5694
   95MOL0     H13107   6.348   1.155   3.518 -1.1659 -0.6701 -0.3709
   95MOL0     H13108   6.402   1.229   3.728 -2.9087 -1.1413  1.7330
   95MOL0     H13109   6.446   1.095   3.835 -3.7779 -2.0592 -2.8264
   95MOL0     H13110   6.579   1.196   3.753 -0.9635  1.2323 -1.5632
   96MOL0     O13111   4.711   0.082   9.497  0.1696 -0.3162  0.3660
   96MOL0     C13112   4.680   0.068   9.377  0.4909 -0.2298  0.3655
   96MOL0     O13113   4.774   0.065   9.282  0.0271  0.2142  0.9913
   96MOL0     C13114   4.907   0.041   9.328  0.4177 -0.5782 -0.3304
   96MOL0     C13115   4.994   0.151   9.353 -0.0247 -0.0666 -0.4645
   96MOL0     C13116   5.112   0.130   9.415 -0.2261 -0.4384  0.3512
   96MOL0     C13117   5.154  -0.003   9.439  0.0973 -0.5610  0.0690
   96MOL0     O13118   5.282  -0.037   9.487 -0.1637  0.3989  0.0707
   96MOL0     C13119   5.379   0.070   9.488 -0.8453  0.9831  0.2607
   96MOL0     C13120   5.514   0.008   9.534  0.6760 -0.2417 -0.2359
   96MOL0     C13121   5.617   0.120   9.511  0.1349  0.2416 -0.2504
   96MOL0     C13122   5.763   0.062   9.543  0.4535 -0.0676 -0.0971
   96MOL0     C13123   5.868   0.175   9.538 -0.1112 -0.7808  0.2397
   96MOL0     C13124   6.006   0.109   9.591  0.1427  0.0598 -0.9375
   96MOL0     C13125   6.077   0.026   9.479  0.0343 -0.4350  0.1775
   96MOL0     C13126   6.216  -0.009   9.512 -0.4250 -0.3975  0.6673
   96MOL0     N13127   6.225  -0.127   9.607  0.0635  0.3251  0.2396
   96MOL0     C13128   6.249  -0.257   9.565  0.5093  0.1885  0.7339
   96MOL0     C13129   6.263  -0.333   9.672  0.3497  1.2802  0.0993
   96MOL0     C13130   6.276  -0.477   9.664  0.5009 -0.4282 -0.0428
   96MOL0     C13131   6.203  -0.550   9.788 -0.2801 -0.9442 -1.0608
   96MOL0     C13132   6.280  -0.543   9.912 -0.1692 -0.2597 -0.8988
   96MOL0     C13133   6.265  -0.666  10.005 -0.0821 -0.8625  0.5072
   96MOL0     O13134   6.332  -0.782   9.955 -0.0004  0.0445 -0.7726
   96MOL0     C13135   6.464  -0.787  10.002 -0.7308  0.5872  0.0429
   96MOL0     C13136   6.498  -0.797  10.133 -0.8561 -0.2462 -0.5998
   96MOL0     C13137   6.631  -0.812  10.179  0.4044 -0.3603 -0.0134
   96MOL0     C13138   6.663  -0.823  10.323  0.2149 -0.3710 -0.3762
   96MOL0     C13139   6.735  -0.814  10.076 -0.0514  0.1707  0.4715
   96MOL0     C13140   6.885  -0.830  10.100  0.1464 -0.1189 -1.3068
   96MOL0     O13141   6.965  -0.850   9.989 -0.4459 -0.7740  0.6982
   96MOL0     C13142   7.098  -0.826  10.011  0.0649 -0.6864  0.4150
   96MOL0     C13143   7.142  -0.704  10.074 -0.1563  0.2542  0.7195
   96MOL0     C13144   7.284  -0.695  10.102  1.2783  0.6501  0.3188
   96MOL0     C13145   7.370  -0.794  10.072 -0.1451  1.2048 -0.2598
   96MOL0     O13146   7.503  -0.774  10.089 -0.1986 -1.0797  0.5901
   96MOL0     C13147   7.602  -0.873  10.054  0.2416  0.6367 -0.8812
   96MOL0     C13148   7.676  -0.837   9.933 -0.0136  0.1579  0.2355
   96MOL0     C13149   7.784  -0.938   9.911 -0.2770  0.3511 -0.0935
   96MOL0     C13150   7.850  -0.895   9.776  0.3819  0.5497 -0.8540
   96MOL0     C13151   7.956  -1.011   9.748 -1.3355 -0.3833 -0.2292
   96MOL0     C13152   8.074  -0.953   9.673  0.1337  0.0458  0.2314
   96MOL0     C13153   8.170  -1.069   9.635  1.2722 -0.1199 -0.3209
   96MOL0     C13154   8.235  -1.043   9.505  1.1663 -0.7574 -0.6039
   96MOL0    Cl13155   8.358  -1.174   9.487  0.0699 -0.3706 -0.2164
   96MOL0     C13156   7.320  -0.915  10.016  0.1690 -0.6736  0.2514
   96MOL0     C13157   7.190  -0.926   9.982 -0.6373 -0.4627 -0.1196
   96MOL0     O13158   6.926  -0.836  10.217  0.0296  0.1489 -0.4126
   96MOL0     C13159   6.696  -0.804   9.941  0.5012 -0.8270 -0.6168
   96MOL0     C13160   6.562  -0.793   9.900 -0.7548  0.1911 -0.8719
   96MOL0     N13161   6.253  -0.251   9.780  1.7177  0.5226  0.2357
   96MOL0     N13162   6.236  -0.128   9.739 -0.8072 -0.1142 -0.4961
   96MOL0     C13163   5.072  -0.109   9.417  0.4516 -0.6302 -0.2491
   96MOL0     C13164   4.949  -0.090   9.351  0.4239 -0.1933  0.3294
   96MOL0     C13165   4.539   0.030   9.339 -0.1661 -0.7123 -0.4890
   96MOL0     C13166   4.446  -0.019   9.439  0.1350 -0.2695 -0.3017
   96MOL0     C13167   4.315  -0.055   9.416 -0.3171  0.6803 -0.4534
   96MOL0     C13168   4.267  -0.042   9.285  0.4205  0.4200  0.3583
   96MOL0     O13169   4.137  -0.073   9.245 -0.2842  0.4107  0.4095
   96MOL0     C13170   4.036  -0.132   9.329 -0.7631 -0.1472 -0.4981
   96MOL0     C13171   3.958  -0.015   9.387 -0.0827  0.1436  0.6301
   96MOL0     C13172   3.897   0.081   9.287  0.0435  0.4843  0.3459
   96MOL0     C13173   3.789   0.010   9.204  0.2115  0.1661 -0.4387
   96MOL0     C13174   3.667   0.000   9.290 -0.2102  0.3293  0.8178
   96MOL0     C13175   3.575   0.011   9.369  0.4225  0.2423  0.3924
   96MOL0     C13176   4.353   0.002   9.179  0.7053  0.0921 -0.3128
   96MOL0     C13177   4.483   0.038   9.206 -0.1774 -0.4127  0.0135
   96MOL0     C13178   4.556   0.100   9.098  0.7121  0.2731  0.4116
   96MOL0     H13179   4.959   0.252   9.333  0.1608  0.0961  0.0162
   96MOL0     H13180   5.164   0.219   9.450  0.5629 -0.8854  0.3329
   96MOL0     H13181   5.345   0.149   9.556 -2.1322  1.9611 -1.4559
   96MOL0     H13182   5.383   0.125   9.393 -3.1742  4.8848  2.1446
   96MOL0     H13183   5.500  -0.020   9.639  1.3451  1.3401  0.3066
   96MOL0     H13184   5.536  -0.072   9.462 -0.1985  0.8412 -1.7517
   96MOL0     H13185   5.611   0.140   9.404 -0.9490  1.1481 -0.0407
   96MOL0     H13186   5.602   0.216   9.561 -1.1330  0.5094 -1.0863
   96MOL0     H13187   5.751   0.019   9.643 -1.4884  0.3521 -0.1082
   96MOL0     H13188   5.785  -0.018   9.472 -1.5857 -3.1616  2.4727
   96MOL0     H13189   5.836   0.261   9.598 -2.3528 -2.2338  1.3113
   96MOL0     H13190   5.881   0.220   9.439 -1.5463  0.8440  0.7407
   96MOL0     H13191   6.065   0.193   9.628  0.5064 -0.5356 -0.1490
   96MOL0     H13192   5.978   0.042   9.672  3.7309 -3.1032 -2.0793
   96MOL0     H13193   6.077   0.086   9.387 -0.1717  1.2464  1.2204
   96MOL0     H13194   6.024  -0.067   9.457  1.4175 -0.7821 -2.0774
   96MOL0     H13195   6.274  -0.028   9.421 -0.9924  0.5655  0.0880
   96MOL0     H13196   6.262   0.082   9.551  1.5245 -0.1485 -1.9280
   96MOL0     H13197   6.240  -0.287   9.461 -0.2689 -0.8312  1.0738
   96MOL0     H13198   6.384  -0.493   9.661  0.4488 -0.8466  0.1645
   96MOL0     H13199   6.224  -0.516   9.575 -1.6374  0.4757  0.7486
   96MOL0     H13200   6.105  -0.513   9.818 -0.5400 -1.1996 -1.5858
   96MOL0     H13201   6.206  -0.655   9.759  5.0746 -1.5874  0.6629
   96MOL0     H13202   6.387  -0.538   9.889 -0.0034  0.9454  0.0270
   96MOL0     H13203   6.271  -0.451   9.971  2.0097 -0.7550  0.2868
   96MOL0     H13204   6.283  -0.623  10.104 -1.3373  2.1232 -0.4250
   96MOL0     H13205   6.159  -0.690  10.015 -0.3932 -0.4667 -1.3371
   96MOL0     H13206   6.422  -0.775  10.207  0.8963  0.9945  0.9246
   96MOL0     H13207   6.714  -0.918  10.339  0.8829 -0.5175 -2.9371
   96MOL0     H13208   6.576  -0.828  10.388 -0.5896  1.0788 -1.2886
   96MOL0     H13209   6.725  -0.737  10.350  0.5620 -0.7450  0.0251
   96MOL0     H13210   7.080  -0.619  10.098 -1.0803 -0.4731  0.9696
   96MOL0     H13211   7.310  -0.597  10.140  3.2933  0.7169 -1.0736
   96MOL0     H13212   7.673  -0.876  10.137  0.9032 -0.8226 -1.4633
   96MOL0     H13213   7.559  -0.973  10.041 -2.2691  1.6084 -0.5832
   96MOL0     H13214   7.613  -0.833   9.844  0.2640 -0.8226 -0.0217
   96MOL0     H13215   7.703  -0.732   9.948 -2.9232  1.2863 -1.6912
   96MOL0     H13216   7.744  -1.039   9.904 -0.9794  0.7067 -1.5387
   96MOL0     H13217   7.863  -0.939   9.987  0.9540 -3.0275 -1.2571
   96MOL0     H13218   7.896  -0.797   9.781  2.9951 -0.5922 -0.9193
   96MOL0     H13219   7.777  -0.880   9.695 -0.6458 -1.8856 -0.4832
   96MOL0     H13220   7.996  -1.048   9.843 -3.3218 -0.3320  0.6785
   96MOL0     H13221   7.920  -1.096   9.691 -1.4868  0.1602 -0.9675
   96MOL0     H13222   8.125  -0.873   9.726 -0.3510 -0.0903  0.9255
   96MOL0     H13223   8.040  -0.909   9.579  2.7258  1.8034  0.0113
   96MOL0     H13224   8.120  -1.167   9.630 -2.3782  1.5515  0.0876
   96MOL0     H13225   8.247  -1.076   9.712  1.4616  2.9568 -0.1349
   96MOL0     H13226   8.284  -0.946   9.515 -0.5717  0.0377  0.5150
   96MOL0     H13227   8.153  -1.038   9.432  2.7204 -0.0003 -2.3807
   96MOL0     H13228   7.382  -1.004  10.004  2.2660  0.6686  0.5661
   96MOL0     H13229   7.155  -1.025   9.954 -0.2824 -0.1420 -1.7817
   96MOL0     H13230   6.768  -0.813   9.861 -1.0849  0.0971 -2.2117
   96MOL0     H13231   6.521  -0.788   9.800 -1.1444 -1.7564 -0.8302
   96MOL0     H13232   5.112  -0.209   9.436  1.7563 -0.3901 -1.5063
   96MOL0     H13233   4.881  -0.174   9.336 -1.0889  1.1929 -0.9712
   96MOL0     H13234   4.485  -0.026   9.540  1.7756  0.5784 -0.8436
   96MOL0     H13235   4.247  -0.091   9.491  0.1471 -0.1934 -0.4458
   96MOL0     H13236   3.976  -0.200   9.267  1.4703 -1.1657 -1.6614
   96MOL0     H13237   4.081  -0.195   9.407 -0.0046 -0.2147 -0.9850
   96MOL0     H13238   4.029   0.055   9.431  2.9838  1.3811 -5.2570
   96MOL0     H13239   3.885  -0.047   9.462 -0.1297  0.3795  0.6868
   96MOL0     H13240   3.865   0.169   9.344  2.0214  1.8756 -0.5578
   96MOL0     H13241   3.979   0.111   9.221 -0.1942 -1.4342 -0.9158
   96MOL0     H13242   3.818  -0.076   9.143  2.2286  0.6687 -0.2712
   96MOL0     H13243   3.760   0.073   9.119 -0.9353 -0.3136 -0.4214
   96MOL0     H13244   3.490   0.012   9.434 -0.3025  3.1434 -0.4508
   96MOL0     H13245   4.300  -0.006   9.084 -1.1065 -3.7973  0.7867
   96MOL0     H13246   4.503   0.077   9.005  0.0385 -2.5665  1.4072
   96MOL0     H13247   4.548   0.208   9.111  1.7928  0.3893  0.2443
   96MOL0     H13248   4.661   0.070   9.085  1.1785  0.6182  2.9447
   97MOL0     O13249   9.504  11.389   6.213 -0.2729 -0.0576  0.1615
   97MOL0     C13250   9.401  11.365   6.147  0.3411 -0.3496 -0.6485
   97MOL0     O13251   9.394  11.265   6.051  0.4446 -0.3364  0.2597
   97MOL0     C13252   9.511  11.189   6.052  0.8777 -0.9523 -0.6209
   97MOL0     C13253   9.619  11.213   5.974 -0.3856 -0.6597  0.0011
   97MOL0     C13254   9.740  11.146   5.976 -0.1799 -0.6120  0.3081
   97MOL0     C13255   9.752  11.054   6.083  0.4546  0.7188 -0.7182
   97MOL0     O13256   9.877  10.993   6.091  0.0748 -0.4778  0.6795
   97MOL0     C13257   9.895  10.856   6.135 -0.2173  0.3210 -0.2461
   97MOL0     C13258  10.041  10.818   6.133  0.0707 -0.5150 -0.0577
   97MOL0     C13259  10.086  10.803   5.991  0.7615  0.4672  0.0281
   97MOL0     C13260  10.236  10.766   5.966 -0.0997 -0.8723 -0.5616
   97MOL0     C13261  10.263  10.740   5.819  0.0591  0.6339 -0.2580
   97MOL0     C13262  10.387  10.652   5.797  0.2336 -0.2139  0.3953
   97MOL0     C13263  10.519  10.709   5.853  0.2084  0.1865  0.0514
   97MOL0     C13264  10.636  10.644   5.776 -0.1630  0.6659  1.0048
   97MOL0     N13265  10.768  10.678   5.835  0.5797  0.6128  0.8087
   97MOL0     C13266  10.827  10.604   5.934  0.0957  0.1885 -0.1876
   97MOL0     C13267  10.955  10.651   5.943 -0.4625  0.1736 -0.6423
   97MOL0     C13268  11.060  10.607   6.045  0.7468 -0.8460  0.6612
   97MOL0     C13269  11.201  10.682   6.042 -0.7472  0.4692  0.0183
   97MOL0     C13270  11.301  10.610   6.129  0.3814  0.7503 -0.2430
   97MOL0     C13271  11.429  10.697   6.126 -0.6440  0.0944 -0.0601
   97MOL0     O13272  11.535  10.608   6.166  0.2611  0.1377  0.3414
   97MOL0     C13273  11.668  10.619   6.153 -0.5754  0.1028 -0.3533
   97MOL0     C13274  11.731  10.745   6.168 -0.0640  0.0739 -0.0882
   97MOL0     C13275  11.869  10.759   6.168  0.1381  0.1941 -0.1785
   97MOL0     C13276  11.943  10.895   6.202  0.7024 -0.2178  1.1145
   97MOL0     C13277  11.949  10.641   6.152 -1.0234  0.6871 -0.5200
   97MOL0     C13278  12.098  10.638   6.180 -0.3355 -0.3413  1.3543
   97MOL0     O13279  12.151  10.738   6.259  0.0141 -0.6288 -0.1133
   97MOL0     C13280  12.286  10.739   6.295  0.0604 -0.5892 -0.0434
   97MOL0     C13281  12.321  10.782   6.426 -0.0201  0.3055 -0.4975
   97MOL0     C13282  12.447  10.767   6.487  0.3158  0.2087  0.1847
   97MOL0     C13283  12.555  10.720   6.414  0.4335 -0.0853  0.3319
   97MOL0     O13284  12.681  10.725   6.481 -0.5534  0.3645 -0.5352
   97MOL0     C13285  12.790  10.688   6.403  0.3173 -0.2723 -0.4486
   97MOL0     C13286  12.919  10.709   6.492 -0.2059 -0.5914 -0.1537
   97MOL0     C13287  13.043  10.678   6.417  0.1013  0.7034  0.9003
   97MOL0     C13288  13.155  10.658   6.521  0.8116  0.2465 -1.0257
   97MOL0     C13289  13.273  10.580   6.467  0.0829  1.0534  0.4104
   97MOL0     C13290  13.377  10.567   6.569  0.9230 -0.9114 -0.9663
   97MOL0     C13291  13.508  10.506   6.499  0.5428  0.5839 -0.2299
   97MOL0     C13292  13.623  10.491   6.607 -0.2463 -0.6223 -0.4152
   97MOL0    Cl13293  13.773  10.409   6.537  0.2469 -0.1218  0.4146
   97MOL0     C13294  12.528  10.683   6.277  0.6683 -0.1411  0.2382
   97MOL0     C13295  12.398  10.687   6.221 -0.7378  0.0910  0.8033
   97MOL0     O13296  12.166  10.553   6.128 -0.2874  1.0640 -0.0717
   97MOL0     C13297  11.887  10.521   6.117  0.4542 -0.1941  0.0988
   97MOL0     C13298  11.746  10.510   6.131  0.4766  1.2918  0.1012
   97MOL0     N13299  10.966  10.745   5.844 -0.1546  0.7180  0.5183
   97MOL0     N13300  10.861  10.755   5.772  0.2344 -0.9977 -0.1937
   97MOL0     C13301   9.642  11.020   6.161 -0.9562 -0.2494 -0.7631
   97MOL0     C13302   9.515  11.084   6.146  0.0562  0.4145  0.3097
   97MOL0     C13303   9.288  11.462   6.143  0.3081 -0.6115  0.2306
   97MOL0     C13304   9.178  11.423   6.063 -0.5627 -0.7896  0.4949
   97MOL0     C13305   9.077  11.514   6.031  0.2971 -0.7580 -0.9336
   97MOL0     C13306   9.073  11.640   6.097 -0.3841  0.7199 -0.1283
   97MOL0     O13307   8.964  11.726   6.099  0.1834  0.0283  0.3192
   97MOL0     C13308   8.916  11.762   5.968  0.1277  0.0156  0.1908
   97MOL0     C13309   8.763  11.713   5.972 -0.9929 -0.3709  0.7267
   97MOL0     C13310   8.680  11.822   6.042  0.3849 -0.4530  0.2386
   97MOL0     C13311   8.528  11.806   6.048  0.5846  0.3601 -0.1448
   97MOL0     C13312   8.491  11.683   6.123  0.1917  0.3157  0.9142
   97MOL0     C13313   8.444  11.577   6.159  0.6756  0.1274 -0.1006
   97MOL0     C13314   9.177  11.680   6.176  0.3555  0.3950  0.2645
   97MOL0     C13315   9.285  11.590   6.206  0.4736  0.0171  0.5566
   97MOL0     C13316   9.390  11.633   6.297  0.1450  0.2424 -0.5428
   97MOL0     H13317   9.598  11.278   5.891  0.9081 -0.1487  0.0487
   97MOL0     H13318   9.821  11.164   5.906 -0.1915 -3.0355 -0.4043
   97MOL0     H13319   9.847  10.788   6.065 -2.2672  1.5596 -0.1188
   97MOL0     H13320   9.846  10.845   6.233  1.5200  5.0565  1.4623
   97MOL0     H13321  10.096  10.893   6.189  0.2083  2.7657 -4.1298
   97MOL0     H13322  10.064  10.721   6.179  0.1051 -0.9451 -0.9695
   97MOL0     H13323  10.034  10.721   5.939  1.0204  0.6213 -0.4764
   97MOL0     H13324  10.063  10.894   5.936  1.7972 -0.5679 -2.2566
   97MOL0     H13325  10.288  10.854   6.006  0.4721 -0.3570 -2.3404
   97MOL0     H13326  10.262  10.676   6.022 -2.2086 -1.0013  0.3069
   97MOL0     H13327  10.286  10.837   5.773  0.1737  1.9048  2.3001
   97MOL0     H13328  10.176  10.692   5.774  2.4765 -3.8547 -0.7139
   97MOL0     H13329  10.369  10.548   5.826  3.1600 -0.5331  1.4386
   97MOL0     H13330  10.404  10.651   5.689 -1.2293  1.2982  0.1101
   97MOL0     H13331  10.516  10.674   5.957 -0.2954  1.1342  0.3747
   97MOL0     H13332  10.523  10.818   5.846 -1.1613  0.1862 -1.2927
   97MOL0     H13333  10.624  10.535   5.773 -0.2234  0.5418  3.5455
   97MOL0     H13334  10.632  10.674   5.671  0.0775  0.4722  0.9375
   97MOL0     H13335  10.782  10.517   5.981  0.2095  0.4823  0.4802
   97MOL0     H13336  11.070  10.499   6.037  2.5045 -0.5452 -2.5331
   97MOL0     H13337  11.024  10.621   6.148 -1.7277 -2.1617  0.0609
   97MOL0     H13338  11.239  10.688   5.939  0.2420  0.0846  0.3547
   97MOL0     H13339  11.190  10.783   6.083 -3.3202 -0.4856  1.9326
   97MOL0     H13340  11.269  10.592   6.232  0.0049  0.3614 -0.4226
   97MOL0     H13341  11.318  10.509   6.092  0.1436 -1.2501  4.4911
   97MOL0     H13342  11.455  10.750   6.035 -0.3398  0.6785  0.3607
   97MOL0     H13343  11.408  10.767   6.208 -4.0616 -0.7802 -0.0382
   97MOL0     H13344  11.678  10.839   6.173  0.8429  0.5485  0.9869
   97MOL0     H13345  11.871  10.977   6.209  1.8058  0.9788 -0.6490
   97MOL0     H13346  12.018  10.926   6.128 -0.4454  1.1594  0.4908
   97MOL0     H13347  11.983  10.883   6.304 -1.3089 -0.2174  1.9377
   97MOL0     H13348  12.253  10.812   6.506 -1.2281  0.8317 -1.6850
   97MOL0     H13349  12.470  10.805   6.586  2.3334  1.1645 -0.6013
   97MOL0     H13350  12.773  10.585   6.371 -1.1335 -0.8680  1.9501
   97MOL0     H13351  12.808  10.748   6.314 -0.3635  0.2725 -0.2285
   97MOL0     H13352  12.910  10.816   6.511 -0.7634 -0.7194  0.3464
   97MOL0     H13353  12.905  10.658   6.588  3.4548 -1.0626  0.2569
   97MOL0     H13354  13.064  10.760   6.348 -2.4901  0.5634 -0.1616
   97MOL0     H13355  13.017  10.584   6.368 -1.9510  2.8102 -2.4619
   97MOL0     H13356  13.105  10.611   6.606  2.3910  0.8096  0.2738
   97MOL0     H13357  13.185  10.757   6.556  0.7364 -0.6480  1.7690
   97MOL0     H13358  13.252  10.475   6.447  2.4603  0.8133 -1.2354
   97MOL0     H13359  13.314  10.623   6.375  0.9324 -0.6110 -0.0288
   97MOL0     H13360  13.344  10.491   6.641  3.2822 -0.8520  0.2739
   97MOL0     H13361  13.399  10.657   6.627  0.7805 -0.9690 -0.8211
   97MOL0     H13362  13.540  10.568   6.416  0.2870  0.7152 -0.2324
   97MOL0     H13363  13.476  10.412   6.453  1.1191  0.9079 -1.3258
   97MOL0     H13364  13.594  10.426   6.690 -1.2321 -1.8213 -1.6614
   97MOL0     H13365  13.662  10.583   6.651 -1.1270 -1.0678  1.3698
   97MOL0     H13366  12.602  10.636   6.214 -0.9332  0.8690 -2.5634
   97MOL0     H13367  12.388  10.650   6.119  1.0398 -1.1099  1.0177
   97MOL0     H13368  11.950  10.432   6.113  0.1056 -0.4039 -1.1620
   97MOL0     H13369  11.701  10.416   6.102  2.1691  1.1784 -2.4770
   97MOL0     H13370   9.645  10.950   6.244  0.5878  0.2272 -0.3944
   97MOL0     H13371   9.439  11.058   6.219 -0.9709  2.8763  0.2194
   97MOL0     H13372   9.180  11.324   6.018  3.4617 -0.1291 -1.2582
   97MOL0     H13373   8.996  11.477   5.970  1.3578 -4.4885 -0.3323
   97MOL0     H13374   8.928  11.870   5.952  2.4084 -0.3684 -1.1128
   97MOL0     H13375   8.965  11.711   5.885 -2.2571  1.0405 -1.9589
   97MOL0     H13376   8.742  11.623   6.031 -1.5709  0.0385  1.1565
   97MOL0     H13377   8.728  11.709   5.868 -0.1998  1.0267  0.3788
   97MOL0     H13378   8.713  11.823   6.146 -1.4941  0.1610  0.8641
   97MOL0     H13379   8.707  11.917   5.994 -0.8898 -0.8604 -1.3789
   97MOL0     H13380   8.500  11.807   5.942 -0.0384  0.4224  0.0192
   97MOL0     H13381   8.487  11.898   6.089  1.8534  2.4435 -3.1918
   97MOL0     H13382   8.406  11.483   6.192 -0.5729  1.3352  2.1710
   97MOL0     H13383   9.168  11.776   6.226 -0.4665  0.9225 -0.8530
   97MOL0     H13384   9.397  11.556   6.375  0.8608  1.3914  0.5529
   97MOL0     H13385   9.482  11.637   6.239 -1.8305 -0.8517 -4.0400
   97MOL0     H13386   9.378  11.729   6.347  0.4146 -0.8533  1.7808
   98MOL0     O13387   4.423  10.131   5.847 -0.2536 -0.0106  0.7675
   98MOL0     C13388   4.433  10.204   5.746 -0.2949 -1.2066  0.3610
   98MOL0     O13389   4.536  10.202   5.656  0.1687  0.1819 -0.0328
   98MOL0     C13390   4.631  10.106   5.670  1.0610  0.5805  0.2779
   98MOL0     C13391   4.628   9.974   5.609  0.0621  0.3984 -0.3005
   98MOL0     C13392   4.725   9.883   5.625  0.0909  0.9319 -0.8643
   98MOL0     C13393   4.851   9.925   5.682 -0.2254  0.0914 -0.6651
   98MOL0     O13394   4.967   9.850   5.687  0.5276 -0.6253  0.8367
   98MOL0     C13395   4.978   9.742   5.599 -0.8256 -0.1926  0.8576
   98MOL0     C13396   5.123   9.692   5.591  0.1832 -0.0072 -1.1898
   98MOL0     C13397   5.234   9.793   5.568  0.0224  0.1552  0.6295
   98MOL0     C13398   5.369   9.722   5.553  0.0538 -0.2448 -0.1007
   98MOL0     C13399   5.496   9.807   5.548  0.0215 -0.1175  0.6555
   98MOL0     C13400   5.531   9.865   5.685  0.5239 -0.1948 -1.0086
   98MOL0     C13401   5.674   9.929   5.697 -0.4604 -0.2687  0.2067
   98MOL0     C13402   5.795   9.837   5.698  0.8217 -0.2778  0.0551
   98MOL0     N13403   5.924   9.906   5.692  0.7804  0.3221 -0.2846
   98MOL0     C13404   5.996   9.933   5.804  0.0564 -0.1964 -0.3105
   98MOL0     C13405   6.081  10.027   5.762 -0.0146 -1.0921 -0.3481
   98MOL0     C13406   6.184  10.099   5.850  0.1877 -0.4961 -0.9687
   98MOL0     C13407   6.327  10.056   5.825  0.8107  0.4719 -0.1587
   98MOL0     C13408   6.393  10.154   5.726 -0.0681 -0.4252 -0.2019
   98MOL0     C13409   6.453  10.281   5.801 -0.9158  0.3706 -0.7394
   98MOL0     O13410   6.548  10.219   5.887  0.5231 -0.0275 -0.0313
   98MOL0     C13411   6.642  10.301   5.948 -0.4570  0.6336  0.6119
   98MOL0     C13412   6.709  10.397   5.884 -0.0866 -0.1308 -0.4122
   98MOL0     C13413   6.802  10.482   5.946  0.2698  1.0182  1.3212
   98MOL0     C13414   6.868  10.592   5.859 -0.7131 -0.4412 -1.2120
   98MOL0     C13415   6.848  10.449   6.076 -0.8866  0.1674 -0.9343
   98MOL0     C13416   6.962  10.515   6.136  0.5494 -0.4696  0.1827
   98MOL0     O13417   7.003  10.449   6.246 -0.4508 -0.1733  0.1599
   98MOL0     C13418   7.115  10.500   6.318  0.5957  0.9866  0.0007
   98MOL0     C13419   7.097  10.600   6.413  0.2005 -0.2925 -0.3547
   98MOL0     C13420   7.200  10.638   6.491  0.1151 -0.4280 -0.1019
   98MOL0     C13421   7.327  10.586   6.469 -0.1419 -0.1975 -0.0641
   98MOL0     O13422   7.424  10.648   6.548 -0.6836 -0.3026 -1.3230
   98MOL0     C13423   7.560  10.596   6.542 -0.2560  0.2498 -0.3473
   98MOL0     C13424   7.652  10.692   6.617 -0.8735  0.3241 -0.1403
   98MOL0     C13425   7.621  10.706   6.768  1.2807 -1.0440  0.9808
   98MOL0     C13426   7.734  10.772   6.849  0.4845 -0.9389 -0.5247
   98MOL0     C13427   7.686  10.834   6.980 -1.0255  0.1269 -0.6331
   98MOL0     C13428   7.785  10.862   7.097 -0.6109  0.0987  0.6048
   98MOL0     C13429   7.887  10.970   7.066 -0.0692  0.8215 -0.4423
   98MOL0     C13430   7.993  10.985   7.177 -0.0700  0.3137  0.1654
   98MOL0    Cl13431   7.909  11.063   7.323  0.0895  0.7836  0.0480
   98MOL0     C13432   7.348  10.481   6.385  0.9452 -0.1935  0.9717
   98MOL0     C13433   7.235  10.436   6.308 -0.5064 -0.4210  0.0731
   98MOL0     O13434   7.016  10.614   6.089  0.2437  0.6121  0.5484
   98MOL0     C13435   6.777  10.349   6.146  1.1127 -0.0283  0.1815
   98MOL0     C13436   6.677  10.279   6.082  1.0795  0.4724  0.0503
   98MOL0     N13437   6.053  10.067   5.630  0.0813 -0.2174  0.5200
   98MOL0     N13438   5.969   9.979   5.589  0.0705 -0.1670 -0.4531
   98MOL0     C13439   4.866  10.059   5.723  0.2071 -0.4107  0.0155
   98MOL0     C13440   4.755  10.154   5.713  0.2735  0.2611  0.3921
   98MOL0     C13441   4.348  10.325   5.742  1.0102  1.3265 -0.2248
   98MOL0     C13442   4.371  10.414   5.639  0.1136 -0.5383 -0.5039
   98MOL0     C13443   4.306  10.537   5.636  0.0282 -0.5509 -0.5161
   98MOL0     C13444   4.194  10.559   5.718  0.2863  0.8882  0.2804
   98MOL0     O13445   4.130  10.681   5.739 -0.2163 -0.7373 -0.1613
   98MOL0     C13446   4.190  10.807   5.679  0.5347  0.2635  0.0386
   98MOL0     C13447   4.133  10.942   5.731  0.6458  0.1414 -0.3797
   98MOL0     C13448   3.979  10.941   5.754  0.4856  0.6888 -0.2621
   98MOL0     C13449   3.921  11.080   5.770  0.0210 -1.2888 -0.5950
   98MOL0     C13450   3.925  11.115   5.912 -0.0828  0.2927 -0.4313
   98MOL0     C13451   3.921  11.151   6.028 -0.1842  0.0823 -0.0152
   98MOL0     C13452   4.159  10.453   5.806 -0.2628 -0.4546 -0.5115
   98MOL0     C13453   4.229  10.338   5.818 -0.0510 -0.0136 -0.4669
   98MOL0     C13454   4.167  10.246   5.922 -1.3846 -0.2475 -0.0277
   98MOL0     H13455   4.534   9.946   5.562  0.9353  0.1622 -2.0005
   98MOL0     H13456   4.720   9.781   5.589  2.2909  0.8053 -0.9319
   98MOL0     H13457   4.937   9.766   5.501  0.6974 -0.4003  0.1404
   98MOL0     H13458   4.922   9.656   5.638 -1.1709  0.6966  2.4585
   98MOL0     H13459   5.127   9.644   5.689  2.2331  3.4967  0.6316
   98MOL0     H13460   5.126   9.619   5.509 -0.7009 -1.5685  0.1145
   98MOL0     H13461   5.201   9.847   5.479  0.4107 -2.8686 -1.5184
   98MOL0     H13462   5.233   9.855   5.658  4.0320  0.0794  0.9193
   98MOL0     H13463   5.393   9.658   5.638  1.0713 -0.3187 -0.4402
   98MOL0     H13464   5.360   9.650   5.471 -2.8531 -1.5955  1.2286
   98MOL0     H13465   5.488   9.886   5.473  1.3106  0.3878  1.0072
   98MOL0     H13466   5.578   9.737   5.528 -0.7090 -1.4044  1.9768
   98MOL0     H13467   5.459   9.943   5.710  1.7481  1.9025 -3.4689
   98MOL0     H13468   5.532   9.784   5.758  0.5650  0.5780 -0.1203
   98MOL0     H13469   5.672   9.992   5.786 -0.6124  3.9679 -2.5128
   98MOL0     H13470   5.688   9.985   5.604 -0.4628 -1.0206 -0.2546
   98MOL0     H13471   5.773   9.778   5.788 -4.0799  2.0786  0.7443
   98MOL0     H13472   5.809   9.760   5.622  1.3079 -0.6968  0.5530
   98MOL0     H13473   5.999   9.884   5.901  1.1107  2.8540  1.3485
   98MOL0     H13474   6.174  10.070   5.955 -0.4981 -0.8009 -1.1112
   98MOL0     H13475   6.165  10.205   5.830 -0.6405 -0.1353  1.3380
   98MOL0     H13476   6.386  10.056   5.918  0.2147 -2.0935  0.2884
   98MOL0     H13477   6.314   9.960   5.774 -2.4306  2.1949 -2.9555
   98MOL0     H13478   6.476  10.097   5.685  0.9199 -0.5198  1.7905
   98MOL0     H13479   6.331  10.171   5.638 -0.2239  1.0195  0.1594
   98MOL0     H13480   6.501  10.334   5.718 -0.7313 -0.1565 -0.9740
   98MOL0     H13481   6.386  10.348   5.855  2.0597 -0.3936  4.6727
   98MOL0     H13482   6.685  10.415   5.779 -1.3112 -3.9925 -0.9660
   98MOL0     H13483   6.830  10.605   5.757  0.6616 -0.9375 -1.8166
   98MOL0     H13484   6.973  10.560   5.849 -0.4720 -0.5875  1.1581
   98MOL0     H13485   6.850  10.692   5.899 -0.4729 -0.5822 -0.7447
   98MOL0     H13486   6.997  10.641   6.413  0.2858 -0.0720  0.4619
   98MOL0     H13487   7.171  10.701   6.575  0.0858 -2.8643  1.8316
   98MOL0     H13488   7.569  10.499   6.591  1.5279  0.4030 -0.3232
   98MOL0     H13489   7.581  10.601   6.435 -0.8501  0.0349 -0.4816
   98MOL0     H13490   7.749  10.646   6.601 -0.4252  1.6090 -1.3628
   98MOL0     H13491   7.652  10.790   6.567  1.1581 -0.6151 -2.1472
   98MOL0     H13492   7.590  10.610   6.810  0.8976 -1.2757  0.1879
   98MOL0     H13493   7.527  10.763   6.764  1.1592 -1.3254 -2.1091
   98MOL0     H13494   7.790  10.849   6.795 -0.0490 -1.6929 -2.2282
   98MOL0     H13495   7.804  10.689   6.865 -1.1298 -2.0168  1.4948
   98MOL0     H13496   7.636  10.928   6.954 -3.9278 -0.6700  1.6122
   98MOL0     H13497   7.606  10.766   7.008 -1.3106  0.0056 -1.7043
   98MOL0     H13498   7.835  10.770   7.128  1.1318 -0.0731 -2.3871
   98MOL0     H13499   7.722  10.894   7.180 -0.8578  1.1290  0.0346
   98MOL0     H13500   7.833  11.063   7.045  0.0714  0.2195 -4.2122
   98MOL0     H13501   7.930  10.939   6.970  2.5659 -1.7900  1.4042
   98MOL0     H13502   8.078  11.048   7.149  0.0477 -0.1665 -0.5854
   98MOL0     H13503   8.023  10.883   7.203  0.4440  0.4919  0.2964
   98MOL0     H13504   7.448  10.443   6.363  1.1804  1.2479 -0.6716
   98MOL0     H13505   7.248  10.350   6.244 -1.9240 -1.2632  0.8648
   98MOL0     H13506   6.795  10.326   6.251 -2.4210  0.5734  1.0569
   98MOL0     H13507   6.622  10.207   6.140  0.1854  2.3195  1.6179
   98MOL0     H13508   4.961  10.097   5.759 -0.0496 -1.2447  1.6545
   98MOL0     H13509   4.767  10.260   5.730  3.1818  0.7493 -3.2780
   98MOL0     H13510   4.451  10.396   5.567  0.1387 -0.2979 -0.5365
   98MOL0     H13511   4.335  10.622   5.575  0.3247 -0.1582  0.1679
   98MOL0     H13512   4.296  10.813   5.704  0.6031 -2.1802  0.5847
   98MOL0     H13513   4.184  10.795   5.570  1.2280  0.2338  0.0018
   98MOL0     H13514   4.163  11.016   5.656  1.5655 -1.9679 -2.1856
   98MOL0     H13515   4.179  10.967   5.827 -0.8913  0.2685  0.3558
   98MOL0     H13516   3.934  10.893   5.667 -0.4691  2.4179 -0.7764
   98MOL0     H13517   3.957  10.883   5.843 -1.9708  1.4987 -0.2744
   98MOL0     H13518   3.815  11.078   5.743 -1.0213  1.7861  2.5138
   98MOL0     H13519   3.981  11.153   5.714  0.9294 -0.8639  0.8887
   98MOL0     H13520   3.924  11.198   6.125  0.4575  0.0858 -0.0318
   98MOL0     H13521   4.074  10.462   5.872  1.2522 -1.2580  1.6998
   98MOL0     H13522   4.150  10.146   5.881 -3.3368 -2.0792  4.5618
   98MOL0     H13523   4.236  10.231   6.006 -0.9399  2.4700  0.1684
   98MOL0     H13524   4.076  10.283   5.969 -3.0263 -0.4354 -2.8464
   99MOL0     O13525   5.140   1.079   7.060  0.3792  0.2843  0.4199
   99MOL0     C13526   5.168   1.158   7.150  0.5249  0.0960 -0.0870
   99MOL0     O13527   5.299   1.183   7.183  0.7578 -0.3179  0.1753
   99MOL0     C13528   5.404   1.129   7.122 -0.8346  0.2452 -0.1598
   99MOL0     C13529   5.512   1.086   7.215  0.7683  0.2091 -0.6110
   99MOL0     C13530   5.629   1.035   7.165  0.9502  0.4133  0.1844
   99MOL0     C13531   5.650   1.026   7.026 -0.1192 -0.8047  0.7038
   99MOL0     O13532   5.770   0.990   6.973  0.3552  0.5771 -0.7068
   99MOL0     C13533   5.862   0.911   7.040 -0.5083  1.3467 -0.5512
   99MOL0     C13534   5.990   0.920   6.968  0.6961 -0.7413  0.7347
   99MOL0     C13535   6.106   0.842   7.026 -0.6462 -0.2673  0.0153
   99MOL0     C13536   6.239   0.867   6.948 -0.1173  0.2870  0.3570
   99MOL0     C13537   6.337   0.742   6.976 -0.1147  0.2739  0.5107
   99MOL0     C13538   6.447   0.761   7.077 -0.5318  0.0920 -0.5665
   99MOL0     C13539   6.498   0.629   7.123  0.2542 -0.3992  0.7484
   99MOL0     C13540   6.613   0.662   7.216 -0.1866  0.1766 -0.8039
   99MOL0     N13541   6.723   0.733   7.147 -0.1323 -0.9237 -0.0514
   99MOL0     C13542   6.809   0.666   7.061 -0.5148  1.0490 -0.4256
   99MOL0     C13543   6.915   0.745   7.050 -1.1216 -0.4049 -0.8899
   99MOL0     C13544   7.030   0.710   6.956 -0.4672 -0.6853 -0.2103
   99MOL0     C13545   7.162   0.715   7.037  0.1432  0.0515  0.4758
   99MOL0     C13546   7.277   0.694   6.936 -0.2985 -0.6245 -0.7025
   99MOL0     C13547   7.415   0.723   7.009 -0.0858 -0.8327  0.4498
   99MOL0     O13548   7.511   0.636   6.946 -0.3849  0.2769 -0.1640
   99MOL0     C13549   7.595   0.689   6.850 -0.1083 -1.1929  0.1526
   99MOL0     C13550   7.719   0.634   6.826 -0.2873  0.1538  0.7021
   99MOL0     C13551   7.811   0.690   6.728 -0.3723 -0.7823 -0.4557
   99MOL0     C13552   7.941   0.617   6.719 -0.6427  0.6574 -0.2255
   99MOL0     C13553   7.780   0.808   6.662  0.1501  0.5041 -0.1258
   99MOL0     C13554   7.871   0.882   6.570 -0.4706  0.0754 -0.5365
   99MOL0     O13555   8.006   0.850   6.567  0.5882  0.2053  0.4569
   99MOL0     C13556   8.101   0.909   6.479 -0.0442 -0.1744  0.3896
   99MOL0     C13557   8.241   0.893   6.506  0.6281 -0.5520 -0.9760
   99MOL0     C13558   8.344   0.959   6.440  0.3594 -0.5900  0.2096
   99MOL0     C13559   8.318   1.023   6.316  1.1345  0.3317 -0.2776
   99MOL0     O13560   8.411   1.084   6.235 -0.4751 -0.1299 -0.2912
   99MOL0     C13561   8.541   1.114   6.289 -1.3839 -0.6635  0.6944
   99MOL0     C13562   8.606   1.234   6.212 -0.5730 -0.3256  0.0872
   99MOL0     C13563   8.747   1.257   6.249  0.7682 -0.1968 -0.3938
   99MOL0     C13564   8.819   1.359   6.153  0.4428 -0.2769 -1.1942
   99MOL0     C13565   8.960   1.406   6.203  0.6217 -0.3949 -0.0855
   99MOL0     C13566   9.053   1.286   6.198 -0.1157  0.0046  0.5215
   99MOL0     C13567   9.200   1.330   6.154  1.1414  0.2852  0.0480
   99MOL0     C13568   9.287   1.208   6.133  0.0005  0.7121 -1.4141
   99MOL0    Cl13569   9.458   1.254   6.124  0.2287 -0.0344 -0.5168
   99MOL0     C13570   8.182   1.016   6.278  0.1425  1.0111  0.3059
   99MOL0     C13571   8.080   0.977   6.358  0.1609 -0.4481 -0.1929
   99MOL0     O13572   7.821   0.979   6.515 -0.4177 -0.2407  0.1632
   99MOL0     C13573   7.654   0.859   6.689  0.0096 -0.0449  0.4698
   99MOL0     C13574   7.565   0.800   6.777  0.2551 -0.1287  0.0947
   99MOL0     N13575   6.884   0.862   7.123 -0.5600  0.7937  0.0215
   99MOL0     N13576   6.775   0.851   7.181  0.8797  0.2506  0.5757
   99MOL0     C13577   5.548   1.067   6.940 -0.3944  1.0436 -0.0933
   99MOL0     C13578   5.431   1.128   6.987  0.3400  0.0029 -0.1577
   99MOL0     C13579   5.058   1.219   7.232 -0.5974 -0.5513 -0.6826
   99MOL0     C13580   5.096   1.280   7.360  0.9073  0.0772  0.2195
   99MOL0     C13581   4.994   1.343   7.438  0.2627  0.5136  0.3025
   99MOL0     C13582   4.857   1.347   7.405 -0.3675 -1.0153  0.4635
   99MOL0     O13583   4.769   1.417   7.494 -0.2038 -0.0088  0.0012
   99MOL0     C13584   4.635   1.429   7.456  0.2486  0.3444  0.4062
   99MOL0     C13585   4.618   1.532   7.335  0.3858  0.1114  1.0284
   99MOL0     C13586   4.506   1.478   7.246  0.1322 -0.6505  0.2523
   99MOL0     C13587   4.496   1.566   7.123 -0.0087  1.1092  0.3100
   99MOL0     C13588   4.379   1.530   7.044 -0.7784 -0.0607 -0.2194
   99MOL0     C13589   4.287   1.503   6.973  0.0250 -0.9224  1.0540
   99MOL0     C13590   4.823   1.290   7.280  0.1973 -0.5001  0.1953
   99MOL0     C13591   4.925   1.231   7.193 -0.1341 -0.0444 -0.2633
   99MOL0     C13592   4.873   1.175   7.065  0.3130 -0.8546  0.2564
   99MOL0     H13593   5.493   1.088   7.322 -2.9212  0.3818 -1.1474
   99MOL0     H13594   5.709   1.013   7.235 -0.9304 -1.1880  1.9335
   99MOL0     H13595   5.826   0.808   7.028 -0.4237  1.1526  0.6864
   99MOL0     H13596   5.867   0.935   7.147  0.6206 -1.1481  0.0455
   99MOL0     H13597   5.972   0.893   6.863  1.2465 -0.6740  0.6198
   99MOL0     H13598   6.020   1.024   6.957  0.0034 -0.8239 -4.8203
   99MOL0     H13599   6.133   0.872   7.128  1.2430  1.7887 -1.0103
   99MOL0     H13600   6.085   0.735   7.032  2.4573 -0.9013  3.7032
   99MOL0     H13601   6.217   0.879   6.841  0.0512 -4.3740 -0.4267
   99MOL0     H13602   6.276   0.966   6.976 -0.7961  0.1439  1.8722
   99MOL0     H13603   6.386   0.717   6.881  0.7351 -2.3103  1.5514
   99MOL0     H13604   6.282   0.650   6.998 -0.1805  0.3665  0.7306
   99MOL0     H13605   6.520   0.833   7.039 -2.5978  1.6264 -1.9253
   99MOL0     H13606   6.409   0.807   7.168  0.6568 -1.0159  0.5289
   99MOL0     H13607   6.533   0.566   7.041 -0.2087  0.9803 -0.5645
   99MOL0     H13608   6.410   0.583   7.170 -2.1043  3.1888  0.2899
   99MOL0     H13609   6.570   0.722   7.296 -3.8221 -1.0131 -1.6967
   99MOL0     H13610   6.660   0.578   7.267 -0.8628 -0.8575 -1.8350
   99MOL0     H13611   6.784   0.578   7.004 -0.8168  1.2968 -0.6799
   99MOL0     H13612   7.033   0.760   6.859  0.2030 -1.2451 -0.4778
   99MOL0     H13613   7.012   0.606   6.927  0.0511 -0.2478 -2.2071
   99MOL0     H13614   7.169   0.809   7.092 -0.1042  1.1934 -1.3618
   99MOL0     H13615   7.155   0.642   7.118 -0.6122  0.5912  0.9122
   99MOL0     H13616   7.280   0.596   6.888 -1.0934 -1.0314  0.0387
   99MOL0     H13617   7.260   0.771   6.860 -3.0588  1.5098  1.7979
   99MOL0     H13618   7.439   0.830   7.013  1.6511 -1.0475 -2.0370
   99MOL0     H13619   7.421   0.691   7.113 -0.5220 -3.1681 -0.1724
   99MOL0     H13620   7.743   0.562   6.903 -0.4318 -0.0074  0.5948
   99MOL0     H13621   8.018   0.672   6.774  0.9727 -0.8341 -0.9147
   99MOL0     H13622   7.980   0.593   6.620 -2.3765  1.3970 -1.1340
   99MOL0     H13623   7.940   0.521   6.771  3.7733  1.4446  1.8009
   99MOL0     H13624   8.272   0.845   6.598  0.5326 -0.9952 -1.1730
   99MOL0     H13625   8.445   0.949   6.478  0.3560 -4.6542 -0.4086
   99MOL0     H13626   8.517   1.159   6.386  0.8255 -0.7280  1.3221
   99MOL0     H13627   8.607   1.026   6.285 -2.6059 -1.6229  0.8369
   99MOL0     H13628   8.606   1.201   6.107 -0.3111  1.0756 -0.3746
   99MOL0     H13629   8.546   1.324   6.228  1.9308  1.5980 -0.7248
   99MOL0     H13630   8.799   1.161   6.246 -0.6775 -0.9844 -1.9611
   99MOL0     H13631   8.758   1.297   6.350 -1.1194 -0.6184  0.0067
   99MOL0     H13632   8.749   1.443   6.150  1.5560  0.7068 -0.2033
   99MOL0     H13633   8.820   1.322   6.050 -0.6014  0.4185 -1.4669
   99MOL0     H13634   9.002   1.495   6.155 -1.3320  0.7303  0.1940
   99MOL0     H13635   8.949   1.442   6.306 -0.7117  2.0284 -0.9925
   99MOL0     H13636   9.011   1.214   6.127  3.2741 -3.5236  1.7685
   99MOL0     H13637   9.062   1.228   6.291  4.1335  1.3025  1.1336
   99MOL0     H13638   9.240   1.404   6.224  0.1462  2.6933 -1.7909
   99MOL0     H13639   9.195   1.385   6.060  0.6332 -0.0870 -0.1500
   99MOL0     H13640   9.244   1.158   6.045 -0.7106  0.2473 -0.8185
   99MOL0     H13641   9.273   1.134   6.212  0.1856 -0.8081 -2.7477
   99MOL0     H13642   8.160   1.051   6.178 -0.6994 -2.1637 -0.7615
   99MOL0     H13643   7.976   0.991   6.330 -0.0055 -0.6053  0.3323
   99MOL0     H13644   7.616   0.952   6.648 -0.2446 -1.5060 -2.9566
   99MOL0     H13645   7.470   0.852   6.792  0.2858 -0.1479  0.3611
   99MOL0     H13646   5.566   1.059   6.833 -0.7214  1.1690 -0.1575
   99MOL0     H13647   5.355   1.173   6.924 -0.4700  0.6397  1.2192
   99MOL0     H13648   5.198   1.266   7.395  0.0353 -2.1681  2.2341
   99MOL0     H13649   5.021   1.390   7.532  2.9127 -0.7092  0.2531
   99MOL0     H13650   4.599   1.333   7.419 -2.0693  1.3979 -0.3055
   99MOL0     H13651   4.575   1.464   7.541  1.1671  1.5309  0.5905
   99MOL0     H13652   4.704   1.537   7.267 -2.2563 -2.3682 -2.8625
   99MOL0     H13653   4.589   1.631   7.369 -2.2090 -0.3315  0.2832
   99MOL0     H13654   4.521   1.373   7.218 -1.9638 -0.9903  0.2316
   99MOL0     H13655   4.420   1.488   7.312  0.7118 -1.9378  1.2305
   99MOL0     H13656   4.575   1.559   7.048  1.0252 -1.4953  1.5074
   99MOL0     H13657   4.488   1.670   7.156 -1.3217  1.2788 -0.4762
   99MOL0     H13658   4.208   1.484   6.904 -2.1779  2.3405  2.4519
   99MOL0     H13659   4.724   1.307   7.238  0.0676 -1.3139  0.1520
   99MOL0     H13660   4.940   1.207   6.984 -0.0137 -0.6965  0.0456
   99MOL0     H13661   4.868   1.066   7.077  0.8523 -0.8709  0.3697
   99MOL0     H13662   4.772   1.208   7.039 -0.2841 -3.3786 -0.9616
  100MOL0     O13663   0.812   5.125   7.416  0.1279  0.0094  0.0301
  100MOL0     C13664   0.746   5.088   7.519  0.1157  1.2949  1.1322
  100MOL0     O13665   0.797   5.005   7.612  0.1654  0.1726  0.5332
  100MOL0     C13666   0.934   4.984   7.607  0.9140 -0.4245 -0.0562
  100MOL0     C13667   0.983   4.882   7.515 -0.3829  0.3627 -0.1443
  100MOL0     C13668   1.124   4.866   7.511  0.3653  0.1732  0.3186
  100MOL0     C13669   1.213   4.939   7.584  0.5520 -0.6423  0.8921
  100MOL0     O13670   1.347   4.928   7.569  0.2363 -0.9245 -0.6213
  100MOL0     C13671   1.408   4.803   7.591 -0.2025 -0.0690  0.7015
  100MOL0     C13672   1.481   4.766   7.463  1.1296  0.4193 -0.0669
  100MOL0     C13673   1.606   4.684   7.500 -0.2143  0.2699 -0.1110
  100MOL0     C13674   1.570   4.539   7.530  0.2129  0.4927 -0.4547
  100MOL0     C13675   1.683   4.446   7.571 -0.5546 -0.2469  1.1987
  100MOL0     C13676   1.785   4.422   7.462 -0.3676  1.1445 -0.3764
  100MOL0     C13677   1.897   4.327   7.516  0.0634  0.1412  0.6449
  100MOL0     C13678   1.994   4.291   7.410  0.4682 -0.3886 -0.5610
  100MOL0     N13679   2.105   4.212   7.458  0.0252 -0.8307  0.7213
  100MOL0     C13680   2.241   4.227   7.421 -0.5129 -0.3333 -0.1843
  100MOL0     C13681   2.307   4.117   7.475 -0.4042 -1.3358  0.3959
  100MOL0     C13682   2.437   4.057   7.450  0.3205 -0.8134 -0.1498
  100MOL0     C13683   2.463   3.941   7.550  0.6295  0.0499  0.0774
  100MOL0     C13684   2.605   3.897   7.558  0.0816  0.1240  0.2000
  100MOL0     C13685   2.712   3.981   7.637  0.4186 -0.4826 -0.3666
  100MOL0     O13686   2.691   3.980   7.782  0.0594  0.0462 -0.4276
  100MOL0     C13687   2.786   4.037   7.861  0.1385  0.0520  0.8435
  100MOL0     C13688   2.861   4.141   7.817 -0.6353 -1.0419 -0.7508
  100MOL0     C13689   2.975   4.190   7.883 -0.5386  0.7089  0.6202
  100MOL0     C13690   3.046   4.295   7.812 -0.3146 -0.3532 -1.0292
  100MOL0     C13691   2.993   4.134   8.013 -0.0115 -0.0335 -0.2579
  100MOL0     C13692   3.116   4.177   8.089  0.9555 -0.6066 -0.0459
  100MOL0     O13693   3.244   4.155   8.039 -0.1750  0.5596  0.1932
  100MOL0     C13694   3.359   4.166   8.121  0.6642 -0.0560 -0.1758
  100MOL0     C13695   3.441   4.279   8.123  0.6980 -0.7369 -0.0120
  100MOL0     C13696   3.554   4.279   8.197 -0.3652  0.1209 -0.1838
  100MOL0     C13697   3.602   4.173   8.260 -0.3807  0.3733 -0.2712
  100MOL0     O13698   3.727   4.178   8.313  0.2063  0.3713  0.0560
  100MOL0     C13699   3.786   4.045   8.337  0.2434  0.1945 -0.3541
  100MOL0     C13700   3.939   4.046   8.366 -0.3303 -0.2674 -0.7884
  100MOL0     C13701   4.021   3.945   8.296 -1.3430  0.1843  0.4876
  100MOL0     C13702   4.162   3.938   8.352  0.4990  0.2376  0.1925
  100MOL0     C13703   4.257   3.844   8.275  0.2268 -0.6607  1.5102
  100MOL0     C13704   4.391   3.830   8.326 -0.9547  0.2049 -0.2566
  100MOL0     C13705   4.402   3.770   8.464  0.4501  0.3817  0.5904
  100MOL0     C13706   4.546   3.753   8.502 -0.3054  0.1821 -0.1762
  100MOL0    Cl13707   4.653   3.663   8.393  0.4605 -0.1368 -0.1166
  100MOL0     C13708   3.518   4.053   8.255  0.1268 -0.5439 -0.2675
  100MOL0     C13709   3.396   4.052   8.187 -0.6164  0.4833 -0.0787
  100MOL0     O13710   3.097   4.206   8.206 -0.1822 -0.0550 -0.5271
  100MOL0     C13711   2.907   4.036   8.065 -0.2099 -0.2271  0.1190
  100MOL0     C13712   2.813   3.979   7.980  0.3334 -0.4425  0.1389
  100MOL0     N13713   2.210   4.043   7.543  0.0586  0.2501  0.2437
  100MOL0     N13714   2.097   4.094   7.518 -0.0786  0.8435  0.2465
  100MOL0     C13715   1.160   5.034   7.669 -0.0599  0.5434 -0.3455
  100MOL0     C13716   1.030   5.063   7.678  0.8361  1.0126  0.2674
  100MOL0     C13717   0.602   5.130   7.534 -0.0902 -0.3046  0.1786
  100MOL0     C13718   0.551   5.183   7.414  0.7534 -0.2456 -0.5556
  100MOL0     C13719   0.419   5.210   7.396  0.3466  0.0191 -0.2195
  100MOL0     C13720   0.333   5.181   7.508 -0.0791 -0.7085  0.7720
  100MOL0     O13721   0.199   5.208   7.483  0.0688 -0.4228  0.3918
  100MOL0     C13722   0.101   5.185   7.580 -0.8672  0.4337  0.0790
  100MOL0     C13723   0.063   5.316   7.660 -0.1962  0.4800 -0.3100
  100MOL0     C13724  -0.011   5.402   7.557 -0.1598 -0.5516 -0.1976
  100MOL0     C13725  -0.037   5.543   7.601 -0.0070 -0.5000 -0.2193
  100MOL0     C13726   0.081   5.629   7.614  0.6476  0.3930 -0.2328
  100MOL0     C13727   0.174   5.699   7.629 -0.0997  0.3142 -1.1847
  100MOL0     C13728   0.382   5.136   7.633  0.5885  0.2636  0.7371
  100MOL0     C13729   0.517   5.112   7.642  0.1821  0.5470  0.7946
  100MOL0     C13730   0.571   5.059   7.767  0.8208  1.3417 -0.9588
  100MOL0     H13731   0.900   4.833   7.465 -0.1153  0.5337 -0.7676
  100MOL0     H13732   1.169   4.803   7.435 -1.0144 -2.9196  1.9125
  100MOL0     H13733   1.333   4.729   7.621 -0.6353  0.6565  1.4615
  100MOL0     H13734   1.476   4.808   7.677  2.0335 -5.2268 -0.4362
  100MOL0     H13735   1.414   4.717   7.391 -0.3367 -0.9573  2.1080
  100MOL0     H13736   1.509   4.855   7.407  0.9421  0.7019  0.2859
  100MOL0     H13737   1.676   4.693   7.416 -0.8386 -0.9042 -0.7744
  100MOL0     H13738   1.652   4.728   7.589 -1.5171 -0.6042  1.0287
  100MOL0     H13739   1.498   4.540   7.613 -0.5729 -0.1956 -1.1029
  100MOL0     H13740   1.524   4.492   7.443  0.8703 -4.3565  1.4858
  100MOL0     H13741   1.659   4.348   7.613 -0.2626 -1.2033 -0.7900
  100MOL0     H13742   1.732   4.500   7.653 -1.9078  3.1055 -0.0106
  100MOL0     H13743   1.738   4.381   7.373  3.2268  1.1651 -2.5032
  100MOL0     H13744   1.831   4.520   7.445  0.9206  1.8978  5.1811
  100MOL0     H13745   1.842   4.246   7.565 -4.5917  1.4117 -1.8695
  100MOL0     H13746   1.955   4.383   7.590  1.5565 -1.7416  0.9956
  100MOL0     H13747   1.951   4.230   7.331 -0.6710 -2.1146  1.3210
  100MOL0     H13748   2.037   4.381   7.364  1.3474 -1.1108 -1.1730
  100MOL0     H13749   2.276   4.294   7.344 -2.7593  1.0621 -0.0851
  100MOL0     H13750   2.508   4.141   7.446 -1.3411  0.6142 -0.5715
  100MOL0     H13751   2.439   4.012   7.350 -0.1672  1.5203 -1.2782
  100MOL0     H13752   2.430   3.965   7.652 -1.1925  2.0922 -0.9158
  100MOL0     H13753   2.416   3.855   7.503 -1.2372  0.2001  1.5584
  100MOL0     H13754   2.598   3.792   7.585  0.7851  0.1934  0.6876
  100MOL0     H13755   2.637   3.903   7.453 -2.0785  2.3793 -0.4480
  100MOL0     H13756   2.812   3.937   7.633  0.4979 -0.5263  1.4431
  100MOL0     H13757   2.704   4.083   7.600  1.3925  0.0051  0.7257
  100MOL0     H13758   2.837   4.201   7.730  0.1525  2.4338  1.2325
  100MOL0     H13759   3.134   4.322   7.870  0.1858 -0.3047 -1.7979
  100MOL0     H13760   2.979   4.378   7.788 -1.3385 -0.6269  0.6727
  100MOL0     H13761   3.087   4.258   7.717  1.4752 -0.3543 -0.2948
  100MOL0     H13762   3.419   4.369   8.068 -1.8487  0.5266  2.7750
  100MOL0     H13763   3.618   4.366   8.195 -0.1708 -0.0232 -0.2376
  100MOL0     H13764   3.741   3.984   8.416  1.2159 -0.7085 -0.4911
  100MOL0     H13765   3.773   3.988   8.245  0.6215 -0.9596  0.2948
  100MOL0     H13766   3.966   4.152   8.353 -0.3542 -0.1244  0.2483
  100MOL0     H13767   3.942   4.013   8.470 -0.3866  1.3387 -0.2453
  100MOL0     H13768   4.037   3.972   8.191  0.7723  1.0234  0.9666
  100MOL0     H13769   3.977   3.845   8.307 -0.7072 -0.4627 -2.2426
  100MOL0     H13770   4.144   3.889   8.448  0.4689 -0.8132 -0.3371
  100MOL0     H13771   4.209   4.036   8.364  0.5955  0.4371 -1.5028
  100MOL0     H13772   4.209   3.748   8.260  0.3374 -0.4961  0.0081
  100MOL0     H13773   4.265   3.869   8.169 -1.3393 -1.2821  1.2293
  100MOL0     H13774   4.447   3.925   8.329  0.2136 -0.3870 -2.0751
  100MOL0     H13775   4.449   3.766   8.259 -1.8823 -1.0440  0.0972
  100MOL0     H13776   4.357   3.671   8.461  2.3819 -0.8121  4.4857
  100MOL0     H13777   4.359   3.831   8.543  1.9107 -0.2408  1.9270
  100MOL0     H13778   4.547   3.700   8.598 -3.0048 -2.4605 -1.4367
  100MOL0     H13779   4.594   3.850   8.522 -0.7276  0.2375  0.6216
  100MOL0     H13780   3.542   3.959   8.305 -4.7323 -0.9128  2.0022
  100MOL0     H13781   3.328   3.968   8.191 -0.4206  0.2392 -1.5066
  100MOL0     H13782   2.921   4.000   8.166 -0.9256 -0.3063  0.1975
  100MOL0     H13783   2.757   3.894   8.016 -1.8408  0.7339 -0.2783
  100MOL0     H13784   1.235   5.101   7.711 -0.6396  2.4412 -2.1811
  100MOL0     H13785   1.002   5.142   7.747  1.3641 -0.3706  2.1463
  100MOL0     H13786   0.611   5.204   7.326 -0.4260  0.7483 -1.1619
  100MOL0     H13787   0.380   5.245   7.302  1.8785  0.0605 -0.8752
  100MOL0     H13788   0.017   5.144   7.523 -0.9164 -1.3683  1.3373
  100MOL0     H13789   0.117   5.102   7.650  1.0359 -2.1325 -3.0866
  100MOL0     H13790   0.146   5.376   7.699  0.2394  0.9558 -1.8738
  100MOL0     H13791  -0.011   5.299   7.738 -0.2049  1.6668 -0.0365
  100MOL0     H13792   0.042   5.407   7.461  0.3403  1.9555  0.1252
  100MOL0     H13793  -0.105   5.349   7.543 -1.0356  0.4831  1.5515
  100MOL0     H13794  -0.103   5.555   7.687 -0.9026  0.9351 -1.0480
  100MOL0     H13795  -0.088   5.583   7.512  0.5086  1.5205  0.3350
  100MOL0     H13796   0.246   5.774   7.653 -1.3894  1.1429  0.3100
  100MOL0     H13797   0.321   5.117   7.721  1.3452 -3.8249  0.5982
  100MOL0     H13798   0.667   5.097   7.802  1.1182 -0.4638  0.3389
  100MOL0     H13799   0.503   5.081   7.850 -1.1863  2.8874 -2.8646
  100MOL0     H13800   0.573   4.952   7.745 -0.3437  0.6915  1.7107
  101MOL0     O13801   4.532  10.453   6.021  0.3584 -0.5615  0.4454
  101MOL0     C13802   4.490  10.423   6.134  0.2296 -0.6119 -0.0328
  101MOL0     O13803   4.537  10.323   6.218 -0.2811 -0.6617 -0.1873
  101MOL0     C13804   4.660  10.266   6.182 -0.1128  0.5959 -0.4882
  101MOL0     C13805   4.785  10.323   6.206  1.3514 -0.5633 -1.2628
  101MOL0     C13806   4.901  10.262   6.173  0.7103 -0.7453  0.3834
  101MOL0     C13807   4.892  10.140   6.105 -0.1411  0.0675 -0.5437
  101MOL0     O13808   5.010  10.079   6.083  0.2250 -0.3331 -0.0365
  101MOL0     C13809   5.009   9.938   6.051  0.2424 -1.0047 -0.1268
  101MOL0     C13810   5.135   9.877   6.113  0.9910  0.4366  0.9367
  101MOL0     C13811   5.266   9.936   6.047 -0.1049  0.5614  0.3520
  101MOL0     C13812   5.394   9.865   6.083 -0.0383  0.6069  0.0276
  101MOL0     C13813   5.435   9.893   6.233  0.0698  0.3317 -0.1341
  101MOL0     C13814   5.547   9.794   6.284  0.2266 -0.2522  0.2451
  101MOL0     C13815   5.679   9.806   6.229  0.5044 -0.5808  0.5552
  101MOL0     C13816   5.780   9.712   6.293  0.5417  0.0770  0.3552
  101MOL0     N13817   5.898   9.699   6.214 -0.2574 -0.5974  0.0298
  101MOL0     C13818   5.994   9.795   6.191 -0.1853 -0.5914  0.3467
  101MOL0     C13819   6.082   9.738   6.107  0.3574  0.2581 -0.6329
  101MOL0     C13820   6.216   9.783   6.047  1.1993  0.1505  0.1871
  101MOL0     C13821   6.328   9.707   6.130  1.5090  0.1217 -0.6344
  101MOL0     C13822   6.464   9.747   6.110  0.5816 -0.0046  0.7182
  101MOL0     C13823   6.566   9.663   6.185 -0.1470 -0.1950 -0.1169
  101MOL0     O13824   6.701   9.684   6.147  0.5487  0.1299 -0.1417
  101MOL0     C13825   6.805   9.652   6.228  0.4447  1.1946 -0.4754
  101MOL0     C13826   6.921   9.725   6.225 -0.4030 -0.2701  0.5767
  101MOL0     C13827   7.042   9.685   6.285  0.3633  0.4885 -0.0079
  101MOL0     C13828   7.158   9.780   6.267  0.1850 -0.1081 -0.9549
  101MOL0     C13829   7.037   9.564   6.363  0.0431  0.1751  0.3739
  101MOL0     C13830   7.168   9.506   6.411 -0.2454 -0.7398 -0.2316
  101MOL0     O13831   7.286   9.539   6.338  0.1254 -0.2461  0.3137
  101MOL0     C13832   7.406   9.503   6.381 -0.5342  0.1252  0.0414
  101MOL0     C13833   7.468   9.600   6.453 -0.1277 -0.5607 -0.4858
  101MOL0     C13834   7.594   9.573   6.504 -0.3569  0.3888  0.2156
  101MOL0     C13835   7.663   9.452   6.478  0.2474  0.5977 -0.9582
  101MOL0     O13836   7.788   9.421   6.535 -0.2543  0.4198  0.3428
  101MOL0     C13837   7.832   9.507   6.643  0.3511 -0.5849 -0.2728
  101MOL0     C13838   7.929   9.619   6.597 -0.3156 -0.3588 -0.5895
  101MOL0     C13839   8.053   9.567   6.524  0.7684 -0.1187  0.2333
  101MOL0     C13840   8.158   9.489   6.610 -0.3090  0.5856 -0.1797
  101MOL0     C13841   8.269   9.420   6.533  0.5159  0.2598  0.5763
  101MOL0     C13842   8.388   9.374   6.615 -0.3865  0.2990 -0.0118
  101MOL0     C13843   8.489   9.292   6.532 -0.1854  0.4933  0.0444
  101MOL0     C13844   8.633   9.305   6.577 -0.5305  0.8667 -0.1998
  101MOL0    Cl13845   8.649   9.247   6.740  0.2793  0.0382  0.0768
  101MOL0     C13846   7.601   9.353   6.401  0.1881  0.0329 -0.5511
  101MOL0     C13847   7.469   9.381   6.361 -0.6551  0.6975  0.4174
  101MOL0     O13848   7.149   9.424   6.503  0.6477  0.4291 -0.3722
  101MOL0     C13849   6.911   9.506   6.379 -0.3493  0.1137 -0.1875
  101MOL0     C13850   6.793   9.547   6.320  0.7916 -1.6350 -0.4717
  101MOL0     N13851   6.033   9.609   6.080 -0.0576  0.0927 -0.4841
  101MOL0     N13852   5.922   9.589   6.143 -0.2907  0.1259  0.3027
  101MOL0     C13853   4.771  10.092   6.056  0.2753 -0.3880 -1.0642
  101MOL0     C13854   4.653  10.147   6.109  0.0651  0.0558  0.2257
  101MOL0     C13855   4.358  10.490   6.158 -0.1261  1.4959  0.1178
  101MOL0     C13856   4.306  10.590   6.073 -0.8719 -0.6383  0.1611
  101MOL0     C13857   4.185  10.645   6.096 -0.6144 -0.3543 -0.1539
  101MOL0     C13858   4.105  10.617   6.201 -0.7249 -0.7058 -0.3630
  101MOL0     O13859   3.984  10.677   6.230 -0.2428  0.0337 -0.0942
  101MOL0     C13860   3.905  10.733   6.120 -1.1161  0.7173  0.8795
  101MOL0     C13861   3.775  10.796   6.170  0.4524 -0.5073  0.3881
  101MOL0     C13862   3.677  10.779   6.060  0.1905 -0.2891  0.1010
  101MOL0     C13863   3.551  10.861   6.086  0.1596 -0.8080 -0.3911
  101MOL0     C13864   3.462  10.807   6.183  0.0189 -0.1001  0.2413
  101MOL0     C13865   3.391  10.742   6.256 -0.1029 -1.3591  0.2780
  101MOL0     C13866   4.144  10.518   6.278 -0.4941  0.2867 -0.4822
  101MOL0     C13867   4.271  10.446   6.262  0.0768 -0.2697  0.6334
  101MOL0     C13868   4.290  10.351   6.374 -0.9403  0.0915  0.3107
  101MOL0     H13869   4.788  10.419   6.258 -2.9658 -0.2568 -1.1837
  101MOL0     H13870   4.997  10.304   6.203  0.6087 -1.4004  1.7025
  101MOL0     H13871   5.015   9.928   5.942  0.3453  1.4448 -0.3979
  101MOL0     H13872   4.920   9.885   6.085 -1.9635  2.3069 -0.2500
  101MOL0     H13873   5.134   9.896   6.221 -0.7078 -0.9645  1.2184
  101MOL0     H13874   5.132   9.768   6.099 -0.3285  0.5407  0.3072
  101MOL0     H13875   5.263   9.937   5.938  1.1727 -1.9610  0.2276
  101MOL0     H13876   5.279  10.037   6.088  1.0378 -0.2902  2.2417
  101MOL0     H13877   5.386   9.757   6.066 -0.0771  0.9837 -2.9614
  101MOL0     H13878   5.477   9.905   6.025 -0.0908  1.1588  0.3321
  101MOL0     H13879   5.350   9.883   6.301 -0.3469  2.7449 -0.2188
  101MOL0     H13880   5.469   9.997   6.232 -1.4382  0.9352 -3.8766
  101MOL0     H13881   5.556   9.821   6.390 -1.8561  1.1417  0.1320
  101MOL0     H13882   5.516   9.689   6.284 -0.3684 -0.1519  2.9640
  101MOL0     H13883   5.717   9.908   6.228 -0.6039 -0.1649 -0.2843
  101MOL0     H13884   5.682   9.784   6.121  0.7052  0.4870  0.3370
  101MOL0     H13885   5.800   9.752   6.393  1.1621 -0.0846  0.2971
  101MOL0     H13886   5.732   9.615   6.309 -1.3807  0.9132 -0.0474
  101MOL0     H13887   5.996   9.898   6.225  3.3589  0.3674 -2.2642
  101MOL0     H13888   6.227   9.890   6.066 -2.1171  0.5169  0.6142
  101MOL0     H13889   6.212   9.771   5.938  1.3177  2.7158 -0.1757
  101MOL0     H13890   6.302   9.719   6.236  0.9860  0.9938 -0.8476
  101MOL0     H13891   6.329   9.600   6.111  0.6903  0.3432 -2.0375
  101MOL0     H13892   6.489   9.732   6.005 -0.3470 -2.4165  0.7803
  101MOL0     H13893   6.481   9.853   6.131  1.4943  0.2241 -1.0541
  101MOL0     H13894   6.555   9.670   6.294  1.2829 -0.2740  0.0503
  101MOL0     H13895   6.548   9.558   6.159 -1.2093 -0.1239  0.2625
  101MOL0     H13896   6.909   9.802   6.150 -0.7898 -2.9280 -2.2546
  101MOL0     H13897   7.123   9.884   6.261 -0.1402 -0.1494  0.0815
  101MOL0     H13898   7.212   9.759   6.174 -0.1439  0.6787 -1.3349
  101MOL0     H13899   7.218   9.785   6.358  0.0264 -1.3982 -0.7551
  101MOL0     H13900   7.420   9.698   6.461 -2.0711 -1.3723 -1.3986
  101MOL0     H13901   7.652   9.648   6.555 -0.8202 -0.1905  1.6595
  101MOL0     H13902   7.750   9.539   6.709  0.6442 -1.0993  0.3546
  101MOL0     H13903   7.885   9.435   6.707  0.6003  0.7706  1.0882
  101MOL0     H13904   7.876   9.693   6.538 -0.2087  1.4590  1.4576
  101MOL0     H13905   7.978   9.682   6.672  2.5570  0.1340 -2.7236
  101MOL0     H13906   8.105   9.642   6.464 -0.3491 -0.4967 -1.2638
  101MOL0     H13907   8.021   9.497   6.445  0.4994  0.9870 -0.6621
  101MOL0     H13908   8.107   9.412   6.669  1.8162 -0.7663 -0.0102
  101MOL0     H13909   8.201   9.565   6.676  1.9114  0.3783 -1.3135
  101MOL0     H13910   8.220   9.343   6.473  2.4602  0.0916 -0.8923
  101MOL0     H13911   8.304   9.490   6.456  0.7411 -2.4921 -1.9669
  101MOL0     H13912   8.362   9.308   6.699  0.2131  0.8505  0.6111
  101MOL0     H13913   8.428   9.469   6.651 -1.7435  1.6467 -1.8847
  101MOL0     H13914   8.492   9.334   6.432 -4.2207  1.3269  0.0701
  101MOL0     H13915   8.470   9.185   6.541  0.2320  0.5345  2.0588
  101MOL0     H13916   8.663   9.409   6.559  0.0717  0.4038 -1.9729
  101MOL0     H13917   8.698   9.249   6.510  0.4310  3.2912 -1.4232
  101MOL0     H13918   7.661   9.265   6.379  0.1127  0.0587 -0.8615
  101MOL0     H13919   7.414   9.299   6.315 -2.4158  2.3313 -0.5063
  101MOL0     H13920   6.896   9.415   6.436  2.7109 -0.0690  0.5151
  101MOL0     H13921   6.704   9.490   6.341  0.2101 -0.4602  0.3598
  101MOL0     H13922   4.773  10.003   5.995 -0.4571 -2.0363  1.1882
  101MOL0     H13923   4.553  10.107   6.099 -0.0689 -0.3957  2.7658
  101MOL0     H13924   4.352  10.629   5.982 -2.3251  1.8454  0.3925
  101MOL0     H13925   4.155  10.712   6.016  2.1138  0.7528 -0.3658
  101MOL0     H13926   3.958  10.813   6.069 -0.6314 -0.2229 -0.1320
  101MOL0     H13927   3.875  10.659   6.045 -1.6390  1.1473  0.6603
  101MOL0     H13928   3.785  10.903   6.191 -0.2519 -0.2754 -0.3791
  101MOL0     H13929   3.738  10.749   6.261 -1.0212  0.7855  0.4975
  101MOL0     H13930   3.721  10.818   5.967  0.6609  2.2082  1.3012
  101MOL0     H13931   3.645  10.676   6.043  1.7017 -0.6360 -0.8431
  101MOL0     H13932   3.494  10.898   6.000  0.4558  3.9339  1.1596
  101MOL0     H13933   3.574  10.961   6.124  0.9880 -1.2003  0.1851
  101MOL0     H13934   3.335  10.699   6.337 -2.6119 -0.9005 -1.1206
  101MOL0     H13935   4.077  10.487   6.357 -1.2779 -1.0620 -1.6189
  101MOL0     H13936   4.205  10.340   6.442  0.4097  0.1743  2.1166
  101MOL0     H13937   4.297  10.251   6.331 -0.4398  1.3299 -2.7506
  101MOL0     H13938   4.373  10.381   6.439  0.6246 -2.6856 -0.2252
  102MOL0     O13939   9.400   2.605   7.677 -0.2421 -0.1661 -0.6755
  102MOL0     C13940   9.470   2.616   7.580  0.8633 -0.1239 -0.1365
  102MOL0     O13941   9.559   2.531   7.547 -0.2340  0.0789  0.4304
  102MOL0     C13942   9.608   2.432   7.638 -1.1169  0.8766 -0.1549
  102MOL0     C13943   9.679   2.320   7.576  0.3707  0.4607 -0.3106
  102MOL0     C13944   9.746   2.224   7.651  0.2044  0.2346 -0.2744
  102MOL0     C13945   9.743   2.232   7.793  0.1522 -0.3767  0.0791
  102MOL0     O13946   9.813   2.154   7.876 -0.5843 -0.0927 -0.0442
  102MOL0     C13947   9.934   2.090   7.836 -0.7681 -0.1169  0.2857
  102MOL0     C13948  10.004   2.048   7.953 -0.2994  0.3533  0.3415
  102MOL0     C13949  10.129   1.979   7.905 -0.3987  0.2641 -0.5845
  102MOL0     C13950  10.237   1.983   8.020  0.7779 -0.0917 -0.0186
  102MOL0     C13951  10.386   1.971   7.977  0.8594 -0.3959 -0.6468
  102MOL0     C13952  10.407   1.834   7.912  0.8995 -0.6594 -0.4685
  102MOL0     C13953  10.548   1.814   7.854  0.0570  0.1511  0.1353
  102MOL0     C13954  10.642   1.802   7.971 -0.5629  0.7400  0.3129
  102MOL0     N13955  10.737   1.682   7.956 -0.8405 -0.7250 -0.5512
  102MOL0     C13956  10.716   1.559   8.019 -0.5509  0.8370 -0.1588
  102MOL0     C13957  10.830   1.490   7.995 -0.4298 -0.6864 -0.7958
  102MOL0     C13958  10.847   1.348   8.022 -0.8931  1.2691  0.4582
  102MOL0     C13959  10.810   1.270   7.898 -0.6329 -0.1134 -1.2341
  102MOL0     C13960  10.837   1.126   7.913 -0.4578  0.3457 -0.0435
  102MOL0     C13961  10.982   1.078   7.900 -0.7407 -0.1450 -0.4426
  102MOL0     O13962  11.055   1.120   8.014  0.0227  0.2188  0.2324
  102MOL0     C13963  11.157   1.040   8.057  0.1388  0.2353 -0.3251
  102MOL0     C13964  11.234   1.086   8.170 -0.1546 -0.3919  0.0263
  102MOL0     C13965  11.350   1.021   8.222  0.0658 -0.0816 -0.4012
  102MOL0     C13966  11.412   1.078   8.350 -0.0411 -0.0656  0.7693
  102MOL0     C13967  11.410   0.917   8.153  0.2193  0.6269 -0.3785
  102MOL0     C13968  11.539   0.858   8.179  0.2673  0.4089  0.0975
  102MOL0     O13969  11.564   0.741   8.117  0.1295  0.6479 -0.2425
  102MOL0     C13970  11.668   0.643   8.143  0.7446  0.1293 -0.5772
  102MOL0     C13971  11.644   0.515   8.083 -0.1032 -0.7111  0.5514
  102MOL0     C13972  11.739   0.416   8.085  0.3334 -0.4200  0.1815
  102MOL0     C13973  11.857   0.444   8.145 -0.0694  0.0668  0.1803
  102MOL0     O13974  11.942   0.337   8.152  0.1137  0.9908 -0.0249
  102MOL0     C13975  12.075   0.361   8.196  1.5205  0.1276  0.1943
  102MOL0     C13976  12.148   0.225   8.183 -0.2212  0.1776  0.4009
  102MOL0     C13977  12.283   0.220   8.255 -0.3748  0.0160 -0.5287
  102MOL0     C13978  12.344   0.074   8.267  0.1289 -0.4001 -0.3307
  102MOL0     C13979  12.477   0.078   8.347  0.5089 -0.9753  0.5151
  102MOL0     C13980  12.529  -0.065   8.352 -0.0692 -1.0043 -0.4611
  102MOL0     C13981  12.626  -0.058   8.468  0.0011 -0.3806  0.2801
  102MOL0     C13982  12.744  -0.159   8.450 -0.5009 -0.1147 -0.2010
  102MOL0    Cl13983  12.867  -0.070   8.343  0.5253 -0.2061 -0.2504
  102MOL0     C13984  11.884   0.562   8.217  0.5949 -0.3304 -0.4074
  102MOL0     C13985  11.779   0.660   8.223 -0.4396 -0.9760  0.0807
  102MOL0     O13986  11.615   0.908   8.251 -0.4378  0.2077  0.1101
  102MOL0     C13987  11.343   0.879   8.030  0.5544  0.6191 -0.4910
  102MOL0     C13988  11.221   0.937   7.982 -0.3144  0.2837 -1.0596
  102MOL0     N13989  10.921   1.577   7.935  0.0473  0.3675  0.3457
  102MOL0     N13990  10.865   1.684   7.903  0.2904 -0.5335 -0.5904
  102MOL0     C13991   9.673   2.336   7.859  0.0749 -0.2946  0.1354
  102MOL0     C13992   9.606   2.437   7.786  0.5591  0.9978  0.5880
  102MOL0     C13993   9.448   2.736   7.499  0.4347  0.1809 -0.3705
  102MOL0     C13994   9.345   2.818   7.545 -0.5011 -0.1294  0.0605
  102MOL0     C13995   9.319   2.942   7.487 -0.1698  0.0587  0.2038
  102MOL0     C13996   9.386   2.988   7.380 -0.3578  0.1947  0.3412
  102MOL0     O13997   9.345   3.110   7.335 -0.1464 -0.6549  0.0409
  102MOL0     C13998   9.438   3.178   7.254  0.3060 -0.8174 -0.5436
  102MOL0     C13999   9.547   3.244   7.335 -1.0750  0.2499  0.2207
  102MOL0     C14000   9.643   3.331   7.250  0.3332  0.7606  0.7704
  102MOL0     C14001   9.776   3.327   7.323  0.9003 -0.5653  0.6006
  102MOL0     C14002   9.886   3.390   7.251 -0.1859 -0.9959  0.4359
  102MOL0     C14003   9.974   3.436   7.175 -0.1304  0.0112  0.2856
  102MOL0     C14004   9.496   2.908   7.335  0.0292  0.3140 -0.4104
  102MOL0     C14005   9.529   2.790   7.393 -0.1922  0.1519 -1.4033
  102MOL0     C14006   9.642   2.710   7.337 -0.6126 -0.5786 -0.7228
  102MOL0     H14007   9.680   2.314   7.468  0.1458  1.5259 -0.3868
  102MOL0     H14008   9.795   2.145   7.595 -0.7947  0.9176 -2.1949
  102MOL0     H14009   9.999   2.156   7.777 -0.8627  0.1518  0.4782
  102MOL0     H14010   9.904   2.006   7.772 -4.6592 -0.0209  1.7077
  102MOL0     H14011  10.034   2.136   8.010 -0.2187 -0.8230  2.1987
  102MOL0     H14012   9.936   1.987   8.014  1.1254 -1.0435  0.5904
  102MOL0     H14013  10.098   1.877   7.885 -1.3295 -0.0028  1.9606
  102MOL0     H14014  10.168   2.025   7.813 -0.4314  1.5313  0.0151
  102MOL0     H14015  10.221   2.070   8.085  0.9075 -0.9235  1.1668
  102MOL0     H14016  10.223   1.895   8.085  1.3000  0.2651  0.5907
  102MOL0     H14017  10.436   1.982   8.074 -2.3105 -0.5353  1.1595
  102MOL0     H14018  10.406   2.053   7.908 -0.0048  0.6828  0.3467
  102MOL0     H14019  10.372   1.758   7.982 -2.4039  1.4663  0.4635
  102MOL0     H14020  10.335   1.833   7.830  0.9484  2.7522 -0.7231
  102MOL0     H14021  10.588   1.886   7.783 -1.4808  1.2052  0.2915
  102MOL0     H14022  10.553   1.712   7.816  0.2786 -0.2728  1.2485
  102MOL0     H14023  10.695   1.896   7.990  0.1417  1.0648 -2.7509
  102MOL0     H14024  10.585   1.768   8.058 -2.3887 -1.5075 -1.6353
  102MOL0     H14025  10.628   1.510   8.058 -0.7133  0.2083 -1.2738
  102MOL0     H14026  10.791   1.319   8.111  0.3126 -0.4300  0.7041
  102MOL0     H14027  10.949   1.323   8.051 -1.2086  1.6056  1.9192
  102MOL0     H14028  10.702   1.284   7.892 -0.6711  0.0366 -0.4127
  102MOL0     H14029  10.858   1.310   7.808 -0.4842 -1.4052 -1.7376
  102MOL0     H14030  10.798   1.094   8.010 -1.3448 -0.7492 -0.7353
  102MOL0     H14031  10.779   1.064   7.843 -1.1871 -0.9566  1.6325
  102MOL0     H14032  10.986   0.969   7.885  0.3184 -0.2675  0.5477
  102MOL0     H14033  11.027   1.132   7.817 -0.2828  0.2484  0.0514
  102MOL0     H14034  11.184   1.168   8.220 -2.1570 -1.0698 -0.7777
  102MOL0     H14035  11.512   1.113   8.324 -0.8348  1.7546  0.0153
  102MOL0     H14036  11.412   1.000   8.427 -3.2382 -0.8384  0.1295
  102MOL0     H14037  11.357   1.168   8.380  0.0658  0.3605 -0.2438
  102MOL0     H14038  11.546   0.498   8.040 -0.0803  1.0715 -0.2794
  102MOL0     H14039  11.719   0.328   8.025  0.6769 -0.7925  0.6031
  102MOL0     H14040  12.116   0.438   8.130  1.9687 -1.5472 -1.5679
  102MOL0     H14041  12.076   0.402   8.298  2.1237  0.8184 -0.0802
  102MOL0     H14042  12.090   0.137   8.211  3.2291 -3.3667 -2.4043
  102MOL0     H14043  12.174   0.204   8.079  0.0869  0.5586  0.3995
  102MOL0     H14044  12.276   0.268   8.354  2.7830 -2.2915  0.9763
  102MOL0     H14045  12.352   0.293   8.212 -0.6555 -0.0989 -1.1822
  102MOL0     H14046  12.370   0.036   8.167 -0.8827 -0.0267 -0.7463
  102MOL0     H14047  12.273   0.003   8.308 -0.9925  1.6606  1.5045
  102MOL0     H14048  12.547   0.138   8.289 -0.7725 -0.7204 -0.8450
  102MOL0     H14049  12.467   0.129   8.443  3.3660  0.9123 -0.0719
  102MOL0     H14050  12.588  -0.089   8.263  3.4529  0.1731  1.3551
  102MOL0     H14051  12.449  -0.137   8.374  1.3798 -1.9638  2.0588
  102MOL0     H14052  12.564  -0.078   8.556 -0.7930 -1.7551 -0.5568
  102MOL0     H14053  12.669   0.041   8.486 -0.5773 -0.1661  0.5241
  102MOL0     H14054  12.722  -0.258   8.409  0.4626 -0.4741  0.1200
  102MOL0     H14055  12.785  -0.176   8.550 -1.1029 -0.5869 -0.0279
  102MOL0     H14056  11.975   0.575   8.274 -0.4477  2.3471  0.8304
  102MOL0     H14057  11.799   0.761   8.257  0.4042 -1.6321  1.6649
  102MOL0     H14058  11.382   0.793   7.977  2.2246 -0.3839  2.1275
  102MOL0     H14059  11.190   0.896   7.886  0.9833 -2.1092 -0.5340
  102MOL0     H14060   9.673   2.339   7.967  0.8091  2.1550  0.1148
  102MOL0     H14061   9.554   2.518   7.837 -2.8964 -1.1806  0.8616
  102MOL0     H14062   9.282   2.782   7.625  1.6388 -4.7612  0.0067
  102MOL0     H14063   9.233   2.990   7.530  1.2377  1.7585  1.2330
  102MOL0     H14064   9.472   3.116   7.170 -1.6867 -0.2405 -1.8546
  102MOL0     H14065   9.377   3.260   7.214 -0.4920 -1.3150 -0.3554
  102MOL0     H14066   9.598   3.169   7.396 -3.2611 -2.3870 -0.9359
  102MOL0     H14067   9.499   3.312   7.405  2.9030  4.0590 -0.3359
  102MOL0     H14068   9.655   3.271   7.159  0.0221 -0.4679  1.5127
  102MOL0     H14069   9.602   3.429   7.227 -2.2888 -0.0503  1.5832
  102MOL0     H14070   9.806   3.226   7.354  1.5023 -0.4007  0.5696
  102MOL0     H14071   9.764   3.391   7.411  0.1549 -0.1694  0.2196
  102MOL0     H14072  10.056   3.466   7.113  1.1353 -2.6877  0.5137
  102MOL0     H14073   9.556   2.946   7.252  0.9993 -2.0395 -0.8901
  102MOL0     H14074   9.740   2.734   7.380 -0.2734 -1.7679 -0.7994
  102MOL0     H14075   9.622   2.603   7.343 -1.3041 -0.4239 -0.1486
  102MOL0     H14076   9.649   2.730   7.229  1.0938 -0.1061 -0.5534
  103MOL0     O14077   2.049   7.121   7.553  0.1137  0.5823 -0.2935
  103MOL0     C14078   2.034   7.114   7.432 -0.1849 -1.0689 -0.8283
  103MOL0     O14079   2.134   7.051   7.351 -0.1569  0.2471 -0.2993
  103MOL0     C14080   2.257   7.097   7.388 -0.3005  0.1947 -0.2442
  103MOL0     C14081   2.292   7.234   7.371 -0.5820  0.1515  0.0916
  103MOL0     C14082   2.424   7.285   7.400  0.1535  0.5145  0.3463
  103MOL0     C14083   2.533   7.198   7.446  0.2591 -0.6398 -0.7480
  103MOL0     O14084   2.665   7.235   7.469  0.2227 -0.1624  0.5999
  103MOL0     C14085   2.718   7.368   7.450 -0.4369 -0.9028 -0.2121
  103MOL0     C14086   2.868   7.369   7.446  0.0663 -0.1398  0.6333
  103MOL0     C14087   2.937   7.497   7.396  0.3396 -0.4293 -0.0565
  103MOL0     C14088   2.945   7.613   7.497  0.1879 -0.2746  0.1790
  103MOL0     C14089   3.036   7.590   7.622  0.5372  0.0255  0.1257
  103MOL0     C14090   3.183   7.571   7.592  0.2209  0.3246  0.1711
  103MOL0     C14091   3.272   7.617   7.710  0.6606 -0.0943  0.1407
  103MOL0     C14092   3.417   7.650   7.672  0.7074  0.1122 -0.8821
  103MOL0     N14093   3.484   7.531   7.635  0.3403  0.1816 -0.5267
  103MOL0     C14094   3.496   7.488   7.505  0.3139  0.2032 -0.8445
  103MOL0     C14095   3.534   7.357   7.517  0.2518 -0.0188 -0.9549
  103MOL0     C14096   3.575   7.265   7.413 -0.2704  0.4010  0.5326
  103MOL0     C14097   3.690   7.318   7.324  0.2062  0.3095  0.3902
  103MOL0     C14098   3.824   7.296   7.389  0.7116 -0.9975 -0.4753
  103MOL0     C14099   3.946   7.351   7.305 -0.2470 -0.2585  0.7730
  103MOL0     O14100   4.058   7.347   7.384 -0.9481 -0.1943 -0.0051
  103MOL0     C14101   4.177   7.408   7.344  0.3015  0.0552  0.1584
  103MOL0     C14102   4.200   7.494   7.242  0.0335 -0.1021 -0.0682
  103MOL0     C14103   4.323   7.540   7.206 -0.6784  0.7591 -0.0308
  103MOL0     C14104   4.328   7.627   7.085 -0.5355 -0.3416 -0.2125
  103MOL0     C14105   4.440   7.491   7.279 -0.1742  0.2068  0.3057
  103MOL0     C14106   4.573   7.534   7.232 -0.1874  0.4491  0.7266
  103MOL0     O14107   4.662   7.428   7.208 -0.2280  0.5601 -0.0374
  103MOL0     C14108   4.788   7.462   7.162  0.1518  0.3029 -0.8424
  103MOL0     C14109   4.810   7.541   7.049 -0.4423 -0.5828 -0.1370
  103MOL0     C14110   4.946   7.570   7.016  0.0733  0.2286  0.1613
  103MOL0     C14111   5.049   7.531   7.094 -0.4377 -0.0627  0.0143
  103MOL0     O14112   5.178   7.548   7.068 -0.2916 -0.2993 -0.1473
  103MOL0     C14113   5.231   7.668   6.999 -0.0220 -0.5067 -0.5653
  103MOL0     C14114   5.345   7.646   6.899 -0.1615  0.6628  0.3624
  103MOL0     C14115   5.473   7.590   6.960  0.2220  0.0040 -0.0795
  103MOL0     C14116   5.457   7.437   6.974  0.6917 -0.6855  0.0046
  103MOL0     C14117   5.585   7.348   6.998 -0.2070  0.0759 -0.2503
  103MOL0     C14118   5.697   7.434   7.074 -0.4546 -0.3404 -0.1487
  103MOL0     C14119   5.814   7.355   7.119 -0.1492 -0.2298 -0.6371
  103MOL0     C14120   5.885   7.305   7.004 -0.1512 -0.7809  0.4384
  103MOL0    Cl14121   6.009   7.205   7.076 -0.0308 -0.1383 -0.2832
  103MOL0     C14122   5.026   7.444   7.194  0.0889 -0.4316  0.9356
  103MOL0     C14123   4.896   7.408   7.232  0.5762  0.4174 -0.7257
  103MOL0     O14124   4.596   7.656   7.232 -0.2573  0.0329 -0.7211
  103MOL0     C14125   4.415   7.404   7.389  0.3592  0.1339 -0.5780
  103MOL0     C14126   4.285   7.360   7.421  0.5775 -0.0978 -0.3793
  103MOL0     N14127   3.537   7.318   7.651  0.8150 -0.6903  0.4419
  103MOL0     N14128   3.512   7.430   7.719  0.2783  0.3056 -0.5319
  103MOL0     C14129   2.492   7.067   7.468 -0.0573 -0.6100 -0.4749
  103MOL0     C14130   2.362   7.016   7.448  0.5390  0.0839  0.0463
  103MOL0     C14131   1.893   7.144   7.379  0.0124 -0.0914 -0.2122
  103MOL0     C14132   1.881   7.139   7.238  0.4067  0.0608 -0.0095
  103MOL0     C14133   1.772   7.201   7.174  0.5521 -0.2118 -0.1568
  103MOL0     C14134   1.668   7.253   7.252  0.6467 -0.4157 -0.5944
  103MOL0     O14135   1.573   7.309   7.177  0.3741 -0.3607  0.1129
  103MOL0     C14136   1.458   7.350   7.245 -0.3400 -0.6110  0.0287
  103MOL0     C14137   1.366   7.432   7.164 -0.2822  0.2337  0.3408
  103MOL0     C14138   1.425   7.550   7.085 -0.4284  0.2630 -0.1084
  103MOL0     C14139   1.334   7.669   7.100 -0.4177 -0.1438  0.7211
  103MOL0     C14140   1.206   7.647   7.031 -0.0390  0.5756 -0.7682
  103MOL0     C14141   1.098   7.638   6.975  0.0653 -0.8784  0.2822
  103MOL0     C14142   1.665   7.235   7.386  0.3769 -0.0589 -0.0055
  103MOL0     C14143   1.779   7.194   7.459 -0.0805  0.1178 -0.6709
  103MOL0     C14144   1.782   7.207   7.609  0.4126 -0.0665  0.6243
  103MOL0     H14145   2.213   7.303   7.342 -1.8077 -2.1498 -2.4620
  103MOL0     H14146   2.442   7.392   7.397  1.3757  0.3358  0.6772
  103MOL0     H14147   2.690   7.439   7.528 -0.9863 -0.1369 -1.0775
  103MOL0     H14148   2.689   7.413   7.355  0.9631 -0.8148 -0.6239
  103MOL0     H14149   2.899   7.345   7.547  1.2472  1.2924  0.6455
  103MOL0     H14150   2.896   7.291   7.375  1.5101 -0.1096  1.1562
  103MOL0     H14151   3.031   7.478   7.343  1.3332 -1.0717  1.8423
  103MOL0     H14152   2.874   7.548   7.322 -0.1651 -0.5484  0.2893
  103MOL0     H14153   2.970   7.708   7.448 -0.1917  0.3478  1.1607
  103MOL0     H14154   2.847   7.639   7.538  0.2782 -1.6027  1.2932
  103MOL0     H14155   3.016   7.505   7.688  1.9356 -1.1184 -0.8542
  103MOL0     H14156   3.031   7.679   7.686  1.0978 -1.4477  2.3198
  103MOL0     H14157   3.216   7.471   7.565 -1.3389 -0.0453 -0.4863
  103MOL0     H14158   3.209   7.632   7.505 -1.5008  2.0072  0.7636
  103MOL0     H14159   3.271   7.551   7.798  5.0180  2.9872  2.9182
  103MOL0     H14160   3.234   7.714   7.741 -1.0636 -0.3907 -0.8963
  103MOL0     H14161   3.426   7.731   7.598 -0.8583  0.1404 -1.0866
  103MOL0     H14162   3.475   7.684   7.758 -0.4488 -3.9927  1.7915
  103MOL0     H14163   3.488   7.550   7.416 -4.0404  1.3384  0.1103
  103MOL0     H14164   3.488   7.229   7.358  0.4375 -4.7873  2.2338
  103MOL0     H14165   3.618   7.177   7.461  3.9203  1.6113 -0.5652
  103MOL0     H14166   3.691   7.265   7.229  0.3443  1.0053 -0.0055
  103MOL0     H14167   3.681   7.425   7.300  1.8095  1.2158  3.3357
  103MOL0     H14168   3.818   7.347   7.486 -2.4468 -0.7507 -0.7206
  103MOL0     H14169   3.841   7.188   7.404 -2.2045 -2.0597 -3.6345
  103MOL0     H14170   3.953   7.300   7.209 -0.0295 -0.8071  1.0774
  103MOL0     H14171   3.917   7.454   7.282 -1.6437 -1.0283 -1.1147
  103MOL0     H14172   4.120   7.525   7.176  0.6451 -1.1948 -1.3870
  103MOL0     H14173   4.400   7.706   7.110  1.5760 -1.8781 -1.0921
  103MOL0     H14174   4.234   7.678   7.060  0.4007  0.9361 -1.3107
  103MOL0     H14175   4.366   7.569   7.001 -0.0162  0.9913 -0.9287
  103MOL0     H14176   4.731   7.576   6.984 -2.0908  0.3172  2.2033
  103MOL0     H14177   4.960   7.628   6.926 -0.2408 -0.4619 -0.3362
  103MOL0     H14178   5.152   7.724   6.946 -0.2119 -1.4087 -1.2648
  103MOL0     H14179   5.267   7.722   7.087 -3.3946 -0.4106  0.9245
  103MOL0     H14180   5.307   7.582   6.819  2.0959 -2.5204  1.6332
  103MOL0     H14181   5.375   7.741   6.855  1.9434 -0.7339 -1.4150
  103MOL0     H14182   5.489   7.648   7.051  3.0755  0.5409 -0.8385
  103MOL0     H14183   5.552   7.611   6.887 -2.6235 -0.3685 -3.5281
  103MOL0     H14184   5.395   7.404   6.890  2.6382  1.6635 -2.5401
  103MOL0     H14185   5.398   7.434   7.066  0.1378  1.6309 -0.2175
  103MOL0     H14186   5.552   7.264   7.062 -2.4788  0.8772 -0.2749
  103MOL0     H14187   5.630   7.309   6.906  4.4249  2.4521  0.7466
  103MOL0     H14188   5.656   7.476   7.166 -0.0868  2.2502 -1.0690
  103MOL0     H14189   5.730   7.520   7.015 -1.6677 -0.8223 -1.6083
  103MOL0     H14190   5.783   7.271   7.182 -0.6597  0.0122 -0.5669
  103MOL0     H14191   5.880   7.428   7.165 -2.1383  0.9172  0.5208
  103MOL0     H14192   5.936   7.387   6.952 -2.3138 -0.1062 -0.7170
  103MOL0     H14193   5.819   7.256   6.931 -0.0082  0.9661 -0.9408
  103MOL0     H14194   5.104   7.422   7.266  0.9968  1.0301  0.4356
  103MOL0     H14195   4.893   7.337   7.314  0.1166  0.6257 -0.5574
  103MOL0     H14196   4.500   7.363   7.443 -1.5533 -0.2904  2.3283
  103MOL0     H14197   4.264   7.296   7.506 -2.1614  3.2820  1.7130
  103MOL0     H14198   2.572   6.999   7.496  1.5759  0.2537 -2.7902
  103MOL0     H14199   2.350   6.908   7.457 -1.6314  0.2470 -0.3633
  103MOL0     H14200   1.960   7.100   7.175  0.5512  1.3393 -0.6426
  103MOL0     H14201   1.768   7.205   7.066  2.4104 -1.5091 -0.3230
  103MOL0     H14202   1.398   7.267   7.284 -1.1394 -0.2110 -0.3018
  103MOL0     H14203   1.487   7.410   7.332 -0.6545  0.2903 -0.4782
  103MOL0     H14204   1.283   7.470   7.224 -3.7041  0.4940 -4.0039
  103MOL0     H14205   1.321   7.352   7.104  1.6296 -1.0936  0.5467
  103MOL0     H14206   1.522   7.561   7.133 -1.3886  0.4398  1.8967
  103MOL0     H14207   1.435   7.521   6.980  2.9743 -1.3956  0.5308
  103MOL0     H14208   1.386   7.753   7.054 -3.1884 -0.0242 -2.5970
  103MOL0     H14209   1.314   7.683   7.207 -0.1599  0.3918  0.7013
  103MOL0     H14210   1.006   7.646   6.922  0.7167  0.8220 -0.7004
  103MOL0     H14211   1.578   7.261   7.447  2.2673  2.2069  1.9266
  103MOL0     H14212   1.877   7.241   7.652  1.4034 -0.5082 -1.1190
  103MOL0     H14213   1.713   7.287   7.635 -0.3463  0.4533 -2.5343
  103MOL0     H14214   1.748   7.114   7.657  0.7106  0.1837  1.3337
  104MOL0     O14215   2.238   0.224   4.093 -0.1056  0.0973  0.6718
  104MOL0     C14216   2.164   0.317   4.106 -1.0158 -0.6201  0.7756
  104MOL0     O14217   2.207   0.453   4.113  0.2912  0.5225  0.1360
  104MOL0     C14218   2.344   0.484   4.110 -0.0868 -0.2100 -0.4198
  104MOL0     C14219   2.451   0.438   4.019 -0.1181  0.5493  0.3025
  104MOL0     C14220   2.583   0.475   4.041  0.5087  0.5677  0.2407
  104MOL0     C14221   2.616   0.557   4.148  0.1774  0.2832  0.0019
  104MOL0     O14222   2.750   0.587   4.163 -0.1254  0.9423  0.3456
  104MOL0     C14223   2.787   0.701   4.239 -0.2052  0.4956 -0.5661
  104MOL0     C14224   2.925   0.747   4.191 -0.6058 -0.0335 -0.6860
  104MOL0     C14225   3.040   0.644   4.227 -0.8610  0.3355  0.3008
  104MOL0     C14226   3.183   0.698   4.193 -0.1148 -0.1425 -0.5878
  104MOL0     C14227   3.290   0.599   4.242  0.0832  0.6525  0.9099
  104MOL0     C14228   3.424   0.619   4.177 -0.2350 -1.0534  0.9529
  104MOL0     C14229   3.538   0.618   4.274 -0.2431  0.5111 -0.0481
  104MOL0     C14230   3.592   0.476   4.289 -0.7343 -0.5374 -0.2640
  104MOL0     N14231   3.694   0.495   4.381  0.5328 -0.3494  0.3900
  104MOL0     C14232   3.688   0.527   4.512 -0.6442  0.4691 -0.1406
  104MOL0     C14233   3.822   0.529   4.551  0.4539 -0.9428  0.0222
  104MOL0     C14234   3.857   0.573   4.695  0.5797 -0.5787  0.7369
  104MOL0     C14235   4.004   0.549   4.718 -0.2184  0.5321  0.8383
  104MOL0     C14236   4.027   0.405   4.764  1.0408  0.9267  0.2293
  104MOL0     C14237   4.173   0.367   4.772  0.1593 -0.3305 -0.8370
  104MOL0     O14238   4.227   0.449   4.886 -0.6340  0.8379 -0.0362
  104MOL0     C14239   4.367   0.455   4.897 -0.0962 -0.4890  0.6361
  104MOL0     C14240   4.420   0.564   4.972  0.8277  0.1410 -1.0942
  104MOL0     C14241   4.560   0.571   5.003  0.9109 -0.0015  0.0075
  104MOL0     C14242   4.602   0.687   5.097  0.0144  0.3161  0.1601
  104MOL0     C14243   4.653   0.487   4.940 -0.7070  0.4432  0.6470
  104MOL0     C14244   4.804   0.494   4.962  0.5375 -0.0726  0.2596
  104MOL0     O14245   4.876   0.381   4.921  0.3660 -0.7117  0.6439
  104MOL0     C14246   5.016   0.377   4.928 -0.3852 -0.4180 -0.4287
  104MOL0     C14247   5.064   0.266   5.008 -0.3604 -0.7485  0.4016
  104MOL0     C14248   5.200   0.239   5.030 -0.5196 -0.8819 -0.3258
  104MOL0     C14249   5.293   0.317   4.963  0.0779 -0.8843  0.1431
  104MOL0     O14250   5.423   0.310   4.984 -0.5338  0.5626 -0.0489
  104MOL0     C14251   5.476   0.242   5.098 -0.6402 -0.2787 -0.6353
  104MOL0     C14252   5.629   0.264   5.126  0.5847 -0.3950  0.0745
  104MOL0     C14253   5.685   0.402   5.084 -0.1453 -0.4339  0.0716
  104MOL0     C14254   5.810   0.426   5.163  0.2662 -0.1964 -0.1534
  104MOL0     C14255   5.867   0.568   5.157  0.2472  0.2377 -0.5878
  104MOL0     C14256   5.924   0.594   5.012  0.8845  0.6738 -0.5031
  104MOL0     C14257   6.049   0.519   4.976  0.1009  0.0438 -0.5249
  104MOL0     C14258   6.091   0.564   4.838 -0.2024 -0.2070  0.0075
  104MOL0    Cl14259   6.142   0.728   4.824 -0.2440 -0.0160  0.0624
  104MOL0     C14260   5.244   0.420   4.874 -0.7993 -0.1035 -0.2991
  104MOL0     C14261   5.107   0.459   4.867  0.4271 -0.2450 -0.1246
  104MOL0     O14262   4.856   0.588   5.015 -0.5534  0.0399 -0.1443
  104MOL0     C14263   4.600   0.382   4.857 -0.2471  0.5702  0.2804
  104MOL0     C14264   4.458   0.370   4.832  0.4367 -0.0852 -0.1370
  104MOL0     N14265   3.904   0.527   4.443  1.3547  0.0722  0.5206
  104MOL0     N14266   3.827   0.507   4.343  0.1847 -0.1999  0.2781
  104MOL0     C14267   2.518   0.613   4.232  0.2264 -0.6887 -1.3463
  104MOL0     C14268   2.383   0.572   4.215  0.1330 -1.0671 -0.7659
  104MOL0     C14269   2.018   0.295   4.099  0.3094  0.5822  0.5681
  104MOL0     C14270   1.935   0.402   4.107 -0.4404 -0.3584 -0.2150
  104MOL0     C14271   1.797   0.395   4.101 -0.1957 -0.0361  0.2209
  104MOL0     C14272   1.735   0.272   4.089 -0.3605 -0.4206 -0.0893
  104MOL0     O14273   1.598   0.257   4.090 -1.0151 -0.3563 -0.2427
  104MOL0     C14274   1.520   0.371   4.050 -0.9640 -0.5835  0.0768
  104MOL0     C14275   1.378   0.326   4.012 -0.1962 -0.1330 -0.2909
  104MOL0     C14276   1.326   0.256   4.135  0.7722  0.3046  0.0513
  104MOL0     C14277   1.167   0.245   4.129 -0.5100 -0.1264  0.8145
  104MOL0     C14278   1.103   0.158   4.227 -0.5127 -0.4012 -1.0813
  104MOL0     C14279   1.048   0.089   4.311  0.0675 -0.3395 -0.6490
  104MOL0     C14280   1.815   0.158   4.078  0.0775  0.1478 -0.0578
  104MOL0     C14281   1.957   0.169   4.069  0.2729 -0.5649 -0.1481
  104MOL0     C14282   2.025   0.042   4.027 -0.5660  0.0392 -0.3356
  104MOL0     H14283   2.432   0.355   3.951 -0.0631  0.5968  0.2298
  104MOL0     H14284   2.659   0.428   3.979 -2.5110 -0.8000 -2.7694
  104MOL0     H14285   2.793   0.684   4.347  0.4736 -0.1515 -0.6919
  104MOL0     H14286   2.724   0.789   4.222  2.8872  3.1547  0.6366
  104MOL0     H14287   2.928   0.760   4.082  0.1622 -0.7208 -0.7585
  104MOL0     H14288   2.956   0.841   4.238  0.9296 -1.3208  1.0176
  104MOL0     H14289   3.040   0.620   4.334 -2.6704  1.2840  0.5607
  104MOL0     H14290   3.036   0.554   4.165 -1.2848  1.8763 -2.0666
  104MOL0     H14291   3.199   0.725   4.089  3.4570  2.4089  0.4180
  104MOL0     H14292   3.189   0.782   4.263 -0.1415  0.0836 -0.8558
  104MOL0     H14293   3.248   0.502   4.211  2.0584  0.3028 -0.8884
  104MOL0     H14294   3.288   0.622   4.349  0.4616 -0.0389  1.0720
  104MOL0     H14295   3.453   0.550   4.097  0.3286  0.5730 -0.2992
  104MOL0     H14296   3.425   0.719   4.133  0.5118 -1.3424  0.2694
  104MOL0     H14297   3.504   0.668   4.365 -0.2642 -0.5525  0.5479
  104MOL0     H14298   3.612   0.683   4.226 -1.8130  1.7326 -0.9206
  104MOL0     H14299   3.513   0.408   4.323 -1.0013  0.2843  0.8048
  104MOL0     H14300   3.628   0.441   4.191  0.2599  0.3538 -0.2277
  104MOL0     H14301   3.602   0.546   4.576 -1.2962 -3.3445  0.3591
  104MOL0     H14302   3.793   0.515   4.763  1.2773 -1.9633  0.2611
  104MOL0     H14303   3.833   0.679   4.698 -2.2238 -1.0658 -0.9991
  104MOL0     H14304   4.062   0.569   4.628  1.7531  0.8998  2.1261
  104MOL0     H14305   4.043   0.616   4.795  2.3674 -0.4641  0.4898
  104MOL0     H14306   3.989   0.388   4.866 -1.6674  0.4797 -0.7669
  104MOL0     H14307   3.963   0.334   4.710 -1.5624  2.2075  1.4066
  104MOL0     H14308   4.183   0.259   4.788 -1.3368 -0.4122 -0.2886
  104MOL0     H14309   4.230   0.385   4.680  1.6501  0.0912  0.1376
  104MOL0     H14310   4.348   0.632   5.018 -0.0516 -2.4980  1.8026
  104MOL0     H14311   4.680   0.743   5.044 -0.3224 -1.2272 -2.1170
  104MOL0     H14312   4.648   0.638   5.184  0.3380 -3.6291 -1.9726
  104MOL0     H14313   4.526   0.755   5.137 -2.3210 -3.0794  2.0191
  104MOL0     H14314   4.986   0.207   5.055 -1.6647  0.9642  0.5005
  104MOL0     H14315   5.240   0.162   5.095  0.2897 -0.7848 -0.6915
  104MOL0     H14316   5.429   0.270   5.192 -0.5865 -1.4136 -0.2497
  104MOL0     H14317   5.454   0.135   5.093 -2.9045  0.1005  0.1001
  104MOL0     H14318   5.656   0.234   5.228  1.1621  1.8247  0.6315
  104MOL0     H14319   5.688   0.198   5.063  1.5772 -1.5026  2.0542
  104MOL0     H14320   5.607   0.475   5.106 -0.0872 -0.6699  1.0872
  104MOL0     H14321   5.698   0.412   4.976 -0.7776  0.9216  0.1023
  104MOL0     H14322   5.884   0.353   5.129  0.5606  0.2319 -0.4310
  104MOL0     H14323   5.796   0.404   5.270  2.9994  1.3791  0.6280
  104MOL0     H14324   5.787   0.630   5.197  1.0269 -0.7630  2.8247
  104MOL0     H14325   5.954   0.588   5.220  1.2870 -3.1241 -0.7604
  104MOL0     H14326   5.945   0.701   5.000  1.8997  0.4396 -0.9659
  104MOL0     H14327   5.850   0.563   4.937  2.3958  0.8020 -2.1251
  104MOL0     H14328   6.028   0.411   4.969  0.3705 -0.3445  3.0593
  104MOL0     H14329   6.122   0.533   5.056  0.0713 -0.9958 -0.2921
  104MOL0     H14330   6.013   0.534   4.767  0.4716  1.7138 -1.6442
  104MOL0     H14331   6.180   0.512   4.802 -0.5032  1.4999 -3.6427
  104MOL0     H14332   5.316   0.479   4.820  1.3243 -1.9215  0.3808
  104MOL0     H14333   5.072   0.538   4.801 -0.5410  1.2374  2.0299
  104MOL0     H14334   4.672   0.323   4.801  0.0171  0.0257  1.1730
  104MOL0     H14335   4.428   0.300   4.754  0.1095 -0.8220  0.6407
  104MOL0     H14336   2.556   0.668   4.318  0.0521  0.5163 -2.0306
  104MOL0     H14337   2.311   0.617   4.282  2.3670 -0.8478  1.6339
  104MOL0     H14338   1.974   0.500   4.134 -1.9623 -0.5752  3.2124
  104MOL0     H14339   1.736   0.481   4.126 -0.1445 -0.4114  1.7066
  104MOL0     H14340   1.507   0.445   4.129  3.4605 -0.0588  0.5620
  104MOL0     H14341   1.558   0.426   3.963 -2.4553 -0.7751 -0.7192
  104MOL0     H14342   1.384   0.260   3.925  1.0253  1.9777 -1.9121
  104MOL0     H14343   1.309   0.409   3.990  0.2277  0.3478  0.1501
  104MOL0     H14344   1.372   0.159   4.156  0.5139  0.4025  1.1514
  104MOL0     H14345   1.352   0.316   4.223 -0.2123  1.5121 -0.4489
  104MOL0     H14346   1.148   0.208   4.028 -1.1632  1.1824  0.4400
  104MOL0     H14347   1.121   0.343   4.140  0.0214  0.4417 -1.5332
  104MOL0     H14348   0.996   0.030   4.384 -1.8894 -0.1349 -1.8017
  104MOL0     H14349   1.775   0.057   4.075  2.2203 -0.9092  2.4509
  104MOL0     H14350   1.964  -0.048   4.017 -1.5082  0.6805 -0.4807
  104MOL0     H14351   2.079   0.072   3.937  0.8620  0.8892  0.7470
  104MOL0     H14352   2.095   0.017   4.107 -0.2908 -0.1065 -0.6218
  105MOL0     O14353   7.987   6.547   0.785  0.1952  0.1311 -0.0091
  105MOL0     C14354   7.938   6.618   0.692 -0.4847  1.1079  0.6280
  105MOL0     O14355   8.011   6.680   0.597  0.0039  0.1320  0.3187
  105MOL0     C14356   8.144   6.653   0.590  0.0345 -1.0903  0.6569
  105MOL0     C14357   8.210   6.530   0.619 -0.0074 -0.1386  0.4424
  105MOL0     C14358   8.352   6.520   0.621 -0.2451  0.1212  0.4117
  105MOL0     C14359   8.435   6.633   0.583  0.4507  0.8790 -0.6701
  105MOL0     O14360   8.572   6.619   0.581  0.3241  0.0078 -0.0952
  105MOL0     C14361   8.621   6.512   0.502 -0.1011 -0.4482  0.4423
  105MOL0     C14362   8.776   6.513   0.519  0.5583 -0.3846 -0.3208
  105MOL0     C14363   8.839   6.391   0.444 -0.5583  0.5211  0.0914
  105MOL0     C14364   8.994   6.377   0.467  0.4719 -0.0215 -0.1643
  105MOL0     C14365   9.055   6.259   0.391  1.2667 -0.1702 -0.6469
  105MOL0     C14366   9.212   6.233   0.429  0.9797 -0.4569  0.5800
  105MOL0     C14367   9.301   6.339   0.350 -0.6772  1.2675 -0.8839
  105MOL0     C14368   9.450   6.310   0.387 -0.7448 -0.6539 -0.1113
  105MOL0     N14369   9.509   6.209   0.302  0.2864  0.0512  0.7276
  105MOL0     C14370   9.522   6.215   0.163 -0.2458 -1.1598 -0.4982
  105MOL0     C14371   9.592   6.103   0.128  0.0037 -0.5600  0.5907
  105MOL0     C14372   9.649   6.072  -0.011  0.3404  1.2834  0.5530
  105MOL0     C14373   9.788   6.035  -0.000  0.2369 -0.2101 -1.2352
  105MOL0     C14374   9.851   5.953  -0.111  0.2685  0.4200  0.2261
  105MOL0     C14375   9.981   5.901  -0.068 -0.6417  0.3545  0.3395
  105MOL0     O14376  10.081   6.002  -0.058 -0.5196 -0.1208  0.0087
  105MOL0     C14377  10.213   5.970  -0.060  0.2644  0.5960 -0.6994
  105MOL0     C14378  10.304   6.070  -0.073 -0.3219  0.3389 -0.2239
  105MOL0     C14379  10.443   6.051  -0.081 -0.3905 -0.3751 -0.2154
  105MOL0     C14380  10.544   6.172  -0.090  0.6438 -0.2340  0.5480
  105MOL0     C14381  10.496   5.914  -0.060  0.3753 -0.1883  0.3722
  105MOL0     C14382  10.645   5.879  -0.060 -0.0672 -0.2110 -0.1069
  105MOL0     O14383  10.684   5.747  -0.034 -0.0893 -0.1889  0.0765
  105MOL0     C14384  10.815   5.746  -0.006 -1.2558 -0.3675 -0.3392
  105MOL0     C14385  10.914   5.731  -0.105 -0.5608  0.3389  0.0303
  105MOL0     C14386  11.045   5.697  -0.071 -0.3370 -0.0355  0.5684
  105MOL0     C14387  11.076   5.677   0.052 -0.1310  0.0018 -0.1840
  105MOL0     O14388  11.207   5.641   0.070  0.0360  0.2023  0.4912
  105MOL0     C14389  11.266   5.632   0.202 -0.0806  0.3391  0.0819
  105MOL0     C14390  11.306   5.769   0.262 -0.3422  0.0318 -0.3039
  105MOL0     C14391  11.400   5.847   0.176 -0.4747  0.2198 -0.3275
  105MOL0     C14392  11.445   5.969   0.257  0.4188  0.2377  0.2201
  105MOL0     C14393  11.565   6.025   0.179  0.4048  0.1117  0.3424
  105MOL0     C14394  11.652   6.129   0.258  1.2107  0.6971 -0.0082
  105MOL0     C14395  11.766   6.174   0.169  0.3936 -0.1296  0.2162
  105MOL0     C14396  11.865   6.252   0.256 -0.4517 -0.3066  0.6022
  105MOL0    Cl14397  11.812   6.430   0.251  0.2168 -0.0577 -0.3079
  105MOL0     C14398  10.981   5.698   0.155 -0.2277 -0.6436 -0.1319
  105MOL0     C14399  10.850   5.739   0.125 -0.3667 -0.5642 -0.2226
  105MOL0     O14400  10.725   5.966  -0.084  0.2621 -0.2209 -0.7677
  105MOL0     C14401  10.398   5.810  -0.047 -0.0006  0.1257 -0.5719
  105MOL0     C14402  10.261   5.837  -0.040 -0.8133 -1.4801  0.2702
  105MOL0     N14403   9.615   6.030   0.243  0.4929  0.8374  0.1408
  105MOL0     N14404   9.555   6.089   0.342 -0.3176  0.2870  0.4306
  105MOL0     C14405   8.371   6.758   0.556  0.3977 -0.4191  0.1665
  105MOL0     C14406   8.235   6.759   0.560 -0.5112  0.0273 -0.2889
  105MOL0     C14407   7.794   6.615   0.674  0.4619 -0.4064  0.7650
  105MOL0     C14408   7.713   6.628   0.789 -0.2628 -0.0239  1.5084
  105MOL0     C14409   7.574   6.648   0.777 -0.2865 -0.4329 -0.9204
  105MOL0     C14410   7.510   6.637   0.651 -0.2648  0.6351  0.0266
  105MOL0     O14411   7.372   6.644   0.631  0.5439 -0.0037 -0.2171
  105MOL0     C14412   7.285   6.548   0.699 -0.2212 -0.1683 -0.2755
  105MOL0     C14413   7.144   6.594   0.689  0.0258 -0.5954 -0.7091
  105MOL0     C14414   7.056   6.478   0.755  0.5732 -0.2530  0.6726
  105MOL0     C14415   6.927   6.530   0.806  0.8701  0.0419  0.3643
  105MOL0     C14416   6.824   6.429   0.802 -0.1931 -0.5671 -0.2890
  105MOL0     C14417   6.742   6.338   0.794  0.2768 -0.4207 -0.2035
  105MOL0     C14418   7.591   6.623   0.542 -0.0293 -0.2520  0.9808
  105MOL0     C14419   7.729   6.614   0.545  0.4492  0.5674  0.8523
  105MOL0     C14420   7.795   6.592   0.404 -0.3826 -0.4933 -0.0147
  105MOL0     H14421   8.147   6.443   0.634  0.3814 -0.5269 -0.1563
  105MOL0     H14422   8.408   6.429   0.638  1.1520  1.1369  1.5046
  105MOL0     H14423   8.596   6.523   0.396  1.2989  1.7602  0.2831
  105MOL0     H14424   8.590   6.412   0.536 -0.8721 -0.0710  0.8835
  105MOL0     H14425   8.810   6.610   0.481 -1.2045  0.0164 -0.9532
  105MOL0     H14426   8.805   6.507   0.625 -2.9648  2.2355  0.9637
  105MOL0     H14427   8.797   6.294   0.471  0.4612 -0.4681 -1.6321
  105MOL0     H14428   8.842   6.410   0.336  1.3490  1.1931  0.2197
  105MOL0     H14429   9.036   6.473   0.438  0.5577 -0.2288 -0.7287
  105MOL0     H14430   9.023   6.360   0.571  4.5189 -0.3828 -1.1868
  105MOL0     H14431   9.049   6.274   0.283 -2.1830 -1.4451 -0.7547
  105MOL0     H14432   8.998   6.166   0.403  1.7003 -0.4429 -0.6760
  105MOL0     H14433   9.218   6.252   0.536  0.4857 -3.6481  1.2482
  105MOL0     H14434   9.241   6.132   0.401 -1.1776 -0.6021 -1.4732
  105MOL0     H14435   9.273   6.442   0.374  1.4957  1.5380  0.8264
  105MOL0     H14436   9.287   6.330   0.242 -1.8701  0.2638 -0.6656
  105MOL0     H14437   9.509   6.402   0.377 -0.3015 -1.0926 -1.8569
  105MOL0     H14438   9.468   6.275   0.489  1.2758  2.1436  0.6115
  105MOL0     H14439   9.487   6.295   0.100  1.5937 -0.0208 -0.1387
  105MOL0     H14440   9.639   6.162  -0.073 -4.1353  1.4172  1.1413
  105MOL0     H14441   9.594   5.997  -0.068  2.4761 -1.2818  1.6908
  105MOL0     H14442   9.841   6.131   0.001 -1.7800  0.9736 -2.2396
  105MOL0     H14443   9.808   5.990   0.097 -1.2260  0.3955 -0.6284
  105MOL0     H14444   9.787   5.870  -0.143  0.6056  0.2751 -0.0702
  105MOL0     H14445   9.856   6.017  -0.199 -0.1448 -0.1055 -0.1846
  105MOL0     H14446   9.972   5.849   0.028 -0.2296 -0.5017 -0.0727
  105MOL0     H14447  10.013   5.829  -0.143 -2.3220 -1.4628  1.2671
  105MOL0     H14448  10.261   6.170  -0.080 -0.9859  0.0787  0.0375
  105MOL0     H14449  10.604   6.185   0.000  0.1834  2.4033  0.5798
  105MOL0     H14450  10.484   6.263  -0.100 -2.6397 -2.2645  0.2464
  105MOL0     H14451  10.596   6.162  -0.186 -0.3177 -1.3945  0.1229
  105MOL0     H14452  10.900   5.730  -0.213  0.4712 -0.0403 -0.1109
  105MOL0     H14453  11.128   5.682  -0.139 -1.8194 -1.5269 -1.0111
  105MOL0     H14454  11.202   5.577   0.271  0.6747 -0.4803  0.1495
  105MOL0     H14455  11.361   5.579   0.189 -1.1530 -1.3624 -1.2396
  105MOL0     H14456  11.214   5.828   0.270  0.3158  0.9579  0.6606
  105MOL0     H14457  11.328   5.755   0.369 -4.4683 -1.2047  0.5743
  105MOL0     H14458  11.354   5.884   0.084  0.5357  1.6747 -0.2720
  105MOL0     H14459  11.480   5.779   0.146 -2.1838 -1.2573 -1.7607
  105MOL0     H14460  11.484   5.933   0.353  3.7854 -0.2976 -1.2161
  105MOL0     H14461  11.365   6.043   0.268  1.1659  0.9324  1.2349
  105MOL0     H14462  11.621   5.936   0.148 -0.7652 -0.6223  0.2840
  105MOL0     H14463  11.518   6.074   0.093 -2.0485 -5.5035 -2.0160
  105MOL0     H14464  11.691   6.087   0.352 -1.8908  0.6459  1.3783
  105MOL0     H14465  11.587   6.213   0.282  1.2914  0.8488 -0.3252
  105MOL0     H14466  11.728   6.230   0.083  1.4083 -0.1241 -0.2469
  105MOL0     H14467  11.811   6.086   0.121  0.0714  0.5619 -1.4079
  105MOL0     H14468  11.964   6.234   0.213 -0.5077 -4.1404  1.7531
  105MOL0     H14469  11.864   6.221   0.360  4.2492 -1.6232  0.4527
  105MOL0     H14470  11.009   5.689   0.259 -2.9162 -0.1687  0.7150
  105MOL0     H14471  10.773   5.749   0.200 -2.7101 -0.3035 -2.5247
  105MOL0     H14472  10.437   5.711  -0.024 -2.0702 -1.3781 -2.9672
  105MOL0     H14473  10.194   5.758  -0.009  2.5776 -4.3339  1.0148
  105MOL0     H14474   8.431   6.848   0.549 -1.6627  0.8834 -2.6749
  105MOL0     H14475   8.182   6.854   0.550 -0.0130  0.0377 -4.3306
  105MOL0     H14476   7.755   6.646   0.887 -3.7755  0.6203  3.0563
  105MOL0     H14477   7.528   6.659   0.875  0.4163  1.1252 -0.7348
  105MOL0     H14478   7.301   6.456   0.644 -0.1251  0.2639 -0.9798
  105MOL0     H14479   7.314   6.532   0.804 -2.8112  1.0759  0.7340
  105MOL0     H14480   7.120   6.617   0.585  1.7223  4.6661 -0.2240
  105MOL0     H14481   7.131   6.685   0.749  1.3727 -2.2101  2.2610
  105MOL0     H14482   7.023   6.405   0.680 -3.1515 -0.5938  2.4183
  105MOL0     H14483   7.105   6.424   0.836 -2.0220  1.0552  3.2805
  105MOL0     H14484   6.890   6.599   0.729 -3.6458 -2.0365  0.3571
  105MOL0     H14485   6.937   6.576   0.905 -1.7532  2.7965 -0.5035
  105MOL0     H14486   6.670   6.259   0.790 -1.2057  0.8978 -0.5060
  105MOL0     H14487   7.541   6.606   0.447 -0.2826  2.7527  0.4710
  105MOL0     H14488   7.859   6.676   0.375  1.2450 -1.9698 -0.9062
  105MOL0     H14489   7.852   6.499   0.399 -1.0048 -0.8961  0.1765
  105MOL0     H14490   7.717   6.578   0.329  0.0033 -2.4167 -0.0990
  106MOL0     O14491  10.034   9.159   9.653 -0.2466 -0.0682  0.0456
  106MOL0     C14492  10.064   9.215   9.755 -0.4637 -0.0310  0.1944
  106MOL0     O14493  10.147   9.333   9.760  0.9132  0.3189 -0.6414
  106MOL0     C14494  10.138   9.406   9.648  0.1354  0.2241 -0.6255
  106MOL0     C14495  10.035   9.497   9.629  0.5056 -0.3555  0.6494
  106MOL0     C14496  10.017   9.566   9.502 -0.0456 -0.1490  0.1732
  106MOL0     C14497  10.114   9.553   9.403 -0.4181  0.8938 -0.0603
  106MOL0     O14498  10.096   9.624   9.284 -0.5871 -0.1276 -0.1037
  106MOL0     C14499  10.171   9.747   9.269 -0.6665  0.2957  0.3382
  106MOL0     C14500  10.161   9.797   9.128 -0.0383  0.2456 -0.4373
  106MOL0     C14501  10.187   9.946   9.112  0.0313 -1.0002 -0.2584
  106MOL0     C14502  10.100  10.039   9.207  0.3727 -0.4450  0.0759
  106MOL0     C14503  10.174  10.175   9.216  0.9756 -0.3184  1.1575
  106MOL0     C14504  10.092  10.268   9.307 -0.7086 -0.8338  0.1133
  106MOL0     C14505  10.150  10.409   9.344 -0.6363  0.9269  0.5683
  106MOL0     C14506  10.294  10.415   9.390 -0.5529  0.6939  0.1901
  106MOL0     N14507  10.398  10.377   9.291 -0.1239 -0.0149  0.8406
  106MOL0     C14508  10.412  10.430   9.164  0.7786  0.2700  0.4900
  106MOL0     C14509  10.515  10.353   9.110  0.0369  0.0041  0.1919
  106MOL0     C14510  10.540  10.352   8.960  0.4954 -0.2223 -1.0810
  106MOL0     C14511  10.689  10.331   8.928  0.5607  0.5788 -0.9902
  106MOL0     C14512  10.781  10.438   8.960 -0.3436  0.5966  0.6589
  106MOL0     C14513  10.931  10.396   8.944  0.3214 -0.0311  0.3803
  106MOL0     O14514  10.964  10.337   8.817 -0.0232  0.5711 -0.3434
  106MOL0     C14515  11.095  10.304   8.797  0.0532  0.6485 -0.3016
  106MOL0     C14516  11.205  10.350   8.873 -0.3177 -0.1851 -0.7969
  106MOL0     C14517  11.337  10.300   8.849  0.5600  0.0275  0.4417
  106MOL0     C14518  11.451  10.373   8.926  0.6153 -0.8841 -0.6963
  106MOL0     C14519  11.354  10.198   8.753  0.6475 -0.4814  0.9463
  106MOL0     C14520  11.485  10.119   8.732 -0.1790 -0.0855 -0.5458
  106MOL0     O14521  11.591  10.127   8.821  0.2114  0.2778 -0.9574
  106MOL0     C14522  11.709  10.071   8.781 -1.3706  0.2684 -0.1471
  106MOL0     C14523  11.799  10.137   8.696  0.1426 -0.8403  0.0611
  106MOL0     C14524  11.921  10.078   8.671  0.4756 -0.1401  0.5520
  106MOL0     C14525  11.957   9.954   8.726 -0.3155  0.6317  0.8288
  106MOL0     O14526  12.071   9.883   8.700  0.2852 -0.3811  0.0978
  106MOL0     C14527  12.183   9.950   8.647 -0.7245 -0.3426  0.4154
  106MOL0     C14528  12.294   9.850   8.617  0.0043 -0.1040 -0.3468
  106MOL0     C14529  12.351   9.747   8.719  1.2853 -0.3457 -0.6502
  106MOL0     C14530  12.455   9.658   8.660  0.7069 -0.0856 -0.7659
  106MOL0     C14531  12.590   9.709   8.701 -0.4171 -0.4426 -1.4844
  106MOL0     C14532  12.709   9.631   8.626  0.4990  0.4002  0.0748
  106MOL0     C14533  12.841   9.679   8.684 -0.6695 -0.0776 -0.4757
  106MOL0     C14534  12.953   9.650   8.585 -0.8146 -0.1863  0.0745
  106MOL0    Cl14535  13.114   9.722   8.630  0.4403  0.4805  0.3319
  106MOL0     C14536  11.870   9.894   8.808 -0.3088 -0.5212 -0.0932
  106MOL0     C14537  11.747   9.948   8.841  0.3326 -0.5870 -0.3188
  106MOL0     O14538  11.493  10.050   8.633  0.6661 -0.4192  0.1272
  106MOL0     C14539  11.246  10.162   8.677  0.3856  0.4791  0.0167
  106MOL0     C14540  11.114  10.216   8.695 -0.1538  0.6096 -0.3168
  106MOL0     N14541  10.567  10.274   9.204 -0.0067  0.1885 -0.0053
  106MOL0     N14542  10.499  10.294   9.314 -0.3867  0.2480  0.0868
  106MOL0     C14543  10.218   9.460   9.429 -0.3578 -0.7414  0.1669
  106MOL0     C14544  10.234   9.396   9.548 -0.8998 -0.1242  0.7706
  106MOL0     C14545  10.030   9.153   9.880  0.4299  0.8384  0.6681
  106MOL0     C14546  10.130   9.111   9.966  0.6703  0.4547 -0.6875
  106MOL0     C14547  10.095   9.068  10.090 -0.6473  0.4597 -0.1818
  106MOL0     C14548   9.962   9.046  10.133  0.0562  0.3420  0.2007
  106MOL0     O14549   9.941   8.980  10.254 -0.0005 -0.0042  0.7191
  106MOL0     C14550   9.859   8.864  10.247 -0.5005 -0.5493 -0.4637
  106MOL0     C14551   9.943   8.739  10.200 -0.2744 -0.6458 -0.2013
  106MOL0     C14552  10.001   8.661  10.321 -0.3694  0.4662 -1.0140
  106MOL0     C14553  10.134   8.587  10.282  0.4390 -0.0888 -0.1926
  106MOL0     C14554  10.239   8.677  10.309 -0.9171 -0.0086 -0.3692
  106MOL0     C14555  10.325   8.757  10.338  0.2499  0.1966  0.0004
  106MOL0     C14556   9.866   9.067  10.035 -0.2422 -0.4339 -0.1485
  106MOL0     C14557   9.896   9.137   9.914  0.1796 -0.1278 -0.3187
  106MOL0     C14558   9.776   9.183   9.829  0.1433 -0.3428  0.7616
  106MOL0     H14559   9.961   9.501   9.708  0.6177  0.0737  0.7370
  106MOL0     H14560   9.929   9.624   9.480  0.2181  0.5900  1.0039
  106MOL0     H14561  10.278   9.744   9.293 -0.3554  2.2985 -0.5547
  106MOL0     H14562  10.118   9.815   9.336 -1.9511 -1.0646  0.7473
  106MOL0     H14563  10.234   9.753   9.060  1.5512 -0.0935  1.3783
  106MOL0     H14564  10.058   9.777   9.096 -0.2046  1.6074 -0.8399
  106MOL0     H14565  10.289   9.966   9.147 -1.8991  2.7690  4.2858
  106MOL0     H14566  10.189   9.980   9.008  0.6812  0.4941  0.2047
  106MOL0     H14567   9.999  10.054   9.167  0.7396 -0.4384 -0.8775
  106MOL0     H14568  10.097  10.018   9.314  1.7711 -0.8476  0.0602
  106MOL0     H14569  10.184  10.217   9.115  0.1143 -1.0521  0.7427
  106MOL0     H14570  10.272  10.156   9.260  1.2105 -0.7404  0.4703
  106MOL0     H14571   9.996  10.275   9.255  1.2746  0.7281 -3.7946
  106MOL0     H14572  10.090  10.218   9.404  0.8783  1.4519  1.4135
  106MOL0     H14573  10.088  10.446   9.427 -0.8516 -1.1164  1.3797
  106MOL0     H14574  10.131  10.472   9.257  1.8162 -0.9809 -1.4970
  106MOL0     H14575  10.310  10.512   9.440 -0.9105 -0.4109  2.5978
  106MOL0     H14576  10.306  10.349   9.476 -1.2572  0.2602 -0.0356
  106MOL0     H14577  10.346  10.496   9.109 -1.4109 -1.1314  1.3035
  106MOL0     H14578  10.510  10.447   8.916  1.1112  0.2197 -0.5673
  106MOL0     H14579  10.477  10.269   8.928 -0.4149  0.7209 -1.7879
  106MOL0     H14580  10.706  10.246   8.994 -3.0766  2.6442  3.1673
  106MOL0     H14581  10.696  10.311   8.820  0.0639  1.7758 -1.2685
  106MOL0     H14582  10.762  10.521   8.891  2.0527 -1.9284 -3.4268
  106MOL0     H14583  10.774  10.473   9.064 -2.4489 -0.1214  0.8053
  106MOL0     H14584  10.995  10.484   8.949 -0.7658  0.9039 -1.2792
  106MOL0     H14585  10.960  10.343   9.035  2.5527 -1.1328 -0.8893
  106MOL0     H14586  11.196  10.426   8.950 -0.1179 -1.3268  0.3885
  106MOL0     H14587  11.549  10.374   8.879 -0.0280 -0.1896 -2.0638
  106MOL0     H14588  11.451  10.331   9.027 -0.0599  1.3177  0.2832
  106MOL0     H14589  11.422  10.479   8.928  0.2693 -0.9449  1.8864
  106MOL0     H14590  11.768  10.231   8.652 -1.4066 -1.1347  0.4775
  106MOL0     H14591  11.986  10.130   8.601  1.4816 -0.9300  0.8716
  106MOL0     H14592  12.168  10.005   8.554  3.5089 -3.1214 -2.2985
  106MOL0     H14593  12.216  10.018   8.725 -1.1183  3.7955 -2.6756
  106MOL0     H14594  12.276   9.784   8.531 -0.8336  1.3339 -1.3271
  106MOL0     H14595  12.378   9.908   8.577 -0.6993  1.0538 -0.1851
  106MOL0     H14596  12.269   9.678   8.742  1.9004 -0.8601  0.0344
  106MOL0     H14597  12.383   9.786   8.816 -2.8694 -1.0194  1.2265
  106MOL0     H14598  12.454   9.660   8.551 -0.5892  0.5094 -0.7687
  106MOL0     H14599  12.440   9.556   8.694 -1.5267 -0.3183 -2.2500
  106MOL0     H14600  12.609   9.814   8.676 -1.8768  1.1096  3.0586
  106MOL0     H14601  12.604   9.689   8.807  0.2512 -1.6770 -1.7891
  106MOL0     H14602  12.693   9.644   8.519  0.6556 -0.4930 -0.0648
  106MOL0     H14603  12.698   9.526   8.656 -2.9417  0.5282 -0.3448
  106MOL0     H14604  12.867   9.632   8.779 -1.4810  1.8990  0.7755
  106MOL0     H14605  12.822   9.785   8.701  0.5869  0.2906 -1.1913
  106MOL0     H14606  12.923   9.693   8.489  2.4617 -1.6977 -1.8113
  106MOL0     H14607  12.973   9.543   8.570  0.5375 -0.0859  0.9701
  106MOL0     H14608  11.892   9.803   8.862 -1.0133  0.3578  1.7385
  106MOL0     H14609  11.689   9.906   8.923 -2.0203 -0.6905 -1.9303
  106MOL0     H14610  11.246  10.086   8.600 -2.8073  3.1035 -2.9498
  106MOL0     H14611  11.047  10.170   8.623 -0.9576 -2.2100  2.0240
  106MOL0     H14612  10.295   9.447   9.354 -0.7197  0.4530 -0.4364
  106MOL0     H14613  10.319   9.330   9.559  0.6770  1.4355 -1.1870
  106MOL0     H14614  10.236   9.119   9.944  0.8736 -1.9054 -0.8509
  106MOL0     H14615  10.175   9.055  10.162 -0.5407  0.8875 -0.2222
  106MOL0     H14616   9.825   8.849  10.350  3.4619  1.8302  1.4456
  106MOL0     H14617   9.773   8.882  10.182 -2.8431 -0.8721  2.3451
  106MOL0     H14618  10.026   8.776  10.139  0.2021 -2.7357 -0.9087
  106MOL0     H14619   9.880   8.674  10.139 -2.1482  0.5686  0.3530
  106MOL0     H14620  10.018   8.721  10.410 -0.6995 -2.0508  0.8671
  106MOL0     H14621   9.923   8.589  10.349  0.2871  0.3480  0.6189
  106MOL0     H14622  10.125   8.543  10.182 -2.5599 -1.3190  0.5130
  106MOL0     H14623  10.151   8.505  10.352 -3.1149 -0.5316  0.3119
  106MOL0     H14624  10.383   8.835  10.382  0.9770  0.2253 -0.9759
  106MOL0     H14625   9.759   9.051  10.049 -0.9122  2.8337 -0.6804
  106MOL0     H14626   9.802   9.263   9.759  3.9862 -2.7887 -0.9367
  106MOL0     H14627   9.735   9.098   9.773  0.8966  0.5012 -1.1550
  106MOL0     H14628   9.694   9.222   9.890 -0.9360  2.7576 -2.3364
  107MOL0     O14629   4.976   2.304   5.063  0.5311 -0.6705  0.3978
  107MOL0     C14630   4.916   2.356   5.155  0.5121 -1.1537 -0.1356
  107MOL0     O14631   4.975   2.439   5.249  0.2951  0.9338  0.3523
  107MOL0     C14632   5.110   2.446   5.244 -0.3643  1.3506  0.3247
  107MOL0     C14633   5.163   2.573   5.210  0.6006 -0.4334  0.6001
  107MOL0     C14634   5.297   2.599   5.204 -0.6830  0.9643  0.9774
  107MOL0     C14635   5.385   2.492   5.235 -0.5515  0.2556 -0.8538
  107MOL0     O14636   5.521   2.512   5.226  0.4630  0.2728 -0.1355
  107MOL0     C14637   5.616   2.410   5.196  0.6457  0.7754 -0.2780
  107MOL0     C14638   5.760   2.446   5.246  0.2412  0.3773  0.7544
  107MOL0     C14639   5.871   2.351   5.189  0.0105  0.7222  0.9638
  107MOL0     C14640   6.010   2.400   5.233 -0.1379  0.6932 -1.2450
  107MOL0     C14641   6.120   2.342   5.148 -0.6168  0.8115  1.1598
  107MOL0     C14642   6.256   2.400   5.182 -0.3463 -0.0704 -0.4120
  107MOL0     C14643   6.373   2.320   5.121  0.2342  1.6158  0.8545
  107MOL0     C14644   6.502   2.340   5.203 -0.1586 -0.1868  0.0409
  107MOL0     N14645   6.613   2.293   5.123 -0.1378 -0.4071 -0.2448
  107MOL0     C14646   6.653   2.161   5.118 -0.6539 -0.5377  0.9131
  107MOL0     C14647   6.751   2.160   5.022  0.4116  0.0978 -0.1971
  107MOL0     C14648   6.807   2.033   4.972 -0.0209  1.1072  0.5516
  107MOL0     C14649   6.936   2.051   4.897 -0.9660 -0.1007  0.1337
  107MOL0     C14650   7.048   2.092   5.001 -1.0559  0.0046  0.4143
  107MOL0     C14651   7.156   2.183   4.946  0.0126 -0.6035 -0.3508
  107MOL0     O14652   7.220   2.138   4.831 -0.3114 -1.1228  0.5849
  107MOL0     C14653   7.344   2.188   4.812 -0.4758  0.4798  0.5742
  107MOL0     C14654   7.437   2.104   4.754 -0.3021 -0.2519  0.1914
  107MOL0     C14655   7.574   2.135   4.732 -1.1780 -0.0933 -0.5131
  107MOL0     C14656   7.662   2.033   4.691 -0.2559 -0.4296  0.2206
  107MOL0     C14657   7.608   2.274   4.747  0.0610 -0.3279 -0.0351
  107MOL0     C14658   7.725   2.343   4.706  0.3282 -0.6380 -0.0602
  107MOL0     O14659   7.769   2.438   4.793  0.6233  0.5922 -0.4335
  107MOL0     C14660   7.900   2.487   4.785  0.7273 -0.7944 -0.2017
  107MOL0     C14661   7.971   2.498   4.900  0.0237  0.2977 -0.0434
  107MOL0     C14662   8.099   2.547   4.904  0.1521  0.9303  0.1384
  107MOL0     C14663   8.163   2.584   4.786 -0.6449  0.1463  0.4509
  107MOL0     O14664   8.286   2.640   4.797  0.0635  0.1026 -0.3678
  107MOL0     C14665   8.359   2.673   4.680  0.2209 -0.2885 -0.1480
  107MOL0     C14666   8.325   2.808   4.604  0.1167 -0.8853 -0.5563
  107MOL0     C14667   8.331   2.935   4.693  0.1779  0.6242  0.5550
  107MOL0     C14668   8.475   2.965   4.743  0.7428 -0.1669  0.3089
  107MOL0     C14669   8.471   3.093   4.820 -0.1488  0.3054 -0.5059
  107MOL0     C14670   8.438   3.070   4.976  0.4168  0.5792  0.6009
  107MOL0     C14671   8.485   3.186   5.068  0.0478  0.4943  1.1880
  107MOL0     C14672   8.459   3.150   5.207 -0.2396 -0.2682 -0.1210
  107MOL0    Cl14673   8.284   3.150   5.236 -0.0020 -0.1228 -0.2324
  107MOL0     C14674   8.086   2.580   4.670  0.1846 -0.1275 -0.0649
  107MOL0     C14675   7.955   2.534   4.669  0.6852 -0.1683 -0.3966
  107MOL0     O14676   7.784   2.315   4.599  0.8407 -0.2877  0.2105
  107MOL0     C14677   7.509   2.362   4.804  0.8513  0.5962 -0.0286
  107MOL0     C14678   7.381   2.314   4.839 -0.1790 -0.0291 -0.0901
  107MOL0     N14679   6.759   2.286   4.967 -0.4394  0.0245 -1.0769
  107MOL0     N14680   6.673   2.365   5.027 -0.1080 -0.2835  0.2102
  107MOL0     C14681   5.328   2.371   5.273 -0.1021 -0.1069 -0.5305
  107MOL0     C14682   5.193   2.344   5.271 -0.1474  0.1208  0.4904
  107MOL0     C14683   4.771   2.330   5.165  0.7353 -0.0694 -0.2053
  107MOL0     C14684   4.711   2.268   5.049  0.2792  0.6153  0.7705
  107MOL0     C14685   4.574   2.238   5.037 -0.1178 -0.2994 -0.3213
  107MOL0     C14686   4.487   2.259   5.143 -0.3257 -0.3092 -0.3125
  107MOL0     O14687   4.359   2.207   5.149  0.3952 -0.3729  0.7505
  107MOL0     C14688   4.327   2.113   5.049  0.0954 -0.1105 -0.0463
  107MOL0     C14689   4.196   2.042   5.100  1.1010 -0.3991 -0.8179
  107MOL0     C14690   4.067   2.126   5.106  0.0862 -0.8719 -0.1532
  107MOL0     C14691   4.031   2.187   4.972  0.0584 -0.3788  1.4842
  107MOL0     C14692   4.006   2.084   4.870  0.1035 -0.1347  0.2211
  107MOL0     C14693   3.992   1.999   4.789  0.0233  0.6602 -0.8506
  107MOL0     C14694   4.539   2.334   5.244  0.1875  0.0066 -0.4391
  107MOL0     C14695   4.679   2.369   5.269  0.9429  0.2956  0.1645
  107MOL0     C14696   4.714   2.438   5.402 -1.8189  0.0178  0.2296
  107MOL0     H14697   5.103   2.661   5.192 -0.1928 -1.5499 -3.4109
  107MOL0     H14698   5.345   2.691   5.174 -0.6887  0.6803  0.0845
  107MOL0     H14699   5.605   2.405   5.087  0.8496  0.5029 -0.2861
  107MOL0     H14700   5.592   2.319   5.251 -5.8469  0.8977 -2.0668
  107MOL0     H14701   5.781   2.551   5.225  0.3491  0.6594  2.1369
  107MOL0     H14702   5.758   2.432   5.355 -2.0212 -4.0907  0.3493
  107MOL0     H14703   5.861   2.245   5.215  2.3511  0.6458  1.7286
  107MOL0     H14704   5.874   2.360   5.080 -0.6195 -2.3327  0.6051
  107MOL0     H14705   6.006   2.509   5.226 -2.1065  0.9248  1.8756
  107MOL0     H14706   6.021   2.380   5.340  0.6725 -1.2785 -1.6466
  107MOL0     H14707   6.092   2.370   5.046 -0.2339 -1.8420  0.2515
  107MOL0     H14708   6.118   2.234   5.165 -0.3022  0.6156 -0.0116
  107MOL0     H14709   6.263   2.504   5.151 -0.4382  0.7482  2.0719
  107MOL0     H14710   6.270   2.395   5.291 -1.9228 -0.6107 -0.1998
  107MOL0     H14711   6.390   2.332   5.013 -0.4839 -1.6114  0.2664
  107MOL0     H14712   6.355   2.214   5.141  1.2323  1.3002  0.1779
  107MOL0     H14713   6.519   2.447   5.215 -0.8245  0.0292 -0.8070
  107MOL0     H14714   6.485   2.291   5.299  3.3775 -0.4900  0.6579
  107MOL0     H14715   6.606   2.075   5.164 -3.4333  1.7711  2.8331
  107MOL0     H14716   6.735   1.982   4.907  3.2180 -0.9841 -1.6932
  107MOL0     H14717   6.826   1.966   5.056  1.7566  1.5812  0.5577
  107MOL0     H14718   6.967   1.971   4.828 -1.1718 -0.0488 -0.0174
  107MOL0     H14719   6.925   2.135   4.829  2.2730 -0.4744 -1.0272
  107MOL0     H14720   7.003   2.150   5.082 -3.4056 -1.1548  0.0253
  107MOL0     H14721   7.094   2.008   5.054  1.8916  1.3196  0.1092
  107MOL0     H14722   7.102   2.278   4.935  1.5578  0.4123  0.4939
  107MOL0     H14723   7.235   2.194   5.021 -1.7741 -3.0030  2.0787
  107MOL0     H14724   7.392   2.010   4.721 -2.2550  0.6761  0.0745
  107MOL0     H14725   7.754   2.024   4.748  1.3834  0.6383 -2.0818
  107MOL0     H14726   7.690   2.047   4.586 -1.0632 -0.0103  0.0514
  107MOL0     H14727   7.609   1.938   4.691  2.2972 -1.9419  0.0148
  107MOL0     H14728   7.922   2.454   4.986 -1.5231  0.5845 -0.7591
  107MOL0     H14729   8.144   2.538   5.003 -0.6382 -0.0769  0.4255
  107MOL0     H14730   8.466   2.672   4.701  0.3710  0.4097 -0.8618
  107MOL0     H14731   8.348   2.591   4.608 -0.2783 -1.3139  1.0483
  107MOL0     H14732   8.401   2.833   4.529  0.0120  2.3608  0.2628
  107MOL0     H14733   8.225   2.800   4.561 -1.1521 -2.8570  2.4088
  107MOL0     H14734   8.253   2.934   4.769 -0.9159  2.4120 -0.4686
  107MOL0     H14735   8.304   3.019   4.629 -2.0520 -1.5125 -1.5460
  107MOL0     H14736   8.545   2.972   4.659  0.3740  2.1125  0.1231
  107MOL0     H14737   8.502   2.879   4.805  2.3918 -1.1826 -1.7041
  107MOL0     H14738   8.575   3.127   4.815  0.6921 -1.8216  0.7991
  107MOL0     H14739   8.410   3.176   4.783  0.5050  1.9710  1.9472
  107MOL0     H14740   8.496   2.984   5.009  0.3793  0.1813 -0.3510
  107MOL0     H14741   8.334   3.047   5.000  0.5612  1.6546  2.4603
  107MOL0     H14742   8.431   3.275   5.034 -2.0876 -1.2970 -0.4122
  107MOL0     H14743   8.593   3.204   5.070 -0.0328  1.2022  4.4146
  107MOL0     H14744   8.489   3.226   5.280 -0.7025 -0.8763  0.7218
  107MOL0     H14745   8.514   3.058   5.226  2.3188  0.8251 -1.6293
  107MOL0     H14746   8.135   2.595   4.574 -1.1320  1.0002 -0.5971
  107MOL0     H14747   7.898   2.523   4.578 -0.2133 -1.7624  0.3332
  107MOL0     H14748   7.522   2.468   4.823  0.5895  0.8134 -1.0380
  107MOL0     H14749   7.316   2.382   4.893 -0.2324 -0.7853  0.8399
  107MOL0     H14750   5.403   2.295   5.294  2.9579  2.9817  0.8858
  107MOL0     H14751   5.164   2.244   5.301  2.4194  0.3645  4.6569
  107MOL0     H14752   4.777   2.246   4.966  2.5518  1.2326  2.3106
  107MOL0     H14753   4.548   2.194   4.942  4.1650  1.5548 -2.6508
  107MOL0     H14754   4.307   2.153   4.949 -0.0390 -1.2132 -0.4813
  107MOL0     H14755   4.413   2.045   5.049  0.0873 -0.1494 -1.4901
  107MOL0     H14756   4.214   2.009   5.203 -1.0022  1.1970  0.1221
  107MOL0     H14757   4.175   1.949   5.046  0.9689 -1.0798  0.3717
  107MOL0     H14758   3.986   2.065   5.146 -2.6057  3.6977  2.3551
  107MOL0     H14759   4.084   2.214   5.169 -2.5040  1.5016 -2.4322
  107MOL0     H14760   4.099   2.266   4.940 -1.1771  1.1035  2.4027
  107MOL0     H14761   3.934   2.236   4.987 -1.2190 -2.2793 -0.0421
  107MOL0     H14762   4.008   1.936   4.704  1.4537 -0.4991  0.2422
  107MOL0     H14763   4.462   2.357   5.316 -0.2490  0.0959 -0.9249
  107MOL0     H14764   4.637   2.468   5.473  0.6851  0.2671  3.0464
  107MOL0     H14765   4.779   2.373   5.462  1.0482  1.5114 -1.0288
  107MOL0     H14766   4.776   2.524   5.372  2.1257 -2.7800 -0.3988
  108MOL0     O14767   5.244   9.271   5.935  0.5337  1.0497 -0.6151
  108MOL0     C14768   5.199   9.376   5.905  0.0776 -0.7645 -0.4986
  108MOL0     O14769   5.276   9.487   5.869  0.2684 -0.3796 -0.4832
  108MOL0     C14770   5.398   9.476   5.826 -0.7978  1.2202  0.1012
  108MOL0     C14771   5.505   9.510   5.907 -0.7470 -0.1735  0.4794
  108MOL0     C14772   5.638   9.491   5.863 -0.2012  0.8729  0.0935
  108MOL0     C14773   5.670   9.436   5.743 -0.2816  0.1627 -0.9107
  108MOL0     O14774   5.794   9.443   5.679 -0.5237 -0.0439  0.3766
  108MOL0     C14775   5.905   9.514   5.736 -0.1201 -0.6628 -0.1255
  108MOL0     C14776   6.033   9.426   5.749  0.4032 -1.2843  0.4637
  108MOL0     C14777   6.161   9.509   5.774 -0.1814 -0.2426  0.1614
  108MOL0     C14778   6.271   9.410   5.810 -0.6333 -0.4405  0.2665
  108MOL0     C14779   6.404   9.491   5.818 -0.2410 -0.1866  0.1578
  108MOL0     C14780   6.521   9.390   5.851  0.6100 -0.3699 -0.2790
  108MOL0     C14781   6.651   9.466   5.866 -0.4775  0.3151  0.3997
  108MOL0     C14782   6.726   9.492   5.735 -0.8053 -0.1092 -0.2595
  108MOL0     N14783   6.838   9.577   5.749  0.5195 -0.0315  0.4146
  108MOL0     C14784   6.910   9.602   5.860  0.1009 -0.4578  1.1404
  108MOL0     C14785   7.042   9.641   5.818  1.3446 -0.6004  0.6589
  108MOL0     C14786   7.159   9.691   5.903  0.0545 -0.0452 -0.0691
  108MOL0     C14787   7.222   9.571   5.967 -0.6544 -0.8015  0.6330
  108MOL0     C14788   7.273   9.472   5.854 -0.9088  0.1777  0.1302
  108MOL0     C14789   7.412   9.415   5.891  0.4248 -0.0761  0.0712
  108MOL0     O14790   7.513   9.519   5.915 -0.1609 -0.2489 -0.1367
  108MOL0     C14791   7.639   9.478   5.959 -0.3027 -0.6319 -0.2454
  108MOL0     C14792   7.697   9.571   6.047  0.8271  0.0356 -0.4185
  108MOL0     C14793   7.815   9.555   6.115  0.0100  0.4321 -0.3380
  108MOL0     C14794   7.854   9.654   6.216 -0.6729 -0.1807 -0.2097
  108MOL0     C14795   7.885   9.434   6.087  0.4589 -0.6854  0.7075
  108MOL0     C14796   8.003   9.387   6.157 -0.2738 -0.4801  0.2221
  108MOL0     O14797   8.023   9.251   6.167 -0.4270  0.0487 -0.3665
  108MOL0     C14798   8.153   9.210   6.192  0.1535  0.0466 -0.7607
  108MOL0     C14799   8.172   9.117   6.300 -0.1672  0.3496  0.2488
  108MOL0     C14800   8.300   9.055   6.314 -0.7688 -0.7529  0.2509
  108MOL0     C14801   8.408   9.093   6.234  0.2033 -0.1072 -0.0576
  108MOL0     O14802   8.535   9.046   6.248  0.3785 -0.3809  0.3489
  108MOL0     C14803   8.567   8.942   6.334 -0.1479  0.3699  0.0466
  108MOL0     C14804   8.709   8.901   6.306 -1.0400  0.6460 -0.6490
  108MOL0     C14805   8.817   9.004   6.332 -0.2163 -0.8222  0.0866
  108MOL0     C14806   8.965   8.952   6.362  0.0485 -0.0416  0.4623
  108MOL0     C14807   9.074   9.059   6.373 -0.1834 -0.1037  0.1407
  108MOL0     C14808   9.101   9.126   6.240 -0.6997 -0.6655 -0.2854
  108MOL0     C14809   9.243   9.200   6.242 -0.0813 -0.1367 -0.3400
  108MOL0     C14810   9.292   9.270   6.117 -0.1839  0.4529 -0.0530
  108MOL0    Cl14811   9.300   9.146   5.987 -0.4136 -0.6656 -0.7282
  108MOL0     C14812   8.382   9.191   6.129 -0.6926  0.1517  0.4859
  108MOL0     C14813   8.258   9.253   6.114 -0.1748 -0.1703 -0.3166
  108MOL0     O14814   8.083   9.469   6.204 -0.2506 -0.4292  0.3580
  108MOL0     C14815   7.832   9.339   5.992  0.7591 -0.2849  0.0157
  108MOL0     C14816   7.705   9.359   5.935  0.6827 -1.1272  0.6477
  108MOL0     N14817   7.028   9.637   5.677  0.1086 -0.1765 -0.2715
  108MOL0     N14818   6.913   9.611   5.641  0.3879  0.9032  0.9289
  108MOL0     C14819   5.563   9.391   5.669 -0.2333  0.5377  0.3078
  108MOL0     C14820   5.428   9.409   5.706  0.0130  0.5608  0.3892
  108MOL0     C14821   5.048   9.401   5.914  1.0476 -0.0587 -0.4644
  108MOL0     C14822   5.015   9.528   5.920  0.5100 -0.9970  0.2204
  108MOL0     C14823   4.882   9.574   5.908  0.0870 -0.5519  0.0204
  108MOL0     C14824   4.775   9.486   5.925 -0.0100  0.5841 -0.5960
  108MOL0     O14825   4.642   9.516   5.950  0.7363  1.0505  0.5643
  108MOL0     C14826   4.612   9.655   5.938 -0.1048 -0.5317  0.2887
  108MOL0     C14827   4.465   9.679   5.963 -0.7397  0.3633  0.3747
  108MOL0     C14828   4.446   9.828   5.986 -0.4540  0.7166  0.2861
  108MOL0     C14829   4.300   9.872   5.970 -0.1582  0.8725 -0.0106
  108MOL0     C14830   4.246   9.838   5.843  0.1439 -0.3526  0.5360
  108MOL0     C14831   4.194   9.802   5.743  0.3450 -0.8941 -0.1736
  108MOL0     C14832   4.809   9.347   5.946 -0.2239 -0.4357  0.7400
  108MOL0     C14833   4.947   9.307   5.936 -0.4194 -0.5143  0.1910
  108MOL0     C14834   4.984   9.166   5.930  0.0548  1.0431  0.4190
  108MOL0     H14835   5.483   9.549   6.006 -2.9026  1.7555 -0.6755
  108MOL0     H14836   5.721   9.500   5.932 -1.2125 -1.3985  1.7595
  108MOL0     H14837   5.886   9.548   5.838 -1.0905 -3.5018  0.7570
  108MOL0     H14838   5.929   9.600   5.674  2.9314  1.2882  3.3669
  108MOL0     H14839   6.003   9.350   5.822 -0.6270 -2.1759 -0.8287
  108MOL0     H14840   6.045   9.382   5.649  3.3118 -1.5343  0.8567
  108MOL0     H14841   6.190   9.578   5.694  1.4241 -0.3621  0.5984
  108MOL0     H14842   6.148   9.579   5.857 -1.7408 -1.1785  0.7516
  108MOL0     H14843   6.260   9.348   5.899 -0.2274 -1.0978 -0.1333
  108MOL0     H14844   6.265   9.334   5.731 -2.2234  0.8178 -0.8929
  108MOL0     H14845   6.397   9.565   5.898  1.8383  0.9173 -0.6085
  108MOL0     H14846   6.418   9.540   5.722  1.1194  0.2284  0.5382
  108MOL0     H14847   6.503   9.345   5.948 -1.7765  0.4426 -0.2816
  108MOL0     H14848   6.524   9.308   5.779 -2.8096  0.1016 -1.1174
  108MOL0     H14849   6.709   9.399   5.930 -1.0598 -1.8637 -1.2295
  108MOL0     H14850   6.633   9.566   5.906 -0.2473  0.0080  1.2851
  108MOL0     H14851   6.761   9.395   5.698 -1.5016 -0.0641 -1.0774
  108MOL0     H14852   6.657   9.532   5.660 -0.6135 -0.8427 -0.8407
  108MOL0     H14853   6.869   9.593   5.960 -1.5367 -1.9303  0.3908
  108MOL0     H14854   7.120   9.760   5.978  1.4185  1.1480 -0.4132
  108MOL0     H14855   7.229   9.740   5.836  2.2452  0.4994  2.4592
  108MOL0     H14856   7.301   9.615   6.029 -0.1989  0.0749 -0.5262
  108MOL0     H14857   7.159   9.518   6.039  3.8208 -0.6684  5.2768
  108MOL0     H14858   7.203   9.391   5.833 -0.1033 -0.8391  1.2161
  108MOL0     H14859   7.283   9.530   5.762  1.5983  0.1348  0.2957
  108MOL0     H14860   7.388   9.362   5.983 -1.9253 -1.9376 -1.4786
  108MOL0     H14861   7.439   9.340   5.816 -1.1164  1.6736 -2.4455
  108MOL0     H14862   7.634   9.655   6.074 -0.0699 -0.1791 -1.7493
  108MOL0     H14863   7.958   9.686   6.197  0.0758 -1.7527  1.0356
  108MOL0     H14864   7.858   9.610   6.316  0.5953  0.4720  0.0500
  108MOL0     H14865   7.790   9.743   6.216 -0.7529 -0.2253  0.9834
  108MOL0     H14866   8.087   9.067   6.345  1.4789 -0.5289  2.5736
  108MOL0     H14867   8.316   8.979   6.389  3.4087 -0.3818 -0.0438
  108MOL0     H14868   8.570   8.987   6.434  0.2531 -0.0722  0.2389
  108MOL0     H14869   8.507   8.851   6.326 -1.5793  1.3445 -0.6773
  108MOL0     H14870   8.733   8.817   6.371 -3.9271 -0.5575 -1.0254
  108MOL0     H14871   8.720   8.864   6.203  2.0550  0.0358 -0.1996
  108MOL0     H14872   8.799   9.082   6.406  1.6628  3.0196 -3.1235
  108MOL0     H14873   8.825   9.056   6.236  0.2903 -0.2172  0.4453
  108MOL0     H14874   8.986   8.874   6.288  1.1492  0.5674  0.1031
  108MOL0     H14875   8.971   8.893   6.453  1.8052  0.1310  0.5049
  108MOL0     H14876   9.053   9.118   6.463  2.2802 -0.4931  1.0443
  108MOL0     H14877   9.160   9.004   6.412  0.1288  0.5818  0.4428
  108MOL0     H14878   9.020   9.198   6.224  0.1505  0.1363 -1.0785
  108MOL0     H14879   9.107   9.052   6.160  2.5241 -0.9504  0.0802
  108MOL0     H14880   9.322   9.127   6.265  0.6817  0.7083 -0.2311
  108MOL0     H14881   9.238   9.278   6.318 -0.0489  1.0388 -1.5256
  108MOL0     H14882   9.394   9.308   6.123 -0.0325  0.5440 -2.2101
  108MOL0     H14883   9.220   9.345   6.084 -1.6690 -0.7082  0.4137
  108MOL0     H14884   8.456   9.223   6.056 -1.2942  0.7836  0.1440
  108MOL0     H14885   8.248   9.337   6.046  0.9938  0.3315  0.0989
  108MOL0     H14886   7.884   9.244   5.982 -0.1422 -0.7126 -0.7440
  108MOL0     H14887   7.648   9.294   5.869 -0.0907  0.0674  0.1101
  108MOL0     H14888   5.585   9.361   5.567  1.2601 -0.6433  0.9294
  108MOL0     H14889   5.354   9.364   5.641  0.8117 -0.2253  0.0041
  108MOL0     H14890   5.081   9.614   5.925  0.0749 -0.7071  1.3918
  108MOL0     H14891   4.873   9.681   5.896 -1.2368 -0.6742 -0.2605
  108MOL0     H14892   4.675   9.722   5.997 -1.6087  0.8735  0.3536
  108MOL0     H14893   4.639   9.680   5.835  1.9057 -0.4510  0.7837
  108MOL0     H14894   4.439   9.622   6.052 -0.7138  0.3188  0.3535
  108MOL0     H14895   4.405   9.650   5.876 -0.9463  0.5183  0.4670
  108MOL0     H14896   4.492   9.862   6.079 -1.0740  2.1060  0.1089
  108MOL0     H14897   4.506   9.884   5.914  0.5163  1.2988  1.4929
  108MOL0     H14898   4.291   9.981   5.977 -0.9729  0.7185  1.9304
  108MOL0     H14899   4.240   9.820   6.045  1.4285  1.2826  1.6139
  108MOL0     H14900   4.163   9.769   5.645 -0.3217  1.1149 -0.6846
  108MOL0     H14901   4.737   9.269   5.968  2.5964 -2.6799  2.8513
  108MOL0     H14902   4.902   9.094   5.920 -0.0776  1.3680 -1.0713
  108MOL0     H14903   5.052   9.134   5.850  1.3241 -1.3659  2.3364
  108MOL0     H14904   5.017   9.152   6.033 -0.8226  3.5487  1.1171
  109MOL0     O14905   4.613   0.215   2.512 -0.1795  0.0592  0.5986
  109MOL0     C14906   4.560   0.322   2.508 -0.5938 -0.0604 -0.0198
  109MOL0     O14907   4.626   0.450   2.511 -0.7745  0.3664 -0.3821
  109MOL0     C14908   4.763   0.446   2.502 -0.0064 -0.3726 -0.5117
  109MOL0     C14909   4.842   0.487   2.611  1.1000 -0.6129  0.0639
  109MOL0     C14910   4.981   0.486   2.598 -0.3062 -0.2499  0.0717
  109MOL0     C14911   5.032   0.454   2.474 -0.1079 -0.1780 -0.5548
  109MOL0     O14912   5.168   0.452   2.467 -0.2684 -0.5511 -0.9807
  109MOL0     C14913   5.243   0.348   2.412 -0.4345 -0.0513  0.8552
  109MOL0     C14914   5.392   0.386   2.405 -0.4524  0.0049  0.2137
  109MOL0     C14915   5.464   0.251   2.371  0.3197  0.8617 -0.2785
  109MOL0     C14916   5.616   0.246   2.407 -0.5018  0.7498  0.5919
  109MOL0     C14917   5.683   0.130   2.341  0.2205  0.0534  0.2584
  109MOL0     C14918   5.822   0.117   2.389 -0.2028 -0.4796  0.5424
  109MOL0     C14919   5.887   0.002   2.324 -0.7832  0.1948 -0.5007
  109MOL0     C14920   5.894   0.012   2.170 -0.4520 -0.5169 -1.0596
  109MOL0     N14921   6.030   0.007   2.121  0.0354 -0.5260 -0.2093
  109MOL0     C14922   6.136   0.075   2.174  0.3546 -0.8921  0.0728
  109MOL0     C14923   6.244   0.013   2.118 -0.2396 -1.5852 -0.0747
  109MOL0     C14924   6.384   0.059   2.141  1.0056 -0.4044  0.0474
  109MOL0     C14925   6.476  -0.065   2.175  0.2239  0.3912  0.8322
  109MOL0     C14926   6.496  -0.078   2.327  0.2766 -0.3790 -0.0640
  109MOL0     C14927   6.602   0.026   2.370 -0.7502  0.6408 -0.2027
  109MOL0     O14928   6.596   0.051   2.510 -0.0013  0.0354 -0.6204
  109MOL0     C14929   6.712   0.103   2.568  0.3164  0.0255 -0.3632
  109MOL0     C14930   6.726   0.075   2.702  0.4505 -0.6909  0.4660
  109MOL0     C14931   6.820   0.140   2.785 -0.0069  0.4459 -0.0676
  109MOL0     C14932   6.826   0.102   2.930  0.0883 -0.0252 -0.0225
  109MOL0     C14933   6.907   0.237   2.725  0.4525  0.0113 -0.6586
  109MOL0     C14934   7.022   0.300   2.793 -0.5737  0.2149 -0.1430
  109MOL0     O14935   7.095   0.401   2.723  0.3754  0.0380 -0.3351
  109MOL0     C14936   7.197   0.462   2.789 -0.7677 -0.2428  0.1352
  109MOL0     C14937   7.190   0.600   2.807  0.5860  0.3326 -0.0877
  109MOL0     C14938   7.289   0.667   2.877 -0.0210 -0.4178  0.4054
  109MOL0     C14939   7.405   0.597   2.918 -0.1884  0.0989 -0.0658
  109MOL0     O14940   7.499   0.655   2.993 -0.2642  0.4678  0.5784
  109MOL0     C14941   7.518   0.794   2.992 -0.6952 -0.0597 -0.0994
  109MOL0     C14942   7.668   0.814   3.013  0.7349  0.4872 -0.9620
  109MOL0     C14943   7.702   0.966   3.028  0.1484 -0.0996  0.5800
  109MOL0     C14944   7.850   0.970   3.066 -0.4844 -0.9653 -0.2512
  109MOL0     C14945   7.927   1.094   3.014  0.6166  1.5593 -0.1407
  109MOL0     C14946   8.082   1.074   3.045  0.0769  0.2740  0.4065
  109MOL0     C14947   8.162   1.203   3.002  0.1257  0.4657  0.6266
  109MOL0     C14948   8.308   1.196   3.031  0.0763  0.9779 -0.6160
  109MOL0    Cl14949   8.380   1.041   2.970 -0.2024  0.1414 -0.3807
  109MOL0     C14950   7.416   0.461   2.885  0.1974  0.1335  0.5797
  109MOL0     C14951   7.315   0.394   2.828  0.0324 -0.0813  0.1158
  109MOL0     O14952   7.051   0.260   2.909 -0.1928  0.2002  0.1315
  109MOL0     C14953   6.887   0.264   2.590 -0.0528  0.5297 -0.0217
  109MOL0     C14954   6.789   0.203   2.514 -0.6710 -0.3140 -1.2169
  109MOL0     N14955   6.201  -0.088   2.042  0.3634 -0.2820  1.0785
  109MOL0     N14956   6.075  -0.092   2.034 -0.4746  0.5451  0.1413
  109MOL0     C14957   4.957   0.421   2.366 -0.2778  0.2614 -0.2393
  109MOL0     C14958   4.820   0.413   2.380 -0.2354 -0.2290 -0.0731
  109MOL0     C14959   4.408   0.334   2.515 -0.0066 -1.0901 -0.9239
  109MOL0     C14960   4.351   0.453   2.484  0.1735  0.0591  0.5792
  109MOL0     C14961   4.212   0.484   2.499  0.3647 -0.9000  1.0461
  109MOL0     C14962   4.126   0.376   2.516  0.3966  0.0717 -0.4461
  109MOL0     O14963   3.994   0.380   2.518  0.1757 -1.1672  0.4004
  109MOL0     C14964   3.912   0.475   2.447 -0.5302 -0.4208  0.3904
  109MOL0     C14965   3.826   0.560   2.537 -0.7814  0.1305  0.0110
  109MOL0     C14966   3.758   0.464   2.630  0.2875 -0.2003  0.0406
  109MOL0     C14967   3.665   0.354   2.561  0.7051  0.0962  0.5373
  109MOL0     C14968   3.569   0.415   2.471 -0.6333 -0.1474 -0.5193
  109MOL0     C14969   3.491   0.457   2.391 -0.2161  0.2166 -0.3128
  109MOL0     C14970   4.177   0.247   2.530  0.9882 -0.0736 -0.0013
  109MOL0     C14971   4.320   0.229   2.524  0.0230  0.2668 -0.0207
  109MOL0     C14972   4.363   0.086   2.533 -0.5033 -0.1428  0.8660
  109MOL0     H14973   4.789   0.519   2.700  1.5780  1.2194 -0.2720
  109MOL0     H14974   5.045   0.516   2.680 -0.7854  0.6421  0.1313
  109MOL0     H14975   5.212   0.336   2.308  2.3068 -2.4323  0.1745
  109MOL0     H14976   5.230   0.261   2.477  0.3192 -1.6141 -0.9881
  109MOL0     H14977   5.404   0.459   2.325 -1.8790 -0.5427 -0.5286
  109MOL0     H14978   5.420   0.428   2.502 -1.0583 -2.6524  1.6490
  109MOL0     H14979   5.408   0.167   2.414 -0.8167  2.7196  2.1471
  109MOL0     H14980   5.452   0.234   2.264  1.5691 -0.9237 -0.1911
  109MOL0     H14981   5.668   0.334   2.366  0.1783  0.0704 -0.0208
  109MOL0     H14982   5.630   0.241   2.515  1.1084  0.6931  0.4069
  109MOL0     H14983   5.673   0.155   2.234 -4.0697  1.4504  0.7959
  109MOL0     H14984   5.626   0.038   2.353 -1.9587  1.0850 -1.2788
  109MOL0     H14985   5.876   0.205   2.354 -1.1865 -0.7279 -1.7528
  109MOL0     H14986   5.828   0.115   2.499 -0.0325 -0.0128  0.5416
  109MOL0     H14987   5.824  -0.086   2.342 -0.4776 -0.1915 -1.2648
  109MOL0     H14988   5.983  -0.020   2.372 -0.9024 -1.5051 -0.9654
  109MOL0     H14989   5.837  -0.065   2.118 -3.3912  1.1373 -0.4964
  109MOL0     H14990   5.856   0.104   2.126 -1.5400 -1.5572 -2.3687
  109MOL0     H14991   6.138   0.146   2.256 -1.4288  0.8080 -1.2718
  109MOL0     H14992   6.377   0.140   2.214  0.0803 -1.5105  1.2465
  109MOL0     H14993   6.423   0.105   2.050  1.3159  0.5960  0.6767
  109MOL0     H14994   6.427  -0.160   2.154  1.2914  0.3074 -1.5374
  109MOL0     H14995   6.569  -0.071   2.118  0.5171 -1.1130  1.4359
  109MOL0     H14996   6.401  -0.073   2.380  0.9923 -0.9139  1.3301
  109MOL0     H14997   6.540  -0.177   2.341 -3.5976 -2.0281  1.8857
  109MOL0     H14998   6.700  -0.018   2.351 -0.9881  0.4593 -1.0539
  109MOL0     H14999   6.598   0.117   2.309 -4.7852  1.0050  0.3064
  109MOL0     H15000   6.659  -0.001   2.742 -0.7901 -0.4621 -1.0700
  109MOL0     H15001   6.743   0.034   2.951  0.8786 -1.2725 -0.8268
  109MOL0     H15002   6.811   0.194   2.988 -0.1196  0.9079 -1.4973
  109MOL0     H15003   6.919   0.055   2.961 -0.4838  0.7429  3.2706
  109MOL0     H15004   7.103   0.659   2.782 -0.1968  0.2864  2.2273
  109MOL0     H15005   7.271   0.771   2.900 -0.7662 -0.6172  0.7466
  109MOL0     H15006   7.494   0.834   2.893 -0.6493  1.3685  0.4452
  109MOL0     H15007   7.450   0.841   3.063 -1.5500  0.2483 -1.0866
  109MOL0     H15008   7.704   0.765   3.104 -1.3486 -0.8345 -0.8020
  109MOL0     H15009   7.729   0.773   2.931  0.4075  0.2603 -1.0948
  109MOL0     H15010   7.648   1.003   3.116  1.7493  2.6926  0.4859
  109MOL0     H15011   7.671   1.027   2.942  1.4862 -2.2888 -1.5795
  109MOL0     H15012   7.907   0.886   3.025  1.6647  0.2919 -0.0512
  109MOL0     H15013   7.865   0.976   3.174  3.3460 -0.1702 -0.6778
  109MOL0     H15014   7.924   1.098   2.905  0.5120  2.7318 -0.1119
  109MOL0     H15015   7.889   1.190   3.053  2.0311  2.3405 -0.6283
  109MOL0     H15016   8.110   0.982   2.992  0.1451  0.0408  0.8465
  109MOL0     H15017   8.092   1.056   3.152 -0.0042  1.9068  0.7081
  109MOL0     H15018   8.113   1.287   3.050 -1.7963 -0.4295  0.3257
  109MOL0     H15019   8.150   1.213   2.894  4.7840  0.1588 -0.1368
  109MOL0     H15020   8.331   1.190   3.138 -1.0364 -0.8499 -0.4488
  109MOL0     H15021   8.356   1.288   2.996 -0.2541  1.2492 -0.3675
  109MOL0     H15022   7.510   0.416   2.916  1.3133  0.9250 -1.4460
  109MOL0     H15023   7.332   0.292   2.793 -0.8780 -0.1934 -0.0210
  109MOL0     H15024   6.951   0.327   2.528 -0.5648  2.4005  1.2419
  109MOL0     H15025   6.778   0.215   2.407 -2.4111 -0.8003 -1.1298
  109MOL0     H15026   5.004   0.402   2.270 -0.3893  0.3553 -0.3127
  109MOL0     H15027   4.756   0.392   2.295 -0.7883  1.0984 -0.0165
  109MOL0     H15028   4.414   0.541   2.472  0.0746  0.0247 -0.2147
  109MOL0     H15029   4.165   0.581   2.490  1.4213 -0.4247  0.3941
  109MOL0     H15030   3.973   0.552   2.400 -1.9367  2.3290  2.8021
  109MOL0     H15031   3.856   0.411   2.378 -0.2490  0.2051 -0.4303
  109MOL0     H15032   3.752   0.614   2.477  0.3034  2.1482  0.3878
  109MOL0     H15033   3.887   0.637   2.585 -1.1493  0.2937  0.2250
  109MOL0     H15034   3.833   0.419   2.696  0.3633 -0.0579  0.0519
  109MOL0     H15035   3.696   0.524   2.698  0.8336 -0.1017  0.4541
  109MOL0     H15036   3.609   0.292   2.631 -1.4832 -0.3865 -1.5226
  109MOL0     H15037   3.723   0.285   2.500 -0.3833 -0.1764 -0.2203
  109MOL0     H15038   3.427   0.497   2.315  0.6936  1.2477 -0.5576
  109MOL0     H15039   4.106   0.168   2.553  0.7429 -0.1313 -0.9156
  109MOL0     H15040   4.272   0.026   2.536 -1.7781  1.7200  1.8002
  109MOL0     H15041   4.429   0.053   2.453 -1.1059  2.2953 -0.7558
  109MOL0     H15042   4.426   0.080   2.622  0.5530 -0.3139  0.1203
  110MOL0     O15043   0.216   4.998   0.677  0.5652 -0.1579  0.0745
  110MOL0     C15044   0.229   4.878   0.637  0.7152 -0.1069 -0.7384
  110MOL0     O15045   0.340   4.819   0.602 -0.4469  0.4213 -0.0343
  110MOL0     C15046   0.465   4.871   0.605  0.7943 -0.3583  0.0784
  110MOL0     C15047   0.510   4.932   0.721 -0.0301  0.2759  0.3153
  110MOL0     C15048   0.636   4.993   0.720  0.7041 -0.7589 -0.6346
  110MOL0     C15049   0.732   4.987   0.616 -0.0995 -0.2604 -0.1999
  110MOL0     O15050   0.869   5.029   0.634  0.7841  0.0854  0.3208
  110MOL0     C15051   0.954   4.971   0.539  0.7846 -0.3130 -0.5262
  110MOL0     C15052   1.090   4.999   0.579 -0.8156  0.6201 -0.4493
  110MOL0     C15053   1.195   4.922   0.501  0.3905  0.5133  0.2466
  110MOL0     C15054   1.324   4.947   0.579  0.4633  0.3260  0.0585
  110MOL0     C15055   1.448   4.893   0.507 -0.5620  0.3085 -0.4317
  110MOL0     C15056   1.456   4.742   0.512 -0.6446  0.3798  0.3026
  110MOL0     C15057   1.574   4.686   0.435 -0.0634 -0.2234  0.2452
  110MOL0     C15058   1.577   4.542   0.453 -0.0640 -0.4734  0.9756
  110MOL0     N15059   1.627   4.495   0.580 -0.0350 -0.0978  0.5051
  110MOL0     C15060   1.755   4.453   0.590 -0.3918  0.2168  0.0903
  110MOL0     C15061   1.760   4.404   0.717 -0.0196 -0.4935  0.8462
  110MOL0     C15062   1.870   4.364   0.809 -0.3277  0.3920  0.1647
  110MOL0     C15063   1.900   4.471   0.906  0.0754 -0.8938 -0.2417
  110MOL0     C15064   1.979   4.428   1.033  0.4127  0.1326  0.0824
  110MOL0     C15065   2.003   4.549   1.124 -0.0019  0.6771  0.9552
  110MOL0     O15066   2.069   4.660   1.073 -0.9683 -0.2812  0.4236
  110MOL0     C15067   2.205   4.660   1.044 -0.6297 -0.1257  0.0270
  110MOL0     C15068   2.303   4.563   1.087  0.1946  0.1750 -0.2360
  110MOL0     C15069   2.437   4.568   1.046 -1.1016 -0.4387  0.6408
  110MOL0     C15070   2.538   4.460   1.107  0.3782  0.1210 -0.2017
  110MOL0     C15071   2.476   4.663   0.953 -0.6353  0.8472  0.4605
  110MOL0     C15072   2.608   4.660   0.895 -0.4935  0.2122  0.1295
  110MOL0     O15073   2.617   4.745   0.783 -0.0899 -0.5197 -0.2077
  110MOL0     C15074   2.735   4.766   0.719 -0.4927  0.3365 -0.1813
  110MOL0     C15075   2.838   4.848   0.772 -0.6109 -0.8588  0.9287
  110MOL0     C15076   2.960   4.855   0.712 -1.6939 -0.6443  0.1549
  110MOL0     C15077   2.983   4.783   0.592  0.1272  0.8491  0.2387
  110MOL0     O15078   3.100   4.796   0.517  0.8744  0.1906 -0.4555
  110MOL0     C15079   3.217   4.827   0.589  0.3820  1.0229  0.5001
  110MOL0     C15080   3.340   4.798   0.497  1.0663  0.4351  0.6734
  110MOL0     C15081   3.349   4.911   0.392  0.1967 -0.3223 -0.1139
  110MOL0     C15082   3.466   4.900   0.290 -0.1320 -0.4882  0.6627
  110MOL0     C15083   3.456   5.007   0.187 -0.5290  0.5737 -1.0830
  110MOL0     C15084   3.571   4.995   0.087  0.0901 -0.2108 -0.2758
  110MOL0     C15085   3.530   5.071  -0.035  0.3720 -0.7732  0.6878
  110MOL0     C15086   3.521   5.227  -0.008 -0.7871  1.3444  0.2250
  110MOL0    Cl15087   3.504   5.327  -0.157  0.1816 -0.0514  0.0984
  110MOL0     C15088   2.887   4.705   0.535  0.6807 -0.0123 -0.0199
  110MOL0     C15089   2.761   4.692   0.600 -0.1421 -0.2849  1.0110
  110MOL0     O15090   2.704   4.612   0.952 -0.1113 -0.3067 -0.0180
  110MOL0     C15091   2.380   4.762   0.923 -0.2608 -0.4063  0.9172
  110MOL0     C15092   2.248   4.760   0.959  0.2093 -0.0457 -0.2200
  110MOL0     N15093   1.631   4.402   0.768 -0.3660  0.5614 -0.3387
  110MOL0     N15094   1.552   4.464   0.685 -0.3270  0.0639  0.1534
  110MOL0     C15095   0.680   4.909   0.505 -0.1303 -0.1156  0.5020
  110MOL0     C15096   0.546   4.868   0.485 -0.7183  0.6163  0.0469
  110MOL0     C15097   0.110   4.787   0.645 -0.7237  0.1682  1.0601
  110MOL0     C15098  -0.009   4.829   0.709 -0.4029 -0.1077 -0.3740
  110MOL0     C15099  -0.115   4.745   0.730  0.0504  0.7508  0.0173
  110MOL0     C15100  -0.116   4.611   0.682 -0.2446 -0.7606  0.5327
  110MOL0     O15101  -0.215   4.520   0.699  0.3069  0.0264  0.1014
  110MOL0     C15102  -0.337   4.555   0.766 -0.3008  0.2452  0.5981
  110MOL0     C15103  -0.431   4.436   0.755  1.0756  0.4681 -0.4013
  110MOL0     C15104  -0.556   4.445   0.848 -0.0556  0.1422  0.3995
  110MOL0     C15105  -0.600   4.308   0.889  0.1648 -0.8721 -0.0183
  110MOL0     C15106  -0.737   4.318   0.946 -0.0811 -0.4792  0.8029
  110MOL0     C15107  -0.853   4.335   0.975 -0.7154  0.0203 -0.0477
  110MOL0     C15108  -0.001   4.571   0.626 -0.3526 -0.7078  0.0812
  110MOL0     C15109   0.107   4.654   0.597 -0.7563 -0.5191 -0.7373
  110MOL0     C15110   0.222   4.584   0.529  0.2721 -0.0419 -0.1716
  110MOL0     H15111   0.455   4.929   0.814  1.5855 -1.9809  1.2738
  110MOL0     H15112   0.665   5.062   0.799  1.4979 -1.0912 -0.6318
  110MOL0     H15113   0.939   5.022   0.443 -0.0113 -0.2209 -0.3552
  110MOL0     H15114   0.930   4.867   0.515 -0.1234  0.2274 -2.1404
  110MOL0     H15115   1.106   5.106   0.567 -1.1231  0.3335 -5.2947
  110MOL0     H15116   1.090   4.956   0.680  0.0495 -2.9957 -1.8176
  110MOL0     H15117   1.168   4.816   0.502 -0.0325  0.5973 -0.7848
  110MOL0     H15118   1.202   4.961   0.399 -2.7409 -0.6071 -0.5315
  110MOL0     H15119   1.335   5.053   0.603 -2.6754  0.7488  0.1060
  110MOL0     H15120   1.309   4.902   0.678 -2.2449 -4.8173 -2.2485
  110MOL0     H15121   1.536   4.934   0.557 -0.2128  0.4239 -1.1375
  110MOL0     H15122   1.444   4.916   0.401  0.8144 -4.8944 -1.9089
  110MOL0     H15123   1.475   4.713   0.616  1.9015 -1.7354 -0.6208
  110MOL0     H15124   1.360   4.697   0.486  0.5570 -2.3779  0.2985
  110MOL0     H15125   1.668   4.731   0.468 -0.8445  0.0205  2.2865
  110MOL0     H15126   1.562   4.703   0.327  2.4318  1.4393  0.1317
  110MOL0     H15127   1.477   4.502   0.433 -0.1234 -0.2894  0.9011
  110MOL0     H15128   1.642   4.513   0.370  0.4266  0.3066  1.0771
  110MOL0     H15129   1.835   4.467   0.519 -1.9870 -0.1837 -1.8770
  110MOL0     H15130   1.961   4.330   0.760 -0.0568 -1.3145  1.7199
  110MOL0     H15131   1.828   4.276   0.860 -1.6555 -0.7305 -2.6323
  110MOL0     H15132   1.959   4.548   0.856 -0.1276 -0.4853  0.1360
  110MOL0     H15133   1.810   4.520   0.943  0.4985 -1.3302  1.4416
  110MOL0     H15134   1.915   4.358   1.088  0.1369 -0.7972 -1.3705
  110MOL0     H15135   2.072   4.382   1.000  1.0760  1.7036 -0.3132
  110MOL0     H15136   1.908   4.580   1.167  1.4383 -0.0823  5.1926
  110MOL0     H15137   2.051   4.509   1.214 -3.2730 -2.0424  1.7051
  110MOL0     H15138   2.279   4.476   1.147  0.5539  0.2501  0.0133
  110MOL0     H15139   2.486   4.380   1.162  0.6972  0.2725  0.3263
  110MOL0     H15140   2.600   4.509   1.182  0.2647 -1.6543  1.1398
  110MOL0     H15141   2.616   4.415   1.046  2.4107  0.4262  2.0271
  110MOL0     H15142   2.812   4.906   0.859 -0.7747 -1.5502  1.3521
  110MOL0     H15143   3.032   4.926   0.750  1.5665 -2.9411 -1.2592
  110MOL0     H15144   3.211   4.933   0.615 -1.2785  0.6415  1.8993
  110MOL0     H15145   3.227   4.766   0.679  0.4722 -1.3769 -1.0348
  110MOL0     H15146   3.425   4.789   0.564  1.0881 -3.6137  0.3230
  110MOL0     H15147   3.322   4.707   0.439  0.1960  2.3267 -2.3060
  110MOL0     H15148   3.364   5.010   0.437 -0.4337  0.2373 -1.1089
  110MOL0     H15149   3.262   4.915   0.325  1.4094  0.3266 -1.7082
  110MOL0     H15150   3.447   4.804   0.242 -1.2761  0.5574 -1.0829
  110MOL0     H15151   3.565   4.896   0.336 -0.1811  1.2685  0.9687
  110MOL0     H15152   3.360   4.989   0.137 -2.2304 -1.1156  2.4097
  110MOL0     H15153   3.447   5.096   0.250  0.3630 -1.1091  1.6462
  110MOL0     H15154   3.596   4.894   0.053 -2.5979 -1.0231 -0.0650
  110MOL0     H15155   3.665   5.032   0.128  1.2692 -2.4468 -0.7794
  110MOL0     H15156   3.440   5.037  -0.088  0.3944  1.7022 -1.1562
  110MOL0     H15157   3.609   5.064  -0.111 -0.0154  1.4843 -0.0323
  110MOL0     H15158   3.613   5.253   0.045 -1.4950  1.3979  1.4776
  110MOL0     H15159   3.431   5.235   0.054 -0.6488 -5.2184  2.1237
  110MOL0     H15160   2.908   4.648   0.446 -3.5656 -1.6285 -0.2173
  110MOL0     H15161   2.688   4.648   0.533 -0.3352 -0.7408  1.5184
  110MOL0     H15162   2.417   4.835   0.851 -3.2144  1.5208  1.1567
  110MOL0     H15163   2.187   4.835   0.910 -0.7663 -2.8175 -3.6554
  110MOL0     H15164   0.736   4.894   0.414 -1.6123  0.6892 -0.5758
  110MOL0     H15165   0.523   4.819   0.391  0.7459  2.7551 -1.5123
  110MOL0     H15166  -0.024   4.930   0.747 -0.6404 -0.3759  0.2501
  110MOL0     H15167  -0.213   4.777   0.766 -0.6729 -0.2011 -1.0343
  110MOL0     H15168  -0.312   4.571   0.871 -0.1687 -0.3538  0.6620
  110MOL0     H15169  -0.394   4.644   0.739 -2.1342 -0.8967  0.5246
  110MOL0     H15170  -0.384   4.340   0.780  0.8438  0.0844 -1.4198
  110MOL0     H15171  -0.458   4.429   0.650 -0.6587  0.1490  0.0412
  110MOL0     H15172  -0.532   4.509   0.934  2.3316 -0.3987  0.2030
  110MOL0     H15173  -0.628   4.497   0.785 -0.5938 -1.3647 -0.2693
  110MOL0     H15174  -0.531   4.265   0.961  0.5556 -1.1708 -0.5615
  110MOL0     H15175  -0.610   4.242   0.802  1.4293 -1.4028  0.2258
  110MOL0     H15176  -0.955   4.356   0.999 -0.5482  0.9106 -0.0657
  110MOL0     H15177  -0.002   4.465   0.602 -0.9984 -0.8221  0.5751
  110MOL0     H15178   0.184   4.491   0.485  0.2070  0.3176 -0.8957
  110MOL0     H15179   0.272   4.647   0.455  0.1801  1.0143  0.6433
  110MOL0     H15180   0.293   4.556   0.606 -2.0547 -3.3612  0.9731
  111MOL0     O15181   6.998   6.021   8.670  0.0699  0.1612 -0.2595
  111MOL0     C15182   6.959   6.127   8.621 -0.6695  0.1086  0.0929
  111MOL0     O15183   6.967   6.162   8.488 -0.4106  1.1128 -0.4214
  111MOL0     C15184   7.050   6.087   8.410 -0.4590  0.3110 -0.1589
  111MOL0     C15185   7.184   6.067   8.452  0.2049 -0.1499 -0.1273
  111MOL0     C15186   7.270   6.000   8.362  0.4221  0.4929 -0.0742
  111MOL0     C15187   7.228   5.958   8.233 -0.4222 -0.3210  0.3315
  111MOL0     O15188   7.325   5.907   8.144  0.6328  0.6123  0.1929
  111MOL0     C15189   7.334   5.973   8.013  0.3825  0.4423 -1.1229
  111MOL0     C15190   7.469   5.953   7.957 -0.0776 -0.2817  0.0966
  111MOL0     C15191   7.586   6.001   8.047  0.7888  0.0390 -0.0347
  111MOL0     C15192   7.704   5.913   8.022 -0.9835  0.0243  0.2842
  111MOL0     C15193   7.820   5.944   8.122 -0.4265  0.6579  0.0039
  111MOL0     C15194   7.919   6.050   8.083  0.2367  0.2486  0.6381
  111MOL0     C15195   8.037   6.052   8.176 -0.0322 -0.4716  0.0084
  111MOL0     C15196   8.156   5.954   8.144 -0.2390 -0.3083 -0.0105
  111MOL0     N15197   8.263   5.960   8.238  0.0276 -0.9068  0.2451
  111MOL0     C15198   8.265   6.053   8.343 -0.3269  0.3307  0.1328
  111MOL0     C15199   8.380   6.024   8.402 -0.4024  0.2236 -0.1211
  111MOL0     C15200   8.422   6.073   8.540 -0.1339 -0.1343 -0.9836
  111MOL0     C15201   8.569   6.118   8.546  0.3112  0.3513 -0.7964
  111MOL0     C15202   8.582   6.200   8.676 -0.1701  0.3539 -0.4390
  111MOL0     C15203   8.717   6.256   8.707  0.1070  0.0390  0.1841
  111MOL0     O15204   8.804   6.145   8.750 -0.6957 -0.0069 -0.0652
  111MOL0     C15205   8.934   6.171   8.804  0.7999  0.2120 -0.5239
  111MOL0     C15206   8.989   6.299   8.831 -0.4667 -0.3806 -0.4788
  111MOL0     C15207   9.118   6.319   8.894 -0.0117 -0.4222 -0.6970
  111MOL0     C15208   9.158   6.465   8.933 -0.9851  0.5670 -0.2928
  111MOL0     C15209   9.197   6.200   8.925 -0.2241 -0.0815 -0.3858
  111MOL0     C15210   9.322   6.207   9.002  0.4940  0.0374  0.3557
  111MOL0     O15211   9.365   6.082   9.040  0.0982  0.7354 -0.1388
  111MOL0     C15212   9.495   6.067   9.066  0.3606 -0.2211 -0.4103
  111MOL0     C15213   9.583   6.025   8.966 -0.8969  0.4645  0.2069
  111MOL0     C15214   9.719   6.016   8.988 -0.0398  0.1812 -1.0187
  111MOL0     C15215   9.770   6.048   9.121  0.1001  1.3999  0.4251
  111MOL0     O15216   9.905   6.028   9.131 -0.5932  0.4491  0.1181
  111MOL0     C15217   9.989   6.084   9.239  0.1942  0.2603  0.3844
  111MOL0     C15218  10.110   6.001   9.272 -1.1382  0.0473  0.9869
  111MOL0     C15219  10.222   6.011   9.159  0.6740 -0.0874  0.5027
  111MOL0     C15220  10.355   6.030   9.227  0.7761 -0.3771  0.0273
  111MOL0     C15221  10.467   6.028   9.126 -0.1408 -0.1527  0.2293
  111MOL0     C15222  10.602   6.065   9.195 -0.1002  0.6453 -0.7255
  111MOL0     C15223  10.723   6.058   9.104 -0.1047 -0.0250 -0.1916
  111MOL0     C15224  10.748   5.909   9.056 -0.3418  0.5233  0.0347
  111MOL0    Cl15225  10.819   5.814   9.187  0.1987 -0.2869 -0.7417
  111MOL0     C15226   9.683   6.080   9.225  0.0181 -0.8805  0.3149
  111MOL0     C15227   9.547   6.090   9.194 -0.2118 -0.1911 -0.1125
  111MOL0     O15228   9.385   6.313   9.016  0.3424  0.7999  0.5453
  111MOL0     C15229   9.139   6.080   8.894  0.4966  0.8060  0.6864
  111MOL0     C15230   9.017   6.061   8.830 -0.2017 -0.8038  0.4225
  111MOL0     N15231   8.459   5.944   8.325  0.4257 -0.7492 -0.3161
  111MOL0     N15232   8.384   5.902   8.230  0.5583  0.5808  0.2915
  111MOL0     C15233   7.102   5.999   8.196  1.0054  0.3432 -0.1611
  111MOL0     C15234   7.005   6.056   8.284 -0.9262 -0.3676 -0.8420
  111MOL0     C15235   6.923   6.234   8.718 -0.7381 -0.6422 -0.4168
  111MOL0     C15236   6.900   6.361   8.660 -0.4318  0.1769  0.0292
  111MOL0     C15237   6.883   6.476   8.742 -0.3064 -0.3550 -1.0671
  111MOL0     C15238   6.888   6.462   8.878 -1.0305 -1.0311 -0.4803
  111MOL0     O15239   6.882   6.560   8.978  0.3291  0.1065  0.2954
  111MOL0     C15240   6.816   6.690   8.951  0.4555 -0.6765  0.9372
  111MOL0     C15241   6.916   6.800   8.913 -1.0596 -0.2334  0.1641
  111MOL0     C15242   6.960   6.879   9.047  0.0365 -0.9336  0.2504
  111MOL0     C15243   7.067   6.984   9.006  0.3983 -0.3353 -0.2458
  111MOL0     C15244   7.191   6.912   8.968  0.6841 -0.1824 -0.2128
  111MOL0     C15245   7.296   6.866   8.939 -0.6093  0.4029 -0.2661
  111MOL0     C15246   6.910   6.340   8.930  0.5350 -0.1565 -0.3860
  111MOL0     C15247   6.928   6.224   8.861  0.6843  0.2248 -0.3175
  111MOL0     C15248   6.946   6.098   8.945  0.1973  0.1376  0.5472
  111MOL0     H15249   7.204   6.089   8.556  2.6677  0.3583 -0.6471
  111MOL0     H15250   7.370   5.974   8.396  0.3956 -1.7296 -1.5118
  111MOL0     H15251   7.320   6.081   8.022 -0.7053  0.5679 -3.4023
  111MOL0     H15252   7.243   5.955   7.954  0.5329  4.0513 -2.7591
  111MOL0     H15253   7.485   5.846   7.937  2.6020  0.3890 -2.0082
  111MOL0     H15254   7.470   6.008   7.862 -0.8355  0.7021  0.6458
  111MOL0     H15255   7.607   6.106   8.026 -0.2474  0.2130 -0.2560
  111MOL0     H15256   7.547   6.001   8.149  0.2742  2.0921 -0.1916
  111MOL0     H15257   7.679   5.808   8.038  0.6450 -0.0500  3.0283
  111MOL0     H15258   7.740   5.940   7.923  0.0915 -1.6031  0.1993
  111MOL0     H15259   7.877   5.852   8.132 -1.5422  0.0045  0.5355
  111MOL0     H15260   7.788   5.956   8.226  1.0196 -2.6461  0.9525
  111MOL0     H15261   7.960   6.042   7.982  0.0028 -1.8115  0.6627
  111MOL0     H15262   7.870   6.147   8.095  3.7401  1.9685  2.4615
  111MOL0     H15263   8.013   6.036   8.281  0.7618 -0.6767  0.1663
  111MOL0     H15264   8.059   6.159   8.171 -2.2408  0.0786  1.0640
  111MOL0     H15265   8.119   5.854   8.121  1.4718 -1.3900  1.6727
  111MOL0     H15266   8.205   5.984   8.050  0.7337  0.8670  0.8433
  111MOL0     H15267   8.187   6.114   8.386  2.4487  4.1372  0.2481
  111MOL0     H15268   8.402   5.989   8.608  0.8218  0.7027  0.3820
  111MOL0     H15269   8.354   6.153   8.572  0.1709  0.9698 -2.9743
  111MOL0     H15270   8.633   6.030   8.556 -0.9909 -0.4977  0.4993
  111MOL0     H15271   8.589   6.183   8.460 -0.2478  2.5784  0.6599
  111MOL0     H15272   8.520   6.290   8.668 -0.7374 -0.0784 -1.0951
  111MOL0     H15273   8.558   6.135   8.761  0.7865  0.6209  0.0394
  111MOL0     H15274   8.750   6.315   8.620 -3.4082  2.5823  0.3949
  111MOL0     H15275   8.712   6.341   8.776 -0.6491  1.0805 -1.1000
  111MOL0     H15276   8.923   6.382   8.807 -1.5352 -1.4396 -1.3458
  111MOL0     H15277   9.069   6.528   8.929 -0.7103  0.9549 -0.2718
  111MOL0     H15278   9.223   6.510   8.857 -0.3794  1.0674  0.5122
  111MOL0     H15279   9.208   6.475   9.029  0.2536  0.5780 -0.9155
  111MOL0     H15280   9.544   6.033   8.865  1.9458 -0.3846 -1.0668
  111MOL0     H15281   9.785   5.983   8.908 -1.0279  0.0993 -1.8139
  111MOL0     H15282  10.007   6.192   9.228 -3.3692  0.9127 -0.3337
  111MOL0     H15283   9.919   6.075   9.323 -2.4138  0.6288 -1.6299
  111MOL0     H15284  10.154   6.035   9.367 -0.3922 -2.4055  1.5878
  111MOL0     H15285  10.077   5.898   9.284  0.2490 -0.4419  0.8130
  111MOL0     H15286  10.199   6.097   9.094 -2.0830 -1.0479  0.0661
  111MOL0     H15287  10.236   5.920   9.100 -0.2483  1.6408 -2.6376
  111MOL0     H15288  10.368   5.951   9.301 -1.4303 -0.0003  0.9114
  111MOL0     H15289  10.346   6.129   9.273 -0.5533  0.3821 -1.7329
  111MOL0     H15290  10.471   5.935   9.068 -1.2712 -0.4931  0.6750
  111MOL0     H15291  10.438   6.110   9.060 -4.5491 -0.0606  1.9450
  111MOL0     H15292  10.611   6.013   9.291 -0.3518 -0.2308 -1.1639
  111MOL0     H15293  10.588   6.170   9.219 -1.2963  0.3332  0.0648
  111MOL0     H15294  10.811   6.089   9.161  0.4298 -0.8493 -0.5363
  111MOL0     H15295  10.702   6.131   9.026 -2.4364 -0.1350  0.2537
  111MOL0     H15296  10.828   5.902   8.981 -0.4996  1.0389 -0.1896
  111MOL0     H15297  10.663   5.857   9.011  0.3807 -0.5415 -0.1397
  111MOL0     H15298   9.721   6.107   9.323 -2.8983 -1.7917  1.8186
  111MOL0     H15299   9.484   6.118   9.279  1.0014 -1.5662  1.2921
  111MOL0     H15300   9.185   5.987   8.924 -0.6181 -0.3407 -0.9976
  111MOL0     H15301   8.980   5.963   8.802 -0.1126 -1.2443  1.7825
  111MOL0     H15302   7.060   5.973   8.100 -2.1078  1.3061  0.8126
  111MOL0     H15303   6.905   6.081   8.248 -0.9594 -0.7010 -0.9918
  111MOL0     H15304   6.909   6.374   8.553  2.2564  0.9712  0.2672
  111MOL0     H15305   6.877   6.576   8.698 -0.9800  0.9200  1.6707
  111MOL0     H15306   6.756   6.677   8.861  0.7538 -0.3189  0.6848
  111MOL0     H15307   6.749   6.723   9.031 -2.0252  0.1758 -1.3680
  111MOL0     H15308   6.874   6.874   8.845 -1.5521 -0.7419 -0.0886
  111MOL0     H15309   7.000   6.757   8.858 -0.5068  1.6188 -0.5092
  111MOL0     H15310   6.881   6.941   9.091  1.8348  2.9830 -1.5317
  111MOL0     H15311   6.995   6.800   9.114 -2.8119 -1.9426  0.7216
  111MOL0     H15312   7.093   7.048   9.090 -0.5504 -0.0760 -0.1422
  111MOL0     H15313   7.042   7.050   8.923  0.2205  1.5713  1.2757
  111MOL0     H15314   7.390   6.818   8.917 -0.6408  0.3626 -0.3141
  111MOL0     H15315   6.926   6.331   9.037  1.5111 -0.4900 -0.5413
  111MOL0     H15316   6.891   6.026   8.883 -1.4440  3.0379 -1.6547
  111MOL0     H15317   7.049   6.062   8.948 -0.5276 -2.0884  0.3556
  111MOL0     H15318   6.905   6.109   9.046  0.2578  0.1408  0.5717
  112MOL0     O15319   9.856   0.538   9.570 -0.3763 -0.1539 -0.4416
  112MOL0     C15320   9.774   0.489   9.493  0.2930  0.1757  0.1028
  112MOL0     O15321   9.797   0.398   9.399  0.5468  0.3564 -0.1736
  112MOL0     C15322   9.930   0.357   9.389 -0.5948 -0.7854  0.3676
  112MOL0     C15323   9.971   0.237   9.443  0.1329 -0.2766  0.6828
  112MOL0     C15324  10.098   0.202   9.439  0.1816  0.6372  0.7603
  112MOL0     C15325  10.198   0.277   9.366  0.5882 -0.0391  0.5750
  112MOL0     O15326  10.335   0.240   9.343  0.4144  0.6066  0.8071
  112MOL0     C15327  10.377   0.151   9.446 -0.0702 -0.0444  0.5041
  112MOL0     C15328  10.523   0.174   9.474  0.0848 -0.3740  0.5727
  112MOL0     C15329  10.584   0.047   9.541 -0.4872 -0.4495  0.0882
  112MOL0     C15330  10.732   0.069   9.553  0.2155  0.0998 -0.0751
  112MOL0     C15331  10.806  -0.032   9.624 -0.4691  0.4253 -1.0782
  112MOL0     C15332  10.950   0.003   9.644  0.0998  1.1940  0.4167
  112MOL0     C15333  11.009  -0.110   9.727  0.4449 -0.7823 -0.8671
  112MOL0     C15334  11.156  -0.111   9.730 -0.3830  0.3976  0.4340
  112MOL0     N15335  11.209  -0.002   9.812  0.7853 -0.8222 -1.3478
  112MOL0     C15336  11.230   0.127   9.761  0.2560  0.2449  0.4869
  112MOL0     C15337  11.258   0.190   9.876 -0.9646  0.7830 -0.4033
  112MOL0     C15338  11.293   0.334   9.889 -0.6481 -0.6506 -0.3823
  112MOL0     C15339  11.402   0.385   9.788 -0.0608  0.2727  0.0814
  112MOL0     C15340  11.442   0.529   9.836  0.5165  0.3960 -0.1558
  112MOL0     C15341  11.578   0.580   9.779  0.7229 -0.5217  0.5320
  112MOL0     O15342  11.681   0.508   9.838 -0.0917  0.4124 -0.1178
  112MOL0     C15343  11.807   0.550   9.802 -0.9227 -0.9755 -0.4016
  112MOL0     C15344  11.843   0.650   9.709  0.1511 -0.8472 -0.3051
  112MOL0     C15345  11.979   0.684   9.686  0.0684 -0.8617  0.3359
  112MOL0     C15346  12.004   0.791   9.580  0.6635 -0.1809  0.6949
  112MOL0     C15347  12.089   0.622   9.757  0.3722 -0.2313 -0.4384
  112MOL0     C15348  12.229   0.656   9.751 -0.0865 -0.3943  0.8712
  112MOL0     O15349  12.277   0.748   9.657  0.7822 -0.0727 -0.2391
  112MOL0     C15350  12.414   0.777   9.652 -0.4199 -0.7714  0.0673
  112MOL0     C15351  12.512   0.678   9.660 -0.5854  0.2118 -0.0571
  112MOL0     C15352  12.650   0.717   9.650 -0.2889 -0.0086 -0.7305
  112MOL0     C15353  12.681   0.854   9.640 -0.4731 -0.9031  0.4716
  112MOL0     O15354  12.815   0.892   9.619  0.5786 -0.2925 -0.2339
  112MOL0     C15355  12.854   1.008   9.698 -0.1203  0.0896  0.0513
  112MOL0     C15356  13.009   0.997   9.694 -0.1844  0.3090 -0.2298
  112MOL0     C15357  13.073   0.907   9.803  0.0644 -0.2229  0.3824
  112MOL0     C15358  13.224   0.910   9.792  0.0429  0.4289  0.1768
  112MOL0     C15359  13.287   0.870   9.929 -0.1331  0.4190  0.3466
  112MOL0     C15360  13.440   0.901   9.937  0.0321  1.0135  0.1129
  112MOL0     C15361  13.508   0.886  10.078  0.3233  0.5755 -0.3376
  112MOL0     C15362  13.643   0.961  10.096 -0.7346  0.0800 -0.3030
  112MOL0    Cl15363  13.672   1.017  10.268 -0.1758 -0.0773 -0.4265
  112MOL0     C15364  12.583   0.954   9.628 -0.4484  0.7220  0.2803
  112MOL0     C15365  12.446   0.915   9.631 -0.0789 -0.4974 -0.6001
  112MOL0     O15366  12.293   0.621   9.849 -0.1178 -0.1213  0.1355
  112MOL0     C15367  12.048   0.522   9.850 -0.5149 -0.1936  0.2444
  112MOL0     C15368  11.908   0.488   9.871  0.3554 -0.6914  0.0808
  112MOL0     N15369  11.262   0.103   9.989  0.8429  0.5114  0.0256
  112MOL0     N15370  11.234  -0.009   9.949  0.0169  0.6783  0.4564
  112MOL0     C15371  10.158   0.397   9.307  0.3928 -0.0893 -0.0947
  112MOL0     C15372  10.026   0.438   9.320  0.4166  0.4413  0.3548
  112MOL0     C15373   9.638   0.539   9.503  0.5106  0.5767 -0.5251
  112MOL0     C15374   9.622   0.661   9.573  0.4388 -0.5372  0.1228
  112MOL0     C15375   9.499   0.725   9.599  0.0769 -0.2609  0.1937
  112MOL0     C15376   9.386   0.664   9.564  0.4287 -0.4262  0.4968
  112MOL0     O15377   9.259   0.718   9.553  0.4162  0.1084  0.6681
  112MOL0     C15378   9.213   0.808   9.654 -0.1452 -0.0605  0.2741
  112MOL0     C15379   9.061   0.801   9.659 -0.0493 -0.4858 -0.5726
  112MOL0     C15380   9.009   0.938   9.704 -0.2850  0.4643 -0.4711
  112MOL0     C15381   8.865   0.929   9.740  0.7859  0.1801 -0.3309
  112MOL0     C15382   8.836   0.858   9.865 -0.0290 -0.4823  0.5642
  112MOL0     C15383   8.814   0.779   9.958  0.4743  0.1219  0.2154
  112MOL0     C15384   9.401   0.538   9.504  0.2304 -0.4035 -0.2648
  112MOL0     C15385   9.519   0.470   9.472 -0.6394 -0.5570 -0.6116
  112MOL0     C15386   9.504   0.335   9.407 -0.8506 -0.4690 -0.1761
  112MOL0     H15387   9.890   0.173   9.477 -0.5867 -0.4418 -1.2092
  112MOL0     H15388  10.119   0.098   9.463 -0.4111  0.3497  0.0515
  112MOL0     H15389  10.354   0.050   9.411  1.9197 -0.0596 -0.9407
  112MOL0     H15390  10.334   0.182   9.542  0.9325  2.6504  0.1665
  112MOL0     H15391  10.573   0.202   9.380  0.6000  2.7941  1.6647
  112MOL0     H15392  10.536   0.268   9.529 -0.3762  0.7451 -1.1469
  112MOL0     H15393  10.545   0.028   9.642 -0.1827 -0.5946  0.1784
  112MOL0     H15394  10.565  -0.042   9.481 -1.3076 -1.3077  1.5387
  112MOL0     H15395  10.770   0.084   9.451 -1.6417  3.2192 -0.4252
  112MOL0     H15396  10.755   0.158   9.612  0.2550 -0.6219  1.0203
  112MOL0     H15397  10.793  -0.131   9.580  0.1466 -0.4295  0.5705
  112MOL0     H15398  10.770  -0.035   9.728 -2.1185 -2.4943 -1.6502
  112MOL0     H15399  11.002   0.004   9.548  0.6188  1.7845  0.6989
  112MOL0     H15400  10.959   0.098   9.697 -0.1891  0.7295  1.3256
  112MOL0     H15401  10.973  -0.197   9.671 -0.9375 -1.0185  0.3210
  112MOL0     H15402  10.974  -0.126   9.829  1.5401 -0.9273 -0.4983
  112MOL0     H15403  11.196  -0.198   9.782 -0.0056 -0.8184 -1.7580
  112MOL0     H15404  11.201  -0.112   9.630 -1.2107 -0.1364  0.0504
  112MOL0     H15405  11.214   0.172   9.664  0.7823  0.3188  0.4314
  112MOL0     H15406  11.330   0.346   9.991  0.2469  0.2800 -0.7972
  112MOL0     H15407  11.208   0.402   9.883 -1.5111 -1.1759  3.4028
  112MOL0     H15408  11.491   0.320   9.789 -0.6114 -0.4942  0.1672
  112MOL0     H15409  11.372   0.386   9.683  0.3773  0.8717 -0.0462
  112MOL0     H15410  11.366   0.599   9.799  1.4312 -0.0178 -3.1093
  112MOL0     H15411  11.445   0.543   9.944 -3.0488  1.3281 -0.0589
  112MOL0     H15412  11.577   0.559   9.671  1.6558 -3.4166  0.9869
  112MOL0     H15413  11.590   0.687   9.794 -1.6862  0.4866 -3.2366
  112MOL0     H15414  11.779   0.712   9.646  0.1772 -0.1798  0.3116
  112MOL0     H15415  11.915   0.826   9.528  0.9911  1.4337  1.1657
  112MOL0     H15416  12.068   0.747   9.503  1.2696 -2.6883  2.5179
  112MOL0     H15417  12.054   0.877   9.626  0.1347 -0.0191  0.9777
  112MOL0     H15418  12.502   0.570   9.666  2.6019 -0.1336  0.5532
  112MOL0     H15419  12.736   0.652   9.656  0.5860  1.0739 -1.2498
  112MOL0     H15420  12.825   1.102   9.650 -0.4594  0.6211  1.2592
  112MOL0     H15421  12.809   1.016   9.797 -0.3793  1.3207 -0.1539
  112MOL0     H15422  13.041   0.958   9.597 -1.4077 -0.7186 -0.2417
  112MOL0     H15423  13.047   1.100   9.692  1.0760 -0.1580 -0.7086
  112MOL0     H15424  13.027   0.809   9.788  2.6323 -1.6657  1.3857
  112MOL0     H15425  13.045   0.947   9.900  0.0428 -1.0818  0.7364
  112MOL0     H15426  13.257   1.012   9.768 -2.7400  1.3224 -0.1314
  112MOL0     H15427  13.246   0.840   9.711 -3.5774 -1.7084  0.8522
  112MOL0     H15428  13.238   0.917  10.015  2.1763  0.9549  1.4535
  112MOL0     H15429  13.282   0.763   9.950  0.0048  0.5921  1.3143
  112MOL0     H15430  13.449   1.007   9.912 -0.6676  1.0315 -0.0822
  112MOL0     H15431  13.474   0.829   9.862 -1.2768  0.0025  0.4698
  112MOL0     H15432  13.527   0.779  10.092  1.4449  0.6250 -1.3264
  112MOL0     H15433  13.443   0.930  10.154  3.3053  4.6641  0.1503
  112MOL0     H15434  13.635   1.053  10.037  0.3242 -0.7842 -1.8425
  112MOL0     H15435  13.730   0.900  10.076  0.1239  0.4253  2.0241
  112MOL0     H15436  12.616   1.056   9.609  2.4503 -0.4933 -1.9385
  112MOL0     H15437  12.364   0.985   9.624 -0.4330 -1.1084 -3.9361
  112MOL0     H15438  12.124   0.478   9.914  1.0079  0.5746 -0.9575
  112MOL0     H15439  11.896   0.409   9.944 -1.0413  0.9610  1.7400
  112MOL0     H15440  10.226   0.463   9.255 -2.1528  1.6005 -1.5016
  112MOL0     H15441  10.004   0.541   9.294 -1.9703 -0.0630  0.1444
  112MOL0     H15442   9.707   0.717   9.611  0.1438  2.8303 -3.5343
  112MOL0     H15443   9.502   0.824   9.644 -0.5852 -0.1894  0.0843
  112MOL0     H15444   9.248   0.772   9.751 -1.3065 -3.7476 -0.4975
  112MOL0     H15445   9.250   0.907   9.627 -1.9132  1.7231  3.7753
  112MOL0     H15446   9.034   0.725   9.733  0.0581  0.2730  0.2584
  112MOL0     H15447   9.021   0.778   9.559 -2.1075 -0.5945  0.2229
  112MOL0     H15448   9.068   0.957   9.795 -1.2397 -2.9038  0.9938
  112MOL0     H15449   9.029   1.018   9.632 -1.6634  2.1807  0.9560
  112MOL0     H15450   8.812   0.882   9.657 -1.5730 -0.4700  1.4307
  112MOL0     H15451   8.819   1.028   9.750 -1.2181 -0.7078 -0.3964
  112MOL0     H15452   8.790   0.718  10.043 -3.3484  0.2326 -0.6412
  112MOL0     H15453   9.310   0.492   9.467  0.3475 -1.2906  0.5104
  112MOL0     H15454   9.540   0.340   9.304 -1.0951  0.6937 -0.2134
  112MOL0     H15455   9.560   0.263   9.468 -0.9251 -0.3360  0.0507
  112MOL0     H15456   9.400   0.303   9.413 -0.8743 -0.3627 -0.0176
  113MOL0     O15457  10.623  10.169   1.128 -0.6898 -0.4336 -0.6324
  113MOL0     C15458  10.619  10.048   1.093 -0.3462 -0.2609 -0.3388
  113MOL0     O15459  10.509   9.972   1.080  0.3229 -0.2482  0.6242
  113MOL0     C15460  10.392   9.995   1.153  0.2407  0.3771 -0.3888
  113MOL0     C15461  10.413  10.034   1.292  0.5352 -0.3781 -0.1203
  113MOL0     C15462  10.293  10.057   1.367 -0.0194  0.8492  0.2451
  113MOL0     C15463  10.159  10.038   1.308  0.0273  0.8458 -0.4440
  113MOL0     O15464  10.043  10.042   1.384  0.9923  0.7551  0.3609
  113MOL0     C15465  10.044  10.108   1.511  0.2285  0.1652 -0.8795
  113MOL0     C15466   9.905  10.120   1.580  0.4340 -0.6152  0.4319
  113MOL0     C15467   9.851   9.999   1.654 -0.4255 -0.2867  0.1443
  113MOL0     C15468   9.712  10.014   1.717 -0.0923  1.1043 -0.0916
  113MOL0     C15469   9.688   9.885   1.803 -0.3519  0.0762  0.4538
  113MOL0     C15470   9.544   9.869   1.840 -0.0977  0.2580  0.0070
  113MOL0     C15471   9.513   9.745   1.928  0.0155 -0.3836  0.0702
  113MOL0     C15472   9.370   9.731   1.973  0.2545 -1.2590 -1.4696
  113MOL0     N15473   9.321   9.849   2.047  0.2636 -0.2080  0.2281
  113MOL0     C15474   9.372   9.910   2.156 -0.1196 -0.1058 -0.5106
  113MOL0     C15475   9.290  10.019   2.188 -0.7466  0.6950  0.7447
  113MOL0     C15476   9.315  10.118   2.298  0.0226 -0.1726 -0.0315
  113MOL0     C15477   9.309  10.262   2.247  0.6101  0.2392 -0.5001
  113MOL0     C15478   9.432  10.305   2.170 -0.4369  0.3464 -0.0294
  113MOL0     C15479   9.419  10.447   2.102  0.1433  0.2159  0.0348
  113MOL0     O15480   9.533  10.532   2.135  1.2016  0.7595  0.3154
  113MOL0     C15481   9.652  10.513   2.074 -0.3876 -0.0584 -0.4032
  113MOL0     C15482   9.755  10.590   2.121 -0.6912  0.6542  0.2045
  113MOL0     C15483   9.885  10.588   2.072  0.0102  0.2759  1.0921
  113MOL0     C15484   9.987  10.674   2.144  0.3792  0.0316 -0.5395
  113MOL0     C15485   9.909  10.503   1.960 -0.2264 -0.2537  0.0549
  113MOL0     C15486  10.038  10.495   1.887  0.2456  0.1351 -0.0045
  113MOL0     O15487  10.089  10.365   1.866  0.5333 -0.0269  0.4867
  113MOL0     C15488  10.205  10.337   1.796 -0.9145 -0.3091 -0.4921
  113MOL0     C15489  10.205  10.384   1.664  0.5521  0.4698 -0.4215
  113MOL0     C15490  10.319  10.344   1.587  0.4741  0.0780 -0.2742
  113MOL0     C15491  10.429  10.262   1.639  0.1721 -0.3152  1.1018
  113MOL0     O15492  10.537  10.248   1.559 -0.1583  0.5461  0.3990
  113MOL0     C15493  10.657  10.203   1.625 -0.4346 -0.3393 -0.2206
  113MOL0     C15494  10.787  10.221   1.540 -0.3344  0.7270 -0.1317
  113MOL0     C15495  10.808  10.350   1.457  0.5827  0.0220  0.2116
  113MOL0     C15496  10.810  10.483   1.545 -0.3387  0.3967 -0.1211
  113MOL0     C15497  10.799  10.610   1.459  0.2657  0.1314  0.3402
  113MOL0     C15498  10.931  10.655   1.397 -0.1940 -0.0680 -0.3472
  113MOL0     C15499  10.929  10.798   1.338  0.4530  0.2845  0.6550
  113MOL0     C15500  11.047  10.806   1.237 -0.2059 -0.3132 -0.6265
  113MOL0    Cl15501  11.051  10.980   1.182 -0.0132  0.0762 -0.2252
  113MOL0     C15502  10.420  10.230   1.773 -0.0353 -1.0321 -0.2585
  113MOL0     C15503  10.316  10.273   1.851 -0.0165 -0.3812 -0.9962
  113MOL0     O15504  10.092  10.603   1.853 -0.3071  0.2294  0.2757
  113MOL0     C15505   9.808  10.423   1.913 -0.2130  0.5328 -0.0580
  113MOL0     C15506   9.676  10.429   1.963 -0.3259 -0.1375 -0.2133
  113MOL0     N15507   9.188  10.012   2.094 -0.1391  0.0700 -0.4896
  113MOL0     N15508   9.207   9.913   2.016 -0.3212  0.3343  0.5229
  113MOL0     C15509  10.150   9.980   1.183  0.2880  0.5816 -0.9849
  113MOL0     C15510  10.265   9.972   1.101 -0.3696 -0.5254 -0.4245
  113MOL0     C15511  10.746   9.986   1.032 -0.1074  0.1261 -0.5590
  113MOL0     C15512  10.731   9.912   0.914 -0.6327  0.4095  0.1062
  113MOL0     C15513  10.831   9.847   0.845 -0.7087  0.7940 -0.4697
  113MOL0     C15514  10.964   9.876   0.893  0.9110 -0.1963  0.5666
  113MOL0     O15515  11.082   9.849   0.828 -0.2599  0.6291  0.0292
  113MOL0     C15516  11.088   9.795   0.697 -0.1795 -0.3097 -0.5013
  113MOL0     C15517  11.064   9.649   0.683 -0.0594 -0.5369  0.6118
  113MOL0     C15518  11.050   9.617   0.534 -0.6095  0.9473  0.3567
  113MOL0     C15519  11.187   9.606   0.463 -0.0960  0.3901  0.0475
  113MOL0     C15520  11.192   9.483   0.394 -0.0536  0.1860 -0.2680
  113MOL0     C15521  11.192   9.385   0.316 -0.8899 -0.0710 -1.0159
  113MOL0     C15522  10.979   9.952   1.012  0.0287 -0.2749 -0.7215
  113MOL0     C15523  10.878  10.000   1.084  1.2107 -0.4607  0.2818
  113MOL0     C15524  10.908  10.079   1.212  0.2623 -0.1511  0.6322
  113MOL0     H15525  10.512  10.036   1.338  0.8542 -2.4281 -0.6217
  113MOL0     H15526  10.292  10.073   1.474  2.3354 -4.3032  1.3526
  113MOL0     H15527  10.094  10.204   1.523  0.4489 -0.2203  1.9829
  113MOL0     H15528  10.103  10.041   1.575  0.5249  1.1781 -0.0539
  113MOL0     H15529   9.915  10.205   1.648 -0.4910  0.7697 -1.0921
  113MOL0     H15530   9.836  10.146   1.499  0.7739 -0.1860  0.2811
  113MOL0     H15531   9.843   9.915   1.584  0.0237  0.9709 -1.4851
  113MOL0     H15532   9.913   9.979   1.741  1.0022  0.4728 -0.6706
  113MOL0     H15533   9.709  10.109   1.770  0.2732  1.1825 -0.2065
  113MOL0     H15534   9.630  10.022   1.645 -1.3923 -3.2954  0.5986
  113MOL0     H15535   9.742   9.894   1.897  0.2948 -0.7493  0.1759
  113MOL0     H15536   9.725   9.798   1.748 -2.4976  0.8414 -2.4420
  113MOL0     H15537   9.521   9.962   1.894 -1.0420  0.9644 -1.5345
  113MOL0     H15538   9.482   9.857   1.750 -0.4515 -0.4490  0.3375
  113MOL0     H15539   9.578   9.742   2.016  0.9027  0.1567 -0.5391
  113MOL0     H15540   9.532   9.653   1.873  0.0779 -0.8059  0.7885
  113MOL0     H15541   9.303   9.722   1.887 -0.0974  1.3990 -1.5821
  113MOL0     H15542   9.370   9.647   2.043  4.2723  0.6007  1.1504
  113MOL0     H15543   9.453   9.888   2.225  0.1257  2.6314  0.2151
  113MOL0     H15544   9.414  10.093   2.335 -1.1188 -2.8394  1.5485
  113MOL0     H15545   9.248  10.106   2.384 -1.6393  1.2145 -1.0657
  113MOL0     H15546   9.219  10.273   2.185 -1.7007 -1.4445  2.2416
  113MOL0     H15547   9.275  10.326   2.330 -4.9139 -1.7436 -0.7551
  113MOL0     H15548   9.521  10.316   2.234 -0.9679  2.4794  0.4353
  113MOL0     H15549   9.461  10.232   2.094  0.6876  0.8560 -0.1162
  113MOL0     H15550   9.410  10.438   1.993 -3.7601  0.0592  0.2350
  113MOL0     H15551   9.328  10.498   2.134  0.6173  1.1849 -0.1091
  113MOL0     H15552   9.735  10.663   2.199  0.2394  2.5105 -1.2125
  113MOL0     H15553  10.000  10.774   2.101 -0.4152  1.0426  1.4797
  113MOL0     H15554  10.083  10.620   2.142 -0.9589 -2.5808  0.7720
  113MOL0     H15555   9.970  10.676   2.252  1.8147 -0.4249 -0.2804
  113MOL0     H15556  10.111  10.422   1.626 -0.2428 -1.6224 -0.6861
  113MOL0     H15557  10.314  10.371   1.482 -0.1365  0.0051 -0.2677
  113MOL0     H15558  10.684  10.262   1.713  0.8680 -1.5652  0.2447
  113MOL0     H15559  10.656  10.095   1.642  1.8267 -1.0586 -3.7261
  113MOL0     H15560  10.873  10.209   1.607 -1.8272  0.0997  1.7897
  113MOL0     H15561  10.800  10.134   1.475  0.4103 -0.4366  1.5152
  113MOL0     H15562  10.721  10.355   1.391 -0.6628 -2.4023  1.5277
  113MOL0     H15563  10.897  10.355   1.393 -0.1098  2.2235 -0.6871
  113MOL0     H15564  10.903  10.479   1.602 -0.0709 -0.7711 -0.6115
  113MOL0     H15565  10.726  10.486   1.615 -1.0556 -1.7195 -0.7954
  113MOL0     H15566  10.719  10.611   1.385 -0.0696 -0.3023  0.6920
  113MOL0     H15567  10.769  10.680   1.538 -0.7192  2.2246 -1.7562
  113MOL0     H15568  10.965  10.584   1.322  1.2899 -0.4213  0.6130
  113MOL0     H15569  11.008  10.655   1.475 -0.9462  1.0750  0.4357
  113MOL0     H15570  10.930  10.888   1.400  1.4819  1.1809 -0.6138
  113MOL0     H15571  10.836  10.812   1.281 -0.7494 -0.2411  2.3859
  113MOL0     H15572  11.036  10.742   1.149  1.9141  0.8606 -1.8414
  113MOL0     H15573  11.148  10.786   1.275 -0.2809 -0.8690 -0.7035
  113MOL0     H15574  10.494  10.173   1.828 -1.2925 -1.4562  1.0476
  113MOL0     H15575  10.319  10.257   1.958 -2.5496 -1.0968 -0.9696
  113MOL0     H15576   9.839  10.351   1.837 -0.5578  1.7527 -1.4025
  113MOL0     H15577   9.602  10.358   1.925 -1.2453 -0.8683  2.6345
  113MOL0     H15578  10.051   9.952   1.148  0.4116  1.1828 -1.8556
  113MOL0     H15579  10.254   9.928   1.002 -0.6858  0.5978 -0.8973
  113MOL0     H15580  10.629   9.876   0.903 -0.1994 -0.7699 -0.2688
  113MOL0     H15581  10.800   9.780   0.766  0.2913  0.0837 -0.2865
  113MOL0     H15582  11.022   9.855   0.633 -1.7740  0.0747  1.3938
  113MOL0     H15583  11.190   9.819   0.668  0.0658 -1.7566 -0.9063
  113MOL0     H15584  10.971   9.626   0.737 -0.2992  0.1975  0.5227
  113MOL0     H15585  11.143   9.587   0.725 -0.1183 -0.6578  0.5456
  113MOL0     H15586  10.991   9.526   0.537 -1.3792  1.3116 -1.9690
  113MOL0     H15587  10.995   9.696   0.481 -2.0994  0.1903  0.7372
  113MOL0     H15588  11.272   9.615   0.531 -0.7237  0.9451  0.7781
  113MOL0     H15589  11.199   9.681   0.385  1.9708  0.6352  0.5289
  113MOL0     H15590  11.188   9.318   0.233  1.1396  0.3799 -1.5289
  113MOL0     H15591  11.084   9.958   1.039 -0.0740 -2.3066  0.2991
  113MOL0     H15592  10.882  10.184   1.195  2.1213  0.1843 -0.3205
  113MOL0     H15593  10.842  10.034   1.288 -2.2088 -1.6728 -2.2054
  113MOL0     H15594  11.015  10.075   1.234  0.8679  1.4934 -1.6376
  114MOL0     O15595   9.863  10.543   2.763  0.0647  0.1521  0.1765
  114MOL0     C15596   9.840  10.467   2.858  0.2338  0.2410  0.2871
  114MOL0     O15597   9.928  10.389   2.923  0.0624 -0.6403  0.1110
  114MOL0     C15598  10.059  10.406   2.888  0.2389  0.3757 -0.3378
  114MOL0     C15599  10.120  10.315   2.805  0.4005  0.1294 -0.9654
  114MOL0     C15600  10.248  10.337   2.764 -1.2001 -0.7303 -0.1594
  114MOL0     C15601  10.322  10.448   2.802 -0.2041  0.0829 -0.2850
  114MOL0     O15602  10.451  10.476   2.773  0.2125 -0.0292  0.2025
  114MOL0     C15603  10.509  10.405   2.662 -0.0683 -0.0236  0.4848
  114MOL0     C15604  10.658  10.438   2.646  0.1658 -0.0461  0.0164
  114MOL0     C15605  10.704  10.415   2.507  0.5507  0.2409  0.3011
  114MOL0     C15606  10.850  10.446   2.503  0.8225 -0.0020  0.1607
  114MOL0     C15607  10.902  10.421   2.368  0.4644 -0.0965 -0.1480
  114MOL0     C15608  11.059  10.438   2.340 -0.4170  0.5837 -0.2893
  114MOL0     C15609  11.137  10.353   2.435  0.6306 -0.2999  0.3820
  114MOL0     C15610  11.275  10.348   2.386 -0.8423  0.3252 -0.9461
  114MOL0     N15611  11.375  10.272   2.465  0.4152  0.0305 -0.0928
  114MOL0     C15612  11.512  10.288   2.457  0.1981 -0.3250 -0.5327
  114MOL0     C15613  11.572  10.205   2.549 -0.1815  0.0900 -0.6911
  114MOL0     C15614  11.716  10.183   2.588  0.2344  0.1144 -0.0797
  114MOL0     C15615  11.766  10.302   2.657 -0.1267 -0.3579 -0.2080
  114MOL0     C15616  11.911  10.285   2.703  0.4794  0.3052 -0.5912
  114MOL0     C15617  12.011  10.281   2.592 -0.1319 -0.5966  0.7058
  114MOL0     O15618  12.144  10.274   2.649  0.1743 -0.1607  0.6032
  114MOL0     C15619  12.257  10.253   2.568  0.2735  0.3554  0.3949
  114MOL0     C15620  12.374  10.216   2.637  0.4342 -0.4506 -0.5838
  114MOL0     C15621  12.491  10.193   2.559 -0.5972  0.3141 -0.1389
  114MOL0     C15622  12.621  10.157   2.627 -0.5258  0.1407 -0.5224
  114MOL0     C15623  12.487  10.209   2.414  0.0940 -0.9027 -0.3206
  114MOL0     C15624  12.611  10.209   2.333 -0.2571 -0.0811  0.1671
  114MOL0     O15625  12.609  10.274   2.207  0.7392 -0.0269 -0.1924
  114MOL0     C15626  12.721  10.270   2.124  0.8465  0.7027  0.1509
  114MOL0     C15627  12.776  10.155   2.076  0.7805  0.2354  0.2669
  114MOL0     C15628  12.884  10.166   1.995 -0.1343  0.8030  0.2613
  114MOL0     C15629  12.951  10.279   1.974 -0.9197 -0.1075  0.1242
  114MOL0     O15630  13.072  10.289   1.908  0.5984 -0.4095 -0.3297
  114MOL0     C15631  13.182  10.219   1.972  0.5169  1.0978  0.0287
  114MOL0     C15632  13.314  10.253   1.917 -0.0438 -0.5522 -0.5525
  114MOL0     C15633  13.323  10.228   1.770  0.2311  0.5027  0.0042
  114MOL0     C15634  13.457  10.281   1.707  0.1073 -0.1530 -0.7708
  114MOL0     C15635  13.481  10.200   1.574  0.4067  1.0265  0.2949
  114MOL0     C15636  13.616  10.255   1.501 -0.1267  0.2900 -0.3361
  114MOL0     C15637  13.642  10.179   1.370  0.1367  0.0224  0.1010
  114MOL0     C15638  13.746  10.253   1.276  0.3960 -0.0335  0.4768
  114MOL0    Cl15639  13.661  10.403   1.221 -0.1806  0.7989  0.3665
  114MOL0     C15640  12.910  10.396   2.029  0.1858 -0.0669  0.8831
  114MOL0     C15641  12.787  10.390   2.101  0.4398 -0.5055 -0.6260
  114MOL0     O15642  12.713  10.157   2.376 -0.2302  0.1084 -0.3491
  114MOL0     C15643  12.358  10.253   2.353 -1.0933 -0.4184 -0.5310
  114MOL0     C15644  12.251  10.266   2.432 -0.4149  0.0783  0.1209
  114MOL0     N15645  11.465  10.139   2.613 -0.5582  0.2727  0.4553
  114MOL0     N15646  11.351  10.184   2.566  0.2736  0.2657  0.2134
  114MOL0     C15647  10.259  10.541   2.880  0.1525 -0.3013  0.4016
  114MOL0     C15648  10.118  10.523   2.916 -0.5494  0.0346  0.3425
  114MOL0     C15649   9.707  10.476   2.912  0.3790 -1.2258 -0.1355
  114MOL0     C15650   9.628  10.591   2.882  0.3470  0.2284  0.5966
  114MOL0     C15651   9.500  10.605   2.923 -0.7166  0.3972 -0.1025
  114MOL0     C15652   9.436  10.502   2.997  0.3855  0.3094  1.2009
  114MOL0     O15653   9.308  10.514   3.024  0.4943  0.0246 -0.4375
  114MOL0     C15654   9.215  10.599   2.954 -0.1904  0.7698  0.0942
  114MOL0     C15655   9.165  10.535   2.824 -0.7220  0.7732 -0.7972
  114MOL0     C15656   9.049  10.613   2.768  0.2661 -0.7162 -0.7685
  114MOL0     C15657   8.998  10.551   2.635  0.5222 -1.2248 -0.7214
  114MOL0     C15658   8.896  10.643   2.579 -1.0570  0.4285  0.4831
  114MOL0     C15659   8.835  10.732   2.514  0.6510  0.2519 -0.6349
  114MOL0     C15660   9.509  10.392   3.030 -1.0600  0.2991 -0.1908
  114MOL0     C15661   9.638  10.373   2.983  0.6766 -0.5806  0.1257
  114MOL0     C15662   9.705  10.242   3.017 -1.3561  0.4238  0.5994
  114MOL0     H15663  10.068  10.228   2.767  0.2805 -1.0270  1.6393
  114MOL0     H15664  10.286  10.262   2.695  1.4634 -0.5668  1.0159
  114MOL0     H15665  10.456  10.440   2.573  0.7017  3.5794  1.3210
  114MOL0     H15666  10.508  10.296   2.672  0.6152 -0.3226 -2.0649
  114MOL0     H15667  10.668  10.541   2.679 -0.6288 -0.5843  2.0621
  114MOL0     H15668  10.729  10.379   2.705  1.8760  3.7431  2.0852
  114MOL0     H15669  10.690  10.310   2.480  3.9216 -0.6894  1.5583
  114MOL0     H15670  10.658  10.473   2.427 -0.6058 -0.6119  0.3266
  114MOL0     H15671  10.872  10.549   2.532  0.4549  0.3523 -0.7991
  114MOL0     H15672  10.905  10.382   2.573 -2.2926 -0.2233  2.6479
  114MOL0     H15673  10.846  10.485   2.299 -1.3418 -0.6990  0.6904
  114MOL0     H15674  10.879  10.317   2.347  0.8626 -0.2087 -0.0404
  114MOL0     H15675  11.077  10.410   2.236 -0.3995  3.3538 -1.1255
  114MOL0     H15676  11.093  10.541   2.359 -1.6487  0.7470  1.2287
  114MOL0     H15677  11.095  10.253   2.451  1.4427 -0.5262  1.1984
  114MOL0     H15678  11.124  10.391   2.536  1.8811 -1.0130  0.8383
  114MOL0     H15679  11.264  10.300   2.288 -1.2568  0.1067 -0.7953
  114MOL0     H15680  11.316  10.449   2.372  2.8159 -0.4593  2.2968
  114MOL0     H15681  11.564  10.359   2.395 -2.0685  1.7923 -0.1924
  114MOL0     H15682  11.778  10.162   2.501 -3.1158  0.4048 -2.7455
  114MOL0     H15683  11.725  10.101   2.661 -0.8690  2.1286  2.4646
  114MOL0     H15684  11.755  10.386   2.587  2.6819 -1.0890 -1.6491
  114MOL0     H15685  11.715  10.322   2.752  1.3691 -0.1356  0.5697
  114MOL0     H15686  11.934  10.371   2.767 -1.7740  2.1975 -2.1501
  114MOL0     H15687  11.916  10.196   2.766 -1.4597 -0.7426 -1.8161
  114MOL0     H15688  11.992  10.196   2.526 -1.4699 -0.5068  0.9495
  114MOL0     H15689  12.005  10.379   2.543 -2.0151 -0.6962  0.6796
  114MOL0     H15690  12.363  10.212   2.745 -0.4900  1.8940 -0.5393
  114MOL0     H15691  12.702  10.228   2.608 -0.4640  0.1508 -0.2245
  114MOL0     H15692  12.676  10.064   2.608  3.1295  2.0786 -0.2695
  114MOL0     H15693  12.606  10.158   2.736  1.0758  0.6338 -0.2892
  114MOL0     H15694  12.724  10.061   2.092 -0.0238  0.6969  0.4420
  114MOL0     H15695  12.916  10.069   1.957 -3.6246 -0.0226 -0.9813
  114MOL0     H15696  13.177  10.231   2.081 -0.7479 -1.7386  0.3702
  114MOL0     H15697  13.173  10.112   1.951  1.6119  1.0163 -0.0852
  114MOL0     H15698  13.322  10.360   1.937 -1.3538 -0.3985 -0.7804
  114MOL0     H15699  13.402  10.207   1.962  0.4773  0.4997 -0.4595
  114MOL0     H15700  13.233  10.266   1.719  0.9249  2.3017  0.0571
  114MOL0     H15701  13.336  10.120   1.759  3.3173  0.6102  1.7069
  114MOL0     H15702  13.540  10.263   1.776 -2.1524 -1.1353  1.8958
  114MOL0     H15703  13.441  10.387   1.687 -0.8011 -0.3624 -1.2045
  114MOL0     H15704  13.491  10.092   1.588  0.2715  1.0581  0.6512
  114MOL0     H15705  13.398  10.208   1.503 -1.1667 -3.0064  1.4110
  114MOL0     H15706  13.700  10.242   1.571  1.7597  2.6275 -2.0040
  114MOL0     H15707  13.610  10.363   1.484 -0.3660  0.5108  1.0133
  114MOL0     H15708  13.545  10.168   1.322  0.0844 -1.0649  0.4349
  114MOL0     H15709  13.674  10.079   1.401 -1.0615  0.1659  1.9433
  114MOL0     H15710  13.777  10.187   1.194 -0.1014 -2.0720  1.8687
  114MOL0     H15711  13.841  10.272   1.326  1.5567 -1.5623 -1.0390
  114MOL0     H15712  12.963  10.490   2.018  2.5551 -1.5508 -2.1065
  114MOL0     H15713  12.753  10.480   2.152 -0.8479 -2.4597  2.2673
  114MOL0     H15714  12.359  10.266   2.245  0.9859 -1.7469 -0.7268
  114MOL0     H15715  12.160  10.303   2.385 -1.5617  1.8095  3.3955
  114MOL0     H15716  10.310  10.629   2.918  1.4794 -0.5225 -0.7675
  114MOL0     H15717  10.062  10.594   2.977 -0.7544 -0.4694  0.7471
  114MOL0     H15718   9.661  10.666   2.811  2.1186 -1.1345 -0.0702
  114MOL0     H15719   9.458  10.704   2.909 -3.3432 -0.9386 -2.8310
  114MOL0     H15720   9.124  10.614   3.013 -0.0764  0.9330  0.2285
  114MOL0     H15721   9.256  10.698   2.930 -0.5486  1.0507  0.6278
  114MOL0     H15722   9.130  10.436   2.857 -0.2238  0.0615 -2.3279
  114MOL0     H15723   9.248  10.530   2.753  1.0011  0.3625  1.1389
  114MOL0     H15724   8.961  10.609   2.833 -0.6588  0.7889 -1.8571
  114MOL0     H15725   9.073  10.718   2.754 -2.4584  0.0098 -0.6928
  114MOL0     H15726   8.953  10.452   2.645  0.0011 -0.8654  0.7600
  114MOL0     H15727   9.088  10.534   2.575  0.4038  0.0760 -1.3023
  114MOL0     H15728   8.773  10.806   2.467  0.6354  0.9966  0.5032
  114MOL0     H15729   9.465  10.320   3.098 -0.4393  0.2736  0.1947
  114MOL0     H15730   9.639  10.162   3.051  0.3810 -0.7811  1.3513
  114MOL0     H15731   9.759  10.198   2.933 -1.0877  0.1982  0.8855
  114MOL0     H15732   9.785  10.258   3.090 -2.1734 -0.7669  1.7968
  115MOL0     O15733   4.009   8.440   2.185  0.2243 -0.1533  0.2553
  115MOL0     C15734   3.960   8.555   2.152 -0.1991  0.9065  0.6684
  115MOL0     O15735   4.025   8.667   2.147 -0.4499  0.5707  0.4873
  115MOL0     C15736   4.159   8.667   2.177  0.9580 -0.7940 -0.4385
  115MOL0     C15737   4.254   8.669   2.080  0.4543  0.3685  0.0636
  115MOL0     C15738   4.393   8.678   2.100 -0.8924  0.1663  0.2160
  115MOL0     C15739   4.436   8.679   2.233 -0.1168 -0.2327  0.1018
  115MOL0     O15740   4.564   8.702   2.259 -0.4230 -0.0294 -0.4183
  115MOL0     C15741   4.612   8.706   2.394  0.3331 -0.2975  0.0516
  115MOL0     C15742   4.766   8.692   2.379  0.6941  0.2651  0.0472
  115MOL0     C15743   4.831   8.827   2.341  0.1843  0.2999  0.1194
  115MOL0     C15744   4.981   8.822   2.347  0.4614 -0.1399  0.0996
  115MOL0     C15745   5.040   8.961   2.311  0.5527  0.5068  0.9481
  115MOL0     C15746   5.187   8.966   2.338  0.3180 -0.6766 -0.4944
  115MOL0     C15747   5.250   9.102   2.320 -0.0450  0.5022 -0.1284
  115MOL0     C15748   5.248   9.178   2.454 -0.0665  0.4579  0.5368
  115MOL0     N15749   5.322   9.307   2.432  0.3594 -0.1160 -0.1300
  115MOL0     C15750   5.446   9.327   2.380  0.8368  0.7231 -0.5549
  115MOL0     C15751   5.484   9.450   2.435  0.0941  0.2478  0.0053
  115MOL0     C15752   5.612   9.536   2.397 -0.0655 -0.0241 -0.0119
  115MOL0     C15753   5.705   9.513   2.512 -0.4346 -0.4063  0.1975
  115MOL0     C15754   5.815   9.617   2.521  0.0856 -0.1090 -0.1668
  115MOL0     C15755   5.896   9.599   2.644 -0.0250 -0.1478 -0.0405
  115MOL0     O15756   5.966   9.721   2.672 -0.3818  0.1282 -0.1389
  115MOL0     C15757   6.091   9.708   2.723 -0.0612  0.8200 -0.1892
  115MOL0     C15758   6.094   9.616   2.835 -0.4664 -0.0484  0.0492
  115MOL0     C15759   6.213   9.612   2.914  0.1402 -0.6465 -0.1519
  115MOL0     C15760   6.219   9.510   3.024 -0.3221 -0.4042 -0.4149
  115MOL0     C15761   6.325   9.694   2.884  0.4104 -0.2516 -0.5383
  115MOL0     C15762   6.448   9.698   2.964 -0.0937 -0.8266  0.1923
  115MOL0     O15763   6.554   9.773   2.915 -0.5096 -0.3098 -0.3257
  115MOL0     C15764   6.666   9.782   2.996  0.2920 -0.4398  0.7599
  115MOL0     C15765   6.781   9.756   2.925 -0.7364 -0.1566  0.2726
  115MOL0     C15766   6.900   9.770   2.993 -0.1397 -0.0822 -0.0392
  115MOL0     C15767   6.909   9.827   3.121  0.2563  0.7466 -0.0692
  115MOL0     O15768   7.026   9.836   3.196  0.1559  0.0373 -0.2205
  115MOL0     C15769   7.160   9.795   3.162 -0.1233  0.3140  0.4566
  115MOL0     C15770   7.205   9.697   3.268  0.0072  0.3551 -1.0171
  115MOL0     C15771   7.359   9.691   3.254 -0.5011  0.2736 -0.2981
  115MOL0     C15772   7.405   9.599   3.134 -0.3254 -0.2344 -0.2128
  115MOL0     C15773   7.559   9.576   3.151  0.2536 -0.3099  0.3073
  115MOL0     C15774   7.633   9.571   3.015 -0.2798 -0.1223 -0.0616
  115MOL0     C15775   7.785   9.587   3.045 -0.6110 -0.1071  0.0697
  115MOL0     C15776   7.876   9.581   2.916  0.2704 -0.1423 -0.2661
  115MOL0    Cl15777   8.054   9.550   2.967  0.3519  0.0001 -0.2930
  115MOL0     C15778   6.784   9.868   3.181 -1.1933  0.3212 -0.2411
  115MOL0     C15779   6.667   9.842   3.115  0.1067  0.8135 -0.0385
  115MOL0     O15780   6.450   9.647   3.072  0.0377  0.8734 -0.3025
  115MOL0     C15781   6.312   9.795   2.782  0.9562 -0.6550 -0.0955
  115MOL0     C15782   6.192   9.801   2.702  0.3773  0.2455  0.1567
  115MOL0     N15783   5.384   9.493   2.512  0.4321 -0.0631  0.2115
  115MOL0     N15784   5.287   9.411   2.504  0.5943  0.1906 -1.0582
  115MOL0     C15785   4.329   8.683   2.337 -0.7383 -0.5422  0.6606
  115MOL0     C15786   4.196   8.676   2.315 -0.2483 -0.8106  0.1669
  115MOL0     C15787   3.805   8.556   2.140  0.2605  0.6146 -0.3457
  115MOL0     C15788   3.726   8.454   2.210 -0.1230 -0.3870  0.1036
  115MOL0     C15789   3.587   8.452   2.198 -0.0475 -0.2512 -0.7181
  115MOL0     C15790   3.526   8.554   2.120 -0.0878 -1.0366 -0.1038
  115MOL0     O15791   3.396   8.574   2.088  0.4133 -0.1673 -0.1558
  115MOL0     C15792   3.302   8.486   2.152  0.5248 -0.5036  0.5805
  115MOL0     C15793   3.164   8.547   2.140  0.1849  0.5429  0.2512
  115MOL0     C15794   3.075   8.444   2.219  0.6934  0.0124 -0.4097
  115MOL0     C15795   2.928   8.498   2.205  0.3026 -1.0848  0.8123
  115MOL0     C15796   2.834   8.400   2.266 -0.1206  0.0908 -1.0166
  115MOL0     C15797   2.763   8.324   2.324 -0.1711 -0.4775 -0.5685
  115MOL0     C15798   3.598   8.640   2.042 -1.0634 -0.3138  0.0843
  115MOL0     C15799   3.741   8.653   2.063 -0.0811  1.0460  0.6515
  115MOL0     C15800   3.800   8.767   1.980  0.1785  0.3844 -0.4756
  115MOL0     H15801   4.208   8.668   1.981  0.4117 -0.9971  0.0908
  115MOL0     H15802   4.466   8.696   2.022  0.1013 -2.5153  0.4130
  115MOL0     H15803   4.567   8.622   2.448  1.2254  0.0194  1.3240
  115MOL0     H15804   4.585   8.798   2.446  2.4456  0.5962 -0.3253
  115MOL0     H15805   4.797   8.668   2.481 -2.6975 -3.4826  0.4194
  115MOL0     H15806   4.808   8.619   2.309  0.4642  2.1087 -2.1381
  115MOL0     H15807   4.801   8.856   2.239 -1.8544  0.8887  0.8381
  115MOL0     H15808   4.799   8.905   2.411  3.9580  1.0682  1.2142
  115MOL0     H15809   5.004   8.804   2.453  1.2964 -2.1129 -0.3757
  115MOL0     H15810   5.012   8.734   2.289 -1.3984 -0.8212  0.0809
  115MOL0     H15811   4.980   9.034   2.367 -3.9366 -1.7336 -0.4131
  115MOL0     H15812   5.031   8.986   2.204  2.7995  1.8143  1.0079
  115MOL0     H15813   5.215   8.930   2.437  1.7148 -0.6951 -0.8721
  115MOL0     H15814   5.249   8.907   2.270  1.8345  0.6333 -0.3154
  115MOL0     H15815   5.193   9.168   2.252 -2.2842  0.4878  1.6133
  115MOL0     H15816   5.353   9.084   2.289  0.3872 -2.3720  2.5646
  115MOL0     H15817   5.144   9.184   2.485 -0.5995 -1.0442 -0.8244
  115MOL0     H15818   5.306   9.111   2.519  1.1060 -0.2080 -1.1264
  115MOL0     H15819   5.490   9.270   2.299  0.2187 -1.1821  0.3734
  115MOL0     H15820   5.593   9.644   2.394  0.9656  0.1342 -1.2575
  115MOL0     H15821   5.652   9.496   2.303 -0.3549  0.7428 -0.4681
  115MOL0     H15822   5.639   9.527   2.598  0.3302  2.3632  0.4329
  115MOL0     H15823   5.747   9.412   2.507 -0.3992 -0.6335  3.2589
  115MOL0     H15824   5.878   9.609   2.432  1.7262  1.4747  0.7680
  115MOL0     H15825   5.765   9.715   2.527  0.3028 -0.0600  1.0825
  115MOL0     H15826   5.824   9.582   2.724 -0.1027 -1.5811 -0.3811
  115MOL0     H15827   5.959   9.510   2.630  0.2165 -0.2340  1.4172
  115MOL0     H15828   6.005   9.557   2.855  0.7311 -2.4150 -1.0989
  115MOL0     H15829   6.219   9.567   3.117 -0.6767  2.2106 -1.9144
  115MOL0     H15830   6.307   9.447   3.011  0.7155  1.1275 -1.0233
  115MOL0     H15831   6.130   9.446   3.031  0.1207 -0.9267  0.5206
  115MOL0     H15832   6.776   9.722   2.822  2.4072  1.6169 -0.5987
  115MOL0     H15833   6.990   9.749   2.936  0.4550  1.4841  0.2758
  115MOL0     H15834   7.168   9.743   3.066  1.0045 -1.5055  1.4786
  115MOL0     H15835   7.227   9.882   3.163  1.0726 -0.5780  1.9936
  115MOL0     H15836   7.170   9.733   3.365  0.3679 -0.9851 -0.3709
  115MOL0     H15837   7.158   9.598   3.267  2.2200 -0.8491  1.6254
  115MOL0     H15838   7.403   9.654   3.347 -1.4414  0.9914  0.4499
  115MOL0     H15839   7.400   9.792   3.245  0.1294 -0.0084 -0.6520
  115MOL0     H15840   7.399   9.662   3.045  3.1196  2.5706  1.3055
  115MOL0     H15841   7.354   9.503   3.119 -0.6311 -0.2998  1.1064
  115MOL0     H15842   7.600   9.657   3.213 -1.9078  1.0301  0.0731
  115MOL0     H15843   7.570   9.475   3.190 -0.0823 -0.6849 -0.5556
  115MOL0     H15844   7.614   9.656   2.949 -0.1133  0.3696  0.5114
  115MOL0     H15845   7.610   9.481   2.959  0.0667 -1.7068  2.1986
  115MOL0     H15846   7.818   9.503   3.106 -1.4148 -1.5789 -1.4258
  115MOL0     H15847   7.808   9.682   3.093  2.5266 -1.3440  1.3233
  115MOL0     H15848   7.858   9.664   2.847 -1.4535  1.2336  1.7020
  115MOL0     H15849   7.839   9.501   2.851 -2.7559  1.4157 -0.6747
  115MOL0     H15850   6.781   9.907   3.282 -2.2332  1.2993 -0.6244
  115MOL0     H15851   6.569   9.871   3.152 -0.7851 -0.6112 -1.1388
  115MOL0     H15852   6.394   9.863   2.759 -0.4238  0.7277 -1.1128
  115MOL0     H15853   6.170   9.869   2.620 -1.4856 -0.7780 -0.2311
  115MOL0     H15854   4.356   8.689   2.442  0.1560 -1.2090  0.4790
  115MOL0     H15855   4.128   8.678   2.400 -1.4575 -0.2126 -0.7865
  115MOL0     H15856   3.777   8.391   2.281  0.0183  1.7225  1.9819
  115MOL0     H15857   3.538   8.378   2.261 -0.5582  1.0614  0.4843
  115MOL0     H15858   3.303   8.389   2.101  1.6582 -1.2719  1.9898
  115MOL0     H15859   3.320   8.465   2.257  0.5659 -0.0208  0.6716
  115MOL0     H15860   3.145   8.544   2.032  0.0142 -1.0642  0.3049
  115MOL0     H15861   3.157   8.647   2.184 -0.8200  0.3787  0.4756
  115MOL0     H15862   3.086   8.345   2.175  0.7427 -0.0101 -0.3454
  115MOL0     H15863   3.098   8.442   2.325 -0.1308  1.0031 -0.1878
  115MOL0     H15864   2.899   8.506   2.100 -0.5099 -1.2499  1.0187
  115MOL0     H15865   2.931   8.596   2.253  2.9849 -1.1406  0.9194
  115MOL0     H15866   2.712   8.246   2.377  2.0674 -1.4540  0.2933
  115MOL0     H15867   3.540   8.702   1.974  1.2488  0.3695 -1.3856
  115MOL0     H15868   3.874   8.732   1.907  1.0477  0.2154  0.4718
  115MOL0     H15869   3.721   8.816   1.921  2.6785  3.0814 -1.8542
  115MOL0     H15870   3.852   8.844   2.037  1.2496  0.3471 -1.3536
  116MOL0     O15871   6.576  10.373   4.923  0.2884 -0.2858 -0.3455
  116MOL0     C15872   6.503  10.408   4.834  0.0958 -0.4412 -0.0489
  116MOL0     O15873   6.529  10.503   4.746 -0.6996  0.7049  0.3869
  116MOL0     C15874   6.661  10.543   4.749 -0.5991  0.4978 -1.5941
  116MOL0     C15875   6.712  10.636   4.848  0.7302 -0.0058 -0.0500
  116MOL0     C15876   6.849  10.680   4.834 -0.0912  0.1141 -0.3437
  116MOL0     C15877   6.933  10.643   4.728  0.0855 -0.5713 -0.5489
  116MOL0     O15878   7.057  10.698   4.731  0.2117 -0.2582  0.3421
  116MOL0     C15879   7.132  10.688   4.607  0.4131  0.2062 -0.3158
  116MOL0     C15880   7.209  10.555   4.589 -0.1916 -0.3612 -1.1859
  116MOL0     C15881   7.278  10.528   4.459 -0.4234  0.4146  0.2455
  116MOL0     C15882   7.375  10.645   4.419 -0.3366 -0.0947  0.1706
  116MOL0     C15883   7.488  10.602   4.315 -0.2143  0.5434 -0.2768
  116MOL0     C15884   7.607  10.536   4.386  0.1981  0.5481  0.1492
  116MOL0     C15885   7.726  10.533   4.294  0.0945  0.7380 -0.4032
  116MOL0     C15886   7.779  10.672   4.272 -0.1285 -0.7435  0.3541
  116MOL0     N15887   7.902  10.678   4.199 -0.0328 -0.6742  0.3493
  116MOL0     C15888   8.029  10.721   4.241 -0.2979  0.7816  0.5604
  116MOL0     C15889   8.108  10.710   4.124  0.1734 -1.1668  0.3716
  116MOL0     C15890   8.252  10.746   4.103 -0.4562 -0.8021 -1.0156
  116MOL0     C15891   8.364  10.676   4.189  0.7553 -0.3978  0.0888
  116MOL0     C15892   8.372  10.526   4.164  1.2467  0.0614 -0.7499
  116MOL0     C15893   8.491  10.474   4.244 -1.4377  0.0591  0.2047
  116MOL0     O15894   8.482  10.332   4.227 -0.3433  0.2529  0.2194
  116MOL0     C15895   8.585  10.252   4.268 -0.1318 -0.4908  0.2631
  116MOL0     C15896   8.551  10.138   4.344  0.8507 -0.5499  0.5697
  116MOL0     C15897   8.640  10.043   4.389  0.2726  0.8091  0.4272
  116MOL0     C15898   8.580   9.920   4.454 -0.1516  0.0731 -0.3756
  116MOL0     C15899   8.777  10.061   4.344  0.1485  0.3527 -0.1222
  116MOL0     C15900   8.887   9.962   4.365 -0.3635 -0.1686 -0.5701
  116MOL0     O15901   9.010  10.009   4.329 -1.0390  0.1008  0.1779
  116MOL0     C15902   9.133   9.969   4.384  0.3581 -0.3116  0.0643
  116MOL0     C15903   9.141   9.893   4.502 -0.4619 -0.1038  0.2315
  116MOL0     C15904   9.265   9.862   4.557 -0.9593  0.5267  0.3181
  116MOL0     C15905   9.375   9.919   4.506 -0.2372  0.9760  0.0913
  116MOL0     O15906   9.500   9.909   4.554 -0.0463 -0.0098  0.6091
  116MOL0     C15907   9.534   9.880   4.680  0.3996  0.5395  0.0377
  116MOL0     C15908   9.682   9.924   4.718  0.2132 -0.9170  0.0270
  116MOL0     C15909   9.673  10.080   4.732 -0.2020 -0.2133 -0.9838
  116MOL0     C15910   9.811  10.128   4.785  0.5485 -0.0039  0.2989
  116MOL0     C15911   9.925  10.128   4.671  0.2644  0.0777  0.3857
  116MOL0     C15912  10.050  10.210   4.704 -0.8267 -0.2350  0.1878
  116MOL0     C15913  10.143  10.213   4.587 -0.9033  0.0917  0.2619
  116MOL0     C15914  10.270  10.294   4.612  0.4977 -0.3475  0.4838
  116MOL0    Cl15915  10.234  10.472   4.622 -0.0436 -0.3706 -0.4030
  116MOL0     C15916   9.374   9.993   4.390 -0.4133  0.1102  0.4204
  116MOL0     C15917   9.249  10.013   4.327 -0.1406  0.3415 -0.4218
  116MOL0     O15918   8.863   9.857   4.414 -0.1005 -0.3373 -0.4598
  116MOL0     C15919   8.818  10.178   4.266 -0.0329 -0.0414  0.0938
  116MOL0     C15920   8.719  10.271   4.239 -0.6846 -0.1704  0.2163
  116MOL0     N15921   8.022  10.673   4.021  0.0345 -0.4262  1.2781
  116MOL0     N15922   7.904  10.632   4.068  0.0910 -0.5070  0.5551
  116MOL0     C15923   6.872  10.562   4.627 -0.1570 -0.1500 -0.2758
  116MOL0     C15924   6.737  10.513   4.638 -0.6212 -0.0163 -0.5405
  116MOL0     C15925   6.384  10.327   4.808  0.5374 -0.1681 -0.0171
  116MOL0     C15926   6.384  10.189   4.845 -0.3757 -0.7288 -0.1934
  116MOL0     C15927   6.260  10.123   4.846 -0.4882  0.1383  0.5451
  116MOL0     C15928   6.142  10.183   4.797 -0.4818  0.9940  0.3872
  116MOL0     O15929   6.015  10.128   4.819 -0.3438  0.3375  0.0102
  116MOL0     C15930   6.005   9.990   4.865  0.1428 -0.0009  0.2749
  116MOL0     C15931   5.868   9.943   4.877  0.1802 -0.7526  0.0762
  116MOL0     C15932   5.799   9.940   4.741 -0.1387  0.0301  0.0210
  116MOL0     C15933   5.664  10.012   4.751 -0.0256  0.4207  0.3171
  116MOL0     C15934   5.691  10.156   4.762 -0.7359 -0.7581  0.1729
  116MOL0     C15935   5.731  10.271   4.774 -0.2880 -0.0796 -0.5213
  116MOL0     C15936   6.149  10.312   4.752 -0.1206 -1.2216  0.5499
  116MOL0     C15937   6.268  10.386   4.749 -0.6266  0.2568 -0.0585
  116MOL0     C15938   6.252  10.527   4.708  0.1787  0.7777  0.2669
  116MOL0     H15939   6.643  10.665   4.927  0.3405  0.5368 -0.5810
  116MOL0     H15940   6.905  10.745   4.901 -0.7538  2.0933 -1.6205
  116MOL0     H15941   7.206  10.769   4.609 -0.6223  1.2026  1.5526
  116MOL0     H15942   7.058  10.696   4.527  0.4242 -0.7194 -0.4206
  116MOL0     H15943   7.290  10.558   4.663 -0.6546  1.1001 -0.6944
  116MOL0     H15944   7.138  10.474   4.610 -0.4960  0.4152  1.0708
  116MOL0     H15945   7.319  10.428   4.480 -2.9908 -0.5218  1.2448
  116MOL0     H15946   7.211  10.517   4.373  0.6798 -0.0085 -0.5831
  116MOL0     H15947   7.319  10.730   4.381  1.3747  0.0883 -2.1828
  116MOL0     H15948   7.431  10.677   4.507 -1.4073  3.4326 -0.3005
  116MOL0     H15949   7.510  10.684   4.247 -0.0779  2.7065  2.1936
  116MOL0     H15950   7.448  10.514   4.264  1.8037 -1.5285  1.4887
  116MOL0     H15951   7.624  10.598   4.475  2.7592  0.8415 -0.4687
  116MOL0     H15952   7.596  10.440   4.437  3.1531  0.0113 -0.0324
  116MOL0     H15953   7.716  10.484   4.197  1.9464  1.0161 -0.7777
  116MOL0     H15954   7.801  10.478   4.352 -1.2360 -1.7546 -0.9307
  116MOL0     H15955   7.714  10.729   4.205  0.1191  1.2107  1.7043
  116MOL0     H15956   7.783  10.725   4.367  0.0466  0.6833 -0.4235
  116MOL0     H15957   8.052  10.766   4.336  0.0710  2.1873 -0.1674
  116MOL0     H15958   8.252  10.854   4.123 -3.3795 -1.2059  2.3691
  116MOL0     H15959   8.281  10.734   3.999  1.1881 -0.3940 -0.6332
  116MOL0     H15960   8.460  10.723   4.168 -0.3007  2.1165  0.4621
  116MOL0     H15961   8.343  10.698   4.294 -0.2809  0.5297 -0.2817
  116MOL0     H15962   8.281  10.491   4.215  2.2133 -0.1024  0.9496
  116MOL0     H15963   8.369  10.491   4.061 -1.4955 -1.7743 -0.1592
  116MOL0     H15964   8.580  10.520   4.200 -2.7466 -0.0382 -2.7744
  116MOL0     H15965   8.485  10.498   4.351  0.2853  1.4252  0.0319
  116MOL0     H15966   8.446  10.126   4.369  0.5669 -0.9018 -0.6952
  116MOL0     H15967   8.598   9.824   4.404 -1.1137  0.1149 -0.8400
  116MOL0     H15968   8.472   9.933   4.465 -0.2107 -1.3417  1.0911
  116MOL0     H15969   8.632   9.910   4.550  5.2333  1.3230 -2.8287
  116MOL0     H15970   9.059   9.865   4.567  0.4376 -0.9428  1.0269
  116MOL0     H15971   9.267   9.801   4.647 -0.2409  0.3032  0.1576
  116MOL0     H15972   9.471   9.930   4.754  0.7147 -0.7551  1.2540
  116MOL0     H15973   9.523   9.773   4.703  1.4038  0.5889  0.8399
  116MOL0     H15974   9.700   9.878   4.816  0.6881 -1.5494 -0.3458
  116MOL0     H15975   9.757   9.893   4.645  1.1442  1.9673 -0.3591
  116MOL0     H15976   9.594  10.124   4.794 -0.7773 -0.6968 -1.3622
  116MOL0     H15977   9.670  10.112   4.627  1.2562 -1.6888 -1.5208
  116MOL0     H15978   9.849  10.066   4.867 -0.7303  2.3157  2.8034
  116MOL0     H15979   9.817  10.230   4.825  0.1936  0.0711  0.1676
  116MOL0     H15980   9.968  10.028   4.659 -0.0478 -0.2772  1.9320
  116MOL0     H15981   9.877  10.172   4.583  0.2730 -0.2019  0.2403
  116MOL0     H15982  10.112  10.168   4.784  1.9539 -0.0755 -1.7477
  116MOL0     H15983  10.009  10.308   4.729 -0.7578  0.4528 -2.1407
  116MOL0     H15984  10.090  10.267   4.507 -1.3731 -1.1075 -0.2550
  116MOL0     H15985  10.163  10.113   4.549 -0.5164  1.4735 -3.7131
  116MOL0     H15986  10.351  10.275   4.541  0.2992  2.5263 -0.6031
  116MOL0     H15987  10.318  10.248   4.700 -3.4076 -0.4911  2.7996
  116MOL0     H15988   9.470  10.037   4.365 -0.1660 -0.4520  0.3783
  116MOL0     H15989   9.236  10.059   4.229 -0.5932  0.8023 -0.1468
  116MOL0     H15990   8.922  10.192   4.237  0.7739 -2.8469  1.3631
  116MOL0     H15991   8.740  10.356   4.174 -0.3589  1.6469  2.5625
  116MOL0     H15992   6.927  10.545   4.535 -1.2358  0.3427 -1.0348
  116MOL0     H15993   6.684  10.456   4.562  0.1195 -0.2274 -0.9153
  116MOL0     H15994   6.475  10.155   4.892 -0.2223  1.2237  1.0799
  116MOL0     H15995   6.259  10.027   4.896 -1.8955  0.7323  1.7442
  116MOL0     H15996   6.064   9.918   4.808 -0.4995 -0.3713  0.0725
  116MOL0     H15997   6.044   9.985   4.967  0.7332 -0.6199  0.0237
  116MOL0     H15998   5.817  10.004   4.952  0.2835  1.0772 -1.2673
  116MOL0     H15999   5.861   9.842   4.918 -5.0623 -0.0630  1.5922
  116MOL0     H16000   5.852   9.997   4.665 -0.0994 -0.1633 -0.0959
  116MOL0     H16001   5.788   9.838   4.704  1.3818 -0.3622  0.5888
  116MOL0     H16002   5.614   9.982   4.844 -0.8493 -0.5155 -0.4041
  116MOL0     H16003   5.587   9.985   4.678 -2.3899  1.2755  2.3453
  116MOL0     H16004   5.777  10.365   4.797 -1.3265  0.9355 -2.3753
  116MOL0     H16005   6.053  10.357   4.726 -0.0415 -1.0130  0.6224
  116MOL0     H16006   6.289  10.564   4.612  0.0713  0.5369  0.1327
  116MOL0     H16007   6.143  10.543   4.714 -0.4867 -3.2413  1.8025
  116MOL0     H16008   6.297  10.589   4.785 -1.8995 -0.3695  2.5408
  117MOL0     O16009   3.146   1.558   8.300  0.2026 -0.0444 -0.5285
  117MOL0     C16010   3.073   1.650   8.327 -0.0675  0.5641 -0.9504
  117MOL0     O16011   3.103   1.749   8.424 -0.1493 -0.1221  0.3298
  117MOL0     C16012   3.176   1.704   8.532 -0.6443  0.3458  0.3304
  117MOL0     C16013   3.139   1.589   8.601 -0.2183  0.1939  0.7511
  117MOL0     C16014   3.225   1.539   8.707 -0.0694 -0.2305 -0.1463
  117MOL0     C16015   3.338   1.608   8.738  0.1434 -0.4620  0.5070
  117MOL0     O16016   3.422   1.561   8.840 -0.0138 -0.1332 -0.1875
  117MOL0     C16017   3.551   1.611   8.857 -0.4377  0.3835  0.2123
  117MOL0     C16018   3.625   1.500   8.923  0.4618  0.3898  0.1522
  117MOL0     C16019   3.764   1.532   8.968 -0.0323  0.0276 -0.9600
  117MOL0     C16020   3.831   1.401   9.031  0.7558  0.1765  0.1006
  117MOL0     C16021   3.970   1.413   9.074  0.2805 -0.2557 -0.8282
  117MOL0     C16022   4.000   1.546   9.136 -0.0895  0.0351  0.1759
  117MOL0     C16023   4.151   1.556   9.182 -0.1344 -0.1984 -0.1489
  117MOL0     C16024   4.184   1.459   9.299  0.5052  0.2325 -1.0328
  117MOL0     N16025   4.321   1.427   9.322  0.5686  0.6236 -0.5313
  117MOL0     C16026   4.393   1.463   9.436 -0.3392  0.8189  0.4572
  117MOL0     C16027   4.511   1.387   9.421 -0.0327  0.8042  0.3541
  117MOL0     C16028   4.625   1.372   9.516  0.3056  0.2114 -0.4642
  117MOL0     C16029   4.726   1.484   9.500  0.2823  0.2583  0.1582
  117MOL0     C16030   4.671   1.622   9.494 -0.4524  0.5444 -0.0659
  117MOL0     C16031   4.781   1.723   9.514  0.1515  0.2380  0.8419
  117MOL0     O16032   4.873   1.713   9.403 -0.4473  0.3382 -0.0540
  117MOL0     C16033   4.996   1.769   9.411 -0.1420 -0.5241 -1.2485
  117MOL0     C16034   5.054   1.838   9.518  0.4074 -0.0599 -0.2188
  117MOL0     C16035   5.191   1.885   9.512 -0.2706 -0.7900  0.2979
  117MOL0     C16036   5.238   1.981   9.622 -0.6105 -0.2644 -0.2806
  117MOL0     C16037   5.276   1.847   9.403  1.7493  0.0545 -0.2382
  117MOL0     C16038   5.419   1.863   9.395 -0.1236 -0.8301 -0.3587
  117MOL0     O16039   5.485   1.941   9.491 -0.3508 -0.5047 -0.7455
  117MOL0     C16040   5.619   1.972   9.488 -0.3755 -0.0570 -0.3228
  117MOL0     C16041   5.712   1.876   9.535  0.9671 -0.0637  0.2855
  117MOL0     C16042   5.847   1.888   9.502  0.4279  0.5793 -0.0774
  117MOL0     C16043   5.887   1.990   9.429 -0.2283  0.1659 -0.2452
  117MOL0     O16044   6.012   2.005   9.376 -0.6517 -0.7599 -0.0150
  117MOL0     C16045   6.043   1.895   9.284 -0.5160  0.3051  0.1800
  117MOL0     C16046   6.132   1.948   9.168 -0.3438  0.1013 -0.3585
  117MOL0     C16047   6.202   1.830   9.113 -0.4524 -0.2380  0.3538
  117MOL0     C16048   6.243   1.859   8.961 -0.0758 -0.2830 -1.1016
  117MOL0     C16049   6.132   1.821   8.869  0.5971  0.5200  0.3654
  117MOL0     C16050   6.191   1.780   8.733  0.8775 -0.3660  0.3949
  117MOL0     C16051   6.073   1.726   8.645 -0.2689 -0.0974 -0.5236
  117MOL0     C16052   6.115   1.648   8.517 -0.7125  0.3276  0.8696
  117MOL0    Cl16053   6.189   1.767   8.400  0.0655 -0.8002  0.2065
  117MOL0     C16054   5.795   2.086   9.382  0.5346 -0.1351 -0.2482
  117MOL0     C16055   5.661   2.082   9.413 -0.5686 -0.3479 -0.9093
  117MOL0     O16056   5.480   1.804   9.306  0.4350  0.1185 -0.2173
  117MOL0     C16057   5.205   1.787   9.297 -0.1626  0.0406 -0.3809
  117MOL0     C16058   5.070   1.750   9.297 -1.0063  0.4496 -0.3725
  117MOL0     N16059   4.506   1.324   9.304 -0.3660 -0.4313 -0.2502
  117MOL0     N16060   4.394   1.348   9.239  0.3281 -0.6321 -0.2745
  117MOL0     C16061   3.366   1.734   8.678 -1.1173  0.3823 -1.3896
  117MOL0     C16062   3.290   1.783   8.572 -1.0661  1.0147 -0.5972
  117MOL0     C16063   2.962   1.673   8.231  0.5766  0.4973  0.7441
  117MOL0     C16064   2.882   1.790   8.238  0.7137  0.1041 -0.4853
  117MOL0     C16065   2.779   1.816   8.145  0.3792 -0.0286  0.1855
  117MOL0     C16066   2.742   1.717   8.055 -0.6818 -0.6524  0.7145
  117MOL0     O16067   2.637   1.752   7.962 -0.9383  0.5596 -0.9796
  117MOL0     C16068   2.504   1.743   8.016  0.4447 -0.6024 -0.5931
  117MOL0     C16069   2.402   1.786   7.916  0.2321 -0.3084 -0.0869
  117MOL0     C16070   2.415   1.940   7.890  0.3647  0.6300  0.3017
  117MOL0     C16071   2.360   1.986   7.762 -0.1494 -0.1982  0.5622
  117MOL0     C16072   2.227   1.930   7.726  0.5126  0.1892  0.0083
  117MOL0     C16073   2.111   1.892   7.717  0.0637  0.2632  0.2798
  117MOL0     C16074   2.808   1.597   8.055 -0.5537 -0.0225  0.0467
  117MOL0     C16075   2.921   1.567   8.135  1.2486 -0.2325  0.3602
  117MOL0     C16076   2.976   1.428   8.112  0.2842  0.2964 -0.6100
  117MOL0     H16077   3.060   1.527   8.561  1.2831 -2.4326  1.6048
  117MOL0     H16078   3.200   1.453   8.769 -0.0567  1.2958  2.0794
  117MOL0     H16079   3.538   1.702   8.917 -1.5055  1.8102 -2.0254
  117MOL0     H16080   3.599   1.637   8.761 -2.8862  1.2272 -0.8614
  117MOL0     H16081   3.561   1.476   9.008  0.7284 -0.6110  0.0871
  117MOL0     H16082   3.628   1.411   8.859 -0.6934  0.6228 -0.2536
  117MOL0     H16083   3.829   1.570   8.888 -1.1919 -1.2515 -2.6056
  117MOL0     H16084   3.746   1.609   9.042  0.1445 -1.3442  0.5716
  117MOL0     H16085   3.770   1.371   9.117  0.7126 -3.1652 -0.9228
  117MOL0     H16086   3.811   1.309   8.974  1.1765  0.3157 -0.2734
  117MOL0     H16087   4.041   1.402   8.991  2.7987  0.7357  1.0410
  117MOL0     H16088   3.994   1.324   9.132  0.0857 -1.5103 -2.5959
  117MOL0     H16089   3.975   1.629   9.069 -1.3475  1.8052  2.6707
  117MOL0     H16090   3.936   1.565   9.223 -0.0636  0.1576  0.1677
  117MOL0     H16091   4.178   1.657   9.212 -2.1247 -0.3857  2.6339
  117MOL0     H16092   4.212   1.532   9.094  0.4606 -1.1658  0.5008
  117MOL0     H16093   4.122   1.495   9.381  1.7280 -0.9819  0.4834
  117MOL0     H16094   4.143   1.363   9.265  1.1932 -0.2218 -0.6070
  117MOL0     H16095   4.364   1.527   9.518  1.0611  1.4203  0.5093
  117MOL0     H16096   4.665   1.271   9.517 -2.8896 -1.1815  1.5411
  117MOL0     H16097   4.592   1.394   9.618  1.3871 -0.0097 -0.0524
  117MOL0     H16098   4.783   1.485   9.593  0.4940 -0.9248  0.0587
  117MOL0     H16099   4.790   1.463   9.414  0.1188  0.9773 -0.1470
  117MOL0     H16100   4.611   1.639   9.404  0.4677  2.5482 -0.3538
  117MOL0     H16101   4.611   1.640   9.584  1.2059  0.2389  1.1563
  117MOL0     H16102   4.734   1.822   9.511  0.7219  0.5129  0.8015
  117MOL0     H16103   4.834   1.714   9.609  1.0827  0.8112  0.3890
  117MOL0     H16104   4.992   1.867   9.602  1.3264  2.2465 -0.2756
  117MOL0     H16105   5.287   2.062   9.566  1.4776 -0.6827  0.8429
  117MOL0     H16106   5.307   1.921   9.682 -1.1255 -0.4384  0.1385
  117MOL0     H16107   5.161   2.012   9.693 -2.2605 -3.6974 -0.4013
  117MOL0     H16108   5.678   1.786   9.584  0.7296 -0.3753 -0.4502
  117MOL0     H16109   5.920   1.813   9.529 -0.8530 -0.6233  0.1844
  117MOL0     H16110   6.098   1.818   9.338 -1.0139 -0.3897 -0.2851
  117MOL0     H16111   5.952   1.844   9.250  0.8570 -1.2526 -1.3798
  117MOL0     H16112   6.071   1.993   9.089 -1.8516 -1.7795 -0.3505
  117MOL0     H16113   6.202   2.026   9.199  1.9561 -1.2609 -1.9093
  117MOL0     H16114   6.150   1.734   9.115 -0.3745 -0.3174  3.8988
  117MOL0     H16115   6.292   1.813   9.174  1.7265  3.2106 -1.5503
  117MOL0     H16116   6.331   1.798   8.938  2.2380  3.4452 -3.1545
  117MOL0     H16117   6.265   1.966   8.951 -1.7401  0.3577  1.2455
  117MOL0     H16118   6.081   1.730   8.902  3.8509 -1.6839 -0.1990
  117MOL0     H16119   6.064   1.905   8.851  0.3917  0.2564 -0.1181
  117MOL0     H16120   6.269   1.703   8.742  2.6445  1.1765 -1.1546
  117MOL0     H16121   6.238   1.868   8.690  0.8938 -0.4078  0.3275
  117MOL0     H16122   6.009   1.809   8.614 -0.6265 -0.9104 -2.0415
  117MOL0     H16123   6.025   1.660   8.718 -0.7903 -1.4132 -1.9974
  117MOL0     H16124   6.024   1.617   8.464 -0.7949  1.4703  0.3240
  117MOL0     H16125   6.184   1.564   8.531 -2.1624 -1.0615  0.1288
  117MOL0     H16126   5.823   2.169   9.318 -3.9080  1.6705 -0.2253
  117MOL0     H16127   5.596   2.154   9.365  0.6964  0.3455 -1.6288
  117MOL0     H16128   5.255   1.770   9.202 -1.1846 -2.4569 -0.5511
  117MOL0     H16129   5.020   1.704   9.212 -0.6684 -2.9748  1.0997
  117MOL0     H16130   3.452   1.792   8.710 -0.6246 -1.9788  2.1275
  117MOL0     H16131   3.320   1.866   8.509  2.1957 -0.3341 -1.0304
  117MOL0     H16132   2.899   1.871   8.308  0.4795 -1.0664  0.9687
  117MOL0     H16133   2.718   1.905   8.141 -1.0326 -0.8351  2.1977
  117MOL0     H16134   2.481   1.643   8.055  0.9951  0.3662  2.5584
  117MOL0     H16135   2.495   1.798   8.110  0.2928 -2.2386  0.4074
  117MOL0     H16136   2.304   1.759   7.956 -0.2590 -0.1295 -1.1315
  117MOL0     H16137   2.426   1.733   7.824  1.2322  0.7523 -0.4568
  117MOL0     H16138   2.362   2.001   7.963  2.7127  1.0940  1.7440
  117MOL0     H16139   2.517   1.976   7.904  0.0829  1.2761  0.7205
  117MOL0     H16140   2.433   1.956   7.686  0.4259 -0.5315  1.2386
  117MOL0     H16141   2.357   2.095   7.763  0.0070 -0.1944  1.9795
  117MOL0     H16142   2.005   1.875   7.711 -0.1219  1.5717 -0.4131
  117MOL0     H16143   2.774   1.525   7.981  1.4997  0.9006 -1.9346
  117MOL0     H16144   2.903   1.352   8.080  0.1181  1.1496 -2.3999
  117MOL0     H16145   3.047   1.446   8.031  0.5406  2.5920  0.0720
  117MOL0     H16146   3.025   1.395   8.204  2.2454 -1.6207 -2.2298
  118MOL0     O16147   5.271   2.432  10.920  0.0314  0.0251  0.5874
  118MOL0     C16148   5.198   2.508  10.853 -0.4008 -0.1596 -0.4243
  118MOL0     O16149   5.231   2.636  10.834  0.2004 -0.2217 -0.3220
  118MOL0     C16150   5.357   2.683  10.863 -0.5920  0.2166 -0.3281
  118MOL0     C16151   5.454   2.706  10.762  0.0890 -0.7501 -1.2868
  118MOL0     C16152   5.586   2.759  10.784 -0.5110  0.1460  0.0197
  118MOL0     C16153   5.618   2.804  10.914 -0.1099  1.4550  0.8582
  118MOL0     O16154   5.736   2.872  10.939  0.3044  0.1437 -0.2671
  118MOL0     C16155   5.776   2.975  10.839 -0.0166  0.5253 -0.4117
  118MOL0     C16156   5.909   3.038  10.868  0.0604 -0.4646 -0.5791
  118MOL0     C16157   6.039   2.968  10.832  0.5237 -0.1980  0.1616
  118MOL0     C16158   6.059   2.833  10.908 -0.0931  0.1724  0.2198
  118MOL0     C16159   6.195   2.757  10.888  0.2182  0.0477 -0.0071
  118MOL0     C16160   6.307   2.848  10.900 -0.1165 -0.4313  0.3023
  118MOL0     C16161   6.434   2.771  10.937 -0.0577  0.7283 -0.2489
  118MOL0     C16162   6.574   2.840  10.905  0.2119 -0.3624  0.1824
  118MOL0     N16163   6.682   2.740  10.916  0.7291  0.6828  0.4341
  118MOL0     C16164   6.816   2.765  10.893 -0.0126 -0.0212 -0.6104
  118MOL0     C16165   6.897   2.666  10.954  0.0805  0.4300 -0.1011
  118MOL0     C16166   7.045   2.648  10.959 -0.2681 -0.1937 -0.5931
  118MOL0     C16167   7.109   2.657  11.097 -0.1663 -0.1228  0.3500
  118MOL0     C16168   7.261   2.649  11.073  0.0802 -0.1425 -0.6957
  118MOL0     C16169   7.304   2.512  11.036  0.3290 -0.3250  0.0836
  118MOL0     O16170   7.444   2.498  10.991 -0.5325 -0.8966 -0.3116
  118MOL0     C16171   7.534   2.478  11.092 -0.3022 -1.0002  0.4931
  118MOL0     C16172   7.630   2.568  11.126 -0.3251 -0.2321  0.3355
  118MOL0     C16173   7.722   2.545  11.231 -0.3190 -0.1011 -1.0632
  118MOL0     C16174   7.826   2.654  11.255 -1.1122 -0.4533  0.3545
  118MOL0     C16175   7.713   2.430  11.316  1.7267 -0.2048  0.0713
  118MOL0     C16176   7.793   2.401  11.431 -0.8620  0.4435 -0.3723
  118MOL0     O16177   7.861   2.499  11.490  0.1925  0.2408  0.8910
  118MOL0     C16178   7.966   2.463  11.567  0.2876  0.4368 -0.4154
  118MOL0     C16179   8.083   2.417  11.513  0.5529  0.7585  0.7330
  118MOL0     C16180   8.190   2.389  11.590 -0.1101  0.8491 -0.4085
  118MOL0     C16181   8.191   2.398  11.728 -0.0441  0.1373 -1.2625
  118MOL0     O16182   8.295   2.384  11.816 -0.0840  0.7019 -0.5555
  118MOL0     C16183   8.428   2.360  11.754 -0.8553  0.6179 -0.6470
  118MOL0     C16184   8.549   2.361  11.864  0.4048  0.1067  0.2817
  118MOL0     C16185   8.685   2.339  11.798 -1.0629  0.0286  0.3252
  118MOL0     C16186   8.800   2.435  11.857 -0.4219 -1.1616 -0.5159
  118MOL0     C16187   8.938   2.388  11.811 -0.7179  0.4355 -0.2800
  118MOL0     C16188   9.053   2.488  11.805  0.1334  0.0539 -1.0968
  118MOL0     C16189   9.030   2.586  11.696 -0.0210 -1.1886  0.3297
  118MOL0     C16190   9.132   2.701  11.696  0.6840  0.2657  0.0974
  118MOL0    Cl16191   9.294   2.648  11.737  0.4870 -0.8170 -0.2173
  118MOL0     C16192   8.070   2.449  11.788  0.5732 -0.2926  0.3639
  118MOL0     C16193   7.962   2.481  11.708  0.4721 -0.4445  0.0897
  118MOL0     O16194   7.797   2.280  11.470 -0.7991 -0.1510 -0.0005
  118MOL0     C16195   7.613   2.339  11.281  0.5901 -0.5776  0.5509
  118MOL0     C16196   7.528   2.362  11.172 -0.5026 -0.5811 -0.5492
  118MOL0     N16197   6.806   2.579  11.010 -0.2197 -0.5161  0.0162
  118MOL0     N16198   6.689   2.629  10.990  0.2849  0.2780 -0.3910
  118MOL0     C16199   5.517   2.780  11.021 -0.4181 -0.0352 -0.0870
  118MOL0     C16200   5.388   2.720  10.995 -0.5428 -0.5705  0.7374
  118MOL0     C16201   5.064   2.466  10.797 -0.4054  0.1268 -0.3241
  118MOL0     C16202   5.056   2.330  10.766 -0.6222  0.7700 -0.6115
  118MOL0     C16203   4.943   2.271  10.705  0.3191 -0.3458 -0.0907
  118MOL0     C16204   4.831   2.349  10.680 -0.6771 -0.0280 -0.3988
  118MOL0     O16205   4.718   2.292  10.625 -0.3505 -0.1236  0.1186
  118MOL0     C16206   4.609   2.376  10.595  0.4665 -0.0215 -0.0452
  118MOL0     C16207   4.482   2.302  10.543  0.5359  0.6785 -0.4894
  118MOL0     C16208   4.351   2.386  10.565 -0.5314  0.3052  0.7881
  118MOL0     C16209   4.211   2.316  10.560 -0.8684  0.1955 -0.3895
  118MOL0     C16210   4.173   2.255  10.688 -0.5305 -0.2188  0.7386
  118MOL0     C16211   4.154   2.231  10.804  0.5633 -0.8413 -0.4714
  118MOL0     C16212   4.839   2.492  10.709 -0.4250  0.1570  0.2037
  118MOL0     C16213   4.950   2.548  10.771 -0.0581 -0.1653  0.7134
  118MOL0     C16214   4.941   2.699  10.802 -0.6087  0.1254  0.0818
  118MOL0     H16215   5.417   2.679  10.663 -2.0268  1.7079 -1.2646
  118MOL0     H16216   5.667   2.748  10.713  2.1124 -2.4151  3.0887
  118MOL0     H16217   5.691   3.044  10.846  0.5279  1.2961 -1.2372
  118MOL0     H16218   5.792   2.920  10.746 -0.8301 -0.9357  0.2736
  118MOL0     H16219   5.922   3.133  10.815  3.0101 -0.4928 -0.0490
  118MOL0     H16220   5.902   3.062  10.975 -1.8165 -1.3862 -0.4465
  118MOL0     H16221   6.029   2.948  10.725  1.2810  1.9783 -0.3551
  118MOL0     H16222   6.115   3.046  10.843 -2.2341  2.2977  5.9261
  118MOL0     H16223   6.056   2.848  11.016 -2.1169 -2.5085  0.6491
  118MOL0     H16224   5.974   2.768  10.884 -2.3353  1.5300  3.7295
  118MOL0     H16225   6.199   2.695  10.798 -0.4041 -0.6739  0.4549
  118MOL0     H16226   6.191   2.693  10.976 -3.8489  0.3570  0.2491
  118MOL0     H16227   6.334   2.889  10.802  0.9287  1.1402  1.2003
  118MOL0     H16228   6.300   2.938  10.962  3.8577 -0.0344  0.4403
  118MOL0     H16229   6.426   2.671  10.894 -1.3122  0.7911 -0.2126
  118MOL0     H16230   6.428   2.741  11.042 -1.2722  3.0855  0.4334
  118MOL0     H16231   6.562   2.880  10.804 -2.6287  4.1452  1.9521
  118MOL0     H16232   6.589   2.928  10.968  0.6336  0.4129 -0.9755
  118MOL0     H16233   6.850   2.847  10.831 -0.2665 -2.2345 -3.9287
  118MOL0     H16234   7.081   2.730  10.896 -0.9278  1.0143  0.5505
  118MOL0     H16235   7.063   2.548  10.919  1.4804 -0.5309  0.9009
  118MOL0     H16236   7.073   2.753  11.135 -0.0986  1.2314 -2.6984
  118MOL0     H16237   7.083   2.577  11.167 -1.8825  1.1628  1.2826
  118MOL0     H16238   7.278   2.715  10.987 -2.7361  0.8262 -0.6287
  118MOL0     H16239   7.321   2.679  11.159 -1.2683 -0.1721  0.2884
  118MOL0     H16240   7.279   2.456  11.127  0.9125  1.5561  1.4733
  118MOL0     H16241   7.241   2.465  10.961  1.3256 -0.6820 -0.5569
  118MOL0     H16242   7.645   2.654  11.062 -0.3966  0.1185  0.7879
  118MOL0     H16243   7.808   2.715  11.345 -0.2190  2.4490 -1.3084
  118MOL0     H16244   7.810   2.733  11.182 -3.1410  0.1501  1.3639
  118MOL0     H16245   7.927   2.613  11.254 -0.4212  1.1805 -0.6354
  118MOL0     H16246   8.090   2.407  11.406 -2.0428 -0.8201  0.6146
  118MOL0     H16247   8.281   2.356  11.540 -0.2291 -1.8262  0.9294
  118MOL0     H16248   8.440   2.262  11.708 -2.4449  0.2373 -0.3061
  118MOL0     H16249   8.453   2.427  11.671 -2.9120 -0.9789 -2.6652
  118MOL0     H16250   8.548   2.464  11.902  2.3681  0.7398 -1.1982
  118MOL0     H16251   8.523   2.284  11.937 -1.7931  0.2416 -0.2630
  118MOL0     H16252   8.688   2.362  11.691  1.1529 -2.4091 -0.2505
  118MOL0     H16253   8.714   2.233  11.799 -0.9139  0.0738  0.9189
  118MOL0     H16254   8.806   2.435  11.966  1.7768 -3.1200 -0.5551
  118MOL0     H16255   8.791   2.541  11.833  1.8712 -0.6728  0.5733
  118MOL0     H16256   8.965   2.325  11.896 -1.2316  1.7159  0.8675
  118MOL0     H16257   8.934   2.328  11.719 -2.5240  1.3612 -0.8412
  118MOL0     H16258   9.143   2.429  11.786  0.4299 -0.1170  0.6628
  118MOL0     H16259   9.065   2.538  11.902 -0.1435 -1.1887 -0.3993
  118MOL0     H16260   8.927   2.621  11.696 -0.4462 -2.3663 -1.0022
  118MOL0     H16261   9.047   2.535  11.601 -0.5848 -0.1016 -0.3779
  118MOL0     H16262   9.104   2.783  11.763  2.2835 -1.1512  2.7063
  118MOL0     H16263   9.140   2.742  11.595 -2.8020  1.2975  0.1099
  118MOL0     H16264   8.063   2.459  11.896 -0.7256 -0.3961  0.3058
  118MOL0     H16265   7.874   2.526  11.752  0.9204  0.9166 -0.3670
  118MOL0     H16266   7.603   2.245  11.334  3.7113 -0.6017  1.2723
  118MOL0     H16267   7.454   2.284  11.166  3.2066 -4.3825 -1.4625
  118MOL0     H16268   5.540   2.802  11.125 -2.3247  0.1006  0.3374
  118MOL0     H16269   5.311   2.706  11.071 -2.4731 -0.1184 -1.0526
  118MOL0     H16270   5.140   2.266  10.791 -0.3957  0.8603 -1.1310
  118MOL0     H16271   4.933   2.167  10.676  1.8320 -0.3139 -0.8416
  118MOL0     H16272   4.572   2.422  10.687  1.0009 -1.3594  0.8721
  118MOL0     H16273   4.627   2.451  10.518 -1.0013 -0.5123 -0.9029
  118MOL0     H16274   4.471   2.204  10.591  2.8710  1.5095  1.9929
  118MOL0     H16275   4.490   2.275  10.437 -0.9159  1.4368 -0.8219
  118MOL0     H16276   4.355   2.432  10.664 -3.2023  1.0037  0.6400
  118MOL0     H16277   4.351   2.461  10.486 -1.8704 -0.0813  0.4056
  118MOL0     H16278   4.213   2.240  10.482 -0.8143 -1.6239  1.3156
  118MOL0     H16279   4.136   2.389  10.527 -0.3726  1.4320  1.0767
  118MOL0     H16280   4.160   2.220  10.910 -0.9858 -2.6402 -0.5083
  118MOL0     H16281   4.753   2.556  10.690  0.3898  0.5494 -2.5320
  118MOL0     H16282   5.008   2.727  10.885  0.2346 -0.2765 -0.4467
  118MOL0     H16283   4.989   2.764  10.728 -1.8050  0.9657  0.0124
  118MOL0     H16284   4.840   2.732  10.825 -0.8526  0.4616 -1.4225
  119MOL0     O16285  11.197   7.075   3.578 -0.5850 -0.3971 -0.3563
  119MOL0     C16286  11.222   6.986   3.502 -0.6921  1.1492 -0.3298
  119MOL0     O16287  11.346   6.950   3.453 -0.4733 -0.2099  0.2682
  119MOL0     C16288  11.451   7.039   3.453  0.2573  0.1737 -0.3727
  119MOL0     C16289  11.463   7.128   3.346  0.0592 -0.0843 -0.1758
  119MOL0     C16290  11.551   7.238   3.343  0.7117 -0.0208  0.4227
  119MOL0     C16291  11.639   7.259   3.449 -0.3133 -0.0100 -0.2158
  119MOL0     O16292  11.733   7.357   3.441  0.0013  0.1893 -0.2779
  119MOL0     C16293  11.775   7.414   3.311 -0.2951  0.3627  0.9296
  119MOL0     C16294  11.897   7.504   3.332 -0.2612 -1.1810  0.7432
  119MOL0     C16295  11.918   7.579   3.204 -0.8106 -0.9314  0.4317
  119MOL0     C16296  12.035   7.691   3.210  0.2712  0.6797 -0.9018
  119MOL0     C16297  12.003   7.812   3.297 -0.2594 -0.6591 -0.3715
  119MOL0     C16298  11.889   7.893   3.245 -0.6559 -0.7585 -0.4877
  119MOL0     C16299  11.854   8.028   3.318  0.7242  0.2657  0.0293
  119MOL0     C16300  11.810   8.006   3.461  0.0929 -0.6570  0.7277
  119MOL0     N16301  11.686   7.929   3.470  0.3957  0.5375  0.0413
  119MOL0     C16302  11.680   7.789   3.507 -0.4386 -0.2368  0.2305
  119MOL0     C16303  11.556   7.748   3.472  0.7156  0.1687 -0.9949
  119MOL0     C16304  11.505   7.614   3.498 -0.1358  0.2829 -0.1680
  119MOL0     C16305  11.392   7.621   3.617 -0.2340 -0.3787  0.8532
  119MOL0     C16306  11.265   7.694   3.570 -0.1305 -0.3608  0.2106
  119MOL0     C16307  11.135   7.664   3.642 -1.3466  0.0197  0.4476
  119MOL0     O16308  11.111   7.516   3.632 -0.0335 -0.4206 -0.4566
  119MOL0     C16309  10.991   7.484   3.687  0.0787  0.1571 -0.4480
  119MOL0     C16310  10.869   7.550   3.679 -0.2251 -0.0489  0.3658
  119MOL0     C16311  10.748   7.499   3.725 -0.3009 -0.3616 -0.2175
  119MOL0     C16312  10.621   7.589   3.724 -0.4787  0.9321  0.5270
  119MOL0     C16313  10.747   7.366   3.770  0.2078 -0.5740  0.3144
  119MOL0     C16314  10.620   7.298   3.807 -0.1977  0.4919 -0.1011
  119MOL0     O16315  10.521   7.370   3.856  0.5835  0.6485 -0.0757
  119MOL0     C16316  10.398   7.326   3.916 -0.4236 -0.6642  0.0121
  119MOL0     C16317  10.316   7.433   3.928 -0.5178 -0.2504 -0.2796
  119MOL0     C16318  10.185   7.412   3.976  0.7044 -0.6497  0.3198
  119MOL0     C16319  10.136   7.292   4.023  0.0933 -0.4698 -0.4156
  119MOL0     O16320  10.016   7.296   4.096 -0.3631  1.4167 -0.4025
  119MOL0     C16321   9.971   7.185   4.185 -1.0815  0.4980 -0.1971
  119MOL0     C16322   9.909   7.068   4.099 -0.9427 -0.0574 -0.1739
  119MOL0     C16323   9.804   7.137   4.012  1.0263 -0.0564 -0.2926
  119MOL0     C16324   9.723   7.034   3.936  0.8701 -0.3438 -0.1446
  119MOL0     C16325   9.599   7.103   3.881 -0.0460 -0.3185  0.1728
  119MOL0     C16326   9.496   7.147   3.987  0.7866  0.2184 -0.2342
  119MOL0     C16327   9.357   7.147   3.922  0.0134 -0.1656 -1.0663
  119MOL0     C16328   9.253   7.186   4.033 -0.2902  0.2008 -0.3909
  119MOL0    Cl16329   9.241   7.359   4.057 -0.4358 -0.3857  0.0696
  119MOL0     C16330  10.225   7.189   4.019  0.9770  0.6551 -0.3970
  119MOL0     C16331  10.357   7.200   3.970 -0.2690 -0.0427  0.0042
  119MOL0     O16332  10.619   7.175   3.786  0.2969 -0.6348  0.4170
  119MOL0     C16333  10.869   7.301   3.788 -0.9829 -0.0730  0.6119
  119MOL0     C16334  10.987   7.357   3.742  0.1157 -0.6070  0.2676
  119MOL0     N16335  11.492   7.858   3.415  0.4523 -0.2871 -0.0443
  119MOL0     N16336  11.569   7.965   3.411  0.0653 -0.6280 -0.7014
  119MOL0     C16337  11.634   7.163   3.554 -0.1660 -0.1526  0.4436
  119MOL0     C16338  11.540   7.058   3.560  0.2723  0.0733  0.0685
  119MOL0     C16339  11.111   6.914   3.433 -0.2628 -0.6309 -0.2744
  119MOL0     C16340  11.140   6.822   3.332  0.0088  0.5540 -0.4282
  119MOL0     C16341  11.043   6.759   3.258 -0.1632  0.8832  0.2028
  119MOL0     C16342  10.914   6.775   3.289 -0.2943  0.2277  0.3555
  119MOL0     O16343  10.806   6.699   3.252 -0.1455 -0.4096 -0.2802
  119MOL0     C16344  10.805   6.599   3.147 -0.0053 -0.8565 -0.5600
  119MOL0     C16345  10.701   6.639   3.036  1.2902  0.2892  0.1179
  119MOL0     C16346  10.726   6.592   2.900  0.7265  0.4617 -0.4753
  119MOL0     C16347  10.742   6.438   2.872  0.6917 -0.8840  0.3869
  119MOL0     C16348  10.646   6.357   2.951  0.3745  0.5245 -0.0711
  119MOL0     C16349  10.584   6.297   3.034 -0.0133 -0.2338  0.7457
  119MOL0     C16350  10.879   6.856   3.397 -0.2656 -0.7446  0.3505
  119MOL0     C16351  10.978   6.937   3.462 -0.0407  0.2086 -0.2681
  119MOL0     C16352  10.917   7.024   3.574 -0.0355  0.4235  0.1812
  119MOL0     H16353  11.398   7.118   3.259  0.2416  0.8561 -0.4312
  119MOL0     H16354  11.543   7.292   3.249  1.3016 -1.4262 -0.4655
  119MOL0     H16355  11.691   7.459   3.257  0.5065  1.0050  0.1830
  119MOL0     H16356  11.805   7.329   3.249  2.6469 -0.3361  3.0828
  119MOL0     H16357  11.884   7.581   3.407 -2.2164  1.6210 -2.2230
  119MOL0     H16358  11.988   7.447   3.356 -0.3454 -0.9189  1.7339
  119MOL0     H16359  11.958   7.503   3.137  2.6960  1.3393 -0.2709
  119MOL0     H16360  11.826   7.619   3.162  0.2873  1.4842  0.1983
  119MOL0     H16361  12.124   7.641   3.248 -1.9502 -2.1290  1.0167
  119MOL0     H16362  12.054   7.740   3.114 -1.0709  2.4223 -0.3252
  119MOL0     H16363  12.093   7.872   3.312  0.4918 -1.4178 -1.6351
  119MOL0     H16364  11.981   7.786   3.401  2.3871  0.7778  0.6465
  119MOL0     H16365  11.909   7.937   3.147  2.0099  2.4948  1.2901
  119MOL0     H16366  11.801   7.828   3.240 -1.5798  0.2542  1.4339
  119MOL0     H16367  11.771   8.076   3.265  1.4176  0.2193 -1.1410
  119MOL0     H16368  11.942   8.091   3.306 -0.8725  2.3140 -1.7103
  119MOL0     H16369  11.887   7.953   3.518  2.2560  0.3237 -1.1083
  119MOL0     H16370  11.788   8.100   3.514 -0.9954 -0.8935  0.7084
  119MOL0     H16371  11.749   7.720   3.555 -0.9343 -0.3493  0.7845
  119MOL0     H16372  11.586   7.545   3.523 -0.9440 -0.6451 -0.0481
  119MOL0     H16373  11.464   7.577   3.404 -1.0512  0.2904  0.2175
  119MOL0     H16374  11.370   7.517   3.640  0.0770 -1.2641 -2.3552
  119MOL0     H16375  11.447   7.656   3.705  1.3206 -3.9580  1.4813
  119MOL0     H16376  11.276   7.803   3.575 -3.0238  0.1665 -2.1681
  119MOL0     H16377  11.246   7.662   3.467 -0.3750 -3.3660  1.0916
  119MOL0     H16378  11.151   7.702   3.743  3.2367  0.2772 -0.1640
  119MOL0     H16379  11.051   7.721   3.600 -0.5389  0.4986 -0.5463
  119MOL0     H16380  10.864   7.633   3.609 -1.0720  1.2500  1.8941
  119MOL0     H16381  10.641   7.687   3.680  1.9019  0.6832  0.9174
  119MOL0     H16382  10.589   7.599   3.828 -2.2892 -2.6823  0.4877
  119MOL0     H16383  10.551   7.530   3.663  0.9743  0.8869 -1.1941
  119MOL0     H16384  10.347   7.532   3.895  0.8432 -1.1914 -1.9993
  119MOL0     H16385  10.119   7.498   3.974  3.7824  1.9026 -1.3825
  119MOL0     H16386  10.065   7.147   4.226  0.6593  0.2150 -3.9485
  119MOL0     H16387   9.895   7.206   4.260 -1.2572  0.0847 -0.2567
  119MOL0     H16388   9.991   7.031   4.036  0.1392  0.5908  0.8068
  119MOL0     H16389   9.865   6.984   4.153 -1.0745 -0.7857 -1.3747
  119MOL0     H16390   9.851   7.202   3.938 -0.0229  2.0765  0.8354
  119MOL0     H16391   9.749   7.205   4.077  2.9521  1.1325  0.1553
  119MOL0     H16392   9.697   6.959   4.012 -0.2297 -0.1028 -0.2708
  119MOL0     H16393   9.778   6.991   3.852 -3.9790 -0.5398 -3.5856
  119MOL0     H16394   9.628   7.180   3.809 -0.5777  0.5677  0.8968
  119MOL0     H16395   9.542   7.030   3.823 -3.1122 -0.4005  2.9872
  119MOL0     H16396   9.508   7.253   4.010  2.3065  0.1572 -0.6679
  119MOL0     H16397   9.507   7.089   4.079  2.6017  3.0016  1.4375
  119MOL0     H16398   9.339   7.041   3.897 -1.3587 -0.9571  2.6295
  119MOL0     H16399   9.365   7.217   3.838  4.0943  1.3423  0.3634
  119MOL0     H16400   9.282   7.140   4.128 -2.7738  1.4602  1.0779
  119MOL0     H16401   9.153   7.150   4.007 -0.5001 -0.3393  1.0321
  119MOL0     H16402  10.198   7.093   4.062  1.4597  0.4468 -0.5467
  119MOL0     H16403  10.432   7.122   3.974  0.7632  0.7378 -2.4348
  119MOL0     H16404  10.869   7.203   3.833 -0.6034 -0.6213 -0.5459
  119MOL0     H16405  11.076   7.294   3.739  1.6041  1.3593 -3.4257
  119MOL0     H16406  11.703   7.180   3.635  1.1820  1.5572 -0.9803
  119MOL0     H16407  11.540   7.011   3.658  0.2623  0.6099  0.3252
  119MOL0     H16408  11.242   6.797   3.304 -1.1319 -1.0686 -3.6328
  119MOL0     H16409  11.066   6.698   3.171 -2.9668  0.6540 -0.4735
  119MOL0     H16410  10.904   6.594   3.101  1.1728  2.9098  1.1219
  119MOL0     H16411  10.777   6.501   3.187 -1.1624 -0.9593 -1.5489
  119MOL0     H16412  10.708   6.746   3.015  0.1581  0.9994  2.8645
  119MOL0     H16413  10.603   6.612   3.075  2.4014 -0.9584  2.2868
  119MOL0     H16414  10.633   6.617   2.846 -0.9004 -2.3449  0.8200
  119MOL0     H16415  10.818   6.637   2.862  0.7164 -0.0353 -1.1161
  119MOL0     H16416  10.842   6.408   2.903  0.6180 -3.3571 -1.4428
  119MOL0     H16417  10.736   6.417   2.765 -0.8765 -0.1199  0.2954
  119MOL0     H16418  10.521   6.247   3.105 -1.7964  1.3637  0.3791
  119MOL0     H16419  10.775   6.860   3.429 -0.2366 -1.3184  0.5296
  119MOL0     H16420  10.913   7.125   3.534  0.7892 -0.2839 -1.8444
  119MOL0     H16421  10.825   6.980   3.614 -0.0432  0.6140  0.3720
  119MOL0     H16422  10.985   7.026   3.660  1.7861  0.3348 -1.1880
  120MOL0     O16423   9.475   0.094   8.866  0.2287 -0.5178  0.6585
  120MOL0     C16424   9.423  -0.018   8.872 -0.3242 -0.9539  0.0660
  120MOL0     O16425   9.437  -0.113   8.771 -0.6014 -0.5074  0.0605
  120MOL0     C16426   9.497  -0.083   8.663 -1.4777  0.3517 -0.2474
  120MOL0     C16427   9.428  -0.109   8.538  0.4719 -0.3544 -0.3914
  120MOL0     C16428   9.504  -0.107   8.421  0.2003  0.4892  0.1293
  120MOL0     C16429   9.637  -0.090   8.422 -0.4707  0.2646  0.9570
  120MOL0     O16430   9.697  -0.107   8.295  0.2028 -0.5667  0.5131
  120MOL0     C16431   9.836  -0.091   8.287  0.5009 -0.1947  0.7054
  120MOL0     C16432   9.884  -0.123   8.142 -0.9929  0.4177  0.9157
  120MOL0     C16433  10.033  -0.177   8.132 -0.4374 -0.1148 -0.6767
  120MOL0     C16434  10.132  -0.073   8.185 -0.1433 -0.1590  0.1470
  120MOL0     C16435  10.280  -0.099   8.160  0.0586 -1.0387 -0.4850
  120MOL0     C16436  10.337  -0.203   8.256  0.0459 -0.8926 -0.1708
  120MOL0     C16437  10.483  -0.184   8.290  1.0518  0.9039  0.3701
  120MOL0     C16438  10.561  -0.156   8.156  0.2306 -0.4677  0.6707
  120MOL0     N16439  10.536  -0.260   8.049 -0.6670  0.6168  0.2609
  120MOL0     C16440  10.472  -0.244   7.927  0.4307 -0.0684 -0.2663
  120MOL0     C16441  10.464  -0.359   7.864  0.3137 -0.0478 -0.1601
  120MOL0     C16442  10.412  -0.389   7.723 -0.3916  0.1044 -0.1668
  120MOL0     C16443  10.264  -0.411   7.717  1.3232 -0.6874  0.6355
  120MOL0     C16444  10.217  -0.545   7.797  0.1443  0.1070  0.7232
  120MOL0     C16445  10.065  -0.573   7.805 -0.8234 -0.0459 -0.0969
  120MOL0     O16446   9.997  -0.505   7.917  0.0112  0.6100 -0.5959
  120MOL0     C16447   9.867  -0.550   7.935 -0.1618 -0.0164 -1.2304
  120MOL0     C16448   9.805  -0.492   8.047  0.8081  0.3182 -0.2799
  120MOL0     C16449   9.672  -0.524   8.070  0.1747  0.3429 -0.0763
  120MOL0     C16450   9.605  -0.460   8.191 -0.1963  0.9084  0.4850
  120MOL0     C16451   9.604  -0.612   7.988 -0.1472 -0.3623 -0.3814
  120MOL0     C16452   9.464  -0.647   8.012  0.6883 -0.0177 -0.1223
  120MOL0     O16453   9.363  -0.568   7.960  0.4755  0.7595  0.7724
  120MOL0     C16454   9.239  -0.597   8.004 -0.0398 -0.7104  0.1698
  120MOL0     C16455   9.178  -0.526   8.107 -1.0274  0.8505  0.0408
  120MOL0     C16456   9.052  -0.549   8.152  1.1419  0.5785 -0.5730
  120MOL0     C16457   8.983  -0.659   8.092  0.1353  0.6866 -0.9725
  120MOL0     O16458   8.859  -0.697   8.141  0.0094  0.3015 -0.4403
  120MOL0     C16459   8.871  -0.781   8.251  0.8733  0.7208 -0.1362
  120MOL0     C16460   8.727  -0.783   8.329  0.0727  0.2332 -0.0681
  120MOL0     C16461   8.706  -0.661   8.419 -0.4887 -0.2112 -0.1598
  120MOL0     C16462   8.588  -0.688   8.511 -0.2322  0.1042 -0.1562
  120MOL0     C16463   8.562  -0.581   8.611  0.1046  0.6872 -0.0036
  120MOL0     C16464   8.451  -0.608   8.713  0.2879  0.2237  0.1034
  120MOL0     C16465   8.310  -0.594   8.635 -0.2725  0.1596  0.4216
  120MOL0     C16466   8.190  -0.594   8.718 -0.5164 -0.5757  0.5728
  120MOL0    Cl16467   8.162  -0.750   8.797  0.0446 -0.3118  0.2709
  120MOL0     C16468   9.035  -0.729   7.989  0.4511  0.3138  0.0632
  120MOL0     C16469   9.166  -0.697   7.945  0.3648  1.0886 -0.1300
  120MOL0     O16470   9.445  -0.748   8.078  0.6107 -0.5412 -0.3754
  120MOL0     C16471   9.673  -0.670   7.881 -0.6853  0.5147 -0.0850
  120MOL0     C16472   9.805  -0.637   7.850  0.2655  0.3761 -0.9750
  120MOL0     N16473  10.518  -0.452   7.951 -0.1478 -0.3551 -0.0799
  120MOL0     N16474  10.569  -0.392   8.058  0.5124  0.6738  0.2435
  120MOL0     C16475   9.705  -0.064   8.544 -0.2450 -0.0690  0.0783
  120MOL0     C16476   9.634  -0.067   8.660  0.6586 -0.5855  0.1155
  120MOL0     C16477   9.333  -0.047   8.984 -0.3168 -0.3589  0.1073
  120MOL0     C16478   9.280  -0.178   8.991  0.2544  1.0481 -0.3220
  120MOL0     C16479   9.192  -0.215   9.097  0.0399 -0.1061  0.5413
  120MOL0     C16480   9.158  -0.123   9.198 -0.6168  0.7617  0.0144
  120MOL0     O16481   9.075  -0.152   9.298 -0.3400 -0.2960  0.3381
  120MOL0     C16482   9.018  -0.283   9.323  0.4466  0.3151  0.0430
  120MOL0     C16483   9.119  -0.394   9.373  0.3918  0.2981 -0.1050
  120MOL0     C16484   9.057  -0.529   9.361 -0.0833 -0.7696  1.1052
  120MOL0     C16485   9.147  -0.643   9.392  0.2890 -1.2083  0.3361
  120MOL0     C16486   9.070  -0.770   9.392 -0.1604  0.8670 -0.2264
  120MOL0     C16487   8.998  -0.870   9.384  0.1231  0.4308 -0.3185
  120MOL0     C16488   9.210   0.000   9.186  0.2831  0.0911  0.1937
  120MOL0     C16489   9.296   0.049   9.082  0.0961  0.1877 -0.1313
  120MOL0     C16490   9.322   0.202   9.081  0.2565  0.5342  0.7147
  120MOL0     H16491   9.321  -0.121   8.547  0.1098  2.1363 -0.5766
  120MOL0     H16492   9.452  -0.121   8.327 -2.2919 -1.6194  1.6828
  120MOL0     H16493   9.890  -0.157   8.355  2.4929  0.7145  0.0991
  120MOL0     H16494   9.853   0.015   8.310 -2.0655 -0.0085  2.0880
  120MOL0     H16495   9.813  -0.195   8.100  0.7732 -0.8113 -0.0677
  120MOL0     H16496   9.876  -0.028   8.087 -1.7197  1.1426  2.2106
  120MOL0     H16497  10.042  -0.272   8.184 -1.6584 -0.1805 -0.5605
  120MOL0     H16498  10.064  -0.204   8.030 -1.3426  0.6373 -1.1673
  120MOL0     H16499  10.112   0.027   8.143 -3.1336 -0.3211  0.9395
  120MOL0     H16500  10.118  -0.059   8.292  1.9910 -1.4398  0.6334
  120MOL0     H16501  10.343  -0.012   8.184 -0.3875 -0.3824 -1.6181
  120MOL0     H16502  10.298  -0.127   8.056 -0.1829 -0.0811 -0.7925
  120MOL0     H16503  10.283  -0.189   8.350 -0.6930  0.1048 -0.7231
  120MOL0     H16504  10.331  -0.302   8.211  2.4929 -0.5614 -1.4152
  120MOL0     H16505  10.514  -0.278   8.338 -1.0806 -0.6230 -1.0264
  120MOL0     H16506  10.498  -0.101   8.359  0.6840  0.8971  0.4622
  120MOL0     H16507  10.554  -0.055   8.117 -1.8718 -0.3089  1.3382
  120MOL0     H16508  10.670  -0.159   8.170  0.5131  0.5891 -1.0603
  120MOL0     H16509  10.447  -0.146   7.886 -2.5775 -0.8444 -0.4899
  120MOL0     H16510  10.468  -0.470   7.675 -0.1365 -0.1201  0.5107
  120MOL0     H16511  10.428  -0.302   7.658 -0.2446 -2.3102 -3.6382
  120MOL0     H16512  10.220  -0.323   7.765  0.0783 -1.5675  1.1794
  120MOL0     H16513  10.232  -0.423   7.614  0.9545 -3.3546  0.9925
  120MOL0     H16514  10.262  -0.620   7.732 -0.5237 -0.7413  1.2230
  120MOL0     H16515  10.262  -0.548   7.897 -0.0895  0.5068  0.8440
  120MOL0     H16516  10.024  -0.535   7.712 -1.4323  0.0750  0.2153
  120MOL0     H16517  10.058  -0.681   7.817  0.1949 -0.0285  0.8271
  120MOL0     H16518   9.867  -0.429   8.109  1.1431 -0.6930  0.4306
  120MOL0     H16519   9.504  -0.426   8.165  0.6835  1.6487 -2.3075
  120MOL0     H16520   9.670  -0.378   8.223  0.5120 -0.0054  1.4977
  120MOL0     H16521   9.601  -0.547   8.258  0.0323 -0.9489 -1.7872
  120MOL0     H16522   9.229  -0.436   8.138  3.7444 -0.6384 -2.4887
  120MOL0     H16523   9.005  -0.483   8.223 -0.4385  0.3467 -1.3691
  120MOL0     H16524   8.897  -0.884   8.224  0.5997  0.0085  2.0897
  120MOL0     H16525   8.953  -0.760   8.321 -0.3800  2.9225  0.7356
  120MOL0     H16526   8.641  -0.788   8.262 -0.1142  4.7283 -0.4575
  120MOL0     H16527   8.728  -0.875   8.389 -0.1629  0.9582  1.0764
  120MOL0     H16528   8.689  -0.579   8.348  0.4709  1.1682  1.1574
  120MOL0     H16529   8.798  -0.638   8.473 -1.8071  0.9608  1.6953
  120MOL0     H16530   8.610  -0.780   8.567 -1.6359  0.2256  0.6595
  120MOL0     H16531   8.504  -0.706   8.442 -0.6104 -1.5257  0.6566
  120MOL0     H16532   8.659  -0.570   8.659 -0.5029  0.8572  1.2077
  120MOL0     H16533   8.547  -0.489   8.553  3.0046  0.2421 -1.6558
  120MOL0     H16534   8.461  -0.543   8.801 -1.7459 -0.2638  0.7394
  120MOL0     H16535   8.469  -0.711   8.746  0.9476 -0.8633 -3.2627
  120MOL0     H16536   8.300  -0.688   8.579  0.5680 -1.2888  2.5676
  120MOL0     H16537   8.299  -0.516   8.559 -1.7298 -0.8374 -0.4395
  120MOL0     H16538   8.099  -0.576   8.660 -1.9604 -1.7872  2.3448
  120MOL0     H16539   8.194  -0.514   8.793 -0.2842 -0.0880  0.0480
  120MOL0     H16540   8.985  -0.806   7.932 -0.0538  1.8987 -1.7178
  120MOL0     H16541   9.214  -0.749   7.863  2.2464 -0.7717  1.9996
  120MOL0     H16542   9.623  -0.737   7.812 -0.2899  1.7059 -1.5853
  120MOL0     H16543   9.845  -0.674   7.755  0.5318  0.0409 -0.7358
  120MOL0     H16544   9.812  -0.049   8.556 -0.1713 -0.3051 -0.2741
  120MOL0     H16545   9.684  -0.063   8.756  0.6889 -2.2598  0.1954
  120MOL0     H16546   9.301  -0.261   8.925 -1.0836  0.4195 -0.0160
  120MOL0     H16547   9.155  -0.317   9.103 -0.2749 -0.1568 -1.4221
  120MOL0     H16548   8.941  -0.280   9.400  2.4599  0.0964  2.1518
  120MOL0     H16549   8.970  -0.325   9.234 -0.7803 -1.4094  1.4512
  120MOL0     H16550   9.149  -0.387   9.478  1.2082  0.3250 -0.3335
  120MOL0     H16551   9.212  -0.381   9.315 -0.3838 -1.4448 -1.8476
  120MOL0     H16552   8.978  -0.525   9.437  0.6519  2.1073  1.8331
  120MOL0     H16553   9.014  -0.529   9.261 -2.0228  1.5942  1.8446
  120MOL0     H16554   9.194  -0.631   9.491 -1.8081 -3.5734  1.7448
  120MOL0     H16555   9.225  -0.659   9.317  0.6677 -2.0363  0.8887
  120MOL0     H16556   8.933  -0.954   9.368 -2.3678  2.5154 -2.0266
  120MOL0     H16557   9.174   0.072   9.259 -0.3075 -0.5029  0.4899
  120MOL0     H16558   9.422   0.209   9.123  0.1494 -1.1003  1.3055
  120MOL0     H16559   9.306   0.246   8.982 -1.3547 -1.7106 -0.0976
  120MOL0     H16560   9.261   0.265   9.148  1.9329  3.4364 -0.2741
  121MOL0     O16561  10.364   0.663   1.399  0.0414  0.5615 -0.0800
  121MOL0     C16562  10.363   0.556   1.468  0.3112  0.7285  0.5506
  121MOL0     O16563  10.475   0.483   1.517 -0.1222  0.7220 -0.6662
  121MOL0     C16564  10.594   0.545   1.502  0.0816  0.8994  0.2974
  121MOL0     C16565  10.656   0.552   1.374  0.6708 -0.5443  0.3587
  121MOL0     C16566  10.780   0.615   1.359 -0.0140 -0.3760  0.0673
  121MOL0     C16567  10.838   0.672   1.460 -0.7800  0.0788 -0.4399
  121MOL0     O16568  10.963   0.725   1.454  0.0678 -0.1553  0.0115
  121MOL0     C16569  10.982   0.855   1.384  0.0923  0.2595 -0.0730
  121MOL0     C16570  11.102   0.938   1.434 -0.4267 -0.0954 -0.6038
  121MOL0     C16571  11.069   1.047   1.550 -0.8069  0.2505 -0.0092
  121MOL0     C16572  11.200   1.131   1.582  0.5770  0.1077  0.0494
  121MOL0     C16573  11.183   1.222   1.706  0.2879  0.2968 -0.6085
  121MOL0     C16574  11.296   1.328   1.709 -0.2254  0.3994 -0.3475
  121MOL0     C16575  11.433   1.260   1.695 -0.8157  0.6466  0.7594
  121MOL0     C16576  11.555   1.349   1.734  1.1222 -0.1137 -0.5844
  121MOL0     N16577  11.672   1.267   1.748 -0.9166 -0.0851 -0.0678
  121MOL0     C16578  11.708   1.178   1.847 -0.8779  0.1303 -0.0627
  121MOL0     C16579  11.824   1.122   1.791  0.8423  0.4194  0.1178
  121MOL0     C16580  11.889   1.007   1.858  0.4769  1.0803  0.2698
  121MOL0     C16581  12.035   0.953   1.811  0.2725 -0.1684  0.0202
  121MOL0     C16582  12.059   0.804   1.856  0.1145 -0.7118 -0.2878
  121MOL0     C16583  12.203   0.769   1.833 -0.0938  0.1522  0.4943
  121MOL0     O16584  12.286   0.842   1.930  0.6282  0.2284  0.1572
  121MOL0     C16585  12.419   0.811   1.952 -0.6033 -0.0859  0.1257
  121MOL0     C16586  12.487   0.729   1.857  0.2753  0.3974  0.6198
  121MOL0     C16587  12.623   0.706   1.869 -0.7790 -0.6104 -1.0449
  121MOL0     C16588  12.682   0.622   1.768  0.0388  0.4962  0.4851
  121MOL0     C16589  12.692   0.768   1.980 -0.9125  0.0511  0.2422
  121MOL0     C16590  12.840   0.767   1.992 -0.3247  0.4534  0.4922
  121MOL0     O16591  12.919   0.758   1.881 -0.1235  0.2461 -0.2545
  121MOL0     C16592  13.055   0.746   1.875  0.6741  0.8774  0.2469
  121MOL0     C16593  13.119   0.799   1.764  0.8213  0.7289 -0.0665
  121MOL0     C16594  13.252   0.786   1.758 -0.3141 -0.0725 -0.1113
  121MOL0     C16595  13.323   0.712   1.852 -0.5533 -0.2703 -0.4286
  121MOL0     O16596  13.458   0.710   1.823  0.0946  0.5200 -0.6853
  121MOL0     C16597  13.539   0.596   1.855  0.0648  0.1192  0.1151
  121MOL0     C16598  13.653   0.597   1.760 -0.2507  0.0244  0.5189
  121MOL0     C16599  13.758   0.706   1.784 -0.0215  0.6230 -0.0655
  121MOL0     C16600  13.847   0.700   1.906 -0.4294  0.4592 -0.1134
  121MOL0     C16601  13.948   0.816   1.915  0.6493  0.0800  0.2580
  121MOL0     C16602  14.043   0.811   2.024  0.1577 -0.0746 -0.0130
  121MOL0     C16603  13.986   0.809   2.160  0.3742 -0.9974  0.0970
  121MOL0     C16604  14.105   0.795   2.263 -0.8912  0.0112 -0.6251
  121MOL0    Cl16605  14.057   0.752   2.429 -0.1920 -0.3249  0.4771
  121MOL0     C16606  13.261   0.659   1.964  0.2995 -0.4768 -0.5064
  121MOL0     C16607  13.120   0.674   1.974 -0.8982  0.1956  0.3351
  121MOL0     O16608  12.887   0.771   2.108  0.1629  0.3426 -1.0876
  121MOL0     C16609  12.622   0.830   2.078  0.6990  0.3153  0.6962
  121MOL0     C16610  12.492   0.864   2.059  1.1016  0.0931  0.2431
  121MOL0     N16611  11.856   1.175   1.675 -0.1856 -0.0720  0.0668
  121MOL0     N16612  11.767   1.265   1.649  0.4495 -0.0072  1.4773
  121MOL0     C16613  10.794   0.657   1.587 -0.1351  0.4445  0.4586
  121MOL0     C16614  10.676   0.579   1.611 -0.5372 -1.5150  0.5782
  121MOL0     C16615  10.239   0.486   1.496  0.2239  0.4578  1.3419
  121MOL0     C16616  10.246   0.366   1.569 -0.0671  0.3985 -0.0485
  121MOL0     C16617  10.137   0.282   1.593 -0.3074 -0.1840  0.6654
  121MOL0     C16618  10.016   0.322   1.535 -0.1557  0.1559 -0.1878
  121MOL0     O16619   9.918   0.230   1.554  0.0604  0.4648  0.0350
  121MOL0     C16620   9.786   0.284   1.551  0.6273 -0.6703 -0.0390
  121MOL0     C16621   9.697   0.170   1.587  0.2263 -0.4939 -1.3457
  121MOL0     C16622   9.543   0.191   1.555 -0.9809 -0.4843  0.1455
  121MOL0     C16623   9.489   0.289   1.659 -0.3328  0.8325  0.5605
  121MOL0     C16624   9.345   0.288   1.657  0.1509  0.3711 -0.3218
  121MOL0     C16625   9.229   0.290   1.636  0.4702  0.4731  0.9908
  121MOL0     C16626  10.000   0.447   1.477 -0.1423  0.1965 -0.2273
  121MOL0     C16627  10.109   0.536   1.465  0.5528  0.7474  0.6903
  121MOL0     C16628  10.079   0.673   1.417 -0.4478 -0.0871  0.0860
  121MOL0     H16629  10.614   0.493   1.293  0.0075  0.4845 -0.0581
  121MOL0     H16630  10.841   0.614   1.269 -1.4944  0.6937 -0.9927
  121MOL0     H16631  10.897   0.922   1.394  1.2575  1.7171  0.3798
  121MOL0     H16632  10.996   0.840   1.277  0.8195 -0.2859  0.0904
  121MOL0     H16633  11.174   0.870   1.480  0.3887  0.5862 -0.8454
  121MOL0     H16634  11.155   0.986   1.351  2.2644 -1.0193  0.4610
  121MOL0     H16635  10.981   1.108   1.530 -1.5694  0.9432  4.5178
  121MOL0     H16636  11.051   1.003   1.649  1.2804  0.2453  0.4217
  121MOL0     H16637  11.286   1.067   1.602 -0.0148 -0.4202  0.9554
  121MOL0     H16638  11.215   1.184   1.487 -1.3924 -0.7902 -0.8123
  121MOL0     H16639  11.197   1.162   1.797  1.0080 -0.0327 -0.9305
  121MOL0     H16640  11.082   1.263   1.705  0.3968  0.6336  0.7959
  121MOL0     H16641  11.298   1.405   1.631  3.1943 -0.5522 -1.3620
  121MOL0     H16642  11.309   1.373   1.808 -0.4806  0.2174 -0.2306
  121MOL0     H16643  11.452   1.229   1.591  1.2789 -1.3014  1.6494
  121MOL0     H16644  11.423   1.170   1.756 -0.7401  1.4319  1.9614
  121MOL0     H16645  11.576   1.417   1.651  2.2375 -0.6382 -0.7439
  121MOL0     H16646  11.533   1.401   1.828 -1.1240 -0.0252 -1.1020
  121MOL0     H16647  11.657   1.153   1.940  2.6745 -0.7506  1.8159
  121MOL0     H16648  11.820   0.924   1.841  1.3197  0.0214  1.7665
  121MOL0     H16649  11.896   1.016   1.967 -2.2162 -1.4972  0.7779
  121MOL0     H16650  12.043   0.970   1.704 -2.9177  1.7092 -0.0311
  121MOL0     H16651  12.115   1.015   1.852  1.4536 -0.3881 -1.8448
  121MOL0     H16652  12.020   0.786   1.957 -0.4749 -0.8540 -0.5337
  121MOL0     H16653  11.998   0.742   1.789 -0.7782 -1.4958  1.1810
  121MOL0     H16654  12.210   0.661   1.848  4.0660  0.0082 -0.9671
  121MOL0     H16655  12.228   0.793   1.729  4.2246 -2.7424  0.5868
  121MOL0     H16656  12.430   0.687   1.774  0.7923 -1.4693  1.1543
  121MOL0     H16657  12.757   0.555   1.810 -0.4144  1.1764  2.4513
  121MOL0     H16658  12.742   0.682   1.698  1.3354 -1.8022 -0.4939
  121MOL0     H16659  12.614   0.561   1.707 -0.0564  1.2242 -0.1564
  121MOL0     H16660  13.059   0.860   1.697 -0.5208 -2.2582 -1.7714
  121MOL0     H16661  13.310   0.835   1.681  0.5740  1.3765  1.3960
  121MOL0     H16662  13.579   0.597   1.957 -0.8081  0.2837  0.4655
  121MOL0     H16663  13.484   0.501   1.854  3.7571 -2.1949  0.2228
  121MOL0     H16664  13.710   0.504   1.765  0.8960  0.6211 -0.6077
  121MOL0     H16665  13.616   0.622   1.660 -1.3588 -1.3241  0.5688
  121MOL0     H16666  13.698   0.798   1.786 -0.2759  0.4624 -0.2530
  121MOL0     H16667  13.825   0.695   1.699  3.1891 -0.8801  2.4549
  121MOL0     H16668  13.907   0.609   1.916 -0.2151  0.6416  0.2894
  121MOL0     H16669  13.779   0.702   1.992 -0.2857  1.8434 -0.0124
  121MOL0     H16670  13.999   0.805   1.818 -0.9061 -4.8304 -0.2959
  121MOL0     H16671  13.910   0.917   1.898 -0.1676 -0.7827 -4.5651
  121MOL0     H16672  14.102   0.904   2.020 -1.1933  0.8162  0.0682
  121MOL0     H16673  14.110   0.727   2.005 -0.7901 -1.2300  1.5302
  121MOL0     H16674  13.922   0.720   2.169 -0.4030 -0.4449  0.0569
  121MOL0     H16675  13.933   0.904   2.168  0.1830 -0.7102 -3.2149
  121MOL0     H16676  14.165   0.886   2.273  0.5128 -1.0108  0.5266
  121MOL0     H16677  14.179   0.718   2.243  2.8818  2.2507  3.2487
  121MOL0     H16678  13.313   0.612   2.047 -0.4425 -0.3314  0.0500
  121MOL0     H16679  13.071   0.629   2.060  1.3967 -2.4063  0.4126
  121MOL0     H16680  12.675   0.879   2.159 -0.5945  4.1173 -0.5605
  121MOL0     H16681  12.440   0.935   2.122 -0.9939 -0.8610 -0.3239
  121MOL0     H16682  10.854   0.691   1.671 -0.1522 -0.0102  0.6613
  121MOL0     H16683  10.650   0.554   1.714  1.5998 -0.1396  1.5289
  121MOL0     H16684  10.342   0.329   1.606 -0.8908 -0.7032  1.0455
  121MOL0     H16685  10.151   0.178   1.621 -1.2600 -0.2540  0.9028
  121MOL0     H16686   9.769   0.366   1.621 -1.2727 -0.7602 -0.3410
  121MOL0     H16687   9.756   0.326   1.454  1.0772  1.6201  0.7600
  121MOL0     H16688   9.709   0.154   1.694 -1.1291  0.7551 -0.9826
  121MOL0     H16689   9.714   0.076   1.534 -1.1155  0.5072 -3.7006
  121MOL0     H16690   9.531   0.221   1.450  2.6699  1.6804  0.1867
  121MOL0     H16691   9.485   0.098   1.565 -1.6001 -0.0797  0.3553
  121MOL0     H16692   9.528   0.388   1.635  0.5766  0.1867 -0.7733
  121MOL0     H16693   9.514   0.269   1.764 -0.7252  0.8159  0.6527
  121MOL0     H16694   9.126   0.298   1.606 -1.9564 -4.3933  6.1133
  121MOL0     H16695   9.902   0.486   1.455 -0.9720 -0.2712  2.3539
  121MOL0     H16696   9.971   0.688   1.415 -0.9359 -3.0596  0.0820
  121MOL0     H16697  10.113   0.743   1.494  1.8205  1.0271 -1.7800
  121MOL0     H16698  10.109   0.685   1.312 -1.8207 -3.0254 -0.7588
  122MOL0     O16699  11.050  10.046  11.103 -1.0288  0.4040 -0.2501
  122MOL0     C16700  10.974  10.139  11.091  0.1737 -0.9366  1.0310
  122MOL0     O16701  11.014  10.272  11.063  0.1247 -0.1202  0.2916
  122MOL0     C16702  11.146  10.294  11.044  0.3136  0.3419 -0.5166
  122MOL0     C16703  11.198  10.398  11.117  0.0189  0.3856  0.5111
  122MOL0     C16704  11.338  10.419  11.116  0.9331 -0.2966 -1.1523
  122MOL0     C16705  11.420  10.354  11.020  0.5712 -0.5585 -0.9007
  122MOL0     O16706  11.548  10.384  11.029 -0.5094  0.0355  0.2043
  122MOL0     C16707  11.643  10.338  10.934  0.2988  0.2666  0.4518
  122MOL0     C16708  11.789  10.337  10.990  0.2784 -0.0753 -0.0967
  122MOL0     C16709  11.842  10.477  10.987 -0.1211 -0.0525  0.7751
  122MOL0     C16710  11.949  10.509  11.096 -0.5055  0.0117  0.4892
  122MOL0     C16711  12.050  10.615  11.039  0.4436  0.8916 -0.6015
  122MOL0     C16712  12.165  10.638  11.130 -0.3013  0.2398  0.8114
  122MOL0     C16713  12.258  10.747  11.080 -1.1011 -0.8392  0.1609
  122MOL0     C16714  12.373  10.744  11.183 -0.2243 -0.0862 -0.7191
  122MOL0     N16715  12.488  10.823  11.131 -0.4289 -0.9995  0.8221
  122MOL0     C16716  12.487  10.963  11.119  0.3688 -1.4137 -0.1480
  122MOL0     C16717  12.611  10.987  11.067 -0.0647  0.3368  0.2221
  122MOL0     C16718  12.647  11.131  11.030 -0.1426  0.1756 -0.3657
  122MOL0     C16719  12.665  11.235  11.144  0.6762  0.0484 -0.9545
  122MOL0     C16720  12.753  11.167  11.249 -0.3996 -0.0535  0.3043
  122MOL0     C16721  12.808  11.263  11.345  0.2233  0.2517 -0.0965
  122MOL0     O16722  12.924  11.319  11.290 -1.3389 -0.7980  0.2285
  122MOL0     C16723  13.002  11.410  11.361 -0.5525  0.2435 -0.4653
  122MOL0     C16724  12.988  11.460  11.488 -0.3798  0.4453  0.0181
  122MOL0     C16725  13.087  11.535  11.549  1.1809 -0.6155 -0.5890
  122MOL0     C16726  13.056  11.576  11.694 -0.0257 -0.7844  0.0931
  122MOL0     C16727  13.201  11.571  11.476  0.2145  0.1498 -0.2406
  122MOL0     C16728  13.303  11.663  11.535  0.2286 -0.5347 -1.2363
  122MOL0     O16729  13.368  11.739  11.448  0.2583 -0.2038 -0.3653
  122MOL0     C16730  13.475  11.812  11.476 -0.3905  0.9485 -0.0049
  122MOL0     C16731  13.610  11.772  11.440 -0.1476  0.9435 -0.1081
  122MOL0     C16732  13.721  11.841  11.473  0.7951  0.0101  0.0524
  122MOL0     C16733  13.708  11.958  11.549 -0.4774 -0.7940 -0.1237
  122MOL0     O16734  13.825  12.032  11.573 -0.2739  0.9783  0.6009
  122MOL0     C16735  13.812  12.159  11.637  0.0705 -0.7425  0.3811
  122MOL0     C16736  13.961  12.214  11.675  0.2821 -0.3064  0.7617
  122MOL0     C16737  14.055  12.199  11.556 -0.4688  0.0555 -0.4682
  122MOL0     C16738  14.199  12.249  11.600 -0.1347  0.1767 -0.2713
  122MOL0     C16739  14.283  12.292  11.474  0.6478 -0.6509 -0.4398
  122MOL0     C16740  14.312  12.182  11.369 -0.5590  0.1620  0.7470
  122MOL0     C16741  14.409  12.257  11.287  0.1128  0.5933 -0.2147
  122MOL0     C16742  14.431  12.193  11.157  0.0153 -0.3274 -0.7765
  122MOL0    Cl16743  14.488  12.024  11.166  0.3531 -0.1109 -0.0742
  122MOL0     C16744  13.577  12.005  11.582 -0.1042 -0.0614 -0.6461
  122MOL0     C16745  13.460  11.935  11.547  0.1076 -0.7732  0.4113
  122MOL0     O16746  13.319  11.665  11.662  0.7111  0.4087  0.0168
  122MOL0     C16747  13.215  11.516  11.340  0.3919  0.6451  0.4086
  122MOL0     C16748  13.115  11.443  11.300 -0.3632 -0.0693 -0.0389
  122MOL0     N16749  12.680  10.874  11.045  0.2810  0.6645  0.3782
  122MOL0     N16750  12.606  10.778  11.085 -0.2239  0.0695 -0.0024
  122MOL0     C16751  11.360  10.263  10.931  0.5931 -0.1383  0.4241
  122MOL0     C16752  11.224  10.229  10.947 -0.0292  0.9466 -0.0734
  122MOL0     C16753  10.840  10.124  11.141 -0.7943  0.1765 -0.1984
  122MOL0     C16754  10.785  10.230  11.208  0.5839  0.8247  0.9164
  122MOL0     C16755  10.663  10.214  11.282  0.8094  0.7135 -0.0628
  122MOL0     C16756  10.596  10.088  11.288 -0.4762  0.3012  0.7727
  122MOL0     O16757  10.477  10.059  11.344 -0.6898  0.0033 -0.7968
  122MOL0     C16758  10.422  10.146  11.443 -0.4772 -0.5011  0.9281
  122MOL0     C16759  10.300  10.086  11.520 -0.3426  0.0641  0.2015
  122MOL0     C16760  10.213   9.987  11.441  0.3403 -0.3987  0.0579
  122MOL0     C16761  10.149  10.050  11.314  0.4434 -0.1774 -0.1791
  122MOL0     C16762  10.042  10.143  11.360 -0.2499  0.2746  1.4422
  122MOL0     C16763   9.943  10.208  11.384 -1.1042 -0.0852  0.3453
  122MOL0     C16764  10.647   9.985  11.204 -0.0322  0.7435 -0.0367
  122MOL0     C16765  10.763  10.002  11.128  0.0693 -0.6316  0.3575
  122MOL0     C16766  10.811   9.892  11.036 -0.0451  0.1197 -0.0589
  122MOL0     H16767  11.134  10.455  11.183 -1.1500  1.7927 -1.7240
  122MOL0     H16768  11.383  10.475  11.197  1.9252 -2.6308  0.0020
  122MOL0     H16769  11.649  10.397  10.843 -0.1059 -0.4014 -0.0176
  122MOL0     H16770  11.626  10.231  10.917 -0.5656  0.6982 -1.6410
  122MOL0     H16771  11.794  10.294  11.090  0.3685  3.9710  1.8489
  122MOL0     H16772  11.848  10.266  10.932 -0.6095 -2.3423  1.6512
  122MOL0     H16773  11.879  10.500  10.887 -0.0437  0.8096  1.0010
  122MOL0     H16774  11.752  10.537  11.002 -0.4128  0.2398 -1.6920
  122MOL0     H16775  11.897  10.561  11.177 -4.3717 -1.0197 -1.1022
  122MOL0     H16776  11.992  10.414  11.131  0.1420 -0.3779 -1.2369
  122MOL0     H16777  11.995  10.709  11.028  0.6364  1.1358  0.4956
  122MOL0     H16778  12.089  10.575  10.945  1.4250  2.1039 -0.7270
  122MOL0     H16779  12.125  10.662  11.229 -1.7757  0.8346  0.1164
  122MOL0     H16780  12.222  10.545  11.136  0.9331  1.0427  1.9338
  122MOL0     H16781  12.197  10.838  11.084 -0.8489 -0.6813  0.6355
  122MOL0     H16782  12.302  10.731  10.981 -1.3215  3.0604 -0.7275
  122MOL0     H16783  12.351  10.793  11.278  0.5617 -0.7053 -0.2013
  122MOL0     H16784  12.402  10.640  11.200 -1.5725 -0.2598  0.6348
  122MOL0     H16785  12.412  11.033  11.153  1.7627 -0.6824  1.6337
  122MOL0     H16786  12.564  11.164  10.967 -0.0269  1.6390  0.2281
  122MOL0     H16787  12.733  11.117  10.964 -2.1162 -4.4642 -2.4452
  122MOL0     H16788  12.714  11.326  11.109  0.3727 -0.3694 -2.5439
  122MOL0     H16789  12.566  11.252  11.188  2.2420  3.3826  1.7698
  122MOL0     H16790  12.702  11.091  11.308  1.0796 -0.1625  1.5246
  122MOL0     H16791  12.840  11.125  11.196 -0.6336  1.2645 -1.2045
  122MOL0     H16792  12.734  11.340  11.366  0.9560  0.5407  1.5513
  122MOL0     H16793  12.828  11.216  11.442 -0.6735 -0.9747 -0.4838
  122MOL0     H16794  12.902  11.444  11.552 -0.1473  1.7273  0.6960
  122MOL0     H16795  13.082  11.679  11.720  0.6260 -0.6232 -1.1304
  122MOL0     H16796  13.124  11.515  11.755  1.4627  1.6535  1.0108
  122MOL0     H16797  12.954  11.553  11.727 -0.3682  1.7157  0.9557
  122MOL0     H16798  13.624  11.673  11.398  1.5710  1.0907  0.0756
  122MOL0     H16799  13.823  11.803  11.464  2.1257  2.2245  3.6486
  122MOL0     H16800  13.757  12.232  11.576 -0.2123 -0.8668  0.4859
  122MOL0     H16801  13.771  12.147  11.738  1.0387 -1.1557  0.7401
  122MOL0     H16802  13.945  12.318  11.706 -1.9722  0.1087 -1.3738
  122MOL0     H16803  14.009  12.165  11.760 -0.5939  1.8077  2.5879
  122MOL0     H16804  14.013  12.255  11.472 -0.6412 -1.9586 -1.8016
  122MOL0     H16805  14.064  12.095  11.522 -0.7397  1.5240 -5.9900
  122MOL0     H16806  14.233  12.154  11.642  0.0666 -0.0559 -0.9483
  122MOL0     H16807  14.188  12.334  11.668 -0.5649 -0.9588  1.1285
  122MOL0     H16808  14.232  12.380  11.435  0.0257  0.5800  2.8741
  122MOL0     H16809  14.382  12.325  11.508  0.8879 -1.2150 -0.5679
  122MOL0     H16810  14.226  12.160  11.305  0.8510 -0.3924 -1.0424
  122MOL0     H16811  14.350  12.090  11.416  0.6411  0.3268  0.1500
  122MOL0     H16812  14.505  12.254  11.340  0.3225 -0.4274 -0.6494
  122MOL0     H16813  14.380  12.361  11.267 -0.6226  0.5133  0.3833
  122MOL0     H16814  14.508  12.253  11.107 -0.4735  1.7567  0.8605
  122MOL0     H16815  14.336  12.206  11.104 -1.3361  1.5335  1.8634
  122MOL0     H16816  13.554  12.096  11.636 -0.2533 -0.6933  0.3847
  122MOL0     H16817  13.361  11.970  11.572 -0.1019 -0.0744 -1.2746
  122MOL0     H16818  13.304  11.530  11.280  0.8255 -0.7117  0.7065
  122MOL0     H16819  13.123  11.396  11.202 -1.4323  2.4022 -1.3949
  122MOL0     H16820  11.433  10.212  10.869  2.7210 -0.7483  3.2088
  122MOL0     H16821  11.182  10.150  10.886 -0.6556  1.0157  0.2575
  122MOL0     H16822  10.839  10.324  11.217  2.0559  0.2124 -0.9965
  122MOL0     H16823  10.636  10.292  11.351  2.0819  0.7517  0.4173
  122MOL0     H16824  10.503  10.185  11.505  0.7386 -0.6067 -0.5166
  122MOL0     H16825  10.388  10.239  11.396  2.5416  1.9661  3.1901
  122MOL0     H16826  10.232  10.166  11.554  0.2452  0.3023  0.8290
  122MOL0     H16827  10.335  10.023  11.601 -1.7682 -1.8414 -0.5811
  122MOL0     H16828  10.269   9.895  11.421 -0.2142 -1.2535  2.1368
  122MOL0     H16829  10.129   9.960  11.506  3.3574 -0.0661  4.5351
  122MOL0     H16830  10.112   9.972  11.247  1.0502  0.0535 -0.7925
  122MOL0     H16831  10.221  10.111  11.259 -0.9150  1.0935 -0.6150
  122MOL0     H16832   9.859  10.266  11.417 -2.1214 -1.9699  1.1953
  122MOL0     H16833  10.595   9.890  11.201  2.3076 -0.7483  2.1755
  122MOL0     H16834  10.736   9.812  11.024  2.4424 -2.1089 -1.9447
  122MOL0     H16835  10.816   9.920  10.930  0.1422  0.7290  0.1089
  122MOL0     H16836  10.906   9.849  11.067 -0.6112 -0.5442  0.8323
  123MOL0     O16837   3.895  11.331   4.984  0.7550  0.1277  0.5320
  123MOL0     C16838   3.910  11.382   4.869 -0.0874 -0.3971 -0.8141
  123MOL0     O16839   4.033  11.414   4.808  0.5962  0.7876  0.3756
  123MOL0     C16840   4.137  11.332   4.832  0.0201  1.2223 -0.3732
  123MOL0     C16841   4.186  11.258   4.720 -0.7206 -0.1009  0.4434
  123MOL0     C16842   4.289  11.164   4.735  0.5800  0.2558 -0.6446
  123MOL0     C16843   4.334  11.135   4.865 -0.5598 -0.3435 -0.0826
  123MOL0     O16844   4.424  11.034   4.888 -0.1660 -0.9125  0.5239
  123MOL0     C16845   4.416  10.945   5.001  0.5580  0.8804 -1.5542
  123MOL0     C16846   4.515  10.828   4.982 -0.1712  0.0376  0.0504
  123MOL0     C16847   4.660  10.878   4.972  0.7993 -0.2618  0.0725
  123MOL0     C16848   4.756  10.775   5.027  0.1834  0.5159  0.5214
  123MOL0     C16849   4.905  10.826   5.017 -0.5865  0.2494 -0.8835
  123MOL0     C16850   4.954  10.826   4.874  0.0984  0.4590 -0.2223
  123MOL0     C16851   5.107  10.849   4.866  1.0833 -0.4087  0.2035
  123MOL0     C16852   5.158  10.839   4.722  0.7608 -0.4615  0.1427
  123MOL0     N16853   5.304  10.844   4.704  0.2326  1.0631 -0.1604
  123MOL0     C16854   5.380  10.737   4.735  0.2574 -0.3948  0.1763
  123MOL0     C16855   5.506  10.786   4.728  0.4275 -0.7437 -0.6710
  123MOL0     C16856   5.640  10.721   4.742  0.0453  0.4573  0.3002
  123MOL0     C16857   5.711  10.813   4.845  0.6373 -0.0522  0.3937
  123MOL0     C16858   5.847  10.754   4.881 -0.1147 -0.1221  0.5352
  123MOL0     C16859   5.912  10.852   4.980 -0.3479  0.4589 -1.3769
  123MOL0     O16860   6.025  10.768   5.028 -0.0140  0.3188 -0.3767
  123MOL0     C16861   6.149  10.824   5.046 -0.2359  0.2753 -0.9693
  123MOL0     C16862   6.175  10.966   5.034 -0.5251 -0.1762  0.0560
  123MOL0     C16863   6.307  11.008   5.044  0.8073  0.3170 -0.0943
  123MOL0     C16864   6.331  11.155   5.019  0.3980  0.3464 -0.0678
  123MOL0     C16865   6.411  10.915   5.072  0.3505 -0.3204  0.0211
  123MOL0     C16866   6.551  10.955   5.095 -0.2321 -0.3935  1.1123
  123MOL0     O16867   6.648  10.854   5.097 -0.8308 -0.7441 -0.4521
  123MOL0     C16868   6.782  10.880   5.111 -0.3719 -0.1580 -0.3751
  123MOL0     C16869   6.858  10.782   5.173 -0.7639  0.4796 -0.3775
  123MOL0     C16870   6.998  10.790   5.174  0.0260 -0.6263  0.2810
  123MOL0     C16871   7.069  10.896   5.114 -0.5307 -0.6081 -0.2226
  123MOL0     O16872   7.205  10.910   5.099  0.2684  0.2101  0.3656
  123MOL0     C16873   7.288  10.827   5.181 -0.4151  0.6457 -0.2584
  123MOL0     C16874   7.430  10.888   5.182  0.2565  0.3324  0.7997
  123MOL0     C16875   7.458  11.025   5.258  0.1461 -0.8906 -0.1516
  123MOL0     C16876   7.607  11.070   5.249 -0.0329  0.2837 -0.0593
  123MOL0     C16877   7.644  11.211   5.315 -0.1631 -0.9195 -1.4142
  123MOL0     C16878   7.633  11.330   5.215  0.1604 -0.4200  0.4324
  123MOL0     C16879   7.708  11.459   5.253 -0.2397  0.8589  0.4138
  123MOL0     C16880   7.670  11.575   5.166  0.5648 -0.0775  1.0045
  123MOL0    Cl16881   7.727  11.541   4.997  0.0811 -0.4751  0.0766
  123MOL0     C16882   6.996  10.998   5.062 -0.0896  0.9319  0.1606
  123MOL0     C16883   6.854  10.992   5.051  0.2418  1.4418  0.0394
  123MOL0     O16884   6.571  11.070   5.116 -0.7592 -0.0604  0.2260
  123MOL0     C16885   6.387  10.778   5.087 -0.3832 -0.4792 -0.7216
  123MOL0     C16886   6.256  10.731   5.062  0.0571 -0.5699 -0.1728
  123MOL0     N16887   5.496  10.907   4.663 -0.3146  0.3481  0.3573
  123MOL0     N16888   5.375  10.947   4.661 -0.0533  0.2497 -0.2788
  123MOL0     C16889   4.286  11.205   4.976 -0.1184 -0.1986  0.0426
  123MOL0     C16890   4.189  11.303   4.964  0.0393 -0.0437 -0.2522
  123MOL0     C16891   3.786  11.430   4.806  0.8717 -0.2264  0.3626
  123MOL0     C16892   3.793  11.481   4.669  0.6472 -1.3003 -0.8561
  123MOL0     C16893   3.680  11.542   4.610  0.4727  0.7546 -0.0257
  123MOL0     C16894   3.558  11.561   4.673 -0.2430 -0.0267 -0.2053
  123MOL0     O16895   3.455  11.614   4.605  0.1406 -0.0302 -0.1590
  123MOL0     C16896   3.330  11.648   4.665  0.5057  0.0310  0.5057
  123MOL0     C16897   3.232  11.631   4.553 -0.1660  0.0448  0.1757
  123MOL0     C16898   3.096  11.688   4.577 -0.8515  0.5111  0.8079
  123MOL0     C16899   2.999  11.667   4.469 -0.2629  0.1354  0.2628
  123MOL0     C16900   2.865  11.724   4.511 -1.1410 -0.1870 -0.1104
  123MOL0     C16901   2.750  11.764   4.526  0.3611  0.6079 -0.2468
  123MOL0     C16902   3.552  11.514   4.801 -0.3222 -0.6924  1.1549
  123MOL0     C16903   3.657  11.449   4.868  0.1963 -0.0325  0.3781
  123MOL0     C16904   3.624  11.420   5.027 -0.5324 -0.6916  0.6853
  123MOL0     H16905   4.147  11.276   4.621  1.1433  1.2239 -0.1113
  123MOL0     H16906   4.322  11.104   4.651 -1.2108 -0.3737 -0.9427
  123MOL0     H16907   4.311  10.914   5.012  0.8694 -0.4337 -2.1362
  123MOL0     H16908   4.426  10.995   5.098 -1.1290 -1.3157 -0.1458
  123MOL0     H16909   4.515  10.752   5.060 -0.9238 -0.5656 -0.5110
  123MOL0     H16910   4.486  10.773   4.891 -1.6561  0.3326  0.3186
  123MOL0     H16911   4.683  10.911   4.870 -1.2968 -1.4894 -0.8794
  123MOL0     H16912   4.665  10.970   5.030  1.1504 -0.5068  0.4328
  123MOL0     H16913   4.735  10.754   5.132 -1.6802  0.9327  0.2694
  123MOL0     H16914   4.758  10.678   4.977  1.8982  2.2494 -3.1983
  123MOL0     H16915   4.968  10.763   5.080 -1.7416 -1.9495 -1.8360
  123MOL0     H16916   4.904  10.932   5.046 -2.1122  0.7728 -2.6271
  123MOL0     H16917   4.926  10.725   4.842  0.5043 -1.3161  4.3344
  123MOL0     H16918   4.897  10.901   4.818 -2.0147 -0.4174  0.6633
  123MOL0     H16919   5.147  10.770   4.930 -1.7768 -0.6337  1.8524
  123MOL0     H16920   5.122  10.949   4.907  2.1846  0.5253 -2.2869
  123MOL0     H16921   5.121  10.748   4.674 -0.8808 -0.3995  1.2235
  123MOL0     H16922   5.113  10.918   4.661  4.3383  0.8417 -1.0987
  123MOL0     H16923   5.351  10.640   4.775  2.6081 -1.3636 -0.3216
  123MOL0     H16924   5.682  10.714   4.641  0.3911 -0.5305  0.4954
  123MOL0     H16925   5.617  10.619   4.776 -0.6997  0.6978  0.5526
  123MOL0     H16926   5.735  10.911   4.801 -0.9027 -0.1934 -0.8432
  123MOL0     H16927   5.646  10.822   4.932  1.9938  2.0296  1.2805
  123MOL0     H16928   5.839  10.653   4.923  1.5382 -0.5153 -0.0295
  123MOL0     H16929   5.915  10.746   4.796 -0.3125  1.2836  0.2212
  123MOL0     H16930   5.938  10.948   4.933  0.0903  0.3128 -1.4373
  123MOL0     H16931   5.858  10.865   5.074  0.4839 -2.7410 -0.3418
  123MOL0     H16932   6.097  11.039   5.020 -1.7412 -1.7200 -1.6012
  123MOL0     H16933   6.423  11.170   4.962  0.4439 -0.5282 -0.2413
  123MOL0     H16934   6.333  11.213   5.111 -2.9059 -3.1274  2.4960
  123MOL0     H16935   6.248  11.191   4.957 -1.1573 -2.5785  0.1534
  123MOL0     H16936   6.813  10.692   5.215 -0.0006  0.6764  0.9102
  123MOL0     H16937   7.051  10.712   5.228 -0.1106  0.5557  2.2062
  123MOL0     H16938   7.264  10.831   5.287  3.9349 -0.0223  0.9420
  123MOL0     H16939   7.284  10.729   5.133 -1.5606  0.4427  0.2134
  123MOL0     H16940   7.508  10.819   5.214  3.6167  3.2176 -0.5452
  123MOL0     H16941   7.452  10.908   5.077  0.4312  0.1590  0.8032
  123MOL0     H16942   7.426  11.012   5.362  0.3870  3.3910  0.6270
  123MOL0     H16943   7.396  11.107   5.221  0.1642 -1.8968 -2.5652
  123MOL0     H16944   7.661  11.077   5.154  0.2357  1.8665  0.1919
  123MOL0     H16945   7.650  10.996   5.317 -2.1647 -0.2489  0.7804
  123MOL0     H16946   7.587  11.239   5.404  5.2505 -3.2192  3.4541
  123MOL0     H16947   7.742  11.214   5.364 -0.5939 -0.6487 -0.5367
  123MOL0     H16948   7.525  11.341   5.200 -0.3769 -2.1130  2.6312
  123MOL0     H16949   7.666  11.302   5.114  1.5942 -2.9006  1.5034
  123MOL0     H16950   7.815  11.440   5.241 -0.3349 -0.0444  0.9706
  123MOL0     H16951   7.683  11.483   5.357 -0.0834 -2.7559  1.4079
  123MOL0     H16952   7.705  11.670   5.206  0.7581 -0.3172  1.4125
  123MOL0     H16953   7.561  11.580   5.172  0.6123  0.4381  1.5796
  123MOL0     H16954   7.039  11.086   5.014  0.2234  1.4099  1.2780
  123MOL0     H16955   6.799  11.061   4.988  0.1654  0.9748 -0.4120
  123MOL0     H16956   6.448  10.690   5.102 -2.2379 -1.7342 -0.1081
  123MOL0     H16957   6.226  10.627   5.062 -3.9686  0.4097 -1.6271
  123MOL0     H16958   4.323  11.181   5.075 -1.7444 -0.3767  0.6399
  123MOL0     H16959   4.143  11.354   5.048 -2.6232 -1.8803 -0.4612
  123MOL0     H16960   3.889  11.495   4.619  1.7864 -1.9495  1.0197
  123MOL0     H16961   3.697  11.584   4.511 -0.6808  1.5319  0.0759
  123MOL0     H16962   3.303  11.576   4.742 -1.3016 -0.9435 -0.9635
  123MOL0     H16963   3.323  11.745   4.714 -2.0701 -0.1546  0.6008
  123MOL0     H16964   3.217  11.523   4.543  1.1297 -0.1659  0.3757
  123MOL0     H16965   3.275  11.667   4.460 -0.3880  2.3613  0.9099
  123MOL0     H16966   3.047  11.655   4.669 -1.4647  0.5667  0.5075
  123MOL0     H16967   3.110  11.796   4.578 -2.1509  0.6932  0.9072
  123MOL0     H16968   2.995  11.560   4.448  0.0502  0.1648  0.0475
  123MOL0     H16969   3.028  11.716   4.375  0.3768  2.0584  1.4114
  123MOL0     H16970   2.656  11.812   4.543  2.1275  4.2514  0.1121
  123MOL0     H16971   3.455  11.508   4.850  0.0412 -0.4485  1.9205
  123MOL0     H16972   3.534  11.475   5.053 -1.1383 -1.6200  0.5763
  123MOL0     H16973   3.611  11.313   5.045  3.9054 -1.4680  0.5768
  123MOL0     H16974   3.709  11.472   5.073 -0.2026  2.1282 -2.6837
  124MOL0     O16975   5.227   2.280   7.270  0.3885  0.3109 -0.5729
  124MOL0     C16976   5.205   2.371   7.191  0.8113 -0.0197 -0.5319
  124MOL0     O16977   5.287   2.404   7.086 -0.0996 -0.3988  0.2795
  124MOL0     C16978   5.421   2.378   7.089 -0.6595 -0.0462 -0.1712
  124MOL0     C16979   5.494   2.420   7.198 -0.1595  0.2776 -0.6344
  124MOL0     C16980   5.626   2.396   7.213 -0.1148 -0.6469  1.2269
  124MOL0     C16981   5.696   2.350   7.090 -0.3071 -0.8871  0.2671
  124MOL0     O16982   5.831   2.322   7.087  0.0579 -0.3043 -0.1843
  124MOL0     C16983   5.920   2.368   7.195  0.5191  0.4731  0.5107
  124MOL0     C16984   6.063   2.362   7.143  0.3778 -0.6090 -0.3119
  124MOL0     C16985   6.152   2.447   7.241  0.5723  0.0193 -0.5828
  124MOL0     C16986   6.295   2.386   7.222 -0.5400  0.3979 -0.2760
  124MOL0     C16987   6.408   2.472   7.283 -0.5761 -0.0330  0.1995
  124MOL0     C16988   6.544   2.399   7.280  0.0986 -0.4328  0.1596
  124MOL0     C16989   6.665   2.489   7.318  0.1877 -0.6401 -0.5420
  124MOL0     C16990   6.788   2.406   7.360 -0.0632 -0.2066  0.5317
  124MOL0     N16991   6.892   2.471   7.429 -0.6040 -0.4682  0.1518
  124MOL0     C16992   6.912   2.466   7.567  0.1673  0.7076 -0.4787
  124MOL0     C16993   7.026   2.534   7.583  0.3421  0.1071 -1.3362
  124MOL0     C16994   7.089   2.546   7.715 -0.5101 -0.0410  0.7324
  124MOL0     C16995   7.229   2.488   7.738 -0.5028 -0.5197  0.4454
  124MOL0     C16996   7.295   2.544   7.862  0.4253 -0.4299 -0.2309
  124MOL0     C16997   7.366   2.680   7.844  0.0894 -1.0474  0.1072
  124MOL0     O16998   7.390   2.737   7.976 -0.0144 -0.0852  0.8244
  124MOL0     C16999   7.514   2.711   8.035 -0.4866  0.6745 -0.1049
  124MOL0     C17000   7.529   2.773   8.159 -0.8008  0.3654 -0.4601
  124MOL0     C17001   7.648   2.766   8.236  0.8163  0.4399  0.8202
  124MOL0     C17002   7.649   2.839   8.373  0.7557 -0.0829  0.5427
  124MOL0     C17003   7.755   2.682   8.187 -0.1799 -0.3006  0.4860
  124MOL0     C17004   7.887   2.667   8.255 -0.1766 -0.0009  0.6337
  124MOL0     O17005   7.956   2.559   8.219 -0.3634  0.2791  0.5319
  124MOL0     C17006   8.088   2.537   8.248 -0.0869 -0.5673 -0.9123
  124MOL0     C17007   8.174   2.495   8.146  0.0024 -0.7670  0.4808
  124MOL0     C17008   8.313   2.468   8.171  0.3202  0.0599  0.1117
  124MOL0     C17009   8.364   2.475   8.293  0.0018 -1.2458 -0.5334
  124MOL0     O17010   8.499   2.456   8.308 -0.7302 -0.1001  1.0407
  124MOL0     C17011   8.570   2.540   8.406 -0.6022  0.0765  0.2467
  124MOL0     C17012   8.583   2.475   8.547  0.2173  0.3807 -0.4148
  124MOL0     C17013   8.692   2.362   8.543  0.5233 -0.7314  0.0459
  124MOL0     C17014   8.839   2.407   8.527 -0.3863 -0.2797  0.4386
  124MOL0     C17015   8.934   2.285   8.507  0.3529  0.2114  0.3513
  124MOL0     C17016   9.077   2.336   8.491  0.1001  0.0433 -0.9769
  124MOL0     C17017   9.184   2.231   8.489  0.3566 -0.5090  0.8189
  124MOL0     C17018   9.190   2.163   8.349 -0.0048  0.4492  0.3663
  124MOL0    Cl17019   9.326   2.043   8.349  0.0260  0.0506 -0.0121
  124MOL0     C17020   8.277   2.519   8.399 -0.7346 -0.1474  0.2803
  124MOL0     C17021   8.138   2.543   8.377 -0.0086  1.0378  0.4690
  124MOL0     O17022   7.927   2.756   8.329 -0.0451  0.4222 -0.7651
  124MOL0     C17023   7.742   2.613   8.067  0.5227  0.7514  0.0841
  124MOL0     C17024   7.618   2.630   7.988  0.2390  1.1023 -0.2293
  124MOL0     N17025   7.074   2.572   7.465  0.0960 -0.2705  0.1505
  124MOL0     N17026   6.990   2.547   7.373 -0.5057  0.5784  0.9135
  124MOL0     C17027   5.624   2.324   6.978  0.1156  0.0473  0.6795
  124MOL0     C17028   5.487   2.340   6.970  0.1193 -0.2972 -0.6327
  124MOL0     C17029   5.060   2.422   7.191  0.2667 -0.0934  0.0466
  124MOL0     C17030   5.019   2.482   7.070  0.1373 -0.2941  0.8122
  124MOL0     C17031   4.888   2.523   7.049  0.2570  0.0040 -0.1634
  124MOL0     C17032   4.797   2.535   7.150 -0.5490 -0.9679 -0.9864
  124MOL0     O17033   4.665   2.581   7.136 -0.8233  0.2258 -0.7005
  124MOL0     C17034   4.623   2.666   7.026 -0.3501 -0.2913  0.0842
  124MOL0     C17035   4.519   2.765   7.081 -0.1856 -0.3015 -0.8747
  124MOL0     C17036   4.449   2.842   6.969 -0.2229  0.2266  0.0137
  124MOL0     C17037   4.310   2.794   6.937  0.2724  0.1143 -0.4899
  124MOL0     C17038   4.242   2.876   6.840  0.4015 -0.0890  0.2915
  124MOL0     C17039   4.191   2.952   6.755  0.0092 -0.0119 -0.3385
  124MOL0     C17040   4.829   2.469   7.265  0.4486  0.0686  0.0686
  124MOL0     C17041   4.959   2.414   7.286  0.6448 -0.1196  0.1207
  124MOL0     C17042   4.973   2.339   7.416 -0.0790 -0.7718  0.0139
  124MOL0     H17043   5.439   2.455   7.285 -1.1801 -0.5817 -0.9126
  124MOL0     H17044   5.675   2.410   7.309  2.5006  2.9459 -0.3777
  124MOL0     H17045   5.914   2.310   7.287  1.8850 -2.8365 -1.3307
  124MOL0     H17046   5.892   2.473   7.211 -1.9914 -0.1822  0.7828
  124MOL0     H17047   6.097   2.258   7.139  0.6061 -0.5196 -0.7048
  124MOL0     H17048   6.071   2.403   7.042 -1.0073  0.0238 -0.1936
  124MOL0     H17049   6.151   2.552   7.212  2.1837  0.5451  1.0986
  124MOL0     H17050   6.115   2.428   7.342 -0.4212 -1.1413 -1.1385
  124MOL0     H17051   6.290   2.286   7.266  2.5616 -0.7047 -2.0924
  124MOL0     H17052   6.320   2.365   7.118 -1.5820 -0.9815 -0.2845
  124MOL0     H17053   6.379   2.498   7.385 -0.6344  4.0107 -0.6644
  124MOL0     H17054   6.413   2.569   7.233  1.5039  0.3182  0.9848
  124MOL0     H17055   6.535   2.314   7.349 -1.8033  2.3094  3.6343
  124MOL0     H17056   6.569   2.360   7.181  0.4190  0.5846 -0.1670
  124MOL0     H17057   6.646   2.548   7.408  3.0526  1.0608 -0.9140
  124MOL0     H17058   6.692   2.552   7.232 -2.0000  0.4529 -0.4935
  124MOL0     H17059   6.753   2.309   7.397  0.9943 -0.7019  0.2973
  124MOL0     H17060   6.821   2.378   7.259 -1.7085  5.8316 -2.1262
  124MOL0     H17061   6.853   2.411   7.639 -2.3299  0.5952 -2.4645
  124MOL0     H17062   7.026   2.494   7.788  1.3909 -1.3858  1.4959
  124MOL0     H17063   7.088   2.654   7.732 -1.7034  0.6225 -2.7499
  124MOL0     H17064   7.243   2.379   7.730  3.4025 -0.0174 -2.4595
  124MOL0     H17065   7.291   2.512   7.652 -0.3973 -2.0743  0.0483
  124MOL0     H17066   7.216   2.554   7.937  0.7262  3.8700 -0.2600
  124MOL0     H17067   7.377   2.483   7.902  0.5944 -0.3764 -0.4917
  124MOL0     H17068   7.453   2.669   7.780 -0.9690  0.5157 -1.7259
  124MOL0     H17069   7.317   2.756   7.782 -0.1168 -1.9841 -0.8964
  124MOL0     H17070   7.447   2.829   8.203 -0.8756 -0.0018 -0.1266
  124MOL0     H17071   7.549   2.842   8.418  1.2324 -0.2729  1.6439
  124MOL0     H17072   7.694   2.937   8.356  1.9072 -0.4180  1.6226
  124MOL0     H17073   7.723   2.792   8.438 -0.2576 -3.2060 -0.3910
  124MOL0     H17074   8.139   2.501   8.044  0.2467  1.6967  0.4870
  124MOL0     H17075   8.385   2.443   8.094  3.0148  1.2023  2.1134
  124MOL0     H17076   8.663   2.560   8.353 -2.3648  1.0535 -2.7230
  124MOL0     H17077   8.527   2.640   8.418 -0.7873  0.3781 -2.3249
  124MOL0     H17078   8.613   2.549   8.622 -0.3082  1.6122 -1.3808
  124MOL0     H17079   8.483   2.443   8.577 -0.4673  2.4474 -0.3333
  124MOL0     H17080   8.670   2.290   8.464  1.2366  0.5098 -1.3357
  124MOL0     H17081   8.684   2.327   8.646 -1.8863 -1.0209 -0.1782
  124MOL0     H17082   8.850   2.476   8.612 -2.1685 -0.4374  0.8524
  124MOL0     H17083   8.842   2.467   8.436 -3.0013 -0.6716  0.0070
  124MOL0     H17084   8.921   2.213   8.589  0.0767 -0.1189  0.0198
  124MOL0     H17085   8.919   2.239   8.409  3.0305 -0.7015  0.3088
  124MOL0     H17086   9.098   2.404   8.574 -3.4098  0.1415 -0.0280
  124MOL0     H17087   9.095   2.391   8.398 -0.6210  0.7988 -0.6887
  124MOL0     H17088   9.174   2.156   8.569  0.1785  0.3975  1.6650
  124MOL0     H17089   9.283   2.277   8.496  0.6262 -0.8875 -0.3551
  124MOL0     H17090   9.212   2.239   8.273  0.9814 -0.1751  0.0197
  124MOL0     H17091   9.099   2.111   8.317  1.7753 -1.6600 -1.5724
  124MOL0     H17092   8.308   2.527   8.503  1.6520 -1.3055 -0.2462
  124MOL0     H17093   8.074   2.566   8.461 -0.7566 -2.5458  1.0097
  124MOL0     H17094   7.816   2.550   8.020  3.4518  3.8570  0.1512
  124MOL0     H17095   7.611   2.571   7.898 -0.6655  2.3406 -1.0130
  124MOL0     H17096   5.677   2.296   6.888  0.1967 -1.4704  1.1772
  124MOL0     H17097   5.430   2.318   6.881  0.0021  0.1905 -0.6824
  124MOL0     H17098   5.084   2.490   6.983 -0.5958 -1.9856  0.0577
  124MOL0     H17099   4.852   2.564   6.955 -2.5794  0.6407  1.0874
  124MOL0     H17100   4.712   2.719   6.993  0.6039 -0.8014  1.7293
  124MOL0     H17101   4.560   2.618   6.950 -1.0370  3.4172 -1.9288
  124MOL0     H17102   4.575   2.839   7.140 -1.5085 -0.3576  0.5173
  124MOL0     H17103   4.445   2.711   7.141  1.3198 -0.8764  0.5251
  124MOL0     H17104   4.444   2.946   7.003  1.6842  0.2375  0.3521
  124MOL0     H17105   4.512   2.831   6.880 -0.4352 -2.1797  0.1000
  124MOL0     H17106   4.242   2.793   7.023 -1.2796 -3.1410 -1.5944
  124MOL0     H17107   4.327   2.694   6.897 -1.1639 -0.4181  0.1514
  124MOL0     H17108   4.150   3.003   6.670  0.5748 -2.0067 -1.8967
  124MOL0     H17109   4.755   2.466   7.345 -0.3469 -1.8256 -0.6810
  124MOL0     H17110   4.922   2.390   7.498 -0.2052 -2.6361  1.1551
  124MOL0     H17111   4.929   2.240   7.401 -0.9087 -0.3203 -0.5574
  124MOL0     H17112   5.073   2.325   7.458  0.4148  1.9645 -0.0381
  125MOL0     O17113   1.960   5.230   0.601 -0.3547  0.0834  0.0430
  125MOL0     C17114   1.961   5.331   0.673  0.4089  0.9873  0.0091
  125MOL0     O17115   2.069   5.413   0.671  0.4967  0.4022 -0.3470
  125MOL0     C17116   2.160   5.410   0.571 -0.6160  0.8368 -0.2932
  125MOL0     C17117   2.172   5.512   0.491  0.3206  1.0568 -0.5892
  125MOL0     C17118   2.254   5.515   0.380  0.3787  0.4559  0.7874
  125MOL0     C17119   2.355   5.422   0.370  0.8724  0.4838  1.3478
  125MOL0     O17120   2.454   5.456   0.281 -0.6465  0.2339  0.2759
  125MOL0     C17121   2.577   5.398   0.297 -0.5040  0.2442 -0.4646
  125MOL0     C17122   2.668   5.459   0.196  1.5017 -0.9047  0.1386
  125MOL0     C17123   2.806   5.411   0.198 -0.0986  0.6604  0.4737
  125MOL0     C17124   2.908   5.466   0.095  0.0339 -0.0370  0.5491
  125MOL0     C17125   3.051   5.406   0.094  0.1241  0.0559 -0.5712
  125MOL0     C17126   3.152   5.503   0.158  0.8947 -0.2958 -0.3645
  125MOL0     C17127   3.283   5.446   0.196 -0.7227  0.0186  0.2512
  125MOL0     C17128   3.364   5.542   0.283  0.3992 -0.0787 -0.3357
  125MOL0     N17129   3.404   5.673   0.229  0.2507 -0.7989  0.7041
  125MOL0     C17130   3.518   5.689   0.148 -0.1176 -0.7606 -0.0880
  125MOL0     C17131   3.534   5.827   0.137 -0.2459 -0.0015 -0.9197
  125MOL0     C17132   3.627   5.907   0.051 -0.2969  0.1916 -0.0388
  125MOL0     C17133   3.746   5.969   0.127  0.3223 -0.2522  0.1407
  125MOL0     C17134   3.850   5.858   0.187  0.0119 -0.1432 -0.2985
  125MOL0     C17135   3.990   5.924   0.182 -1.2759  0.2226 -0.1991
  125MOL0     O17136   4.034   5.937   0.050 -0.2454  0.3979  1.1501
  125MOL0     C17137   4.127   6.040   0.029 -0.4518 -0.0734  0.4932
  125MOL0     C17138   4.228   6.072   0.120  0.6970  1.0155  0.1592
  125MOL0     C17139   4.325   6.163   0.084 -0.6602 -0.4525  0.2642
  125MOL0     C17140   4.408   6.213   0.200  0.4377  0.4342 -0.3417
  125MOL0     C17141   4.322   6.222  -0.041 -0.5657  0.3341  0.3036
  125MOL0     C17142   4.424   6.307  -0.092 -0.4718 -0.7272  0.5434
  125MOL0     O17143   4.383   6.418  -0.164  0.1422 -0.0710 -0.4036
  125MOL0     C17144   4.483   6.486  -0.223 -0.4527  0.1439  0.1803
  125MOL0     C17145   4.554   6.559  -0.135  0.1411  0.5132 -0.5523
  125MOL0     C17146   4.663   6.642  -0.172  0.3841  0.8026 -0.4504
  125MOL0     C17147   4.708   6.644  -0.304  0.0560  0.4529 -0.3082
  125MOL0     O17148   4.815   6.730  -0.332 -0.2124  0.1477  0.3425
  125MOL0     C17149   4.872   6.720  -0.459  0.6184  0.2494  0.0098
  125MOL0     C17150   4.972   6.824  -0.489  0.1190 -0.8853  0.1900
  125MOL0     C17151   5.082   6.825  -0.378 -0.6323  1.0095  1.1826
  125MOL0     C17152   5.200   6.902  -0.429  0.1248  0.2392  0.3300
  125MOL0     C17153   5.314   6.917  -0.328  0.2411 -0.1292 -0.8678
  125MOL0     C17154   5.450   6.927  -0.403 -0.6659 -0.0220 -0.3807
  125MOL0     C17155   5.462   7.046  -0.499 -0.0728  0.2388  0.6178
  125MOL0     C17156   5.616   7.062  -0.544  0.0406  0.7709 -0.0335
  125MOL0    Cl17157   5.707   7.144  -0.407 -0.2989 -0.2105 -0.1448
  125MOL0     C17158   4.634   6.565  -0.395 -0.4496  0.3539 -0.5991
  125MOL0     C17159   4.513   6.498  -0.361 -0.7716 -0.5622  0.0144
  125MOL0     O17160   4.542   6.276  -0.071 -0.0607 -0.4275 -0.2627
  125MOL0     C17161   4.214   6.199  -0.128  0.1902  0.1032  0.4707
  125MOL0     C17162   4.121   6.107  -0.084  0.0468  0.7657  1.0037
  125MOL0     N17163   3.440   5.893   0.220  0.2248  0.4877 -0.2673
  125MOL0     N17164   3.362   5.800   0.272 -0.4409  0.1532 -0.5779
  125MOL0     C17165   2.354   5.314   0.451  0.4981 -0.3004 -0.1727
  125MOL0     C17166   2.256   5.307   0.556 -0.1656 -0.6951  0.6086
  125MOL0     C17167   1.847   5.368   0.757 -0.4804 -0.4082 -0.1617
  125MOL0     C17168   1.871   5.474   0.847  0.0284  0.7898 -1.0716
  125MOL0     C17169   1.778   5.516   0.936 -0.4799 -0.6350  0.3578
  125MOL0     C17170   1.655   5.461   0.944  0.1924  0.6833 -0.1128
  125MOL0     O17171   1.571   5.505   1.043 -0.5593  0.4777  0.2015
  125MOL0     C17172   1.434   5.455   1.048  0.0498  0.4224 -0.2397
  125MOL0     C17173   1.369   5.522   1.163  0.2683  0.3395  0.1021
  125MOL0     C17174   1.407   5.488   1.312 -0.3682 -0.7158 -0.3933
  125MOL0     C17175   1.358   5.346   1.350 -0.0553 -0.7142 -0.3926
  125MOL0     C17176   1.217   5.346   1.375  0.1583  0.3941 -0.1873
  125MOL0     C17177   1.095   5.358   1.392 -0.1535  0.4931 -0.5461
  125MOL0     C17178   1.633   5.354   0.861  0.2012  0.2495 -0.7927
  125MOL0     C17179   1.724   5.314   0.760 -0.1741  0.7232 -0.2728
  125MOL0     C17180   1.670   5.211   0.663  0.4399  0.4449  0.7104
  125MOL0     H17181   2.101   5.591   0.514 -2.5790 -0.7742 -2.5863
  125MOL0     H17182   2.248   5.595   0.306 -1.0202  2.1472  2.6244
  125MOL0     H17183   2.588   5.290   0.285  2.0155  0.3611  0.1875
  125MOL0     H17184   2.599   5.420   0.402 -4.5212 -2.3489  1.1801
  125MOL0     H17185   2.623   5.432   0.100 -0.6477  1.3022  0.4226
  125MOL0     H17186   2.666   5.567   0.215  0.3177 -1.2564  2.2905
  125MOL0     H17187   2.855   5.439   0.292  2.0296  2.0650 -0.9612
  125MOL0     H17188   2.814   5.302   0.206 -1.1092  0.6810  2.3522
  125MOL0     H17189   2.868   5.455  -0.006  0.6348  3.6256 -0.2606
  125MOL0     H17190   2.916   5.574   0.111 -0.9559  0.5148 -2.1095
  125MOL0     H17191   3.083   5.391  -0.010  0.5282 -2.3348 -0.1496
  125MOL0     H17192   3.048   5.313   0.151 -0.9652  0.9764  0.9656
  125MOL0     H17193   3.150   5.589   0.090 -2.7336 -1.1697 -1.5497
  125MOL0     H17194   3.105   5.533   0.253 -0.0637  0.7426 -1.1396
  125MOL0     H17195   3.340   5.428   0.104  0.0272  0.4138  0.6259
  125MOL0     H17196   3.265   5.353   0.251 -1.6603 -0.9379 -1.5823
  125MOL0     H17197   3.309   5.565   0.374 -3.6849 -1.6683 -2.1198
  125MOL0     H17198   3.456   5.487   0.306  0.2655  0.5124  1.7810
  125MOL0     H17199   3.590   5.622   0.103  0.6153 -0.0260 -0.0486
  125MOL0     H17200   3.572   5.991   0.008  2.5603  4.5445  3.7658
  125MOL0     H17201   3.671   5.858  -0.036  2.8865  1.8988  0.4441
  125MOL0     H17202   3.790   6.039   0.056 -1.2257 -0.5222 -1.1604
  125MOL0     H17203   3.697   6.025   0.206  0.1814 -0.5666  0.2781
  125MOL0     H17204   3.814   5.845   0.290  3.1185 -0.7844  0.8054
  125MOL0     H17205   3.836   5.759   0.145 -0.8976 -0.0265 -0.3090
  125MOL0     H17206   3.975   6.018   0.236  2.4800  0.3729  0.8484
  125MOL0     H17207   4.070   5.868   0.230 -1.4021  0.2681  0.0656
  125MOL0     H17208   4.223   6.043   0.224  0.5290 -0.9743 -0.3639
  125MOL0     H17209   4.501   6.157   0.204  1.5440  2.2033  0.1112
  125MOL0     H17210   4.349   6.210   0.292  0.7467 -1.1927 -0.1814
  125MOL0     H17211   4.430   6.319   0.184 -2.5444  1.4857  1.6398
  125MOL0     H17212   4.520   6.552  -0.032  1.3006  2.0368 -0.0221
  125MOL0     H17213   4.710   6.702  -0.094 -3.6792  1.2924  1.9075
  125MOL0     H17214   4.909   6.621  -0.486  0.1771  0.4261 -1.3318
  125MOL0     H17215   4.795   6.744  -0.533 -0.7919  1.0909  1.6575
  125MOL0     H17216   5.015   6.808  -0.588  0.6911  4.6355 -0.7689
  125MOL0     H17217   4.918   6.919  -0.495 -0.5074 -1.2805 -0.6532
  125MOL0     H17218   5.131   6.730  -0.354 -0.9087  0.2354 -1.0415
  125MOL0     H17219   5.042   6.873  -0.288 -0.0447  0.2810  1.8496
  125MOL0     H17220   5.173   7.006  -0.448 -1.4624 -0.0348  0.8912
  125MOL0     H17221   5.233   6.848  -0.518 -0.4943 -0.5861  0.5828
  125MOL0     H17222   5.288   7.004  -0.268 -2.2587  1.0833 -3.4219
  125MOL0     H17223   5.326   6.833  -0.259  4.1086  0.0963 -1.0805
  125MOL0     H17224   5.459   6.837  -0.464  2.1785  0.4767 -0.8334
  125MOL0     H17225   5.531   6.932  -0.329 -0.1873 -1.7098 -0.7396
  125MOL0     H17226   5.418   7.135  -0.452  1.8044  0.2855  2.4443
  125MOL0     H17227   5.414   7.026  -0.595 -2.0149 -1.6669  1.8999
  125MOL0     H17228   5.606   7.122  -0.635  1.3367 -1.0105 -1.4313
  125MOL0     H17229   5.666   6.967  -0.565  1.4558  1.9266 -2.2527
  125MOL0     H17230   4.662   6.572  -0.500  2.0967 -1.6329 -0.1330
  125MOL0     H17231   4.460   6.435  -0.432 -1.5840  1.0352 -0.8418
  125MOL0     H17232   4.214   6.237  -0.230 -0.9709  2.0154  1.1275
  125MOL0     H17233   4.048   6.090  -0.163  2.0997  1.0106 -1.0733
  125MOL0     H17234   2.432   5.239   0.442  1.0823  0.1373  1.0079
  125MOL0     H17235   2.276   5.232   0.632 -0.5748 -1.3144  0.1158
  125MOL0     H17236   1.963   5.532   0.839 -0.1172  1.0701 -0.7276
  125MOL0     H17237   1.802   5.598   1.003  2.5052 -0.5380 -0.6936
  125MOL0     H17238   1.386   5.481   0.954 -3.3464 -3.7196  0.0326
  125MOL0     H17239   1.420   5.348   1.070 -1.4880  0.3371 -1.4547
  125MOL0     H17240   1.260   5.508   1.157  0.2829 -1.2890  2.1749
  125MOL0     H17241   1.395   5.626   1.145  3.1556 -0.5060 -1.3051
  125MOL0     H17242   1.515   5.475   1.329 -0.7299 -0.9439  2.1060
  125MOL0     H17243   1.376   5.568   1.379 -1.7989 -0.3672 -1.4210
  125MOL0     H17244   1.410   5.302   1.436  0.5109 -3.9641 -2.2450
  125MOL0     H17245   1.376   5.281   1.264 -1.8105 -1.1815 -0.4305
  125MOL0     H17246   0.989   5.371   1.394 -0.0861  0.9844  0.0012
  125MOL0     H17247   1.538   5.302   0.865 -1.1245  2.5069 -1.1423
  125MOL0     H17248   1.571   5.166   0.679  2.0622 -5.6786 -3.0587
  125MOL0     H17249   1.674   5.252   0.561 -0.8679 -0.1845  0.3729
  125MOL0     H17250   1.735   5.124   0.654 -2.6788 -2.0046 -0.2681
  126MOL0     O17251   6.142   8.399   9.106 -1.1091  0.0223  0.0997
  126MOL0     C17252   6.155   8.473   9.210  0.1388  0.0016  0.3873
  126MOL0     O17253   6.054   8.496   9.299  0.1794  0.4807 -0.0556
  126MOL0     C17254   5.935   8.441   9.268 -0.3316 -0.3193 -0.3417
  126MOL0     C17255   5.902   8.303   9.299 -0.3944 -0.3922 -0.0461
  126MOL0     C17256   5.771   8.258   9.282  0.3648 -0.2147  0.3283
  126MOL0     C17257   5.665   8.339   9.235 -0.6609 -0.6682  0.7044
  126MOL0     O17258   5.534   8.304   9.228 -0.4619  0.3272 -0.3063
  126MOL0     C17259   5.504   8.181   9.162 -0.2322 -0.0621 -0.0747
  126MOL0     C17260   5.532   8.166   9.013 -0.3623  0.3950  0.0458
  126MOL0     C17261   5.443   8.267   8.940  0.1621 -0.5771  0.4961
  126MOL0     C17262   5.511   8.334   8.819 -0.7969 -0.3928  0.3573
  126MOL0     C17263   5.418   8.443   8.764  0.2293  0.4231  0.1230
  126MOL0     C17264   5.477   8.479   8.631 -0.7145 -0.4438  0.5365
  126MOL0     C17265   5.370   8.546   8.534 -0.3961  0.0272 -0.0784
  126MOL0     C17266   5.440   8.622   8.418  0.7103  0.0765 -0.0768
  126MOL0     N17267   5.339   8.683   8.327  0.5229  0.1179 -0.3227
  126MOL0     C17268   5.227   8.619   8.285 -0.0720  0.2848 -0.2662
  126MOL0     C17269   5.163   8.711   8.207 -0.0131  0.0222 -0.4986
  126MOL0     C17270   5.035   8.680   8.134  0.3137 -0.6322 -0.8515
  126MOL0     C17271   4.912   8.744   8.211 -0.0500 -0.3517  0.2982
  126MOL0     C17272   4.792   8.651   8.201  0.9266  0.0316 -0.2710
  126MOL0     C17273   4.672   8.723   8.264  0.6720  0.0069 -0.0255
  126MOL0     O17274   4.648   8.862   8.225  0.2606 -0.4564 -0.1396
  126MOL0     C17275   4.561   8.900   8.123 -0.6431  0.1410 -0.9768
  126MOL0     C17276   4.490   9.023   8.113  0.1414 -0.1633  0.4440
  126MOL0     C17277   4.392   9.048   8.014  0.3861 -0.7907  0.8092
  126MOL0     C17278   4.312   9.179   8.032 -0.7496 -0.4619 -0.4337
  126MOL0     C17279   4.372   8.946   7.909 -0.4350 -0.3572  0.2436
  126MOL0     C17280   4.267   8.955   7.804 -1.0375  0.7152 -0.8322
  126MOL0     O17281   4.290   8.872   7.695 -0.2984 -0.2061 -0.1189
  126MOL0     C17282   4.218   8.873   7.582  0.5006 -0.1645 -0.1533
  126MOL0     C17283   4.246   8.936   7.460  0.3099  0.1636 -0.2457
  126MOL0     C17284   4.152   8.936   7.357 -0.4182 -0.8119 -0.7963
  126MOL0     C17285   4.030   8.869   7.372 -0.1901  0.2199  0.1661
  126MOL0     O17286   3.938   8.883   7.274  0.0355  0.3947 -0.1475
  126MOL0     C17287   3.802   8.849   7.288 -0.3461  0.3567 -0.0925
  126MOL0     C17288   3.787   8.695   7.261  0.3410  0.9414  0.5229
  126MOL0     C17289   3.834   8.660   7.113  0.2809  0.0939  0.0978
  126MOL0     C17290   3.813   8.509   7.093 -0.1816  0.5476  0.1406
  126MOL0     C17291   3.879   8.457   6.966 -1.0836 -0.3417  0.2949
  126MOL0     C17292   3.809   8.498   6.836 -0.5915 -0.3758 -0.3585
  126MOL0     C17293   3.684   8.411   6.813  0.1821 -0.0346 -0.4669
  126MOL0     C17294   3.618   8.458   6.684 -0.2741  0.1097  0.0134
  126MOL0    Cl17295   3.502   8.335   6.650 -0.3322 -0.0021  0.0962
  126MOL0     C17296   4.000   8.815   7.492 -0.4420  0.2279 -0.2739
  126MOL0     C17297   4.094   8.817   7.599  0.0969 -0.4096 -0.2464
  126MOL0     O17298   4.169   9.024   7.828 -0.5765 -1.2175  0.1095
  126MOL0     C17299   4.459   8.837   7.916 -0.3344 -1.3155  0.4626
  126MOL0     C17300   4.547   8.815   8.021  0.5660  0.1310  0.2839
  126MOL0     N17301   5.236   8.827   8.197 -0.5190  0.0963 -0.1571
  126MOL0     N17302   5.341   8.807   8.272 -0.1811 -0.4795  0.1543
  126MOL0     C17303   5.698   8.476   9.208  0.1175 -0.7562 -0.1352
  126MOL0     C17304   5.831   8.524   9.220  0.2802  1.2685 -0.3911
  126MOL0     C17305   6.290   8.535   9.228  1.1781 -0.6515 -0.7950
  126MOL0     C17306   6.377   8.546   9.116 -0.3031 -0.3349 -0.6589
  126MOL0     C17307   6.499   8.613   9.124  0.5908 -0.9499 -0.4330
  126MOL0     C17308   6.538   8.662   9.246 -0.4901  0.0696 -0.1090
  126MOL0     O17309   6.658   8.721   9.268 -0.7236 -0.3463  0.4598
  126MOL0     C17310   6.760   8.706   9.169 -0.4559 -0.0279  0.1344
  126MOL0     C17311   6.887   8.763   9.225  0.6638 -0.1097  0.2229
  126MOL0     C17312   6.938   8.669   9.326 -0.4160 -0.0413 -0.0593
  126MOL0     C17313   7.087   8.701   9.364 -0.2848 -0.0288  0.3547
  126MOL0     C17314   7.165   8.694   9.247 -0.8437 -0.5086 -0.6779
  126MOL0     C17315   7.243   8.681   9.155  0.5130 -0.0474 -0.9856
  126MOL0     C17316   6.457   8.652   9.359 -0.1062 -0.2807 -0.1773
  126MOL0     C17317   6.332   8.593   9.357  0.0007 -0.5244  0.2600
  126MOL0     C17318   6.251   8.613   9.483 -0.1973  0.1838 -0.3851
  126MOL0     H17319   5.974   8.231   9.336  1.9182  1.8805  0.1501
  126MOL0     H17320   5.746   8.161   9.324 -0.0763 -0.8202 -1.2558
  126MOL0     H17321   5.397   8.172   9.182 -0.4830  1.4266 -0.6495
  126MOL0     H17322   5.555   8.097   9.211  0.2518 -1.7738 -3.2154
  126MOL0     H17323   5.636   8.177   8.981 -0.3135 -1.0208 -0.3417
  126MOL0     H17324   5.513   8.061   8.987  1.5134 -0.6876  2.5682
  126MOL0     H17325   5.356   8.211   8.905 -1.2017  0.8287  1.4937
  126MOL0     H17326   5.402   8.347   9.002 -1.4801  0.8387 -2.2260
  126MOL0     H17327   5.604   8.388   8.844  0.0095 -1.1002 -0.9873
  126MOL0     H17328   5.524   8.254   8.745 -4.8094 -0.2759 -0.7124
  126MOL0     H17329   5.410   8.524   8.838 -2.5821  2.9106 -2.6288
  126MOL0     H17330   5.318   8.399   8.757  1.0007 -1.2128 -1.1929
  126MOL0     H17331   5.557   8.552   8.647 -2.8395  2.3442 -0.6956
  126MOL0     H17332   5.531   8.402   8.574 -0.9569  1.0831 -1.9213
  126MOL0     H17333   5.301   8.616   8.583  0.5349  0.4021  0.7115
  126MOL0     H17334   5.303   8.464   8.507  1.5373 -1.9776  0.9658
  126MOL0     H17335   5.499   8.700   8.469  0.5096 -1.6188  3.0281
  126MOL0     H17336   5.517   8.561   8.370  2.2497 -0.8576  3.2619
  126MOL0     H17337   5.195   8.517   8.303  2.7779 -0.9110 -1.4063
  126MOL0     H17338   5.030   8.571   8.124  1.8029 -0.6379 -1.8548
  126MOL0     H17339   5.043   8.731   8.037 -1.4919 -1.4689 -1.5008
  126MOL0     H17340   4.941   8.750   8.316 -0.4280  3.8217  0.3392
  126MOL0     H17341   4.895   8.848   8.181 -0.3761  0.2401  2.3625
  126MOL0     H17342   4.765   8.621   8.100  0.1246  0.3594 -0.1630
  126MOL0     H17343   4.799   8.556   8.256 -0.0954 -1.5239 -2.6458
  126MOL0     H17344   4.572   8.681   8.250 -1.2120  4.3405 -1.4168
  126MOL0     H17345   4.683   8.718   8.373  0.0683  2.7071  0.2260
  126MOL0     H17346   4.501   9.092   8.196  1.1677 -0.3732  0.4902
  126MOL0     H17347   4.324   9.222   8.132  1.3192 -2.8606  0.4474
  126MOL0     H17348   4.206   9.157   8.017 -0.5642  0.0701 -3.0272
  126MOL0     H17349   4.347   9.250   7.956  2.0978 -0.6140  0.6295
  126MOL0     H17350   4.339   8.989   7.442 -0.5632  1.5428 -0.9092
  126MOL0     H17351   4.161   8.978   7.257  2.7335  0.8906  0.0939
  126MOL0     H17352   3.766   8.874   7.388  0.1728  0.5807  0.0449
  126MOL0     H17353   3.748   8.896   7.205 -0.3711 -1.2363 -1.0163
  126MOL0     H17354   3.843   8.637   7.336  0.6057  1.8353  1.0287
  126MOL0     H17355   3.682   8.667   7.274  0.5031 -0.9822 -1.6583
  126MOL0     H17356   3.942   8.674   7.107  0.6716 -1.0413  3.0238
  126MOL0     H17357   3.789   8.720   7.032  1.0656  1.1949  0.4547
  126MOL0     H17358   3.710   8.473   7.084 -0.2670  1.0332 -1.0404
  126MOL0     H17359   3.862   8.456   7.176 -0.6108 -0.6710 -0.3632
  126MOL0     H17360   3.982   8.489   6.948 -0.1331 -4.1110 -2.2044
  126MOL0     H17361   3.888   8.348   6.968 -0.6507 -0.3017  1.7257
  126MOL0     H17362   3.881   8.488   6.754  0.5495 -1.7747  0.7623
  126MOL0     H17363   3.791   8.606   6.841  2.6133  0.2664 -0.3402
  126MOL0     H17364   3.601   8.426   6.883 -0.4629 -1.6587 -0.8531
  126MOL0     H17365   3.712   8.307   6.796  2.8597  1.0162 -3.4456
  126MOL0     H17366   3.684   8.454   6.597 -0.3915 -0.4279 -0.0568
  126MOL0     H17367   3.569   8.555   6.698  0.0951  0.4291 -0.8437
  126MOL0     H17368   3.910   8.755   7.502 -0.6312  0.6229  0.4911
  126MOL0     H17369   4.072   8.768   7.693 -2.2270  0.6214 -0.1835
  126MOL0     H17370   4.453   8.760   7.839 -2.1238  0.0587 -0.8641
  126MOL0     H17371   4.590   8.716   8.030 -3.8380 -2.0302  0.1235
  126MOL0     H17372   5.624   8.548   9.176  0.6986 -0.4607 -0.8344
  126MOL0     H17373   5.866   8.621   9.185  0.2212  1.9572  1.3756
  126MOL0     H17374   6.356   8.499   9.020 -0.9244  0.8911 -1.1381
  126MOL0     H17375   6.569   8.604   9.042 -0.7408  0.9612 -1.8418
  126MOL0     H17376   6.773   8.601   9.141  0.9906  0.2636 -0.3912
  126MOL0     H17377   6.725   8.761   9.082  0.2931  0.9212  0.4170
  126MOL0     H17378   6.872   8.861   9.272 -1.1041 -0.4304  0.4021
  126MOL0     H17379   6.957   8.779   9.142 -1.4900 -0.1322 -1.7160
  126MOL0     H17380   6.879   8.662   9.418  0.5160 -0.6160  0.5165
  126MOL0     H17381   6.932   8.569   9.282  0.5137 -1.0970  2.0419
  126MOL0     H17382   7.120   8.625   9.435 -0.4280  0.7047  1.2149
  126MOL0     H17383   7.090   8.799   9.412 -2.0127  0.4513 -0.4470
  126MOL0     H17384   7.302   8.659   9.068  1.9980 -0.4017  0.0741
  126MOL0     H17385   6.497   8.700   9.448 -1.3803 -1.1782  0.9103
  126MOL0     H17386   6.244   8.517   9.534  0.3631 -1.0793 -2.5307
  126MOL0     H17387   6.297   8.685   9.551 -1.6185 -0.1959  1.0375
  126MOL0     H17388   6.152   8.651   9.456 -0.2624  0.6007  0.4231
  127MOL0     O17389   8.645   6.668  10.930 -0.3981  0.1024  0.2886
  127MOL0     C17390   8.609   6.718  11.035 -0.4847 -0.2595 -0.3544
  127MOL0     O17391   8.698   6.762  11.130 -0.6027  0.2153  0.8287
  127MOL0     C17392   8.833   6.738  11.113 -0.8421 -0.0839 -1.0036
  127MOL0     C17393   8.882   6.609  11.095 -0.6186 -0.1797  0.0486
  127MOL0     C17394   9.022   6.586  11.072  0.5249 -0.0130 -0.8410
  127MOL0     C17395   9.115   6.691  11.078 -0.0253 -0.1199  0.1540
  127MOL0     O17396   9.249   6.688  11.075  0.6021  0.2984 -0.4634
  127MOL0     C17397   9.315   6.582  11.016 -0.3534 -0.0214  0.8036
  127MOL0     C17398   9.452   6.568  11.064 -0.2707  0.2604 -0.1368
  127MOL0     C17399   9.447   6.512  11.216  0.2430  0.1903  1.4481
  127MOL0     C17400   9.570   6.555  11.295 -0.7427 -0.4544  0.1323
  127MOL0     C17401   9.698   6.498  11.238 -0.2912  0.7032 -0.6281
  127MOL0     C17402   9.829   6.542  11.320  0.0949 -0.3851  0.2665
  127MOL0     C17403   9.854   6.466  11.452 -0.1522  0.1495 -0.8753
  127MOL0     C17404   9.957   6.551  11.533 -0.4343  0.9354 -0.7953
  127MOL0     N17405  10.084   6.553  11.467 -0.3561 -0.3032 -0.0680
  127MOL0     C17406  10.147   6.667  11.418 -0.4330  0.1613 -0.1822
  127MOL0     C17407  10.256   6.624  11.354  0.9145  1.5458  0.0260
  127MOL0     C17408  10.351   6.722  11.292 -0.2896  0.2298  0.1996
  127MOL0     C17409  10.409   6.811  11.398  0.0186  0.3861  0.1169
  127MOL0     C17410  10.520   6.901  11.343  0.2469 -0.3684 -0.1560
  127MOL0     C17411  10.464   7.036  11.300  0.4480  1.0209  0.2613
  127MOL0     O17412  10.475   7.139  11.398  0.8370  0.5836 -0.1525
  127MOL0     C17413  10.600   7.201  11.424  0.0579 -0.1022  0.3779
  127MOL0     C17414  10.588   7.321  11.495  0.6058  0.4709 -0.2201
  127MOL0     C17415  10.695   7.388  11.542 -0.5331 -0.5876  0.3821
  127MOL0     C17416  10.672   7.496  11.633 -0.2912  0.0652 -0.1489
  127MOL0     C17417  10.825   7.361  11.487 -0.9873 -0.0332 -0.6407
  127MOL0     C17418  10.945   7.443  11.521  0.5069  0.2555 -0.7865
  127MOL0     O17419  11.056   7.403  11.454  0.1193  0.0042  0.0554
  127MOL0     C17420  11.176   7.481  11.440  0.2508 -0.0894 -0.0957
  127MOL0     C17421  11.183   7.622  11.429  0.3561 -0.1486 -0.0106
  127MOL0     C17422  11.305   7.685  11.424 -0.4971  0.5018 -0.5570
  127MOL0     C17423  11.423   7.604  11.424  0.8018 -0.2030  0.1431
  127MOL0     O17424  11.549   7.656  11.432  0.5339 -0.4507  0.4014
  127MOL0     C17425  11.572   7.728  11.551 -0.0140 -0.3469 -0.2158
  127MOL0     C17426  11.723   7.727  11.565 -0.6121  0.4137  0.3436
  127MOL0     C17427  11.774   7.798  11.691 -0.3669  0.0629  0.6503
  127MOL0     C17428  11.900   7.731  11.746 -1.1036  0.3112  0.0569
  127MOL0     C17429  11.969   7.799  11.857  0.0620 -0.2925 -0.3427
  127MOL0     C17430  12.087   7.717  11.909  0.5573 -0.9684  0.4757
  127MOL0     C17431  12.170   7.792  12.016  0.5042 -0.6259 -0.6521
  127MOL0     C17432  12.293   7.723  12.052  1.1946 -0.1399  0.1703
  127MOL0    Cl17433  12.348   7.779  12.216  0.1111  0.4511 -0.7628
  127MOL0     C17434  11.419   7.466  11.433  0.2458 -0.2140 -0.0343
  127MOL0     C17435  11.292   7.403  11.444 -0.9128 -0.2782  0.3713
  127MOL0     O17436  10.935   7.536  11.599  0.2406  0.0734 -0.1697
  127MOL0     C17437  10.839   7.243  11.415 -0.9552  0.3256 -0.6216
  127MOL0     C17438  10.731   7.163  11.387 -0.1374 -0.0982  1.1176
  127MOL0     N17439  10.266   6.486  11.358  0.3842  0.1500 -0.3924
  127MOL0     N17440  10.168   6.448  11.434  0.0146  0.3781  0.1978
  127MOL0     C17441   9.067   6.819  11.103 -0.1549 -0.1268 -0.1582
  127MOL0     C17442   8.927   6.842  11.120 -0.8524  0.7685  0.2481
  127MOL0     C17443   8.467   6.757  11.048  0.9547  0.1413 -0.0096
  127MOL0     C17444   8.427   6.840  11.151 -0.2464  0.8317  0.8070
  127MOL0     C17445   8.297   6.884  11.160 -0.5885  0.2415  0.5479
  127MOL0     C17446   8.202   6.856  11.069  0.3742  0.2563 -0.4230
  127MOL0     O17447   8.085   6.931  11.082  0.1430 -0.2082  0.0414
  127MOL0     C17448   7.977   6.915  10.990  0.2920 -0.2403 -0.7110
  127MOL0     C17449   7.858   7.012  11.019  0.5229 -0.2871 -0.1392
  127MOL0     C17450   7.863   7.146  10.943 -0.4266 -0.3429  0.1697
  127MOL0     C17451   7.732   7.224  10.938  0.1203  0.1343  0.3434
  127MOL0     C17452   7.655   7.178  10.819  0.9240  0.0875  0.0577
  127MOL0     C17453   7.588   7.137  10.723  0.1152  1.5471  0.0970
  127MOL0     C17454   8.231   6.773  10.960 -0.5836 -0.2254 -0.2694
  127MOL0     C17455   8.364   6.719  10.954  0.1634 -0.1091 -0.0673
  127MOL0     C17456   8.377   6.603  10.857 -0.0414 -0.3023 -0.4055
  127MOL0     H17457   8.809   6.529  11.088 -0.7609  0.0598 -2.2314
  127MOL0     H17458   9.059   6.485  11.060  1.1964  0.1984 -0.6167
  127MOL0     H17459   9.326   6.611  10.911 -2.8916  1.0463  0.7667
  127MOL0     H17460   9.255   6.490  11.020 -1.5501  0.6240 -1.0719
  127MOL0     H17461   9.503   6.498  10.997 -0.9080 -3.1046  2.5997
  127MOL0     H17462   9.503   6.664  11.050 -0.8371  0.8533  1.6410
  127MOL0     H17463   9.361   6.551  11.270  0.2952  0.6195  1.2275
  127MOL0     H17464   9.433   6.404  11.216 -0.5484  0.2859  1.7233
  127MOL0     H17465   9.575   6.664  11.308 -2.8413 -0.5959  3.1862
  127MOL0     H17466   9.567   6.522  11.399 -1.0311  1.6262  0.8425
  127MOL0     H17467   9.721   6.529  11.136  1.2021  0.0164 -0.5320
  127MOL0     H17468   9.703   6.389  11.229  1.3716  0.8392 -1.8153
  127MOL0     H17469   9.905   6.508  11.249 -2.1252 -0.8577 -2.0229
  127MOL0     H17470   9.830   6.648  11.347 -1.0396 -0.4437  0.5871
  127MOL0     H17471   9.898   6.370  11.424  0.5682  0.3390 -0.4051
  127MOL0     H17472   9.760   6.443  11.504 -1.0375  2.6399 -1.2299
  127MOL0     H17473   9.928   6.654  11.551 -2.2386  0.6171 -1.7259
  127MOL0     H17474   9.961   6.507  11.634  1.9186  1.7604 -0.4672
  127MOL0     H17475  10.123   6.772  11.435  0.5112  0.0428  2.1852
  127MOL0     H17476  10.293   6.785  11.225 -1.8901 -1.7978 -0.4222
  127MOL0     H17477  10.434   6.670  11.243  0.2117  0.3568  0.8983
  127MOL0     H17478  10.332   6.872  11.447  2.5063  4.1965 -0.2429
  127MOL0     H17479  10.462   6.760  11.479  0.4908  1.6187  0.6184
  127MOL0     H17480  10.596   6.931  11.416  0.0641 -0.3388  0.0219
  127MOL0     H17481  10.571   6.867  11.253  1.7590  0.1430  0.4690
  127MOL0     H17482  10.527   7.070  11.218  0.9344 -2.6811 -1.0851
  127MOL0     H17483  10.358   7.025  11.274 -0.4101 -0.7843  3.8070
  127MOL0     H17484  10.487   7.347  11.523 -0.3350 -1.7184 -1.4119
  127MOL0     H17485  10.746   7.496  11.714  0.3317 -0.0473 -0.7157
  127MOL0     H17486  10.580   7.476  11.690 -1.0226 -2.8757 -2.1297
  127MOL0     H17487  10.674   7.584  11.569  0.1673 -1.4232 -2.2915
  127MOL0     H17488  11.094   7.686  11.428  1.1929  1.1061  1.6056
  127MOL0     H17489  11.312   7.793  11.425  0.5135  0.4398 -0.5358
  127MOL0     H17490  11.541   7.833  11.542 -0.4257 -0.5911 -1.8967
  127MOL0     H17491  11.536   7.685  11.645 -0.1682 -0.0971 -0.1602
  127MOL0     H17492  11.764   7.626  11.576  1.6754  1.0726 -1.2678
  127MOL0     H17493  11.766   7.777  11.478 -0.2428  0.8665  0.7819
  127MOL0     H17494  11.699   7.791  11.770  0.1724 -0.9213  1.0921
  127MOL0     H17495  11.795   7.904  11.674  0.4664 -0.1407  0.4073
  127MOL0     H17496  11.970   7.723  11.662 -2.0169 -5.7691 -0.6067
  127MOL0     H17497  11.879   7.628  11.776  1.8674 -0.9593 -1.7085
  127MOL0     H17498  11.996   7.900  11.827 -0.3805 -0.2456 -0.5836
  127MOL0     H17499  11.899   7.804  11.941 -1.2949 -0.0808 -1.4452
  127MOL0     H17500  12.150   7.691  11.824 -0.6016 -1.8310 -0.1409
  127MOL0     H17501  12.055   7.625  11.958 -0.1504 -0.0301  1.8361
  127MOL0     H17502  12.110   7.806  12.106 -0.3257 -3.3949 -0.6721
  127MOL0     H17503  12.194   7.888  11.970  0.4089 -0.9788 -1.4600
  127MOL0     H17504  12.368   7.751  11.978  0.8709 -0.1593 -0.1702
  127MOL0     H17505  12.279   7.614  12.049 -1.6333  0.1762 -1.2421
  127MOL0     H17506  11.510   7.406  11.438  1.2698  1.3022  0.2985
  127MOL0     H17507  11.293   7.296  11.461  1.8883 -0.0489  2.3348
  127MOL0     H17508  10.936   7.209  11.380  0.2913  0.5321  2.3720
  127MOL0     H17509  10.746   7.070  11.332  1.6431 -0.8858  2.8374
  127MOL0     H17510   9.132   6.906  11.096 -0.0231 -0.2074  0.0437
  127MOL0     H17511   8.882   6.941  11.119 -0.0881  1.1479 -2.2116
  127MOL0     H17512   8.505   6.869  11.222  2.3041  1.3374 -1.9947
  127MOL0     H17513   8.268   6.959  11.233 -0.7518  2.3393 -1.5410
  127MOL0     H17514   8.005   6.940  10.888  1.8825  2.8027  0.3599
  127MOL0     H17515   7.933   6.815  10.981 -0.0066 -0.2752  0.7852
  127MOL0     H17516   7.856   7.024  11.127  0.7198 -0.6584 -0.0898
  127MOL0     H17517   7.766   6.958  10.993  2.0430 -2.4515 -1.3612
  127MOL0     H17518   7.928   7.214  10.997 -1.0275  2.7359 -2.6393
  127MOL0     H17519   7.905   7.132  10.843  1.4748  2.7887  0.3904
  127MOL0     H17520   7.747   7.332  10.937 -1.1991  0.3990  2.4810
  127MOL0     H17521   7.671   7.207  11.028 -0.5190 -2.6487 -0.5146
  127MOL0     H17522   7.533   7.096  10.640 -1.5962 -1.1158  2.3828
  127MOL0     H17523   8.160   6.755  10.880 -1.1017  0.0310  0.1229
  127MOL0     H17524   8.401   6.509  10.907  0.1551 -0.0088  0.0570
  127MOL0     H17525   8.284   6.585  10.803 -0.0635  0.2225 -0.5494
  127MOL0     H17526   8.460   6.614  10.786  1.1218 -2.0103  0.6087
  128MOL0     O17527   5.103  10.217  10.920 -0.2164 -1.0961  0.2472
  128MOL0     C17528   5.051  10.312  10.974  0.1701  0.1080  0.2629
  128MOL0     O17529   5.110  10.404  11.063  0.4463 -0.2049 -0.2991
  128MOL0     C17530   5.233  10.380  11.116  0.2399 -0.5296  0.1202
  128MOL0     C17531   5.339  10.377  11.023  0.0200  0.0333 -0.1057
  128MOL0     C17532   5.469  10.363  11.072 -0.0803 -0.1638 -0.0720
  128MOL0     C17533   5.491  10.362  11.207  0.7473 -0.6948 -0.4356
  128MOL0     O17534   5.619  10.350  11.255  0.4891 -0.7805  0.1604
  128MOL0     C17535   5.707  10.268  11.192  0.0173  0.9294  0.0245
  128MOL0     C17536   5.817  10.219  11.304 -0.4909  0.0097 -0.1488
  128MOL0     C17537   5.879  10.081  11.271 -1.5281 -0.1667 -0.2105
  128MOL0     C17538   6.028  10.096  11.214  0.6980  0.0994 -0.4925
  128MOL0     C17539   6.079   9.960  11.197 -0.8312  0.6556  0.1577
  128MOL0     C17540   6.213   9.963  11.123  0.3467 -0.1295 -0.3433
  128MOL0     C17541   6.268   9.816  11.101  0.7547 -0.9023  0.1819
  128MOL0     C17542   6.393   9.819  11.015 -0.1466  0.1309  0.2590
  128MOL0     N17543   6.494   9.913  11.076 -0.2717  0.2351  0.4756
  128MOL0     C17544   6.574   9.874  11.182  0.1673 -0.0451  0.0087
  128MOL0     C17545   6.624   9.997  11.222 -0.0098  0.4155  0.1722
  128MOL0     C17546   6.701  10.038  11.348 -0.1744  0.1022 -0.1036
  128MOL0     C17547   6.795   9.918  11.390  0.0239  0.2424 -0.4027
  128MOL0     C17548   6.914   9.959  11.479  0.3959  0.3977  0.1968
  128MOL0     C17549   7.030  10.021  11.400  0.1541  0.4192 -0.1216
  128MOL0     O17550   7.147  10.022  11.481 -0.3781 -0.4278  0.4146
  128MOL0     C17551   7.265  10.071  11.416  0.2994  0.4556  0.5124
  128MOL0     C17552   7.274  10.125  11.289  1.2963 -0.0340 -0.5331
  128MOL0     C17553   7.403  10.166  11.242  0.7144 -0.8625 -0.3457
  128MOL0     C17554   7.405  10.210  11.090 -0.1705  0.1617  1.2654
  128MOL0     C17555   7.518  10.148  11.327 -0.8396  0.1184 -0.1430
  128MOL0     C17556   7.664  10.182  11.282  0.2285 -1.1255  0.4477
  128MOL0     O17557   7.701  10.212  11.157 -0.0155 -0.2535  0.2346
  128MOL0     C17558   7.830  10.250  11.128 -0.0961 -0.1246 -0.5516
  128MOL0     C17559   7.941  10.185  11.175  0.5457  0.2441  0.9211
  128MOL0     C17560   8.063  10.240  11.147  0.7518  0.4565  0.1074
  128MOL0     C17561   8.084  10.362  11.080  0.4051  0.5606 -1.1035
  128MOL0     O17562   8.203  10.408  11.045  0.5647 -1.0770  0.1687
  128MOL0     C17563   8.298  10.401  11.140 -0.0641 -0.5281 -0.8172
  128MOL0     C17564   8.383  10.281  11.107 -0.7231  0.4133  0.3185
  128MOL0     C17565   8.479  10.318  10.996  0.7948 -0.5090  0.7427
  128MOL0     C17566   8.523  10.198  10.920  1.2603  0.8651  0.6278
  128MOL0     C17567   8.565  10.085  11.010  0.0769  0.0645 -0.7316
  128MOL0     C17568   8.669   9.992  10.947 -0.8420 -0.3468 -0.6988
  128MOL0     C17569   8.808  10.056  10.932 -0.0684 -0.0090  0.4003
  128MOL0     C17570   8.914   9.945  10.972 -1.5106 -0.4013  0.0836
  128MOL0    Cl17571   8.933   9.849  10.819 -0.0408  0.0655 -0.0887
  128MOL0     C17572   7.968  10.430  11.034  0.0849  0.9217  0.6066
  128MOL0     C17573   7.845  10.367  11.053 -0.3647 -0.6941 -0.0219
  128MOL0     O17574   7.738  10.195  11.379 -0.0955 -0.4610  0.4893
  128MOL0     C17575   7.503  10.082  11.450  0.0038  0.4897 -0.1313
  128MOL0     C17576   7.378  10.038  11.495  0.1266  0.3678  0.4196
  128MOL0     N17577   6.579  10.095  11.131  0.8043  0.5636 -0.2166
  128MOL0     N17578   6.501  10.041  11.045 -0.6729 -1.4142 -0.3194
  128MOL0     C17579   5.389  10.379  11.300 -0.4087 -0.3795  1.0117
  128MOL0     C17580   5.259  10.381  11.255 -0.0224 -0.8545  0.3505
  128MOL0     C17581   4.905  10.329  10.949 -0.3550 -0.0586  0.3337
  128MOL0     C17582   4.855  10.465  10.943 -0.2200  0.7065 -0.0026
  128MOL0     C17583   4.727  10.486  10.881 -0.0146 -0.7311 -0.2000
  128MOL0     C17584   4.643  10.389  10.849 -0.4385 -0.2912  0.1497
  128MOL0     O17585   4.520  10.430  10.813 -0.3164  0.1947 -0.2238
  128MOL0     C17586   4.418  10.333  10.783  0.1245  0.2365 -0.5374
  128MOL0     C17587   4.290  10.399  10.733 -0.4120 -0.2224 -0.1805
  128MOL0     C17588   4.219  10.472  10.851  0.3864  0.1163  0.2294
  128MOL0     C17589   4.097  10.553  10.802 -0.3068  0.0012 -0.3032
  128MOL0     C17590   3.973  10.510  10.866  0.3793 -0.7102 -0.2390
  128MOL0     C17591   3.871  10.491  10.930  0.1762 -0.2256  0.3298
  128MOL0     C17592   4.677  10.254  10.872 -0.1839 -0.2958  0.0840
  128MOL0     C17593   4.808  10.224  10.913 -0.4291 -0.1311 -0.3146
  128MOL0     C17594   4.839  10.075  10.933 -0.0662 -0.7632 -0.2576
  128MOL0     H17595   5.335  10.394  10.916  2.4335 -1.1957 -0.4595
  128MOL0     H17596   5.547  10.352  10.997  0.8901 -0.6166  0.9617
  128MOL0     H17597   5.739  10.323  11.103 -3.2305  2.0964 -0.5532
  128MOL0     H17598   5.648  10.185  11.152 -1.4544  1.3534  1.2326
  128MOL0     H17599   5.893  10.297  11.318  0.5021 -1.1140  1.0298
  128MOL0     H17600   5.766  10.206  11.400 -0.2887  2.0900  0.2900
  128MOL0     H17601   5.889  10.031  11.368 -1.5314  2.5866  1.3210
  128MOL0     H17602   5.820  10.016  11.206  0.9076 -2.3020 -0.4716
  128MOL0     H17603   6.023  10.169  11.133 -0.6196 -0.9048 -1.3555
  128MOL0     H17604   6.094  10.152  11.281 -3.0876  2.4387  1.6698
  128MOL0     H17605   6.014   9.895  11.138  0.3778 -1.2425  0.8147
  128MOL0     H17606   6.095   9.912  11.294 -1.5926  2.3869  1.1867
  128MOL0     H17607   6.192  10.001  11.022 -0.1215 -0.3708 -0.3414
  128MOL0     H17608   6.282  10.029  11.176  2.1050 -1.8363 -0.4001
  128MOL0     H17609   6.196   9.754  11.047  1.5710 -1.6949 -0.0060
  128MOL0     H17610   6.277   9.771  11.200  2.5767 -0.5241  0.2144
  128MOL0     H17611   6.435   9.718  11.001 -0.3770  0.1195 -0.3975
  128MOL0     H17612   6.364   9.856  10.916  4.6086 -2.0564 -2.3313
  128MOL0     H17613   6.591   9.775  11.222  2.5116 -0.5300 -1.9465
  128MOL0     H17614   6.632  10.062  11.429  1.4976 -0.8659  1.6759
  128MOL0     H17615   6.770  10.114  11.311 -1.1731 -0.2857 -3.0482
  128MOL0     H17616   6.728   9.856  11.449 -1.3451  2.2550  0.2819
  128MOL0     H17617   6.845   9.867  11.307 -0.1908 -1.6317  0.5796
  128MOL0     H17618   6.886  10.029  11.558 -0.0540 -2.4709  2.7896
  128MOL0     H17619   6.959   9.876  11.535  0.8684  1.1901  1.0278
  128MOL0     H17620   7.053   9.956  11.315  2.1948  1.8452 -0.7322
  128MOL0     H17621   7.005  10.121  11.363 -3.2854  0.7362  2.5058
  128MOL0     H17622   7.188  10.151  11.228  1.2442  0.1601 -0.3776
  128MOL0     H17623   7.446  10.133  11.024 -0.3989  0.0264  1.2827
  128MOL0     H17624   7.471  10.296  11.077 -0.9054  0.4014 -1.5874
  128MOL0     H17625   7.306  10.231  11.049 -0.3083 -2.2256  0.2422
  128MOL0     H17626   7.933  10.092  11.231  2.6184 -0.6742 -0.2102
  128MOL0     H17627   8.148  10.179  11.175 -0.1365 -0.5696  0.6510
  128MOL0     H17628   8.347  10.498  11.148  1.8811 -1.5386  0.1369
  128MOL0     H17629   8.264  10.366  11.239 -1.4996  1.5683 -0.5061
  128MOL0     H17630   8.429  10.233  11.194  0.1545  2.8672  1.2859
  128MOL0     H17631   8.317  10.203  11.066 -0.8696  0.3547  0.6665
  128MOL0     H17632   8.563  10.367  11.045 -0.5276  3.1908 -0.3435
  128MOL0     H17633   8.428  10.382  10.923 -1.4583 -3.4332 -0.4614
  128MOL0     H17634   8.601  10.220  10.846  0.7127  0.4144 -0.0919
  128MOL0     H17635   8.438  10.168  10.858  1.4654 -1.0340  1.1964
  128MOL0     H17636   8.608  10.136  11.096  0.2559  0.0400 -0.8062
  128MOL0     H17637   8.480  10.025  11.043 -1.7255  3.4752  1.4450
  128MOL0     H17638   8.640   9.958  10.847 -0.1329  0.5910 -1.2400
  128MOL0     H17639   8.666   9.903  11.011 -3.8735  0.1165 -0.0195
  128MOL0     H17640   8.822  10.138  11.003 -3.7014  0.0898  1.1606
  128MOL0     H17641   8.836  10.089  10.832  0.1840 -0.6925  0.2412
  128MOL0     H17642   8.875   9.882  11.053  0.7426 -0.6154  1.0591
  128MOL0     H17643   9.008   9.992  11.001 -1.1285 -1.0344 -0.1053
  128MOL0     H17644   7.988  10.516  10.971  2.7776  2.1274  2.8854
  128MOL0     H17645   7.755  10.410  11.012  0.7455  1.3726 -0.4354
  128MOL0     H17646   7.594  10.057  11.504  0.5566 -0.0204 -1.2677
  128MOL0     H17647   7.369   9.977  11.585  1.6240 -0.1150  0.2735
  128MOL0     H17648   5.418  10.383  11.404  0.1173  4.8851  0.9110
  128MOL0     H17649   5.173  10.389  11.321 -1.3987 -2.0218 -1.2384
  128MOL0     H17650   4.918  10.547  10.974 -2.0885  0.7052  4.6159
  128MOL0     H17651   4.684  10.583  10.858  0.4558  0.0920  2.1489
  128MOL0     H17652   4.453  10.266  10.704  1.6936  1.4660 -0.9344
  128MOL0     H17653   4.389  10.270  10.868 -1.2269  0.2030 -0.9957
  128MOL0     H17654   4.227  10.319  10.693 -2.1610  0.0305  1.8884
  128MOL0     H17655   4.324  10.463  10.651  0.2157 -1.7228 -1.1399
  128MOL0     H17656   4.206  10.405  10.937  2.6065 -0.4962  0.1603
  128MOL0     H17657   4.288  10.547  10.891  1.9242 -1.4005  0.5494
  128MOL0     H17658   4.090  10.540  10.693  1.6095 -0.3497 -0.4159
  128MOL0     H17659   4.120  10.659  10.817  1.9043 -0.3983 -0.5558
  128MOL0     H17660   3.776  10.460  10.969 -0.6625  0.4613 -1.0788
  128MOL0     H17661   4.605  10.178  10.845  0.2606 -0.9774  0.7620
  128MOL0     H17662   4.884  10.023  10.848  0.6784  2.0316 -1.6677
  128MOL0     H17663   4.902  10.062  11.021 -0.1586  0.6190  0.0389
  128MOL0     H17664   4.751  10.014  10.959  0.7822 -0.7550  2.9666
  129MOL0     O17665  11.355  10.076   0.612 -0.0705  0.3107  0.9292
  129MOL0     C17666  11.321  10.010   0.511 -0.2520 -0.1232 -0.4423
  129MOL0     O17667  11.214  10.040   0.437 -0.0265  0.1029  0.6123
  129MOL0     C17668  11.119  10.133   0.471 -0.7627 -0.4711 -0.5001
  129MOL0     C17669  11.046  10.195   0.364 -0.2006 -0.7866  1.1327
  129MOL0     C17670  10.942  10.291   0.395 -0.4954  0.4048  0.2265
  129MOL0     C17671  10.906  10.314   0.524  0.3629 -0.3793 -0.5891
  129MOL0     O17672  10.800  10.400   0.527 -0.0015 -0.4887  0.6609
  129MOL0     C17673  10.787  10.481   0.645 -0.2804  0.6077  0.8478
  129MOL0     C17674  10.682  10.593   0.632  0.2718 -0.1737 -0.0515
  129MOL0     C17675  10.534  10.555   0.620  0.8231 -0.9627 -0.0038
  129MOL0     C17676  10.475  10.517   0.757 -0.0010 -0.6037  0.0383
  129MOL0     C17677  10.316  10.517   0.757 -0.4241  0.4962  0.3003
  129MOL0     C17678  10.244  10.656   0.740  0.0219 -0.2850 -0.3803
  129MOL0     C17679  10.108  10.653   0.800  0.1378  0.4562  0.4580
  129MOL0     C17680  10.023  10.775   0.760  0.8036  0.6047  0.1676
  129MOL0     N17681  10.082  10.907   0.787 -0.4870  0.3459 -0.4414
  129MOL0     C17682  10.063  10.996   0.892  0.5285 -0.3190  0.0093
  129MOL0     C17683  10.140  11.106   0.858 -0.9225  0.5167  0.0147
  129MOL0     C17684  10.175  11.219   0.949  0.7603 -0.9316  0.1838
  129MOL0     C17685  10.059  11.309   0.992  0.8186 -0.1559  0.3143
  129MOL0     C17686   9.966  11.356   0.870 -0.0379 -0.0533  0.0529
  129MOL0     C17687  10.023  11.439   0.759 -0.1774 -0.3350  0.0667
  129MOL0     O17688   9.919  11.473   0.665  0.6560 -0.2870  0.5505
  129MOL0     C17689   9.899  11.398   0.551  1.0104 -0.2139  0.5206
  129MOL0     C17690   9.942  11.269   0.520 -0.5087  0.2060 -0.7025
  129MOL0     C17691   9.898  11.186   0.413 -0.6459  0.5914 -0.1939
  129MOL0     C17692   9.942  11.040   0.416 -0.5329  0.1273  0.7181
  129MOL0     C17693   9.820  11.251   0.313 -0.7199  0.4685 -0.0392
  129MOL0     C17694   9.777  11.186   0.184 -0.4493 -0.5427  0.1560
  129MOL0     O17695   9.764  11.267   0.067 -0.0196  0.2358  0.9390
  129MOL0     C17696   9.762  11.203  -0.056  0.7533 -1.0747  0.2152
  129MOL0     C17697   9.877  11.161  -0.105 -0.0034  0.2864  0.3799
  129MOL0     C17698   9.890  11.102  -0.229  0.5271  0.7171  0.2904
  129MOL0     C17699   9.780  11.083  -0.312 -0.5987 -0.0216  0.4305
  129MOL0     O17700   9.791  11.025  -0.437  0.2523  0.2662 -0.3002
  129MOL0     C17701   9.889  10.923  -0.472 -0.2053 -0.1883  0.5138
  129MOL0     C17702   9.857  10.878  -0.618  0.3922 -0.1813  0.4810
  129MOL0     C17703   9.879  10.991  -0.718  0.0567 -0.1072 -0.1904
  129MOL0     C17704   9.868  10.947  -0.858  0.4437 -0.7227  0.1201
  129MOL0     C17705   9.855  11.072  -0.945  0.0140  0.2164  0.3054
  129MOL0     C17706   9.829  11.026  -1.093  0.6497  0.8266  0.0999
  129MOL0     C17707   9.702  10.937  -1.105  0.7254 -0.3337 -0.1147
  129MOL0     C17708   9.664  10.932  -1.243 -0.0347  1.5952  0.4631
  129MOL0    Cl17709   9.791  10.858  -1.337 -0.0871  0.0968  0.1667
  129MOL0     C17710   9.652  11.131  -0.262 -0.1699 -0.3793  0.2954
  129MOL0     C17711   9.644  11.195  -0.135 -0.1887 -0.0008 -0.0231
  129MOL0     O17712   9.765  11.066   0.191  0.3814  0.0120  1.1434
  129MOL0     C17713   9.791  11.387   0.331  1.5166 -0.4039  0.1696
  129MOL0     C17714   9.814  11.453   0.452  0.2506 -0.3848 -0.0367
  129MOL0     N17715  10.216  11.074   0.751 -0.3066  0.3053 -0.1122
  129MOL0     N17716  10.187  10.961   0.712 -0.3222  0.4472  0.2817
  129MOL0     C17717  10.970  10.250   0.637  0.0663 -0.4692  0.4695
  129MOL0     C17718  11.080  10.161   0.607 -0.6981 -0.8830  0.0104
  129MOL0     C17719  11.398   9.888   0.476  0.0445 -0.8135  0.2912
  129MOL0     C17720  11.465   9.825   0.579  0.1623 -0.5296  0.2286
  129MOL0     C17721  11.549   9.718   0.555  0.1962  0.5218  1.6520
  129MOL0     C17722  11.562   9.662   0.426 -0.3347  0.2315  0.1497
  129MOL0     O17723  11.632   9.554   0.414  0.0294 -0.2107  0.2461
  129MOL0     C17724  11.551   9.438   0.407  0.3984 -0.0238 -0.4109
  129MOL0     C17725  11.647   9.315   0.390 -0.0418 -0.6020  0.3381
  129MOL0     C17726  11.745   9.314   0.273 -0.6810  0.3587 -0.7412
  129MOL0     C17727  11.685   9.373   0.150  0.7194 -0.5968 -0.5740
  129MOL0     C17728  11.577   9.296   0.108  0.8419 -0.6827  1.1841
  129MOL0     C17729  11.480   9.231   0.067 -0.3904 -0.3386  0.4910
  129MOL0     C17730  11.494   9.729   0.323 -0.1998  0.7045  0.4011
  129MOL0     C17731  11.417   9.843   0.342 -0.2912  0.3093 -0.0834
  129MOL0     C17732  11.364   9.907   0.220 -1.0821  0.3357  0.3867
  129MOL0     H17733  11.078  10.169   0.263  0.7377 -0.5231  1.3543
  129MOL0     H17734  10.900  10.337   0.306 -0.0345  0.1565 -0.1252
  129MOL0     H17735  10.885  10.529   0.648  0.3184 -0.0210 -3.4113
  129MOL0     H17736  10.763  10.429   0.738  1.9039  1.8100  2.1688
  129MOL0     H17737  10.691  10.660   0.718  0.6138  1.8589 -1.6097
  129MOL0     H17738  10.707  10.645   0.539  2.3479 -1.5871 -0.3435
  129MOL0     H17739  10.473  10.640   0.587  1.9000  0.5222  1.6408
  129MOL0     H17740  10.532  10.477   0.543  2.4773 -3.1605  2.0458
  129MOL0     H17741  10.527  10.427   0.789  1.7781  0.5061  0.4505
  129MOL0     H17742  10.498  10.599   0.826  1.9773 -0.1653 -1.0497
  129MOL0     H17743  10.286  10.478   0.855  0.9636 -0.9148  0.1965
  129MOL0     H17744  10.277  10.444   0.686  0.2538  0.9091 -0.5170
  129MOL0     H17745  10.293  10.734   0.799 -0.0463 -1.6305  1.5235
  129MOL0     H17746  10.238  10.692   0.636 -2.4899  0.4778 -0.0433
  129MOL0     H17747  10.107  10.655   0.909 -1.9432  1.9870  0.4769
  129MOL0     H17748  10.063  10.558   0.770  2.3695 -0.4323 -0.2532
  129MOL0     H17749  10.012  10.771   0.652  2.5876  0.1120 -0.0334
  129MOL0     H17750   9.920  10.757   0.793 -1.1314 -1.1805 -5.6691
  129MOL0     H17751  10.013  10.985   0.988  0.6194 -0.0221  0.0911
  129MOL0     H17752  10.254  11.285   0.911 -0.5774  2.1251  2.2891
  129MOL0     H17753  10.200  11.169   1.043 -1.4946 -1.4861  0.5211
  129MOL0     H17754   9.995  11.264   1.068 -2.6932  4.1171  0.3376
  129MOL0     H17755  10.090  11.404   1.037 -0.8032  0.3189  0.4934
  129MOL0     H17756   9.901  11.272   0.843  0.9565 -1.4175  1.7263
  129MOL0     H17757   9.897  11.429   0.913  0.6482  0.8375 -0.3360
  129MOL0     H17758  10.068  11.527   0.806  1.5411 -0.7944 -0.6543
  129MOL0     H17759  10.104  11.378   0.719 -1.5050 -0.2940 -2.9705
  129MOL0     H17760  10.015  11.230   0.590  0.3295 -0.2380 -1.7991
  129MOL0     H17761   9.945  10.998   0.517  0.2681 -5.5258 -1.2591
  129MOL0     H17762  10.041  11.022   0.375  0.1901 -0.7501  2.7123
  129MOL0     H17763   9.868  10.973   0.369  0.8103 -0.5468 -0.5116
  129MOL0     H17764   9.969  11.156  -0.047 -0.8428 -0.3777  1.7111
  129MOL0     H17765   9.990  11.077  -0.262  0.3042  1.8073 -1.3225
  129MOL0     H17766   9.988  10.968  -0.482 -0.1010 -0.6301 -0.5086
  129MOL0     H17767   9.894  10.848  -0.393 -0.2145  1.9657  2.7116
  129MOL0     H17768   9.922  10.796  -0.649  2.8677  1.6522  0.5020
  129MOL0     H17769   9.761  10.827  -0.619  0.5419 -0.6241 -2.9793
  129MOL0     H17770   9.985  11.009  -0.701  0.6374 -2.7383 -0.5934
  129MOL0     H17771   9.828  11.085  -0.693 -0.5125 -0.7622  1.2381
  129MOL0     H17772   9.781  10.882  -0.867 -0.8788  0.6733  2.0092
  129MOL0     H17773   9.955  10.897  -0.902  0.1741 -1.3656  0.3073
  129MOL0     H17774   9.772  11.137  -0.918 -2.0533 -1.8495 -0.7606
  129MOL0     H17775   9.951  11.124  -0.932  1.4282 -1.9512 -0.7925
  129MOL0     H17776   9.916  10.972  -1.131  0.5611  0.5992  0.2173
  129MOL0     H17777   9.832  11.118  -1.151  2.9819 -0.6795 -2.3811
  129MOL0     H17778   9.632  10.995  -1.044  0.5137  0.1093 -0.7563
  129MOL0     H17779   9.715  10.836  -1.065 -2.1330 -0.0514  1.8552
  129MOL0     H17780   9.649  11.033  -1.284  1.1067  0.4793 -3.0540
  129MOL0     H17781   9.566  10.885  -1.256 -0.7394  3.0582  0.1952
  129MOL0     H17782   9.566  11.113  -0.325  0.1722  0.6310 -0.4844
  129MOL0     H17783   9.552  11.233  -0.091 -0.5496 -0.6050 -0.2389
  129MOL0     H17784   9.734  11.435   0.252 -0.6329 -1.2009  1.1570
  129MOL0     H17785   9.786  11.557   0.465  3.4650  0.5085  0.4842
  129MOL0     H17786  10.923  10.264   0.734 -1.2623  0.9866 -0.3449
  129MOL0     H17787  11.124  10.115   0.695 -0.9866  0.5246  0.9298
  129MOL0     H17788  11.463   9.858   0.683 -0.8036  2.4280 -0.6477
  129MOL0     H17789  11.609   9.671   0.633  1.2788  1.0140  1.1446
  129MOL0     H17790  11.495   9.419   0.499  1.2820  1.8654  0.5782
  129MOL0     H17791  11.472   9.442   0.332 -0.8864 -2.8759  0.6808
  129MOL0     H17792  11.591   9.222   0.384 -3.0819  1.1586 -0.7112
  129MOL0     H17793  11.717   9.308   0.474  2.8435  1.8579 -1.6540
  129MOL0     H17794  11.839   9.355   0.309 -2.4133  2.6608  1.5025
  129MOL0     H17795  11.760   9.209   0.247 -0.4491 -0.9359  3.8299
  129MOL0     H17796  11.764   9.369   0.074  1.1654  1.4300 -0.2665
  129MOL0     H17797  11.674   9.481   0.158 -0.8438 -0.6273 -1.7659
  129MOL0     H17798  11.398   9.171   0.035 -0.3508  0.2896 -0.8833
  129MOL0     H17799  11.512   9.692   0.223 -2.1175  1.3134 -0.2115
  129MOL0     H17800  11.255   9.901   0.221 -1.2917  2.9549  1.2146
  129MOL0     H17801  11.385  10.014   0.208 -0.2073  0.2969  1.4292
  129MOL0     H17802  11.405   9.859   0.130  0.0336  0.7897  0.6392
  130MOL0     O17803   0.311  10.408   8.206  0.0706  0.3935 -0.2335
  130MOL0     C17804   0.276  10.471   8.111  0.4043 -0.5046 -0.0120
  130MOL0     O17805   0.356  10.549   8.026 -0.4672  0.2902  0.1081
  130MOL0     C17806   0.490  10.563   8.051 -0.0826  0.2943 -1.1834
  130MOL0     C17807   0.580  10.459   8.074  0.0381 -0.4091  0.1618
  130MOL0     C17808   0.718  10.476   8.097  0.4882 -0.3866 -0.0288
  130MOL0     C17809   0.771  10.608   8.099 -0.5975 -0.1449  0.0323
  130MOL0     O17810   0.903  10.626   8.105 -0.5252  0.0120 -0.5777
  130MOL0     C17811   0.994  10.533   8.176 -0.5030  0.4434  1.3556
  130MOL0     C17812   1.122  10.610   8.225  0.4614 -0.0293  0.7050
  130MOL0     C17813   1.224  10.515   8.297 -0.1777  0.1148  0.2637
  130MOL0     C17814   1.342  10.597   8.350  0.2847  0.8027 -0.2117
  130MOL0     C17815   1.456  10.530   8.439 -0.0273 -0.4517 -0.2996
  130MOL0     C17816   1.515  10.413   8.352 -0.1553  0.1585  0.1032
  130MOL0     C17817   1.648  10.361   8.410  0.6710 -1.0379  0.1379
  130MOL0     C17818   1.688  10.233   8.334 -0.7994 -0.2523 -0.4266
  130MOL0     N17819   1.831  10.200   8.357  0.0274  0.1548 -0.0766
  130MOL0     C17820   1.873  10.179   8.483  0.1351 -0.7556 -0.5066
  130MOL0     C17821   2.002  10.153   8.456 -0.0481  0.2796  0.2493
  130MOL0     C17822   2.105  10.112   8.554 -1.0395  0.0196 -0.7658
  130MOL0     C17823   2.231  10.199   8.554 -0.5365  0.3489 -0.4334
  130MOL0     C17824   2.202  10.344   8.599 -0.4176 -0.4720  1.1886
  130MOL0     C17825   2.315  10.449   8.592 -0.3652 -0.1287 -0.4134
  130MOL0     O17826   2.412  10.409   8.686  0.2051 -0.1667 -0.6149
  130MOL0     C17827   2.525  10.480   8.709  0.2586  0.0040 -0.6156
  130MOL0     C17828   2.593  10.441   8.818 -0.4746 -0.8872 -0.5112
  130MOL0     C17829   2.715  10.495   8.856  0.1958 -0.1053 -0.3618
  130MOL0     C17830   2.804  10.430   8.966  0.4490 -0.1489 -0.3480
  130MOL0     C17831   2.778  10.588   8.765  0.2072  0.7222 -0.5441
  130MOL0     C17832   2.920  10.620   8.760  0.3024 -0.0120  0.8347
  130MOL0     O17833   2.954  10.741   8.730  0.4242 -0.1311 -1.4156
  130MOL0     C17834   3.088  10.776   8.721 -0.5443 -0.1130 -0.2437
  130MOL0     C17835   3.185  10.769   8.820  0.0561  0.4217  0.2283
  130MOL0     C17836   3.315  10.799   8.806 -0.5915  0.2257 -0.6409
  130MOL0     C17837   3.366  10.846   8.688  0.4383  0.3160  0.5962
  130MOL0     O17838   3.501  10.872   8.666  0.3372  0.3579  0.0123
  130MOL0     C17839   3.588  10.884   8.779 -0.3773 -0.2867 -0.4659
  130MOL0     C17840   3.556  11.000   8.873 -0.6669  0.5830  0.3660
  130MOL0     C17841   3.536  11.129   8.783  0.6459 -0.4507 -0.4952
  130MOL0     C17842   3.559  11.261   8.863  0.5258  0.6818  0.2966
  130MOL0     C17843   3.470  11.286   8.986  0.2194 -0.1486 -0.1402
  130MOL0     C17844   3.324  11.328   8.930  0.7188 -0.3589 -0.2427
  130MOL0     C17845   3.243  11.345   9.059 -0.2986 -0.5783  0.0275
  130MOL0     C17846   3.105  11.305   9.043  0.3558 -0.2525  0.5200
  130MOL0    Cl17847   3.017  11.299   9.196  0.0456 -0.3644 -0.0015
  130MOL0     C17848   3.277  10.862   8.579  0.8138 -0.9524 -0.4062
  130MOL0     C17849   3.142  10.828   8.602 -0.2957 -0.2267  0.0371
  130MOL0     O17850   2.996  10.531   8.793 -0.5067 -0.2139 -0.3337
  130MOL0     C17851   2.701  10.640   8.656 -0.6940 -0.0806 -0.3142
  130MOL0     C17852   2.574  10.588   8.633  0.1979 -0.0703  0.2675
  130MOL0     N17853   2.029  10.138   8.314 -0.0714 -0.2607  0.1963
  130MOL0     N17854   1.926  10.178   8.260  0.7071  0.3225 -0.8024
  130MOL0     C17855   0.690  10.712   8.072  0.4632  0.0308 -0.6913
  130MOL0     C17856   0.553  10.691   8.041 -0.3667 -0.2469 -0.2094
  130MOL0     C17857   0.129  10.489   8.096 -0.6249 -0.1670  0.2533
  130MOL0     C17858   0.073  10.592   8.013  0.1842 -0.0923  0.1734
  130MOL0     C17859  -0.067  10.602   7.993  0.7541  0.0487 -0.2733
  130MOL0     C17860  -0.154  10.510   8.054  0.8304 -0.5664  1.7134
  130MOL0     O17861  -0.291  10.504   8.035 -0.4581  0.5331  0.5203
  130MOL0     C17862  -0.367  10.621   7.994 -0.5003 -0.5866 -0.5462
  130MOL0     C17863  -0.517  10.597   7.965 -0.1201  0.6255 -0.5800
  130MOL0     C17864  -0.550  10.455   7.907  1.0243 -1.1750 -0.0668
  130MOL0     C17865  -0.703  10.435   7.878 -0.1115 -0.4363  0.8475
  130MOL0     C17866  -0.787  10.484   7.995 -0.3915  0.1529  0.8234
  130MOL0     C17867  -0.862  10.528   8.088 -0.3451  0.1062  0.3531
  130MOL0     C17868  -0.103  10.401   8.116 -0.4553  0.0564  0.1007
  130MOL0     C17869   0.036  10.387   8.133 -0.7342 -0.6059 -0.2016
  130MOL0     C17870   0.069  10.258   8.201 -0.5675  0.4219 -0.0787
  130MOL0     H17871   0.545  10.356   8.069  3.4398 -1.7873  1.5684
  130MOL0     H17872   0.783  10.390   8.104  1.0004 -0.0454 -0.4805
  130MOL0     H17873   1.026  10.457   8.104 -1.5634  0.7612  0.5220
  130MOL0     H17874   0.946  10.498   8.268 -3.3333 -0.4061 -0.2991
  130MOL0     H17875   1.161  10.652   8.132  1.8913 -1.0185  0.8161
  130MOL0     H17876   1.102  10.693   8.293 -0.7813 -0.1787  0.5334
  130MOL0     H17877   1.175  10.472   8.385  0.3702 -2.0603 -0.4449
  130MOL0     H17878   1.262  10.438   8.230 -2.7261  0.8670 -2.2376
  130MOL0     H17879   1.394  10.628   8.259  3.5068 -2.0947  0.4369
  130MOL0     H17880   1.316  10.694   8.393  0.1312 -0.0904  1.7816
  130MOL0     H17881   1.423  10.507   8.541  1.9264  1.7788  0.9791
  130MOL0     H17882   1.544  10.595   8.447  1.2325 -2.1108 -0.2449
  130MOL0     H17883   1.451  10.324   8.360  0.7898 -0.5753 -0.3778
  130MOL0     H17884   1.535  10.448   8.251  1.8473 -1.1427 -0.0181
  130MOL0     H17885   1.640  10.345   8.518 -1.8693  1.3374  0.4290
  130MOL0     H17886   1.721  10.441   8.395  0.6297 -1.0551 -0.1547
  130MOL0     H17887   1.618  10.157   8.370 -0.6419 -0.0797  0.2769
  130MOL0     H17888   1.673  10.260   8.230 -1.1332  1.9261  0.1274
  130MOL0     H17889   1.823  10.189   8.578  1.9777 -4.4027  1.0139
  130MOL0     H17890   2.137  10.008   8.536 -0.9459 -1.5607  5.9861
  130MOL0     H17891   2.054  10.111   8.651 -1.1126 -0.8616 -0.7989
  130MOL0     H17892   2.302  10.156   8.625 -2.2864 -1.6123  0.2176
  130MOL0     H17893   2.284  10.197   8.458  2.8174  0.6484  1.2658
  130MOL0     H17894   2.131  10.381   8.524  1.9617  2.0121  0.0085
  130MOL0     H17895   2.158  10.344   8.699  0.5766 -1.1258  1.6383
  130MOL0     H17896   2.347  10.463   8.488  1.1980  0.7444  0.1415
  130MOL0     H17897   2.288  10.550   8.624  1.6325  0.4409 -0.3946
  130MOL0     H17898   2.552  10.363   8.881 -2.5449  2.4939  2.7946
  130MOL0     H17899   2.882  10.500   8.998  0.8787 -0.3342 -0.9744
  130MOL0     H17900   2.859  10.344   8.927  0.3185 -0.1558 -0.5143
  130MOL0     H17901   2.742  10.398   9.051  0.5425  0.7162  0.0462
  130MOL0     H17902   3.153  10.719   8.911  1.1141 -2.2223 -0.7436
  130MOL0     H17903   3.366  10.794   8.902 -2.2044  2.7141  0.4417
  130MOL0     H17904   3.602  10.797   8.845 -1.2777  0.7654  1.1740
  130MOL0     H17905   3.684  10.906   8.732 -1.1038  1.1232 -1.3283
  130MOL0     H17906   3.458  10.976   8.916 -3.0882 -1.6431 -5.3668
  130MOL0     H17907   3.637  11.011   8.945 -0.9786  3.1253  0.4236
  130MOL0     H17908   3.433  11.131   8.747  0.5638  1.6656 -0.3044
  130MOL0     H17909   3.599  11.134   8.694  0.5769  0.2338 -0.5111
  130MOL0     H17910   3.557  11.338   8.785  1.1689 -0.1967 -0.6134
  130MOL0     H17911   3.657  11.274   8.911 -0.2833 -0.3392  2.3550
  130MOL0     H17912   3.452  11.192   9.040 -4.6085  0.4947 -0.1913
  130MOL0     H17913   3.511  11.365   9.049  1.9444 -0.2368 -1.0948
  130MOL0     H17914   3.271  11.251   8.874 -1.2850  0.4394  0.4657
  130MOL0     H17915   3.336  11.422   8.876 -0.3241 -0.8682 -1.4008
  130MOL0     H17916   3.252  11.451   9.085 -4.6213 -0.0663  0.0742
  130MOL0     H17917   3.287  11.287   9.141  1.8249 -1.0184 -1.3343
  130MOL0     H17918   3.095  11.205   8.999  0.4456 -0.4983  1.0479
  130MOL0     H17919   3.069  11.386   8.979  3.5648 -1.1125 -2.6938
  130MOL0     H17920   3.307  10.890   8.478  0.4913  2.8413  0.4260
  130MOL0     H17921   3.063  10.837   8.528 -1.8459  1.5083  1.8036
  130MOL0     H17922   2.745  10.714   8.590  0.5250  0.3855  0.9754
  130MOL0     H17923   2.525  10.616   8.540 -2.2567 -1.9938  0.8598
  130MOL0     H17924   0.735  10.811   8.065 -0.5602  0.6025  0.4066
  130MOL0     H17925   0.500  10.780   8.011  1.7557  1.9839  2.1385
  130MOL0     H17926   0.141  10.660   7.962  1.5814 -1.7126 -0.2189
  130MOL0     H17927  -0.101  10.677   7.923 -2.7096 -3.4094 -2.6849
  130MOL0     H17928  -0.355  10.693   8.076  3.4997 -2.4228  0.7402
  130MOL0     H17929  -0.329  10.673   7.905 -1.4919 -0.3305 -0.8308
  130MOL0     H17930  -0.561  10.678   7.905 -3.7413  1.7574  3.1668
  130MOL0     H17931  -0.559  10.607   8.065 -1.7883 -0.7303 -1.0959
  130MOL0     H17932  -0.502  10.440   7.810 -0.5028  1.1334 -1.2904
  130MOL0     H17933  -0.523  10.380   7.981 -1.3253 -2.0058  0.0497
  130MOL0     H17934  -0.729  10.331   7.857  1.1138 -0.5525 -0.2873
  130MOL0     H17935  -0.721  10.499   7.791 -0.9364 -0.3214  1.0923
  130MOL0     H17936  -0.930  10.571   8.158 -0.3056  2.6421 -1.0449
  130MOL0     H17937  -0.183  10.345   8.162 -1.8445  0.7423 -1.3987
  130MOL0     H17938   0.099  10.277   8.305  1.9684  0.3530 -0.7341
  130MOL0     H17939  -0.002  10.178   8.180 -0.4590  0.6221 -1.2959
  130MOL0     H17940   0.160  10.213   8.162 -0.3624 -1.4075  2.3238
  131MOL0     O17941   9.814   4.596   6.628 -0.3513 -0.6374  0.0844
  131MOL0     C17942   9.751   4.624   6.731  0.4708  0.1725  1.1830
  131MOL0     O17943   9.801   4.683   6.840 -0.3018 -0.4476 -0.3638
  131MOL0     C17944   9.922   4.740   6.830 -0.2749 -0.6675  0.1599
  131MOL0     C17945  10.038   4.676   6.883  0.5703 -0.0255  0.5329
  131MOL0     C17946  10.155   4.754   6.911 -0.0880 -0.0955 -0.1922
  131MOL0     C17947  10.165   4.881   6.889 -0.4686  0.0137  0.1632
  131MOL0     O17948  10.277   4.957   6.919  0.3067 -0.0579 -0.7530
  131MOL0     C17949  10.343   4.924   7.044  0.3846 -0.1510  0.3165
  131MOL0     C17950  10.436   5.038   7.086 -0.3877  0.3440  0.2477
  131MOL0     C17951  10.576   5.042   7.013  0.5607  0.5366  0.4839
  131MOL0     C17952  10.673   5.132   7.094  0.2150  0.1670  0.4785
  131MOL0     C17953  10.819   5.130   7.052  0.7141  0.3698  0.0020
  131MOL0     C17954  10.836   5.183   6.908  0.0700  0.8543  0.3291
  131MOL0     C17955  10.964   5.142   6.841  0.1167  0.5733 -0.3090
  131MOL0     C17956  11.089   5.212   6.899  0.1521 -0.3192  0.7567
  131MOL0     N17957  11.219   5.169   6.845  0.2847  0.1332 -0.8048
  131MOL0     C17958  11.254   5.182   6.710 -0.3423  0.6218 -0.4063
  131MOL0     C17959  11.381   5.139   6.706 -1.0094  0.0666 -0.0111
  131MOL0     C17960  11.474   5.141   6.583  0.4026  0.8379 -0.7079
  131MOL0     C17961  11.577   5.026   6.580 -0.2023 -0.2009  0.4210
  131MOL0     C17962  11.658   5.048   6.446  0.1109 -0.8828 -0.5633
  131MOL0     C17963  11.804   5.006   6.469  1.0499 -0.3917 -0.6283
  131MOL0     O17964  11.817   4.860   6.469  0.7626 -0.7758  0.4635
  131MOL0     C17965  11.943   4.808   6.484 -0.0305  0.1749  0.4773
  131MOL0     C17966  12.062   4.874   6.443  0.2506 -0.4267  0.2510
  131MOL0     C17967  12.189   4.812   6.464 -1.1293 -0.6233 -0.0085
  131MOL0     C17968  12.307   4.888   6.412  0.0168 -0.2264 -0.3863
  131MOL0     C17969  12.203   4.689   6.529 -0.1847 -0.4754  0.7418
  131MOL0     C17970  12.332   4.624   6.572 -0.7840  0.1881 -0.2042
  131MOL0     O17971  12.337   4.488   6.572  0.2236 -0.6700  0.4695
  131MOL0     C17972  12.436   4.422   6.639 -0.5430  0.1198 -0.1803
  131MOL0     C17973  12.491   4.307   6.582  0.2631 -0.2425 -0.2656
  131MOL0     C17974  12.596   4.237   6.640  0.1163 -0.6811 -0.1136
  131MOL0     C17975  12.654   4.283   6.760 -0.3048  0.0420 -0.2149
  131MOL0     O17976  12.767   4.222   6.813 -0.5446  0.1623  0.0796
  131MOL0     C17977  12.863   4.279   6.901  0.3374 -0.1063  0.7631
  131MOL0     C17978  12.947   4.397   6.844 -0.1927  0.1633  0.2624
  131MOL0     C17979  13.044   4.467   6.948 -0.2997  0.1729  0.3611
  131MOL0     C17980  13.166   4.371   6.985 -0.0320 -0.1990 -0.5289
  131MOL0     C17981  13.276   4.439   7.071 -0.6948  0.0948 -0.4277
  131MOL0     C17982  13.380   4.530   6.995  1.1631 -1.0803  0.0633
  131MOL0     C17983  13.504   4.514   7.078  0.4437 -0.5271 -0.2724
  131MOL0     C17984  13.613   4.606   7.030 -0.5720  1.1596 -0.1586
  131MOL0    Cl17985  13.584   4.774   7.077  0.1537 -0.2302 -0.4069
  131MOL0     C17986  12.591   4.391   6.821  0.0493 -0.0646  0.2043
  131MOL0     C17987  12.479   4.456   6.767  0.2820 -0.2046 -0.7530
  131MOL0     O17988  12.427   4.699   6.605 -0.4494  0.2436 -0.7676
  131MOL0     C17989  12.085   4.624   6.564  0.3541 -0.6713 -0.7220
  131MOL0     C17990  11.960   4.685   6.543  0.6704 -0.0207 -0.7082
  131MOL0     N17991  11.420   5.096   6.832  0.0439  1.0756  0.9222
  131MOL0     N17992  11.320   5.110   6.913  0.0528  0.1974  0.4078
  131MOL0     C17993  10.055   4.940   6.829 -1.1167 -0.1802 -1.0133
  131MOL0     C17994   9.934   4.873   6.811 -0.5984 -0.4865 -0.0212
  131MOL0     C17995   9.605   4.581   6.736 -0.0412 -0.4038  0.7585
  131MOL0     C17996   9.531   4.610   6.851  0.5658 -0.5719  0.1504
  131MOL0     C17997   9.396   4.574   6.875  1.3191  0.9104 -0.1182
  131MOL0     C17998   9.336   4.499   6.778  0.4497  0.7789  0.2797
  131MOL0     O17999   9.203   4.480   6.777  0.6794 -1.2822 -0.2266
  131MOL0     C18000   9.160   4.345   6.754 -0.1169  0.1773 -0.0847
  131MOL0     C18001   9.081   4.296   6.866 -0.3057  0.1309  0.0194
  131MOL0     C18002   8.966   4.393   6.897  0.5501  0.3556 -0.1127
  131MOL0     C18003   8.878   4.353   7.014  0.3527  0.2771  0.7848
  131MOL0     C18004   8.943   4.322   7.145  0.2088  0.2518 -0.0476
  131MOL0     C18005   9.004   4.294   7.247  0.2240  0.3710 -0.0168
  131MOL0     C18006   9.395   4.476   6.656 -0.0706  0.0897  0.4985
  131MOL0     C18007   9.531   4.515   6.634 -0.0001  1.2338 -0.4361
  131MOL0     C18008   9.586   4.454   6.503 -0.1906  0.2779 -0.2984
  131MOL0     H18009  10.041   4.572   6.915 -2.4484 -0.4254 -0.1426
  131MOL0     H18010  10.241   4.706   6.957 -0.1189 -0.2353 -0.2782
  131MOL0     H18011  10.398   4.830   7.035 -1.8526 -1.7137  1.8915
  131MOL0     H18012  10.267   4.917   7.122  1.6458  1.9379  1.8269
  131MOL0     H18013  10.379   5.131   7.090 -3.0975 -0.9760 -2.9195
  131MOL0     H18014  10.456   5.005   7.188 -1.4521  0.2620  0.4321
  131MOL0     H18015  10.615   4.939   7.007 -1.0152 -0.1023  0.7366
  131MOL0     H18016  10.568   5.090   6.915 -0.1450  1.2999  0.9050
  131MOL0     H18017  10.651   5.240   7.091 -1.6870 -0.1962 -0.4200
  131MOL0     H18018  10.665   5.092   7.195 -0.9097  0.5726  0.5775
  131MOL0     H18019  10.861   5.029   7.053  1.4846  0.6692  2.4328
  131MOL0     H18020  10.880   5.186   7.124 -0.8731  1.5212  0.5085
  131MOL0     H18021  10.760   5.139   6.843  1.5112 -0.3182 -0.6475
  131MOL0     H18022  10.827   5.291   6.923 -0.2195  0.8195  0.3936
  131MOL0     H18023  10.956   5.177   6.737  2.4853  5.1403  0.8027
  131MOL0     H18024  10.969   5.033   6.838 -3.0854  0.2591  1.0145
  131MOL0     H18025  11.081   5.321   6.899  1.0086 -0.2355 -0.2189
  131MOL0     H18026  11.089   5.192   7.006 -3.8340  1.8447  1.3481
  131MOL0     H18027  11.197   5.236   6.635 -2.1096 -1.1006 -0.4113
  131MOL0     H18028  11.537   5.230   6.593 -0.8889  1.5908  1.6140
  131MOL0     H18029  11.416   5.135   6.491  2.6628  0.2903 -2.1602
  131MOL0     H18030  11.641   5.023   6.668  1.3771 -0.0020 -0.6891
  131MOL0     H18031  11.518   4.934   6.570  0.3863 -0.7372  1.7177
  131MOL0     H18032  11.609   4.995   6.364  3.0857 -1.5296 -2.0482
  131MOL0     H18033  11.658   5.152   6.413 -0.0445 -0.7290 -0.0830
  131MOL0     H18034  11.864   5.064   6.399  3.8510  0.6289  2.3450
  131MOL0     H18035  11.840   5.030   6.570  0.2874  0.0282 -0.4526
  131MOL0     H18036  12.058   4.971   6.394 -1.2891  0.1086  1.3603
  131MOL0     H18037  12.349   4.940   6.498  2.3061 -2.2435 -0.1816
  131MOL0     H18038  12.280   4.962   6.336  0.6606 -1.6080 -2.0429
  131MOL0     H18039  12.389   4.824   6.378  1.4002  0.3993  1.5678
  131MOL0     H18040  12.456   4.267   6.487 -1.5502  0.8746 -0.1296
  131MOL0     H18041  12.627   4.142   6.596  2.3880 -0.3118  0.5589
  131MOL0     H18042  12.818   4.298   6.999 -1.4116  0.8676 -0.1656
  131MOL0     H18043  12.927   4.192   6.914 -0.1080 -0.2626  2.0338
  131MOL0     H18044  13.000   4.355   6.759 -0.7626  0.6413 -0.3370
  131MOL0     H18045  12.891   4.481   6.802  3.0121  1.6712 -1.3239
  131MOL0     H18046  12.995   4.497   7.042  0.1859  0.4174  0.5434
  131MOL0     H18047  13.091   4.546   6.888 -0.7646 -0.4390 -0.8217
  131MOL0     H18048  13.216   4.342   6.892 -0.8700 -0.4837 -0.9008
  131MOL0     H18049  13.133   4.287   7.048 -0.1187 -1.0404 -1.6569
  131MOL0     H18050  13.230   4.484   7.159 -1.3850 -0.1936 -0.6333
  131MOL0     H18051  13.338   4.365   7.120  0.3639  1.5344  0.4908
  131MOL0     H18052  13.347   4.634   6.988 -1.0162 -1.4976  2.3315
  131MOL0     H18053  13.392   4.488   6.895  1.0462  1.5781 -1.1432
  131MOL0     H18054  13.542   4.412   7.082  1.1617 -0.2226  0.8819
  131MOL0     H18055  13.475   4.547   7.178 -2.9190 -0.2079 -1.2086
  131MOL0     H18056  13.632   4.589   6.923  1.2346 -3.3541  0.6524
  131MOL0     H18057  13.700   4.573   7.087 -1.2920  1.3265  1.0655
  131MOL0     H18058  12.629   4.423   6.918  0.2880  1.1934 -0.2895
  131MOL0     H18059  12.435   4.544   6.814  0.2443  0.9317 -2.7860
  131MOL0     H18060  12.090   4.526   6.612  0.7181  1.0373  3.1606
  131MOL0     H18061  11.865   4.642   6.576  0.3552 -1.2970 -3.0150
  131MOL0     H18062  10.061   5.046   6.808  1.0999 -0.2748 -1.0830
  131MOL0     H18063   9.850   4.934   6.778  0.0205 -0.5382 -1.8245
  131MOL0     H18064   9.564   4.665   6.938 -2.3018 -0.3127  1.2030
  131MOL0     H18065   9.337   4.614   6.957 -1.2319 -0.1367 -1.3236
  131MOL0     H18066   9.095   4.347   6.666 -0.7183 -1.4461  0.2890
  131MOL0     H18067   9.244   4.284   6.718  1.1095  1.4336  0.5458
  131MOL0     H18068   9.146   4.303   6.954 -0.8972 -1.1516  0.5773
  131MOL0     H18069   9.055   4.191   6.854  0.9335  0.0028 -1.8401
  131MOL0     H18070   9.007   4.490   6.928  1.1184 -0.2496  1.0944
  131MOL0     H18071   8.906   4.423   6.810 -1.8739 -2.4400  0.4496
  131MOL0     H18072   8.815   4.266   6.991 -0.4795  0.4497  2.3119
  131MOL0     H18073   8.804   4.432   7.031  0.2014  0.6268 -1.1776
  131MOL0     H18074   9.064   4.274   7.334 -0.2201  0.1885  0.2509
  131MOL0     H18075   9.345   4.431   6.570  4.5823  0.4567 -2.8114
  131MOL0     H18076   9.636   4.534   6.448 -1.7120  2.5831  1.4872
  131MOL0     H18077   9.666   4.383   6.527  0.0241  0.4807 -0.4129
  131MOL0     H18078   9.515   4.413   6.430  0.8585  1.0140 -1.7757
  132MOL0     O18079   5.235   1.741   1.216 -0.1497 -0.5544  0.2146
  132MOL0     C18080   5.201   1.732   1.102 -0.0365  0.4221 -0.1481
  132MOL0     O18081   5.278   1.751   0.996  0.0670 -0.5781 -0.7142
  132MOL0     C18082   5.408   1.758   1.002 -0.1032 -0.4813 -0.5846
  132MOL0     C18083   5.491   1.689   1.089 -0.3693  0.1879 -0.0477
  132MOL0     C18084   5.636   1.693   1.072 -0.5028  0.3924 -0.6206
  132MOL0     C18085   5.692   1.778   0.972 -0.7932 -0.8138  0.0547
  132MOL0     O18086   5.825   1.794   0.940  0.8320 -0.0835 -0.2913
  132MOL0     C18087   5.924   1.738   1.026  0.4416  0.4631  0.7826
  132MOL0     C18088   6.067   1.775   0.979  0.6099 -0.5626  0.4435
  132MOL0     C18089   6.096   1.918   1.000  0.6333  0.1460 -0.7250
  132MOL0     C18090   6.215   1.954   0.915 -0.0440  0.5445  0.9715
  132MOL0     C18091   6.253   2.095   0.950 -0.2152 -0.8430 -0.8705
  132MOL0     C18092   6.369   2.152   0.864 -0.0870  0.0723  0.7101
  132MOL0     C18093   6.373   2.305   0.899 -0.3933  0.8489 -0.0757
  132MOL0     C18094   6.477   2.373   0.809 -0.4695 -0.5830 -0.3333
  132MOL0     N18095   6.597   2.304   0.791  0.2754  0.2779  0.9229
  132MOL0     C18096   6.666   2.237   0.888 -0.6293 -0.7644  0.9353
  132MOL0     C18097   6.778   2.200   0.817 -0.8116  0.5142 -0.4880
  132MOL0     C18098   6.891   2.118   0.875 -0.3773  0.7267 -0.9924
  132MOL0     C18099   7.004   2.217   0.897  0.9191  0.2128 -0.3360
  132MOL0     C18100   6.983   2.297   1.027  0.4319  0.3029  0.6555
  132MOL0     C18101   7.052   2.433   1.037  0.0818 -0.4009  0.1212
  132MOL0     O18102   7.020   2.495   1.161  0.5884 -0.6507  0.0628
  132MOL0     C18103   7.102   2.597   1.199 -0.0080  0.3096 -0.3279
  132MOL0     C18104   7.122   2.619   1.342  0.3561  0.0644  0.5263
  132MOL0     C18105   7.210   2.720   1.379  1.2483 -0.9477  0.2176
  132MOL0     C18106   7.224   2.746   1.528 -0.6143 -0.5351 -0.1141
  132MOL0     C18107   7.279   2.807   1.288 -0.9390  1.0082  0.1304
  132MOL0     C18108   7.392   2.897   1.322  0.3772  0.7576  0.0447
  132MOL0     O18109   7.504   2.891   1.243 -0.8700  0.3390 -0.3100
  132MOL0     C18110   7.623   2.926   1.305  0.5618 -0.1323 -0.2014
  132MOL0     C18111   7.636   3.059   1.358 -0.3148  0.0314 -0.6879
  132MOL0     C18112   7.758   3.102   1.416  0.6856 -0.5993  1.2045
  132MOL0     C18113   7.869   3.015   1.432 -0.4555 -0.0508 -0.1081
  132MOL0     O18114   7.996   3.058   1.462  0.1651 -0.2758 -0.1557
  132MOL0     C18115   8.020   3.150   1.567 -0.9456  0.1021 -0.5232
  132MOL0     C18116   8.136   3.098   1.655  0.6759  0.5905 -0.8973
  132MOL0     C18117   8.270   3.122   1.589 -0.0646 -0.4489 -0.1449
  132MOL0     C18118   8.313   3.010   1.484  0.0889  0.2802 -0.8266
  132MOL0     C18119   8.459   3.013   1.469  0.5110 -0.6851 -0.0774
  132MOL0     C18120   8.510   2.885   1.388 -0.1628 -0.1110 -0.7703
  132MOL0     C18121   8.659   2.897   1.341  0.1779  0.0506  0.3704
  132MOL0     C18122   8.754   2.941   1.450  0.5389 -0.2214 -0.0105
  132MOL0    Cl18123   8.736   2.830   1.592  0.0514 -0.5624 -0.2763
  132MOL0     C18124   7.854   2.888   1.377 -0.1329 -0.0181 -0.8620
  132MOL0     C18125   7.739   2.850   1.306 -0.0678  0.3639 -0.1823
  132MOL0     O18126   7.379   2.974   1.413 -0.0396 -0.0470  0.2301
  132MOL0     C18127   7.247   2.784   1.156 -0.2039 -0.7840  0.2118
  132MOL0     C18128   7.155   2.695   1.108 -0.4631 -0.1857  0.1558
  132MOL0     N18129   6.780   2.237   0.686  1.1804  0.1562 -0.1010
  132MOL0     N18130   6.663   2.298   0.674  0.7183  0.4262 -0.2585
  132MOL0     C18131   5.607   1.841   0.881  0.1463  0.4668  0.2620
  132MOL0     C18132   5.469   1.836   0.901  0.2838  0.7507 -0.4331
  132MOL0     C18133   5.061   1.714   1.079 -0.1194  0.0547 -0.6386
  132MOL0     C18134   5.002   1.618   1.159 -0.0091 -0.1373 -0.2704
  132MOL0     C18135   4.865   1.608   1.162 -0.5262 -0.9752 -0.3672
  132MOL0     C18136   4.781   1.690   1.077 -0.6885  0.5484  0.2136
  132MOL0     O18137   4.644   1.698   1.083  0.6392  0.0963 -0.0691
  132MOL0     C18138   4.577   1.655   1.207 -0.1115  0.2428 -0.1801
  132MOL0     C18139   4.421   1.659   1.185 -0.6983 -0.4289 -0.7475
  132MOL0     C18140   4.322   1.616   1.300  0.4728  0.5373  0.9100
  132MOL0     C18141   4.366   1.634   1.444  0.5253 -0.6666 -0.5656
  132MOL0     C18142   4.442   1.507   1.486  0.2665  0.2696 -0.4736
  132MOL0     C18143   4.508   1.417   1.538  1.2439  0.1517  0.3903
  132MOL0     C18144   4.842   1.780   0.992  0.4078 -0.5156  0.2629
  132MOL0     C18145   4.982   1.798   0.992  0.1549 -0.1228 -0.4118
  132MOL0     C18146   5.026   1.893   0.884  0.6953 -0.2860  0.4494
  132MOL0     H18147   5.447   1.627   1.166 -1.9862 -1.9917 -2.5625
  132MOL0     H18148   5.704   1.645   1.142  0.2762  1.2965 -0.7383
  132MOL0     H18149   5.918   1.629   1.031  0.6027  0.1934 -2.5241
  132MOL0     H18150   5.897   1.771   1.127 -2.6860  1.1840 -0.1686
  132MOL0     H18151   6.134   1.722   1.047  1.2777  1.7283  1.6544
  132MOL0     H18152   6.086   1.742   0.876 -0.8817 -0.8284  0.2365
  132MOL0     H18153   6.006   1.975   0.977  1.0147  0.6980 -0.8808
  132MOL0     H18154   6.120   1.929   1.106  0.5779  1.7171 -0.8497
  132MOL0     H18155   6.296   1.887   0.947 -0.0746 -1.0730 -2.0529
  132MOL0     H18156   6.196   1.933   0.810 -1.9532  0.4735  1.3021
  132MOL0     H18157   6.280   2.096   1.056 -1.1308 -0.9509 -0.6271
  132MOL0     H18158   6.164   2.159   0.952  2.4139  3.1476  0.2320
  132MOL0     H18159   6.458   2.094   0.890  0.3228  0.1823 -0.3941
  132MOL0     H18160   6.356   2.145   0.755  1.7830 -0.1102  0.4751
  132MOL0     H18161   6.395   2.313   1.005  0.2165 -1.8865  0.0805
  132MOL0     H18162   6.275   2.352   0.887 -0.4957  1.2156  1.8679
  132MOL0     H18163   6.434   2.380   0.708  0.3398 -1.6806 -0.7750
  132MOL0     H18164   6.495   2.473   0.849  2.9883 -1.7763  1.4617
  132MOL0     H18165   6.643   2.230   0.994  0.0107 -2.1764  1.0153
  132MOL0     H18166   6.940   2.059   0.797 -0.3184 -0.5618 -0.0026
  132MOL0     H18167   6.861   2.068   0.967  3.2300  2.1179  1.1840
  132MOL0     H18168   7.106   2.176   0.898  1.0280  0.4567 -1.1156
  132MOL0     H18169   7.007   2.287   0.814 -4.5495  1.1246 -0.1026
  132MOL0     H18170   6.875   2.304   1.044  0.1955  1.4961 -1.1460
  132MOL0     H18171   7.034   2.240   1.105  0.2777  2.0204  2.0588
  132MOL0     H18172   7.161   2.425   1.030  0.3339  2.7656 -1.0717
  132MOL0     H18173   7.027   2.500   0.955  2.3502  1.6464  0.9836
  132MOL0     H18174   7.090   2.550   1.419  2.4799 -2.0604 -0.3713
  132MOL0     H18175   7.331   2.758   1.548 -1.0203 -1.4607  3.2740
  132MOL0     H18176   7.186   2.667   1.593  0.4228  0.0153  1.2049
  132MOL0     H18177   7.173   2.836   1.562 -0.3929 -1.3343  2.5450
  132MOL0     H18178   7.551   3.126   1.367 -0.1344  0.0291  2.3198
  132MOL0     H18179   7.782   3.202   1.451 -1.5231  0.9760 -1.3736
  132MOL0     H18180   8.054   3.245   1.525 -0.5471 -0.0556 -0.5624
  132MOL0     H18181   7.931   3.161   1.629 -0.5274  1.2870 -0.1204
  132MOL0     H18182   8.134   3.148   1.753 -1.4135 -0.8070 -0.1525
  132MOL0     H18183   8.118   2.995   1.685  3.0179  0.7346  1.4312
  132MOL0     H18184   8.343   3.127   1.670 -0.5276  1.8897  0.1966
  132MOL0     H18185   8.274   3.219   1.540 -2.4528 -0.5099 -0.6133
  132MOL0     H18186   8.254   3.028   1.394 -2.7032 -0.5496  0.6928
  132MOL0     H18187   8.270   2.914   1.515  1.2402 -0.4596 -1.4591
  132MOL0     H18188   8.481   3.111   1.424 -0.8549  0.2925  1.2717
  132MOL0     H18189   8.507   3.003   1.567  0.5986 -3.2333 -0.3184
  132MOL0     H18190   8.455   2.866   1.295  0.5671  0.3035 -1.2932
  132MOL0     H18191   8.497   2.799   1.455  0.4946 -0.2095 -0.7692
  132MOL0     H18192   8.668   2.974   1.264  0.0107 -0.3452 -0.0470
  132MOL0     H18193   8.682   2.799   1.298 -0.6121 -0.1095  0.3061
  132MOL0     H18194   8.729   3.043   1.481 -0.4351 -0.9924  1.8407
  132MOL0     H18195   8.857   2.947   1.413  1.1881  0.9437  1.8311
  132MOL0     H18196   7.929   2.810   1.385 -1.4971 -1.2702 -0.0679
  132MOL0     H18197   7.739   2.753   1.257  0.4987  0.8003 -1.0734
  132MOL0     H18198   7.285   2.851   1.079  0.5522 -3.8781 -2.3015
  132MOL0     H18199   7.123   2.688   1.004  0.4483  0.9106 -0.2303
  132MOL0     H18200   5.652   1.896   0.799  0.6530 -0.9241 -0.4244
  132MOL0     H18201   5.419   1.886   0.818  2.8276  0.5410 -2.2208
  132MOL0     H18202   5.043   1.538   1.220  0.0752 -0.1757 -0.3767
  132MOL0     H18203   4.823   1.544   1.238 -1.5718  0.9036  0.7079
  132MOL0     H18204   4.610   1.553   1.228 -0.1335  0.4518  0.8887
  132MOL0     H18205   4.618   1.716   1.288  0.7570 -1.4861  0.7299
  132MOL0     H18206   4.393   1.605   1.094 -1.0563 -0.4148 -0.6501
  132MOL0     H18207   4.398   1.762   1.156 -1.3099  0.2593  1.9629
  132MOL0     H18208   4.241   1.684   1.272 -1.3126 -1.8669 -0.1220
  132MOL0     H18209   4.301   1.511   1.279  4.4232 -0.2125 -0.1908
  132MOL0     H18210   4.286   1.655   1.516  2.4867 -0.0408  1.5732
  132MOL0     H18211   4.437   1.716   1.460  0.6979 -1.1864  1.7502
  132MOL0     H18212   4.566   1.335   1.577 -0.8990 -0.7256  1.9733
  132MOL0     H18213   4.770   1.839   0.935  0.7020  0.2772  0.6929
  132MOL0     H18214   5.096   1.845   0.815 -0.9610 -0.4461 -1.1762
  132MOL0     H18215   4.939   1.933   0.832 -0.3354 -1.3038  1.3334
  132MOL0     H18216   5.073   1.978   0.935 -0.7577 -0.5993  2.4121
  133MOL0     O18217   0.937   5.861  10.092 -0.3627  0.3451 -0.0110
  133MOL0     C18218   0.938   5.939   9.994 -0.3115  0.0571  0.4825
  133MOL0     O18219   1.048   5.980   9.922  0.2397 -0.1328  0.7509
  133MOL0     C18220   1.173   5.938   9.962 -0.0685 -0.3181 -1.3582
  133MOL0     C18221   1.216   5.804   9.941 -0.7571 -0.7321 -0.1184
  133MOL0     C18222   1.353   5.773   9.957 -0.0804  0.4007  0.2048
  133MOL0     C18223   1.437   5.864  10.009 -0.0275 -0.7055  0.2969
  133MOL0     O18224   1.562   5.816  10.026 -0.0871  0.5891  0.4158
  133MOL0     C18225   1.656   5.887  10.105  0.3403  0.0353 -0.7336
  133MOL0     C18226   1.751   5.769  10.149  0.3334  0.0054  0.0111
  133MOL0     C18227   1.846   5.752  10.039 -0.1577  0.0707  0.5200
  133MOL0     C18228   1.953   5.642  10.088  0.0479  0.3780  0.0206
  133MOL0     C18229   2.066   5.605   9.991  0.2523  1.2143  0.5965
  133MOL0     C18230   2.027   5.519   9.875 -0.6984 -1.0078 -0.0668
  133MOL0     C18231   2.149   5.524   9.771 -0.0089 -0.2583 -0.2470
  133MOL0     C18232   2.274   5.466   9.824 -0.1707  1.2024  0.3634
  133MOL0     N18233   2.390   5.480   9.730  0.1758 -0.1253 -0.2343
  133MOL0     C18234   2.412   5.417   9.622 -0.6488 -0.6627 -0.0952
  133MOL0     C18235   2.543   5.454   9.596 -0.4290 -0.7181  0.2622
  133MOL0     C18236   2.608   5.388   9.474 -0.1833  0.3514  0.3604
  133MOL0     C18237   2.704   5.293   9.528  0.3704 -0.6333  0.0500
  133MOL0     C18238   2.780   5.226   9.421 -0.0350 -0.9313 -0.0826
  133MOL0     C18239   2.884   5.319   9.355 -0.6606 -0.2157  0.3805
  133MOL0     O18240   2.996   5.324   9.447  0.3419  0.2567 -0.7215
  133MOL0     C18241   3.055   5.446   9.479  1.1830  0.0709 -0.3304
  133MOL0     C18242   3.064   5.558   9.396  0.2209 -0.7404  0.7896
  133MOL0     C18243   3.118   5.683   9.424 -0.4521 -0.2893  0.4254
  133MOL0     C18244   3.122   5.781   9.306 -0.3297 -0.1119 -0.2429
  133MOL0     C18245   3.163   5.697   9.559 -0.5145 -0.5969  0.7314
  133MOL0     C18246   3.218   5.823   9.609 -0.3150  0.0758  1.4277
  133MOL0     O18247   3.255   5.815   9.744  0.5803 -0.8032  0.0384
  133MOL0     C18248   3.301   5.932   9.798 -0.4595 -0.1062 -1.1147
  133MOL0     C18249   3.439   5.933   9.827 -0.0202 -0.9372  0.9151
  133MOL0     C18250   3.505   6.043   9.886  0.0836  0.2097  0.4780
  133MOL0     C18251   3.430   6.159   9.923 -0.1190  0.0054 -0.7772
  133MOL0     O18252   3.475   6.254  10.011 -0.1207  0.1852 -0.1774
  133MOL0     C18253   3.483   6.385   9.957 -0.6694  0.2653 -0.4075
  133MOL0     C18254   3.571   6.464  10.060  0.1057 -0.2293  0.2568
  133MOL0     C18255   3.604   6.613  10.010 -0.2058 -0.0545 -0.2451
  133MOL0     C18256   3.703   6.687  10.099 -0.2850  0.0917  0.1364
  133MOL0     C18257   3.747   6.824  10.047 -0.6737  0.4375  0.4896
  133MOL0     C18258   3.874   6.869  10.112  0.4300  0.2827  0.2051
  133MOL0     C18259   3.862   6.967  10.234  0.8496  0.7318 -0.5183
  133MOL0     C18260   3.973   7.049  10.283 -0.6634  0.1362  0.0582
  133MOL0    Cl18261   4.116   6.948  10.313 -0.4839 -0.0432 -0.3077
  133MOL0     C18262   3.295   6.154   9.892  0.0041  0.0902 -0.4162
  133MOL0     C18263   3.224   6.042   9.830 -1.6505  0.0468 -0.8275
  133MOL0     O18264   3.219   5.924   9.538 -0.0077 -1.0377 -0.3882
  133MOL0     C18265   3.152   5.591   9.649  0.1522  0.2994  0.0743
  133MOL0     C18266   3.096   5.464   9.612  0.8707 -0.6610  0.0624
  133MOL0     N18267   2.591   5.549   9.687 -0.5590 -0.6661  0.3601
  133MOL0     N18268   2.499   5.559   9.766  0.3472  0.0310  0.4136
  133MOL0     C18269   1.392   6.000  10.040  0.7452  0.8009 -0.3998
  133MOL0     C18270   1.264   6.037  10.011  0.0728  0.1896  0.2881
  133MOL0     C18271   0.807   5.991   9.941 -1.3619  0.0355  0.0171
  133MOL0     C18272   0.709   5.904   9.942 -0.7873 -0.1343  0.0982
  133MOL0     C18273   0.580   5.939   9.902  0.0756 -0.5372  0.0014
  133MOL0     C18274   0.552   6.068   9.838 -0.2052  0.6626 -0.2593
  133MOL0     O18275   0.428   6.111   9.800  0.3316  0.4738 -0.2897
  133MOL0     C18276   0.318   6.021   9.797  0.2580  0.5784  0.0479
  133MOL0     C18277   0.190   6.101   9.760  0.3394  0.4097  0.5571
  133MOL0     C18278   0.070   6.029   9.715  0.9039  0.2730 -0.2880
  133MOL0     C18279   0.082   5.934   9.597  0.8230 -0.0258  0.3104
  133MOL0     C18280   0.133   5.804   9.627  0.0958 -0.2057 -0.1498
  133MOL0     C18281   0.157   5.693   9.657  0.2419  0.9379 -0.1743
  133MOL0     C18282   0.661   6.153   9.835 -0.7041 -0.2315 -0.1300
  133MOL0     C18283   0.787   6.121   9.881  0.2127 -0.2744  0.4251
  133MOL0     C18284   0.892   6.222   9.891  0.0433  0.7595 -0.8664
  133MOL0     H18285   1.154   5.729   9.894 -3.4079  1.7071 -0.8225
  133MOL0     H18286   1.385   5.675   9.925  0.1066  1.3088 -2.7164
  133MOL0     H18287   1.611   5.935  10.192 -0.3232 -1.1765 -0.3925
  133MOL0     H18288   1.711   5.965  10.049  1.6279 -0.7983 -0.6785
  133MOL0     H18289   1.810   5.803  10.235 -0.2700  2.2453 -0.4068
  133MOL0     H18290   1.702   5.676  10.179 -0.1988  0.1116 -0.5209
  133MOL0     H18291   1.802   5.717   9.945 -0.1736  0.6313  0.3077
  133MOL0     H18292   1.893   5.851  10.029 -2.0355  1.3862  3.3490
  133MOL0     H18293   2.001   5.675  10.181  0.2658 -2.0286  0.8102
  133MOL0     H18294   1.891   5.559  10.122  1.3021 -1.5092 -2.0996
  133MOL0     H18295   2.141   5.542  10.041 -0.5413 -0.7587 -0.5878
  133MOL0     H18296   2.116   5.692   9.947  4.5588 -1.1945  0.2153
  133MOL0     H18297   2.001   5.419   9.908 -1.0245 -0.4917  1.2881
  133MOL0     H18298   1.938   5.573   9.841  1.2312  1.5987 -1.4358
  133MOL0     H18299   2.177   5.626   9.744  3.1606 -0.4607  1.7160
  133MOL0     H18300   2.111   5.476   9.680 -1.2092  1.5686 -0.7540
  133MOL0     H18301   2.303   5.518   9.916  3.6945  1.5727 -0.9110
  133MOL0     H18302   2.248   5.362   9.847 -2.1444  1.7399  0.8001
  133MOL0     H18303   2.348   5.342   9.577 -1.7248  2.0212 -3.4868
  133MOL0     H18304   2.657   5.467   9.417  1.5016 -1.3922 -0.7512
  133MOL0     H18305   2.544   5.332   9.405  0.0955 -3.0658  2.6072
  133MOL0     H18306   2.768   5.364   9.580 -0.6795  0.9316 -0.6844
  133MOL0     H18307   2.658   5.221   9.596  1.4081  1.0239  2.6390
  133MOL0     H18308   2.842   5.143   9.456 -0.7250 -1.1934  0.5654
  133MOL0     H18309   2.723   5.169   9.348 -1.1287 -1.8998  1.4600
  133MOL0     H18310   2.916   5.271   9.262 -1.7120 -1.7302  0.7714
  133MOL0     H18311   2.848   5.416   9.320  1.1615 -0.1552 -1.5103
  133MOL0     H18312   3.028   5.543   9.295 -0.2180  2.3261  0.4066
  133MOL0     H18313   3.071   5.872   9.338 -1.8097 -0.3215 -1.8276
  133MOL0     H18314   3.080   5.735   9.216  2.2159  1.3365 -2.3064
  133MOL0     H18315   3.226   5.811   9.291 -0.4067  1.1146  1.4598
  133MOL0     H18316   3.487   5.838   9.809  1.8788 -0.2713  2.1143
  133MOL0     H18317   3.603   6.030   9.930 -0.8322 -0.3513  2.4790
  133MOL0     H18318   3.541   6.381   9.864 -0.9159 -0.9218 -0.5339
  133MOL0     H18319   3.387   6.433   9.936 -1.7292 -1.6986 -0.3433
  133MOL0     H18320   3.521   6.482  10.155 -0.7260  1.0501 -0.3928
  133MOL0     H18321   3.654   6.399  10.089  1.7637  1.4776 -0.4879
  133MOL0     H18322   3.515   6.678  10.013  1.2413  1.9997  0.8473
  133MOL0     H18323   3.644   6.615   9.909  1.4100 -0.1023  0.3658
  133MOL0     H18324   3.788   6.622  10.120 -1.8983 -1.1265  3.7849
  133MOL0     H18325   3.667   6.708  10.201 -2.6823 -2.1653 -0.1295
  133MOL0     H18326   3.770   6.806   9.941  2.0890  0.1465  1.0647
  133MOL0     H18327   3.670   6.901  10.051  1.4844  2.6847  0.9355
  133MOL0     H18328   3.922   6.935  10.039  0.3656  2.2452  1.8598
  133MOL0     H18329   3.935   6.780  10.127 -0.9205 -0.9807 -1.3452
  133MOL0     H18330   3.826   6.907  10.318  1.2712 -1.1087 -1.5902
  133MOL0     H18331   3.777   7.034  10.218 -0.2935 -0.7732 -1.0000
  133MOL0     H18332   3.939   7.086  10.381 -2.0903 -1.0105  0.0293
  133MOL0     H18333   4.001   7.138  10.226 -3.6797  2.0043  1.2124
  133MOL0     H18334   3.226   6.230   9.928  0.4242 -0.1601  0.9873
  133MOL0     H18335   3.116   6.050   9.817 -1.9365 -0.1859  1.1389
  133MOL0     H18336   3.186   5.593   9.752  2.1245 -0.6106 -0.5239
  133MOL0     H18337   3.079   5.393   9.692 -0.6722  1.3296  1.5785
  133MOL0     H18338   1.457   6.080  10.075  1.1112 -1.2635  4.3677
  133MOL0     H18339   1.231   6.140  10.020 -1.9040 -0.3240 -0.5056
  133MOL0     H18340   0.721   5.806   9.987 -1.1114 -1.4840 -2.5670
  133MOL0     H18341   0.500   5.866   9.913 -0.1495 -0.5333 -1.4260
  133MOL0     H18342   0.339   5.942   9.724 -1.1238 -2.4151  2.6294
  133MOL0     H18343   0.289   5.971   9.890  0.1136  0.4612 -0.0596
  133MOL0     H18344   0.227   6.158   9.674 -2.5578 -2.6801 -3.1245
  133MOL0     H18345   0.155   6.166   9.841 -0.4567 -0.1030  0.6317
  133MOL0     H18346   0.022   5.979   9.799  3.0711 -2.4887 -0.5679
  133MOL0     H18347   0.005   6.111   9.681 -0.6688 -0.5800  0.5844
  133MOL0     H18348   0.139   5.981   9.515  0.3569 -3.0819 -1.9358
  133MOL0     H18349  -0.020   5.906   9.571  0.5219  1.0467  0.3037
  133MOL0     H18350   0.191   5.594   9.678  0.4898  1.0919  0.1617
  133MOL0     H18351   0.641   6.249   9.788  1.8018  0.7044  0.5388
  133MOL0     H18352   0.977   6.204   9.825  2.9350 -2.4509  3.2087
  133MOL0     H18353   0.848   6.322   9.879  1.3509  1.8992  2.4768
  133MOL0     H18354   0.936   6.233   9.991  0.1306 -2.4259 -0.4680
  134MOL0     O18355   7.698   0.903   4.342 -0.5785 -1.0276 -0.1851
  134MOL0     C18356   7.663   0.974   4.435  0.3047  0.1484 -0.3769
  134MOL0     O18357   7.747   1.038   4.521  0.2161 -0.2864  0.3963
  134MOL0     C18358   7.874   1.056   4.473 -0.2860 -0.5498 -0.9613
  134MOL0     C18359   7.974   1.040   4.575  0.9384  0.5655  0.3503
  134MOL0     C18360   8.113   1.032   4.549  0.2009  0.2902  0.4816
  134MOL0     C18361   8.160   1.036   4.415 -0.3887  0.7294 -0.0932
  134MOL0     O18362   8.292   1.033   4.402 -0.2388 -0.7844  0.5111
  134MOL0     C18363   8.341   1.002   4.271 -0.1548 -0.3153 -0.2287
  134MOL0     C18364   8.497   0.997   4.276  0.2937  0.8990 -0.0922
  134MOL0     C18365   8.533   1.136   4.229  0.4363 -0.8752  0.2029
  134MOL0     C18366   8.689   1.168   4.250 -0.3162 -0.0292 -0.1343
  134MOL0     C18367   8.727   1.307   4.196 -0.1186 -0.5194  0.5961
  134MOL0     C18368   8.870   1.361   4.240 -0.1697 -0.7494  0.4229
  134MOL0     C18369   8.981   1.286   4.159 -0.0740  0.2655 -0.1541
  134MOL0     C18370   9.121   1.324   4.194  0.2378  0.5109 -0.2425
  134MOL0     N18371   9.170   1.247   4.305  0.2419  0.5951 -0.3203
  134MOL0     C18372   9.152   1.284   4.437 -0.4038 -0.4306  0.1833
  134MOL0     C18373   9.237   1.207   4.508 -0.0423  0.4214  0.1389
  134MOL0     C18374   9.256   1.203   4.656 -0.5758 -0.5792  0.1237
  134MOL0     C18375   9.404   1.209   4.694 -0.3505 -0.5026  0.0814
  134MOL0     C18376   9.425   1.242   4.842 -1.1204 -0.7268 -1.3153
  134MOL0     C18377   9.576   1.263   4.869  0.0558 -1.2454  0.2086
  134MOL0     O18378   9.583   1.245   5.014  0.1616  0.1704 -0.2748
  134MOL0     C18379   9.702   1.258   5.071 -0.1901 -0.0764 -0.6603
  134MOL0     C18380   9.722   1.211   5.202 -0.4012 -0.1423  0.1190
  134MOL0     C18381   9.854   1.219   5.267 -0.3251  0.1886 -0.1077
  134MOL0     C18382   9.863   1.166   5.406  0.8288 -0.3235 -0.5509
  134MOL0     C18383   9.948   1.311   5.209 -0.2777 -0.4808  0.9939
  134MOL0     C18384  10.078   1.333   5.265 -0.0187  0.9586  0.2932
  134MOL0     O18385  10.131   1.454   5.244  0.4849 -1.6515 -0.9686
  134MOL0     C18386  10.263   1.485   5.268  0.2046  0.6567 -0.2159
  134MOL0     C18387  10.334   1.469   5.377 -0.0068  0.1050 -0.3303
  134MOL0     C18388  10.469   1.511   5.387 -0.3340 -1.1272  0.2349
  134MOL0     C18389  10.530   1.569   5.280  0.5921  0.9001 -0.0621
  134MOL0     O18390  10.653   1.622   5.299  0.3727 -0.2465  0.0722
  134MOL0     C18391  10.741   1.622   5.189 -0.6312  0.3723 -0.6343
  134MOL0     C18392  10.884   1.675   5.220  0.4469 -0.5353 -0.5220
  134MOL0     C18393  10.890   1.822   5.265 -0.7098  0.2207 -0.3856
  134MOL0     C18394  10.884   1.918   5.148 -0.4240  0.2998  0.5040
  134MOL0     C18395  10.889   2.065   5.189 -0.4733 -0.6675  0.4431
  134MOL0     C18396  10.843   2.159   5.077  0.1666  0.4753 -0.5689
  134MOL0     C18397  10.871   2.312   5.107 -0.0520 -0.0058 -0.3095
  134MOL0     C18398  10.961   2.366   4.999 -0.6101  0.6410 -0.3442
  134MOL0    Cl18399  10.879   2.366   4.839 -0.2683  0.0166 -0.0242
  134MOL0     C18400  10.460   1.574   5.157  0.3434 -0.7643 -0.1840
  134MOL0     C18401  10.323   1.529   5.150 -0.0657  0.2009  0.2803
  134MOL0     O18402  10.142   1.240   5.325 -0.5174 -0.3787 -0.1394
  134MOL0     C18403   9.916   1.368   5.081 -0.9671 -0.1221 -0.3545
  134MOL0     C18404   9.804   1.332   5.006 -0.3266  0.0212 -0.4551
  134MOL0     N18405   9.299   1.118   4.421 -0.4956 -0.5472  0.0951
  134MOL0     N18406   9.255   1.143   4.305 -0.0396  0.0679 -0.2055
  134MOL0     C18407   8.063   1.072   4.314  0.2335  0.0058  0.1369
  134MOL0     C18408   7.927   1.085   4.346  0.2346 -0.5598 -0.4145
  134MOL0     C18409   7.514   0.986   4.459 -0.4147  0.8102 -0.4837
  134MOL0     C18410   7.479   1.087   4.543  0.3761  0.5545 -0.3290
  134MOL0     C18411   7.344   1.111   4.572  0.6058 -0.6333  0.1077
  134MOL0     C18412   7.240   1.038   4.518  0.0104 -0.1015 -0.5878
  134MOL0     O18413   7.114   1.075   4.568  0.4748 -0.3035  0.1411
  134MOL0     C18414   7.000   1.024   4.497 -0.2342 -0.6373 -0.0469
  134MOL0     C18415   6.885   1.113   4.490 -0.4916 -0.7724 -0.0547
  134MOL0     C18416   6.846   1.167   4.633  0.4338 -0.3063 -0.1590
  134MOL0     C18417   6.750   1.278   4.648  0.6596  0.4593 -0.2158
  134MOL0     C18418   6.771   1.361   4.767  0.2446 -0.3873  0.5935
  134MOL0     C18419   6.791   1.433   4.860 -0.5138  1.2929 -0.0721
  134MOL0     C18420   7.277   0.925   4.443  0.0442  0.2616  0.0399
  134MOL0     C18421   7.411   0.906   4.404  0.2545  0.1893  1.0605
  134MOL0     C18422   7.440   0.788   4.306  0.0794  0.8797  1.2520
  134MOL0     H18423   7.949   1.037   4.680  1.0041  0.4698  0.3634
  134MOL0     H18424   8.185   1.029   4.630 -0.7480 -1.1838  1.2935
  134MOL0     H18425   8.311   1.073   4.193 -0.3179 -1.6432 -1.4137
  134MOL0     H18426   8.299   0.905   4.243 -1.1609 -1.1577  3.6520
  134MOL0     H18427   8.520   0.969   4.379 -3.5484 -0.6200  0.5049
  134MOL0     H18428   8.538   0.916   4.215 -2.4735 -1.4401  0.8940
  134MOL0     H18429   8.506   1.145   4.124 -0.7978  0.8951  0.6273
  134MOL0     H18430   8.491   1.218   4.288 -0.0685 -0.3738 -0.8249
  134MOL0     H18431   8.716   1.161   4.356  2.2284  4.2872 -0.2394
  134MOL0     H18432   8.742   1.089   4.196 -0.5761 -1.8976  2.1811
  134MOL0     H18433   8.662   1.385   4.237  0.9877 -0.9342  3.3346
  134MOL0     H18434   8.704   1.301   4.089 -2.7890 -0.8081  1.1263
  134MOL0     H18435   8.876   1.467   4.214 -1.1189 -0.6610  0.5383
  134MOL0     H18436   8.872   1.363   4.349 -1.7957  4.5964  0.6428
  134MOL0     H18437   8.963   1.284   4.051  0.6762 -1.7360 -0.2949
  134MOL0     H18438   8.973   1.180   4.187 -0.7871  0.8011  1.8924
  134MOL0     H18439   9.190   1.307   4.111  2.5704 -0.4312  1.7650
  134MOL0     H18440   9.125   1.428   4.228  1.3518  0.5941 -0.5947
  134MOL0     H18441   9.092   1.368   4.470  3.0822  1.6397  1.7939
  134MOL0     H18442   9.193   1.130   4.709 -1.5382  0.7731  0.9228
  134MOL0     H18443   9.203   1.292   4.692 -0.7804 -0.6925  0.1052
  134MOL0     H18444   9.459   1.115   4.680  2.4167  0.6276  2.3539
  134MOL0     H18445   9.445   1.281   4.623 -0.8474  0.2282  0.5276
  134MOL0     H18446   9.377   1.335   4.873  0.8409 -0.7774  2.4775
  134MOL0     H18447   9.378   1.165   4.903  1.1650 -0.5548  0.8203
  134MOL0     H18448   9.654   1.208   4.815 -0.7888 -1.0411 -1.2693
  134MOL0     H18449   9.604   1.368   4.858 -0.2286 -1.0417  1.2902
  134MOL0     H18450   9.644   1.159   5.256 -0.5667  0.9291  0.9446
  134MOL0     H18451   9.904   1.250   5.463  2.7233 -1.8947  0.5586
  134MOL0     H18452   9.938   1.087   5.416 -0.7735 -1.8854 -0.3617
  134MOL0     H18453   9.767   1.130   5.444  0.2199  0.5318 -1.2216
  134MOL0     H18454  10.287   1.436   5.469 -0.2100  1.8162  0.2156
  134MOL0     H18455  10.515   1.491   5.483  0.0038 -1.2618  0.0467
  134MOL0     H18456  10.752   1.519   5.155  0.3325 -1.1145  3.5513
  134MOL0     H18457  10.690   1.685   5.115 -0.8136  0.7622 -0.1862
  134MOL0     H18458  10.935   1.622   5.301 -0.1624  2.9545  2.4277
  134MOL0     H18459  10.947   1.661   5.131  0.7554  3.0061 -1.0352
  134MOL0     H18460  10.988   1.838   5.310 -1.4366  0.5470  1.1351
  134MOL0     H18461  10.816   1.862   5.334 -1.7367 -0.9474 -0.7781
  134MOL0     H18462  10.798   1.892   5.086  0.8163 -1.4005 -0.6041
  134MOL0     H18463  10.973   1.898   5.087 -1.4277 -0.4157 -0.7679
  134MOL0     H18464  10.821   2.086   5.272 -1.4069  4.0336 -1.1533
  134MOL0     H18465  10.991   2.090   5.219  0.1043 -1.9953 -0.3342
  134MOL0     H18466  10.735   2.141   5.073  0.2079  0.2884 -0.8235
  134MOL0     H18467  10.890   2.124   4.985  2.1460  0.8562  0.2292
  134MOL0     H18468  10.913   2.317   5.208 -1.6407  2.1787  0.3136
  134MOL0     H18469  10.773   2.361   5.109  0.0984  0.3456  2.1680
  134MOL0     H18470  11.048   2.301   4.985 -0.4911  1.0240 -1.4685
  134MOL0     H18471  10.999   2.467   5.021  1.2440  0.3553 -1.9465
  134MOL0     H18472  10.501   1.629   5.073  1.1487  1.2626  1.4735
  134MOL0     H18473  10.264   1.528   5.059 -1.3298 -1.7376  1.0587
  134MOL0     H18474   9.991   1.437   5.043  1.1503 -0.8494  2.1986
  134MOL0     H18475   9.799   1.382   4.910 -0.1631 -2.2453 -1.7194
  134MOL0     H18476   8.088   1.094   4.211 -1.1393  0.3409 -0.1424
  134MOL0     H18477   7.854   1.102   4.267 -0.4293 -1.3091  0.0103
  134MOL0     H18478   7.546   1.156   4.593 -0.4279  0.6721  0.6246
  134MOL0     H18479   7.312   1.182   4.649 -1.8278 -2.0171  0.4784
  134MOL0     H18480   7.027   1.003   4.393  0.1878 -1.6708  0.2586
  134MOL0     H18481   6.972   0.933   4.550 -0.0541 -0.6210  0.0761
  134MOL0     H18482   6.795   1.063   4.455  0.0139 -0.3517 -2.1233
  134MOL0     H18483   6.902   1.197   4.422  0.1216 -0.5344  0.3847
  134MOL0     H18484   6.802   1.081   4.684  1.3317 -1.4347 -1.2109
  134MOL0     H18485   6.933   1.191   4.695 -1.7299  3.1494  1.8361
  134MOL0     H18486   6.649   1.235   4.649 -0.4023  2.7432 -1.3595
  134MOL0     H18487   6.778   1.351   4.571  4.1169  1.7016  1.9797
  134MOL0     H18488   6.816   1.500   4.940 -3.8177  0.9959  1.3827
  134MOL0     H18489   7.199   0.855   4.416 -1.7751  2.1731  0.0741
  134MOL0     H18490   7.372   0.704   4.318  3.5874 -2.6523 -1.2821
  134MOL0     H18491   7.442   0.820   4.202  1.6808 -1.6834  0.4047
  134MOL0     H18492   7.535   0.741   4.333  0.4670  0.9056  0.0162
  135MOL0     O18493   4.525   7.517   8.062 -0.0163 -0.7229 -0.3278
  135MOL0     C18494   4.599   7.613   8.079  0.3999 -0.2440  0.1246
  135MOL0     O18495   4.703   7.626   8.161 -1.0361 -0.2776 -0.5612
  135MOL0     C18496   4.742   7.511   8.226  0.0698 -0.2832  0.1246
  135MOL0     C18497   4.697   7.493   8.354  0.4073  0.2548 -0.7587
  135MOL0     C18498   4.738   7.371   8.414 -0.2151 -1.1343 -0.3314
  135MOL0     C18499   4.812   7.277   8.342 -0.4558  0.2744  0.1221
  135MOL0     O18500   4.862   7.176   8.414 -0.2463  0.0925 -0.1843
  135MOL0     C18501   4.799   7.048   8.397  0.2454  0.0408 -0.6066
  135MOL0     C18502   4.911   6.946   8.396 -0.1971 -0.5425 -0.2763
  135MOL0     C18503   4.967   6.930   8.255  0.6394  0.6084 -0.0944
  135MOL0     C18504   5.040   6.795   8.253 -0.3668 -0.9676  0.0244
  135MOL0     C18505   5.096   6.768   8.111 -0.1187 -0.0771  0.7386
  135MOL0     C18506   5.227   6.858   8.072 -0.1266  0.1251 -0.0898
  135MOL0     C18507   5.254   6.850   7.927 -0.1196 -0.2744  0.3339
  135MOL0     C18508   5.363   6.955   7.875  0.3531  0.3735 -0.1887
  135MOL0     N18509   5.320   7.085   7.933 -0.1940  0.1847  0.3998
  135MOL0     C18510   5.229   7.176   7.892  0.3757 -0.3693  0.4915
  135MOL0     C18511   5.251   7.286   7.965 -0.3389 -0.4886  0.6252
  135MOL0     C18512   5.184   7.425   7.973 -0.3340  0.2341  0.0340
  135MOL0     C18513   5.283   7.535   7.921 -0.0990  0.1915  0.4217
  135MOL0     C18514   5.380   7.595   8.024  0.4312 -0.3329 -1.0359
  135MOL0     C18515   5.460   7.710   7.972 -0.1976  0.2288  0.5351
  135MOL0     O18516   5.372   7.816   7.927  0.0033  0.1935 -0.3719
  135MOL0     C18517   5.332   7.908   8.017  0.5423 -0.2761  1.2809
  135MOL0     C18518   5.276   8.028   7.971 -0.0546 -0.4211 -0.5708
  135MOL0     C18519   5.246   8.141   8.052 -0.1760  0.5744 -0.1718
  135MOL0     C18520   5.184   8.259   7.994  0.7130  0.6992 -0.3403
  135MOL0     C18521   5.263   8.127   8.188 -0.5121  0.0380  0.2201
  135MOL0     C18522   5.236   8.238   8.289  0.0725 -0.1790  0.2854
  135MOL0     O18523   5.338   8.311   8.335 -0.2708  0.1526 -0.2390
  135MOL0     C18524   5.461   8.303   8.274 -0.5259 -0.1492 -0.7695
  135MOL0     C18525   5.494   8.394   8.177  0.0588 -0.0005  1.0763
  135MOL0     C18526   5.622   8.405   8.126  0.5622  0.1283  0.4409
  135MOL0     C18527   5.716   8.304   8.162  0.4558  0.4118  0.3617
  135MOL0     O18528   5.848   8.294   8.114  0.3252 -0.1839  0.4531
  135MOL0     C18529   5.902   8.410   8.051 -0.1220  0.2352 -0.4046
  135MOL0     C18530   6.056   8.397   8.032  0.3716  0.3857  0.1624
  135MOL0     C18531   6.133   8.419   8.164  0.4601  1.2646  0.1873
  135MOL0     C18532   6.289   8.390   8.164 -0.5408 -0.0622 -0.2476
  135MOL0     C18533   6.365   8.469   8.270  0.0165  0.2552  0.5116
  135MOL0     C18534   6.298   8.465   8.414 -0.1080  0.5446  0.0441
  135MOL0     C18535   6.395   8.521   8.524  0.2927 -0.5560  0.4486
  135MOL0     C18536   6.306   8.555   8.653 -0.2176  0.6240  0.4388
  135MOL0    Cl18537   6.238   8.400   8.726 -0.2308  0.0103 -0.1570
  135MOL0     C18538   5.683   8.213   8.256 -0.1648  1.4561 -0.2512
  135MOL0     C18539   5.563   8.218   8.324  0.7465  0.4606 -0.6507
  135MOL0     O18540   5.121   8.247   8.328  0.1314 -0.6124 -0.1095
  135MOL0     C18541   5.317   8.006   8.239 -0.1258  0.4455 -0.5519
  135MOL0     C18542   5.349   7.902   8.155  0.5790  0.1077 -0.1099
  135MOL0     N18543   5.353   7.263   8.055  0.0481 -0.3354  0.4209
  135MOL0     N18544   5.387   7.139   8.044  0.8455 -0.4106  0.0536
  135MOL0     C18545   4.848   7.300   8.215  0.3712  0.2020  0.3605
  135MOL0     C18546   4.816   7.420   8.155 -0.6907  0.6323  0.4785
  135MOL0     C18547   4.565   7.742   8.022 -0.6378  0.4191  0.2526
  135MOL0     C18548   4.667   7.835   7.994  0.6912 -0.3012 -0.3040
  135MOL0     C18549   4.641   7.961   7.937  0.3192 -0.3068 -0.0051
  135MOL0     C18550   4.514   8.005   7.908 -0.4164  0.5808 -0.4803
  135MOL0     O18551   4.502   8.134   7.856  0.2930  0.7742 -0.2125
  135MOL0     C18552   4.373   8.170   7.814  0.4490  0.0248  0.3851
  135MOL0     C18553   4.337   8.124   7.676  0.2655  0.7994 -0.4889
  135MOL0     C18554   4.430   8.165   7.564 -0.5244  0.3142  0.3168
  135MOL0     C18555   4.573   8.098   7.560 -0.8521 -0.7964  0.5370
  135MOL0     C18556   4.659   8.153   7.450  0.6538  0.1392  0.3417
  135MOL0     C18557   4.717   8.209   7.359  0.2729  0.4994 -0.9663
  135MOL0     C18558   4.410   7.908   7.936 -0.3568 -0.3417 -0.3277
  135MOL0     C18559   4.435   7.782   7.986  1.1696 -0.7106 -0.5517
  135MOL0     C18560   4.317   7.696   8.010 -0.7709 -0.0700  1.3468
  135MOL0     H18561   4.628   7.563   8.400 -1.2174 -0.7336 -1.5645
  135MOL0     H18562   4.716   7.358   8.519 -1.6560 -0.3736 -0.5056
  135MOL0     H18563   4.741   7.040   8.305  1.3280 -0.0860 -1.2905
  135MOL0     H18564   4.740   7.030   8.487  0.1063  0.3731 -0.6284
  135MOL0     H18565   4.994   6.944   8.468  1.1989 -2.9803 -1.8111
  135MOL0     H18566   4.864   6.851   8.423 -1.4476  0.4326  1.1577
  135MOL0     H18567   4.892   6.908   8.179  0.6617  1.6976 -0.4482
  135MOL0     H18568   5.038   7.007   8.224  0.8786  0.1896 -0.5979
  135MOL0     H18569   5.133   6.804   8.310  0.1029  0.0098 -0.8505
  135MOL0     H18570   4.980   6.712   8.292 -1.9842  1.5265  3.2947
  135MOL0     H18571   5.022   6.777   8.031 -0.0558 -1.5389  0.5052
  135MOL0     H18572   5.128   6.664   8.106  1.6150  0.4338 -4.2857
  135MOL0     H18573   5.202   6.961   8.100 -2.7076 -0.9714  2.1288
  135MOL0     H18574   5.313   6.829   8.132 -1.2765  0.8671  2.0560
  135MOL0     H18575   5.160   6.859   7.872 -0.6868 -2.8134  0.7466
  135MOL0     H18576   5.303   6.756   7.899  0.7612  0.6995 -1.6286
  135MOL0     H18577   5.460   6.927   7.919  0.1061  1.2235  0.9373
  135MOL0     H18578   5.374   6.973   7.768 -1.8760  1.7504 -0.2297
  135MOL0     H18579   5.163   7.166   7.806  2.3772  0.0987 -1.1925
  135MOL0     H18580   5.142   7.441   8.073 -2.3651  0.1481 -0.7794
  135MOL0     H18581   5.104   7.426   7.899  0.3819 -1.1175 -0.7972
  135MOL0     H18582   5.349   7.497   7.842  0.5838  1.7264  0.2265
  135MOL0     H18583   5.222   7.612   7.872  3.4957  2.2569 -1.2167
  135MOL0     H18584   5.317   7.625   8.108  0.2220 -3.3899  0.0103
  135MOL0     H18585   5.455   7.519   8.046  1.5550  0.3015 -2.5039
  135MOL0     H18586   5.532   7.743   8.047  2.2388 -2.9117 -0.1616
  135MOL0     H18587   5.509   7.671   7.882 -2.0143  1.4974 -1.0659
  135MOL0     H18588   5.249   8.058   7.871 -1.0636  6.0685  1.2288
  135MOL0     H18589   5.266   8.299   7.934  0.2275 -2.3198 -3.3313
  135MOL0     H18590   5.138   8.328   8.065 -4.7458 -1.9725 -0.7018
  135MOL0     H18591   5.110   8.229   7.918  2.7481 -0.7063 -1.8794
  135MOL0     H18592   5.418   8.464   8.143  0.5279  0.3020  0.6329
  135MOL0     H18593   5.640   8.475   8.046 -3.1765  1.3466  0.4800
  135MOL0     H18594   5.848   8.422   7.956  1.6407  0.8634 -1.3746
  135MOL0     H18595   5.875   8.500   8.107  2.8475 -0.0020  1.6325
  135MOL0     H18596   6.074   8.300   7.986 -0.5335  0.4029 -0.2458
  135MOL0     H18597   6.087   8.472   7.959  1.9170 -0.9955 -0.6675
  135MOL0     H18598   6.089   8.352   8.238 -1.3887 -0.3724 -2.2534
  135MOL0     H18599   6.121   8.523   8.196  1.4553  1.8568 -1.2562
  135MOL0     H18600   6.323   8.418   8.064 -1.8914  3.5987  0.1813
  135MOL0     H18601   6.299   8.281   8.178 -0.5593 -0.1200 -0.6764
  135MOL0     H18602   6.474   8.455   8.274  0.1624 -0.9808 -3.5457
  135MOL0     H18603   6.348   8.571   8.235 -4.5431 -0.3716  0.2997
  135MOL0     H18604   6.277   8.359   8.434 -2.6385  0.5849 -1.8927
  135MOL0     H18605   6.202   8.517   8.409 -0.5731 -0.0673  1.8624
  135MOL0     H18606   6.437   8.612   8.480  0.6121 -1.5830 -1.4483
  135MOL0     H18607   6.477   8.452   8.545 -0.1569 -2.2325 -2.6985
  135MOL0     H18608   6.217   8.612   8.628 -0.5977 -0.0651  0.1939
  135MOL0     H18609   6.362   8.612   8.727 -1.5771  1.5581  0.7713
  135MOL0     H18610   5.760   8.147   8.294 -1.0154 -0.9048 -2.3371
  135MOL0     H18611   5.549   8.157   8.413 -0.8943 -0.7678 -1.6800
  135MOL0     H18612   5.327   7.994   8.346  3.4257  1.0410 -0.6886
  135MOL0     H18613   5.389   7.813   8.200  2.7329  1.4502  0.8056
  135MOL0     H18614   4.925   7.235   8.177  1.0184  0.6348  0.9142
  135MOL0     H18615   4.850   7.448   8.056 -2.9189  2.3287  0.1205
  135MOL0     H18616   4.771   7.815   8.015  0.9947  0.0555 -1.4313
  135MOL0     H18617   4.724   8.029   7.920 -0.0727  1.1795  3.3640
  135MOL0     H18618   4.293   8.145   7.885  0.0623 -0.8653 -0.3352
  135MOL0     H18619   4.382   8.279   7.818  1.7810 -0.0658  0.0782
  135MOL0     H18620   4.237   8.163   7.657  0.4973  1.1644 -0.9618
  135MOL0     H18621   4.334   8.015   7.679  1.3876  0.6332 -3.0401
  135MOL0     H18622   4.386   8.136   7.468 -0.2472 -1.1431  0.6154
  135MOL0     H18623   4.433   8.274   7.572  0.4176  0.1798  2.3959
  135MOL0     H18624   4.561   7.992   7.538 -0.5521 -0.9861  1.2708
  135MOL0     H18625   4.636   8.107   7.649  0.5895  0.0538 -0.5168
  135MOL0     H18626   4.752   8.267   7.275 -2.0677  1.3777 -1.4254
  135MOL0     H18627   4.310   7.941   7.911 -0.8318 -1.7312 -0.3370
  135MOL0     H18628   4.319   7.624   7.928  0.7073  1.3945  0.0216
  135MOL0     H18629   4.302   7.655   8.110 -0.6553 -0.7124  1.1119
  135MOL0     H18630   4.230   7.758   7.990  1.7598  3.2199 -0.5667
  136MOL0     O18631   8.671   8.853   0.467 -0.2743 -0.2369  0.0286
  136MOL0     C18632   8.725   8.945   0.528 -0.5857  0.3344  0.8463
  136MOL0     O18633   8.861   8.953   0.533  0.2595  0.3711  0.0605
  136MOL0     C18634   8.929   8.844   0.480 -1.1750  0.7021 -1.0419
  136MOL0     C18635   9.018   8.774   0.567 -0.4045  0.3597 -0.3926
  136MOL0     C18636   9.101   8.669   0.522 -0.1561 -0.3471  0.1235
  136MOL0     C18637   9.099   8.633   0.383  0.3610  0.0540  0.5549
  136MOL0     O18638   9.179   8.530   0.340 -0.1321 -0.0389 -0.4494
  136MOL0     C18639   9.203   8.511   0.195 -0.2155  0.3844  0.9625
  136MOL0     C18640   9.304   8.408   0.189  0.4628  0.1847  0.4191
  136MOL0     C18641   9.377   8.406   0.053 -0.6346 -0.0663 -0.1823
  136MOL0     C18642   9.483   8.299   0.070 -1.1878  0.1305  0.1534
  136MOL0     C18643   9.593   8.305  -0.042 -1.2292  0.2925  0.1267
  136MOL0     C18644   9.686   8.185  -0.051 -0.6403 -0.8510  0.1482
  136MOL0     C18645   9.815   8.219  -0.122 -0.4271  0.0544 -0.0227
  136MOL0     C18646   9.921   8.308  -0.049  0.3252 -0.6321 -0.7233
  136MOL0     N18647  10.061   8.300  -0.084 -0.4393  1.0074  0.3677
  136MOL0     C18648  10.113   8.372  -0.181 -0.3272 -0.2447 -1.2059
  136MOL0     C18649  10.236   8.317  -0.191  1.0775  0.2748 -0.1351
  136MOL0     C18650  10.351   8.373  -0.275 -0.1508  0.2766  0.2860
  136MOL0     C18651  10.477   8.418  -0.199 -0.7137 -0.2666  0.1315
  136MOL0     C18652  10.602   8.322  -0.191  0.4478  0.6702  0.5155
  136MOL0     C18653  10.674   8.327  -0.326  0.2239  0.9491 -0.6823
  136MOL0     O18654  10.769   8.214  -0.325  0.2102 -0.4211 -0.7711
  136MOL0     C18655  10.888   8.225  -0.256 -0.0444  0.7075  0.7169
  136MOL0     C18656  10.953   8.103  -0.240 -1.3270  0.1629 -0.3220
  136MOL0     C18657  11.074   8.091  -0.162 -0.3254  0.8334  1.2446
  136MOL0     C18658  11.143   7.949  -0.161 -0.5252 -0.0294  0.0977
  136MOL0     C18659  11.123   8.206  -0.086 -0.0041  0.7453 -0.8335
  136MOL0     C18660  11.218   8.205   0.029 -0.1987  0.8482 -0.1914
  136MOL0     O18661  11.276   8.088   0.066 -0.1541  0.6774  0.0647
  136MOL0     C18662  11.381   8.094   0.159 -0.6929 -0.8381  0.0761
  136MOL0     C18663  11.384   8.015   0.269 -0.0355 -0.2869  0.0532
  136MOL0     C18664  11.482   8.026   0.369 -0.1614 -0.4656 -0.7575
  136MOL0     C18665  11.593   8.109   0.352 -0.5447 -0.0542 -0.2651
  136MOL0     O18666  11.685   8.130   0.448 -0.1856 -0.6063 -0.1327
  136MOL0     C18667  11.818   8.189   0.411 -0.7261 -0.2610  0.3142
  136MOL0     C18668  11.919   8.168   0.530  0.7758  0.5079  0.4518
  136MOL0     C18669  12.074   8.187   0.491  0.7694 -0.1393  1.6091
  136MOL0     C18670  12.152   8.249   0.598  0.1439 -0.2398 -0.5106
  136MOL0     C18671  12.300   8.287   0.553 -0.1920 -0.1099 -0.6679
  136MOL0     C18672  12.379   8.322   0.675 -0.2303  0.6984  0.9450
  136MOL0     C18673  12.394   8.201   0.766  0.3864  0.4724 -0.1023
  136MOL0     C18674  12.524   8.207   0.859  0.7043 -0.7541  0.7215
  136MOL0    Cl18675  12.528   8.069   0.971  0.0686  0.1128  0.0525
  136MOL0     C18676  11.601   8.187   0.232 -0.3843  0.9089 -0.6969
  136MOL0     C18677  11.499   8.169   0.141  0.2341 -0.7941 -0.3580
  136MOL0     O18678  11.237   8.315   0.090  0.4533  0.7095  0.0602
  136MOL0     C18679  11.070   8.324  -0.122  0.3478  0.2665  0.0740
  136MOL0     C18680  10.960   8.331  -0.213  0.0986  0.2255 -0.5255
  136MOL0     N18681  10.253   8.208  -0.107  0.1124  0.5033  0.1991
  136MOL0     N18682  10.144   8.204  -0.039 -0.1326 -0.8327 -0.3981
  136MOL0     C18683   9.004   8.692   0.304  0.4872 -0.3430  1.0529
  136MOL0     C18684   8.924   8.798   0.348 -0.6489 -0.5502 -0.4315
  136MOL0     C18685   8.632   9.046   0.579 -0.1292 -0.1215 -0.2032
  136MOL0     C18686   8.493   9.039   0.560 -0.4218  1.3017  0.0545
  136MOL0     C18687   8.407   9.134   0.605  0.1226  0.8495 -0.0637
  136MOL0     C18688   8.454   9.254   0.664  0.4670 -0.2524  0.5253
  136MOL0     O18689   8.379   9.362   0.705 -0.2779 -0.3529 -0.2060
  136MOL0     C18690   8.241   9.365   0.667 -0.5864  0.4923 -0.3432
  136MOL0     C18691   8.194   9.512   0.640  0.7568  0.5324 -0.2621
  136MOL0     C18692   8.049   9.507   0.633 -0.0242 -0.0642 -0.8199
  136MOL0     C18693   7.983   9.646   0.621  0.0123  0.0375  0.3115
  136MOL0     C18694   7.990   9.696   0.484  0.1803  0.4219  0.2751
  136MOL0     C18695   7.994   9.730   0.368  0.5612 -0.4370  0.1112
  136MOL0     C18696   8.590   9.269   0.671 -1.1531 -0.0635 -0.7320
  136MOL0     C18697   8.681   9.168   0.626 -0.2190  0.4697 -0.6765
  136MOL0     C18698   8.823   9.210   0.646  0.3258 -0.3673  0.3326
  136MOL0     H18699   9.029   8.807   0.670 -0.3208 -1.2636  0.1461
  136MOL0     H18700   9.176   8.631   0.590  0.9167  1.2802 -0.1087
  136MOL0     H18701   9.233   8.603   0.145 -2.0961  0.9597  0.8168
  136MOL0     H18702   9.117   8.469   0.143  0.1344  0.8446 -0.0006
  136MOL0     H18703   9.380   8.431   0.264 -0.5332 -4.6302  3.3405
  136MOL0     H18704   9.272   8.305   0.204 -0.8271  0.3259 -1.0130
  136MOL0     H18705   9.313   8.380  -0.032  1.6532 -1.3227 -1.6462
  136MOL0     H18706   9.419   8.505   0.035 -1.1244 -0.1415 -1.9460
  136MOL0     H18707   9.542   8.308   0.162 -0.1181 -1.5294 -0.3229
  136MOL0     H18708   9.440   8.199   0.067  1.1287 -0.9752  0.9416
  136MOL0     H18709   9.665   8.384  -0.019 -1.1076 -0.6550  3.4734
  136MOL0     H18710   9.542   8.314  -0.139 -2.1080 -0.1314  0.5405
  136MOL0     H18711   9.717   8.148   0.047 -0.9245 -2.6810 -0.4184
  136MOL0     H18712   9.638   8.100  -0.100  1.1941 -1.4583 -0.6950
  136MOL0     H18713   9.790   8.279  -0.209 -0.0937  3.6851  2.1847
  136MOL0     H18714   9.856   8.125  -0.160  0.5109  0.3686  0.1974
  136MOL0     H18715   9.898   8.415  -0.049 -0.5426 -0.7844  0.7127
  136MOL0     H18716   9.916   8.298   0.060 -1.1358 -0.5016 -0.7532
  136MOL0     H18717  10.066   8.443  -0.248  1.6424  0.3148 -2.0529
  136MOL0     H18718  10.307   8.458  -0.327 -0.5395  0.3892  0.7849
  136MOL0     H18719  10.372   8.289  -0.342  0.7700 -0.4103  1.3983
  136MOL0     H18720  10.503   8.514  -0.245  0.7346 -1.5347 -1.8450
  136MOL0     H18721  10.448   8.418  -0.094  0.6808 -1.7981  0.5664
  136MOL0     H18722  10.663   8.356  -0.107 -0.5668  1.3865  0.9888
  136MOL0     H18723  10.571   8.221  -0.162  4.2489 -0.8751 -0.1664
  136MOL0     H18724  10.598   8.316  -0.404 -2.1745  0.5836  1.5682
  136MOL0     H18725  10.719   8.425  -0.344  0.3219  1.2442  1.0066
  136MOL0     H18726  10.941   8.019  -0.307 -2.1711  0.5211 -0.6308
  136MOL0     H18727  11.101   7.887  -0.241  1.7461  0.6210 -1.6812
  136MOL0     H18728  11.131   7.909  -0.060 -2.8901  1.3309  0.4320
  136MOL0     H18729  11.251   7.956  -0.174 -0.6612  1.6911 -0.3484
  136MOL0     H18730  11.298   7.950   0.280  1.1510 -1.5278  4.1782
  136MOL0     H18731  11.471   7.972   0.462  0.2199  0.1118 -0.3650
  136MOL0     H18732  11.853   8.138   0.320  4.4802  1.0406  1.3015
  136MOL0     H18733  11.793   8.293   0.390 -1.9356 -0.5300  0.3186
  136MOL0     H18734  11.895   8.241   0.608  1.3460 -0.8782  2.0008
  136MOL0     H18735  11.903   8.067   0.567 -1.9805 -0.6837 -3.4258
  136MOL0     H18736  12.079   8.253   0.403  1.4209 -3.4757 -1.0945
  136MOL0     H18737  12.110   8.087   0.466 -3.5521 -1.2336 -1.5244
  136MOL0     H18738  12.150   8.171   0.675  1.6387 -0.3659 -0.5778
  136MOL0     H18739  12.107   8.342   0.633  1.7237  0.3684 -0.0334
  136MOL0     H18740  12.340   8.211   0.485 -1.8320 -1.4497 -0.2211
  136MOL0     H18741  12.285   8.374   0.489  3.7188  2.0602  1.0148
  136MOL0     H18742  12.342   8.408   0.732  0.1988  1.1134  0.6075
  136MOL0     H18743  12.480   8.349   0.645  0.1043 -0.0699  1.3480
  136MOL0     H18744  12.394   8.110   0.706 -0.8438  1.9924 -2.5987
  136MOL0     H18745  12.304   8.188   0.827  0.7046 -2.4441 -0.1283
  136MOL0     H18746  12.532   8.300   0.918  0.3910  1.2801 -2.2370
  136MOL0     H18747  12.615   8.212   0.799  1.3052 -0.5107  1.6295
  136MOL0     H18748  11.682   8.251   0.198  1.0996 -0.6797 -0.3034
  136MOL0     H18749  11.505   8.223   0.047 -1.0148 -0.6040 -0.3368
  136MOL0     H18750  11.106   8.420  -0.087  0.6950 -0.0138  0.5050
  136MOL0     H18751  10.926   8.427  -0.251  0.7804  0.4970 -0.4667
  136MOL0     H18752   9.001   8.660   0.201 -1.4437  1.9104  0.3295
  136MOL0     H18753   8.851   8.839   0.279 -0.1553  0.5134 -0.3463
  136MOL0     H18754   8.443   8.954   0.514  2.4331  0.1445 -1.1466
  136MOL0     H18755   8.303   9.114   0.580 -0.2927 -0.8746  2.5953
  136MOL0     H18756   8.224   9.313   0.572 -1.7300 -1.1823  0.7140
  136MOL0     H18757   8.181   9.315   0.744  0.7071 -0.6413 -0.0351
  136MOL0     H18758   8.245   9.564   0.558  1.5792  3.0894  1.7494
  136MOL0     H18759   8.227   9.560   0.732  1.8760 -0.3420 -0.1950
  136MOL0     H18760   8.028   9.445   0.545 -1.7962  0.3963 -0.7553
  136MOL0     H18761   8.008   9.466   0.725 -0.7801  0.1035 -1.0762
  136MOL0     H18762   8.037   9.712   0.689  1.6721 -1.5255  0.5862
  136MOL0     H18763   7.878   9.647   0.652  0.2858 -2.0870  1.5406
  136MOL0     H18764   8.008   9.764   0.267  2.4599 -1.0913  0.1239
  136MOL0     H18765   8.630   9.366   0.699  2.4745 -1.6265  0.1168
  136MOL0     H18766   8.828   9.269   0.737  0.9824 -1.0618  0.7591
  136MOL0     H18767   8.894   9.133   0.677 -1.7938 -2.4321  0.4247
  136MOL0     H18768   8.865   9.263   0.561  0.3590 -2.3412 -0.9559
  137MOL0     O18769   6.972   2.709   9.832  0.5169 -0.4494  0.2332
  137MOL0     C18770   6.928   2.658   9.932 -0.1432  0.0219 -0.6593
  137MOL0     O18771   6.998   2.628  10.036 -0.5639  0.0919 -0.4813
  137MOL0     C18772   7.130   2.656  10.034  0.2138 -0.2853 -0.5425
  137MOL0     C18773   7.226   2.556  10.002  0.2764 -0.5150  0.0772
  137MOL0     C18774   7.360   2.580  10.000  0.0877 -0.5642  0.7178
  137MOL0     C18775   7.400   2.718  10.003  0.1233  0.7111 -0.8538
  137MOL0     O18776   7.529   2.762  10.008  0.5785  0.3792 -0.1240
  137MOL0     C18777   7.625   2.664  10.047 -0.1500  0.3939  0.6379
  137MOL0     C18778   7.739   2.740  10.126  0.1941 -0.4486  0.6663
  137MOL0     C18779   7.872   2.662  10.145  0.0736 -0.1497 -0.6017
  137MOL0     C18780   7.968   2.715  10.254 -0.3625  0.2738 -0.7645
  137MOL0     C18781   8.111   2.684  10.209  0.2832 -0.6266  0.0473
  137MOL0     C18782   8.218   2.697  10.317 -0.4142  0.7084 -0.7590
  137MOL0     C18783   8.354   2.682  10.261 -0.2497  0.3536 -0.5574
  137MOL0     C18784   8.383   2.552  10.178 -0.3306  0.7523 -0.3575
  137MOL0     N18785   8.354   2.434  10.272 -0.9069  0.7199  0.7794
  137MOL0     C18786   8.461   2.367  10.331 -1.0351  0.2000  0.6291
  137MOL0     C18787   8.398   2.254  10.384  0.1374  0.5899  0.1803
  137MOL0     C18788   8.467   2.140  10.451  0.0461  0.2817  0.1980
  137MOL0     C18789   8.506   2.159  10.594 -0.1479  0.1566 -0.5679
  137MOL0     C18790   8.581   2.035  10.631  0.4400 -0.3372  0.0006
  137MOL0     C18791   8.605   2.030  10.777 -0.0009  0.0744  0.2347
  137MOL0     O18792   8.692   2.140  10.822  0.5447 -0.4639  0.2314
  137MOL0     C18793   8.831   2.135  10.834  0.6096  0.1242  0.4439
  137MOL0     C18794   8.883   2.258  10.874  0.5871  0.5265 -0.3953
  137MOL0     C18795   9.013   2.277  10.884 -0.4852  0.8315 -0.0845
  137MOL0     C18796   9.056   2.422  10.907 -0.6005  0.6927 -0.2767
  137MOL0     C18797   9.105   2.165  10.877  0.0786  0.1241  0.4808
  137MOL0     C18798   9.251   2.175  10.893  0.1665  0.0606 -1.0395
  137MOL0     O18799   9.291   2.270  10.984 -0.7724  0.5671  0.4531
  137MOL0     C18800   9.428   2.293  11.003 -0.7604 -0.5966 -0.6730
  137MOL0     C18801   9.510   2.192  11.049 -0.0556  0.8148 -0.1061
  137MOL0     C18802   9.650   2.214  11.058 -0.7961 -0.1141  0.7226
  137MOL0     C18803   9.708   2.341  11.041  0.2134  0.4348 -1.0356
  137MOL0     O18804   9.843   2.363  11.061 -0.1458  0.1357 -0.5220
  137MOL0     C18805   9.907   2.488  11.039  0.3740 -0.4684  0.2422
  137MOL0     C18806  10.054   2.488  11.079  1.0875 -0.2881  0.3620
  137MOL0     C18807  10.130   2.378  10.998 -0.9087  0.0969 -0.0626
  137MOL0     C18808  10.280   2.374  11.040  0.4385 -0.6497  0.3310
  137MOL0     C18809  10.345   2.244  10.988  0.3731  0.2618  0.2073
  137MOL0     C18810  10.324   2.220  10.839 -1.1371 -0.6361  0.0576
  137MOL0     C18811  10.379   2.077  10.811 -0.6846 -0.5445  0.6442
  137MOL0     C18812  10.329   2.035  10.668  0.0409 -0.0966  0.6993
  137MOL0    Cl18813  10.409   1.877  10.626 -0.3244  0.8547 -0.0533
  137MOL0     C18814   9.624   2.442  10.989 -0.1465  0.9144  0.3625
  137MOL0     C18815   9.488   2.419  10.975  0.1864  0.1818 -0.1063
  137MOL0     O18816   9.327   2.105  10.826  0.1866  0.2843 -0.1003
  137MOL0     C18817   9.052   2.033  10.862 -0.2153 -0.0568  0.2923
  137MOL0     C18818   8.910   2.024  10.827  0.3321 -1.1744  0.6136
  137MOL0     N18819   8.266   2.260  10.364  0.0755 -0.1033 -0.2216
  137MOL0     N18820   8.241   2.365  10.298 -0.0760 -0.1959  0.2462
  137MOL0     C18821   7.303   2.815  10.035 -0.2108  0.2927 -0.1832
  137MOL0     C18822   7.170   2.788  10.059  0.2356  0.7201 -0.4077
  137MOL0     C18823   6.794   2.611   9.933 -0.2804 -0.6841  0.8145
  137MOL0     C18824   6.714   2.670  10.034 -0.2879  0.1595  0.0498
  137MOL0     C18825   6.577   2.642  10.044  0.2099  0.9416  1.1173
  137MOL0     C18826   6.524   2.560   9.938  0.1549  0.5605 -0.1332
  137MOL0     O18827   6.391   2.515   9.935  0.1905 -0.1663  0.0942
  137MOL0     C18828   6.303   2.541  10.044 -0.4760  0.0262 -0.0634
  137MOL0     C18829   6.180   2.442  10.053  0.3463  0.4224  0.4280
  137MOL0     C18830   6.066   2.480   9.957  0.6999 -0.0158  0.4177
  137MOL0     C18831   5.985   2.597  10.006 -0.4750 -0.0991 -0.4516
  137MOL0     C18832   5.879   2.635   9.912 -0.3959  0.2484  0.1853
  137MOL0     C18833   5.788   2.668   9.838  0.0857  0.4155 -0.4845
  137MOL0     C18834   6.607   2.502   9.844 -0.0477 -0.7710  0.5065
  137MOL0     C18835   6.742   2.522   9.837 -0.2501  0.1876 -0.2127
  137MOL0     C18836   6.825   2.469   9.725 -0.3258  0.2683 -0.3890
  137MOL0     H18837   7.181   2.457   9.994  0.9083 -0.8523  0.5854
  137MOL0     H18838   7.432   2.502   9.977  0.8886 -0.3082  2.2372
  137MOL0     H18839   7.660   2.623   9.952 -3.6152 -1.1028 -0.1404
  137MOL0     H18840   7.585   2.581  10.107 -0.2928  0.2780  0.3846
  137MOL0     H18841   7.756   2.832  10.069  1.8802 -1.3831 -0.4228
  137MOL0     H18842   7.699   2.760  10.226 -2.6671  1.9523 -0.8156
  137MOL0     H18843   7.847   2.559  10.173  0.8182 -0.1177  0.2089
  137MOL0     H18844   7.912   2.654  10.044 -1.1926  3.0355 -1.4887
  137MOL0     H18845   7.951   2.823  10.267 -2.0933 -0.0970  0.4482
  137MOL0     H18846   7.944   2.662  10.347  0.2345  0.7566 -0.3287
  137MOL0     H18847   8.136   2.754  10.129 -1.4191 -0.5621 -0.4624
  137MOL0     H18848   8.110   2.586  10.160  1.3664  0.2591 -1.8687
  137MOL0     H18849   8.219   2.796  10.363  2.9588  0.9292 -1.0248
  137MOL0     H18850   8.196   2.630  10.401 -0.5051  1.9863  0.2747
  137MOL0     H18851   8.429   2.692  10.339  1.8535  2.4246 -2.6931
  137MOL0     H18852   8.376   2.766  10.195  0.7169 -0.0848 -0.8048
  137MOL0     H18853   8.317   2.545  10.091  0.4261 -0.8893 -0.8348
  137MOL0     H18854   8.485   2.555  10.140 -0.7743 -0.6208 -1.7540
  137MOL0     H18855   8.567   2.378  10.313 -1.2499 -1.5867 -2.6220
  137MOL0     H18856   8.550   2.109  10.387  0.9801  1.7936  0.6456
  137MOL0     H18857   8.397   2.057  10.437 -0.1638  0.8490 -2.9404
  137MOL0     H18858   8.573   2.246  10.596 -0.6926  0.6096  2.4617
  137MOL0     H18859   8.421   2.179  10.660  0.5243 -1.7011  0.9544
  137MOL0     H18860   8.519   1.948  10.606  1.2565 -0.8373 -0.3301
  137MOL0     H18861   8.676   2.033  10.576  0.6242 -0.4240  0.3193
  137MOL0     H18862   8.512   2.053  10.830 -0.1154  2.2869 -0.8459
  137MOL0     H18863   8.627   1.926  10.803 -1.8066 -0.5447 -0.5862
  137MOL0     H18864   8.813   2.341  10.869 -0.3474 -0.1924  0.4425
  137MOL0     H18865   8.979   2.483  10.858 -0.9917 -0.3021 -0.9189
  137MOL0     H18866   9.154   2.441  10.861  0.1705 -1.6629  0.2714
  137MOL0     H18867   9.048   2.442  11.015 -1.8487 -0.8149 -0.0655
  137MOL0     H18868   9.469   2.092  11.063  1.7368  0.1260  0.6009
  137MOL0     H18869   9.716   2.129  11.074  1.6176  1.4752 -0.3027
  137MOL0     H18870   9.907   2.517  10.934  0.6512 -0.0670  0.3460
  137MOL0     H18871   9.843   2.566  11.081  0.3089  0.4159 -1.4185
  137MOL0     H18872  10.102   2.584  11.064 -0.8854  1.0815  2.2462
  137MOL0     H18873  10.047   2.484  11.188 -0.8520 -0.6169  0.2666
  137MOL0     H18874  10.114   2.375  10.890 -1.1519 -0.9986 -0.0063
  137MOL0     H18875  10.096   2.279  11.029  0.5383 -0.0427  1.2116
  137MOL0     H18876  10.295   2.373  11.148  0.4658  1.0358  0.3726
  137MOL0     H18877  10.339   2.455  10.996  0.8037 -0.7095  0.7062
  137MOL0     H18878  10.451   2.254  11.011  0.4621  1.3190 -0.5853
  137MOL0     H18879  10.301   2.159  11.041 -1.0546  0.5353 -0.4771
  137MOL0     H18880  10.376   2.290  10.774 -0.1222 -0.8866  0.5892
  137MOL0     H18881  10.220   2.217  10.805 -0.8004 -2.7696 -0.9461
  137MOL0     H18882  10.357   2.005  10.889 -0.8682 -0.3812  0.7435
  137MOL0     H18883  10.487   2.089  10.794 -0.1984 -4.7096 -0.4370
  137MOL0     H18884  10.364   2.099  10.586  1.7059 -2.1922 -0.3433
  137MOL0     H18885  10.219   2.028  10.664  0.1431 -2.3196 -1.5666
  137MOL0     H18886   9.655   2.545  10.974  1.7560  0.2417 -0.7168
  137MOL0     H18887   9.410   2.488  10.944 -0.2028 -0.7706 -1.3283
  137MOL0     H18888   9.109   1.941  10.861 -0.5840 -0.3149  1.2637
  137MOL0     H18889   8.858   1.933  10.798  2.8964 -2.4632 -0.1738
  137MOL0     H18890   7.340   2.915  10.054 -0.5616  0.3292  0.3242
  137MOL0     H18891   7.100   2.855  10.109 -0.9091 -0.9360  0.3126
  137MOL0     H18892   6.767   2.726  10.110  0.9725  0.2961 -0.8924
  137MOL0     H18893   6.522   2.670  10.133  2.6301  1.3573  2.5681
  137MOL0     H18894   6.355   2.535  10.140  1.0156  1.8925 -0.7054
  137MOL0     H18895   6.271   2.645  10.039  0.9889  0.4648 -0.6603
  137MOL0     H18896   6.136   2.435  10.152 -1.0853 -2.9399 -0.3139
  137MOL0     H18897   6.213   2.342  10.025 -0.0976 -0.1146  1.7983
  137MOL0     H18898   6.104   2.496   9.856  0.3904  1.6172  0.5354
  137MOL0     H18899   5.995   2.397   9.949 -0.5059  1.1026 -0.8421
  137MOL0     H18900   6.053   2.683  10.009 -1.1965  0.4616  1.1755
  137MOL0     H18901   5.953   2.585  10.110  0.8678 -0.1730 -0.0183
  137MOL0     H18902   5.708   2.682   9.769 -0.8333  1.2000  0.6993
  137MOL0     H18903   6.571   2.419   9.785 -1.3148 -1.0580  1.6337
  137MOL0     H18904   6.845   2.556   9.661  0.8744  0.8593  0.7409
  137MOL0     H18905   6.915   2.432   9.775 -1.8073 -2.5090  0.4056
  137MOL0     H18906   6.785   2.379   9.678 -1.6280 -0.0102  1.1829
  138MOL0     O18907   8.448   9.159   5.164  0.0464 -0.3165  0.2266
  138MOL0     C18908   8.371   9.123   5.249  0.9052 -0.3375  0.3488
  138MOL0     O18909   8.406   9.038   5.357  0.1330 -0.3636  0.3420
  138MOL0     C18910   8.535   9.029   5.393 -0.4350 -1.0792 -0.1931
  138MOL0     C18911   8.602   8.905   5.407  1.0386 -0.1308  0.5654
  138MOL0     C18912   8.733   8.905   5.460  0.3114  0.8673  0.4745
  138MOL0     C18913   8.792   9.018   5.514  0.3572 -0.1901  0.4158
  138MOL0     O18914   8.918   9.018   5.565 -0.4959 -0.5341 -0.7473
  138MOL0     C18915   9.006   9.122   5.508 -0.4698  0.3210  0.3340
  138MOL0     C18916   9.033   9.238   5.612 -0.1537  0.2551  0.8515
  138MOL0     C18917   9.167   9.306   5.588  0.2678 -0.7476 -0.5550
  138MOL0     C18918   9.189   9.402   5.707 -0.1672  0.1782 -0.0502
  138MOL0     C18919   9.332   9.460   5.700  0.1688 -1.3646  0.3182
  138MOL0     C18920   9.440   9.356   5.707 -0.1592  0.1495 -0.6162
  138MOL0     C18921   9.581   9.412   5.744 -0.2655 -0.7914 -0.0538
  138MOL0     C18922   9.682   9.300   5.760 -0.3606 -0.2496 -0.1327
  138MOL0     N18923   9.665   9.216   5.879 -0.0379 -0.4203  0.2082
  138MOL0     C18924   9.666   9.080   5.882  0.7464  0.1788  0.4113
  138MOL0     C18925   9.636   9.045   6.008 -0.9027  0.5799  0.7000
  138MOL0     C18926   9.637   8.898   6.047 -0.8940 -0.8035 -0.6604
  138MOL0     C18927   9.752   8.879   6.140  0.2890 -0.3734 -0.1829
  138MOL0     C18928   9.878   8.896   6.053  0.3587 -0.8832  0.5935
  138MOL0     C18929   9.993   8.838   6.134 -0.1194  0.5919  0.6886
  138MOL0     O18930  10.118   8.888   6.083 -0.1488  0.3007  0.0209
  138MOL0     C18931  10.223   8.801   6.065  0.6279  0.7855  0.3770
  138MOL0     C18932  10.265   8.705   6.162  0.7006  0.4446 -0.5101
  138MOL0     C18933  10.375   8.626   6.149 -0.7440  0.6096  0.4232
  138MOL0     C18934  10.418   8.531   6.259  1.0514  0.6258  0.1587
  138MOL0     C18935  10.448   8.642   6.023  0.2081 -0.5779  0.8174
  138MOL0     C18936  10.571   8.567   5.994 -0.8194  0.3679  0.7282
  138MOL0     O18937  10.653   8.643   5.904  0.3942  0.1317 -0.4016
  138MOL0     C18938  10.767   8.585   5.853 -0.0496 -1.1742  0.4302
  138MOL0     C18939  10.883   8.658   5.874  0.8166  0.3558  0.1843
  138MOL0     C18940  11.005   8.598   5.845  0.0719 -0.7943 -0.0047
  138MOL0     C18941  11.010   8.467   5.796  0.2135 -0.3504  0.2454
  138MOL0     O18942  11.117   8.387   5.774  0.5851 -0.6191  0.6466
  138MOL0     C18943  11.224   8.453   5.702  0.2004 -0.1797 -0.2294
  138MOL0     C18944  11.295   8.356   5.620  0.0297  0.8825  0.2369
  138MOL0     C18945  11.208   8.319   5.503 -0.2497 -0.2096  0.4262
  138MOL0     C18946  11.287   8.236   5.399  0.1286  0.1985 -0.6528
  138MOL0     C18947  11.198   8.174   5.293  0.0045  0.0733 -0.9412
  138MOL0     C18948  11.262   8.088   5.184  0.3154  0.3274 -0.9056
  138MOL0     C18949  11.190   8.049   5.064 -0.2437  0.5312 -0.5051
  138MOL0     C18950  11.125   7.917   5.079  0.2668  0.1702 -0.4548
  138MOL0    Cl18951  11.244   7.775   5.090 -0.1243  0.5124  0.6232
  138MOL0     C18952  10.886   8.400   5.776 -0.8500 -0.1073  0.2370
  138MOL0     C18953  10.764   8.455   5.804 -0.4514 -0.7752  0.3146
  138MOL0     O18954  10.596   8.461   6.047 -0.6280  0.6732 -0.3388
  138MOL0     C18955  10.403   8.733   5.924  0.6121 -0.5945 -0.5510
  138MOL0     C18956  10.284   8.804   5.940  0.6190 -0.7752 -0.4316
  138MOL0     N18957   9.628   9.158   6.078  0.3669  0.1352 -0.6817
  138MOL0     N18958   9.642   9.261   6.001 -0.5629  0.3984  0.1188
  138MOL0     C18959   8.718   9.144   5.498 -0.4345  0.5302 -0.4085
  138MOL0     C18960   8.597   9.147   5.438  0.5455 -0.5776 -0.0046
  138MOL0     C18961   8.222   9.143   5.220 -0.3091  0.8138 -0.6738
  138MOL0     C18962   8.141   9.024   5.202  0.5628 -0.4625  0.2541
  138MOL0     C18963   8.007   9.030   5.170  0.4665  0.2110  0.4771
  138MOL0     C18964   7.945   9.151   5.152  0.0764 -0.0696  0.3835
  138MOL0     O18965   7.813   9.146   5.137  0.4624 -0.5160 -0.8061
  138MOL0     C18966   7.751   9.261   5.077 -0.3723  0.4627  0.3225
  138MOL0     C18967   7.613   9.214   5.021  1.1199 -0.0904  0.0993
  138MOL0     C18968   7.504   9.325   5.001 -0.1158 -0.4876  0.0867
  138MOL0     C18969   7.367   9.270   4.968  0.6595 -0.0401 -0.5948
  138MOL0     C18970   7.300   9.205   5.086 -0.9047 -0.4183  0.0030
  138MOL0     C18971   7.256   9.134   5.165  0.3565 -0.1078 -0.3833
  138MOL0     C18972   8.013   9.270   5.177  0.2138  0.9409  0.3155
  138MOL0     C18973   8.149   9.267   5.203  0.3343  0.7406  0.3363
  138MOL0     C18974   8.211   9.406   5.215  0.2348  0.0820 -0.2000
  138MOL0     H18975   8.568   8.806   5.378  2.6024 -0.5619  0.0823
  138MOL0     H18976   8.805   8.824   5.464 -1.4364 -1.0137 -2.6848
  138MOL0     H18977   8.964   9.172   5.420  1.3047  0.4496 -0.4852
  138MOL0     H18978   9.097   9.074   5.469 -1.0407  1.8413 -3.3082
  138MOL0     H18979   8.952   9.312   5.615  0.2654  0.6946  2.1864
  138MOL0     H18980   9.041   9.184   5.707 -4.1634  1.3183  1.9922
  138MOL0     H18981   9.243   9.227   5.589  0.3413 -0.7736 -2.5364
  138MOL0     H18982   9.164   9.362   5.494 -2.7102 -0.4034 -0.3491
  138MOL0     H18983   9.105   9.471   5.719 -1.1648 -1.2148  1.2700
  138MOL0     H18984   9.182   9.340   5.797 -1.3356 -0.0596 -0.2976
  138MOL0     H18985   9.340   9.521   5.791 -2.9648 -0.4647  0.0918
  138MOL0     H18986   9.357   9.526   5.616  1.4224 -2.7742 -0.4771
  138MOL0     H18987   9.411   9.282   5.783  0.7258  0.9951  0.5605
  138MOL0     H18988   9.448   9.306   5.610  2.6229  1.4779 -1.1652
  138MOL0     H18989   9.580   9.474   5.834  2.1540 -0.8880  0.0911
  138MOL0     H18990   9.623   9.475   5.665 -1.4346 -0.6874 -0.6205
  138MOL0     H18991   9.683   9.240   5.668  0.1427  1.5766 -1.3777
  138MOL0     H18992   9.783   9.343   5.767 -0.4795 -0.2614  2.8721
  138MOL0     H18993   9.665   9.011   5.799 -0.1022 -0.5683  1.0210
  138MOL0     H18994   9.635   8.833   5.958 -0.6843 -0.0297 -1.2381
  138MOL0     H18995   9.540   8.887   6.096  0.1301  1.4520  2.1867
  138MOL0     H18996   9.746   8.936   6.233 -1.7038  0.2724 -0.6510
  138MOL0     H18997   9.738   8.773   6.165  0.2412 -0.0183  1.4364
  138MOL0     H18998   9.869   8.856   5.951 -0.3926  1.7667 -0.4526
  138MOL0     H18999   9.909   8.999   6.039  0.1015 -1.1473 -2.7974
  138MOL0     H19000   9.979   8.871   6.238  2.8247 -0.0800  1.3752
  138MOL0     H19001   9.975   8.730   6.127 -2.5556  0.9051  1.3079
  138MOL0     H19002  10.211   8.704   6.256  2.0265  0.7063  0.2805
  138MOL0     H19003  10.371   8.556   6.355  0.7852  1.0314 -0.0743
  138MOL0     H19004  10.526   8.545   6.270  0.8724  0.3988  2.7756
  138MOL0     H19005  10.406   8.429   6.220  2.1389  0.3485  0.5121
  138MOL0     H19006  10.875   8.759   5.913 -3.0829  0.3293 -0.1905
  138MOL0     H19007  11.100   8.643   5.874 -0.1142  0.2787 -1.0162
  138MOL0     H19008  11.192   8.540   5.643 -3.9254 -1.3417 -0.0283
  138MOL0     H19009  11.288   8.488   5.784 -2.4217 -0.3422  2.0403
  138MOL0     H19010  11.391   8.390   5.581 -0.1936  0.4111 -0.7492
  138MOL0     H19011  11.304   8.277   5.696 -3.0791  0.0009 -0.1766
  138MOL0     H19012  11.176   8.411   5.452  2.3293  0.6801  0.2941
  138MOL0     H19013  11.113   8.270   5.529 -1.5937  0.6190 -2.5232
  138MOL0     H19014  11.326   8.156   5.463 -3.7127 -0.6732  0.8553
  138MOL0     H19015  11.370   8.287   5.348  1.8462 -2.9661 -1.2740
  138MOL0     H19016  11.114   8.127   5.344 -0.2242  1.0410 -0.3858
  138MOL0     H19017  11.146   8.259   5.247 -0.0725 -0.3307 -1.6067
  138MOL0     H19018  11.305   7.995   5.224 -1.3495 -0.5159 -1.0040
  138MOL0     H19019  11.347   8.145   5.147  0.7503 -0.0070 -0.4412
  138MOL0     H19020  11.259   8.035   4.981  0.6131  0.9182  0.1245
  138MOL0     H19021  11.106   8.114   5.038 -1.5429 -0.8873 -0.0171
  138MOL0     H19022  11.055   7.886   5.001  2.1916 -1.8190 -1.5202
  138MOL0     H19023  11.068   7.926   5.171  0.4305  2.2143 -0.5090
  138MOL0     H19024  10.900   8.295   5.751  2.7711 -0.4152  2.6912
  138MOL0     H19025  10.662   8.422   5.784 -1.0294  0.5928  0.8693
  138MOL0     H19026  10.460   8.751   5.833  0.2515  2.3347 -0.3016
  138MOL0     H19027  10.250   8.880   5.870 -2.6074 -1.5755  0.0622
  138MOL0     H19028   8.763   9.237   5.530 -0.2526 -0.2398  1.7885
  138MOL0     H19029   8.534   9.233   5.416 -1.4333 -2.3106 -1.5779
  138MOL0     H19030   8.195   8.931   5.220  0.9015 -0.0144  1.7560
  138MOL0     H19031   7.944   8.943   5.154  1.3444 -0.2731 -0.4697
  138MOL0     H19032   7.730   9.336   5.154 -1.1718 -0.7584  1.3464
  138MOL0     H19033   7.806   9.305   4.994  1.4015 -1.0659  0.6135
  138MOL0     H19034   7.566   9.131   5.075  1.9605  1.2682  3.1224
  138MOL0     H19035   7.641   9.171   4.925 -0.7400  1.4627 -1.2199
  138MOL0     H19036   7.510   9.382   5.094  1.3872  0.1203 -0.3497
  138MOL0     H19037   7.536   9.404   4.932 -0.3087  1.9338  2.6072
  138MOL0     H19038   7.381   9.193   4.891  0.6784 -2.0277  1.3087
  138MOL0     H19039   7.295   9.349   4.944  0.5929  0.5343  1.3007
  138MOL0     H19040   7.212   9.063   5.232  0.3234 -1.5723 -1.8990
  138MOL0     H19041   7.967   9.369   5.179  0.5021  1.1464  3.9295
  138MOL0     H19042   8.302   9.422   5.155  0.2967  0.7594  0.0617
  138MOL0     H19043   8.136   9.485   5.206  1.1842  0.9258 -0.9251
  138MOL0     H19044   8.254   9.411   5.316  2.9506  1.5134 -1.3207
  139MOL0     O19045   9.828   9.012  10.870 -0.5073  0.3402 -0.4638
  139MOL0     C19046   9.899   9.109  10.863  0.3385 -0.0976  0.5571
  139MOL0     O19047   9.879   9.225  10.947 -0.0069 -0.1567  0.1302
  139MOL0     C19048   9.811   9.218  11.074 -0.0700  0.7758  0.2596
  139MOL0     C19049   9.786   9.100  11.151 -0.3294 -0.0719  0.7325
  139MOL0     C19050   9.722   9.108  11.271 -0.8330 -1.1273  0.4997
  139MOL0     C19051   9.683   9.238  11.327 -0.1563 -0.8361 -0.3462
  139MOL0     O19052   9.650   9.253  11.464  0.8854 -0.3484 -0.1962
  139MOL0     C19053   9.602   9.137  11.539  0.2350  0.1300  0.4226
  139MOL0     C19054   9.701   9.112  11.657  0.6287 -0.2175 -0.2372
  139MOL0     C19055   9.846   9.112  11.616 -0.3933  0.2604  0.9138
  139MOL0     C19056   9.938   9.074  11.727 -0.1122  0.4580 -0.5072
  139MOL0     C19057  10.088   9.041  11.690 -0.7560  1.0645  0.7439
  139MOL0     C19058  10.109   8.929  11.584  0.0294  0.4001  0.0525
  139MOL0     C19059  10.074   8.796  11.630 -0.4157 -0.1999 -0.7381
  139MOL0     C19060  10.154   8.681  11.553 -0.2394 -0.3786  0.0821
  139MOL0     N19061  10.102   8.678  11.413  0.1211  0.1503  0.2201
  139MOL0     C19062  10.168   8.715  11.299 -0.5842 -0.1130 -0.8906
  139MOL0     C19063  10.079   8.769  11.220  0.0772  0.0310  0.5768
  139MOL0     C19064  10.122   8.836  11.085  0.6718  0.0189 -0.2627
  139MOL0     C19065  10.150   8.720  10.994 -0.2914  0.6204  0.7423
  139MOL0     C19066  10.157   8.753  10.849  0.0787  0.2717  0.2294
  139MOL0     C19067  10.214   8.639  10.768  0.9146  0.1190  0.2919
  139MOL0     O19068  10.129   8.516  10.783 -0.6865 -0.2487  0.0813
  139MOL0     C19069  10.189   8.392  10.801 -0.1637  0.4676 -0.6050
  139MOL0     C19070  10.117   8.306  10.879 -0.5067  0.1563  0.0651
  139MOL0     C19071  10.143   8.171  10.901 -0.3789  1.1151  0.1014
  139MOL0     C19072  10.055   8.088  10.994 -0.2203  0.3373  0.1980
  139MOL0     C19073  10.261   8.130  10.834  0.2099 -0.4551  0.4407
  139MOL0     C19074  10.323   7.995  10.852 -0.0410 -0.2709 -0.2506
  139MOL0     O19075  10.458   7.995  10.882  0.7742 -0.2432  0.4521
  139MOL0     C19076  10.535   7.902  10.816 -0.9260 -0.1944 -0.0693
  139MOL0     C19077  10.526   7.764  10.841  0.2573  0.3910 -0.1225
  139MOL0     C19078  10.598   7.669  10.773  1.3123  0.0101 -0.1832
  139MOL0     C19079  10.683   7.712  10.668 -0.1915 -0.0065 -0.7506
  139MOL0     O19080  10.767   7.632  10.602  0.2618  0.2508 -0.1269
  139MOL0     C19081  10.754   7.489  10.601  0.7172 -0.3305  0.5483
  139MOL0     C19082  10.624   7.431  10.554  0.1992  0.1538 -0.8083
  139MOL0     C19083  10.607   7.284  10.580  0.0128 -0.0584 -0.2750
  139MOL0     C19084  10.724   7.197  10.540 -0.5338 -1.0879 -0.0770
  139MOL0     C19085  10.723   7.049  10.584 -0.1391  0.1849 -0.2607
  139MOL0     C19086  10.684   7.008  10.731 -0.1646 -0.0185  0.3303
  139MOL0     C19087  10.693   6.854  10.748  0.3991 -0.0534 -0.1287
  139MOL0     C19088  10.704   6.823  10.898 -1.5955 -0.3718  0.0871
  139MOL0    Cl19089  10.566   6.884  10.990  0.0825 -0.2883 -0.1249
  139MOL0     C19090  10.700   7.850  10.645  0.1776 -0.0588  0.1251
  139MOL0     C19091  10.624   7.944  10.716  0.6937 -0.2780  0.1592
  139MOL0     O19092  10.241   7.904  10.850  0.0948  0.2344 -0.7099
  139MOL0     C19093  10.337   8.214  10.757 -0.0586  0.0801 -0.4714
  139MOL0     C19094  10.307   8.350  10.744 -0.1521  1.2619 -0.5761
  139MOL0     N19095   9.951   8.742  11.269  0.4084  0.0564  0.3111
  139MOL0     N19096   9.970   8.685  11.378 -0.8796  0.0503 -0.4881
  139MOL0     C19097   9.711   9.352  11.256  0.0067  0.1672  0.2294
  139MOL0     C19098   9.767   9.338  11.124  0.5684 -0.8621  0.2185
  139MOL0     C19099  10.016   9.107  10.774 -0.5980  0.7136 -0.4644
  139MOL0     C19100  10.120   9.202  10.793 -0.0360  0.2103  0.0859
  139MOL0     C19101  10.242   9.188  10.724 -0.6587 -0.1353 -0.4320
  139MOL0     C19102  10.253   9.092  10.623 -0.2410  0.6903  0.0369
  139MOL0     O19103  10.368   9.057  10.555 -0.5134  0.0238  0.7907
  139MOL0     C19104  10.450   9.165  10.522 -1.1687 -0.3579  0.6622
  139MOL0     C19105  10.396   9.263  10.423  0.4386 -0.3998  0.0331
  139MOL0     C19106  10.361   9.194  10.292  0.0240  0.0958  0.3582
  139MOL0     C19107  10.480   9.132  10.208  0.6117 -0.6917 -0.3511
  139MOL0     C19108  10.588   9.226  10.192  0.3168 -0.4002  0.4749
  139MOL0     C19109  10.683   9.307  10.197  0.1470 -0.1429 -0.1650
  139MOL0     C19110  10.145   9.012  10.593  0.7657 -0.7745  0.1474
  139MOL0     C19111  10.027   9.018  10.665  1.2163  0.4044  0.3806
  139MOL0     C19112   9.912   8.928  10.626 -0.3137  0.4816 -0.0286
  139MOL0     H19113   9.832   9.008  11.116  0.5851  0.3523  0.7969
  139MOL0     H19114   9.707   9.012  11.320  4.0039 -1.8620  1.0085
  139MOL0     H19115   9.594   9.050  11.474  1.0253 -0.1930  0.7518
  139MOL0     H19116   9.502   9.155  11.579 -0.1546 -3.9773  1.6778
  139MOL0     H19117   9.673   9.192  11.726 -2.7091  0.7440 -2.4958
  139MOL0     H19118   9.689   9.013  11.703 -0.5210 -1.4167 -2.9473
  139MOL0     H19119   9.854   9.042  11.533 -2.7353 -0.2276  1.0502
  139MOL0     H19120   9.873   9.214  11.587 -0.6427  0.6278  1.9417
  139MOL0     H19121   9.933   9.157  11.799  1.0075  0.8330 -0.8438
  139MOL0     H19122   9.894   8.982  11.766 -2.4975  1.1047 -1.4692
  139MOL0     H19123  10.143   9.025  11.783  2.0071 -0.5863 -1.0323
  139MOL0     H19124  10.139   9.131  11.655 -0.5440  0.2331 -1.2253
  139MOL0     H19125  10.048   8.939  11.494  2.6719 -2.2378 -2.2409
  139MOL0     H19126  10.212   8.945  11.550  0.1560 -0.2956  0.0902
  139MOL0     H19127   9.964   8.795  11.629 -0.5618  1.1080  2.1610
  139MOL0     H19128  10.109   8.782  11.733 -1.8228  0.3975 -0.1555
  139MOL0     H19129  10.259   8.706  11.571 -1.0760  2.3679  1.7591
  139MOL0     H19130  10.129   8.586  11.599  2.5762 -1.6025 -0.6992
  139MOL0     H19131  10.273   8.698  11.279 -0.6677 -3.4955  0.8168
  139MOL0     H19132  10.206   8.901  11.113  0.2174  0.7281 -0.5488
  139MOL0     H19133  10.036   8.893  11.049 -1.3510 -1.5790  1.7663
  139MOL0     H19134  10.244   8.672  11.024 -0.0386 -0.5772 -1.7007
  139MOL0     H19135  10.077   8.639  11.001  1.3822 -1.2737 -1.8818
  139MOL0     H19136  10.057   8.770  10.808  1.2057  0.2026 -2.8018
  139MOL0     H19137  10.223   8.839  10.833  0.2090  0.1313  0.0039
  139MOL0     H19138  10.201   8.667  10.663  0.3341  0.3985  0.4318
  139MOL0     H19139  10.318   8.621  10.795  0.2557 -0.3924  2.7650
  139MOL0     H19140  10.031   8.352  10.926  0.0053  0.2049  0.9868
  139MOL0     H19141  10.101   8.090  11.092 -0.8219  1.1565  0.4693
  139MOL0     H19142  10.027   7.989  10.954  0.1083 -0.3230  1.5542
  139MOL0     H19143   9.964   8.147  11.007  0.2516  0.6407  2.5541
  139MOL0     H19144  10.456   7.727  10.914  0.7128  3.9583  2.3765
  139MOL0     H19145  10.575   7.568  10.803 -0.2875 -0.0391 -1.4471
  139MOL0     H19146  10.836   7.464  10.533  3.0390  0.7343  2.7830
  139MOL0     H19147  10.787   7.448  10.697 -2.3806 -1.6894  1.1534
  139MOL0     H19148  10.535   7.480  10.594  1.5856  0.5788  1.9322
  139MOL0     H19149  10.612   7.458  10.448 -3.2335  2.5385  0.0054
  139MOL0     H19150  10.516   7.260  10.524 -0.3070 -1.2059  0.6912
  139MOL0     H19151  10.577   7.268  10.684  0.3491  0.0715 -0.1580
  139MOL0     H19152  10.810   7.239  10.594 -0.8237 -1.2107  0.4907
  139MOL0     H19153  10.751   7.222  10.437 -0.3592 -0.3565  0.1391
  139MOL0     H19154  10.664   6.988  10.515  0.4473 -0.8862  0.1566
  139MOL0     H19155  10.825   7.013  10.569 -0.2355 -0.4247  0.4474
  139MOL0     H19156  10.579   7.029  10.757 -0.6724  0.0253 -1.5553
  139MOL0     H19157  10.743   7.071  10.798 -0.6317  2.0231 -1.0630
  139MOL0     H19158  10.784   6.824  10.695  0.9322  1.6512 -0.2339
  139MOL0     H19159  10.607   6.801  10.704 -0.9254  2.6264 -0.9716
  139MOL0     H19160  10.787   6.888  10.928 -2.2563  2.3136 -3.3019
  139MOL0     H19161  10.730   6.720  10.921  0.6855  0.0831 -0.2086
  139MOL0     H19162  10.763   7.879  10.562 -1.7159  0.0325 -1.3499
  139MOL0     H19163  10.635   8.047  10.685 -0.7494  0.5789  2.2548
  139MOL0     H19164  10.430   8.177  10.715  1.0658 -0.1421  2.0215
  139MOL0     H19165  10.369   8.415  10.683  0.3682  1.1137 -0.2084
  139MOL0     H19166   9.681   9.436  11.317 -1.3216 -0.6759  0.7970
  139MOL0     H19167   9.785   9.432  11.073  0.9846 -0.1630  1.6010
  139MOL0     H19168  10.127   9.275  10.872  0.0129 -0.5224  0.7711
  139MOL0     H19169  10.329   9.248  10.748 -1.2276  0.7345 -0.4938
  139MOL0     H19170  10.479   9.225  10.610  1.1482 -0.6090  0.1409
  139MOL0     H19171  10.545   9.126  10.486 -1.6991 -4.4933  3.1489
  139MOL0     H19172  10.465   9.346  10.408 -0.1600  0.0839 -0.0385
  139MOL0     H19173  10.307   9.309  10.466  1.7695 -1.5316  4.6379
  139MOL0     H19174  10.295   9.111  10.317  0.4048 -0.6325 -0.9726
  139MOL0     H19175  10.296   9.261  10.236 -0.0566  0.0895  0.4449
  139MOL0     H19176  10.443   9.096  10.112 -0.1067 -0.6557 -0.0991
  139MOL0     H19177  10.514   9.039  10.256  0.9825  0.7723  2.3948
  139MOL0     H19178  10.768   9.372  10.208 -1.2500  1.6106  0.6786
  139MOL0     H19179  10.153   8.935  10.516 -0.5881 -2.0205  1.1880
  139MOL0     H19180   9.863   8.862  10.698  1.5788 -3.2747 -1.8539
  139MOL0     H19181   9.830   8.991  10.590 -2.4278 -1.1861  1.6239
  139MOL0     H19182   9.952   8.873  10.540  0.6732  0.6561  0.3027
  140MOL0     O19183   4.161   2.480   7.021 -0.7259 -0.5696  0.1872
  140MOL0     C19184   4.081   2.492   7.110 -0.0490 -0.2344 -0.5617
  140MOL0     O19185   4.106   2.534   7.240 -0.3483 -0.7279  0.0655
  140MOL0     C19186   4.225   2.524   7.314 -0.6037  0.1498  0.3770
  140MOL0     C19187   4.338   2.452   7.268 -0.7700  0.5048  0.6967
  140MOL0     C19188   4.455   2.443   7.339  0.0517  0.0690 -0.9735
  140MOL0     C19189   4.459   2.494   7.472 -0.3997 -0.8574 -0.1704
  140MOL0     O19190   4.581   2.484   7.537 -0.2312 -0.2888 -0.2934
  140MOL0     C19191   4.600   2.565   7.663 -0.3813 -0.4154 -0.2175
  140MOL0     C19192   4.751   2.581   7.688  0.1564  0.0045  1.2955
  140MOL0     C19193   4.813   2.454   7.739 -0.0903  0.1334  0.6270
  140MOL0     C19194   4.957   2.467   7.776 -0.5723  0.3356 -0.0211
  140MOL0     C19195   4.990   2.358   7.873 -0.8336  0.5030 -0.0603
  140MOL0     C19196   5.139   2.363   7.896 -0.2548  1.2499  0.3838
  140MOL0     C19197   5.226   2.295   7.789 -0.3954 -0.0782  0.2676
  140MOL0     C19198   5.295   2.175   7.844 -0.8057  0.1963 -0.8867
  140MOL0     N19199   5.378   2.099   7.750 -0.0690  0.0791  0.2040
  140MOL0     C19200   5.364   2.112   7.609  1.0330 -0.3825 -0.8931
  140MOL0     C19201   5.482   2.071   7.561 -0.1843 -0.4391 -0.5045
  140MOL0     C19202   5.541   2.089   7.421 -0.5498 -0.3187 -0.2362
  140MOL0     C19203   5.569   1.970   7.335  0.5036 -0.3413 -0.1334
  140MOL0     C19204   5.589   1.984   7.182 -0.2415 -0.1017 -0.2528
  140MOL0     C19205   5.732   2.020   7.151 -0.3519  0.3658  0.4994
  140MOL0     O19206   5.803   1.896   7.173  0.1701 -0.0526 -0.1513
  140MOL0     C19207   5.935   1.891   7.153 -0.2356  0.8079 -0.6401
  140MOL0     C19208   5.996   1.781   7.217 -0.4139  0.3722  0.1149
  140MOL0     C19209   6.137   1.765   7.203  0.3562  0.3698  0.2337
  140MOL0     C19210   6.191   1.644   7.278 -0.8020 -0.2105  1.1551
  140MOL0     C19211   6.217   1.863   7.134  1.1786 -0.0811  0.0397
  140MOL0     C19212   6.362   1.853   7.127  0.4422  0.3272 -0.0760
  140MOL0     O19213   6.423   1.938   7.046 -0.6212 -0.2360 -0.1846
  140MOL0     C19214   6.561   1.950   7.052 -0.0981 -0.1974  0.1256
  140MOL0     C19215   6.613   2.032   7.155 -0.5458 -0.1793  0.5106
  140MOL0     C19216   6.751   2.055   7.168  0.3948 -0.4241 -0.8010
  140MOL0     C19217   6.831   1.997   7.068 -0.2726  0.0645  0.0438
  140MOL0     O19218   6.968   2.007   7.080  0.4440  0.9145  0.1135
  140MOL0     C19219   7.027   2.136   7.048  0.5611  0.5821  0.3763
  140MOL0     C19220   7.059   2.146   6.894 -0.0812 -0.7000  0.3643
  140MOL0     C19221   7.110   2.278   6.839  0.7579 -0.5783 -0.1203
  140MOL0     C19222   7.220   2.343   6.935  0.2391  0.7854  0.9338
  140MOL0     C19223   7.286   2.454   6.862 -0.6003  0.8054  0.1434
  140MOL0     C19224   7.422   2.404   6.804 -0.1758  0.0919 -0.9185
  140MOL0     C19225   7.468   2.513   6.706 -0.2893  0.4948  0.1513
  140MOL0     C19226   7.615   2.517   6.672  0.2344 -0.2108  0.5476
  140MOL0    Cl19227   7.660   2.679   6.602  0.6608 -0.4076 -0.0804
  140MOL0     C19228   6.780   1.918   6.966  0.0806  0.2515  0.6504
  140MOL0     C19229   6.646   1.889   6.955  0.6835  0.6400  0.2544
  140MOL0     O19230   6.419   1.788   7.215 -0.1129 -0.2456 -0.6738
  140MOL0     C19231   6.153   1.973   7.076 -0.3095  0.5737  0.3586
  140MOL0     C19232   6.017   1.987   7.096 -1.1243 -0.2094 -0.3786
  140MOL0     N19233   5.555   2.022   7.666 -0.0620  0.2650 -0.0357
  140MOL0     N19234   5.502   2.052   7.778 -0.5120  0.2344  0.0559
  140MOL0     C19235   4.352   2.571   7.517  0.9484 -0.5638  0.0689
  140MOL0     C19236   4.232   2.585   7.440 -0.5440 -0.1096  0.2294
  140MOL0     C19237   3.939   2.462   7.088 -0.5255 -0.8589  1.5816
  140MOL0     C19238   3.880   2.382   7.191 -0.7520  0.0744  0.3137
  140MOL0     C19239   3.753   2.323   7.166 -0.2770  0.8443 -0.0533
  140MOL0     C19240   3.676   2.348   7.045 -0.9045 -0.3259 -1.3276
  140MOL0     O19241   3.554   2.303   7.023  0.5363  0.7719  0.0614
  140MOL0     C19242   3.488   2.225   7.126 -0.3648  0.5714 -0.4984
  140MOL0     C19243   3.358   2.164   7.088 -0.5801  0.1898  0.0502
  140MOL0     C19244   3.270   2.273   7.017  0.0433  0.9678  0.7163
  140MOL0     C19245   3.123   2.229   7.008  0.0403  0.6490  0.4639
  140MOL0     C19246   3.122   2.131   6.901 -0.2210 -1.2148 -1.1438
  140MOL0     C19247   3.108   2.053   6.811  0.2784 -0.2048 -0.0790
  140MOL0     C19248   3.743   2.428   6.948  0.1548  0.9718  0.0661
  140MOL0     C19249   3.876   2.482   6.964  0.4796  0.3101 -0.5190
  140MOL0     C19250   3.929   2.561   6.852 -0.8038  0.0750  0.0213
  140MOL0     H19251   4.343   2.397   7.175 -0.3578  1.4139  0.1798
  140MOL0     H19252   4.535   2.386   7.294  1.4621  0.2797  1.1156
  140MOL0     H19253   4.547   2.521   7.748  0.7390  0.1574  0.8045
  140MOL0     H19254   4.545   2.660   7.656 -1.6353 -1.1348 -0.5484
  140MOL0     H19255   4.805   2.625   7.604 -0.3787  2.7357  2.2838
  140MOL0     H19256   4.755   2.645   7.776 -1.5177  0.8491  0.8110
  140MOL0     H19257   4.762   2.417   7.828 -1.7801  0.1623 -0.2890
  140MOL0     H19258   4.793   2.368   7.674 -1.6344 -0.8159  2.2836
  140MOL0     H19259   5.020   2.459   7.686  0.6838 -1.2743  0.9624
  140MOL0     H19260   4.969   2.561   7.832 -0.4842 -0.1191  0.7259
  140MOL0     H19261   4.961   2.260   7.834  0.3968  0.2074 -0.2894
  140MOL0     H19262   4.940   2.371   7.970  0.1566  1.3807  0.3453
  140MOL0     H19263   5.166   2.469   7.890  2.9939  0.4641 -1.1703
  140MOL0     H19264   5.165   2.329   7.997 -0.4654  1.0102  0.3586
  140MOL0     H19265   5.303   2.367   7.759 -0.0035 -1.0942 -1.2845
  140MOL0     H19266   5.169   2.272   7.698  1.0532 -0.1682 -0.6475
  140MOL0     H19267   5.340   2.186   7.943 -0.9048  1.5413 -0.9803
  140MOL0     H19268   5.211   2.107   7.865 -2.3736  0.6866 -4.7864
  140MOL0     H19269   5.283   2.154   7.550 -0.3672 -0.2215  1.0346
  140MOL0     H19270   5.632   2.149   7.419  0.8432 -2.3251  0.1367
  140MOL0     H19271   5.463   2.149   7.372  1.2643  1.3904 -1.1760
  140MOL0     H19272   5.648   1.911   7.382 -2.1429 -3.2707  0.9579
  140MOL0     H19273   5.477   1.911   7.340  1.0583 -1.1034  2.7063
  140MOL0     H19274   5.557   1.894   7.128  1.3964  0.0903 -1.6230
  140MOL0     H19275   5.526   2.067   7.148 -0.3191  0.8296  2.0254
  140MOL0     H19276   5.728   2.063   7.051  0.1891 -0.6089  0.0485
  140MOL0     H19277   5.779   2.094   7.216  3.7258 -1.1652 -0.3974
  140MOL0     H19278   5.937   1.706   7.269 -1.6515  1.5971  0.5207
  140MOL0     H19279   6.265   1.590   7.218 -0.7314  0.4847  0.6059
  140MOL0     H19280   6.113   1.573   7.308  1.8067 -2.6003  2.7332
  140MOL0     H19281   6.247   1.674   7.367  3.8793 -3.4145 -0.3132
  140MOL0     H19282   6.538   2.073   7.221 -1.0920  0.2912 -0.3877
  140MOL0     H19283   6.788   2.117   7.248  0.6071 -0.2580 -1.0277
  140MOL0     H19284   6.962   2.218   7.080  0.2825  0.8152 -0.7612
  140MOL0     H19285   7.115   2.149   7.113  1.3099 -0.8117 -0.3170
  140MOL0     H19286   7.131   2.070   6.864 -0.7421 -0.4454 -2.0747
  140MOL0     H19287   6.963   2.130   6.843 -0.9165  1.6662  1.0402
  140MOL0     H19288   7.024   2.345   6.832  1.6735  0.6432  0.0935
  140MOL0     H19289   7.135   2.269   6.733 -1.9442 -2.4243 -0.6991
  140MOL0     H19290   7.290   2.263   6.962 -1.1739 -0.3951  1.2205
  140MOL0     H19291   7.176   2.377   7.029 -1.3510 -0.2323  0.5797
  140MOL0     H19292   7.225   2.498   6.783  2.5569 -0.1414 -3.0667
  140MOL0     H19293   7.312   2.541   6.923  0.9272  0.2883  0.2659
  140MOL0     H19294   7.404   2.313   6.747  0.6682 -0.3499 -0.5049
  140MOL0     H19295   7.488   2.384   6.890 -2.5356  2.1957  1.5650
  140MOL0     H19296   7.447   2.611   6.749  1.4497  1.0572 -0.2032
  140MOL0     H19297   7.424   2.493   6.608  1.7442 -2.8173 -0.2567
  140MOL0     H19298   7.634   2.439   6.597  3.2312 -0.5595  1.5304
  140MOL0     H19299   7.673   2.500   6.763 -1.5112 -0.9700  1.5815
  140MOL0     H19300   6.855   1.891   6.892  0.6880 -0.4733  1.4916
  140MOL0     H19301   6.611   1.832   6.870  1.6032  2.1091 -1.1839
  140MOL0     H19302   6.217   2.050   7.034 -1.1170  0.9336 -0.2416
  140MOL0     H19303   5.969   2.076   7.058 -1.6962  0.2250  1.2970
  140MOL0     H19304   4.358   2.607   7.619 -2.1241 -0.1403  0.2141
  140MOL0     H19305   4.153   2.647   7.482  1.0924  1.4617  1.1634
  140MOL0     H19306   3.939   2.358   7.279 -0.0499  1.3125  0.2100
  140MOL0     H19307   3.693   2.265   7.235 -3.0123  3.9936  0.4776
  140MOL0     H19308   3.557   2.140   7.133  1.7684  2.2004 -0.7769
  140MOL0     H19309   3.469   2.277   7.220 -0.1303  1.9212 -1.1719
  140MOL0     H19310   3.311   2.121   7.178  0.9607  0.4531  1.0067
  140MOL0     H19311   3.370   2.080   7.019 -0.9053 -1.1339  1.5561
  140MOL0     H19312   3.281   2.361   7.081  0.7412  2.1260 -0.9148
  140MOL0     H19313   3.317   2.295   6.921  1.8218 -0.6886  1.1314
  140MOL0     H19314   3.061   2.311   6.970 -0.2095 -0.7780 -2.5190
  140MOL0     H19315   3.087   2.183   7.100 -0.1651  2.6617  1.4380
  140MOL0     H19316   3.079   1.984   6.734 -0.6547 -2.4686  2.1545
  140MOL0     H19317   3.700   2.437   6.848  3.2999  1.2002 -1.3922
  140MOL0     H19318   3.847   2.614   6.802 -2.8438 -1.7195  1.2860
  140MOL0     H19319   3.991   2.639   6.899 -0.3080  1.0875 -2.1889
  140MOL0     H19320   3.999   2.500   6.795  2.0069  0.7173  2.4963
  141MOL0     O19321   1.822   0.245   3.301  0.1918  0.5299  0.8961
  141MOL0     C19322   1.779   0.222   3.409 -0.7167  0.5535  0.1523
  141MOL0     O19323   1.842   0.260   3.528 -0.0091 -0.1985  0.3998
  141MOL0     C19324   1.977   0.278   3.544  0.0728 -0.3556 -0.2935
  141MOL0     C19325   2.009   0.345   3.667 -0.0156  0.3938 -0.2700
  141MOL0     C19326   2.143   0.347   3.705 -0.0206  0.5874  0.3927
  141MOL0     C19327   2.249   0.290   3.626 -0.0077 -0.4559  0.1233
  141MOL0     O19328   2.381   0.313   3.663 -0.3874 -0.0877 -0.2814
  141MOL0     C19329   2.488   0.322   3.563  0.1652  0.2414  0.5578
  141MOL0     C19330   2.615   0.389   3.618  0.3146 -0.3196 -0.1487
  141MOL0     C19331   2.668   0.309   3.737  0.0098 -0.5836 -0.1897
  141MOL0     C19332   2.691   0.160   3.720  0.7363  0.9661 -0.0380
  141MOL0     C19333   2.785   0.114   3.838 -0.0081 -0.5293  0.3378
  141MOL0     C19334   2.940   0.142   3.814 -0.1322  0.7789  0.8995
  141MOL0     C19335   3.024   0.095   3.926 -0.2354  1.3012 -0.5994
  141MOL0     C19336   3.048   0.182   4.049  0.7522  0.1068  0.0939
  141MOL0     N19337   3.150   0.134   4.148 -0.4438 -0.3618 -0.4786
  141MOL0     C19338   3.159   0.023   4.217 -0.3915  0.0440 -0.4666
  141MOL0     C19339   3.288   0.021   4.261 -0.5195  1.0258 -0.0282
  141MOL0     C19340   3.343  -0.097   4.351 -0.0770  0.3974 -0.2170
  141MOL0     C19341   3.493  -0.127   4.352  1.1420 -0.0112  0.4334
  141MOL0     C19342   3.517  -0.254   4.436 -0.5984  0.1636  0.9894
  141MOL0     C19343   3.661  -0.275   4.437  0.4422 -0.1381  0.3578
  141MOL0     O19344   3.703  -0.355   4.546 -0.0633  0.1331 -0.1848
  141MOL0     C19345   3.698  -0.497   4.542  0.0404 -0.7911 -0.1454
  141MOL0     C19346   3.659  -0.578   4.429  0.2587  0.0039 -0.1068
  141MOL0     C19347   3.657  -0.721   4.430  0.2692 -0.0043 -0.6119
  141MOL0     C19348   3.628  -0.783   4.298  0.7186  0.0639  0.3171
  141MOL0     C19349   3.691  -0.785   4.551  0.5743 -0.4436 -0.2957
  141MOL0     C19350   3.713  -0.936   4.561 -0.1029  0.3092 -0.4265
  141MOL0     O19351   3.632  -1.031   4.502  1.4595 -0.4893 -0.6571
  141MOL0     C19352   3.679  -1.162   4.493 -0.2519 -0.3206 -0.0343
  141MOL0     C19353   3.682  -1.225   4.361 -1.1971 -1.0257 -0.5001
  141MOL0     C19354   3.733  -1.352   4.350 -0.1198  1.3255 -0.7234
  141MOL0     C19355   3.765  -1.422   4.467  0.0472 -1.5194  0.3963
  141MOL0     O19356   3.804  -1.550   4.448  0.5034 -0.3541  0.2237
  141MOL0     C19357   3.817  -1.639   4.553  0.3954 -0.2245 -0.5536
  141MOL0     C19358   3.842  -1.772   4.493  0.5624  1.0883  0.0802
  141MOL0     C19359   3.986  -1.817   4.519  0.8897 -0.7590 -0.2360
  141MOL0     C19360   4.034  -1.943   4.446  0.5502 -1.4330 -0.4349
  141MOL0     C19361   3.977  -2.075   4.509 -0.1843  0.0079  0.0951
  141MOL0     C19362   4.051  -2.202   4.450 -0.3539 -0.1851 -0.1821
  141MOL0     C19363   4.074  -2.319   4.546 -0.5264 -0.9796  0.3683
  141MOL0     C19364   4.171  -2.431   4.499 -0.6574 -0.0881  0.4300
  141MOL0    Cl19365   4.321  -2.362   4.430  0.3088 -0.1442  0.1226
  141MOL0     C19366   3.758  -1.367   4.599  0.8176 -0.1803 -0.7528
  141MOL0     C19367   3.714  -1.235   4.607  0.0944  0.3478  0.2567
  141MOL0     O19368   3.817  -0.962   4.618  0.4110  0.5629  0.4218
  141MOL0     C19369   3.714  -0.705   4.666 -1.1409 -0.6536 -0.6289
  141MOL0     C19370   3.731  -0.563   4.659 -0.1064  0.1784 -1.0638
  141MOL0     N19371   3.356   0.134   4.225 -0.8919 -0.1060 -0.0689
  141MOL0     N19372   3.269   0.207   4.157  0.1996  0.4705 -0.8857
  141MOL0     C19373   2.209   0.210   3.515 -1.4542 -1.1285  0.0151
  141MOL0     C19374   2.078   0.203   3.477  0.3529 -0.1966 -1.5777
  141MOL0     C19375   1.635   0.180   3.414  0.0206 -0.5578  0.0393
  141MOL0     C19376   1.570   0.132   3.299 -0.2511 -0.5466 -0.6661
  141MOL0     C19377   1.445   0.073   3.299 -0.1792 -0.2800  0.3391
  141MOL0     C19378   1.373   0.066   3.415 -0.3265  0.2733 -0.6469
  141MOL0     O19379   1.248   0.012   3.402 -0.4934  0.4114  0.3251
  141MOL0     C19380   1.193  -0.053   3.508 -0.2344 -0.0304 -0.1066
  141MOL0     C19381   1.045  -0.046   3.479  0.2663 -0.8317  0.3995
  141MOL0     C19382   1.023  -0.157   3.379  1.3676  0.7326  0.0597
  141MOL0     C19383   0.884  -0.211   3.381 -0.4683 -0.4175  0.1979
  141MOL0     C19384   0.873  -0.326   3.286  0.1811  0.8377 -0.1541
  141MOL0     C19385   0.844  -0.423   3.213 -0.4148  0.6024 -0.2241
  141MOL0     C19386   1.427   0.130   3.530 -0.3038 -0.4509  0.3685
  141MOL0     C19387   1.559   0.191   3.534  0.5515  0.7709  0.0888
  141MOL0     C19388   1.599   0.269   3.662 -0.0346 -0.4661  0.3486
  141MOL0     H19389   1.934   0.395   3.727 -0.0998 -1.9590  1.7494
  141MOL0     H19390   2.164   0.386   3.805 -1.5427  1.2138  0.4926
  141MOL0     H19391   2.448   0.366   3.471 -0.1241 -1.9654 -0.4407
  141MOL0     H19392   2.514   0.219   3.534 -2.3760 -0.0993 -0.7289
  141MOL0     H19393   2.690   0.381   3.538 -0.0163  4.5370 -1.2836
  141MOL0     H19394   2.597   0.492   3.650 -0.9417 -0.5433 -0.0991
  141MOL0     H19395   2.756   0.366   3.770  1.0728 -2.1973 -0.1088
  141MOL0     H19396   2.601   0.322   3.823  0.3243 -0.2571  0.0102
  141MOL0     H19397   2.601   0.098   3.717  2.4358 -1.6616 -3.4803
  141MOL0     H19398   2.741   0.137   3.626  0.9689 -0.9020  0.5045
  141MOL0     H19399   2.762   0.007   3.844 -1.3128 -0.4073 -1.5596
  141MOL0     H19400   2.756   0.152   3.936 -1.4460 -1.5658  0.3428
  141MOL0     H19401   2.976   0.113   3.715 -2.5192  1.9147 -0.3889
  141MOL0     H19402   2.956   0.251   3.817  1.6108  0.5466  1.7734
  141MOL0     H19403   3.124   0.087   3.884  0.3914  2.3054  0.6322
  141MOL0     H19404   2.996  -0.008   3.952  2.7191  0.0456 -1.9560
  141MOL0     H19405   3.093   0.274   4.008  0.0134  0.8166  0.8365
  141MOL0     H19406   2.955   0.199   4.104  0.6097  2.2961 -0.6937
  141MOL0     H19407   3.082  -0.049   4.242  0.8346 -1.2974 -0.4194
  141MOL0     H19408   3.301  -0.195   4.328  2.9610 -1.0352 -0.1546
  141MOL0     H19409   3.305  -0.073   4.451  2.9090 -1.7798  1.6342
  141MOL0     H19410   3.535  -0.132   4.251  2.7288 -1.0731  1.1150
  141MOL0     H19411   3.552  -0.048   4.399  1.6830 -0.8270  1.1531
  141MOL0     H19412   3.471  -0.244   4.535  0.0721  0.1953  1.3038
  141MOL0     H19413   3.474  -0.343   4.391 -0.9962 -0.0267  1.7252
  141MOL0     H19414   3.699  -0.323   4.346 -2.5882  0.0870 -1.1444
  141MOL0     H19415   3.722  -0.185   4.447  0.6065 -0.2356  0.2339
  141MOL0     H19416   3.628  -0.525   4.340  0.0871 -1.3725 -0.8862
  141MOL0     H19417   3.686  -0.874   4.283 -1.2753 -1.2035  0.0082
  141MOL0     H19418   3.647  -0.711   4.218 -1.7895  0.0047 -0.4268
  141MOL0     H19419   3.522  -0.809   4.299  0.5810  0.5726  1.5778
  141MOL0     H19420   3.650  -1.170   4.274 -0.8127 -0.0582 -0.0403
  141MOL0     H19421   3.731  -1.417   4.263 -3.6229 -1.8424  1.4194
  141MOL0     H19422   3.901  -1.607   4.615 -0.4643  1.0417  0.0149
  141MOL0     H19423   3.729  -1.639   4.618  0.4556 -0.5078 -0.4699
  141MOL0     H19424   3.775  -1.848   4.535 -0.1345 -0.0673 -2.8706
  141MOL0     H19425   3.829  -1.765   4.385 -1.0642 -1.4077  0.0293
  141MOL0     H19426   4.011  -1.824   4.625  1.4063 -0.8178 -0.3560
  141MOL0     H19427   4.044  -1.731   4.483 -0.7929 -0.5712 -2.7780
  141MOL0     H19428   4.143  -1.938   4.446  0.5101  0.1320  0.4342
  141MOL0     H19429   3.999  -1.952   4.343 -2.6184 -0.7110  0.4612
  141MOL0     H19430   3.991  -2.058   4.616  2.5776 -1.7887  0.1103
  141MOL0     H19431   3.871  -2.083   4.486 -0.1102  1.0904 -0.7111
  141MOL0     H19432   4.146  -2.175   4.404 -1.2669  1.7781 -1.0293
  141MOL0     H19433   3.987  -2.231   4.366  1.2328 -1.1114 -1.1119
  141MOL0     H19434   3.976  -2.363   4.568 -1.3813  0.7947  0.2916
  141MOL0     H19435   4.122  -2.280   4.637 -1.1504 -1.5966  0.9755
  141MOL0     H19436   4.129  -2.502   4.428 -1.0245 -0.5713  1.1146
  141MOL0     H19437   4.197  -2.487   4.589 -2.4519  0.7645  1.5468
  141MOL0     H19438   3.779  -1.405   4.699  0.8477  1.4783 -0.0974
  141MOL0     H19439   3.719  -1.187   4.704 -1.8911  0.1349  0.4954
  141MOL0     H19440   3.749  -0.749   4.758  1.7845  1.5349 -0.5467
  141MOL0     H19441   3.765  -0.512   4.748  1.5393 -2.2265 -0.1943
  141MOL0     H19442   2.292   0.158   3.468  0.0922  0.3973  0.9391
  141MOL0     H19443   2.051   0.144   3.390 -0.2595  1.1447 -2.3321
  141MOL0     H19444   1.620   0.143   3.203 -0.4610  2.5135 -0.5166
  141MOL0     H19445   1.408   0.032   3.205  2.3086 -0.3280 -0.7143
  141MOL0     H19446   1.240  -0.149   3.530  2.4925  1.5911  1.7950
  141MOL0     H19447   1.203   0.005   3.601  0.3650 -0.3832  0.0526
  141MOL0     H19448   1.013   0.051   3.440 -2.7059 -2.3666 -1.3722
  141MOL0     H19449   0.995  -0.057   3.576 -1.2529  1.6186 -0.0094
  141MOL0     H19450   1.032  -0.112   3.280 -2.4072 -1.2290 -1.3934
  141MOL0     H19451   1.092  -0.241   3.393 -0.9667 -1.4184 -0.5115
  141MOL0     H19452   0.830  -0.126   3.341  0.3511  1.4583  2.7778
  141MOL0     H19453   0.845  -0.238   3.480  1.0125 -1.6753  0.4839
  141MOL0     H19454   0.818  -0.506   3.152 -1.5124  1.2566 -0.6794
  141MOL0     H19455   1.374   0.129   3.625  0.4351 -0.7939  0.7849
  141MOL0     H19456   1.626   0.370   3.628 -1.3829 -0.8578 -2.1262
  141MOL0     H19457   1.507   0.294   3.715  0.1127 -2.0507  1.4139
  141MOL0     H19458   1.679   0.220   3.718  2.6119  2.1020 -0.9051
  142MOL0     O19459   9.360   4.690   2.104  0.5299  0.0722  0.3948
  142MOL0     C19460   9.321   4.602   2.018  1.1783 -0.2895  1.6771
  142MOL0     O19461   9.387   4.568   1.900 -0.0643  0.4015 -0.1139
  142MOL0     C19462   9.519   4.598   1.885  0.7449  0.3484 -0.3840
  142MOL0     C19463   9.622   4.569   1.979 -0.1546  0.6123  0.8910
  142MOL0     C19464   9.757   4.613   1.964  0.3692 -0.0569  0.1383
  142MOL0     C19465   9.797   4.673   1.842 -0.2259 -0.2033 -0.9189
  142MOL0     O19466   9.927   4.717   1.835  0.4867  0.1385 -0.1945
  142MOL0     C19467   9.965   4.788   1.711 -0.5047  0.4608 -0.0540
  142MOL0     C19468  10.115   4.812   1.711  0.2374  0.5136  0.0906
  142MOL0     C19469  10.166   4.872   1.581  1.2348  0.5818  0.8886
  142MOL0     C19470  10.318   4.891   1.589  0.1269  1.0347 -0.2259
  142MOL0     C19471  10.387   4.863   1.452  0.2605 -0.3952 -0.3477
  142MOL0     C19472  10.546   4.849   1.453  0.6669 -0.2651 -0.6523
  142MOL0     C19473  10.613   4.970   1.525 -0.1943  0.6900 -0.1313
  142MOL0     C19474  10.579   5.103   1.453 -0.9630  0.2687 -0.2896
  142MOL0     N19475  10.612   5.115   1.306  0.1914 -0.5827 -0.4912
  142MOL0     C19476  10.732   5.160   1.252  0.0631 -0.1776  0.0902
  142MOL0     C19477  10.717   5.151   1.116 -0.9578 -0.0111 -1.5055
  142MOL0     C19478  10.819   5.186   1.007  0.1801 -0.2517  0.6827
  142MOL0     C19479  10.878   5.071   0.920  0.5455  0.6099  0.5774
  142MOL0     C19480  10.764   5.035   0.822 -1.0929 -0.1963 -0.3267
  142MOL0     C19481  10.782   4.907   0.740 -0.1188  0.1592  0.2761
  142MOL0     O19482  10.787   4.796   0.831 -0.3503  0.0916  0.3314
  142MOL0     C19483  10.664   4.758   0.877 -0.1174 -0.2102  0.2081
  142MOL0     C19484  10.565   4.697   0.798  0.0165  0.0790 -0.0192
  142MOL0     C19485  10.454   4.634   0.848 -0.7401 -0.4667  0.2942
  142MOL0     C19486  10.366   4.566   0.752  0.0527 -0.3844  0.1254
  142MOL0     C19487  10.430   4.641   0.989 -0.1893 -0.2528  0.0449
  142MOL0     C19488  10.314   4.563   1.057 -0.0625  0.8760 -0.0572
  142MOL0     O19489  10.313   4.548   1.192  0.5014 -0.5123 -0.6417
  142MOL0     C19490  10.225   4.459   1.243  0.3079 -0.2853  0.0508
  142MOL0     C19491  10.221   4.324   1.211 -0.2174 -0.5733  0.9639
  142MOL0     C19492  10.140   4.228   1.273 -0.2302  0.2369 -0.0193
  142MOL0     C19493  10.054   4.272   1.380  0.2665 -0.8101  0.0927
  142MOL0     O19494   9.963   4.183   1.441  0.1241  0.5731  0.1123
  142MOL0     C19495   9.843   4.223   1.515 -0.2364 -0.1810 -0.8457
  142MOL0     C19496   9.780   4.106   1.585 -0.1660 -0.0518 -0.1274
  142MOL0     C19497   9.650   4.129   1.667  0.7402  0.6726  0.4159
  142MOL0     C19498   9.672   4.224   1.782  0.2061  0.1798 -0.3906
  142MOL0     C19499   9.546   4.247   1.862  0.5008  0.1521 -0.2418
  142MOL0     C19500   9.476   4.119   1.918 -0.0064 -0.2028  0.2479
  142MOL0     C19501   9.371   4.157   2.031 -0.1182 -0.4380 -0.2061
  142MOL0     C19502   9.266   4.038   2.059  0.5116 -0.2175  1.5085
  142MOL0    Cl19503   9.138   4.045   1.941  0.1880  0.5991  0.0314
  142MOL0     C19504  10.060   4.412   1.429 -0.0339  0.7247  0.0799
  142MOL0     C19505  10.143   4.502   1.355 -0.2758  0.0761  0.1384
  142MOL0     O19506  10.217   4.519   0.988 -0.1801 -0.1894 -0.7120
  142MOL0     C19507  10.523   4.709   1.073  0.2912  0.6413 -0.3668
  142MOL0     C19508  10.638   4.769   1.014  0.8102 -0.1600  1.1412
  142MOL0     N19509  10.592   5.109   1.099  0.0186 -0.4170  0.2383
  142MOL0     N19510  10.527   5.092   1.199 -0.5424  0.4433  0.1805
  142MOL0     C19511   9.689   4.690   1.751 -0.2264  0.1885  1.0032
  142MOL0     C19512   9.558   4.668   1.773  0.5635 -0.3881  0.6347
  142MOL0     C19513   9.172   4.561   2.024  0.1186 -0.3354 -0.6839
  142MOL0     C19514   9.136   4.462   1.937 -0.1830 -0.3323 -0.3322
  142MOL0     C19515   9.008   4.414   1.930 -0.0849 -0.6580 -0.7905
  142MOL0     C19516   8.911   4.467   2.018 -0.2401 -0.7098  0.0864
  142MOL0     O19517   8.785   4.414   2.009  0.0918  0.6893  0.2533
  142MOL0     C19518   8.691   4.443   2.112 -0.8216  0.1160  0.4266
  142MOL0     C19519   8.569   4.353   2.098  0.6660  0.7686  0.1152
  142MOL0     C19520   8.495   4.380   1.962 -0.2728  0.4216  0.0253
  142MOL0     C19521   8.393   4.270   1.943  0.1766 -0.4939 -0.0385
  142MOL0     C19522   8.300   4.323   1.837  0.4293  0.1118 -0.0812
  142MOL0     C19523   8.241   4.350   1.740  0.0876  0.0723  0.1249
  142MOL0     C19524   8.943   4.570   2.103 -0.0560  0.2645  0.3900
  142MOL0     C19525   9.074   4.625   2.110  0.7807 -0.2016  0.6580
  142MOL0     C19526   9.099   4.725   2.218  0.1970 -0.5223  0.1230
  142MOL0     H19527   9.587   4.538   2.077 -1.3623  0.0724  0.3176
  142MOL0     H19528   9.821   4.621   2.051 -0.4452  1.6796  0.6073
  142MOL0     H19529   9.908   4.880   1.699 -1.2662 -0.0237 -0.2319
  142MOL0     H19530   9.932   4.713   1.638  0.1397 -0.9697  1.0751
  142MOL0     H19531  10.137   4.878   1.796  0.7531 -0.9355  1.1297
  142MOL0     H19532  10.164   4.716   1.730  0.3888  0.4766 -0.4921
  142MOL0     H19533  10.130   4.806   1.502 -0.9401  3.6674 -0.9216
  142MOL0     H19534  10.111   4.965   1.564 -0.0891 -0.3500 -0.1542
  142MOL0     H19535  10.329   4.996   1.616 -0.0561  0.8059  0.7725
  142MOL0     H19536  10.360   4.822   1.663 -2.2100 -3.0850 -2.3907
  142MOL0     H19537  10.360   4.951   1.393  2.0227  2.5031  2.8550
  142MOL0     H19538  10.340   4.775   1.405  3.6518 -2.0037 -1.0627
  142MOL0     H19539  10.575   4.755   1.499 -0.0228  0.4467  1.3567
  142MOL0     H19540  10.581   4.839   1.349 -0.7633 -2.8107 -0.9802
  142MOL0     H19541  10.721   4.951   1.517 -0.5110 -0.8239 -1.1190
  142MOL0     H19542  10.591   4.978   1.632  1.1817  1.0330  0.1561
  142MOL0     H19543  10.476   5.137   1.471 -0.1134  2.5935  0.5345
  142MOL0     H19544  10.634   5.184   1.502 -3.2223  2.3709 -0.9978
  142MOL0     H19545  10.820   5.194   1.304 -0.2844 -1.6443  1.7502
  142MOL0     H19546  10.900   5.234   1.064  1.6803 -2.9048  0.9458
  142MOL0     H19547  10.773   5.255   0.936  0.7309  0.1447  0.7046
  142MOL0     H19548  10.965   5.113   0.869  1.2658  2.5189  3.1600
  142MOL0     H19549  10.911   4.985   0.980  1.0168  0.0397 -0.4709
  142MOL0     H19550  10.672   5.019   0.879 -0.9229  1.9272  0.6391
  142MOL0     H19551  10.747   5.116   0.751  1.9175  1.2422  0.4401
  142MOL0     H19552  10.695   4.898   0.675  0.8083  1.2637 -1.2005
  142MOL0     H19553  10.868   4.913   0.673 -0.5925  0.6810 -0.3054
  142MOL0     H19554  10.585   4.674   0.693 -1.4509 -1.5071  0.0019
  142MOL0     H19555  10.387   4.596   0.648 -0.2752 -0.8255 -0.0685
  142MOL0     H19556  10.263   4.598   0.766 -0.3754 -1.1488 -1.1809
  142MOL0     H19557  10.362   4.457   0.763 -0.2365 -0.4757 -0.8335
  142MOL0     H19558  10.286   4.290   1.131 -1.5829  1.3848 -1.1105
  142MOL0     H19559  10.155   4.124   1.245 -3.1828 -0.0761 -0.7535
  142MOL0     H19560   9.865   4.294   1.596  1.9258 -1.8749  0.1507
  142MOL0     H19561   9.770   4.253   1.439 -2.9746 -1.1666  1.2467
  142MOL0     H19562   9.781   4.016   1.523  1.4653 -3.0931  3.9003
  142MOL0     H19563   9.857   4.083   1.659 -0.2734 -1.1721 -0.3536
  142MOL0     H19564   9.618   4.033   1.707  0.6568  1.6117  2.7266
  142MOL0     H19565   9.572   4.159   1.596 -0.6962 -0.4269  1.4811
  142MOL0     H19566   9.706   4.321   1.744 -0.3959  0.0684 -1.2413
  142MOL0     H19567   9.749   4.181   1.847 -2.9499 -3.3953  1.3122
  142MOL0     H19568   9.570   4.317   1.942  0.8869 -0.3376  0.0709
  142MOL0     H19569   9.465   4.298   1.808  0.4338  0.1522 -0.1429
  142MOL0     H19570   9.547   4.053   1.970 -2.2575 -1.8182  1.4503
  142MOL0     H19571   9.422   4.065   1.840 -2.8010  1.2362  1.0689
  142MOL0     H19572   9.312   4.241   1.994 -3.0946 -2.9767 -1.6884
  142MOL0     H19573   9.430   4.193   2.116  1.4300  2.5180 -2.3484
  142MOL0     H19574   9.222   4.051   2.158  1.1548  3.2343  1.4681
  142MOL0     H19575   9.320   3.944   2.052 -0.5944 -0.7546 -0.6868
  142MOL0     H19576   9.994   4.439   1.511 -1.9185 -2.7782 -0.1249
  142MOL0     H19577  10.160   4.604   1.388  3.1164 -0.3740  0.1258
  142MOL0     H19578  10.505   4.694   1.179 -1.2845 -0.9012 -0.8050
  142MOL0     H19579  10.715   4.817   1.075 -0.2769 -1.5827  3.7998
  142MOL0     H19580   9.723   4.724   1.654  0.4160  0.8524  1.4503
  142MOL0     H19581   9.481   4.707   1.708  1.1129  3.5315  2.0628
  142MOL0     H19582   9.209   4.419   1.869 -0.7397  0.3419 -1.3825
  142MOL0     H19583   8.974   4.338   1.861 -1.2977 -3.0346  2.1847
  142MOL0     H19584   8.733   4.417   2.209  0.5400  1.8507  0.3561
  142MOL0     H19585   8.659   4.548   2.110 -1.2058  0.0335  1.6104
  142MOL0     H19586   8.494   4.372   2.175  0.0916 -3.5060  0.8450
  142MOL0     H19587   8.601   4.249   2.114 -2.1244  0.3021  4.1190
  142MOL0     H19588   8.442   4.474   1.981  0.3298  0.6213  0.7870
  142MOL0     H19589   8.570   4.386   1.883  0.9474 -0.1942  1.0914
  142MOL0     H19590   8.341   4.245   2.035 -2.2183  3.4002 -0.1606
  142MOL0     H19591   8.437   4.175   1.911  1.3598  0.3772 -1.1248
  142MOL0     H19592   8.192   4.373   1.648 -1.2810  2.3654  1.3359
  142MOL0     H19593   8.862   4.616   2.159 -1.0076 -0.3215 -0.4939
  142MOL0     H19594   9.007   4.777   2.248  0.2835  0.6781 -1.5761
  142MOL0     H19595   9.146   4.668   2.299  0.0044 -1.3020 -0.3094
  142MOL0     H19596   9.155   4.813   2.184  0.0529 -1.2570 -2.1401
  143MOL0     O19597   6.377  10.238   7.354 -0.7900  0.3347  0.8706
  143MOL0     C19598   6.359  10.356   7.330 -0.6471 -0.0465 -1.2702
  143MOL0     O19599   6.461  10.455   7.332 -0.1991  0.0402 -0.4245
  143MOL0     C19600   6.588  10.421   7.354 -0.6819 -1.4128 -0.0633
  143MOL0     C19601   6.690  10.452   7.259  0.5945 -0.6693  0.3871
  143MOL0     C19602   6.821  10.421   7.298  0.5458 -0.9821 -0.4904
  143MOL0     C19603   6.860  10.369   7.422  0.0710  0.6777  0.4945
  143MOL0     O19604   6.984  10.354   7.476 -0.0962 -0.1962  0.0050
  143MOL0     C19605   7.107  10.384   7.403  0.2335 -0.1454 -0.0946
  143MOL0     C19606   7.233  10.329   7.483 -0.0699  0.1656  1.2727
  143MOL0     C19607   7.233  10.384   7.622 -0.4454 -0.3311 -0.4089
  143MOL0     C19608   7.363  10.356   7.698 -0.0778 -0.2707  0.1375
  143MOL0     C19609   7.370  10.389   7.852  0.2080  0.4160  0.5961
  143MOL0     C19610   7.450  10.290   7.934  0.3834 -0.4146 -0.6180
  143MOL0     C19611   7.610  10.298   7.909 -0.3197  0.3044  0.1570
  143MOL0     C19612   7.674  10.437   7.951  0.2676 -0.3812  0.2260
  143MOL0     N19613   7.815  10.443   7.927 -0.2533 -0.4357  0.5868
  143MOL0     C19614   7.920  10.414   8.013 -0.8220  0.8426 -0.7840
  143MOL0     C19615   8.035  10.442   7.935  0.5033  1.5649  0.2145
  143MOL0     C19616   8.172  10.423   7.984  0.6575  1.0094 -0.3840
  143MOL0     C19617   8.217  10.550   8.049 -0.2721  0.0715 -0.3507
  143MOL0     C19618   8.233  10.682   7.972 -0.1381  0.4466  0.3756
  143MOL0     C19619   8.312  10.673   7.840 -0.8870  0.4716 -0.0155
  143MOL0     O19620   8.426  10.598   7.858  0.3701  0.1320  0.2589
  143MOL0     C19621   8.537  10.624   7.783  0.6238 -0.2173 -0.1248
  143MOL0     C19622   8.548  10.582   7.647  0.3378 -0.4561 -0.6151
  143MOL0     C19623   8.658  10.615   7.571 -1.0020 -0.4785  0.6228
  143MOL0     C19624   8.664  10.545   7.432 -0.1518  0.4306  0.0194
  143MOL0     C19625   8.766  10.675   7.637 -0.0598  0.3030  0.1092
  143MOL0     C19626   8.894  10.715   7.563  0.3852  0.6719  1.3331
  143MOL0     O19627   8.890  10.737   7.433  0.0593  0.3900  0.0397
  143MOL0     C19628   8.995  10.762   7.348  0.3852  0.3382  0.7648
  143MOL0     C19629   8.996  10.685   7.230 -0.2043 -0.0742 -1.1503
  143MOL0     C19630   9.098  10.709   7.135  0.0551 -0.0877  0.8145
  143MOL0     C19631   9.195  10.805   7.153 -0.6077  0.4013 -1.1298
  143MOL0     O19632   9.301  10.815   7.066  0.6310  0.0249 -0.2448
  143MOL0     C19633   9.357  10.957   7.052  0.1105  0.5760  0.1052
  143MOL0     C19634   9.299  11.043   6.939 -0.2566  1.0147 -0.8582
  143MOL0     C19635   9.306  10.975   6.808  1.0732 -0.4340  0.3883
  143MOL0     C19636   9.241  11.054   6.699  0.2998 -0.1669  0.1242
  143MOL0     C19637   9.276  10.990   6.556 -0.0202  0.2897  0.6031
  143MOL0     C19638   9.233  11.077   6.438 -0.5778 -0.1192 -0.1212
  143MOL0     C19639   9.078  11.107   6.442  0.4888 -0.0277 -0.1263
  143MOL0     C19640   9.030  11.201   6.340  0.0001  0.3068  0.1804
  143MOL0    Cl19641   9.039  11.118   6.179 -0.6979 -0.1413  0.2691
  143MOL0     C19642   9.194  10.873   7.280 -0.3653 -0.1891 -0.0992
  143MOL0     C19643   9.091  10.853   7.374 -0.3475  0.3612 -0.0214
  143MOL0     O19644   8.991  10.707   7.628 -0.2630  0.1609  0.4313
  143MOL0     C19645   8.759  10.695   7.780  0.1880  0.1080 -0.3244
  143MOL0     C19646   8.647  10.675   7.854  0.5951 -0.6109  0.6607
  143MOL0     N19647   7.995  10.486   7.805 -0.3373  0.0601 -0.2484
  143MOL0     N19648   7.862  10.480   7.806  0.3737 -0.1193 -0.0454
  143MOL0     C19649   6.753  10.340   7.502  0.5682  0.6291 -0.2160
  143MOL0     C19650   6.621  10.368   7.476  0.6473 -1.1061  0.3507
  143MOL0     C19651   6.226  10.402   7.288 -0.2270 -0.0259  0.1272
  143MOL0     C19652   6.166  10.345   7.172 -0.3269  0.5810 -0.3956
  143MOL0     C19653   6.037  10.386   7.119  0.5507  0.2696  0.4362
  143MOL0     C19654   5.964  10.477   7.193  1.0739  0.2803  0.2152
  143MOL0     O19655   5.834  10.517   7.167  0.3225  0.0090  0.1619
  143MOL0     C19656   5.743  10.407   7.140 -0.8387  0.1251 -0.4616
  143MOL0     C19657   5.728  10.314   7.258  0.2254 -0.0513  0.5557
  143MOL0     C19658   5.697  10.381   7.389  0.0104 -0.6361 -0.3479
  143MOL0     C19659   5.728  10.296   7.513  0.4095 -0.2978  0.5064
  143MOL0     C19660   5.854  10.229   7.505  0.4904 -0.7188  0.2116
  143MOL0     C19661   5.956  10.163   7.491  0.5468 -0.6276  0.3856
  143MOL0     C19662   6.017  10.530   7.309  0.3090  0.1495  0.1949
  143MOL0     C19663   6.143  10.492   7.359 -0.3945  0.0601 -0.0379
  143MOL0     C19664   6.204  10.542   7.494 -0.1536  0.9614  0.7488
  143MOL0     H19665   6.657  10.500   7.167 -0.5448  0.4715  1.3631
  143MOL0     H19666   6.906  10.455   7.239  1.6036 -0.9112  1.0217
  143MOL0     H19667   7.114  10.492   7.388  1.1331 -0.5120 -2.9805
  143MOL0     H19668   7.099  10.337   7.304  0.5022 -0.0157 -0.1804
  143MOL0     H19669   7.222  10.221   7.484 -0.9198  0.2364  0.8472
  143MOL0     H19670   7.322  10.360   7.428 -1.9421  0.6264 -1.7906
  143MOL0     H19671   7.226  10.493   7.613  0.4329 -0.4424 -3.1226
  143MOL0     H19672   7.143  10.355   7.678 -1.0149  3.2995  0.8749
  143MOL0     H19673   7.390  10.251   7.679 -1.1483 -0.6468  0.6155
  143MOL0     H19674   7.443  10.417   7.655  1.5844 -1.6512  1.1371
  143MOL0     H19675   7.269  10.386   7.894 -1.0831  1.5276 -2.1129
  143MOL0     H19676   7.391  10.496   7.864 -2.2189  1.0429 -0.0158
  143MOL0     H19677   7.436  10.308   8.041  2.3087  0.7450 -0.5153
  143MOL0     H19678   7.413  10.191   7.905 -3.1161  1.1406 -2.0761
  143MOL0     H19679   7.626  10.296   7.800 -0.8784 -0.6939  0.0790
  143MOL0     H19680   7.668  10.223   7.962  1.7988  1.4467 -0.4210
  143MOL0     H19681   7.626  10.512   7.888  0.0868 -0.0541  0.7478
  143MOL0     H19682   7.651  10.465   8.054 -0.0834  1.1501 -0.2401
  143MOL0     H19683   7.928  10.384   8.117  1.1622  1.3229 -0.7676
  143MOL0     H19684   8.241  10.410   7.900 -1.1428 -1.2343 -1.6517
  143MOL0     H19685   8.193  10.326   8.031 -1.7129  0.3670 -0.5103
  143MOL0     H19686   8.158  10.577   8.137 -3.1446 -0.0690 -2.1176
  143MOL0     H19687   8.312  10.513   8.089 -1.1748 -2.7440 -0.5690
  143MOL0     H19688   8.128  10.707   7.952 -0.0658  0.5849  0.1644
  143MOL0     H19689   8.277  10.760   8.034  0.3145 -0.0995  0.7504
  143MOL0     H19690   8.249  10.634   7.759  1.1110 -0.5768 -1.1454
  143MOL0     H19691   8.345  10.767   7.795  0.4497  0.0829  0.1289
  143MOL0     H19692   8.466  10.526   7.603  0.2607 -1.4317  0.7246
  143MOL0     H19693   8.673  10.617   7.350  1.6767  0.1766 -0.0403
  143MOL0     H19694   8.577  10.480   7.417  0.2879 -0.5938  1.6669
  143MOL0     H19695   8.752  10.481   7.431 -0.1483  0.3758  1.5374
  143MOL0     H19696   8.917  10.611   7.219  0.6082 -1.7839  2.9086
  143MOL0     H19697   9.093  10.657   7.040 -0.7267 -1.8750  1.7856
  143MOL0     H19698   9.358  11.014   7.146 -2.8949 -1.1617  1.3113
  143MOL0     H19699   9.462  10.955   7.021 -0.0501 -3.4263 -0.6934
  143MOL0     H19700   9.195  11.065   6.968 -0.0972  0.4043  0.2390
  143MOL0     H19701   9.349  11.140   6.937 -0.0311  0.9482  0.4024
  143MOL0     H19702   9.259  10.876   6.814 -0.1944  0.0363 -1.0884
  143MOL0     H19703   9.410  10.953   6.781 -0.0052 -3.2663 -2.0537
  143MOL0     H19704   9.275  11.158   6.706  2.5101 -0.6935 -1.8312
  143MOL0     H19705   9.133  11.051   6.719  0.8927 -0.2470  4.2738
  143MOL0     H19706   9.384  10.975   6.547  0.0702  0.5536  1.2160
  143MOL0     H19707   9.230  10.893   6.534 -0.4000  0.2505  1.5275
  143MOL0     H19708   9.257  11.031   6.342 -0.8681  0.5609 -0.5274
  143MOL0     H19709   9.293  11.168   6.446  0.7037 -0.9141 -0.3691
  143MOL0     H19710   9.047  11.143   6.540  0.6658 -1.1525  0.3573
  143MOL0     H19711   9.027  11.014   6.413  0.2848  0.4620 -1.4052
  143MOL0     H19712   9.098  11.286   6.331  1.1325 -0.7144 -1.7462
  143MOL0     H19713   8.929  11.239   6.361  0.3425  0.9440  0.7065
  143MOL0     H19714   9.277  10.938   7.304 -0.6807 -0.5003  1.9802
  143MOL0     H19715   9.066  10.909   7.464 -3.5816  1.1419 -1.2627
  143MOL0     H19716   8.849  10.727   7.832 -0.8008 -0.3018  1.7112
  143MOL0     H19717   8.645  10.688   7.962 -1.8766  0.2790  0.5753
  143MOL0     H19718   6.764  10.288   7.597 -0.5705  1.3580  0.3355
  143MOL0     H19719   6.553  10.346   7.557  1.1569  0.3188  1.1997
  143MOL0     H19720   6.226  10.264   7.131 -0.9073 -0.2941  0.4398
  143MOL0     H19721   6.009  10.350   7.020 -1.6824 -0.4497  1.2821
  143MOL0     H19722   5.645  10.453   7.123 -1.9030 -1.9782 -0.3819
  143MOL0     H19723   5.757  10.351   7.047 -1.1481  0.2957 -0.6148
  143MOL0     H19724   5.813  10.245   7.259 -0.6800 -1.2099  1.9588
  143MOL0     H19725   5.646  10.245   7.235  1.6183 -0.6695 -3.3906
  143MOL0     H19726   5.755  10.473   7.393  3.4209 -2.2200 -5.0304
  143MOL0     H19727   5.592  10.410   7.407  0.5554  1.5813 -0.4347
  143MOL0     H19728   5.643  10.228   7.522 -1.2821  1.9252  3.0071
  143MOL0     H19729   5.747  10.362   7.598 -2.0294  2.4585 -0.9102
  143MOL0     H19730   6.040  10.102   7.462  0.1512 -0.8113 -0.3971
  143MOL0     H19731   5.955  10.597   7.367  0.8929 -0.6772  1.8465
  143MOL0     H19732   6.311  10.549   7.513 -0.2305  0.8626  1.2521
  143MOL0     H19733   6.165  10.641   7.521  0.3986  0.7053  2.6291
  143MOL0     H19734   6.167  10.467   7.565 -0.0118 -1.5909 -1.7131
  144MOL0     O19735   0.426   2.832   0.774  0.3634  0.5596 -0.6059
  144MOL0     C19736   0.411   2.890   0.663  0.5031 -0.1473  0.2719
  144MOL0     O19737   0.496   2.974   0.608  0.0013  0.5689  0.1194
  144MOL0     C19738   0.629   2.991   0.657  0.4944  0.4868  0.1367
  144MOL0     C19739   0.728   2.900   0.656 -0.1091  0.1734 -0.1991
  144MOL0     C19740   0.862   2.931   0.689 -0.3827 -0.7448 -0.0977
  144MOL0     C19741   0.893   3.045   0.761 -0.2462 -0.4895  0.7495
  144MOL0     O19742   1.012   3.073   0.825  0.4106  1.0431 -0.5981
  144MOL0     C19743   1.130   3.081   0.741  0.4322  0.7768 -0.3171
  144MOL0     C19744   1.239   3.139   0.824  0.3313  0.6558  0.1398
  144MOL0     C19745   1.379   3.122   0.759 -0.0892  0.3439  0.2265
  144MOL0     C19746   1.483   3.193   0.853  0.6353  0.3854  0.1541
  144MOL0     C19747   1.620   3.214   0.796  0.0227 -0.7020  0.3385
  144MOL0     C19748   1.695   3.324   0.871 -0.4706  0.4405  0.2175
  144MOL0     C19749   1.692   3.303   1.025  0.1338  0.1009  1.1427
  144MOL0     C19750   1.781   3.412   1.094 -0.1197 -0.1515 -0.0484
  144MOL0     N19751   1.725   3.544   1.082  0.1240  0.3678  0.3060
  144MOL0     C19752   1.800   3.662   1.089  0.5245 -0.1538  0.4390
  144MOL0     C19753   1.717   3.762   1.120  0.5035  0.5908 -0.8700
  144MOL0     C19754   1.737   3.913   1.140  0.1843  0.1944  0.3197
  144MOL0     C19755   1.795   3.937   1.274  1.4934  0.5490  0.1232
  144MOL0     C19756   1.776   4.086   1.305 -0.5642 -0.1925  0.0086
  144MOL0     C19757   1.893   4.143   1.392 -0.2788 -0.2713  0.0594
  144MOL0     O19758   2.006   4.137   1.311  0.0870  0.5948  0.2882
  144MOL0     C19759   2.127   4.178   1.368 -0.5558 -0.9929  0.5641
  144MOL0     C19760   2.140   4.256   1.488 -0.4129  0.5834  0.6988
  144MOL0     C19761   2.253   4.310   1.542  0.2393  0.5850  0.8555
  144MOL0     C19762   2.247   4.362   1.688 -0.3300  0.2550  0.4420
  144MOL0     C19763   2.378   4.282   1.470  0.4168 -0.1312  0.2577
  144MOL0     C19764   2.511   4.325   1.508 -0.3287 -0.7196 -0.1038
  144MOL0     O19765   2.537   4.341   1.637 -0.5025 -0.0023  0.3474
  144MOL0     C19766   2.670   4.340   1.672 -0.4168 -0.1381  1.1380
  144MOL0     C19767   2.733   4.219   1.699  0.5067 -0.7632  0.2018
  144MOL0     C19768   2.865   4.205   1.741 -0.4208  0.3710 -0.0972
  144MOL0     C19769   2.941   4.319   1.756  0.0959 -0.4532 -0.5915
  144MOL0     O19770   3.068   4.291   1.807  0.2363  0.6321 -0.0433
  144MOL0     C19771   3.164   4.395   1.793 -0.3636 -0.1341 -0.8817
  144MOL0     C19772   3.302   4.337   1.829  0.6015  0.0992 -0.0660
  144MOL0     C19773   3.313   4.307   1.972  0.0724 -0.6028 -0.9126
  144MOL0     C19774   3.449   4.261   2.016 -0.8734 -0.6416 -0.2706
  144MOL0     C19775   3.547   4.377   2.051 -0.6538 -0.5207  0.1833
  144MOL0     C19776   3.664   4.334   2.131  0.0251  0.5586 -0.1264
  144MOL0     C19777   3.784   4.274   2.053  0.0126  0.4945 -0.4818
  144MOL0     C19778   3.917   4.263   2.145 -1.0442  0.1264  0.8007
  144MOL0    Cl19779   3.986   4.408   2.206  0.1586  0.2545  0.3078
  144MOL0     C19780   2.881   4.438   1.720 -0.7065  0.1299 -0.0312
  144MOL0     C19781   2.747   4.453   1.682 -0.3291  0.8498 -0.4786
  144MOL0     O19782   2.585   4.353   1.413 -0.9163 -0.0613  0.2474
  144MOL0     C19783   2.370   4.201   1.354 -0.1261 -0.4050  0.3546
  144MOL0     C19784   2.247   4.154   1.307 -0.4898 -0.1208 -1.3690
  144MOL0     N19785   1.591   3.706   1.130 -0.3758  0.6009 -0.2073
  144MOL0     N19786   1.599   3.571   1.113 -0.1707  0.0768 -0.3126
  144MOL0     C19787   0.791   3.137   0.782 -0.0304 -0.9229  0.1507
  144MOL0     C19788   0.663   3.121   0.725 -0.6107  0.2544  0.6185
  144MOL0     C19789   0.274   2.882   0.593  0.1887 -0.0360 -0.1150
  144MOL0     C19790   0.274   2.898   0.453  0.3296  0.2468  0.4908
  144MOL0     C19791   0.160   2.888   0.378 -0.3867 -0.1450 -0.1239
  144MOL0     C19792   0.032   2.860   0.435 -0.1090  0.2340 -1.1562
  144MOL0     O19793  -0.078   2.849   0.356  0.5777 -0.5922  0.1719
  144MOL0     C19794  -0.188   2.763   0.399 -0.9063 -0.1003  0.1016
  144MOL0     C19795  -0.298   2.785   0.295 -0.4235 -0.1619 -1.2056
  144MOL0     C19796  -0.340   2.931   0.290  1.3863 -0.7801 -0.3247
  144MOL0     C19797  -0.454   2.944   0.390 -0.3252 -0.6291  0.1258
  144MOL0     C19798  -0.478   3.085   0.417  0.1415 -0.6070  0.2843
  144MOL0     C19799  -0.508   3.203   0.428 -0.3608  0.6578 -0.8676
  144MOL0     C19800   0.034   2.844   0.577 -0.4182 -0.8347 -0.4638
  144MOL0     C19801   0.152   2.847   0.653  0.6617 -0.4764 -1.1207
  144MOL0     C19802   0.138   2.809   0.802 -0.7795 -0.2199 -0.9794
  144MOL0     H19803   0.701   2.801   0.621  0.7210 -0.3888  0.7350
  144MOL0     H19804   0.943   2.869   0.652  1.2750 -1.1356  3.7220
  144MOL0     H19805   1.113   3.129   0.645  0.0073  0.2924 -0.4896
  144MOL0     H19806   1.158   2.980   0.709  1.2688  1.1996 -0.9700
  144MOL0     H19807   1.222   3.246   0.840  2.6913  1.5713 -2.5998
  144MOL0     H19808   1.237   3.083   0.918  3.4668 -0.1083 -0.1465
  144MOL0     H19809   1.400   3.019   0.726 -1.8360  0.8147 -2.7169
  144MOL0     H19810   1.386   3.172   0.662  0.3641 -0.1615 -0.0104
  144MOL0     H19811   1.441   3.289   0.883 -1.0885 -0.4419  0.5569
  144MOL0     H19812   1.503   3.136   0.945 -1.4305  1.2358  1.1883
  144MOL0     H19813   1.604   3.230   0.689 -1.9961  0.9495  0.8237
  144MOL0     H19814   1.671   3.117   0.794  0.0034 -0.7216  0.6952
  144MOL0     H19815   1.798   3.308   0.835 -0.9653  3.0330 -2.8459
  144MOL0     H19816   1.641   3.417   0.849 -0.2837  0.4927 -0.0327
  144MOL0     H19817   1.731   3.202   1.038 -2.4528 -1.2492 -0.5622
  144MOL0     H19818   1.592   3.307   1.069 -1.1152  1.2332 -1.5244
  144MOL0     H19819   1.788   3.392   1.201  0.8262  4.2330  0.9113
  144MOL0     H19820   1.879   3.412   1.046  0.1993  0.0243  0.5985
  144MOL0     H19821   1.906   3.675   1.072  0.7288 -1.3894  0.7100
  144MOL0     H19822   1.638   3.960   1.140 -0.1803 -0.4129 -2.2868
  144MOL0     H19823   1.803   3.955   1.064 -1.2840  1.2393 -0.4492
  144MOL0     H19824   1.750   3.874   1.351  0.6226  0.5288 -0.3834
  144MOL0     H19825   1.900   3.910   1.288  0.7457 -1.5694  2.2615
  144MOL0     H19826   1.770   4.147   1.214  1.8886 -1.9487 -1.4565
  144MOL0     H19827   1.685   4.099   1.364 -0.1211  0.7051  0.5061
  144MOL0     H19828   1.871   4.247   1.419 -0.6544 -0.6208  1.1337
  144MOL0     H19829   1.919   4.087   1.482 -0.1166 -2.1005 -1.0778
  144MOL0     H19830   2.055   4.264   1.555 -1.4887  1.4523 -0.7118
  144MOL0     H19831   2.330   4.427   1.716  0.1485  0.2843 -0.9657
  144MOL0     H19832   2.260   4.276   1.755  0.8310  1.3946  1.7144
  144MOL0     H19833   2.148   4.405   1.706 -1.6915 -2.3515 -0.2115
  144MOL0     H19834   2.667   4.133   1.706  2.0735 -1.8688  3.4951
  144MOL0     H19835   2.886   4.112   1.793  0.9232  2.3970  3.3139
  144MOL0     H19836   3.164   4.443   1.695  1.0546  0.9729 -0.3788
  144MOL0     H19837   3.149   4.477   1.864  1.2523 -0.1665 -0.4478
  144MOL0     H19838   3.317   4.252   1.762 -0.4972  1.5219 -2.2108
  144MOL0     H19839   3.376   4.414   1.808 -1.1624  1.9486  0.1691
  144MOL0     H19840   3.241   4.235   2.013 -2.2327  3.7678  3.9010
  144MOL0     H19841   3.287   4.399   2.025  0.4795  0.0106 -1.7586
  144MOL0     H19842   3.499   4.200   1.939  0.5555  1.0821 -0.7682
  144MOL0     H19843   3.441   4.206   2.110  0.0786  1.0836  0.8713
  144MOL0     H19844   3.567   4.424   1.955 -0.8787 -0.9182 -0.0608
  144MOL0     H19845   3.500   4.449   2.118 -0.5065 -0.1142 -0.1501
  144MOL0     H19846   3.647   4.269   2.217  2.4476  1.0097  0.7701
  144MOL0     H19847   3.712   4.411   2.192  0.9750  1.0243 -1.4106
  144MOL0     H19848   3.805   4.318   1.955 -0.8411  0.5313 -0.6553
  144MOL0     H19849   3.749   4.174   2.026 -2.6684  1.8441 -2.3935
  144MOL0     H19850   4.001   4.227   2.085  0.0805  0.5492  2.0822
  144MOL0     H19851   3.911   4.190   2.226 -1.7489  1.8643  2.3833
  144MOL0     H19852   2.935   4.532   1.731 -1.0243  0.6419 -2.2655
  144MOL0     H19853   2.710   4.552   1.658  0.3337  1.1545 -0.2396
  144MOL0     H19854   2.465   4.175   1.309 -0.0762 -0.0121  0.2321
  144MOL0     H19855   2.248   4.087   1.223 -0.0938 -0.2728 -1.2457
  144MOL0     H19856   0.814   3.226   0.838 -1.3230 -0.6873  0.3363
  144MOL0     H19857   0.599   3.209   0.732 -1.2130 -0.0198 -1.0482
  144MOL0     H19858   0.368   2.921   0.404  0.3173  0.8791  0.7450
  144MOL0     H19859   0.159   2.899   0.270  0.7967 -1.0659 -0.2488
  144MOL0     H19860  -0.157   2.658   0.391 -2.8817 -0.5694 -3.5104
  144MOL0     H19861  -0.230   2.782   0.498 -1.0619  2.1038 -0.3358
  144MOL0     H19862  -0.381   2.715   0.315 -2.0083  1.9713  0.1697
  144MOL0     H19863  -0.256   2.764   0.197  0.0484 -2.3203 -0.5967
  144MOL0     H19864  -0.257   2.997   0.317 -0.6901  1.4324  1.0629
  144MOL0     H19865  -0.372   2.966   0.191 -2.1200 -3.5270 -0.3573
  144MOL0     H19866  -0.426   2.903   0.487  2.8654  0.8884 -0.0100
  144MOL0     H19867  -0.548   2.898   0.357 -0.2713 -0.8445  0.2679
  144MOL0     H19868  -0.556   3.293   0.461 -3.6519 -1.5247  0.9870
  144MOL0     H19869  -0.055   2.817   0.633  1.2962 -0.6570  2.6242
  144MOL0     H19870   0.165   2.899   0.858  1.2304 -1.1239 -0.3787
  144MOL0     H19871   0.037   2.788   0.839  0.5441 -0.4027  3.0217
  144MOL0     H19872   0.199   2.730   0.847  4.0526  3.5535 -0.0600
  145MOL0     O19873   1.100   8.971   4.581 -0.2444 -0.3538  0.1596
  145MOL0     C19874   1.048   9.067   4.639  0.2968 -0.0704 -0.6340
  145MOL0     O19875   1.111   9.153   4.719 -0.5376  0.0358 -0.9263
  145MOL0     C19876   1.238   9.147   4.762 -0.5498  0.3373 -0.6930
  145MOL0     C19877   1.315   9.031   4.761 -0.4385  0.0572  1.0477
  145MOL0     C19878   1.444   9.035   4.813 -0.0897  0.2804  0.8856
  145MOL0     C19879   1.498   9.154   4.871 -0.3358  0.2374  0.1680
  145MOL0     O19880   1.627   9.177   4.911 -0.1059  0.0201  0.8904
  145MOL0     C19881   1.736   9.084   4.884 -0.5157  0.0635  0.5084
  145MOL0     C19882   1.840   9.136   4.975  0.0052  0.8404  0.7411
  145MOL0     C19883   1.900   9.271   4.931 -0.1923 -0.5616 -0.2967
  145MOL0     C19884   1.927   9.287   4.777  0.1440  0.3785  0.0584
  145MOL0     C19885   2.028   9.399   4.748 -0.1946 -0.2578 -0.3557
  145MOL0     C19886   2.172   9.365   4.792  0.8998 -0.9862 -0.0674
  145MOL0     C19887   2.268   9.476   4.747  0.3484 -0.5099  0.4570
  145MOL0     C19888   2.406   9.471   4.802 -0.2325  0.0868 -0.7454
  145MOL0     N19889   2.397   9.513   4.948 -0.1033  0.3135  0.2987
  145MOL0     C19890   2.383   9.413   5.049  0.7501 -0.2934 -0.2804
  145MOL0     C19891   2.409   9.484   5.166  0.2852 -0.1230 -0.1591
  145MOL0     C19892   2.409   9.438   5.310 -0.2068  0.4628  0.1679
  145MOL0     C19893   2.477   9.300   5.320  0.2465 -0.1841 -0.2619
  145MOL0     C19894   2.459   9.230   5.461  0.0129  1.0850  0.4015
  145MOL0     C19895   2.476   9.316   5.578  0.2916 -0.0421  0.2493
  145MOL0     O19896   2.607   9.367   5.580 -0.2063 -0.0235 -0.1263
  145MOL0     C19897   2.715   9.282   5.583 -0.6028  0.4032 -0.1024
  145MOL0     C19898   2.829   9.291   5.500  0.1147  0.2995 -0.7856
  145MOL0     C19899   2.937   9.205   5.513 -0.6925 -0.9086  0.6046
  145MOL0     C19900   3.048   9.238   5.424  0.6692 -0.4797 -0.2146
  145MOL0     C19901   2.933   9.091   5.599  0.2728  0.1489 -0.5250
  145MOL0     C19902   3.025   8.977   5.602  0.8545  0.1122  0.9711
  145MOL0     O19903   3.018   8.898   5.708  0.1592 -0.3255  0.2952
  145MOL0     C19904   3.122   8.810   5.712 -1.0147  0.0401 -0.5974
  145MOL0     C19905   3.231   8.833   5.792 -0.0076 -0.2718 -0.7413
  145MOL0     C19906   3.339   8.734   5.783 -0.3799  0.5774 -0.2610
  145MOL0     C19907   3.333   8.627   5.684 -0.7870  0.2753 -1.1974
  145MOL0     O19908   3.433   8.534   5.674 -0.8314  0.5605 -0.0743
  145MOL0     C19909   3.570   8.576   5.704 -0.4530 -1.4983 -0.0006
  145MOL0     C19910   3.672   8.502   5.615 -0.1192 -0.8864 -0.2344
  145MOL0     C19911   3.795   8.595   5.582  0.2457  0.2018 -0.4451
  145MOL0     C19912   3.909   8.502   5.540 -0.0105 -0.8164  0.5641
  145MOL0     C19913   4.035   8.545   5.603 -0.2487 -0.1121 -0.4370
  145MOL0     C19914   4.043   8.528   5.757 -0.1128 -0.1596 -0.7591
  145MOL0     C19915   4.036   8.390   5.817  0.5852  0.7819 -0.6024
  145MOL0     C19916   4.177   8.311   5.801  0.0676 -0.2053 -1.0874
  145MOL0    Cl19917   4.187   8.169   5.913  0.1469  0.0684 -0.3055
  145MOL0     C19918   3.213   8.604   5.615 -0.6996 -0.7333  0.0860
  145MOL0     C19919   3.109   8.697   5.632  0.4806  0.0822  0.4900
  145MOL0     O19920   3.112   8.967   5.518  0.0680 -0.3054 -0.0172
  145MOL0     C19921   2.825   9.087   5.678 -1.0290 -0.6432  0.5156
  145MOL0     C19922   2.727   9.190   5.681  0.0724  0.4303 -0.4197
  145MOL0     N19923   2.434   9.617   5.131  1.0824  0.2311  0.7736
  145MOL0     N19924   2.432   9.628   5.002 -0.0015  0.7611 -0.0850
  145MOL0     C19925   1.411   9.263   4.883 -0.3305  0.8664 -0.3341
  145MOL0     C19926   1.283   9.256   4.830  0.3758 -0.0637  0.2083
  145MOL0     C19927   0.902   9.098   4.635 -0.6619 -0.5065  0.5981
  145MOL0     C19928   0.863   9.224   4.682  0.0065  0.2918 -0.2658
  145MOL0     C19929   0.735   9.273   4.672  0.3556  0.5348 -0.1186
  145MOL0     C19930   0.633   9.189   4.627  0.8261  0.2536  0.4640
  145MOL0     O19931   0.505   9.218   4.638 -0.7051 -0.8921  0.1406
  145MOL0     C19932   0.457   9.353   4.659  0.4255 -0.3673  0.4868
  145MOL0     C19933   0.428   9.389   4.797  0.0079  0.0424  0.3328
  145MOL0     C19934   0.347   9.529   4.797  1.0551 -0.5617 -0.0837
  145MOL0     C19935   0.424   9.660   4.761  0.2264 -0.3853 -0.5069
  145MOL0     C19936   0.550   9.671   4.831  0.1179 -0.4907  0.2086
  145MOL0     C19937   0.663   9.683   4.868 -0.5172 -0.8385  1.3659
  145MOL0     C19938   0.664   9.058   4.590  0.2378 -0.2915  0.9165
  145MOL0     C19939   0.799   9.012   4.596  0.3536 -0.0695  0.2396
  145MOL0     C19940   0.824   8.874   4.558  0.7613  0.1973 -0.1408
  145MOL0     H19941   1.292   8.941   4.705  0.9797 -0.6993  1.6637
  145MOL0     H19942   1.505   8.945   4.813 -1.3330 -0.6078 -0.4731
  145MOL0     H19943   1.767   9.077   4.779 -1.5123  1.2136  0.1173
  145MOL0     H19944   1.710   8.985   4.923  0.8994 -1.3495 -1.8983
  145MOL0     H19945   1.799   9.140   5.077  1.3492 -0.3599  1.3723
  145MOL0     H19946   1.919   9.060   4.966 -1.2810 -0.4254 -0.3859
  145MOL0     H19947   1.823   9.346   4.951 -0.2381 -0.7833  0.3861
  145MOL0     H19948   1.995   9.294   4.981 -0.4304  2.0934 -0.9168
  145MOL0     H19949   1.969   9.195   4.736  0.6423  0.4987  0.2794
  145MOL0     H19950   1.833   9.306   4.725  0.2549 -0.3918 -0.4381
  145MOL0     H19951   1.993   9.487   4.803  0.0593 -1.0505  1.1471
  145MOL0     H19952   2.030   9.425   4.642  3.1476 -2.4959 -0.9676
  145MOL0     H19953   2.173   9.349   4.900 -0.0038 -3.0118 -0.3195
  145MOL0     H19954   2.193   9.266   4.751 -2.3999 -2.6261  1.8368
  145MOL0     H19955   2.222   9.571   4.776  1.0998 -0.3103  1.0285
  145MOL0     H19956   2.276   9.469   4.638 -0.4552  3.0098  0.0399
  145MOL0     H19957   2.442   9.369   4.786  0.6734  0.7505 -3.5425
  145MOL0     H19958   2.473   9.537   4.746 -3.4986  1.7390 -3.0458
  145MOL0     H19959   2.357   9.309   5.032 -3.6434 -0.0636  3.1445
  145MOL0     H19960   2.306   9.428   5.344 -0.3876  1.3148 -0.1009
  145MOL0     H19961   2.460   9.507   5.378  1.8412 -0.3121 -0.4713
  145MOL0     H19962   2.455   9.228   5.240  1.2708 -2.4481  1.3766
  145MOL0     H19963   2.581   9.323   5.296 -0.1525  2.3336  0.1889
  145MOL0     H19964   2.361   9.186   5.478  0.9286 -0.6620  1.4748
  145MOL0     H19965   2.522   9.141   5.459 -4.7301 -2.6667 -0.1247
  145MOL0     H19966   2.413   9.404   5.564  0.9999  0.8246  2.1884
  145MOL0     H19967   2.445   9.267   5.671  1.0914  1.0170  1.0969
  145MOL0     H19968   2.829   9.377   5.434  0.0815  0.0011 -1.1859
  145MOL0     H19969   3.050   9.154   5.354 -1.0385 -1.6010  0.9846
  145MOL0     H19970   3.143   9.227   5.477  0.7299 -2.0778 -0.5956
  145MOL0     H19971   3.036   9.335   5.375  0.6653  1.3051  3.0212
  145MOL0     H19972   3.224   8.922   5.854 -2.9170 -1.1681  0.3460
  145MOL0     H19973   3.422   8.750   5.850 -0.0808 -0.8465 -0.2509
  145MOL0     H19974   3.584   8.683   5.689 -3.7069 -0.7675  1.2458
  145MOL0     H19975   3.593   8.570   5.810 -0.9081  1.7141  0.3686
  145MOL0     H19976   3.704   8.411   5.667  1.3440  0.5215  1.5032
  145MOL0     H19977   3.638   8.472   5.516 -1.4278  0.9541 -0.3880
  145MOL0     H19978   3.820   8.660   5.667  0.3728  0.5560 -0.7537
  145MOL0     H19979   3.774   8.668   5.504 -0.1220 -0.1584 -0.6904
  145MOL0     H19980   3.921   8.512   5.431  0.0326 -1.6776  0.4854
  145MOL0     H19981   3.884   8.398   5.558 -0.7808 -1.0138 -1.3677
  145MOL0     H19982   4.116   8.491   5.553 -0.2157  1.0613 -1.7121
  145MOL0     H19983   4.047   8.649   5.571  1.0033 -0.9549 -2.9878
  145MOL0     H19984   3.957   8.581   5.801  1.2153  2.2163 -0.8506
  145MOL0     H19985   4.133   8.574   5.799 -0.8977  1.6152 -0.9059
  145MOL0     H19986   3.952   8.336   5.772  2.0698 -1.6592 -0.6595
  145MOL0     H19987   4.021   8.400   5.924  0.1068  0.4585 -0.6362
  145MOL0     H19988   4.262   8.374   5.827  0.3566 -1.6629  1.8251
  145MOL0     H19989   4.195   8.281   5.697  0.6246 -1.7919 -0.5686
  145MOL0     H19990   3.192   8.514   5.557 -1.0877 -0.2406 -0.5550
  145MOL0     H19991   3.020   8.689   5.571 -0.2582  0.2460  1.5266
  145MOL0     H19992   2.818   8.998   5.740  0.0739 -0.2526  1.2341
  145MOL0     H19993   2.643   9.169   5.747  0.3638 -1.1256 -0.4992
  145MOL0     H19994   1.458   9.337   4.946  4.7610 -3.7082  2.1182
  145MOL0     H19995   1.226   9.349   4.834 -3.5185 -2.2079 -0.5310
  145MOL0     H19996   0.931   9.303   4.712  1.4089 -1.3255  0.9913
  145MOL0     H19997   0.723   9.380   4.686  5.7043  1.8255 -2.9305
  145MOL0     H19998   0.517   9.430   4.610 -1.7490  0.5838 -0.8906
  145MOL0     H19999   0.365   9.351   4.599  0.8578 -1.5106 -0.1616
  145MOL0     H20000   0.520   9.393   4.856 -1.0596  1.0177  2.0213
  145MOL0     H20001   0.360   9.317   4.843  1.5179 -1.0414  0.9381
  145MOL0     H20002   0.270   9.523   4.720  0.4877 -0.3406  0.4568
  145MOL0     H20003   0.295   9.528   4.893 -1.2323  2.0624 -1.1756
  145MOL0     H20004   0.357   9.742   4.787  0.7763  0.4559 -1.6658
  145MOL0     H20005   0.441   9.662   4.653 -1.8358 -0.1570 -0.8606
  145MOL0     H20006   0.761   9.699   4.908  0.4984 -0.8294 -0.9860
  145MOL0     H20007   0.584   8.990   4.567  0.3452 -0.7475  1.8781
  145MOL0     H20008   0.866   8.825   4.646  1.0867  1.7697  0.6194
  145MOL0     H20009   0.735   8.825   4.520 -0.3430  0.2558  2.2407
  145MOL0     H20010   0.900   8.876   4.479  3.2127 -1.2810  2.0284
  146MOL0     O20011  10.363   9.598   8.319  0.5303 -0.7069 -0.4646
  146MOL0     C20012  10.278   9.668   8.281 -0.3672 -0.3304 -0.3671
  146MOL0     O20013  10.298   9.801   8.252 -0.4626  0.4314  0.1121
  146MOL0     C20014  10.415   9.877   8.264  0.2302 -0.2658 -0.6022
  146MOL0     C20015  10.403   9.996   8.201  0.4382  0.2533  0.0563
  146MOL0     C20016  10.493  10.097   8.209 -0.0042 -0.7352 -0.3913
  146MOL0     C20017  10.616  10.074   8.285 -0.2095  0.1543 -0.4362
  146MOL0     O20018  10.733  10.152   8.284 -0.4538  0.2233 -0.1861
  146MOL0     C20019  10.811  10.151   8.168  0.5098  0.1786  0.3779
  146MOL0     C20020  10.943  10.215   8.203 -0.0825 -0.5188  1.1249
  146MOL0     C20021  11.016  10.122   8.308  0.2536 -0.1834 -0.9909
  146MOL0     C20022  11.062   9.984   8.251 -0.0469  0.5733 -0.6482
  146MOL0     C20023  11.109   9.872   8.352 -0.3971 -0.2362 -0.6037
  146MOL0     C20024  11.214   9.773   8.294  0.7163  0.6758  0.5910
  146MOL0     C20025  11.351   9.832   8.256  0.0014 -0.1096  0.1686
  146MOL0     C20026  11.472   9.737   8.279 -0.0693  0.1636  0.2698
  146MOL0     N20027  11.598   9.816   8.265 -0.2700 -0.0575 -0.3661
  146MOL0     C20028  11.633   9.931   8.327 -0.2192  0.4264  0.2796
  146MOL0     C20029  11.746   9.975   8.270  0.3076  0.1774  0.5308
  146MOL0     C20030  11.826  10.098   8.296 -1.2201 -0.0372 -0.1957
  146MOL0     C20031  11.975  10.066   8.332 -0.2536  0.1413  0.8318
  146MOL0     C20032  12.065  10.064   8.207  0.8948  0.9724 -0.3127
  146MOL0     C20033  12.209  10.031   8.231 -0.1525 -0.5134 -0.4136
  146MOL0     O20034  12.266  10.151   8.287 -0.1569 -0.8878 -0.4944
  146MOL0     C20035  12.395  10.130   8.340  0.0003  0.1806  0.0868
  146MOL0     C20036  12.483  10.029   8.294 -0.1379  1.0031 -1.0385
  146MOL0     C20037  12.608  10.011   8.359  0.9232  0.5944  0.2970
  146MOL0     C20038  12.675   9.886   8.314 -0.3207 -0.1786 -0.4664
  146MOL0     C20039  12.645  10.095   8.465 -0.1095  1.0834 -0.5776
  146MOL0     C20040  12.771  10.090   8.532  0.2817  0.0961  0.2782
  146MOL0     O20041  12.788  10.158   8.652 -0.0497  0.5145 -0.3465
  146MOL0     C20042  12.910  10.157   8.711 -0.6066 -0.2147 -0.9962
  146MOL0     C20043  12.945  10.278   8.764  0.3744  0.3847 -0.2096
  146MOL0     C20044  13.070  10.282   8.841  0.1138  0.4023 -0.6877
  146MOL0     C20045  13.158  10.174   8.854 -0.3768  0.6098  0.0246
  146MOL0     O20046  13.274  10.182   8.925 -0.4425  0.0141 -0.2407
  146MOL0     C20047  13.382  10.090   8.919 -0.1286  0.0786 -0.4653
  146MOL0     C20048  13.393  10.028   9.060 -0.5236 -0.2350 -0.1273
  146MOL0     C20049  13.461   9.889   9.066  0.1244 -0.3634  0.3553
  146MOL0     C20050  13.523   9.866   9.206  0.4471  0.9888 -0.8850
  146MOL0     C20051  13.547   9.720   9.237 -0.1764 -0.9134 -0.4809
  146MOL0     C20052  13.662   9.669   9.158 -0.2844  0.6953  0.6491
  146MOL0     C20053  13.682   9.515   9.195  0.3531 -0.5923 -0.3192
  146MOL0     C20054  13.793   9.498   9.302 -0.1484  0.7242  0.0998
  146MOL0    Cl20055  13.775   9.587   9.455 -0.0323 -0.1365 -0.0499
  146MOL0     C20056  13.116  10.055   8.787 -0.4945  0.1450  0.0229
  146MOL0     C20057  12.998  10.043   8.724  0.0471 -0.6729 -0.1260
  146MOL0     O20058  12.865  10.033   8.468  1.0986  0.4197 -1.0001
  146MOL0     C20059  12.550  10.189   8.505  0.2170  0.6842 -0.7307
  146MOL0     C20060  12.428  10.213   8.444 -0.0340 -0.1890 -0.4188
  146MOL0     N20061  11.790   9.868   8.188 -0.2679 -0.5740  0.5281
  146MOL0     N20062  11.696   9.775   8.181  1.2785 -0.4994 -0.4595
  146MOL0     C20063  10.628   9.949   8.350 -0.0052  0.5972 -0.5113
  146MOL0     C20064  10.521   9.853   8.345  0.5300  0.9877 -0.0481
  146MOL0     C20065  10.134   9.621   8.270 -0.0801 -0.3222 -0.3474
  146MOL0     C20066  10.045   9.688   8.190 -0.2994  0.9059 -0.4104
  146MOL0     C20067   9.914   9.653   8.173 -0.4162 -0.0608  0.1964
  146MOL0     C20068   9.873   9.535   8.240 -0.0370 -0.7582  0.5805
  146MOL0     O20069   9.752   9.474   8.213 -0.0350 -0.3956  0.4264
  146MOL0     C20070   9.653   9.561   8.159  0.8113 -0.2151 -0.4601
  146MOL0     C20071   9.517   9.494   8.159 -0.1281  0.5723  0.0155
  146MOL0     C20072   9.507   9.354   8.095 -0.0118  0.0556 -0.0823
  146MOL0     C20073   9.528   9.347   7.940 -0.5585 -1.1575 -0.6063
  146MOL0     C20074   9.671   9.339   7.923  0.7158  0.4393  0.1601
  146MOL0     C20075   9.790   9.331   7.909 -0.1262  0.5442 -0.5677
  146MOL0     C20076   9.955   9.462   8.327  0.7560 -0.5547  0.9178
  146MOL0     C20077  10.084   9.512   8.354  0.4510 -0.4164 -0.0581
  146MOL0     C20078  10.185   9.438   8.455  0.3139 -0.9349  0.8183
  146MOL0     H20079  10.312  10.018   8.146 -0.7703  2.5646  2.7069
  146MOL0     H20080  10.480  10.189   8.153 -0.4977 -1.1605 -0.9848
  146MOL0     H20081  10.763  10.203   8.085  2.0283 -0.5798 -1.0329
  146MOL0     H20082  10.819  10.047   8.135 -0.0346  0.0425  0.6604
  146MOL0     H20083  10.995  10.223   8.107 -1.0521  1.2536  0.7079
  146MOL0     H20084  10.927  10.317   8.238  3.2062  0.8638 -0.9439
  146MOL0     H20085  11.099  10.179   8.350 -1.7698  1.3440  1.1688
  146MOL0     H20086  10.948  10.096   8.390  2.4506 -1.2573  0.6061
  146MOL0     H20087  10.980   9.935   8.197 -0.4528 -0.2413  0.6685
  146MOL0     H20088  11.147  10.005   8.186  1.4072 -2.1664  0.2051
  146MOL0     H20089  11.020   9.814   8.378  0.7716 -2.2734 -0.9449
  146MOL0     H20090  11.148   9.924   8.441  0.0059  0.4787 -1.1898
  146MOL0     H20091  11.227   9.682   8.354  1.5773 -1.2283 -2.3028
  146MOL0     H20092  11.166   9.734   8.204  0.1221  2.2691  0.1706
  146MOL0     H20093  11.371   9.930   8.300  0.5439  0.7235 -1.8114
  146MOL0     H20094  11.347   9.862   8.151  1.1695  0.2749  0.2238
  146MOL0     H20095  11.468   9.694   8.379  0.9683  0.9556  0.6695
  146MOL0     H20096  11.469   9.659   8.202  2.7398  0.9900 -0.8347
  146MOL0     H20097  11.577   9.977   8.408 -0.9272  0.8072 -0.4023
  146MOL0     H20098  11.793  10.155   8.383 -1.8022  1.7924 -1.5537
  146MOL0     H20099  11.819  10.164   8.209 -3.0105 -2.2082 -1.8177
  146MOL0     H20100  12.016  10.145   8.394 -0.5029  0.4433  0.6132
  146MOL0     H20101  11.978   9.967   8.379  1.1802  0.5799  1.6940
  146MOL0     H20102  12.021   9.996   8.134 -3.0053  1.1951  1.6018
  146MOL0     H20103  12.059  10.158   8.151 -1.2753 -0.0540 -1.9423
  146MOL0     H20104  12.222   9.951   8.304 -0.2123  0.5026  0.7346
  146MOL0     H20105  12.254  10.003   8.135  0.5050  0.3436 -0.3636
  146MOL0     H20106  12.462   9.967   8.208  1.1703  0.9267 -1.3150
  146MOL0     H20107  12.750   9.906   8.237  1.6673  0.1528  1.4729
  146MOL0     H20108  12.603   9.810   8.282 -2.2096  1.2202  0.3075
  146MOL0     H20109  12.735   9.843   8.395  1.8486 -0.9373 -2.3623
  146MOL0     H20110  12.885  10.368   8.758 -2.0407 -1.0079  1.4548
  146MOL0     H20111  13.100  10.380   8.879 -0.1149 -0.0204  0.6544
  146MOL0     H20112  13.368  10.014   8.842  1.2763 -0.4041 -0.2648
  146MOL0     H20113  13.472  10.147   8.894  0.1786 -0.3835 -0.4309
  146MOL0     H20114  13.435  10.104   9.126  0.5442  1.9895 -3.1042
  146MOL0     H20115  13.289  10.028   9.094 -1.1826  0.9909 -1.9486
  146MOL0     H20116  13.534   9.880   8.985  0.1242 -1.6758  0.4721
  146MOL0     H20117  13.376   9.820   9.061 -0.1681 -0.1718  2.2393
  146MOL0     H20118  13.445   9.887   9.281 -0.8187 -0.5848 -1.7117
  146MOL0     H20119  13.606   9.934   9.230 -1.3459  1.9720  3.6154
  146MOL0     H20120  13.569   9.707   9.343 -0.9802 -1.7344 -0.4104
  146MOL0     H20121  13.450   9.674   9.215 -0.3690 -1.1349  0.7930
  146MOL0     H20122  13.748   9.733   9.181  0.4162  0.5568 -1.3501
  146MOL0     H20123  13.644   9.686   9.051 -0.0525  1.0165  0.6596
  146MOL0     H20124  13.710   9.455   9.107  3.3228  0.5818 -0.2777
  146MOL0     H20125  13.590   9.469   9.233 -0.8841  0.8747 -1.4085
  146MOL0     H20126  13.884   9.528   9.250 -0.4342 -0.9571 -1.4973
  146MOL0     H20127  13.807   9.391   9.323 -1.7774  0.7910  1.7250
  146MOL0     H20128  13.187   9.973   8.783  1.5303  1.4910  3.8300
  146MOL0     H20129  12.963   9.954   8.673  0.5879 -1.3140  0.5860
  146MOL0     H20130  12.572  10.262   8.581 -1.1970  1.1679 -0.7611
  146MOL0     H20131  12.369  10.302   8.465  2.2991  1.1309  0.9593
  146MOL0     H20132  10.721   9.923   8.400  1.5245  3.4020 -1.6854
  146MOL0     H20133  10.527   9.760   8.400 -2.5511 -0.1105 -1.3452
  146MOL0     H20134  10.089   9.768   8.130  0.0403  1.4026  0.4898
  146MOL0     H20135   9.854   9.719   8.112  1.7640 -0.3838 -2.5669
  146MOL0     H20136   9.645   9.640   8.233  1.8754 -2.0804  1.7672
  146MOL0     H20137   9.680   9.597   8.059 -2.7992 -0.9185 -1.8505
  146MOL0     H20138   9.441   9.555   8.110 -1.9487  0.4396  2.4508
  146MOL0     H20139   9.487   9.493   8.265 -0.5053  2.4263 -0.0381
  146MOL0     H20140   9.579   9.284   8.139  0.7043  0.7325 -0.1532
  146MOL0     H20141   9.407   9.319   8.122  0.3248  0.3174  1.6213
  146MOL0     H20142   9.489   9.434   7.885  2.7552  0.1585 -1.1114
  146MOL0     H20143   9.489   9.263   7.882 -4.1148  1.2101 -2.0192
  146MOL0     H20144   9.896   9.323   7.907  0.0023  1.8842  0.3314
  146MOL0     H20145   9.914   9.365   8.353 -1.2844  0.9273  3.8000
  146MOL0     H20146  10.245   9.369   8.395  1.3277  1.2906 -0.8523
  146MOL0     H20147  10.242   9.514   8.508 -2.0837 -0.6453  3.1865
  146MOL0     H20148  10.132   9.381   8.531 -0.0397 -0.6616  0.7832
  147MOL0     O20149   2.883   7.994  10.062  0.2151 -0.7160 -0.2933
  147MOL0     C20150   2.781   7.956  10.010  0.0605  0.1979 -0.8269
  147MOL0     O20151   2.758   7.933   9.878 -0.3000 -0.3141  0.1321
  147MOL0     C20152   2.867   7.933   9.791 -0.4996  1.1411  0.2678
  147MOL0     C20153   2.911   7.811   9.729 -0.1752 -0.4532 -0.8566
  147MOL0     C20154   3.033   7.811   9.659  0.3908 -0.3379 -0.2369
  147MOL0     C20155   3.120   7.927   9.653  0.0691  0.0240  0.1617
  147MOL0     O20156   3.232   7.909   9.572 -0.2803 -0.0940  0.1445
  147MOL0     C20157   3.357   7.886   9.647 -0.0664  0.6811 -0.7402
  147MOL0     C20158   3.429   7.757   9.590  0.5102 -0.0258 -0.9189
  147MOL0     C20159   3.355   7.628   9.609  0.4159  0.3277  1.0189
  147MOL0     C20160   3.328   7.606   9.758  0.5517  0.2978  0.2999
  147MOL0     C20161   3.306   7.461   9.796  0.6855  0.0672 -0.5490
  147MOL0     C20162   3.172   7.381   9.758  0.0744 -0.1642 -0.3166
  147MOL0     C20163   3.044   7.436   9.824 -0.6565 -1.0879  0.3075
  147MOL0     C20164   2.920   7.363   9.761 -0.1351 -0.1504  0.2075
  147MOL0     N20165   2.793   7.393   9.827 -0.7823 -0.1350  0.7755
  147MOL0     C20166   2.693   7.302   9.838 -0.3540 -1.1477  0.2552
  147MOL0     C20167   2.587   7.377   9.878 -0.3952 -0.4108 -0.1445
  147MOL0     C20168   2.448   7.337   9.906  0.9172 -0.0332  0.2644
  147MOL0     C20169   2.404   7.362  10.040  0.0819  0.3384 -0.0676
  147MOL0     C20170   2.493   7.299  10.149 -0.6706 -0.6461  0.6796
  147MOL0     C20171   2.459   7.155  10.167  0.2367  0.5904 -0.6212
  147MOL0     O20172   2.319   7.140  10.215 -0.3024 -0.1222  0.3861
  147MOL0     C20173   2.261   7.020  10.191  0.4550  0.5449 -0.1870
  147MOL0     C20174   2.317   6.906  10.134 -0.7393 -0.5665 -0.3729
  147MOL0     C20175   2.241   6.788  10.123  0.8706 -0.2754  0.2928
  147MOL0     C20176   2.311   6.677  10.051 -0.2725 -0.3162 -0.3120
  147MOL0     C20177   2.112   6.783  10.170 -0.2680 -0.2952 -0.4433
  147MOL0     C20178   2.016   6.664  10.157 -0.3758  0.7638 -0.7129
  147MOL0     O20179   1.884   6.693  10.189 -0.0871 -0.1606  0.1177
  147MOL0     C20180   1.795   6.585  10.186  0.2283  0.6863 -0.8077
  147MOL0     C20181   1.669   6.597  10.127 -0.4932 -1.4251  0.9639
  147MOL0     C20182   1.574   6.506  10.151 -0.2412  0.1233  0.1627
  147MOL0     C20183   1.596   6.387  10.216 -0.2284  0.8118 -0.6303
  147MOL0     O20184   1.488   6.303  10.234 -0.4202 -0.3208 -0.3818
  147MOL0     C20185   1.476   6.239  10.360  0.4010  0.0427 -0.0879
  147MOL0     C20186   1.350   6.151  10.363  0.6169  0.2354 -0.4615
  147MOL0     C20187   1.226   6.243  10.351  0.1905 -0.0081  0.3804
  147MOL0     C20188   1.104   6.152  10.366  0.0538 -0.1605 -0.5690
  147MOL0     C20189   0.966   6.211  10.315  0.6691  0.4227  0.1109
  147MOL0     C20190   0.851   6.119  10.343 -0.2540 -0.4894  0.5228
  147MOL0     C20191   0.722   6.188  10.383 -0.1267  0.4555 -0.1650
  147MOL0     C20192   0.619   6.083  10.410 -0.6791  0.2334  0.1312
  147MOL0    Cl20193   0.485   6.172  10.488 -0.0707 -0.1412  0.2094
  147MOL0     C20194   1.723   6.362  10.274  0.3890  0.8699 -0.1325
  147MOL0     C20195   1.818   6.464  10.256  0.0034  0.3148  0.1729
  147MOL0     O20196   2.056   6.553  10.106 -0.8086 -0.6962 -0.4252
  147MOL0     C20197   2.064   6.898  10.234 -0.7794  0.1523 -0.2385
  147MOL0     C20198   2.144   7.009  10.257 -0.0713 -0.0535 -0.4344
  147MOL0     N20199   2.632   7.510   9.895  0.0217  0.6678  0.0181
  147MOL0     N20200   2.759   7.516   9.860 -0.1622 -0.2009 -0.7975
  147MOL0     C20201   3.082   8.046   9.719 -0.1758 -0.6173 -0.2030
  147MOL0     C20202   2.953   8.048   9.781  0.0293  0.0066 -0.7908
  147MOL0     C20203   2.661   7.931  10.105 -0.7404 -0.5811  0.5369
  147MOL0     C20204   2.602   7.803  10.093 -0.1770 -0.7259 -0.2832
  147MOL0     C20205   2.494   7.773  10.168  0.1849  0.0464 -0.4495
  147MOL0     C20206   2.428   7.875  10.254 -0.3394  0.7252  0.7661
  147MOL0     O20207   2.306   7.854  10.318 -0.2655 -0.3720  0.6390
  147MOL0     C20208   2.207   7.770  10.251  0.1988 -1.0692  0.1400
  147MOL0     C20209   2.065   7.824  10.263  0.1754 -0.4156 -0.8805
  147MOL0     C20210   2.049   7.850  10.414  0.4164 -0.2131  0.0360
  147MOL0     C20211   1.903   7.864  10.442  0.4974 -0.0479 -0.0146
  147MOL0     C20212   1.860   7.900  10.578 -0.0913  0.0980  0.4678
  147MOL0     C20213   1.826   7.923  10.695 -0.1215  0.5242  0.4480
  147MOL0     C20214   2.486   7.995  10.274  0.5906 -0.7487  0.3105
  147MOL0     C20215   2.610   8.024  10.200  0.2257  0.2492 -0.3893
  147MOL0     C20216   2.651   8.170  10.199  0.1019 -0.3247  0.3948
  147MOL0     H20217   2.869   7.712   9.740  2.9058 -2.3107 -3.8183
  147MOL0     H20218   3.079   7.721   9.617  2.3651 -0.1986  1.4404
  147MOL0     H20219   3.338   7.877   9.754  0.4661 -2.3959 -0.7991
  147MOL0     H20220   3.426   7.967   9.622  1.1955 -1.0689 -3.4936
  147MOL0     H20221   3.443   7.777   9.483 -2.0770 -0.0010 -1.3228
  147MOL0     H20222   3.525   7.736   9.637  0.5846  1.4646 -0.3490
  147MOL0     H20223   3.262   7.626   9.552  0.2849 -1.4866  1.2218
  147MOL0     H20224   3.414   7.554   9.554  0.1588  1.6624 -1.1663
  147MOL0     H20225   3.418   7.634   9.814  0.2567  1.2084  0.3353
  147MOL0     H20226   3.242   7.669   9.782  1.2093  2.1638 -1.9192
  147MOL0     H20227   3.315   7.456   9.905  0.5783  2.1585 -0.4056
  147MOL0     H20228   3.387   7.395   9.762  1.3069  0.0769  0.8624
  147MOL0     H20229   3.159   7.389   9.650  2.4027 -0.9435 -0.7032
  147MOL0     H20230   3.177   7.274   9.780 -0.0251  0.4916  3.6831
  147MOL0     H20231   3.043   7.545   9.810  0.5107 -1.3431 -2.0529
  147MOL0     H20232   3.045   7.415   9.932  1.0347 -0.1511  0.5105
  147MOL0     H20233   2.917   7.394   9.656 -0.7266  1.7646  0.7362
  147MOL0     H20234   2.936   7.255   9.764 -0.6271 -0.2711 -1.0019
  147MOL0     H20235   2.685   7.194   9.824 -2.1113 -0.8644 -1.4268
  147MOL0     H20236   2.443   7.228   9.898 -0.0609 -0.1984  2.4467
  147MOL0     H20237   2.383   7.385   9.833  1.8890  0.7140 -0.1340
  147MOL0     H20238   2.402   7.469  10.065  1.1301  0.5714 -0.8759
  147MOL0     H20239   2.303   7.323  10.050  0.5115 -0.7070  0.3495
  147MOL0     H20240   2.601   7.310  10.139 -1.0614  1.7164 -2.8713
  147MOL0     H20241   2.468   7.346  10.245 -1.4453 -0.2622  0.2976
  147MOL0     H20242   2.480   7.098  10.076  0.1185  0.2474 -0.4342
  147MOL0     H20243   2.518   7.102  10.241  0.8960  1.6232 -0.3988
  147MOL0     H20244   2.412   6.906  10.083 -0.2187 -1.4704  0.5694
  147MOL0     H20245   2.408   6.712  10.016 -0.4803 -0.9637 -1.6277
  147MOL0     H20246   2.256   6.644   9.962 -1.7141  1.4416 -0.1214
  147MOL0     H20247   2.325   6.593  10.119  0.5487 -1.0258 -1.3221
  147MOL0     H20248   1.649   6.689  10.073  3.9335  0.2887  1.8839
  147MOL0     H20249   1.476   6.517  10.106 -0.3831 -0.3493  0.3439
  147MOL0     H20250   1.568   6.187  10.389  0.8400  1.9778  2.2858
  147MOL0     H20251   1.462   6.309  10.443 -3.2126 -1.1230  0.4794
  147MOL0     H20252   1.359   6.091  10.271  1.7144  0.6165 -0.6198
  147MOL0     H20253   1.330   6.090  10.451 -0.5151 -0.6358 -1.2946
  147MOL0     H20254   1.221   6.289  10.252 -3.0755  2.0945  1.3591
  147MOL0     H20255   1.226   6.317  10.432  3.1192  0.7082 -0.1549
  147MOL0     H20256   1.102   6.137  10.474  0.5425  1.8227 -0.2356
  147MOL0     H20257   1.122   6.058  10.314 -0.6309 -0.7851  0.2919
  147MOL0     H20258   0.942   6.304  10.367 -1.1157 -0.8163  1.6486
  147MOL0     H20259   0.964   6.235  10.208  0.6217 -1.8605 -0.4414
  147MOL0     H20260   0.887   6.047  10.418  1.9360 -1.4985 -1.3854
  147MOL0     H20261   0.836   6.055  10.256  0.0067 -0.7768  0.6870
  147MOL0     H20262   0.691   6.260  10.306 -1.5064 -0.9864 -1.0283
  147MOL0     H20263   0.740   6.246  10.474  0.6214  0.9691 -0.6251
  147MOL0     H20264   0.660   6.011  10.482 -0.1439  1.4404  1.0750
  147MOL0     H20265   0.598   6.023  10.321  1.5978  0.6450 -0.7510
  147MOL0     H20266   1.736   6.277  10.340 -0.5530  1.5979  1.0247
  147MOL0     H20267   1.907   6.452  10.316  0.1505  1.9905  0.3211
  147MOL0     H20268   1.966   6.893  10.281 -2.9130  1.4237 -4.0868
  147MOL0     H20269   2.105   7.095  10.310 -1.6649 -0.3062 -1.1055
  147MOL0     H20270   3.141   8.137   9.720  1.5408 -1.6863 -0.0020
  147MOL0     H20271   2.932   8.141   9.833 -0.0484 -1.6072  2.2793
  147MOL0     H20272   2.645   7.738  10.018  2.1796  0.5319 -0.1359
  147MOL0     H20273   2.443   7.678  10.152  1.5784 -0.6438 -0.9105
  147MOL0     H20274   2.233   7.765  10.145  0.4817  1.8760 -0.0132
  147MOL0     H20275   2.217   7.672  10.298 -0.2129 -1.0694  0.2244
  147MOL0     H20276   1.990   7.748  10.239  1.3479 -2.0993  0.5025
  147MOL0     H20277   2.053   7.913  10.200  0.5285  0.0196 -0.3341
  147MOL0     H20278   2.103   7.770  10.467  1.1505 -0.2257 -0.7134
  147MOL0     H20279   2.092   7.951  10.425 -1.1493  0.4584  0.1921
  147MOL0     H20280   1.854   7.772  10.409  1.6297 -1.1831  1.3376
  147MOL0     H20281   1.865   7.949  10.384 -2.6703  0.3017  2.2600
  147MOL0     H20282   1.814   7.943  10.799  2.3133 -2.3702  1.4405
  147MOL0     H20283   2.440   8.052  10.354 -0.1878 -3.0964  1.6398
  147MOL0     H20284   2.626   8.211  10.100  1.3587 -2.4699 -0.9086
  147MOL0     H20285   2.584   8.220  10.269 -0.7524 -0.0009 -0.6157
  147MOL0     H20286   2.755   8.192  10.223 -0.0187  1.1929 -0.3463
  148MOL0     O20287   7.950   8.197   3.234 -0.3249 -0.7490 -0.0708
  148MOL0     C20288   7.958   8.177   3.111 -0.2886 -0.4723 -0.5032
  148MOL0     O20289   8.075   8.172   3.051 -0.4720  0.4906 -0.4704
  148MOL0     C20290   8.190   8.213   3.104  0.5287  0.0088  0.3605
  148MOL0     C20291   8.287   8.121   3.150 -0.1407  0.4596 -0.3065
  148MOL0     C20292   8.407   8.155   3.200  0.0880 -0.6224 -0.6857
  148MOL0     C20293   8.450   8.290   3.210 -0.0233  0.6746  1.1360
  148MOL0     O20294   8.575   8.319   3.256 -0.0512 -0.0822  0.3797
  148MOL0     C20295   8.682   8.302   3.161 -0.5981 -0.2320 -0.7130
  148MOL0     C20296   8.752   8.434   3.150 -0.2228 -0.1431 -0.0057
  148MOL0     C20297   8.889   8.424   3.081  0.4399  0.8489 -0.2226
  148MOL0     C20298   8.948   8.568   3.080  0.1675  0.1999  1.7265
  148MOL0     C20299   9.101   8.573   3.058 -0.1024  0.8491 -0.1314
  148MOL0     C20300   9.156   8.517   2.930 -0.5703 -0.7588 -0.5506
  148MOL0     C20301   9.307   8.540   2.916 -0.8763 -0.0415 -0.0455
  148MOL0     C20302   9.363   8.541   2.773 -0.7268 -0.2716 -0.2647
  148MOL0     N20303   9.515   8.552   2.760  0.0312 -0.0254 -0.2858
  148MOL0     C20304   9.579   8.676   2.748  1.0098  0.0288 -0.1078
  148MOL0     C20305   9.709   8.646   2.760  0.6682 -0.6782 -0.0324
  148MOL0     C20306   9.816   8.750   2.762  0.1913 -0.0951  0.4132
  148MOL0     C20307   9.882   8.750   2.899 -0.0524  0.0533  0.2368
  148MOL0     C20308   9.985   8.873   2.923  0.0428  0.2663  0.5441
  148MOL0     C20309  10.121   8.859   2.849 -1.0333 -0.0121 -0.3642
  148MOL0     O20310  10.202   8.960   2.911  0.1251 -0.3353 -0.0804
  148MOL0     C20311  10.332   8.987   2.860 -0.1357 -1.4276  0.5406
  148MOL0     C20312  10.419   9.072   2.933  1.0131  0.0064 -0.5135
  148MOL0     C20313  10.544   9.098   2.887 -0.2810 -1.0394 -0.0103
  148MOL0     C20314  10.630   9.170   2.975 -0.7972  0.1182 -0.5967
  148MOL0     C20315  10.595   9.048   2.762 -0.0778 -0.3884  0.3918
  148MOL0     C20316  10.721   9.078   2.707 -0.4434 -0.3028  0.6968
  148MOL0     O20317  10.792   8.981   2.641 -0.4149 -0.0556  0.3333
  148MOL0     C20318  10.916   9.016   2.612  0.5926 -0.3495 -0.5127
  148MOL0     C20319  10.937   9.038   2.476  0.0326  0.1479  0.6790
  148MOL0     C20320  11.064   9.066   2.423 -0.1016  0.0150  0.8825
  148MOL0     C20321  11.171   9.068   2.508 -0.8686  0.0057  0.3770
  148MOL0     O20322  11.284   9.111   2.450  0.2046 -0.6293 -0.7409
  148MOL0     C20323  11.393   9.145   2.538  0.1222 -0.4127  0.5369
  148MOL0     C20324  11.516   9.200   2.453 -0.0674  0.8906  0.5848
  148MOL0     C20325  11.576   9.083   2.367  0.3947  0.6973  0.2728
  148MOL0     C20326  11.686   9.141   2.277  0.0914 -0.5249  0.7693
  148MOL0     C20327  11.818   9.146   2.349 -0.8368  0.2625  0.3670
  148MOL0     C20328  11.933   9.201   2.252 -0.3308  0.5614 -0.7813
  148MOL0     C20329  12.073   9.188   2.310 -0.1018 -0.2630 -0.2510
  148MOL0     C20330  12.182   9.270   2.220  0.5024  0.7730 -0.3927
  148MOL0    Cl20331  12.334   9.269   2.315 -0.0722 -0.5276  0.1986
  148MOL0     C20332  11.151   9.047   2.644 -0.7126 -0.1226  0.1822
  148MOL0     C20333  11.028   9.025   2.697  0.3786  0.0253 -0.7732
  148MOL0     O20334  10.758   9.195   2.714  0.6547  0.1645  0.2445
  148MOL0     C20335  10.507   8.972   2.696  0.1868 -0.9803  0.6947
  148MOL0     C20336  10.373   8.943   2.735  0.7669 -0.0092 -0.0119
  148MOL0     N20337   9.727   8.504   2.749 -0.0235 -0.2029  0.2474
  148MOL0     N20338   9.605   8.454   2.750  0.8424 -0.2566  0.6499
  148MOL0     C20339   8.358   8.390   3.177  0.2918  0.4849 -0.4153
  148MOL0     C20340   8.227   8.354   3.124  0.0972 -0.4923  0.1766
  148MOL0     C20341   7.841   8.160   3.034  0.1193 -0.3177 -0.1753
  148MOL0     C20342   7.718   8.193   3.103 -0.4047 -0.2148  0.0378
  148MOL0     C20343   7.598   8.193   3.042 -0.7944  0.2509  0.4202
  148MOL0     C20344   7.588   8.159   2.910 -1.5442 -0.4737 -0.4318
  148MOL0     O20345   7.469   8.164   2.846  0.0742  0.0529  0.2585
  148MOL0     C20346   7.398   8.040   2.841 -0.6512 -0.5943  0.1627
  148MOL0     C20347   7.274   8.055   2.751 -0.0923 -1.0372  0.3368
  148MOL0     C20348   7.205   7.923   2.734 -0.2131 -0.0024 -0.0762
  148MOL0     C20349   7.117   7.884   2.854  0.0427  0.4710  0.4532
  148MOL0     C20350   7.090   7.738   2.847 -0.2835 -0.3033 -1.6390
  148MOL0     C20351   7.066   7.625   2.864 -0.0405  0.1016  0.2141
  148MOL0     C20352   7.701   8.120   2.841 -0.0851 -0.6491 -0.2664
  148MOL0     C20353   7.827   8.115   2.900  0.5102  0.3484  0.7870
  148MOL0     C20354   7.950   8.075   2.818  0.4712  0.5502 -0.7285
  148MOL0     H20355   8.257   8.017   3.144  2.8222 -0.4692 -0.5290
  148MOL0     H20356   8.489   8.085   3.212  0.6598 -0.0254 -1.0189
  148MOL0     H20357   8.647   8.256   3.069 -1.9625  1.8404 -1.3021
  148MOL0     H20358   8.744   8.229   3.214 -2.7215 -0.7813  1.1850
  148MOL0     H20359   8.683   8.502   3.099  0.9124  0.1152 -1.2563
  148MOL0     H20360   8.764   8.453   3.257 -0.4687 -1.0556  0.1862
  148MOL0     H20361   8.955   8.362   3.141  0.7253  1.8703  0.5460
  148MOL0     H20362   8.874   8.386   2.979 -5.1445  0.3016  0.4616
  148MOL0     H20363   8.889   8.625   3.008 -1.9436 -0.9329  2.4640
  148MOL0     H20364   8.919   8.632   3.164 -1.3717  2.6387 -0.5184
  148MOL0     H20365   9.148   8.513   3.136  1.8299  0.7150 -1.3478
  148MOL0     H20366   9.131   8.678   3.064 -0.0996  1.1075 -3.1323
  148MOL0     H20367   9.134   8.410   2.926 -0.9269 -0.7414  0.5019
  148MOL0     H20368   9.105   8.565   2.846 -1.5163 -0.5158  0.1368
  148MOL0     H20369   9.355   8.464   2.978 -1.8540  0.4374  1.3584
  148MOL0     H20370   9.333   8.637   2.959 -0.3212 -0.3880  0.4016
  148MOL0     H20371   9.332   8.452   2.717  1.4012 -0.4111 -1.3177
  148MOL0     H20372   9.325   8.626   2.717  0.0696  0.6798  0.6028
  148MOL0     H20373   9.549   8.780   2.757 -0.3458 -0.3667  0.2793
  148MOL0     H20374   9.772   8.846   2.733  0.8790  0.1319  0.0904
  148MOL0     H20375   9.900   8.720   2.698  0.3097  0.9027  0.0947
  148MOL0     H20376   9.808   8.754   2.980 -0.5816  0.8520 -0.2650
  148MOL0     H20377   9.931   8.655   2.921 -0.0786 -0.5699 -2.0882
  148MOL0     H20378   9.932   8.965   2.898  1.4296  0.6137 -1.3887
  148MOL0     H20379   9.996   8.864   3.031 -0.0824  2.6121  0.7970
  148MOL0     H20380  10.158   8.756   2.846 -1.4832 -0.2190  0.7997
  148MOL0     H20381  10.116   8.892   2.745 -0.0011  0.1772 -0.3692
  148MOL0     H20382  10.379   9.116   3.024  0.6805 -1.9178  0.3241
  148MOL0     H20383  10.586   9.178   3.075  0.9330  2.1626  0.0745
  148MOL0     H20384  10.655   9.269   2.936  0.9239  0.3256  0.9257
  148MOL0     H20385  10.713   9.100   2.972 -2.8466 -2.6477  1.3886
  148MOL0     H20386  10.854   9.021   2.408 -0.8481  0.0943  1.7370
  148MOL0     H20387  11.075   9.076   2.316  1.6824  0.8570  1.1133
  148MOL0     H20388  11.368   9.228   2.605 -1.7927 -1.0143  0.6290
  148MOL0     H20389  11.421   9.056   2.595  0.6141  0.7346  2.1883
  148MOL0     H20390  11.496   9.283   2.384  0.5756  2.8409  2.6336
  148MOL0     H20391  11.589   9.229   2.529  0.9334 -1.1846  0.4730
  148MOL0     H20392  11.495   9.041   2.307  0.8733  0.7775 -0.4383
  148MOL0     H20393  11.617   9.000   2.425 -0.4218  0.1786  0.1240
  148MOL0     H20394  11.668   9.242   2.241  0.7446 -1.1644 -1.5136
  148MOL0     H20395  11.700   9.078   2.189 -2.1772 -0.2442  0.1701
  148MOL0     H20396  11.807   9.209   2.438 -1.5471  1.4297 -0.5231
  148MOL0     H20397  11.847   9.052   2.396  1.2201  1.0161  0.6991
  148MOL0     H20398  11.914   9.306   2.232 -1.4434  0.1851 -1.8415
  148MOL0     H20399  11.917   9.142   2.161 -0.0227 -2.6780  1.0813
  148MOL0     H20400  12.093   9.081   2.323 -2.4954 -0.9276 -1.5474
  148MOL0     H20401  12.077   9.232   2.411 -1.9348  0.1482 -0.3306
  148MOL0     H20402  12.140   9.371   2.213 -1.2317  0.1278  0.1136
  148MOL0     H20403  12.199   9.227   2.121  1.0696  0.7156 -0.2728
  148MOL0     H20404  11.232   9.039   2.716 -1.0019  0.1773  0.5415
  148MOL0     H20405  11.019   8.998   2.802 -1.7883  1.7744 -0.4422
  148MOL0     H20406  10.537   8.947   2.594  0.3691 -0.2798  0.5714
  148MOL0     H20407  10.313   8.877   2.673  0.2562 -2.6524  3.0238
  148MOL0     H20408   8.386   8.493   3.200  1.0397  0.5847 -1.6999
  148MOL0     H20409   8.160   8.437   3.102 -1.2326 -1.5286  0.1993
  148MOL0     H20410   7.722   8.231   3.205 -0.3478  0.1814 -0.1141
  148MOL0     H20411   7.504   8.203   3.095  0.6023  3.1251  2.6309
  148MOL0     H20412   7.462   7.967   2.791  0.8648  1.5875 -1.2983
  148MOL0     H20413   7.378   8.001   2.941 -0.1404  2.0835  1.4015
  148MOL0     H20414   7.318   8.099   2.661  1.4545 -1.6828  0.7540
  148MOL0     H20415   7.210   8.134   2.792 -0.4873 -1.1075 -0.1328
  148MOL0     H20416   7.148   7.920   2.641 -1.7257 -0.1052  0.8355
  148MOL0     H20417   7.282   7.845   2.731 -2.0472 -1.9360 -3.5594
  148MOL0     H20418   7.019   7.930   2.839 -0.5056 -1.1371 -1.3690
  148MOL0     H20419   7.166   7.903   2.950 -1.3836  0.8317  1.1406
  148MOL0     H20420   7.023   7.530   2.890 -0.1506  0.0406 -0.1811
  148MOL0     H20421   7.674   8.101   2.738 -2.6808  0.5008  0.1082
  148MOL0     H20422   7.995   7.987   2.864 -2.4510 -0.9787 -0.5084
  148MOL0     H20423   7.922   8.036   2.720 -0.0471 -0.0449 -0.3582
  148MOL0     H20424   8.020   8.155   2.793  1.4058  0.2857  0.8916
  149MOL0     O20425   7.486   2.034   2.943  0.2661 -0.1739  0.2527
  149MOL0     C20426   7.405   2.105   2.993 -0.3746 -0.9509 -0.2246
  149MOL0     O20427   7.420   2.241   3.004 -0.6651 -0.5341 -0.0961
  149MOL0     C20428   7.467   2.313   2.900 -0.1476 -0.8661  0.6210
  149MOL0     C20429   7.405   2.434   2.872 -0.3348  0.2572  0.4610
  149MOL0     C20430   7.442   2.511   2.765  0.4366 -0.1878 -0.2674
  149MOL0     C20431   7.547   2.468   2.682 -0.2121 -0.2364  0.2563
  149MOL0     O20432   7.571   2.533   2.567  0.6950 -0.4108 -0.3367
  149MOL0     C20433   7.704   2.560   2.525 -0.2544 -0.0345 -0.0990
  149MOL0     C20434   7.784   2.625   2.643  0.3807  0.4039  0.5109
  149MOL0     C20435   7.926   2.679   2.598  0.5296 -0.0646  1.2060
  149MOL0     C20436   8.007   2.703   2.724 -0.3658  0.1471  0.3759
  149MOL0     C20437   8.072   2.565   2.759 -0.6579  0.2284 -1.1166
  149MOL0     C20438   8.156   2.578   2.884 -0.0638  0.2002 -0.5941
  149MOL0     C20439   8.067   2.573   3.012 -0.7388 -0.3998  0.3776
  149MOL0     C20440   8.146   2.556   3.138  0.9054 -0.4510  0.0561
  149MOL0     N20441   8.233   2.669   3.166 -0.0922  0.1042 -0.1075
  149MOL0     C20442   8.189   2.804   3.177 -0.2116  0.6552  0.8241
  149MOL0     C20443   8.294   2.880   3.217  0.8162 -0.2166 -0.2512
  149MOL0     C20444   8.272   3.025   3.254 -0.0578  0.8093 -0.0091
  149MOL0     C20445   8.369   3.072   3.358 -0.3991  0.2125 -0.6516
  149MOL0     C20446   8.350   3.216   3.413 -0.2370  0.8893  0.4183
  149MOL0     C20447   8.455   3.244   3.525  0.0670 -0.7400  0.0847
  149MOL0     O20448   8.441   3.381   3.544 -0.0963  0.1140 -0.0971
  149MOL0     C20449   8.536   3.446   3.615  0.4471  0.0627 -0.8552
  149MOL0     C20450   8.636   3.379   3.698  0.7772 -1.1185 -0.1389
  149MOL0     C20451   8.739   3.460   3.757  0.1272  0.1396 -0.3305
  149MOL0     C20452   8.840   3.381   3.839  0.1170  0.3723 -0.3369
  149MOL0     C20453   8.740   3.594   3.742 -0.4022  0.7211 -0.4440
  149MOL0     C20454   8.842   3.684   3.809  0.6744 -0.5230  0.6449
  149MOL0     O20455   8.835   3.810   3.756  0.4458 -0.2414  0.2971
  149MOL0     C20456   8.938   3.900   3.758  0.8846  0.0126  0.0957
  149MOL0     C20457   9.067   3.879   3.806  0.7749 -0.1530 -0.2615
  149MOL0     C20458   9.171   3.976   3.803 -0.0713 -0.5607 -0.1036
  149MOL0     C20459   9.145   4.102   3.750 -0.0915 -0.1099  0.3659
  149MOL0     O20460   9.247   4.192   3.759  0.0319 -0.1704 -0.3237
  149MOL0     C20461   9.196   4.332   3.768  0.1937 -0.5450 -0.3313
  149MOL0     C20462   9.312   4.427   3.804 -0.3292 -1.2758 -0.0943
  149MOL0     C20463   9.261   4.570   3.771 -0.6255  0.3053 -0.7872
  149MOL0     C20464   9.365   4.668   3.841  0.6149 -0.4579 -0.0722
  149MOL0     C20465   9.466   4.719   3.739  0.6023  0.1761 -0.1464
  149MOL0     C20466   9.568   4.806   3.804 -1.0469  0.0095  0.0248
  149MOL0     C20467   9.652   4.887   3.706  0.9345 -0.6249 -0.2030
  149MOL0     C20468   9.779   4.959   3.768  0.5263 -0.1993  0.9225
  149MOL0    Cl20469   9.736   5.046   3.917 -0.4265  0.4543  0.2477
  149MOL0     C20470   9.024   4.113   3.680  0.4432 -0.8691  0.8449
  149MOL0     C20471   8.920   4.019   3.685 -0.6243 -0.9236  0.1217
  149MOL0     O20472   8.888   3.660   3.916 -0.6668  0.2363 -0.5181
  149MOL0     C20473   8.653   3.657   3.650  0.5317  0.0370  0.2562
  149MOL0     C20474   8.553   3.583   3.593 -0.0581 -0.3611  0.4884
  149MOL0     N20475   8.406   2.802   3.232 -0.5699  0.5744 -0.2099
  149MOL0     N20476   8.368   2.671   3.208 -0.4699 -0.8728  0.9630
  149MOL0     C20477   7.624   2.353   2.712  0.6245 -0.6416  0.4303
  149MOL0     C20478   7.577   2.272   2.816  0.6839  0.2637  0.0017
  149MOL0     C20479   7.298   2.042   3.069  0.7965 -0.6643  0.2977
  149MOL0     C20480   7.312   1.906   3.105 -0.2113  0.0568 -0.6834
  149MOL0     C20481   7.213   1.834   3.174  0.3647 -0.1509 -0.0890
  149MOL0     C20482   7.101   1.902   3.217  1.0357  0.0979  0.8271
  149MOL0     O20483   7.019   1.826   3.289  0.4930  0.3401 -0.2774
  149MOL0     C20484   6.888   1.863   3.328 -0.4296 -0.1585  0.1512
  149MOL0     C20485   6.894   1.936   3.469  0.3047  0.0751 -0.6772
  149MOL0     C20486   6.908   1.833   3.587 -0.4065 -1.1833 -0.1785
  149MOL0     C20487   6.948   1.893   3.720  0.2938  0.0465  0.0867
  149MOL0     C20488   6.873   2.009   3.764 -0.0239 -0.6614 -0.7836
  149MOL0     C20489   6.819   2.110   3.803 -0.1228  0.1804  1.4441
  149MOL0     C20490   7.093   2.036   3.191  0.7982 -0.8227  0.3055
  149MOL0     C20491   7.184   2.112   3.117 -0.1708  0.1874 -0.0399
  149MOL0     C20492   7.139   2.246   3.095  0.1418  0.0781  0.9406
  149MOL0     H20493   7.319   2.478   2.921 -1.3458  0.7699 -1.6152
  149MOL0     H20494   7.400   2.610   2.751 -0.2887 -0.5032 -0.3722
  149MOL0     H20495   7.700   2.634   2.445 -0.2531 -0.4583 -0.4950
  149MOL0     H20496   7.748   2.468   2.487 -0.9947 -0.1745 -0.6351
  149MOL0     H20497   7.721   2.706   2.681  1.0259  1.8160 -1.3036
  149MOL0     H20498   7.799   2.548   2.719  1.2458  1.0591  1.0135
  149MOL0     H20499   7.983   2.608   2.538  2.0306  1.0572  1.2502
  149MOL0     H20500   7.915   2.774   2.544 -0.8786  0.5891  2.5849
  149MOL0     H20501   8.083   2.779   2.707 -0.8631  1.1477  2.3300
  149MOL0     H20502   7.951   2.733   2.813 -1.3977  1.4271 -0.6732
  149MOL0     H20503   8.141   2.534   2.680 -1.4587 -1.9472 -1.0415
  149MOL0     H20504   7.992   2.491   2.772  0.8766 -1.1323  1.4435
  149MOL0     H20505   8.225   2.493   2.877 -1.0052 -0.6811  0.4153
  149MOL0     H20506   8.222   2.664   2.881 -0.1883  0.2955 -0.6039
  149MOL0     H20507   8.008   2.482   3.009  0.8657 -1.4563 -0.4361
  149MOL0     H20508   7.998   2.657   3.028 -2.6839 -1.7409 -0.6780
  149MOL0     H20509   8.080   2.556   3.225  2.3110  3.2115  1.3423
  149MOL0     H20510   8.194   2.460   3.118 -0.3729 -0.3180 -5.0307
  149MOL0     H20511   8.090   2.844   3.164 -0.2970  0.1143 -0.2983
  149MOL0     H20512   8.167   3.034   3.282 -0.7526  1.5451 -2.5916
  149MOL0     H20513   8.279   3.088   3.165 -1.0203  2.7326  1.2051
  149MOL0     H20514   8.365   3.011   3.449 -2.9895  3.3983  1.5935
  149MOL0     H20515   8.464   3.066   3.303 -0.4462 -1.1606 -0.6086
  149MOL0     H20516   8.381   3.280   3.330  3.4312 -1.4539 -0.2622
  149MOL0     H20517   8.248   3.228   3.450 -0.7753 -1.0212 -0.3367
  149MOL0     H20518   8.441   3.201   3.625  1.1094  0.1969  0.6603
  149MOL0     H20519   8.554   3.206   3.497  0.8064  0.5917  0.8004
  149MOL0     H20520   8.623   3.277   3.730  1.1140 -1.6712 -1.6555
  149MOL0     H20521   8.928   3.384   3.774  0.1788  3.5232 -0.2740
  149MOL0     H20522   8.807   3.279   3.859  0.1227  0.5968  0.9434
  149MOL0     H20523   8.861   3.429   3.936  0.6427 -2.3791  0.9982
  149MOL0     H20524   9.090   3.780   3.845  2.5081  0.1800 -0.3391
  149MOL0     H20525   9.274   3.955   3.833  0.2015 -0.4669 -0.9584
  149MOL0     H20526   9.156   4.359   3.670  1.3926  0.8581 -0.4524
  149MOL0     H20527   9.116   4.334   3.843  0.7305  0.6019  0.2307
  149MOL0     H20528   9.342   4.414   3.908 -1.1330 -1.8164  0.0797
  149MOL0     H20529   9.399   4.395   3.747 -0.3377 -0.4206 -0.6056
  149MOL0     H20530   9.165   4.586   3.820  0.6034  2.9447  1.0376
  149MOL0     H20531   9.242   4.586   3.665 -1.3302  0.5675 -0.6223
  149MOL0     H20532   9.416   4.620   3.925 -1.1685 -0.3557  1.1257
  149MOL0     H20533   9.315   4.755   3.883  1.7042  0.0460  0.2139
  149MOL0     H20534   9.511   4.627   3.701 -0.4316 -1.0008  1.3425
  149MOL0     H20535   9.413   4.783   3.667 -1.2521  0.4816  1.4134
  149MOL0     H20536   9.641   4.760   3.870 -2.2662 -1.2360  0.5662
  149MOL0     H20537   9.513   4.875   3.868  0.1788  1.5922 -0.5856
  149MOL0     H20538   9.583   4.963   3.669 -0.0924 -1.1554  0.5690
  149MOL0     H20539   9.682   4.819   3.626  1.5359  1.1969 -1.5869
  149MOL0     H20540   9.833   5.023   3.697  0.8514 -0.2406  1.1329
  149MOL0     H20541   9.842   4.872   3.787  1.6888  0.3480 -0.2592
  149MOL0     H20542   9.006   4.206   3.626 -2.5058 -0.4967  2.2694
  149MOL0     H20543   8.827   4.037   3.633 -0.3542 -0.9383 -0.3819
  149MOL0     H20544   8.662   3.760   3.619  3.0696  0.0874  0.9769
  149MOL0     H20545   8.475   3.621   3.527 -0.4898  0.1282  1.2708
  149MOL0     H20546   7.700   2.314   2.645 -0.4807 -1.3471 -0.4409
  149MOL0     H20547   7.641   2.186   2.836  1.2254  0.8667  0.9421
  149MOL0     H20548   7.402   1.855   3.073  2.0701  0.6985  3.9221
  149MOL0     H20549   7.216   1.727   3.194  0.9791  0.1580  1.6242
  149MOL0     H20550   6.841   1.919   3.247  0.5737  1.1089  0.4006
  149MOL0     H20551   6.839   1.766   3.340  0.3627 -0.2746  3.4395
  149MOL0     H20552   6.806   2.001   3.473  0.1971  0.0296 -1.8078
  149MOL0     H20553   6.975   2.008   3.477 -1.4287  1.9236  1.8740
  149MOL0     H20554   6.820   1.769   3.598 -0.7060 -1.1389 -1.9716
  149MOL0     H20555   6.985   1.759   3.566  0.4375 -0.6411  0.9141
  149MOL0     H20556   7.050   1.927   3.700 -0.6215  1.6179 -2.3991
  149MOL0     H20557   6.948   1.814   3.795 -0.3546 -1.7639 -1.7262
  149MOL0     H20558   6.783   2.208   3.825  0.2953  1.0611 -1.3631
  149MOL0     H20559   7.014   2.082   3.248  0.0190 -1.9655  0.1874
  149MOL0     H20560   7.174   2.267   2.993 -2.7348 -1.5480 -0.5023
  149MOL0     H20561   7.033   2.272   3.101  1.2758  6.4316  0.6510
  149MOL0     H20562   7.198   2.302   3.169  2.7074 -1.1789 -0.0067
  150MOL0     O20563   5.103   7.488   7.607  0.1731 -0.6068 -0.2942
  150MOL0     C20564   5.056   7.590   7.557 -0.1290  0.1730  0.9214
  150MOL0     O20565   5.128   7.669   7.479  1.0585 -0.1588 -0.2005
  150MOL0     C20566   5.262   7.656   7.478 -0.1551 -0.3420 -0.0595
  150MOL0     C20567   5.331   7.592   7.384 -0.3495 -0.2547 -0.5641
  150MOL0     C20568   5.476   7.576   7.393 -0.2904 -0.3179  0.7782
  150MOL0     C20569   5.547   7.648   7.488 -1.2626  0.2592  0.8713
  150MOL0     O20570   5.678   7.668   7.487 -0.7726  0.2505  0.1488
  150MOL0     C20571   5.764   7.559   7.448  0.3482 -0.2232 -0.0728
  150MOL0     C20572   5.917   7.605   7.455  0.3961 -0.6506 -0.6390
  150MOL0     C20573   5.976   7.594   7.599 -0.0519  0.5245 -0.5168
  150MOL0     C20574   6.125   7.626   7.594  0.4948 -0.1205  0.5101
  150MOL0     C20575   6.183   7.630   7.731 -0.6786 -0.8422 -0.4447
  150MOL0     C20576   6.164   7.761   7.816 -0.5134  0.3106 -0.4037
  150MOL0     C20577   6.261   7.755   7.931 -1.2491  0.9393  0.0261
  150MOL0     C20578   6.249   7.868   8.029  0.2695  1.5814 -0.2118
  150MOL0     N20579   6.314   7.982   7.973 -0.0118 -0.3190 -0.5104
  150MOL0     C20580   6.442   8.019   7.998 -0.0971 -0.3936  0.2369
  150MOL0     C20581   6.452   8.142   7.944 -0.7023 -0.1711  0.3294
  150MOL0     C20582   6.577   8.226   7.948 -0.0208 -0.0739  0.5642
  150MOL0     C20583   6.705   8.152   7.983 -0.0042  0.0682  0.2878
  150MOL0     C20584   6.757   8.059   7.866 -0.0271 -0.1946 -0.5146
  150MOL0     C20585   6.904   8.045   7.857  0.1913 -0.6756 -0.7287
  150MOL0     O20586   6.972   7.981   7.964 -0.0275 -0.3049 -0.1741
  150MOL0     C20587   7.109   7.963   7.956  0.1498  0.3963 -0.0755
  150MOL0     C20588   7.188   7.912   8.061  0.8907  0.2681  0.0737
  150MOL0     C20589   7.336   7.899   8.053 -0.1882  1.0804 -0.4787
  150MOL0     C20590   7.416   7.858   8.172 -0.3016  0.1077 -0.4001
  150MOL0     C20591   7.393   7.914   7.924 -0.8469 -0.2719  0.5651
  150MOL0     C20592   7.540   7.905   7.896  0.3888 -0.5457 -0.0298
  150MOL0     O20593   7.628   7.924   7.989  0.5002 -0.2091  0.1603
  150MOL0     C20594   7.767   7.924   7.975 -0.9313 -0.2732  1.4455
  150MOL0     C20595   7.847   7.813   8.022 -0.8979  0.3458  1.0324
  150MOL0     C20596   7.986   7.809   8.000 -0.0652 -0.3957 -0.1821
  150MOL0     C20597   8.051   7.918   7.940 -0.5507 -0.1696  0.3496
  150MOL0     O20598   8.187   7.912   7.903 -0.4878 -0.9527 -0.5554
  150MOL0     C20599   8.255   7.784   7.893 -1.0336 -0.7587 -0.3197
  150MOL0     C20600   8.404   7.799   7.848 -0.4196  0.3299  0.5414
  150MOL0     C20601   8.492   7.850   7.947  0.7366  0.5737  0.4779
  150MOL0     C20602   8.636   7.802   7.918 -0.8706 -0.1993 -0.0156
  150MOL0     C20603   8.740   7.875   8.007 -0.6593 -0.5338 -0.6150
  150MOL0     C20604   8.882   7.802   8.021  0.5929  0.3301  0.4230
  150MOL0     C20605   8.987   7.910   8.047  0.1628 -0.0333  0.2905
  150MOL0     C20606   9.122   7.850   8.084 -0.2430 -0.2620 -0.1213
  150MOL0    Cl20607   9.208   7.779   7.938 -0.0462  0.3533 -0.2367
  150MOL0     C20608   7.971   8.026   7.896 -0.4714 -0.1643 -0.0001
  150MOL0     C20609   7.833   8.032   7.918 -0.1432  0.4602  0.9405
  150MOL0     O20610   7.568   7.894   7.777 -0.1724  0.7256  0.8314
  150MOL0     C20611   7.315   7.963   7.819 -0.1631 -0.3339  0.9679
  150MOL0     C20612   7.177   7.989   7.840  0.0640  0.4872 -0.6097
  150MOL0     N20613   6.332   8.184   7.881 -0.2583 -0.1773  0.3027
  150MOL0     N20614   6.248   8.091   7.918  0.2734  0.1262  0.2449
  150MOL0     C20615   5.466   7.717   7.581  0.7674  0.4051  0.3446
  150MOL0     C20616   5.331   7.719   7.583  0.0600 -0.5108 -0.6128
  150MOL0     C20617   4.911   7.613   7.576 -0.2461  0.1009  0.5037
  150MOL0     C20618   4.846   7.555   7.678 -0.0627 -0.3572 -0.6664
  150MOL0     C20619   4.716   7.588   7.713  0.0162  0.5824 -0.0586
  150MOL0     C20620   4.637   7.666   7.636 -0.7907 -0.3525  0.8655
  150MOL0     O20621   4.517   7.689   7.695 -0.7339 -0.2557  0.3990
  150MOL0     C20622   4.414   7.695   7.594  0.0130 -0.1614  0.2100
  150MOL0     C20623   4.288   7.684   7.657  0.7688  0.8478 -0.6409
  150MOL0     C20624   4.176   7.690   7.556  0.5563 -0.9768  0.0035
  150MOL0     C20625   4.060   7.601   7.606  0.1825  0.5852  0.0384
  150MOL0     C20626   3.928   7.635   7.543  0.1605 -0.5178  0.4612
  150MOL0     C20627   3.821   7.665   7.490 -0.7913 -0.2431  0.2306
  150MOL0     C20628   4.697   7.723   7.522  0.0474 -0.0294  0.2082
  150MOL0     C20629   4.833   7.695   7.493 -0.0542 -0.5587  0.3205
  150MOL0     C20630   4.877   7.756   7.362 -0.5237 -0.3590  0.7124
  150MOL0     H20631   5.276   7.543   7.304 -1.8385 -1.2203  0.9774
  150MOL0     H20632   5.517   7.505   7.321 -1.0708 -1.5525  1.5040
  150MOL0     H20633   5.740   7.544   7.342 -1.0604  0.6165  0.1024
  150MOL0     H20634   5.746   7.469   7.507  2.2563  1.2765  3.0459
  150MOL0     H20635   5.978   7.564   7.374  0.5446  0.3112 -1.0271
  150MOL0     H20636   5.917   7.712   7.431 -3.2522  0.2680  2.4570
  150MOL0     H20637   5.920   7.659   7.667  0.9040 -0.2249  1.0385
  150MOL0     H20638   5.965   7.488   7.625 -2.5249  0.3466 -1.9263
  150MOL0     H20639   6.182   7.552   7.537  0.5929  1.9307 -2.2507
  150MOL0     H20640   6.138   7.724   7.547 -2.7282  0.0458 -0.2393
  150MOL0     H20641   6.290   7.608   7.726 -0.3199 -0.9908  4.0264
  150MOL0     H20642   6.144   7.548   7.792  0.6684 -0.7159  0.6485
  150MOL0     H20643   6.183   7.854   7.762 -0.7480  1.8708  2.0464
  150MOL0     H20644   6.057   7.764   7.840 -0.7702 -2.8121 -0.7531
  150MOL0     H20645   6.365   7.751   7.898 -0.2391 -0.1093  3.0252
  150MOL0     H20646   6.238   7.668   7.993  1.8091  0.6880  0.9702
  150MOL0     H20647   6.141   7.883   8.035 -0.7507 -3.3170 -1.6248
  150MOL0     H20648   6.295   7.831   8.121 -1.0162 -0.8255 -0.4575
  150MOL0     H20649   6.521   7.957   8.039 -0.8397 -0.2428  1.9860
  150MOL0     H20650   6.562   8.304   8.023 -0.8100  0.3692 -0.0337
  150MOL0     H20651   6.580   8.279   7.852 -4.0008 -2.2832 -1.0586
  150MOL0     H20652   6.778   8.231   8.000  0.1716  0.9835 -3.8375
  150MOL0     H20653   6.689   8.093   8.075  2.1600 -2.6300 -0.9069
  150MOL0     H20654   6.719   7.958   7.882  1.0238 -0.8574 -2.0241
  150MOL0     H20655   6.720   8.104   7.774 -0.0881 -0.1268 -0.4570
  150MOL0     H20656   6.920   7.982   7.769 -1.8577 -0.2721 -1.4288
  150MOL0     H20657   6.958   8.139   7.839  0.8580 -0.8619  0.1910
  150MOL0     H20658   7.135   7.883   8.152 -0.9216  0.2843 -0.9363
  150MOL0     H20659   7.355   7.838   8.261  2.6874  0.0881  1.8053
  150MOL0     H20660   7.481   7.943   8.197 -2.0584  2.0667 -2.1025
  150MOL0     H20661   7.476   7.768   8.160  1.9691  1.0705  2.4541
  150MOL0     H20662   7.804   7.732   8.080 -1.4054 -0.9468 -1.0541
  150MOL0     H20663   8.043   7.723   8.037  0.7337 -0.2344 -0.9949
  150MOL0     H20664   8.245   7.735   7.990 -0.8014 -2.1211 -0.9608
  150MOL0     H20665   8.208   7.719   7.819  1.1959 -1.8455 -0.8687
  150MOL0     H20666   8.431   7.693   7.840 -1.5006 -0.0368  1.4550
  150MOL0     H20667   8.414   7.851   7.752 -3.8471  2.8923  1.3618
  150MOL0     H20668   8.463   7.812   8.045  0.3565  1.7989  0.8554
  150MOL0     H20669   8.482   7.958   7.956 -1.4616  0.3303  1.4472
  150MOL0     H20670   8.650   7.808   7.809 -2.9078 -2.1370 -0.4754
  150MOL0     H20671   8.638   7.695   7.939  0.6288 -0.3238 -0.6868
  150MOL0     H20672   8.746   7.974   7.961 -4.4039 -0.6906 -1.8280
  150MOL0     H20673   8.701   7.889   8.108  0.1144 -1.6985 -0.1278
  150MOL0     H20674   8.908   7.756   7.925  0.1122  0.8472  0.0375
  150MOL0     H20675   8.889   7.716   8.087 -0.3675  0.5318  0.8122
  150MOL0     H20676   8.948   7.979   8.123 -2.8401 -0.2058 -0.9763
  150MOL0     H20677   9.008   7.957   7.950  1.5264 -1.0035  0.0790
  150MOL0     H20678   9.111   7.770   8.158  1.2106  1.8568  2.5632
  150MOL0     H20679   9.183   7.930   8.128  1.3638 -0.0727 -2.5392
  150MOL0     H20680   8.030   8.103   7.847 -2.1175  0.1161 -1.6500
  150MOL0     H20681   7.773   8.112   7.877  0.3579 -1.3504 -3.9467
  150MOL0     H20682   7.351   7.961   7.716  4.8176 -2.1653  2.4674
  150MOL0     H20683   7.135   8.026   7.747  4.3122  0.5476 -2.7394
  150MOL0     H20684   5.521   7.771   7.657  0.1207 -0.5605  1.5490
  150MOL0     H20685   5.277   7.768   7.663  0.7575 -0.9156  0.1273
  150MOL0     H20686   4.889   7.489   7.752 -1.2741  0.0883  0.4676
  150MOL0     H20687   4.671   7.551   7.805  2.3877  1.5576  1.5943
  150MOL0     H20688   4.428   7.792   7.544  3.1986 -0.7465 -0.2071
  150MOL0     H20689   4.429   7.618   7.519  0.1341 -1.9057  1.9396
  150MOL0     H20690   4.269   7.770   7.722 -0.4046 -0.7171  1.2007
  150MOL0     H20691   4.289   7.586   7.707  0.4613  1.8154  1.3493
  150MOL0     H20692   4.139   7.792   7.556 -1.0377 -1.5303 -0.3677
  150MOL0     H20693   4.209   7.667   7.454  3.2362  3.0518 -0.2499
  150MOL0     H20694   4.048   7.626   7.712 -1.4041  1.3590 -0.2991
  150MOL0     H20695   4.074   7.493   7.600 -1.6274  0.0688  3.0384
  150MOL0     H20696   3.728   7.693   7.447 -1.0947 -0.5444  0.6785
  150MOL0     H20697   4.647   7.787   7.450  1.7451 -1.0931 -2.0232
  150MOL0     H20698   4.797   7.793   7.296 -0.5250 -1.6094 -0.0221
  150MOL0     H20699   4.945   7.840   7.374 -1.3909  0.3670  0.6739
  150MOL0     H20700   4.924   7.674   7.307  0.3359  0.2107  0.5875
  151MOL0     O20701   8.152   9.272   9.633  0.1717  0.4132  0.1781
  151MOL0     C20702   8.259   9.322   9.664 -0.1040 -0.3200 -0.0779
  151MOL0     O20703   8.294   9.345   9.793 -0.1364 -0.0256  0.9476
  151MOL0     C20704   8.201   9.328   9.894  0.2071 -0.2581  0.6747
  151MOL0     C20705   8.172   9.207   9.952  0.7183 -0.4094 -0.7439
  151MOL0     C20706   8.075   9.197  10.058 -0.2125 -0.5201 -0.7241
  151MOL0     C20707   8.024   9.318  10.110 -0.7789  0.5399  0.0847
  151MOL0     O20708   7.946   9.310  10.225  0.1583  0.2432  0.1327
  151MOL0     C20709   7.829   9.237  10.210  0.5784 -0.2278 -0.7498
  151MOL0     C20710   7.734   9.291  10.310  0.3118  0.7243 -0.0358
  151MOL0     C20711   7.672   9.426  10.268  0.2992 -0.2189  0.1700
  151MOL0     C20712   7.566   9.473  10.368  0.0255 -0.1205  0.0589
  151MOL0     C20713   7.473   9.586  10.322 -0.1269 -0.3315 -0.1093
  151MOL0     C20714   7.352   9.586  10.410  1.0318 -0.1770  0.0344
  151MOL0     C20715   7.387   9.640  10.544 -0.0736  0.0457  0.0270
  151MOL0     C20716   7.266   9.655  10.634  0.4603  0.1886  0.0962
  151MOL0     N20717   7.297   9.679  10.778 -0.0498 -0.1834  0.8436
  151MOL0     C20718   7.292   9.798  10.847  0.3494  0.4826  0.2845
  151MOL0     C20719   7.317   9.757  10.971  0.1922  0.4055  0.2764
  151MOL0     C20720   7.337   9.843  11.097  0.0135 -0.3158  0.7827
  151MOL0     C20721   7.483   9.835  11.160  0.1843 -0.7809 -0.6930
  151MOL0     C20722   7.623   9.876  11.094 -0.0720  0.2068  0.1808
  151MOL0     C20723   7.687   9.771  10.993 -0.0236 -0.0756  0.3142
  151MOL0     O20724   7.679   9.640  11.056 -0.4106 -0.6457 -0.3722
  151MOL0     C20725   7.763   9.557  10.992  0.9064  0.4290  0.2718
  151MOL0     C20726   7.715   9.456  10.910  0.1607  0.1431  0.0034
  151MOL0     C20727   7.800   9.366  10.854  0.0569  0.3462  0.6291
  151MOL0     C20728   7.737   9.249  10.784 -0.5679 -0.5886 -0.0114
  151MOL0     C20729   7.939   9.373  10.873 -0.5700 -0.2889  0.3725
  151MOL0     C20730   8.044   9.288  10.808 -0.4288  0.5968 -0.2656
  151MOL0     O20731   8.168   9.351  10.788  0.3845  0.3232 -0.0935
  151MOL0     C20732   8.269   9.280  10.721  0.1307 -0.4580  0.3554
  151MOL0     C20733   8.262   9.214  10.594 -0.7611 -0.2299  0.2748
  151MOL0     C20734   8.377   9.160  10.541 -0.6703  0.3170 -0.7396
  151MOL0     C20735   8.501   9.164  10.615  0.2299  0.4730 -0.0595
  151MOL0     O20736   8.625   9.117  10.572 -0.2657 -0.5343  0.2913
  151MOL0     C20737   8.622   8.984  10.528  1.4186  1.0941 -0.1339
  151MOL0     C20738   8.758   8.954  10.482 -0.3345  0.3047 -0.4158
  151MOL0     C20739   8.792   9.004  10.340 -0.0248  0.1363  1.8770
  151MOL0     C20740   8.915   8.931  10.284 -0.0954  0.4679  0.2244
  151MOL0     C20741   8.938   8.961  10.133  0.0693 -0.4272  0.0624
  151MOL0     C20742   9.073   8.887  10.090  0.8262  0.4618 -0.1944
  151MOL0     C20743   9.046   8.735  10.064 -0.4826 -0.4236 -0.1947
  151MOL0     C20744   9.170   8.657  10.020 -0.0305  0.5310 -0.4038
  151MOL0    Cl20745   9.133   8.487  10.067 -0.3840  0.2334 -0.0633
  151MOL0     C20746   8.508   9.233  10.732 -0.3735 -0.1083  0.9207
  151MOL0     C20747   8.396   9.298  10.780  0.6444  0.0087 -0.0180
  151MOL0     O20748   8.017   9.171  10.786 -0.3929 -0.5964  0.2086
  151MOL0     C20749   7.985   9.483  10.951  0.0035 -0.0171 -0.1812
  151MOL0     C20750   7.900   9.570  11.017  0.2005 -0.2274  0.3941
  151MOL0     N20751   7.330   9.620  10.974  0.4075  0.5031 -0.0417
  151MOL0     N20752   7.318   9.577  10.858 -0.5619  0.2167 -0.3769
  151MOL0     C20753   8.053   9.444  10.050 -0.9600  0.1188 -0.3138
  151MOL0     C20754   8.141   9.445   9.936 -0.2414 -0.3267  0.6850
  151MOL0     C20755   8.365   9.347   9.568  0.3716 -0.2229 -0.4204
  151MOL0     C20756   8.498   9.376   9.618  0.2434  0.1949  0.0411
  151MOL0     C20757   8.601   9.372   9.522  0.3324  0.0007  0.0895
  151MOL0     C20758   8.580   9.344   9.389  0.8277  0.4407 -0.0034
  151MOL0     O20759   8.683   9.339   9.294  0.5316  1.0360  0.0025
  151MOL0     C20760   8.821   9.332   9.345  0.1494  0.7580 -0.2599
  151MOL0     C20761   8.913   9.327   9.232  0.0743 -0.7373 -0.5294
  151MOL0     C20762   8.935   9.179   9.177  0.4444  1.1913 -0.0907
  151MOL0     C20763   9.082   9.149   9.139 -0.1590  0.0553 -0.3546
  151MOL0     C20764   9.106   9.029   9.051 -0.0477 -1.1855  0.7489
  151MOL0     C20765   9.138   8.943   8.975  0.9160 -0.2241  0.0727
  151MOL0     C20766   8.451   9.330   9.351 -0.1208  0.0813  1.0253
  151MOL0     C20767   8.343   9.329   9.434 -0.5637 -0.0349  0.9024
  151MOL0     C20768   8.205   9.305   9.366  0.1726 -0.4882  0.3684
  151MOL0     H20769   8.227   9.120   9.916  1.5053 -0.6450  0.9253
  151MOL0     H20770   8.043   9.100  10.093  1.6024 -0.5222  1.0970
  151MOL0     H20771   7.855   9.132  10.228  2.7605  0.4530  0.5822
  151MOL0     H20772   7.781   9.240  10.112 -0.9542 -0.6090 -0.0397
  151MOL0     H20773   7.651   9.219  10.310  0.8922  0.0374 -0.3778
  151MOL0     H20774   7.771   9.286  10.413 -0.8181  0.9724  0.3893
  151MOL0     H20775   7.752   9.500  10.257 -0.1579  0.1309 -0.7887
  151MOL0     H20776   7.623   9.407  10.173  0.7206 -1.1751  0.1358
  151MOL0     H20777   7.518   9.391  10.421  1.1488 -1.3727 -0.8006
  151MOL0     H20778   7.630   9.519  10.444 -0.8019  1.9171 -0.4182
  151MOL0     H20779   7.454   9.561  10.218  0.2675  0.2847 -0.3327
  151MOL0     H20780   7.517   9.686  10.316  0.2689 -0.5274 -0.4344
  151MOL0     H20781   7.280   9.648  10.357  1.9114  0.9369  0.1067
  151MOL0     H20782   7.322   9.481  10.419 -0.7952 -0.2326 -4.4834
  151MOL0     H20783   7.429   9.740  10.531  2.5604 -0.9238  0.2863
  151MOL0     H20784   7.454   9.571  10.596 -1.0172 -1.7048 -0.9520
  151MOL0     H20785   7.203   9.735  10.593 -1.1221 -0.2674  1.4898
  151MOL0     H20786   7.216   9.558  10.630  1.2079 -0.6621  4.7707
  151MOL0     H20787   7.284   9.902  10.815  3.7888  0.7156 -0.1679
  151MOL0     H20788   7.259   9.818  11.169 -1.9596 -0.6630 -1.3632
  151MOL0     H20789   7.319   9.944  11.059  1.1464 -1.3877 -3.0362
  151MOL0     H20790   7.475   9.901  11.247 -2.7860 -2.7824  0.7288
  151MOL0     H20791   7.494   9.733  11.198  0.5800 -0.5320 -0.1089
  151MOL0     H20792   7.601   9.965  11.034  1.4022 -0.4701 -1.4452
  151MOL0     H20793   7.698   9.898  11.170 -1.3306  2.0081  0.9965
  151MOL0     H20794   7.639   9.773  10.895  2.1208  1.7552 -0.7880
  151MOL0     H20795   7.790   9.803  10.976 -0.8264  1.2812 -2.4968
  151MOL0     H20796   7.609   9.432  10.902  0.3176 -0.1177 -1.7818
  151MOL0     H20797   7.629   9.267  10.783 -0.2685  1.5214 -1.8797
  151MOL0     H20798   7.755   9.156  10.838  1.3480  0.0448  0.5051
  151MOL0     H20799   7.779   9.252  10.683  0.9671 -2.3391  0.5189
  151MOL0     H20800   8.167   9.229  10.544  0.1451  4.2015 -0.6207
  151MOL0     H20801   8.377   9.114  10.442 -1.2580 -0.1045 -0.5511
  151MOL0     H20802   8.583   8.924  10.610  0.5924  0.3896 -1.0094
  151MOL0     H20803   8.555   8.971  10.442 -0.1327 -1.8383  1.3739
  151MOL0     H20804   8.827   8.996  10.556 -1.1709 -0.9217  1.1033
  151MOL0     H20805   8.780   8.847  10.481  1.7220  0.5491  3.0507
  151MOL0     H20806   8.791   9.113  10.334  0.1522  0.1599  2.2836
  151MOL0     H20807   8.714   8.982  10.266  0.7210  2.6446  0.1965
  151MOL0     H20808   8.905   8.823  10.293  0.4270  0.3015 -1.0471
  151MOL0     H20809   9.005   8.969  10.335  0.0068  2.8287 -1.5666
  151MOL0     H20810   8.858   8.917  10.072 -0.1447 -1.8591  1.3252
  151MOL0     H20811   8.950   9.069  10.118  0.2376 -0.5120 -0.4354
  151MOL0     H20812   9.142   8.902  10.174 -0.7055  4.3654  0.5625
  151MOL0     H20813   9.125   8.945  10.013  1.2694  1.0792  0.5521
  151MOL0     H20814   8.964   8.720   9.994  1.7250 -1.9557 -2.6230
  151MOL0     H20815   9.020   8.685  10.158  0.2413 -2.2713 -0.9282
  151MOL0     H20816   9.248   8.699  10.084 -0.9003 -1.2491  1.9917
  151MOL0     H20817   9.193   8.662   9.913 -0.4403 -1.2460 -0.6079
  151MOL0     H20818   8.608   9.235  10.775  0.3624  2.1994 -0.7282
  151MOL0     H20819   8.427   9.350  10.870 -1.9251  0.3211  0.7774
  151MOL0     H20820   8.093   9.493  10.962  0.3045 -0.7408 -2.0779
  151MOL0     H20821   7.931   9.639  11.095 -1.7549 -0.1161  1.1415
  151MOL0     H20822   8.018   9.539  10.089  1.2088  0.1783  1.6888
  151MOL0     H20823   8.154   9.533   9.873  0.4322 -1.8570 -1.4453
  151MOL0     H20824   8.507   9.398   9.724  3.4573 -0.3251  0.0054
  151MOL0     H20825   8.701   9.401   9.553  0.4824  1.7196 -1.8589
  151MOL0     H20826   8.832   9.421   9.407 -2.2427 -0.8009  2.7168
  151MOL0     H20827   8.833   9.246   9.412 -0.6329 -1.1032 -2.3665
  151MOL0     H20828   9.003   9.371   9.274 -1.2697  2.4089 -0.6662
  151MOL0     H20829   8.886   9.392   9.148 -0.3764  0.0529  0.2067
  151MOL0     H20830   8.906   9.108   9.254 -0.8679  0.9334 -0.8021
  151MOL0     H20831   8.878   9.178   9.083  1.6588 -0.1996 -0.8542
  151MOL0     H20832   9.136   9.126   9.231 -0.3656 -0.6523 -0.4012
  151MOL0     H20833   9.133   9.235   9.096 -1.8412 -0.1260 -2.9154
  151MOL0     H20834   9.162   8.864   8.908  0.3483 -1.6360  1.4755
  151MOL0     H20835   8.433   9.312   9.245  3.3024 -0.4183  0.4237
  151MOL0     H20836   8.198   9.348   9.266  0.2196 -1.3958 -0.0334
  151MOL0     H20837   8.194   9.197   9.352 -1.5440 -0.4802  1.3638
  151MOL0     H20838   8.120   9.346   9.421 -0.6999 -1.3859 -0.2812
  152MOL0     O20839   3.502  10.080   9.743  0.0331  0.5814 -0.5919
  152MOL0     C20840   3.456   9.970   9.777 -0.2382  1.0075  0.1830
  152MOL0     O20841   3.524   9.873   9.847 -0.3098  0.6025 -0.1327
  152MOL0     C20842   3.657   9.892   9.880  0.9638  1.2746 -0.9576
  152MOL0     C20843   3.755   9.938   9.788 -0.7547  0.7573 -0.6374
  152MOL0     C20844   3.886   9.969   9.834  0.5862 -0.8829 -0.8599
  152MOL0     C20845   3.927   9.939   9.964  0.2516 -0.1603 -0.5643
  152MOL0     O20846   4.043   9.972  10.025  0.2567 -0.3260 -0.0010
  152MOL0     C20847   4.161   9.999   9.942 -0.4552  0.5232 -0.1846
  152MOL0     C20848   4.282   9.947  10.014 -0.4812 -0.6476  1.2151
  152MOL0     C20849   4.412   9.995   9.949  0.1015 -0.0690  0.3999
  152MOL0     C20850   4.450   9.919   9.828 -0.2192  0.0392 -0.4661
  152MOL0     C20851   4.578   9.960   9.765  0.7237 -0.5131 -0.2101
  152MOL0     C20852   4.699   9.909   9.840 -0.2953 -0.0922 -0.1406
  152MOL0     C20853   4.829   9.981   9.806  0.1270  0.8981  0.4742
  152MOL0     C20854   4.879   9.965   9.664 -0.1402 -0.7239 -0.6867
  152MOL0     N20855   5.007  10.014   9.617 -0.2574  0.3760  0.0100
  152MOL0     C20856   5.061  10.016   9.491  0.1500  0.5472  0.7151
  152MOL0     C20857   5.187  10.054   9.512  1.0942  0.9670 -0.2673
  152MOL0     C20858   5.300  10.031   9.402 -0.7409 -0.7787  0.0316
  152MOL0     C20859   5.358  10.166   9.355 -0.1040 -0.6675  0.3412
  152MOL0     C20860   5.302  10.225   9.225  0.1508 -0.2003 -0.8629
  152MOL0     C20861   5.152  10.251   9.252  0.2140  0.3372  0.2082
  152MOL0     O20862   5.116  10.348   9.349  0.4243 -0.3330  0.4620
  152MOL0     C20863   4.992  10.348   9.406  0.0365  0.1318 -0.2883
  152MOL0     C20864   4.961  10.457   9.488 -0.4249 -0.5583 -0.7962
  152MOL0     C20865   4.831  10.476   9.545  0.0542 -0.0583 -0.0930
  152MOL0     C20866   4.805  10.607   9.614 -0.0747 -0.4258 -0.3443
  152MOL0     C20867   4.731  10.365   9.541  0.5120 -0.9586  0.7944
  152MOL0     C20868   4.594  10.375   9.585  0.4252 -0.2633  0.1263
  152MOL0     O20869   4.512  10.278   9.528 -0.2474  0.9245 -0.3496
  152MOL0     C20870   4.380  10.277   9.535  0.6733  0.4312 -0.4766
  152MOL0     C20871   4.292  10.384   9.574 -0.6249 -0.7251 -0.6108
  152MOL0     C20872   4.155  10.383   9.571  0.1760  0.2822  0.7131
  152MOL0     C20873   4.085  10.267   9.533 -0.3445 -0.3484 -0.6402
  152MOL0     O20874   3.945  10.271   9.530 -0.2790 -0.0551  0.2163
  152MOL0     C20875   3.875  10.161   9.471  0.1594 -0.0150  0.5594
  152MOL0     C20876   3.726  10.198   9.432  0.0705  0.0357 -0.5841
  152MOL0     C20877   3.665  10.113   9.319 -0.1863 -0.0680 -0.4490
  152MOL0     C20878   3.563  10.011   9.368  0.2627  0.1246 -0.9406
  152MOL0     C20879   3.542   9.893   9.265 -0.8163  0.1791  0.2052
  152MOL0     C20880   3.429   9.802   9.296  0.0982  1.1046  0.4114
  152MOL0     C20881   3.433   9.677   9.199  0.1648 -1.2366 -0.4249
  152MOL0     C20882   3.352   9.564   9.245  0.4819  0.5009 -0.0237
  152MOL0    Cl20883   3.180   9.609   9.213  0.0251  0.0147 -0.0902
  152MOL0     C20884   4.164  10.157   9.500  0.3011  0.6520  0.1125
  152MOL0     C20885   4.311  10.154   9.509  0.5521 -0.1341 -0.1188
  152MOL0     O20886   4.556  10.465   9.659 -0.4173 -0.1152 -0.0920
  152MOL0     C20887   4.765  10.257   9.463  0.1137  0.3748 -0.6123
  152MOL0     C20888   4.888  10.256   9.386  0.2465  0.6209 -0.0273
  152MOL0     N20889   5.206  10.085   9.647 -0.0368  0.6490  0.5274
  152MOL0     N20890   5.101  10.049   9.711  0.1746 -0.0725  0.8248
  152MOL0     C20891   3.826   9.893  10.056 -0.3239 -0.3264  0.1993
  152MOL0     C20892   3.688   9.886  10.017  0.6820  0.7767  0.3166
  152MOL0     C20893   3.326   9.924   9.699 -0.1993 -0.3843  0.0611
  152MOL0     C20894   3.289   9.787   9.700 -0.4921  0.2599  0.3430
  152MOL0     C20895   3.170   9.738   9.660  0.1103 -0.1681 -0.2689
  152MOL0     C20896   3.075   9.825   9.598  0.9561 -0.3703 -0.4749
  152MOL0     O20897   2.949   9.783   9.551  0.6423 -0.4728  0.4222
  152MOL0     C20898   2.945   9.645   9.500  0.3168 -0.0657  0.1238
  152MOL0     C20899   2.803   9.610   9.469  0.1229  0.3184  0.1302
  152MOL0     C20900   2.741   9.703   9.353 -0.1947  0.0038  0.3074
  152MOL0     C20901   2.784   9.676   9.205  0.2912 -0.2627 -0.3361
  152MOL0     C20902   2.708   9.747   9.104 -0.6585  0.6860 -0.0589
  152MOL0     C20903   2.631   9.793   9.023  0.3090 -0.0572 -0.0985
  152MOL0     C20904   3.108   9.960   9.589 -0.6064  0.1567  0.3685
  152MOL0     C20905   3.233  10.010   9.632 -0.3675 -0.2196 -0.8452
  152MOL0     C20906   3.252  10.162   9.626  0.6923 -1.2154 -0.0412
  152MOL0     H20907   3.715   9.952   9.689  0.3169  0.8545 -1.0679
  152MOL0     H20908   3.945  10.030   9.767 -3.8153  0.0516 -4.3780
  152MOL0     H20909   4.181  10.104   9.918  4.2925 -0.4528 -1.6858
  152MOL0     H20910   4.156   9.938   9.851  1.0218 -2.6263  1.6758
  152MOL0     H20911   4.283   9.990  10.115 -2.5374  1.6692  0.3468
  152MOL0     H20912   4.276   9.838  10.021 -2.3698 -0.5023  2.5132
  152MOL0     H20913   4.418  10.100   9.918  1.3153 -0.2771 -0.1348
  152MOL0     H20914   4.495   9.990  10.020 -1.2297  4.1102  2.5553
  152MOL0     H20915   4.455   9.813   9.854  1.8064  0.2404  0.1225
  152MOL0     H20916   4.364   9.927   9.760  0.8013  0.5440 -1.7295
  152MOL0     H20917   4.579  10.069   9.757 -0.6860 -0.4257  0.4983
  152MOL0     H20918   4.578   9.934   9.659 -2.1195  1.2237 -0.7403
  152MOL0     H20919   4.692   9.932   9.947  2.7385 -1.6452  0.4805
  152MOL0     H20920   4.723   9.803   9.826 -0.7364 -0.0838 -1.0130
  152MOL0     H20921   4.899   9.934   9.876 -0.9345 -3.5754 -1.1047
  152MOL0     H20922   4.812  10.087   9.828 -1.3620  0.3440  2.3012
  152MOL0     H20923   4.883   9.856   9.651 -2.5874 -0.7534 -1.7810
  152MOL0     H20924   4.797  10.002   9.601  0.8442 -0.3673 -1.7900
  152MOL0     H20925   5.010   9.971   9.406 -2.1468 -0.0624  2.3191
  152MOL0     H20926   5.257   9.976   9.319 -2.4020  2.1628 -1.2067
  152MOL0     H20927   5.386   9.974   9.439  1.7564  0.4287 -3.4305
  152MOL0     H20928   5.358  10.248   9.428  3.0210  0.2545 -0.5312
  152MOL0     H20929   5.461  10.133   9.338  0.2007  1.1567 -1.7641
  152MOL0     H20930   5.353  10.320   9.207 -1.4311  1.2057  1.5307
  152MOL0     H20931   5.311  10.167   9.133 -1.0437  0.4777 -1.4271
  152MOL0     H20932   5.120  10.286   9.154 -3.0162  1.2668  1.4646
  152MOL0     H20933   5.093  10.160   9.268 -1.1252  1.3920  1.6375
  152MOL0     H20934   5.035  10.536   9.501  0.6613 -1.4303 -1.4849
  152MOL0     H20935   4.879  10.682   9.583 -2.1393  1.5383 -0.8078
  152MOL0     H20936   4.799  10.599   9.723  3.2562 -1.3002 -0.1389
  152MOL0     H20937   4.711  10.652   9.581  1.1485  1.7960 -0.9679
  152MOL0     H20938   4.326  10.476   9.621  0.2496 -0.9840 -0.7131
  152MOL0     H20939   4.099  10.473   9.592 -1.4995 -1.0019  2.1081
  152MOL0     H20940   3.928  10.141   9.377  2.5983  2.5279  1.2394
  152MOL0     H20941   3.879  10.075   9.539  0.5744 -0.5766 -0.1550
  152MOL0     H20942   3.662  10.197   9.521  0.0495 -1.8055 -0.5770
  152MOL0     H20943   3.715  10.298   9.391  2.3205  0.4630 -0.2381
  152MOL0     H20944   3.747  10.058   9.270  1.2036 -0.1386  1.7872
  152MOL0     H20945   3.617  10.174   9.242 -1.1840 -0.5952 -0.2514
  152MOL0     H20946   3.470  10.067   9.379 -0.0748 -0.4541 -0.7727
  152MOL0     H20947   3.595   9.969   9.464  0.0236 -0.6234 -1.1769
  152MOL0     H20948   3.535   9.937   9.165  0.6249 -2.2243 -1.0387
  152MOL0     H20949   3.636   9.837   9.264 -2.0449 -2.2901  3.1615
  152MOL0     H20950   3.340   9.865   9.280 -0.5931  0.1243  0.2763
  152MOL0     H20951   3.445   9.773   9.400  3.1992  0.4775 -0.1512
  152MOL0     H20952   3.531   9.628   9.197 -1.0574 -3.8752 -1.3524
  152MOL0     H20953   3.410   9.703   9.095  0.2199  0.6719 -0.0007
  152MOL0     H20954   3.365   9.542   9.351 -1.1242 -1.2648 -0.1354
  152MOL0     H20955   3.368   9.473   9.188 -1.6799  1.0443 -1.6199
  152MOL0     H20956   4.101  10.069   9.488  0.3252  0.4522  1.2998
  152MOL0     H20957   4.367  10.062   9.524 -2.5177 -2.2153 -0.7371
  152MOL0     H20958   4.695  10.178   9.440  1.8266 -0.6489 -2.7539
  152MOL0     H20959   4.900  10.176   9.314  0.9828  0.5585  0.1622
  152MOL0     H20960   3.860   9.891  10.159 -0.5656  1.2383  0.3340
  152MOL0     H20961   3.607   9.865  10.085 -0.6886  0.3362 -1.3917
  152MOL0     H20962   3.360   9.720   9.748  0.6964 -0.2130 -1.9413
  152MOL0     H20963   3.138   9.636   9.676  0.4764 -0.0160  1.6089
  152MOL0     H20964   3.004   9.636   9.408 -2.2257  2.3480 -1.9213
  152MOL0     H20965   2.978   9.572   9.576  0.0698  0.1229  0.4150
  152MOL0     H20966   2.742   9.627   9.558  3.3722 -2.0930  3.1182
  152MOL0     H20967   2.791   9.508   9.431 -0.8872  1.1381 -1.9054
  152MOL0     H20968   2.633   9.683   9.350 -0.5423  1.6778  0.6818
  152MOL0     H20969   2.759   9.809   9.375  0.3521  0.8893 -3.7019
  152MOL0     H20970   2.772   9.568   9.200  1.2531 -0.3346 -1.6388
  152MOL0     H20971   2.891   9.698   9.196 -0.0160  3.0005  1.9309
  152MOL0     H20972   2.572   9.844   8.950  1.6686  1.7308  0.0001
  152MOL0     H20973   3.043  10.035   9.546 -0.5529  0.3721  0.6569
  152MOL0     H20974   3.157  10.214   9.608  1.2322 -0.5778 -1.1068
  152MOL0     H20975   3.281  10.181   9.730 -0.9668 -1.1411  0.4487
  152MOL0     H20976   3.327  10.195   9.554  2.8419 -0.0523  2.5572
  153MOL0     O20977   7.735   1.947   1.304  0.4656 -0.2070 -0.9150
  153MOL0     C20978   7.672   1.874   1.384 -0.6179 -0.8952  0.6417
  153MOL0     O20979   7.723   1.771   1.448  0.0319 -0.1348 -0.5899
  153MOL0     C20980   7.854   1.757   1.464 -1.0236 -0.1822 -0.4724
  153MOL0     C20981   7.898   1.742   1.597 -0.2441  0.0306 -0.2319
  153MOL0     C20982   8.032   1.713   1.634 -0.6586  0.3001 -0.5227
  153MOL0     C20983   8.126   1.707   1.527  0.7465  0.9287 -0.7514
  153MOL0     O20984   8.261   1.687   1.551 -0.1997  0.0881 -0.1089
  153MOL0     C20985   8.312   1.567   1.486  0.3491 -1.1799 -0.1312
  153MOL0     C20986   8.466   1.568   1.460  0.8047  0.5859  0.1144
  153MOL0     C20987   8.561   1.572   1.580 -0.2648 -0.3888 -0.5935
  153MOL0     C20988   8.549   1.460   1.674  0.4314  0.8688 -0.4129
  153MOL0     C20989   8.570   1.319   1.613  0.0495 -0.1455  0.4224
  153MOL0     C20990   8.711   1.306   1.543  0.0444 -0.0197 -0.0489
  153MOL0     C20991   8.729   1.170   1.481  0.1358  0.5988 -0.7155
  153MOL0     C20992   8.680   1.047   1.557 -0.1894 -0.2556  0.7301
  153MOL0     N20993   8.728   0.924   1.483  0.1691 -0.2823 -0.8499
  153MOL0     C20994   8.675   0.890   1.362  0.0591 -0.8166  0.4660
  153MOL0     C20995   8.720   0.766   1.348  0.1775 -0.0827  0.5819
  153MOL0     C20996   8.693   0.680   1.224  0.4599  0.2554  1.0381
  153MOL0     C20997   8.676   0.536   1.267 -0.2034  1.0491 -0.0454
  153MOL0     C20998   8.799   0.446   1.236  0.5309  0.1803  0.6887
  153MOL0     C20999   8.902   0.459   1.355  0.4713 -0.5715  0.1392
  153MOL0     O21000   8.977   0.334   1.368 -0.4145 -0.4661  0.4415
  153MOL0     C21001   9.080   0.304   1.277 -0.2357  0.0960 -0.6607
  153MOL0     C21002   9.134   0.395   1.185 -0.0443  0.6132  0.1123
  153MOL0     C21003   9.268   0.373   1.124  0.4771  0.9638  0.1525
  153MOL0     C21004   9.324   0.469   1.019 -0.3054 -0.0700  0.4817
  153MOL0     C21005   9.340   0.253   1.150  0.0563 -0.0342  1.0477
  153MOL0     C21006   9.478   0.225   1.105 -0.7026 -0.0500  0.2424
  153MOL0     O21007   9.569   0.324   1.092  0.4093 -0.4843 -0.1499
  153MOL0     C21008   9.703   0.303   1.090  0.0133  0.0343 -1.3183
  153MOL0     C21009   9.778   0.397   1.016 -0.2244  0.6907 -0.2511
  153MOL0     C21010   9.912   0.390   1.009 -0.4193  0.1001  0.4408
  153MOL0     C21011   9.979   0.277   1.068  0.2796 -0.4931  0.2036
  153MOL0     O21012  10.113   0.290   1.060 -0.1089 -0.4113 -0.1760
  153MOL0     C21013  10.179   0.304   1.183 -0.1853 -0.3442 -0.4423
  153MOL0     C21014  10.323   0.347   1.165 -0.0372  0.2169  0.0115
  153MOL0     C21015  10.392   0.227   1.081  0.3272 -1.1461  0.0327
  153MOL0     C21016  10.541   0.252   1.087 -0.8199 -0.1264 -0.3955
  153MOL0     C21017  10.622   0.212   1.215 -0.2765 -0.8595  0.7553
  153MOL0     C21018  10.774   0.245   1.200  0.4899  0.2568  0.0358
  153MOL0     C21019  10.839   0.232   1.333 -0.5631  0.7370 -0.1691
  153MOL0     C21020  10.988   0.184   1.320  0.0375 -0.2503 -0.1582
  153MOL0    Cl21021  11.067   0.312   1.228  0.0420 -0.3235 -0.1655
  153MOL0     C21022   9.908   0.181   1.145 -1.1053 -0.3515  0.4870
  153MOL0     C21023   9.771   0.203   1.163  0.4058 -0.0068  0.3247
  153MOL0     O21024   9.499   0.100   1.111 -0.3943 -0.5022 -0.0855
  153MOL0     C21025   9.278   0.163   1.244  0.7331  0.3463 -0.7451
  153MOL0     C21026   9.149   0.193   1.301 -0.4295  0.0574 -0.7417
  153MOL0     N21027   8.813   0.733   1.452 -0.1711  0.4384  0.3971
  153MOL0     N21028   8.802   0.828   1.537 -0.4194  0.1061 -0.4008
  153MOL0     C21029   8.080   1.732   1.397 -0.1745 -0.0951  0.6164
  153MOL0     C21030   7.946   1.759   1.362  0.1786 -0.1390 -0.4055
  153MOL0     C21031   7.528   1.902   1.403 -0.6093  0.0166  0.6307
  153MOL0     C21032   7.463   1.816   1.492  0.4891 -0.2417 -0.6410
  153MOL0     C21033   7.327   1.825   1.510 -0.3424  0.5920  0.1570
  153MOL0     C21034   7.253   1.929   1.451  0.1323 -0.0241  1.5022
  153MOL0     O21035   7.115   1.960   1.457 -1.1463  0.4252 -0.9767
  153MOL0     C21036   7.021   1.889   1.535 -0.2616  0.4281  0.1247
  153MOL0     C21037   6.935   1.986   1.615  0.7686 -0.7550  0.0870
  153MOL0     C21038   6.931   2.128   1.555  0.5860 -0.3434  0.5057
  153MOL0     C21039   6.840   2.219   1.632  0.2314 -0.2575  0.0211
  153MOL0     C21040   6.839   2.357   1.569 -0.1852  0.2466  0.0696
  153MOL0     C21041   6.833   2.466   1.515 -0.2720  0.8335  0.3414
  153MOL0     C21042   7.316   2.010   1.364 -0.1462 -0.3320 -0.2460
  153MOL0     C21043   7.456   2.004   1.329 -1.1235 -0.4176 -0.2008
  153MOL0     C21044   7.505   2.086   1.209 -0.1904 -0.1818  0.8691
  153MOL0     H21045   7.826   1.756   1.676  1.1630 -1.9686  1.5431
  153MOL0     H21046   8.062   1.705   1.738  0.5367  2.9114 -0.5772
  153MOL0     H21047   8.261   1.539   1.394  2.4391 -2.1377 -1.0593
  153MOL0     H21048   8.294   1.488   1.560  1.9216 -0.6000  0.9173
  153MOL0     H21049   8.500   1.480   1.404 -3.5723 -0.6481 -0.9961
  153MOL0     H21050   8.485   1.652   1.393 -1.0130  0.1974 -0.9557
  153MOL0     H21051   8.666   1.567   1.550  0.2448  0.9528  0.7939
  153MOL0     H21052   8.546   1.663   1.640  0.9265  0.0415 -0.9350
  153MOL0     H21053   8.617   1.476   1.758  2.6223 -0.7045 -1.7625
  153MOL0     H21054   8.450   1.468   1.720  1.7776  3.6018  2.3897
  153MOL0     H21055   8.489   1.287   1.547  0.6666  1.5478 -1.2425
  153MOL0     H21056   8.549   1.257   1.701 -3.8144 -1.1315 -0.9757
  153MOL0     H21057   8.726   1.381   1.464 -2.6593  1.4311  0.6611
  153MOL0     H21058   8.792   1.320   1.614 -0.8452  0.1570  0.9622
  153MOL0     H21059   8.832   1.140   1.462 -1.0041 -1.9534 -3.5511
  153MOL0     H21060   8.677   1.181   1.386 -0.2121  3.8606 -0.2713
  153MOL0     H21061   8.723   1.041   1.657 -1.5155 -0.1382  1.3228
  153MOL0     H21062   8.571   1.050   1.561 -0.3916 -0.3345 -2.2357
  153MOL0     H21063   8.608   0.954   1.306  1.6915  0.8482  0.3234
  153MOL0     H21064   8.778   0.691   1.156 -0.3373 -0.6887 -0.1539
  153MOL0     H21065   8.598   0.714   1.183  0.4535  0.1443  0.9591
  153MOL0     H21066   8.638   0.531   1.369 -2.8967  1.0620 -0.9827
  153MOL0     H21067   8.596   0.491   1.207  0.6583 -0.4298 -0.1251
  153MOL0     H21068   8.766   0.344   1.220 -1.6596  1.1935 -1.9065
  153MOL0     H21069   8.847   0.473   1.142 -0.0476 -1.3974 -0.0770
  153MOL0     H21070   8.968   0.543   1.333  0.3520 -0.9248 -1.7311
  153MOL0     H21071   8.853   0.475   1.451  0.0880 -2.5511  0.3227
  153MOL0     H21072   9.090   0.491   1.160  0.1852  0.3214 -1.5432
  153MOL0     H21073   9.408   0.527   1.059 -2.0543  1.6716  1.8358
  153MOL0     H21074   9.239   0.533   0.994  0.1068  0.8609  1.3908
  153MOL0     H21075   9.359   0.416   0.930  1.4384 -2.4033  2.4197
  153MOL0     H21076   9.726   0.473   0.958 -0.5136 -1.7741 -3.5332
  153MOL0     H21077   9.974   0.470   0.972  0.3925  0.6621  2.8022
  153MOL0     H21078  10.128   0.377   1.247  2.2393  1.2316 -0.1563
  153MOL0     H21079  10.190   0.201   1.218  2.3876 -0.0037 -0.0398
  153MOL0     H21080  10.333   0.438   1.106 -1.6220  0.8895  0.7344
  153MOL0     H21081  10.366   0.353   1.266 -0.1813 -0.5442  0.1270
  153MOL0     H21082  10.343   0.218   0.983 -1.1431 -2.1250  0.8099
  153MOL0     H21083  10.378   0.130   1.129  0.6300 -2.2226 -1.9449
  153MOL0     H21084  10.564   0.357   1.064  0.0372 -0.3586 -0.6024
  153MOL0     H21085  10.596   0.200   1.009  0.3647  2.9579 -1.7903
  153MOL0     H21086  10.595   0.272   1.302 -1.8272  0.6470 -0.7080
  153MOL0     H21087  10.604   0.106   1.238  1.3240 -1.2665  0.2551
  153MOL0     H21088  10.781   0.349   1.170 -1.1265 -0.0247 -1.5229
  153MOL0     H21089  10.814   0.175   1.125  0.1676  1.0878 -0.9330
  153MOL0     H21090  10.784   0.157   1.390  0.7773 -2.0091 -2.2814
  153MOL0     H21091  10.841   0.334   1.374 -1.4379  0.6448  0.1076
  153MOL0     H21092  10.992   0.088   1.267  2.2295 -1.5454  2.2030
  153MOL0     H21093  11.042   0.172   1.414  0.7324  0.8598 -0.3962
  153MOL0     H21094   9.964   0.100   1.192  0.5529 -0.9841 -2.3315
  153MOL0     H21095   9.718   0.146   1.239 -0.6818  2.9944  1.9844
  153MOL0     H21096   9.331   0.072   1.272  1.6219  0.5020 -1.8242
  153MOL0     H21097   9.113   0.118   1.370  0.8595 -0.8979 -1.0628
  153MOL0     H21098   8.144   1.737   1.309 -3.3969  2.1282 -1.8898
  153MOL0     H21099   7.928   1.784   1.258  0.2021 -0.9928 -0.6294
  153MOL0     H21100   7.507   1.731   1.543  1.6155  1.4270  1.3397
  153MOL0     H21101   7.280   1.752   1.574 -0.7648  1.3044  0.6730
  153MOL0     H21102   6.954   1.844   1.461  1.3226  2.2575 -2.6410
  153MOL0     H21103   7.068   1.817   1.602 -2.1822 -1.3911 -0.3835
  153MOL0     H21104   6.966   1.974   1.719  2.1187  0.8560 -0.0948
  153MOL0     H21105   6.829   1.960   1.621  0.1256  1.1477 -1.7289
  153MOL0     H21106   7.028   2.176   1.564  0.0859  0.6771  0.6182
  153MOL0     H21107   6.905   2.129   1.448 -1.8060  1.3704  1.0065
  153MOL0     H21108   6.867   2.237   1.736  1.6565  1.3464 -0.5724
  153MOL0     H21109   6.739   2.178   1.627  0.1482 -0.5056  2.5389
  153MOL0     H21110   6.845   2.549   1.448 -1.1233  0.0033 -0.8968
  153MOL0     H21111   7.255   2.090   1.323  3.8505  1.4429 -3.4730
  153MOL0     H21112   7.571   2.035   1.138 -0.3929  0.5251  0.1519
  153MOL0     H21113   7.420   2.107   1.143  1.1091 -1.9190 -1.5375
  153MOL0     H21114   7.553   2.176   1.247 -1.9754  1.9891 -1.6521
  154MOL0     O21115   1.114   6.528   7.094  0.0150  0.5875 -0.5201
  154MOL0     C21116   1.024   6.585   7.160 -0.3617  0.9893  0.5359
  154MOL0     O21117   1.050   6.641   7.288 -0.5529  0.7325 -0.6660
  154MOL0     C21118   1.183   6.664   7.315  0.0114  0.0678  0.8518
  154MOL0     C21119   1.258   6.771   7.270 -0.1555 -0.3391 -0.7630
  154MOL0     C21120   1.394   6.793   7.305  0.5207 -0.2339 -0.0707
  154MOL0     C21121   1.456   6.700   7.391 -0.2427 -0.3826 -0.4271
  154MOL0     O21122   1.591   6.698   7.423 -0.2343  0.0456 -0.2807
  154MOL0     C21123   1.667   6.823   7.400 -0.2366 -0.4546  0.3589
  154MOL0     C21124   1.789   6.822   7.496 -0.4141  0.7449 -0.0510
  154MOL0     C21125   1.883   6.705   7.461 -0.8840  0.3426  0.1302
  154MOL0     C21126   1.964   6.674   7.583  0.3587 -0.1696  0.6769
  154MOL0     C21127   2.031   6.528   7.572  0.3967  0.5835 -0.4125
  154MOL0     C21128   2.148   6.536   7.471 -0.0039 -0.0759  0.7247
  154MOL0     C21129   2.260   6.437   7.505  0.3462  0.1155 -0.2193
  154MOL0     C21130   2.355   6.480   7.627  0.1148 -0.4396 -0.2947
  154MOL0     N21131   2.457   6.582   7.606  0.8125 -0.5424 -0.9277
  154MOL0     C21132   2.536   6.619   7.711  0.0570  0.2725 -0.1529
  154MOL0     C21133   2.621   6.715   7.662  0.7943 -0.4722 -0.0338
  154MOL0     C21134   2.721   6.777   7.744 -0.0880  0.0540 -0.4214
  154MOL0     C21135   2.846   6.700   7.775  0.2028  0.5427  1.1724
  154MOL0     C21136   2.912   6.648   7.650 -0.4052  0.2085  0.6881
  154MOL0     C21137   3.060   6.618   7.675  0.0390 -0.2824  0.0027
  154MOL0     O21138   3.081   6.521   7.780 -0.4466  0.0498  0.0804
  154MOL0     C21139   3.208   6.495   7.820 -0.0706  0.0346  0.6952
  154MOL0     C21140   3.213   6.411   7.923  0.1415 -0.0990 -0.3179
  154MOL0     C21141   3.336   6.368   7.984 -0.2376 -0.3429 -0.0539
  154MOL0     C21142   3.321   6.271   8.105  0.8011 -0.6576 -0.1725
  154MOL0     C21143   3.455   6.422   7.941  0.4008  0.3960  1.1301
  154MOL0     C21144   3.594   6.391   7.985 -0.5379 -0.1015  0.1599
  154MOL0     O21145   3.691   6.480   7.943  0.2343  0.1191  0.2872
  154MOL0     C21146   3.823   6.435   7.951  0.6480 -0.3445 -1.4368
  154MOL0     C21147   3.901   6.449   8.074 -0.1784 -0.8771 -0.1425
  154MOL0     C21148   4.039   6.426   8.076 -0.1326  0.3040  0.1535
  154MOL0     C21149   4.110   6.387   7.959  0.2159 -0.4799 -0.2631
  154MOL0     O21150   4.242   6.353   7.976 -0.0022  0.0160 -0.3660
  154MOL0     C21151   4.282   6.245   7.894  0.2823 -1.0726 -0.5435
  154MOL0     C21152   4.426   6.205   7.919  0.6987  0.1648 -0.4045
  154MOL0     C21153   4.519   6.325   7.882  1.2473  0.3689 -0.5017
  154MOL0     C21154   4.599   6.292   7.755  0.6323 -0.1157 -0.9504
  154MOL0     C21155   4.726   6.379   7.742  0.1733 -0.5429 -0.4460
  154MOL0     C21156   4.688   6.524   7.720 -0.3606  0.3141  0.6618
  154MOL0     C21157   4.723   6.609   7.836 -0.4595 -0.2641  0.7658
  154MOL0     C21158   4.704   6.760   7.819  0.1736 -0.7793  0.1192
  154MOL0    Cl21159   4.536   6.794   7.762  0.1635 -0.1746 -0.4477
  154MOL0     C21160   4.032   6.384   7.841 -0.6428  0.1736 -0.0657
  154MOL0     C21161   3.894   6.411   7.836 -0.2739 -0.1972  0.6347
  154MOL0     O21162   3.616   6.294   8.058  0.2867 -0.6646  0.0620
  154MOL0     C21163   3.442   6.509   7.827  0.3280  0.0802  0.0588
  154MOL0     C21164   3.324   6.538   7.758  0.1227  0.6743 -0.2448
  154MOL0     N21165   2.586   6.740   7.524 -0.3192  0.7918 -0.2930
  154MOL0     N21166   2.485   6.664   7.499  0.0326 -0.0608 -0.4438
  154MOL0     C21167   1.377   6.590   7.433 -0.6723 -0.9183  0.1189
  154MOL0     C21168   1.243   6.567   7.402 -0.1643 -0.4586  0.2445
  154MOL0     C21169   0.881   6.586   7.114  0.3411  0.1230  0.0318
  154MOL0     C21170   0.849   6.509   7.004 -0.9558 -0.2275 -0.9699
  154MOL0     C21171   0.722   6.503   6.947  0.2841  0.1938 -0.0111
  154MOL0     C21172   0.611   6.586   6.990 -0.9079  0.5470 -0.7230
  154MOL0     O21173   0.505   6.596   6.898  0.7191  0.2463 -0.4764
  154MOL0     C21174   0.399   6.683   6.939 -0.5912  0.0613  0.0718
  154MOL0     C21175   0.284   6.669   6.837  0.1208  0.2619 -0.1594
  154MOL0     C21176   0.173   6.761   6.901 -0.2357  0.2526  0.4946
  154MOL0     C21177   0.026   6.752   6.854  0.3944  0.9367  0.2021
  154MOL0     C21178  -0.053   6.865   6.899 -0.2964  0.1652 -0.7687
  154MOL0     C21179  -0.116   6.959   6.944 -0.2189 -0.0609  0.4255
  154MOL0     C21180   0.644   6.673   7.096 -0.1702  0.0038  0.5399
  154MOL0     C21181   0.773   6.676   7.155  0.5882 -0.4741 -0.1263
  154MOL0     C21182   0.784   6.780   7.264 -0.1552  0.4803 -0.0422
  154MOL0     H21183   1.202   6.843   7.212  0.0153 -0.6201 -1.2853
  154MOL0     H21184   1.431   6.880   7.253  3.6279 -1.6123 -0.4180
  154MOL0     H21185   1.609   6.906   7.441  1.3856  0.0325  1.7622
  154MOL0     H21186   1.695   6.822   7.294 -2.3654  0.0001 -0.2524
  154MOL0     H21187   1.840   6.918   7.497 -0.2421  0.6663 -0.9091
  154MOL0     H21188   1.749   6.810   7.597  3.4741 -1.7162  1.4414
  154MOL0     H21189   1.835   6.611   7.434  1.3504 -0.6792 -0.5638
  154MOL0     H21190   1.947   6.727   7.375 -0.2959  0.4495  0.5878
  154MOL0     H21191   2.041   6.749   7.604  0.7294 -0.7064  1.2745
  154MOL0     H21192   1.894   6.677   7.666  1.2565  1.0025  1.4166
  154MOL0     H21193   1.966   6.442   7.556  0.9125 -0.1202  1.1053
  154MOL0     H21194   2.071   6.510   7.673 -0.4872 -0.2594 -0.2009
  154MOL0     H21195   2.101   6.510   7.375  1.6048 -1.5251  0.2808
  154MOL0     H21196   2.189   6.636   7.461  3.3081 -1.5281 -3.1367
  154MOL0     H21197   2.324   6.431   7.416  1.7890 -1.9536  0.8721
  154MOL0     H21198   2.220   6.336   7.515  0.0887  0.3336  1.2372
  154MOL0     H21199   2.295   6.521   7.709  1.3413  0.1073  0.3642
  154MOL0     H21200   2.394   6.385   7.662 -3.6273 -2.9686 -2.2936
  154MOL0     H21201   2.534   6.579   7.812  2.4624 -1.5042 -0.7362
  154MOL0     H21202   2.683   6.797   7.845  1.1465 -3.7344  0.9550
  154MOL0     H21203   2.760   6.866   7.693  3.2551  0.8178  2.9914
  154MOL0     H21204   2.917   6.764   7.829  0.6473 -0.3616  1.6850
  154MOL0     H21205   2.814   6.624   7.847 -1.7252 -1.4084 -1.5439
  154MOL0     H21206   2.853   6.569   7.602 -0.4930  1.3951 -1.2571
  154MOL0     H21207   2.913   6.720   7.568 -0.6509 -1.1772 -0.5751
  154MOL0     H21208   3.114   6.591   7.583  2.1150  2.5112  0.2697
  154MOL0     H21209   3.111   6.709   7.707  1.3626 -0.9414 -0.1657
  154MOL0     H21210   3.119   6.383   7.970  0.0096  0.1063 -0.4594
  154MOL0     H21211   3.388   6.185   8.101  2.1313  0.2743  0.9989
  154MOL0     H21212   3.221   6.232   8.123  1.1992 -3.0306 -2.5693
  154MOL0     H21213   3.369   6.330   8.184 -0.1704 -0.4593  0.2904
  154MOL0     H21214   3.849   6.480   8.164  1.6169 -0.6838  0.8720
  154MOL0     H21215   4.089   6.431   8.173 -1.1572  2.7727  0.6137
  154MOL0     H21216   4.211   6.162   7.889 -0.1309 -0.7112 -0.7828
  154MOL0     H21217   4.281   6.283   7.792  0.0361  0.9112  0.1666
  154MOL0     H21218   4.437   6.177   8.024 -0.3686 -1.5877 -0.7304
  154MOL0     H21219   4.440   6.117   7.857  1.7372  1.0013 -1.3981
  154MOL0     H21220   4.584   6.359   7.964 -0.7346  0.9244  0.8981
  154MOL0     H21221   4.461   6.417   7.864  0.5802  0.0727  0.1128
  154MOL0     H21222   4.539   6.309   7.665 -0.6974  0.0947 -0.0571
  154MOL0     H21223   4.638   6.190   7.760  0.0998 -0.3853 -1.9604
  154MOL0     H21224   4.801   6.380   7.822  1.6939  2.5539 -1.7143
  154MOL0     H21225   4.777   6.339   7.654 -0.7838  2.0684 -2.2998
  154MOL0     H21226   4.583   6.533   7.691 -0.5212 -0.4083  0.9776
  154MOL0     H21227   4.736   6.568   7.632  0.3502 -1.3256  0.1805
  154MOL0     H21228   4.827   6.595   7.866  0.1857  0.4927 -0.9343
  154MOL0     H21229   4.664   6.579   7.923 -0.4764 -0.0066  0.8437
  154MOL0     H21230   4.785   6.786   7.751  1.5915 -0.6883  1.7788
  154MOL0     H21231   4.714   6.803   7.919 -0.9556  0.3855 -0.2292
  154MOL0     H21232   4.083   6.358   7.749 -0.2141 -0.2370  0.2831
  154MOL0     H21233   3.848   6.410   7.738 -1.7134 -0.4939  1.3000
  154MOL0     H21234   3.531   6.549   7.780  1.4940 -0.3972  1.7870
  154MOL0     H21235   3.312   6.602   7.671  0.4772  0.1911 -0.6521
  154MOL0     H21236   1.434   6.510   7.478  0.0766 -0.4186  0.0657
  154MOL0     H21237   1.178   6.486   7.433 -1.8060  0.4013 -0.7472
  154MOL0     H21238   0.926   6.449   6.958 -1.1706 -0.4393 -1.0545
  154MOL0     H21239   0.724   6.436   6.862  1.8311 -2.0180  1.6687
  154MOL0     H21240   0.371   6.655   7.041  1.4390 -0.3487  0.5540
  154MOL0     H21241   0.434   6.787   6.940 -1.1048  0.2567 -0.8864
  154MOL0     H21242   0.243   6.568   6.832 -0.8698  0.6599 -0.2643
  154MOL0     H21243   0.300   6.697   6.733 -1.4693 -1.5990 -0.9698
  154MOL0     H21244   0.181   6.754   7.010  1.3473  2.5959  0.6061
  154MOL0     H21245   0.188   6.868   6.880 -2.3937  1.0329  2.5235
  154MOL0     H21246  -0.020   6.665   6.902 -0.4856  0.4415 -1.4657
  154MOL0     H21247   0.023   6.757   6.745 -0.2321 -0.6143  0.1156
  154MOL0     H21248  -0.170   7.041   6.987  1.1654  0.2949  1.5653
  154MOL0     H21249   0.566   6.741   7.131 -0.7593  0.2706 -1.1529
  154MOL0     H21250   0.843   6.859   7.217  0.0270  0.7807  0.6846
  154MOL0     H21251   0.688   6.826   7.290  0.0641 -0.2618  2.2759
  154MOL0     H21252   0.836   6.740   7.351  1.5859  2.3240 -0.1815
  155MOL0     O21253   7.170   6.019   6.231  0.4700  0.2979 -0.5334
  155MOL0     C21254   7.087   6.018   6.323  0.3321  0.0958  0.5025
  155MOL0     O21255   7.118   5.970   6.446 -0.9141  0.3671  0.5077
  155MOL0     C21256   7.249   5.941   6.469 -0.0698 -0.3368 -0.3773
  155MOL0     C21257   7.273   5.809   6.458 -0.6177 -0.7437  0.2979
  155MOL0     C21258   7.406   5.767   6.486 -0.1751  0.2174  0.2067
  155MOL0     C21259   7.495   5.855   6.548  0.0262  1.2752  0.0806
  155MOL0     O21260   7.625   5.821   6.580 -0.0138  0.0519  0.1189
  155MOL0     C21261   7.657   5.689   6.551 -0.0006 -0.7634  0.3781
  155MOL0     C21262   7.806   5.678   6.602 -0.5508  0.1827 -0.0164
  155MOL0     C21263   7.878   5.547   6.573  1.0269 -0.8217  0.5105
  155MOL0     C21264   7.957   5.562   6.438  0.0221 -0.4815 -0.1223
  155MOL0     C21265   8.074   5.663   6.435 -0.5431 -0.3427 -0.0929
  155MOL0     C21266   8.172   5.623   6.553  0.4861 -0.0497  0.1330
  155MOL0     C21267   8.300   5.722   6.548 -0.3101 -0.7044  0.3159
  155MOL0     C21268   8.363   5.756   6.407  0.3395 -0.2762 -0.0140
  155MOL0     N21269   8.499   5.815   6.406  0.8033  0.0093  0.3799
  155MOL0     C21270   8.600   5.789   6.493  0.4817  0.7158 -0.5501
  155MOL0     C21271   8.699   5.865   6.448  0.5881 -0.0105 -0.8616
  155MOL0     C21272   8.836   5.869   6.498  0.5796  0.0558  0.8132
  155MOL0     C21273   8.938   5.898   6.386  0.1550 -0.1261  0.4015
  155MOL0     C21274   9.085   5.893   6.428  0.1822 -0.2250 -0.7715
  155MOL0     C21275   9.128   5.980   6.542 -0.0409  0.3010 -0.3742
  155MOL0     O21276   9.262   5.959   6.564  0.0265  0.4031 -0.3978
  155MOL0     C21277   9.309   5.868   6.658  0.5025 -0.3423  0.5449
  155MOL0     C21278   9.241   5.778   6.729  0.6608  0.1473  0.4648
  155MOL0     C21279   9.291   5.672   6.802  0.0596 -0.2164  0.0128
  155MOL0     C21280   9.188   5.579   6.863  0.1433 -0.2159 -0.4855
  155MOL0     C21281   9.435   5.660   6.799 -0.1100  0.4752  0.4408
  155MOL0     C21282   9.512   5.554   6.863  0.2524 -0.5433  0.2828
  155MOL0     O21283   9.445   5.437   6.900  0.1736  0.2343  0.4445
  155MOL0     C21284   9.520   5.327   6.941 -0.3119  0.3040 -0.7951
  155MOL0     C21285   9.461   5.234   7.030 -0.2337  0.5212 -0.2555
  155MOL0     C21286   9.524   5.111   7.053 -0.3815 -0.1116  0.8022
  155MOL0     C21287   9.655   5.081   7.019  0.1695  0.4343 -0.1579
  155MOL0     O21288   9.705   4.951   7.056  0.1562  0.2715  0.1470
  155MOL0     C21289   9.819   4.953   7.144 -0.1262  0.5004 -0.8201
  155MOL0     C21290   9.796   5.015   7.280  0.1986 -0.3137  0.3284
  155MOL0     C21291   9.923   5.025   7.375  1.1727  0.9314  0.1419
  155MOL0     C21292  10.055   5.064   7.306  0.4247  0.2408 -0.1220
  155MOL0     C21293  10.160   5.085   7.413 -0.1276  0.2935  0.3766
  155MOL0     C21294  10.185   4.958   7.499 -0.4369  0.5680  0.7226
  155MOL0     C21295  10.324   4.985   7.570  0.0959  0.1391 -1.2069
  155MOL0     C21296  10.333   4.926   7.714  0.1311 -0.3951 -1.3456
  155MOL0    Cl21297  10.373   4.749   7.684  0.1148  0.1599  0.1266
  155MOL0     C21298   9.713   5.168   6.935  0.2604 -0.3610  0.4206
  155MOL0     C21299   9.651   5.290   6.896  1.0575 -1.3398  0.8348
  155MOL0     O21300   9.627   5.580   6.888 -0.8029 -0.4315  0.0528
  155MOL0     C21301   9.507   5.763   6.743  0.5296 -0.3045 -0.1031
  155MOL0     C21302   9.449   5.869   6.674  0.1211  0.0540  0.1110
  155MOL0     N21303   8.649   5.945   6.339 -0.1544  0.7240 -0.5129
  155MOL0     N21304   8.531   5.898   6.308 -0.0180  0.7237 -0.1021
  155MOL0     C21305   7.459   5.988   6.580  0.0447  0.6515 -0.3366
  155MOL0     C21306   7.334   6.033   6.536  0.0072 -0.0249  0.0231
  155MOL0     C21307   6.960   6.095   6.315  0.8618 -0.2852  0.6923
  155MOL0     C21308   6.889   6.115   6.429 -0.1686  0.1659 -0.3239
  155MOL0     C21309   6.780   6.211   6.437  0.8892  0.3657  1.0746
  155MOL0     C21310   6.748   6.275   6.315  0.1044 -0.2087 -0.0969
  155MOL0     O21311   6.642   6.366   6.317 -0.2648 -0.7148  0.0155
  155MOL0     C21312   6.584   6.403   6.188 -0.6640  0.8769 -0.0148
  155MOL0     C21313   6.447   6.465   6.184 -0.0101 -1.4600  0.4584
  155MOL0     C21314   6.337   6.391   6.248  0.4187 -0.4059 -0.7044
  155MOL0     C21315   6.311   6.433   6.402  0.1031 -0.1399  0.2877
  155MOL0     C21316   6.210   6.537   6.414  0.3616  0.7095  0.0756
  155MOL0     C21317   6.119   6.614   6.442  0.3005 -0.4230 -0.2568
  155MOL0     C21318   6.819   6.261   6.202 -0.8411  0.5423  0.9949
  155MOL0     C21319   6.919   6.166   6.193  0.1245 -0.2679  0.6533
  155MOL0     C21320   6.978   6.152   6.055  0.1449 -0.1211 -0.0403
  155MOL0     H21321   7.204   5.733   6.423  2.4623 -3.3286 -0.6444
  155MOL0     H21322   7.438   5.666   6.459 -0.3727  0.1171  0.3499
  155MOL0     H21323   7.655   5.671   6.443  0.9975 -1.3006  0.4422
  155MOL0     H21324   7.594   5.611   6.595 -3.7637  1.2218 -1.0430
  155MOL0     H21325   7.873   5.758   6.568  2.3763 -2.3030 -0.5347
  155MOL0     H21326   7.805   5.690   6.711  0.9659 -1.5840  0.2377
  155MOL0     H21327   7.945   5.528   6.658  1.4743 -0.6433  0.2049
  155MOL0     H21328   7.820   5.455   6.562 -0.1328  0.1917 -3.3863
  155MOL0     H21329   8.003   5.468   6.406  0.3003 -0.8043  1.1571
  155MOL0     H21330   7.880   5.592   6.367 -0.4771 -0.0923  0.5726
  155MOL0     H21331   8.042   5.767   6.452 -1.6325 -0.9474  1.9295
  155MOL0     H21332   8.135   5.652   6.345 -0.3794  0.3251 -0.0681
  155MOL0     H21333   8.118   5.638   6.647 -0.2315 -1.5000 -0.0140
  155MOL0     H21334   8.204   5.519   6.560 -1.9278 -0.9134 -0.7532
  155MOL0     H21335   8.378   5.668   6.602  0.3407  1.3014  1.4710
  155MOL0     H21336   8.275   5.818   6.595  0.8995  0.3006 -1.0111
  155MOL0     H21337   8.371   5.666   6.345  0.7737  0.9188 -1.7855
  155MOL0     H21338   8.296   5.823   6.353 -0.5979 -0.3941  0.9671
  155MOL0     H21339   8.600   5.716   6.573 -0.8842  0.5056 -0.7137
  155MOL0     H21340   8.850   5.773   6.549  2.2898  0.8480  1.9309
  155MOL0     H21341   8.826   5.946   6.575  1.7892 -0.5683  1.6318
  155MOL0     H21342   8.912   5.832   6.302 -0.6367 -0.1794  0.6807
  155MOL0     H21343   8.911   5.995   6.346 -2.6879 -0.8976  0.2400
  155MOL0     H21344   9.109   5.787   6.443 -0.2484 -0.0075  1.7959
  155MOL0     H21345   9.138   5.935   6.342 -0.7724  0.2658 -1.1389
  155MOL0     H21346   9.116   6.087   6.525 -0.1112  0.7136  1.9509
  155MOL0     H21347   9.068   5.959   6.631  2.1131 -0.8428  0.9035
  155MOL0     H21348   9.135   5.800   6.723  0.9966  1.5740 -1.1378
  155MOL0     H21349   9.181   5.598   6.971 -0.5152 -1.7084 -0.2398
  155MOL0     H21350   9.216   5.473   6.857  0.3946 -0.1498 -0.4779
  155MOL0     H21351   9.091   5.588   6.813  1.5263 -0.7073 -3.4198
  155MOL0     H21352   9.355   5.251   7.048 -0.1027  0.9707  0.1191
  155MOL0     H21353   9.482   5.029   7.111  2.3297 -1.3135  1.2296
  155MOL0     H21354   9.861   4.851   7.147  2.9158  1.6492 -0.9442
  155MOL0     H21355   9.899   5.001   7.086  0.6581 -2.8699 -2.8697
  155MOL0     H21356   9.763   5.117   7.258 -1.6036 -1.3306 -2.1779
  155MOL0     H21357   9.704   4.978   7.325 -0.1804  1.3048  0.9589
  155MOL0     H21358   9.946   4.924   7.412  0.5474  0.0665 -1.6914
  155MOL0     H21359   9.899   5.088   7.461  1.6977 -0.5634  1.4390
  155MOL0     H21360  10.055   5.150   7.238  2.7930  1.4057  1.2490
  155MOL0     H21361  10.077   4.975   7.246 -1.3854  0.7483 -1.6584
  155MOL0     H21362  10.251   5.123   7.366 -0.1381 -0.1247  0.0135
  155MOL0     H21363  10.136   5.166   7.483  2.0993  0.0298  1.5541
  155MOL0     H21364  10.198   4.869   7.437  2.4044  0.4697  1.3340
  155MOL0     H21365  10.104   4.940   7.571 -0.2472  1.9441  1.3100
  155MOL0     H21366  10.336   5.094   7.579  2.1014  0.1258 -2.9830
  155MOL0     H21367  10.410   4.958   7.509  0.0305  1.3395 -1.8713
  155MOL0     H21368  10.243   4.929   7.776  0.8371 -1.2655 -0.2180
  155MOL0     H21369  10.409   4.983   7.768 -0.7112  0.7375 -1.3165
  155MOL0     H21370   9.806   5.132   6.893 -0.0975 -1.7551  0.7595
  155MOL0     H21371   9.701   5.354   6.824 -1.7323  1.4462  1.1206
  155MOL0     H21372   9.615   5.755   6.740  0.5380 -1.6268  1.8143
  155MOL0     H21373   9.517   5.942   6.632 -0.1042  2.7477  3.9264
  155MOL0     H21374   7.541   6.043   6.625  0.7803  0.2013 -1.1078
  155MOL0     H21375   7.292   6.131   6.553 -0.6121 -0.3259  0.2465
  155MOL0     H21376   6.921   6.061   6.518 -0.8640  0.4985  0.1346
  155MOL0     H21377   6.722   6.234   6.526 -0.4534  1.6047 -0.0725
  155MOL0     H21378   6.659   6.474   6.149  1.0774 -1.4145 -1.0670
  155MOL0     H21379   6.580   6.316   6.122  0.0487  1.4076 -0.7829
  155MOL0     H21380   6.426   6.490   6.080 -0.1420  0.3614  0.8881
  155MOL0     H21381   6.448   6.563   6.233  3.9405 -0.3118 -1.4873
  155MOL0     H21382   6.249   6.409   6.185  1.3880  2.0025 -1.4626
  155MOL0     H21383   6.356   6.283   6.248 -2.4675 -1.1048 -3.9192
  155MOL0     H21384   6.407   6.464   6.445 -0.2077 -0.3826  1.1798
  155MOL0     H21385   6.292   6.340   6.457  1.8256 -0.1699  0.8945
  155MOL0     H21386   6.038   6.684   6.450 -0.8333 -1.5066 -1.8181
  155MOL0     H21387   6.805   6.316   6.110  0.2422 -3.3120 -1.7333
  155MOL0     H21388   7.063   6.220   6.049  1.8889 -2.2515 -1.2552
  155MOL0     H21389   7.013   6.056   6.016  2.0954  1.0096 -1.2858
  155MOL0     H21390   6.905   6.179   5.978  0.5209  0.2127 -0.2867
  156MOL0     O21391   1.680  10.337   9.601  0.2753 -0.2751  0.2528
  156MOL0     C21392   1.644  10.285   9.494 -0.4345 -0.0981 -0.1070
  156MOL0     O21393   1.717  10.190   9.421 -0.5146 -0.5511  0.7207
  156MOL0     C21394   1.833  10.137   9.450  0.2786  0.0751 -0.9816
  156MOL0     C21395   1.843  10.044   9.558  0.0473 -0.8293 -1.2718
  156MOL0     C21396   1.968  10.005   9.591 -1.0817 -0.4716  0.2204
  156MOL0     C21397   2.091  10.044   9.522  0.1307  0.8681 -0.3166
  156MOL0     O21398   2.220  10.010   9.549  0.8651  0.6782  0.2118
  156MOL0     C21399   2.235   9.889   9.624  0.2299 -0.3227 -0.5653
  156MOL0     C21400   2.390   9.856   9.635 -0.9014  0.3479 -0.3988
  156MOL0     C21401   2.479   9.965   9.703  1.0505 -0.4218  0.6795
  156MOL0     C21402   2.605   9.902   9.760  0.1489  0.8829  0.8487
  156MOL0     C21403   2.573   9.833   9.887  0.8149 -0.5355 -0.8530
  156MOL0     C21404   2.694   9.800   9.990  0.0665 -0.5535  0.7995
  156MOL0     C21405   2.826   9.745   9.922  1.4170 -0.6598 -0.2295
  156MOL0     C21406   2.917   9.700  10.038  0.0023 -0.2070  0.1432
  156MOL0     N21407   3.008   9.818  10.070 -0.0705  0.6503 -0.0031
  156MOL0     C21408   3.068   9.896   9.987 -0.3915  0.5376  0.7146
  156MOL0     C21409   3.121   9.995  10.059  0.9424 -0.2570 -0.3504
  156MOL0     C21410   3.199  10.113  10.014 -0.9918 -0.4575 -0.4447
  156MOL0     C21411   3.344  10.118  10.079  0.7052  1.5927  0.1510
  156MOL0     C21412   3.415  10.238  10.020 -0.1044 -0.9528  0.2349
  156MOL0     C21413   3.568  10.223  10.061 -1.0738 -0.8619 -0.4308
  156MOL0     O21414   3.589  10.261  10.197  0.1350  0.0290 -0.2232
  156MOL0     C21415   3.717  10.246  10.250  0.1141 -0.6932  0.2184
  156MOL0     C21416   3.738  10.270  10.392  0.9328 -0.4271  0.8429
  156MOL0     C21417   3.860  10.236  10.451 -0.3086 -0.1018  0.4545
  156MOL0     C21418   3.871  10.248  10.606  0.3363  0.7317 -0.2913
  156MOL0     C21419   3.972  10.200  10.369 -0.2276 -0.5981 -0.8841
  156MOL0     C21420   4.114  10.184  10.424  0.4682 -0.2581  0.3553
  156MOL0     O21421   4.224  10.213  10.336 -0.6085  0.3328 -0.4871
  156MOL0     C21422   4.349  10.189  10.383 -0.2751 -0.1683  0.4780
  156MOL0     C21423   4.395  10.065  10.435  0.3002 -0.2782  0.1416
  156MOL0     C21424   4.532  10.043  10.452  0.5319  0.7688 -0.1061
  156MOL0     C21425   4.621  10.144  10.431  0.0713  0.6181  0.2587
  156MOL0     O21426   4.757  10.117  10.456  0.9284  0.5025  0.5351
  156MOL0     C21427   4.845  10.229  10.486 -0.7494 -0.0186  0.5402
  156MOL0     C21428   4.982  10.175  10.533  0.2122  0.2403  0.1336
  156MOL0     C21429   5.088  10.286  10.515  0.1062  1.2554  0.3290
  156MOL0     C21430   5.225  10.230  10.574 -0.2767 -0.6166  0.3471
  156MOL0     C21431   5.339  10.337  10.557  0.7490  0.6685  0.0539
  156MOL0     C21432   5.466  10.282  10.602  0.2786 -0.5799 -0.3854
  156MOL0     C21433   5.569  10.387  10.588  0.3363  0.2700  0.1832
  156MOL0     C21434   5.707  10.340  10.630  0.4914  0.9330 -0.4426
  156MOL0    Cl21435   5.721  10.349  10.812 -0.2250  0.3525  0.3825
  156MOL0     C21436   4.575  10.273  10.385 -0.3939  0.8960  0.3487
  156MOL0     C21437   4.443  10.289  10.349 -1.0592 -1.0531 -0.0696
  156MOL0     O21438   4.123  10.136  10.535 -0.2006 -0.1063  0.4211
  156MOL0     C21439   3.949  10.204  10.229  0.3578  0.6023 -0.5355
  156MOL0     C21440   3.826  10.221  10.166 -0.5685  0.5909  0.0347
  156MOL0     N21441   3.083   9.979  10.188 -0.8564  0.0688  0.5215
  156MOL0     N21442   3.005   9.881  10.185 -0.6684 -0.9819  0.4414
  156MOL0     C21443   2.061  10.133   9.418  0.0271  0.2219 -0.2276
  156MOL0     C21444   1.936  10.170   9.375  0.1761  0.2333 -0.5666
  156MOL0     C21445   1.518  10.336   9.442  0.0459 -0.2741 -0.1307
  156MOL0     C21446   1.420  10.384   9.539  0.4301 -0.7078  0.7482
  156MOL0     C21447   1.295  10.442   9.493 -1.1270  0.2191  0.4717
  156MOL0     C21448   1.259  10.443   9.363 -0.4880 -0.2565 -0.4189
  156MOL0     O21449   1.157  10.510   9.300  0.8462 -0.9163  0.2378
  156MOL0     C21450   1.040  10.541   9.375  0.7310 -0.1378 -0.0027
  156MOL0     C21451   0.925  10.557   9.278  0.1673  0.9100  0.0596
  156MOL0     C21452   0.796  10.586   9.358  0.1977  0.7534  0.0238
  156MOL0     C21453   0.794  10.728   9.403  0.4801  0.2274  0.5088
  156MOL0     C21454   0.656  10.778   9.418 -0.5130 -0.8580  0.7200
  156MOL0     C21455   0.541  10.814   9.429  0.9021  0.0629  0.3632
  156MOL0     C21456   1.354  10.387   9.276  0.1465  0.7521  1.0576
  156MOL0     C21457   1.479  10.332   9.306 -0.2394  0.2464 -0.3909
  156MOL0     C21458   1.574  10.296   9.200  0.6523  0.2634 -0.0926
  156MOL0     H21459   1.774  10.004   9.631  3.4137  1.4030  3.7324
  156MOL0     H21460   1.977   9.942   9.679  2.1680 -0.7621 -0.2132
  156MOL0     H21461   2.183   9.804   9.579  1.2606 -0.1717 -2.1184
  156MOL0     H21462   2.191   9.885   9.724 -2.1714 -0.0904 -1.5455
  156MOL0     H21463   2.409   9.765   9.693  0.2709  0.7588 -0.1077
  156MOL0     H21464   2.434   9.831   9.538  2.3125  1.0491  0.7503
  156MOL0     H21465   2.493  10.040   9.625 -1.4447 -0.3302  0.2101
  156MOL0     H21466   2.424  10.018   9.782  1.2313 -0.1805  0.6448
  156MOL0     H21467   2.661   9.838   9.691  2.1859  0.3501  2.9082
  156MOL0     H21468   2.670   9.984   9.791 -1.0202  2.3004 -0.2716
  156MOL0     H21469   2.514   9.744   9.864 -0.4807 -0.2958  1.2938
  156MOL0     H21470   2.502   9.894   9.942 -0.3260  1.3456 -4.1356
  156MOL0     H21471   2.711   9.898  10.036 -0.3380  0.4518 -1.0804
  156MOL0     H21472   2.656   9.729  10.064  1.4573 -1.3320  0.7917
  156MOL0     H21473   2.875   9.828   9.870  0.7445  2.0855  3.1590
  156MOL0     H21474   2.802   9.663   9.854 -2.0682 -1.3456  1.5836
  156MOL0     H21475   2.855   9.668  10.122 -1.9827 -0.3441 -1.3092
  156MOL0     H21476   2.982   9.617  10.008  0.3815  0.1878 -0.1534
  156MOL0     H21477   3.075   9.881   9.880 -0.1958  0.2708  0.7630
  156MOL0     H21478   3.150  10.206  10.046  2.4947  1.4454 -0.1779
  156MOL0     H21479   3.198  10.112   9.905  0.6920  0.1161 -0.4932
  156MOL0     H21480   3.341  10.117  10.188 -0.7360  1.0037  0.1232
  156MOL0     H21481   3.396  10.026  10.048 -2.4134 -1.1075  2.2715
  156MOL0     H21482   3.403  10.249   9.912 -2.0676  2.5206  0.6446
  156MOL0     H21483   3.372  10.332  10.056 -0.0960 -0.6430 -0.5471
  156MOL0     H21484   3.601  10.120  10.048  1.4792 -0.1278 -0.2337
  156MOL0     H21485   3.626  10.296  10.003  0.9457 -2.9947 -1.2402
  156MOL0     H21486   3.656  10.287  10.460  0.7437 -3.2714  1.4156
  156MOL0     H21487   3.860  10.150  10.654 -2.5179  0.3702 -1.4901
  156MOL0     H21488   3.794  10.315  10.645  0.8093 -1.0062  4.3472
  156MOL0     H21489   3.965  10.284  10.649  0.7010  2.6702 -2.5271
  156MOL0     H21490   4.327   9.982  10.452  0.3336 -0.1377  0.9982
  156MOL0     H21491   4.556   9.949  10.499  2.2860  0.1941 -1.9552
  156MOL0     H21492   4.859  10.294  10.399 -0.5639 -0.9438 -0.1359
  156MOL0     H21493   4.809  10.293  10.566 -2.1795  1.2027 -0.9939
  156MOL0     H21494   4.967  10.141  10.636  1.1576 -1.2570 -0.1912
  156MOL0     H21495   5.015  10.087  10.476  1.4847  0.5323  0.4016
  156MOL0     H21496   5.067  10.382  10.562  5.0541  2.8316 -0.0553
  156MOL0     H21497   5.103  10.315  10.410 -0.1233  0.7680  0.1585
  156MOL0     H21498   5.254  10.140  10.519  2.5450  1.0369 -1.1458
  156MOL0     H21499   5.212  10.209  10.680  0.6051  1.4150  0.9029
  156MOL0     H21500   5.340  10.360  10.450 -1.4541 -1.7238 -0.6224
  156MOL0     H21501   5.316  10.433  10.605  0.8353  0.1212  1.2267
  156MOL0     H21502   5.496  10.191  10.548  0.9526 -1.1614  0.9049
  156MOL0     H21503   5.457  10.263  10.709 -1.7815  3.9071  0.4400
  156MOL0     H21504   5.539  10.469  10.654 -4.2437 -0.8071 -0.2154
  156MOL0     H21505   5.571  10.405  10.480  1.2731 -1.7346 -0.1804
  156MOL0     H21506   5.779  10.403  10.576  1.0499  1.2257  0.6105
  156MOL0     H21507   5.726  10.236  10.600 -4.2288  0.1775 -1.4778
  156MOL0     H21508   4.634  10.364  10.372  2.4406 -0.9448 -0.5933
  156MOL0     H21509   4.420  10.384  10.301 -1.1054  0.8940  3.5039
  156MOL0     H21510   4.035  10.200  10.162  0.9723 -0.4777  0.2736
  156MOL0     H21511   3.813  10.214  10.059  0.2910 -1.2985  0.0209
  156MOL0     H21512   2.140  10.169   9.352  0.5531 -1.2900 -0.4744
  156MOL0     H21513   1.924  10.245   9.297 -0.1288  1.4948  0.6434
  156MOL0     H21514   1.447  10.378   9.644  2.9297 -2.1895  0.1149
  156MOL0     H21515   1.234  10.485   9.571  0.2119 -0.0001  1.6785
  156MOL0     H21516   1.016  10.467   9.451 -0.7634  0.8350  0.5272
  156MOL0     H21517   1.060  10.637   9.424  0.4245 -1.0544  2.0133
  156MOL0     H21518   0.910  10.456   9.239 -1.6108  0.7919  0.9348
  156MOL0     H21519   0.932  10.629   9.195 -1.0989  0.3205 -0.5899
  156MOL0     H21520   0.711  10.577   9.290 -1.4257  0.7648  1.9645
  156MOL0     H21521   0.766  10.516   9.437  1.6394  2.1984  1.9375
  156MOL0     H21522   0.835  10.790   9.323 -1.1446 -1.2366 -1.5768
  156MOL0     H21523   0.853  10.746   9.493 -1.3642  1.0310  1.5996
  156MOL0     H21524   0.437  10.838   9.444  0.4911 -2.4997  2.1689
  156MOL0     H21525   1.330  10.386   9.171 -1.6537 -1.6595  1.3953
  156MOL0     H21526   1.669  10.350   9.207  0.0119  1.7634 -1.8906
  156MOL0     H21527   1.600  10.190   9.210  1.2733  0.6223  2.8218
  156MOL0     H21528   1.529  10.316   9.102  1.0051 -1.9118 -0.7558
  157MOL0     O21529  11.065   5.685   6.071 -0.1337 -0.6908 -0.0171
  157MOL0     C21530  11.063   5.769   5.980  0.0772 -0.0106 -0.0623
  157MOL0     O21531  10.960   5.861   5.969  0.2812  0.0384 -0.6775
  157MOL0     C21532  10.843   5.817   6.033  1.0924  0.3019  0.2680
  157MOL0     C21533  10.834   5.831   6.176 -0.2790 -0.3606 -0.6130
  157MOL0     C21534  10.711   5.807   6.244  0.4915  0.2403  0.2524
  157MOL0     C21535  10.593   5.791   6.167  0.3475 -0.3168 -0.1032
  157MOL0     O21536  10.467   5.780   6.216  0.4616  0.1062  0.0141
  157MOL0     C21537  10.428   5.882   6.312  0.1643 -0.3317 -0.4127
  157MOL0     C21538  10.275   5.917   6.287  0.3431  0.3563  0.7843
  157MOL0     C21539  10.213   5.923   6.142  0.4099 -0.2135  0.0993
  157MOL0     C21540  10.308   5.993   6.041 -0.3647 -1.0994 -0.1950
  157MOL0     C21541  10.222   6.018   5.916  0.7168 -0.2420 -0.1555
  157MOL0     C21542  10.312   6.059   5.796  0.2623  0.4283  1.2102
  157MOL0     C21543  10.236   6.090   5.668 -0.8369  0.0980  0.5866
  157MOL0     C21544  10.318   6.109   5.552 -0.1459  0.6665  0.0403
  157MOL0     N21545  10.243   6.075   5.424  0.7009 -0.0750 -0.4585
  157MOL0     C21546  10.267   5.987   5.325 -0.1995  0.5749 -0.2643
  157MOL0     C21547  10.171   6.012   5.233  0.0381  0.0356 -0.6391
  157MOL0     C21548  10.140   5.955   5.094  0.4206  0.3065  0.5499
  157MOL0     C21549  10.075   5.818   5.111  0.2034 -0.7699 -0.5400
  157MOL0     C21550   9.932   5.810   5.180  0.5224  0.1881 -0.2066
  157MOL0     C21551   9.833   5.897   5.110 -0.1719 -0.1540  0.1572
  157MOL0     O21552   9.709   5.832   5.106 -0.0875  0.3274  0.0537
  157MOL0     C21553   9.594   5.897   5.064 -0.0198  1.0138  1.1848
  157MOL0     C21554   9.475   5.815   5.083 -0.6013 -0.1449 -0.3235
  157MOL0     C21555   9.345   5.863   5.040 -0.9380 -0.0767 -0.1151
  157MOL0     C21556   9.231   5.775   5.073  0.0549 -1.0530 -0.0389
  157MOL0     C21557   9.335   5.982   4.976  0.5716 -0.8946 -0.3908
  157MOL0     C21558   9.218   6.030   4.907 -0.1266 -0.8201  1.3972
  157MOL0     O21559   9.109   5.953   4.898 -0.2495  0.3219  0.1534
  157MOL0     C21560   8.993   5.995   4.838  0.1575  0.3359 -0.7008
  157MOL0     C21561   8.894   6.052   4.915  0.2089 -1.2121  0.4539
  157MOL0     C21562   8.763   6.094   4.862  0.1142 -1.2059 -0.2480
  157MOL0     C21563   8.736   6.076   4.727  0.2948 -1.1024  0.7302
  157MOL0     O21564   8.620   6.100   4.666 -0.7149 -0.9465  1.0208
  157MOL0     C21565   8.513   6.160   4.745  0.0776 -0.5024  0.1384
  157MOL0     C21566   8.378   6.165   4.675 -0.1415 -0.2443  0.0185
  157MOL0     C21567   8.255   6.164   4.768  0.0541  0.1196 -0.4911
  157MOL0     C21568   8.120   6.204   4.704 -0.1927 -0.6599 -0.9817
  157MOL0     C21569   7.998   6.153   4.780 -0.8254 -0.1627  0.3864
  157MOL0     C21570   7.867   6.158   4.691 -0.4586 -0.0153 -0.7067
  157MOL0     C21571   7.750   6.081   4.758 -0.8795  0.0675  0.9234
  157MOL0     C21572   7.659   6.028   4.636  0.0219 -0.0779  0.7596
  157MOL0    Cl21573   7.589   6.167   4.554  0.2335  0.4968  0.2791
  157MOL0     C21574   8.834   6.023   4.640  0.0734 -0.4723  0.1415
  157MOL0     C21575   8.961   5.978   4.703  0.4408  0.5071  0.4977
  157MOL0     O21576   9.226   6.134   4.836  0.8019 -0.5489 -0.3711
  157MOL0     C21577   9.455   6.063   4.964 -0.4101  0.3232 -0.8898
  157MOL0     C21578   9.584   6.019   5.003  0.3592 -0.6033 -0.1407
  157MOL0     N21579  10.085   6.112   5.275 -0.0425  0.5168 -0.7929
  157MOL0     N21580  10.138   6.158   5.388  0.1222  0.5413 -0.5875
  157MOL0     C21581  10.605   5.780   6.027  1.4764  0.5594 -0.2292
  157MOL0     C21582  10.726   5.785   5.966  0.9988  0.3060  0.4307
  157MOL0     C21583  11.188   5.807   5.917 -0.2473 -0.4632 -0.2280
  157MOL0     C21584  11.193   5.928   5.838 -0.0459 -0.1271 -1.2108
  157MOL0     C21585  11.309   5.985   5.788 -0.2256  0.4444 -0.0829
  157MOL0     C21586  11.432   5.918   5.799  0.0623 -0.3047 -0.6219
  157MOL0     O21587  11.556   5.974   5.763  0.2709 -0.0230 -0.3417
  157MOL0     C21588  11.557   6.117   5.730 -0.2549  0.7826  0.6919
  157MOL0     C21589  11.697   6.154   5.670 -0.4611 -0.9383  0.3992
  157MOL0     C21590  11.809   6.132   5.777  0.0782 -0.4899  0.4221
  157MOL0     C21591  11.944   6.179   5.711 -0.8202  0.8533  0.4463
  157MOL0     C21592  12.060   6.120   5.783  0.2908 -0.0553 -0.9276
  157MOL0     C21593  12.161   6.095   5.851  0.4728 -1.0357  0.7143
  157MOL0     C21594  11.428   5.791   5.857  0.3892 -0.7316  0.3029
  157MOL0     C21595  11.310   5.740   5.917  0.0487  0.2632 -0.8581
  157MOL0     C21596  11.326   5.590   5.961  0.3006 -0.3615  0.8133
  157MOL0     H21597  10.933   5.840   6.221 -0.6777 -0.9626  0.4359
  157MOL0     H21598  10.711   5.800   6.352  0.7549  1.7070  0.3620
  157MOL0     H21599  10.500   5.964   6.315  0.4111 -0.5630  1.6062
  157MOL0     H21600  10.426   5.838   6.412  0.7037 -2.1093 -1.1297
  157MOL0     H21601  10.226   5.836   6.342  0.5479 -0.4896 -0.2452
  157MOL0     H21602  10.257   6.015   6.332 -1.4039  0.7248 -0.6048
  157MOL0     H21603  10.200   5.819   6.112 -2.0739  0.3423 -0.9956
  157MOL0     H21604  10.113   5.969   6.137  0.7398  0.3733 -2.0686
  157MOL0     H21605  10.345   6.089   6.078 -1.1637 -0.6170 -0.6261
  157MOL0     H21606  10.400   5.935   6.027 -0.3054 -1.3842  1.2281
  157MOL0     H21607  10.153   6.101   5.934  1.1665  0.5676 -1.9688
  157MOL0     H21608  10.169   5.925   5.893  0.3653 -0.0264 -0.2191
  157MOL0     H21609  10.368   6.149   5.822 -0.0454  0.5107  1.5928
  157MOL0     H21610  10.391   5.990   5.766  2.1648  2.6878  0.7371
  157MOL0     H21611  10.193   6.190   5.684  3.0948  2.2927 -1.2535
  157MOL0     H21612  10.156   6.017   5.652 -0.7866  0.5004 -1.7076
  157MOL0     H21613  10.345   6.215   5.546 -0.7181  0.8210  0.1817
  157MOL0     H21614  10.408   6.046   5.554  1.7524  3.2737  1.9153
  157MOL0     H21615  10.343   5.910   5.315 -0.9517 -0.4024  1.1905
  157MOL0     H21616  10.235   5.941   5.041  1.7322  3.6252  1.7473
  157MOL0     H21617  10.077   6.021   5.035  1.5284  0.7283 -0.1912
  157MOL0     H21618  10.063   5.765   5.016 -1.5586 -3.4206  1.0253
  157MOL0     H21619  10.148   5.761   5.169  0.0547 -0.1696  0.2539
  157MOL0     H21620   9.897   5.707   5.179  1.1167 -0.1811  3.7709
  157MOL0     H21621   9.940   5.837   5.285 -0.5450  1.5624 -0.4414
  157MOL0     H21622   9.824   5.992   5.163 -1.4548  0.7129 -1.5102
  157MOL0     H21623   9.868   5.913   5.007 -0.2916  1.6978  0.3678
  157MOL0     H21624   9.481   5.724   5.143 -1.1016  0.9994  1.5600
  157MOL0     H21625   9.131   5.818   5.075  0.9757  1.2097 -0.2475
  157MOL0     H21626   9.249   5.728   5.170  0.7184  0.7867  0.7738
  157MOL0     H21627   9.220   5.692   5.002  0.0427 -0.3693 -0.8449
  157MOL0     H21628   8.909   6.056   5.022 -3.0390 -3.7467  1.1979
  157MOL0     H21629   8.697   6.152   4.925  0.4661  0.8592 -1.7053
  157MOL0     H21630   8.492   6.094   4.830 -1.4322 -1.4428 -0.9041
  157MOL0     H21631   8.540   6.262   4.775 -4.0110  1.3085 -1.5453
  157MOL0     H21632   8.379   6.251   4.607  0.2197 -0.4116 -0.1904
  157MOL0     H21633   8.380   6.076   4.612  0.9651 -0.9085  0.9490
  157MOL0     H21634   8.268   6.215   4.864  0.5325 -0.9093  0.0077
  157MOL0     H21635   8.248   6.060   4.801 -1.5514  0.4493  0.2917
  157MOL0     H21636   8.117   6.155   4.606 -0.0441 -1.5220 -0.5725
  157MOL0     H21637   8.109   6.312   4.712  2.9686 -0.3820  2.4650
  157MOL0     H21638   8.016   6.048   4.801 -0.4077  0.6013  4.6603
  157MOL0     H21639   7.976   6.200   4.876 -0.3525  2.0224 -0.5022
  157MOL0     H21640   7.882   6.130   4.586  2.2922 -3.1733  0.3526
  157MOL0     H21641   7.826   6.259   4.693  1.0511  0.7655 -3.4125
  157MOL0     H21642   7.690   6.139   4.829 -0.5396  1.4358  0.1168
  157MOL0     H21643   7.790   5.992   4.808  1.0666  0.6289  0.4301
  157MOL0     H21644   7.585   5.957   4.676  0.2968  0.3250  2.0259
  157MOL0     H21645   7.722   5.974   4.566 -0.0226 -0.2339  0.8394
  157MOL0     H21646   8.818   6.019   4.532  1.9352 -2.6290 -0.1318
  157MOL0     H21647   9.039   5.943   4.636 -0.8148 -3.1865  0.7352
  157MOL0     H21648   9.453   6.151   4.900 -2.2041  0.2242 -1.0368
  157MOL0     H21649   9.667   6.087   4.987 -0.4060 -0.0043 -1.7362
  157MOL0     H21650  10.516   5.770   5.966  2.5223  1.1832 -1.9247
  157MOL0     H21651  10.739   5.769   5.860  2.8996 -1.9448  0.8954
  157MOL0     H21652  11.109   5.997   5.836  1.8668  2.2998 -1.3792
  157MOL0     H21653  11.310   6.085   5.745  2.2390  0.4601 -0.1764
  157MOL0     H21654  11.490   6.149   5.650  1.6872 -0.5169 -1.5752
  157MOL0     H21655  11.532   6.178   5.817  1.4517  1.2685  0.8658
  157MOL0     H21656  11.700   6.262   5.656  3.2631 -0.7261  1.6995
  157MOL0     H21657  11.713   6.092   5.582  3.8912 -1.8548  1.5863
  157MOL0     H21658  11.791   6.188   5.869 -0.7051 -0.7691  0.4462
  157MOL0     H21659  11.817   6.025   5.798 -1.2734 -1.0067 -1.3551
  157MOL0     H21660  11.941   6.288   5.700 -1.1964  1.0542  2.2833
  157MOL0     H21661  11.951   6.142   5.608  3.6923  0.1689  0.8160
  157MOL0     H21662  12.239   6.051   5.910  1.6473  0.6309  0.4990
  157MOL0     H21663  11.518   5.730   5.863  0.4419 -0.5751  1.3552
  157MOL0     H21664  11.431   5.559   5.973 -0.1914 -1.9200  1.3189
  157MOL0     H21665  11.264   5.553   6.042  0.7982  0.1426  1.4420
  157MOL0     H21666  11.297   5.529   5.875  1.1023 -0.7695  0.8176
  158MOL0     O21667  10.647  10.904   3.803 -0.0129  0.6449  0.0346
  158MOL0     C21668  10.546  10.840   3.824 -0.1176 -0.2662  0.5437
  158MOL0     O21669  10.550  10.701   3.851  0.6445  0.0486 -0.5702
  158MOL0     C21670  10.668  10.635   3.855  0.3368 -0.5539  1.0529
  158MOL0     C21671  10.709  10.538   3.762  0.3044 -0.5482 -0.0364
  158MOL0     C21672  10.831  10.469   3.777  0.0561  0.1171  0.1898
  158MOL0     C21673  10.918  10.499   3.880 -0.2161  0.2128  0.1489
  158MOL0     O21674  11.037  10.431   3.879 -0.3141 -0.8078  0.3674
  158MOL0     C21675  11.151  10.477   3.951  0.2155 -0.4862  0.3189
  158MOL0     C21676  11.270  10.389   3.894 -0.4674  0.4442 -0.5088
  158MOL0     C21677  11.401  10.428   3.969 -0.0557  0.6190  0.1315
  158MOL0     C21678  11.468  10.552   3.924  0.2150 -0.0273  0.0840
  158MOL0     C21679  11.613  10.550   3.882  0.1162 -0.5008 -0.0475
  158MOL0     C21680  11.668  10.688   3.834 -0.7033  0.5104 -0.4375
  158MOL0     C21681  11.822  10.679   3.805  0.8725 -0.5182 -0.1990
  158MOL0     C21682  11.871  10.825   3.806 -0.0818  0.2923 -0.4038
  158MOL0     N21683  11.995  10.837   3.741 -0.3355  0.1580 -0.4008
  158MOL0     C21684  12.081  10.739   3.717 -0.4952 -1.3477 -1.0168
  158MOL0     C21685  12.171  10.802   3.638 -0.5449  0.1534  0.8806
  158MOL0     C21686  12.289  10.736   3.562  0.6700 -0.4751 -0.8829
  158MOL0     C21687  12.405  10.837   3.555 -0.1986 -1.4549  0.1791
  158MOL0     C21688  12.448  10.913   3.679 -0.8982 -1.1413 -0.5064
  158MOL0     C21689  12.540  11.034   3.649 -0.1306  0.1980 -0.5079
  158MOL0     O21690  12.661  10.996   3.577  0.2086  0.2429 -0.3570
  158MOL0     C21691  12.765  10.937   3.644 -0.1445 -0.1558 -0.0473
  158MOL0     C21692  12.781  10.918   3.778  1.5039  0.0937 -0.1962
  158MOL0     C21693  12.894  10.860   3.834  0.6486  0.7984 -0.8217
  158MOL0     C21694  12.897  10.838   3.984 -0.1068 -0.2810 -0.1906
  158MOL0     C21695  12.996  10.829   3.742  0.0552  1.3925 -0.8245
  158MOL0     C21696  13.129  10.759   3.787 -0.2691 -0.3299  0.5385
  158MOL0     O21697  13.141  10.696   3.905  0.2921  0.0495  0.5682
  158MOL0     C21698  13.263  10.664   3.959  0.3112  0.0168 -0.0825
  158MOL0     C21699  13.281  10.685   4.093 -0.3319 -0.4014 -0.5067
  158MOL0     C21700  13.393  10.633   4.165  0.7517  0.2482  0.2281
  158MOL0     C21701  13.494  10.571   4.097 -0.5981  1.0365 -0.2226
  158MOL0     O21702  13.607  10.517   4.145  0.0020 -0.1763  0.0322
  158MOL0     C21703  13.610  10.486   4.291 -0.0832 -0.6071 -0.1506
  158MOL0     C21704  13.731  10.403   4.338 -0.1991 -0.4694 -0.0488
  158MOL0     C21705  13.865  10.473   4.300  0.2812  0.6367 -0.6538
  158MOL0     C21706  13.955  10.492   4.425 -0.0726 -0.6036 -0.7736
  158MOL0     C21707  14.083  10.584   4.407  0.5352 -1.1531  0.3027
  158MOL0     C21708  14.123  10.655   4.532 -0.1172  0.5599 -0.5340
  158MOL0     C21709  14.266  10.698   4.530 -0.5197  0.2805 -0.6192
  158MOL0     C21710  14.298  10.770   4.665  0.4478  0.2777 -0.0756
  158MOL0    Cl21711  14.201  10.923   4.670 -0.0120 -0.0497  0.2673
  158MOL0     C21712  13.487  10.565   3.957 -0.2925 -0.5110 -0.1600
  158MOL0     C21713  13.373  10.610   3.888  0.1102 -0.1249 -0.6272
  158MOL0     O21714  13.217  10.763   3.704  0.1460 -0.7647 -1.0149
  158MOL0     C21715  12.986  10.857   3.607 -0.1061  0.3108  0.4600
  158MOL0     C21716  12.872  10.910   3.555  0.0369 -1.1172  0.0925
  158MOL0     N21717  12.129  10.926   3.591 -0.1773  0.0335 -0.1164
  158MOL0     N21718  12.018  10.942   3.660 -0.2031  0.3314 -0.4613
  158MOL0     C21719  10.879  10.595   3.967 -1.0319 -0.1816 -0.4368
  158MOL0     C21720  10.753  10.662   3.960 -0.1727  0.6652  0.0775
  158MOL0     C21721  10.415  10.906   3.825  0.4400  0.0085  0.0774
  158MOL0     C21722  10.300  10.826   3.845  1.0564  0.3098  0.4524
  158MOL0     C21723  10.167  10.870   3.833  0.6743  0.1301 -0.5452
  158MOL0     C21724  10.149  11.006   3.814  0.9993 -0.7077  0.4044
  158MOL0     O21725  10.015  11.049   3.805  0.2153 -0.0516  0.0142
  158MOL0     C21726   9.980  11.185   3.794 -0.4547  0.3899 -0.8731
  158MOL0     C21727   9.990  11.252   3.930 -0.3106 -0.1495 -0.4936
  158MOL0     C21728   9.983  11.400   3.934 -0.3499  0.1561 -0.1865
  158MOL0     C21729   9.847  11.456   3.891 -0.1863  0.6542  0.1081
  158MOL0     C21730   9.840  11.588   3.954  0.0577  0.0305 -0.3882
  158MOL0     C21731   9.821  11.695   4.010  0.7243  0.6413  0.5957
  158MOL0     C21732  10.263  11.086   3.784  0.3603 -0.6081  0.2844
  158MOL0     C21733  10.392  11.046   3.799  0.7518  0.4464 -0.1899
  158MOL0     C21734  10.496  11.152   3.767  0.3410 -0.4877 -0.1453
  158MOL0     H21735  10.642  10.521   3.678 -0.7270  2.6546 -0.0042
  158MOL0     H21736  10.857  10.387   3.711 -2.4313  0.6246 -1.5816
  158MOL0     H21737  11.136  10.469   4.059  0.6824 -0.2365  0.4065
  158MOL0     H21738  11.179  10.580   3.928 -0.3837 -0.4954 -0.5074
  158MOL0     H21739  11.264  10.280   3.899 -1.7642  0.5502  0.8633
  158MOL0     H21740  11.292  10.413   3.790  1.2905 -2.2908 -0.8578
  158MOL0     H21741  11.378  10.425   4.076 -0.8918 -1.3405 -0.0446
  158MOL0     H21742  11.473  10.348   3.951 -0.0668 -0.1666  3.1849
  158MOL0     H21743  11.411  10.589   3.839 -0.0158 -0.1583  0.1823
  158MOL0     H21744  11.462  10.627   4.003  0.4502 -0.2150  0.2837
  158MOL0     H21745  11.626  10.487   3.794  0.9110  0.1200 -0.3912
  158MOL0     H21746  11.669  10.510   3.967 -2.3797 -2.3984  0.8232
  158MOL0     H21747  11.622  10.717   3.739  0.4512 -1.5388 -1.6877
  158MOL0     H21748  11.651  10.762   3.913 -0.5772 -0.7496  0.7935
  158MOL0     H21749  11.838  10.623   3.712 -0.8094 -1.2025 -0.1156
  158MOL0     H21750  11.872  10.624   3.884  0.5591 -0.2934  0.1612
  158MOL0     H21751  11.796  10.894   3.766 -1.2886  0.6454  2.2143
  158MOL0     H21752  11.881  10.872   3.904 -1.4654  2.6788 -1.3312
  158MOL0     H21753  12.089  10.640   3.761 -2.7268 -0.5703  1.4161
  158MOL0     H21754  12.267  10.702   3.461 -2.8775  2.0803 -1.1689
  158MOL0     H21755  12.319  10.650   3.623  4.8712 -0.2428 -2.3277
  158MOL0     H21756  12.484  10.774   3.512 -1.9601 -4.4947  1.0327
  158MOL0     H21757  12.389  10.906   3.472 -1.7830  1.0958  2.4438
  158MOL0     H21758  12.373  10.960   3.744  0.4267 -1.2985  1.2049
  158MOL0     H21759  12.504  10.842   3.740  3.6681  2.1563 -0.3419
  158MOL0     H21760  12.477  11.098   3.588 -1.8361 -1.6856 -0.8365
  158MOL0     H21761  12.561  11.088   3.742  0.5400  1.8829 -1.6017
  158MOL0     H21762  12.699  10.945   3.844  2.1419  0.3534  0.5007
  158MOL0     H21763  12.811  10.886   4.031 -1.1930 -1.3131 -1.0653
  158MOL0     H21764  12.996  10.865   4.022  0.4193 -0.9472 -1.0620
  158MOL0     H21765  12.902  10.732   4.011 -1.0709  0.0954  1.6295
  158MOL0     H21766  13.192  10.732   4.136 -0.2171 -0.4108 -0.2587
  158MOL0     H21767  13.396  10.642   4.273 -0.0557  3.0099  0.1021
  158MOL0     H21768  13.601  10.575   4.354 -0.7405 -2.6100  2.7801
  158MOL0     H21769  13.519  10.432   4.317 -2.0301  1.4295 -2.2705
  158MOL0     H21770  13.722  10.375   4.444  4.5834 -0.5439  0.5606
  158MOL0     H21771  13.724  10.308   4.285  1.5741  0.1600 -1.4932
  158MOL0     H21772  13.846  10.575   4.264  2.3350  1.7441  1.1798
  158MOL0     H21773  13.913  10.418   4.219 -1.8596 -1.0928 -0.8393
  158MOL0     H21774  13.980  10.393   4.464 -3.3509 -0.0967  3.4215
  158MOL0     H21775  13.891  10.547   4.495  1.7316 -1.2411  1.5133
  158MOL0     H21776  14.168  10.532   4.364 -0.4366 -1.5509 -1.2141
  158MOL0     H21777  14.058  10.660   4.332 -2.9323  1.2457  3.5022
  158MOL0     H21778  14.113  10.583   4.614  1.9180  1.1726  0.3161
  158MOL0     H21779  14.049  10.733   4.550  1.6795  2.7030 -1.9495
  158MOL0     H21780  14.255  10.779   4.457 -1.4504  0.9677  0.2642
  158MOL0     H21781  14.337  10.618   4.505 -2.1604 -1.8272  1.0900
  158MOL0     H21782  14.406  10.781   4.677  0.7013 -1.4947 -0.4680
  158MOL0     H21783  14.265  10.722   4.757  1.9320  1.2572  1.0051
  158MOL0     H21784  13.566  10.512   3.905  1.0091 -2.1201  3.1652
  158MOL0     H21785  13.359  10.586   3.783  2.3325  0.8073 -1.1989
  158MOL0     H21786  13.072  10.835   3.544  0.7758 -0.4992  1.8946
  158MOL0     H21787  12.867  10.921   3.447  1.5725  0.4278  0.1447
  158MOL0     H21788  10.952  10.616   4.045 -1.5727  0.7892 -0.1761
  158MOL0     H21789  10.724  10.732   4.038  2.4256  1.8748  0.0590
  158MOL0     H21790  10.314  10.720   3.865 -1.0222 -0.0031  0.4083
  158MOL0     H21791  10.077  10.811   3.837  1.0676 -0.4237  0.6987
  158MOL0     H21792  10.045  11.244   3.729  0.7533  1.7018  1.3804
  158MOL0     H21793   9.879  11.196   3.754 -0.9708 -1.0653 -0.0503
  158MOL0     H21794  10.088  11.226   3.971 -0.9581 -1.5548  0.2495
  158MOL0     H21795   9.908  11.210   3.990 -0.1950  1.4854  0.8652
  158MOL0     H21796  10.004  11.411   4.041  3.3508 -2.0351 -0.5246
  158MOL0     H21797  10.067  11.439   3.876  1.1719  0.0869  1.8669
  158MOL0     H21798   9.766  11.392   3.926  0.7912  0.1393  1.5583
  158MOL0     H21799   9.840  11.467   3.782  4.7876 -0.0542 -0.5323
  158MOL0     H21800   9.800  11.790   4.055  1.3348  1.3090 -0.4803
  158MOL0     H21801  10.249  11.188   3.752  1.9390 -0.5485 -0.3229
  158MOL0     H21802  10.519  11.143   3.661 -1.2236  0.8257 -0.6328
  158MOL0     H21803  10.464  11.255   3.783 -0.1379 -0.8949  1.8061
  158MOL0     H21804  10.591  11.143   3.822  0.1078  0.6925  0.5017
  159MOL0     O21805   8.162   1.757   8.632  0.0736 -0.3320  0.9230
  159MOL0     C21806   8.104   1.662   8.581  0.6853 -0.0263  0.4646
  159MOL0     O21807   8.129   1.527   8.600 -0.3200  0.7862 -0.5820
  159MOL0     C21808   8.247   1.498   8.659  0.7832 -0.1518  0.4086
  159MOL0     C21809   8.238   1.399   8.753  0.2655  1.0772 -0.0091
  159MOL0     C21810   8.346   1.365   8.828  0.1271 -0.3843 -0.9114
  159MOL0     C21811   8.475   1.428   8.798 -0.7802  1.0058  0.5756
  159MOL0     O21812   8.580   1.372   8.869 -0.4992 -0.5234 -0.3503
  159MOL0     C21813   8.685   1.463   8.909 -0.2362  0.1910 -0.2633
  159MOL0     C21814   8.772   1.411   9.034  0.1659  0.8661 -0.3975
  159MOL0     C21815   8.903   1.481   9.066 -0.7534 -0.6695  0.0889
  159MOL0     C21816   9.016   1.453   8.960  0.6806  0.1564 -0.5494
  159MOL0     C21817   9.157   1.472   9.019  1.6500 -0.0339 -0.0685
  159MOL0     C21818   9.264   1.442   8.917  0.3818  0.6663  0.2825
  159MOL0     C21819   9.411   1.477   8.951 -0.4845  0.4790 -0.2912
  159MOL0     C21820   9.440   1.624   8.976  0.1235 -0.2312 -0.5640
  159MOL0     N21821   9.580   1.655   8.974  0.2665 -0.1226 -0.3111
  159MOL0     C21822   9.653   1.698   8.864  0.4471  1.1759  0.5722
  159MOL0     C21823   9.774   1.726   8.905 -1.3546  0.4374  0.3244
  159MOL0     C21824   9.896   1.755   8.810  0.4528  0.2686 -0.6222
  159MOL0     C21825   9.903   1.911   8.777 -0.0792  0.3247 -0.3409
  159MOL0     C21826  10.045   1.947   8.733 -1.0693  0.3770  0.3982
  159MOL0     C21827  10.032   2.054   8.616 -0.5740 -0.1217  1.5237
  159MOL0     O21828  10.010   1.995   8.491 -0.0939 -0.1195 -0.1455
  159MOL0     C21829  10.115   1.918   8.442 -1.2246  1.4039  0.1893
  159MOL0     C21830  10.077   1.804   8.365 -0.0368  0.2205 -0.5745
  159MOL0     C21831  10.168   1.725   8.298  0.3358 -0.0699 -0.1875
  159MOL0     C21832  10.113   1.603   8.224 -0.3289  0.0347  0.8013
  159MOL0     C21833  10.306   1.743   8.330 -0.6683 -0.1535  0.2133
  159MOL0     C21834  10.413   1.646   8.306 -0.9102  1.4242  0.2006
  159MOL0     O21835  10.521   1.667   8.379 -0.2359  0.7774 -0.0648
  159MOL0     C21836  10.626   1.580   8.381 -0.0446  0.4028 -0.7603
  159MOL0     C21837  10.622   1.454   8.426  0.8047 -0.0089  0.6292
  159MOL0     C21838  10.725   1.367   8.425 -0.7011 -0.2015  0.5211
  159MOL0     C21839  10.850   1.406   8.371  0.1526 -1.0480  0.3662
  159MOL0     O21840  10.949   1.315   8.347 -0.2421 -0.2321  0.8780
  159MOL0     C21841  10.985   1.225   8.458 -0.3445  0.1441 -0.2995
  159MOL0     C21842  11.044   1.298   8.585 -0.0458 -0.6310  0.3159
  159MOL0     C21843  11.172   1.376   8.557  0.0517  1.3853 -0.1027
  159MOL0     C21844  11.258   1.367   8.690 -0.5634  0.6669  0.3113
  159MOL0     C21845  11.393   1.430   8.667 -0.2749 -0.7792  0.6853
  159MOL0     C21846  11.474   1.403   8.799 -1.0332 -0.6055 -0.3611
  159MOL0     C21847  11.609   1.478   8.788 -0.3085  0.2365  0.6988
  159MOL0     C21848  11.691   1.434   8.912  0.8493 -0.8093  0.8558
  159MOL0    Cl21849  11.833   1.541   8.910  0.0912 -0.2460  0.0780
  159MOL0     C21850  10.859   1.538   8.330 -1.2655  0.2149  0.3834
  159MOL0     C21851  10.752   1.625   8.335  0.6544  0.2068  0.0445
  159MOL0     O21852  10.401   1.556   8.222 -0.2099  0.0034 -0.2677
  159MOL0     C21853  10.342   1.869   8.400  0.1059  0.3987 -0.2987
  159MOL0     C21854  10.247   1.954   8.449  0.6194 -0.4329  0.3550
  159MOL0     N21855   9.774   1.696   9.043 -0.4313 -0.3853 -0.3390
  159MOL0     N21856   9.659   1.655   9.081  0.3021  0.6477  0.5264
  159MOL0     C21857   8.484   1.538   8.718  0.1305 -0.3574  0.8547
  159MOL0     C21858   8.367   1.565   8.643 -0.2763 -0.2623  0.4667
  159MOL0     C21859   7.963   1.687   8.556 -0.3461 -0.5307  0.8650
  159MOL0     C21860   7.854   1.625   8.624  1.1217 -0.9711 -0.4180
  159MOL0     C21861   7.719   1.657   8.591  0.3014 -0.7799 -0.4313
  159MOL0     C21862   7.690   1.748   8.491  0.1607 -0.2169 -0.4313
  159MOL0     O21863   7.560   1.783   8.456 -0.2904 -0.1492 -0.3132
  159MOL0     C21864   7.444   1.717   8.523 -1.1102  0.5765  0.3257
  159MOL0     C21865   7.315   1.786   8.488 -0.0772 -0.1368  0.8881
  159MOL0     C21866   7.251   1.755   8.349  0.2723 -0.3263  0.4930
  159MOL0     C21867   7.220   1.607   8.316  1.1190 -0.3387 -0.8055
  159MOL0     C21868   7.335   1.549   8.248 -0.3947  0.4182  0.4316
  159MOL0     C21869   7.427   1.491   8.197  0.6395  0.0983  0.0543
  159MOL0     C21870   7.792   1.800   8.416  0.3209  0.1578 -0.5767
  159MOL0     C21871   7.931   1.775   8.447 -0.1939 -0.3639 -0.0559
  159MOL0     C21872   8.031   1.845   8.357  0.2110  0.1711  0.3428
  159MOL0     H21873   8.142   1.350   8.770  1.4131 -1.2493  0.1032
  159MOL0     H21874   8.336   1.291   8.907  2.2917  0.5403  0.3122
  159MOL0     H21875   8.640   1.554   8.951 -0.0166  1.6700 -3.0212
  159MOL0     H21876   8.744   1.496   8.823  1.2073  1.1089  1.0219
  159MOL0     H21877   8.711   1.412   9.125  0.6135  0.5418 -0.0908
  159MOL0     H21878   8.795   1.308   9.005  1.8717  0.6398  1.5337
  159MOL0     H21879   8.889   1.589   9.050 -0.3268 -0.9540 -2.6806
  159MOL0     H21880   8.936   1.462   9.169  0.4641 -0.1019 -0.1707
  159MOL0     H21881   9.011   1.349   8.925  3.5231 -1.0171  2.0149
  159MOL0     H21882   8.999   1.527   8.882  1.2952  2.8012  1.6853
  159MOL0     H21883   9.165   1.413   9.110 -0.2081 -0.3118 -0.0402
  159MOL0     H21884   9.171   1.574   9.056 -1.8798  0.0643  1.3858
  159MOL0     H21885   9.272   1.333   8.905  1.7519  0.7807  0.0484
  159MOL0     H21886   9.245   1.476   8.815  2.0884 -1.4469 -0.8212
  159MOL0     H21887   9.480   1.441   8.874  0.8960  0.0266  1.0951
  159MOL0     H21888   9.428   1.421   9.043  0.8310  0.4103 -0.5464
  159MOL0     H21889   9.397   1.674   8.889 -0.5326  0.0263 -0.0933
  159MOL0     H21890   9.393   1.654   9.070  0.2078 -2.5355  0.2763
  159MOL0     H21891   9.616   1.711   8.762 -0.1026 -2.0333  0.2765
  159MOL0     H21892   9.883   1.700   8.717 -0.1967 -2.5104  1.0094
  159MOL0     H21893   9.991   1.714   8.846 -0.6323 -1.3296  0.5609
  159MOL0     H21894   9.837   1.936   8.693 -0.3464 -4.2981 -1.7575
  159MOL0     H21895   9.881   1.977   8.861 -0.9187  1.5537 -1.4737
  159MOL0     H21896  10.098   1.994   8.817  0.5588 -2.2328  0.9392
  159MOL0     H21897  10.106   1.861   8.705 -1.9129 -0.1754  0.2272
  159MOL0     H21898   9.961   2.132   8.644  1.5707  0.8143  4.8761
  159MOL0     H21899  10.121   2.117   8.608 -0.4410 -0.5455 -1.0229
  159MOL0     H21900   9.970   1.787   8.363 -0.3146  1.7751 -0.7435
  159MOL0     H21901  10.157   1.520   8.280 -1.4665  0.9193  3.1463
  159MOL0     H21902  10.146   1.601   8.120 -0.1473 -1.6934  0.8705
  159MOL0     H21903  10.004   1.595   8.220 -0.5919  2.1413  2.0162
  159MOL0     H21904  10.520   1.430   8.456  0.2786  1.1885 -0.1055
  159MOL0     H21905  10.716   1.263   8.455  2.4242 -0.6591  0.2660
  159MOL0     H21906  10.901   1.162   8.487  0.1157 -1.8323 -2.9427
  159MOL0     H21907  11.060   1.153   8.426  1.9460  0.1252  4.2895
  159MOL0     H21908  10.973   1.375   8.616  1.1219  1.8824 -2.7394
  159MOL0     H21909  11.051   1.217   8.658 -1.7993  0.4737  1.8016
  159MOL0     H21910  11.146   1.477   8.523  2.5416  1.9907 -0.4203
  159MOL0     H21911  11.222   1.321   8.476  0.2949  0.2913  0.7694
  159MOL0     H21912  11.279   1.262   8.713 -0.6592 -0.2968 -3.3809
  159MOL0     H21913  11.212   1.427   8.768  0.1757  0.2727  1.0759
  159MOL0     H21914  11.445   1.396   8.577  0.9486  0.8915  0.7112
  159MOL0     H21915  11.375   1.537   8.657 -0.1566 -0.9074 -1.5358
  159MOL0     H21916  11.484   1.295   8.813 -1.2713 -0.5785  0.0351
  159MOL0     H21917  11.430   1.450   8.887  0.2680 -0.1662  0.0840
  159MOL0     H21918  11.593   1.586   8.785 -0.6780  0.2412  2.0052
  159MOL0     H21919  11.671   1.440   8.706 -1.0348 -0.5394  0.4935
  159MOL0     H21920  11.721   1.328   8.915  0.3639 -0.9247  3.2285
  159MOL0     H21921  11.627   1.462   8.996  0.2370  0.6044 -0.0532
  159MOL0     H21922  10.950   1.579   8.286 -1.9918  1.9126  0.3921
  159MOL0     H21923  10.758   1.730   8.308 -3.0469  0.2994 -0.8950
  159MOL0     H21924  10.443   1.894   8.429  0.3536 -1.3956  0.5605
  159MOL0     H21925  10.280   2.042   8.505 -0.9152  0.1973  0.3164
  159MOL0     H21926   8.578   1.592   8.709  0.6519 -1.3238  0.3314
  159MOL0     H21927   8.377   1.644   8.569 -1.6240  0.4245  0.9829
  159MOL0     H21928   7.890   1.551   8.695  2.9409  1.9314  1.9255
  159MOL0     H21929   7.646   1.612   8.658  1.9573 -1.6702  0.8483
  159MOL0     H21930   7.437   1.612   8.494 -2.5827  0.3857  1.2914
  159MOL0     H21931   7.449   1.721   8.633  0.7709  0.3538  0.2885
  159MOL0     H21932   7.331   1.894   8.494  2.6918 -0.2105 -2.0653
  159MOL0     H21933   7.239   1.768   8.565 -1.4691  2.0999  0.1094
  159MOL0     H21934   7.164   1.821   8.354  1.2610  0.9294  3.4873
  159MOL0     H21935   7.316   1.792   8.269 -0.0680  1.8473  1.1697
  159MOL0     H21936   7.141   1.607   8.240  1.0225  1.4502 -0.7576
  159MOL0     H21937   7.177   1.552   8.400  0.0180 -3.0874 -3.0192
  159MOL0     H21938   7.505   1.434   8.150  1.7240  1.3798  0.2305
  159MOL0     H21939   7.775   1.868   8.334  3.3136  2.3053  0.3879
  159MOL0     H21940   7.991   1.847   8.255  4.3283  1.4301 -1.4378
  159MOL0     H21941   8.052   1.949   8.384  2.8139 -0.6156  1.6305
  159MOL0     H21942   8.120   1.782   8.347 -0.3597 -0.3667 -1.6896
  160MOL0     O21943   5.457   5.583   4.663  0.1704  0.1485 -0.1869
  160MOL0     C21944   5.376   5.492   4.693 -0.3043 -0.3395  0.1976
  160MOL0     O21945   5.379   5.410   4.811 -0.1829 -0.1126 -0.3605
  160MOL0     C21946   5.476   5.433   4.903  0.8754  0.3267 -0.3949
  160MOL0     C21947   5.428   5.465   5.028 -0.5280 -0.6546  0.6486
  160MOL0     C21948   5.524   5.505   5.121  0.4621 -0.6215 -1.0747
  160MOL0     C21949   5.657   5.510   5.089 -1.1736 -0.8161  0.2022
  160MOL0     O21950   5.748   5.542   5.186  0.0886 -0.0153 -0.5598
  160MOL0     C21951   5.800   5.422   5.252  0.4009 -1.0578 -0.0603
  160MOL0     C21952   5.771   5.444   5.395 -0.3172 -0.5453 -0.3475
  160MOL0     C21953   5.868   5.551   5.458 -0.3317  0.3509 -0.3331
  160MOL0     C21954   5.806   5.613   5.583  0.1923  0.4853  0.6809
  160MOL0     C21955   5.897   5.711   5.658  0.1239 -0.5758  0.4047
  160MOL0     C21956   5.988   5.799   5.566 -0.2315 -0.1346 -0.0796
  160MOL0     C21957   6.076   5.897   5.648  0.5751  0.5914  0.3240
  160MOL0     C21958   6.021   6.010   5.724 -0.5871  0.0545 -0.2265
  160MOL0     N21959   5.947   6.108   5.645  0.0832  0.3724 -0.4944
  160MOL0     C21960   5.807   6.113   5.634  0.2302 -0.5749  0.6191
  160MOL0     C21961   5.776   6.205   5.536 -0.2034  0.1035 -0.1937
  160MOL0     C21962   5.642   6.231   5.480  0.4924 -0.2839 -0.0152
  160MOL0     C21963   5.551   6.110   5.484 -0.5697  0.4508  0.7580
  160MOL0     C21964   5.616   5.990   5.410 -0.0021 -1.1594  0.1430
  160MOL0     C21965   5.513   5.876   5.394  0.7775  0.3262  0.0231
  160MOL0     O21966   5.395   5.914   5.317 -0.0459 -0.2577 -0.1259
  160MOL0     C21967   5.421   5.955   5.192 -0.5159  0.1893  0.7670
  160MOL0     C21968   5.464   6.078   5.147  0.3810  1.1004 -0.0922
  160MOL0     C21969   5.484   6.117   5.012  0.6190  0.0929  0.7381
  160MOL0     C21970   5.513   6.255   4.972  0.5212  0.1686 -0.4694
  160MOL0     C21971   5.481   6.017   4.908 -0.7686  0.0313 -0.5307
  160MOL0     C21972   5.520   6.042   4.765  0.3327  0.3707  0.2102
  160MOL0     O21973   5.450   5.975   4.674  0.0901  0.3217 -0.2807
  160MOL0     C21974   5.505   5.947   4.548  0.0713  0.0439 -0.2479
  160MOL0     C21975   5.603   5.852   4.529  0.1319 -0.1279  0.4687
  160MOL0     C21976   5.648   5.837   4.397 -0.8962  0.3432  0.5839
  160MOL0     C21977   5.597   5.897   4.291 -0.1348  0.0897  1.5391
  160MOL0     O21978   5.669   5.877   4.174  0.2172 -0.6673 -0.4226
  160MOL0     C21979   5.606   5.913   4.052  0.9195 -0.0165 -0.2879
  160MOL0     C21980   5.492   5.819   4.013  0.0077 -0.4236 -0.2901
  160MOL0     C21981   5.527   5.670   4.011  0.9114 -0.1517  0.1807
  160MOL0     C21982   5.408   5.586   3.959 -1.4934 -0.6015  0.3988
  160MOL0     C21983   5.470   5.446   3.960 -0.4686 -0.4885  0.8868
  160MOL0     C21984   5.362   5.344   3.919 -0.0546  0.4318  0.0786
  160MOL0     C21985   5.235   5.355   4.003 -0.0375 -0.3345  0.2193
  160MOL0     C21986   5.180   5.213   4.034  0.3223 -0.6864 -0.4480
  160MOL0    Cl21987   5.044   5.161   3.942  0.2164  0.1062  0.1266
  160MOL0     C21988   5.486   5.979   4.305 -0.4338  0.0739 -0.4932
  160MOL0     C21989   5.446   6.004   4.431 -0.0744  1.0166  0.5129
  160MOL0     O21990   5.604   6.121   4.733 -0.0210  0.1843  0.0424
  160MOL0     C21991   5.438   5.885   4.954 -0.4621  0.1810 -0.6585
  160MOL0     C21992   5.403   5.865   5.089  0.0688 -0.5581  0.8787
  160MOL0     N21993   5.899   6.257   5.499  0.0361  0.5506 -0.0445
  160MOL0     N21994   5.996   6.198   5.551  0.3345  0.0863 -0.2290
  160MOL0     C21995   5.701   5.477   4.961 -0.1413 -0.3122 -0.3306
  160MOL0     C21996   5.607   5.425   4.867 -0.4179 -0.3098  0.9931
  160MOL0     C21997   5.262   5.472   4.603 -0.0841 -0.0155  0.1010
  160MOL0     C21998   5.143   5.414   4.658  0.0364 -0.0649  0.0032
  160MOL0     C21999   5.027   5.401   4.582 -0.3066  0.1122 -0.7514
  160MOL0     C22000   5.022   5.462   4.455  0.3311  0.2653  0.8747
  160MOL0     O22001   4.904   5.471   4.384 -0.0083 -0.7151 -0.2054
  160MOL0     C22002   4.884   5.379   4.277 -0.5599  0.2764 -0.9953
  160MOL0     C22003   4.895   5.446   4.136 -0.3020 -0.2262 -0.4608
  160MOL0     C22004   4.809   5.577   4.124 -0.6024  0.2327  0.2289
  160MOL0     C22005   4.657   5.554   4.158 -0.3184  0.4428 -0.6360
  160MOL0     C22006   4.587   5.465   4.063  0.2093  0.2506  0.0150
  160MOL0     C22007   4.534   5.405   3.968  0.3465  0.0663 -1.1296
  160MOL0     C22008   5.129   5.519   4.399 -0.5211 -0.4333  0.3274
  160MOL0     C22009   5.247   5.531   4.471  0.1590 -0.4441 -1.9711
  160MOL0     C22010   5.361   5.599   4.402  0.0603  0.3653 -0.1285
  160MOL0     H22011   5.321   5.458   5.044 -1.3469  3.7474 -1.1545
  160MOL0     H22012   5.496   5.526   5.224  0.5551 -2.8043 -0.5493
  160MOL0     H22013   5.903   5.395   5.226  0.4115  1.8247 -3.7653
  160MOL0     H22014   5.744   5.336   5.214 -1.2596  1.0173 -2.6093
  160MOL0     H22015   5.665   5.467   5.406 -0.7235 -2.5978  0.2722
  160MOL0     H22016   5.796   5.350   5.444 -1.1890 -0.2807  0.6383
  160MOL0     H22017   5.967   5.509   5.479  0.1372  0.6148 -1.8881
  160MOL0     H22018   5.897   5.635   5.394  5.0215 -0.6518  0.2888
  160MOL0     H22019   5.717   5.667   5.550  0.1158 -0.3877 -0.5959
  160MOL0     H22020   5.752   5.546   5.651 -1.2716  0.5483 -0.3629
  160MOL0     H22021   5.965   5.650   5.717  0.9235  1.2163  1.4046
  160MOL0     H22022   5.837   5.782   5.716  0.7616 -0.9201  1.5231
  160MOL0     H22023   6.055   5.736   5.506  0.2828  0.9559 -0.6711
  160MOL0     H22024   5.922   5.849   5.494  3.1922 -1.1447 -4.3266
  160MOL0     H22025   6.135   5.947   5.571 -0.7504  2.7417  0.6376
  160MOL0     H22026   6.132   5.834   5.718  1.2126 -0.7258 -1.2849
  160MOL0     H22027   5.952   5.970   5.799  0.4909 -0.8404  0.3083
  160MOL0     H22028   6.110   6.058   5.765  0.9256 -0.4590 -2.7051
  160MOL0     H22029   5.739   6.042   5.680 -0.0159 -1.0914 -0.4869
  160MOL0     H22030   5.647   6.256   5.374 -2.9801 -0.0367 -0.2352
  160MOL0     H22031   5.599   6.316   5.533  2.1703 -0.1695  1.2272
  160MOL0     H22032   5.548   6.081   5.590  0.6740  1.1985  1.0266
  160MOL0     H22033   5.450   6.135   5.454 -0.7032  1.3969  1.9003
  160MOL0     H22034   5.654   6.026   5.315  0.3584 -2.2309 -0.1334
  160MOL0     H22035   5.702   5.941   5.458 -1.9194 -1.2455  3.9171
  160MOL0     H22036   5.566   5.799   5.337 -0.7141  0.4273 -1.5812
  160MOL0     H22037   5.478   5.840   5.491 -4.4834  0.0926 -1.6643
  160MOL0     H22038   5.472   6.158   5.220 -0.8957  0.6522  0.5641
  160MOL0     H22039   5.621   6.271   4.967  0.9261 -1.8917  0.5690
  160MOL0     H22040   5.473   6.326   5.045 -1.0667 -3.0131  1.9942
  160MOL0     H22041   5.481   6.287   4.872  0.0160 -0.4505 -0.5178
  160MOL0     H22042   5.650   5.809   4.617  0.5308 -1.2945 -0.2871
  160MOL0     H22043   5.713   5.750   4.395 -0.3577  0.5024  4.1857
  160MOL0     H22044   5.576   6.019   4.053  1.6916  0.2036 -0.1913
  160MOL0     H22045   5.673   5.887   3.970  2.3413  0.9058  0.5407
  160MOL0     H22046   5.408   5.826   4.084 -0.2712 -0.9731 -0.5600
  160MOL0     H22047   5.464   5.866   3.918  1.5542 -0.2285 -0.6778
  160MOL0     H22048   5.545   5.635   4.113 -0.9592 -0.9851  0.2778
  160MOL0     H22049   5.604   5.660   3.934  0.5281 -2.6337  0.0152
  160MOL0     H22050   5.369   5.612   3.861 -0.0159 -1.2288 -0.3861
  160MOL0     H22051   5.327   5.593   4.033  0.1564  1.4546  2.1747
  160MOL0     H22052   5.562   5.437   3.902 -0.2268 -0.7551  1.3086
  160MOL0     H22053   5.495   5.416   4.062 -1.2354  2.0272  1.9068
  160MOL0     H22054   5.407   5.246   3.932  3.2804  1.4036 -2.7538
  160MOL0     H22055   5.335   5.358   3.813  1.6470 -1.6936 -0.7044
  160MOL0     H22056   5.159   5.403   3.942 -0.0296 -1.9836 -1.1900
  160MOL0     H22057   5.246   5.410   4.096  0.0257 -1.5085  0.9297
  160MOL0     H22058   5.153   5.215   4.140 -1.2130 -1.5886 -0.7933
  160MOL0     H22059   5.258   5.137   4.025  0.8028 -0.9200  3.7251
  160MOL0     H22060   5.432   6.022   4.222  0.5087  0.8365 -0.7205
  160MOL0     H22061   5.378   6.089   4.438  0.5635  1.5440  0.4694
  160MOL0     H22062   5.439   5.801   4.885  3.4176  0.0467 -0.6788
  160MOL0     H22063   5.367   5.769   5.124  0.0543 -0.4584  1.1404
  160MOL0     H22064   5.808   5.487   4.946  0.6372 -3.0271  2.4239
  160MOL0     H22065   5.649   5.399   4.771  2.5818  2.6037  1.3431
  160MOL0     H22066   5.147   5.365   4.755 -0.2158  0.8631  0.4935
  160MOL0     H22067   4.941   5.345   4.618  0.2543  0.3181  1.0176
  160MOL0     H22068   4.961   5.302   4.286 -0.6451  0.3891  1.1139
  160MOL0     H22069   4.786   5.333   4.297 -0.2902  0.1224  0.0433
  160MOL0     H22070   4.863   5.380   4.055  0.6772  2.1959 -2.9376
  160MOL0     H22071   5.001   5.468   4.122 -0.4242  0.2446 -0.6346
  160MOL0     H22072   4.854   5.653   4.188 -2.6394  2.8367 -1.2314
  160MOL0     H22073   4.821   5.623   4.025  0.0088  2.5025  1.3011
  160MOL0     H22074   4.608   5.651   4.157 -0.1647  0.5501  0.8248
  160MOL0     H22075   4.651   5.508   4.257  0.0633 -0.7952 -1.1693
  160MOL0     H22076   4.519   5.339   3.885  1.4251  0.6578 -1.8093
  160MOL0     H22077   5.121   5.582   4.311  0.2610  2.2646  2.0582
  160MOL0     H22078   5.339   5.623   4.298  2.2513  0.3067 -0.6604
  160MOL0     H22079   5.385   5.701   4.435 -3.0988  0.9806  0.6179
  160MOL0     H22080   5.449   5.535   4.388 -0.5418 -0.2452 -1.1987
  161MOL0     O22081   7.742   1.367   3.191 -0.2283  0.1874 -0.4289
  161MOL0     C22082   7.732   1.359   3.314 -0.0555 -0.5670 -0.1879
  161MOL0     O22083   7.834   1.384   3.405 -0.3645 -0.5595  0.2530
  161MOL0     C22084   7.963   1.424   3.369 -0.0914 -0.3661  0.1143
  161MOL0     C22085   7.999   1.508   3.265  0.3046  0.8236  0.1029
  161MOL0     C22086   8.133   1.523   3.234  0.0404 -0.2172  0.3539
  161MOL0     C22087   8.236   1.468   3.320 -0.2641 -0.0238  0.1010
  161MOL0     O22088   8.364   1.488   3.261 -0.3332 -0.8495 -1.0813
  161MOL0     C22089   8.472   1.503   3.358 -0.8214  1.0664  0.0998
  161MOL0     C22090   8.604   1.529   3.291 -0.0478 -0.6878  0.0807
  161MOL0     C22091   8.619   1.436   3.168 -0.3800  0.0279  0.2023
  161MOL0     C22092   8.776   1.440   3.128 -0.7955 -1.0282  0.3990
  161MOL0     C22093   8.803   1.328   3.032  0.0536  0.1168  0.0155
  161MOL0     C22094   8.801   1.182   3.090  0.0888 -0.1056  0.2572
  161MOL0     C22095   8.886   1.154   3.209 -0.7280  0.8273 -0.7597
  161MOL0     C22096   9.038   1.172   3.199  0.5892 -0.1829 -0.1278
  161MOL0     N22097   9.117   1.094   3.297  1.0187  0.3570  0.1111
  161MOL0     C22098   9.150   0.962   3.289 -0.5676  0.1869 -0.8393
  161MOL0     C22099   9.211   0.931   3.409 -0.1171 -0.4471  0.0538
  161MOL0     C22100   9.252   0.793   3.451 -0.4819  0.0154  0.4217
  161MOL0     C22101   9.367   0.729   3.368 -1.0574 -0.4261  0.5176
  161MOL0     C22102   9.493   0.813   3.366  1.0163 -0.3152  0.1042
  161MOL0     C22103   9.608   0.718   3.346  0.0728 -0.4723 -0.1502
  161MOL0     O22104   9.739   0.780   3.378 -0.5331  0.0020  0.3654
  161MOL0     C22105   9.820   0.825   3.277 -1.3944  0.3194  0.2439
  161MOL0     C22106   9.961   0.819   3.292 -0.5241 -0.0057  0.4538
  161MOL0     C22107  10.049   0.872   3.200 -0.0358 -0.2234  0.8012
  161MOL0     C22108  10.202   0.856   3.224  0.4616  0.4970  0.0377
  161MOL0     C22109   9.997   0.935   3.088  0.2144 -0.3886 -0.5850
  161MOL0     C22110  10.078   0.988   2.970  0.3689  0.0451 -0.3281
  161MOL0     O22111  10.199   1.025   3.009  0.7047 -0.4405 -0.1679
  161MOL0     C22112  10.289   1.090   2.915  0.4410 -1.4992 -0.1544
  161MOL0     C22113  10.291   1.043   2.777 -1.0736  0.0825 -0.1267
  161MOL0     C22114  10.386   1.104   2.690 -0.2206 -0.2822 -0.0709
  161MOL0     C22115  10.479   1.200   2.741  0.1927  0.8470  0.0436
  161MOL0     O22116  10.578   1.265   2.669  0.2342 -0.2006 -0.1236
  161MOL0     C22117  10.626   1.198   2.558 -0.4592 -0.0725  0.3724
  161MOL0     C22118  10.745   1.112   2.597  0.2804  0.2508 -0.0657
  161MOL0     C22119  10.819   1.062   2.468  0.5017  0.2809  0.4116
  161MOL0     C22120  10.917   1.172   2.414  0.0156  0.8832  0.2916
  161MOL0     C22121  10.996   1.124   2.291 -0.9163 -0.2518  0.3711
  161MOL0     C22122  11.065   1.243   2.218 -0.3266  0.0349  0.6426
  161MOL0     C22123  11.180   1.206   2.134  0.0004 -0.7745  0.1015
  161MOL0     C22124  11.315   1.170   2.211 -0.2120  0.2115 -0.8590
  161MOL0    Cl22125  11.451   1.164   2.087  0.3444  0.4875 -0.3661
  161MOL0     C22126  10.482   1.226   2.878 -0.6586  0.5939  1.2078
  161MOL0     C22127  10.378   1.191   2.958  0.1345 -0.5190  0.0994
  161MOL0     O22128  10.016   1.018   2.865 -0.2420  0.0198  0.3279
  161MOL0     C22129   9.853   0.943   3.073 -1.1652 -0.2345  0.3843
  161MOL0     C22130   9.769   0.887   3.164  0.7481 -0.4846 -0.8278
  161MOL0     N22131   9.230   1.046   3.479  0.1111 -0.8800  0.5708
  161MOL0     N22132   9.158   1.140   3.420 -0.8577  0.7194  0.2310
  161MOL0     C22133   8.204   1.392   3.431 -1.0471  0.1925 -0.6345
  161MOL0     C22134   8.064   1.376   3.453 -0.0808 -0.0487  0.8115
  161MOL0     C22135   7.598   1.314   3.376  0.1301  0.0555  0.9561
  161MOL0     C22136   7.514   1.242   3.284 -0.0692  0.5323  0.5223
  161MOL0     C22137   7.400   1.186   3.335  0.5987 -0.0842  0.4401
  161MOL0     C22138   7.364   1.200   3.469 -0.8929  0.4704  0.4371
  161MOL0     O22139   7.246   1.149   3.522  0.5776 -0.3259 -0.1129
  161MOL0     C22140   7.144   1.088   3.433 -0.1452  1.0646 -0.5573
  161MOL0     C22141   7.011   1.071   3.506 -0.7078  0.0256  0.1099
  161MOL0     C22142   6.901   1.027   3.402 -1.0342  0.7128 -0.0583
  161MOL0     C22143   6.908   0.881   3.363 -0.1306 -0.1656 -0.5576
  161MOL0     C22144   7.011   0.853   3.265 -0.8683 -0.8071  0.4216
  161MOL0     C22145   7.096   0.828   3.181 -0.2586  0.9826 -0.8785
  161MOL0     C22146   7.448   1.264   3.558  0.6353 -0.2464  0.4801
  161MOL0     C22147   7.569   1.323   3.512  0.8187  0.3360 -0.3769
  161MOL0     C22148   7.660   1.377   3.620 -0.4716 -0.0085  0.7120
  161MOL0     H22149   7.916   1.551   3.209 -2.3089 -1.1060  2.1862
  161MOL0     H22150   8.165   1.586   3.151  1.6450 -0.7798  0.5097
  161MOL0     H22151   8.480   1.416   3.423 -0.6630  1.0863  0.1082
  161MOL0     H22152   8.462   1.591   3.422  2.1712  2.7664 -1.5241
  161MOL0     H22153   8.613   1.637   3.273  1.1270 -0.3440  2.3018
  161MOL0     H22154   8.681   1.503   3.364  0.4890  1.1362  0.2257
  161MOL0     H22155   8.600   1.336   3.209  0.7237 -0.4055 -0.3123
  161MOL0     H22156   8.555   1.465   3.084 -0.8510 -1.9207 -0.1830
  161MOL0     H22157   8.797   1.533   3.075  2.8642 -0.3537  2.6466
  161MOL0     H22158   8.836   1.449   3.219  0.7913 -1.1119 -0.6062
  161MOL0     H22159   8.904   1.339   2.992 -0.7610  0.9469 -1.9220
  161MOL0     H22160   8.729   1.342   2.952 -0.4177 -1.1344  0.2145
  161MOL0     H22161   8.700   1.146   3.112  1.1951 -2.7137  1.5561
  161MOL0     H22162   8.843   1.116   3.014 -1.1816 -2.0342  1.1329
  161MOL0     H22163   8.860   1.057   3.253 -0.0016  0.9994  0.0620
  161MOL0     H22164   8.849   1.221   3.288  1.0401  2.3239 -1.1357
  161MOL0     H22165   9.074   1.144   3.099 -0.7630 -0.0592 -0.6755
  161MOL0     H22166   9.059   1.279   3.209 -1.4499  0.1732  0.9590
  161MOL0     H22167   9.129   0.902   3.201 -3.4071 -1.3383  0.7361
  161MOL0     H22168   9.166   0.726   3.442  1.2086 -2.1028 -0.7197
  161MOL0     H22169   9.274   0.803   3.557 -1.4542 -1.2391  0.7617
  161MOL0     H22170   9.384   0.625   3.398 -0.2271 -0.0546  1.3581
  161MOL0     H22171   9.323   0.729   3.267  1.4714 -1.7970 -0.6860
  161MOL0     H22172   9.485   0.882   3.281  0.6098  2.1357  2.0244
  161MOL0     H22173   9.499   0.866   3.461  1.3129 -1.3897  0.6973
  161MOL0     H22174   9.587   0.630   3.409  1.5315 -0.6480  0.1388
  161MOL0     H22175   9.612   0.682   3.243 -4.9949  2.1056 -1.5719
  161MOL0     H22176  10.004   0.768   3.378  2.5567 -0.2032 -1.0687
  161MOL0     H22177  10.253   0.810   3.139  1.0853  0.2278  0.5534
  161MOL0     H22178  10.224   0.792   3.310 -2.1886 -0.6557 -0.0232
  161MOL0     H22179  10.260   0.948   3.239  0.6951  0.1064  1.7448
  161MOL0     H22180  10.219   0.972   2.737 -0.3931 -1.3916  1.1596
  161MOL0     H22181  10.375   1.077   2.586 -2.6073  0.6437 -0.1209
  161MOL0     H22182  10.559   1.131   2.503 -1.4516  0.3915  0.9884
  161MOL0     H22183  10.664   1.273   2.488  2.3855  0.2545  2.1112
  161MOL0     H22184  10.820   1.166   2.656  1.5040 -0.0062 -1.3407
  161MOL0     H22185  10.706   1.022   2.646 -1.3084  0.1339 -1.4757
  161MOL0     H22186  10.747   1.037   2.390  0.7673  1.3461 -0.1944
  161MOL0     H22187  10.874   0.968   2.474 -1.5710 -1.1142 -1.1794
  161MOL0     H22188  10.977   1.216   2.494  1.2795  1.5533 -0.9785
  161MOL0     H22189  10.856   1.258   2.386 -0.4848  0.8955  1.3703
  161MOL0     H22190  11.065   1.047   2.324  1.4167  1.6603  0.2212
  161MOL0     H22191  10.928   1.086   2.214  0.9638  2.6435 -3.0663
  161MOL0     H22192  11.103   1.317   2.290 -0.4120 -1.9806  2.8772
  161MOL0     H22193  10.992   1.286   2.150  0.9407  1.5947  0.2002
  161MOL0     H22194  11.216   1.289   2.072 -0.7831  0.2860  1.0385
  161MOL0     H22195  11.155   1.123   2.068 -1.1182 -0.5315  0.2061
  161MOL0     H22196  11.310   1.075   2.264  1.4982  0.4688 -0.1738
  161MOL0     H22197  11.341   1.253   2.277  0.6607 -0.6778 -0.0551
  161MOL0     H22198  10.563   1.291   2.911  0.5817 -1.0243  1.4564
  161MOL0     H22199  10.367   1.230   3.059  0.7090  0.1744 -0.0976
  161MOL0     H22200   9.824   0.986   2.978  2.1976  1.6058  0.0216
  161MOL0     H22201   9.662   0.883   3.146  0.4315  2.0754  0.0144
  161MOL0     H22202   8.284   1.355   3.495 -1.2825  1.2518  0.3011
  161MOL0     H22203   8.018   1.327   3.538  1.2747  2.2042  2.9802
  161MOL0     H22204   7.540   1.233   3.179 -1.3803  1.6528  0.0619
  161MOL0     H22205   7.334   1.138   3.263  0.1467  1.6138 -0.3278
  161MOL0     H22206   7.134   1.158   3.350  0.0137  1.7460 -0.0118
  161MOL0     H22207   7.184   0.992   3.399  1.0634  1.4383 -0.2612
  161MOL0     H22208   6.984   1.162   3.559 -2.5109 -0.5890  0.3107
  161MOL0     H22209   7.015   0.996   3.586 -0.7567  0.5404  0.6018
  161MOL0     H22210   6.808   1.058   3.451  0.4419  1.8085  2.2332
  161MOL0     H22211   6.903   1.081   3.307  0.1487  0.6171 -0.1002
  161MOL0     H22212   6.811   0.850   3.323  0.1987 -2.1992  0.0640
  161MOL0     H22213   6.921   0.824   3.455 -0.0321 -0.8775 -1.0044
  161MOL0     H22214   7.169   0.804   3.107 -0.5505 -1.7017 -0.4013
  161MOL0     H22215   7.414   1.265   3.661 -0.8734  0.3566 -0.0002
  161MOL0     H22216   7.699   1.477   3.596 -0.9054  0.0872  0.3844
  161MOL0     H22217   7.615   1.383   3.719 -2.3623  0.6292 -0.1361
  161MOL0     H22218   7.748   1.312   3.625 -2.1775 -2.4313  0.7840
  162MOL0     O22219   4.340   1.261   7.494  1.0223 -0.8584 -0.3475
  162MOL0     C22220   4.264   1.194   7.567 -0.1885  0.5907 -0.5663
  162MOL0     O22221   4.301   1.119   7.681  0.3086  0.4541 -0.8362
  162MOL0     C22222   4.436   1.127   7.716  0.4443  0.9185  0.1455
  162MOL0     C22223   4.495   1.005   7.759  0.6007  0.3661 -0.4965
  162MOL0     C22224   4.627   1.000   7.804 -0.2727 -0.4374 -0.5740
  162MOL0     C22225   4.703   1.123   7.825 -0.9699  0.3624  0.9999
  162MOL0     O22226   4.832   1.100   7.858 -0.4792  0.4663  0.5146
  162MOL0     C22227   4.910   1.218   7.864 -0.4579  0.0472 -0.8933
  162MOL0     C22228   5.062   1.196   7.909 -0.5218 -0.0015  0.7485
  162MOL0     C22229   5.153   1.188   7.786  0.0706 -0.6317 -0.2651
  162MOL0     C22230   5.298   1.211   7.830  0.0610 -0.1703 -0.0482
  162MOL0     C22231   5.396   1.178   7.715  0.1595  0.0329 -0.8300
  162MOL0     C22232   5.529   1.239   7.740 -0.2368  0.1062  0.3486
  162MOL0     C22233   5.623   1.189   7.630  0.3239  0.2456  0.3197
  162MOL0     C22234   5.761   1.145   7.695 -0.1472 -0.4342  0.3409
  162MOL0     N22235   5.858   1.118   7.591 -0.5938 -0.0152  0.1731
  162MOL0     C22236   5.917   1.214   7.515 -0.0152 -0.3189  0.2947
  162MOL0     C22237   5.984   1.145   7.420 -0.3433  0.3682  0.2324
  162MOL0     C22238   6.051   1.206   7.302  0.1661  0.3659 -0.4930
  162MOL0     C22239   6.188   1.259   7.347 -0.3090  0.5290  0.1784
  162MOL0     C22240   6.294   1.152   7.381  0.1395  0.4586  0.3382
  162MOL0     C22241   6.380   1.104   7.264 -0.1995 -0.4295  0.2786
  162MOL0     O22242   6.420   1.214   7.181 -0.6130  0.1072  0.0892
  162MOL0     C22243   6.555   1.260   7.186  0.0860  1.0708  0.1691
  162MOL0     C22244   6.574   1.397   7.188  0.8850  0.0815 -0.3432
  162MOL0     C22245   6.705   1.450   7.174  0.5494 -0.4678 -0.6736
  162MOL0     C22246   6.709   1.604   7.184  0.0386  0.0407  0.4414
  162MOL0     C22247   6.812   1.359   7.187 -0.6871 -0.1443  0.3699
  162MOL0     C22248   6.952   1.415   7.180 -0.3251  0.6982  0.1878
  162MOL0     O22249   6.967   1.523   7.108 -0.2407  0.3004  0.1403
  162MOL0     C22250   7.093   1.567   7.092 -0.0793 -0.1522  0.5215
  162MOL0     C22251   7.123   1.705   7.119  0.9265 -0.0580 -0.3860
  162MOL0     C22252   7.244   1.766   7.101 -0.7515 -0.0987  0.1872
  162MOL0     C22253   7.349   1.688   7.062 -0.0345 -0.4371 -0.3950
  162MOL0     O22254   7.466   1.754   7.032 -0.2391  0.5085 -0.1874
  162MOL0     C22255   7.570   1.683   6.980 -0.8184 -0.9993 -0.2305
  162MOL0     C22256   7.655   1.599   7.086  0.8691 -0.3104  0.3932
  162MOL0     C22257   7.790   1.657   7.135  0.1481 -0.0315 -1.1309
  162MOL0     C22258   7.882   1.691   7.025 -0.0820 -0.3862  0.6558
  162MOL0     C22259   8.029   1.739   7.077  0.2202 -0.0475 -0.2240
  162MOL0     C22260   8.124   1.759   6.961  0.6510  0.7726  0.6540
  162MOL0     C22261   8.258   1.806   7.007 -1.0254 -0.3368 -0.1320
  162MOL0     C22262   8.347   1.694   7.063  0.4621  0.0375  0.4523
  162MOL0    Cl22263   8.523   1.746   7.077 -0.1936 -0.0453  0.1598
  162MOL0     C22264   7.326   1.548   7.034  0.6346 -0.5778 -0.1123
  162MOL0     C22265   7.200   1.491   7.050 -0.7369  0.5859 -0.1049
  162MOL0     O22266   7.042   1.355   7.247 -0.9104  0.0032  0.2125
  162MOL0     C22267   6.799   1.222   7.205 -0.1104  1.6879  0.2627
  162MOL0     C22268   6.669   1.177   7.198 -0.1738 -0.0636 -0.3081
  162MOL0     N22269   5.963   1.007   7.445 -0.1683 -0.3083 -0.1784
  162MOL0     N22270   5.893   0.996   7.548 -0.1157  0.1176 -0.0501
  162MOL0     C22271   4.640   1.243   7.783  0.6436 -0.5211 -0.1058
  162MOL0     C22272   4.511   1.242   7.728 -0.0089 -0.5383  0.5386
  162MOL0     C22273   4.122   1.164   7.530 -0.1789 -0.3142  0.5481
  162MOL0     C22274   4.041   1.089   7.616  0.3492  0.2561  0.5164
  162MOL0     C22275   3.911   1.047   7.568  0.1139 -0.4985  0.3785
  162MOL0     C22276   3.865   1.069   7.438 -0.5676  0.8308  0.2640
  162MOL0     O22277   3.749   1.017   7.394  0.3322  0.1748  0.0875
  162MOL0     C22278   3.644   0.972   7.480  0.5192  0.8613 -0.1894
  162MOL0     C22279   3.586   1.070   7.582  0.7224 -0.4660  0.6980
  162MOL0     C22280   3.554   1.198   7.495 -0.0910  0.4594  0.2239
  162MOL0     C22281   3.469   1.306   7.571 -0.2382  0.2960  0.4589
  162MOL0     C22282   3.557   1.360   7.673  0.2609  0.6867 -1.3894
  162MOL0     C22283   3.629   1.385   7.770 -0.8737 -0.0504 -0.2282
  162MOL0     C22284   3.952   1.133   7.359  0.0825  0.2369  0.4683
  162MOL0     C22285   4.074   1.179   7.394  0.1593  0.7626 -0.9994
  162MOL0     C22286   4.156   1.258   7.287  0.9103  0.3825 -0.0657
  162MOL0     H22287   4.433   0.917   7.750 -0.8047  1.4677 -2.2429
  162MOL0     H22288   4.689   0.912   7.821 -0.3421 -0.7980 -2.0876
  162MOL0     H22289   4.866   1.283   7.939  0.9921 -0.2773  0.2845
  162MOL0     H22290   4.919   1.272   7.770  1.3560  1.1496 -0.1480
  162MOL0     H22291   5.091   1.290   7.956  3.7914  0.6413 -2.5350
  162MOL0     H22292   5.088   1.115   7.978  0.1410  1.1448  1.8771
  162MOL0     H22293   5.130   1.095   7.735 -1.2523  0.5406 -1.9041
  162MOL0     H22294   5.134   1.271   7.717 -0.8719 -0.3834  0.2775
  162MOL0     H22295   5.304   1.318   7.853 -1.0113 -0.6094  2.6733
  162MOL0     H22296   5.338   1.150   7.912 -1.5840 -1.9362 -0.5099
  162MOL0     H22297   5.353   1.225   7.627 -0.9881 -1.6431 -1.2082
  162MOL0     H22298   5.387   1.070   7.698 -1.7083  0.2656 -1.5955
  162MOL0     H22299   5.520   1.348   7.731  0.0106  0.1126  0.1683
  162MOL0     H22300   5.576   1.211   7.835 -0.6508  1.6829  1.0633
  162MOL0     H22301   5.637   1.266   7.552  0.4673 -0.4428 -0.3482
  162MOL0     H22302   5.577   1.107   7.575  1.2931  0.1089 -0.3128
  162MOL0     H22303   5.807   1.203   7.776 -0.1771 -0.0025  0.0490
  162MOL0     H22304   5.756   1.049   7.748  2.4507 -0.5714  0.5050
  162MOL0     H22305   5.901   1.320   7.529 -2.2610 -0.2662 -1.7680
  162MOL0     H22306   5.988   1.284   7.258 -1.6308 -2.0715 -2.5418
  162MOL0     H22307   6.063   1.128   7.225 -0.0363  0.8414 -1.0119
  162MOL0     H22308   6.216   1.319   7.260 -0.2829  1.5615  0.8694
  162MOL0     H22309   6.182   1.327   7.433 -0.8230 -0.5483  1.0164
  162MOL0     H22310   6.361   1.201   7.452 -0.0878  1.1720  0.0724
  162MOL0     H22311   6.248   1.068   7.434 -3.1249  2.5817  1.1802
  162MOL0     H22312   6.459   1.033   7.289  0.5046  0.6366  1.1833
  162MOL0     H22313   6.304   1.044   7.213  0.1891 -0.7536  0.0808
  162MOL0     H22314   6.480   1.452   7.184  0.9028  0.5741  3.0742
  162MOL0     H22315   6.691   1.658   7.091  0.9925 -0.6057 -0.1305
  162MOL0     H22316   6.796   1.641   7.238  1.1712 -2.2410  0.3123
  162MOL0     H22317   6.630   1.633   7.255  3.8437  1.8815  4.4009
  162MOL0     H22318   7.043   1.771   7.150  0.6980 -1.3329  2.0312
  162MOL0     H22319   7.239   1.875   7.100 -2.0448 -0.1502  0.0981
  162MOL0     H22320   7.538   1.629   6.890 -2.4743  1.3715 -1.1803
  162MOL0     H22321   7.633   1.761   6.935 -0.6881 -1.9313 -1.7538
  162MOL0     H22322   7.597   1.576   7.176 -1.2637  0.0760 -0.8276
  162MOL0     H22323   7.671   1.498   7.047 -0.2197 -0.5496  0.5420
  162MOL0     H22324   7.839   1.574   7.187 -1.6119  0.8777  2.2337
  162MOL0     H22325   7.781   1.741   7.204 -0.2343 -0.9812  0.0085
  162MOL0     H22326   7.826   1.767   6.971 -2.6571 -0.9328  2.3662
  162MOL0     H22327   7.900   1.602   6.964  0.5674 -0.2592  0.6535
  162MOL0     H22328   8.022   1.834   7.131  1.2652  0.1944 -0.5018
  162MOL0     H22329   8.069   1.656   7.137 -0.3605 -1.6283 -1.9303
  162MOL0     H22330   8.077   1.832   6.894 -0.8863  0.2765  1.1472
  162MOL0     H22331   8.130   1.662   6.910 -2.3656  1.5379 -1.4185
  162MOL0     H22332   8.262   1.894   7.073  0.3779 -0.1038 -0.5096
  162MOL0     H22333   8.310   1.839   6.917 -0.2209 -1.8564 -0.2401
  162MOL0     H22334   8.351   1.613   6.990  2.4463 -0.0202  0.5710
  162MOL0     H22335   8.296   1.665   7.156 -0.6176 -0.2432 -0.2156
  162MOL0     H22336   7.412   1.492   6.998  2.7570  2.1798  0.3447
  162MOL0     H22337   7.179   1.386   7.029 -5.2179  1.6416 -1.9014
  162MOL0     H22338   6.877   1.146   7.198  0.2899  2.2103 -1.7030
  162MOL0     H22339   6.672   1.070   7.186  3.2484  0.0474 -1.4582
  162MOL0     H22340   4.693   1.336   7.805 -0.8892  0.1517  0.9219
  162MOL0     H22341   4.485   1.335   7.679  2.6826  0.8397  1.5010
  162MOL0     H22342   4.068   1.055   7.715 -1.0880  4.7938  2.7492
  162MOL0     H22343   3.854   0.993   7.643 -3.8311  4.0169  1.1076
  162MOL0     H22344   3.558   0.954   7.414 -0.0852  1.2440  0.4736
  162MOL0     H22345   3.667   0.877   7.529 -2.3926 -1.0439 -2.1794
  162MOL0     H22346   3.655   1.086   7.665  0.8209 -2.6333  1.0938
  162MOL0     H22347   3.492   1.037   7.628  1.5955 -2.1626  1.3770
  162MOL0     H22348   3.650   1.241   7.467  1.1304 -1.6963  0.8491
  162MOL0     H22349   3.484   1.172   7.415 -0.5228 -0.9770  1.0373
  162MOL0     H22350   3.369   1.277   7.607 -0.0818 -1.8100 -0.6570
  162MOL0     H22351   3.448   1.387   7.500  1.0795 -0.6711 -1.1014
  162MOL0     H22352   3.694   1.394   7.855 -1.4298  0.9186  0.1109
  162MOL0     H22353   3.905   1.144   7.262 -0.3987 -1.0942  0.5308
  162MOL0     H22354   4.248   1.203   7.264  1.4675  1.9487 -1.8906
  162MOL0     H22355   4.098   1.270   7.195  1.3781  2.1103 -0.1694
  162MOL0     H22356   4.175   1.356   7.333  1.5469 -0.5494  1.7790
  163MOL0     O22357   1.151   7.332   7.572  0.6759  0.5514  0.5303
  163MOL0     C22358   1.144   7.239   7.492 -0.7104 -0.0639 -0.1187
  163MOL0     O22359   1.245   7.147   7.464 -0.3035  0.8765 -0.3989
  163MOL0     C22360   1.329   7.097   7.575  0.2008 -0.1901 -0.4731
  163MOL0     C22361   1.395   7.180   7.664 -0.0339 -0.1288  0.3002
  163MOL0     C22362   1.469   7.128   7.773 -0.7543 -0.3608  0.3913
  163MOL0     C22363   1.475   6.991   7.793 -1.0395 -0.5462 -0.6391
  163MOL0     O22364   1.556   6.941   7.895 -0.2020  0.1557  0.2970
  163MOL0     C22365   1.663   6.850   7.849 -0.2644 -0.3859  0.1225
  163MOL0     C22366   1.734   6.806   7.986  0.2675  0.3003 -0.2004
  163MOL0     C22367   1.836   6.701   7.972 -0.7262 -0.7285 -0.6983
  163MOL0     C22368   1.915   6.681   8.104 -0.3900 -0.7213 -0.4734
  163MOL0     C22369   2.044   6.614   8.062  0.8087  0.2635  0.1270
  163MOL0     C22370   2.147   6.591   8.177  0.5216  0.4340  0.1254
  163MOL0     C22371   2.262   6.500   8.126 -1.1406  1.0551  0.3823
  163MOL0     C22372   2.373   6.470   8.221  0.1154 -0.0426 -1.0774
  163MOL0     N22373   2.493   6.418   8.159  0.0120 -0.1958 -0.2530
  163MOL0     C22374   2.584   6.340   8.234 -0.8981 -0.5921  0.3103
  163MOL0     C22375   2.679   6.309   8.141  0.6898 -0.3500  0.2806
  163MOL0     C22376   2.799   6.232   8.167  0.3536 -0.6217  0.1595
  163MOL0     C22377   2.909   6.238   8.059 -0.8312  0.5358 -1.2776
  163MOL0     C22378   2.882   6.186   7.917 -0.0904  0.9412  0.1983
  163MOL0     C22379   2.853   6.039   7.889  0.5837  0.1937  0.0524
  163MOL0     O22380   2.926   5.965   7.978 -0.1947  0.3297  0.4618
  163MOL0     C22381   3.056   5.934   7.963 -0.0310  0.4799  0.7274
  163MOL0     C22382   3.098   5.835   8.047  0.1733  0.1114 -0.0760
  163MOL0     C22383   3.233   5.804   8.068 -0.5103 -0.6875  0.2184
  163MOL0     C22384   3.263   5.689   8.165 -0.3237  0.3642  0.1053
  163MOL0     C22385   3.332   5.869   7.990  0.4678  0.0578  0.0048
  163MOL0     C22386   3.475   5.847   7.998  0.2595 -0.3162 -0.3138
  163MOL0     O22387   3.558   5.885   7.889 -0.0602 -0.3451 -0.3175
  163MOL0     C22388   3.695   5.871   7.902  0.3209 -0.0722  0.4294
  163MOL0     C22389   3.758   5.757   7.870  0.0712 -0.0550 -0.0899
  163MOL0     C22390   3.902   5.748   7.887 -0.7949  0.8872 -0.6540
  163MOL0     C22391   3.971   5.864   7.923  0.2533  0.7854 -0.3425
  163MOL0     O22392   4.106   5.862   7.933  0.2064 -0.1162 -0.4835
  163MOL0     C22393   4.165   5.782   8.038 -0.8071 -0.2227  1.0909
  163MOL0     C22394   4.314   5.802   8.032  0.1362  0.0584  0.2673
  163MOL0     C22395   4.374   5.824   7.888 -0.5981  0.1397 -0.3011
  163MOL0     C22396   4.390   5.682   7.831 -0.1791 -0.1374 -0.4281
  163MOL0     C22397   4.455   5.689   7.692 -0.6186 -0.1166  0.4557
  163MOL0     C22398   4.518   5.561   7.651 -0.4877  0.3150 -0.2603
  163MOL0     C22399   4.583   5.583   7.516 -0.7244  0.0138 -0.2221
  163MOL0     C22400   4.729   5.633   7.525  0.7335  0.2611 -0.6676
  163MOL0    Cl22401   4.840   5.497   7.584 -0.6196  0.3500  0.1210
  163MOL0     C22402   3.908   5.979   7.967  0.5360  0.3292 -0.1286
  163MOL0     C22403   3.764   5.979   7.955 -0.2101  0.3581 -0.1734
  163MOL0     O22404   3.517   5.792   8.098 -0.0690 -0.0145  0.1912
  163MOL0     C22405   3.280   5.963   7.899 -1.0530 -0.6954  0.1694
  163MOL0     C22406   3.146   5.996   7.884  0.0985  0.0701 -0.1651
  163MOL0     N22407   2.641   6.374   8.025 -0.0269 -0.7098  0.9497
  163MOL0     N22408   2.538   6.443   8.033  0.2915  0.3556  0.4699
  163MOL0     C22409   1.410   6.907   7.706  0.6488  0.2445 -0.4434
  163MOL0     C22410   1.330   6.959   7.603 -0.9056  0.0750 -0.6577
  163MOL0     C22411   1.014   7.221   7.428  0.2671  0.4140  1.0912
  163MOL0     C22412   1.019   7.139   7.313  0.2687 -0.2710 -0.3116
  163MOL0     C22413   0.908   7.127   7.237 -0.2604  0.9486  0.2097
  163MOL0     C22414   0.786   7.181   7.276  0.4384  0.1477 -0.9942
  163MOL0     O22415   0.671   7.158   7.204  0.9114  0.3585 -0.1857
  163MOL0     C22416   0.563   7.246   7.183 -1.0644 -0.4336 -0.5583
  163MOL0     C22417   0.455   7.189   7.085 -0.4201  0.7055 -0.1665
  163MOL0     C22418   0.357   7.080   7.144  0.0877 -0.3828  0.4539
  163MOL0     C22419   0.328   7.081   7.303 -1.0034 -0.9567 -0.2127
  163MOL0     C22420   0.251   6.960   7.342 -0.3581 -0.1605 -0.0773
  163MOL0     C22421   0.188   6.873   7.387  0.2839  0.0114 -0.6799
  163MOL0     C22422   0.776   7.259   7.394 -0.3128 -0.3394 -0.3158
  163MOL0     C22423   0.889   7.264   7.476  0.5878  0.6094  0.4083
  163MOL0     C22424   0.864   7.313   7.622  0.5881 -0.0960  0.0149
  163MOL0     H22425   1.395   7.289   7.657 -1.0254 -0.1456 -0.0088
  163MOL0     H22426   1.517   7.191   7.847 -2.0767 -1.9813  2.7562
  163MOL0     H22427   1.742   6.903   7.794  1.1944  0.0362  2.4792
  163MOL0     H22428   1.629   6.765   7.789 -1.1934  0.2839 -0.3240
  163MOL0     H22429   1.767   6.898   8.035 -1.7145  0.4769  0.9179
  163MOL0     H22430   1.656   6.744   8.033 -1.0477 -0.2324 -2.8683
  163MOL0     H22431   1.796   6.609   7.928  1.2339 -0.6801 -2.7966
  163MOL0     H22432   1.903   6.734   7.891 -1.8885 -1.6328 -2.0837
  163MOL0     H22433   1.930   6.777   8.156 -2.5722  0.2338 -1.4991
  163MOL0     H22434   1.847   6.629   8.171  1.0480  0.1637  1.7971
  163MOL0     H22435   2.091   6.650   7.970 -2.0052  1.4492 -0.9634
  163MOL0     H22436   2.009   6.514   8.037  0.7319  0.7001 -1.6235
  163MOL0     H22437   2.184   6.687   8.214 -1.0661  0.1618  2.6709
  163MOL0     H22438   2.095   6.542   8.261 -1.6803 -0.9444 -1.9017
  163MOL0     H22439   2.307   6.543   8.036 -1.8012 -2.7905 -2.0489
  163MOL0     H22440   2.230   6.402   8.090 -0.8103  0.1321  2.4643
  163MOL0     H22441   2.390   6.553   8.291 -3.7467  1.0086 -1.1549
  163MOL0     H22442   2.326   6.394   8.283  1.7306 -1.6191 -1.7150
  163MOL0     H22443   2.575   6.296   8.333  0.3446 -1.1109  0.2042
  163MOL0     H22444   2.761   6.129   8.171 -4.2291  0.8705  0.6616
  163MOL0     H22445   2.826   6.258   8.269 -1.8013  3.8466 -0.1855
  163MOL0     H22446   2.925   6.346   8.045 -2.8781  1.1381  0.4767
  163MOL0     H22447   3.000   6.195   8.100 -1.0269  2.0388  0.8990
  163MOL0     H22448   2.799   6.254   7.894  0.4622  1.6393  0.2409
  163MOL0     H22449   2.970   6.226   7.865  0.9345  0.5669  1.6158
  163MOL0     H22450   2.746   6.025   7.904  0.8019 -1.8477 -0.0702
  163MOL0     H22451   2.876   6.012   7.786  2.4190 -0.4494  0.5979
  163MOL0     H22452   3.019   5.782   8.099 -0.7020  1.1496 -0.3102
  163MOL0     H22453   3.313   5.729   8.254  2.5098 -2.9081  0.1626
  163MOL0     H22454   3.327   5.618   8.112  0.4917 -1.6708  3.5041
  163MOL0     H22455   3.162   5.657   8.193 -1.6856  2.8578 -1.5803
  163MOL0     H22456   3.704   5.671   7.833  1.6538 -0.9667 -0.3585
  163MOL0     H22457   3.954   5.654   7.876 -0.3462  0.6454  2.5316
  163MOL0     H22458   4.127   5.818   8.134  1.8601  2.6239  1.2066
  163MOL0     H22459   4.129   5.684   8.005 -2.0330 -0.5007  3.0922
  163MOL0     H22460   4.338   5.893   8.086  1.2534 -0.2760  0.3630
  163MOL0     H22461   4.370   5.721   8.081 -0.9048  0.8451  2.8964
  163MOL0     H22462   4.473   5.868   7.905 -0.6638 -0.1044  0.7670
  163MOL0     H22463   4.326   5.898   7.823  1.9183  1.8916 -0.2928
  163MOL0     H22464   4.301   5.619   7.821 -0.7594 -0.4166  4.3327
  163MOL0     H22465   4.463   5.629   7.893 -0.2700  0.0097 -0.1926
  163MOL0     H22466   4.375   5.717   7.622  0.6090  2.3327 -0.0926
  163MOL0     H22467   4.531   5.768   7.695  0.0129 -0.7133  0.4903
  163MOL0     H22468   4.439   5.488   7.633 -0.4351  0.2472 -0.2173
  163MOL0     H22469   4.589   5.528   7.727  1.1271  0.8662 -1.4584
  163MOL0     H22470   4.513   5.628   7.445 -0.2198  0.7406 -0.2629
  163MOL0     H22471   4.595   5.487   7.464 -1.1640  1.1008 -2.4590
  163MOL0     H22472   4.738   5.718   7.593 -3.6205  0.1006  0.3532
  163MOL0     H22473   4.776   5.665   7.431 -0.3538  1.3757 -0.8485
  163MOL0     H22474   3.949   6.073   8.003 -0.3184  2.1867 -3.5393
  163MOL0     H22475   3.702   6.058   7.997  0.9449  2.7143 -2.6018
  163MOL0     H22476   3.352   6.022   7.843  0.9351 -2.2342  0.9798
  163MOL0     H22477   3.123   6.072   7.810 -0.4083 -0.5732 -0.6806
  163MOL0     H22478   1.411   6.799   7.719 -0.8437  0.4997  2.7933
  163MOL0     H22479   1.273   6.890   7.542 -1.3984 -0.3862  0.2977
  163MOL0     H22480   1.116   7.104   7.279  0.0882 -0.9799 -0.1147
  163MOL0     H22481   0.911   7.077   7.140  3.3153  1.0339  0.1643
  163MOL0     H22482   0.524   7.271   7.282  1.9688  1.5208  0.2414
  163MOL0     H22483   0.612   7.329   7.132  1.0513 -0.5129  1.2283
  163MOL0     H22484   0.499   7.132   7.002 -0.7367 -0.0272  0.1558
  163MOL0     H22485   0.409   7.280   7.045  1.4634  2.1885  0.8903
  163MOL0     H22486   0.263   7.085   7.088  0.5200 -2.8229 -0.6223
  163MOL0     H22487   0.401   6.983   7.120 -1.7963 -0.9485 -0.9871
  163MOL0     H22488   0.276   7.171   7.337 -0.1440 -1.3199  2.2910
  163MOL0     H22489   0.422   7.074   7.359 -1.9955 -1.3152  1.4800
  163MOL0     H22490   0.144   6.797   7.449  1.3001  0.4428  0.6211
  163MOL0     H22491   0.679   7.299   7.423 -0.2379  0.0948 -0.6481
  163MOL0     H22492   0.927   7.263   7.695  0.2537 -1.7244 -0.7560
  163MOL0     H22493   0.884   7.420   7.638  0.6865  0.0950 -1.2668
  163MOL0     H22494   0.762   7.290   7.656  0.8758 -3.1577 -0.9118
  164MOL0     O22495   6.114  10.473   6.511 -0.0788 -0.2974  0.3987
  164MOL0     C22496   6.026  10.464   6.598  0.1545 -0.3456 -0.2513
  164MOL0     O22497   6.054  10.419   6.730  0.0542  0.9318 -0.3688
  164MOL0     C22498   6.187  10.405   6.752  1.0702  0.5376  0.0203
  164MOL0     C22499   6.268  10.318   6.675  0.2514  0.4009 -0.3197
  164MOL0     C22500   6.403  10.327   6.694  0.2371 -0.2316  0.2910
  164MOL0     C22501   6.466  10.405   6.791  0.4667 -0.4250  0.1351
  164MOL0     O22502   6.602  10.400   6.794  0.0792  0.0033  0.4729
  164MOL0     C22503   6.660  10.424   6.924  0.1252  0.3835 -0.0511
  164MOL0     C22504   6.807  10.368   6.938  0.3473 -0.3499 -0.2243
  164MOL0     C22505   6.906  10.390   6.824 -0.0504  1.5386  0.0035
  164MOL0     C22506   7.028  10.304   6.862 -0.2850  0.0206  0.0427
  164MOL0     C22507   7.129  10.314   6.753 -0.3097 -0.2828 -0.2196
  164MOL0     C22508   7.215  10.196   6.740  0.4231  0.2515  0.2259
  164MOL0     C22509   7.329  10.216   6.638  0.7344  0.2363 -0.0278
  164MOL0     C22510   7.390  10.089   6.581 -0.3309 -0.8875 -0.0890
  164MOL0     N22511   7.500  10.133   6.492  0.2568  0.0137 -0.1574
  164MOL0     C22512   7.621  10.061   6.496  0.4173  0.1125  1.1726
  164MOL0     C22513   7.683  10.096   6.379 -0.3910 -0.8566  0.0102
  164MOL0     C22514   7.815  10.051   6.324  0.5090  0.7796 -0.3210
  164MOL0     C22515   7.924  10.143   6.372 -0.2510 -0.0811 -0.2138
  164MOL0     C22516   7.913  10.286   6.321 -0.3288 -0.5768 -0.3316
  164MOL0     C22517   7.945  10.314   6.169 -0.2406  0.1876 -0.6445
  164MOL0     O22518   7.984  10.452   6.160  0.1340 -0.0884 -0.9926
  164MOL0     C22519   7.890  10.548   6.168 -0.6264  0.3267  0.1162
  164MOL0     C22520   7.918  10.665   6.240  0.0359 -0.5793 -0.0241
  164MOL0     C22521   7.831  10.766   6.267  0.4966 -0.8597  0.4287
  164MOL0     C22522   7.889  10.879   6.352  0.1990  0.2259 -0.5592
  164MOL0     C22523   7.704  10.765   6.204  0.7693 -0.0206  0.9557
  164MOL0     C22524   7.599  10.869   6.217  0.1485 -0.7445 -0.5582
  164MOL0     O22525   7.476  10.836   6.158 -0.2921  0.1109  0.3102
  164MOL0     C22526   7.354  10.905   6.157  0.2547 -0.2329  0.0157
  164MOL0     C22527   7.241  10.841   6.187  0.6342 -0.0741 -0.8255
  164MOL0     C22528   7.116  10.901   6.195 -0.2810 -0.4897  1.2433
  164MOL0     C22529   7.106  11.040   6.166  0.4486 -1.1005  0.5432
  164MOL0     O22530   6.985  11.111   6.154 -0.3896  0.2448  0.2053
  164MOL0     C22531   6.861  11.060   6.096 -0.6042 -0.1377  0.6288
  164MOL0     C22532   6.808  11.146   5.983  0.5883  0.7855  0.7872
  164MOL0     C22533   6.667  11.083   5.937 -0.1290  0.4402  0.5592
  164MOL0     C22534   6.547  11.110   6.041 -0.8053 -0.0133 -0.4445
  164MOL0     C22535   6.413  11.057   5.989 -0.2415  0.1230 -0.9361
  164MOL0     C22536   6.345  11.145   5.880 -0.6843 -0.2612 -0.8864
  164MOL0     C22537   6.201  11.092   5.862 -0.2417  0.4981  0.7545
  164MOL0     C22538   6.107  11.120   5.980  0.5030  0.6667  0.3548
  164MOL0    Cl22539   6.001  10.977   6.031  0.1419 -0.5944  0.2137
  164MOL0     C22540   7.224  11.114   6.135 -0.2835  0.1459 -0.0156
  164MOL0     C22541   7.354  11.046   6.130  0.9690 -0.0095 -0.2622
  164MOL0     O22542   7.621  10.977   6.275 -0.5224  1.2005  0.9450
  164MOL0     C22543   7.674  10.647   6.139  0.1192 -1.4391  0.6057
  164MOL0     C22544   7.761  10.537   6.119  0.6460 -0.1006 -0.8718
  164MOL0     N22545   7.602  10.176   6.301  0.3835  0.2367 -0.3055
  164MOL0     N22546   7.495  10.205   6.369  0.0765 -0.0347 -0.6271
  164MOL0     C22547   6.392  10.482   6.873  0.7078  0.1944  0.0165
  164MOL0     C22548   6.251  10.480   6.861  0.4090  0.9867 -0.2243
  164MOL0     C22549   5.895  10.525   6.562 -0.4710  0.2410 -0.4212
  164MOL0     C22550   5.891  10.609   6.443  0.0427 -0.4761 -0.0819
  164MOL0     C22551   5.774  10.674   6.406  0.5296  0.1436  0.3088
  164MOL0     C22552   5.661  10.659   6.483  0.1037 -1.3795  0.1222
  164MOL0     O22553   5.543  10.725   6.475  0.2936 -0.8740 -0.0557
  164MOL0     C22554   5.526  10.817   6.365  0.7629  0.1438  0.2739
  164MOL0     C22555   5.392  10.885   6.407  0.2316  1.2295 -0.4757
  164MOL0     C22556   5.394  10.946   6.554 -0.3139  1.1953  0.8048
  164MOL0     C22557   5.262  11.013   6.578 -0.4808  0.4666  0.2992
  164MOL0     C22558   5.137  10.929   6.574  0.1192  0.1345  0.3331
  164MOL0     C22559   5.030  10.876   6.572  0.2156  0.1256 -0.2347
  164MOL0     C22560   5.664  10.577   6.597 -0.1902 -0.2061  0.2772
  164MOL0     C22561   5.775  10.510   6.637 -0.3303  0.2696 -0.5901
  164MOL0     C22562   5.765  10.425   6.754  0.0768  0.9540 -0.3981
  164MOL0     H22563   6.225  10.255   6.597  3.1938 -0.3460 -1.4638
  164MOL0     H22564   6.468  10.270   6.628  0.1114  1.8586 -1.7961
  164MOL0     H22565   6.595  10.374   6.996 -1.0103  2.0898  0.1631
  164MOL0     H22566   6.648  10.532   6.938  2.4914  0.8568 -1.1795
  164MOL0     H22567   6.852  10.401   7.032  0.4835  0.1855 -0.4781
  164MOL0     H22568   6.789  10.262   6.961 -1.3388  0.1225  0.8464
  164MOL0     H22569   6.864  10.356   6.729  0.4449 -0.1912  0.3757
  164MOL0     H22570   6.927  10.498   6.819 -0.3371  1.6927  1.7283
  164MOL0     H22571   7.070  10.333   6.959 -2.0943 -2.2961  1.6569
  164MOL0     H22572   6.991  10.201   6.863 -0.8076  0.1942 -0.5660
  164MOL0     H22573   7.190  10.401   6.780 -2.4450  2.0483 -2.3457
  164MOL0     H22574   7.091  10.343   6.655  1.1456  1.7922 -0.2393
  164MOL0     H22575   7.259  10.157   6.833 -1.2076  1.0877  1.4036
  164MOL0     H22576   7.147  10.116   6.710  1.1565 -0.1831 -0.3021
  164MOL0     H22577   7.403  10.277   6.691 -0.5923  2.6941 -0.8306
  164MOL0     H22578   7.289  10.265   6.549 -1.3720 -0.9700  0.2062
  164MOL0     H22579   7.417  10.013   6.655 -2.8280 -1.5809  0.1856
  164MOL0     H22580   7.305  10.051   6.525 -0.9107  1.9778 -1.3592
  164MOL0     H22581   7.657   9.993   6.572 -2.0218 -0.0854  2.2608
  164MOL0     H22582   7.804  10.046   6.216 -2.3710  1.5123 -0.1485
  164MOL0     H22583   7.844   9.952   6.360  1.0721  0.9903 -0.1827
  164MOL0     H22584   7.917  10.142   6.481 -6.2812 -0.2783 -0.2648
  164MOL0     H22585   8.020  10.105   6.335  0.2085  2.0103 -1.3394
  164MOL0     H22586   7.818  10.333   6.346  1.1043  1.0755  2.6446
  164MOL0     H22587   7.990  10.341   6.375  0.8222  0.0669 -2.5043
  164MOL0     H22588   8.028  10.247   6.145 -3.3500 -2.9728 -3.7649
  164MOL0     H22589   7.859  10.286   6.107 -1.9841  0.7641  1.3829
  164MOL0     H22590   8.021  10.669   6.275 -0.0646  0.1006  0.2003
  164MOL0     H22591   7.843  10.876   6.451 -1.7805 -0.8616 -1.4559
  164MOL0     H22592   7.872  10.976   6.305  0.5557 -0.2329 -1.6660
  164MOL0     H22593   7.996  10.868   6.373  0.0180 -0.2123  0.1646
  164MOL0     H22594   7.239  10.737   6.216 -3.5387 -0.4406 -1.8232
  164MOL0     H22595   7.031  10.841   6.226 -2.7434  2.2588  0.2543
  164MOL0     H22596   6.886  10.964   6.050  0.2250 -0.4931  1.7714
  164MOL0     H22597   6.777  11.056   6.166 -1.4737  0.9116 -0.3400
  164MOL0     H22598   6.790  11.246   6.024  3.5460  0.6829  2.7121
  164MOL0     H22599   6.885  11.146   5.906  0.7934  0.5092  0.9878
  164MOL0     H22600   6.669  10.973   5.930 -0.0630  0.1347  3.7662
  164MOL0     H22601   6.641  11.119   5.837 -0.8110 -2.2648 -0.3356
  164MOL0     H22602   6.537  11.219   6.050 -0.1210 -0.0389  0.7963
  164MOL0     H22603   6.566  11.071   6.141  3.5367  2.6690  0.0684
  164MOL0     H22604   6.424  10.955   5.952 -3.5118 -0.3849 -0.8242
  164MOL0     H22605   6.358  11.045   6.083  2.7535 -2.1843  0.6610
  164MOL0     H22606   6.390  11.125   5.781  0.5275  0.7512 -0.5701
  164MOL0     H22607   6.343  11.251   5.907 -2.5259 -0.5199  0.1344
  164MOL0     H22608   6.203  10.984   5.843  1.7858  0.7280 -0.6042
  164MOL0     H22609   6.151  11.132   5.773 -0.9483 -2.7500 -0.4564
  164MOL0     H22610   6.036  11.198   5.952  1.1025  1.1738  0.2267
  164MOL0     H22611   6.166  11.144   6.069  0.0701  3.4167 -0.0320
  164MOL0     H22612   7.229  11.222   6.119  1.7989  0.4189  1.9244
  164MOL0     H22613   7.452  11.088   6.112  0.3661  2.7580  2.2382
  164MOL0     H22614   7.590  10.643   6.071  1.4392  0.2935 -1.2441
  164MOL0     H22615   7.725  10.454   6.060 -0.5938 -0.6646  0.6199
  164MOL0     H22616   6.429  10.551   6.948 -0.3821  1.7007 -0.7759
  164MOL0     H22617   6.189  10.544   6.923  3.3333  2.8587  0.9587
  164MOL0     H22618   5.979  10.616   6.381 -0.1606  2.0826 -0.1511
  164MOL0     H22619   5.790  10.750   6.329 -0.7987  0.1287 -0.0025
  164MOL0     H22620   5.600  10.898   6.359 -0.8681  1.7111  0.3026
  164MOL0     H22621   5.523  10.769   6.267 -0.0769  1.6071 -0.4663
  164MOL0     H22622   5.308  10.815   6.399  0.2938  1.2714 -1.6188
  164MOL0     H22623   5.377  10.971   6.341  0.8388  1.1977 -0.6543
  164MOL0     H22624   5.396  10.864   6.626 -1.5508  1.6839  1.4194
  164MOL0     H22625   5.477  11.016   6.569 -0.2357  1.0586  1.0151
  164MOL0     H22626   5.254  11.096   6.506  2.3832 -0.5458 -1.3153
  164MOL0     H22627   5.271  11.068   6.673 -1.5358  0.7202  0.2698
  164MOL0     H22628   4.927  10.846   6.570  0.1831  0.2567 -0.6516
  164MOL0     H22629   5.579  10.583   6.664  0.9871  3.8608  1.6935
  164MOL0     H22630   5.666  10.379   6.756  0.0040  1.0565 -1.2025
  164MOL0     H22631   5.840  10.345   6.753  1.5955  2.2892  0.5231
  164MOL0     H22632   5.785  10.490   6.839  0.4598 -0.5366  0.7007
  165MOL0     O22633   4.081   3.377   1.981  0.4183  0.2262  0.0681
  165MOL0     C22634   4.026   3.435   2.072  1.1308 -0.1984  0.0137
  165MOL0     O22635   4.092   3.506   2.167  0.1323  1.0559 -0.3150
  165MOL0     C22636   4.226   3.499   2.163 -0.9296 -0.1387  0.3770
  165MOL0     C22637   4.305   3.384   2.173  0.1744  0.7089 -0.9266
  165MOL0     C22638   4.445   3.393   2.168 -0.3240 -0.4078 -0.3309
  165MOL0     C22639   4.519   3.520   2.162  0.7039 -0.0382 -0.6134
  165MOL0     O22640   4.652   3.546   2.153 -0.3645 -0.4027 -0.4789
  165MOL0     C22641   4.736   3.426   2.165 -0.3156 -0.3782  0.8020
  165MOL0     C22642   4.759   3.392   2.310  0.2624 -0.5564 -1.4550
  165MOL0     C22643   4.842   3.489   2.402  1.0625  0.1497  0.3178
  165MOL0     C22644   4.763   3.609   2.468 -0.7666  0.1895 -0.0019
  165MOL0     C22645   4.858   3.684   2.564  1.3463 -0.4203 -0.1289
  165MOL0     C22646   4.784   3.808   2.620  0.5247  0.2173 -0.3789
  165MOL0     C22647   4.877   3.872   2.713  0.6676 -0.4809 -0.6961
  165MOL0     C22648   4.974   3.958   2.640  0.3584  0.1937  0.0627
  165MOL0     N22649   5.061   4.032   2.733 -1.1892  0.7614 -0.9221
  165MOL0     C22650   5.035   4.157   2.795  0.2357 -0.3467  0.1527
  165MOL0     C22651   5.130   4.164   2.890 -0.0159  0.7882 -0.2227
  165MOL0     C22652   5.125   4.285   2.984  0.7386 -0.3657  0.5238
  165MOL0     C22653   5.182   4.409   2.928 -0.8220 -0.6046 -0.0765
  165MOL0     C22654   5.171   4.520   3.020  0.8463 -0.5196 -0.9771
  165MOL0     C22655   5.205   4.658   2.956  0.0172 -0.2597 -0.0526
  165MOL0     O22656   5.347   4.665   2.941 -0.2326  0.2092  0.0762
  165MOL0     C22657   5.434   4.706   3.048  0.2271 -0.0727  0.0798
  165MOL0     C22658   5.567   4.682   3.025  0.0036 -0.3479  0.6604
  165MOL0     C22659   5.663   4.715   3.121 -0.4883 -0.1223 -0.0097
  165MOL0     C22660   5.813   4.704   3.087  1.2188  0.0406  0.3920
  165MOL0     C22661   5.620   4.761   3.249  0.2512  0.1052  0.2349
  165MOL0     C22662   5.720   4.791   3.365  0.7665 -0.7651  0.6940
  165MOL0     O22663   5.680   4.750   3.489  0.3155  0.1653 -0.2336
  165MOL0     C22664   5.757   4.769   3.596 -0.8752  0.0407  0.3832
  165MOL0     C22665   5.760   4.663   3.685 -0.1638  0.4371  0.3427
  165MOL0     C22666   5.816   4.684   3.816  0.3982  0.1226  0.1082
  165MOL0     C22667   5.865   4.801   3.853 -0.3500  0.8362  0.7541
  165MOL0     O22668   5.910   4.823   3.979  0.1826  0.5605  0.0484
  165MOL0     C22669   5.815   4.815   4.083  0.6160  0.3807 -0.5241
  165MOL0     C22670   5.693   4.914   4.063  0.6743 -0.9523 -0.5294
  165MOL0     C22671   5.599   4.921   4.187  0.2216  0.2636  0.2684
  165MOL0     C22672   5.497   5.030   4.177  0.2209 -0.0355  0.5985
  165MOL0     C22673   5.434   5.067   4.317 -0.5382 -0.5949  0.1748
  165MOL0     C22674   5.527   5.163   4.396  0.4170 -0.0894  0.0203
  165MOL0     C22675   5.478   5.180   4.543 -0.3916  0.0230 -0.7438
  165MOL0     C22676   5.536   5.070   4.623 -0.3945  0.3968  0.8159
  165MOL0    Cl22677   5.693   5.119   4.696  0.0174  0.3976  0.1793
  165MOL0     C22678   5.883   4.898   3.758  0.4080 -0.0620 -0.1928
  165MOL0     C22679   5.823   4.885   3.635 -0.5595  0.1674 -0.0951
  165MOL0     O22680   5.818   4.857   3.342  0.1934  0.0251 -0.5559
  165MOL0     C22681   5.486   4.785   3.273  0.2847  0.2445 -0.6628
  165MOL0     C22682   5.394   4.761   3.173  0.1267 -0.0944  0.1274
  165MOL0     N22683   5.221   4.055   2.885  0.1727 -0.1360 -0.3992
  165MOL0     N22684   5.173   3.978   2.791 -0.3198 -0.8526  0.1720
  165MOL0     C22685   4.436   3.633   2.159 -0.1210  0.2968  0.6049
  165MOL0     C22686   4.297   3.621   2.161 -0.0828 -0.3730  0.6768
  165MOL0     C22687   3.884   3.440   2.084  1.1876 -0.2121  0.4858
  165MOL0     C22688   3.825   3.546   2.158  0.1426  0.3100 -0.2270
  165MOL0     C22689   3.686   3.559   2.155  0.2951  0.9714 -0.2990
  165MOL0     C22690   3.605   3.470   2.085 -0.0012 -0.0922 -0.4863
  165MOL0     O22691   3.469   3.465   2.083  0.0012 -0.3882  0.3092
  165MOL0     C22692   3.396   3.512   2.192  0.5761 -0.7638  0.4883
  165MOL0     C22693   3.255   3.526   2.157  0.5122  0.2026  0.2149
  165MOL0     C22694   3.189   3.385   2.165 -0.7372 -0.4424 -0.6043
  165MOL0     C22695   3.062   3.380   2.080  0.4640 -0.4729 -0.2866
  165MOL0     C22696   2.936   3.433   2.136 -0.0386 -0.3805 -0.2595
  165MOL0     C22697   2.823   3.467   2.176  0.3004  0.3912  0.7876
  165MOL0     C22698   3.658   3.362   2.025  0.2785 -0.4443 -0.3120
  165MOL0     C22699   3.800   3.341   2.023 -0.2444 -0.9443  0.5691
  165MOL0     C22700   3.860   3.221   1.946 -0.7102  0.5072 -0.1222
  165MOL0     H22701   4.253   3.289   2.184  0.3496  0.9215  3.1703
  165MOL0     H22702   4.497   3.299   2.183  0.2527 -0.5592 -2.9048
  165MOL0     H22703   4.829   3.452   2.114 -1.5489 -1.2772 -2.1089
  165MOL0     H22704   4.695   3.340   2.110  0.8476  0.4540 -1.5046
  165MOL0     H22705   4.663   3.374   2.359 -0.0933 -1.0671 -2.3159
  165MOL0     H22706   4.812   3.296   2.319  0.4594 -0.2577  1.3825
  165MOL0     H22707   4.874   3.428   2.487 -2.8465 -1.2528  1.0179
  165MOL0     H22708   4.924   3.524   2.339  2.0731 -1.4893  0.6663
  165MOL0     H22709   4.717   3.680   2.399 -1.6014 -0.2664  0.0571
  165MOL0     H22710   4.678   3.565   2.523 -0.2539  0.0840  0.7133
  165MOL0     H22711   4.938   3.725   2.502  0.5566 -0.7250 -1.3977
  165MOL0     H22712   4.900   3.614   2.637  0.1508 -0.8133  0.2048
  165MOL0     H22713   4.747   3.880   2.546  0.5285  0.9930  0.3593
  165MOL0     H22714   4.695   3.785   2.678 -2.2667  2.9149 -3.2089
  165MOL0     H22715   4.940   3.798   2.764  0.2022 -0.5475 -0.2113
  165MOL0     H22716   4.815   3.933   2.779 -0.1950  0.4281 -2.2907
  165MOL0     H22717   5.039   3.900   2.574 -2.8188  1.8819 -5.1561
  165MOL0     H22718   4.922   4.034   2.581  1.3095  2.9424  2.5638
  165MOL0     H22719   4.957   4.222   2.757  0.6648  0.0893  0.0181
  165MOL0     H22720   5.197   4.251   3.058  1.9155  0.8215 -0.0446
  165MOL0     H22721   5.025   4.311   3.022 -0.7062 -2.5592 -1.4488
  165MOL0     H22722   5.288   4.384   2.911  0.0531  1.4813  1.8125
  165MOL0     H22723   5.135   4.439   2.834  1.2260  0.3934 -0.8670
  165MOL0     H22724   5.071   4.531   3.065  1.7229 -1.5393  1.3974
  165MOL0     H22725   5.238   4.506   3.105 -0.8411 -0.8955  0.3659
  165MOL0     H22726   5.157   4.677   2.860  0.2198  1.1335  0.0905
  165MOL0     H22727   5.174   4.744   3.016  0.5131  1.2060 -1.7955
  165MOL0     H22728   5.596   4.635   2.932  1.1314  1.5133  0.0201
  165MOL0     H22729   5.860   4.802   3.096 -1.0335  1.1971  0.0602
  165MOL0     H22730   5.819   4.674   2.982 -0.9633 -0.1072  0.2740
  165MOL0     H22731   5.858   4.627   3.151  0.5242  0.0567  0.9126
  165MOL0     H22732   5.715   4.571   3.648  0.9571 -0.8355  1.9976
  165MOL0     H22733   5.812   4.608   3.894  0.9924  1.0668  1.0860
  165MOL0     H22734   5.780   4.712   4.085  1.2177  0.1835 -0.2744
  165MOL0     H22735   5.863   4.832   4.179 -0.3865  0.9441 -0.1005
  165MOL0     H22736   5.743   5.010   4.046  0.6504 -0.5089  1.6245
  165MOL0     H22737   5.634   4.891   3.973  3.5656 -1.2793 -2.4788
  165MOL0     H22738   5.663   4.937   4.275 -0.4471  1.4245  0.5727
  165MOL0     H22739   5.550   4.825   4.209  0.5106  0.1903  0.6022
  165MOL0     H22740   5.411   4.986   4.124  0.7265 -1.4912  0.9389
  165MOL0     H22741   5.541   5.120   4.135  0.6306 -1.1713 -1.5488
  165MOL0     H22742   5.342   5.124   4.305  0.0655 -0.0968 -2.8702
  165MOL0     H22743   5.414   4.976   4.374 -2.1091 -2.1688 -2.6652
  165MOL0     H22744   5.508   5.261   4.353  0.5956  0.0634  0.2812
  165MOL0     H22745   5.635   5.143   4.395  0.2499 -1.0938 -2.2515
  165MOL0     H22746   5.369   5.175   4.537 -0.2710 -1.1588 -3.1942
  165MOL0     H22747   5.502   5.282   4.574 -1.5541  0.2226 -0.4272
  165MOL0     H22748   5.548   4.973   4.575  1.3036  2.1556 -2.6670
  165MOL0     H22749   5.453   5.058   4.693  0.8497 -0.3524  2.2490
  165MOL0     H22750   5.927   4.993   3.787  2.3945 -1.0730  0.3014
  165MOL0     H22751   5.822   4.967   3.563  0.8297 -0.3382 -0.7385
  165MOL0     H22752   5.465   4.813   3.376  0.8162  0.1658 -0.5302
  165MOL0     H22753   5.290   4.782   3.195  0.3603  3.0124 -1.0454
  165MOL0     H22754   4.491   3.725   2.175  0.9064  0.1915 -1.8470
  165MOL0     H22755   4.238   3.712   2.150  0.4639 -0.2451 -1.8825
  165MOL0     H22756   3.879   3.623   2.213 -1.0972  1.7229 -0.9313
  165MOL0     H22757   3.643   3.637   2.218 -0.5567 -0.1616  0.5543
  165MOL0     H22758   3.400   3.449   2.281 -3.3856 -0.8722  0.7843
  165MOL0     H22759   3.429   3.611   2.224 -1.2170  0.2864 -0.7109
  165MOL0     H22760   3.251   3.561   2.053 -1.3050 -2.4465 -0.7146
  165MOL0     H22761   3.199   3.597   2.219 -1.8555 -1.6792  0.3520
  165MOL0     H22762   3.247   3.306   2.117 -0.4408  0.0360 -1.0325
  165MOL0     H22763   3.182   3.339   2.264 -1.2571 -1.6656 -1.1942
  165MOL0     H22764   3.032   3.280   2.046  1.9846 -1.5040  1.2819
  165MOL0     H22765   3.085   3.432   1.986  0.2833 -1.3185 -0.8119
  165MOL0     H22766   2.728   3.488   2.222 -0.1079  1.0005 -0.3000
  165MOL0     H22767   3.593   3.284   1.986 -1.0582 -0.1652  1.2500
  165MOL0     H22768   3.786   3.144   1.923  2.5932 -1.8350 -4.1655
  165MOL0     H22769   3.892   3.249   1.845 -1.0221  0.0393 -0.3537
  165MOL0     H22770   3.946   3.167   1.985  0.1255 -0.2157 -2.8192
  166MOL0     O22771   0.737   0.388   1.082  0.0682 -0.2550  0.1483
  166MOL0     C22772   0.739   0.508   1.062  0.0951 -0.0694 -1.2780
  166MOL0     O22773   0.756   0.602   1.156  0.0440 -0.2187  0.8046
  166MOL0     C22774   0.802   0.563   1.279  1.2331  0.5984 -0.0386
  166MOL0     C22775   0.931   0.493   1.297 -0.2000 -0.5799 -0.6822
  166MOL0     C22776   0.969   0.466   1.432 -0.7423 -0.2927 -0.3861
  166MOL0     C22777   0.889   0.500   1.540 -0.0423 -0.3416  0.1138
  166MOL0     O22778   0.923   0.486   1.673  0.4374  0.0527  0.3621
  166MOL0     C22779   0.901   0.358   1.714  0.7781  0.4511 -0.7798
  166MOL0     C22780   0.925   0.348   1.868  0.3244  0.0271  0.4524
  166MOL0     C22781   0.925   0.207   1.922  0.7475 -0.8517 -0.1004
  166MOL0     C22782   1.046   0.115   1.877  0.4838 -0.9334  1.2312
  166MOL0     C22783   1.018  -0.029   1.933 -0.0466 -0.4396  0.1876
  166MOL0     C22784   1.140  -0.119   1.913 -0.2469  0.0235  0.0396
  166MOL0     C22785   1.170  -0.148   1.772  0.0349 -0.1120  0.2488
  166MOL0     C22786   1.273  -0.258   1.745  0.7889  0.5363 -0.8016
  166MOL0     N22787   1.414  -0.226   1.773  0.0083 -0.7437 -0.1774
  166MOL0     C22788   1.495  -0.327   1.813 -0.0165  0.3515  0.5531
  166MOL0     C22789   1.606  -0.252   1.844  0.0342  0.5230  0.5873
  166MOL0     C22790   1.736  -0.307   1.902 -0.7175 -0.3431 -1.0454
  166MOL0     C22791   1.850  -0.260   1.818 -0.0992 -1.5680 -0.6154
  166MOL0     C22792   1.982  -0.334   1.856 -0.0738 -0.2712 -0.3451
  166MOL0     C22793   2.092  -0.308   1.752  0.6927 -0.1360 -0.2154
  166MOL0     O22794   2.203  -0.397   1.777  0.5369 -0.1995 -0.1344
  166MOL0     C22795   2.328  -0.375   1.715  0.3833  0.6845  0.3030
  166MOL0     C22796   2.427  -0.445   1.784 -0.6048 -0.6007  0.0276
  166MOL0     C22797   2.563  -0.440   1.737 -0.3206 -0.3099  0.6664
  166MOL0     C22798   2.653  -0.534   1.812  0.0563  0.0368 -0.3889
  166MOL0     C22799   2.600  -0.354   1.625 -1.0190  0.3699  0.9225
  166MOL0     C22800   2.742  -0.334   1.582  0.5695 -0.0815  0.0478
  166MOL0     O22801   2.777  -0.311   1.459 -1.4203  0.0438  0.5752
  166MOL0     C22802   2.914  -0.291   1.429  0.6015  1.6519  0.5260
  166MOL0     C22803   3.019  -0.365   1.476 -0.6428 -0.7353  0.3627
  166MOL0     C22804   3.154  -0.337   1.460 -0.2022  0.1153  0.8478
  166MOL0     C22805   3.191  -0.218   1.393  0.5095 -0.0217  0.2793
  166MOL0     O22806   3.317  -0.175   1.374 -0.3855 -0.1537  0.4092
  166MOL0     C22807   3.430  -0.261   1.408 -0.5629  0.1673  0.4157
  166MOL0     C22808   3.549  -0.176   1.395 -0.8494 -0.3407  0.7162
  166MOL0     C22809   3.674  -0.241   1.463  0.5033  0.2534 -0.2826
  166MOL0     C22810   3.772  -0.139   1.520  0.4845  0.2658  0.3254
  166MOL0     C22811   3.894  -0.209   1.576 -0.3536 -0.0042 -0.3235
  166MOL0     C22812   3.970  -0.116   1.671 -0.3460 -0.6556  0.1197
  166MOL0     C22813   4.088  -0.190   1.730  0.0474  0.1822  0.2294
  166MOL0     C22814   4.191  -0.099   1.805 -0.2384  0.0273 -0.3687
  166MOL0    Cl22815   4.288  -0.209   1.914 -0.8123 -0.4963 -0.1070
  166MOL0     C22816   3.085  -0.137   1.344  0.9029  1.3760 -0.2132
  166MOL0     C22817   2.952  -0.172   1.366 -0.4121  0.0308 -0.9536
  166MOL0     O22818   2.828  -0.330   1.678 -0.2665  0.4583  0.1166
  166MOL0     C22819   2.497  -0.282   1.559  0.2118  0.7693 -0.9109
  166MOL0     C22820   2.365  -0.292   1.601  0.2626  0.4448 -0.4392
  166MOL0     N22821   1.584  -0.120   1.814 -1.1123 -0.4924  0.5964
  166MOL0     N22822   1.467  -0.100   1.771 -0.4210  0.1628 -0.1141
  166MOL0     C22823   0.768   0.559   1.518 -0.0611  0.4893  0.0877
  166MOL0     C22824   0.721   0.586   1.388  0.8897  0.1601  0.6309
  166MOL0     C22825   0.743   0.554   0.923 -0.0767 -0.1749 -0.5343
  166MOL0     C22826   0.808   0.670   0.894 -0.4884 -0.7755  0.7448
  166MOL0     C22827   0.817   0.724   0.761 -0.7099  0.7749 -0.7224
  166MOL0     C22828   0.759   0.658   0.652  0.0285  0.1152 -0.1634
  166MOL0     O22829   0.788   0.685   0.522 -0.2776  0.6356 -0.3436
  166MOL0     C22830   0.891   0.770   0.476  0.2593  0.1898  0.1617
  166MOL0     C22831   1.027   0.696   0.482  0.4372 -0.0750 -1.0477
  166MOL0     C22832   1.124   0.764   0.384  1.1490 -0.1749 -0.6872
  166MOL0     C22833   1.263   0.727   0.414 -0.4322 -0.6738  0.1185
  166MOL0     C22834   1.344   0.812   0.323  0.1903 -0.1852  0.4005
  166MOL0     C22835   1.418   0.880   0.256 -0.3023  0.3190  0.5016
  166MOL0     C22836   0.684   0.545   0.683  0.2522 -0.1008  0.3757
  166MOL0     C22837   0.671   0.489   0.814  0.4868  0.3867 -1.1545
  166MOL0     C22838   0.567   0.371   0.821 -1.3717  0.4802  0.2194
  166MOL0     H22839   0.975   0.441   1.212  0.8434  1.4275 -1.4279
  166MOL0     H22840   1.071   0.432   1.451 -0.4764  1.4990  1.9248
  166MOL0     H22841   0.961   0.284   1.660  1.2923 -0.1950  0.6218
  166MOL0     H22842   0.796   0.340   1.686  0.4425  0.7514  0.2609
  166MOL0     H22843   1.026   0.386   1.889  0.4595  0.7506 -1.3104
  166MOL0     H22844   0.859   0.412   1.927  0.3652  0.6408 -0.1563
  166MOL0     H22845   0.923   0.204   2.031  3.5359 -0.0118  0.0441
  166MOL0     H22846   0.833   0.153   1.896 -1.9395  3.5623 -0.6944
  166MOL0     H22847   1.062   0.111   1.769 -2.5279  1.3598  0.5536
  166MOL0     H22848   1.138   0.157   1.920  2.4632 -1.0899 -2.4090
  166MOL0     H22849   0.925  -0.072   1.895  0.4056 -0.9840 -0.3256
  166MOL0     H22850   0.992  -0.024   2.039  0.7230  0.7604  0.3383
  166MOL0     H22851   1.227  -0.072   1.960 -1.4746  0.1151  2.3608
  166MOL0     H22852   1.115  -0.207   1.973 -2.6581  1.3373  1.1387
  166MOL0     H22853   1.191  -0.058   1.713 -0.5460  1.0131  1.7100
  166MOL0     H22854   1.075  -0.179   1.727 -2.2366  1.5056  3.5295
  166MOL0     H22855   1.243  -0.347   1.801  1.7442  0.5283 -0.2819
  166MOL0     H22856   1.254  -0.286   1.641  3.5633  1.0919 -1.5311
  166MOL0     H22857   1.468  -0.431   1.828  2.2245 -0.4063 -0.2500
  166MOL0     H22858   1.744  -0.416   1.897  2.9242 -0.1737 -0.9798
  166MOL0     H22859   1.741  -0.274   2.006 -0.2479 -0.8644 -0.8999
  166MOL0     H22860   1.822  -0.267   1.713  2.2200  1.8289 -1.6460
  166MOL0     H22861   1.863  -0.155   1.846 -3.5011 -0.5993 -2.1718
  166MOL0     H22862   2.007  -0.316   1.960 -2.7707  1.2794  0.1344
  166MOL0     H22863   1.974  -0.443   1.847  4.0677 -0.8998  1.4774
  166MOL0     H22864   2.057  -0.320   1.649  1.1926  0.3975 -0.4537
  166MOL0     H22865   2.122  -0.204   1.763 -0.2941 -0.0427  2.0351
  166MOL0     H22866   2.416  -0.499   1.877  1.1580  3.6176  3.0156
  166MOL0     H22867   2.693  -0.476   1.896  0.8898 -0.2253 -0.5972
  166MOL0     H22868   2.735  -0.556   1.744  0.0128  3.3100 -1.6862
  166MOL0     H22869   2.610  -0.624   1.857  0.9194  1.7449  4.4362
  166MOL0     H22870   2.994  -0.448   1.542 -0.3702 -1.5094 -0.4857
  166MOL0     H22871   3.230  -0.393   1.513 -0.0695  1.1648  1.7957
  166MOL0     H22872   3.422  -0.290   1.513  1.5251  1.5274  0.9977
  166MOL0     H22873   3.441  -0.356   1.355  0.0806 -1.6654  3.5747
  166MOL0     H22874   3.569  -0.158   1.289 -0.5466 -2.0410  0.4542
  166MOL0     H22875   3.522  -0.080   1.440 -2.5440  0.0685 -1.0453
  166MOL0     H22876   3.719  -0.304   1.386 -0.8508  2.4188 -2.9836
  166MOL0     H22877   3.647  -0.315   1.539 -0.1576 -1.3069 -1.9667
  166MOL0     H22878   3.731  -0.068   1.592  0.5512 -1.8583  2.5949
  166MOL0     H22879   3.797  -0.081   1.431 -1.6109  1.0619  0.2102
  166MOL0     H22880   3.865  -0.305   1.621  2.7633 -1.3461 -0.8990
  166MOL0     H22881   3.959  -0.245   1.496  1.9290 -1.9350  2.1716
  166MOL0     H22882   3.913  -0.077   1.756 -1.2367 -0.2402 -0.6418
  166MOL0     H22883   4.002  -0.028   1.615 -3.5998 -0.3338 -1.4803
  166MOL0     H22884   4.144  -0.227   1.644  1.5154  1.3885  0.6237
  166MOL0     H22885   4.052  -0.269   1.796 -0.7690 -0.2203 -0.6883
  166MOL0     H22886   4.149  -0.018   1.864  1.1451  1.9905 -1.9280
  166MOL0     H22887   4.261  -0.044   1.741  1.1279 -1.8960 -0.6271
  166MOL0     H22888   3.099  -0.039   1.299 -0.2212  1.3576 -0.6430
  166MOL0     H22889   2.866  -0.113   1.335 -2.5070 -1.2396  2.0024
  166MOL0     H22890   2.527  -0.217   1.477  2.5345  2.4257  1.0655
  166MOL0     H22891   2.288  -0.240   1.546 -0.6694 -1.4972 -1.0526
  166MOL0     H22892   0.703   0.587   1.601 -0.2853 -2.8354  1.1908
  166MOL0     H22893   0.628   0.643   1.385  1.7598  1.5632 -1.0590
  166MOL0     H22894   0.838   0.738   0.974 -0.4723 -1.2878  1.1834
  166MOL0     H22895   0.877   0.813   0.743  1.5287 -0.2353  1.2208
  166MOL0     H22896   0.860   0.798   0.375  3.7678 -1.5037 -1.5479
  166MOL0     H22897   0.891   0.861   0.536 -1.0266 -0.0547  0.5844
  166MOL0     H22898   1.010   0.590   0.461  2.2095 -1.3321  2.9006
  166MOL0     H22899   1.067   0.703   0.583  0.0549  0.3389 -0.9208
  166MOL0     H22900   1.102   0.739   0.279  0.2842 -1.2411 -0.2804
  166MOL0     H22901   1.116   0.873   0.386  1.3030 -0.1763  0.3739
  166MOL0     H22902   1.288   0.623   0.392 -0.5410 -0.9254  1.1199
  166MOL0     H22903   1.287   0.748   0.518 -0.3964 -0.3810  0.0522
  166MOL0     H22904   1.488   0.950   0.215  1.9989 -2.2605 -0.2999
  166MOL0     H22905   0.628   0.500   0.601 -0.3745  1.7255 -0.2442
  166MOL0     H22906   0.642   0.292   0.819  0.1786  1.8757  1.0796
  166MOL0     H22907   0.521   0.367   0.921  2.1016 -0.1250  1.9640
  166MOL0     H22908   0.501   0.353   0.735 -1.0850 -0.1676  0.1298
  167MOL0     O22909  10.126  10.134   9.760  1.1471  0.0602 -0.2506
  167MOL0     C22910  10.141  10.037   9.832  0.0027  0.0120  0.1359
  167MOL0     O22911  10.216   9.924   9.792 -0.6579 -0.7585 -0.0545
  167MOL0     C22912  10.289   9.908   9.675 -0.1588  0.0547 -0.5117
  167MOL0     C22913  10.327  10.005   9.583  0.9682  0.2823 -0.3864
  167MOL0     C22914  10.411   9.969   9.474  0.4462  0.1310 -0.2375
  167MOL0     C22915  10.454   9.839   9.452  0.1907  0.3760  0.6536
  167MOL0     O22916  10.554   9.804   9.364  0.0287 -0.4324 -0.0998
  167MOL0     C22917  10.619   9.882   9.266  0.1876  0.0474  0.2421
  167MOL0     C22918  10.695   9.787   9.166 -0.2267 -0.3826 -0.4119
  167MOL0     C22919  10.754   9.862   9.049 -0.1494  0.2248 -0.5410
  167MOL0     C22920  10.864   9.966   9.083  0.0216 -0.0049 -0.4012
  167MOL0     C22921  10.989   9.894   9.139 -0.9728 -0.3419 -0.2979
  167MOL0     C22922  11.117   9.966   9.095 -0.6063  0.3188  0.0130
  167MOL0     C22923  11.241   9.886   9.138  0.3402 -0.8945  0.3610
  167MOL0     C22924  11.363   9.979   9.115 -0.2631  0.4836 -0.6581
  167MOL0     N22925  11.485   9.918   9.174 -0.7721 -0.3985  0.2154
  167MOL0     C22926  11.516   9.785   9.163 -0.2945  0.2189 -0.7051
  167MOL0     C22927  11.646   9.781   9.210  0.1519 -0.1564  0.0341
  167MOL0     C22928  11.708   9.647   9.221 -0.3440  0.6991 -0.1089
  167MOL0     C22929  11.808   9.617   9.114 -0.4878  0.0218  0.7827
  167MOL0     C22930  11.845   9.468   9.129 -0.4067 -0.3744  0.3359
  167MOL0     C22931  11.928   9.418   9.008 -0.4047 -0.1080 -0.3241
  167MOL0     O22932  12.027   9.329   9.056  0.0459  0.5750 -0.6921
  167MOL0     C22933  12.139   9.309   8.975 -0.0626 -0.4906  0.1528
  167MOL0     C22934  12.264   9.272   9.026 -0.3432  0.3973  0.5372
  167MOL0     C22935  12.377   9.249   8.948  0.5018  0.0298  1.4818
  167MOL0     C22936  12.499   9.187   9.022  0.2682  0.3051  0.3077
  167MOL0     C22937  12.363   9.265   8.809 -1.0704 -1.1332  0.1436
  167MOL0     C22938  12.466   9.249   8.714 -0.3022 -0.4861 -0.1620
  167MOL0     O22939  12.431   9.261   8.582  0.2179 -0.0992 -0.5376
  167MOL0     C22940  12.528   9.290   8.490  0.1009 -0.1032 -0.5600
  167MOL0     C22941  12.620   9.198   8.450  0.0625  0.4820  0.2243
  167MOL0     C22942  12.722   9.224   8.360 -0.2817 -0.9205  0.1602
  167MOL0     C22943  12.718   9.354   8.303 -0.1922  0.4519  0.2126
  167MOL0     O22944  12.809   9.388   8.208  0.8772 -0.7085 -0.7161
  167MOL0     C22945  12.903   9.485   8.249  0.6640 -0.2243  0.3404
  167MOL0     C22946  13.014   9.498   8.149  0.2628 -0.1972 -0.0039
  167MOL0     C22947  13.068   9.366   8.101 -0.9540 -0.7383 -0.0996
  167MOL0     C22948  13.142   9.391   7.966 -0.1600  0.2184 -1.1184
  167MOL0     C22949  13.050   9.390   7.848 -0.3815 -0.4084  0.0949
  167MOL0     C22950  13.119   9.349   7.722  0.0374 -0.3048 -0.2425
  167MOL0     C22951  13.157   9.205   7.724 -0.1925 -0.5040 -0.1991
  167MOL0     C22952  13.168   9.151   7.580  0.3869 -0.2301 -0.2455
  167MOL0    Cl22953  13.009   9.134   7.500  0.1770 -0.0103  0.1916
  167MOL0     C22954  12.611   9.443   8.326 -0.3144  0.5567 -0.8519
  167MOL0     C22955  12.525   9.414   8.427  0.4445 -0.8164 -0.1723
  167MOL0     O22956  12.581   9.233   8.756  0.4297 -0.0026 -0.3053
  167MOL0     C22957  12.243   9.324   8.760  0.6301 -0.1497  0.2013
  167MOL0     C22958  12.135   9.347   8.841  0.5130 -0.2472  0.2642
  167MOL0     N22959  11.683   9.904   9.259 -0.1078 -1.1545 -0.6933
  167MOL0     N22960  11.592   9.986   9.219 -0.3762 -0.6025 -0.4285
  167MOL0     C22961  10.403   9.738   9.535 -0.9576 -0.7230  0.8868
  167MOL0     C22962  10.332   9.776   9.650  1.0341  0.8441 -0.1051
  167MOL0     C22963  10.108  10.052   9.980  0.4970 -0.5674 -0.0070
  167MOL0     C22964  10.068  10.180  10.029  0.0845  0.4539 -0.1094
  167MOL0     C22965  10.048  10.196  10.162  0.5964  0.8338 -0.3969
  167MOL0     C22966  10.044  10.075  10.246  1.1006 -0.5302  1.6785
  167MOL0     O22967  10.016  10.082  10.379  0.1422 -0.7159  0.4024
  167MOL0     C22968   9.884  10.122  10.412 -0.6959  0.4505  0.0278
  167MOL0     C22969   9.816  10.030  10.519  0.2975 -0.2037 -0.7748
  167MOL0     C22970   9.848   9.875  10.506 -0.0075  0.6987  0.5352
  167MOL0     C22971   9.727   9.800  10.567 -0.4608 -0.1196  0.4374
  167MOL0     C22972   9.736   9.829  10.714 -0.3186 -0.5070  0.2014
  167MOL0     C22973   9.729   9.860  10.831 -1.0629 -0.1903 -0.6968
  167MOL0     C22974  10.071   9.953  10.192  0.4943  0.0495  0.1511
  167MOL0     C22975  10.105   9.939  10.061  0.2056 -0.2733 -0.6993
  167MOL0     C22976  10.119   9.798  10.014  0.0745 -0.3251  0.3975
  167MOL0     H22977  10.289  10.104   9.603 -1.3441 -0.5729 -0.3139
  167MOL0     H22978  10.449  10.045   9.407 -3.6626  0.7321 -2.1860
  167MOL0     H22979  10.685   9.950   9.320  2.7517  0.3181 -2.9267
  167MOL0     H22980  10.546   9.951   9.224  1.5716  2.2321  1.2325
  167MOL0     H22981  10.769   9.734   9.228 -0.1893  1.4400  1.2078
  167MOL0     H22982  10.631   9.719   9.109 -0.1916 -0.5904 -0.2065
  167MOL0     H22983  10.797   9.793   8.977  2.0046 -1.9654  2.5935
  167MOL0     H22984  10.672   9.919   9.004 -2.4635 -2.0847  0.4428
  167MOL0     H22985  10.893  10.017   8.990 -0.9660  0.4065 -0.5039
  167MOL0     H22986  10.817  10.034   9.155 -0.9566 -0.5449 -0.5047
  167MOL0     H22987  11.003   9.791   9.105  0.9185 -0.6269  1.1111
  167MOL0     H22988  10.987   9.886   9.248  0.4083  2.7850  0.0748
  167MOL0     H22989  11.115   9.972   8.986  0.2112  1.2961  0.0398
  167MOL0     H22990  11.113  10.067   9.137 -2.4548  0.5725 -0.6875
  167MOL0     H22991  11.266   9.796   9.081  4.8659 -0.9610  2.0377
  167MOL0     H22992  11.234   9.862   9.244 -0.5943 -2.2230  0.0275
  167MOL0     H22993  11.370  10.000   9.008 -0.0543 -1.6393 -1.0863
  167MOL0     H22994  11.334  10.073   9.164 -1.8082  0.9774 -2.3793
  167MOL0     H22995  11.459   9.708   9.113  0.2330  0.5973 -1.9181
  167MOL0     H22996  11.627   9.574   9.211 -0.8898  1.4811 -1.5379
  167MOL0     H22997  11.749   9.641   9.323  0.0864 -2.0994 -0.3673
  167MOL0     H22998  11.750   9.624   9.021 -2.1232  1.7976  1.8556
  167MOL0     H22999  11.893   9.685   9.126  2.1501 -3.4112  3.2606
  167MOL0     H23000  11.908   9.450   9.218  0.5636 -0.7517 -0.4109
  167MOL0     H23001  11.761   9.398   9.137 -0.4132 -0.3885  0.1369
  167MOL0     H23002  11.859   9.375   8.934 -0.5858 -0.9421  0.3119
  167MOL0     H23003  11.980   9.502   8.960  3.8349 -4.1605 -3.6732
  167MOL0     H23004  12.269   9.266   9.135  0.3369 -1.6668  0.4222
  167MOL0     H23005  12.513   9.224   9.124 -0.2106  2.3422 -0.3236
  167MOL0     H23006  12.596   9.223   8.985  1.3902 -1.5552  1.2843
  167MOL0     H23007  12.503   9.077   9.022  0.4114  0.2277 -2.8505
  167MOL0     H23008  12.615   9.099   8.493 -2.6337  0.3058 -0.3364
  167MOL0     H23009  12.795   9.151   8.328  0.2938 -1.0757  1.7429
  167MOL0     H23010  12.853   9.580   8.270 -0.0883 -1.0796  2.7315
  167MOL0     H23011  12.953   9.449   8.340  2.3562 -0.4973 -0.6478
  167MOL0     H23012  12.966   9.558   8.072 -3.9638  0.5720  2.8723
  167MOL0     H23013  13.098   9.556   8.189 -0.1911  0.7028 -0.3424
  167MOL0     H23014  12.990   9.291   8.085  0.0941 -1.4657 -2.0660
  167MOL0     H23015  13.144   9.343   8.176 -0.7201  0.8350  0.1880
  167MOL0     H23016  13.229   9.326   7.958  0.0682  0.4372 -0.4960
  167MOL0     H23017  13.188   9.490   7.973 -0.7043  0.4592 -0.8868
  167MOL0     H23018  12.969   9.320   7.869 -0.3953 -0.2057  0.7275
  167MOL0     H23019  13.000   9.487   7.833 -1.6658 -1.2330 -1.3658
  167MOL0     H23020  13.211   9.407   7.713  1.5907 -2.6644 -0.3785
  167MOL0     H23021  13.041   9.377   7.650 -0.7075 -1.3519  0.1210
  167MOL0     H23022  13.089   9.139   7.777 -0.0567 -1.1731 -0.8437
  167MOL0     H23023  13.254   9.200   7.774 -1.0962  0.2163  1.7380
  167MOL0     H23024  13.198   9.046   7.575 -1.7027 -0.9755  1.1934
  167MOL0     H23025  13.235   9.202   7.511 -0.6909 -0.4005 -1.4526
  167MOL0     H23026  12.598   9.535   8.270 -1.9015  1.9224  1.5633
  167MOL0     H23027  12.452   9.492   8.450  4.0306  2.0549  2.6316
  167MOL0     H23028  12.236   9.349   8.654 -0.7625 -3.8417 -0.7283
  167MOL0     H23029  12.040   9.383   8.802 -0.7001 -0.1353  3.0414
  167MOL0     H23030  10.423   9.633   9.518  2.0028 -0.0816 -0.1599
  167MOL0     H23031  10.307   9.698   9.720  1.0604  0.0407 -0.9671
  167MOL0     H23032  10.056  10.272   9.974 -4.1193  0.0137 -0.3239
  167MOL0     H23033  10.030  10.290  10.214  3.7253  0.8792  0.7984
  167MOL0     H23034   9.888  10.225  10.448 -4.2362  0.8830 -0.4382
  167MOL0     H23035   9.821  10.126  10.322  1.5419  1.9446 -1.6140
  167MOL0     H23036   9.709  10.051  10.522  0.8089  3.3938 -2.1293
  167MOL0     H23037   9.850  10.067  10.616 -0.2347  0.8963 -0.9870
  167MOL0     H23038   9.861   9.856  10.399 -0.9600  0.3680  0.4721
  167MOL0     H23039   9.939   9.844  10.558 -0.1104 -3.3800 -1.3262
  167MOL0     H23040   9.732   9.694  10.541 -3.8950 -0.2988  0.0247
  167MOL0     H23041   9.633   9.841  10.531 -0.6915 -0.3889  0.7307
  167MOL0     H23042   9.716   9.882  10.935  0.1430  2.6525 -1.0594
  167MOL0     H23043  10.077   9.858  10.244  0.1644 -0.3912 -0.5860
  167MOL0     H23044  10.070   9.774   9.920  1.5013 -1.3078 -0.1279
  167MOL0     H23045  10.226   9.780  10.003  0.0952  0.2384 -0.3571
  167MOL0     H23046  10.097   9.717  10.084  1.0397 -1.1286 -0.2169
  168MOL0     O23047   2.583   9.602  11.390  0.0458  0.1933  0.4822
  168MOL0     C23048   2.478   9.591  11.442 -0.0904 -0.6337 -0.0229
  168MOL0     O23049   2.433   9.465  11.491  0.1194 -0.8591  0.5144
  168MOL0     C23050   2.505   9.351  11.450  0.2815 -0.1443 -0.2299
  168MOL0     C23051   2.629   9.326  11.490 -0.2211 -0.3027 -1.4774
  168MOL0     C23052   2.687   9.199  11.477  0.6045 -0.1120 -0.0759
  168MOL0     C23053   2.624   9.107  11.392 -0.7309  0.3984 -1.0531
  168MOL0     O23054   2.683   8.987  11.350  0.8622  0.6785 -0.2338
  168MOL0     C23055   2.828   8.991  11.318  0.0348  0.4228  0.2441
  168MOL0     C23056   2.864   8.872  11.227 -0.9200 -0.3597 -0.4791
  168MOL0     C23057   3.013   8.883  11.168 -0.1886 -0.4854 -0.7923
  168MOL0     C23058   3.112   8.797  11.244  0.7953  0.0103  0.2701
  168MOL0     C23059   3.254   8.788  11.182  0.3281  0.4053 -0.3489
  168MOL0     C23060   3.338   8.915  11.201 -0.1612  0.6458  0.1097
  168MOL0     C23061   3.483   8.889  11.178 -0.0606  0.4194  0.3324
  168MOL0     C23062   3.561   9.020  11.188  0.6819 -0.3124  0.2812
  168MOL0     N23063   3.705   8.994  11.207  0.2754 -0.5940 -0.4556
  168MOL0     C23064   3.774   9.024  11.320 -0.4310  0.2523 -0.6679
  168MOL0     C23065   3.905   9.038  11.288  0.4871  0.0961 -0.0007
  168MOL0     C23066   4.014   9.091  11.383 -0.8823 -0.0467  0.1758
  168MOL0     C23067   4.023   9.245  11.378  0.4607 -0.0227  0.0665
  168MOL0     C23068   4.103   9.312  11.492  0.2139  0.3368  0.1527
  168MOL0     C23069   4.152   9.453  11.443 -0.2362 -0.7141 -1.0460
  168MOL0     O23070   4.279   9.452  11.384  0.0314 -0.5126 -0.1458
  168MOL0     C23071   4.385   9.431  11.468  0.1597  0.8622 -0.6465
  168MOL0     C23072   4.398   9.479  11.599  0.2654  0.1797 -0.0214
  168MOL0     C23073   4.516   9.455  11.678  0.2768  0.7100 -0.0357
  168MOL0     C23074   4.526   9.524  11.810  0.2771  0.0057  0.2920
  168MOL0     C23075   4.608   9.357  11.626  0.4619  0.9742  0.0162
  168MOL0     C23076   4.729   9.309  11.700  0.6200 -0.0657  0.1256
  168MOL0     O23077   4.795   9.204  11.639  0.2006  0.2510 -0.1112
  168MOL0     C23078   4.918   9.173  11.681 -0.1266 -0.2648  0.2383
  168MOL0     C23079   5.015   9.170  11.579  0.5010  0.5281 -0.2358
  168MOL0     C23080   5.144   9.144  11.611 -0.6530 -0.0509  0.0791
  168MOL0     C23081   5.187   9.105  11.740  0.4414  0.2797  0.1411
  168MOL0     O23082   5.316   9.078  11.762 -0.0500  0.1003  0.0646
  168MOL0     C23083   5.352   9.106  11.898 -0.1416  0.7297  0.5127
  168MOL0     C23084   5.512   9.134  11.893 -0.1374  0.5157 -0.1461
  168MOL0     C23085   5.593   9.033  11.813  0.3032 -0.3885  0.0455
  168MOL0     C23086   5.746   9.034  11.846  0.0349  0.5058  0.2875
  168MOL0     C23087   5.834   8.994  11.730  0.1198  0.5652 -0.1251
  168MOL0     C23088   5.982   8.967  11.791  0.3633  0.0276  0.2013
  168MOL0     C23089   6.075   8.938  11.675  0.4124 -0.3958  0.5674
  168MOL0     C23090   6.058   8.796  11.627 -0.1527 -0.3482 -0.1121
  168MOL0    Cl23091   6.115   8.776  11.458 -0.6680  0.4201  0.1168
  168MOL0     C23092   5.086   9.104  11.843 -0.5344 -0.4935 -0.5303
  168MOL0     C23093   4.951   9.142  11.809 -0.5114  0.5356  0.4070
  168MOL0     O23094   4.767   9.371  11.801 -0.0571  0.4087  0.4092
  168MOL0     C23095   4.570   9.289  11.506 -0.9713 -0.2907  0.0682
  168MOL0     C23096   4.476   9.341  11.433 -0.5281  0.5075 -0.3239
  168MOL0     N23097   3.918   8.985  11.152 -0.3978 -0.1308 -1.1710
  168MOL0     N23098   3.797   8.971  11.112 -0.3882  0.1461  0.4997
  168MOL0     C23099   2.503   9.141  11.334  0.0600 -0.6785 -0.4444
  168MOL0     C23100   2.433   9.251  11.377 -0.6271 -0.4485  0.2789
  168MOL0     C23101   2.393   9.709  11.483 -0.2973  0.7128 -0.1806
  168MOL0     C23102   2.280   9.682  11.551  0.0927 -0.5152 -0.4254
  168MOL0     C23103   2.182   9.783  11.569 -0.0754  0.5243 -0.5763
  168MOL0     C23104   2.205   9.918  11.531  0.3645  0.4239 -0.1075
  168MOL0     O23105   2.111  10.007  11.577  0.7051 -0.2393 -0.6344
  168MOL0     C23106   2.139  10.149  11.548 -0.0917  0.3726 -0.5848
  168MOL0     C23107   2.016  10.231  11.573 -0.5688 -1.0482  0.0889
  168MOL0     C23108   1.965  10.230  11.718 -0.1706  0.5094  0.6612
  168MOL0     C23109   2.055  10.290  11.821  0.1100 -0.5594 -0.3130
  168MOL0     C23110   2.087  10.426  11.789  0.7585  0.0048 -0.7173
  168MOL0     C23111   2.114  10.540  11.767 -0.2703  0.0166 -0.4717
  168MOL0     C23112   2.321   9.941  11.458  0.1121  0.0276 -0.4162
  168MOL0     C23113   2.411   9.845  11.437  0.5279  0.3128  0.3429
  168MOL0     C23114   2.532   9.894  11.356  0.2367  0.0318  0.0075
  168MOL0     H23115   2.683   9.400  11.549 -0.1483 -2.7083  1.7283
  168MOL0     H23116   2.783   9.193  11.529  0.3002  1.8775  0.8508
  168MOL0     H23117   2.890   8.994  11.408  0.6372  0.5081 -0.1723
  168MOL0     H23118   2.845   9.075  11.251  1.2944 -0.3520 -0.4332
  168MOL0     H23119   2.845   8.781  11.285  1.6312  0.9228  2.6704
  168MOL0     H23120   2.795   8.867  11.142  1.8959  1.3431 -3.0604
  168MOL0     H23121   3.006   8.857  11.062 -2.4617  0.5643 -0.9600
  168MOL0     H23122   3.047   8.987  11.174  1.7578 -1.1007 -0.4368
  168MOL0     H23123   3.121   8.834  11.347  3.3804  0.5927 -0.0982
  168MOL0     H23124   3.070   8.695  11.248 -0.8978  0.6919  1.0805
  168MOL0     H23125   3.260   8.733  11.088 -0.2955 -1.4091  0.6223
  168MOL0     H23126   3.305   8.712  11.242 -1.7920 -1.7096 -1.0609
  168MOL0     H23127   3.302   8.984  11.125 -0.0527 -1.2760 -1.7649
  168MOL0     H23128   3.316   8.969  11.294  3.1980  0.5537  1.1043
  168MOL0     H23129   3.499   8.836  11.084 -0.3029  0.4862  0.2527
  168MOL0     H23130   3.515   8.827  11.262 -0.6514  1.2480  1.1830
  168MOL0     H23131   3.551   9.071  11.092  0.1028  0.8425  0.9335
  168MOL0     H23132   3.526   9.083  11.271  0.4436  0.3396 -0.3073
  168MOL0     H23133   3.728   9.043  11.416 -0.2217 -0.4022 -0.4378
  168MOL0     H23134   4.110   9.048  11.355 -1.4805 -1.2718 -0.0596
  168MOL0     H23135   3.987   9.053  11.483  0.2808 -1.3190  0.0394
  168MOL0     H23136   4.084   9.264  11.288 -0.9828 -0.4086 -1.0291
  168MOL0     H23137   3.921   9.283  11.379  0.4852  0.1237 -1.0135
  168MOL0     H23138   4.042   9.315  11.582 -0.4259 -3.5940 -0.0033
  168MOL0     H23139   4.192   9.256  11.523 -0.5379 -1.0150 -0.0550
  168MOL0     H23140   4.082   9.487  11.365 -1.3417 -1.1903 -0.2912
  168MOL0     H23141   4.142   9.526  11.524  2.3614 -1.3483 -0.0755
  168MOL0     H23142   4.319   9.544  11.633 -2.1281 -2.7045  0.3276
  168MOL0     H23143   4.522   9.461  11.899  1.7819  0.1913  0.5245
  168MOL0     H23144   4.443   9.595  11.818 -0.6509 -0.2432 -4.1868
  168MOL0     H23145   4.617   9.585  11.808  0.9224 -0.9392 -0.4735
  168MOL0     H23146   4.982   9.183  11.477 -0.1921 -0.0518 -0.0975
  168MOL0     H23147   5.214   9.150  11.528 -0.6438 -0.4273  0.0549
  168MOL0     H23148   5.309   9.201  11.931  0.5225  1.0976  0.3368
  168MOL0     H23149   5.329   9.019  11.960  1.1096  0.3286  0.4383
  168MOL0     H23150   5.534   9.232  11.850  1.7045  0.4404  0.5184
  168MOL0     H23151   5.544   9.141  11.997 -1.1492  0.0302  0.2157
  168MOL0     H23152   5.582   9.050  11.705  0.8329 -0.2665  0.0064
  168MOL0     H23153   5.562   8.929  11.832 -0.7384 -0.4910 -1.9691
  168MOL0     H23154   5.763   8.979  11.939  2.5784  1.8464  0.7047
  168MOL0     H23155   5.766   9.139  11.868 -0.7511  1.2438 -2.2207
  168MOL0     H23156   5.785   8.908  11.682  1.3047 -0.0442 -0.2930
  168MOL0     H23157   5.840   9.068  11.650 -0.8350 -0.2340 -0.9637
  168MOL0     H23158   5.973   8.879  11.855  1.0294 -0.2206 -0.0380
  168MOL0     H23159   6.022   9.053  11.844  1.5638  0.0551 -0.7053
  168MOL0     H23160   6.178   8.961  11.704  0.2078  1.6736 -0.1380
  168MOL0     H23161   6.042   9.008  11.597 -0.9471  1.4608  2.6857
  168MOL0     H23162   5.961   8.748  11.646 -0.5148  0.4259  0.0032
  168MOL0     H23163   6.113   8.718  11.680  0.1370 -0.2529 -0.2713
  168MOL0     H23164   5.121   9.068  11.939  0.1029 -0.1044 -0.6138
  168MOL0     H23165   4.871   9.131  11.880 -0.0607 -2.2962  0.6057
  168MOL0     H23166   4.620   9.197  11.476  1.5630 -0.7522  4.7285
  168MOL0     H23167   4.453   9.302  11.334 -2.9152  0.2044  0.2880
  168MOL0     H23168   2.458   9.084  11.253 -2.6384 -0.3395  0.6984
  168MOL0     H23169   2.333   9.278  11.344 -1.0106 -0.0616  1.6949
  168MOL0     H23170   2.263   9.590  11.606  1.7037 -0.5976 -0.0269
  168MOL0     H23171   2.087   9.768  11.618 -0.1895  0.9497 -0.6615
  168MOL0     H23172   2.222  10.187  11.609  2.3370 -0.2266 -3.2526
  168MOL0     H23173   2.160  10.161  11.441 -0.8561  1.2852 -0.6369
  168MOL0     H23174   1.944  10.190  11.501 -0.0701 -1.1897 -0.3323
  168MOL0     H23175   2.025  10.334  11.540 -4.6882 -0.0095  1.6336
  168MOL0     H23176   1.860  10.260  11.718 -1.7756 -4.1153  2.8024
  168MOL0     H23177   1.966  10.121  11.733  2.5112 -0.1826 -3.0821
  168MOL0     H23178   2.148  10.234  11.832  0.2618 -0.1426  0.6269
  168MOL0     H23179   2.001  10.279  11.915 -1.7232  2.8903 -0.8081
  168MOL0     H23180   2.130  10.642  11.738 -0.5650  0.9512  2.3419
  168MOL0     H23181   2.344  10.040  11.421  0.6947 -0.7255 -2.1872
  168MOL0     H23182   2.531  10.002  11.341  0.0802 -0.1112 -1.1109
  168MOL0     H23183   2.615   9.875  11.425 -0.8159  1.9763  1.9484
  168MOL0     H23184   2.552   9.841  11.262 -0.0312  0.1804 -0.1334
  169MOL0     O23185   0.602   0.128  10.391 -0.9479 -0.1655  0.4619
  169MOL0     C23186   0.533   0.135  10.289 -0.7081 -0.3020 -0.5536
  169MOL0     O23187   0.576   0.125  10.161 -0.1824 -0.1224  0.3464
  169MOL0     C23188   0.711   0.104  10.133  0.3661  0.4429  0.1414
  169MOL0     C23189   0.786  -0.001  10.188  0.2541 -0.8532 -0.1222
  169MOL0     C23190   0.925  -0.015  10.159  0.3728 -1.0913 -0.0344
  169MOL0     C23191   0.982   0.086  10.072  1.2344  0.5039  0.2244
  169MOL0     O23192   1.116   0.080  10.045 -0.3931  1.1625 -0.4045
  169MOL0     C23193   1.185  -0.032  10.101  0.3034  0.4835 -0.6409
  169MOL0     C23194   1.328  -0.021  10.070 -0.5244 -0.1837 -0.5533
  169MOL0     C23195   1.406  -0.101  10.166 -0.9549  0.5134  0.2278
  169MOL0     C23196   1.556  -0.096  10.125 -0.3343  0.4364  0.6555
  169MOL0     C23197   1.639  -0.152  10.243  0.9859  0.2589 -0.8740
  169MOL0     C23198   1.794  -0.138  10.224  0.5866  0.1196  1.2619
  169MOL0     C23199   1.877  -0.204  10.343 -0.4455  0.3297  0.8763
  169MOL0     C23200   1.887  -0.357  10.340  0.3194  0.0268  0.0313
  169MOL0     N23201   1.945  -0.405  10.463 -0.9766 -0.2197 -0.1594
  169MOL0     C23202   2.081  -0.422  10.493 -0.3012 -0.1190  0.0219
  169MOL0     C23203   2.081  -0.488  10.618 -0.2564 -1.1219 -0.3080
  169MOL0     C23204   2.195  -0.514  10.715 -0.5928  0.9553 -0.5857
  169MOL0     C23205   2.189  -0.662  10.730  0.3971  0.1055 -0.2179
  169MOL0     C23206   2.297  -0.706  10.833  0.0442 -0.1305  0.3364
  169MOL0     C23207   2.314  -0.857  10.836 -0.2555 -1.0397  0.9341
  169MOL0     O23208   2.244  -0.915  10.950 -0.4777 -0.2828 -0.1668
  169MOL0     C23209   2.125  -0.981  10.937 -0.9262  0.1249  0.0532
  169MOL0     C23210   2.069  -1.025  11.046  0.0074  0.2451 -0.7589
  169MOL0     C23211   1.945  -1.088  11.057 -0.3020  0.0426 -0.0080
  169MOL0     C23212   1.889  -1.139  11.187  0.6284 -0.2961  0.1242
  169MOL0     C23213   1.877  -1.110  10.932 -0.5700 -0.3024  0.0692
  169MOL0     C23214   1.741  -1.186  10.915 -0.0708 -1.4588  0.3084
  169MOL0     O23215   1.696  -1.194  10.783  0.8812  0.3578 -0.4038
  169MOL0     C23216   1.567  -1.234  10.764  0.3958  0.5872  0.4514
  169MOL0     C23217   1.527  -1.360  10.810 -0.1289  1.0785 -0.0859
  169MOL0     C23218   1.400  -1.413  10.789 -0.1368 -0.0082  0.1136
  169MOL0     C23219   1.301  -1.332  10.740  0.6890  0.8103 -0.3946
  169MOL0     O23220   1.172  -1.381  10.744 -0.0222 -0.5174  0.1060
  169MOL0     C23221   1.079  -1.350  10.644 -0.0574  0.4914 -0.7215
  169MOL0     C23222   0.985  -1.468  10.610 -1.1570 -0.0132 -0.0604
  169MOL0     C23223   0.859  -1.419  10.544  0.6107 -0.3217 -0.0647
  169MOL0     C23224   0.760  -1.526  10.530  1.5690  0.1498 -0.3361
  169MOL0     C23225   0.627  -1.473  10.457 -0.3356  1.1419 -0.3881
  169MOL0     C23226   0.503  -1.553  10.515  0.7047 -0.5340  0.9835
  169MOL0     C23227   0.462  -1.679  10.442 -0.3152 -0.1997  0.2516
  169MOL0     C23228   0.315  -1.714  10.464  0.0905 -0.0902 -0.0036
  169MOL0    Cl23229   0.313  -1.744  10.639  0.0181 -0.0853  0.5262
  169MOL0     C23230   1.338  -1.208  10.680 -0.2411  0.2364 -0.2838
  169MOL0     C23231   1.472  -1.162  10.696  0.5354  0.5640  0.0582
  169MOL0     O23232   1.686  -1.233  11.017 -0.2922  0.6664 -0.6201
  169MOL0     C23233   1.932  -1.054  10.813 -0.5671 -0.1222  0.1639
  169MOL0     C23234   2.057  -0.989  10.815  0.0392 -0.3899 -0.2117
  169MOL0     N23235   1.950  -0.524  10.644  0.5088 -0.6293 -0.3850
  169MOL0     N23236   1.870  -0.466  10.561 -0.5693  0.2630  0.3829
  169MOL0     C23237   0.896   0.182  10.017 -0.5225  0.2283  0.1287
  169MOL0     C23238   0.761   0.194  10.047  0.4727  0.0850 -0.1396
  169MOL0     C23239   0.386   0.143  10.319  0.2410 -0.1540  0.0229
  169MOL0     C23240   0.343   0.096  10.447 -0.6397 -0.0046 -0.1558
  169MOL0     C23241   0.207   0.085  10.478  0.0004  0.3803  0.5106
  169MOL0     C23242   0.109   0.114  10.387  0.7770 -0.0134  1.4994
  169MOL0     O23243  -0.017   0.077  10.417  0.6065 -0.0757  0.4600
  169MOL0     C23244  -0.127   0.098  10.326  0.4893 -0.6617  0.0519
  169MOL0     C23245  -0.258   0.036  10.381  0.7590 -0.6069 -1.4389
  169MOL0     C23246  -0.292   0.081  10.526 -0.1504  0.0582  0.0325
  169MOL0     C23247  -0.433   0.040  10.575  0.4095  0.0659  0.2574
  169MOL0     C23248  -0.542   0.133  10.537  0.4820 -0.0736  0.1773
  169MOL0     C23249  -0.636   0.210  10.520 -0.1496 -0.4933 -0.2482
  169MOL0     C23250   0.148   0.180  10.262 -0.0379  0.4637  0.4553
  169MOL0     C23251   0.280   0.198  10.233 -0.9737 -0.0873  0.4302
  169MOL0     C23252   0.319   0.267  10.102  0.4328  0.6454  0.1501
  169MOL0     H23253   0.745  -0.066  10.264 -1.3943  1.9117  1.5556
  169MOL0     H23254   0.976  -0.089  10.220  0.8545 -0.1064  0.7913
  169MOL0     H23255   1.147  -0.125  10.056  1.1497  1.3539 -3.3603
  169MOL0     H23256   1.170  -0.022  10.209 -1.8691 -0.0254 -0.8462
  169MOL0     H23257   1.331  -0.050   9.965  1.6193  0.8658 -0.8359
  169MOL0     H23258   1.358   0.084  10.082 -0.7251 -0.3985  2.6960
  169MOL0     H23259   1.393  -0.059  10.266  0.0684 -1.3313  1.1954
  169MOL0     H23260   1.379  -0.207  10.171  0.2761  0.2342  3.0885
  169MOL0     H23261   1.562  -0.156  10.034 -2.5060  2.7331 -1.1406
  169MOL0     H23262   1.603   0.001  10.106  1.0781 -0.3436 -0.0285
  169MOL0     H23263   1.624  -0.260  10.244 -1.2801  0.5274 -0.7846
  169MOL0     H23264   1.593  -0.116  10.335 -2.1667 -4.0802 -0.4502
  169MOL0     H23265   1.825  -0.193  10.134 -0.2778  1.1667  0.2906
  169MOL0     H23266   1.806  -0.030  10.214 -1.5277  0.2941 -0.0203
  169MOL0     H23267   1.852  -0.164  10.442  0.3923  2.4706  0.2767
  169MOL0     H23268   1.976  -0.161  10.328 -0.6759  0.0864 -1.6959
  169MOL0     H23269   1.786  -0.399  10.331  0.6823 -0.4422 -3.1920
  169MOL0     H23270   1.946  -0.393  10.256  0.7818 -0.1199  0.4172
  169MOL0     H23271   2.166  -0.391  10.434  0.3300  0.8871  1.4151
  169MOL0     H23272   2.165  -0.466  10.808 -1.8225  0.7401 -0.8487
  169MOL0     H23273   2.298  -0.495  10.683 -0.9944  0.3467 -2.4019
  169MOL0     H23274   2.093  -0.688  10.776 -0.6838  1.6703 -1.4939
  169MOL0     H23275   2.189  -0.709  10.632 -1.2964  2.6938 -1.5710
  169MOL0     H23276   2.390  -0.654  10.808 -0.1813  0.2802  0.3505
  169MOL0     H23277   2.267  -0.670  10.932  2.2027  0.8010  0.7105
  169MOL0     H23278   2.281  -0.901  10.741 -0.5731  1.1316 -0.0079
  169MOL0     H23279   2.421  -0.878  10.845  0.0239  0.0022  0.2154
  169MOL0     H23280   2.120  -1.008  11.141  2.6227 -0.7454 -1.9230
  169MOL0     H23281   1.957  -1.125  11.271 -0.1208 -1.5554  0.9849
  169MOL0     H23282   1.860  -1.244  11.190  0.8608 -0.3575  0.2859
  169MOL0     H23283   1.791  -1.092  11.204  0.6619  0.1750 -0.9307
  169MOL0     H23284   1.605  -1.420  10.855 -1.9535 -1.1625  0.3178
  169MOL0     H23285   1.372  -1.513  10.822  2.2283 -0.7140  0.2003
  169MOL0     H23286   1.021  -1.266  10.684 -1.9700 -1.7503  1.5205
  169MOL0     H23287   1.132  -1.319  10.554 -0.6730 -0.0256 -1.2678
  169MOL0     H23288   1.041  -1.543  10.555 -1.1664  0.8387 -1.2688
  169MOL0     H23289   0.964  -1.519  10.704 -1.4470 -0.8413 -0.5688
  169MOL0     H23290   0.875  -1.375  10.445 -1.1797 -0.6421 -0.5351
  169MOL0     H23291   0.815  -1.336  10.600  0.9793 -0.2109  0.0636
  169MOL0     H23292   0.728  -1.568  10.625 -0.5409 -0.0113 -1.0722
  169MOL0     H23293   0.794  -1.616  10.478  0.8021 -1.3489  1.6398
  169MOL0     H23294   0.613  -1.368  10.483 -2.0283  0.9498 -0.4351
  169MOL0     H23295   0.630  -1.482  10.348  3.6300  2.4736 -0.5421
  169MOL0     H23296   0.426  -1.477  10.498  1.2434 -0.0397  0.6854
  169MOL0     H23297   0.507  -1.560  10.624  1.5197  0.9383  1.0770
  169MOL0     H23298   0.515  -1.771  10.470 -5.3840 -4.2159 -1.8478
  169MOL0     H23299   0.495  -1.676  10.337  2.2273 -2.4202  0.8789
  169MOL0     H23300   0.280  -1.799  10.405 -1.6094  0.5019  0.0723
  169MOL0     H23301   0.247  -1.630  10.446  0.2718  1.0892  3.8785
  169MOL0     H23302   1.267  -1.168  10.608  0.4526 -1.3596 -1.9450
  169MOL0     H23303   1.504  -1.065  10.657  1.9641 -1.2686 -3.8500
  169MOL0     H23304   1.882  -1.057  10.716 -1.6324 -1.2149  0.7263
  169MOL0     H23305   2.090  -0.949  10.720 -1.8973 -1.1786 -1.2691
  169MOL0     H23306   0.941   0.264   9.962  1.8780  1.6307  3.7984
  169MOL0     H23307   0.690   0.263  10.002  0.8251  0.5533  0.0161
  169MOL0     H23308   0.412   0.075  10.528 -1.5155  0.5482  0.7523
  169MOL0     H23309   0.181   0.049  10.577  2.7114 -0.8213  0.8844
  169MOL0     H23310  -0.143   0.206  10.325  0.7515 -0.6190  0.2860
  169MOL0     H23311  -0.105   0.061  10.225  2.6949  2.2007 -0.6700
  169MOL0     H23312  -0.227  -0.069  10.389 -0.5296 -0.9002  0.0026
  169MOL0     H23313  -0.338   0.064  10.312  0.3318  1.4071 -0.1931
  169MOL0     H23314  -0.216   0.028  10.584  0.6653  0.8365 -0.2951
  169MOL0     H23315  -0.259   0.184  10.542 -0.0413 -0.0194  0.3177
  169MOL0     H23316  -0.437   0.040  10.684  1.2996  0.7433  0.3038
  169MOL0     H23317  -0.457  -0.058  10.533  0.5692 -0.1250  0.6097
  169MOL0     H23318  -0.716   0.273  10.485  0.4477 -2.2152 -5.6852
  169MOL0     H23319   0.090   0.213  10.176  0.7186 -0.5824 -0.4829
  169MOL0     H23320   0.414   0.320  10.116 -0.0515  1.7186 -0.4769
  169MOL0     H23321   0.327   0.204  10.013 -3.9649 -2.5347  1.6327
  169MOL0     H23322   0.240   0.336  10.070 -1.2106 -0.4922  1.6028
  170MOL0     O23323   0.012   2.808   3.979 -0.3068 -0.3181 -0.7805
  170MOL0     C23324   0.077   2.700   3.994  0.6481  0.0962  0.4534
  170MOL0     O23325   0.205   2.679   3.958 -0.0998 -0.3091 -0.1720
  170MOL0     C23326   0.298   2.777   3.939 -0.5824 -0.5450 -1.1541
  170MOL0     C23327   0.398   2.755   3.853  0.5572  0.7651  0.8041
  170MOL0     C23328   0.504   2.840   3.842  0.9633  0.4378  0.8957
  170MOL0     C23329   0.503   2.958   3.921  0.5684  0.7569  1.0190
  170MOL0     O23330   0.600   3.054   3.894 -0.3007  0.0445  0.0452
  170MOL0     C23331   0.686   3.049   3.779 -0.7137  0.6361 -0.5528
  170MOL0     C23332   0.747   3.185   3.754  0.7273  0.8381 -0.6742
  170MOL0     C23333   0.868   3.203   3.841  0.3466 -0.3460 -1.3840
  170MOL0     C23334   0.935   3.337   3.853 -0.1098  0.1317  0.6260
  170MOL0     C23335   1.027   3.388   3.738  0.2491  0.1312  0.2439
  170MOL0     C23336   1.023   3.544   3.727 -1.1566 -0.2451  0.5015
  170MOL0     C23337   1.062   3.616   3.857  1.0540 -0.3184 -0.1481
  170MOL0     C23338   1.198   3.602   3.902 -0.3236 -0.9074  0.3992
  170MOL0     N23339   1.297   3.676   3.828  0.8230 -0.4498  0.0242
  170MOL0     C23340   1.274   3.766   3.716  0.2463  0.0677  0.0711
  170MOL0     C23341   1.392   3.804   3.667 -0.4402 -0.6457  0.9113
  170MOL0     C23342   1.417   3.905   3.561 -1.0801  0.3561 -0.0185
  170MOL0     C23343   1.396   3.842   3.421 -0.4008  0.2934  0.1758
  170MOL0     C23344   1.256   3.810   3.374  0.2674  0.1161  0.3881
  170MOL0     C23345   1.176   3.942   3.348  0.7222 -0.7624 -0.1096
  170MOL0     O23346   1.115   3.982   3.467  0.7310  0.4154  0.0162
  170MOL0     C23347   1.003   3.916   3.503  1.0946 -0.4519 -0.1877
  170MOL0     C23348   0.940   3.956   3.621 -0.2349  0.3411 -0.5564
  170MOL0     C23349   0.826   3.890   3.678  0.3179  0.1785 -0.3212
  170MOL0     C23350   0.790   3.921   3.825 -0.6182  0.8290  0.3713
  170MOL0     C23351   0.763   3.784   3.602  0.1673  0.0912 -0.2995
  170MOL0     C23352   0.643   3.712   3.647 -0.1122  0.5860  0.2885
  170MOL0     O23353   0.629   3.588   3.589  0.5096  0.3909 -0.2149
  170MOL0     C23354   0.519   3.509   3.606 -0.6426 -0.4277  0.7202
  170MOL0     C23355   0.484   3.467   3.734  0.5146  0.4824 -0.3105
  170MOL0     C23356   0.376   3.375   3.744 -0.1240 -0.5378 -0.1719
  170MOL0     C23357   0.302   3.333   3.637  0.1183 -0.4262  0.5517
  170MOL0     O23358   0.178   3.270   3.658  0.2814  0.0570  0.4405
  170MOL0     C23359   0.178   3.154   3.745 -0.2483 -0.2218 -0.0184
  170MOL0     C23360   0.060   3.066   3.714 -0.0941  0.2639  0.4923
  170MOL0     C23361  -0.079   3.135   3.751  0.4884  0.3196  0.5328
  170MOL0     C23362  -0.199   3.046   3.747 -0.5539  0.6975  0.0345
  170MOL0     C23363  -0.324   3.122   3.791  0.3962  0.3572  0.3072
  170MOL0     C23364  -0.443   3.032   3.787 -0.1496 -0.2139  0.5324
  170MOL0     C23365  -0.461   2.956   3.924  0.2423 -0.6789  1.1162
  170MOL0     C23366  -0.585   2.861   3.898 -0.0896  0.3787  0.3191
  170MOL0    Cl23367  -0.563   2.753   3.764 -0.5293  0.1308  0.3508
  170MOL0     C23368   0.339   3.378   3.504 -0.4521 -0.6028 -0.3039
  170MOL0     C23369   0.444   3.463   3.489 -0.0563  0.6918 -0.2512
  170MOL0     O23370   0.572   3.755   3.729  0.4956 -0.4010 -0.9436
  170MOL0     C23371   0.822   3.747   3.481  0.1798 -0.1109  0.4500
  170MOL0     C23372   0.940   3.808   3.440  0.1182 -0.2347  0.0860
  170MOL0     N23373   1.487   3.727   3.742  0.2161 -0.0289  0.8091
  170MOL0     N23374   1.425   3.656   3.832  0.1237  0.0773 -0.2602
  170MOL0     C23375   0.407   2.986   4.013 -0.2616 -0.0272 -0.0744
  170MOL0     C23376   0.300   2.896   4.021 -0.4410 -0.8131 -0.5437
  170MOL0     C23377   0.004   2.598   4.066  0.6560  0.2196 -0.6700
  170MOL0     C23378   0.071   2.522   4.161 -0.8654 -0.1903 -0.0406
  170MOL0     C23379   0.005   2.436   4.251  0.1071 -0.1599  0.4609
  170MOL0     C23380  -0.134   2.423   4.235 -0.5740  0.2638 -0.6384
  170MOL0     O23381  -0.222   2.341   4.308 -0.3795 -0.3658  0.1431
  170MOL0     C23382  -0.175   2.310   4.440  0.4290 -0.1900  0.0914
  170MOL0     C23383  -0.286   2.266   4.534 -0.0030 -0.0430  0.7791
  170MOL0     C23384  -0.318   2.117   4.497  0.4754 -0.0006 -0.1789
  170MOL0     C23385  -0.437   2.063   4.584 -0.6346  0.3158 -0.6075
  170MOL0     C23386  -0.565   2.124   4.558 -0.0658 -0.4642 -0.4990
  170MOL0     C23387  -0.669   2.190   4.555 -0.3525  0.9506 -0.3290
  170MOL0     C23388  -0.199   2.484   4.137  0.0643 -0.2437 -0.6571
  170MOL0     C23389  -0.133   2.576   4.046 -0.8159 -0.0828 -0.3374
  170MOL0     C23390  -0.216   2.643   3.943  0.4281  0.4882  0.4959
  170MOL0     H23391   0.403   2.661   3.799  0.8977  0.9504  0.5099
  170MOL0     H23392   0.577   2.814   3.766 -0.4464  1.5265 -0.9322
  170MOL0     H23393   0.617   3.036   3.694 -2.4020  1.2346  0.6807
  170MOL0     H23394   0.768   2.980   3.800  0.8942  3.0112  1.4496
  170MOL0     H23395   0.773   3.180   3.648  0.0210 -2.3440 -0.7898
  170MOL0     H23396   0.669   3.261   3.756 -3.2359 -2.8100 -2.2031
  170MOL0     H23397   0.832   3.174   3.941  2.5889 -1.4037 -0.8166
  170MOL0     H23398   0.946   3.134   3.808  1.7303  1.0935 -1.2488
  170MOL0     H23399   0.855   3.412   3.856 -0.9987 -0.8295  2.6245
  170MOL0     H23400   0.987   3.349   3.948 -1.7380  2.2841  1.3428
  170MOL0     H23401   0.995   3.342   3.644  2.1787 -0.6899 -0.0563
  170MOL0     H23402   1.127   3.348   3.753 -0.0563 -0.2819  1.2214
  170MOL0     H23403   1.081   3.582   3.642 -0.1904 -1.7426  0.4469
  170MOL0     H23404   0.926   3.586   3.701 -1.7189 -1.8611 -0.1421
  170MOL0     H23405   0.998   3.586   3.940  0.6648  3.1240  0.9881
  170MOL0     H23406   1.044   3.724   3.855 -1.2525 -0.5198  3.1820
  170MOL0     H23407   1.214   3.634   4.005  2.1498  2.6042 -0.8652
  170MOL0     H23408   1.221   3.496   3.888  1.9790 -0.1914 -2.3063
  170MOL0     H23409   1.183   3.812   3.678  0.1425 -1.2168 -1.3465
  170MOL0     H23410   1.520   3.943   3.567 -1.0074  0.1051  0.3379
  170MOL0     H23411   1.358   3.996   3.576 -1.1452  0.1143  1.2841
  170MOL0     H23412   1.442   3.914   3.352  0.9640  2.2341  2.9096
  170MOL0     H23413   1.462   3.754   3.413 -2.3004 -1.0870 -0.9633
  170MOL0     H23414   1.265   3.756   3.280 -3.2088  2.7443 -1.6639
  170MOL0     H23415   1.202   3.748   3.447 -1.1928 -2.4193 -2.6195
  170MOL0     H23416   1.243   4.019   3.310 -0.3296 -0.0229 -0.5417
  170MOL0     H23417   1.094   3.933   3.275  0.4061  2.1353 -0.2178
  170MOL0     H23418   0.997   4.030   3.675  0.5944 -1.7047  1.5086
  170MOL0     H23419   0.775   4.028   3.843  1.4670  1.3915 -0.8765
  170MOL0     H23420   0.872   3.871   3.877 -0.8182 -0.9788 -0.9338
  170MOL0     H23421   0.697   3.870   3.853 -0.8278  1.6276  1.1563
  170MOL0     H23422   0.540   3.492   3.824 -1.2444  1.0538  0.6650
  170MOL0     H23423   0.343   3.346   3.843 -1.0929  0.4282 -0.2002
  170MOL0     H23424   0.270   3.095   3.736 -0.5498 -0.4657 -1.9925
  170MOL0     H23425   0.165   3.191   3.847  0.5229  1.8202 -0.6140
  170MOL0     H23426   0.054   3.057   3.605  0.6665  0.0584  0.4608
  170MOL0     H23427   0.062   2.966   3.759 -2.8053 -1.0816 -2.0784
  170MOL0     H23428  -0.101   3.222   3.689 -2.6425 -1.0738 -0.5467
  170MOL0     H23429  -0.073   3.172   3.854 -1.5738 -0.5126  1.0196
  170MOL0     H23430  -0.182   2.965   3.819  0.1371  0.9130  0.1214
  170MOL0     H23431  -0.217   2.999   3.650  1.8390  0.2419 -0.2529
  170MOL0     H23432  -0.305   3.163   3.890  0.6792 -2.3217  1.4571
  170MOL0     H23433  -0.337   3.211   3.729 -0.9214 -0.3700 -0.5306
  170MOL0     H23434  -0.429   2.971   3.697  1.7974  1.6694 -0.5224
  170MOL0     H23435  -0.532   3.095   3.786  0.1092  0.2481  2.4741
  170MOL0     H23436  -0.482   3.026   4.006  3.7487  2.2253 -0.2168
  170MOL0     H23437  -0.368   2.902   3.945 -0.7696 -3.1320 -0.2371
  170MOL0     H23438  -0.672   2.925   3.879 -0.2326  0.6112  1.6430
  170MOL0     H23439  -0.608   2.808   3.991 -2.7027 -1.2007 -1.0865
  170MOL0     H23440   0.274   3.351   3.421 -0.8627 -0.0457 -0.1659
  170MOL0     H23441   0.464   3.512   3.394 -0.4732  1.2630 -0.0531
  170MOL0     H23442   0.785   3.670   3.414  2.3706  0.1144 -1.1383
  170MOL0     H23443   0.984   3.763   3.351 -1.3389 -1.6843  0.0402
  170MOL0     H23444   0.419   3.086   4.054 -2.5127  0.9029 -1.5198
  170MOL0     H23445   0.222   2.924   4.092 -2.1206  3.3963 -3.5884
  170MOL0     H23446   0.178   2.539   4.169 -0.8953  0.8007 -1.3900
  170MOL0     H23447   0.048   2.377   4.331 -0.1719 -1.9529 -0.6558
  170MOL0     H23448  -0.103   2.228   4.437  3.3000  2.1275  1.1523
  170MOL0     H23449  -0.130   2.398   4.488 -1.3765 -0.2895  2.1329
  170MOL0     H23450  -0.375   2.329   4.528 -0.4037 -0.5998  0.8159
  170MOL0     H23451  -0.257   2.282   4.638  4.9244 -1.6730 -0.0672
  170MOL0     H23452  -0.341   2.106   4.391 -1.3527 -1.1951  0.2926
  170MOL0     H23453  -0.236   2.047   4.518  0.2586 -0.0604  0.4963
  170MOL0     H23454  -0.410   2.084   4.688 -1.2768 -0.7938 -0.2078
  170MOL0     H23455  -0.444   1.955   4.570  2.2558 -0.1080  0.5184
  170MOL0     H23456  -0.757   2.249   4.540 -1.5673 -0.2911  1.6002
  170MOL0     H23457  -0.307   2.477   4.124  0.0802  0.5717 -1.2923
  170MOL0     H23458  -0.316   2.599   3.948 -0.4270  1.8994 -2.2352
  170MOL0     H23459  -0.237   2.750   3.951 -0.5059  0.6574 -2.7455
  170MOL0     H23460  -0.180   2.619   3.842  0.3112 -2.9461  1.1311
  171MOL0     O23461   2.577   2.046   1.578  0.0704 -0.7148  0.1806
  171MOL0     C23462   2.508   2.012   1.669  0.6203 -0.1252 -0.6189
  171MOL0     O23463   2.559   1.978   1.790 -0.1135  0.3934  0.3245
  171MOL0     C23464   2.697   1.976   1.810 -0.3898  0.2386  0.0193
  171MOL0     C23465   2.760   1.859   1.865 -0.0678 -0.5683  0.1854
  171MOL0     C23466   2.891   1.859   1.903  0.0974 -0.1091  1.0070
  171MOL0     C23467   2.969   1.970   1.867 -0.9453  0.1692 -0.0664
  171MOL0     O23468   3.107   1.960   1.889 -0.0821  0.3845  0.5754
  171MOL0     C23469   3.157   1.880   2.000 -0.3374 -0.2187  0.2164
  171MOL0     C23470   3.214   1.735   1.944  0.3083  0.1775  0.0381
  171MOL0     C23471   3.214   1.634   2.062 -0.2201 -1.0682  1.0843
  171MOL0     C23472   3.083   1.561   2.080 -0.3171  0.5521 -0.0394
  171MOL0     C23473   3.078   1.442   2.175 -0.3379 -0.1800 -0.2708
  171MOL0     C23474   3.177   1.327   2.143  0.2133 -0.7126  0.2958
  171MOL0     C23475   3.305   1.331   2.232  0.8035  0.0648 -0.2393
  171MOL0     C23476   3.408   1.218   2.211  0.7205 -0.1003  0.0052
  171MOL0     N23477   3.336   1.090   2.233 -0.0149 -0.2411 -0.2142
  171MOL0     C23478   3.276   1.055   2.346 -0.0033  0.2053 -0.1135
  171MOL0     C23479   3.242   0.927   2.333  0.1561 -0.0184 -0.3005
  171MOL0     C23480   3.182   0.853   2.451  0.4221  0.4949  0.4572
  171MOL0     C23481   3.075   0.750   2.424 -0.1986 -0.2744 -0.0877
  171MOL0     C23482   3.090   0.607   2.490  0.3151 -0.5089 -0.5944
  171MOL0     C23483   3.081   0.601   2.646  0.1383  0.5494 -0.1726
  171MOL0     O23484   3.104   0.461   2.681 -0.1016 -0.3360 -0.1155
  171MOL0     C23485   3.211   0.421   2.759 -0.1672 -0.5780 -0.4185
  171MOL0     C23486   3.239   0.285   2.771 -0.0350 -0.1414 -0.1076
  171MOL0     C23487   3.339   0.241   2.861 -0.0897  0.7209  0.8810
  171MOL0     C23488   3.330   0.090   2.906  0.3208  0.1405 -0.3831
  171MOL0     C23489   3.439   0.328   2.910 -0.3442 -0.0827  0.0077
  171MOL0     C23490   3.569   0.289   2.980 -0.1655 -0.2622 -0.9348
  171MOL0     O23491   3.622   0.166   2.971 -0.3643  0.3288 -0.4694
  171MOL0     C23492   3.749   0.148   3.009 -0.5901 -0.4148 -0.3645
  171MOL0     C23493   3.859   0.179   2.927 -0.1338 -0.2930 -0.7143
  171MOL0     C23494   3.988   0.147   2.963  0.5464  0.2533 -0.3424
  171MOL0     C23495   4.013   0.078   3.077 -0.8863  0.0948 -0.0629
  171MOL0     O23496   4.141   0.039   3.106 -0.6143 -0.0522 -0.2462
  171MOL0     C23497   4.167  -0.085   3.164  0.2407 -0.4037 -0.5742
  171MOL0     C23498   4.320  -0.122   3.170  0.2950  0.5177  0.6287
  171MOL0     C23499   4.357  -0.263   3.229 -0.2985 -0.2539 -0.7603
  171MOL0     C23500   4.298  -0.281   3.375  0.9497 -0.3525  0.1891
  171MOL0     C23501   4.386  -0.384   3.456  0.3519 -0.3759  0.1365
  171MOL0     C23502   4.408  -0.526   3.410  0.3612 -0.1530  0.0427
  171MOL0     C23503   4.490  -0.608   3.513  0.0038  0.5197  0.4335
  171MOL0     C23504   4.496  -0.747   3.464 -0.2998 -0.3508 -0.1470
  171MOL0    Cl23505   4.588  -0.749   3.309 -0.2750 -0.2719 -0.0862
  171MOL0     C23506   3.902   0.042   3.158 -0.2677  0.0211 -0.1986
  171MOL0     C23507   3.772   0.084   3.128  0.3406  0.1953 -0.5199
  171MOL0     O23508   3.617   0.380   3.047 -0.6529  0.1353 -0.0017
  171MOL0     C23509   3.407   0.463   2.900 -0.4287  0.8091 -0.2848
  171MOL0     C23510   3.301   0.504   2.823 -0.6280 -0.1319 -0.1460
  171MOL0     N23511   3.294   0.879   2.211 -0.0868  0.5700  0.5106
  171MOL0     N23512   3.350   0.980   2.153 -0.1393  0.2283  1.3079
  171MOL0     C23513   2.911   2.087   1.822 -0.2091  0.4742  0.1212
  171MOL0     C23514   2.773   2.086   1.786  0.2186  0.0722  0.1134
  171MOL0     C23515   2.361   2.001   1.652 -0.3146  1.0250 -0.1251
  171MOL0     C23516   2.294   1.929   1.754  0.1837 -1.3041 -0.0348
  171MOL0     C23517   2.155   1.911   1.756  0.4641  1.0551 -0.4849
  171MOL0     C23518   2.079   1.963   1.654 -0.3149 -1.0503  0.8652
  171MOL0     O23519   1.944   1.951   1.650  0.0493  0.1949 -0.0029
  171MOL0     C23520   1.863   1.995   1.539 -0.6580  0.1868  0.7969
  171MOL0     C23521   1.713   1.945   1.550 -0.2542 -0.3648 -0.1199
  171MOL0     C23522   1.630   1.975   1.429 -0.1787  1.1819 -0.3325
  171MOL0     C23523   1.610   2.122   1.402  0.0370  0.2483  0.7928
  171MOL0     C23524   1.512   2.150   1.296  0.3013  0.4232 -1.2782
  171MOL0     C23525   1.449   2.191   1.210 -0.7301  0.6809  0.6861
  171MOL0     C23526   2.148   2.030   1.550 -0.0365  0.4247 -0.6214
  171MOL0     C23527   2.288   2.057   1.545 -0.5051  1.0388 -1.0183
  171MOL0     C23528   2.347   2.127   1.422 -0.1047 -0.6870 -0.0882
  171MOL0     H23529   2.697   1.775   1.893  1.9746 -1.1748  3.3875
  171MOL0     H23530   2.932   1.769   1.947  0.9510 -0.9980 -1.4191
  171MOL0     H23531   3.086   1.861   2.081  1.5003 -0.7647  1.7945
  171MOL0     H23532   3.249   1.927   2.039  0.6354 -0.9186 -1.1535
  171MOL0     H23533   3.166   1.694   1.855  3.7671  1.2447 -2.5544
  171MOL0     H23534   3.319   1.747   1.916  0.7052 -0.1701  1.2838
  171MOL0     H23535   3.294   1.570   2.024  2.6755  1.0007  3.2017
  171MOL0     H23536   3.249   1.680   2.155 -1.4860 -0.6477  1.3694
  171MOL0     H23537   3.014   1.638   2.116  1.8231  0.8046  4.0499
  171MOL0     H23538   3.046   1.530   1.981 -1.3586  2.3945 -0.2643
  171MOL0     H23539   2.983   1.389   2.161 -0.8153 -0.7102  3.7399
  171MOL0     H23540   3.097   1.479   2.276  1.0353  3.1635 -1.6103
  171MOL0     H23541   3.127   1.233   2.164 -0.0952 -1.0745 -1.8399
  171MOL0     H23542   3.199   1.322   2.036 -2.9988 -2.3365 -0.3992
  171MOL0     H23543   3.277   1.335   2.338  1.0556 -2.6761  0.0147
  171MOL0     H23544   3.359   1.424   2.211 -0.4793  0.9427  0.2409
  171MOL0     H23545   3.455   1.212   2.112 -2.4978 -2.9330 -1.5612
  171MOL0     H23546   3.484   1.235   2.288  0.3282  1.6670  0.0557
  171MOL0     H23547   3.262   1.092   2.447  0.1856  0.4726 -0.1833
  171MOL0     H23548   3.134   0.930   2.512 -0.6956  0.7931 -0.7344
  171MOL0     H23549   3.266   0.808   2.505  1.7064  1.1511 -0.8909
  171MOL0     H23550   2.983   0.800   2.456  2.0443  3.8105  0.7032
  171MOL0     H23551   3.067   0.740   2.315 -3.7122  2.2734 -0.2283
  171MOL0     H23552   3.011   0.543   2.448 -0.9878  1.9574 -2.1939
  171MOL0     H23553   3.187   0.569   2.459  2.4546  1.6928  2.7479
  171MOL0     H23554   3.153   0.672   2.688  1.8061 -1.2434  0.1234
  171MOL0     H23555   2.980   0.627   2.681 -0.3490 -0.2489 -0.9614
  171MOL0     H23556   3.169   0.219   2.722  0.3114  0.6383 -1.7486
  171MOL0     H23557   3.410   0.032   2.859  1.5955  0.5528  1.1796
  171MOL0     H23558   3.234   0.044   2.882  0.1262 -0.8736  2.0494
  171MOL0     H23559   3.331   0.097   3.015  0.5866  2.6583 -0.4877
  171MOL0     H23560   3.848   0.238   2.837  1.6659 -0.0291 -0.8032
  171MOL0     H23561   4.072   0.177   2.901  0.9830  2.0826  1.0466
  171MOL0     H23562   4.130  -0.078   3.267  1.2949  1.2764 -0.2884
  171MOL0     H23563   4.105  -0.160   3.114 -1.4539 -0.8528  2.0000
  171MOL0     H23564   4.362  -0.122   3.069 -2.1155 -0.3900 -0.4504
  171MOL0     H23565   4.368  -0.037   3.219  0.5013  0.0537  1.2390
  171MOL0     H23566   4.467  -0.268   3.229 -0.1491  1.5995 -2.8030
  171MOL0     H23567   4.313  -0.336   3.162 -0.6813 -0.4617 -0.2877
  171MOL0     H23568   4.200  -0.325   3.358  0.8395  0.0294 -0.1706
  171MOL0     H23569   4.289  -0.184   3.424 -0.7224 -0.3212 -0.1263
  171MOL0     H23570   4.476  -0.327   3.479  0.3881  0.7878 -2.4981
  171MOL0     H23571   4.339  -0.393   3.554 -0.8154 -1.7789 -0.5136
  171MOL0     H23572   4.448  -0.495   3.313 -0.2384  1.4606  0.2688
  171MOL0     H23573   4.315  -0.580   3.394  0.3133 -0.2308  0.5718
  171MOL0     H23574   4.444  -0.606   3.613 -0.3387  0.9318  0.2674
  171MOL0     H23575   4.589  -0.561   3.517  0.3582 -0.1221 -0.4748
  171MOL0     H23576   4.394  -0.786   3.462 -0.5939  0.3820  0.1407
  171MOL0     H23577   4.550  -0.814   3.532 -2.7872 -1.7051  0.6361
  171MOL0     H23578   3.914  -0.034   3.234  0.4513 -2.2174 -2.4091
  171MOL0     H23579   3.685   0.047   3.182  2.7502 -2.0879  2.1332
  171MOL0     H23580   3.473   0.531   2.951  0.3845 -0.2089  0.0534
  171MOL0     H23581   3.287   0.612   2.819  3.1913  0.5631  1.0988
  171MOL0     H23582   2.972   2.176   1.817  1.7988 -0.8914 -2.9746
  171MOL0     H23583   2.726   2.177   1.751 -1.1903 -0.3561  0.8307
  171MOL0     H23584   2.350   1.880   1.833 -1.5174 -2.2589  0.6152
  171MOL0     H23585   2.110   1.856   1.838  2.5398  0.0799  0.0833
  171MOL0     H23586   1.865   2.105   1.539 -0.2319  0.1824  1.0363
  171MOL0     H23587   1.899   1.954   1.444 -1.6894 -0.5120  0.6910
  171MOL0     H23588   1.665   2.003   1.629  1.5896  0.3810  0.4927
  171MOL0     H23589   1.717   1.838   1.574  2.4369 -1.0395 -2.8666
  171MOL0     H23590   1.682   1.926   1.346  1.7809  1.1015  0.8795
  171MOL0     H23591   1.539   1.914   1.437 -0.1403  1.0892 -0.5937
  171MOL0     H23592   1.698   2.170   1.360 -0.7458  1.8181  0.8815
  171MOL0     H23593   1.574   2.164   1.497 -0.2454  0.5811  0.5390
  171MOL0     H23594   1.387   2.227   1.130 -1.9751 -2.4210  0.1191
  171MOL0     H23595   2.090   2.083   1.475  0.4229  1.2351 -0.4240
  171MOL0     H23596   2.374   2.067   1.334  1.9272 -0.2359  0.1767
  171MOL0     H23597   2.275   2.205   1.396 -1.0011 -1.0023  1.3333
  171MOL0     H23598   2.444   2.171   1.443 -0.6428  0.1044  0.8243
  172MOL0     O23599   1.295   1.320   1.405  0.2418 -0.5999  0.0090
  172MOL0     C23600   1.263   1.440   1.404  0.8971  0.2936  0.5890
  172MOL0     O23601   1.351   1.539   1.394 -0.6709  0.3182  0.2661
  172MOL0     C23602   1.485   1.495   1.398  0.4078 -0.6468 -0.8364
  172MOL0     C23603   1.554   1.429   1.294 -0.9310 -0.2078  0.0513
  172MOL0     C23604   1.686   1.389   1.306  0.9593 -0.2952 -0.0324
  172MOL0     C23605   1.747   1.412   1.427  0.6603  0.3007  0.5774
  172MOL0     O23606   1.878   1.367   1.458  0.5465 -0.4674 -0.0480
  172MOL0     C23607   1.912   1.240   1.392 -0.2259  0.0242 -0.0784
  172MOL0     C23608   1.827   1.121   1.443  0.5703  0.5076 -0.7611
  172MOL0     C23609   1.848   0.993   1.368 -0.1992  0.8538 -0.8305
  172MOL0     C23610   1.724   0.930   1.297 -0.0855  0.1565  0.3707
  172MOL0     C23611   1.696   1.014   1.166 -0.5174  0.2515  0.0541
  172MOL0     C23612   1.550   1.018   1.141  0.7127 -0.7294  0.0030
  172MOL0     C23613   1.499   1.098   1.018 -0.0557  0.4882  0.3304
  172MOL0     C23614   1.492   1.013   0.890 -0.3034 -0.2250 -0.0301
  172MOL0     N23615   1.357   1.011   0.822 -0.4042  0.2859 -0.1557
  172MOL0     C23616   1.262   1.106   0.804  0.6814  0.1038  1.0665
  172MOL0     C23617   1.161   1.036   0.737  0.8662 -0.0568 -0.7481
  172MOL0     C23618   1.037   1.107   0.679 -0.7136 -0.5198 -0.4884
  172MOL0     C23619   0.926   1.122   0.781  0.2983  0.1275  0.0167
  172MOL0     C23620   0.907   1.264   0.832 -0.0381 -0.3199  0.2720
  172MOL0     C23621   0.789   1.279   0.930  0.2971 -0.5750 -0.0689
  172MOL0     O23622   0.797   1.417   0.972  0.6046  0.1063  0.0326
  172MOL0     C23623   0.683   1.496   0.951  0.1817 -0.0464 -0.2105
  172MOL0     C23624   0.669   1.601   1.049 -0.4123  0.6452 -0.3816
  172MOL0     C23625   0.553   1.673   1.055  0.4131  0.3665  0.0364
  172MOL0     C23626   0.551   1.780   1.167  0.4148  0.1035  0.1391
  172MOL0     C23627   0.449   1.642   0.964  0.2023 -0.5154 -0.4335
  172MOL0     C23628   0.314   1.716   0.966 -0.6083 -0.5767  0.6345
  172MOL0     O23629   0.307   1.836   1.025 -0.6335 -0.7181  0.8358
  172MOL0     C23630   0.191   1.903   1.018  0.7654 -0.5637 -0.0628
  172MOL0     C23631   0.156   2.003   0.925 -0.1381  0.1723 -0.9473
  172MOL0     C23632   0.029   2.069   0.932 -0.3325  0.9890  0.1250
  172MOL0     C23633  -0.058   2.028   1.037 -0.9577 -0.0614  0.7702
  172MOL0     O23634  -0.171   2.094   1.053 -0.1266  0.0667 -0.0457
  172MOL0     C23635  -0.280   2.048   1.122  0.1044  0.7521  0.0927
  172MOL0     C23636  -0.374   2.170   1.161 -0.2708 -0.3407  0.0972
  172MOL0     C23637  -0.498   2.117   1.230 -1.1003 -0.1234  0.2209
  172MOL0     C23638  -0.602   2.225   1.254 -0.6677  0.6147  0.8121
  172MOL0     C23639  -0.674   2.273   1.128 -0.3549 -0.3961  0.4176
  172MOL0     C23640  -0.746   2.410   1.124 -0.0153  0.1709 -0.2492
  172MOL0     C23641  -0.846   2.451   1.233 -0.0695 -0.3624 -0.1404
  172MOL0     C23642  -0.976   2.381   1.223  0.4020  0.4690 -0.5537
  172MOL0    Cl23643  -1.087   2.459   1.344  0.0409 -0.6777  0.3241
  172MOL0     C23644  -0.029   1.915   1.113  0.4228  0.1600  0.6651
  172MOL0     C23645   0.101   1.863   1.113  0.2540  0.3570  0.2877
  172MOL0     O23646   0.230   1.666   0.897  0.3541 -0.0633 -0.6206
  172MOL0     C23647   0.463   1.540   0.874  0.5784  0.8222 -0.4868
  172MOL0     C23648   0.587   1.476   0.859  0.3771  1.1301  0.3799
  172MOL0     N23649   1.208   0.915   0.698  0.1222  0.0681 -0.4935
  172MOL0     N23650   1.325   0.894   0.752 -0.3394 -0.4507  0.1322
  172MOL0     C23651   1.691   1.490   1.530  0.3923 -0.5877 -0.1709
  172MOL0     C23652   1.550   1.530   1.513 -0.7951  0.2290 -0.7286
  172MOL0     C23653   1.121   1.474   1.440 -0.3804 -1.0229 -0.4723
  172MOL0     C23654   1.100   1.571   1.540 -0.2684  0.0573 -0.2684
  172MOL0     C23655   0.974   1.619   1.572 -0.4073 -0.9135 -0.2953
  172MOL0     C23656   0.859   1.566   1.507 -0.6124  0.6306 -0.9336
  172MOL0     O23657   0.730   1.602   1.560 -0.5370 -0.3499  0.1143
  172MOL0     C23658   0.618   1.546   1.492 -0.3214  0.0049 -0.2794
  172MOL0     C23659   0.519   1.658   1.538 -0.4360  0.6084  0.0893
  172MOL0     C23660   0.368   1.628   1.502 -1.2703  0.3400  1.0785
  172MOL0     C23661   0.284   1.743   1.560 -0.2552  0.1513 -0.0026
  172MOL0     C23662   0.145   1.707   1.559  0.3687  0.0292 -0.0209
  172MOL0     C23663   0.025   1.682   1.565  0.2736  0.7112  1.2428
  172MOL0     C23664   0.889   1.466   1.406  0.7283 -0.8225  0.1692
  172MOL0     C23665   1.011   1.415   1.373  0.6135 -0.1733  0.3262
  172MOL0     C23666   1.026   1.315   1.265 -0.6835 -0.1589  0.1729
  172MOL0     H23667   1.509   1.405   1.198 -0.6291 -0.8848  0.0683
  172MOL0     H23668   1.727   1.345   1.216 -1.0337 -0.0536 -1.1055
  172MOL0     H23669   2.016   1.214   1.416 -0.3833 -0.6748 -0.1251
  172MOL0     H23670   1.899   1.258   1.285  0.8803  2.1677  0.0856
  172MOL0     H23671   1.851   1.104   1.548  0.4020  0.5659 -0.7135
  172MOL0     H23672   1.720   1.142   1.441  0.1433 -0.5500  3.1859
  172MOL0     H23673   1.931   0.996   1.297  0.6746 -1.5384 -0.0101
  172MOL0     H23674   1.878   0.911   1.433 -2.2008 -0.6140 -1.6455
  172MOL0     H23675   1.731   0.825   1.269  0.8790  0.3093 -0.0126
  172MOL0     H23676   1.645   0.944   1.371 -0.8656  3.1535 -0.8811
  172MOL0     H23677   1.740   0.962   1.080  1.5361  2.3498 -0.2675
  172MOL0     H23678   1.735   1.116   1.166 -0.3901  0.2314 -1.7217
  172MOL0     H23679   1.524   0.913   1.128 -0.1001 -0.3697 -1.4952
  172MOL0     H23680   1.492   1.050   1.228  0.0115 -0.8350 -0.4145
  172MOL0     H23681   1.577   1.171   0.995  1.2730 -0.9233  0.1382
  172MOL0     H23682   1.400   1.137   1.043  1.2006  4.2187  0.0244
  172MOL0     H23683   1.573   1.032   0.818  0.3085 -1.9681  0.1649
  172MOL0     H23684   1.510   0.908   0.913 -2.5987 -0.2252  2.0933
  172MOL0     H23685   1.285   1.206   0.837  2.4469  0.1310 -0.0974
  172MOL0     H23686   1.000   1.038   0.604 -0.4118 -1.2238 -0.0033
  172MOL0     H23687   1.069   1.205   0.642 -0.8304  0.0201  0.7710
  172MOL0     H23688   0.833   1.089   0.732  0.5882  0.1220 -0.5361
  172MOL0     H23689   0.945   1.057   0.867 -0.0393 -1.5017 -1.0824
  172MOL0     H23690   0.999   1.304   0.876 -0.6598  0.2322  1.1030
  172MOL0     H23691   0.881   1.323   0.744 -0.7028  0.4064  0.9356
  172MOL0     H23692   0.695   1.239   0.890 -1.9893  2.9140  1.2566
  172MOL0     H23693   0.809   1.220   1.019 -0.4940  1.9408  1.8949
  172MOL0     H23694   0.747   1.607   1.124 -2.1935 -0.5523  1.6955
  172MOL0     H23695   0.466   1.765   1.232 -1.0923 -0.6902 -1.9052
  172MOL0     H23696   0.538   1.877   1.117 -1.0574 -0.8881 -1.5042
  172MOL0     H23697   0.641   1.785   1.229 -0.3338  4.3606  1.2238
  172MOL0     H23698   0.222   2.020   0.841 -1.5405  2.5908 -1.6346
  172MOL0     H23699   0.007   2.161   0.878  1.8344  1.8393  0.5675
  172MOL0     H23700  -0.324   1.977   1.052 -0.0896  1.5433 -0.6105
  172MOL0     H23701  -0.252   2.000   1.216 -2.4658 -0.9154  0.0921
  172MOL0     H23702  -0.321   2.235   1.231 -0.1764 -0.2961 -0.0171
  172MOL0     H23703  -0.386   2.233   1.072  2.2054 -1.1812 -0.9301
  172MOL0     H23704  -0.471   2.071   1.325 -2.2396 -1.5869 -0.1225
  172MOL0     H23705  -0.532   2.037   1.164 -1.0255 -0.0459  0.0896
  172MOL0     H23706  -0.552   2.305   1.310  0.8804 -0.3607  0.8824
  172MOL0     H23707  -0.678   2.180   1.319 -0.1964 -2.0680 -0.3562
  172MOL0     H23708  -0.602   2.275   1.046 -0.6986 -1.2005  0.0841
  172MOL0     H23709  -0.752   2.200   1.100 -2.2777  0.3039  3.4032
  172MOL0     H23710  -0.790   2.426   1.025 -0.8140  0.6535  0.1803
  172MOL0     H23711  -0.668   2.487   1.131 -0.9206  0.9560  2.9929
  172MOL0     H23712  -0.858   2.560   1.225 -0.3826 -0.3938 -0.0732
  172MOL0     H23713  -0.794   2.447   1.329 -0.2519  0.6873  0.0209
  172MOL0     H23714  -0.969   2.274   1.242 -2.8686  0.5496  1.8683
  172MOL0     H23715  -1.016   2.399   1.123  1.4944 -0.0478 -1.1005
  172MOL0     H23716  -0.091   1.871   1.191  1.4459 -0.1953  1.3086
  172MOL0     H23717   0.130   1.797   1.194  4.0869  3.6600  1.9617
  172MOL0     H23718   0.389   1.520   0.797 -2.5925  1.6727  2.0946
  172MOL0     H23719   0.594   1.406   0.776 -1.2865  1.7544 -0.3351
  172MOL0     H23720   1.754   1.503   1.618  0.0287  0.2061 -0.0191
  172MOL0     H23721   1.498   1.590   1.587 -1.4236 -0.9254 -0.2066
  172MOL0     H23722   1.179   1.613   1.602  1.4217  0.7903 -2.7472
  172MOL0     H23723   0.961   1.711   1.629 -2.8314 -1.5167  0.2223
  172MOL0     H23724   0.623   1.539   1.382 -2.1816 -2.0522 -0.2974
  172MOL0     H23725   0.586   1.446   1.523  2.4147 -0.8907 -0.1122
  172MOL0     H23726   0.538   1.753   1.487 -1.4849  0.6565 -0.2508
  172MOL0     H23727   0.533   1.668   1.646  0.0424 -1.7546  0.2864
  172MOL0     H23728   0.368   1.627   1.393 -1.8151  0.4626  1.0742
  172MOL0     H23729   0.330   1.532   1.536  2.6179 -0.3771  4.1553
  172MOL0     H23730   0.296   1.834   1.501 -0.8127 -0.3131 -0.8535
  172MOL0     H23731   0.311   1.754   1.666 -0.5454 -4.8344  0.8494
  172MOL0     H23732  -0.082   1.670   1.564  0.3327 -1.0172 -2.6996
  172MOL0     H23733   0.805   1.420   1.355 -0.4924  1.5541 -0.1284
  172MOL0     H23734   1.091   1.358   1.189  0.6133 -0.1724  1.2463
  172MOL0     H23735   1.070   1.218   1.293  1.2543  0.5421 -0.3127
  172MOL0     H23736   0.924   1.306   1.225 -0.4773  0.3754 -0.4847
  173MOL0     O23737   0.168   2.663   8.776 -0.2819 -0.4605  0.1302
  173MOL0     C23738   0.131   2.730   8.874 -0.0714  0.0312 -0.4850
  173MOL0     O23739   0.217   2.779   8.971 -0.1694  0.6179  0.1362
  173MOL0     C23740   0.348   2.783   8.940  0.1900 -0.0199 -0.8423
  173MOL0     C23741   0.394   2.892   8.865 -0.3415 -0.1940  0.1296
  173MOL0     C23742   0.530   2.891   8.830 -1.1364 -0.2895  0.5469
  173MOL0     C23743   0.623   2.810   8.894  1.7780 -0.2332  0.0742
  173MOL0     O23744   0.750   2.840   8.887  0.7472 -0.0153 -0.3860
  173MOL0     C23745   0.838   2.827   9.001 -0.1153 -0.2448 -0.4654
  173MOL0     C23746   0.926   2.944   9.025  0.0873  0.2336  0.7423
  173MOL0     C23747   1.031   2.962   8.919 -0.0431  0.0508  0.6173
  173MOL0     C23748   1.181   2.937   8.960 -0.1623 -0.2857  0.4876
  173MOL0     C23749   1.273   2.988   8.852  0.4332  0.1273  0.5820
  173MOL0     C23750   1.411   3.009   8.916 -0.3514  0.6293  0.3627
  173MOL0     C23751   1.488   3.114   8.829 -0.3714  0.2485  0.2038
  173MOL0     C23752   1.639   3.110   8.861 -1.7029 -0.3780 -0.7675
  173MOL0     N23753   1.723   3.009   8.796  0.3436  0.8060 -0.5127
  173MOL0     C23754   1.765   2.885   8.851 -0.0448  1.0673  0.0183
  173MOL0     C23755   1.841   2.826   8.757  0.2712  0.2055 -0.5484
  173MOL0     C23756   1.924   2.692   8.760  1.0472 -0.0677 -0.8670
  173MOL0     C23757   1.860   2.596   8.662 -0.3434  0.0460  0.5411
  173MOL0     C23758   1.958   2.476   8.652 -0.2587 -0.1144 -0.6563
  173MOL0     C23759   2.092   2.486   8.581  0.1991 -0.1214  0.2093
  173MOL0     O23760   2.157   2.360   8.585  0.5872  1.1378 -0.0863
  173MOL0     C23761   2.293   2.349   8.550  0.0412 -0.0511  0.9005
  173MOL0     C23762   2.369   2.248   8.599  0.4674 -0.3156 -0.4011
  173MOL0     C23763   2.511   2.251   8.579  1.0682  0.5055 -0.4050
  173MOL0     C23764   2.593   2.151   8.654 -0.1135  0.3765  0.3167
  173MOL0     C23765   2.568   2.347   8.499  0.7882  1.0441 -0.5188
  173MOL0     C23766   2.712   2.350   8.454 -0.2179 -0.0302 -0.5835
  173MOL0     O23767   2.761   2.460   8.388  0.7843 -0.2740  0.6473
  173MOL0     C23768   2.892   2.465   8.353  0.1800  0.0869  0.2221
  173MOL0     C23769   2.997   2.471   8.446  0.5189 -0.6382 -0.1500
  173MOL0     C23770   3.124   2.484   8.409  0.2909 -0.5889 -0.0505
  173MOL0     C23771   3.167   2.488   8.273  0.1626 -1.1732  0.6673
  173MOL0     O23772   3.303   2.496   8.235 -0.2734 -0.7761 -0.1290
  173MOL0     C23773   3.338   2.567   8.118  0.5893 -0.6020  0.8138
  173MOL0     C23774   3.382   2.718   8.143 -0.1293  0.9874  0.0151
  173MOL0     C23775   3.539   2.731   8.137  0.8097  0.1874  0.2006
  173MOL0     C23776   3.590   2.844   8.210 -0.1673  0.1990  0.6834
  173MOL0     C23777   3.750   2.842   8.182 -0.4119 -0.7775 -0.5944
  173MOL0     C23778   3.827   2.963   8.228 -0.1654  0.1996 -0.3126
  173MOL0     C23779   3.959   2.984   8.155  0.8013  0.5918  0.0382
  173MOL0     C23780   4.042   2.859   8.147 -0.1683 -0.5353 -0.1887
  173MOL0    Cl23781   4.056   2.782   8.317  0.6558 -0.0618  0.2957
  173MOL0     C23782   3.065   2.467   8.183  0.0653  0.4276 -0.1638
  173MOL0     C23783   2.932   2.458   8.225  0.9042 -1.0537  0.1756
  173MOL0     O23784   2.771   2.240   8.459  0.5599 -0.1777 -0.2184
  173MOL0     C23785   2.495   2.437   8.428  0.0672 -0.0733 -0.1735
  173MOL0     C23786   2.358   2.435   8.453 -0.4322  0.0117  0.2408
  173MOL0     N23787   1.850   2.910   8.646  0.3881 -0.7248 -0.0116
  173MOL0     N23788   1.766   3.006   8.668 -0.5565  0.0732 -0.2207
  173MOL0     C23789   0.575   2.702   8.973 -0.0316 -0.2824 -1.1220
  173MOL0     C23790   0.437   2.682   8.986 -0.0806  0.3638 -0.3613
  173MOL0     C23791  -0.014   2.750   8.882  0.2186  0.3217  0.0447
  173MOL0     C23792  -0.092   2.645   8.830  0.2668 -0.5450 -0.0275
  173MOL0     C23793  -0.230   2.650   8.820  0.8798  0.4409  0.2959
  173MOL0     C23794  -0.304   2.755   8.878 -0.2974  0.1885  0.0718
  173MOL0     O23795  -0.442   2.750   8.883 -0.3641 -0.0848 -0.7712
  173MOL0     C23796  -0.513   2.738   8.759  0.1430 -0.2893  0.2884
  173MOL0     C23797  -0.625   2.840   8.752 -0.0680  0.1084  0.4794
  173MOL0     C23798  -0.739   2.821   8.842 -0.0306  0.5260 -0.5352
  173MOL0     C23799  -0.848   2.922   8.825  0.4687  0.0289  0.5280
  173MOL0     C23800  -0.971   2.859   8.863  1.2712  0.3965  0.6488
  173MOL0     C23801  -1.072   2.790   8.896  0.4327  0.0536 -0.3808
  173MOL0     C23802  -0.228   2.862   8.931  0.6335 -0.2989 -0.6364
  173MOL0     C23803  -0.080   2.860   8.925  0.0670  0.3362 -0.1466
  173MOL0     C23804  -0.006   2.968   8.992 -0.4569 -0.8378  0.2401
  173MOL0     H23805   0.316   2.938   8.804  0.6238 -2.4734 -3.0679
  173MOL0     H23806   0.573   2.959   8.756 -1.1985 -0.5896  0.2344
  173MOL0     H23807   0.906   2.741   9.002  1.8146  1.1780  1.9820
  173MOL0     H23808   0.782   2.830   9.095 -2.1140  5.0555 -1.5054
  173MOL0     H23809   0.859   3.029   9.042 -0.1722  0.0030  0.8912
  173MOL0     H23810   0.976   2.935   9.122 -0.7106  2.6229  1.4633
  173MOL0     H23811   1.005   2.895   8.836 -1.1866  0.1472  0.8852
  173MOL0     H23812   1.017   3.067   8.893  1.0156  0.2446  0.7876
  173MOL0     H23813   1.197   2.997   9.050 -2.5779  1.6466 -0.2454
  173MOL0     H23814   1.187   2.829   8.974  1.5223 -0.1412  1.0485
  173MOL0     H23815   1.232   3.082   8.813  3.3692  0.8868 -1.0084
  173MOL0     H23816   1.279   2.924   8.764  0.5630  1.4709 -0.4174
  173MOL0     H23817   1.411   3.043   9.020  1.8981 -0.9891  0.9658
  173MOL0     H23818   1.457   2.910   8.922 -0.6534  0.4422 -0.3105
  173MOL0     H23819   1.435   3.208   8.847 -0.3458 -0.0005  1.7035
  173MOL0     H23820   1.491   3.090   8.722  2.5155 -0.0749  0.2806
  173MOL0     H23821   1.683   3.210   8.852  0.3694 -1.3565 -2.3311
  173MOL0     H23822   1.657   3.084   8.966 -0.7631  0.4156 -0.7205
  173MOL0     H23823   1.751   2.843   8.950  2.8499 -1.2639 -0.4181
  173MOL0     H23824   1.926   2.648   8.860 -0.7320  2.0449  0.1787
  173MOL0     H23825   2.026   2.720   8.730  0.5404  1.2909 -1.4077
  173MOL0     H23826   1.757   2.568   8.688 -0.8909 -0.5320 -1.9604
  173MOL0     H23827   1.854   2.634   8.559  0.4065  1.1453  0.8850
  173MOL0     H23828   1.982   2.430   8.748 -0.1709 -1.8324 -1.4579
  173MOL0     H23829   1.900   2.398   8.600 -3.0149  1.1793  0.2938
  173MOL0     H23830   2.072   2.516   8.478 -1.9197 -0.9548  0.3240
  173MOL0     H23831   2.149   2.567   8.625  0.3824 -0.7200  1.0902
  173MOL0     H23832   2.318   2.194   8.678 -0.1156  2.1122  0.9733
  173MOL0     H23833   2.534   2.129   8.743 -0.8424  0.3199 -0.1702
  173MOL0     H23834   2.688   2.197   8.683 -0.3535  1.3467 -0.3609
  173MOL0     H23835   2.601   2.062   8.591  0.7815  1.8226 -1.7808
  173MOL0     H23836   2.974   2.464   8.552 -3.6854  2.0524 -0.6399
  173MOL0     H23837   3.202   2.483   8.484  0.7020 -0.4142 -0.4736
  173MOL0     H23838   3.412   2.509   8.062 -0.5010 -1.3772  0.1373
  173MOL0     H23839   3.256   2.577   8.046  2.3153  0.2564 -1.1632
  173MOL0     H23840   3.332   2.772   8.062  0.6978  1.2143 -0.3537
  173MOL0     H23841   3.336   2.748   8.237 -2.0903 -0.1592 -0.5399
  173MOL0     H23842   3.577   2.722   8.035  0.2104  0.6957 -0.0725
  173MOL0     H23843   3.580   2.643   8.188  1.5320  0.2888 -0.1976
  173MOL0     H23844   3.570   2.822   8.315 -2.3443 -3.5766 -0.3553
  173MOL0     H23845   3.544   2.933   8.166 -1.6393 -1.9973 -2.6126
  173MOL0     H23846   3.783   2.747   8.226  0.1111  0.5303  2.0911
  173MOL0     H23847   3.764   2.840   8.074  1.1605  0.5154 -0.4458
  173MOL0     H23848   3.831   2.965   8.337 -1.1193  3.2810 -0.2360
  173MOL0     H23849   3.767   3.054   8.215 -1.1952 -0.3019  0.7757
  173MOL0     H23850   4.014   3.060   8.212  1.4220  0.6250 -0.5887
  173MOL0     H23851   3.942   3.012   8.050 -0.7869 -1.4615 -0.3119
  173MOL0     H23852   4.143   2.888   8.115  0.2630  0.2244  1.7044
  173MOL0     H23853   4.005   2.792   8.069 -1.3392 -0.6742  0.4681
  173MOL0     H23854   3.091   2.465   8.077  0.3605  0.6210 -0.0961
  173MOL0     H23855   2.858   2.448   8.145 -0.5926  1.5321  1.1140
  173MOL0     H23856   2.547   2.507   8.364  2.6879  0.1601  2.0496
  173MOL0     H23857   2.298   2.507   8.398  1.0127  2.3698  1.6017
  173MOL0     H23858   0.651   2.640   9.020 -0.9501 -1.8042 -1.5775
  173MOL0     H23859   0.401   2.591   9.032 -1.7149  0.5039 -1.3121
  173MOL0     H23860  -0.046   2.553   8.797  1.2164  0.1936 -0.8090
  173MOL0     H23861  -0.284   2.563   8.783  2.6994 -1.8644  2.6529
  173MOL0     H23862  -0.449   2.765   8.674 -0.9670  3.3214  0.4380
  173MOL0     H23863  -0.561   2.641   8.740  2.7070 -1.2519 -2.0437
  173MOL0     H23864  -0.667   2.832   8.651 -3.3119  1.3874  1.5834
  173MOL0     H23865  -0.585   2.941   8.753  0.5545 -0.0684 -1.5013
  173MOL0     H23866  -0.773   2.722   8.808  0.8234 -1.8600  4.5649
  173MOL0     H23867  -0.715   2.819   8.949 -0.5863  2.4487 -0.3369
  173MOL0     H23868  -0.855   2.962   8.724 -0.4320  0.5807  0.8012
  173MOL0     H23869  -0.841   3.000   8.901 -0.7660  0.9501 -0.2723
  173MOL0     H23870  -1.155   2.740   8.940 -0.9357  2.3904 -0.1296
  173MOL0     H23871  -0.270   2.942   8.991 -1.6604 -3.0870  1.7691
  173MOL0     H23872   0.043   2.939   9.086 -1.1738 -0.8144  0.6243
  173MOL0     H23873   0.074   2.992   8.921  0.0388 -0.1054  1.0325
  173MOL0     H23874  -0.059   3.063   8.995 -2.4205 -1.7733 -1.9904
  174MOL0     O23875   5.963   1.628   5.070 -0.2398 -0.2439  0.8972
  174MOL0     C23876   5.936   1.522   5.012  0.4089 -0.1230 -0.4459
  174MOL0     O23877   6.022   1.432   4.960 -0.4563  0.0733  0.0737
  174MOL0     C23878   6.149   1.426   5.013 -0.8432  0.5037  0.4568
  174MOL0     C23879   6.245   1.512   4.960 -0.6616 -0.2319 -0.1611
  174MOL0     C23880   6.375   1.510   5.013  1.0183  0.2730  0.5880
  174MOL0     C23881   6.421   1.410   5.102  0.4140 -0.6841  0.3358
  174MOL0     O23882   6.556   1.396   5.125  0.4593 -0.2583 -0.2993
  174MOL0     C23883   6.592   1.327   5.246 -0.4946 -0.3168  0.1280
  174MOL0     C23884   6.557   1.395   5.370  0.0927 -0.1013 -0.4628
  174MOL0     C23885   6.612   1.533   5.386 -0.5978 -0.5775 -0.2663
  174MOL0     C23886   6.511   1.632   5.462  0.4841  0.3737  0.3584
  174MOL0     C23887   6.412   1.675   5.351  0.4116 -0.1899  0.4919
  174MOL0     C23888   6.292   1.759   5.389  0.6484 -0.7631 -0.4428
  174MOL0     C23889   6.201   1.696   5.491 -0.3452 -0.5858 -0.4310
  174MOL0     C23890   6.114   1.586   5.442 -0.0961  1.2665  0.2023
  174MOL0     N23891   6.021   1.522   5.539 -0.9632 -0.1031 -0.3919
  174MOL0     C23892   5.939   1.590   5.621 -0.2174  0.0135 -0.3737
  174MOL0     C23893   5.874   1.490   5.693 -1.1019 -0.3155  0.5971
  174MOL0     C23894   5.760   1.517   5.787 -0.8069 -0.1093 -0.3446
  174MOL0     C23895   5.781   1.631   5.895 -0.5961 -0.2189  0.7171
  174MOL0     C23896   5.908   1.606   5.986  0.3458 -0.5739  0.6739
  174MOL0     C23897   5.992   1.727   6.025  0.4128  0.4629 -0.4206
  174MOL0     O23898   6.052   1.781   5.910  0.1074  0.1190 -0.3737
  174MOL0     C23899   6.187   1.815   5.908 -0.7266 -0.3777  0.3482
  174MOL0     C23900   6.293   1.768   5.986  0.5375 -1.0762  0.0124
  174MOL0     C23901   6.423   1.802   5.963 -0.5472 -0.3680  0.2472
  174MOL0     C23902   6.517   1.740   6.064  1.1551 -0.1279 -0.7661
  174MOL0     C23903   6.458   1.879   5.848  0.7176  1.2432  0.4861
  174MOL0     C23904   6.593   1.916   5.817 -0.6612 -0.0180 -0.5718
  174MOL0     O23905   6.613   1.976   5.694 -0.4430 -0.2585  0.0213
  174MOL0     C23906   6.733   1.978   5.628 -0.3445  0.3808 -0.1310
  174MOL0     C23907   6.730   2.024   5.491 -0.2897  0.5135 -0.7147
  174MOL0     C23908   6.841   2.021   5.406  0.6623 -0.1103  0.2893
  174MOL0     C23909   6.953   1.956   5.447 -0.3444 -0.3252 -0.6457
  174MOL0     O23910   7.052   1.952   5.359 -0.0502  0.0078  0.3951
  174MOL0     C23911   7.152   1.860   5.375 -0.7009 -0.0473 -0.1189
  174MOL0     C23912   7.259   1.854   5.271  0.2839  0.4203 -0.1941
  174MOL0     C23913   7.364   1.970   5.292 -0.2291  0.2442  0.9370
  174MOL0     C23914   7.460   1.981   5.176 -0.2267 -0.1492 -0.0288
  174MOL0     C23915   7.570   2.087   5.190 -0.4666 -1.1647 -0.6546
  174MOL0     C23916   7.677   2.053   5.092 -0.3539  0.3441 -0.1924
  174MOL0     C23917   7.791   2.145   5.102  0.2798 -0.5903 -0.1853
  174MOL0     C23918   7.904   2.094   5.020  0.3939  0.0445  1.6567
  174MOL0    Cl23919   8.055   2.191   5.056  0.0733 -0.1068  0.3665
  174MOL0     C23920   6.954   1.898   5.572  0.0991  0.7209 -0.4115
  174MOL0     C23921   6.852   1.908   5.662 -1.3272 -0.0167 -0.6726
  174MOL0     O23922   6.679   1.912   5.906 -0.4048  0.9862 -0.7046
  174MOL0     C23923   6.352   1.932   5.764  0.4211 -0.2413 -0.0477
  174MOL0     C23924   6.222   1.895   5.794  0.2529 -0.3343 -1.4158
  174MOL0     N23925   5.911   1.370   5.648 -0.1174  0.4118 -0.0011
  174MOL0     N23926   6.000   1.385   5.552 -0.4110  0.2610 -0.2774
  174MOL0     C23927   6.315   1.323   5.150  0.4361 -0.0736 -1.6697
  174MOL0     C23928   6.181   1.333   5.106  0.0315  0.0540  0.7774
  174MOL0     C23929   5.790   1.492   5.002  0.2517  0.0207 -1.2970
  174MOL0     C23930   5.752   1.391   4.907 -1.1092  0.5063 -0.0639
  174MOL0     C23931   5.620   1.363   4.887 -0.8159  0.7980  0.4504
  174MOL0     C23932   5.519   1.421   4.959 -0.5519  0.4050  0.0376
  174MOL0     O23933   5.388   1.402   4.941  0.9068 -0.0491  0.3779
  174MOL0     C23934   5.344   1.293   4.852 -0.0085  0.8149 -0.4810
  174MOL0     C23935   5.188   1.269   4.862 -0.1138  0.5116  0.2497
  174MOL0     C23936   5.130   1.176   4.967  0.5748  0.7890 -0.4084
  174MOL0     C23937   5.197   1.191   5.100 -0.1811 -0.4943  0.0910
  174MOL0     C23938   5.129   1.120   5.211  0.0823 -0.0220 -0.9153
  174MOL0     C23939   5.064   1.088   5.308  0.4440  0.5983 -0.2783
  174MOL0     C23940   5.555   1.510   5.053 -0.7218  0.5835 -0.3118
  174MOL0     C23941   5.684   1.559   5.074  0.3328  0.2394  0.6875
  174MOL0     C23942   5.697   1.678   5.177 -0.1793 -0.0918  0.7756
  174MOL0     H23943   6.224   1.593   4.891  2.7514  1.9647  1.1046
  174MOL0     H23944   6.446   1.583   4.974  0.4971  0.1892 -0.5289
  174MOL0     H23945   6.701   1.337   5.244 -0.3998 -0.8099  1.4808
  174MOL0     H23946   6.561   1.222   5.247 -1.6033 -0.0438 -1.5946
  174MOL0     H23947   6.447   1.392   5.377 -0.0035  1.8715 -0.6573
  174MOL0     H23948   6.609   1.338   5.447 -2.0688 -1.6544 -0.0609
  174MOL0     H23949   6.703   1.533   5.446 -1.3423 -0.2020  0.9025
  174MOL0     H23950   6.641   1.581   5.292  1.2316 -2.2674 -0.6188
  174MOL0     H23951   6.465   1.576   5.543 -0.3951  0.1937 -0.2591
  174MOL0     H23952   6.555   1.717   5.515 -1.0448  0.3267  1.7928
  174MOL0     H23953   6.372   1.584   5.306 -0.2371  0.3590 -0.0658
  174MOL0     H23954   6.479   1.725   5.281  0.7258  0.6258  1.3439
  174MOL0     H23955   6.327   1.858   5.421 -0.3920  0.7354 -3.4544
  174MOL0     H23956   6.227   1.777   5.302 -0.5126  1.1438  0.7484
  174MOL0     H23957   6.140   1.775   5.535  1.1259  2.5363 -3.5570
  174MOL0     H23958   6.248   1.658   5.582 -2.0388  1.3552  1.3651
  174MOL0     H23959   6.058   1.628   5.358  0.5808  1.1219 -0.3236
  174MOL0     H23960   6.169   1.500   5.404  2.0439  2.0813  1.3213
  174MOL0     H23961   5.928   1.698   5.625 -0.7555 -0.0620  2.5702
  174MOL0     H23962   5.732   1.432   5.850 -2.6256  2.0423  1.9350
  174MOL0     H23963   5.678   1.548   5.721  0.2125 -0.5626 -1.9037
  174MOL0     H23964   5.782   1.732   5.854 -0.0676  0.3564  2.0584
  174MOL0     H23965   5.690   1.617   5.954 -1.7356 -2.1852 -1.3405
  174MOL0     H23966   5.871   1.554   6.074 -3.0031  1.1865  0.4486
  174MOL0     H23967   5.973   1.532   5.937  3.1083  1.3230  1.2385
  174MOL0     H23968   5.930   1.798   6.080  1.7359 -0.5221  2.5901
  174MOL0     H23969   6.064   1.696   6.101 -0.1128 -0.9584 -0.4601
  174MOL0     H23970   6.262   1.698   6.063 -0.3292 -1.4145 -0.6290
  174MOL0     H23971   6.485   1.638   6.087 -1.9514  0.2292 -2.8660
  174MOL0     H23972   6.529   1.794   6.158 -1.0335 -0.4284 -0.2589
  174MOL0     H23973   6.620   1.727   6.027  1.0124  0.6692 -1.4763
  174MOL0     H23974   6.640   2.082   5.471 -1.1386  0.6059  2.7934
  174MOL0     H23975   6.831   2.060   5.305 -1.2578 -1.0022  0.0890
  174MOL0     H23976   7.205   1.879   5.469  0.0557  1.0027 -0.7392
  174MOL0     H23977   7.112   1.759   5.389  3.5007 -2.1145 -1.2114
  174MOL0     H23978   7.309   1.758   5.282  1.5018  1.1422  0.8334
  174MOL0     H23979   7.210   1.861   5.174 -0.2769  0.3301  0.0733
  174MOL0     H23980   7.411   1.944   5.387 -0.2546 -1.1633  0.5776
  174MOL0     H23981   7.300   2.059   5.296  0.8443  1.3331 -2.4693
  174MOL0     H23982   7.405   1.983   5.081  1.6565  0.5072 -1.1663
  174MOL0     H23983   7.503   1.881   5.171  1.2165  0.4390  0.0445
  174MOL0     H23984   7.522   2.183   5.170  0.9159 -0.3524 -0.1990
  174MOL0     H23985   7.600   2.091   5.295 -0.2486 -3.1538 -0.6153
  174MOL0     H23986   7.624   2.062   4.997 -0.3504  2.4996 -0.0362
  174MOL0     H23987   7.715   1.953   5.114 -2.1612 -0.6846 -1.4738
  174MOL0     H23988   7.825   2.155   5.205  0.6953 -2.3882 -0.1134
  174MOL0     H23989   7.768   2.246   5.066  0.4022  0.3495  2.1741
  174MOL0     H23990   7.877   2.108   4.915 -2.0163 -2.4552  1.8323
  174MOL0     H23991   7.930   1.990   5.042  0.1401  0.2081  2.7839
  174MOL0     H23992   7.037   1.846   5.620 -2.8964 -3.1217  1.1265
  174MOL0     H23993   6.873   1.865   5.759 -1.0222 -1.7819 -1.4976
  174MOL0     H23994   6.382   2.005   5.689  2.3185 -0.2700  0.6217
  174MOL0     H23995   6.131   1.917   5.739 -0.0896 -2.3270 -1.7325
  174MOL0     H23996   6.335   1.257   5.234 -0.8993  2.1681  0.5472
  174MOL0     H23997   6.100   1.266   5.135 -0.8250  1.0610  0.7994
  174MOL0     H23998   5.821   1.334   4.845 -0.9248 -2.4681  2.6374
  174MOL0     H23999   5.596   1.294   4.806 -0.0996  2.5122 -1.3051
  174MOL0     H24000   5.377   1.339   4.758  3.6571  0.0351  0.2804
  174MOL0     H24001   5.401   1.202   4.871 -0.9945  0.0799 -0.9959
  174MOL0     H24002   5.145   1.224   4.772  1.1475  0.6356 -0.4459
  174MOL0     H24003   5.145   1.368   4.878  0.3798  0.8291 -0.3208
  174MOL0     H24004   5.025   1.194   4.990 -0.3879 -3.0193 -1.1563
  174MOL0     H24005   5.130   1.075   4.926 -1.8171  0.3871  0.4209
  174MOL0     H24006   5.204   1.300   5.109  1.3918  0.0029 -4.3571
  174MOL0     H24007   5.300   1.158   5.084  0.9695  2.8049 -0.0419
  174MOL0     H24008   4.990   1.044   5.373 -2.2647  2.8401 -1.6065
  174MOL0     H24009   5.477   1.567   5.103  0.9088  2.6609  0.0502
  174MOL0     H24010   5.779   1.649   5.244  1.5237 -2.5102 -2.0814
  174MOL0     H24011   5.732   1.766   5.121 -2.9946  1.4143  1.2158
  174MOL0     H24012   5.601   1.713   5.216 -0.7674  0.3655 -0.9924
  175MOL0     O24013   0.946  11.393   4.713 -0.3064 -0.5145 -0.0454
  175MOL0     C24014   0.989  11.503   4.671  0.0684  0.4897 -0.6064
  175MOL0     O24015   0.909  11.606   4.626  0.3147 -0.6634  0.6516
  175MOL0     C24016   0.780  11.594   4.653  0.1397 -0.7842  0.2310
  175MOL0     C24017   0.736  11.635   4.781  0.1812 -0.1730  0.0975
  175MOL0     C24018   0.604  11.614   4.824 -1.1206 -0.8782  0.1537
  175MOL0     C24019   0.513  11.553   4.733  0.8005 -0.2318 -0.8364
  175MOL0     O24020   0.382  11.532   4.777 -0.3422  0.3803 -0.1601
  175MOL0     C24021   0.328  11.396   4.776 -1.0620  0.2508 -0.5548
  175MOL0     C24022   0.194  11.403   4.849 -0.5099  0.1731  0.1757
  175MOL0     C24023   0.155  11.261   4.891 -0.4262  0.2336 -0.7119
  175MOL0     C24024   0.010  11.277   4.949  0.4566  1.0964  0.0710
  175MOL0     C24025  -0.029  11.140   5.019  0.1830  0.1095  0.5543
  175MOL0     C24026  -0.134  11.162   5.129  0.1280 -0.1792 -0.5017
  175MOL0     C24027  -0.271  11.215   5.074 -0.1792 -0.9242  0.8048
  175MOL0     C24028  -0.389  11.150   5.156 -0.4092 -0.5461 -0.0241
  175MOL0     N24029  -0.436  11.017   5.120  0.5703 -0.1702 -0.2730
  175MOL0     C24030  -0.369  10.897   5.115 -0.3470 -0.9075 -1.1416
  175MOL0     C24031  -0.463  10.802   5.096 -1.5194 -0.1048 -0.7996
  175MOL0     C24032  -0.456  10.651   5.084 -0.4320 -0.0467  0.7098
  175MOL0     C24033  -0.358  10.612   4.968 -0.1405  0.7746  0.2402
  175MOL0     C24034  -0.226  10.568   5.030 -0.4530  0.2026  0.5118
  175MOL0     C24035  -0.108  10.532   4.938  1.1060  0.4558  0.1108
  175MOL0     O24036  -0.007  10.451   5.005 -0.9112  1.1429 -0.2024
  175MOL0     C24037   0.124  10.461   4.959 -0.3643 -0.6796  0.5365
  175MOL0     C24038   0.157  10.479   4.825 -0.2499  0.2192 -0.1325
  175MOL0     C24039   0.286  10.524   4.785  0.2138  0.1911  0.0316
  175MOL0     C24040   0.297  10.575   4.647  0.4495  0.2488  0.0081
  175MOL0     C24041   0.396  10.542   4.878  0.1244  0.2170  0.2411
  175MOL0     C24042   0.538  10.562   4.842 -0.9168 -0.7422  0.4634
  175MOL0     O24043   0.613  10.624   4.929 -0.3003  0.2153  0.4951
  175MOL0     C24044   0.747  10.656   4.894  0.5921 -0.0838  0.0907
  175MOL0     C24045   0.842  10.559   4.867 -1.4983 -0.3499 -0.6616
  175MOL0     C24046   0.971  10.599   4.845  0.2235 -0.7431  0.2486
  175MOL0     C24047   1.008  10.735   4.846 -0.3017 -0.8850 -0.2608
  175MOL0     O24048   1.136  10.778   4.807  0.2760  0.1140 -0.0252
  175MOL0     C24049   1.194  10.892   4.876  0.3905 -0.0110 -0.0820
  175MOL0     C24050   1.336  10.913   4.818  0.7878  0.0413 -0.1855
  175MOL0     C24051   1.420  10.996   4.912 -0.8819 -0.2996 -0.1613
  175MOL0     C24052   1.550  11.043   4.853 -0.0831  1.4209  0.3258
  175MOL0     C24053   1.619  11.143   4.951 -0.0682 -0.2520  0.0028
  175MOL0     C24054   1.766  11.165   4.913 -0.0035 -0.1140  0.9105
  175MOL0     C24055   1.817  11.288   4.980  0.3137 -0.1295 -0.3432
  175MOL0     C24056   1.970  11.298   4.962 -1.1917 -0.4850 -0.7600
  175MOL0    Cl24057   1.990  11.324   4.791  0.4152 -0.2900  0.3316
  175MOL0     C24058   0.909  10.832   4.880 -0.0783  0.3644 -0.7744
  175MOL0     C24059   0.776  10.794   4.908 -0.3189 -0.0906  0.7715
  175MOL0     O24060   0.570  10.509   4.739 -0.8449 -0.6075  0.8684
  175MOL0     C24061   0.363  10.517   5.012 -0.2280  0.0103  0.6145
  175MOL0     C24062   0.230  10.476   5.052 -0.5550 -0.0774  0.5809
  175MOL0     N24063  -0.586  10.863   5.088  0.1300  0.5647  0.1832
  175MOL0     N24064  -0.568  10.992   5.107  0.7561  0.8680  0.5815
  175MOL0     C24065   0.556  11.509   4.603 -0.5567 -0.3383 -1.0418
  175MOL0     C24066   0.691  11.521   4.572 -0.0581  0.2077 -1.0230
  175MOL0     C24067   1.136  11.527   4.661 -0.2176 -0.1815 -0.1766
  175MOL0     C24068   1.181  11.636   4.583 -0.1014 -0.3829  0.1828
  175MOL0     C24069   1.316  11.670   4.565  0.5513  0.3578 -1.0900
  175MOL0     C24070   1.414  11.590   4.630  0.3051 -0.6017 -0.6618
  175MOL0     O24071   1.552  11.606   4.622 -0.0657 -0.0079  0.3349
  175MOL0     C24072   1.598  11.563   4.495 -0.5922 -0.9084 -0.4637
  175MOL0     C24073   1.643  11.421   4.508 -0.0673  0.9778  0.2224
  175MOL0     C24074   1.769  11.382   4.435 -0.5204  0.8502  0.2068
  175MOL0     C24075   1.810  11.238   4.454 -0.5541  0.2695 -0.1157
  175MOL0     C24076   1.733  11.159   4.360  0.3464  0.8630 -0.2319
  175MOL0     C24077   1.672  11.110   4.268  0.7131 -0.0606 -0.0637
  175MOL0     C24078   1.369  11.488   4.713  0.5989  0.7331  0.1479
  175MOL0     C24079   1.236  11.456   4.734  0.2127 -0.7792  0.1197
  175MOL0     C24080   1.200  11.350   4.832  0.0849 -0.1998  0.0564
  175MOL0     H24081   0.811  11.685   4.842 -0.7757  0.9168  0.4205
  175MOL0     H24082   0.578  11.648   4.924  0.8183 -0.8074  0.6653
  175MOL0     H24083   0.390  11.331   4.839 -2.0492 -0.3070 -0.1378
  175MOL0     H24084   0.321  11.353   4.676  0.3164 -0.9724 -0.1679
  175MOL0     H24085   0.209  11.467   4.936  3.5432 -2.0226  1.3610
  175MOL0     H24086   0.122  11.442   4.776 -0.8798  0.4248  0.6722
  175MOL0     H24087   0.153  11.194   4.806  1.0234  0.7881 -1.2127
  175MOL0     H24088   0.224  11.220   4.965 -0.4433 -1.2894 -1.5224
  175MOL0     H24089   0.015  11.356   5.024 -0.1436 -0.4080  1.7742
  175MOL0     H24090  -0.056  11.312   4.869 -0.6854 -0.3693  0.3204
  175MOL0     H24091   0.062  11.102   5.066  0.4305 -2.0934 -1.5278
  175MOL0     H24092  -0.062  11.077   4.936  3.0823  0.8586 -1.3122
  175MOL0     H24093  -0.149  11.064   5.175  0.8870 -0.0114  0.1349
  175MOL0     H24094  -0.094  11.240   5.195  0.0898  0.4233 -1.1779
  175MOL0     H24095  -0.291  11.199   4.968 -4.9902  0.6005  1.2583
  175MOL0     H24096  -0.263  11.324   5.078  3.0123 -1.0509  0.9938
  175MOL0     H24097  -0.355  11.146   5.260 -2.0362  1.1202  0.6159
  175MOL0     H24098  -0.468  11.225   5.147  1.9838  1.9620 -1.9006
  175MOL0     H24099  -0.261  10.884   5.121  0.1152  1.5378 -2.8353
  175MOL0     H24100  -0.559  10.620   5.065 -0.7528  1.3492 -0.0110
  175MOL0     H24101  -0.425  10.612   5.181  1.1507  0.2021  0.3224
  175MOL0     H24102  -0.407  10.541   4.902 -0.0878 -0.4429  1.4790
  175MOL0     H24103  -0.332  10.697   4.903 -1.8529  0.2103 -1.2607
  175MOL0     H24104  -0.198  10.636   5.110  2.0544 -0.5727  0.3627
  175MOL0     H24105  -0.247  10.470   5.075 -0.4291 -1.1358 -2.1761
  175MOL0     H24106  -0.140  10.467   4.855 -0.9523  0.9754  0.4447
  175MOL0     H24107  -0.058  10.621   4.900 -0.1639  1.1930  0.1137
  175MOL0     H24108   0.077  10.482   4.752  0.7087 -1.6744 -1.3176
  175MOL0     H24109   0.318  10.500   4.570  1.4201 -0.9222  1.3624
  175MOL0     H24110   0.381  10.644   4.631  0.0419  0.7141 -0.1325
  175MOL0     H24111   0.209  10.637   4.628  1.7749  3.2822  2.7474
  175MOL0     H24112   0.814  10.455   4.851  0.5577 -0.9508 -0.7202
  175MOL0     H24113   1.038  10.522   4.807 -0.8688 -1.4970 -0.1676
  175MOL0     H24114   1.133  10.983   4.869 -2.2018 -1.4964  1.5240
  175MOL0     H24115   1.193  10.861   4.981  0.7915 -1.5830 -0.5187
  175MOL0     H24116   1.378  10.812   4.821 -1.6088 -0.9922  0.6426
  175MOL0     H24117   1.326  10.949   4.715 -1.4407  0.0457 -0.0013
  175MOL0     H24118   1.442  10.933   5.000 -2.0128 -0.6241 -0.0979
  175MOL0     H24119   1.364  11.085   4.942  1.0315  0.8063  0.2623
  175MOL0     H24120   1.539  11.089   4.754 -0.0244  0.5845 -0.0746
  175MOL0     H24121   1.620  10.960   4.844  1.5389  2.8470 -1.0799
  175MOL0     H24122   1.553  11.229   4.940  0.0610  0.1392  1.9074
  175MOL0     H24123   1.612  11.111   5.055  0.0479 -1.4319 -0.3325
  175MOL0     H24124   1.776  11.184   4.806  0.6909  4.5391  1.5868
  175MOL0     H24125   1.821  11.075   4.940 -2.1725 -1.2200  1.9115
  175MOL0     H24126   1.800  11.287   5.088  2.2510  0.1323  0.0018
  175MOL0     H24127   1.771  11.376   4.934  0.9007  0.1693 -0.3663
  175MOL0     H24128   2.014  11.204   4.995 -0.5376 -0.4075 -1.3762
  175MOL0     H24129   2.022  11.369   5.028 -1.3881 -1.5865  0.6158
  175MOL0     H24130   0.935  10.937   4.871  0.8485  0.4263  1.8176
  175MOL0     H24131   0.706  10.872   4.934 -2.2207 -1.7437  0.8978
  175MOL0     H24132   0.445  10.519   5.084  1.4472 -2.7798 -1.0034
  175MOL0     H24133   0.211  10.461   5.158 -0.9762  1.1127  0.6826
  175MOL0     H24134   0.492  11.473   4.524 -0.0923 -2.0240 -0.7036
  175MOL0     H24135   0.721  11.472   4.480  0.1819 -0.8130 -0.4094
  175MOL0     H24136   1.118  11.704   4.527 -0.0484 -1.4187 -1.1752
  175MOL0     H24137   1.358  11.743   4.497  0.2875  1.0395 -0.5207
  175MOL0     H24138   1.529  11.565   4.411  2.5406 -0.7586 -3.2518
  175MOL0     H24139   1.673  11.623   4.444 -0.2636 -2.6319 -2.1412
  175MOL0     H24140   1.567  11.344   4.491  3.3838 -2.7668  0.2645
  175MOL0     H24141   1.667  11.413   4.615  0.5653 -0.4014 -0.0001
  175MOL0     H24142   1.765  11.409   4.329  1.9312  0.7130  0.0130
  175MOL0     H24143   1.853  11.427   4.490 -0.3660  2.0835 -0.9931
  175MOL0     H24144   1.806  11.207   4.559  2.4207  0.2785  0.0989
  175MOL0     H24145   1.914  11.214   4.429  0.5780  1.2307  3.1458
  175MOL0     H24146   1.629  11.067   4.180  2.0587  0.4592 -0.9990
  175MOL0     H24147   1.443  11.430   4.767 -1.4614  1.0658  3.6452
  175MOL0     H24148   1.190  11.255   4.778 -1.3610  0.4527 -0.9070
  175MOL0     H24149   1.276  11.341   4.910 -1.3825 -1.5903  1.4060
  175MOL0     H24150   1.115  11.376   4.896 -0.9449 -1.5257 -0.7057
  176MOL0     O24151   7.270   5.795   0.584  0.3787  0.3713 -0.0405
  176MOL0     C24152   7.273   5.819   0.462  0.1160  0.3960 -0.3046
  176MOL0     O24153   7.389   5.816   0.386 -0.8408  0.3844  0.3029
  176MOL0     C24154   7.506   5.757   0.437  1.6093  0.0042 -1.0089
  176MOL0     C24155   7.559   5.652   0.369  0.2819 -0.5169 -0.3252
  176MOL0     C24156   7.677   5.593   0.414  0.6454  0.1846 -0.3810
  176MOL0     C24157   7.747   5.633   0.527  0.4035 -0.5228  0.6866
  176MOL0     O24158   7.870   5.571   0.549 -0.8790  0.2157 -0.1556
  176MOL0     C24159   7.929   5.621   0.669  0.3157  1.1295  0.3869
  176MOL0     C24160   8.069   5.557   0.684  0.0890  0.3021  0.2491
  176MOL0     C24161   8.150   5.588   0.563  0.6364  0.0562 -0.7953
  176MOL0     C24162   8.297   5.583   0.590  0.5571  0.5706 -0.7146
  176MOL0     C24163   8.375   5.611   0.460  0.2929 -0.3992 -0.3340
  176MOL0     C24164   8.516   5.603   0.493 -0.1454  0.1197  0.4459
  176MOL0     C24165   8.603   5.611   0.359  0.2383 -0.1690 -0.8042
  176MOL0     C24166   8.758   5.565   0.388 -0.3900 -0.2427 -0.2354
  176MOL0     N24167   8.835   5.651   0.477  0.3038  0.1857 -0.1834
  176MOL0     C24168   8.881   5.620   0.604  1.1059 -0.5336 -0.5382
  176MOL0     C24169   8.966   5.717   0.641  0.0574 -0.3448  0.5050
  176MOL0     C24170   9.053   5.743   0.756 -0.3493 -0.2876  0.0176
  176MOL0     C24171   9.211   5.745   0.722 -0.2611 -0.3401  0.7802
  176MOL0     C24172   9.245   5.647   0.610  0.0895  0.5046 -0.3085
  176MOL0     C24173   9.391   5.613   0.597  0.4980 -0.8518  0.0660
  176MOL0     O24174   9.397   5.545   0.468  0.1100 -0.0164  0.0963
  176MOL0     C24175   9.496   5.569   0.376 -0.7709 -0.2773 -0.2247
  176MOL0     C24176   9.527   5.458   0.298  0.7482  0.4306  0.2379
  176MOL0     C24177   9.642   5.457   0.224  1.0335 -0.0437  0.9800
  176MOL0     C24178   9.690   5.322   0.183  0.1312 -0.4108 -0.6502
  176MOL0     C24179   9.722   5.571   0.208  0.1836  0.4728  0.0910
  176MOL0     C24180   9.838   5.573   0.124  0.0381  0.3048 -0.4230
  176MOL0     O24181   9.844   5.502   0.005 -0.7049  0.2575 -0.1468
  176MOL0     C24182   9.961   5.474  -0.059 -0.1955 -0.4219  0.2054
  176MOL0     C24183   9.984   5.507  -0.191 -0.0063 -0.0074 -0.1063
  176MOL0     C24184  10.109   5.493  -0.247 -0.1309 -0.5437 -0.2969
  176MOL0     C24185  10.216   5.432  -0.176  0.1510 -1.4904 -0.8142
  176MOL0     O24186  10.335   5.396  -0.231  0.3649  1.3210  0.2884
  176MOL0     C24187  10.362   5.438  -0.362 -0.3198  0.4894 -0.6927
  176MOL0     C24188  10.516   5.445  -0.391 -0.0574  0.1353 -0.1069
  176MOL0     C24189  10.599   5.558  -0.322  0.0553  0.1463  1.1484
  176MOL0     C24190  10.744   5.568  -0.391 -0.0680 -0.2596  0.2907
  176MOL0     C24191  10.835   5.444  -0.371  0.3325  0.5093 -0.8101
  176MOL0     C24192  10.970   5.468  -0.436  0.9376  0.7715  0.2197
  176MOL0     C24193  11.087   5.390  -0.376  1.0605  0.0338  0.1995
  176MOL0     C24194  11.218   5.405  -0.440 -0.8139  0.6101 -0.0709
  176MOL0    Cl24195  11.291   5.571  -0.446  0.3957 -0.1462 -0.0765
  176MOL0     C24196  10.193   5.394  -0.041 -0.1611  0.9836  0.5187
  176MOL0     C24197  10.068   5.409   0.018  0.1567  0.0049  0.3391
  176MOL0     O24198   9.927   5.654   0.156 -0.5929  0.1163  0.2701
  176MOL0     C24199   9.681   5.695   0.273 -0.8753  0.7516  0.3783
  176MOL0     C24200   9.569   5.699   0.359  1.0283  0.5307  0.9404
  176MOL0     N24201   8.963   5.808   0.531 -0.2699  0.0211 -1.5075
  176MOL0     N24202   8.888   5.767   0.434 -0.4386  0.5091 -0.4384
  176MOL0     C24203   7.689   5.740   0.596  0.7946 -0.0815 -0.2458
  176MOL0     C24204   7.565   5.806   0.559 -1.4693  0.9982  0.2581
  176MOL0     C24205   7.141   5.841   0.388  0.1687 -1.2347 -0.4096
  176MOL0     C24206   7.023   5.806   0.449 -0.1235  0.4619  0.1545
  176MOL0     C24207   6.895   5.825   0.393 -0.8396  0.4651  0.2705
  176MOL0     C24208   6.892   5.861   0.261  0.0432  0.1952 -0.0189
  176MOL0     O24209   6.763   5.866   0.207  0.5529  0.2535 -1.1280
  176MOL0     C24210   6.747   5.904   0.069 -0.7259 -0.2985  0.0614
  176MOL0     C24211   6.601   5.896   0.041 -0.3629 -0.4240  0.3899
  176MOL0     C24212   6.520   5.767   0.079  0.1936  0.8154  0.0101
  176MOL0     C24213   6.596   5.649   0.002  0.3113 -0.5081 -0.2335
  176MOL0     C24214   6.540   5.511   0.009 -0.2975  0.3246 -0.7127
  176MOL0     C24215   6.493   5.401   0.011 -0.4489  0.8565 -0.6234
  176MOL0     C24216   7.007   5.902   0.198  0.1591 -0.1126 -0.5051
  176MOL0     C24217   7.128   5.904   0.261  0.7932 -0.1780 -0.0473
  176MOL0     C24218   7.252   5.971   0.189  0.7352 -0.1480  0.6416
  176MOL0     H24219   7.521   5.627   0.270  2.7979 -0.6812 -1.3265
  176MOL0     H24220   7.701   5.510   0.348  0.6762  1.0367 -1.4691
  176MOL0     H24221   7.862   5.589   0.749 -1.2937  0.6237 -1.1091
  176MOL0     H24222   7.935   5.730   0.666  1.1187  1.0864 -2.6678
  176MOL0     H24223   8.111   5.603   0.774 -0.4337 -0.8895  1.1286
  176MOL0     H24224   8.061   5.449   0.704  0.7825 -0.6113 -3.6632
  176MOL0     H24225   8.127   5.519   0.482  0.4149 -1.1083  0.2254
  176MOL0     H24226   8.120   5.689   0.535  2.6704  0.9594  0.0477
  176MOL0     H24227   8.318   5.655   0.671 -0.3827  0.4768 -0.3746
  176MOL0     H24228   8.337   5.491   0.633  2.3093  1.6550  0.1170
  176MOL0     H24229   8.351   5.714   0.429  3.0397  0.3064 -0.3939
  176MOL0     H24230   8.356   5.541   0.379  0.4910  0.7736 -1.4190
  176MOL0     H24231   8.539   5.682   0.566 -1.1307 -1.3011  2.3933
  176MOL0     H24232   8.539   5.505   0.537  0.1155  0.1066  0.2841
  176MOL0     H24233   8.601   5.709   0.312  2.7865 -0.8565 -2.5232
  176MOL0     H24234   8.568   5.538   0.285  0.1137  0.0207 -0.9320
  176MOL0     H24235   8.780   5.462   0.418  1.6718 -0.2343 -1.4909
  176MOL0     H24236   8.806   5.577   0.290  3.4125 -2.2512  1.1598
  176MOL0     H24237   8.861   5.532   0.665 -1.0913  0.8182  0.8370
  176MOL0     H24238   9.039   5.673   0.839 -0.8423 -1.8475 -1.3278
  176MOL0     H24239   9.022   5.841   0.794 -2.1741 -1.1381  0.8605
  176MOL0     H24240   9.245   5.844   0.689 -1.3189 -1.1059 -3.0408
  176MOL0     H24241   9.265   5.704   0.808 -0.9704 -1.4722  0.7075
  176MOL0     H24242   9.186   5.557   0.633 -1.3435  0.8931 -2.1923
  176MOL0     H24243   9.215   5.692   0.515  3.8211  0.8478 -1.4869
  176MOL0     H24244   9.459   5.699   0.601  1.7259 -1.8123  0.1505
  176MOL0     H24245   9.414   5.543   0.677 -0.7338 -2.5852 -1.0258
  176MOL0     H24246   9.478   5.362   0.308  0.2652  0.4287 -1.7402
  176MOL0     H24247   9.798   5.312   0.195 -0.0528 -1.9890 -0.0122
  176MOL0     H24248   9.652   5.293   0.085 -3.4622 -2.6960  1.1983
  176MOL0     H24249   9.648   5.242   0.245 -1.0866 -0.1635 -1.1180
  176MOL0     H24250   9.900   5.541  -0.251 -0.3599 -0.1910  0.2830
  176MOL0     H24251  10.122   5.518  -0.352 -3.3892 -1.1593 -0.9669
  176MOL0     H24252  10.316   5.370  -0.433 -0.3232  1.8004 -1.9942
  176MOL0     H24253  10.331   5.541  -0.381 -0.9858  0.3998 -0.1273
  176MOL0     H24254  10.558   5.349  -0.360 -2.9670 -1.3046 -0.2786
  176MOL0     H24255  10.533   5.441  -0.499 -2.7260  0.8246 -0.6492
  176MOL0     H24256  10.599   5.537  -0.215  0.8290  0.1191  1.1506
  176MOL0     H24257  10.556   5.658  -0.336  1.8428  0.8043 -0.1386
  176MOL0     H24258  10.796   5.656  -0.353 -0.3247 -1.0703  2.7173
  176MOL0     H24259  10.724   5.588  -0.496  0.3000  1.4151  0.5119
  176MOL0     H24260  10.838   5.435  -0.262 -1.7095  0.4129 -0.7171
  176MOL0     H24261  10.779   5.356  -0.403  0.8575 -0.3824  0.6311
  176MOL0     H24262  10.992   5.575  -0.426  0.8037  0.9374 -1.0386
  176MOL0     H24263  10.950   5.454  -0.543 -1.5456  0.7113  0.6318
  176MOL0     H24264  11.059   5.285  -0.361  1.3889  0.0906  1.2785
  176MOL0     H24265  11.109   5.425  -0.274  2.9193  1.6504 -0.6790
  176MOL0     H24266  11.231   5.364  -0.540  0.3893  1.7771 -0.4300
  176MOL0     H24267  11.279   5.336  -0.381 -0.2596 -1.1238 -2.5260
  176MOL0     H24268  10.278   5.357   0.014  0.9292  0.2356 -1.5571
  176MOL0     H24269  10.056   5.371   0.119  1.4442  0.4719  0.6905
  176MOL0     H24270   9.737   5.784   0.248 -2.7504  2.1231  0.8137
  176MOL0     H24271   9.537   5.786   0.415  0.2300  0.7506  0.1640
  176MOL0     H24272   7.736   5.784   0.684 -2.0535  2.4944  0.1757
  176MOL0     H24273   7.510   5.886   0.608 -0.2259  2.4618 -0.6583
  176MOL0     H24274   7.018   5.772   0.551 -0.8108 -3.2031 -0.9406
  176MOL0     H24275   6.816   5.778   0.451  0.9255 -0.2334  2.2302
  176MOL0     H24276   6.771   6.010   0.058 -0.9912  0.0385  2.3031
  176MOL0     H24277   6.815   5.848   0.004 -0.2045 -0.0092  0.3484
  176MOL0     H24278   6.574   5.905  -0.065 -2.2525  0.4929  0.9015
  176MOL0     H24279   6.559   5.980   0.097  0.8874  0.0217  0.6862
  176MOL0     H24280   6.514   5.755   0.187 -4.4726  5.0201  0.5585
  176MOL0     H24281   6.416   5.786   0.053 -1.2178  0.2753  4.4763
  176MOL0     H24282   6.702   5.648   0.025  1.1455  2.0143 -3.1952
  176MOL0     H24283   6.609   5.677  -0.103  0.0834  0.7999  0.0681
  176MOL0     H24284   6.446   5.305  -0.001 -0.8616  0.8062  1.1227
  176MOL0     H24285   7.002   5.953   0.103 -0.4328  0.8501  0.0192
  176MOL0     H24286   7.217   6.061   0.137 -4.4309 -3.2798 -2.1675
  176MOL0     H24287   7.328   6.005   0.260  2.5903 -1.7599 -0.4676
  176MOL0     H24288   7.291   5.899   0.117 -1.1139 -0.2703 -0.2871
  177MOL0     O24289   8.885   4.736   2.930  0.0679 -0.0457 -0.1199
  177MOL0     C24290   8.872   4.669   3.028 -0.9593 -0.1024 -0.6761
  177MOL0     O24291   8.921   4.705   3.152 -0.0776  0.5172 -0.0419
  177MOL0     C24292   9.037   4.785   3.155 -1.0807  0.1982 -0.3709
  177MOL0     C24293   9.163   4.718   3.162  0.4354 -1.0226  0.1099
  177MOL0     C24294   9.274   4.801   3.180  0.1094  0.7619 -0.4449
  177MOL0     C24295   9.266   4.939   3.185 -0.0859 -0.8903 -0.0250
  177MOL0     O24296   9.383   5.015   3.210 -0.4863 -0.0036  0.2015
  177MOL0     C24297   9.427   5.022   3.352  0.0099  0.7910  0.1432
  177MOL0     C24298   9.543   5.115   3.366  0.1470 -0.6575  0.5321
  177MOL0     C24299   9.511   5.266   3.344 -0.1008  0.6072  0.6766
  177MOL0     C24300   9.616   5.352   3.282  0.4977 -0.4992 -0.2355
  177MOL0     C24301   9.579   5.494   3.258 -0.6534 -0.3956 -0.7065
  177MOL0     C24302   9.713   5.570   3.215  0.7149 -0.3988 -0.2289
  177MOL0     C24303   9.756   5.664   3.330 -0.1943 -0.4019 -0.2545
  177MOL0     C24304   9.859   5.770   3.282 -0.0326 -1.0715 -0.2947
  177MOL0     N24305   9.891   5.871   3.378 -0.0764 -0.1675 -0.4132
  177MOL0     C24306   9.929   6.003   3.359 -0.5187  0.2974 -0.6827
  177MOL0     C24307   9.972   6.044   3.482 -1.6820 -0.2022 -0.1908
  177MOL0     C24308  10.031   6.181   3.503 -0.1548 -0.0389 -0.8097
  177MOL0     C24309  10.191   6.164   3.497 -0.3749  0.1255 -0.5606
  177MOL0     C24310  10.257   6.290   3.554 -0.3011  0.1028  0.3543
  177MOL0     C24311  10.240   6.307   3.710 -0.1111 -0.2175 -0.5094
  177MOL0     O24312  10.278   6.201   3.795 -0.3879 -0.2797 -0.3199
  177MOL0     C24313  10.407   6.159   3.796 -0.5744 -0.8699 -0.3308
  177MOL0     C24314  10.445   6.039   3.744  0.0681 -0.3170 -0.4622
  177MOL0     C24315  10.579   5.992   3.744  0.0254 -0.0530  0.3288
  177MOL0     C24316  10.606   5.848   3.684  0.5671 -0.0639  0.2888
  177MOL0     C24317  10.676   6.077   3.797 -0.7777  0.1760 -0.3123
  177MOL0     C24318  10.826   6.046   3.802  0.7983 -0.2450  0.0349
  177MOL0     O24319  10.914   6.151   3.814  0.5320  0.6092 -0.8232
  177MOL0     C24320  11.045   6.125   3.835  0.5586 -0.2103  0.1050
  177MOL0     C24321  11.141   6.176   3.748  1.3054  1.0598  0.0694
  177MOL0     C24322  11.274   6.157   3.771  0.0249  0.3527  0.7984
  177MOL0     C24323  11.324   6.084   3.873  0.1562 -0.0614  0.2190
  177MOL0     O24324  11.457   6.062   3.879 -0.1492 -0.1681  0.1781
  177MOL0     C24325  11.490   5.938   3.819 -0.1640  0.5479  0.0102
  177MOL0     C24326  11.644   5.902   3.814  0.0464  1.2393 -0.2349
  177MOL0     C24327  11.731   6.029   3.794  0.3975  0.0062 -0.4126
  177MOL0     C24328  11.878   5.985   3.782  0.3317  0.2068  0.4248
  177MOL0     C24329  11.972   6.105   3.770 -0.0194 -0.6483 -0.6030
  177MOL0     C24330  12.113   6.049   3.735 -0.4395  0.2448 -0.5728
  177MOL0     C24331  12.213   6.165   3.733  0.1414 -0.7134 -0.7905
  177MOL0     C24332  12.271   6.193   3.868 -0.4698 -0.2360 -0.7190
  177MOL0    Cl24333  12.381   6.340   3.871  0.4662 -0.1508  0.0606
  177MOL0     C24334  11.227   6.031   3.963  1.1883  0.4004 -0.9866
  177MOL0     C24335  11.089   6.057   3.952  0.0319  0.3485  0.3528
  177MOL0     O24336  10.853   5.923   3.801 -0.2533  0.1242 -0.5725
  177MOL0     C24337  10.640   6.205   3.844 -0.5525  0.1661 -0.2435
  177MOL0     C24338  10.510   6.243   3.843 -0.2768 -0.5565  0.0385
  177MOL0     N24339   9.959   5.945   3.574 -1.1008 -0.0324 -0.5397
  177MOL0     N24340   9.905   5.844   3.510 -0.2296 -0.3620 -0.2851
  177MOL0     C24341   9.138   5.003   3.180 -0.0802 -0.4359 -0.0805
  177MOL0     C24342   9.030   4.923   3.173 -0.0309 -0.3275  0.5337
  177MOL0     C24343   8.767   4.575   3.023  0.4255  0.2901  0.1203
  177MOL0     C24344   8.648   4.596   3.101 -0.2738 -0.2722  0.1996
  177MOL0     C24345   8.544   4.507   3.098 -0.8058 -0.0307 -0.1682
  177MOL0     C24346   8.553   4.386   3.024 -0.9023  0.3874  0.7205
  177MOL0     O24347   8.451   4.296   2.993 -0.3806  0.0221 -0.2900
  177MOL0     C24348   8.347   4.274   3.093 -0.3525 -0.0236  0.4069
  177MOL0     C24349   8.212   4.342   3.043 -0.5803  0.5832 -0.5268
  177MOL0     C24350   8.153   4.264   2.926  0.2223 -0.3179  0.8106
  177MOL0     C24351   8.035   4.343   2.859 -0.3845 -0.2826 -0.3076
  177MOL0     C24352   7.913   4.348   2.940 -0.2472 -0.1073  0.0402
  177MOL0     C24353   7.816   4.334   3.007  0.5071 -0.6783 -0.0957
  177MOL0     C24354   8.666   4.366   2.937  0.4297 -0.6181 -1.2512
  177MOL0     C24355   8.773   4.458   2.941  0.8422 -0.2897  0.6111
  177MOL0     C24356   8.890   4.415   2.851  0.3371 -0.2433 -1.1195
  177MOL0     H24357   9.170   4.610   3.156 -0.5367 -1.0309 -1.4014
  177MOL0     H24358   9.366   4.743   3.189  1.7399  3.4489  1.9120
  177MOL0     H24359   9.453   4.921   3.386  2.5427  0.0535 -3.3946
  177MOL0     H24360   9.346   5.054   3.418 -0.2221 -0.9306  0.7531
  177MOL0     H24361   9.581   5.101   3.468  1.1334  0.7226  0.3777
  177MOL0     H24362   9.619   5.089   3.293 -1.4591  0.4099 -1.6433
  177MOL0     H24363   9.420   5.268   3.283  0.8959  1.3169 -0.8523
  177MOL0     H24364   9.501   5.307   3.444 -1.6142  0.7831  0.4710
  177MOL0     H24365   9.697   5.342   3.356 -0.4273  2.5090  1.3199
  177MOL0     H24366   9.656   5.319   3.185  0.4942  1.4578 -0.9507
  177MOL0     H24367   9.530   5.546   3.341  2.4831  0.7410  0.6331
  177MOL0     H24368   9.518   5.488   3.168  0.9514 -2.7199 -1.7371
  177MOL0     H24369   9.787   5.497   3.183 -1.2404 -1.7975 -1.8792
  177MOL0     H24370   9.695   5.629   3.124 -0.7640  1.9234  1.4462
  177MOL0     H24371   9.801   5.596   3.402 -1.6680 -0.4498  0.6685
  177MOL0     H24372   9.667   5.719   3.363  0.2018  1.0129 -1.3863
  177MOL0     H24373   9.948   5.711   3.257  1.7808  0.5113  1.9796
  177MOL0     H24374   9.829   5.816   3.188 -0.7325 -0.3282  0.2687
  177MOL0     H24375   9.927   6.073   3.276 -0.6620  2.6913  1.2542
  177MOL0     H24376  10.000   6.217   3.601  1.2709 -2.9636  0.8879
  177MOL0     H24377   9.992   6.251   3.429  1.3126  2.0190  0.2821
  177MOL0     H24378  10.212   6.071   3.550  0.2717 -0.6781 -2.1688
  177MOL0     H24379  10.228   6.145   3.396  1.1351  0.5505 -0.1087
  177MOL0     H24380  10.366   6.283   3.540 -0.3366  0.1409  0.0734
  177MOL0     H24381  10.213   6.376   3.504  1.2836  1.1997  0.7692
  177MOL0     H24382  10.293   6.397   3.742  0.1160 -0.2351 -0.8359
  177MOL0     H24383  10.134   6.322   3.734  0.4420 -0.3732  2.4806
  177MOL0     H24384  10.364   5.977   3.708 -1.6419  1.8453 -0.6107
  177MOL0     H24385  10.649   5.844   3.583 -1.9707 -4.5331 -0.8565
  177MOL0     H24386  10.514   5.790   3.677  1.6201 -1.6655 -1.1369
  177MOL0     H24387  10.670   5.792   3.753  0.5214 -1.0157 -0.4259
  177MOL0     H24388  11.106   6.213   3.653 -1.2845 -0.0114  0.5119
  177MOL0     H24389  11.358   6.190   3.709  2.2640 -0.9912  2.9257
  177MOL0     H24390  11.446   5.859   3.880  2.6057 -0.9089  0.2958
  177MOL0     H24391  11.452   5.935   3.717  1.5929 -2.1074 -0.6619
  177MOL0     H24392  11.658   5.864   3.915  0.1750  2.1457  0.0921
  177MOL0     H24393  11.675   5.821   3.746  1.1273  2.4108 -1.1914
  177MOL0     H24394  11.719   6.104   3.873  1.9336 -0.6406  0.4842
  177MOL0     H24395  11.692   6.088   3.711 -2.1115  0.4839  1.0045
  177MOL0     H24396  11.884   5.930   3.688  2.9282 -0.9031  1.1578
  177MOL0     H24397  11.912   5.922   3.864 -0.2217  0.6314  0.9952
  177MOL0     H24398  11.938   6.179   3.698 -0.3527 -0.0112  0.1892
  177MOL0     H24399  11.985   6.153   3.868  0.2556 -2.0474  0.0805
  177MOL0     H24400  12.104   6.001   3.637 -0.8427 -2.9504  0.8975
  177MOL0     H24401  12.150   5.975   3.807 -0.1070 -0.1400 -1.1271
  177MOL0     H24402  12.158   6.253   3.701 -4.2319 -2.9835 -0.2729
  177MOL0     H24403  12.300   6.139   3.672  1.1108  0.0012  0.2545
  177MOL0     H24404  12.320   6.103   3.906  2.9133  2.1163  1.0585
  177MOL0     H24405  12.191   6.206   3.942  0.9700  1.3828  0.6453
  177MOL0     H24406  11.266   5.973   4.046  1.0707 -0.4852 -1.5477
  177MOL0     H24407  11.026   6.025   4.033  2.2030 -1.4263  1.4628
  177MOL0     H24408  10.720   6.266   3.884 -0.2578 -0.2947 -0.1260
  177MOL0     H24409  10.489   6.336   3.894 -2.0038 -0.2930 -1.0590
  177MOL0     H24410   9.133   5.105   3.218  0.5561 -0.8269  1.0928
  177MOL0     H24411   8.934   4.973   3.183  1.2011  2.1339  0.8135
  177MOL0     H24412   8.640   4.689   3.156  0.3794  0.6773 -1.2422
  177MOL0     H24413   8.451   4.533   3.148 -1.3979 -0.4879 -0.9958
  177MOL0     H24414   8.330   4.168   3.110 -1.2774  0.0761  0.1851
  177MOL0     H24415   8.373   4.311   3.193  0.4952  0.3023  0.0709
  177MOL0     H24416   8.235   4.445   3.017  0.0996  0.4379 -0.5295
  177MOL0     H24417   8.136   4.335   3.121  1.0498 -3.1259  1.0018
  177MOL0     H24418   8.231   4.234   2.856 -2.0513 -3.8637 -0.4996
  177MOL0     H24419   8.125   4.171   2.975  0.3484  0.6889  2.8819
  177MOL0     H24420   8.016   4.278   2.774 -1.3111 -1.3320  0.6648
  177MOL0     H24421   8.076   4.438   2.824  1.4135 -0.6930  0.5288
  177MOL0     H24422   7.736   4.308   3.074 -0.1127 -1.2567 -1.0366
  177MOL0     H24423   8.680   4.271   2.886  4.5110 -1.8399  1.6232
  177MOL0     H24424   8.939   4.509   2.822  0.6715  0.1888  0.7043
  177MOL0     H24425   8.957   4.364   2.920 -3.6153 -2.8565  1.1606
  177MOL0     H24426   8.854   4.352   2.769 -0.1987 -0.4175 -0.7586
  178MOL0     O24427   9.340   3.484   9.983  0.8432 -1.1898  0.0587
  178MOL0     C24428   9.237   3.459  10.063  0.4742 -0.4164  1.0360
  178MOL0     O24429   9.222   3.470  10.195 -0.7018  0.1462 -0.3385
  178MOL0     C24430   9.339   3.475  10.270  0.3774  0.3543 -0.4378
  178MOL0     C24431   9.363   3.577  10.360  0.0740  0.4632  0.3054
  178MOL0     C24432   9.484   3.571  10.426 -0.0719  0.0972  0.0551
  178MOL0     C24433   9.586   3.478  10.408  0.1097  0.1623 -0.4446
  178MOL0     O24434   9.710   3.486  10.464  0.4598 -0.7902  0.2317
  178MOL0     C24435   9.755   3.600  10.537  0.0246 -0.8332  0.2807
  178MOL0     C24436   9.913   3.590  10.577  0.3914 -1.0998  0.6044
  178MOL0     C24437   9.928   3.473  10.684  0.3027  0.5586 -0.1943
  178MOL0     C24438  10.058   3.479  10.758 -0.0837  0.4884 -0.0084
  178MOL0     C24439  10.069   3.379  10.866 -0.4003  1.1503 -0.7618
  178MOL0     C24440  10.196   3.392  10.946 -0.2643 -0.5488  0.5361
  178MOL0     C24441  10.236   3.259  11.014 -0.4152  0.5642 -0.0006
  178MOL0     C24442  10.364   3.276  11.098 -0.9035  0.3010  0.6205
  178MOL0     N24443  10.371   3.181  11.209 -0.4971  0.6034 -0.5200
  178MOL0     C24444  10.467   3.196  11.310 -0.9698  0.1954 -0.1984
  178MOL0     C24445  10.441   3.097  11.410  0.1447  0.1453  1.2637
  178MOL0     C24446  10.510   3.064  11.540 -0.3447  0.1418  0.7418
  178MOL0     C24447  10.479   3.162  11.648  0.5467 -0.4291 -0.4200
  178MOL0     C24448  10.547   3.121  11.778 -0.3029  0.5409 -0.2151
  178MOL0     C24449  10.452   3.021  11.844  0.4291 -0.1885  0.5173
  178MOL0     O24450  10.518   2.963  11.960 -0.5784  0.2178 -0.1020
  178MOL0     C24451  10.604   2.853  11.943 -0.1917 -0.0088  0.1990
  178MOL0     C24452  10.704   2.829  12.040 -0.3703 -0.0408  0.5526
  178MOL0     C24453  10.790   2.718  12.037 -0.6076  0.0580  0.0597
  178MOL0     C24454  10.891   2.709  12.145 -0.4036  0.0994 -0.9185
  178MOL0     C24455  10.790   2.637  11.919 -0.1708  0.2419  0.0457
  178MOL0     C24456  10.896   2.531  11.895  0.1815  0.1210 -0.0408
  178MOL0     O24457  10.869   2.451  11.792  0.2153  0.2213  0.1702
  178MOL0     C24458  10.973   2.390  11.726  0.3330  0.2919  0.2744
  178MOL0     C24459  10.999   2.432  11.596  0.5763 -0.8300  0.1911
  178MOL0     C24460  11.106   2.372  11.531 -0.1178 -0.7986 -0.1982
  178MOL0     C24461  11.184   2.274  11.592 -0.8087  0.3782  0.6238
  178MOL0     O24462  11.290   2.220  11.523 -0.4887  0.0753 -0.0078
  178MOL0     C24463  11.364   2.117  11.580 -0.3700  0.0584  0.3057
  178MOL0     C24464  11.470   2.070  11.489  0.5021  0.8325 -0.2164
  178MOL0     C24465  11.406   2.001  11.366 -0.1069  0.4701  0.3941
  178MOL0     C24466  11.515   1.979  11.255 -0.7932 -1.0383  0.2828
  178MOL0     C24467  11.522   1.840  11.195 -0.3397 -0.0927  0.4588
  178MOL0     C24468  11.574   1.742  11.300 -0.2095  0.6904 -0.0320
  178MOL0     C24469  11.709   1.768  11.350 -0.5070 -0.3987  0.7555
  178MOL0     C24470  11.784   1.647  11.398 -0.1556 -0.7102 -0.7764
  178MOL0    Cl24471  11.742   1.618  11.574  0.0403  0.2810  0.1627
  178MOL0     C24472  11.154   2.231  11.720 -0.4066  0.3300 -0.1697
  178MOL0     C24473  11.045   2.283  11.791 -0.3004  0.4117 -0.9956
  178MOL0     O24474  11.004   2.537  11.956 -0.6046  0.3655  0.5204
  178MOL0     C24475  10.686   2.651  11.827 -0.1612  0.5466 -0.4141
  178MOL0     C24476  10.593   2.758  11.842 -0.2871  0.4152 -0.1185
  178MOL0     N24477  10.327   3.030  11.372  0.0382  0.1074 -0.5061
  178MOL0     N24478  10.288   3.084  11.261 -0.0017  0.3854 -0.6063
  178MOL0     C24479   9.557   3.370  10.324  0.4582  0.2972  0.3584
  178MOL0     C24480   9.433   3.370  10.250 -0.4277 -0.1354  0.3647
  178MOL0     C24481   9.119   3.390  10.010 -0.1118  0.2168 -0.5597
  178MOL0     C24482   8.995   3.426  10.072 -0.5441 -0.7155  0.2665
  178MOL0     C24483   8.885   3.369  10.018  0.2756  0.1281 -0.4988
  178MOL0     C24484   8.873   3.285   9.919  1.1014 -0.2408 -1.1407
  178MOL0     O24485   8.745   3.229   9.893  0.1919 -0.0957 -0.8263
  178MOL0     C24486   8.718   3.136   9.786 -0.2159  0.0757 -0.1383
  178MOL0     C24487   8.570   3.124   9.774 -0.9206 -0.7496 -0.2618
  178MOL0     C24488   8.549   3.020   9.667 -0.3739 -0.2091 -0.3165
  178MOL0     C24489   8.398   2.983   9.658 -0.3873 -0.6421  0.1686
  178MOL0     C24490   8.361   2.891   9.764  0.3586  0.9362 -0.0513
  178MOL0     C24491   8.348   2.809   9.857 -0.3619 -0.0620  1.0303
  178MOL0     C24492   8.991   3.263   9.842 -0.0982 -0.2619 -0.2870
  178MOL0     C24493   9.111   3.316   9.885 -0.2532 -0.6789  0.5615
  178MOL0     C24494   9.235   3.270   9.797  0.2191 -0.3014  0.1338
  178MOL0     H24495   9.280   3.646  10.374  0.4598  1.2665 -1.1173
  178MOL0     H24496   9.495   3.645  10.505 -2.4121 -0.0672  0.6187
  178MOL0     H24497   9.697   3.607  10.629  0.1394 -0.3852  0.3226
  178MOL0     H24498   9.736   3.697  10.492 -0.4772  0.3646  2.9124
  178MOL0     H24499   9.981   3.567  10.494  1.0769 -1.9124  1.3772
  178MOL0     H24500   9.943   3.681  10.631  1.9598 -1.5243  0.5117
  178MOL0     H24501   9.848   3.484  10.757 -0.5652  1.0483 -1.1885
  178MOL0     H24502   9.913   3.375  10.638 -2.8090  0.0272  1.6515
  178MOL0     H24503  10.130   3.453  10.680 -2.0473 -1.6081 -1.2439
  178MOL0     H24504  10.076   3.579  10.798 -0.5452 -0.3446  2.4252
  178MOL0     H24505  10.078   3.286  10.810  0.3872  1.2284 -0.7846
  178MOL0     H24506   9.989   3.373  10.940  0.9247  3.8125  1.0907
  178MOL0     H24507  10.278   3.431  10.885 -0.6679 -1.3224 -0.5050
  178MOL0     H24508  10.185   3.472  11.021 -0.8777 -1.2338  1.1938
  178MOL0     H24509  10.234   3.174  10.946 -0.8356  0.4983  0.0952
  178MOL0     H24510  10.163   3.237  11.093 -0.1918 -0.6836 -0.1293
  178MOL0     H24511  10.453   3.251  11.040 -1.5644  2.4678 -1.4849
  178MOL0     H24512  10.388   3.375  11.140 -1.3661  0.6052  0.1841
  178MOL0     H24513  10.555   3.259  11.312  0.5706 -1.8837  1.1416
  178MOL0     H24514  10.618   3.065  11.522 -0.5119 -0.3052 -0.3581
  178MOL0     H24515  10.480   2.964  11.572  0.7851 -1.1795 -2.0257
  178MOL0     H24516  10.513   3.261  11.616  0.4654 -0.6622 -1.2385
  178MOL0     H24517  10.371   3.173  11.654  0.7280  1.3493  0.4438
  178MOL0     H24518  10.640   3.070  11.751  0.2123  2.5356 -2.5970
  178MOL0     H24519  10.583   3.201  11.843 -0.4170  1.1886 -0.9309
  178MOL0     H24520  10.365   3.081  11.873  0.8994  1.5919 -1.5434
  178MOL0     H24521  10.410   2.942  11.781  0.1166  0.5352 -0.1929
  178MOL0     H24522  10.705   2.892  12.129 -1.5337 -0.9550  1.2377
  178MOL0     H24523  10.892   2.616  12.203  0.4002  0.4352 -0.3801
  178MOL0     H24524  10.871   2.786  12.220  0.3271 -1.1843  0.6490
  178MOL0     H24525  10.993   2.732  12.115  0.7639 -2.2348  0.9053
  178MOL0     H24526  10.938   2.507  11.549 -0.5257 -1.9580 -0.2214
  178MOL0     H24527  11.134   2.411  11.433 -0.9196  1.4961  0.4162
  178MOL0     H24528  11.417   2.144  11.672  0.3090 -1.7169  0.4811
  178MOL0     H24529  11.296   2.035  11.604 -1.4048  0.9590  0.5382
  178MOL0     H24530  11.531   2.156  11.462  1.5797  0.6613  1.4715
  178MOL0     H24531  11.533   2.000  11.546  0.6546 -0.2977 -1.7278
  178MOL0     H24532  11.335   2.067  11.315  0.1467  0.4373 -0.0038
  178MOL0     H24533  11.364   1.905  11.395 -0.2257 -1.5125 -5.0814
  178MOL0     H24534  11.608   2.007  11.306 -1.4249  0.7680  0.5046
  178MOL0     H24535  11.524   2.052  11.175  5.3509  0.9396  2.1984
  178MOL0     H24536  11.425   1.796  11.169 -0.8675  1.3832 -0.1837
  178MOL0     H24537  11.589   1.843  11.110  2.1689  0.2731  2.3277
  178MOL0     H24538  11.555   1.643  11.256 -1.4818  0.8503  0.1166
  178MOL0     H24539  11.511   1.743  11.389  0.7150  2.6110  0.6491
  178MOL0     H24540  11.703   1.849  11.423 -0.4183  2.5748 -2.3037
  178MOL0     H24541  11.763   1.803  11.261 -0.5974  0.8120  1.1561
  178MOL0     H24542  11.891   1.671  11.395  0.1604 -2.0716 -0.9484
  178MOL0     H24543  11.768   1.561  11.333  0.6064 -1.6206  0.2098
  178MOL0     H24544  11.209   2.149  11.767  0.0573  0.8166  0.1465
  178MOL0     H24545  11.014   2.252  11.891  0.0310  1.8819 -0.4179
  178MOL0     H24546  10.681   2.590  11.737  1.5810 -0.7726  0.3163
  178MOL0     H24547  10.529   2.759  11.755  0.1830 -2.4958 -0.6069
  178MOL0     H24548   9.633   3.297  10.297  0.3006 -1.5501  4.3170
  178MOL0     H24549   9.413   3.292  10.178 -1.6893  0.0077  0.5424
  178MOL0     H24550   8.988   3.504  10.147  0.8766  2.6809 -2.8146
  178MOL0     H24551   8.796   3.411  10.063  0.3399 -1.1000  0.8308
  178MOL0     H24552   8.770   3.181   9.701  1.5329 -0.3285  0.6869
  178MOL0     H24553   8.765   3.041   9.813 -0.4814  0.4224  1.6448
  178MOL0     H24554   8.539   3.220   9.734 -0.4779  0.8343  2.8997
  178MOL0     H24555   8.527   3.108   9.873 -0.9822  2.0564  0.2470
  178MOL0     H24556   8.574   3.048   9.565 -0.4664 -2.6537 -1.0812
  178MOL0     H24557   8.599   2.925   9.688 -0.3243 -0.3222 -0.9398
  178MOL0     H24558   8.379   2.926   9.566 -3.1920 -0.5396  0.5964
  178MOL0     H24559   8.339   3.075   9.658  1.3006  0.4941 -1.4613
  178MOL0     H24560   8.329   2.731   9.928 -0.4640  1.3535  2.6511
  178MOL0     H24561   8.976   3.200   9.755  0.7572 -0.9471  0.0380
  178MOL0     H24562   9.218   3.173   9.749  1.2010 -0.2136 -0.4284
  178MOL0     H24563   9.246   3.355   9.729  0.7151  0.6682  1.3730
  178MOL0     H24564   9.330   3.276   9.852  1.2677  0.3750 -1.6556
  179MOL0     O24565   6.810   8.738   5.997 -0.0600  0.2473 -0.5229
  179MOL0     C24566   6.906   8.786   5.929  0.9355  0.7797  0.2797
  179MOL0     O24567   6.888   8.850   5.808  0.4288 -0.2372 -0.4432
  179MOL0     C24568   6.766   8.907   5.781 -0.8254 -0.1197 -0.7336
  179MOL0     C24569   6.720   8.913   5.653 -0.1015  0.3261  0.3415
  179MOL0     C24570   6.603   8.983   5.613  0.4190  0.7168 -0.9137
  179MOL0     C24571   6.514   9.031   5.707 -0.9425  0.1987  0.4633
  179MOL0     O24572   6.391   9.081   5.681 -0.3262  0.8882  0.5064
  179MOL0     C24573   6.329   9.035   5.564  0.0329 -0.2843  0.0608
  179MOL0     C24574   6.179   9.091   5.557 -0.1243  1.0974 -0.6032
  179MOL0     C24575   6.108   9.060   5.685  0.4005  1.0189 -0.7130
  179MOL0     C24576   5.959   9.088   5.665 -0.2784  0.6732  0.4951
  179MOL0     C24577   5.875   9.026   5.782  0.4899 -0.1819 -0.0795
  179MOL0     C24578   5.723   9.046   5.740 -0.9057 -0.5492  0.1981
  179MOL0     C24579   5.636   8.968   5.829 -0.2065 -0.2251  0.0396
  179MOL0     C24580   5.489   8.977   5.784  0.0792 -0.3065 -0.2193
  179MOL0     N24581   5.407   8.871   5.849  0.3897 -0.4109 -0.3487
  179MOL0     C24582   5.320   8.904   5.946 -0.3086 -0.4282 -0.0937
  179MOL0     C24583   5.296   8.791   6.020 -0.4603  0.0010 -0.5281
  179MOL0     C24584   5.218   8.771   6.148  0.2164  0.0870  0.6280
  179MOL0     C24585   5.319   8.725   6.251 -0.3679  0.2585 -0.6734
  179MOL0     C24586   5.434   8.824   6.276 -0.8854 -0.0801 -0.0066
  179MOL0     C24587   5.551   8.750   6.349  0.7292 -0.9383  0.2424
  179MOL0     O24588   5.671   8.841   6.323 -0.7872  0.3544 -0.1654
  179MOL0     C24589   5.786   8.818   6.397  0.7086 -0.1362 -0.5158
  179MOL0     C24590   5.802   8.721   6.486  0.4605  1.2672 -0.5391
  179MOL0     C24591   5.918   8.691   6.557  0.3663  0.0638 -0.1993
  179MOL0     C24592   5.913   8.591   6.669  0.9628  0.2952 -0.2715
  179MOL0     C24593   6.030   8.775   6.528  0.1454 -0.6309  0.3292
  179MOL0     C24594   6.163   8.758   6.593 -0.7694  0.1722  0.5494
  179MOL0     O24595   6.198   8.635   6.644  0.6271 -0.3934  0.2737
  179MOL0     C24596   6.319   8.595   6.686  0.1921  0.8201 -0.2377
  179MOL0     C24597   6.343   8.454   6.724  0.7941 -0.1745  0.6814
  179MOL0     C24598   6.463   8.410   6.768  0.6821 -0.1342  0.3696
  179MOL0     C24599   6.564   8.504   6.795 -0.6645 -0.3588 -0.0468
  179MOL0     O24600   6.680   8.464   6.858 -0.7172 -0.2721  0.4760
  179MOL0     C24601   6.686   8.481   6.998 -0.5089  0.1362 -0.0710
  179MOL0     C24602   6.831   8.500   7.044  0.3140  0.5512 -0.1519
  179MOL0     C24603   6.928   8.404   6.983  1.1712 -0.3835 -0.5886
  179MOL0     C24604   7.071   8.459   7.028  0.4012  0.2710  1.0560
  179MOL0     C24605   7.172   8.420   6.924 -1.4784  0.1758 -0.0479
  179MOL0     C24606   7.299   8.508   6.948 -0.4614  0.6248  0.5151
  179MOL0     C24607   7.417   8.470   6.852  0.1329  1.1111 -0.1038
  179MOL0     C24608   7.547   8.532   6.901  0.0629  1.4114  0.8271
  179MOL0    Cl24609   7.541   8.715   6.898 -0.0484 -0.0879 -0.0849
  179MOL0     C24610   6.549   8.637   6.761  0.0218  0.5101 -0.0006
  179MOL0     C24611   6.426   8.681   6.708  0.6311  0.2992  1.0817
  179MOL0     O24612   6.236   8.859   6.595  0.3299 -0.0999  0.2005
  179MOL0     C24613   6.006   8.885   6.444  0.5036  0.0217  0.3601
  179MOL0     C24614   5.892   8.904   6.378 -0.2841 -0.7456  0.2916
  179MOL0     N24615   5.367   8.688   5.958 -0.4737 -0.3457  0.6502
  179MOL0     N24616   5.433   8.740   5.855 -0.0590  0.4602  0.0147
  179MOL0     C24617   6.561   9.027   5.842 -0.2936  0.0789  0.0015
  179MOL0     C24618   6.688   8.976   5.881 -0.7241  0.2478 -0.1614
  179MOL0     C24619   7.038   8.760   5.971 -0.2000  0.4424  1.0547
  179MOL0     C24620   7.146   8.813   5.889  0.0178 -0.2503  0.0724
  179MOL0     C24621   7.285   8.793   5.925  0.0953 -0.4694  1.4552
  179MOL0     C24622   7.326   8.721   6.036  1.3416 -0.0848  0.2124
  179MOL0     O24623   7.462   8.712   6.057  0.3078  0.2404  0.9193
  179MOL0     C24624   7.510   8.647   6.176  0.1483 -0.0304  0.5267
  179MOL0     C24625   7.661   8.617   6.155  1.1610 -0.0271  0.0615
  179MOL0     C24626   7.722   8.543   6.282 -0.5848  0.2129  0.1639
  179MOL0     C24627   7.766   8.652   6.392  0.6139 -0.3113  0.4927
  179MOL0     C24628   7.833   8.601   6.508 -0.0057 -0.1605  0.4528
  179MOL0     C24629   7.891   8.554   6.605  1.4600 -1.1042  0.0263
  179MOL0     C24630   7.220   8.673   6.114  0.3370  1.0788 -0.4948
  179MOL0     C24631   7.083   8.687   6.082 -0.8410  0.3157 -0.5803
  179MOL0     C24632   6.991   8.611   6.179 -0.8344  0.4229  0.2695
  179MOL0     H24633   6.790   8.878   5.578 -0.2230 -1.5381  1.0601
  179MOL0     H24634   6.588   8.982   5.505  2.9298 -0.5744 -1.3206
  179MOL0     H24635   6.334   8.925   5.567 -1.6398 -0.4004 -0.2474
  179MOL0     H24636   6.388   9.067   5.478  0.2408 -1.6319 -0.3216
  179MOL0     H24637   6.165   9.199   5.545 -0.4759  0.9229 -1.9868
  179MOL0     H24638   6.132   9.047   5.468  0.5101  0.1851 -0.5017
  179MOL0     H24639   6.131   8.961   5.725 -1.3523  0.3379 -1.3054
  179MOL0     H24640   6.129   9.134   5.762 -4.9030  2.1999 -0.0522
  179MOL0     H24641   5.941   9.193   5.641 -0.7217  0.2373 -1.2250
  179MOL0     H24642   5.917   9.036   5.578 -0.8732  2.3914 -0.2832
  179MOL0     H24643   5.893   9.062   5.884  0.8194 -2.8352  0.8735
  179MOL0     H24644   5.907   8.922   5.787  5.0141  1.0278  1.5277
  179MOL0     H24645   5.701   9.150   5.764 -0.1741  0.1136 -1.7932
  179MOL0     H24646   5.702   9.033   5.633  1.9514  2.7387 -0.9555
  179MOL0     H24647   5.651   9.016   5.926  0.8907  2.1709 -1.2212
  179MOL0     H24648   5.665   8.863   5.826  4.1684  0.8203 -0.7226
  179MOL0     H24649   5.446   9.074   5.812 -0.9796 -0.2731 -1.8055
  179MOL0     H24650   5.471   8.954   5.679 -2.6550  0.0737  0.0974
  179MOL0     H24651   5.293   9.007   5.967  2.1938  0.6994 -1.8495
  179MOL0     H24652   5.152   8.684   6.137  2.9839 -2.4044  2.2676
  179MOL0     H24653   5.153   8.851   6.185  0.7666 -0.2126  2.3503
  179MOL0     H24654   5.275   8.713   6.350  2.1745  1.0428  0.6548
  179MOL0     H24655   5.364   8.633   6.213 -1.9910 -0.3224 -1.2864
  179MOL0     H24656   5.481   8.862   6.185  0.6777  0.7850  1.1014
  179MOL0     H24657   5.388   8.912   6.323 -1.9251 -1.0167  0.7758
  179MOL0     H24658   5.534   8.761   6.457  0.5640  2.6879 -0.0210
  179MOL0     H24659   5.563   8.646   6.319 -1.0204 -0.9835 -0.4363
  179MOL0     H24660   5.717   8.662   6.516  0.0784  2.1100  0.0735
  179MOL0     H24661   5.984   8.607   6.751 -0.2082 -6.2286  2.6452
  179MOL0     H24662   5.948   8.494   6.634 -3.4632 -1.1050 -1.3719
  179MOL0     H24663   5.812   8.599   6.711  0.4175  2.3552 -1.8072
  179MOL0     H24664   6.260   8.385   6.734  3.1061 -2.9326  2.4988
  179MOL0     H24665   6.490   8.308   6.794  1.0159 -0.0951  0.1868
  179MOL0     H24666   6.637   8.574   7.028  0.9774  0.5786  1.0931
  179MOL0     H24667   6.642   8.396   7.051  1.0044  1.0269  2.8213
  179MOL0     H24668   6.863   8.598   7.007  1.2602 -0.9616 -3.6754
  179MOL0     H24669   6.825   8.497   7.154 -3.6756  3.8207 -0.0257
  179MOL0     H24670   6.912   8.396   6.875 -1.5560  0.4686 -0.3317
  179MOL0     H24671   6.920   8.309   7.036 -0.7989  0.2947  0.4422
  179MOL0     H24672   7.100   8.428   7.129  0.8543 -1.6623  0.3744
  179MOL0     H24673   7.064   8.568   7.024 -0.5774  0.2862  2.6677
  179MOL0     H24674   7.204   8.316   6.927  2.5066  1.2554  0.0527
  179MOL0     H24675   7.141   8.450   6.823 -0.2911  0.4549 -0.3437
  179MOL0     H24676   7.323   8.500   7.054  2.1112  4.2160  0.3946
  179MOL0     H24677   7.272   8.611   6.925 -2.5068  0.6642  2.7282
  179MOL0     H24678   7.399   8.498   6.748 -1.0556 -1.2297 -0.5786
  179MOL0     H24679   7.426   8.362   6.841 -3.3807  0.6938  0.0820
  179MOL0     H24680   7.630   8.506   6.836 -1.0718  1.7067 -0.7816
  179MOL0     H24681   7.569   8.506   7.005  0.9570 -0.8698  0.1111
  179MOL0     H24682   6.628   8.706   6.792 -0.7569  0.9186  1.1664
  179MOL0     H24683   6.435   8.787   6.687  0.0661  0.7357  2.8469
  179MOL0     H24684   6.085   8.952   6.413  0.6137 -0.7924 -1.1731
  179MOL0     H24685   5.877   8.987   6.309 -1.3358  0.7103  2.1698
  179MOL0     H24686   6.494   9.067   5.918  0.3809  0.2243  0.5294
  179MOL0     H24687   6.719   8.972   5.985 -1.4610  0.2367  0.0621
  179MOL0     H24688   7.118   8.857   5.794 -4.4398 -1.5800  0.5281
  179MOL0     H24689   7.356   8.842   5.859 -2.7067  3.5433  1.0972
  179MOL0     H24690   7.490   8.704   6.267  1.4056  0.7188  0.3505
  179MOL0     H24691   7.458   8.553   6.195 -2.4459  0.8734 -1.4493
  179MOL0     H24692   7.714   8.709   6.128 -0.6707  0.2552 -3.0403
  179MOL0     H24693   7.660   8.553   6.066  0.0683  1.4227 -1.0163
  179MOL0     H24694   7.656   8.471   6.331  0.4561 -1.2564 -0.5277
  179MOL0     H24695   7.812   8.488   6.252  0.5342  0.8853  2.1015
  179MOL0     H24696   7.673   8.700   6.425  0.7912  0.7695 -0.5053
  179MOL0     H24697   7.831   8.728   6.348 -2.1291  1.5313 -0.6661
  179MOL0     H24698   7.931   8.530   6.701 -1.4911 -0.8566  1.4426
  179MOL0     H24699   7.242   8.620   6.206  0.0407 -1.4389 -1.7698
  179MOL0     H24700   7.035   8.527   6.233 -1.5677  0.5837  1.1274
  179MOL0     H24701   6.941   8.677   6.250  0.5664 -1.0680  2.7813
  179MOL0     H24702   6.903   8.561   6.138 -0.4418 -1.9509  2.1402
  180MOL0     O24703  10.885   0.443   9.653 -0.1420  0.0269 -0.0837
  180MOL0     C24704  10.848   0.495   9.544 -0.0508 -0.3559 -0.1494
  180MOL0     O24705  10.926   0.487   9.427 -0.4962 -0.4194  0.0679
  180MOL0     C24706  11.040   0.414   9.434 -0.6585 -0.1099 -0.0417
  180MOL0     C24707  11.050   0.275   9.425  0.7465 -0.0067  0.3226
  180MOL0     C24708  11.165   0.203   9.423 -1.1609 -0.2953  0.6693
  180MOL0     C24709  11.290   0.280   9.439 -0.0805  0.4804 -0.2524
  180MOL0     O24710  11.418   0.241   9.456  0.0420 -0.4370 -1.1030
  180MOL0     C24711  11.448   0.104   9.475  1.0229  0.6222 -0.1359
  180MOL0     C24712  11.582   0.106   9.553 -0.1571 -0.8580  0.5336
  180MOL0     C24713  11.702   0.181   9.486 -0.3183 -0.4201 -0.2181
  180MOL0     C24714  11.817   0.191   9.584 -0.8507  0.0424 -0.3282
  180MOL0     C24715  11.918   0.285   9.514 -0.3253 -0.0339  0.1356
  180MOL0     C24716  12.049   0.294   9.591  0.6077 -0.3664 -0.1337
  180MOL0     C24717  12.114   0.157   9.595 -0.6697  0.0801  0.2741
  180MOL0     C24718  12.267   0.163   9.631 -0.1537 -0.1047  0.8374
  180MOL0     N24719  12.346   0.244   9.533 -0.0939  1.3789  0.6395
  180MOL0     C24720  12.408   0.177   9.428  0.0790 -0.3930 -0.4008
  180MOL0     C24721  12.496   0.265   9.373  0.9963  0.0084  0.1548
  180MOL0     C24722  12.564   0.250   9.247 -0.0978  1.2525 -0.1931
  180MOL0     C24723  12.721   0.254   9.272  0.6468 -0.2573  0.0610
  180MOL0     C24724  12.769   0.119   9.334  0.2213 -0.7102 -0.2113
  180MOL0     C24725  12.920   0.125   9.339 -0.2899  0.0076  1.0198
  180MOL0     O24726  12.970   0.122   9.209 -0.2354  0.4274  0.1783
  180MOL0     C24727  13.104   0.147   9.197 -0.6790 -1.0846 -0.1713
  180MOL0     C24728  13.208   0.077   9.267 -0.3217 -0.1722  0.0815
  180MOL0     C24729  13.340   0.117   9.256 -0.2207 -0.3834 -0.3192
  180MOL0     C24730  13.440   0.034   9.338  0.3120  0.4547  0.2145
  180MOL0     C24731  13.374   0.217   9.165  0.8680 -0.1698  0.1121
  180MOL0     C24732  13.514   0.277   9.152 -0.3676  0.3379 -0.4050
  180MOL0     O24733  13.599   0.248   9.251 -0.0133 -0.3502 -0.0513
  180MOL0     C24734  13.729   0.281   9.239 -0.4869  0.2744 -0.0328
  180MOL0     C24735  13.764   0.413   9.212  0.0310 -0.6400 -0.2603
  180MOL0     C24736  13.902   0.443   9.174  0.6266 -0.7260 -0.8689
  180MOL0     C24737  14.002   0.346   9.190  0.1782 -0.2086 -0.8399
  180MOL0     O24738  14.132   0.378   9.156 -0.0539  0.4990  0.2369
  180MOL0     C24739  14.227   0.330   9.248 -0.1122 -0.1313 -0.2751
  180MOL0     C24740  14.335   0.441   9.261  0.0013  0.0601 -0.2717
  180MOL0     C24741  14.403   0.469   9.129 -0.3468 -0.3227  0.2517
  180MOL0     C24742  14.519   0.369   9.106 -0.6288  0.2320  0.7869
  180MOL0     C24743  14.542   0.345   8.958  0.2365 -0.1669  0.6910
  180MOL0     C24744  14.669   0.281   8.906 -0.5100  0.1736 -0.5148
  180MOL0     C24745  14.769   0.394   8.876  0.4635 -0.2369 -0.1424
  180MOL0     C24746  14.916   0.347   8.874 -0.3936  0.1977  0.0747
  180MOL0    Cl24747  14.959   0.261   9.022  0.3123 -0.0296 -0.0309
  180MOL0     C24748  13.960   0.214   9.228 -0.6073 -0.6002 -0.3319
  180MOL0     C24749  13.825   0.178   9.247  0.5142  0.1940  0.5042
  180MOL0     O24750  13.545   0.329   9.045 -0.6770 -0.7810 -0.0409
  180MOL0     C24751  13.283   0.275   9.086  0.4908 -0.4454  0.1344
  180MOL0     C24752  13.142   0.244   9.109 -0.1489  0.9219  0.0222
  180MOL0     N24753  12.483   0.386   9.437  0.1745  0.6657  0.2967
  180MOL0     N24754  12.402   0.374   9.541 -1.2720  1.7385 -0.3958
  180MOL0     C24755  11.280   0.426   9.448  0.1945  0.9200  0.5545
  180MOL0     C24756  11.156   0.490   9.444  0.2210  0.8363  0.4079
  180MOL0     C24757  10.724   0.576   9.545 -0.9032 -0.1395  0.1170
  180MOL0     C24758  10.673   0.624   9.664  0.4560 -0.3025 -0.4073
  180MOL0     C24759  10.549   0.690   9.670  0.1527  0.0396  0.1028
  180MOL0     C24760  10.477   0.719   9.553 -0.5089  0.7705 -0.1105
  180MOL0     O24761  10.358   0.796   9.572 -0.1460  0.1727  0.9279
  180MOL0     C24762  10.259   0.810   9.467  0.1899 -1.0440  0.0737
  180MOL0     C24763  10.148   0.921   9.496 -0.6881 -0.6683  0.1055
  180MOL0     C24764  10.069   0.894   9.622  0.1689 -0.3693 -0.3002
  180MOL0     C24765   9.937   0.980   9.657 -1.1697 -0.1533  0.2594
  180MOL0     C24766   9.823   0.982   9.563 -0.3560  0.4323  0.6859
  180MOL0     C24767   9.719   0.988   9.500  0.6031  0.2552  0.6163
  180MOL0     C24768  10.530   0.669   9.434  0.8790  0.7888 -0.9915
  180MOL0     C24769  10.648   0.603   9.429  0.2157 -0.4858 -0.5882
  180MOL0     C24770  10.681   0.517   9.304 -0.5454  1.0558 -0.1144
  180MOL0     H24771  10.964   0.210   9.409 -0.7257  2.0347 -0.5119
  180MOL0     H24772  11.178   0.095   9.418 -0.7149 -0.1999 -0.7245
  180MOL0     H24773  11.452   0.062   9.374  1.7382  0.4793 -0.0525
  180MOL0     H24774  11.373   0.042   9.525 -0.1191 -0.2001 -2.6712
  180MOL0     H24775  11.568   0.144   9.655  0.8435 -0.6177  0.5887
  180MOL0     H24776  11.607   0.001   9.575  0.9000 -0.2771  2.3929
  180MOL0     H24777  11.722   0.120   9.397 -2.1382 -1.6551  0.1476
  180MOL0     H24778  11.669   0.280   9.455  0.0818 -0.5150 -0.9744
  180MOL0     H24779  11.784   0.243   9.674  0.1223  2.8837 -1.5171
  180MOL0     H24780  11.860   0.093   9.610 -1.9565 -0.4880 -0.4237
  180MOL0     H24781  11.875   0.379   9.479 -0.0538 -1.5550 -5.1756
  180MOL0     H24782  11.950   0.251   9.415  0.9900 -0.1416  0.5800
  180MOL0     H24783  12.107   0.372   9.539 -1.7207  1.9516  0.5610
  180MOL0     H24784  12.022   0.339   9.687 -1.8602  0.5340 -1.1626
  180MOL0     H24785  12.123   0.109   9.497  0.6292 -0.6097  0.7038
  180MOL0     H24786  12.070   0.093   9.672 -1.4334  1.3366  0.9245
  180MOL0     H24787  12.274   0.205   9.731  1.1231  0.0290  0.7116
  180MOL0     H24788  12.305   0.062   9.645  0.0760  0.0441  1.2896
  180MOL0     H24789  12.387   0.073   9.403  0.1877 -0.8388  1.2194
  180MOL0     H24790  12.528   0.328   9.180 -1.1933 -1.2004 -2.6684
  180MOL0     H24791  12.542   0.151   9.207 -1.0313  2.2103 -2.1408
  180MOL0     H24792  12.762   0.268   9.171  2.3301 -0.3077  0.6958
  180MOL0     H24793  12.747   0.334   9.342  0.4872 -1.5462  1.6299
  180MOL0     H24794  12.730   0.120   9.436 -1.0466  3.2433 -0.5812
  180MOL0     H24795  12.737   0.032   9.275 -0.7311  0.2635 -1.1745
  180MOL0     H24796  12.966   0.212   9.387  0.5229  0.0368  0.2106
  180MOL0     H24797  12.960   0.042   9.397 -3.1126 -1.3555  1.1792
  180MOL0     H24798  13.178   0.007   9.345 -1.4197  1.9016  1.6137
  180MOL0     H24799  13.412  -0.044   9.410  0.3130 -0.0144 -0.2903
  180MOL0     H24800  13.506   0.101   9.394 -0.2049  0.6680  0.5750
  180MOL0     H24801  13.502  -0.021   9.267  1.2524  1.2556  0.3904
  180MOL0     H24802  13.686   0.488   9.206  0.5359  0.3064  3.1349
  180MOL0     H24803  13.934   0.544   9.152  2.0223 -0.1671  3.0329
  180MOL0     H24804  14.190   0.302   9.347  0.0216 -0.1202 -0.2208
  180MOL0     H24805  14.274   0.238   9.213  1.7626 -0.2175  2.1576
  180MOL0     H24806  14.280   0.533   9.284 -1.8170 -1.4620  1.8802
  180MOL0     H24807  14.407   0.423   9.342 -0.6602 -0.6961  0.1637
  180MOL0     H24808  14.448   0.569   9.125 -1.1057 -0.0127 -1.4136
  180MOL0     H24809  14.339   0.454   9.042  1.3350 -0.7329 -0.9629
  180MOL0     H24810  14.509   0.269   9.151  1.4057 -0.5981 -0.4541
  180MOL0     H24811  14.603   0.422   9.152 -2.7881  4.0801  0.6971
  180MOL0     H24812  14.462   0.286   8.911  2.6826 -1.2454 -2.5371
  180MOL0     H24813  14.518   0.440   8.909 -0.9545 -0.5099  0.5775
  180MOL0     H24814  14.655   0.219   8.817 -2.7145 -0.3157  0.1150
  180MOL0     H24815  14.707   0.212   8.982 -1.7780 -0.1970 -0.1814
  180MOL0     H24816  14.770   0.468   8.956  0.0797 -2.0300  1.5972
  180MOL0     H24817  14.739   0.446   8.784 -0.6595  0.4739  0.5983
  180MOL0     H24818  14.987   0.427   8.852 -0.5582  0.4960  0.5964
  180MOL0     H24819  14.927   0.273   8.795  1.6302 -0.4679  0.9155
  180MOL0     H24820  14.038   0.141   9.246 -1.9924 -1.8107  1.0266
  180MOL0     H24821  13.795   0.075   9.260  0.9938  0.0424  0.4238
  180MOL0     H24822  13.309   0.358   9.021 -0.7281  1.6857  2.1725
  180MOL0     H24823  13.068   0.294   9.048  0.6813  1.5386 -0.5044
  180MOL0     H24824  11.376   0.476   9.456  0.4366  1.2721 -3.0057
  180MOL0     H24825  11.129   0.593   9.463  0.8084  1.1470 -0.3848
  180MOL0     H24826  10.730   0.616   9.756 -2.4771 -0.8580  1.4968
  180MOL0     H24827  10.516   0.720   9.768  1.7153  1.3085  0.2933
  180MOL0     H24828  10.304   0.849   9.375 -1.4245  1.1158  0.1260
  180MOL0     H24829  10.209   0.716   9.442 -0.6955 -0.5686  0.0257
  180MOL0     H24830  10.078   0.902   9.415 -0.9803 -0.2957  0.2663
  180MOL0     H24831  10.186   1.024   9.499 -2.1037 -0.1301  1.4249
  180MOL0     H24832  10.031   0.791   9.617  0.2471 -0.3758 -0.8061
  180MOL0     H24833  10.143   0.906   9.701  0.7370  2.1452 -1.1315
  180MOL0     H24834   9.961   1.086   9.665  1.6387 -0.6630 -0.2974
  180MOL0     H24835   9.914   0.935   9.753  0.4901 -1.3146  0.1665
  180MOL0     H24836   9.629   0.990   9.443  0.8195 -5.5520 -0.4891
  180MOL0     H24837  10.478   0.680   9.339 -1.1143 -0.5922 -0.1125
  180MOL0     H24838  10.780   0.532   9.261  0.5147 -0.6101  1.5900
  180MOL0     H24839  10.672   0.411   9.329  3.9555  0.4438 -0.3454
  180MOL0     H24840  10.609   0.530   9.223 -0.9997 -2.6521 -0.5016
  181MOL0     O24841   0.892   3.250   8.725 -0.2704 -0.4024 -0.2832
  181MOL0     C24842   0.828   3.278   8.621 -0.5169  0.9757 -0.6655
  181MOL0     O24843   0.887   3.326   8.510  0.3078 -0.2552 -0.1935
  181MOL0     C24844   1.022   3.355   8.508  0.4618  0.0662 -0.0012
  181MOL0     C24845   1.061   3.484   8.461 -0.3469  0.4547  0.0266
  181MOL0     C24846   1.194   3.514   8.456  0.0423 -0.2217  0.0515
  181MOL0     C24847   1.288   3.422   8.500 -0.2114  0.4871 -0.5400
  181MOL0     O24848   1.422   3.468   8.495  0.2263 -0.4182 -0.1442
  181MOL0     C24849   1.514   3.399   8.578 -0.7623  0.3025  0.3220
  181MOL0     C24850   1.647   3.468   8.549  0.2539  0.8869 -0.5155
  181MOL0     C24851   1.764   3.374   8.602  0.6052  0.1990  0.6331
  181MOL0     C24852   1.892   3.455   8.572 -1.3598  0.0095  1.1177
  181MOL0     C24853   2.011   3.359   8.601 -0.7142  0.5803 -0.3535
  181MOL0     C24854   2.057   3.346   8.749  0.5628 -0.3297  0.3606
  181MOL0     C24855   2.167   3.241   8.753  0.7203  0.6741 -0.1104
  181MOL0     C24856   2.113   3.102   8.731 -0.2373  0.5921  0.2899
  181MOL0     N24857   2.188   2.996   8.793 -0.6529  0.3576 -0.1999
  181MOL0     C24858   2.306   2.941   8.751 -0.1660  0.0304  0.5717
  181MOL0     C24859   2.326   2.826   8.817  0.6155  0.1738  0.6150
  181MOL0     C24860   2.442   2.730   8.812 -0.9199  0.1386  0.4493
  181MOL0     C24861   2.460   2.637   8.925  0.3359 -0.0743 -0.4645
  181MOL0     C24862   2.524   2.497   8.892 -0.2625  0.2974 -0.1350
  181MOL0     C24863   2.678   2.503   8.920  0.5466 -0.6588  0.3749
  181MOL0     O24864   2.748   2.375   8.906  0.4652  0.4434  0.6879
  181MOL0     C24865   2.881   2.373   8.869  0.1152  0.0626  0.2989
  181MOL0     C24866   2.938   2.263   8.814 -0.6534 -0.8024  1.1613
  181MOL0     C24867   3.072   2.253   8.781  0.6121 -0.3933 -0.0620
  181MOL0     C24868   3.113   2.126   8.706  0.7709 -0.2867  0.2120
  181MOL0     C24869   3.167   2.357   8.827  0.4651  0.1562 -0.5195
  181MOL0     C24870   3.316   2.340   8.801  0.1410 -0.7405 -0.6239
  181MOL0     O24871   3.395   2.345   8.919 -0.1553 -0.1907 -0.1805
  181MOL0     C24872   3.532   2.350   8.906  0.0553  0.0740  0.9009
  181MOL0     C24873   3.606   2.429   8.818  0.0721  0.2094 -0.6846
  181MOL0     C24874   3.748   2.433   8.818  0.4001 -0.4783  0.2114
  181MOL0     C24875   3.818   2.352   8.905 -0.2494 -0.4042  0.5334
  181MOL0     O24876   3.955   2.358   8.879  0.0031 -0.0590 -1.3460
  181MOL0     C24877   4.037   2.235   8.888 -0.3616 -0.2732  0.1833
  181MOL0     C24878   4.137   2.245   9.005 -0.6208  0.0208  0.7938
  181MOL0     C24879   4.256   2.326   8.958 -0.2345 -0.4367  0.6658
  181MOL0     C24880   4.350   2.387   9.071 -0.7532 -0.2910  0.1384
  181MOL0     C24881   4.477   2.435   9.004 -0.9345 -0.7043  0.4898
  181MOL0     C24882   4.589   2.461   9.092  0.6626  0.1607 -0.3227
  181MOL0     C24883   4.719   2.483   9.023  0.4909  0.0118  0.8406
  181MOL0     C24884   4.841   2.494   9.113  0.8782 -0.3902 -0.8401
  181MOL0    Cl24885   4.985   2.509   9.016 -0.6388  0.1519  0.3381
  181MOL0     C24886   3.749   2.264   8.980  0.1299  0.2154  0.4998
  181MOL0     C24887   3.608   2.265   8.985 -0.3221  0.0399 -0.1620
  181MOL0     O24888   3.349   2.325   8.688  0.8650 -0.1031  0.2187
  181MOL0     C24889   3.105   2.462   8.901  0.1765 -0.8311  0.4336
  181MOL0     C24890   2.966   2.471   8.914  0.0828 -0.1239  0.8554
  181MOL0     N24891   2.212   2.811   8.905 -1.1721 -0.0032  0.0109
  181MOL0     N24892   2.133   2.910   8.882 -0.1572  0.4513 -0.0681
  181MOL0     C24893   1.250   3.290   8.535  0.4123 -0.0765  0.1411
  181MOL0     C24894   1.116   3.256   8.536  0.1906  0.1896 -0.3984
  181MOL0     C24895   0.681   3.259   8.610  0.0143  0.2118 -0.4740
  181MOL0     C24896   0.620   3.263   8.481 -0.1857  0.5014 -0.2476
  181MOL0     C24897   0.483   3.251   8.474  0.0108 -0.3067  0.1207
  181MOL0     C24898   0.398   3.236   8.589 -0.4273  0.0043 -0.0902
  181MOL0     O24899   0.257   3.233   8.593  0.8522 -0.1833 -0.4335
  181MOL0     C24900   0.189   3.195   8.468 -0.7595  0.1677  0.0102
  181MOL0     C24901   0.051   3.169   8.509  0.6866  0.5943  1.0215
  181MOL0     C24902   0.030   3.047   8.602  0.0768 -0.0299 -0.0550
  181MOL0     C24903  -0.120   3.015   8.637 -0.3622  0.0966 -0.4273
  181MOL0     C24904  -0.181   3.123   8.712  0.3661 -0.4033  0.0925
  181MOL0     C24905  -0.229   3.210   8.781 -0.7091  0.0002 -0.0367
  181MOL0     C24906   0.465   3.218   8.712 -0.8691 -0.3443  0.7456
  181MOL0     C24907   0.603   3.233   8.723  1.2576  1.2904 -0.1502
  181MOL0     C24908   0.660   3.227   8.859 -0.4717  0.2904 -0.1051
  181MOL0     H24909   0.981   3.548   8.426  1.3311  1.6593 -1.7813
  181MOL0     H24910   1.233   3.603   8.409 -1.0310 -0.8204 -2.1095
  181MOL0     H24911   1.520   3.294   8.548 -4.1092  0.3982 -1.0785
  181MOL0     H24912   1.476   3.396   8.680 -0.6374  0.3573  0.3698
  181MOL0     H24913   1.642   3.480   8.440  1.0675 -2.0985 -0.9655
  181MOL0     H24914   1.644   3.571   8.585  0.0050  1.2967 -1.6520
  181MOL0     H24915   1.754   3.361   8.710 -0.5871  2.1349  0.7994
  181MOL0     H24916   1.760   3.273   8.561  0.5729  0.5434 -0.2304
  181MOL0     H24917   1.894   3.481   8.466  1.1814  0.2776  1.1735
  181MOL0     H24918   1.904   3.548   8.628  1.9175 -0.4362  1.3792
  181MOL0     H24919   2.100   3.403   8.554 -0.1660 -1.2279 -1.0904
  181MOL0     H24920   1.995   3.263   8.552 -1.6944  0.4962  0.1177
  181MOL0     H24921   2.093   3.444   8.782 -1.3514 -0.1027  1.9011
  181MOL0     H24922   1.971   3.317   8.809  0.9812 -1.9445  0.2381
  181MOL0     H24923   2.216   3.246   8.851 -0.4486 -0.3657  0.5608
  181MOL0     H24924   2.240   3.271   8.678  1.8395  1.1850  1.1369
  181MOL0     H24925   2.016   3.097   8.782  0.1010  0.6751  0.9469
  181MOL0     H24926   2.101   3.070   8.627  2.2144 -0.0076  0.1465
  181MOL0     H24927   2.363   2.976   8.665 -0.3633  0.5386  0.6448
  181MOL0     H24928   2.536   2.785   8.798 -0.2387 -0.9209  0.7010
  181MOL0     H24929   2.429   2.674   8.719 -1.7000  1.5763 -0.3341
  181MOL0     H24930   2.500   2.681   9.017 -1.6109 -3.5288  2.2697
  181MOL0     H24931   2.361   2.604   8.957  0.1816 -0.2764 -1.1390
  181MOL0     H24932   2.490   2.422   8.964  1.4572 -0.9355 -0.5225
  181MOL0     H24933   2.491   2.457   8.796 -0.9071  1.1561 -0.2756
  181MOL0     H24934   2.730   2.572   8.854  1.0917  0.7588  2.2151
  181MOL0     H24935   2.692   2.545   9.020 -1.4868  1.9180 -0.3113
  181MOL0     H24936   2.877   2.179   8.783  1.3507 -1.8439 -0.1448
  181MOL0     H24937   3.024   2.064   8.713 -0.7505  1.8538  0.8575
  181MOL0     H24938   3.188   2.060   8.751 -1.2155 -1.0498  2.5949
  181MOL0     H24939   3.126   2.144   8.598 -0.1432 -1.0211 -0.0313
  181MOL0     H24940   3.541   2.490   8.756 -2.3359  0.2004  1.6596
  181MOL0     H24941   3.809   2.499   8.757  1.4079 -1.0761  0.5418
  181MOL0     H24942   3.976   2.145   8.900  0.0015 -0.6443 -0.6807
  181MOL0     H24943   4.090   2.216   8.794 -2.3462 -0.9420 -0.8560
  181MOL0     H24944   4.096   2.299   9.090  0.5764  0.8187  0.8773
  181MOL0     H24945   4.181   2.152   9.041  3.6385  2.3054  2.1186
  181MOL0     H24946   4.236   2.404   8.883 -0.2586 -2.0904 -1.1288
  181MOL0     H24947   4.319   2.267   8.890  1.2337  0.7565  0.9286
  181MOL0     H24948   4.357   2.317   9.155  2.0133  1.5043  1.5475
  181MOL0     H24949   4.299   2.477   9.107  0.6496  1.3274 -1.7023
  181MOL0     H24950   4.520   2.354   8.943  0.6791  0.1848  0.4039
  181MOL0     H24951   4.462   2.521   8.938 -2.8337 -0.3988  1.2724
  181MOL0     H24952   4.599   2.370   9.151 -1.0462  0.2540  0.1720
  181MOL0     H24953   4.569   2.551   9.152  2.1039 -0.1193  0.6181
  181MOL0     H24954   4.715   2.575   8.963  0.6480 -1.4848 -1.6388
  181MOL0     H24955   4.731   2.399   8.954  3.2712  0.9170  0.1228
  181MOL0     H24956   4.856   2.403   9.171  2.5019 -0.1421 -0.8505
  181MOL0     H24957   4.813   2.581   9.174 -2.0388 -0.5490 -1.8076
  181MOL0     H24958   3.801   2.200   9.051  1.5654  2.2360  1.3641
  181MOL0     H24959   3.564   2.203   9.062  0.9562  0.9920  1.3883
  181MOL0     H24960   3.168   2.533   8.954 -0.2037 -0.9925  1.1209
  181MOL0     H24961   2.924   2.548   8.978 -0.7349 -0.2026  0.4331
  181MOL0     H24962   1.320   3.214   8.569  1.9402  2.0902  2.2089
  181MOL0     H24963   1.087   3.155   8.562  1.8885 -0.3142 -0.3659
  181MOL0     H24964   0.679   3.288   8.393 -1.2220  1.3476 -0.7329
  181MOL0     H24965   0.428   3.266   8.382 -0.7942  2.5568  0.9766
  181MOL0     H24966   0.189   3.285   8.405  0.2991 -0.5375 -1.0371
  181MOL0     H24967   0.231   3.104   8.426  0.2449 -0.1476  1.5887
  181MOL0     H24968  -0.013   3.156   8.421 -1.3497  0.3060  2.4897
  181MOL0     H24969   0.022   3.262   8.558  1.3296  0.9560  0.7280
  181MOL0     H24970   0.067   2.961   8.545  2.0042  1.3100 -0.9161
  181MOL0     H24971   0.079   3.047   8.699 -2.2201 -3.8017  1.2832
  181MOL0     H24972  -0.129   2.918   8.687 -0.9787 -2.1465 -4.4908
  181MOL0     H24973  -0.178   3.005   8.545  1.0309  2.8263 -1.7139
  181MOL0     H24974  -0.278   3.288   8.836  0.1412  1.8957 -1.8017
  181MOL0     H24975   0.407   3.189   8.800 -4.8123 -1.5154 -1.9677
  181MOL0     H24976   0.714   3.319   8.882  0.3716 -0.0135 -0.8406
  181MOL0     H24977   0.581   3.211   8.933 -2.6082  0.5537 -2.2032
  181MOL0     H24978   0.720   3.136   8.871 -0.2008  0.4516 -0.2523
  182MOL0     O24979   2.842   0.483   8.341 -0.0875 -0.0193 -0.2167
  182MOL0     C24980   2.865   0.354   8.350  0.1818 -0.5692 -0.5764
  182MOL0     O24981   2.985   0.290   8.343 -0.2676  0.2718  0.0677
  182MOL0     C24982   3.099   0.360   8.327  0.6632 -0.3873  0.1922
  182MOL0     C24983   3.112   0.443   8.211  0.3579  0.8812 -0.3915
  182MOL0     C24984   3.233   0.514   8.187 -0.5808  0.0827  0.4066
  182MOL0     C24985   3.348   0.490   8.279  0.0360  0.0654  0.3444
  182MOL0     O24986   3.461   0.567   8.245  0.1623 -0.0626 -0.2874
  182MOL0     C24987   3.499   0.570   8.106 -0.8272 -0.0044  0.2720
  182MOL0     C24988   3.650   0.604   8.090 -0.8347 -0.0585 -0.1994
  182MOL0     C24989   3.732   0.498   8.153  0.4852 -0.4166  0.3376
  182MOL0     C24990   3.882   0.534   8.131  0.3887  0.4450  0.2556
  182MOL0     C24991   3.971   0.411   8.184 -0.2704  0.4606  0.5463
  182MOL0     C24992   4.115   0.434   8.135 -0.3670 -0.8727  0.5962
  182MOL0     C24993   4.207   0.325   8.180 -0.1597 -0.4773 -0.5785
  182MOL0     C24994   4.272   0.338   8.318 -0.6970  0.8346  0.2375
  182MOL0     N24995   4.411   0.383   8.304 -0.3770  0.7667 -0.5719
  182MOL0     C24996   4.437   0.516   8.277  0.1474  0.0356  0.1871
  182MOL0     C24997   4.579   0.512   8.263 -0.1132  0.1074 -0.2527
  182MOL0     C24998   4.659   0.637   8.231 -1.2194 -1.0427  0.2342
  182MOL0     C24999   4.759   0.597   8.123 -0.6170  0.2668  0.1858
  182MOL0     C25000   4.855   0.704   8.088 -0.0414 -0.0068 -0.2844
  182MOL0     C25001   4.960   0.672   7.987  0.2767 -0.1826  0.7960
  182MOL0     O25002   5.051   0.577   8.039  0.4877 -0.8632  0.3775
  182MOL0     C25003   5.157   0.628   8.113 -0.7215 -0.3727 -0.0677
  182MOL0     C25004   5.200   0.758   8.120 -0.0309 -0.0128  0.4411
  182MOL0     C25005   5.325   0.793   8.183 -0.0318  0.4006  0.1344
  182MOL0     C25006   5.385   0.938   8.164 -0.6031  0.3385 -0.6809
  182MOL0     C25007   5.408   0.682   8.249 -0.2893 -0.0610  0.4145
  182MOL0     C25008   5.545   0.713   8.310  0.5773  0.6355 -0.7534
  182MOL0     O25009   5.598   0.839   8.324  0.0801 -0.0276 -0.0230
  182MOL0     C25010   5.731   0.857   8.299 -0.0036  0.3807  0.7987
  182MOL0     C25011   5.773   0.950   8.204  0.2377 -0.0767 -0.4712
  182MOL0     C25012   5.908   0.967   8.178  0.4200  0.1958 -0.6208
  182MOL0     C25013   6.008   0.903   8.248  0.0533  0.8600  0.6003
  182MOL0     O25014   6.135   0.907   8.207  0.6862  0.4658  0.3148
  182MOL0     C25015   6.237   0.872   8.303  0.0587  0.4504  0.8827
  182MOL0     C25016   6.370   0.866   8.228 -0.4741  0.6288  0.4584
  182MOL0     C25017   6.410   0.985   8.140 -0.0678 -0.0500 -0.1706
  182MOL0     C25018   6.491   0.928   8.021  1.1960 -0.3977  0.4728
  182MOL0     C25019   6.477   1.034   7.914 -0.4799  0.6464 -0.4110
  182MOL0     C25020   6.558   1.007   7.789 -0.6397 -0.8876  0.2774
  182MOL0     C25021   6.524   1.116   7.693 -0.4730  0.1403  0.3230
  182MOL0     C25022   6.631   1.143   7.590 -0.2735  0.5556 -0.2192
  182MOL0    Cl25023   6.671   0.980   7.493  0.2928  0.3406  0.0261
  182MOL0     C25024   5.967   0.818   8.353 -0.2762  0.7201 -0.5519
  182MOL0     C25025   5.831   0.797   8.377 -0.1829  1.0292 -0.2115
  182MOL0     O25026   5.609   0.616   8.332 -0.0179 -0.0805  0.3280
  182MOL0     C25027   5.339   0.559   8.260 -0.2618  0.1293 -0.5316
  182MOL0     C25028   5.222   0.535   8.195 -0.0087 -0.2151 -0.6160
  182MOL0     N25029   4.624   0.381   8.273 -0.5290  0.4776  0.4187
  182MOL0     N25030   4.525   0.301   8.296  0.1903 -0.5548 -0.2611
  182MOL0     C25031   3.328   0.409   8.389  0.2099 -0.0130 -0.0112
  182MOL0     C25032   3.204   0.350   8.420  0.1159  0.2589  1.3661
  182MOL0     C25033   2.749   0.259   8.388  0.1816 -0.4929 -0.3149
  182MOL0     C25034   2.775   0.135   8.438 -0.8485 -0.4619 -0.9480
  182MOL0     C25035   2.674   0.042   8.472 -0.4451  0.0191  0.1306
  182MOL0     C25036   2.538   0.071   8.454 -0.0280  0.4984 -0.6566
  182MOL0     O25037   2.448  -0.026   8.485 -0.1450 -0.1471  0.2645
  182MOL0     C25038   2.309   0.004   8.493  0.1846  0.6442  0.0918
  182MOL0     C25039   2.270   0.087   8.615 -0.1682  0.4268 -0.7278
  182MOL0     C25040   2.259  -0.008   8.735 -1.0641  0.5510 -0.1276
  182MOL0     C25041   2.224   0.065   8.862 -0.1023 -0.2875 -0.5868
  182MOL0     C25042   2.157  -0.033   8.942  0.4907  0.0897  0.4024
  182MOL0     C25043   2.090  -0.118   9.008 -0.8736 -0.9138  0.6826
  182MOL0     C25044   2.505   0.205   8.416 -0.1716 -0.0970 -0.3401
  182MOL0     C25045   2.612   0.293   8.374  0.4827  0.2221 -0.1816
  182MOL0     C25046   2.577   0.424   8.308 -0.0776 -0.9723 -1.2753
  182MOL0     H25047   3.037   0.463   8.135  1.7983  0.8951 -1.8632
  182MOL0     H25048   3.244   0.592   8.112  1.1569 -0.3408  0.1642
  182MOL0     H25049   3.437   0.639   8.048  0.0604 -0.7516 -1.6660
  182MOL0     H25050   3.483   0.470   8.066 -1.1429  0.7518 -1.5920
  182MOL0     H25051   3.676   0.601   7.984 -1.3615  1.8460 -0.4151
  182MOL0     H25052   3.681   0.699   8.133  2.1344 -0.8585 -0.3516
  182MOL0     H25053   3.709   0.490   8.259 -3.2960 -0.0598 -0.3349
  182MOL0     H25054   3.702   0.412   8.092 -1.0398  0.4495 -0.1917
  182MOL0     H25055   3.911   0.558   8.028 -0.9977 -0.6131 -0.4080
  182MOL0     H25056   3.910   0.622   8.190  1.8577 -0.6100  1.1692
  182MOL0     H25057   3.935   0.316   8.142  2.2099 -0.7117  0.8621
  182MOL0     H25058   3.980   0.412   8.293 -1.0094  2.7578  0.6443
  182MOL0     H25059   4.110   0.446   8.027  0.9331 -2.7209  0.2746
  182MOL0     H25060   4.151   0.528   8.178 -0.1598 -0.3330 -0.7115
  182MOL0     H25061   4.283   0.317   8.102  0.6058 -1.1988  0.2232
  182MOL0     H25062   4.157   0.229   8.167 -3.3579  1.1317 -1.4258
  182MOL0     H25063   4.217   0.409   8.381 -1.1803  1.1351 -0.5062
  182MOL0     H25064   4.271   0.241   8.369  0.5771 -0.1060 -1.4140
  182MOL0     H25065   4.372   0.602   8.271 -0.4755 -0.4188  0.3780
  182MOL0     H25066   4.705   0.661   8.327 -0.3462  0.9574 -0.6328
  182MOL0     H25067   4.596   0.720   8.196 -0.5208 -0.6189 -0.0380
  182MOL0     H25068   4.821   0.516   8.162 -3.1839 -1.3247  1.2356
  182MOL0     H25069   4.701   0.567   8.035 -3.2304 -2.7009  2.6651
  182MOL0     H25070   4.800   0.789   8.048 -2.5372 -0.8014  1.2491
  182MOL0     H25071   4.902   0.724   8.185 -2.4069 -2.3283  1.4818
  182MOL0     H25072   4.911   0.614   7.908 -1.6660  2.4523 -0.1093
  182MOL0     H25073   4.996   0.765   7.943 -1.4900  0.7942  1.3287
  182MOL0     H25074   5.141   0.835   8.070 -2.3221 -0.6646  1.9981
  182MOL0     H25075   5.483   0.931   8.117 -0.5799 -5.5881 -0.4645
  182MOL0     H25076   5.392   0.974   8.267 -0.3325 -0.7536 -0.3009
  182MOL0     H25077   5.315   0.989   8.098 -3.1002 -0.5817  1.0749
  182MOL0     H25078   5.713   1.023   8.149  0.5876  1.7406  1.4284
  182MOL0     H25079   5.938   1.039   8.103 -0.0240  1.8205  0.6991
  182MOL0     H25080   6.241   0.955   8.375  0.5219 -0.0838  1.4798
  182MOL0     H25081   6.220   0.774   8.348  0.0835 -0.7414 -1.5340
  182MOL0     H25082   6.448   0.850   8.303 -1.5118 -0.3348  1.3643
  182MOL0     H25083   6.372   0.776   8.166  3.7775  0.0730  1.0898
  182MOL0     H25084   6.478   1.048   8.197 -1.5841 -0.4364  2.2144
  182MOL0     H25085   6.322   1.048   8.124 -0.2905  0.5402  2.8473
  182MOL0     H25086   6.453   0.835   7.978 -0.2884 -0.3427  1.6073
  182MOL0     H25087   6.597   0.913   8.043  1.4600 -2.1828 -1.6377
  182MOL0     H25088   6.369   1.041   7.900 -0.6739  2.6155  1.5213
  182MOL0     H25089   6.501   1.130   7.962 -0.9465  0.6031 -0.0908
  182MOL0     H25090   6.541   0.906   7.751  1.3607 -2.0516  2.2106
  182MOL0     H25091   6.664   1.016   7.817 -0.7143  2.2004 -0.0883
  182MOL0     H25092   6.508   1.212   7.744 -0.6123  1.0973 -1.4502
  182MOL0     H25093   6.439   1.083   7.632 -0.2769  0.4421 -0.1211
  182MOL0     H25094   6.721   1.172   7.646 -0.4067  1.4132 -0.4351
  182MOL0     H25095   6.608   1.223   7.519 -3.0336 -0.6156 -0.7662
  182MOL0     H25096   6.037   0.759   8.410 -1.4742 -1.5832 -1.3420
  182MOL0     H25097   5.792   0.723   8.448 -1.7227 -1.7616 -3.6520
  182MOL0     H25098   5.402   0.487   8.312  1.9493  1.1511 -1.6259
  182MOL0     H25099   5.195   0.430   8.198  1.4289 -0.5944  0.0175
  182MOL0     H25100   3.409   0.396   8.460 -1.4682  1.1385  2.2546
  182MOL0     H25101   3.198   0.295   8.514  0.1066 -0.1219  1.1467
  182MOL0     H25102   2.873   0.104   8.473 -0.0327  1.7525 -1.0704
  182MOL0     H25103   2.708  -0.049   8.519  2.0936  1.3022  0.9288
  182MOL0     H25104   2.279   0.051   8.399 -0.6045 -1.9216 -1.0275
  182MOL0     H25105   2.247  -0.086   8.486  0.1332  0.7675 -1.6506
  182MOL0     H25106   2.171   0.133   8.603 -0.1373  0.7465  0.1500
  182MOL0     H25107   2.348   0.163   8.623 -0.9876  1.0747  5.4910
  182MOL0     H25108   2.192  -0.093   8.714  1.7132 -1.6237 -0.8258
  182MOL0     H25109   2.356  -0.054   8.757 -1.4238  0.5708  1.6381
  182MOL0     H25110   2.154   0.145   8.835 -0.2013 -0.5922 -1.2479
  182MOL0     H25111   2.314   0.104   8.910 -1.1230  2.0485 -0.4321
  182MOL0     H25112   2.049  -0.194   9.072  1.1282 -2.8212 -0.1615
  182MOL0     H25113   2.403   0.240   8.401 -0.5468 -2.1314 -3.3697
  182MOL0     H25114   2.595   0.503   8.382 -1.8399 -0.6962 -1.1001
  182MOL0     H25115   2.641   0.439   8.220 -0.4293  2.0883 -1.1237
  182MOL0     H25116   2.473   0.430   8.276  0.1121 -0.9732 -1.9114
  183MOL0     O25117   4.441   9.311  10.327 -0.7458  0.0800  0.3766
  183MOL0     C25118   4.492   9.322  10.214 -0.3742 -0.6455 -0.0216
  183MOL0     O25119   4.481   9.244  10.104  0.3476  0.4419  0.4211
  183MOL0     C25120   4.397   9.133  10.116  0.0070 -0.3175  0.1692
  183MOL0     C25121   4.449   9.005  10.160  0.6364 -0.5297 -0.0010
  183MOL0     C25122   4.364   8.889  10.159  0.3443  0.3770  0.0552
  183MOL0     C25123   4.228   8.901  10.129  0.4338 -0.2094  0.4854
  183MOL0     O25124   4.137   8.795  10.131 -0.1537  0.0194  0.5006
  183MOL0     C25125   4.027   8.803  10.221  0.9254  0.0330 -0.6903
  183MOL0     C25126   3.896   8.742  10.165  0.0095  0.1173 -0.0656
  183MOL0     C25127   3.917   8.593  10.124  0.0038 -0.3995 -0.0972
  183MOL0     C25128   3.913   8.493  10.236 -0.1225  0.5660 -0.0843
  183MOL0     C25129   3.920   8.349  10.197  0.3744  0.3447 -0.0468
  183MOL0     C25130   4.051   8.308  10.108 -0.0478 -0.3667 -0.1923
  183MOL0     C25131   4.182   8.312  10.188 -0.1410  0.2608 -0.0460
  183MOL0     C25132   4.295   8.243  10.107 -0.7664  0.1287 -0.1448
  183MOL0     N25133   4.421   8.243  10.185 -0.1191  0.0495  0.1709
  183MOL0     C25134   4.490   8.357  10.219 -0.7189  0.8844 -0.3486
  183MOL0     C25135   4.589   8.316  10.306  0.5975  0.0932  0.3989
  183MOL0     C25136   4.688   8.399  10.381 -0.3936  0.7393  0.3044
  183MOL0     C25137   4.819   8.409  10.298  0.5073  0.2507 -0.0615
  183MOL0     C25138   4.937   8.468  10.374  0.1080  0.1199 -0.0875
  183MOL0     C25139   5.059   8.474  10.285 -0.4094  0.1322  0.4038
  183MOL0     O25140   5.172   8.456  10.372  0.2045 -0.0288 -0.0894
  183MOL0     C25141   5.276   8.397  10.320 -0.8575  0.4534  0.3951
  183MOL0     C25142   5.358   8.334  10.407 -0.9609 -0.1864  0.1685
  183MOL0     C25143   5.477   8.271  10.370 -0.2983  0.3917  0.5604
  183MOL0     C25144   5.570   8.212  10.482  0.3349 -0.0015 -0.5164
  183MOL0     C25145   5.512   8.265  10.228  0.6755 -0.3895  0.9370
  183MOL0     C25146   5.638   8.195  10.174  0.0891  0.4164 -0.3440
  183MOL0     O25147   5.726   8.145  10.268 -0.0601 -0.1737 -0.2318
  183MOL0     C25148   5.857   8.108  10.243 -0.0606 -0.8469  0.1652
  183MOL0     C25149   5.916   8.048  10.346 -0.8836  0.5876 -0.5887
  183MOL0     C25150   6.047   8.001  10.336  1.0375  0.1260  0.6414
  183MOL0     C25151   6.120   8.025  10.219  0.8741  0.7058  0.1795
  183MOL0     O25152   6.251   7.995  10.191 -0.9685  0.1639  0.8552
  183MOL0     C25153   6.338   7.940  10.287 -0.3991  0.7206  0.1354
  183MOL0     C25154   6.370   8.041  10.392 -0.0228 -0.6905  0.5138
  183MOL0     C25155   6.466   7.991  10.503  0.0932 -0.0221  0.2685
  183MOL0     C25156   6.609   8.010  10.476 -0.1092  0.3992 -0.0532
  183MOL0     C25157   6.712   7.973  10.589 -0.1385 -0.9502 -0.3279
  183MOL0     C25158   6.700   7.829  10.636  0.8250  0.2205  0.3001
  183MOL0     C25159   6.810   7.794  10.733 -0.2588 -0.5508 -0.3624
  183MOL0     C25160   6.789   7.658  10.795 -0.0029  0.0070  0.2893
  183MOL0    Cl25161   6.929   7.647  10.908  0.3038 -0.3669 -0.1220
  183MOL0     C25162   6.057   8.093  10.111  0.1144  0.3815 -0.4815
  183MOL0     C25163   5.927   8.139  10.129  0.3732  0.3654 -0.3385
  183MOL0     O25164   5.646   8.183  10.054 -0.8693 -0.0164  0.4863
  183MOL0     C25165   5.429   8.332  10.138  0.2308  0.1487 -0.3504
  183MOL0     C25166   5.313   8.395  10.183  0.2137 -1.1860  0.0695
  183MOL0     N25167   4.572   8.178  10.315 -0.7092 -0.2749 -0.6088
  183MOL0     N25168   4.479   8.134  10.243  0.5097 -0.2954  0.5550
  183MOL0     C25169   4.180   9.030  10.098  0.3516 -0.4771  0.7635
  183MOL0     C25170   4.261   9.144  10.103  0.4320  0.9627 -0.3099
  183MOL0     C25171   4.580   9.432  10.197  0.3932 -0.3134 -0.2960
  183MOL0     C25172   4.530   9.564  10.227 -0.1415  1.3869 -0.0492
  183MOL0     C25173   4.609   9.678  10.209  0.8075  0.3582  0.1341
  183MOL0     C25174   4.742   9.660  10.168  0.3079 -1.4130  0.1535
  183MOL0     O25175   4.834   9.759  10.155  0.1827  0.5074 -0.5072
  183MOL0     C25176   4.811   9.880  10.229  0.1750  0.2370  0.1577
  183MOL0     C25177   4.923   9.978  10.188  0.1657 -0.1536  0.5597
  183MOL0     C25178   5.063   9.932  10.236 -0.8231  0.2118 -0.1096
  183MOL0     C25179   5.170  10.036  10.201 -0.1019  0.2858  0.1968
  183MOL0     C25180   5.292  10.008  10.280 -0.0741 -0.5459  0.2230
  183MOL0     C25181   5.379   9.977  10.362  0.0936  0.4406  0.5030
  183MOL0     C25182   4.790   9.532  10.157 -0.7543 -0.5901  0.8563
  183MOL0     C25183   4.712   9.423  10.153  0.4289  0.3782  0.1830
  183MOL0     C25184   4.775   9.283  10.133  0.5409 -0.0348  0.6125
  183MOL0     H25185   4.555   8.988  10.172  0.3783 -1.9315  0.5277
  183MOL0     H25186   4.412   8.794  10.178  0.7632  0.4900 -0.3920
  183MOL0     H25187   3.996   8.905  10.245 -0.3492 -1.0550  2.8763
  183MOL0     H25188   4.057   8.762  10.318 -1.1567 -1.9151 -0.7773
  183MOL0     H25189   3.819   8.739  10.243  0.0781  1.2442  0.0552
  183MOL0     H25190   3.870   8.799  10.075  4.7714  3.0388  0.0228
  183MOL0     H25191   3.833   8.568  10.058  0.0893  2.0384 -1.2320
  183MOL0     H25192   4.009   8.569  10.069  0.9332 -0.6080  1.4969
  183MOL0     H25193   3.987   8.513  10.315 -1.1626 -0.3988  1.1682
  183MOL0     H25194   3.815   8.507  10.283  0.4042 -0.1300  1.3025
  183MOL0     H25195   3.832   8.331  10.136  0.7314 -0.4974 -0.3328
  183MOL0     H25196   3.906   8.287  10.287 -1.0336  1.1341  0.3080
  183MOL0     H25197   4.047   8.206  10.069 -1.5381  0.4560 -2.4216
  183MOL0     H25198   4.057   8.377  10.023  1.3936  1.6307  1.4138
  183MOL0     H25199   4.169   8.268  10.287  0.3306  0.5331  0.1459
  183MOL0     H25200   4.218   8.416  10.194  0.3197  0.1654 -0.8863
  183MOL0     H25201   4.273   8.136  10.094 -0.5447  0.4155 -4.1974
  183MOL0     H25202   4.319   8.287  10.010 -1.2768  3.4210  1.0762
  183MOL0     H25203   4.467   8.458  10.188  0.5559  1.1397 -0.5352
  183MOL0     H25204   4.725   8.353  10.473 -1.2741 -0.7253 -0.0444
  183MOL0     H25205   4.654   8.501  10.402  0.1015  1.3797 -1.7980
  183MOL0     H25206   4.847   8.308  10.266  0.4189 -0.2034  1.2224
  183MOL0     H25207   4.815   8.467  10.205  2.4283 -0.5354 -0.6811
  183MOL0     H25208   4.911   8.571  10.401  0.9909  0.0818  0.9834
  183MOL0     H25209   4.949   8.407  10.464 -1.0450  0.3505  0.2371
  183MOL0     H25210   5.047   8.396  10.210 -1.8142 -1.1700  1.9171
  183MOL0     H25211   5.077   8.573  10.241 -0.7960  1.4169  2.9450
  183MOL0     H25212   5.342   8.330  10.515 -0.1035 -2.6533  0.2430
  183MOL0     H25213   5.666   8.264  10.488  0.1326  0.8889 -3.3462
  183MOL0     H25214   5.586   8.105  10.467 -0.9874 -0.4745  1.1649
  183MOL0     H25215   5.527   8.211  10.582 -0.2838 -0.0708 -0.7846
  183MOL0     H25216   5.863   8.014  10.434  2.3235 -2.5125  0.3686
  183MOL0     H25217   6.094   7.949  10.418  0.6381 -0.2597  0.6283
  183MOL0     H25218   6.293   7.855  10.340 -1.4550  0.4862 -1.1020
  183MOL0     H25219   6.423   7.893  10.236 -2.2781 -3.3817  0.3423
  183MOL0     H25220   6.402   8.135  10.348  2.1806 -2.6119 -2.3676
  183MOL0     H25221   6.275   8.062  10.443 -1.0615 -0.6348 -1.3646
  183MOL0     H25222   6.449   7.885  10.524 -0.9366  0.3095  1.2028
  183MOL0     H25223   6.429   8.033  10.597 -4.0030 -2.1015 -0.1776
  183MOL0     H25224   6.618   8.116  10.447 -1.6697  0.4847 -0.3231
  183MOL0     H25225   6.640   7.954  10.388 -0.0487  0.2672  0.0525
  183MOL0     H25226   6.816   7.993  10.558  0.2421 -1.5959  0.4910
  183MOL0     H25227   6.689   8.040  10.672  1.6292 -0.8692  0.1492
  183MOL0     H25228   6.706   7.779  10.539  0.2024  1.7659 -0.5757
  183MOL0     H25229   6.606   7.810  10.689  0.2694 -0.6096 -0.9431
  183MOL0     H25230   6.813   7.873  10.809  1.8931 -0.3021 -0.6363
  183MOL0     H25231   6.906   7.798  10.681 -1.7497  2.2762 -3.2656
  183MOL0     H25232   6.805   7.577  10.723  3.1200  0.2355  0.5699
  183MOL0     H25233   6.693   7.647  10.846 -1.4250  0.3486 -2.1857
  183MOL0     H25234   6.096   8.114  10.012  0.7940  0.9767 -0.0939
  183MOL0     H25235   5.881   8.186  10.043 -0.0077  2.1164  0.7875
  183MOL0     H25236   5.446   8.326  10.031  1.5919  0.7128 -0.1812
  183MOL0     H25237   5.256   8.456  10.114 -2.6924 -1.3757  2.0750
  183MOL0     H25238   4.075   9.045  10.072  0.7904  0.8438 -0.3220
  183MOL0     H25239   4.212   9.236  10.074 -1.1535  0.3000  0.1398
  183MOL0     H25240   4.429   9.571  10.268  0.5344 -0.5183  2.1229
  183MOL0     H25241   4.556   9.773  10.208  2.7453  1.5484  1.8006
  183MOL0     H25242   4.716   9.926  10.200  0.5610 -0.1745 -1.9014
  183MOL0     H25243   4.813   9.855  10.335 -0.1343 -1.6298 -0.2364
  183MOL0     H25244   4.900  10.077  10.228 -0.2122  0.9125 -2.0920
  183MOL0     H25245   4.906  10.000  10.082 -0.0585  1.0968  0.8443
  183MOL0     H25246   5.065   9.917  10.345 -0.6269 -1.1891 -0.2839
  183MOL0     H25247   5.089   9.842  10.179  1.2454  1.0791 -0.6351
  183MOL0     H25248   5.138  10.136  10.233 -2.1085 -0.0331 -0.6568
  183MOL0     H25249   5.205  10.027  10.098  0.5077 -2.7271  0.5919
  183MOL0     H25250   5.465   9.947  10.419  1.2965 -2.9452 -2.7006
  183MOL0     H25251   4.892   9.512  10.124 -0.1960  0.8117  1.6646
  183MOL0     H25252   4.786   9.237  10.231  2.2323  3.9771  2.5515
  183MOL0     H25253   4.721   9.223  10.060 -2.0039  0.5313  1.9316
  183MOL0     H25254   4.878   9.285  10.095  0.8916 -2.2789  1.3296
  184MOL0     O25255  10.660   2.710   8.378  0.2984  0.2239  0.0508
  184MOL0     C25256  10.586   2.716   8.276  0.1894  0.5200 -0.4314
  184MOL0     O25257  10.626   2.706   8.147 -0.8934  0.2756  0.2340
  184MOL0     C25258  10.750   2.644   8.117  1.0933 -0.7125 -0.8859
  184MOL0     C25259  10.818   2.689   8.004  0.5832 -0.6196 -0.6468
  184MOL0     C25260  10.946   2.660   7.979 -0.5884 -0.2588  0.1829
  184MOL0     C25261  11.020   2.566   8.052  0.0706 -0.7296 -0.2427
  184MOL0     O25262  11.146   2.553   8.015 -0.6082 -0.2293 -0.9060
  184MOL0     C25263  11.223   2.467   8.103  0.4899 -0.3637  0.0504
  184MOL0     C25264  11.362   2.455   8.059 -0.9802 -0.6010 -0.8758
  184MOL0     C25265  11.453   2.584   8.058  0.2696 -1.1194  0.1254
  184MOL0     C25266  11.586   2.538   7.996  0.0350 -0.1081  0.3498
  184MOL0     C25267  11.681   2.653   7.972 -0.9182  0.7672 -0.2141
  184MOL0     C25268  11.806   2.609   7.902  1.1697  1.0360 -0.5869
  184MOL0     C25269  11.790   2.577   7.753  0.9125 -0.6863  0.0809
  184MOL0     C25270  11.929   2.571   7.678  0.0531 -0.6743  0.0942
  184MOL0     N25271  11.923   2.565   7.535 -0.9290  0.4673  0.3714
  184MOL0     C25272  12.024   2.521   7.457 -0.6373  0.3109 -0.3864
  184MOL0     C25273  11.993   2.557   7.327 -0.1663 -0.3752  0.0263
  184MOL0     C25274  12.072   2.516   7.208  0.6597  0.2540 -0.5754
  184MOL0     C25275  12.051   2.368   7.190 -0.5013 -0.2600  1.2170
  184MOL0     C25276  12.111   2.313   7.062 -0.4079  0.1366  0.3388
  184MOL0     C25277  12.259   2.352   7.028 -0.5432  0.1781  0.4200
  184MOL0     O25278  12.352   2.315   7.131  0.6626  0.2410  0.4673
  184MOL0     C25279  12.480   2.316   7.072 -0.1670 -0.0697  0.3279
  184MOL0     C25280  12.587   2.279   7.153 -0.1728 -1.0955 -0.6416
  184MOL0     C25281  12.723   2.288   7.124 -0.5394  0.6077 -0.0304
  184MOL0     C25282  12.823   2.217   7.213 -0.4772 -0.3652  0.5355
  184MOL0     C25283  12.761   2.334   6.999 -0.1771 -0.6518 -0.1229
  184MOL0     C25284  12.901   2.355   6.954 -0.4798  1.0066 -0.1192
  184MOL0     O25285  12.982   2.421   7.043 -0.3339 -0.3636 -0.3437
  184MOL0     C25286  13.109   2.469   7.015 -0.0051 -0.1743  0.3604
  184MOL0     C25287  13.161   2.585   7.069  0.5242  0.2936 -0.6508
  184MOL0     C25288  13.281   2.649   7.028  0.4428  0.4167  0.1243
  184MOL0     C25289  13.371   2.576   6.944 -0.3333  0.2779  0.0695
  184MOL0     O25290  13.496   2.630   6.929  0.0812 -0.3004  0.8168
  184MOL0     C25291  13.599   2.541   6.874 -0.1241  0.7131 -0.3043
  184MOL0     C25292  13.712   2.640   6.816 -0.0479 -0.5669 -0.6142
  184MOL0     C25293  13.797   2.719   6.914  0.3255  0.0216 -0.2739
  184MOL0     C25294  13.882   2.621   6.990  0.6921  0.0966  0.5323
  184MOL0     C25295  13.994   2.696   7.070 -1.0455 -0.0484  0.5654
  184MOL0     C25296  14.105   2.594   7.112 -0.3769 -0.5455  0.1137
  184MOL0     C25297  14.204   2.682   7.186 -0.0817 -0.1228 -0.7503
  184MOL0     C25298  14.311   2.604   7.258 -0.6072 -0.6424 -0.2055
  184MOL0    Cl25299  14.246   2.457   7.339  0.1893 -0.4704  0.2292
  184MOL0     C25300  13.319   2.454   6.894  0.2093 -0.4145  0.3305
  184MOL0     C25301  13.194   2.400   6.926 -0.7118 -0.1277 -0.5762
  184MOL0     O25302  12.925   2.319   6.837 -0.4854  0.3385  0.3735
  184MOL0     C25303  12.662   2.373   6.905  0.2537 -0.1535  0.4064
  184MOL0     C25304  12.525   2.374   6.945 -0.0629 -0.2365  0.4894
  184MOL0     N25305  11.881   2.636   7.333  0.2900  0.8145  0.6522
  184MOL0     N25306  11.832   2.630   7.459  0.8005 -0.2666  0.2720
  184MOL0     C25307  10.962   2.520   8.168  0.5535 -0.0489  0.2703
  184MOL0     C25308  10.823   2.560   8.198 -0.8449 -0.3708 -0.0723
  184MOL0     C25309  10.434   2.719   8.285 -1.1177 -0.3199  0.4192
  184MOL0     C25310  10.364   2.701   8.161  0.1181  0.4259  0.4252
  184MOL0     C25311  10.229   2.711   8.150  0.5654 -0.5298  0.1863
  184MOL0     C25312  10.149   2.740   8.257 -0.3197 -0.2458  0.5499
  184MOL0     O25313  10.018   2.773   8.259 -0.4642  0.1023 -0.2453
  184MOL0     C25314   9.942   2.773   8.134  0.4252  0.2925  0.6767
  184MOL0     C25315   9.786   2.787   8.145  0.3723  1.7484 -0.3719
  184MOL0     C25316   9.715   2.661   8.186 -0.4517  0.6774 -0.0697
  184MOL0     C25317   9.565   2.679   8.177  0.1126  0.0646 -0.1509
  184MOL0     C25318   9.499   2.550   8.205 -0.6345  0.5277 -0.1514
  184MOL0     C25319   9.422   2.458   8.213 -0.9369 -0.2141 -0.4247
  184MOL0     C25320  10.215   2.752   8.382 -0.8428 -0.0446 -0.1021
  184MOL0     C25321  10.358   2.749   8.400 -0.3358  0.4892  0.8183
  184MOL0     C25322  10.412   2.752   8.532  0.0511 -0.8980  0.9061
  184MOL0     H25323  10.779   2.761   7.933  0.4501 -1.3876 -1.3526
  184MOL0     H25324  10.995   2.713   7.897  1.3070  1.6537  2.3745
  184MOL0     H25325  11.174   2.370   8.111  0.1415 -0.3770 -1.8208
  184MOL0     H25326  11.217   2.510   8.204 -4.0460  0.4397 -0.3507
  184MOL0     H25327  11.410   2.389   8.132 -0.7148  0.5246 -0.0032
  184MOL0     H25328  11.360   2.397   7.966 -2.0164 -2.0334 -0.0105
  184MOL0     H25329  11.411   2.669   8.002 -0.7841 -1.8928 -0.2986
  184MOL0     H25330  11.490   2.616   8.156  2.9207 -0.5905 -0.9646
  184MOL0     H25331  11.635   2.463   8.059 -0.7441 -1.3892 -0.5246
  184MOL0     H25332  11.580   2.486   7.900  0.3239  0.3062  0.1045
  184MOL0     H25333  11.717   2.687   8.070 -1.3325  1.8382 -0.4204
  184MOL0     H25334  11.641   2.741   7.921 -1.1888 -0.0006 -1.3673
  184MOL0     H25335  11.883   2.686   7.913  1.1632  0.7929  1.4289
  184MOL0     H25336  11.839   2.519   7.955  0.2489  1.0962  0.1073
  184MOL0     H25337  11.728   2.650   7.701  1.4316 -3.3793 -4.9501
  184MOL0     H25338  11.745   2.478   7.741  1.2654 -1.6593  4.8160
  184MOL0     H25339  11.980   2.666   7.698 -1.3120  0.2023 -0.3518
  184MOL0     H25340  11.985   2.489   7.723 -1.6941 -1.9684  0.0036
  184MOL0     H25341  12.118   2.472   7.482 -0.8585  0.5265  0.9829
  184MOL0     H25342  12.175   2.550   7.222  1.2184 -1.7832  0.6392
  184MOL0     H25343  12.030   2.564   7.119 -1.2119  1.9511  1.1448
  184MOL0     H25344  12.100   2.316   7.273  0.5470  2.9285  2.7395
  184MOL0     H25345  11.946   2.337   7.185 -0.4121 -0.4109 -0.3337
  184MOL0     H25346  12.102   2.204   7.065 -0.5441 -0.0109 -2.6437
  184MOL0     H25347  12.055   2.339   6.971  2.3377  0.4635 -1.3602
  184MOL0     H25348  12.289   2.299   6.937  1.3212 -0.1263  1.1781
  184MOL0     H25349  12.277   2.459   7.016  3.7323 -0.0516  2.9194
  184MOL0     H25350  12.542   2.235   7.241 -2.2690 -1.7311 -1.9547
  184MOL0     H25351  12.905   2.282   7.247 -0.0216  0.4811 -1.9523
  184MOL0     H25352  12.877   2.137   7.161 -1.1291  0.6812 -1.8935
  184MOL0     H25353  12.770   2.169   7.295  1.2322  1.1023  2.6226
  184MOL0     H25354  13.111   2.642   7.148 -0.5176 -1.2791 -0.1257
  184MOL0     H25355  13.312   2.745   7.067  0.8239  0.1058  0.6055
  184MOL0     H25356  13.651   2.484   6.951 -0.2798  1.7264  0.5678
  184MOL0     H25357  13.558   2.480   6.792  0.3456 -2.8159  1.8787
  184MOL0     H25358  13.773   2.593   6.739 -1.4860 -0.7532 -1.6777
  184MOL0     H25359  13.663   2.721   6.761 -0.2463 -0.3188 -0.0834
  184MOL0     H25360  13.734   2.780   6.979 -0.9847 -1.4434 -0.0912
  184MOL0     H25361  13.859   2.793   6.863  0.5929  0.0947  0.1556
  184MOL0     H25362  13.926   2.546   6.924  0.8552 -1.4572  2.2958
  184MOL0     H25363  13.834   2.556   7.064  1.9330 -0.1991  1.1145
  184MOL0     H25364  14.044   2.780   7.021  2.5239 -1.2508  1.8785
  184MOL0     H25365  13.941   2.745   7.152  0.3591 -2.5185  3.1286
  184MOL0     H25366  14.144   2.548   7.021 -0.8800  0.3309 -0.5704
  184MOL0     H25367  14.058   2.520   7.177 -0.1749 -0.1556  0.7220
  184MOL0     H25368  14.162   2.747   7.264  2.6760  0.2994  0.5157
  184MOL0     H25369  14.249   2.760   7.124 -1.4970  0.9129 -0.5151
  184MOL0     H25370  14.355   2.676   7.329  0.4118  0.4362 -1.8613
  184MOL0     H25371  14.389   2.578   7.185  0.3535  1.4809 -0.0196
  184MOL0     H25372  13.382   2.381   6.845 -2.4757  0.5016 -5.3307
  184MOL0     H25373  13.166   2.305   6.882 -2.7348 -0.2671  0.9024
  184MOL0     H25374  12.690   2.412   6.807  0.0129  0.6411  0.6471
  184MOL0     H25375  12.456   2.427   6.881  0.7294  0.6932  0.3784
  184MOL0     H25376  10.999   2.454   8.246 -0.4046  2.2993  2.9061
  184MOL0     H25377  10.794   2.537   8.300 -2.8617 -2.5946 -1.0399
  184MOL0     H25378  10.415   2.691   8.066 -2.3206  0.3264 -0.9497
  184MOL0     H25379  10.191   2.704   8.049 -0.2128 -2.5030  0.5795
  184MOL0     H25380   9.991   2.843   8.065 -0.8497 -0.9610 -1.6380
  184MOL0     H25381   9.957   2.680   8.079  0.0692  0.4759  0.2641
  184MOL0     H25382   9.752   2.811   8.044  0.1171 -0.4765 -0.8695
  184MOL0     H25383   9.758   2.863   8.219 -1.2942 -0.2407  1.1876
  184MOL0     H25384   9.751   2.589   8.111 -0.3300 -1.2614  1.7500
  184MOL0     H25385   9.747   2.634   8.287  2.1015 -1.3265 -1.2950
  184MOL0     H25386   9.530   2.722   8.083  0.4719  0.1565 -0.2455
  184MOL0     H25387   9.533   2.745   8.258 -0.5957  0.2259 -0.5578
  184MOL0     H25388   9.354   2.375   8.217  0.4851 -1.5415 -1.8839
  184MOL0     H25389  10.154   2.755   8.472 -0.3423  0.9255  0.2185
  184MOL0     H25390  10.518   2.773   8.547  0.1730 -0.2848 -0.6800
  184MOL0     H25391  10.365   2.834   8.587  2.8689 -0.1420  2.3642
  184MOL0     H25392  10.381   2.660   8.583 -2.4558 -0.2765  0.6385
  185MOL0     O25393   4.904   8.783   8.815 -0.5431 -0.3604 -0.7936
  185MOL0     C25394   4.892   8.705   8.728 -0.1585  1.3289 -0.7273
  185MOL0     O25395   4.843   8.731   8.602  0.3472 -0.0686 -0.0688
  185MOL0     C25396   4.795   8.854   8.577  0.4216  0.4933 -0.8746
  185MOL0     C25397   4.864   8.933   8.489  0.0900  0.2603  0.0289
  185MOL0     C25398   4.810   9.050   8.444  0.0928  0.1482  0.0152
  185MOL0     C25399   4.696   9.105   8.498 -0.4960  0.3654  0.8064
  185MOL0     O25400   4.669   9.228   8.455 -0.4143  0.7336 -0.7229
  185MOL0     C25401   4.750   9.325   8.520 -0.9609 -0.1801 -0.7980
  185MOL0     C25402   4.674   9.404   8.624  0.4139 -0.0358 -0.1762
  185MOL0     C25403   4.763   9.513   8.679 -0.9190 -0.7114 -0.5045
  185MOL0     C25404   4.678   9.610   8.775  1.1140 -0.6785  0.2962
  185MOL0     C25405   4.759   9.725   8.834 -0.7549 -0.7016 -0.7503
  185MOL0     C25406   4.695   9.788   8.952  0.3548 -0.6742  0.1961
  185MOL0     C25407   4.774   9.914   8.995  0.9719 -0.5733 -0.0721
  185MOL0     C25408   4.695  10.012   9.092 -0.3843  0.5429  0.1469
  185MOL0     N25409   4.653   9.931   9.207  0.7564 -1.1453  0.0222
  185MOL0     C25410   4.557   9.835   9.218  0.1032  0.5593  0.0158
  185MOL0     C25411   4.580   9.772   9.333  1.4996 -0.0160  0.6038
  185MOL0     C25412   4.493   9.663   9.379 -0.7329 -0.8152  0.4260
  185MOL0     C25413   4.364   9.709   9.442 -0.5542 -0.2079 -0.4678
  185MOL0     C25414   4.267   9.597   9.460 -0.2686 -0.5292 -0.1127
  185MOL0     C25415   4.136   9.653   9.525 -0.6019 -0.2641 -0.1047
  185MOL0     O25416   4.061   9.744   9.437  0.1978  0.1492 -0.1315
  185MOL0     C25417   3.972   9.684   9.346 -0.2058  0.1355 -0.4822
  185MOL0     C25418   3.944   9.770   9.245  0.2226  0.1267 -0.1200
  185MOL0     C25419   3.857   9.733   9.139 -0.0062  0.1490  1.3469
  185MOL0     C25420   3.840   9.833   9.027 -0.7455 -0.5119 -0.5082
  185MOL0     C25421   3.805   9.610   9.133  0.1221  0.1191 -0.5638
  185MOL0     C25422   3.740   9.552   9.013  0.1048 -0.4951  0.9685
  185MOL0     O25423   3.765   9.427   8.992  0.3581 -0.5389 -0.2765
  185MOL0     C25424   3.728   9.358   8.872 -0.4457 -0.0938 -0.7141
  185MOL0     C25425   3.799   9.381   8.754 -0.9546 -0.2702  0.3236
  185MOL0     C25426   3.786   9.308   8.638  0.9620 -1.3211  0.1964
  185MOL0     C25427   3.713   9.190   8.631  0.2456  0.4563  0.3778
  185MOL0     O25428   3.693   9.114   8.521 -0.6186  0.0715 -0.0521
  185MOL0     C25429   3.778   9.133   8.404 -1.1681  0.6104  0.2622
  185MOL0     C25430   3.716   9.059   8.282  0.5202  0.2468  0.5462
  185MOL0     C25431   3.792   9.085   8.148  0.2041  0.3746 -0.2706
  185MOL0     C25432   3.945   9.035   8.129 -0.1995 -0.5820  0.2197
  185MOL0     C25433   3.950   8.880   8.138 -0.3809  0.3578  0.4305
  185MOL0     C25434   4.104   8.844   8.131 -0.1741  0.5550 -0.2980
  185MOL0     C25435   4.108   8.702   8.191 -0.9663 -0.5596 -0.3343
  185MOL0     C25436   4.236   8.627   8.161  0.8921 -0.2304  0.2782
  185MOL0    Cl25437   4.242   8.585   7.989 -0.5586 -0.4472  0.0879
  185MOL0     C25438   3.638   9.161   8.756 -0.9305  0.3259  0.8262
  185MOL0     C25439   3.647   9.243   8.871  0.0610 -0.2513  0.9173
  185MOL0     O25440   3.665   9.620   8.947 -0.5721 -0.2786 -0.1941
  185MOL0     C25441   3.837   9.518   9.229 -0.2985  0.0378 -0.0723
  185MOL0     C25442   3.928   9.558   9.334 -0.4412 -0.0665  0.1192
  185MOL0     N25443   4.675   9.838   9.395  0.2642  0.2590 -0.2823
  185MOL0     N25444   4.719   9.936   9.329  1.1710 -0.9367  0.8432
  185MOL0     C25445   4.621   9.029   8.589  0.4944  0.3990  0.3783
  185MOL0     C25446   4.667   8.896   8.621  0.0813  0.1985 -0.2881
  185MOL0     C25447   4.942   8.568   8.758 -0.4238  0.0925  0.6019
  185MOL0     C25448   4.918   8.508   8.882 -0.2279 -1.2462 -0.1446
  185MOL0     C25449   4.950   8.377   8.911 -0.1202  0.4584  0.0822
  185MOL0     C25450   5.019   8.310   8.811  0.1829  0.0187 -0.3886
  185MOL0     O25451   5.084   8.189   8.829 -0.0948  0.0266  0.1186
  185MOL0     C25452   5.025   8.092   8.918 -0.2966 -0.4271  0.3503
  185MOL0     C25453   5.074   7.955   8.877 -0.9364  0.5561  0.2297
  185MOL0     C25454   5.019   7.844   8.969 -0.2014  0.4692 -0.3922
  185MOL0     C25455   5.072   7.701   8.938 -0.3645 -0.7246 -0.8820
  185MOL0     C25456   5.017   7.629   8.823  0.5847 -0.4578  0.2556
  185MOL0     C25457   4.983   7.579   8.721 -0.3958 -0.0358  0.7797
  185MOL0     C25458   5.028   8.362   8.682  0.2783  0.5812 -0.5584
  185MOL0     C25459   4.995   8.486   8.654  0.7762 -0.5687  0.1310
  185MOL0     C25460   5.009   8.535   8.514 -0.2411  0.5336 -0.7126
  185MOL0     H25461   4.967   8.910   8.464  0.4925  1.7983  0.1259
  185MOL0     H25462   4.865   9.109   8.371  1.8117  1.1433  1.9991
  185MOL0     H25463   4.794   9.396   8.450  1.4956 -0.3816  0.4156
  185MOL0     H25464   4.839   9.283   8.567  0.2838  1.2825 -1.7249
  185MOL0     H25465   4.585   9.450   8.579  0.4740  0.7441  0.4728
  185MOL0     H25466   4.650   9.341   8.710  4.3158  0.3660  1.3868
  185MOL0     H25467   4.852   9.467   8.723 -0.0851 -0.6822 -2.1251
  185MOL0     H25468   4.802   9.564   8.591 -2.3434 -0.8167 -1.2362
  185MOL0     H25469   4.587   9.649   8.729  0.8681 -0.5899  0.8460
  185MOL0     H25470   4.640   9.553   8.860  0.3144 -2.4869 -1.1836
  185MOL0     H25471   4.779   9.798   8.755  2.9093  0.0349  0.6583
  185MOL0     H25472   4.852   9.676   8.865 -1.4452 -0.0356  2.7558
  185MOL0     H25473   4.593   9.822   8.932  1.8785  4.2283 -0.5321
  185MOL0     H25474   4.683   9.710   9.029 -0.9934 -0.2469  0.4533
  185MOL0     H25475   4.781   9.971   8.901 -0.5416 -1.9399 -1.0677
  185MOL0     H25476   4.877   9.891   9.022  1.1492 -1.5506 -1.4801
  185MOL0     H25477   4.766  10.092   9.117  1.1542 -0.2680 -1.3404
  185MOL0     H25478   4.611  10.064   9.046  0.0911  0.8319 -0.4195
  185MOL0     H25479   4.482   9.814   9.142 -1.1009  4.4637 -0.0767
  185MOL0     H25480   4.554   9.604   9.449 -2.3404 -3.9468 -0.6330
  185MOL0     H25481   4.474   9.597   9.294 -1.2666  0.1709 -0.2449
  185MOL0     H25482   4.385   9.743   9.544  0.6568 -2.2610  0.0125
  185MOL0     H25483   4.309   9.784   9.383 -0.6308  0.1316  0.0341
  185MOL0     H25484   4.245   9.563   9.358  0.9809  1.9337 -1.3148
  185MOL0     H25485   4.305   9.513   9.518 -0.6382 -0.1949  0.6249
  185MOL0     H25486   4.083   9.562   9.554  1.8703 -2.3223 -1.5722
  185MOL0     H25487   4.148   9.716   9.613  2.0134  0.4728 -0.8852
  185MOL0     H25488   3.992   9.867   9.241  2.0440 -0.7489 -3.1702
  185MOL0     H25489   3.875   9.790   8.933  1.3185  0.8759 -0.4387
  185MOL0     H25490   3.894   9.925   9.053 -1.6751 -0.3743  1.0914
  185MOL0     H25491   3.734   9.859   9.019 -1.2781 -1.7630  1.5492
  185MOL0     H25492   3.871   9.462   8.758 -1.2274 -0.0511  1.3052
  185MOL0     H25493   3.841   9.348   8.554 -0.9116  1.9116  0.3327
  185MOL0     H25494   3.782   9.239   8.381  1.7249  0.3060 -1.0735
  185MOL0     H25495   3.879   9.098   8.431 -0.9921  3.4158  4.2131
  185MOL0     H25496   3.712   8.952   8.305 -0.1470  0.2305  0.3546
  185MOL0     H25497   3.614   9.092   8.262  1.0619  1.6705  0.0033
  185MOL0     H25498   3.785   9.192   8.122 -0.7838 -0.4467 -3.9419
  185MOL0     H25499   3.738   9.030   8.070  0.1278 -0.6413  0.4871
  185MOL0     H25500   3.998   9.098   8.201 -1.0108  0.1233  0.2156
  185MOL0     H25501   3.986   9.058   8.030  0.2920 -0.5802  0.4245
  185MOL0     H25502   3.907   8.850   8.234 -0.1071 -0.2494  0.3643
  185MOL0     H25503   3.905   8.843   8.046  0.9012  1.5878 -0.7483
  185MOL0     H25504   4.161   8.906   8.201  0.9573 -1.5547  0.7652
  185MOL0     H25505   4.132   8.844   8.025  0.8819 -0.1936 -0.0461
  185MOL0     H25506   4.030   8.638   8.149  2.0104 -1.6983 -4.9625
  185MOL0     H25507   4.096   8.715   8.299  1.5678 -2.1522  0.2445
  185MOL0     H25508   4.234   8.529   8.210 -0.7477 -0.3528  0.0232
  185MOL0     H25509   4.321   8.685   8.197  1.2340 -0.1350 -0.6604
  185MOL0     H25510   3.567   9.079   8.746 -0.0403 -0.2289 -1.7788
  185MOL0     H25511   3.588   9.198   8.951 -2.3405 -0.4379 -0.8563
  185MOL0     H25512   3.820   9.411   9.222  2.8649 -0.5060 -1.4314
  185MOL0     H25513   3.969   9.484   9.403  0.5679 -1.5321 -1.9584
  185MOL0     H25514   4.532   9.076   8.629  1.3420  0.3748  2.3776
  185MOL0     H25515   4.604   8.842   8.691 -0.5711 -1.3664 -2.0163
  185MOL0     H25516   4.889   8.574   8.964 -0.9332  1.1001 -2.1488
  185MOL0     H25517   4.936   8.341   9.013 -1.4224  2.0268  0.5023
  185MOL0     H25518   5.050   8.112   9.023  2.3930 -1.1825 -0.0943
  185MOL0     H25519   4.915   8.094   8.915 -0.2862  0.3854  0.1134
  185MOL0     H25520   5.180   7.954   8.904 -0.7435  2.0720 -0.3660
  185MOL0     H25521   5.052   7.936   8.772  1.7749  0.0340 -0.2972
  185MOL0     H25522   5.029   7.863   9.077 -1.6803  0.3832 -0.2241
  185MOL0     H25523   4.910   7.841   8.964 -0.2018  1.1418 -0.9046
  185MOL0     H25524   5.051   7.638   9.025 -1.6823  1.5865  0.5709
  185MOL0     H25525   5.181   7.702   8.927 -0.3057 -1.7062 -0.4363
  185MOL0     H25526   4.970   7.540   8.622  1.1498 -1.1568  0.9684
  185MOL0     H25527   5.066   8.293   8.608 -0.8206 -2.0906  1.1739
  185MOL0     H25528   5.052   8.635   8.525  0.6479  0.2382 -1.4566
  185MOL0     H25529   5.082   8.468   8.468 -0.5290 -0.0364 -0.3659
  185MOL0     H25530   4.913   8.527   8.461 -0.2521 -0.1546 -0.6052
  186MOL0     O25531   0.247   6.176   6.834  0.4663 -0.0011  0.3177
  186MOL0     C25532   0.191   6.181   6.940 -0.2135  0.5633  0.5103
  186MOL0     O25533   0.255   6.177   7.062 -0.3759  0.1062 -0.6517
  186MOL0     C25534   0.393   6.155   7.062 -0.0989 -0.2201 -0.2192
  186MOL0     C25535   0.490   6.251   7.096  0.1295 -0.9041  0.1338
  186MOL0     C25536   0.624   6.220   7.117  0.0754 -0.3105  0.2813
  186MOL0     C25537   0.671   6.086   7.105 -0.6196  0.2479  0.1204
  186MOL0     O25538   0.806   6.059   7.125 -0.5699 -0.2198  0.3719
  186MOL0     C25539   0.870   5.933   7.083 -1.0006 -0.0960 -0.1765
  186MOL0     C25540   1.021   5.917   7.123 -0.6253 -0.7058  0.1176
  186MOL0     C25541   1.114   5.896   7.011 -0.4803 -0.4607  0.1455
  186MOL0     C25542   1.114   6.004   6.900 -0.1156  0.5849 -0.3654
  186MOL0     C25543   1.155   6.135   6.964  0.0546  0.8456  0.2893
  186MOL0     C25544   1.145   6.238   6.845  0.8109 -0.3031  0.0915
  186MOL0     C25545   1.271   6.247   6.757 -0.4942 -0.5062  0.3308
  186MOL0     C25546   1.380   6.323   6.842 -0.2560 -0.1662 -0.5856
  186MOL0     N25547   1.517   6.282   6.811  0.5081  0.1665  1.1958
  186MOL0     C25548   1.585   6.189   6.887 -0.5052  0.1601  0.2907
  186MOL0     C25549   1.699   6.171   6.820 -0.5023 -0.4628  0.5376
  186MOL0     C25550   1.820   6.082   6.862  0.1646 -0.2516  0.5511
  186MOL0     C25551   1.765   5.940   6.890  0.5139  0.0730 -0.1241
  186MOL0     C25552   1.850   5.843   6.967  0.4246 -0.3954  0.3671
  186MOL0     C25553   1.981   5.804   6.908 -0.1798 -1.5586  0.1046
  186MOL0     O25554   2.070   5.758   7.012 -0.0799 -0.0553 -0.1473
  186MOL0     C25555   2.205   5.781   7.000 -0.6545  1.0267 -0.5892
  186MOL0     C25556   2.293   5.758   7.105 -1.1426  0.5185 -0.7481
  186MOL0     C25557   2.431   5.789   7.090 -0.1790 -0.1037 -0.2474
  186MOL0     C25558   2.517   5.752   7.204 -0.4550  0.2758  1.1066
  186MOL0     C25559   2.486   5.835   6.966  0.4507 -0.4950  0.0123
  186MOL0     C25560   2.621   5.875   6.943 -0.4950  0.6909 -0.3247
  186MOL0     O25561   2.720   5.884   7.039  0.6004 -0.2188 -0.2780
  186MOL0     C25562   2.836   5.952   7.015  0.4622  0.1539 -0.2636
  186MOL0     C25563   2.861   6.054   6.914 -0.2792  0.3667 -0.2728
  186MOL0     C25564   2.987   6.107   6.905 -0.1959  0.2306  0.1242
  186MOL0     C25565   3.087   6.069   7.003  0.2634 -0.3038  0.8942
  186MOL0     O25566   3.213   6.122   7.001 -0.1068  0.2650 -0.0217
  186MOL0     C25567   3.242   6.240   6.928 -0.3971 -0.0249  0.7062
  186MOL0     C25568   3.393   6.250   6.917  0.5072  0.0700  0.5730
  186MOL0     C25569   3.455   6.114   6.878  0.4081 -0.4959  0.5422
  186MOL0     C25570   3.598   6.147   6.842 -0.7574 -0.0960  0.2310
  186MOL0     C25571   3.687   6.029   6.839  0.0431  0.4329  0.4880
  186MOL0     C25572   3.734   5.980   6.975  0.0929  0.5745 -0.5365
  186MOL0     C25573   3.883   5.935   6.969  0.0867  0.0950  0.5621
  186MOL0     C25574   3.923   5.869   7.096  0.0615 -0.5138 -0.0020
  186MOL0    Cl25575   4.077   5.789   7.081 -0.3186  0.1959  0.0296
  186MOL0     C25576   3.066   5.971   7.101  0.4196  0.6362  0.1054
  186MOL0     C25577   2.942   5.910   7.096  0.0463  0.4156  0.6771
  186MOL0     O25578   2.651   5.889   6.829 -0.3618  0.3565  0.4309
  186MOL0     C25579   2.396   5.837   6.858  0.6734  0.6394  0.7934
  186MOL0     C25580   2.263   5.815   6.873 -0.3976 -0.0945  0.0144
  186MOL0     N25581   1.703   6.243   6.700  0.9155  0.1580  0.3631
  186MOL0     N25582   1.590   6.315   6.699  0.5838  1.0053  0.0484
  186MOL0     C25583   0.576   5.989   7.068  0.1339  0.4263 -0.3941
  186MOL0     C25584   0.443   6.025   7.054  0.0577  0.6570 -0.7886
  186MOL0     C25585   0.051   6.192   6.952 -0.4685  0.3913  0.5649
  186MOL0     C25586  -0.028   6.087   6.901  0.2501 -1.1649 -0.7131
  186MOL0     C25587  -0.166   6.081   6.915 -0.9564  0.0839 -0.1640
  186MOL0     C25588  -0.228   6.183   6.972  0.5528 -0.4031 -0.3796
  186MOL0     O25589  -0.367   6.184   6.990 -0.3842 -0.8546 -0.1087
  186MOL0     C25590  -0.421   6.188   7.123 -0.5416  0.5013 -0.0178
  186MOL0     C25591  -0.459   6.048   7.160  0.3418 -0.4921 -0.0989
  186MOL0     C25592  -0.546   6.046   7.281  0.0138  0.8947 -0.1630
  186MOL0     C25593  -0.569   5.896   7.324  0.1110  0.6471  0.2178
  186MOL0     C25594  -0.447   5.818   7.363  0.0162 -0.0294  0.7899
  186MOL0     C25595  -0.348   5.768   7.387 -0.0570  0.4834  0.4172
  186MOL0     C25596  -0.148   6.287   7.038  0.8676  0.5453  1.4203
  186MOL0     C25597  -0.015   6.299   7.023 -0.3900  0.0728 -0.3109
  186MOL0     C25598   0.062   6.414   7.080  0.2311 -0.4474 -0.1152
  186MOL0     H25599   0.446   6.350   7.107 -2.4579 -1.7617 -1.5462
  186MOL0     H25600   0.694   6.301   7.134 -1.2939  1.0018 -0.1048
  186MOL0     H25601   0.849   5.928   6.976  1.2688  0.1787 -0.6807
  186MOL0     H25602   0.822   5.846   7.129 -1.2020 -0.0760 -0.3522
  186MOL0     H25603   1.054   5.988   7.199 -3.1532 -1.0961  1.7151
  186MOL0     H25604   1.028   5.823   7.178  1.4533  0.5176  2.1210
  186MOL0     H25605   1.216   5.906   7.050 -0.7381  1.2520  0.4922
  186MOL0     H25606   1.102   5.796   6.970  2.0492 -0.2483 -1.3588
  186MOL0     H25607   1.185   5.971   6.824 -0.6218 -0.4682 -0.3930
  186MOL0     H25608   1.015   6.001   6.854  0.6524 -1.2943 -2.0395
  186MOL0     H25609   1.257   6.137   7.004 -0.4144  2.3162  1.5131
  186MOL0     H25610   1.092   6.176   7.044  0.9514  0.7470  1.0687
  186MOL0     H25611   1.059   6.215   6.782  1.9071 -2.0400 -0.8564
  186MOL0     H25612   1.122   6.340   6.877  0.2078  0.4045 -2.3784
  186MOL0     H25613   1.247   6.300   6.664  0.2605 -0.0529  0.3838
  186MOL0     H25614   1.315   6.152   6.726 -0.9854 -0.5073 -0.3968
  186MOL0     H25615   1.376   6.431   6.827 -0.2139  0.0463  0.8161
  186MOL0     H25616   1.358   6.316   6.949 -0.3649 -2.3239 -0.7035
  186MOL0     H25617   1.581   6.156   6.990  1.9326  1.9969  1.0651
  186MOL0     H25618   1.866   6.121   6.953 -1.2100 -0.1019  1.2196
  186MOL0     H25619   1.893   6.069   6.782 -0.4915 -5.7361  0.4521
  186MOL0     H25620   1.671   5.943   6.945  2.0044  0.1058  2.6063
  186MOL0     H25621   1.746   5.904   6.789  2.6893 -0.0500 -0.5495
  186MOL0     H25622   1.869   5.888   7.065  1.0435  0.3368 -0.0775
  186MOL0     H25623   1.788   5.755   6.987  0.0120 -0.3767 -0.7201
  186MOL0     H25624   1.959   5.751   6.815 -0.7571  0.7135 -1.1237
  186MOL0     H25625   2.020   5.898   6.867 -0.5977 -2.9665 -3.8949
  186MOL0     H25626   2.253   5.715   7.196 -2.1419  1.2416 -0.8196
  186MOL0     H25627   2.468   5.690   7.280 -1.1456 -0.7211 -0.1058
  186MOL0     H25628   2.548   5.846   7.252 -0.3055  0.4083  0.7505
  186MOL0     H25629   2.613   5.704   7.183 -1.3219 -1.0308 -0.0037
  186MOL0     H25630   2.781   6.105   6.863 -1.2007  1.1456  1.8227
  186MOL0     H25631   3.007   6.187   6.835  0.5758  1.2466  1.4485
  186MOL0     H25632   3.208   6.232   6.824  2.1242 -0.1758 -0.1875
  186MOL0     H25633   3.199   6.325   6.981  1.7060  0.7222  1.3033
  186MOL0     H25634   3.408   6.326   6.840 -2.3237 -0.5185 -0.6477
  186MOL0     H25635   3.449   6.273   7.009  2.4065 -1.8531 -0.0267
  186MOL0     H25636   3.400   6.075   6.792 -1.1854  2.3974  0.1426
  186MOL0     H25637   3.458   6.043   6.962 -0.3353 -0.2287  0.8043
  186MOL0     H25638   3.649   6.221   6.905  1.7351  0.8573 -2.6409
  186MOL0     H25639   3.593   6.194   6.744  1.1363 -1.7400 -0.7278
  186MOL0     H25640   3.643   5.942   6.788  2.8002 -0.9863  0.3566
  186MOL0     H25641   3.773   6.060   6.780 -1.3292  1.1265 -1.2193
  186MOL0     H25642   3.670   5.896   7.002 -0.0195  1.1261  1.0118
  186MOL0     H25643   3.719   6.061   7.047 -0.3700 -0.2142  0.2698
  186MOL0     H25644   3.939   6.024   6.940 -1.9781  1.1948 -0.3414
  186MOL0     H25645   3.889   5.862   6.887  0.5328 -0.5517  1.1673
  186MOL0     H25646   3.852   5.796   7.136 -0.9790  1.3912  1.8615
  186MOL0     H25647   3.941   5.947   7.171  2.1800  0.3551 -1.3106
  186MOL0     H25648   3.131   5.917   7.169 -0.1053  0.0383  0.1376
  186MOL0     H25649   2.925   5.825   7.162  0.1641 -0.7513 -0.7465
  186MOL0     H25650   2.438   5.844   6.758 -0.8881 -1.8342 -0.1282
  186MOL0     H25651   2.208   5.821   6.780 -0.8863  0.0596  0.3077
  186MOL0     H25652   0.608   5.885   7.060  0.9293  0.6566 -0.2962
  186MOL0     H25653   0.373   5.942   7.048  0.6213 -0.3668  3.6362
  186MOL0     H25654   0.026   6.018   6.837  0.5029 -1.0638 -0.6089
  186MOL0     H25655  -0.227   6.005   6.867 -0.7681  1.1527 -2.1983
  186MOL0     H25656  -0.358   6.224   7.204  1.2967  1.4723 -1.7976
  186MOL0     H25657  -0.514   6.245   7.122 -2.8619 -2.9574  0.8853
  186MOL0     H25658  -0.372   5.986   7.185  0.6165 -0.5572 -1.1516
  186MOL0     H25659  -0.511   5.998   7.077 -0.6769  0.3199  0.0282
  186MOL0     H25660  -0.507   6.109   7.362 -1.7031  0.8129  0.7851
  186MOL0     H25661  -0.643   6.094   7.264 -0.2359  0.7291  0.7157
  186MOL0     H25662  -0.629   5.834   7.256 -0.3043 -0.9211  1.9469
  186MOL0     H25663  -0.636   5.895   7.410 -0.1663  0.5913  0.0042
  186MOL0     H25664  -0.254   5.736   7.427 -0.9732  0.9397  3.2207
  186MOL0     H25665  -0.201   6.372   7.080  1.5591  1.4217  0.5770
  186MOL0     H25666  -0.007   6.489   7.119  1.3738 -1.4100  4.2437
  186MOL0     H25667   0.121   6.396   7.170 -0.4154  0.6164  0.5364
  186MOL0     H25668   0.129   6.466   7.010  1.0182  1.1649  1.7512
  187MOL0     O25669   6.005   4.991  10.341 -0.5245  0.2374  1.4371
  187MOL0     C25670   6.068   4.907  10.272  0.1262 -0.2584 -0.5946
  187MOL0     O25671   6.204   4.895  10.257 -0.6451 -0.0940  0.4464
  187MOL0     C25672   6.277   5.009  10.270 -0.2923 -0.3201  0.3748
  187MOL0     C25673   6.349   5.033  10.378 -0.6230 -0.1267 -0.7981
  187MOL0     C25674   6.442   5.137  10.383  0.4264  0.1896 -0.1327
  187MOL0     C25675   6.438   5.233  10.285 -0.1132 -0.3837  0.1839
  187MOL0     O25676   6.517   5.349  10.272  0.0204 -0.8556  1.0375
  187MOL0     C25677   6.586   5.396  10.386  0.4076 -0.2923  0.0102
  187MOL0     C25678   6.644   5.532  10.346  0.4384 -0.4538  0.1286
  187MOL0     C25679   6.779   5.540  10.271 -0.2421 -0.3671  0.0203
  187MOL0     C25680   6.861   5.665  10.300  0.8450 -0.3505 -0.3302
  187MOL0     C25681   7.006   5.642  10.314  0.2411 -0.1318 -0.1476
  187MOL0     C25682   7.072   5.766  10.383 -0.6256  0.0833  0.3873
  187MOL0     C25683   7.217   5.731  10.399 -0.1321 -0.2062 -0.0345
  187MOL0     C25684   7.291   5.835  10.493 -0.4884  0.6496  0.2033
  187MOL0     N25685   7.435   5.847  10.480  0.8725 -0.0076 -0.1961
  187MOL0     C25686   7.520   5.833  10.584 -0.7453  0.4278  0.1919
  187MOL0     C25687   7.644   5.892  10.552  0.4995 -0.3036  0.1242
  187MOL0     C25688   7.764   5.901  10.641 -0.1249 -0.3634  0.1388
  187MOL0     C25689   7.881   5.826  10.577 -0.3222  0.2898 -0.1343
  187MOL0     C25690   7.984   5.921  10.507  0.6091  0.5663  0.0974
  187MOL0     C25691   8.068   5.995  10.611  0.0702  0.2218  0.7489
  187MOL0     O25692   8.144   6.086  10.523 -0.4767 -0.1163 -0.0296
  187MOL0     C25693   8.271   6.047  10.496 -0.3657  0.3473  0.0944
  187MOL0     C25694   8.308   6.061  10.370 -0.3429 -0.3256  0.8969
  187MOL0     C25695   8.445   6.049  10.327  0.7202 -0.1842  0.5217
  187MOL0     C25696   8.482   6.072  10.182  1.5375 -0.2571  0.3738
  187MOL0     C25697   8.540   6.007  10.419 -1.3563  0.6213 -0.3123
  187MOL0     C25698   8.685   5.995  10.398  0.1934  0.7904 -0.1697
  187MOL0     O25699   8.766   5.991  10.511 -0.7494 -0.2128 -0.3597
  187MOL0     C25700   8.895   5.978  10.485 -0.0596 -0.0735 -0.1892
  187MOL0     C25701   8.973   6.092  10.468  0.8108 -0.3782 -0.4639
  187MOL0     C25702   9.114   6.085  10.453 -0.2108  0.3572  0.0184
  187MOL0     C25703   9.179   5.954  10.460 -0.4894 -0.2493 -0.3987
  187MOL0     O25704   9.306   5.918  10.420  0.6539  0.2618  0.2756
  187MOL0     C25705   9.378   6.001  10.327  0.4240  0.9929 -0.5875
  187MOL0     C25706   9.502   5.948  10.271  0.6444  0.9254  0.0733
  187MOL0     C25707   9.595   5.900  10.380  1.2648  0.2344  0.5438
  187MOL0     C25708   9.743   5.897  10.325 -0.8517 -0.5223 -0.3864
  187MOL0     C25709   9.827   5.852  10.447  0.3955 -0.4710 -0.5804
  187MOL0     C25710   9.985   5.837  10.428  0.0285 -0.2266 -0.6878
  187MOL0     C25711  10.030   5.772  10.300  0.2374  0.1710  0.4086
  187MOL0     C25712  10.188   5.761  10.301  0.0110  0.2635  1.1318
  187MOL0    Cl25713  10.232   5.630  10.426  0.3384 -0.5330  0.0973
  187MOL0     C25714   9.099   5.845  10.485  0.1076 -0.0585 -0.2316
  187MOL0     C25715   8.957   5.856  10.491  0.0383 -0.3283  0.7107
  187MOL0     O25716   8.725   5.984  10.284 -0.2206 -0.4489  0.5059
  187MOL0     C25717   8.497   5.972  10.549 -0.0794 -0.3368  0.4973
  187MOL0     C25718   8.366   5.998  10.596  0.1497 -0.3258  0.9482
  187MOL0     N25719   7.622   5.945  10.424  0.2313 -0.1231 -0.5596
  187MOL0     N25720   7.498   5.923  10.389 -0.7055 -0.4949 -0.2151
  187MOL0     C25721   6.350   5.223  10.173 -1.0717 -0.8090 -0.5470
  187MOL0     C25722   6.272   5.116  10.169  0.0210 -0.4057 -0.3994
  187MOL0     C25723   5.987   4.806  10.196 -0.2456  0.2872  0.0887
  187MOL0     C25724   5.894   4.736  10.270  0.0924 -0.1100 -0.4337
  187MOL0     C25725   5.801   4.645  10.205 -0.6538  1.3022  1.2740
  187MOL0     C25726   5.818   4.626  10.069  0.5097  0.0761  0.1036
  187MOL0     O25727   5.735   4.548   9.999 -0.1679  1.0046 -0.6136
  187MOL0     C25728   5.654   4.440  10.070 -0.4175 -0.4133  0.4623
  187MOL0     C25729   5.612   4.321   9.980 -0.2095  0.4486 -0.2987
  187MOL0     C25730   5.512   4.345   9.872  0.3426  0.0781 -0.3584
  187MOL0     C25731   5.374   4.400   9.908  0.5797  0.2594 -0.3779
  187MOL0     C25732   5.300   4.299   9.991  0.0748 -0.7380  0.5097
  187MOL0     C25733   5.251   4.221  10.069 -0.1786  0.3124 -0.3245
  187MOL0     C25734   5.915   4.685   9.999 -0.9249 -0.4035  0.4883
  187MOL0     C25735   5.998   4.772  10.055 -0.3280  0.4315 -0.5352
  187MOL0     C25736   6.097   4.848   9.973  0.4905 -0.5495 -0.4798
  187MOL0     H25737   6.354   4.964  10.462 -0.4364  1.3706  0.4789
  187MOL0     H25738   6.520   5.154  10.457 -0.1266 -0.1786  0.5411
  187MOL0     H25739   6.664   5.329  10.426  0.7149  1.8133  3.3418
  187MOL0     H25740   6.519   5.419  10.469 -0.3656 -0.2850 -0.6099
  187MOL0     H25741   6.576   5.569  10.269 -0.1582  2.3503  1.8709
  187MOL0     H25742   6.647   5.600  10.431  2.1854 -1.5410  1.0017
  187MOL0     H25743   6.839   5.456  10.307 -1.2435 -1.8775 -1.6629
  187MOL0     H25744   6.763   5.539  10.163 -0.9033  2.1013  0.0280
  187MOL0     H25745   6.844   5.731  10.215 -1.7454 -0.7875 -0.2112
  187MOL0     H25746   6.834   5.701  10.399  1.9367  0.5306 -0.3263
  187MOL0     H25747   7.051   5.638  10.214 -1.0112  3.0964 -0.9691
  187MOL0     H25748   7.030   5.546  10.360 -0.6003 -0.2368  0.0875
  187MOL0     H25749   7.054   5.855  10.321 -2.3017 -0.5779 -0.1407
  187MOL0     H25750   7.025   5.791  10.479  0.3265 -0.2903  0.9659
  187MOL0     H25751   7.263   5.724  10.300  0.5472 -1.1197  0.3256
  187MOL0     H25752   7.229   5.630  10.442  1.8467  0.0736  0.1599
  187MOL0     H25753   7.253   5.934  10.469 -0.2192  0.2073 -2.2845
  187MOL0     H25754   7.278   5.810  10.599  2.6627  0.6849  0.7007
  187MOL0     H25755   7.495   5.781  10.676 -0.5416  1.2631  0.7280
  187MOL0     H25756   7.729   5.869  10.739 -0.9384 -0.0886 -0.0540
  187MOL0     H25757   7.793   6.006  10.647  0.5116 -0.4985 -0.4090
  187MOL0     H25758   7.925   5.772  10.662 -1.9754  1.4098  1.4935
  187MOL0     H25759   7.845   5.753  10.504 -0.7086 -0.7984  1.0982
  187MOL0     H25760   8.041   5.859  10.437  1.8574  1.7747  0.0016
  187MOL0     H25761   7.932   5.992  10.441  0.5359 -0.6921 -1.2610
  187MOL0     H25762   8.010   6.064  10.674  2.0356  0.1716  2.7381
  187MOL0     H25763   8.127   5.931  10.676  0.5305  1.5221  1.6605
  187MOL0     H25764   8.223   6.080  10.306  1.1760 -0.5645 -1.3133
  187MOL0     H25765   8.521   5.985  10.129  3.5918  3.6202 -5.4209
  187MOL0     H25766   8.557   6.148  10.162  1.1683  0.4086  1.4334
  187MOL0     H25767   8.398   6.108  10.123  0.2178 -2.2881  0.9133
  187MOL0     H25768   8.925   6.189  10.454  1.4153  0.2960  1.7621
  187MOL0     H25769   9.173   6.175  10.439 -0.9768  0.6689 -1.5064
  187MOL0     H25770   9.308   6.025  10.246 -0.4732 -0.3999 -0.2693
  187MOL0     H25771   9.394   6.100  10.370  1.0575  2.2791 -3.4954
  187MOL0     H25772   9.481   5.861  10.208  0.6364 -1.3360  2.9974
  187MOL0     H25773   9.554   6.020  10.207  1.5500 -0.3988 -0.7158
  187MOL0     H25774   9.561   5.805  10.422 -2.1991  1.5466  1.0020
  187MOL0     H25775   9.592   5.971  10.463  2.3545 -0.0927  0.8789
  187MOL0     H25776   9.783   5.991  10.286 -0.1016  0.2528  2.0467
  187MOL0     H25777   9.747   5.819  10.249 -0.6100 -1.5672  0.6603
  187MOL0     H25778   9.802   5.909  10.536  1.0743 -2.0971  0.7065
  187MOL0     H25779   9.787   5.756  10.480  1.0835 -0.0552  1.5641
  187MOL0     H25780  10.015   5.774  10.513  1.9814 -0.3714 -1.4317
  187MOL0     H25781  10.025   5.938  10.441 -0.1784 -0.0098 -1.6762
  187MOL0     H25782  10.000   5.834  10.215  0.2610 -2.3783 -1.5980
  187MOL0     H25783   9.982   5.674  10.293 -0.3046  0.4884 -0.3757
  187MOL0     H25784  10.234   5.859  10.316  0.7436  0.3024 -1.0971
  187MOL0     H25785  10.210   5.709  10.207 -0.6188 -3.3185  2.7703
  187MOL0     H25786   9.140   5.747  10.509  0.0678  0.0085  0.1139
  187MOL0     H25787   8.895   5.772  10.521  0.3015 -0.5043  0.7669
  187MOL0     H25788   8.567   5.943  10.627  0.1005 -0.3671  0.3259
  187MOL0     H25789   8.342   5.966  10.697  1.3467  0.7911  1.6241
  187MOL0     H25790   6.351   5.297  10.094  0.3549 -0.8490 -0.5995
  187MOL0     H25791   6.211   5.109  10.079 -1.8378 -0.2551  0.7909
  187MOL0     H25792   5.878   4.756  10.376  2.1506 -3.0729  0.5657
  187MOL0     H25793   5.727   4.590  10.263  0.8436 -2.8884 -0.3945
  187MOL0     H25794   5.716   4.401  10.151  1.5011  2.3321  0.4889
  187MOL0     H25795   5.564   4.493  10.105 -0.8160 -0.7003 -0.1211
  187MOL0     H25796   5.567   4.240  10.038  0.8156  1.2757  1.7457
  187MOL0     H25797   5.701   4.275   9.936 -0.5933 -1.6858  1.0300
  187MOL0     H25798   5.568   4.403   9.798  3.0159 -1.3299  0.4210
  187MOL0     H25799   5.496   4.249   9.822  1.3009 -1.9380  2.8817
  187MOL0     H25800   5.310   4.419   9.821 -0.8462  2.3954  1.0465
  187MOL0     H25801   5.392   4.486   9.972  1.2420 -0.7638  0.8638
  187MOL0     H25802   5.197   4.172  10.147  1.8303 -1.2036  0.1917
  187MOL0     H25803   5.934   4.653   9.897  1.2598 -0.7259  0.9424
  187MOL0     H25804   6.101   4.794   9.878 -1.6280  1.7910 -2.0191
  187MOL0     H25805   6.060   4.949   9.955 -1.0958 -1.2537 -1.4315
  187MOL0     H25806   6.201   4.845  10.007  0.1567  0.3603  0.6901
  188MOL0     O25807   8.546   4.921   3.287  0.8970  0.0405  0.1007
  188MOL0     C25808   8.501   5.010   3.360 -0.1474  0.5600  0.3065
  188MOL0     O25809   8.533   5.135   3.356  0.0756 -0.6132 -0.0386
  188MOL0     C25810   8.652   5.172   3.309  0.8957  0.3153 -0.9075
  188MOL0     C25811   8.743   5.221   3.399 -0.3169  0.9161 -0.9979
  188MOL0     C25812   8.866   5.271   3.355  0.0950  0.1618 -0.3422
  188MOL0     C25813   8.895   5.277   3.214 -0.0064 -0.3149 -0.3362
  188MOL0     O25814   9.012   5.344   3.183  0.4417  0.0021 -0.0402
  188MOL0     C25815   9.016   5.385   3.046  0.0040 -0.5238 -0.0181
  188MOL0     C25816   9.145   5.471   3.023 -0.6994 -0.7477 -0.0792
  188MOL0     C25817   9.157   5.507   2.870 -0.6645 -0.3503 -0.7595
  188MOL0     C25818   9.280   5.589   2.825  0.0867  0.3075 -0.1736
  188MOL0     C25819   9.274   5.623   2.672  0.2460  0.3449 -0.6424
  188MOL0     C25820   9.362   5.745   2.653 -0.3480 -0.2676 -0.6511
  188MOL0     C25821   9.511   5.718   2.673  0.0322 -0.6858 -0.3631
  188MOL0     C25822   9.571   5.633   2.554 -0.6889  0.2712  0.3960
  188MOL0     N25823   9.720   5.629   2.549 -0.8994  0.3117  0.1501
  188MOL0     C25824   9.796   5.516   2.579 -0.3106  0.4218  0.2139
  188MOL0     C25825   9.927   5.568   2.579  0.5670  0.4243  0.2474
  188MOL0     C25826  10.058   5.489   2.591 -0.0870 -0.4977 -1.1438
  188MOL0     C25827  10.165   5.501   2.476 -0.4620 -0.5175 -0.2100
  188MOL0     C25828  10.276   5.392   2.502  1.1831 -0.4110  0.0427
  188MOL0     C25829  10.342   5.364   2.374  0.2864  0.3095 -0.4652
  188MOL0     O25830  10.442   5.261   2.390  0.5856 -0.1169  0.1877
  188MOL0     C25831  10.553   5.280   2.317  0.0545  0.8916 -0.2380
  188MOL0     C25832  10.605   5.160   2.260  0.2663 -0.3355 -0.2082
  188MOL0     C25833  10.733   5.154   2.203 -0.7047 -0.1500 -0.3477
  188MOL0     C25834  10.785   5.020   2.170  0.6608  0.6802 -0.4221
  188MOL0     C25835  10.808   5.272   2.185 -0.1613 -0.9202  0.0054
  188MOL0     C25836  10.943   5.277   2.116  0.4332 -0.6458 -0.5183
  188MOL0     O25837  11.008   5.164   2.088 -0.4109 -0.6456 -0.2372
  188MOL0     C25838  11.106   5.171   2.000 -0.0961  0.4752 -0.1113
  188MOL0     C25839  11.234   5.193   2.046  0.3146  0.5761  0.2033
  188MOL0     C25840  11.341   5.190   1.954  0.4519  0.0906 -0.8098
  188MOL0     C25841  11.320   5.161   1.820  0.7494 -0.1154  0.4551
  188MOL0     O25842  11.426   5.153   1.737 -0.4035  0.4247  0.5448
  188MOL0     C25843  11.429   5.035   1.660  0.1389 -1.0555 -0.3011
  188MOL0     C25844  11.552   5.027   1.573  0.2059  0.5930  0.3015
  188MOL0     C25845  11.672   4.984   1.665 -0.4724 -0.1336  1.3458
  188MOL0     C25846  11.806   4.999   1.588 -1.2169 -0.7248 -0.9420
  188MOL0     C25847  11.932   4.973   1.684  0.1914 -0.0061 -0.2727
  188MOL0     C25848  11.942   4.820   1.698 -0.3229 -0.4239  0.0474
  188MOL0     C25849  12.078   4.780   1.757 -0.3089  0.3508  0.5400
  188MOL0     C25850  12.070   4.733   1.905  0.2824  0.4915  0.5619
  188MOL0    Cl25851  12.219   4.660   1.956 -0.1696  0.2038 -0.3505
  188MOL0     C25852  11.186   5.145   1.771  0.5695 -0.0129 -0.1506
  188MOL0     C25853  11.079   5.157   1.862  0.0666  0.3984 -0.5578
  188MOL0     O25854  10.975   5.388   2.068 -0.1794 -0.4557 -0.6212
  188MOL0     C25855  10.750   5.393   2.235  0.1317  0.2670 -0.2709
  188MOL0     C25856  10.623   5.397   2.297 -0.0388  1.1107  0.3883
  188MOL0     N25857   9.916   5.706   2.550 -0.9624  0.2435  0.1205
  188MOL0     N25858   9.793   5.740   2.526 -0.0404 -0.1980  0.3957
  188MOL0     C25859   8.797   5.235   3.129  0.1592  0.5759  0.2170
  188MOL0     C25860   8.672   5.175   3.171 -1.1521 -1.2989 -0.3059
  188MOL0     C25861   8.386   4.971   3.447  0.0910 -0.4627  1.0706
  188MOL0     C25862   8.281   4.914   3.393  0.2591  0.3121 -0.0830
  188MOL0     C25863   8.174   4.874   3.466  1.6463 -0.4864 -0.3720
  188MOL0     C25864   8.153   4.898   3.599 -0.8341  0.4638 -0.8882
  188MOL0     O25865   8.044   4.864   3.673 -0.5323  0.9128 -0.4073
  188MOL0     C25866   7.936   4.802   3.619  1.0896  0.8015  0.1834
  188MOL0     C25867   7.816   4.795   3.722  0.0184  0.0091 -0.0109
  188MOL0     C25868   7.726   4.679   3.674  0.6222 -1.0048  0.0888
  188MOL0     C25869   7.616   4.650   3.777 -0.1365  1.2444  0.4326
  188MOL0     C25870   7.619   4.505   3.815 -0.4776 -0.0274 -1.1367
  188MOL0     C25871   7.610   4.386   3.838  0.0362 -0.2167  0.4184
  188MOL0     C25872   8.265   4.966   3.656  0.4878  0.0426  0.0354
  188MOL0     C25873   8.382   4.992   3.585 -0.0147  1.2909 -0.2107
  188MOL0     C25874   8.496   5.069   3.653  0.1736  0.6830  0.7982
  188MOL0     H25875   8.716   5.221   3.504  0.8844 -2.3483 -0.5871
  188MOL0     H25876   8.931   5.311   3.433 -2.5863 -0.3569  2.3105
  188MOL0     H25877   8.931   5.447   3.016  2.5350  1.6972 -3.2973
  188MOL0     H25878   9.020   5.302   2.975 -1.3096  0.4657 -1.3036
  188MOL0     H25879   9.146   5.553   3.095 -0.7792 -3.1738  2.8761
  188MOL0     H25880   9.228   5.407   3.056 -1.8343 -1.5209  1.3729
  188MOL0     H25881   9.148   5.414   2.814  0.0720 -0.8309 -0.0945
  188MOL0     H25882   9.068   5.561   2.836 -0.6709 -0.9241 -1.6949
  188MOL0     H25883   9.294   5.681   2.883 -1.2443  1.1416 -1.1293
  188MOL0     H25884   9.366   5.527   2.853 -0.2225  0.1439  0.4301
  188MOL0     H25885   9.171   5.642   2.640 -0.5639  1.9293  2.5298
  188MOL0     H25886   9.314   5.534   2.623  3.9895  0.9529  0.9720
  188MOL0     H25887   9.349   5.773   2.548 -0.0781 -2.0759 -1.1935
  188MOL0     H25888   9.325   5.833   2.708  2.1323 -0.6962  1.9692
  188MOL0     H25889   9.531   5.663   2.766 -0.2723 -0.3537 -0.0973
  188MOL0     H25890   9.563   5.813   2.679 -0.5496 -0.4286  1.1706
  188MOL0     H25891   9.537   5.530   2.566  1.0148 -0.3110  0.4816
  188MOL0     H25892   9.533   5.666   2.457  1.6636 -1.0562 -1.0946
  188MOL0     H25893   9.756   5.415   2.581 -0.6492  0.5538  0.1811
  188MOL0     H25894  10.036   5.383   2.603 -0.4588 -0.2178  1.1348
  188MOL0     H25895  10.102   5.515   2.688 -0.8354 -2.8737 -0.1011
  188MOL0     H25896  10.115   5.477   2.382 -2.4400  4.0213 -0.5592
  188MOL0     H25897  10.217   5.597   2.480 -2.4223  0.5901 -0.3217
  188MOL0     H25898  10.344   5.423   2.582 -1.3778 -2.0562  3.0830
  188MOL0     H25899  10.216   5.305   2.530 -1.5960  2.3591  3.8027
  188MOL0     H25900  10.261   5.314   2.321 -2.2059 -0.4397  3.5744
  188MOL0     H25901  10.369   5.454   2.318 -1.0930  0.1165 -1.4728
  188MOL0     H25902  10.552   5.065   2.263 -0.0621 -0.1429  0.2698
  188MOL0     H25903  10.876   4.998   2.228 -1.0182 -2.1849  1.3934
  188MOL0     H25904  10.796   5.013   2.061  2.5530 -2.0939 -0.1707
  188MOL0     H25905  10.719   4.936   2.192  2.0358 -0.6112 -0.9810
  188MOL0     H25906  11.236   5.215   2.152 -1.3167  1.7091  0.0391
  188MOL0     H25907  11.440   5.223   1.985  0.0051  4.4202 -3.2078
  188MOL0     H25908  11.432   4.954   1.734 -2.1190 -1.8634 -1.0246
  188MOL0     H25909  11.342   5.035   1.593 -0.2912 -1.0473  0.2446
  188MOL0     H25910  11.540   4.955   1.492 -0.0728  2.9404 -1.8592
  188MOL0     H25911  11.569   5.124   1.526 -1.8288  0.8901  0.0683
  188MOL0     H25912  11.668   4.881   1.700  1.3816  0.0891  2.3289
  188MOL0     H25913  11.674   5.050   1.752  4.8373  0.6777  0.9807
  188MOL0     H25914  11.797   5.102   1.553 -3.3749  0.4542  2.5405
  188MOL0     H25915  11.822   4.929   1.506 -0.7482 -2.5687  0.6398
  188MOL0     H25916  12.026   5.013   1.644 -0.8804  0.6133 -2.3621
  188MOL0     H25917  11.919   5.024   1.780 -0.9308 -0.0820 -0.3680
  188MOL0     H25918  11.941   4.777   1.597 -1.3761  0.4882 -0.3499
  188MOL0     H25919  11.858   4.793   1.763 -0.2878 -1.8201 -0.4505
  188MOL0     H25920  12.144   4.866   1.748 -1.1688  1.0426  0.6840
  188MOL0     H25921  12.118   4.698   1.696  1.7019  0.5891  1.4771
  188MOL0     H25922  11.987   4.662   1.911 -1.5121  2.2965 -1.1278
  188MOL0     H25923  12.051   4.809   1.981 -2.8987 -1.2149  1.6549
  188MOL0     H25924  11.171   5.123   1.666  0.5484  1.0742 -0.3842
  188MOL0     H25925  10.974   5.143   1.839 -0.0393 -0.9743  0.6676
  188MOL0     H25926  10.804   5.487   2.233  1.6764 -0.5786  0.5182
  188MOL0     H25927  10.593   5.494   2.335 -1.2807  0.6941  0.4924
  188MOL0     H25928   8.816   5.244   3.023  3.6628  0.4718  0.6915
  188MOL0     H25929   8.589   5.148   3.107 -3.1802  2.2775  0.5549
  188MOL0     H25930   8.292   4.878   3.291  2.8375  2.1800 -0.5529
  188MOL0     H25931   8.085   4.837   3.417 -0.8761  3.7955  0.4874
  188MOL0     H25932   7.904   4.855   3.528  1.5514  0.6791 -0.0519
  188MOL0     H25933   7.958   4.698   3.593  1.9128  0.9006  0.4760
  188MOL0     H25934   7.762   4.890   3.728 -0.5517 -0.0711 -2.7884
  188MOL0     H25935   7.856   4.774   3.822 -0.8524  0.6303  0.4886
  188MOL0     H25936   7.678   4.707   3.580  0.7491 -2.6283 -0.4901
  188MOL0     H25937   7.779   4.586   3.654  0.2423 -0.6430 -3.0484
  188MOL0     H25938   7.520   4.678   3.732  0.0755 -0.1715 -0.9815
  188MOL0     H25939   7.626   4.725   3.856 -0.0734  1.7362 -0.0286
  188MOL0     H25940   7.593   4.283   3.862 -1.1576 -0.2263 -0.3522
  188MOL0     H25941   8.251   5.007   3.755 -0.5339  2.1470 -0.9177
  188MOL0     H25942   8.460   5.172   3.659  0.5810  0.8516  0.4006
  188MOL0     H25943   8.513   5.036   3.756 -0.3463 -1.7938  0.1518
  188MOL0     H25944   8.588   5.041   3.601  0.0635  2.2785 -0.3229
  189MOL0     O25945   8.119   0.413   9.844 -0.6028  0.4425 -0.2489
  189MOL0     C25946   8.027   0.446   9.912 -0.2045  0.0930 -0.9811
  189MOL0     O25947   8.037   0.542  10.010 -0.5843  0.9418 -0.1573
  189MOL0     C25948   8.104   0.661   9.980  0.3578  0.8346 -1.0209
  189MOL0     C25949   8.241   0.649   9.988  0.3046  0.4181  1.1657
  189MOL0     C25950   8.312   0.767   9.966 -0.4232 -0.5255 -0.2078
  189MOL0     C25951   8.251   0.894   9.955 -0.9977  0.1076 -0.4243
  189MOL0     O25952   8.315   1.011   9.931 -0.0352 -0.2002 -0.5927
  189MOL0     C25953   8.457   1.019   9.924  0.4539 -0.7435  0.2577
  189MOL0     C25954   8.487   1.169   9.927  0.2719  0.0086 -0.9665
  189MOL0     C25955   8.641   1.195   9.952  0.2513 -0.0109  0.2336
  189MOL0     C25956   8.695   1.148  10.082  0.3353  0.7007 -0.3733
  189MOL0     C25957   8.830   1.212  10.117 -0.9131 -1.1129  0.0792
  189MOL0     C25958   8.829   1.370  10.150  0.5557  0.2847 -0.1490
  189MOL0     C25959   8.965   1.419  10.193  0.7502  0.4821 -0.2418
  189MOL0     C25960   8.958   1.545  10.281  0.5397  0.3175  0.2080
  189MOL0     N25961   9.089   1.600  10.315  0.3561 -0.5607 -0.0511
  189MOL0     C25962   9.213   1.537  10.343  0.2261 -0.3254 -0.3668
  189MOL0     C25963   9.300   1.632  10.372  0.5166 -0.1836  0.2481
  189MOL0     C25964   9.440   1.634  10.413 -0.7143  0.2766 -0.1189
  189MOL0     C25965   9.527   1.718  10.316 -0.5305 -0.2298  0.2219
  189MOL0     C25966   9.681   1.728  10.351  0.0697  0.2288  0.0390
  189MOL0     C25967   9.699   1.836  10.458 -1.0566 -0.5375  1.1336
  189MOL0     O25968   9.836   1.810  10.495  0.0461  0.0952 -0.1179
  189MOL0     C25969   9.947   1.852  10.426 -0.8127 -0.1389 -0.5993
  189MOL0     C25970   9.951   1.949  10.320  0.1086  0.1266 -0.2175
  189MOL0     C25971  10.072   1.973  10.251 -0.1341  0.4942 -0.5688
  189MOL0     C25972  10.077   2.085  10.151 -0.1922 -0.0366  0.6203
  189MOL0     C25973  10.185   1.897  10.286  0.3301 -0.6730  0.4081
  189MOL0     C25974  10.317   1.914  10.217 -0.1010 -0.4280  0.0244
  189MOL0     O25975  10.414   1.963  10.289 -0.3556  0.2646  0.2695
  189MOL0     C25976  10.524   2.000  10.218 -0.1813  0.4925  0.1435
  189MOL0     C25977  10.531   2.101  10.122  0.5716 -0.1592 -0.5743
  189MOL0     C25978  10.652   2.117  10.053  0.6043  0.2534 -0.0698
  189MOL0     C25979  10.768   2.050  10.081  0.0573  0.3395  0.0051
  189MOL0     O25980  10.875   2.083   9.999 -0.3217 -0.3359 -0.0322
  189MOL0     C25981  11.011   2.031  10.021 -0.5160 -0.6651  0.5085
  189MOL0     C25982  11.104   2.062   9.908  0.1116  0.5620 -0.9971
  189MOL0     C25983  11.243   1.998   9.937 -0.1025 -0.4352 -0.6211
  189MOL0     C25984  11.346   2.044   9.823 -0.6948 -0.0301 -0.2059
  189MOL0     C25985  11.483   1.966   9.826 -0.2468 -0.1381 -0.0890
  189MOL0     C25986  11.573   2.009   9.945 -0.8040 -0.2178  0.7567
  189MOL0     C25987  11.628   2.156   9.918 -0.0465  0.5659 -0.4076
  189MOL0     C25988  11.732   2.182  10.021  0.2332 -0.8348  0.3118
  189MOL0    Cl25989  11.651   2.151  10.181  0.5334  0.3814  0.5245
  189MOL0     C25990  10.764   1.954  10.187 -0.0850  0.3790  0.8666
  189MOL0     C25991  10.641   1.925  10.240 -1.2015 -0.4212 -0.5688
  189MOL0     O25992  10.318   1.915  10.093  0.0080  0.0506 -0.3187
  189MOL0     C25993  10.177   1.799  10.385 -0.5777  0.1579  0.3716
  189MOL0     C25994  10.059   1.768  10.453 -0.2035 -0.2199 -0.0126
  189MOL0     N25995   9.236   1.764  10.357 -0.3116  0.1580  0.7463
  189MOL0     N25996   9.112   1.736  10.330  0.4686 -0.2275  0.4999
  189MOL0     C25997   8.109   0.901   9.954 -0.1346  0.1822  0.0082
  189MOL0     C25998   8.037   0.780   9.961  0.4644 -0.6478  0.5142
  189MOL0     C25999   7.893   0.374   9.901  1.1556  0.1127 -0.6750
  189MOL0     C26000   7.781   0.432   9.961 -0.9853  0.5069  0.4683
  189MOL0     C26001   7.649   0.373   9.954 -0.1465  0.3251 -0.2279
  189MOL0     C26002   7.633   0.255   9.890  0.2188  0.2384 -0.3226
  189MOL0     O26003   7.506   0.209   9.877  0.6611  0.2041  0.9094
  189MOL0     C26004   7.483   0.067   9.874 -0.5359 -0.3664 -0.0925
  189MOL0     C26005   7.328   0.040   9.873 -0.9454  0.2115 -0.7722
  189MOL0     C26006   7.247   0.148   9.811 -0.2899 -0.4295 -0.2292
  189MOL0     C26007   7.123   0.087   9.738 -0.7121  0.2802 -0.2008
  189MOL0     C26008   7.042   0.013   9.833  1.2094  0.0712  0.1796
  189MOL0     C26009   6.988  -0.045   9.929  0.1180  0.0143 -0.0059
  189MOL0     C26010   7.745   0.178   9.857  0.1281  0.3445 -0.7736
  189MOL0     C26011   7.875   0.238   9.854 -0.0553 -0.3101  1.4452
  189MOL0     C26012   7.983   0.151   9.808 -0.6472  1.2550  0.9575
  189MOL0     H26013   8.288   0.553  10.009 -2.8339 -0.8182  3.1715
  189MOL0     H26014   8.421   0.764   9.963 -0.0341  4.5846 -1.2744
  189MOL0     H26015   8.498   0.977   9.831  2.0368  1.9828 -0.3903
  189MOL0     H26016   8.497   0.971  10.013  1.1911  0.8900  0.8496
  189MOL0     H26017   8.465   1.211   9.829  0.0033  1.0575 -0.4720
  189MOL0     H26018   8.438   1.220  10.011  2.1954  3.7618 -1.9361
  189MOL0     H26019   8.698   1.149   9.871  3.0596  0.8449  1.5943
  189MOL0     H26020   8.654   1.303   9.937 -1.3810  0.3046  0.8963
  189MOL0     H26021   8.622   1.174  10.159 -0.1413  0.7293 -0.8327
  189MOL0     H26022   8.705   1.039  10.079 -0.2344  0.4805  2.5862
  189MOL0     H26023   8.906   1.193  10.040  1.7453  2.7619  1.4263
  189MOL0     H26024   8.856   1.159  10.209  0.5226 -0.3182  0.1680
  189MOL0     H26025   8.794   1.432  10.067  0.2861 -1.3335 -1.2985
  189MOL0     H26026   8.747   1.382  10.221 -0.1728  3.0618 -1.3329
  189MOL0     H26027   9.024   1.428  10.102  0.4643 -0.9478 -0.5906
  189MOL0     H26028   9.010   1.335  10.248  1.8095  0.6294 -0.8693
  189MOL0     H26029   8.901   1.620  10.226  0.7024  0.2088 -0.1116
  189MOL0     H26030   8.902   1.513  10.369 -0.2886 -2.4162 -1.1696
  189MOL0     H26031   9.225   1.429  10.338 -0.6624 -0.3792 -3.8127
  189MOL0     H26032   9.486   1.535  10.407  0.0933  0.6526 -0.2578
  189MOL0     H26033   9.436   1.677  10.513  0.6042 -1.0104  0.5200
  189MOL0     H26034   9.519   1.659  10.225  0.2065 -0.5543  0.3615
  189MOL0     H26035   9.482   1.816  10.296 -0.1206 -0.6786 -3.6729
  189MOL0     H26036   9.733   1.635  10.374  0.1690  0.1427 -0.5372
  189MOL0     H26037   9.726   1.763  10.258  2.8811  0.2840  1.3129
  189MOL0     H26038   9.680   1.935  10.417 -2.7501 -1.2318  0.1277
  189MOL0     H26039   9.628   1.824  10.541 -1.5604 -2.1602  0.5223
  189MOL0     H26040   9.864   2.006  10.287  0.4475  1.6747  1.3746
  189MOL0     H26041   9.987   2.148  10.148  0.0916  0.3807  0.8166
  189MOL0     H26042  10.077   2.039  10.052 -1.5796  1.7838 -0.2932
  189MOL0     H26043  10.161   2.154  10.165 -0.6574  0.2685  2.1402
  189MOL0     H26044  10.447   2.167  10.105  1.3811  0.7847 -1.0001
  189MOL0     H26045  10.655   2.196   9.979 -0.3653  0.5837  0.2276
  189MOL0     H26046  11.053   2.066  10.115  2.1637  2.0693 -1.4879
  189MOL0     H26047  10.998   1.923  10.035 -1.4469 -0.8085 -1.1642
  189MOL0     H26048  11.061   2.018   9.817 -0.5004  0.0606 -0.4761
  189MOL0     H26049  11.122   2.169   9.893  0.6451  1.2298  3.3284
  189MOL0     H26050  11.242   1.888   9.933  0.6481 -0.5598  1.4566
  189MOL0     H26051  11.276   2.029  10.036  0.8955 -1.5265 -0.5759
  189MOL0     H26052  11.361   2.151   9.835  3.3793 -0.3716 -1.0383
  189MOL0     H26053  11.300   2.029   9.725 -3.2359  0.5373  0.8044
  189MOL0     H26054  11.470   1.857   9.823  0.9268 -0.2839 -0.4901
  189MOL0     H26055  11.531   2.001   9.735  1.5768  2.2498  1.6526
  189MOL0     H26056  11.651   1.933   9.952  0.7319  0.6739 -3.8044
  189MOL0     H26057  11.507   2.013  10.033 -2.3363  3.4798 -0.3768
  189MOL0     H26058  11.559   2.240   9.931  0.5170  0.6563  2.6447
  189MOL0     H26059  11.679   2.157   9.821  0.0035 -0.5215 -0.4042
  189MOL0     H26060  11.768   2.285  10.023 -0.4093 -0.5576 -1.3890
  189MOL0     H26061  11.818   2.119   9.995  0.2718 -0.1126 -1.3841
  189MOL0     H26062  10.837   1.880  10.217 -0.1913 -0.0822  0.0179
  189MOL0     H26063  10.638   1.846  10.315  1.5897 -1.7250 -1.7012
  189MOL0     H26064  10.268   1.743  10.407  0.1692 -0.0451 -2.6942
  189MOL0     H26065  10.044   1.695  10.531 -0.8071  0.7907  0.8530
  189MOL0     H26066   8.064   1.000   9.957  1.2776  0.8440  2.5769
  189MOL0     H26067   7.929   0.794   9.960  0.6302  1.6393 -2.6712
  189MOL0     H26068   7.781   0.531  10.004 -0.8591  1.1354 -0.9204
  189MOL0     H26069   7.561   0.418   9.999 -0.3754  0.7844 -1.1345
  189MOL0     H26070   7.534   0.025   9.787 -1.7072  0.3474 -1.1628
  189MOL0     H26071   7.514   0.028   9.971 -0.3941  1.3981  0.6191
  189MOL0     H26072   7.300   0.048   9.978 -1.0267 -2.4477 -0.5340
  189MOL0     H26073   7.299  -0.059   9.836 -1.8234  0.2043 -0.0690
  189MOL0     H26074   7.221   0.222   9.888 -2.2926 -1.8092  0.5136
  189MOL0     H26075   7.305   0.201   9.735 -0.0492  1.5556  1.2515
  189MOL0     H26076   7.155   0.017   9.661 -0.5058 -0.7699  0.8159
  189MOL0     H26077   7.066   0.172   9.700  2.1952  2.0139 -0.9573
  189MOL0     H26078   6.925  -0.092  10.001 -0.5208 -0.8871 -1.1201
  189MOL0     H26079   7.737   0.084   9.805  2.4727  0.9162 -2.3664
  189MOL0     H26080   8.086   0.168   9.842  0.1163 -3.0378  1.3530
  189MOL0     H26081   7.968   0.047   9.839  3.1375  0.7039  1.5089
  189MOL0     H26082   7.988   0.157   9.699  1.0745  2.2504  1.0503
  190MOL0     O26083   6.976   6.093   3.385 -0.6051  0.2635 -0.7247
  190MOL0     C26084   6.935   6.106   3.503  0.6901  0.0338  0.2351
  190MOL0     O26085   7.012   6.109   3.612 -0.0352 -0.0725 -0.1823
  190MOL0     C26086   7.147   6.106   3.592 -0.4799  0.4546  0.5054
  190MOL0     C26087   7.223   6.224   3.595  0.4739 -0.0557 -0.5369
  190MOL0     C26088   7.366   6.227   3.575  0.6615  0.6255  0.6284
  190MOL0     C26089   7.424   6.104   3.556 -0.1712  0.2799 -0.9715
  190MOL0     O26090   7.556   6.102   3.534 -0.4624  0.5366  0.0192
  190MOL0     C26091   7.653   6.208   3.560  0.2547  0.8058 -0.4935
  190MOL0     C26092   7.790   6.166   3.524 -0.9748 -0.1408  1.1154
  190MOL0     C26093   7.883   6.271   3.572  0.1778  0.1867  1.3085
  190MOL0     C26094   8.029   6.251   3.541  0.2777 -0.6457  0.3923
  190MOL0     C26095   8.107   6.349   3.611 -0.3877 -0.7541  0.0050
  190MOL0     C26096   8.256   6.308   3.603  0.3277  0.2188  0.6418
  190MOL0     C26097   8.351   6.409   3.665 -0.0425 -0.1746  0.0592
  190MOL0     C26098   8.358   6.404   3.817 -0.1941  0.2397  0.5190
  190MOL0     N26099   8.483   6.463   3.879  0.8011  0.3007 -0.2261
  190MOL0     C26100   8.520   6.590   3.860 -0.4498  0.2530 -0.3792
  190MOL0     C26101   8.650   6.588   3.903 -0.7542 -1.1416 -0.2449
  190MOL0     C26102   8.752   6.700   3.869  0.5068 -0.1999  0.2171
  190MOL0     C26103   8.889   6.678   3.926  0.0438 -0.2309 -0.6806
  190MOL0     C26104   8.887   6.685   4.080 -0.6880 -0.7339  0.5036
  190MOL0     C26105   9.022   6.699   4.154  0.5138 -0.2227  0.0019
  190MOL0     O26106   9.087   6.816   4.117 -0.0319 -0.1502  0.2995
  190MOL0     C26107   9.228   6.806   4.131  0.3618 -0.3733  0.2620
  190MOL0     C26108   9.320   6.765   4.034 -0.2994  0.5001 -0.9292
  190MOL0     C26109   9.452   6.739   4.057  0.2011 -0.9094  0.2434
  190MOL0     C26110   9.536   6.701   3.934 -0.7788 -0.1733 -0.2091
  190MOL0     C26111   9.508   6.760   4.192  0.1360  0.1872  0.0106
  190MOL0     C26112   9.647   6.724   4.226  0.1794 -0.1666  0.2594
  190MOL0     O26113   9.686   6.751   4.357  0.0410  0.1358 -0.1085
  190MOL0     C26114   9.801   6.702   4.412 -0.6812  0.3748 -0.6347
  190MOL0     C26115   9.801   6.712   4.561  0.3890  0.1806 -0.6159
  190MOL0     C26116   9.914   6.663   4.632  0.4845 -0.4552 -0.4943
  190MOL0     C26117  10.029   6.623   4.563 -0.4246 -1.0129 -0.5720
  190MOL0     O26118  10.139   6.596   4.643  0.4871 -0.1175 -0.2555
  190MOL0     C26119  10.274   6.600   4.579 -0.3757 -0.6388  0.2141
  190MOL0     C26120  10.322   6.745   4.561 -0.6998 -0.2816  0.8183
  190MOL0     C26121  10.480   6.746   4.537 -0.3881  0.5943 -0.0167
  190MOL0     C26122  10.561   6.728   4.669 -0.2342  0.3393  0.0119
  190MOL0     C26123  10.711   6.713   4.630 -1.1388  0.0945  0.2144
  190MOL0     C26124  10.793   6.658   4.754  0.2628 -0.8963 -0.1154
  190MOL0     C26125  10.945   6.654   4.719 -0.0921  0.4029 -0.0460
  190MOL0     C26126  11.034   6.780   4.756 -0.1721  0.5372  0.4427
  190MOL0    Cl26127  11.172   6.806   4.638 -0.0948 -0.4495  0.0639
  190MOL0     C26128  10.027   6.614   4.425 -1.2041 -0.7369  1.1574
  190MOL0     C26129   9.913   6.648   4.350  0.2854 -0.0837 -0.7389
  190MOL0     O26130   9.718   6.689   4.135  0.6195  0.5197  0.6006
  190MOL0     C26131   9.413   6.793   4.292 -0.7119 -0.2283 -1.0494
  190MOL0     C26132   9.278   6.821   4.256 -0.4574  0.2767  0.1125
  190MOL0     N26133   8.674   6.466   3.955 -0.3668  1.0918 -0.2659
  190MOL0     N26134   8.573   6.392   3.950  0.2956  0.4957  0.2937
  190MOL0     C26135   7.356   5.987   3.556  0.5820  0.5341  0.2596
  190MOL0     C26136   7.216   5.981   3.570  0.3604 -0.8983  0.5483
  190MOL0     C26137   6.793   6.150   3.527 -0.7052 -0.3039  0.5490
  190MOL0     C26138   6.744   6.199   3.651 -0.1700 -0.7442  0.2871
  190MOL0     C26139   6.610   6.222   3.676  0.0112  0.8872 -0.2023
  190MOL0     C26140   6.511   6.202   3.578 -0.1831  0.5635 -0.0217
  190MOL0     O26141   6.379   6.223   3.615  0.3726  0.0419  0.0412
  190MOL0     C26142   6.284   6.206   3.513  0.1226  0.3708  0.3415
  190MOL0     C26143   6.150   6.223   3.581  0.1457  0.4417  0.1596
  190MOL0     C26144   6.039   6.222   3.475  1.0070  0.0279  0.3094
  190MOL0     C26145   5.900   6.261   3.536  0.1021  0.4726  0.0581
  190MOL0     C26146   5.870   6.186   3.658 -0.8240 -0.2231  0.5794
  190MOL0     C26147   5.833   6.124   3.758 -0.5828 -0.3854 -0.5848
  190MOL0     C26148   6.556   6.156   3.457 -0.1439 -0.3282  0.3332
  190MOL0     C26149   6.697   6.133   3.423 -0.0014  0.0951 -0.7769
  190MOL0     C26150   6.718   6.068   3.288  0.1443 -0.6955 -0.8037
  190MOL0     H26151   7.177   6.319   3.621  0.8927 -0.2417  1.0004
  190MOL0     H26152   7.419   6.321   3.587  0.0676  1.0662 -0.1291
  190MOL0     H26153   7.647   6.230   3.667  0.2267 -0.0441 -0.3152
  190MOL0     H26154   7.628   6.304   3.513 -1.7163  0.4788 -0.1980
  190MOL0     H26155   7.810   6.072   3.577  1.5188 -0.4288 -0.2270
  190MOL0     H26156   7.795   6.144   3.417 -1.3673  0.6695  0.9196
  190MOL0     H26157   7.867   6.359   3.509  1.3322 -0.7941 -0.4266
  190MOL0     H26158   7.871   6.298   3.678  2.2351 -0.2310  1.6898
  190MOL0     H26159   8.059   6.151   3.573  0.4250 -0.6751  0.1689
  190MOL0     H26160   8.043   6.251   3.432 -0.1157  0.8692  0.3207
  190MOL0     H26161   8.073   6.371   3.712 -2.5002  1.5351 -1.1144
  190MOL0     H26162   8.084   6.450   3.575  1.4887 -0.5676 -0.8184
  190MOL0     H26163   8.272   6.213   3.654  1.8579  0.3045  0.3453
  190MOL0     H26164   8.275   6.289   3.497 -0.0106 -2.8306  1.0386
  190MOL0     H26165   8.329   6.513   3.641 -1.2836 -0.6102 -0.7632
  190MOL0     H26166   8.452   6.378   3.635 -0.2856 -1.1251  0.1759
  190MOL0     H26167   8.272   6.459   3.856  0.3907  0.0356  2.1613
  190MOL0     H26168   8.341   6.300   3.846 -4.3842  1.5195  3.6576
  190MOL0     H26169   8.469   6.670   3.809 -0.1180  1.5358  1.2179
  190MOL0     H26170   8.714   6.791   3.916  2.7893  1.0106 -0.1436
  190MOL0     H26171   8.755   6.707   3.760 -1.7077 -1.5529 -0.0017
  190MOL0     H26172   8.943   6.590   3.891 -0.9446 -1.0801 -0.1028
  190MOL0     H26173   8.949   6.759   3.884 -3.2775  1.0495 -3.4726
  190MOL0     H26174   8.818   6.761   4.117 -3.2227 -2.8975  0.5503
  190MOL0     H26175   8.835   6.597   4.118 -1.1054 -0.0542  1.5310
  190MOL0     H26176   8.995   6.705   4.260  1.1368 -0.1318  0.1602
  190MOL0     H26177   9.092   6.616   4.135 -0.8594 -1.1667 -1.1644
  190MOL0     H26178   9.280   6.745   3.935 -0.2599 -3.1102 -0.3428
  190MOL0     H26179   9.571   6.597   3.935  0.9034  0.1724 -4.1729
  190MOL0     H26180   9.623   6.767   3.926 -0.5793 -0.6296 -2.2556
  190MOL0     H26181   9.484   6.717   3.839 -0.2002  1.8812 -0.2199
  190MOL0     H26182   9.715   6.748   4.617  0.9864  1.1357 -0.2939
  190MOL0     H26183   9.923   6.665   4.740  0.3049  1.4089 -0.4820
  190MOL0     H26184  10.350   6.559   4.647  0.3432 -2.7222 -1.7396
  190MOL0     H26185  10.290   6.546   4.486 -0.9141  0.1541 -0.3474
  190MOL0     H26186  10.282   6.787   4.468  3.6388  1.3661 -0.5135
  190MOL0     H26187  10.300   6.810   4.647 -0.0288  1.3606 -0.2053
  190MOL0     H26188  10.507   6.839   4.487 -2.3206  1.0371 -0.3214
  190MOL0     H26189  10.506   6.668   4.465 -1.9682 -0.2241  0.2543
  190MOL0     H26190  10.538   6.630   4.712  1.8717 -0.1031  0.2370
  190MOL0     H26191  10.539   6.810   4.738 -3.6854 -0.8051  0.4424
  190MOL0     H26192  10.726   6.655   4.538  0.9459  1.5233 -0.4098
  190MOL0     H26193  10.743   6.816   4.615  0.5940 -0.1940  1.5192
  190MOL0     H26194  10.765   6.553   4.771  0.9855 -1.7518 -3.4821
  190MOL0     H26195  10.778   6.720   4.843  2.1958  1.1875 -1.1284
  190MOL0     H26196  10.960   6.637   4.613  2.7990  1.1930  0.1597
  190MOL0     H26197  10.988   6.565   4.766 -0.0381  0.1455 -0.5770
  190MOL0     H26198  11.069   6.786   4.860 -1.0972  3.2337  0.6969
  190MOL0     H26199  10.960   6.861   4.758  1.0375  1.6630  1.7200
  190MOL0     H26200  10.111   6.567   4.374 -1.1539  0.2900  0.2375
  190MOL0     H26201   9.921   6.633   4.243  2.2541  2.2044 -0.9829
  190MOL0     H26202   9.445   6.813   4.394 -3.3991  1.9686 -0.5348
  190MOL0     H26203   9.213   6.846   4.339  0.5860 -1.3318  1.4920
  190MOL0     H26204   7.400   5.890   3.534 -0.4347  0.6143 -2.6485
  190MOL0     H26205   7.166   5.885   3.560 -0.0388 -0.6339 -0.0240
  190MOL0     H26206   6.819   6.205   3.730  1.5022  0.8095 -1.3344
  190MOL0     H26207   6.574   6.254   3.773  0.1414  0.0869  0.1115
  190MOL0     H26208   6.288   6.282   3.434 -0.3507 -1.4219 -1.5139
  190MOL0     H26209   6.292   6.103   3.475  0.8936  0.1867  0.9648
  190MOL0     H26210   6.141   6.317   3.637 -0.0896  0.8419 -0.5408
  190MOL0     H26211   6.128   6.143   3.652  1.2935  0.4189  0.4969
  190MOL0     H26212   6.068   6.279   3.386  1.8763 -0.5010  0.2420
  190MOL0     H26213   6.039   6.120   3.436  3.5982  0.3734 -0.8003
  190MOL0     H26214   5.822   6.237   3.464  0.1919 -0.2209  0.1838
  190MOL0     H26215   5.898   6.370   3.545 -0.5399  0.3856  1.2121
  190MOL0     H26216   5.810   6.090   3.857  3.0179 -0.5193  0.3293
  190MOL0     H26217   6.482   6.150   3.378  0.1108 -0.0594  0.0728
  190MOL0     H26218   6.627   6.087   3.230 -0.9752  1.8025  1.5670
  190MOL0     H26219   6.800   6.116   3.233  0.4660  1.3059  1.2361
  190MOL0     H26220   6.742   5.963   3.305  1.0826 -0.2174  1.0033
  191MOL0     O26221  10.498   2.930   3.531  0.2827  0.0434  0.6877
  191MOL0     C26222  10.535   2.963   3.645  0.9771  0.6073  0.3146
  191MOL0     O26223  10.588   3.086   3.675  0.5817  0.6811 -0.2945
  191MOL0     C26224  10.609   3.173   3.568  0.2945  0.2643 -0.5752
  191MOL0     C26225  10.516   3.281   3.543 -0.9026  0.3353  0.4805
  191MOL0     C26226  10.534   3.383   3.449  0.4035 -0.4223 -0.5102
  191MOL0     C26227  10.644   3.375   3.366 -0.6450  0.1969 -0.2864
  191MOL0     O26228  10.653   3.477   3.271  0.0863  0.7091 -0.4388
  191MOL0     C26229  10.771   3.462   3.180  0.5530 -0.1179 -0.0758
  191MOL0     C26230  10.755   3.348   3.085  0.4239  0.1038  1.4064
  191MOL0     C26231  10.630   3.381   2.993 -0.5645  0.4182  0.0039
  191MOL0     C26232  10.661   3.310   2.857 -0.6796 -0.2047 -0.4056
  191MOL0     C26233  10.584   3.380   2.741  0.7407 -0.4968  0.5401
  191MOL0     C26234  10.626   3.288   2.620 -0.4643  0.4896 -0.2003
  191MOL0     C26235  10.569   3.339   2.486  0.8282  0.3169 -0.1720
  191MOL0     C26236  10.622   3.474   2.436 -0.6840 -0.1630  0.1983
  191MOL0     N26237  10.767   3.473   2.406  0.2474  0.5610 -0.1396
  191MOL0     C26238  10.829   3.414   2.299  0.5138  0.3776  0.7339
  191MOL0     C26239  10.950   3.464   2.307 -1.0208 -0.1153  0.0804
  191MOL0     C26240  11.076   3.450   2.217 -0.0009 -0.9623 -0.9777
  191MOL0     C26241  11.123   3.580   2.152  0.6906 -0.5122 -0.8302
  191MOL0     C26242  11.235   3.645   2.228  0.3038  0.5096 -0.3161
  191MOL0     C26243  11.306   3.752   2.149 -0.0726 -0.3487 -0.9711
  191MOL0     O26244  11.211   3.862   2.113  0.0089 -0.1888  1.2829
  191MOL0     C26245  11.267   3.965   2.040 -0.0093  0.2726 -0.3711
  191MOL0     C26246  11.183   4.074   2.007  0.3503 -0.0316  0.9655
  191MOL0     C26247  11.226   4.174   1.911  1.1215 -0.4274  0.1104
  191MOL0     C26248  11.123   4.270   1.858  0.2428  0.4365 -0.2605
  191MOL0     C26249  11.356   4.175   1.858 -0.5740 -0.5646  0.6882
  191MOL0     C26250  11.406   4.272   1.753 -0.3310 -0.6417  0.6625
  191MOL0     O26251  11.542   4.275   1.734  0.2823  0.4466  0.1672
  191MOL0     C26252  11.603   4.365   1.653 -0.6488  0.7080  0.6801
  191MOL0     C26253  11.555   4.503   1.645 -0.4298  0.4520 -0.4257
  191MOL0     C26254  11.628   4.591   1.570 -0.2764  0.2059  0.2631
  191MOL0     C26255  11.745   4.551   1.508  0.3994  0.0180  0.0410
  191MOL0     O26256  11.800   4.657   1.436 -0.1851  0.5947  0.1520
  191MOL0     C26257  11.914   4.621   1.357  0.3370 -0.5732  0.3374
  191MOL0     C26258  11.919   4.720   1.241  0.3186  0.3576 -0.0865
  191MOL0     C26259  12.043   4.695   1.157 -0.5555 -0.2875 -0.1047
  191MOL0     C26260  12.060   4.796   1.046  0.3292  0.0037  0.4897
  191MOL0     C26261  12.199   4.767   0.980 -0.3079 -0.3852 -0.0394
  191MOL0     C26262  12.315   4.811   1.069  0.4650  0.9125  0.7882
  191MOL0     C26263  12.424   4.898   1.001  0.6266  1.0583 -0.7357
  191MOL0     C26264  12.524   4.935   1.108 -1.0977 -0.4794 -0.4111
  191MOL0    Cl26265  12.629   5.076   1.057 -0.2995  0.2082 -0.2611
  191MOL0     C26266  11.794   4.419   1.519  0.3760 -0.4512  0.5471
  191MOL0     C26267  11.720   4.326   1.599 -1.0672 -0.3187  0.3722
  191MOL0     O26268  11.331   4.342   1.680  0.2671  0.5543 -0.2173
  191MOL0     C26269  11.446   4.075   1.908  1.0154 -0.2905  0.3835
  191MOL0     C26270  11.401   3.963   1.984  0.0062 -0.1117 -0.5403
  191MOL0     N26271  10.970   3.547   2.423 -0.1192  0.2594  0.3382
  191MOL0     N26272  10.852   3.540   2.482  0.2816 -0.0931 -0.4762
  191MOL0     C26273  10.738   3.268   3.393  0.1119  0.6113  0.0518
  191MOL0     C26274  10.721   3.168   3.490 -0.7285  0.7342 -0.9238
  191MOL0     C26275  10.504   2.870   3.757 -0.1707  0.4131 -0.8418
  191MOL0     C26276  10.479   2.927   3.877  0.3878 -0.7445 -0.6182
  191MOL0     C26277  10.418   2.859   3.978  0.1076 -0.7185  0.0067
  191MOL0     C26278  10.395   2.722   3.972 -1.0870  0.6641  0.9181
  191MOL0     O26279  10.337   2.649   4.071 -0.2644  0.5250 -0.2307
  191MOL0     C26280  10.292   2.707   4.190 -0.0893  0.1371  0.6637
  191MOL0     C26281  10.207   2.601   4.264 -0.2822  0.4831  0.1757
  191MOL0     C26282  10.296   2.480   4.314  0.4979 -0.0513 -0.1261
  191MOL0     C26283  10.290   2.368   4.215 -0.4239 -0.3686  0.4687
  191MOL0     C26284  10.376   2.257   4.265  0.0508 -0.0765  0.5205
  191MOL0     C26285  10.434   2.162   4.303 -0.2538  0.2159  1.2568
  191MOL0     C26286  10.414   2.660   3.848 -1.0409 -0.6085 -0.3685
  191MOL0     C26287  10.466   2.735   3.739 -0.5411  0.1728  0.3272
  191MOL0     C26288  10.503   2.653   3.611 -0.4715  0.2304  0.8803
  191MOL0     H26289  10.425   3.286   3.603 -1.4548  3.1611 -0.4633
  191MOL0     H26290  10.474   3.473   3.443  0.4271 -0.2671  1.0772
  191MOL0     H26291  10.861   3.459   3.241 -0.0855  1.3095  0.9888
  191MOL0     H26292  10.790   3.550   3.118  1.3175 -1.5986 -2.0756
  191MOL0     H26293  10.845   3.356   3.024 -1.0731  0.2989 -0.9048
  191MOL0     H26294  10.751   3.251   3.135 -1.8548 -0.7751 -0.2978
  191MOL0     H26295  10.529   3.370   3.032  0.6444  0.9629  3.6893
  191MOL0     H26296  10.641   3.487   2.967 -1.8850  0.2553 -1.3498
  191MOL0     H26297  10.768   3.304   2.836 -0.8093  2.0591 -2.0704
  191MOL0     H26298  10.626   3.207   2.874  1.4388 -1.2925 -2.1908
  191MOL0     H26299  10.620   3.483   2.729  1.7377 -0.8344  0.5710
  191MOL0     H26300  10.476   3.379   2.763 -0.3592  3.3347 -3.1950
  191MOL0     H26301  10.734   3.292   2.605 -0.3602 -1.4422 -0.1916
  191MOL0     H26302  10.597   3.186   2.646  0.5977 -0.2595 -1.7857
  191MOL0     H26303  10.465   3.357   2.517  0.5421 -0.2751 -0.7828
  191MOL0     H26304  10.567   3.267   2.404 -1.3417  1.4200 -1.1727
  191MOL0     H26305  10.574   3.487   2.338 -2.2916  0.7144  1.0713
  191MOL0     H26306  10.592   3.558   2.500 -1.6611 -1.5614  1.6409
  191MOL0     H26307  10.781   3.352   2.224 -0.9702  0.8595  1.2426
  191MOL0     H26308  11.070   3.370   2.143  3.6607 -0.3485 -2.1444
  191MOL0     H26309  11.160   3.419   2.281  1.1131 -0.0495 -1.9514
  191MOL0     H26310  11.170   3.557   2.056  3.4632  0.2713  0.2353
  191MOL0     H26311  11.043   3.654   2.140 -0.8175 -1.6403  1.4964
  191MOL0     H26312  11.223   3.684   2.330  0.4033 -1.8927  0.6803
  191MOL0     H26313  11.307   3.563   2.237 -0.5518 -0.1617  0.7885
  191MOL0     H26314  11.378   3.790   2.223 -0.7811 -1.7576  0.5164
  191MOL0     H26315  11.361   3.715   2.063  2.1744  1.8485 -0.6200
  191MOL0     H26316  11.082   4.074   2.046 -0.5726 -1.4703 -1.2436
  191MOL0     H26317  11.095   4.241   1.756  1.1159  2.5150 -1.1498
  191MOL0     H26318  11.159   4.373   1.853 -1.8556  1.1852 -1.1486
  191MOL0     H26319  11.032   4.283   1.918  1.1547 -3.4065  2.2942
  191MOL0     H26320  11.473   4.552   1.697  0.1812  3.2073 -1.8691
  191MOL0     H26321  11.605   4.697   1.556  0.7068  0.2474 -1.3310
  191MOL0     H26322  12.006   4.636   1.415  0.6655  1.5524 -0.6665
  191MOL0     H26323  11.901   4.521   1.315 -0.4063 -0.2555 -0.2151
  191MOL0     H26324  11.831   4.699   1.180  0.3861  0.3006 -0.1635
  191MOL0     H26325  11.894   4.815   1.291 -5.5673 -0.6592 -0.3389
  191MOL0     H26326  12.024   4.598   1.109 -1.0844 -0.0189 -0.4474
  191MOL0     H26327  12.132   4.686   1.219 -1.2445 -1.0663  0.8086
  191MOL0     H26328  12.064   4.899   1.082  1.8427 -0.3492  1.4285
  191MOL0     H26329  11.983   4.776   0.971  0.8314  1.4247 -0.4507
  191MOL0     H26330  12.197   4.663   0.948  2.0144  0.2372 -2.6196
  191MOL0     H26331  12.219   4.822   0.888  1.9743 -3.7060 -1.7002
  191MOL0     H26332  12.362   4.719   1.105 -1.2577 -0.2991  0.0733
  191MOL0     H26333  12.281   4.865   1.158 -0.2637 -0.6189  1.4636
  191MOL0     H26334  12.364   4.982   0.967 -2.4674 -1.0024 -0.7788
  191MOL0     H26335  12.476   4.841   0.923 -1.7114 -2.7300  0.1874
  191MOL0     H26336  12.578   4.848   1.146 -1.0469 -0.3349 -0.1493
  191MOL0     H26337  12.470   4.971   1.197  3.0398 -3.3241  3.7188
  191MOL0     H26338  11.883   4.390   1.465 -0.0184 -0.5257 -0.0697
  191MOL0     H26339  11.766   4.229   1.618  3.2859  1.0480 -1.7839
  191MOL0     H26340  11.549   4.061   1.875  0.5668 -3.0276 -0.1273
  191MOL0     H26341  11.476   3.885   1.989  1.8143  1.4997 -1.0071
  191MOL0     H26342  10.829   3.253   3.336  0.8211  1.3257  0.9614
  191MOL0     H26343  10.789   3.085   3.503 -0.8272  0.7162 -0.5180
  191MOL0     H26344  10.503   3.032   3.885  1.3182 -1.0180  0.3661
  191MOL0     H26345  10.383   2.915   4.064 -1.0183 -0.1478 -0.7810
  191MOL0     H26346  10.374   2.737   4.256 -0.2814  2.3104 -0.0069
  191MOL0     H26347  10.246   2.803   4.167  2.6957  0.7696 -3.2688
  191MOL0     H26348  10.121   2.561   4.211 -2.1387  3.1062  0.9936
  191MOL0     H26349  10.169   2.656   4.351 -0.2003 -0.2388  0.6729
  191MOL0     H26350  10.400   2.503   4.337  0.3768 -0.7347  1.1913
  191MOL0     H26351  10.245   2.447   4.405 -0.0249 -2.0507 -1.0840
  191MOL0     H26352  10.338   2.400   4.122  2.0767 -1.0138  1.4434
  191MOL0     H26353  10.190   2.343   4.179  0.5520 -1.0212 -2.0091
  191MOL0     H26354  10.493   2.078   4.334  0.3880  0.4421  0.6962
  191MOL0     H26355  10.385   2.556   3.833 -1.6579 -0.1034 -3.1003
  191MOL0     H26356  10.479   2.546   3.616  1.1889 -0.3881 -2.0504
  191MOL0     H26357  10.429   2.681   3.536  0.4355  1.1854  0.3156
  191MOL0     H26358  10.605   2.657   3.572 -0.3962 -0.0063  1.0447
  192MOL0     O26359  10.105   4.255   2.226 -0.4848  0.5174 -0.1880
  192MOL0     C26360  10.034   4.199   2.150 -0.3920 -0.3387  0.0525
  192MOL0     O26361  10.060   4.176   2.016 -0.4559  0.4519  0.1538
  192MOL0     C26362  10.155   4.239   1.952  0.7346  0.3133 -0.1804
  192MOL0     C26363  10.294   4.220   1.988 -0.5544 -0.0818 -0.1264
  192MOL0     C26364  10.391   4.271   1.907  0.5469 -0.2745 -0.4447
  192MOL0     C26365  10.373   4.355   1.807 -0.7838  0.1098 -0.5760
  192MOL0     O26366  10.480   4.427   1.764  0.0165 -0.1283  0.6890
  192MOL0     C26367  10.460   4.533   1.666  0.7904  0.4534 -0.0868
  192MOL0     C26368  10.449   4.490   1.522  0.9457 -0.5180  0.7063
  192MOL0     C26369  10.564   4.396   1.471  0.3561 -0.9144  0.0977
  192MOL0     C26370  10.711   4.455   1.505 -0.1906  0.5130  0.2889
  192MOL0     C26371  10.826   4.355   1.510  0.0360  0.3512  0.1810
  192MOL0     C26372  10.863   4.312   1.362 -0.3345  0.3851 -0.2423
  192MOL0     C26373  10.996   4.230   1.386 -0.1392 -0.3998 -0.1143
  192MOL0     C26374  11.051   4.191   1.249 -0.9288 -0.0424 -0.0645
  192MOL0     N26375  11.159   4.093   1.271 -0.6978 -0.3458  0.0025
  192MOL0     C26376  11.289   4.120   1.293 -1.3387  0.9621  0.3663
  192MOL0     C26377  11.353   4.003   1.258 -0.8662  0.2123  0.2839
  192MOL0     C26378  11.502   3.979   1.280  0.3807  0.6402 -0.0642
  192MOL0     C26379  11.588   4.046   1.172 -0.0130 -0.1790  0.0271
  192MOL0     C26380  11.717   3.965   1.166 -1.1001 -0.1489  0.0607
  192MOL0     C26381  11.828   4.027   1.088  0.0506 -0.3088  0.0186
  192MOL0     O26382  11.862   4.158   1.131  0.2054  0.4683 -0.2696
  192MOL0     C26383  11.982   4.197   1.078  1.1601  0.0574 -1.1448
  192MOL0     C26384  12.062   4.133   0.976  0.6174  0.3656  1.5682
  192MOL0     C26385  12.193   4.177   0.934  0.4597 -0.3473 -0.8670
  192MOL0     C26386  12.246   4.107   0.825  0.6468  0.1684 -0.2526
  192MOL0     C26387  12.249   4.288   1.004 -0.3912  0.1845 -0.5680
  192MOL0     C26388  12.372   4.347   0.969 -0.9957  0.5014 -0.1116
  192MOL0     O26389  12.400   4.471   1.002  0.1458  0.1262 -0.1721
  192MOL0     C26390  12.524   4.517   0.986  0.0118 -1.1946  0.4888
  192MOL0     C26391  12.607   4.551   1.091 -0.0226  0.1846 -0.1196
  192MOL0     C26392  12.726   4.627   1.079  0.5009 -1.3132 -0.7318
  192MOL0     C26393  12.766   4.666   0.952  0.3078  0.1634  0.0531
  192MOL0     O26394  12.869   4.757   0.925  0.3003 -0.2280 -0.1121
  192MOL0     C26395  12.982   4.735   1.006 -0.5075 -0.6621  0.6093
  192MOL0     C26396  13.090   4.839   0.970  0.2271  0.1565 -0.3784
  192MOL0     C26397  13.144   4.823   0.831  0.0456  0.7738  0.1892
  192MOL0     C26398  13.264   4.901   0.795  0.5921  0.3935 -0.3469
  192MOL0     C26399  13.305   4.865   0.650  1.0735 -0.0629 -0.2648
  192MOL0     C26400  13.451   4.893   0.631 -0.8052  0.3214  0.6228
  192MOL0     C26401  13.463   4.883   0.480 -0.0290  0.0970 -0.2857
  192MOL0     C26402  13.610   4.912   0.433  0.0978  0.2911  1.3221
  192MOL0    Cl26403  13.725   4.798   0.514  0.4724  0.5411 -0.2547
  192MOL0     C26404  12.682   4.629   0.841 -0.6070 -0.1997 -0.5763
  192MOL0     C26405  12.570   4.554   0.860 -0.2471 -0.3994  0.4052
  192MOL0     O26406  12.450   4.275   0.908  0.3294 -0.0791 -0.0663
  192MOL0     C26407  12.173   4.345   1.111 -0.0248  0.9287 -0.6433
  192MOL0     C26408  12.043   4.298   1.149  0.9866 -0.7728  0.9561
  192MOL0     N26409  11.261   3.909   1.222  0.1068 -0.5183 -0.3164
  192MOL0     N26410  11.152   3.975   1.212 -0.6532 -0.5900  0.6942
  192MOL0     C26411  10.239   4.380   1.774  0.0519 -0.2433 -0.7371
  192MOL0     C26412  10.134   4.307   1.833  0.5337  0.0578  0.3111
  192MOL0     C26413   9.902   4.139   2.194 -0.0846 -0.7466 -0.3260
  192MOL0     C26414   9.844   4.028   2.128 -0.2914 -0.0483  0.3319
  192MOL0     C26415   9.729   3.958   2.162  0.7071  0.2617 -0.2694
  192MOL0     C26416   9.670   4.008   2.279  0.3697  1.0930 -0.6206
  192MOL0     O26417   9.550   3.955   2.324 -0.4645  0.4241  0.9549
  192MOL0     C26418   9.560   3.836   2.413 -0.2223 -0.3371  0.1067
  192MOL0     C26419   9.564   3.696   2.341 -0.8284 -0.1633  0.1376
  192MOL0     C26420   9.426   3.644   2.299 -0.4706  0.6171 -0.4515
  192MOL0     C26421   9.411   3.660   2.148  0.6061  0.2860  0.0219
  192MOL0     C26422   9.268   3.656   2.107 -0.9726 -0.9750 -0.3371
  192MOL0     C26423   9.155   3.650   2.071 -0.0781  0.1662  1.4813
  192MOL0     C26424   9.712   4.119   2.352 -0.4590 -0.4746 -0.2974
  192MOL0     C26425   9.829   4.183   2.309  0.7250 -0.1321 -0.3914
  192MOL0     C26426   9.891   4.285   2.405 -0.8398 -0.0421 -0.4243
  192MOL0     H26427  10.315   4.155   2.072  0.3234  1.2166  0.6872
  192MOL0     H26428  10.495   4.261   1.937 -0.6822 -1.7779  4.1590
  192MOL0     H26429  10.542   4.605   1.671  1.7993 -0.7042  0.3937
  192MOL0     H26430  10.374   4.593   1.698  1.3014  1.5267 -0.6769
  192MOL0     H26431  10.349   4.448   1.508  0.1572  1.4352  0.2733
  192MOL0     H26432  10.454   4.583   1.466  1.6936 -0.6640  0.5185
  192MOL0     H26433  10.542   4.295   1.507 -0.3180 -2.1727 -3.4203
  192MOL0     H26434  10.559   4.405   1.362 -0.8042 -1.3533  0.1012
  192MOL0     H26435  10.726   4.543   1.442  0.0502  0.7718  0.7004
  192MOL0     H26436  10.700   4.510   1.599  0.4339  0.9978  0.0905
  192MOL0     H26437  10.799   4.270   1.574 -1.3980  0.1905 -0.6022
  192MOL0     H26438  10.914   4.404   1.552  0.4742 -0.8136  0.6731
  192MOL0     H26439  10.774   4.266   1.319 -1.3760  0.9942  1.1553
  192MOL0     H26440  10.894   4.401   1.308 -0.9911  1.0139  0.3875
  192MOL0     H26441  10.973   4.141   1.447  1.2490  0.9289  2.5305
  192MOL0     H26442  11.074   4.297   1.424 -0.9409  0.8004 -0.5378
  192MOL0     H26443  10.964   4.149   1.199 -1.1799 -1.1704  1.2794
  192MOL0     H26444  11.081   4.282   1.196  2.7125 -1.4554 -0.7257
  192MOL0     H26445  11.329   4.213   1.330  1.0488  0.4970 -0.8344
  192MOL0     H26446  11.509   3.870   1.279  0.0512  0.5997  0.9700
  192MOL0     H26447  11.541   4.024   1.372  1.6277  2.6599 -1.5025
  192MOL0     H26448  11.532   4.050   1.078  1.6335 -1.9629 -1.0798
  192MOL0     H26449  11.619   4.147   1.202  1.1700 -0.1463 -1.2486
  192MOL0     H26450  11.748   3.949   1.269 -1.0681 -0.9848 -0.0681
  192MOL0     H26451  11.694   3.870   1.117  1.0347 -1.6649  1.8089
  192MOL0     H26452  11.913   3.963   1.112  0.7829  0.2932 -0.8982
  192MOL0     H26453  11.812   4.025   0.979 -1.3916 -0.5704  0.2106
  192MOL0     H26454  12.019   4.043   0.933  0.8750  0.1137  1.8405
  192MOL0     H26455  12.345   4.071   0.856 -0.8822 -3.6027  0.7714
  192MOL0     H26456  12.260   4.173   0.738 -4.0833  1.3475 -0.3892
  192MOL0     H26457  12.189   4.021   0.789  0.4744  0.7856 -1.5085
  192MOL0     H26458  12.565   4.529   1.189  1.9441 -3.1521  0.1695
  192MOL0     H26459  12.769   4.672   1.168 -2.9623  0.5587  0.1881
  192MOL0     H26460  12.960   4.757   1.111  3.0353  2.7279  0.8780
  192MOL0     H26461  13.016   4.631   1.011  0.5294 -0.4435 -0.9969
  192MOL0     H26462  13.032   4.932   0.971 -3.6793 -2.0348  1.2310
  192MOL0     H26463  13.175   4.857   1.037  0.1583  4.9930 -1.2257
  192MOL0     H26464  13.062   4.851   0.764 -0.9214  1.5742  1.6524
  192MOL0     H26465  13.162   4.718   0.808 -2.4377  0.3903 -0.3205
  192MOL0     H26466  13.351   4.882   0.859  0.1483  1.9496  0.7842
  192MOL0     H26467  13.239   5.008   0.801 -3.3005 -0.4367  0.7179
  192MOL0     H26468  13.279   4.759   0.638  0.9346 -0.1880  1.0463
  192MOL0     H26469  13.254   4.930   0.578 -1.4971 -3.4403 -1.7968
  192MOL0     H26470  13.507   4.810   0.674 -0.1367 -0.2650 -1.2885
  192MOL0     H26471  13.481   4.986   0.681 -1.6488 -0.3992  2.5682
  192MOL0     H26472  13.385   4.936   0.426 -2.7520 -3.2763  0.0107
  192MOL0     H26473  13.435   4.780   0.457 -1.2610 -0.5615  3.5201
  192MOL0     H26474  13.636   5.016   0.453  0.6865  1.2651 -3.2645
  192MOL0     H26475  13.617   4.908   0.323  0.3689  3.0941  1.1736
  192MOL0     H26476  12.713   4.672   0.747  0.8367  2.4568  1.0002
  192MOL0     H26477  12.525   4.534   0.763 -0.2964  2.5639 -0.2648
  192MOL0     H26478  12.204   4.425   1.178 -2.0237 -0.0651  1.6133
  192MOL0     H26479  11.992   4.341   1.234 -2.5257  0.8788 -1.6911
  192MOL0     H26480  10.214   4.453   1.698 -0.9650 -0.8667 -1.0242
  192MOL0     H26481  10.028   4.320   1.815  0.3713  0.7914  1.6713
  192MOL0     H26482   9.908   4.001   2.044  0.5484  0.8513  0.6686
  192MOL0     H26483   9.699   3.876   2.097  4.2314 -0.7887 -0.7707
  192MOL0     H26484   9.654   3.833   2.469  0.3718 -1.2469 -0.8922
  192MOL0     H26485   9.474   3.841   2.480 -0.1506  1.1438  0.1125
  192MOL0     H26486   9.608   3.626   2.413 -3.2396 -0.2794  1.6268
  192MOL0     H26487   9.635   3.706   2.259  0.7494  1.5639  1.6234
  192MOL0     H26488   9.420   3.540   2.332  1.3010  1.0474  1.3767
  192MOL0     H26489   9.347   3.696   2.354 -0.3561  1.0062 -0.6547
  192MOL0     H26490   9.452   3.567   2.106 -0.7715 -0.0026 -0.7504
  192MOL0     H26491   9.459   3.749   2.107  0.0868 -0.9819 -3.7797
  192MOL0     H26492   9.055   3.625   2.043  0.0256  1.1963  0.1223
  192MOL0     H26493   9.659   4.146   2.443 -2.0583 -0.0838 -1.3066
  192MOL0     H26494   9.822   4.304   2.488 -1.3700 -1.2958 -0.5576
  192MOL0     H26495   9.989   4.257   2.445 -0.5558 -1.2295 -1.8460
  192MOL0     H26496   9.906   4.367   2.334 -0.2535 -0.4109 -0.7384
  193MOL0     O26497   7.666   3.308  10.471 -0.5365 -0.0153 -0.4289
  193MOL0     C26498   7.634   3.190  10.484 -0.1825 -1.0542  0.8353
  193MOL0     O26499   7.717   3.078  10.469 -0.5925  0.1919 -0.0147
  193MOL0     C26500   7.852   3.110  10.443  0.6278  0.7360  0.5834
  193MOL0     C26501   7.943   3.120  10.546 -0.3740  0.3191  0.4453
  193MOL0     C26502   8.074   3.174  10.515  0.3351  0.0763 -0.9553
  193MOL0     C26503   8.109   3.184  10.384  0.6007 -0.1597  0.2840
  193MOL0     O26504   8.237   3.202  10.334  0.7229 -0.6563  0.1582
  193MOL0     C26505   8.345   3.256  10.416  0.6899  0.0367 -0.2500
  193MOL0     C26506   8.475   3.225  10.334  0.0293  0.6566  0.1866
  193MOL0     C26507   8.508   3.073  10.323  0.2344  0.3449 -0.4764
  193MOL0     C26508   8.653   3.053  10.266  0.5343 -0.4434  0.5484
  193MOL0     C26509   8.692   2.902  10.249 -0.0708 -0.2631  0.5017
  193MOL0     C26510   8.720   2.843  10.382 -0.5532 -0.0788 -0.2331
  193MOL0     C26511   8.781   2.701  10.363 -1.1174 -0.3518  0.0986
  193MOL0     C26512   8.756   2.611  10.487  0.4158 -0.3295 -0.4987
  193MOL0     N26513   8.828   2.487  10.470  0.0517  0.8941 -0.3263
  193MOL0     C26514   8.962   2.473  10.496  0.4593 -0.4426  0.2012
  193MOL0     C26515   8.986   2.335  10.484  0.4877  0.1590 -1.0664
  193MOL0     C26516   9.100   2.261  10.530 -0.1074 -0.3847 -0.2421
  193MOL0     C26517   9.224   2.264  10.438 -0.8354  0.3620  0.2791
  193MOL0     C26518   9.310   2.139  10.471 -0.8591  0.1823  0.2941
  193MOL0     C26519   9.417   2.109  10.363  0.5236  0.3350 -0.5267
  193MOL0     O26520   9.502   2.223  10.323  0.6411  0.2866  0.5891
  193MOL0     C26521   9.630   2.240  10.378  1.0284  0.5157  0.0332
  193MOL0     C26522   9.657   2.212  10.511 -0.0754 -0.1952  0.3781
  193MOL0     C26523   9.791   2.223  10.563  0.5206  0.6477 -0.6107
  193MOL0     C26524   9.805   2.198  10.709 -0.1887  0.3400 -0.6505
  193MOL0     C26525   9.897   2.267  10.476 -0.6095  0.5023 -0.0829
  193MOL0     C26526  10.044   2.290  10.507 -0.1312  0.0060  0.2759
  193MOL0     O26527  10.136   2.294  10.400 -0.1970 -0.0805  0.0297
  193MOL0     C26528  10.252   2.364  10.424 -0.4709 -0.2554 -0.3528
  193MOL0     C26529  10.372   2.303  10.432  0.0286 -0.0592 -0.4296
  193MOL0     C26530  10.483   2.381  10.457 -0.9462  0.3133 -0.1322
  193MOL0     C26531  10.483   2.517  10.491 -1.1007  0.3662 -0.5685
  193MOL0     O26532  10.591   2.585  10.538  0.1750  0.2633  0.2566
  193MOL0     C26533  10.682   2.616  10.434 -0.4437  0.0753  0.2552
  193MOL0     C26534  10.626   2.719  10.330 -0.4732 -0.2557  0.0551
  193MOL0     C26535  10.723   2.736  10.205  0.0518  0.2132  0.2943
  193MOL0     C26536  10.849   2.820  10.246  0.2038  0.9062 -0.9203
  193MOL0     C26537  10.951   2.830  10.138 -0.7217  0.2723 -0.2372
  193MOL0     C26538  10.894   2.904  10.014 -0.6005 -0.2571  0.5472
  193MOL0     C26539  10.815   3.026  10.036 -0.0903  0.0443 -0.5857
  193MOL0     C26540  10.816   3.110   9.909  0.1458  0.3032 -0.2829
  193MOL0    Cl26541  10.977   3.185   9.880  0.1520 -0.4724 -0.1502
  193MOL0     C26542  10.359   2.583  10.481 -0.2411  0.8239 -0.0873
  193MOL0     C26543  10.245   2.509  10.456 -0.4434 -1.3858  0.4922
  193MOL0     O26544  10.069   2.313  10.623  1.0318 -0.1463 -0.3696
  193MOL0     C26545   9.861   2.296  10.340 -0.5972 -0.2335 -0.2879
  193MOL0     C26546   9.729   2.288  10.301 -0.3015  0.3319 -0.3309
  193MOL0     N26547   8.868   2.281  10.437 -0.4836 -0.2025 -0.2777
  193MOL0     N26548   8.783   2.373  10.429 -0.0447 -0.2614 -0.3059
  193MOL0     C26549   8.011   3.174  10.286  0.1855 -0.1698  0.6245
  193MOL0     C26550   7.882   3.133  10.313 -0.1176  0.7482 -0.1703
  193MOL0     C26551   7.495   3.175  10.515  0.5849 -0.2556  0.0973
  193MOL0     C26552   7.430   3.280  10.591  0.3705 -0.6867  0.6046
  193MOL0     C26553   7.297   3.266  10.628 -0.1443  0.1860  0.3529
  193MOL0     C26554   7.224   3.156  10.588 -0.3021  0.3546  0.2439
  193MOL0     O26555   7.092   3.145  10.621 -0.2074 -0.2540 -0.0697
  193MOL0     C26556   7.022   3.231  10.722  0.2140 -0.4376  0.1299
  193MOL0     C26557   6.876   3.185  10.749  0.3200  0.4070 -0.1552
  193MOL0     C26558   6.809   3.265  10.860  0.1945 -0.3128 -0.8132
  193MOL0     C26559   6.658   3.248  10.880 -0.8101 -0.4032 -0.0636
  193MOL0     C26560   6.580   3.290  10.760  0.2664  0.4910  0.9963
  193MOL0     C26561   6.509   3.309  10.661 -0.6090 -0.5563  0.1261
  193MOL0     C26562   7.279   3.051  10.520  0.0086 -0.3934  0.3037
  193MOL0     C26563   7.417   3.058  10.478  0.3206 -0.3643 -0.8006
  193MOL0     C26564   7.474   2.955  10.385  0.3539  1.7736  0.7045
  193MOL0     H26565   7.909   3.084  10.642  0.3334 -2.1585 -0.1472
  193MOL0     H26566   8.144   3.198  10.595 -1.2837 -1.5052  1.0383
  193MOL0     H26567   8.347   3.207  10.514  2.6408  1.4085  0.4336
  193MOL0     H26568   8.342   3.365  10.415 -2.3817  0.0783  1.3737
  193MOL0     H26569   8.453   3.253  10.231 -0.5221  2.4083  0.7415
  193MOL0     H26570   8.566   3.277  10.366  1.3451 -0.0318 -2.1587
  193MOL0     H26571   8.493   3.022  10.419 -1.2285 -1.3743 -1.5607
  193MOL0     H26572   8.448   3.014  10.254  0.1730 -0.2468  0.0695
  193MOL0     H26573   8.662   3.101  10.168 -0.3430 -1.3614 -0.0001
  193MOL0     H26574   8.721   3.113  10.328 -1.9617  3.1923  0.0972
  193MOL0     H26575   8.782   2.897  10.188 -1.8579 -1.8704 -2.2126
  193MOL0     H26576   8.606   2.854  10.201 -1.3607 -0.3358  2.7508
  193MOL0     H26577   8.775   2.901  10.457 -0.7949 -0.7919  0.5211
  193MOL0     H26578   8.625   2.822  10.433  0.2208  0.2424  1.4253
  193MOL0     H26579   8.888   2.715  10.348 -0.4596 -0.8154  3.5474
  193MOL0     H26580   8.736   2.654  10.275  0.0877 -0.7986 -0.2914
  193MOL0     H26581   8.782   2.665  10.578 -1.1710  0.2227 -0.3331
  193MOL0     H26582   8.648   2.595  10.497  0.3930 -0.6642 -1.1574
  193MOL0     H26583   9.018   2.552  10.545  0.0152 -1.5873  2.7473
  193MOL0     H26584   9.061   2.163  10.558 -2.3259  0.6009  0.2871
  193MOL0     H26585   9.130   2.308  10.624  0.7929 -0.0412 -0.6840
  193MOL0     H26586   9.195   2.260  10.333  0.3604 -0.0843 -0.0498
  193MOL0     H26587   9.281   2.354  10.466 -0.1619 -0.0724  0.3320
  193MOL0     H26588   9.351   2.134  10.572  1.4561  0.1703 -0.5838
  193MOL0     H26589   9.240   2.054  10.463 -1.2016  0.3063  1.7020
  193MOL0     H26590   9.481   2.022  10.382  0.4957  0.1011 -1.4705
  193MOL0     H26591   9.362   2.083  10.272  0.1887 -1.2468  0.0984
  193MOL0     H26592   9.576   2.197  10.582 -1.3398  1.2591 -0.6899
  193MOL0     H26593   9.873   2.112  10.711 -0.2139  0.3290  0.7817
  193MOL0     H26594   9.709   2.185  10.758 -1.1847  2.4754 -1.8707
  193MOL0     H26595   9.845   2.286  10.762 -0.8296 -0.4841  1.2873
  193MOL0     H26596  10.394   2.197  10.416 -0.5974 -0.1428 -0.7441
  193MOL0     H26597  10.578   2.330  10.469 -0.9328  0.7001  1.6651
  193MOL0     H26598  10.773   2.660  10.476  0.4015 -2.6130  1.4174
  193MOL0     H26599  10.706   2.517  10.394  2.2637 -0.1981  2.2559
  193MOL0     H26600  10.526   2.691  10.295 -0.3376 -0.3258 -0.2880
  193MOL0     H26601  10.610   2.814  10.381  0.4154  0.3908 -0.8279
  193MOL0     H26602  10.667   2.770  10.117  0.0601 -0.2509  0.1097
  193MOL0     H26603  10.760   2.637  10.178  0.0764 -0.0044  1.1129
  193MOL0     H26604  10.897   2.778  10.335  3.2176  2.8689 -1.4661
  193MOL0     H26605  10.827   2.922  10.280  2.7004  0.9009  0.9788
  193MOL0     H26606  11.039   2.885  10.174  0.2188 -1.9508  1.0308
  193MOL0     H26607  10.996   2.735  10.106  1.1585  1.8016 -2.5044
  193MOL0     H26608  10.833   2.838   9.951  2.0181 -0.0203 -2.4555
  193MOL0     H26609  10.974   2.925   9.943 -1.6157 -3.0166 -1.6288
  193MOL0     H26610  10.852   3.081  10.123  0.7692 -3.2710  1.2974
  193MOL0     H26611  10.711   3.006  10.064 -0.2200  1.9101  0.4595
  193MOL0     H26612  10.740   3.188   9.921 -2.2499 -1.3450 -3.3143
  193MOL0     H26613  10.795   3.052   9.819  1.3201  1.0085 -1.0515
  193MOL0     H26614  10.337   2.688  10.496 -0.5387  0.6526  0.7635
  193MOL0     H26615  10.150   2.562  10.451  0.8880  1.3913  2.1246
  193MOL0     H26616   9.932   2.334  10.268 -2.7174  1.4053 -1.6188
  193MOL0     H26617   9.698   2.307  10.199  0.0389  2.6788 -0.0535
  193MOL0     H26618   8.038   3.188  10.181 -2.5090  1.5815  0.0604
  193MOL0     H26619   7.808   3.123  10.235  0.8118 -2.3632 -0.7504
  193MOL0     H26620   7.490   3.365  10.622  0.9844 -2.3497  4.5556
  193MOL0     H26621   7.245   3.348  10.677  1.8049  1.5325  0.2844
  193MOL0     H26622   7.079   3.243  10.815 -0.3468  1.8670  0.2519
  193MOL0     H26623   7.015   3.337  10.693  1.2483 -0.4062 -0.0602
  193MOL0     H26624   6.885   3.087  10.799  1.3521  1.3825  1.6784
  193MOL0     H26625   6.817   3.173  10.658 -0.0629 -0.7677  0.2272
  193MOL0     H26626   6.856   3.236  10.954 -1.2645 -0.5871 -0.1414
  193MOL0     H26627   6.823   3.372  10.840 -0.7799 -0.1329 -0.6245
  193MOL0     H26628   6.616   3.319  10.952  0.6096  0.0207  0.3732
  193MOL0     H26629   6.648   3.144  10.911  1.6613 -0.9028 -0.7260
  193MOL0     H26630   6.452   3.342  10.577  1.8334  1.1787 -0.9885
  193MOL0     H26631   7.214   2.971  10.485 -0.3504 -0.6781  1.5471
  193MOL0     H26632   7.515   3.004  10.296  1.8315 -0.9215 -0.2115
  193MOL0     H26633   7.560   2.899  10.423  1.1875  0.8663 -2.2348
  193MOL0     H26634   7.405   2.879  10.346  3.2545  0.1820 -1.8811
  194MOL0     O26635   3.121  10.431   4.703 -0.1268  0.0573 -0.2846
  194MOL0     C26636   3.234  10.383   4.694 -0.6471  0.3656 -1.0106
  194MOL0     O26637   3.335  10.451   4.631 -0.1478  0.1562 -0.5742
  194MOL0     C26638   3.300  10.568   4.561  0.2152  0.0785 -0.1018
  194MOL0     C26639   3.327  10.708   4.609 -1.1557 -0.2577 -0.3514
  194MOL0     C26640   3.298  10.812   4.519 -0.3441 -0.0901  0.4017
  194MOL0     C26641   3.236  10.789   4.397  0.8154  0.2581  0.4681
  194MOL0     O26642   3.203  10.900   4.330  0.0342 -0.9945  0.1859
  194MOL0     C26643   3.108  10.895   4.221 -0.2158  0.3921 -0.4544
  194MOL0     C26644   3.169  10.866   4.082 -0.4007 -0.6732  0.2263
  194MOL0     C26645   3.253  10.995   4.040 -0.0435  1.4001  0.2930
  194MOL0     C26646   3.187  11.067   3.916 -0.1373  0.2637  0.5047
  194MOL0     C26647   3.272  11.188   3.869 -0.2824 -1.5110 -0.7909
  194MOL0     C26648   3.209  11.262   3.752  0.0564 -0.0327 -0.4028
  194MOL0     C26649   3.229  11.175   3.627  0.8678  0.2385 -0.4684
  194MOL0     C26650   3.154  11.235   3.503  0.7579  0.5261 -0.8713
  194MOL0     N26651   3.215  11.350   3.443 -0.3359  0.2383  0.5095
  194MOL0     C26652   3.174  11.482   3.426  0.0047  0.5874  0.1850
  194MOL0     C26653   3.250  11.542   3.332 -0.7314 -0.1616 -0.6440
  194MOL0     C26654   3.226  11.686   3.282  0.7708  0.7920  0.5944
  194MOL0     C26655   3.348  11.775   3.303 -0.5211 -0.0481  0.0987
  194MOL0     C26656   3.308  11.920   3.290 -1.3104  0.7869  0.1569
  194MOL0     C26657   3.436  12.016   3.306 -0.2061  0.5727  0.2041
  194MOL0     O26658   3.417  12.159   3.296  0.1715  0.7779 -0.2513
  194MOL0     C26659   3.384  12.215   3.175  0.5833 -0.2514  0.3810
  194MOL0     C26660   3.477  12.259   3.078 -0.5261  0.5943  0.8742
  194MOL0     C26661   3.431  12.322   2.964 -0.3563 -0.7370 -0.2344
  194MOL0     C26662   3.545  12.353   2.862 -0.3095 -0.2353  0.4132
  194MOL0     C26663   3.289  12.331   2.933  0.6667  0.0389  0.3303
  194MOL0     C26664   3.228  12.396   2.810 -0.1064  0.6295  0.8478
  194MOL0     O26665   3.103  12.448   2.816 -0.4570 -0.3529 -0.7896
  194MOL0     C26666   3.027  12.484   2.701 -0.0504 -0.3604 -0.4135
  194MOL0     C26667   3.078  12.568   2.603  0.1965 -0.0726  0.1339
  194MOL0     C26668   2.996  12.590   2.490 -0.1962 -0.8651 -0.6103
  194MOL0     C26669   2.870  12.541   2.487 -0.0948 -0.5818 -0.6918
  194MOL0     O26670   2.784  12.552   2.384 -0.9475 -0.0249  0.4172
  194MOL0     C26671   2.779  12.665   2.301  0.1131 -0.8104  1.4190
  194MOL0     C26672   2.634  12.707   2.260 -0.0894 -0.8137  0.3282
  194MOL0     C26673   2.529  12.586   2.232  0.8419 -0.5194  0.1549
  194MOL0     C26674   2.389  12.651   2.232  0.3354  0.0468 -0.1375
  194MOL0     C26675   2.297  12.565   2.154 -0.1493 -0.0291  0.9193
  194MOL0     C26676   2.305  12.603   2.003  0.6854  1.0165  0.0379
  194MOL0     C26677   2.212  12.512   1.928  0.1649 -0.2949 -0.3121
  194MOL0     C26678   2.242  12.525   1.777  0.5135 -0.0383 -0.0517
  194MOL0    Cl26679   2.100  12.437   1.691 -0.0023  0.0023 -0.4095
  194MOL0     C26680   2.816  12.461   2.584  0.3399  0.3552 -0.3467
  194MOL0     C26681   2.900  12.437   2.693  1.0866  0.1713 -0.3163
  194MOL0     O26682   3.304  12.404   2.709 -0.2429  0.5687 -0.3722
  194MOL0     C26683   3.205  12.301   3.042  0.3276  1.6051  0.4103
  194MOL0     C26684   3.252  12.239   3.158  0.4192 -0.5931 -0.8029
  194MOL0     N26685   3.338  11.445   3.291  0.0450 -0.3163 -0.1980
  194MOL0     N26686   3.311  11.334   3.355 -0.3783 -0.0766  1.4034
  194MOL0     C26687   3.219  10.662   4.351 -0.2267  0.6286 -0.5531
  194MOL0     C26688   3.248  10.546   4.432  0.3462  0.3177  0.2381
  194MOL0     C26689   3.283  10.239   4.718 -0.1374 -0.1470  1.9349
  194MOL0     C26690   3.370  10.174   4.622  1.2041 -0.0151 -0.1681
  194MOL0     C26691   3.406  10.034   4.639  0.4477  0.0999  0.5781
  194MOL0     C26692   3.373   9.974   4.760  0.9244 -0.1245 -0.0130
  194MOL0     O26693   3.409   9.847   4.792 -0.4871  0.0781 -0.8015
  194MOL0     C26694   3.477   9.754   4.714  0.3802 -0.2211  0.2483
  194MOL0     C26695   3.407   9.624   4.685 -0.0907  0.3277  0.0209
  194MOL0     C26696   3.258   9.648   4.646  0.5969  0.1732  0.1620
  194MOL0     C26697   3.209   9.524   4.588 -0.1044  0.6424  1.1217
  194MOL0     C26698   3.190   9.402   4.672 -0.6384 -0.7028  0.1363
  194MOL0     C26699   3.168   9.299   4.729 -0.3542 -0.6109  0.5190
  194MOL0     C26700   3.291  10.039   4.853  0.2379  0.0793  0.1789
  194MOL0     C26701   3.241  10.169   4.824 -0.9622 -0.4233 -0.1674
  194MOL0     C26702   3.165  10.240   4.932  0.4759  0.3075 -0.6486
  194MOL0     H26703   3.378  10.739   4.700 -0.0442  3.2246 -1.9919
  194MOL0     H26704   3.323  10.915   4.539 -0.6269  0.9581 -3.7204
  194MOL0     H26705   3.051  10.988   4.218  1.0641  1.2275  0.0037
  194MOL0     H26706   3.035  10.814   4.229  0.0805  0.0562 -1.0399
  194MOL0     H26707   3.231  10.776   4.081  0.2638 -0.2678  2.0835
  194MOL0     H26708   3.084  10.856   4.014 -0.0385  1.0617 -0.5568
  194MOL0     H26709   3.249  11.075   4.115 -2.0532  3.1503 -1.5236
  194MOL0     H26710   3.358  10.966   4.038 -0.8378 -1.9520  1.0169
  194MOL0     H26711   3.183  10.991   3.837 -0.1434  2.2268 -1.4994
  194MOL0     H26712   3.085  11.101   3.936 -0.1624  0.7659 -0.3979
  194MOL0     H26713   3.377  11.160   3.854  0.4215  0.5594 -0.0018
  194MOL0     H26714   3.274  11.260   3.951 -3.2854 -1.3963 -0.7130
  194MOL0     H26715   3.102  11.268   3.774  0.4922  1.9866  1.6123
  194MOL0     H26716   3.236  11.367   3.738 -4.4335  1.2712 -0.9633
  194MOL0     H26717   3.198  11.072   3.646  3.1318 -0.2033  1.1497
  194MOL0     H26718   3.335  11.168   3.604  0.9309 -0.6725  0.0855
  194MOL0     H26719   3.131  11.150   3.438  3.1047 -1.1258  0.3354
  194MOL0     H26720   3.050  11.260   3.529  0.8347 -1.0710  1.3122
  194MOL0     H26721   3.094  11.529   3.483 -2.4751 -0.9353 -1.8299
  194MOL0     H26722   3.133  11.727   3.322 -0.2090 -0.7053 -0.0799
  194MOL0     H26723   3.200  11.688   3.176 -1.6077 -0.0219  1.1097
  194MOL0     H26724   3.388  11.753   3.403  2.6247  0.6531 -0.8749
  194MOL0     H26725   3.436  11.743   3.246  0.7887  0.4984  1.6986
  194MOL0     H26726   3.270  11.933   3.188  1.1750 -1.8823 -1.2626
  194MOL0     H26727   3.227  11.947   3.359 -1.8901 -0.3823 -0.0432
  194MOL0     H26728   3.472  11.991   3.407 -1.6954 -0.9008  0.4081
  194MOL0     H26729   3.517  11.986   3.239 -1.9883 -4.8690 -0.0488
  194MOL0     H26730   3.581  12.243   3.106 -0.4725  0.5498  0.6521
  194MOL0     H26731   3.644  12.355   2.907  1.1399  2.3370 -2.5226
  194MOL0     H26732   3.532  12.450   2.812 -4.4191  0.0733  1.6959
  194MOL0     H26733   3.552  12.275   2.786  2.1099  0.2588  0.0661
  194MOL0     H26734   3.168  12.626   2.623 -0.1202  1.2908 -2.0469
  194MOL0     H26735   3.039  12.651   2.411  1.3290 -1.2468 -0.0941
  194MOL0     H26736   2.829  12.751   2.344 -1.0950 -0.4811  2.2230
  194MOL0     H26737   2.835  12.629   2.214 -2.5737 -1.6041 -0.1399
  194MOL0     H26738   2.597  12.780   2.331  0.4461 -2.5396  2.4898
  194MOL0     H26739   2.632  12.775   2.174  1.0807  0.5252  1.3198
  194MOL0     H26740   2.535  12.501   2.301 -0.1835 -0.4023  0.4096
  194MOL0     H26741   2.553  12.548   2.132 -1.0696 -0.7822 -0.2346
  194MOL0     H26742   2.392  12.750   2.187  1.2620 -0.8038 -2.0835
  194MOL0     H26743   2.351  12.640   2.334  1.2976 -0.6142  0.1705
  194MOL0     H26744   2.324  12.459   2.164  1.4405 -0.2742 -3.4127
  194MOL0     H26745   2.194  12.585   2.184 -1.1237 -1.0756 -1.4799
  194MOL0     H26746   2.406  12.592   1.964  1.4551 -0.0038  2.1281
  194MOL0     H26747   2.276  12.707   1.986  1.9348  0.9184 -3.3918
  194MOL0     H26748   2.109  12.541   1.949 -0.8826 -3.5434 -0.3996
  194MOL0     H26749   2.224  12.406   1.955 -1.5091  0.3057  3.4650
  194MOL0     H26750   2.334  12.474   1.747 -0.1512 -1.6484  0.5453
  194MOL0     H26751   2.242  12.629   1.742  1.4670 -0.6241 -1.9765
  194MOL0     H26752   2.713  12.427   2.582 -0.3371  2.2902 -1.3197
  194MOL0     H26753   2.850  12.382   2.772  0.1740  1.9187  0.3767
  194MOL0     H26754   3.102  12.333   3.030  0.3038  0.8011 -1.8256
  194MOL0     H26755   3.183  12.224   3.241  1.5513  0.8053  0.4679
  194MOL0     H26756   3.181  10.644   4.250 -1.6153  0.8524 -0.0963
  194MOL0     H26757   3.230  10.445   4.397  2.9305 -0.6389  1.4700
  194MOL0     H26758   3.413  10.224   4.536 -1.9005  2.1078 -0.6833
  194MOL0     H26759   3.478   9.989   4.570  0.0952  0.0760  0.2224
  194MOL0     H26760   3.519   9.805   4.627  1.5411  1.8989  1.9488
  194MOL0     H26761   3.569   9.727   4.767  2.0602  3.4191 -0.5060
  194MOL0     H26762   3.408   9.566   4.777  2.2580  2.4475  1.4398
  194MOL0     H26763   3.461   9.578   4.601  1.0618  0.1981  0.8207
  194MOL0     H26764   3.208   9.652   4.743 -0.7725  2.1581 -0.5488
  194MOL0     H26765   3.241   9.737   4.585  1.3547 -0.3573 -0.8580
  194MOL0     H26766   3.273   9.505   4.501  0.0719  3.0093  0.6795
  194MOL0     H26767   3.108   9.540   4.547  0.5758  3.1564  0.2366
  194MOL0     H26768   3.141   9.206   4.776 -1.1931 -2.4779 -3.2737
  194MOL0     H26769   3.273   9.982   4.944 -2.6021 -3.6243 -2.4082
  194MOL0     H26770   3.068  10.264   4.886  0.7360 -1.2142 -2.0879
  194MOL0     H26771   3.143  10.181   5.021  0.7782  0.4966 -0.4473
  194MOL0     H26772   3.212  10.332   4.967  0.0384  1.2598 -2.4432
  195MOL0     O26773   4.379   6.600   7.143  0.3396  0.1192  0.0399
  195MOL0     C26774   4.356   6.603   7.261 -0.0678  0.6250  0.4018
  195MOL0     O26775   4.448   6.613   7.361 -0.7748 -0.2217  0.8561
  195MOL0     C26776   4.583   6.590   7.325 -0.2259 -0.0758  0.1743
  195MOL0     C26777   4.646   6.482   7.377  0.1545 -0.9265  0.6322
  195MOL0     C26778   4.787   6.456   7.336  0.4638  0.1449 -1.0218
  195MOL0     C26779   4.854   6.532   7.244 -0.1979 -0.6146  0.6288
  195MOL0     O26780   4.982   6.493   7.202  0.1864 -0.5176 -0.5695
  195MOL0     C26781   5.044   6.553   7.083  0.1415  0.8671 -0.0846
  195MOL0     C26782   5.165   6.460   7.046 -0.8462 -1.3864 -0.0414
  195MOL0     C26783   5.297   6.535   7.082  0.6279 -0.4371 -0.3073
  195MOL0     C26784   5.421   6.446   7.068 -0.4802 -0.6901 -0.1545
  195MOL0     C26785   5.553   6.516   7.093  1.1582  0.2870  0.5630
  195MOL0     C26786   5.677   6.432   7.059 -0.6275  0.4079  0.6287
  195MOL0     C26787   5.803   6.515   7.085  0.2544  0.2206 -0.1277
  195MOL0     C26788   5.933   6.423   7.098 -0.2714  0.1631  0.8152
  195MOL0     N26789   5.980   6.388   6.957  0.1585  0.0795 -0.2083
  195MOL0     C26790   5.915   6.334   6.858 -0.3763 -0.3449  0.3513
  195MOL0     C26791   6.002   6.334   6.752 -0.3745  0.1916  0.0976
  195MOL0     C26792   5.981   6.283   6.613 -0.0948  0.0771  0.8658
  195MOL0     C26793   5.829   6.320   6.570 -0.0056 -0.1947 -1.6184
  195MOL0     C26794   5.834   6.310   6.419  0.6818 -0.2426  0.7087
  195MOL0     C26795   5.692   6.330   6.367  0.1267  0.8196 -0.7272
  195MOL0     O26796   5.602   6.242   6.440  0.1722 -0.8371  0.0332
  195MOL0     C26797   5.475   6.223   6.405 -0.1779 -0.4135  0.0428
  195MOL0     C26798   5.406   6.120   6.477  0.4319  0.7325 -0.3235
  195MOL0     C26799   5.268   6.098   6.454  1.3069 -0.3436  0.6801
  195MOL0     C26800   5.197   5.986   6.518  0.1917  0.5839 -0.6629
  195MOL0     C26801   5.199   6.173   6.353  0.3796 -0.0938  1.2093
  195MOL0     C26802   5.054   6.157   6.323  0.6874 -0.0596 -0.3711
  195MOL0     O26803   4.982   6.267   6.289  0.2940  0.1984 -0.0138
  195MOL0     C26804   4.842   6.280   6.280  0.1590 -0.9789 -0.2660
  195MOL0     C26805   4.750   6.206   6.357  0.6034 -0.0659  0.3666
  195MOL0     C26806   4.609   6.215   6.348 -0.0469  0.2384  0.2060
  195MOL0     C26807   4.551   6.308   6.259 -0.5876  0.1724  0.4528
  195MOL0     O26808   4.424   6.331   6.236  0.0129 -0.4266 -0.8083
  195MOL0     C26809   4.338   6.224   6.264 -0.4422 -0.0771 -0.2206
  195MOL0     C26810   4.200   6.286   6.235  0.3587  0.4835  0.1595
  195MOL0     C26811   4.147   6.371   6.354  0.2214 -0.3699  0.0935
  195MOL0     C26812   4.032   6.465   6.313  0.0198  0.4242 -0.1807
  195MOL0     C26813   3.971   6.536   6.438 -0.1356  0.2774  0.2454
  195MOL0     C26814   3.879   6.652   6.389 -0.6241  0.7040  0.4335
  195MOL0     C26815   3.811   6.722   6.506 -0.0524 -0.0440 -0.3776
  195MOL0     C26816   3.695   6.809   6.456 -0.3023 -0.1168  0.1583
  195MOL0    Cl26817   3.721   6.923   6.314  0.5076 -0.0317  0.5020
  195MOL0     C26818   4.644   6.389   6.184  0.8323 -0.9415 -0.5903
  195MOL0     C26819   4.786   6.382   6.197 -0.9359 -0.0370 -0.8082
  195MOL0     O26820   5.001   6.043   6.340 -0.3311  0.1487  0.0077
  195MOL0     C26821   5.273   6.276   6.286  0.6740 -0.5541  0.6100
  195MOL0     C26822   5.410   6.299   6.306  0.5558 -0.5170  0.3271
  195MOL0     N26823   6.115   6.397   6.788 -0.4495 -0.2480 -0.0960
  195MOL0     N26824   6.103   6.420   6.913  0.1146 -0.1858  0.2700
  195MOL0     C26825   4.777   6.628   7.172  0.2438 -0.5707 -0.5196
  195MOL0     C26826   4.650   6.669   7.227  0.5646 -0.1440 -0.4449
  195MOL0     C26827   4.206   6.603   7.295  0.2485  0.8431  0.1137
  195MOL0     C26828   4.110   6.620   7.197 -1.1500 -0.2243  0.2288
  195MOL0     C26829   3.975   6.585   7.217 -0.0870  0.0386  0.3724
  195MOL0     C26830   3.935   6.525   7.339 -0.0077  0.4482  0.1493
  195MOL0     O26831   3.811   6.485   7.385  0.4972  0.4685 -0.2468
  195MOL0     C26832   3.692   6.508   7.301  0.3452 -0.5061 -0.4024
  195MOL0     C26833   3.579   6.575   7.387  0.9136  0.1796  0.0884
  195MOL0     C26834   3.457   6.596   7.295  0.1043 -0.5827 -0.8930
  195MOL0     C26835   3.338   6.628   7.382  0.4070 -0.2124 -0.1101
  195MOL0     C26836   3.205   6.619   7.309 -0.5955 -0.1639 -1.1244
  195MOL0     C26837   3.090   6.620   7.264 -0.8102  0.1039  0.1783
  195MOL0     C26838   4.029   6.508   7.439 -0.2419 -1.1828 -0.6648
  195MOL0     C26839   4.165   6.545   7.421  0.4379 -0.1117 -0.0654
  195MOL0     C26840   4.258   6.512   7.527  0.3530 -0.4559 -0.0989
  195MOL0     H26841   4.587   6.411   7.436  0.5587 -3.0134 -1.3360
  195MOL0     H26842   4.851   6.380   7.381  0.9743  0.9659 -0.3115
  195MOL0     H26843   5.081   6.652   7.114  0.2049  0.6413  0.5640
  195MOL0     H26844   4.976   6.561   6.998 -1.8981 -0.8365  1.2864
  195MOL0     H26845   5.149   6.362   7.092 -2.9724 -0.3578  1.6156
  195MOL0     H26846   5.151   6.452   6.938 -0.4817  4.5819 -0.8521
  195MOL0     H26847   5.297   6.629   7.026  1.1472  0.0372  0.4630
  195MOL0     H26848   5.298   6.562   7.188 -0.2178  0.7419 -0.5748
  195MOL0     H26849   5.426   6.368   7.144  1.8249 -0.3828  0.0872
  195MOL0     H26850   5.425   6.407   6.966 -2.0477  1.1484 -0.9854
  195MOL0     H26851   5.545   6.560   7.193 -1.6610 -0.3381  0.6993
  195MOL0     H26852   5.561   6.592   7.015  0.3591 -2.2671 -2.1975
  195MOL0     H26853   5.684   6.339   7.116  0.5844  0.6616  0.9343
  195MOL0     H26854   5.682   6.405   6.953 -0.0790 -0.0144  0.7518
  195MOL0     H26855   5.794   6.569   7.179  1.1641  2.0831 -1.0586
  195MOL0     H26856   5.816   6.583   7.000  1.8703 -0.9245 -0.8441
  195MOL0     H26857   6.011   6.488   7.139 -1.3648  2.1802 -0.1321
  195MOL0     H26858   5.907   6.333   7.155 -1.5400  0.1150  0.2041
  195MOL0     H26859   5.816   6.291   6.870 -1.1987  2.1623  4.6862
  195MOL0     H26860   5.996   6.175   6.607  0.7177  0.0601  2.5042
  195MOL0     H26861   6.060   6.325   6.550 -2.6594  0.0378 -2.6804
  195MOL0     H26862   5.766   6.245   6.620  1.2475 -0.1212  0.1493
  195MOL0     H26863   5.812   6.416   6.621  0.9936 -1.3871  1.1364
  195MOL0     H26864   5.898   6.384   6.370 -2.4431  1.1121 -1.6947
  195MOL0     H26865   5.868   6.208   6.397  0.6893 -1.2676  4.6856
  195MOL0     H26866   5.663   6.434   6.383  1.6922  1.4269 -1.6590
  195MOL0     H26867   5.695   6.311   6.259 -2.4956 -1.3270 -0.5441
  195MOL0     H26868   5.454   6.083   6.567 -0.7973  0.8048  0.3976
  195MOL0     H26869   5.192   5.912   6.438  3.5728 -0.2173 -0.2512
  195MOL0     H26870   5.095   6.005   6.555  0.9488  0.2437  1.7484
  195MOL0     H26871   5.251   5.936   6.599 -0.7741  0.6011  0.0125
  195MOL0     H26872   4.791   6.134   6.427  0.8332 -0.6522 -0.3557
  195MOL0     H26873   4.551   6.159   6.420  2.6197  1.4913  3.5577
  195MOL0     H26874   4.361   6.135   6.205 -0.0892  1.5373 -2.6615
  195MOL0     H26875   4.334   6.203   6.372 -0.4973 -0.7770 -0.3555
  195MOL0     H26876   4.210   6.350   6.147  1.7706 -2.2590 -1.8118
  195MOL0     H26877   4.128   6.205   6.219  2.4768 -1.9979  2.2026
  195MOL0     H26878   4.223   6.438   6.397 -0.5987 -0.0295  1.0647
  195MOL0     H26879   4.112   6.311   6.438 -1.4342  1.5307  0.8510
  195MOL0     H26880   3.957   6.408   6.258  1.8172 -1.6965 -0.5572
  195MOL0     H26881   4.066   6.542   6.243 -2.8163  1.8174 -0.2004
  195MOL0     H26882   3.922   6.448   6.480  1.1258 -0.9426 -0.7382
  195MOL0     H26883   4.056   6.574   6.497 -0.2935  1.3841 -0.2200
  195MOL0     H26884   3.809   6.608   6.318  0.7064 -0.0777 -0.4446
  195MOL0     H26885   3.941   6.725   6.337 -3.0347  3.1861  0.8416
  195MOL0     H26886   3.888   6.780   6.558 -1.0393  2.4583 -1.5427
  195MOL0     H26887   3.763   6.646   6.568  2.1692 -2.7028 -1.6977
  195MOL0     H26888   3.649   6.863   6.539 -3.1005 -2.7490  0.5156
  195MOL0     H26889   3.614   6.740   6.429 -0.2550 -0.3835  0.6724
  195MOL0     H26890   4.600   6.465   6.120 -0.1217 -1.0728 -0.1117
  195MOL0     H26891   4.856   6.440   6.138 -0.0854 -0.1826  0.0346
  195MOL0     H26892   5.232   6.348   6.216  1.9366 -0.8615 -0.4799
  195MOL0     H26893   5.463   6.386   6.267  1.7565  0.6227  4.0301
  195MOL0     H26894   4.810   6.692   7.090  1.5085  0.8060  1.0118
  195MOL0     H26895   4.589   6.749   7.187 -1.7139 -0.0989  2.7465
  195MOL0     H26896   4.145   6.649   7.099  2.4472 -0.8160  1.1874
  195MOL0     H26897   3.894   6.599   7.146 -1.2603 -0.8454  1.4995
  195MOL0     H26898   3.707   6.573   7.214 -1.0236  1.8355  1.0045
  195MOL0     H26899   3.646   6.416   7.264 -2.4039  1.0282 -1.1070
  195MOL0     H26900   3.620   6.670   7.422  0.1004  0.0039  1.6337
  195MOL0     H26901   3.546   6.523   7.477  0.4432  2.0570  1.0634
  195MOL0     H26902   3.472   6.678   7.224 -1.3611 -0.6508 -1.3117
  195MOL0     H26903   3.432   6.502   7.246  1.2997 -2.2602  1.4927
  195MOL0     H26904   3.344   6.727   7.429 -2.4556 -0.2273  0.4645
  195MOL0     H26905   3.324   6.560   7.466 -3.9392 -1.4266 -1.5362
  195MOL0     H26906   2.993   6.614   7.217 -1.5668  1.2758  1.5311
  195MOL0     H26907   3.997   6.471   7.536 -0.9357  6.2672  2.6304
  195MOL0     H26908   4.335   6.446   7.488  0.1340  0.4364 -2.1404
  195MOL0     H26909   4.313   6.598   7.567 -0.9636 -0.2022  1.2717
  195MOL0     H26910   4.211   6.473   7.618  0.8263 -0.5936  0.0916
  196MOL0     O26911   3.142   3.252   6.688  0.0381 -0.0806 -0.3334
  196MOL0     C26912   3.222   3.271   6.781  0.0573  0.4476 -0.8611
  196MOL0     O26913   3.244   3.396   6.838 -0.4182 -0.1491 -0.0622
  196MOL0     C26914   3.209   3.512   6.762  0.2366  0.5287 -0.3477
  196MOL0     C26915   3.156   3.623   6.829  0.4649 -0.2897  0.1134
  196MOL0     C26916   3.127   3.753   6.778  0.3358  0.5298  0.8672
  196MOL0     C26917   3.145   3.767   6.635 -0.5476 -0.1078  0.9037
  196MOL0     O26918   3.099   3.878   6.565  0.2906  0.3191 -0.2346
  196MOL0     C26919   3.120   3.899   6.425  0.3080 -0.6680  0.1261
  196MOL0     C26920   3.084   4.039   6.369 -0.5304  0.1769  0.4420
  196MOL0     C26921   2.936   4.061   6.375 -0.3357 -0.4105 -0.2550
  196MOL0     C26922   2.889   4.173   6.281 -0.2911  0.2017 -0.5617
  196MOL0     C26923   2.743   4.178   6.242  0.7924  0.6383 -0.0522
  196MOL0     C26924   2.666   4.237   6.363 -0.1086  0.2793  0.3216
  196MOL0     C26925   2.512   4.245   6.332 -0.4247 -0.9400 -0.3069
  196MOL0     C26926   2.413   4.249   6.457 -0.2615 -0.0203  0.2489
  196MOL0     N26927   2.404   4.382   6.516 -0.1459  0.0477 -0.1134
  196MOL0     C26928   2.507   4.457   6.569 -0.2095  0.4966  1.3773
  196MOL0     C26929   2.454   4.583   6.574 -2.3138 -0.7657 -0.1470
  196MOL0     C26930   2.526   4.709   6.622  1.0225 -0.8371  0.2387
  196MOL0     C26931   2.659   4.739   6.559 -0.3765 -0.1491 -0.0452
  196MOL0     C26932   2.639   4.751   6.404  0.4157 -0.7403  0.3973
  196MOL0     C26933   2.768   4.803   6.336  0.2199  0.1888 -0.5558
  196MOL0     O26934   2.862   4.692   6.329  0.7691 -0.0368 -0.6135
  196MOL0     C26935   2.991   4.704   6.288  0.0913 -0.2560 -1.0279
  196MOL0     C26936   3.064   4.831   6.297  0.2675  0.2157 -0.2410
  196MOL0     C26937   3.201   4.844   6.275 -0.2896 -0.0429  0.0694
  196MOL0     C26938   3.265   4.977   6.302  0.2358 -0.7142  0.6099
  196MOL0     C26939   3.272   4.736   6.231  0.2287 -0.0066  0.9251
  196MOL0     C26940   3.417   4.739   6.187  0.1985  0.5502 -0.2454
  196MOL0     O26941   3.451   4.642   6.091  0.3058  0.1748 -0.0044
  196MOL0     C26942   3.579   4.585   6.075 -0.1474 -0.4126 -0.1494
  196MOL0     C26943   3.701   4.619   6.135  0.7379 -0.2309  0.5884
  196MOL0     C26944   3.822   4.555   6.103 -0.4954  0.3769 -0.3220
  196MOL0     C26945   3.817   4.443   6.022  0.5173 -0.0147  1.0029
  196MOL0     O26946   3.926   4.353   5.998 -0.1230  0.4005  1.0043
  196MOL0     C26947   4.002   4.308   6.112  0.0924 -0.3132  0.1076
  196MOL0     C26948   4.116   4.214   6.087 -0.7180 -0.4795  0.6896
  196MOL0     C26949   4.222   4.271   5.985 -0.1779  0.2481  0.0877
  196MOL0     C26950   4.321   4.172   5.939  0.1234  0.7375  0.3776
  196MOL0     C26951   4.426   4.225   5.839 -0.1960 -0.4629  0.6557
  196MOL0     C26952   4.505   4.117   5.763  1.0266 -0.1928 -0.3621
  196MOL0     C26953   4.574   4.011   5.861  0.1891 -0.1117 -0.1153
  196MOL0     C26954   4.685   3.926   5.806  0.0288  0.7028  0.4288
  196MOL0    Cl26955   4.607   3.797   5.714  0.6282 -0.2425  0.1574
  196MOL0     C26956   3.698   4.419   5.950  0.2439  0.3150  0.6108
  196MOL0     C26957   3.580   4.491   5.972 -1.4444 -0.3696 -0.1347
  196MOL0     O26958   3.492   4.806   6.256  0.1893 -0.3151 -0.4420
  196MOL0     C26959   3.198   4.620   6.196 -0.8252  0.2325  0.1275
  196MOL0     C26960   3.066   4.600   6.240 -0.1236 -0.3177 -0.4752
  196MOL0     N26961   2.324   4.581   6.554  0.4206  0.4052  0.2786
  196MOL0     N26962   2.293   4.464   6.505  1.0375 -0.1544 -0.8605
  196MOL0     C26963   3.209   3.660   6.563 -0.3020 -0.7457 -0.2615
  196MOL0     C26964   3.239   3.540   6.628 -0.1619  0.7629 -0.5126
  196MOL0     C26965   3.290   3.150   6.834 -0.5678 -0.0984  0.4185
  196MOL0     C26966   3.212   3.033   6.861 -0.0533  0.2162 -0.5079
  196MOL0     C26967   3.276   2.930   6.938  0.2078  0.6121 -0.9169
  196MOL0     C26968   3.408   2.923   6.973 -0.7878  0.0258  0.5791
  196MOL0     O26969   3.446   2.808   7.046  0.7228  0.6515  0.5109
  196MOL0     C26970   3.585   2.800   7.066  0.2699  0.2282 -0.2203
  196MOL0     C26971   3.600   2.684   7.161  0.2086  0.1488 -0.0103
  196MOL0     C26972   3.540   2.704   7.303 -0.0059  0.0209  0.2828
  196MOL0     C26973   3.634   2.790   7.393 -0.1098 -0.9352  0.4394
  196MOL0     C26974   3.754   2.716   7.422  0.0434 -0.2601  0.0569
  196MOL0     C26975   3.848   2.656   7.454 -0.0831  0.3662  0.9888
  196MOL0     C26976   3.483   3.042   6.948 -0.0718 -0.1766  0.2953
  196MOL0     C26977   3.425   3.150   6.877  0.5052  0.3785 -0.0234
  196MOL0     C26978   3.518   3.260   6.850 -0.2526 -0.5206 -0.3102
  196MOL0     H26979   3.141   3.603   6.934  1.6013  1.0516  0.5660
  196MOL0     H26980   3.074   3.819   6.845 -0.8800 -1.0466  1.5181
  196MOL0     H26981   3.062   3.824   6.370  1.3537 -3.3601  2.4873
  196MOL0     H26982   3.227   3.889   6.402  1.0963  3.0617  1.5040
  196MOL0     H26983   3.137   4.109   6.435  2.2362 -2.0261  0.7665
  196MOL0     H26984   3.120   4.055   6.267 -0.9469 -2.0844 -0.1230
  196MOL0     H26985   2.875   3.978   6.336 -0.8279  0.7688 -2.1500
  196MOL0     H26986   2.909   4.077   6.480  0.0592  2.0161 -0.4700
  196MOL0     H26987   2.929   4.267   6.319 -1.4133  0.3055  0.4252
  196MOL0     H26988   2.942   4.146   6.189  1.4597  2.3891 -0.2859
  196MOL0     H26989   2.705   4.078   6.217  3.4134 -0.4371 -0.1131
  196MOL0     H26990   2.728   4.233   6.149 -2.9254  0.7669  0.4897
  196MOL0     H26991   2.683   4.168   6.446 -1.7512 -0.9425 -0.3243
  196MOL0     H26992   2.691   4.338   6.397 -1.1424  0.3861  0.8013
  196MOL0     H26993   2.483   4.165   6.263  1.9367  0.3796 -3.0068
  196MOL0     H26994   2.490   4.336   6.276  0.9643  1.2847  2.4660
  196MOL0     H26995   2.314   4.213   6.424 -0.3496 -2.1568  2.5278
  196MOL0     H26996   2.442   4.180   6.536 -0.5698  0.0184  0.3982
  196MOL0     H26997   2.605   4.418   6.595 -0.3599 -2.0822 -1.3886
  196MOL0     H26998   2.543   4.691   6.729 -1.1057 -1.6244  0.5114
  196MOL0     H26999   2.460   4.796   6.619  1.3877 -0.5614 -2.3001
  196MOL0     H27000   2.707   4.820   6.614  4.1159 -3.2620  1.2145
  196MOL0     H27001   2.725   4.652   6.569 -0.9499 -0.3945  2.2179
  196MOL0     H27002   2.614   4.656   6.356  2.3048 -0.7237 -0.6984
  196MOL0     H27003   2.559   4.823   6.384 -0.3778 -0.8551  2.8119
  196MOL0     H27004   2.740   4.828   6.233 -0.2433 -0.2957 -0.5550
  196MOL0     H27005   2.813   4.889   6.385  0.4168  0.8643 -1.8712
  196MOL0     H27006   3.017   4.919   6.342 -0.6447 -0.1460 -0.4550
  196MOL0     H27007   3.184   5.047   6.324  2.6861  2.6010 -0.1052
  196MOL0     H27008   3.303   5.003   6.203  0.9543 -0.9388  0.8178
  196MOL0     H27009   3.359   4.987   6.357  1.3963 -2.2521 -0.9965
  196MOL0     H27010   3.700   4.699   6.209 -0.1944  0.8823 -0.5826
  196MOL0     H27011   3.915   4.596   6.141 -0.8019  2.3243 -1.5015
  196MOL0     H27012   4.050   4.390   6.166 -0.3936 -2.4820  4.2233
  196MOL0     H27013   3.936   4.258   6.183  1.7632 -0.0739  1.9179
  196MOL0     H27014   4.159   4.184   6.183  1.2655  2.1885  0.7449
  196MOL0     H27015   4.081   4.124   6.037  0.5113 -0.1961 -0.7564
  196MOL0     H27016   4.258   4.364   6.031 -0.6609 -0.6349  2.3578
  196MOL0     H27017   4.170   4.308   5.896 -0.0406 -2.4629 -1.2190
  196MOL0     H27018   4.267   4.096   5.882 -0.2821  1.2957  0.0109
  196MOL0     H27019   4.364   4.113   6.021  0.0236 -0.4755 -0.4167
  196MOL0     H27020   4.363   4.279   5.768 -2.6304 -1.0803  2.2150
  196MOL0     H27021   4.500   4.292   5.885 -1.0255  2.1580 -1.5565
  196MOL0     H27022   4.581   4.162   5.698  0.5742  1.5606  0.2881
  196MOL0     H27023   4.429   4.082   5.693 -0.1969  2.2923 -0.3711
  196MOL0     H27024   4.499   3.948   5.910  0.0050  1.0390  1.1347
  196MOL0     H27025   4.617   4.070   5.942 -0.7889  1.1428 -0.4841
  196MOL0     H27026   4.749   3.883   5.884  0.0177 -1.1614 -0.5293
  196MOL0     H27027   4.756   3.961   5.731 -0.8628 -0.8624 -1.2230
  196MOL0     H27028   3.689   4.337   5.880 -0.7322 -1.0948  2.3199
  196MOL0     H27029   3.491   4.454   5.922 -1.6764 -0.0195  0.0166
  196MOL0     H27030   3.241   4.530   6.153 -0.0449  1.0993 -0.9740
  196MOL0     H27031   3.012   4.509   6.215  0.2932 -0.4213 -1.0149
  196MOL0     H27032   3.226   3.660   6.456  0.3751  0.7587 -0.1653
  196MOL0     H27033   3.289   3.452   6.588 -1.3601 -1.2186  2.0942
  196MOL0     H27034   3.110   3.041   6.827  0.3329  2.1384 -1.3920
  196MOL0     H27035   3.211   2.852   6.975 -0.0972  1.0064 -0.6135
  196MOL0     H27036   3.638   2.778   6.973  0.7790  1.2487 -0.1749
  196MOL0     H27037   3.622   2.890   7.115  1.5659 -0.5628  0.2876
  196MOL0     H27038   3.706   2.660   7.156 -0.1822 -1.4147 -1.7115
  196MOL0     H27039   3.546   2.596   7.124  1.1331 -0.7620  0.7651
  196MOL0     H27040   3.438   2.740   7.290 -1.4672 -4.0546 -1.2563
  196MOL0     H27041   3.534   2.605   7.350 -2.2735  0.2183  0.5034
  196MOL0     H27042   3.584   2.821   7.485  2.4191  1.4601  1.1554
  196MOL0     H27043   3.657   2.880   7.336 -1.0103 -0.9686  0.0191
  196MOL0     H27044   3.942   2.608   7.472  0.1191  0.4737  0.2647
  196MOL0     H27045   3.589   3.046   6.970  0.7642  2.5135 -3.2567
  196MOL0     H27046   3.542   3.245   6.744 -1.6087 -0.8388 -0.6003
  196MOL0     H27047   3.467   3.352   6.880 -2.8181 -1.2893 -1.9269
  196MOL0     H27048   3.607   3.257   6.912 -0.7598  0.6660  0.5326
  197MOL0     O27049   3.310   3.015   0.609 -0.1732  0.3992 -0.2806
  197MOL0     C27050   3.281   3.100   0.525 -0.4901 -0.0458  0.1642
  197MOL0     O27051   3.349   3.117   0.406  0.2400  0.6461 -0.6051
  197MOL0     C27052   3.483   3.092   0.392  0.4447  0.4744  0.4893
  197MOL0     C27053   3.575   3.073   0.495 -0.3262 -0.5322  0.0050
  197MOL0     C27054   3.708   3.062   0.474 -0.2981  1.0490  0.4814
  197MOL0     C27055   3.756   3.059   0.337  0.4906  0.0702  0.4511
  197MOL0     O27056   3.894   3.041   0.317 -0.0072 -0.6419 -0.5860
  197MOL0     C27057   3.953   2.979   0.198 -0.6394  0.0578  0.1119
  197MOL0     C27058   4.073   2.906   0.251  0.4763  0.0429 -0.1158
  197MOL0     C27059   4.031   2.796   0.348 -0.7187 -0.4928 -0.4431
  197MOL0     C27060   3.991   2.670   0.274  0.0342  0.2759 -0.2915
  197MOL0     C27061   3.965   2.562   0.378  0.1115  0.0413 -0.1046
  197MOL0     C27062   3.961   2.420   0.319 -0.4108 -0.4261  0.3870
  197MOL0     C27063   3.955   2.315   0.438 -0.3424  0.6155 -0.0156
  197MOL0     C27064   3.905   2.177   0.391  0.4632 -0.5578  0.3896
  197MOL0     N27065   4.027   2.095   0.376  0.4263  0.1099 -0.1569
  197MOL0     C27066   4.087   2.030   0.487  0.9871  0.9609  0.6046
  197MOL0     C27067   4.169   1.938   0.418  1.0448  0.2409 -0.1187
  197MOL0     C27068   4.256   1.841   0.482 -0.5715 -0.3748 -0.3852
  197MOL0     C27069   4.402   1.882   0.460 -0.7905 -0.3065  0.1664
  197MOL0     C27070   4.489   1.774   0.511  0.6099 -0.0130  0.0016
  197MOL0     C27071   4.639   1.811   0.515  0.5157 -0.4459  0.1181
  197MOL0     O27072   4.710   1.817   0.384  0.6627  0.6524  0.1334
  197MOL0     C27073   4.802   1.908   0.388 -1.2000 -0.7485  0.7567
  197MOL0     C27074   4.776   2.043   0.347  0.2736 -0.1874 -0.0204
  197MOL0     C27075   4.874   2.141   0.360  0.1461 -0.3286 -0.4706
  197MOL0     C27076   4.840   2.285   0.310  0.4085 -0.2248  0.4836
  197MOL0     C27077   5.006   2.097   0.392  0.0716 -1.0146  0.0254
  197MOL0     C27078   5.127   2.192   0.416 -0.3689  0.0049  0.5095
  197MOL0     O27079   5.108   2.322   0.379 -0.8268  0.0238  0.3985
  197MOL0     C27080   5.212   2.409   0.402 -0.5900  0.1864 -0.2533
  197MOL0     C27081   5.337   2.388   0.348  0.4928  0.6526  1.0234
  197MOL0     C27082   5.437   2.479   0.358 -0.4486  0.6488 -0.1415
  197MOL0     C27083   5.415   2.599   0.428 -0.6988 -0.4316  0.4692
  197MOL0     O27084   5.528   2.687   0.425  0.4541 -0.1060 -0.7298
  197MOL0     C27085   5.527   2.792   0.527  0.2534  0.8634 -0.4959
  197MOL0     C27086   5.670   2.849   0.550  0.0500 -0.5262 -0.1051
  197MOL0     C27087   5.764   2.747   0.604 -0.6434 -0.4590 -0.7047
  197MOL0     C27088   5.832   2.687   0.478 -0.1412  0.3726  0.9638
  197MOL0     C27089   5.956   2.602   0.518  0.3334 -0.6436  0.7179
  197MOL0     C27090   6.011   2.502   0.411  0.8055 -0.1682 -0.2934
  197MOL0     C27091   5.893   2.435   0.339  0.3666 -0.6381  0.4831
  197MOL0     C27092   5.953   2.330   0.253 -0.4826 -0.5196  0.2445
  197MOL0    Cl27093   6.007   2.401   0.098 -0.2198 -0.2664 -0.2089
  197MOL0     C27094   5.290   2.629   0.486 -0.2825 -0.7114  0.3323
  197MOL0     C27095   5.190   2.531   0.461  0.2562 -0.1540 -0.1566
  197MOL0     O27096   5.232   2.143   0.462  0.4052  0.5756  0.1195
  197MOL0     C27097   5.033   1.961   0.430  0.2898  0.0354 -0.3831
  197MOL0     C27098   4.924   1.873   0.433  0.1000 -0.7314 -0.4693
  197MOL0     N27099   4.152   1.948   0.276  0.3078  0.1428 -0.0157
  197MOL0     N27100   4.070   2.048   0.254  0.4407 -0.3204  0.0671
  197MOL0     C27101   3.663   3.074   0.234 -1.2398  0.1065 -0.6011
  197MOL0     C27102   3.530   3.091   0.262 -0.3740  0.2233 -0.0991
  197MOL0     C27103   3.168   3.198   0.535  0.0211 -0.0031  0.0738
  197MOL0     C27104   3.083   3.219   0.426 -0.1622  0.0050 -0.1406
  197MOL0     C27105   2.974   3.304   0.436  0.4110  0.3517 -0.3686
  197MOL0     C27106   2.948   3.374   0.553  0.2124 -0.7655 -0.4690
  197MOL0     O27107   2.829   3.447   0.560  0.5969  0.1037  0.3032
  197MOL0     C27108   2.780   3.477   0.697 -0.3429  0.8689  0.2924
  197MOL0     C27109   2.634   3.519   0.701  0.6718  0.0403 -0.4841
  197MOL0     C27110   2.541   3.401   0.677 -0.6605 -0.6229  1.0041
  197MOL0     C27111   2.532   3.362   0.531 -0.3632  0.2060  0.5309
  197MOL0     C27112   2.447   3.247   0.496 -0.0715  0.0169 -0.2915
  197MOL0     C27113   2.372   3.163   0.459  0.3556 -1.1750  0.7629
  197MOL0     C27114   3.031   3.348   0.663  0.4788 -0.9959 -0.0903
  197MOL0     C27115   3.144   3.267   0.654 -0.4169  0.0889 -0.0034
  197MOL0     C27116   3.225   3.242   0.776 -0.1752  1.3324 -0.0658
  197MOL0     H27117   3.542   3.077   0.598 -0.9251  0.2875 -0.2081
  197MOL0     H27118   3.782   3.047   0.553  1.7761 -1.7376 -1.7801
  197MOL0     H27119   3.991   3.060   0.136 -0.2314 -0.1671  0.0671
  197MOL0     H27120   3.881   2.922   0.138  1.5422  1.7690 -4.5775
  197MOL0     H27121   4.123   2.867   0.162  2.7572  0.7611  0.7897
  197MOL0     H27122   4.137   2.975   0.306 -1.1674  1.6665 -0.1328
  197MOL0     H27123   4.122   2.775   0.405  0.0298 -4.0126 -2.5966
  197MOL0     H27124   3.945   2.809   0.415 -0.5631  0.5281 -0.4214
  197MOL0     H27125   3.907   2.685   0.206  0.5332 -0.7840 -1.1605
  197MOL0     H27126   4.078   2.643   0.214  0.1928  0.9949 -0.3889
  197MOL0     H27127   3.875   2.587   0.435 -0.5990 -0.2351 -1.0716
  197MOL0     H27128   4.048   2.557   0.449 -0.8780 -1.3284  1.0220
  197MOL0     H27129   3.875   2.418   0.251  0.4073  0.7331 -0.7167
  197MOL0     H27130   4.046   2.403   0.253 -0.7513 -1.2106  0.1299
  197MOL0     H27131   3.880   2.365   0.501  1.3419  2.6002  0.5457
  197MOL0     H27132   4.045   2.309   0.499 -0.5944 -1.9739  0.1875
  197MOL0     H27133   3.835   2.134   0.462 -0.7176  1.6443  0.6607
  197MOL0     H27134   3.853   2.190   0.296  1.0071 -2.7984 -0.2585
  197MOL0     H27135   4.065   2.049   0.592 -2.2051  0.1465  0.2020
  197MOL0     H27136   4.228   1.742   0.444 -4.9731  1.2160 -2.0130
  197MOL0     H27137   4.240   1.844   0.590 -0.4567  0.3471 -0.3830
  197MOL0     H27138   4.429   1.899   0.356  3.2391 -1.3052  0.8508
  197MOL0     H27139   4.427   1.975   0.512  1.7324 -1.0895  0.4821
  197MOL0     H27140   4.457   1.749   0.612  2.4678 -0.7110  0.4519
  197MOL0     H27141   4.474   1.699   0.432  2.4947  0.6487 -1.0416
  197MOL0     H27142   4.647   1.903   0.575  0.8712 -0.4613  0.0939
  197MOL0     H27143   4.695   1.740   0.576  0.8164 -0.5380 -0.2670
  197MOL0     H27144   4.673   2.057   0.317 -0.4502 -3.1302  0.7815
  197MOL0     H27145   4.921   2.313   0.243  0.8217  0.8325  1.3946
  197MOL0     H27146   4.836   2.359   0.391  0.8008  2.4049 -1.7709
  197MOL0     H27147   4.744   2.285   0.258 -1.2312 -0.2630  3.2936
  197MOL0     H27148   5.362   2.301   0.287 -0.3002 -0.5735  2.3879
  197MOL0     H27149   5.538   2.462   0.321 -0.9304  0.4104 -1.3642
  197MOL0     H27150   5.469   2.876   0.488 -2.0154 -1.8411 -3.4385
  197MOL0     H27151   5.489   2.750   0.620 -0.5129 -1.5244 -1.8105
  197MOL0     H27152   5.704   2.898   0.459 -0.2372 -0.6069 -0.2570
  197MOL0     H27153   5.670   2.927   0.626 -1.1238 -0.4987 -0.1157
  197MOL0     H27154   5.719   2.666   0.662 -0.3677 -1.3977 -1.7536
  197MOL0     H27155   5.846   2.794   0.660 -0.0074 -1.6904 -0.5635
  197MOL0     H27156   5.856   2.769   0.410  0.0594  0.1345  0.7468
  197MOL0     H27157   5.769   2.618   0.422 -0.5150  0.9543  0.6569
  197MOL0     H27158   6.026   2.683   0.541  1.2089 -0.9605 -0.7285
  197MOL0     H27159   5.933   2.554   0.614  1.9801  2.2120  2.6821
  197MOL0     H27160   6.073   2.425   0.458  0.7809  2.0633  3.9001
  197MOL0     H27161   6.073   2.553   0.337  1.4802  1.4550  1.3197
  197MOL0     H27162   5.836   2.497   0.269  2.0164 -0.3936 -0.7050
  197MOL0     H27163   5.826   2.386   0.410 -1.1764 -0.8160 -1.0185
  197MOL0     H27164   5.875   2.257   0.226  0.4076 -1.8806  1.2144
  197MOL0     H27165   6.026   2.274   0.312 -1.0513  0.0841  1.5632
  197MOL0     H27166   5.276   2.724   0.537  0.7400  0.4821 -1.4964
  197MOL0     H27167   5.087   2.551   0.488 -0.8040 -0.5685 -3.4031
  197MOL0     H27168   5.136   1.931   0.442  0.2575 -0.0465 -0.2997
  197MOL0     H27169   4.943   1.770   0.459  0.0004 -1.2764 -2.3588
  197MOL0     H27170   3.706   3.072   0.134 -3.0182  0.8195 -1.4064
  197MOL0     H27171   3.456   3.094   0.182 -0.6855 -0.1643  0.1683
  197MOL0     H27172   3.099   3.166   0.332 -0.3347 -1.4661  0.6231
  197MOL0     H27173   2.916   3.308   0.345  0.8663  0.2525 -0.6674
  197MOL0     H27174   2.795   3.391   0.764  1.2564  1.2719  0.4933
  197MOL0     H27175   2.826   3.565   0.744 -1.2578  0.0550  2.8922
  197MOL0     H27176   2.625   3.597   0.626 -3.1232  0.7104  0.4577
  197MOL0     H27177   2.616   3.566   0.799  0.3516  0.7491 -0.8762
  197MOL0     H27178   2.585   3.317   0.732 -2.4107 -3.1722 -1.2350
  197MOL0     H27179   2.439   3.418   0.711 -0.2362  3.6789  0.7041
  197MOL0     H27180   2.634   3.342   0.496  0.2417  2.3764  0.9118
  197MOL0     H27181   2.487   3.447   0.479 -0.3662 -0.7524 -1.1031
  197MOL0     H27182   2.303   3.090   0.422 -1.1842  0.5237  0.1442
  197MOL0     H27183   3.014   3.403   0.755  2.7182  2.2023 -1.4235
  197MOL0     H27184   3.191   3.142   0.806 -3.1883  2.3617  0.3628
  197MOL0     H27185   3.332   3.252   0.761 -0.0515  1.0144  0.5913
  197MOL0     H27186   3.198   3.319   0.849 -2.3623  1.8131 -1.2585
  198MOL0     O27187   6.618   9.401   4.355  0.4423 -0.7749  0.0723
  198MOL0     C27188   6.517   9.470   4.376 -0.1162 -0.1037  1.4855
  198MOL0     O27189   6.516   9.597   4.432 -0.0011 -0.2615 -0.5874
  198MOL0     C27190   6.626   9.634   4.507  0.1280  0.0089 -0.0729
  198MOL0     C27191   6.700   9.549   4.591  0.4662 -0.3585  0.2940
  198MOL0     C27192   6.817   9.600   4.656  0.5251 -0.4862  0.6024
  198MOL0     C27193   6.863   9.734   4.624 -0.3465 -0.3235  0.1326
  198MOL0     O27194   6.974   9.782   4.688 -0.1021 -0.4410 -0.5019
  198MOL0     C27195   7.095   9.760   4.616  0.4457 -0.4502 -0.3622
  198MOL0     C27196   7.205   9.783   4.713 -0.2688 -0.3313  0.5637
  198MOL0     C27197   7.345   9.810   4.641  0.0960  0.7591  0.6674
  198MOL0     C27198   7.454   9.812   4.742 -0.7120 -0.2680 -0.2639
  198MOL0     C27199   7.589   9.795   4.678 -0.0537  0.6727  0.4828
  198MOL0     C27200   7.695   9.827   4.780 -0.1552  1.2222 -0.3963
  198MOL0     C27201   7.832   9.854   4.721  0.1049  0.2527 -0.9733
  198MOL0     C27202   7.953   9.843   4.809 -0.2589 -0.3773 -0.3999
  198MOL0     N27203   7.977   9.711   4.848 -0.4066 -0.0860  1.2688
  198MOL0     C27204   8.040   9.610   4.778 -0.7847  0.1643 -0.2282
  198MOL0     C27205   8.059   9.518   4.871  0.4430 -0.4876  0.2314
  198MOL0     C27206   8.145   9.390   4.853 -0.8414 -0.0735  0.5919
  198MOL0     C27207   8.283   9.427   4.819  0.1798  1.1389  0.3310
  198MOL0     C27208   8.381   9.308   4.826  0.0952 -0.3315  0.9676
  198MOL0     C27209   8.507   9.352   4.755  0.8843  0.6525 -0.7289
  198MOL0     O27210   8.577   9.463   4.812 -0.4227  0.4749  0.5206
  198MOL0     C27211   8.648   9.449   4.934 -0.5927  0.4938 -0.3185
  198MOL0     C27212   8.710   9.341   4.989 -0.8961  0.0947 -0.1712
  198MOL0     C27213   8.802   9.349   5.092  0.1702  0.5351  0.4996
  198MOL0     C27214   8.873   9.222   5.138 -0.0632  1.4998 -0.5687
  198MOL0     C27215   8.815   9.472   5.155 -0.4985  0.4897 -0.1281
  198MOL0     C27216   8.914   9.502   5.265  0.2282 -0.0799 -1.1077
  198MOL0     O27217   8.912   9.631   5.323 -0.7163  0.4097 -0.0032
  198MOL0     C27218   9.010   9.659   5.416  0.8501  0.0739 -1.0286
  198MOL0     C27219   8.978   9.671   5.560 -0.1746  0.0368 -0.4637
  198MOL0     C27220   9.080   9.717   5.649  0.1242  0.7806 -0.3536
  198MOL0     C27221   9.199   9.747   5.598  0.0910 -1.0046  0.0839
  198MOL0     O27222   9.317   9.784   5.671  0.1919 -0.9813  0.7456
  198MOL0     C27223   9.283   9.834   5.800 -0.2042  0.3675 -0.6001
  198MOL0     C27224   9.404   9.867   5.880 -0.7930 -0.3963  0.0325
  198MOL0     C27225   9.499   9.746   5.903  0.7184 -0.3174 -0.7513
  198MOL0     C27226   9.618   9.770   6.001 -0.2312  0.7613  1.2041
  198MOL0     C27227   9.704   9.642   6.016  0.1763 -0.4977  0.2410
  198MOL0     C27228   9.812   9.663   6.125 -0.1707  0.1470 -0.5316
  198MOL0     C27229   9.897   9.536   6.131  1.3784  0.4847 -0.1287
  198MOL0     C27230  10.007   9.525   6.238 -0.4579  0.0744  0.8473
  198MOL0    Cl27231  10.107   9.672   6.227  0.0332 -0.1366  0.7909
  198MOL0     C27232   9.226   9.738   5.458 -0.0759  0.3727  1.0034
  198MOL0     C27233   9.125   9.706   5.372  0.0889  0.1188 -0.3863
  198MOL0     O27234   8.993   9.418   5.296 -0.6595  0.0902  0.5769
  198MOL0     C27235   8.743   9.581   5.109 -0.9528  0.7950  0.7702
  198MOL0     C27236   8.661   9.567   4.998 -0.3146  0.2933 -0.4138
  198MOL0     N27237   7.980   9.542   4.981  0.2012  0.1068 -0.2704
  198MOL0     N27238   7.930   9.662   4.964 -0.0188  0.0893  0.8962
  198MOL0     C27239   6.786   9.812   4.536  0.1124  0.3115  0.0226
  198MOL0     C27240   6.671   9.766   4.482  0.6650  0.2432 -0.3488
  198MOL0     C27241   6.391   9.420   4.322  0.2737  0.3619 -0.1606
  198MOL0     C27242   6.271   9.451   4.384  0.8788 -0.3160 -0.0412
  198MOL0     C27243   6.148   9.423   4.338 -0.4718 -0.3783  0.3737
  198MOL0     C27244   6.136   9.354   4.211  0.1784 -0.2432  0.1080
  198MOL0     O27245   6.020   9.311   4.150  0.2737 -0.0768 -0.4015
  198MOL0     C27246   5.895   9.351   4.217 -0.6436  0.0607  0.1685
  198MOL0     C27247   5.796   9.250   4.161 -0.4887  0.7563 -0.0977
  198MOL0     C27248   5.770   9.249   4.008 -1.0979  0.1384  0.6149
  198MOL0     C27249   5.671   9.134   3.990 -0.0711  0.2909 -0.6441
  198MOL0     C27250   5.738   9.000   3.992  0.0950 -0.2946 -0.1260
  198MOL0     C27251   5.800   8.905   3.999 -1.4599  0.4743 -0.4057
  198MOL0     C27252   6.254   9.311   4.150  1.3292 -0.4463 -0.1808
  198MOL0     C27253   6.378   9.339   4.205 -0.1434 -0.2430 -0.0113
  198MOL0     C27254   6.488   9.290   4.111 -0.1581 -0.7774  0.3163
  198MOL0     H27255   6.675   9.444   4.607 -0.5727 -0.4823 -1.7221
  198MOL0     H27256   6.878   9.534   4.717  0.5544 -2.4867 -1.4355
  198MOL0     H27257   7.095   9.837   4.538 -1.6744 -0.0469 -0.0045
  198MOL0     H27258   7.102   9.662   4.567 -0.0409 -0.7319  0.1257
  198MOL0     H27259   7.174   9.852   4.792 -3.3096  2.8340 -3.0406
  198MOL0     H27260   7.211   9.692   4.773  1.9037 -0.8850 -0.3985
  198MOL0     H27261   7.371   9.738   4.563  1.0448  1.0382  0.7197
  198MOL0     H27262   7.329   9.908   4.596  1.4995  0.5123 -0.4332
  198MOL0     H27263   7.443   9.909   4.792  0.4622 -1.7299  3.1166
  198MOL0     H27264   7.439   9.738   4.821  0.1845 -1.4452 -1.1745
  198MOL0     H27265   7.597   9.867   4.596  1.1440 -0.9992 -0.9279
  198MOL0     H27266   7.603   9.693   4.642 -0.9201 -0.0090  1.9830
  198MOL0     H27267   7.667   9.918   4.834  0.3496  0.2082  1.6940
  198MOL0     H27268   7.699   9.749   4.857 -2.8098  2.4488  1.1656
  198MOL0     H27269   7.828   9.943   4.658 -1.9334  0.0928 -1.1179
  198MOL0     H27270   7.840   9.774   4.647 -2.0776  1.0285 -2.1185
  198MOL0     H27271   8.047   9.879   4.764  1.6154 -3.1333  1.0244
  198MOL0     H27272   7.939   9.903   4.899  1.6433  1.3200 -1.1602
  198MOL0     H27273   8.085   9.606   4.680 -0.6664 -2.6897 -0.1336
  198MOL0     H27274   8.100   9.338   4.767 -0.3102  2.2901 -1.2119
  198MOL0     H27275   8.130   9.326   4.941  0.7147 -1.7007 -0.2441
  198MOL0     H27276   8.287   9.468   4.717 -0.3114 -3.8760 -2.0073
  198MOL0     H27277   8.316   9.506   4.887  0.6891 -0.3378  1.8993
  198MOL0     H27278   8.409   9.290   4.931  0.8052  0.5528  0.9442
  198MOL0     H27279   8.340   9.219   4.778 -1.1543  0.7719 -0.0726
  198MOL0     H27280   8.583   9.274   4.765 -0.4193 -0.6197 -0.3342
  198MOL0     H27281   8.488   9.387   4.653  3.4860  3.2903 -0.4535
  198MOL0     H27282   8.696   9.242   4.945 -0.2773  0.6479 -1.6918
  198MOL0     H27283   8.976   9.226   5.102  0.3868  4.2050  0.7890
  198MOL0     H27284   8.813   9.132   5.120  3.2322 -0.8799 -0.6184
  198MOL0     H27285   8.881   9.212   5.247 -2.2363 -1.2552 -0.5614
  198MOL0     H27286   8.881   9.639   5.594 -0.0442 -0.4236 -0.5266
  198MOL0     H27287   9.060   9.704   5.755 -1.3183  3.4835 -0.2143
  198MOL0     H27288   9.226   9.926   5.789  0.3085  0.4521 -2.9626
  198MOL0     H27289   9.221   9.760   5.853  1.1759 -1.1457 -1.0260
  198MOL0     H27290   9.460   9.941   5.821 -2.6010  1.5631  0.6451
  198MOL0     H27291   9.371   9.921   5.969 -0.9009 -1.2287  0.5067
  198MOL0     H27292   9.535   9.722   5.803 -0.5319  0.1469 -1.3262
  198MOL0     H27293   9.450   9.666   5.960  0.8433  2.8383  4.4969
  198MOL0     H27294   9.585   9.802   6.100 -0.5347  1.4257  0.8930
  198MOL0     H27295   9.680   9.846   5.952  0.2795 -1.4260 -1.9179
  198MOL0     H27296   9.645   9.553   6.041 -1.2609  0.1732 -0.6550
  198MOL0     H27297   9.760   9.637   5.922 -0.4616 -2.8423 -0.0817
  198MOL0     H27298   9.767   9.688   6.222  0.3100  0.8995 -0.4898
  198MOL0     H27299   9.872   9.750   6.095 -3.8158  3.8879  1.8800
  198MOL0     H27300   9.939   9.521   6.031  0.1538  0.3003 -0.6267
  198MOL0     H27301   9.818   9.465   6.158  0.0141  3.0581  3.3820
  198MOL0     H27302  10.071   9.438   6.221  0.6046  1.3715 -2.8022
  198MOL0     H27303   9.972   9.519   6.341  0.5384  0.4205  1.2181
  198MOL0     H27304   9.319   9.763   5.406 -1.1038 -1.1832 -1.8333
  198MOL0     H27305   9.154   9.692   5.269  4.1364 -1.0605  0.7217
  198MOL0     H27306   8.756   9.678   5.157  0.8145  0.1435  1.6946
  198MOL0     H27307   8.604   9.650   4.958 -1.4034 -0.5017 -0.5782
  198MOL0     H27308   6.814   9.915   4.518 -2.9046  1.7815  2.6807
  198MOL0     H27309   6.614   9.834   4.419  0.4357 -1.3033 -1.9115
  198MOL0     H27310   6.281   9.512   4.473 -0.4566  0.6592 -0.5200
  198MOL0     H27311   6.064   9.454   4.399  0.1206  0.2934  0.8751
  198MOL0     H27312   5.904   9.342   4.326 -0.2520  1.0849  0.2296
  198MOL0     H27313   5.860   9.453   4.199  0.7082  0.6005  0.4851
  198MOL0     H27314   5.701   9.277   4.209 -0.0929  0.4506  0.8806
  198MOL0     H27315   5.827   9.152   4.201  1.5423  0.6944 -1.6749
  198MOL0     H27316   5.730   9.345   3.974  0.3425 -0.1534 -2.1278
  198MOL0     H27317   5.864   9.239   3.952 -1.7144 -0.1720 -0.3841
  198MOL0     H27318   5.621   9.148   3.894 -0.5537 -0.7334 -0.5480
  198MOL0     H27319   5.595   9.132   4.069 -2.8475 -2.0654 -3.1183
  198MOL0     H27320   5.870   8.824   4.010 -0.6895  1.2413  0.5478
  198MOL0     H27321   6.249   9.254   4.058  1.5515  0.9425 -1.0846
  198MOL0     H27322   6.452   9.222   4.034 -2.0028  1.8380 -1.2632
  198MOL0     H27323   6.513   9.373   4.045 -2.5655 -1.0658 -1.0784
  198MOL0     H27324   6.578   9.251   4.162  1.7098  1.7119 -0.8615
  199MOL0     O27325   6.463   7.804  11.404 -0.6655  0.1132  0.0836
  199MOL0     C27326   6.384   7.789  11.502  0.1953 -1.3897  0.7097
  199MOL0     O27327   6.421   7.821  11.626 -0.0369  0.1570 -0.9673
  199MOL0     C27328   6.558   7.846  11.659  0.1012  0.4591 -0.8585
  199MOL0     C27329   6.606   7.983  11.655  0.7204 -0.7481 -0.1223
  199MOL0     C27330   6.719   8.015  11.714  0.0656  0.2025  1.1645
  199MOL0     C27331   6.800   7.916  11.772  0.5148 -0.1203  0.2160
  199MOL0     O27332   6.928   7.951  11.800 -0.1077  0.4535 -0.3359
  199MOL0     C27333   6.997   8.008  11.683 -1.2786  0.5698  0.0937
  199MOL0     C27334   7.148   8.010  11.707 -0.2122 -0.5764  0.3950
  199MOL0     C27335   7.198   8.123  11.798  0.4174  0.7923  0.9338
  199MOL0     C27336   7.353   8.087  11.811  0.7160 -0.5984 -0.7573
  199MOL0     C27337   7.420   8.201  11.891 -0.0504 -0.3486 -0.3110
  199MOL0     C27338   7.545   8.153  11.963 -1.2687 -0.0780 -0.6698
  199MOL0     C27339   7.614   8.271  12.027 -0.6516  0.3584 -0.1291
  199MOL0     C27340   7.737   8.312  11.938 -0.1144 -0.4166 -0.3543
  199MOL0     N27341   7.860   8.236  11.952  0.5148 -0.1601  0.6093
  199MOL0     C27342   7.924   8.214  12.071  0.4437  0.6948 -0.0561
  199MOL0     C27343   8.036   8.146  12.035  0.0417 -1.1651 -0.2995
  199MOL0     C27344   8.123   8.091  12.141 -0.0125 -0.4303 -0.0044
  199MOL0     C27345   8.236   8.181  12.183 -0.1162 -0.4852  0.1772
  199MOL0     C27346   8.344   8.093  12.257 -0.4540 -0.3424 -0.7520
  199MOL0     C27347   8.461   8.183  12.304  0.2169  0.6175 -0.2992
  199MOL0     O27348   8.524   8.268  12.208 -0.1052 -0.3116 -0.6537
  199MOL0     C27349   8.636   8.236  12.143 -0.5167 -0.0100  0.0906
  199MOL0     C27350   8.716   8.330  12.079  0.0891  0.3506  0.4367
  199MOL0     C27351   8.829   8.305  11.994  0.5547  0.4496 -0.4822
  199MOL0     C27352   8.885   8.437  11.946 -0.1819 -0.0395 -0.8732
  199MOL0     C27353   8.863   8.171  11.965 -0.7028 -0.2984 -0.3322
  199MOL0     C27354   8.973   8.131  11.869  0.2115  0.0900 -0.0411
  199MOL0     O27355   8.979   7.999  11.831  0.1161 -0.7481 -0.5248
  199MOL0     C27356   9.086   7.944  11.765  0.1798 -0.0346 -0.3164
  199MOL0     C27357   9.217   7.992  11.736  0.5728  0.3909 -0.3280
  199MOL0     C27358   9.300   7.902  11.656 -0.7795 -0.2639  0.0475
  199MOL0     C27359   9.261   7.776  11.613 -0.4598  0.6172  0.1468
  199MOL0     O27360   9.348   7.685  11.552 -1.1870  0.3316  0.3064
  199MOL0     C27361   9.488   7.699  11.551 -0.0383  0.5140  0.3306
  199MOL0     C27362   9.547   7.583  11.469 -0.2475 -0.5309  0.3630
  199MOL0     C27363   9.698   7.564  11.495 -0.7924 -0.8572  0.8914
  199MOL0     C27364   9.765   7.469  11.382 -0.2565  1.5219 -0.5064
  199MOL0     C27365   9.899   7.422  11.436 -0.2772 -0.5625 -0.4366
  199MOL0     C27366   9.896   7.329  11.555 -0.5246  0.0910 -0.5182
  199MOL0     C27367  10.028   7.269  11.594 -0.0606  0.5988  0.5253
  199MOL0     C27368  10.017   7.185  11.728  1.2997 -0.3146 -0.9089
  199MOL0    Cl27369   9.948   7.013  11.690 -0.4581 -0.3627  0.1402
  199MOL0     C27370   9.130   7.737  11.645 -0.7452 -0.7018 -0.4506
  199MOL0     C27371   9.048   7.820  11.716 -0.3966  0.8302 -0.0240
  199MOL0     O27372   9.057   8.217  11.845  0.0052  0.0450 -0.1107
  199MOL0     C27373   8.786   8.074  12.032  1.0262  0.4507 -0.2150
  199MOL0     C27374   8.675   8.100  12.116 -0.0892 -0.2660 -0.3638
  199MOL0     N27375   8.033   8.112  11.899 -0.5444  0.5831  0.1113
  199MOL0     N27376   7.924   8.168  11.853  0.3530 -0.5980 -0.2072
  199MOL0     C27377   6.759   7.787  11.772  0.4014 -0.0971 -0.0339
  199MOL0     C27378   6.641   7.746  11.707 -0.3120  0.0637  0.8232
  199MOL0     C27379   6.250   7.742  11.483  0.1485 -0.2998 -0.5490
  199MOL0     C27380   6.170   7.712  11.594  0.2688 -0.8394  1.2466
  199MOL0     C27381   6.032   7.686  11.571 -0.5609 -0.7955 -0.0787
  199MOL0     C27382   5.971   7.683  11.448 -0.0254  0.5808 -0.6675
  199MOL0     O27383   5.833   7.665  11.454 -0.0067 -0.0429  0.4839
  199MOL0     C27384   5.766   7.627  11.333 -0.0357  0.4664 -1.9643
  199MOL0     C27385   5.612   7.631  11.351 -0.8046  0.2236 -0.2520
  199MOL0     C27386   5.555   7.589  11.215  0.6328 -0.7779 -0.3822
  199MOL0     C27387   5.402   7.559  11.228 -0.7979 -0.3029 -0.0055
  199MOL0     C27388   5.326   7.628  11.120  0.9218  0.5000  0.3914
  199MOL0     C27389   5.263   7.673  11.022  0.2969 -0.0786 -0.3845
  199MOL0     C27390   6.056   7.712  11.340 -0.0663 -0.2733 -0.2432
  199MOL0     C27391   6.190   7.736  11.352  0.8965 -0.2179 -1.4572
  199MOL0     C27392   6.261   7.764  11.227 -0.1537 -0.1771  0.4612
  199MOL0     H27393   6.541   8.054  11.608  0.0031 -0.3435  1.4106
  199MOL0     H27394   6.758   8.116  11.708  1.3976 -0.2110  2.2342
  199MOL0     H27395   6.971   8.111  11.659  3.2371  1.8285 -0.2126
  199MOL0     H27396   6.983   7.938  11.600  2.3675  0.7909 -0.8657
  199MOL0     H27397   7.179   7.917  11.754 -1.2583 -1.5091 -0.6740
  199MOL0     H27398   7.196   8.025  11.610 -0.2313 -0.4161  0.4092
  199MOL0     H27399   7.191   8.220  11.748 -2.7458  0.0859 -0.2376
  199MOL0     H27400   7.142   8.127  11.892 -1.7189  0.4477 -0.2688
  199MOL0     H27401   7.364   7.988  11.857 -2.1009  0.0026  1.4819
  199MOL0     H27402   7.401   8.095  11.713  0.7734  0.4989 -0.6451
  199MOL0     H27403   7.359   8.221  11.980  0.7482  0.6410  0.0265
  199MOL0     H27404   7.427   8.292  11.832 -1.5881 -0.9254 -1.4307
  199MOL0     H27405   7.520   8.072  12.032 -2.9620  2.0404  1.3721
  199MOL0     H27406   7.606   8.118  11.879 -1.4075 -0.4393 -0.6213
  199MOL0     H27407   7.658   8.247  12.124  0.0884  0.7897 -0.3506
  199MOL0     H27408   7.546   8.353  12.053 -0.3253 -0.0761  2.2654
  199MOL0     H27409   7.708   8.311  11.832  1.0011 -2.4138 -0.7012
  199MOL0     H27410   7.760   8.416  11.962 -1.4522 -0.0222 -0.7251
  199MOL0     H27411   7.900   8.244  12.173  1.5759 -0.4844  0.5838
  199MOL0     H27412   8.166   8.002  12.094 -0.6932 -0.5986 -0.3266
  199MOL0     H27413   8.059   8.058  12.223 -1.9156  1.3201 -0.6713
  199MOL0     H27414   8.283   8.228  12.096 -1.4221 -1.1962 -0.9477
  199MOL0     H27415   8.204   8.262  12.251 -1.1045 -0.9389  0.2736
  199MOL0     H27416   8.303   8.035  12.340 -2.5958  0.5205 -1.1413
  199MOL0     H27417   8.386   8.030  12.178  1.4552  2.2381 -1.9574
  199MOL0     H27418   8.436   8.252  12.385 -0.9478  0.5119 -0.5620
  199MOL0     H27419   8.529   8.110  12.350 -2.4198 -1.3790  0.6403
  199MOL0     H27420   8.682   8.433  12.089 -0.2443  0.2465  0.3770
  199MOL0     H27421   8.809   8.493  11.890 -0.4372  0.2682 -0.2219
  199MOL0     H27422   8.976   8.441  11.886 -0.0413  2.0920 -0.5677
  199MOL0     H27423   8.909   8.506  12.027  6.0057  0.0847 -2.3107
  199MOL0     H27424   9.260   8.088  11.761  2.7155 -0.5685 -0.0704
  199MOL0     H27425   9.397   7.946  11.633 -1.2026  0.7005  0.0801
  199MOL0     H27426   9.507   7.790  11.493  0.1073 -0.4472 -1.1573
  199MOL0     H27427   9.525   7.692  11.654 -1.2873 -0.4569  0.7485
  199MOL0     H27428   9.496   7.495  11.510 -0.0645 -0.7472  0.1313
  199MOL0     H27429   9.525   7.602  11.364 -0.3426  4.7550  1.0461
  199MOL0     H27430   9.702   7.526  11.598 -2.4458 -2.1697  0.5288
  199MOL0     H27431   9.749   7.661  11.493 -1.7844 -0.3264  0.9178
  199MOL0     H27432   9.766   7.508  11.280 -2.1330 -1.0748 -1.6025
  199MOL0     H27433   9.700   7.382  11.386  0.4535  1.0200  1.7610
  199MOL0     H27434   9.955   7.370  11.359  4.2311  2.4375  0.4815
  199MOL0     H27435   9.961   7.508  11.462 -2.8019  1.1300  0.3686
  199MOL0     H27436   9.832   7.244  11.532  3.6421 -3.0866 -1.5557
  199MOL0     H27437   9.878   7.389  11.645  0.1889 -0.0263 -0.2918
  199MOL0     H27438  10.099   7.351  11.603  0.6265  0.0561  0.2164
  199MOL0     H27439  10.066   7.203  11.514  5.1344  1.2957  2.0164
  199MOL0     H27440   9.954   7.238  11.801  0.4195 -1.0145 -1.1529
  199MOL0     H27441  10.119   7.170  11.765  1.6203 -0.4524 -1.8131
  199MOL0     H27442   9.091   7.647  11.599  0.6886 -1.1388 -0.8685
  199MOL0     H27443   8.942   7.797  11.730 -0.5329  1.7810  0.5487
  199MOL0     H27444   8.810   7.968  12.026 -1.0943 -0.0610 -0.5589
  199MOL0     H27445   8.622   8.014  12.156 -3.6283  2.9965  2.8356
  199MOL0     H27446   6.830   7.709  11.799 -0.9880 -1.4116 -0.0248
  199MOL0     H27447   6.609   7.642  11.708 -1.1974  0.2881 -1.0074
  199MOL0     H27448   6.218   7.722  11.690  0.4442  0.1854  1.0697
  199MOL0     H27449   5.976   7.672  11.663 -0.8736  0.4812 -0.0595
  199MOL0     H27450   5.788   7.705  11.259 -0.5048  1.6675 -0.8704
  199MOL0     H27451   5.799   7.526  11.308  2.2722 -0.6118  3.9605
  199MOL0     H27452   5.578   7.730  11.382 -0.5666  0.5911 -1.1304
  199MOL0     H27453   5.584   7.550  11.419 -0.4927 -1.0505 -1.5822
  199MOL0     H27454   5.567   7.679  11.154 -3.2481  0.5055  0.4308
  199MOL0     H27455   5.609   7.512  11.160  1.4170 -2.0686  2.0384
  199MOL0     H27456   5.367   7.581  11.329  0.5265  3.5923 -0.2217
  199MOL0     H27457   5.397   7.450  11.218  2.6037 -0.4224 -1.9097
  199MOL0     H27458   5.216   7.723  10.939  1.1923  0.1339 -0.7763
  199MOL0     H27459   6.013   7.717  11.240  0.5986  2.5713 -0.4616
  199MOL0     H27460   6.302   7.865  11.237  3.9349 -1.4131 -1.3116
  199MOL0     H27461   6.340   7.691  11.207 -1.0129 -0.6532 -1.5001
  199MOL0     H27462   6.193   7.748  11.143  2.2297 -1.4473 -1.3717
  200MOL0     O27463   2.406   6.137   8.384  1.1506  0.5212  0.1999
  200MOL0     C27464   2.304   6.096   8.330  0.5898 -1.0042 -0.1503
  200MOL0     O27465   2.301   5.994   8.243 -0.5396  0.4955 -0.2618
  200MOL0     C27466   2.405   5.904   8.252 -0.7763 -1.0262  0.3110
  200MOL0     C27467   2.538   5.927   8.206 -0.2342 -0.0081 -0.4626
  200MOL0     C27468   2.633   5.828   8.191  0.1536  0.5079 -1.0330
  200MOL0     C27469   2.611   5.702   8.244  0.7181  0.5347 -0.8709
  200MOL0     O27470   2.717   5.616   8.228 -0.9742  0.0677 -0.4829
  200MOL0     C27471   2.703   5.477   8.241 -0.6184  0.3970 -0.1785
  200MOL0     C27472   2.823   5.421   8.323  0.8032  0.7932  0.3283
  200MOL0     C27473   2.961   5.443   8.260 -0.1918  0.1103 -0.8923
  200MOL0     C27474   2.988   5.420   8.114  0.4769  0.7912 -0.3822
  200MOL0     C27475   2.982   5.277   8.054 -0.6093  0.3118 -0.0141
  200MOL0     C27476   3.096   5.187   8.107  0.4231 -0.5882  0.5503
  200MOL0     C27477   3.093   5.050   8.045 -1.0689 -0.1702 -0.3637
  200MOL0     C27478   2.994   4.946   8.109 -0.2280 -0.2958 -0.1167
  200MOL0     N27479   2.848   4.960   8.082 -0.2838  0.0324  0.2193
  200MOL0     C27480   2.744   4.963   8.172  0.5050 -0.2843  0.0380
  200MOL0     C27481   2.633   4.933   8.098 -0.1624 -1.0074 -0.2924
  200MOL0     C27482   2.496   4.907   8.141  0.4793  0.8805 -0.0385
  200MOL0     C27483   2.432   4.790   8.074 -0.0448 -0.3231 -0.5106
  200MOL0     C27484   2.324   4.717   8.156 -0.1192 -0.0191 -0.0445
  200MOL0     C27485   2.197   4.811   8.154 -0.1317  0.4633 -0.7483
  200MOL0     O27486   2.105   4.757   8.253 -1.0874 -0.0816  0.2582
  200MOL0     C27487   1.995   4.825   8.291 -0.6921 -0.4023 -1.4162
  200MOL0     C27488   1.912   4.761   8.383  0.1210 -0.6005  0.7965
  200MOL0     C27489   1.805   4.821   8.443  0.2651  0.6728  0.3149
  200MOL0     C27490   1.741   4.746   8.558  0.0807 -0.4675 -1.2504
  200MOL0     C27491   1.770   4.949   8.402 -0.8258 -0.0390  0.8759
  200MOL0     C27492   1.655   5.027   8.457  0.3664 -0.3855 -0.6666
  200MOL0     O27493   1.535   4.981   8.425  0.8369  0.1822 -0.0541
  200MOL0     C27494   1.427   5.020   8.502  0.2130  0.3165  0.6357
  200MOL0     C27495   1.429   5.010   8.642  0.8306 -0.5596 -0.3588
  200MOL0     C27496   1.325   5.052   8.711 -1.2225  0.1601  0.0044
  200MOL0     C27497   1.213   5.107   8.649 -0.2666  0.8062 -0.5522
  200MOL0     O27498   1.106   5.150   8.734 -0.4493  0.1784  0.0319
  200MOL0     C27499   0.989   5.183   8.659  0.0770 -0.0280  0.8159
  200MOL0     C27500   0.866   5.190   8.748  0.5524  0.0554  0.0111
  200MOL0     C27501   0.736   5.193   8.663 -0.4773 -0.2261  0.4404
  200MOL0     C27502   0.721   5.316   8.575  0.7374 -0.1789 -0.2008
  200MOL0     C27503   0.576   5.375   8.585 -0.0928 -0.2462  0.0125
  200MOL0     C27504   0.580   5.499   8.498  0.3441  0.3097 -0.6447
  200MOL0     C27505   0.441   5.563   8.497  0.7569 -0.2776 -0.4658
  200MOL0     C27506   0.430   5.674   8.391  0.2840 -0.2400  0.6381
  200MOL0    Cl27507   0.261   5.734   8.401 -0.1260 -0.2313  0.4860
  200MOL0     C27508   1.209   5.116   8.506 -0.3779  0.3555  0.4430
  200MOL0     C27509   1.318   5.070   8.438 -0.0846 -0.5827 -0.5008
  200MOL0     O27510   1.678   5.127   8.517  0.5549  0.7686 -0.7184
  200MOL0     C27511   1.855   5.014   8.309  0.0724 -0.1299  0.2206
  200MOL0     C27512   1.972   4.958   8.257 -0.3431  0.3107  0.3673
  200MOL0     N27513   2.674   4.941   7.961  0.2499  0.4762 -1.2586
  200MOL0     N27514   2.805   4.943   7.959  0.0238  0.0311 -0.0356
  200MOL0     C27515   2.476   5.674   8.302  0.4618 -0.4517 -0.1303
  200MOL0     C27516   2.381   5.778   8.309  0.1464 -0.4097  0.4425
  200MOL0     C27517   2.182   6.183   8.344  0.6555  0.6142  0.9966
  200MOL0     C27518   2.075   6.171   8.244  0.0551  0.6130  0.0367
  200MOL0     C27519   1.957   6.247   8.250 -0.0873  0.3998  0.1320
  200MOL0     C27520   1.936   6.340   8.362 -0.2295 -0.0331  0.0152
  200MOL0     O27521   1.830   6.428   8.372  0.3882  0.8192 -0.1507
  200MOL0     C27522   1.707   6.391   8.308 -0.3373  0.5849  0.3777
  200MOL0     C27523   1.592   6.482   8.342 -0.4715 -1.0281  1.0287
  200MOL0     C27524   1.575   6.507   8.498 -0.3132  0.1262  0.1883
  200MOL0     C27525   1.475   6.623   8.527 -0.0588  0.8923  0.3695
  200MOL0     C27526   1.350   6.612   8.455  0.3602  0.5929 -0.5337
  200MOL0     C27527   1.259   6.599   8.377 -0.0843 -0.4416 -0.4629
  200MOL0     C27528   2.035   6.345   8.459 -0.3695  1.1570 -0.0579
  200MOL0     C27529   2.158   6.278   8.451 -0.0687  0.4886 -0.3361
  200MOL0     C27530   2.246   6.286   8.569 -0.7404 -0.4213 -0.3057
  200MOL0     H27531   2.556   6.030   8.177 -1.6989  0.2429 -0.5663
  200MOL0     H27532   2.722   5.847   8.132  1.5003 -1.5784  0.1842
  200MOL0     H27533   2.701   5.427   8.143  0.3854 -3.6321  1.6317
  200MOL0     H27534   2.615   5.439   8.292 -1.8636  1.5329 -1.3958
  200MOL0     H27535   2.831   5.473   8.418  1.9020  1.4303 -0.0892
  200MOL0     H27536   2.799   5.316   8.345  4.3106 -0.9718 -2.9185
  200MOL0     H27537   2.972   5.551   8.274 -2.0997  0.0690  1.5920
  200MOL0     H27538   3.023   5.384   8.328 -1.8986  1.5545  2.1238
  200MOL0     H27539   2.922   5.491   8.062  1.1609  1.6012 -0.1740
  200MOL0     H27540   3.087   5.462   8.092  0.4295  0.6567 -0.8494
  200MOL0     H27541   2.991   5.297   7.947  2.1252  0.4708  0.1958
  200MOL0     H27542   2.888   5.221   8.065 -0.9986 -1.0024 -6.2854
  200MOL0     H27543   3.194   5.233   8.095 -0.3406  1.2072  0.9540
  200MOL0     H27544   3.066   5.183   8.213 -3.3417  1.8270 -0.2122
  200MOL0     H27545   3.186   4.996   8.062 -1.1088 -0.7105 -1.7024
  200MOL0     H27546   3.082   5.055   7.936  2.6483  0.5315 -0.8309
  200MOL0     H27547   3.005   4.845   8.069 -1.8029 -0.2400 -0.7699
  200MOL0     H27548   3.006   4.933   8.217 -1.4201 -2.7306 -0.1970
  200MOL0     H27549   2.760   4.943   8.278 -0.6749 -1.1807  0.0700
  200MOL0     H27550   2.435   4.996   8.123  0.5598  0.9637  0.1019
  200MOL0     H27551   2.499   4.890   8.249  1.0440 -1.1784 -0.3425
  200MOL0     H27552   2.387   4.816   7.978  3.3545  1.1773 -1.8323
  200MOL0     H27553   2.507   4.716   8.043 -1.3444 -0.2249 -4.3815
  200MOL0     H27554   2.289   4.617   8.131 -1.3081  0.2837  0.3467
  200MOL0     H27555   2.362   4.704   8.258  2.0907 -3.3034 -1.1328
  200MOL0     H27556   2.228   4.913   8.179  0.6834  0.0591 -0.0516
  200MOL0     H27557   2.151   4.819   8.055 -1.3199  0.1955 -0.2355
  200MOL0     H27558   1.943   4.658   8.398 -0.3968 -0.8001  0.5008
  200MOL0     H27559   1.646   4.790   8.589  0.4967 -0.7906  0.5999
  200MOL0     H27560   1.803   4.748   8.648 -0.0369 -0.4925 -1.1690
  200MOL0     H27561   1.734   4.641   8.530  1.8679 -0.5873 -1.3622
  200MOL0     H27562   1.525   4.973   8.679 -0.2959 -1.2923  2.0766
  200MOL0     H27563   1.330   5.058   8.820 -0.5518  4.3404 -0.0880
  200MOL0     H27564   1.010   5.264   8.589  1.8212 -3.1627 -2.6614
  200MOL0     H27565   0.960   5.097   8.597  0.0618  0.4663  0.1365
  200MOL0     H27566   0.867   5.107   8.819 -0.9767  0.1735  0.2044
  200MOL0     H27567   0.874   5.278   8.812 -0.3857 -1.7276  2.7483
  200MOL0     H27568   0.655   5.193   8.737 -0.2398  2.8133  0.8530
  200MOL0     H27569   0.717   5.101   8.608  0.4681 -1.3027  1.8505
  200MOL0     H27570   0.745   5.292   8.471  3.9719  2.2106 -0.1433
  200MOL0     H27571   0.780   5.400   8.612  1.3480 -1.2786  1.4138
  200MOL0     H27572   0.505   5.305   8.541  0.8424 -0.3379 -1.4186
  200MOL0     H27573   0.551   5.403   8.688 -0.3376  0.2827 -0.1873
  200MOL0     H27574   0.611   5.480   8.395 -0.2140 -1.2770 -0.5440
  200MOL0     H27575   0.654   5.572   8.535  0.8522  1.2956 -3.3788
  200MOL0     H27576   0.414   5.626   8.582  0.1505 -1.3861  0.1781
  200MOL0     H27577   0.366   5.492   8.462  2.1646 -0.5921 -3.0834
  200MOL0     H27578   0.451   5.630   8.293  2.8329  0.5089  0.7740
  200MOL0     H27579   0.494   5.759   8.416 -3.1614  3.0627 -0.7322
  200MOL0     H27580   1.129   5.162   8.448 -0.7313  2.4403  2.4288
  200MOL0     H27581   1.328   5.084   8.331 -0.4450  1.0227 -0.3369
  200MOL0     H27582   1.829   5.115   8.277 -3.8742 -1.2574 -0.7735
  200MOL0     H27583   2.030   5.008   8.180  1.8629  0.3052  1.9277
  200MOL0     H27584   2.448   5.576   8.339 -0.3255 -1.0206 -2.0934
  200MOL0     H27585   2.284   5.753   8.352  1.5833 -2.4417  2.7452
  200MOL0     H27586   2.081   6.087   8.175 -0.6023 -0.3127  1.0649
  200MOL0     H27587   1.885   6.247   8.169  0.3454  0.7130 -0.2513
  200MOL0     H27588   1.717   6.383   8.199  1.7702 -0.7414  0.6068
  200MOL0     H27589   1.684   6.290   8.343  1.7518 -0.4730 -1.0760
  200MOL0     H27590   1.496   6.450   8.300 -0.5237  1.0304 -0.6014
  200MOL0     H27591   1.610   6.582   8.300  1.8607 -1.4942  0.8000
  200MOL0     H27592   1.545   6.407   8.530  2.0714 -1.2298 -1.4987
  200MOL0     H27593   1.669   6.541   8.543  0.6286  2.0520 -2.9137
  200MOL0     H27594   1.525   6.713   8.491  0.4371  0.5664  0.2327
  200MOL0     H27595   1.457   6.635   8.634  1.5484  0.7811  0.6784
  200MOL0     H27596   1.179   6.571   8.312 -0.3805  1.6611 -1.0716
  200MOL0     H27597   2.016   6.406   8.547 -1.0567 -0.2043  0.7766
  200MOL0     H27598   2.355   6.290   8.557 -0.8116 -0.2471 -0.9314
  200MOL0     H27599   2.209   6.362   8.637 -1.6400 -0.3047 -0.9057
  200MOL0     H27600   2.245   6.191   8.624  6.8996 -0.5241  0.7597
  201MOL0     O27601   1.831   9.025   8.474 -0.2474 -0.3153  0.2051
  201MOL0     C27602   1.744   9.052   8.389 -0.1735 -0.0389 -0.1676
  201MOL0     O27603   1.636   9.134   8.409 -0.2696  0.1883 -0.5881
  201MOL0     C27604   1.626   9.210   8.531  0.2530  0.7082 -0.6402
  201MOL0     C27605   1.519   9.185   8.623  0.5742  0.6005  0.0347
  201MOL0     C27606   1.509   9.257   8.746  0.9074  0.0819  0.4624
  201MOL0     C27607   1.614   9.349   8.771  0.4051  0.4643 -0.1750
  201MOL0     O27608   1.628   9.437   8.880 -0.4299 -0.4572 -0.3061
  201MOL0     C27609   1.537   9.453   8.986  0.3354  1.0912  0.0252
  201MOL0     C27610   1.579   9.566   9.087  0.4011 -0.0004  0.3068
  201MOL0     C27611   1.544   9.713   9.049 -0.8794 -0.5774  0.4630
  201MOL0     C27612   1.391   9.742   9.039  0.0219  0.5560 -0.1699
  201MOL0     C27613   1.373   9.896   9.003  0.7707  0.0756 -0.1486
  201MOL0     C27614   1.229   9.935   9.000  0.1184 -0.2057 -1.2960
  201MOL0     C27615   1.196  10.081   8.946  0.6537 -0.7947  0.4542
  201MOL0     C27616   1.045  10.096   8.953  0.0734  0.0468  0.5482
  201MOL0     N27617   1.003  10.229   8.899  0.5394 -0.1808  0.2043
  201MOL0     C27618   1.034  10.353   8.956 -0.3525 -0.2433  0.6064
  201MOL0     C27619   1.015  10.449   8.864  0.5930 -0.3961  0.6155
  201MOL0     C27620   1.033  10.602   8.879 -0.3282 -0.1095  0.4757
  201MOL0     C27621   1.183  10.649   8.869  0.8782 -0.2335 -0.4487
  201MOL0     C27622   1.262  10.589   8.985 -0.8219  1.3682  0.0404
  201MOL0     C27623   1.400  10.660   8.996  0.0092  0.1054 -0.0380
  201MOL0     O27624   1.479  10.630   8.881 -0.7283 -0.0696  0.2862
  201MOL0     C27625   1.608  10.678   8.862  0.8129 -0.8852 -0.9934
  201MOL0     C27626   1.661  10.646   8.736 -0.0407  0.4384 -0.1504
  201MOL0     C27627   1.796  10.665   8.721 -0.0335 -0.0091  0.3947
  201MOL0     C27628   1.857  10.600   8.598 -0.2699 -0.0182 -0.2873
  201MOL0     C27629   1.875  10.736   8.816  0.2688  0.5336 -0.3049
  201MOL0     C27630   2.019  10.776   8.812 -0.3800  0.3195 -0.5352
  201MOL0     O27631   2.074  10.879   8.885  0.6046  0.6658  0.0872
  201MOL0     C27632   2.207  10.905   8.852  0.4292  0.4214  0.4880
  201MOL0     C27633   2.309  10.811   8.878 -0.2567  0.4703 -0.2641
  201MOL0     C27634   2.446  10.833   8.842  0.4024 -0.5658  0.4022
  201MOL0     C27635   2.482  10.952   8.786  0.3904  0.3887  0.6552
  201MOL0     O27636   2.611  10.963   8.742  0.6587 -0.0714  0.0261
  201MOL0     C27637   2.640  11.027   8.619 -0.0171  0.6265  0.1921
  201MOL0     C27638   2.784  11.047   8.625 -0.6340  0.0882  0.2450
  201MOL0     C27639   2.860  11.093   8.502  0.7760  0.0094 -0.8421
  201MOL0     C27640   2.996  11.146   8.535  0.1880  0.1735 -0.2105
  201MOL0     C27641   3.072  11.192   8.404  0.2456 -0.0085  0.1965
  201MOL0     C27642   3.184  11.293   8.428  0.5810 -0.5447 -0.3554
  201MOL0     C27643   3.323  11.234   8.470  0.6402 -0.1893  0.9201
  201MOL0     C27644   3.407  11.332   8.552  0.7357  0.2132  0.7695
  201MOL0    Cl27645   3.421  11.477   8.448 -0.5611 -0.0639  0.3928
  201MOL0     C27646   2.379  11.041   8.750 -0.0796  0.3413  0.5984
  201MOL0     C27647   2.248  11.024   8.787  0.3927  0.9469 -0.3801
  201MOL0     O27648   2.085  10.709   8.736 -0.6882 -0.1440  0.4767
  201MOL0     C27649   1.810  10.786   8.932 -0.3460  0.1879  0.3140
  201MOL0     C27650   1.682  10.757   8.964  0.8840 -0.3839  0.4389
  201MOL0     N27651   0.961  10.378   8.757 -0.9172 -0.7879  0.3710
  201MOL0     N27652   0.962  10.250   8.774  0.1230  0.1742  0.3968
  201MOL0     C27653   1.717   9.375   8.679 -0.0658 -0.3304  0.4559
  201MOL0     C27654   1.727   9.308   8.558  0.3781 -0.0513  0.4676
  201MOL0     C27655   1.750   8.990   8.251 -0.5119 -0.4413  0.1300
  201MOL0     C27656   1.651   9.026   8.163 -0.2241  0.7812 -0.0742
  201MOL0     C27657   1.647   8.965   8.033  0.0454  0.4869  0.0177
  201MOL0     C27658   1.729   8.855   7.993 -1.0407 -0.3143  0.3546
  201MOL0     O27659   1.741   8.796   7.871  0.1819 -0.0804  0.4344
  201MOL0     C27660   1.632   8.818   7.773 -0.2955  0.0114 -0.2745
  201MOL0     C27661   1.640   8.711   7.669 -0.8376 -0.3704 -0.3879
  201MOL0     C27662   1.528   8.714   7.571  0.5876  0.1692 -0.1819
  201MOL0     C27663   1.555   8.800   7.445 -0.6377  0.5585 -0.2532
  201MOL0     C27664   1.511   8.727   7.322  0.2331  0.1365  0.7293
  201MOL0     C27665   1.480   8.656   7.228  0.4971 -0.6270  0.8461
  201MOL0     C27666   1.828   8.826   8.089  0.2775  0.1977 -0.2954
  201MOL0     C27667   1.845   8.892   8.215  1.3863 -0.4679 -0.0290
  201MOL0     C27668   1.945   8.829   8.309  0.5017  0.3582 -0.1806
  201MOL0     H27669   1.442   9.111   8.606  1.8212 -0.3548 -1.8263
  201MOL0     H27670   1.426   9.232   8.812  1.2843 -1.3553  0.4291
  201MOL0     H27671   1.530   9.352   9.029 -0.7036 -0.5828 -3.6071
  201MOL0     H27672   1.441   9.478   8.940 -0.2301 -2.0958 -0.7872
  201MOL0     H27673   1.531   9.543   9.182 -0.2559  2.0075  0.4912
  201MOL0     H27674   1.685   9.567   9.116 -0.0371  0.8849  1.9413
  201MOL0     H27675   1.597   9.771   9.125 -0.7477 -1.1140  0.7869
  201MOL0     H27676   1.601   9.727   8.957 -0.7473 -0.7627  0.5155
  201MOL0     H27677   1.346   9.675   8.966  0.5623 -1.4450  1.2493
  201MOL0     H27678   1.350   9.714   9.136 -0.1240 -3.2679 -1.1883
  201MOL0     H27679   1.412   9.915   8.903  1.7287 -1.4797 -0.0963
  201MOL0     H27680   1.427   9.946   9.083 -1.5279  1.4854  0.6160
  201MOL0     H27681   1.167   9.868   8.941 -1.7800 -0.0097  0.3841
  201MOL0     H27682   1.196   9.936   9.104  1.6652 -0.3708 -0.7768
  201MOL0     H27683   1.243  10.094   8.848  2.1663  0.6901  1.3260
  201MOL0     H27684   1.240  10.150   9.017 -0.0643  0.1912 -0.0393
  201MOL0     H27685   0.995  10.020   8.891 -0.6561  0.1829  0.9677
  201MOL0     H27686   1.015  10.085   9.057  0.4124  1.7073  0.8522
  201MOL0     H27687   1.079  10.353   9.055 -1.4901 -1.7950  1.1656
  201MOL0     H27688   1.000  10.645   8.974 -1.3195 -1.0513  0.5719
  201MOL0     H27689   0.981  10.653   8.798  0.8894  3.3562  1.6599
  201MOL0     H27690   1.230  10.618   8.775  1.3765 -1.9039  0.3213
  201MOL0     H27691   1.181  10.759   8.870  1.0414 -0.1715 -2.2592
  201MOL0     H27692   1.214  10.586   9.084  1.4869 -2.1762  1.2285
  201MOL0     H27693   1.277  10.484   8.960  0.0265  1.3859  0.4426
  201MOL0     H27694   1.385  10.768   8.991  3.0520  0.7660  2.0582
  201MOL0     H27695   1.460  10.637   9.084  0.5926 -1.4445 -0.7813
  201MOL0     H27696   1.606  10.588   8.663 -1.7440  0.2432  1.2295
  201MOL0     H27697   1.930  10.661   8.544 -1.4951  0.7361 -1.1228
  201MOL0     H27698   1.786  10.574   8.518  1.5211  3.2270 -3.2158
  201MOL0     H27699   1.895  10.511   8.649  0.7198  0.6842  0.2339
  201MOL0     H27700   2.296  10.715   8.927 -0.7968  1.1549  0.9807
  201MOL0     H27701   2.516  10.752   8.854 -2.8258 -3.9990 -1.6314
  201MOL0     H27702   2.618  10.970   8.528 -2.6539  2.3927 -0.4280
  201MOL0     H27703   2.593  11.126   8.610 -0.9618  0.0410 -2.1885
  201MOL0     H27704   2.794  11.129   8.697 -2.4146 -0.9528  1.7569
  201MOL0     H27705   2.829  10.963   8.679 -0.4503 -0.3605 -0.5913
  201MOL0     H27706   2.811  11.170   8.441  0.9675 -0.1716 -1.2285
  201MOL0     H27707   2.870  11.008   8.434 -0.2859 -0.8739  0.0703
  201MOL0     H27708   3.065  11.078   8.587  0.2352  1.9133  2.1967
  201MOL0     H27709   2.981  11.226   8.608  0.5217 -1.4612  1.7804
  201MOL0     H27710   3.112  11.111   8.342  5.3671  1.8691  0.5065
  201MOL0     H27711   2.999  11.257   8.354 -1.2251 -0.0095  2.2244
  201MOL0     H27712   3.151  11.360   8.508 -1.5150 -1.6580 -0.2193
  201MOL0     H27713   3.186  11.354   8.338  0.3820  0.2781  0.1857
  201MOL0     H27714   3.374  11.200   8.379 -1.7940 -0.3368 -0.4919
  201MOL0     H27715   3.307  11.145   8.532  0.7471  0.0030  1.2250
  201MOL0     H27716   3.510  11.300   8.569  0.7382  1.3802  3.6258
  201MOL0     H27717   3.360  11.338   8.651 -4.0939 -1.4833 -1.1510
  201MOL0     H27718   2.411  11.125   8.689  2.0037  0.2309  1.4873
  201MOL0     H27719   2.158  11.078   8.757 -0.6517 -1.5447 -2.1226
  201MOL0     H27720   1.859  10.859   8.995 -0.8911  0.9047 -0.0866
  201MOL0     H27721   1.632  10.796   9.052  0.8750  0.9405 -0.1161
  201MOL0     H27722   1.776   9.465   8.694 -0.9254  0.0106  2.0049
  201MOL0     H27723   1.798   9.331   8.480 -3.2398 -0.8506 -3.4392
  201MOL0     H27724   1.583   9.105   8.194 -0.4598 -0.1169  1.8200
  201MOL0     H27725   1.586   9.010   7.955 -0.6525  2.8966  1.8317
  201MOL0     H27726   1.535   8.804   7.822 -0.3525 -0.0514 -0.4059
  201MOL0     H27727   1.638   8.921   7.736 -1.5241  1.1394  2.3467
  201MOL0     H27728   1.637   8.621   7.731 -1.3342  1.0377  1.7705
  201MOL0     H27729   1.738   8.724   7.622  0.2450 -1.6308  1.4007
  201MOL0     H27730   1.503   8.614   7.532 -3.0382  1.4314 -1.6148
  201MOL0     H27731   1.440   8.758   7.620  0.4206 -0.6919  0.3024
  201MOL0     H27732   1.663   8.819   7.444 -0.5292  0.2480  1.5308
  201MOL0     H27733   1.499   8.893   7.456 -0.7988  0.3653  0.7101
  201MOL0     H27734   1.449   8.606   7.139 -0.1180  1.0905  0.0527
  201MOL0     H27735   1.902   8.751   8.065  2.6962  2.2242  0.4695
  201MOL0     H27736   1.887   8.776   8.385 -0.8626  1.9409 -0.0529
  201MOL0     H27737   2.007   8.757   8.254 -0.6134 -0.8786  0.1391
  201MOL0     H27738   2.003   8.912   8.350 -0.0826  0.3833  0.6124
  202MOL0     O27739   9.086   3.027   0.362  0.1388  0.1141  0.3823
  202MOL0     C27740   9.045   3.095   0.268 -0.3894 -0.1301  0.5350
  202MOL0     O27741   9.113   3.111   0.149 -0.3594 -0.2539 -0.1590
  202MOL0     C27742   9.235   3.052   0.120  0.4291  0.1777  0.4352
  202MOL0     C27743   9.324   2.992   0.215  0.1911  0.2029 -0.9121
  202MOL0     C27744   9.451   2.948   0.177  0.7894  1.2742  0.6641
  202MOL0     C27745   9.497   2.972   0.045 -0.0458 -0.2417 -0.7768
  202MOL0     O27746   9.622   2.936   0.001 -0.0539  0.4042 -0.7414
  202MOL0     C27747   9.670   2.806   0.027  0.8239  0.0659 -0.1766
  202MOL0     C27748   9.612   2.691  -0.066  0.5327  0.4451  0.7547
  202MOL0     C27749   9.683   2.551  -0.059  0.3907  0.8953  1.1155
  202MOL0     C27750   9.690   2.489   0.078 -0.0453  0.1910 -0.7505
  202MOL0     C27751   9.703   2.337   0.061  0.2841 -0.5186 -0.0554
  202MOL0     C27752   9.833   2.291   0.014  0.5541  1.1685  0.2063
  202MOL0     C27753   9.828   2.140   0.020 -0.5478 -0.6326  0.5951
  202MOL0     C27754   9.959   2.074  -0.031 -0.1409 -0.3052 -0.2109
  202MOL0     N27755  10.087   2.131   0.018 -0.0905 -0.0879  0.5335
  202MOL0     C27756  10.140   2.107   0.132 -0.2788 -0.8637  0.3260
  202MOL0     C27757  10.251   2.189   0.150  0.9675 -0.2679  0.2144
  202MOL0     C27758  10.329   2.173   0.271  0.0423 -0.9914 -0.0661
  202MOL0     C27759  10.411   2.299   0.308  0.3281 -0.8805  0.3588
  202MOL0     C27760  10.523   2.304   0.413 -0.5164  0.5433  0.2162
  202MOL0     C27761  10.646   2.228   0.367 -0.0050  0.5802 -0.4040
  202MOL0     O27762  10.604   2.091   0.361 -0.0068 -1.0193  0.0008
  202MOL0     C27763  10.686   2.009   0.293 -0.1906  0.7374  0.4685
  202MOL0     C27764  10.783   2.055   0.193 -0.1101  0.3641 -0.4599
  202MOL0     C27765  10.868   1.965   0.125 -0.4459  1.2900 -0.2576
  202MOL0     C27766  10.973   2.021   0.037  0.0158 -0.2029 -0.1012
  202MOL0     C27767  10.863   1.830   0.160  0.3463  0.1687 -0.5792
  202MOL0     C27768  10.969   1.730   0.123  0.2664 -0.0978  0.3444
  202MOL0     O27769  11.094   1.771   0.097 -0.0310  0.4169 -0.5737
  202MOL0     C27770  11.185   1.667   0.076 -0.1058 -0.1470  1.0818
  202MOL0     C27771  11.267   1.638   0.177  0.5517 -0.2495 -0.4205
  202MOL0     C27772  11.366   1.541   0.157 -0.4426 -0.0058 -0.3923
  202MOL0     C27773  11.370   1.459   0.034  0.2893  0.2028  0.0120
  202MOL0     O27774  11.463   1.362   0.019 -0.1971  0.0488  0.1390
  202MOL0     C27775  11.445   1.251   0.101 -0.2255  0.8309 -0.0977
  202MOL0     C27776  11.456   1.115   0.023 -0.5677  0.9159 -0.8676
  202MOL0     C27777  11.434   0.990   0.116  0.0838  0.3360 -0.4194
  202MOL0     C27778  11.289   0.936   0.092 -1.0591  0.1085 -0.3806
  202MOL0     C27779  11.258   0.814   0.183 -0.2905 -0.2918  0.5062
  202MOL0     C27780  11.225   0.854   0.334 -0.5072 -0.6963  0.1415
  202MOL0     C27781  11.170   0.740   0.423  0.3106 -0.1167  0.1487
  202MOL0     C27782  11.171   0.802   0.566  0.4387  0.0052 -0.3394
  202MOL0    Cl27783  11.023   0.897   0.598 -0.2773  0.1439 -0.0645
  202MOL0     C27784  11.278   1.487  -0.063 -0.5614 -0.3857  0.1000
  202MOL0     C27785  11.193   1.599  -0.045 -0.7336  0.1944 -0.5480
  202MOL0     O27786  10.926   1.620   0.109 -0.1296  0.2492 -0.0573
  202MOL0     C27787  10.750   1.783   0.245 -0.5489 -0.0823 -0.3940
  202MOL0     C27788  10.665   1.870   0.312  0.4426  0.6753 -0.1612
  202MOL0     N27789  10.253   2.258   0.026 -0.0390 -0.9784  0.1774
  202MOL0     N27790  10.157   2.225  -0.050  0.9367  0.0406  0.0191
  202MOL0     C27791   9.411   3.032  -0.050 -0.2713  0.0632 -0.4536
  202MOL0     C27792   9.280   3.066  -0.013 -0.1928  0.4274 -0.3377
  202MOL0     C27793   8.901   3.151   0.269  0.4233  0.6724  0.2222
  202MOL0     C27794   8.864   3.227   0.153  0.9943  0.7551 -0.4188
  202MOL0     C27795   8.735   3.281   0.142 -0.6800  0.0602  0.6093
  202MOL0     C27796   8.641   3.260   0.229 -0.6627  0.4586 -0.3358
  202MOL0     O27797   8.518   3.314   0.220 -0.0044  0.8207  0.2379
  202MOL0     C27798   8.408   3.227   0.185 -0.2140 -0.3198  1.2385
  202MOL0     C27799   8.416   3.148   0.057 -0.3820  0.5381  1.1938
  202MOL0     C27800   8.419   3.226  -0.084 -0.5509  0.0898 -0.1434
  202MOL0     C27801   8.445   3.133  -0.209 -0.4826 -0.3116 -0.6710
  202MOL0     C27802   8.321   3.064  -0.236  0.9985 -0.0474  0.6079
  202MOL0     C27803   8.203   3.030  -0.250  0.4818  0.5747 -0.0695
  202MOL0     C27804   8.674   3.189   0.347 -0.0225 -0.1758 -0.3039
  202MOL0     C27805   8.802   3.143   0.369 -0.2912 -0.8565  0.8438
  202MOL0     C27806   8.830   3.083   0.503 -1.0010 -0.5390 -0.0026
  202MOL0     H27807   9.306   3.001   0.321  3.3968  0.0895 -0.2588
  202MOL0     H27808   9.518   2.916   0.256  1.2703 -0.3769 -0.3570
  202MOL0     H27809   9.651   2.777   0.131 -2.1827  0.5620 -0.5037
  202MOL0     H27810   9.778   2.812   0.012  0.7820  2.4216  0.1727
  202MOL0     H27811   9.504   2.677  -0.052  0.4415  0.4259  0.0465
  202MOL0     H27812   9.627   2.727  -0.168  2.7594  1.2978  1.3331
  202MOL0     H27813   9.644   2.483  -0.136  1.6665  0.1004  1.1365
  202MOL0     H27814   9.786   2.567  -0.093  0.9567 -0.8243  1.8605
  202MOL0     H27815   9.777   2.528   0.133 -0.0985 -0.6999 -0.0049
  202MOL0     H27816   9.597   2.507   0.133  0.8851 -1.2121  1.4739
  202MOL0     H27817   9.612   2.299   0.015 -1.2568  3.0649 -0.2690
  202MOL0     H27818   9.688   2.296   0.162 -1.3374  0.5243  0.1606
  202MOL0     H27819   9.850   2.319  -0.090 -0.3763 -1.9733 -0.9221
  202MOL0     H27820   9.911   2.314   0.087  0.7221 -1.0725  0.8303
  202MOL0     H27821   9.745   2.113  -0.046 -1.4703 -1.9000  2.2090
  202MOL0     H27822   9.786   2.107   0.116 -1.5047 -0.7137  0.1567
  202MOL0     H27823   9.959   1.965  -0.025  2.5037 -0.4385 -1.1920
  202MOL0     H27824   9.961   2.108  -0.135  0.0818 -0.3869 -0.2350
  202MOL0     H27825  10.115   2.024   0.197 -0.1546 -1.5190 -0.4512
  202MOL0     H27826  10.398   2.097   0.236  1.3521 -0.3195  0.9658
  202MOL0     H27827  10.267   2.141   0.355 -1.2766 -1.5726 -1.2263
  202MOL0     H27828  10.466   2.323   0.216  0.7594 -2.2295  0.2436
  202MOL0     H27829  10.339   2.381   0.317 -1.7202 -2.7967  2.4441
  202MOL0     H27830  10.553   2.408   0.429 -1.6922  0.5523  2.9679
  202MOL0     H27831  10.496   2.263   0.511 -4.8663  2.1800 -0.0703
  202MOL0     H27832  10.679   2.273   0.274  0.7627  1.5650  0.3180
  202MOL0     H27833  10.724   2.232   0.444 -0.8653  0.8293  0.4887
  202MOL0     H27834  10.808   2.160   0.185 -0.8173  1.2560  4.9686
  202MOL0     H27835  10.948   2.124   0.008 -1.3415 -0.4695  0.0698
  202MOL0     H27836  10.993   1.956  -0.049  0.2243 -0.9537  0.5025
  202MOL0     H27837  11.056   2.037   0.107 -1.0632 -2.7012  1.8872
  202MOL0     H27838  11.243   1.683   0.273 -1.7042 -0.5037 -0.7981
  202MOL0     H27839  11.444   1.532   0.232 -1.9690  0.0792  1.2985
  202MOL0     H27840  11.530   1.266   0.168 -0.3602  2.2018 -0.1982
  202MOL0     H27841  11.349   1.253   0.153  0.2975  1.8531  0.8817
  202MOL0     H27842  11.399   1.104  -0.070  2.2044  0.5088 -2.6412
  202MOL0     H27843  11.562   1.115  -0.003 -0.4585  3.2250 -0.6429
  202MOL0     H27844  11.441   1.023   0.220  0.0824 -0.6706 -0.0908
  202MOL0     H27845  11.506   0.912   0.092 -1.3037 -0.6258 -1.6665
  202MOL0     H27846  11.271   0.897  -0.008  1.3590 -2.3865  0.0054
  202MOL0     H27847  11.226   1.021   0.120 -0.6745  0.3685 -0.2979
  202MOL0     H27848  11.166   0.768   0.145 -0.7154  1.6628 -0.9745
  202MOL0     H27849  11.348   0.753   0.173  0.1647  0.4908 -0.3631
  202MOL0     H27850  11.144   0.927   0.326 -1.4456 -1.5504  1.3920
  202MOL0     H27851  11.305   0.914   0.378  0.2449  0.9362 -3.1423
  202MOL0     H27852  11.239   0.655   0.415  1.3760  0.7418 -0.1201
  202MOL0     H27853  11.071   0.710   0.390  0.6304  0.0112 -0.9787
  202MOL0     H27854  11.259   0.867   0.576  1.5258 -1.1119 -2.1184
  202MOL0     H27855  11.178   0.715   0.632 -0.2020 -1.3968 -2.0598
  202MOL0     H27856  11.276   1.429  -0.154 -0.1453 -1.2232  0.6077
  202MOL0     H27857  11.123   1.627  -0.124 -1.4587  0.0513  0.0304
  202MOL0     H27858  10.727   1.677   0.233  0.2088 -0.4475  1.0730
  202MOL0     H27859  10.580   1.841   0.372 -1.5744  4.4870 -0.8490
  202MOL0     H27860   9.438   3.059  -0.152 -0.9744 -1.7513 -1.1738
  202MOL0     H27861   9.211   3.119  -0.078 -1.2889 -0.1050  0.3607
  202MOL0     H27862   8.936   3.248   0.074  2.1107  2.7583  1.0408
  202MOL0     H27863   8.716   3.349   0.060  1.7499  1.4346  1.1089
  202MOL0     H27864   8.399   3.158   0.270 -1.2888 -1.1908  0.4418
  202MOL0     H27865   8.318   3.288   0.179 -1.2550 -1.9670 -2.4409
  202MOL0     H27866   8.339   3.071   0.050  0.6904 -0.4238 -1.2742
  202MOL0     H27867   8.508   3.088   0.054 -0.3020  0.5127 -3.3308
  202MOL0     H27868   8.335   3.294  -0.098 -1.3359 -0.4198  1.7986
  202MOL0     H27869   8.509   3.287  -0.076 -0.4844 -0.0259 -0.0133
  202MOL0     H27870   8.527   3.065  -0.185  1.4767  2.2785  0.5712
  202MOL0     H27871   8.479   3.192  -0.295 -1.2408 -0.5410 -1.1328
  202MOL0     H27872   8.098   3.012  -0.258  0.5412  0.6037 -1.0298
  202MOL0     H27873   8.601   3.173   0.426  1.8138 -0.9548  1.3143
  202MOL0     H27874   8.736   3.079   0.560 -1.0973  2.2216  0.1842
  202MOL0     H27875   8.864   2.980   0.488 -1.5029 -0.8488  0.8613
  202MOL0     H27876   8.897   3.143   0.566 -1.4847  0.9757 -0.8856
  203MOL0     O27877   0.382   7.059   1.439  0.7294 -0.3592 -0.3992
  203MOL0     C27878   0.343   6.951   1.485 -0.2075  0.1626  0.6006
  203MOL0     O27879   0.422   6.855   1.513 -0.3150  0.8106  0.5884
  203MOL0     C27880   0.560   6.864   1.525 -0.2273 -0.0045 -0.2114
  203MOL0     C27881   0.609   6.790   1.626 -0.2622  0.2229  0.0802
  203MOL0     C27882   0.755   6.782   1.648  0.7676 -0.1876 -0.6236
  203MOL0     C27883   0.840   6.854   1.575 -0.3053 -0.1156  0.3446
  203MOL0     O27884   0.969   6.832   1.610 -0.5848  0.3372 -0.8749
  203MOL0     C27885   1.068   6.911   1.536 -0.0369  0.3965 -0.1459
  203MOL0     C27886   1.215   6.886   1.556 -0.3242  0.8302  0.3150
  203MOL0     C27887   1.258   6.933   1.691 -0.3510 -1.3317 -0.2106
  203MOL0     C27888   1.411   6.948   1.708  0.3467  0.3629  0.6822
  203MOL0     C27889   1.496   6.830   1.660 -0.0926  0.5405  0.3318
  203MOL0     C27890   1.488   6.722   1.779 -0.1607  0.6916 -0.1655
  203MOL0     C27891   1.526   6.582   1.719  0.3396  0.2452  0.7342
  203MOL0     C27892   1.668   6.574   1.646 -1.0587  0.5567 -0.3175
  203MOL0     N27893   1.780   6.575   1.742  0.3611 -0.9668  0.3591
  203MOL0     C27894   1.799   6.476   1.832  0.3796  0.2832  0.0971
  203MOL0     C27895   1.897   6.517   1.915  1.2138  0.1138 -0.0226
  203MOL0     C27896   1.947   6.442   2.027  0.0245 -0.1627  1.6803
  203MOL0     C27897   2.043   6.340   1.965  0.4881 -0.1666  0.3816
  203MOL0     C27898   2.179   6.404   1.938  0.3832 -0.1040  0.2531
  203MOL0     C27899   2.289   6.312   1.912 -0.0685 -0.1078 -0.2621
  203MOL0     O27900   2.408   6.389   1.893 -0.4629  0.5929  0.8185
  203MOL0     C27901   2.528   6.319   1.878 -0.6986 -0.2094  0.4225
  203MOL0     C27902   2.640   6.382   1.826  0.0537 -0.5087 -0.7618
  203MOL0     C27903   2.763   6.316   1.802 -0.2533  0.0403  0.4128
  203MOL0     C27904   2.872   6.401   1.738 -0.1412  0.0423 -0.1084
  203MOL0     C27905   2.770   6.173   1.828  0.7361 -0.6739 -0.3697
  203MOL0     C27906   2.886   6.091   1.804  0.3434 -0.8952  0.5849
  203MOL0     O27907   2.878   5.967   1.854  0.4664  0.0759  0.2459
  203MOL0     C27908   2.988   5.882   1.852 -0.1189 -0.0805 -0.3270
  203MOL0     C27909   3.119   5.918   1.866  0.5399  0.0842  0.1453
  203MOL0     C27910   3.222   5.823   1.870 -0.0584 -0.1433 -0.1115
  203MOL0     C27911   3.192   5.681   1.867  1.0529 -0.3001  0.3837
  203MOL0     O27912   3.280   5.577   1.876  0.8741 -0.1761  0.2723
  203MOL0     C27913   3.424   5.593   1.882  0.6366  0.3144 -0.0898
  203MOL0     C27914   3.482   5.459   1.927 -0.6333 -0.5780  0.3669
  203MOL0     C27915   3.438   5.417   2.074 -0.0176  1.0509  0.8399
  203MOL0     C27916   3.530   5.300   2.120  0.3652  0.3696  0.4656
  203MOL0     C27917   3.490   5.243   2.260  0.8802 -0.1952  0.4635
  203MOL0     C27918   3.569   5.127   2.326 -0.2998  0.1900  0.3900
  203MOL0     C27919   3.510   5.089   2.472  0.1184  0.6763 -0.5855
  203MOL0     C27920   3.559   4.961   2.513  0.3580 -1.1057  0.4241
  203MOL0    Cl27921   3.502   4.933   2.680  0.0766 -0.3667  0.9190
  203MOL0     C27922   3.061   5.650   1.868 -0.3898 -0.0238 -0.2482
  203MOL0     C27923   2.961   5.745   1.859 -0.4981 -0.0997  0.4993
  203MOL0     O27924   2.975   6.124   1.727  0.2307  0.1262 -0.6003
  203MOL0     C27925   2.655   6.106   1.879  0.2140 -1.2801  0.2807
  203MOL0     C27926   2.535   6.178   1.896 -0.3269  0.5281  0.4567
  203MOL0     N27927   1.946   6.633   1.863  0.5956 -0.0469  0.7644
  203MOL0     N27928   1.877   6.664   1.753  0.2479 -0.5186  0.0782
  203MOL0     C27929   0.782   6.940   1.474 -0.1655  0.3796 -0.2900
  203MOL0     C27930   0.641   6.947   1.449 -1.6744  0.0199 -0.1643
  203MOL0     C27931   0.198   6.934   1.497 -0.3901  0.1224  1.1728
  203MOL0     C27932   0.151   6.802   1.519 -0.1203 -0.0422  0.6371
  203MOL0     C27933   0.015   6.771   1.515 -0.1740 -0.4521 -0.7262
  203MOL0     C27934  -0.080   6.875   1.508  0.3368  0.0383  0.4174
  203MOL0     O27935  -0.211   6.832   1.533 -0.4908  0.0442  0.2399
  203MOL0     C27936  -0.315   6.927   1.559 -0.5655 -0.7400 -0.2675
  203MOL0     C27937  -0.385   6.967   1.436 -0.1591  0.7346 -0.1410
  203MOL0     C27938  -0.516   7.050   1.469  0.2498  0.7347  0.4586
  203MOL0     C27939  -0.568   7.103   1.334  0.4154 -0.6201 -0.5669
  203MOL0     C27940  -0.682   7.192   1.359  0.6042 -0.5304 -0.1930
  203MOL0     C27941  -0.770   7.278   1.367  1.0902  0.5225 -0.4461
  203MOL0     C27942  -0.035   7.007   1.491  0.5359 -0.8925 -0.4634
  203MOL0     C27943   0.101   7.040   1.487 -0.2997  0.3905  0.6193
  203MOL0     C27944   0.136   7.187   1.484 -0.4454 -0.2554 -0.0417
  203MOL0     H27945   0.553   6.725   1.693 -3.1424 -0.9577 -3.1774
  203MOL0     H27946   0.792   6.713   1.723 -1.3942 -0.9107 -0.1313
  203MOL0     H27947   1.051   7.017   1.554 -0.0178  0.6601 -1.5620
  203MOL0     H27948   1.033   6.888   1.435 -2.4210 -1.0004  0.9321
  203MOL0     H27949   1.224   6.777   1.556  3.9011  1.0302  0.1383
  203MOL0     H27950   1.274   6.938   1.480 -0.4690  1.6567  0.7514
  203MOL0     H27951   1.218   7.033   1.712  2.2537 -0.5399  1.4491
  203MOL0     H27952   1.236   6.859   1.768 -0.5274  0.5199  1.5976
  203MOL0     H27953   1.441   7.032   1.645  0.9340 -0.8521 -0.7112
  203MOL0     H27954   1.427   6.975   1.813  0.6954 -1.2869  1.0830
  203MOL0     H27955   1.599   6.862   1.641 -0.0808  1.5561  1.9631
  203MOL0     H27956   1.447   6.796   1.568 -2.1691  1.6238  0.9701
  203MOL0     H27957   1.558   6.747   1.860  1.4126  2.3921 -1.9700
  203MOL0     H27958   1.389   6.708   1.825 -0.8561 -0.9866 -2.0252
  203MOL0     H27959   1.442   6.542   1.662  0.6084  1.2226 -0.3819
  203MOL0     H27960   1.540   6.511   1.801  2.9184 -0.2705 -0.0427
  203MOL0     H27961   1.673   6.473   1.605 -2.3690  0.0022  0.7779
  203MOL0     H27962   1.685   6.649   1.568  1.2715 -0.2887 -0.6839
  203MOL0     H27963   1.744   6.384   1.852  0.6033 -0.4026 -2.2279
  203MOL0     H27964   1.865   6.389   2.074 -1.6327  2.0041  1.3949
  203MOL0     H27965   1.996   6.505   2.102  1.2899  1.7307 -0.5787
  203MOL0     H27966   2.049   6.267   2.046  1.0333 -0.3412  0.1866
  203MOL0     H27967   2.005   6.283   1.880  0.1358 -1.4877  1.3923
  203MOL0     H27968   2.172   6.480   1.860  1.6097 -0.6557 -0.4254
  203MOL0     H27969   2.210   6.457   2.028 -1.0880 -1.4409  1.6058
  203MOL0     H27970   2.297   6.257   2.006 -1.0651 -0.1572 -0.1992
  203MOL0     H27971   2.272   6.248   1.826 -1.7780 -1.3713  0.9675
  203MOL0     H27972   2.631   6.486   1.796  1.7642 -0.0029  0.3955
  203MOL0     H27973   2.937   6.424   1.823  0.9489  1.2725 -1.2273
  203MOL0     H27974   2.835   6.497   1.701  1.8884  0.2757 -1.6711
  203MOL0     H27975   2.925   6.341   1.664 -1.9581 -3.4253  1.1626
  203MOL0     H27976   3.143   6.023   1.866 -0.1448  0.2662  1.7379
  203MOL0     H27977   3.319   5.869   1.885 -0.8338  1.7174 -0.5117
  203MOL0     H27978   3.476   5.622   1.791  0.5615  0.8827  0.0469
  203MOL0     H27979   3.466   5.657   1.960  1.4075 -1.3299  0.9170
  203MOL0     H27980   3.447   5.381   1.858  1.1699 -0.9276 -0.2028
  203MOL0     H27981   3.589   5.463   1.908 -1.1125  1.5378 -2.6531
  203MOL0     H27982   3.334   5.384   2.064  1.1006 -2.3168 -2.1285
  203MOL0     H27983   3.456   5.500   2.143  0.7069  1.7954 -0.2086
  203MOL0     H27984   3.632   5.338   2.131  0.3382 -0.1360  3.1735
  203MOL0     H27985   3.530   5.214   2.052 -0.1471 -1.0533  2.1965
  203MOL0     H27986   3.491   5.322   2.337 -1.3434 -0.4315  0.7918
  203MOL0     H27987   3.388   5.207   2.250  1.2845 -1.1950 -0.2630
  203MOL0     H27988   3.671   5.162   2.342 -0.7542  0.8341  2.2278
  203MOL0     H27989   3.559   5.040   2.261  1.1167  1.5389 -1.7387
  203MOL0     H27990   3.401   5.082   2.478  0.2563 -1.6895  0.3003
  203MOL0     H27991   3.540   5.161   2.549  1.1172 -0.7446  0.3971
  203MOL0     H27992   3.667   4.960   2.496  0.3064 -0.3811  0.0442
  203MOL0     H27993   3.516   4.885   2.448 -2.1348  2.2167 -2.1477
  203MOL0     H27994   3.045   5.543   1.881 -2.4581  0.0857 -1.5414
  203MOL0     H27995   2.857   5.716   1.855 -0.3340 -0.6069 -1.2111
  203MOL0     H27996   2.647   6.000   1.903 -3.0852 -0.4710  3.9439
  203MOL0     H27997   2.447   6.119   1.920 -0.3112  1.0516  1.9256
  203MOL0     H27998   0.835   7.004   1.405 -0.2258  0.2916 -0.4172
  203MOL0     H27999   0.609   7.003   1.362 -0.0310 -0.8505 -1.3832
  203MOL0     H28000   0.224   6.723   1.520 -0.7385 -0.6223  0.6811
  203MOL0     H28001  -0.029   6.678   1.549  0.8819 -1.0645 -1.0068
  203MOL0     H28002  -0.388   6.875   1.622 -1.1147 -1.6831 -1.6286
  203MOL0     H28003  -0.276   7.013   1.613  0.6007 -0.4459 -1.5249
  203MOL0     H28004  -0.423   6.882   1.378 -0.9171  0.2987  0.9719
  203MOL0     H28005  -0.314   7.026   1.377  2.0748  1.4471  3.0015
  203MOL0     H28006  -0.589   6.987   1.520  0.6670 -0.1395  0.0035
  203MOL0     H28007  -0.497   7.142   1.526  3.7135  0.3125  0.2279
  203MOL0     H28008  -0.609   7.015   1.282  1.8816 -2.6032  1.4300
  203MOL0     H28009  -0.490   7.157   1.280  1.0468 -2.0639 -1.1735
  203MOL0     H28010  -0.849   7.350   1.368  1.2347  0.8849 -3.9479
  203MOL0     H28011  -0.112   7.082   1.481 -1.6729 -2.7829  1.2840
  203MOL0     H28012   0.051   7.248   1.517 -1.9772 -2.5081  0.3705
  203MOL0     H28013   0.214   7.203   1.560 -1.2872  1.3610  0.5446
  203MOL0     H28014   0.170   7.215   1.384 -1.4846  1.4479  0.0508
  204MOL0     O28015   7.528   8.052   3.851  0.2608  0.0728  0.2334
  204MOL0     C28016   7.456   8.016   3.761 -0.1355 -0.6849 -0.3985
  204MOL0     O28017   7.491   7.961   3.643 -0.4966 -0.2907  0.1914
  204MOL0     C28018   7.624   7.945   3.610 -0.7507  0.2515  0.3266
  204MOL0     C28019   7.677   7.816   3.607 -0.1275 -0.1321  0.1071
  204MOL0     C28020   7.817   7.807   3.576 -0.5355 -0.3750  0.0629
  204MOL0     C28021   7.900   7.921   3.537 -0.0069  0.6043 -0.0708
  204MOL0     O28022   8.029   7.898   3.494  0.0367  0.3373 -0.4354
  204MOL0     C28023   8.107   8.020   3.493 -0.1673 -0.5619 -0.4839
  204MOL0     C28024   8.247   7.972   3.451 -0.3817 -0.0322  0.7240
  204MOL0     C28025   8.326   7.880   3.543  0.2402  0.4127  0.2615
  204MOL0     C28026   8.346   7.960   3.675  0.0931  0.3981  0.7408
  204MOL0     C28027   8.443   7.894   3.772 -0.1888 -0.5890 -0.0498
  204MOL0     C28028   8.469   7.979   3.894  0.1456  0.9507 -0.5242
  204MOL0     C28029   8.555   8.099   3.840 -0.4293  0.3057 -0.0565
  204MOL0     C28030   8.644   8.165   3.948 -0.9645 -0.2878 -0.1981
  204MOL0     N28031   8.719   8.072   4.047  0.7924  0.3809 -0.4694
  204MOL0     C28032   8.809   7.973   4.006  0.1270 -0.2994 -0.3663
  204MOL0     C28033   8.854   7.920   4.112 -0.0100  0.1817  0.8111
  204MOL0     C28034   8.949   7.804   4.119 -0.1628  0.0011  0.0058
  204MOL0     C28035   9.096   7.854   4.151 -0.2785 -0.5629 -0.0114
  204MOL0     C28036   9.151   7.920   4.026  1.0406  0.0927 -0.9382
  204MOL0     C28037   9.301   7.927   4.027 -0.8971  0.8992  0.0634
  204MOL0     O28038   9.355   7.788   4.030 -0.0732 -0.2045 -0.0171
  204MOL0     C28039   9.487   7.776   3.991  0.2890 -0.5632 -0.1173
  204MOL0     C28040   9.524   7.648   3.961  0.2979  0.0852 -0.4137
  204MOL0     C28041   9.659   7.616   3.919  0.1895  0.0417 -0.1009
  204MOL0     C28042   9.692   7.476   3.886 -0.1001  0.1473 -0.7228
  204MOL0     C28043   9.748   7.726   3.914 -0.7029 -0.0193 -0.9088
  204MOL0     C28044   9.888   7.695   3.872  0.5407 -0.6477 -0.3434
  204MOL0     O28045   9.910   7.691   3.743 -0.4226  0.6528  0.4613
  204MOL0     C28046  10.038   7.676   3.684  0.1470 -0.6581  0.3282
  204MOL0     C28047  10.146   7.756   3.717 -0.5575  0.3498 -0.8684
  204MOL0     C28048  10.268   7.762   3.641  0.4995 -0.0220  0.3524
  204MOL0     C28049  10.280   7.675   3.530  0.2528  0.3037  1.3677
  204MOL0     O28050  10.392   7.683   3.452  0.2117 -0.0095 -0.3798
  204MOL0     C28051  10.391   7.626   3.320  0.3959 -0.3705  0.2626
  204MOL0     C28052  10.507   7.662   3.221 -0.0086  0.1741  0.0243
  204MOL0     C28053  10.591   7.545   3.185 -0.1971  0.8069  0.4439
  204MOL0     C28054  10.724   7.533   3.260  0.2962 -0.1651  0.4289
  204MOL0     C28055  10.811   7.415   3.212  0.0687 -0.5006  0.9952
  204MOL0     C28056  10.918   7.386   3.307 -0.2957 -0.0265  0.2138
  204MOL0     C28057  10.993   7.270   3.264  0.7420  0.4961  0.6218
  204MOL0     C28058  11.142   7.285   3.292  0.2026  0.1125 -0.6673
  204MOL0    Cl28059  11.212   7.435   3.219  0.2904  0.0887 -0.1912
  204MOL0     C28060  10.168   7.583   3.504 -0.9190 -0.4419  0.4650
  204MOL0     C28061  10.046   7.594   3.574 -0.1422 -0.0833 -0.0702
  204MOL0     O28062   9.980   7.708   3.962 -0.0115  0.2164  0.4312
  204MOL0     C28063   9.702   7.860   3.946 -0.2243  0.1777 -1.0694
  204MOL0     C28064   9.570   7.888   3.978  0.0503  0.1345 -0.2857
  204MOL0     N28065   8.816   7.994   4.223  1.1847 -0.8500  0.3206
  204MOL0     N28066   8.723   8.077   4.185 -0.5506 -0.0503  0.0159
  204MOL0     C28067   7.831   8.049   3.538  0.1801  0.9632  0.1065
  204MOL0     C28068   7.695   8.058   3.577  0.4786 -0.1146 -0.2604
  204MOL0     C28069   7.312   8.025   3.786  0.6611  0.3691 -0.0607
  204MOL0     C28070   7.232   7.924   3.713 -0.2787  0.0558 -0.7240
  204MOL0     C28071   7.097   7.932   3.731 -0.1725 -0.4560 -0.3957
  204MOL0     C28072   7.038   8.024   3.811 -0.0122  0.4216  0.0125
  204MOL0     O28073   6.899   8.019   3.813 -0.2137  0.2553 -0.0114
  204MOL0     C28074   6.832   8.062   3.927  0.1682  0.2599 -0.3924
  204MOL0     C28075   6.719   7.956   3.951 -0.0939 -0.8684 -0.4913
  204MOL0     C28076   6.590   7.992   3.873 -0.3343 -0.7929 -0.0354
  204MOL0     C28077   6.497   7.872   3.899 -0.3605  0.1649  0.0320
  204MOL0     C28078   6.447   7.857   4.034 -1.0880 -0.1888 -0.8074
  204MOL0     C28079   6.393   7.859   4.139  0.0952  0.2338 -0.1265
  204MOL0     C28080   7.117   8.121   3.879  0.2080 -0.4105 -0.2380
  204MOL0     C28081   7.250   8.126   3.863 -0.3960 -0.1649  0.7195
  204MOL0     C28082   7.323   8.252   3.927 -0.2477 -0.0580  0.5885
  204MOL0     H28083   7.619   7.730   3.639  2.2951 -1.6159  0.8666
  204MOL0     H28084   7.865   7.711   3.566 -0.0200 -0.0586 -0.5474
  204MOL0     H28085   8.107   8.067   3.592 -1.6402 -0.8177 -0.3513
  204MOL0     H28086   8.060   8.084   3.418 -1.7986  0.1316  1.0694
  204MOL0     H28087   8.234   7.918   3.357 -0.4415  0.6495  0.3284
  204MOL0     H28088   8.315   8.052   3.420  0.8624 -0.8598  1.2740
  204MOL0     H28089   8.275   7.786   3.567  0.7096 -1.2346 -4.2950
  204MOL0     H28090   8.425   7.862   3.500 -0.5650 -0.3665 -1.3237
  204MOL0     H28091   8.390   8.051   3.633 -1.7104 -0.8820 -4.7281
  204MOL0     H28092   8.250   7.978   3.723  0.1020  0.7614  0.6258
  204MOL0     H28093   8.539   7.875   3.723  0.3147  0.2833  0.5663
  204MOL0     H28094   8.408   7.794   3.801  2.8804 -1.7996 -0.1489
  204MOL0     H28095   8.370   8.012   3.928 -0.5717  0.1335 -1.7284
  204MOL0     H28096   8.511   7.930   3.982 -2.4661  1.8218  1.3302
  204MOL0     H28097   8.499   8.179   3.791  1.5463  0.8632 -1.5254
  204MOL0     H28098   8.622   8.066   3.760  0.1795  4.4025 -1.4696
  204MOL0     H28099   8.719   8.232   3.905 -1.1489  0.1519  0.1565
  204MOL0     H28100   8.576   8.236   3.997 -0.9996  0.7353 -1.6430
  204MOL0     H28101   8.831   7.936   3.906 -0.9680 -1.5466 -0.1726
  204MOL0     H28102   8.943   7.738   4.032 -1.1005 -0.7546  0.6246
  204MOL0     H28103   8.908   7.754   4.208 -0.4832 -1.0067 -0.6854
  204MOL0     H28104   9.079   7.925   4.232 -2.0320  1.4192 -2.0114
  204MOL0     H28105   9.157   7.766   4.176  1.7835  0.6481 -0.5506
  204MOL0     H28106   9.121   7.870   3.933  1.4911  1.3684 -1.7889
  204MOL0     H28107   9.114   8.022   4.015  1.0290  0.3896  1.3758
  204MOL0     H28108   9.323   7.978   3.933  2.2410 -2.1944 -1.0982
  204MOL0     H28109   9.340   7.980   4.115  0.6277  0.3708 -0.2709
  204MOL0     H28110   9.450   7.572   3.979  2.2964 -1.8058  0.2380
  204MOL0     H28111   9.790   7.471   3.837  0.1512 -1.1758 -0.1382
  204MOL0     H28112   9.622   7.432   3.815  0.9973  0.5138 -2.0941
  204MOL0     H28113   9.697   7.419   3.979 -0.8068  0.2968 -0.5887
  204MOL0     H28114  10.139   7.839   3.786 -0.1493  2.9576 -3.7277
  204MOL0     H28115  10.355   7.823   3.663  2.5988 -1.5895 -2.8525
  204MOL0     H28116  10.400   7.519   3.340  0.9990  0.0660  2.5839
  204MOL0     H28117  10.291   7.638   3.278 -0.8018 -0.4788  2.8984
  204MOL0     H28118  10.465   7.700   3.128  0.9253 -0.7809 -0.8156
  204MOL0     H28119  10.571   7.736   3.271  2.2737 -0.9820 -1.0135
  204MOL0     H28120  10.618   7.548   3.079 -0.2029 -1.3069  0.3220
  204MOL0     H28121  10.529   7.455   3.194  1.1399 -0.0562  1.3201
  204MOL0     H28122  10.697   7.518   3.365 -1.0414  0.6209  0.2272
  204MOL0     H28123  10.774   7.629   3.251  2.0168 -1.1965 -5.7956
  204MOL0     H28124  10.747   7.326   3.201  0.6488 -0.8864  0.6880
  204MOL0     H28125  10.838   7.450   3.112 -1.8262  3.1848  1.6096
  204MOL0     H28126  10.874   7.365   3.404 -1.2082 -0.5280 -0.2969
  204MOL0     H28127  10.986   7.471   3.318 -0.9714  0.3926  1.2451
  204MOL0     H28128  10.977   7.255   3.157  1.7558 -0.4593  0.5847
  204MOL0     H28129  10.948   7.182   3.313  2.4899 -0.5220  0.4724
  204MOL0     H28130  11.193   7.194   3.257  0.4497  0.1512 -0.4139
  204MOL0     H28131  11.170   7.299   3.397 -0.0751  1.5298 -0.7588
  204MOL0     H28132  10.185   7.510   3.426 -0.3487 -1.1445  1.2218
  204MOL0     H28133   9.958   7.547   3.531 -0.1274 -0.4017  0.2441
  204MOL0     H28134   9.765   7.948   3.947  0.1708 -0.1031 -0.6253
  204MOL0     H28135   9.540   7.989   4.006  0.7898  0.6108 -1.1628
  204MOL0     H28136   7.879   8.141   3.505 -0.3053  0.2853 -2.7689
  204MOL0     H28137   7.639   8.150   3.588 -3.4400 -2.5794  3.0548
  204MOL0     H28138   7.274   7.858   3.638 -2.7690 -1.2713 -1.0432
  204MOL0     H28139   7.033   7.861   3.677 -0.3387  0.4540 -1.4412
  204MOL0     H28140   6.897   8.067   4.015  0.1367 -1.1075 -0.2559
  204MOL0     H28141   6.794   8.163   3.912 -0.4522  0.2577  1.0018
  204MOL0     H28142   6.702   7.931   4.056 -1.8291 -0.0090 -0.5375
  204MOL0     H28143   6.765   7.862   3.920 -0.8359 -1.9367  1.4774
  204MOL0     H28144   6.552   8.087   3.912 -2.3365 -1.7736  0.5033
  204MOL0     H28145   6.611   8.003   3.766  0.3143  0.8998  0.2255
  204MOL0     H28146   6.544   7.779   3.866 -3.1617 -1.6728  0.8558
  204MOL0     H28147   6.406   7.884   3.839 -0.1647  2.5506  0.0853
  204MOL0     H28148   6.353   7.861   4.238  1.4884  2.0876  0.4752
  204MOL0     H28149   7.068   8.195   3.942  0.1579 -1.2073  0.6822
  204MOL0     H28150   7.401   8.305   3.872  0.4158  0.1939  1.7403
  204MOL0     H28151   7.247   8.329   3.944  1.6277  1.8721  0.5768
  204MOL0     H28152   7.382   8.210   4.009  0.9093 -1.3583 -0.8561
  205MOL0     O28153   1.744   7.241   6.401  0.1685  0.5177 -0.3320
  205MOL0     C28154   1.642   7.202   6.454 -0.3032  0.4492  0.6264
  205MOL0     O28155   1.606   7.227   6.580 -0.2553  0.7037  0.1709
  205MOL0     C28156   1.690   7.278   6.680  0.2872  0.4237 -0.6139
  205MOL0     C28157   1.830   7.248   6.684 -0.0186  0.6404 -0.2159
  205MOL0     C28158   1.899   7.298   6.788  0.1852 -0.2211 -0.0478
  205MOL0     C28159   1.844   7.381   6.892 -0.6439 -0.1353 -0.5421
  205MOL0     O28160   1.917   7.419   7.003 -0.1590  0.2562 -0.3699
  205MOL0     C28161   1.876   7.539   7.086 -1.0824  0.1430  0.3602
  205MOL0     C28162   1.969   7.548   7.210 -0.4616 -0.1078  0.9098
  205MOL0     C28163   2.109   7.600   7.168  0.4393 -0.7445 -0.7382
  205MOL0     C28164   2.193   7.631   7.290 -0.6663 -0.2081  0.2367
  205MOL0     C28165   2.340   7.682   7.281  0.3662  0.2028  0.0405
  205MOL0     C28166   2.400   7.688   7.424 -0.6051 -0.3541  0.5333
  205MOL0     C28167   2.544   7.736   7.419 -0.4002 -0.4052  0.5183
  205MOL0     C28168   2.567   7.868   7.353 -0.0926 -0.0906  0.0837
  205MOL0     N28169   2.713   7.893   7.350  0.2487 -0.6479  0.6112
  205MOL0     C28170   2.782   7.922   7.461 -0.3325  0.5726 -0.7166
  205MOL0     C28171   2.900   7.975   7.412 -1.0747  0.0896 -0.3458
  205MOL0     C28172   3.027   8.016   7.487 -0.0668 -0.2847 -0.4513
  205MOL0     C28173   3.034   8.157   7.533 -0.1787 -0.2168 -0.2382
  205MOL0     C28174   2.907   8.222   7.600 -0.3616  0.1439  0.1625
  205MOL0     C28175   2.861   8.154   7.729  0.2596 -0.0535  0.3496
  205MOL0     O28176   2.960   8.159   7.830  0.4223  0.0949  0.6674
  205MOL0     C28177   2.930   8.134   7.959  0.5752 -0.2469 -0.3070
  205MOL0     C28178   3.042   8.135   8.052  0.3199  0.4596  0.0957
  205MOL0     C28179   3.029   8.126   8.190  0.5430 -0.3628 -0.4828
  205MOL0     C28180   3.156   8.152   8.272  0.2918 -0.2736 -0.6363
  205MOL0     C28181   2.906   8.082   8.248  0.1284  0.0853 -0.3659
  205MOL0     C28182   2.887   8.045   8.392 -0.3821  0.4498  0.4775
  205MOL0     O28183   2.995   8.051   8.479 -0.5886 -0.5642  0.0651
  205MOL0     C28184   2.971   8.016   8.607 -1.0341 -0.1547  0.2426
  205MOL0     C28185   3.064   7.931   8.680  0.3958 -0.1294  0.3286
  205MOL0     C28186   3.040   7.918   8.818 -0.2648  0.7237  0.4059
  205MOL0     C28187   2.939   7.981   8.892  1.0759  0.0257 -0.1917
  205MOL0     O28188   2.911   7.946   9.024  0.5261 -0.0438  0.8207
  205MOL0     C28189   2.797   8.002   9.085  0.2040  0.2905  0.1493
  205MOL0     C28190   2.784   7.940   9.227  0.6041  0.4384 -0.1455
  205MOL0     C28191   2.658   8.000   9.296 -1.0746  0.3062 -0.7210
  205MOL0     C28192   2.627   7.921   9.428 -0.3022 -0.8235 -0.3783
  205MOL0     C28193   2.608   7.769   9.421 -0.2335  0.1060  0.5039
  205MOL0     C28194   2.535   7.723   9.551  0.2517  0.3795  0.5633
  205MOL0     C28195   2.534   7.572   9.572  0.1852  0.4879 -0.0238
  205MOL0     C28196   2.450   7.505   9.468  0.4306  0.4904 -0.0101
  205MOL0    Cl28197   2.313   7.410   9.533 -0.1212  0.1062 -0.0437
  205MOL0     C28198   2.875   8.086   8.818  0.4964  0.8525  0.0427
  205MOL0     C28199   2.881   8.095   8.680 -0.4709 -0.5500 -0.2405
  205MOL0     O28200   2.778   7.996   8.423 -0.4993  0.2817 -1.5869
  205MOL0     C28201   2.805   8.058   8.154  0.4479  0.3713 -0.2032
  205MOL0     C28202   2.809   8.083   8.016  0.5871 -0.5816  0.4090
  205MOL0     N28203   2.888   7.995   7.271  0.3715  0.4113  0.1888
  205MOL0     N28204   2.773   7.940   7.235  0.8165 -0.7943 -0.9736
  205MOL0     C28205   1.705   7.408   6.882  0.1460  0.8378  1.4719
  205MOL0     C28206   1.626   7.353   6.779  0.7252 -0.6129  1.1272
  205MOL0     C28207   1.542   7.124   6.377 -0.1784 -1.3701  0.1580
  205MOL0     C28208   1.409   7.150   6.407 -0.1956 -0.9109  0.1126
  205MOL0     C28209   1.298   7.084   6.346 -0.0291 -0.3413  0.3191
  205MOL0     C28210   1.324   6.983   6.251 -0.3023  0.6082  0.8007
  205MOL0     O28211   1.226   6.912   6.180 -0.4250 -0.4771 -0.2849
  205MOL0     C28212   1.090   6.940   6.202  0.8440  0.8341  0.0550
  205MOL0     C28213   1.045   7.043   6.109  0.2908  0.7630  0.1244
  205MOL0     C28214   1.065   7.001   5.962 -0.4405  0.1222 -0.2702
  205MOL0     C28215   1.005   7.110   5.874  0.6567 -0.3490  0.4915
  205MOL0     C28216   1.088   7.226   5.863  0.1724 -0.0516 -0.3436
  205MOL0     C28217   1.151   7.334   5.854 -0.0943 -0.2344 -0.1798
  205MOL0     C28218   1.461   6.967   6.208  1.1178 -0.3360 -0.5250
  205MOL0     C28219   1.565   7.036   6.269 -0.6187  0.5261  0.7817
  205MOL0     C28220   1.713   6.998   6.226 -0.0537 -0.1652 -0.1580
  205MOL0     H28221   1.883   7.191   6.609 -0.1522 -1.4997  1.2169
  205MOL0     H28222   2.002   7.265   6.796 -0.3957 -2.0199  0.6306
  205MOL0     H28223   1.773   7.517   7.114 -1.5402  1.4546 -0.2169
  205MOL0     H28224   1.866   7.625   7.019 -0.0429  0.2320  0.2992
  205MOL0     H28225   1.930   7.616   7.286  0.8159  1.6534  0.0819
  205MOL0     H28226   1.975   7.451   7.259 -3.4643 -1.2401 -0.6859
  205MOL0     H28227   2.172   7.528   7.115  2.2685 -1.1694  1.8204
  205MOL0     H28228   2.102   7.690   7.106  0.7846 -0.4375 -0.3283
  205MOL0     H28229   2.141   7.719   7.329  1.7125  1.2042  0.3813
  205MOL0     H28230   2.194   7.541   7.353  0.9428 -1.2494 -1.1761
  205MOL0     H28231   2.332   7.780   7.233 -3.7314  0.8815  1.6733
  205MOL0     H28232   2.402   7.624   7.213 -1.5923 -0.2387 -1.4373
  205MOL0     H28233   2.339   7.763   7.474  2.3021  2.9090 -0.4274
  205MOL0     H28234   2.383   7.587   7.463 -0.3989 -0.8523 -0.5968
  205MOL0     H28235   2.605   7.665   7.362  2.8033  1.6116  1.1305
  205MOL0     H28236   2.596   7.736   7.515 -0.1010 -2.1149  0.3822
  205MOL0     H28237   2.531   7.878   7.250  0.6468  3.1757  0.0449
  205MOL0     H28238   2.514   7.940   7.416  0.9503 -0.5160  1.5009
  205MOL0     H28239   2.761   7.891   7.563 -3.1800  4.3003  0.0428
  205MOL0     H28240   3.120   7.995   7.433 -0.8526  1.1038 -2.4701
  205MOL0     H28241   3.026   7.957   7.579 -3.0491 -0.5114 -0.5227
  205MOL0     H28242   3.113   8.174   7.606  0.2909 -3.5042  0.1931
  205MOL0     H28243   3.047   8.220   7.444 -1.8075 -0.1004 -0.4319
  205MOL0     H28244   2.907   8.331   7.610 -3.6651  0.1808  0.9245
  205MOL0     H28245   2.826   8.201   7.529 -0.7605  1.0220  0.3440
  205MOL0     H28246   2.767   8.197   7.765  0.6467  0.4023  0.8187
  205MOL0     H28247   2.831   8.049   7.720 -0.3867 -0.1429  2.8089
  205MOL0     H28248   3.137   8.166   8.010  1.2666 -1.2055  0.8971
  205MOL0     H28249   3.139   8.234   8.342 -0.0300  0.1568 -1.2057
  205MOL0     H28250   3.240   8.182   8.209  0.0040  0.4898 -0.6735
  205MOL0     H28251   3.183   8.061   8.325 -5.6092 -1.5579  0.9675
  205MOL0     H28252   3.138   7.880   8.619 -0.9749  1.4061 -2.8118
  205MOL0     H28253   3.106   7.846   8.866  0.7753  0.3223 -1.5313
  205MOL0     H28254   2.798   8.109   9.105  2.1908  0.5082 -0.8761
  205MOL0     H28255   2.701   7.974   9.040 -0.4332 -0.4244  1.8457
  205MOL0     H28256   2.763   7.834   9.205 -2.9977  1.0037 -0.0399
  205MOL0     H28257   2.873   7.963   9.286  0.5160  1.9092 -0.5515
  205MOL0     H28258   2.573   8.005   9.226 -0.9272  0.8921 -0.8558
  205MOL0     H28259   2.677   8.106   9.313  3.0311 -0.4412  0.2421
  205MOL0     H28260   2.539   7.973   9.467  1.8286  2.5024  0.4639
  205MOL0     H28261   2.701   7.949   9.503 -2.7002  0.4104  1.6933
  205MOL0     H28262   2.551   7.745   9.331 -2.3172  1.7193  1.3003
  205MOL0     H28263   2.706   7.723   9.405 -0.0622  1.7310 -5.4732
  205MOL0     H28264   2.432   7.757   9.554  1.2422  3.6537  2.2772
  205MOL0     H28265   2.592   7.765   9.635  2.1655 -2.4750  0.8438
  205MOL0     H28266   2.503   7.537   9.671  1.4616  0.3345  0.3322
  205MOL0     H28267   2.637   7.538   9.555 -0.0512  0.3680 -1.3329
  205MOL0     H28268   2.511   7.444   9.400 -0.0340 -1.1332  0.9841
  205MOL0     H28269   2.404   7.587   9.412  0.4822  1.9378  1.9744
  205MOL0     H28270   2.818   8.161   8.871 -0.6597  0.6563 -0.8796
  205MOL0     H28271   2.832   8.179   8.633  0.3642  1.4136  2.1654
  205MOL0     H28272   2.709   8.022   8.190 -0.2567  0.2132 -2.1021
  205MOL0     H28273   2.725   8.057   7.953 -0.5120 -0.4452  1.7556
  205MOL0     H28274   1.657   7.473   6.954  1.6433  0.2864  3.0363
  205MOL0     H28275   1.522   7.383   6.785  0.7954 -0.5197  2.1029
  205MOL0     H28276   1.372   7.211   6.489 -1.9840 -1.3791 -0.3019
  205MOL0     H28277   1.194   7.111   6.366 -0.3275 -0.0864 -1.3998
  205MOL0     H28278   1.031   6.849   6.187 -1.1782  1.8105  1.6219
  205MOL0     H28279   1.076   6.958   6.309  1.9358  1.9448  0.0451
  205MOL0     H28280   1.102   7.134   6.128 -0.8362  1.4108  0.4838
  205MOL0     H28281   0.939   7.062   6.127  0.5001  1.2443  0.9408
  205MOL0     H28282   1.168   6.977   5.936 -0.1717 -2.1013  2.4380
  205MOL0     H28283   1.017   6.902   5.958 -0.2444  0.0480 -3.2705
  205MOL0     H28284   0.906   7.151   5.897  1.7100  4.1125 -1.8254
  205MOL0     H28285   0.992   7.078   5.770  0.1423  1.8145 -0.1750
  205MOL0     H28286   1.202   7.428   5.855 -2.1166  0.9269  1.4817
  205MOL0     H28287   1.490   6.905   6.123  3.3140 -0.3496  0.1708
  205MOL0     H28288   1.713   6.889   6.234  0.2806 -0.0307  2.2244
  205MOL0     H28289   1.727   7.024   6.121 -1.6773  0.5569 -0.2276
  205MOL0     H28290   1.781   7.044   6.297 -1.3102 -0.4511  1.2787
  206MOL0     O28291   8.609   9.738   6.344 -0.5459  0.2644  0.4021
  206MOL0     C28292   8.547   9.842   6.370  0.8394 -0.1656  0.1944
  206MOL0     O28293   8.586   9.938   6.460 -0.0876 -0.3718 -0.5169
  206MOL0     C28294   8.719   9.959   6.466 -0.0807 -0.3637  0.5837
  206MOL0     C28295   8.770  10.086   6.431 -0.0136  0.8046 -1.1328
  206MOL0     C28296   8.907  10.107   6.448  0.3452  0.3784 -0.4981
  206MOL0     C28297   8.991  10.013   6.514 -0.0040 -0.1627  0.2980
  206MOL0     O28298   9.123  10.053   6.538  0.0652 -0.2688  0.0873
  206MOL0     C28299   9.211  10.005   6.641 -0.3228  0.1240  1.2524
  206MOL0     C28300   9.325   9.933   6.582  0.0082  0.2624  0.5300
  206MOL0     C28301   9.412   9.852   6.684  0.1499 -1.2436  0.2831
  206MOL0     C28302   9.536   9.794   6.607 -0.2727 -0.4609 -0.9041
  206MOL0     C28303   9.628   9.697   6.680  0.3887 -0.0164  0.3646
  206MOL0     C28304   9.741   9.648   6.589  0.5431 -0.6208  0.5371
  206MOL0     C28305   9.836   9.757   6.531 -0.3810  0.4966 -0.5587
  206MOL0     C28306   9.931   9.829   6.635  0.2382 -0.1916  0.4629
  206MOL0     N28307  10.038   9.740   6.682  0.0454  0.4940 -0.1576
  206MOL0     C28308  10.145   9.712   6.599  0.5135  0.0145 -0.2158
  206MOL0     C28309  10.222   9.622   6.674  0.0147 -0.0116 -0.0323
  206MOL0     C28310  10.345   9.551   6.637  0.9982  0.0082 -0.4099
  206MOL0     C28311  10.459   9.652   6.618  0.7660  0.3822  0.3625
  206MOL0     C28312  10.590   9.578   6.576  0.0065  0.4195 -0.2739
  206MOL0     C28313  10.601   9.562   6.424  0.3493  0.5904 -0.3879
  206MOL0     O28314  10.737   9.558   6.384 -0.6227 -0.2010 -0.0616
  206MOL0     C28315  10.767   9.540   6.247 -0.0218  0.0705 -0.5808
  206MOL0     C28316  10.897   9.508   6.204  0.9735 -0.0762 -0.3136
  206MOL0     C28317  10.933   9.489   6.074 -0.1548  0.2473  0.6732
  206MOL0     C28318  11.079   9.466   6.041  0.1357  0.0729  0.1463
  206MOL0     C28319  10.835   9.500   5.971  0.3188 -0.8353 -0.3754
  206MOL0     C28320  10.849   9.465   5.829  0.7398  1.0442 -0.4281
  206MOL0     O28321  10.917   9.353   5.804 -0.5178 -0.4106  0.2356
  206MOL0     C28322  10.986   9.350   5.681  0.0682 -0.3607 -0.2484
  206MOL0     C28323  10.921   9.338   5.559 -1.0917  1.0116 -0.0144
  206MOL0     C28324  10.989   9.326   5.438 -1.2279 -0.5565 -0.4174
  206MOL0     C28325  11.131   9.330   5.440 -0.1025  0.3330 -0.2672
  206MOL0     O28326  11.202   9.320   5.320  0.7447 -0.8203  0.9285
  206MOL0     C28327  11.340   9.362   5.319 -0.0971 -1.0635 -0.2612
  206MOL0     C28328  11.385   9.393   5.180 -0.0510  0.7864  0.4497
  206MOL0     C28329  11.537   9.439   5.167  0.7166 -0.0800 -0.3077
  206MOL0     C28330  11.626   9.319   5.188 -1.8618  0.0727  0.8551
  206MOL0     C28331  11.780   9.338   5.164  1.0196  0.0320 -0.1757
  206MOL0     C28332  11.848   9.416   5.273 -0.1117  0.6187 -0.3266
  206MOL0     C28333  12.003   9.371   5.262 -0.0095 -0.9282 -0.9795
  206MOL0     C28334  12.079   9.425   5.139  0.3592 -0.4941 -0.3729
  206MOL0    Cl28335  12.239   9.365   5.152  0.6266 -0.0906  0.1177
  206MOL0     C28336  11.192   9.343   5.560 -0.3966  0.5533 -0.0727
  206MOL0     C28337  11.132   9.361   5.684  0.7911  0.0359  0.2178
  206MOL0     O28338  10.781   9.525   5.742 -0.6586  0.4669 -0.1447
  206MOL0     C28339  10.705   9.537   6.012 -1.0096  0.6326 -0.3952
  206MOL0     C28340  10.670   9.557   6.146 -0.2304  0.2307  0.1421
  206MOL0     N28341  10.161   9.609   6.801 -0.7197 -0.4296 -0.2093
  206MOL0     N28342  10.047   9.678   6.803 -0.1028 -0.4814  0.2157
  206MOL0     C28343   8.935   9.884   6.558  1.0434 -0.7742  0.1080
  206MOL0     C28344   8.793   9.867   6.533 -0.6559 -0.2098 -0.1951
  206MOL0     C28345   8.416   9.856   6.294  0.0640 -1.3459 -0.4196
  206MOL0     C28346   8.372   9.990   6.278 -0.6112  0.0104 -0.3707
  206MOL0     C28347   8.265  10.017   6.195  0.1517  0.3904  1.0770
  206MOL0     C28348   8.201   9.920   6.128  0.7370  0.0549  0.3295
  206MOL0     O28349   8.100   9.960   6.042 -0.1282 -0.6362  0.3650
  206MOL0     C28350   8.091   9.886   5.921  0.2057 -0.1203  0.8246
  206MOL0     C28351   7.973   9.940   5.846 -0.3285  0.4699 -0.3431
  206MOL0     C28352   7.841   9.915   5.918 -0.7534  0.7612  0.2643
  206MOL0     C28353   7.719   9.989   5.853  0.2395 -1.0024  0.6859
  206MOL0     C28354   7.597   9.948   5.912  0.1528 -0.2160  0.2904
  206MOL0     C28355   7.500   9.901   5.962 -0.1886 -0.2654 -0.5121
  206MOL0     C28356   8.240   9.792   6.133 -1.0409  0.0068  0.1657
  206MOL0     C28357   8.351   9.755   6.216  0.4472 -0.1857 -0.6812
  206MOL0     C28358   8.390   9.614   6.205  0.3531 -0.0332  0.4280
  206MOL0     H28359   8.706  10.151   6.373 -0.4457  1.8975  0.5115
  206MOL0     H28360   8.947  10.200   6.409  0.4923  0.7359  0.4953
  206MOL0     H28361   9.161   9.935   6.709 -2.8890  1.6190  1.0003
  206MOL0     H28362   9.244  10.095   6.694 -0.7814  1.1445 -0.1590
  206MOL0     H28363   9.299   9.856   6.509  3.0421 -1.9323  1.5530
  206MOL0     H28364   9.395  10.001   6.532  0.7732  0.4394  1.8066
  206MOL0     H28365   9.453   9.916   6.763  0.4463  0.1407 -0.9453
  206MOL0     H28366   9.339   9.781   6.722 -1.6542 -0.4810 -1.5766
  206MOL0     H28367   9.507   9.746   6.513  2.2322  1.0216 -2.5701
  206MOL0     H28368   9.598   9.881   6.582  1.8985 -1.1299  1.7000
  206MOL0     H28369   9.562   9.613   6.706 -1.8876  1.3178 -0.7435
  206MOL0     H28370   9.663   9.741   6.773  3.0475 -2.6950  0.7825
  206MOL0     H28371   9.808   9.580   6.644  1.6820 -0.6607 -0.8297
  206MOL0     H28372   9.696   9.593   6.506 -2.1088 -0.1061  1.5436
  206MOL0     H28373   9.780   9.837   6.482  1.2816  1.7447 -0.4991
  206MOL0     H28374   9.902   9.710   6.458 -1.2803 -2.4492  0.3727
  206MOL0     H28375   9.974   9.914   6.581  0.1478  0.1833  0.9776
  206MOL0     H28376   9.873   9.877   6.714 -0.1476  0.3277 -0.1175
  206MOL0     H28377  10.164   9.748   6.498  0.4764  0.7516  0.0390
  206MOL0     H28378  10.338   9.498   6.542 -0.7741  2.6054 -1.8478
  206MOL0     H28379  10.370   9.473   6.709  0.6515  1.5738  1.4977
  206MOL0     H28380  10.441   9.731   6.544 -1.6653 -0.7474 -0.3417
  206MOL0     H28381  10.477   9.699   6.715  0.5061 -2.4441  1.8783
  206MOL0     H28382  10.668   9.634   6.629 -0.9463  2.1621 -0.6504
  206MOL0     H28383  10.595   9.476   6.616  0.1269 -0.2482 -1.9196
  206MOL0     H28384  10.558   9.469   6.387  0.9975  0.1147  0.0365
  206MOL0     H28385  10.556   9.651   6.378 -0.0425  0.2133 -0.7329
  206MOL0     H28386  10.966   9.504   6.288 -1.4320  0.0294  1.8186
  206MOL0     H28387  11.094   9.370   5.991  0.8821 -0.4950  1.4150
  206MOL0     H28388  11.139   9.491   6.129 -1.7010  0.2024  1.4409
  206MOL0     H28389  11.102   9.542   5.966 -2.1503  0.3012 -0.3992
  206MOL0     H28390  10.814   9.357   5.555 -1.3809  0.1879  2.2279
  206MOL0     H28391  10.949   9.301   5.340 -0.5475  0.0863 -0.8685
  206MOL0     H28392  11.362   9.450   5.379 -0.4381  0.0996 -1.7804
  206MOL0     H28393  11.399   9.279   5.359 -0.2180  0.1100  2.5650
  206MOL0     H28394  11.376   9.299   5.125 -0.6244 -0.6605  2.8969
  206MOL0     H28395  11.314   9.467   5.144 -2.1034 -1.6525 -0.8451
  206MOL0     H28396  11.565   9.518   5.237  0.0347  1.2201 -1.4411
  206MOL0     H28397  11.566   9.471   5.066  1.1176 -0.7495 -0.4153
  206MOL0     H28398  11.600   9.244   5.112  2.3329 -1.6551  0.8461
  206MOL0     H28399  11.601   9.285   5.289 -0.1866  3.6221  2.6466
  206MOL0     H28400  11.821   9.237   5.156  1.3532  0.2511 -1.3425
  206MOL0     H28401  11.793   9.393   5.070 -1.5764  2.1728  0.5815
  206MOL0     H28402  11.796   9.388   5.366  0.8055  1.5862  0.5024
  206MOL0     H28403  11.833   9.524   5.274 -1.4552  0.4623 -0.6146
  206MOL0     H28404  12.018   9.262   5.255 -0.3111 -0.9332 -1.6771
  206MOL0     H28405  12.056   9.414   5.347 -1.3432  0.8388 -0.9832
  206MOL0     H28406  12.077   9.534   5.131 -0.9852 -0.6073 -2.2816
  206MOL0     H28407  12.037   9.387   5.045 -0.6295 -0.1727 -0.0692
  206MOL0     H28408  11.299   9.359   5.569 -0.4690  0.5174  0.9141
  206MOL0     H28409  11.187   9.374   5.777 -0.5060 -0.2978  1.0488
  206MOL0     H28410  10.623   9.545   5.941  0.5025  0.4869 -2.2321
  206MOL0     H28411  10.567   9.587   6.160 -0.5763 -1.0943  0.6443
  206MOL0     H28412   8.990   9.818   6.624  1.4284 -0.5892 -0.0305
  206MOL0     H28413   8.747   9.776   6.572  2.3233 -2.2435 -1.0760
  206MOL0     H28414   8.425  10.065   6.335 -0.9003 -0.8476  1.0964
  206MOL0     H28415   8.232  10.120   6.192  1.5671  0.8475 -0.2991
  206MOL0     H28416   8.174   9.894   5.849 -0.4822 -1.3342 -0.1339
  206MOL0     H28417   8.056   9.784   5.937  2.0592 -0.9207  0.0503
  206MOL0     H28418   7.969   9.877   5.756 -2.2973 -2.1909  1.4321
  206MOL0     H28419   7.986  10.045   5.820 -2.2588  0.0374 -3.6853
  206MOL0     H28420   7.827   9.807   5.921  1.1320  0.4689  2.4850
  206MOL0     H28421   7.858   9.943   6.023  0.3732  0.7666  0.0949
  206MOL0     H28422   7.716   9.978   5.744  0.6659  0.2248  0.5345
  206MOL0     H28423   7.720  10.098   5.862 -0.1285 -0.7594 -1.5272
  206MOL0     H28424   7.413   9.849   5.998 -0.0720 -0.4410 -0.4815
  206MOL0     H28425   8.192   9.717   6.071  1.8269 -2.3517  0.5046
  206MOL0     H28426   8.306   9.545   6.201  0.4791 -0.2701  1.6274
  206MOL0     H28427   8.461   9.595   6.124  1.9637  2.6143  1.0878
  206MOL0     H28428   8.434   9.577   6.298 -0.3050 -1.4356  0.2039
  207MOL0     O28429   7.453   8.107   4.867 -0.0450  0.5316  0.4484
  207MOL0     C28430   7.355   8.096   4.931  0.7910 -0.5633 -0.4095
  207MOL0     O28431   7.352   8.089   5.069 -0.0695 -0.2556 -0.7663
  207MOL0     C28432   7.467   8.105   5.139 -0.3869  0.2326  0.7610
  207MOL0     C28433   7.476   8.203   5.232  0.4089 -0.8969  0.1116
  207MOL0     C28434   7.581   8.208   5.315 -0.4560 -0.2352 -0.2829
  207MOL0     C28435   7.690   8.116   5.314  0.7997  0.1402  1.5806
  207MOL0     O28436   7.799   8.147   5.391 -0.0835  0.2496  0.3231
  207MOL0     C28437   7.911   8.059   5.384  0.5181  0.3415  0.7924
  207MOL0     C28438   8.014   8.114   5.480 -0.1549  0.6269 -0.1169
  207MOL0     C28439   8.113   8.213   5.419 -0.2331 -0.6451  0.1278
  207MOL0     C28440   8.235   8.225   5.502  0.2084 -0.1930 -0.0855
  207MOL0     C28441   8.346   8.295   5.425 -0.4574 -0.2681  0.4373
  207MOL0     C28442   8.461   8.336   5.521  1.2162  0.1147  0.2024
  207MOL0     C28443   8.546   8.450   5.467 -0.8729 -0.7435 -0.1987
  207MOL0     C28444   8.698   8.424   5.478 -0.6746  0.4483 -0.0385
  207MOL0     N28445   8.733   8.294   5.418  0.0700 -0.0898 -0.1999
  207MOL0     C28446   8.744   8.267   5.289  0.3469  0.3485  0.2375
  207MOL0     C28447   8.765   8.131   5.279  0.2356  0.5937 -0.8324
  207MOL0     C28448   8.755   8.053   5.149  0.2069  0.2056  0.0823
  207MOL0     C28449   8.892   8.035   5.064 -0.1391 -0.0962  0.6281
  207MOL0     C28450   9.011   7.981   5.149 -0.5436 -0.6546 -0.7696
  207MOL0     C28451   9.019   7.832   5.172 -0.0523  0.2164  0.0436
  207MOL0     O28452   9.128   7.797   5.260 -0.3020 -0.5157 -0.1354
  207MOL0     C28453   9.255   7.787   5.215  0.1751 -0.5141 -0.5406
  207MOL0     C28454   9.359   7.841   5.295 -0.7134  0.2087  0.1141
  207MOL0     C28455   9.496   7.854   5.263  0.3473  0.0173  0.2892
  207MOL0     C28456   9.591   7.932   5.355  0.0783  0.5517 -0.0308
  207MOL0     C28457   9.536   7.799   5.134 -0.3522  0.1701  0.4553
  207MOL0     C28458   9.674   7.775   5.091  0.6308  0.7279  0.5717
  207MOL0     O28459   9.698   7.807   4.965 -0.4909  0.6012  0.1612
  207MOL0     C28460   9.825   7.781   4.921 -0.3845  0.0323  1.0078
  207MOL0     C28461   9.833   7.691   4.811 -0.7123 -0.2935 -0.4158
  207MOL0     C28462   9.965   7.669   4.764  0.5802  0.2254 -0.2808
  207MOL0     C28463  10.089   7.712   4.824  0.5658 -0.2781 -0.0705
  207MOL0     O28464  10.211   7.663   4.778  0.3056 -0.1162  0.0462
  207MOL0     C28465  10.334   7.726   4.811 -0.2666  0.6743 -0.1409
  207MOL0     C28466  10.382   7.661   4.939 -0.5297  0.0470 -0.3575
  207MOL0     C28467  10.513   7.716   4.977 -0.4033 -0.1924  0.6282
  207MOL0     C28468  10.560   7.640   5.094 -0.4933 -0.3990 -0.1471
  207MOL0     C28469  10.705   7.685   5.111 -0.5043  0.4008  0.0929
  207MOL0     C28470  10.784   7.573   5.181 -0.8574 -0.6441  0.3167
  207MOL0     C28471  10.939   7.605   5.186  0.6829 -0.2781  0.1287
  207MOL0     C28472  11.015   7.481   5.240  0.2758  0.2965  0.3144
  207MOL0    Cl28473  11.001   7.462   5.413 -0.4060 -0.3150 -0.5097
  207MOL0     C28474  10.068   7.787   4.943  0.3338  0.6598 -0.0415
  207MOL0     C28475   9.941   7.831   4.980  0.0120  0.0528 -0.2000
  207MOL0     O28476   9.748   7.718   5.170  0.2910 -0.5936  0.5662
  207MOL0     C28477   9.429   7.751   5.057 -0.2233  0.6664 -0.0193
  207MOL0     C28478   9.296   7.737   5.087  0.0431  0.0333 -0.3143
  207MOL0     N28479   8.775   8.076   5.404 -0.3900 -0.0733 -0.3092
  207MOL0     N28480   8.764   8.174   5.492  0.4839  0.4685  0.5202
  207MOL0     C28481   7.689   8.024   5.205 -0.6657 -0.1761  0.2820
  207MOL0     C28482   7.579   8.010   5.122 -0.1068 -0.2127 -0.1838
  207MOL0     C28483   7.224   8.095   4.869 -0.4932  0.1819  0.5416
  207MOL0     C28484   7.113   8.136   4.939  0.2904 -0.9750  0.5540
  207MOL0     C28485   6.988   8.135   4.877  0.7027  0.5964  0.8134
  207MOL0     C28486   6.965   8.063   4.764  0.7816  0.1270  0.4029
  207MOL0     O28487   6.844   8.050   4.699 -0.1937  0.2397  0.2016
  207MOL0     C28488   6.719   8.091   4.760  0.3777  0.1225 -0.0372
  207MOL0     C28489   6.606   8.048   4.658 -0.4514 -0.7815  0.3845
  207MOL0     C28490   6.466   8.098   4.686  0.8556 -0.1031  0.0179
  207MOL0     C28491   6.446   8.248   4.692 -0.2353  0.2601 -0.3426
  207MOL0     C28492   6.308   8.284   4.691  0.0860 -0.4958  0.1142
  207MOL0     C28493   6.187   8.309   4.695 -0.2848 -0.5460  0.4608
  207MOL0     C28494   7.078   8.016   4.690  0.6568  0.2349  0.2781
  207MOL0     C28495   7.205   8.037   4.737 -0.0994  0.1220 -0.1248
  207MOL0     C28496   7.316   7.980   4.650 -0.5377  0.6869 -0.4938
  207MOL0     H28497   7.401   8.281   5.229  2.7553  1.4887 -2.3149
  207MOL0     H28498   7.585   8.277   5.399 -1.0257 -2.1485  1.4213
  207MOL0     H28499   7.944   8.058   5.280  1.1217 -0.5086  0.9788
  207MOL0     H28500   7.878   7.964   5.428  1.0093  0.8149  2.2619
  207MOL0     H28501   7.954   8.162   5.559  0.5582 -0.0315  0.8430
  207MOL0     H28502   8.058   8.029   5.531 -5.5689 -1.2041  2.2580
  207MOL0     H28503   8.137   8.179   5.319 -1.4786  0.7904 -0.7031
  207MOL0     H28504   8.058   8.307   5.409 -0.6922 -1.1887 -3.3249
  207MOL0     H28505   8.205   8.287   5.587 -1.0894 -0.3454 -0.4102
  207MOL0     H28506   8.267   8.125   5.531  2.4878 -0.6485 -3.5873
  207MOL0     H28507   8.303   8.376   5.364 -0.8186  0.0361  1.0799
  207MOL0     H28508   8.381   8.218   5.356 -1.7439 -3.4787  3.0727
  207MOL0     H28509   8.434   8.364   5.623  1.1283 -0.2941  0.2928
  207MOL0     H28510   8.521   8.246   5.541  1.7201 -0.3457 -2.7947
  207MOL0     H28511   8.522   8.538   5.527 -4.1063 -2.7363  1.7804
  207MOL0     H28512   8.522   8.465   5.361 -2.5459  0.1085  0.2673
  207MOL0     H28513   8.759   8.497   5.424  0.0238 -0.4321 -0.4783
  207MOL0     H28514   8.744   8.424   5.577  2.6547 -1.4292 -1.4195
  207MOL0     H28515   8.724   8.332   5.205  0.3242  1.2382  0.9142
  207MOL0     H28516   8.667   8.090   5.094 -0.0750  0.5777  0.7588
  207MOL0     H28517   8.730   7.950   5.175  2.9068 -0.4612  0.2359
  207MOL0     H28518   8.876   7.973   4.976 -1.0762 -0.3458  0.9670
  207MOL0     H28519   8.906   8.138   5.029  0.8115 -0.0591  1.0824
  207MOL0     H28520   9.096   8.013   5.088 -0.6825 -1.1247 -1.2192
  207MOL0     H28521   8.999   8.039   5.241 -1.0633  0.4936 -1.5364
  207MOL0     H28522   8.923   7.803   5.214 -0.2897 -1.1111 -1.3342
  207MOL0     H28523   9.024   7.767   5.084 -0.4645 -0.8688  0.8021
  207MOL0     H28524   9.323   7.883   5.388 -0.1279  0.7048  0.1301
  207MOL0     H28525   9.549   7.923   5.455  0.2571 -2.3087 -0.1290
  207MOL0     H28526   9.600   8.034   5.318  3.6054 -0.3969 -2.2770
  207MOL0     H28527   9.693   7.892   5.354 -0.0368  0.2503 -1.1634
  207MOL0     H28528   9.745   7.653   4.761 -1.0296  3.0792 -2.7285
  207MOL0     H28529   9.961   7.602   4.678  0.9934 -0.1955  0.0203
  207MOL0     H28530  10.399   7.721   4.724 -2.1565  2.5979 -1.7725
  207MOL0     H28531  10.312   7.830   4.836  0.1712  1.0688 -1.3422
  207MOL0     H28532  10.313   7.672   5.023 -1.4234 -0.8041 -0.9581
  207MOL0     H28533  10.393   7.554   4.922  0.8991  0.2264 -0.6852
  207MOL0     H28534  10.508   7.824   4.996  3.0431  0.3022 -0.5374
  207MOL0     H28535  10.579   7.701   4.891 -1.7767 -0.4775 -0.3946
  207MOL0     H28536  10.561   7.533   5.071  3.2158 -0.4007 -0.5645
  207MOL0     H28537  10.498   7.658   5.182  1.0315  0.4754  0.7902
  207MOL0     H28538  10.753   7.677   5.013 -0.2951 -0.1494  0.2353
  207MOL0     H28539  10.719   7.781   5.160  0.3685  0.3655 -0.0788
  207MOL0     H28540  10.766   7.471   5.145 -1.7870 -0.4178  0.1156
  207MOL0     H28541  10.750   7.574   5.285  2.7234  1.5551  1.6828
  207MOL0     H28542  10.951   7.684   5.261 -1.9480 -0.2533  0.6349
  207MOL0     H28543  10.990   7.633   5.094 -1.8438  0.3018 -1.1972
  207MOL0     H28544  11.117   7.497   5.206 -0.1023  1.1259 -0.4529
  207MOL0     H28545  10.984   7.392   5.185  0.7012  0.8839 -0.9000
  207MOL0     H28546  10.153   7.835   4.990 -0.3351  2.6681 -0.7495
  207MOL0     H28547   9.929   7.902   5.061  0.5118 -0.7720  0.5970
  207MOL0     H28548   9.455   7.700   4.965  0.9911  3.4309 -1.3462
  207MOL0     H28549   9.218   7.705   5.019 -0.0638  1.3114 -0.8203
  207MOL0     H28550   7.771   7.952   5.202  0.3750  0.9484  0.9280
  207MOL0     H28551   7.574   7.921   5.061 -0.0042 -1.1390  1.1079
  207MOL0     H28552   7.124   8.188   5.033  0.7791 -0.2696  0.1205
  207MOL0     H28553   6.901   8.180   4.924  0.6252 -1.2214  2.5574
  207MOL0     H28554   6.709   8.029   4.850  3.0769  1.2270  1.1303
  207MOL0     H28555   6.714   8.197   4.785 -1.1129  0.1040 -0.1655
  207MOL0     H28556   6.592   7.940   4.668 -1.7234 -0.7449 -0.6899
  207MOL0     H28557   6.630   8.090   4.560 -0.9715  2.9574  1.6992
  207MOL0     H28558   6.400   8.066   4.605 -2.1081 -1.8394  2.8647
  207MOL0     H28559   6.428   8.044   4.773  0.1903  0.9304  0.3804
  207MOL0     H28560   6.498   8.287   4.604  1.4431 -3.1969 -1.0486
  207MOL0     H28561   6.497   8.278   4.784 -1.8261 -3.4855  1.9942
  207MOL0     H28562   6.080   8.317   4.689 -0.1756  0.8547  0.0553
  207MOL0     H28563   7.065   7.968   4.594 -2.1725  2.5887 -0.6733
  207MOL0     H28564   7.370   8.050   4.585 -0.7502 -0.3696 -1.8565
  207MOL0     H28565   7.381   7.920   4.714 -1.9221 -0.0130  0.2859
  207MOL0     H28566   7.284   7.890   4.597  2.5058 -0.8997  0.1591
  208MOL0     O28567   0.539   8.480   7.860 -0.6152 -0.7328 -0.2342
  208MOL0     C28568   0.524   8.431   7.973 -0.2226  0.4183  0.1168
  208MOL0     O28569   0.608   8.446   8.076 -0.2888 -0.8350  0.4262
  208MOL0     C28570   0.744   8.460   8.050  1.0351 -0.1448 -0.1138
  208MOL0     C28571   0.812   8.447   7.922 -0.3600 -0.0167 -0.5341
  208MOL0     C28572   0.947   8.457   7.907 -0.2114 -0.9420  0.4108
  208MOL0     C28573   1.032   8.481   8.019 -0.4983 -0.4072 -0.0930
  208MOL0     O28574   1.167   8.507   8.011  0.0128  0.2457  0.2047
  208MOL0     C28575   1.234   8.489   7.882 -0.1825  0.6376 -0.5705
  208MOL0     C28576   1.376   8.495   7.903 -0.4586  0.3354  0.0925
  208MOL0     C28577   1.426   8.377   7.993  0.9992 -0.5018 -0.2737
  208MOL0     C28578   1.574   8.394   8.006  0.1739  0.4442 -0.7267
  208MOL0     C28579   1.633   8.270   8.076 -0.2257  0.4693  0.3694
  208MOL0     C28580   1.774   8.304   8.112  0.5152 -0.2187 -0.0312
  208MOL0     C28581   1.865   8.195   8.174  0.1516  0.0304 -0.1057
  208MOL0     C28582   2.002   8.265   8.215 -0.7460  0.4975 -0.7117
  208MOL0     N28583   2.067   8.182   8.306 -0.0810  0.2785 -0.4281
  208MOL0     C28584   2.037   8.152   8.438  0.0453 -0.8470  0.2355
  208MOL0     C28585   2.155   8.106   8.490 -0.8174  0.6734  0.2023
  208MOL0     C28586   2.185   8.065   8.634  1.2296  0.2042 -0.1522
  208MOL0     C28587   2.228   8.178   8.725  0.5865  0.1384 -0.5858
  208MOL0     C28588   2.368   8.247   8.707  0.1556 -0.0062 -0.3445
  208MOL0     C28589   2.476   8.146   8.705  0.0452 -0.5754  0.3258
  208MOL0     O28590   2.458   8.040   8.805 -0.4400  0.1938 -0.1742
  208MOL0     C28591   2.524   7.926   8.814  1.5201  0.4611  0.5415
  208MOL0     C28592   2.480   7.841   8.908  0.6392 -0.5048 -0.7080
  208MOL0     C28593   2.547   7.723   8.946  0.6512  0.0073  0.1840
  208MOL0     C28594   2.496   7.656   9.070  0.0849 -0.3467 -0.7483
  208MOL0     C28595   2.654   7.679   8.859  0.2489 -0.7715 -0.1017
  208MOL0     C28596   2.736   7.559   8.876 -0.0558  0.4544 -1.2577
  208MOL0     O28597   2.855   7.558   8.814 -0.3714 -0.7730 -0.1282
  208MOL0     C28598   2.937   7.456   8.833 -0.0416  0.3648  0.8450
  208MOL0     C28599   2.899   7.340   8.763 -0.0691  0.3798 -0.5533
  208MOL0     C28600   2.992   7.232   8.765 -0.7221  0.3935 -0.7774
  208MOL0     C28601   3.108   7.239   8.839 -0.3460  0.8125  0.5321
  208MOL0     O28602   3.191   7.133   8.829  0.2358 -0.3168  0.2014
  208MOL0     C28603   3.247   7.082   8.951 -0.4494  0.0906  0.5125
  208MOL0     C28604   3.282   6.929   8.929 -0.0004 -0.0153 -0.5985
  208MOL0     C28605   3.386   6.912   8.815  0.0595  0.5212  0.8025
  208MOL0     C28606   3.427   6.764   8.789  0.3373  0.1741 -0.1877
  208MOL0     C28607   3.567   6.762   8.720  0.4282  0.9123  0.2201
  208MOL0     C28608   3.615   6.625   8.663  0.5653  0.5665  0.9851
  208MOL0     C28609   3.644   6.513   8.772  0.0402 -0.5190 -0.0966
  208MOL0     C28610   3.649   6.377   8.709  0.1294  0.1482  0.3418
  208MOL0    Cl28611   3.677   6.239   8.823 -0.3073 -0.3571 -0.1336
  208MOL0     C28612   3.145   7.354   8.913  0.4485 -0.8826  0.4773
  208MOL0     C28613   3.055   7.467   8.904  0.3566  0.0421 -0.2240
  208MOL0     O28614   2.700   7.473   8.956  0.2823 -0.2013  0.2998
  208MOL0     C28615   2.681   7.759   8.748 -0.7445  0.3380  0.2286
  208MOL0     C28616   2.618   7.888   8.723 -0.0033  1.4285  0.0091
  208MOL0     N28617   2.247   8.099   8.391  0.1238 -0.1178  0.0522
  208MOL0     N28618   2.198   8.148   8.280  0.3855  0.1572  0.2652
  208MOL0     C28619   0.970   8.488   8.148  0.1327 -0.3174  0.3163
  208MOL0     C28620   0.824   8.476   8.165 -0.2628 -0.2744  0.2126
  208MOL0     C28621   0.404   8.341   7.991  0.0109  0.4836  0.5053
  208MOL0     C28622   0.439   8.212   8.026  0.4741  0.2902  1.2595
  208MOL0     C28623   0.329   8.124   8.043 -0.2094 -0.0458  0.0621
  208MOL0     C28624   0.194   8.161   8.031 -1.1854  0.1068  0.9002
  208MOL0     O28625   0.092   8.087   8.078 -0.2155 -0.2375 -0.0988
  208MOL0     C28626   0.042   7.995   7.976 -0.2050 -0.3272  0.1243
  208MOL0     C28627   0.094   7.856   7.992  0.1351  0.0114  0.2909
  208MOL0     C28628   0.031   7.768   8.102  0.2245 -0.7369 -0.2976
  208MOL0     C28629   0.033   7.624   8.068  0.3485  0.1986  0.9514
  208MOL0     C28630   0.175   7.571   8.079 -0.4822  0.2802  0.4122
  208MOL0     C28631   0.288   7.521   8.075  0.8871 -0.5638 -0.0673
  208MOL0     C28632   0.167   8.289   7.980 -0.8187  0.2956 -0.7415
  208MOL0     C28633   0.277   8.382   7.965 -0.3927  0.9412  0.7654
  208MOL0     C28634   0.231   8.522   7.918  0.4595  0.3566 -0.5601
  208MOL0     H28635   0.769   8.435   7.823  1.1872  3.0614 -1.7143
  208MOL0     H28636   0.995   8.455   7.809  2.8048  0.8529  1.7005
  208MOL0     H28637   1.210   8.556   7.799  1.4391 -0.9588 -2.4464
  208MOL0     H28638   1.203   8.389   7.848  0.5932 -0.7278  2.4059
  208MOL0     H28639   1.429   8.499   7.808  0.8757 -1.3528  0.7051
  208MOL0     H28640   1.399   8.586   7.959 -0.4848  0.3906  0.0152
  208MOL0     H28641   1.369   8.373   8.086  1.8855 -0.0759  0.2966
  208MOL0     H28642   1.410   8.278   7.948  0.5210 -0.8661  0.6664
  208MOL0     H28643   1.630   8.396   7.912  1.7431 -1.9492  0.0604
  208MOL0     H28644   1.586   8.484   8.069 -1.0932 -1.6126  2.7061
  208MOL0     H28645   1.636   8.192   8.000 -0.5564  1.3297 -0.5501
  208MOL0     H28646   1.572   8.229   8.157 -1.3346  0.7519 -0.2882
  208MOL0     H28647   1.826   8.340   8.022 -2.1445  0.8014 -1.2650
  208MOL0     H28648   1.766   8.385   8.185 -1.1571 -0.7713  0.4406
  208MOL0     H28649   1.878   8.114   8.102  0.5949  0.0443 -0.0386
  208MOL0     H28650   1.818   8.157   8.266  0.5619 -0.0563  0.0675
  208MOL0     H28651   2.066   8.292   8.130 -0.7413 -0.3897 -0.9975
  208MOL0     H28652   2.000   8.357   8.274  2.5864 -0.1972  0.7218
  208MOL0     H28653   1.948   8.170   8.497 -1.2700  0.8965 -2.0820
  208MOL0     H28654   2.272   7.998   8.634  0.0970 -1.3120  0.1352
  208MOL0     H28655   2.102   8.014   8.684  0.7962 -1.8467 -2.7223
  208MOL0     H28656   2.147   8.252   8.723  0.3638 -0.1081 -2.3576
  208MOL0     H28657   2.227   8.142   8.828 -0.3557 -1.2491 -1.0478
  208MOL0     H28658   2.377   8.307   8.615  2.2897 -1.4971 -1.1859
  208MOL0     H28659   2.366   8.317   8.791 -4.3278 -0.3881  0.0852
  208MOL0     H28660   2.498   8.105   8.607 -1.2008  1.8744 -1.0832
  208MOL0     H28661   2.567   8.198   8.737 -0.1921 -1.2367  2.2251
  208MOL0     H28662   2.400   7.880   8.971 -0.5147 -1.5011 -1.4960
  208MOL0     H28663   2.435   7.733   9.118  0.9233  0.4627 -0.9720
  208MOL0     H28664   2.586   7.635   9.129 -1.2656  1.0046  2.0083
  208MOL0     H28665   2.445   7.560   9.052 -0.7728  0.5840 -3.7084
  208MOL0     H28666   2.806   7.338   8.709 -1.8145 -2.0690  2.2467
  208MOL0     H28667   2.963   7.141   8.713  0.3413 -0.6727  0.4381
  208MOL0     H28668   3.342   7.132   8.972  0.4006  0.6860 -3.8569
  208MOL0     H28669   3.180   7.090   9.037 -0.0792  0.5938  0.7566
  208MOL0     H28670   3.330   6.886   9.017  1.0778 -2.8915 -2.4163
  208MOL0     H28671   3.185   6.880   8.913 -0.8416  0.6135  2.0788
  208MOL0     H28672   3.476   6.972   8.828 -1.0988  2.2100  1.2822
  208MOL0     H28673   3.333   6.937   8.722  0.7469 -2.4787 -0.5093
  208MOL0     H28674   3.348   6.715   8.730 -1.2939  2.4255 -0.0212
  208MOL0     H28675   3.421   6.707   8.881 -1.2610 -1.1074 -1.0401
  208MOL0     H28676   3.571   6.838   8.642  2.0341  2.4610  1.7296
  208MOL0     H28677   3.635   6.799   8.797  0.7425 -2.5524  1.7958
  208MOL0     H28678   3.695   6.626   8.589 -1.1456 -4.9018 -1.4241
  208MOL0     H28679   3.530   6.589   8.604  0.7905 -0.9085  1.5177
  208MOL0     H28680   3.569   6.500   8.851  2.6888 -0.4958  2.5791
  208MOL0     H28681   3.740   6.537   8.819 -1.0800 -0.0403  2.1113
  208MOL0     H28682   3.728   6.371   8.634  0.2321  0.5395  0.4180
  208MOL0     H28683   3.554   6.352   8.661  0.3851 -0.1559 -0.0168
  208MOL0     H28684   3.238   7.353   8.969  1.0541 -0.3715 -0.4942
  208MOL0     H28685   3.086   7.566   8.935  0.3445  1.1739 -3.4863
  208MOL0     H28686   2.762   7.724   8.685 -0.1165  0.1640  1.1183
  208MOL0     H28687   2.660   7.947   8.642 -1.5222  3.5160  0.6680
  208MOL0     H28688   1.033   8.494   8.237  0.3167 -0.2426  0.1808
  208MOL0     H28689   0.786   8.470   8.266  1.0224  0.7008  0.7710
  208MOL0     H28690   0.538   8.173   8.048  0.7676  0.3523  0.1341
  208MOL0     H28691   0.351   8.026   8.084  2.4178 -0.1966 -1.4677
  208MOL0     H28692  -0.067   8.006   7.978 -0.2031  0.0576 -0.8387
  208MOL0     H28693   0.076   8.033   7.879  3.1430 -1.5888  0.6713
  208MOL0     H28694   0.203   7.855   7.997  0.3300 -0.5088 -2.3046
  208MOL0     H28695   0.073   7.800   7.900 -0.2946 -3.0295  2.1249
  208MOL0     H28696   0.080   7.777   8.199 -1.7757 -1.3759  0.8282
  208MOL0     H28697  -0.070   7.805   8.120  1.0366  0.8323  1.3784
  208MOL0     H28698  -0.009   7.613   7.968 -0.7237 -0.8361  1.4835
  208MOL0     H28699  -0.034   7.569   8.136 -0.4191 -2.7483 -1.9360
  208MOL0     H28700   0.385   7.475   8.082  0.8302 -0.7004 -0.1751
  208MOL0     H28701   0.067   8.329   7.963 -1.8593 -0.1081  3.3312
  208MOL0     H28702   0.131   8.547   7.953  1.1510  2.1006  0.2513
  208MOL0     H28703   0.297   8.601   7.953 -1.0820  1.7852 -0.7745
  208MOL0     H28704   0.229   8.536   7.809 -3.1676 -1.0053 -0.7988
  209MOL0     O28705   6.832   5.782  11.120  1.3257  1.0042 -0.2628
  209MOL0     C28706   6.889   5.895  11.107  0.4106 -0.6145 -0.3314
  209MOL0     O28707   6.818   6.008  11.065  0.0565 -0.5308 -0.7943
  209MOL0     C28708   6.690   5.990  11.023  0.8094  1.0475 -0.0961
  209MOL0     C28709   6.657   5.921  10.904  0.4555 -0.0704  0.4601
  209MOL0     C28710   6.525   5.914  10.861  0.5757 -0.5455 -0.4142
  209MOL0     C28711   6.429   5.987  10.930  0.8485  0.1538  0.5109
  209MOL0     O28712   6.301   5.988  10.903 -0.0769 -0.1400 -0.1409
  209MOL0     C28713   6.246   5.930  10.782  0.0629 -0.7504  0.2429
  209MOL0     C28714   6.188   5.791  10.799 -0.2768 -0.8940  0.0533
  209MOL0     C28715   6.069   5.796  10.902 -0.0702  0.0930 -0.5476
  209MOL0     C28716   6.106   5.739  11.043  0.0538 -1.0835  0.3418
  209MOL0     C28717   5.997   5.770  11.140  0.9500 -0.4595  0.0334
  209MOL0     C28718   6.042   5.739  11.281  0.1778  0.2879 -0.1232
  209MOL0     C28719   6.147   5.833  11.340  0.9052 -0.5285 -1.0778
  209MOL0     C28720   6.095   5.974  11.368  0.3777 -0.4489  0.2125
  209MOL0     N28721   6.200   6.040  11.453  0.3506  0.5841  0.0972
  209MOL0     C28722   6.223   6.022  11.590  0.8190  0.3820  1.4001
  209MOL0     C28723   6.330   6.095  11.605  0.3161 -0.2248 -0.3426
  209MOL0     C28724   6.390   6.123  11.737  1.2693 -0.4617  0.0770
  209MOL0     C28725   6.540   6.103  11.747 -0.5331 -0.6966  0.3267
  209MOL0     C28726   6.617   6.127  11.880 -0.0271 -0.9945 -0.5456
  209MOL0     C28727   6.762   6.171  11.864 -0.5179 -0.1815  0.5936
  209MOL0     O28728   6.829   6.127  11.983 -0.1169 -0.8347 -0.1236
  209MOL0     C28729   6.956   6.133  11.997 -0.4251  0.4264 -0.2645
  209MOL0     C28730   7.000   6.108  12.130 -0.1215  1.1271 -0.0063
  209MOL0     C28731   7.143   6.123  12.168  0.4479 -0.8178  0.1453
  209MOL0     C28732   7.182   6.093  12.314 -0.0320  0.2758  0.5811
  209MOL0     C28733   7.234   6.159  12.070  1.0192  0.5286  0.1387
  209MOL0     C28734   7.382   6.165  12.090  0.6968 -0.0966 -0.1777
  209MOL0     O28735   7.432   6.148  12.217  0.1473 -0.1344 -0.3699
  209MOL0     C28736   7.565   6.154  12.242 -0.0334 -0.2325  0.5459
  209MOL0     C28737   7.609   6.074  12.349  0.5416 -0.3872  0.3631
  209MOL0     C28738   7.740   6.077  12.384  0.2690 -0.4583  0.7680
  209MOL0     C28739   7.839   6.156  12.323  0.0081 -1.0456 -0.3106
  209MOL0     O28740   7.972   6.166  12.355 -0.8678 -0.7825  0.7574
  209MOL0     C28741   8.031   6.077  12.460 -0.0108 -0.7042 -0.0537
  209MOL0     C28742   8.178   6.100  12.457 -0.4001  0.1665  0.7049
  209MOL0     C28743   8.245   6.045  12.333 -0.0965 -0.6787  1.1300
  209MOL0     C28744   8.386   6.101  12.313  0.6235  0.2443  0.1359
  209MOL0     C28745   8.472   6.040  12.198 -0.4504 -0.1712 -0.8804
  209MOL0     C28746   8.626   6.055  12.217 -0.1919 -0.4298  0.1456
  209MOL0     C28747   8.672   6.206  12.221  0.0081  0.4557  0.0458
  209MOL0     C28748   8.823   6.219  12.238 -0.2115  0.1288  0.2658
  209MOL0    Cl28749   8.886   6.113  12.372 -0.0328  0.1431 -0.1340
  209MOL0     C28750   7.796   6.234  12.211  0.3266 -0.6223  1.2562
  209MOL0     C28751   7.659   6.237  12.171 -0.0434 -0.0578 -0.2030
  209MOL0     O28752   7.445   6.163  11.986  0.6947  0.1883 -0.4444
  209MOL0     C28753   7.186   6.173  11.939  0.3944 -0.4806  0.3840
  209MOL0     C28754   7.050   6.160  11.901  0.4291  0.5561 -0.1707
  209MOL0     N28755   6.376   6.143  11.484 -1.2038  0.0544 -0.3835
  209MOL0     N28756   6.303   6.102  11.394 -0.4545  0.2136  0.3195
  209MOL0     C28757   6.458   6.054  11.046 -0.3186  0.2403 -0.4474
  209MOL0     C28758   6.590   6.050  11.090  0.7484  0.3753 -1.0786
  209MOL0     C28759   7.036   5.905  11.140 -0.5181  1.2076  0.8250
  209MOL0     C28760   7.100   5.782  11.171 -0.1505 -0.0363 -0.2464
  209MOL0     C28761   7.233   5.782  11.209  0.8233  1.0778 -0.7961
  209MOL0     C28762   7.295   5.911  11.231 -0.6718  0.8164  0.6485
  209MOL0     O28763   7.423   5.926  11.264 -0.7898  0.9764  0.4881
  209MOL0     C28764   7.503   5.809  11.303  0.0040  0.0941 -0.0975
  209MOL0     C28765   7.649   5.855  11.342  0.1001 -0.5002 -0.1420
  209MOL0     C28766   7.715   5.755  11.429 -0.5581  0.9111 -0.2673
  209MOL0     C28767   7.864   5.787  11.456 -0.2160 -0.0626 -0.5972
  209MOL0     C28768   7.919   5.700  11.559  0.0732  0.1562 -0.2591
  209MOL0     C28769   7.974   5.618  11.634 -0.8546 -0.2658  1.1006
  209MOL0     C28770   7.242   6.026  11.182  0.2690 -0.4123  0.7300
  209MOL0     C28771   7.110   6.027  11.128 -0.3951  0.8859 -0.2881
  209MOL0     C28772   7.053   6.157  11.081 -0.1145 -0.0760 -0.0703
  209MOL0     H28773   6.739   5.873  10.851  2.0979  0.4837  2.3328
  209MOL0     H28774   6.516   5.857  10.769 -0.0745 -2.3746  0.7313
  209MOL0     H28775   6.320   5.930  10.700 -0.7857  1.3362 -0.6064
  209MOL0     H28776   6.169   6.000  10.749 -1.7635 -3.3354 -1.3472
  209MOL0     H28777   6.143   5.762  10.704 -0.4617 -1.8016  0.4053
  209MOL0     H28778   6.265   5.718  10.827  0.2417 -0.2683  0.2738
  209MOL0     H28779   6.036   5.899  10.917 -0.2922 -0.2517  1.8122
  209MOL0     H28780   5.985   5.736  10.865 -0.4429 -0.4561  1.0621
  209MOL0     H28781   6.131   5.633  11.039 -0.7797 -1.2700 -0.3574
  209MOL0     H28782   6.203   5.784  11.066 -1.8935  2.7545  1.9638
  209MOL0     H28783   5.903   5.721  11.113 -1.0120  2.4975  0.9878
  209MOL0     H28784   5.986   5.878  11.125  0.7520 -0.7253 -1.9585
  209MOL0     H28785   5.947   5.724  11.332  0.3701 -0.2328  0.0861
  209MOL0     H28786   6.090   5.642  11.270  0.8367  0.5020  0.7484
  209MOL0     H28787   6.223   5.856  11.266  1.3248 -2.3030 -1.2497
  209MOL0     H28788   6.184   5.793  11.434  1.4765 -1.0645 -1.5221
  209MOL0     H28789   6.089   6.022  11.270  0.9100 -0.5295  0.1370
  209MOL0     H28790   5.996   5.977  11.413 -0.5192  0.4097 -1.7230
  209MOL0     H28791   6.163   5.975  11.668  0.0605  0.0695  0.6524
  209MOL0     H28792   6.331   6.048  11.791 -1.3554 -0.5173 -2.5982
  209MOL0     H28793   6.360   6.224  11.765 -1.1398 -0.4667 -2.0744
  209MOL0     H28794   6.557   6.000  11.714  0.8256  0.1175 -1.7918
  209MOL0     H28795   6.588   6.157  11.664 -0.3899 -2.8495 -1.0757
  209MOL0     H28796   6.564   6.206  11.934 -0.9493 -2.9851  1.6396
  209MOL0     H28797   6.612   6.036  11.940 -0.4996 -0.8279 -0.3304
  209MOL0     H28798   6.804   6.134  11.770  1.4010  3.0887  0.0016
  209MOL0     H28799   6.770   6.279  11.851  0.2693 -0.1776  1.0173
  209MOL0     H28800   6.928   6.071  12.203 -1.8248  1.0255 -1.6541
  209MOL0     H28801   7.220   6.182  12.366  2.3284 -1.3695  1.8220
  209MOL0     H28802   7.256   6.013  12.305  1.4316  1.8125 -2.3091
  209MOL0     H28803   7.090   6.065  12.368 -0.2868  1.6515  0.8976
  209MOL0     H28804   7.531   6.016  12.397 -0.5072 -2.0243 -3.0059
  209MOL0     H28805   7.772   6.032  12.478  3.0009 -1.3200 -0.4734
  209MOL0     H28806   7.998   6.104  12.560 -1.4348 -1.0852 -0.3965
  209MOL0     H28807   8.011   5.971  12.446 -1.1478 -0.4893 -0.1751
  209MOL0     H28808   8.187   6.208  12.473 -1.7549  0.6706 -1.5282
  209MOL0     H28809   8.221   6.043  12.540  0.0552 -1.1802 -0.4252
  209MOL0     H28810   8.179   6.078  12.252 -1.0039  0.7924  2.4094
  209MOL0     H28811   8.247   5.937  12.344  0.0956 -0.6487  1.4059
  209MOL0     H28812   8.437   6.077  12.406  1.2816 -2.0479 -0.7374
  209MOL0     H28813   8.376   6.208  12.290 -1.5616 -0.0069 -0.2892
  209MOL0     H28814   8.450   5.933  12.188 -0.2948 -0.1392 -1.5848
  209MOL0     H28815   8.446   6.076  12.098 -1.7760 -2.1483 -1.3067
  209MOL0     H28816   8.673   6.002  12.134  0.8023 -1.8081  1.5217
  209MOL0     H28817   8.661   6.004  12.308  0.6336  2.1584  1.3742
  209MOL0     H28818   8.619   6.253  12.304 -0.8277  1.1506 -0.8625
  209MOL0     H28819   8.631   6.259  12.135  0.0806  0.0780 -0.2242
  209MOL0     H28820   8.832   6.324  12.267  1.3542  1.1439 -3.3433
  209MOL0     H28821   8.882   6.192  12.150 -0.0927  0.6366  0.1891
  209MOL0     H28822   7.860   6.289  12.141 -2.9065  1.2182 -0.4871
  209MOL0     H28823   7.616   6.294  12.090  3.2350  0.5744 -1.6357
  209MOL0     H28824   7.252   6.205  11.858 -2.4121 -0.4891 -2.0989
  209MOL0     H28825   7.006   6.173  11.802  0.5722  4.6141  0.1273
  209MOL0     H28826   6.378   6.098  11.104  0.8200  0.3388  1.1067
  209MOL0     H28827   6.622   6.099  11.181  1.5687  2.2426 -2.3075
  209MOL0     H28828   7.050   5.687  11.156 -1.0294  0.4252 -0.2797
  209MOL0     H28829   7.277   5.686  11.234  0.9300  1.7412  1.9967
  209MOL0     H28830   7.458   5.769  11.394 -0.8362  0.5981 -0.2822
  209MOL0     H28831   7.515   5.735  11.224  1.8141 -0.9019  1.0312
  209MOL0     H28832   7.643   5.948  11.398  0.9566  2.1433 -4.0497
  209MOL0     H28833   7.716   5.865  11.256  0.9314 -1.4728  0.3682
  209MOL0     H28834   7.665   5.756  11.526 -0.3542 -0.6465 -0.1153
  209MOL0     H28835   7.696   5.657  11.384 -0.4163  1.6945 -2.1255
  209MOL0     H28836   7.860   5.888  11.497 -4.4725  0.5067 -1.9181
  209MOL0     H28837   7.929   5.777  11.370  0.7738  0.0172  0.1255
  209MOL0     H28838   8.020   5.551  11.703 -1.4199 -0.8738  0.9006
  209MOL0     H28839   7.301   6.115  11.201 -0.5592  0.4868 -0.6497
  209MOL0     H28840   6.972   6.155  11.007  0.4004  0.2801 -0.6559
  209MOL0     H28841   7.029   6.208  11.174  3.9012  0.8258  0.6398
  209MOL0     H28842   7.129   6.221  11.034 -0.3116 -0.2538 -0.6455
  210MOL0     O28843  11.242   8.556   7.890 -0.0732 -0.9355  0.6863
  210MOL0     C28844  11.220   8.605   7.998  0.9991  0.6810 -0.4696
  210MOL0     O28845  11.266   8.732   8.039 -0.0814 -0.0841  0.3157
  210MOL0     C28846  11.336   8.806   7.946  0.3648 -0.5806  1.1320
  210MOL0     C28847  11.470   8.840   7.956 -0.6790 -0.4496 -0.5656
  210MOL0     C28848  11.534   8.922   7.865  1.1161 -0.1730  0.9166
  210MOL0     C28849  11.460   8.981   7.764  0.2143  0.3519 -1.2567
  210MOL0     O28850  11.525   9.058   7.670 -0.1143 -0.8425  0.1101
  210MOL0     C28851  11.443   9.134   7.578  0.0326  0.1069 -0.4400
  210MOL0     C28852  11.409   9.057   7.454  0.2033 -0.3339 -0.2522
  210MOL0     C28853  11.531   9.059   7.369 -0.8654  0.2547  0.3805
  210MOL0     C28854  11.508   8.973   7.239  0.3613  0.2737 -0.6810
  210MOL0     C28855  11.625   9.004   7.143 -0.1984 -0.5105 -0.6611
  210MOL0     C28856  11.629   8.885   7.044  0.6229  0.0393 -0.3620
  210MOL0     C28857  11.513   8.864   6.948 -0.2081  0.1748  0.3411
  210MOL0     C28858  11.493   8.949   6.825  0.0382 -0.7548  0.3818
  210MOL0     N28859  11.588   8.921   6.718 -0.5848  0.1555 -0.6514
  210MOL0     C28860  11.726   8.957   6.717 -0.6413 -0.2993 -0.2952
  210MOL0     C28861  11.774   8.884   6.613 -0.3812 -1.0847  0.6273
  210MOL0     C28862  11.916   8.891   6.561  0.7415  0.4874 -0.5388
  210MOL0     C28863  11.931   8.951   6.418 -0.6138  0.6225 -0.7142
  210MOL0     C28864  12.071   8.994   6.375 -0.2272 -0.4780  0.8048
  210MOL0     C28865  12.180   8.886   6.398 -0.1245  0.3138 -0.3064
  210MOL0     O28866  12.301   8.954   6.341  0.2762  0.1824  0.0446
  210MOL0     C28867  12.411   8.872   6.325  0.4401 -0.3776  1.0943
  210MOL0     C28868  12.439   8.739   6.357  0.5644 -0.6183 -0.1184
  210MOL0     C28869  12.560   8.667   6.337  0.7303  0.0741 -0.3432
  210MOL0     C28870  12.562   8.533   6.401  0.3253  0.8954  0.2751
  210MOL0     C28871  12.652   8.729   6.257 -0.3842 -0.2887 -0.0547
  210MOL0     C28872  12.783   8.669   6.232 -0.5817 -0.2562 -0.5419
  210MOL0     O28873  12.837   8.591   6.334  0.7056 -0.0713  0.4688
  210MOL0     C28874  12.942   8.513   6.304 -0.0201  0.2625 -0.9645
  210MOL0     C28875  13.049   8.529   6.392 -0.0775 -0.9819 -0.5966
  210MOL0     C28876  13.168   8.457   6.378 -0.2530 -0.5397 -0.2398
  210MOL0     C28877  13.174   8.360   6.276 -0.3372  0.1254 -0.4831
  210MOL0     O28878  13.299   8.295   6.264  0.1548  0.7621 -0.2318
  210MOL0     C28879  13.302   8.164   6.207 -0.1358  0.4172 -0.2802
  210MOL0     C28880  13.437   8.103   6.244  0.5386  0.0628  0.2570
  210MOL0     C28881  13.456   7.969   6.173 -0.1928  0.5975  0.3717
  210MOL0     C28882  13.524   7.873   6.263 -0.1215  0.3896  0.1015
  210MOL0     C28883  13.674   7.888   6.258  0.7328  0.3028  0.1237
  210MOL0     C28884  13.735   7.795   6.363  0.0904 -0.7070 -0.2639
  210MOL0     C28885  13.888   7.806   6.365 -0.4819 -0.6128 -0.8461
  210MOL0     C28886  13.943   7.942   6.412  0.6610 -0.7315  0.1709
  210MOL0    Cl28887  14.116   7.939   6.446  0.1435 -0.3896  0.4429
  210MOL0     C28888  13.068   8.345   6.187 -0.1109  0.2419  0.2831
  210MOL0     C28889  12.954   8.428   6.201  0.3702 -0.4298  0.1678
  210MOL0     O28890  12.837   8.691   6.118 -0.3174  0.0220  0.0082
  210MOL0     C28891  12.629   8.860   6.203  0.2403 -0.2004 -0.0542
  210MOL0     C28892  12.514   8.924   6.245  0.4083 -0.5705 -0.2091
  210MOL0     N28893  11.680   8.788   6.571  0.5685 -0.1596  0.4264
  210MOL0     N28894  11.567   8.815   6.633 -0.0682 -0.3237 -0.2380
  210MOL0     C28895  11.320   8.948   7.750 -0.4885 -0.0138 -1.0968
  210MOL0     C28896  11.261   8.855   7.839  0.8836 -0.1391  0.9153
  210MOL0     C28897  11.138   8.527   8.085  0.3425  0.1530  0.0149
  210MOL0     C28898  11.052   8.608   8.174 -0.5049  0.0595 -0.4635
  210MOL0     C28899  10.971   8.547   8.273  0.1895 -0.5703  1.0147
  210MOL0     C28900  10.970   8.399   8.276  0.4194  0.4030  0.4922
  210MOL0     O28901  10.881   8.335   8.361 -0.5955 -0.3435 -0.9162
  210MOL0     C28902  10.767   8.405   8.409  0.5757  0.0358  0.0493
  210MOL0     C28903  10.797   8.467   8.546 -0.6078  0.7952 -0.4980
  210MOL0     C28904  10.811   8.354   8.650 -0.4277  0.5141 -0.8180
  210MOL0     C28905  10.801   8.404   8.793  0.2251 -0.7268  0.3489
  210MOL0     C28906  10.934   8.408   8.850 -0.7194 -0.0954  0.6856
  210MOL0     C28907  11.047   8.400   8.881 -0.1850 -0.5714  0.4249
  210MOL0     C28908  11.036   8.329   8.180 -0.3435 -0.5753 -0.0405
  210MOL0     C28909  11.132   8.387   8.084  0.5048 -0.5762  0.7125
  210MOL0     C28910  11.194   8.286   7.986  0.4378  0.4463  0.3879
  210MOL0     H28911  11.527   8.806   8.042  0.8502  3.1518  0.0096
  210MOL0     H28912  11.637   8.953   7.875  1.7719 -2.7238  2.9925
  210MOL0     H28913  11.498   9.228   7.567 -0.5522  0.7720  1.7933
  210MOL0     H28914  11.351   9.171   7.624  1.3658 -0.2153  2.7959
  210MOL0     H28915  11.367   8.959   7.481 -1.5639  0.6906  0.9155
  210MOL0     H28916  11.329   9.100   7.394 -1.2160 -0.2315  1.6143
  210MOL0     H28917  11.562   9.159   7.335  0.4856 -0.3445 -0.1966
  210MOL0     H28918  11.615   9.010   7.417 -1.6916 -1.0571  0.5228
  210MOL0     H28919  11.502   8.867   7.265  0.1814  0.5802  0.6018
  210MOL0     H28920  11.417   8.994   7.183  0.0163 -0.8686 -0.5702
  210MOL0     H28921  11.720   9.010   7.196 -0.9566 -2.0946  0.9803
  210MOL0     H28922  11.615   9.105   7.102 -0.6813  0.2821  1.3274
  210MOL0     H28923  11.712   8.890   6.974 -0.3582  0.6860 -1.5171
  210MOL0     H28924  11.645   8.792   7.099  0.1186 -0.8861 -1.7205
  210MOL0     H28925  11.416   8.871   6.998 -0.7607 -3.9802  0.1542
  210MOL0     H28926  11.529   8.765   6.906 -0.1733  0.9067 -1.4438
  210MOL0     H28927  11.395   8.939   6.778  0.6041 -1.7907 -0.6339
  210MOL0     H28928  11.501   9.052   6.859 -0.8141 -1.4105  2.7605
  210MOL0     H28929  11.794   9.023   6.770 -0.6291  0.0807 -0.7731
  210MOL0     H28930  11.956   8.789   6.553 -0.1076  0.1188 -0.2385
  210MOL0     H28931  11.973   8.951   6.632 -2.3301  0.8053  1.8628
  210MOL0     H28932  11.878   8.886   6.347 -1.9971 -1.6447  2.1492
  210MOL0     H28933  11.882   9.048   6.429  2.1933  1.9381  1.4811
  210MOL0     H28934  12.075   9.031   6.273  1.0658 -1.6827  0.3924
  210MOL0     H28935  12.095   9.076   6.443  1.3114  1.0015 -1.4050
  210MOL0     H28936  12.191   8.864   6.504  0.4011  3.0430  0.2699
  210MOL0     H28937  12.155   8.798   6.337 -0.8904  1.9307 -2.4465
  210MOL0     H28938  12.369   8.694   6.427  1.9477 -2.2267  0.3048
  210MOL0     H28939  12.464   8.487   6.419  0.9149 -0.8996 -0.8361
  210MOL0     H28940  12.627   8.520   6.487 -0.2611  1.9837  0.8995
  210MOL0     H28941  12.590   8.463   6.321 -4.8306 -1.7831  0.3762
  210MOL0     H28942  13.039   8.607   6.466  2.0130  1.1017 -2.3159
  210MOL0     H28943  13.256   8.470   6.439 -1.5553 -0.8898  1.8060
  210MOL0     H28944  13.222   8.103   6.250 -1.1442  0.6675 -1.7259
  210MOL0     H28945  13.292   8.155   6.098  1.4507 -3.0532 -0.2651
  210MOL0     H28946  13.518   8.167   6.207  0.1135 -0.5330 -1.8583
  210MOL0     H28947  13.450   8.086   6.351  1.0782 -1.1449  0.0178
  210MOL0     H28948  13.494   7.990   6.073 -1.4245 -1.4181 -0.5781
  210MOL0     H28949  13.355   7.935   6.152  0.2106  0.3477 -1.2552
  210MOL0     H28950  13.507   7.770   6.230 -1.5178  0.2807  1.0643
  210MOL0     H28951  13.486   7.875   6.366  3.1968  0.0897  1.4502
  210MOL0     H28952  13.710   7.866   6.157 -1.4738 -2.5139 -0.1861
  210MOL0     H28953  13.706   7.985   6.296  0.8182 -0.5801  2.4843
  210MOL0     H28954  13.705   7.690   6.351 -2.3653 -0.5732  3.0894
  210MOL0     H28955  13.686   7.821   6.457 -0.5566  0.9004 -1.0049
  210MOL0     H28956  13.925   7.779   6.266 -2.5674 -2.2734 -1.2347
  210MOL0     H28957  13.919   7.731   6.439  0.1208  0.4052 -0.0287
  210MOL0     H28958  13.890   7.965   6.505 -0.9221 -3.1343 -0.0683
  210MOL0     H28959  13.927   8.014   6.331 -3.0544  0.5034  1.7826
  210MOL0     H28960  13.061   8.277   6.103 -2.8568  1.2915 -0.4614
  210MOL0     H28961  12.888   8.429   6.115  1.9048  0.6066 -1.0864
  210MOL0     H28962  12.692   8.907   6.128 -0.1041  2.1997  1.0708
  210MOL0     H28963  12.508   9.030   6.220 -0.7694 -0.4106  0.6655
  210MOL0     H28964  11.252   8.994   7.679 -1.1900  0.9248  0.1454
  210MOL0     H28965  11.153   8.857   7.838  0.8541 -1.5360  0.5214
  210MOL0     H28966  11.055   8.716   8.174 -1.1161  0.0785 -0.3499
  210MOL0     H28967  10.922   8.614   8.342 -0.7256  0.0449 -0.1965
  210MOL0     H28968  10.737   8.487   8.343  0.7452  1.3834  1.5806
  210MOL0     H28969  10.682   8.338   8.415  0.4134  0.1995 -0.4141
  210MOL0     H28970  10.728   8.543   8.586  1.0400  0.8792  2.5203
  210MOL0     H28971  10.896   8.514   8.541 -0.4499  0.5667  0.3264
  210MOL0     H28972  10.722   8.293   8.630  1.1968 -2.1734 -0.3811
  210MOL0     H28973  10.891   8.279   8.646 -1.6068 -0.9061  0.6857
  210MOL0     H28974  10.749   8.337   8.861 -1.4335 -0.9185 -1.0362
  210MOL0     H28975  10.770   8.508   8.800  2.7091  0.0866  0.2488
  210MOL0     H28976  11.148   8.392   8.915  0.5235  0.9848 -1.1565
  210MOL0     H28977  11.034   8.221   8.185  0.9289 -0.5995  0.3053
  210MOL0     H28978  11.130   8.252   7.905  0.1923 -1.1576  1.2191
  210MOL0     H28979  11.285   8.326   7.941  0.9211 -0.9302  0.0868
  210MOL0     H28980  11.219   8.204   8.054  0.4294  0.2418  0.1474
  211MOL0     O28981   7.680   9.483   8.248  0.5622 -0.4374 -0.3515
  211MOL0     C28982   7.667   9.400   8.335 -0.1464 -0.0432 -1.2188
  211MOL0     O28983   7.755   9.376   8.436 -0.4445 -0.1720  0.7125
  211MOL0     C28984   7.872   9.441   8.448  0.7919 -0.1724  0.6445
  211MOL0     C28985   7.887   9.579   8.447  0.0612  0.6549  0.0383
  211MOL0     C28986   8.007   9.637   8.485 -0.4147  0.4512 -0.0999
  211MOL0     C28987   8.119   9.560   8.515 -0.4456  0.0719  0.6626
  211MOL0     O28988   8.230   9.638   8.548  0.4552 -0.1576 -0.3445
  211MOL0     C28989   8.342   9.588   8.626  0.6487 -0.6898 -0.5974
  211MOL0     C28990   8.303   9.555   8.768  0.2520  0.2524 -0.0374
  211MOL0     C28991   8.295   9.688   8.853  0.3409 -0.1283  0.3855
  211MOL0     C28992   8.272   9.662   9.004  0.2391 -0.4995 -0.1701
  211MOL0     C28993   8.224   9.792   9.082 -0.3205  0.6350 -0.0739
  211MOL0     C28994   8.305   9.921   9.054  0.4438  0.2378  0.5848
  211MOL0     C28995   8.275  10.029   9.152  0.2224  0.7199  0.6298
  211MOL0     C28996   8.357  10.154   9.121 -0.2795 -0.4195  0.0714
  211MOL0     N28997   8.504  10.147   9.163  0.6569 -0.2428 -0.6280
  211MOL0     C28998   8.568  10.091   9.273 -0.0670 -0.2570 -0.0232
  211MOL0     C28999   8.686  10.152   9.278 -1.0279 -0.0592  0.9425
  211MOL0     C29000   8.782  10.131   9.381 -0.7725 -0.0739  0.5651
  211MOL0     C29001   8.890  10.028   9.345 -0.0351 -0.5939  0.0931
  211MOL0     C29002   8.968  10.057   9.213 -0.3090 -0.2069 -0.3697
  211MOL0     C29003   9.070   9.938   9.203 -0.0955  0.2186 -0.1900
  211MOL0     O29004   9.117   9.927   9.074 -0.3618 -0.2562 -0.4885
  211MOL0     C29005   9.199   9.816   9.036 -0.4451  0.0100  0.5838
  211MOL0     C29006   9.221   9.702   9.112  0.2224 -0.5223 -0.7309
  211MOL0     C29007   9.300   9.587   9.082  0.1712 -0.6883 -0.1890
  211MOL0     C29008   9.331   9.495   9.192  0.1897  0.6715 -0.1692
  211MOL0     C29009   9.338   9.575   8.950  0.7479  0.0094 -0.0384
  211MOL0     C29010   9.413   9.463   8.900 -0.0266 -0.3885  0.1922
  211MOL0     O29011   9.510   9.497   8.811 -0.0914  0.6711 -0.1176
  211MOL0     C29012   9.603   9.411   8.758  0.7893  0.0635 -0.4014
  211MOL0     C29013   9.730   9.468   8.718 -0.6356 -0.7387  0.2325
  211MOL0     C29014   9.824   9.391   8.653 -0.3483  0.7561 -0.7536
  211MOL0     C29015   9.805   9.259   8.627 -0.2962  0.7178  0.3882
  211MOL0     O29016   9.894   9.190   8.551  0.0864  0.6925 -0.4053
  211MOL0     C29017  10.002   9.125   8.614 -0.5596  0.2392 -0.3865
  211MOL0     C29018  10.107   9.076   8.518 -0.4585  0.0248  0.3660
  211MOL0     C29019  10.233   9.031   8.602 -0.4442 -0.9593  0.1135
  211MOL0     C29020  10.357   9.025   8.506  0.0006  0.8480  0.0325
  211MOL0     C29021  10.489   9.005   8.584  0.0039  0.9280  0.0496
  211MOL0     C29022  10.611   9.040   8.488 -0.1829  0.3012  0.3538
  211MOL0     C29023  10.745   9.000   8.547 -0.4323  0.8100  0.9000
  211MOL0     C29024  10.867   9.019   8.453 -0.8161 -0.3670 -1.3195
  211MOL0    Cl29025  10.889   8.897   8.320 -0.0304 -0.2091 -0.0867
  211MOL0     C29026   9.688   9.197   8.672 -0.9136  0.3659  0.1944
  211MOL0     C29027   9.596   9.269   8.747  0.3351 -0.3107  0.6615
  211MOL0     O29028   9.383   9.349   8.944 -0.1709 -0.4857  0.4443
  211MOL0     C29029   9.312   9.682   8.866  0.3774 -0.4928  0.7235
  211MOL0     C29030   9.242   9.800   8.908 -0.7298  0.0300  0.5029
  211MOL0     N29031   8.703  10.234   9.170 -0.2031 -0.3569 -0.3001
  211MOL0     N29032   8.599  10.222   9.097 -0.6434 -0.3113  0.0536
  211MOL0     C29033   8.099   9.418   8.524 -0.5509  0.0953 -0.2665
  211MOL0     C29034   7.979   9.364   8.499 -0.6533  0.7034 -0.1272
  211MOL0     C29035   7.540   9.316   8.339 -0.6065 -0.3942  0.2979
  211MOL0     C29036   7.534   9.191   8.410 -0.3234 -0.1458 -0.0541
  211MOL0     C29037   7.432   9.100   8.406 -0.0050 -0.1629 -0.3854
  211MOL0     C29038   7.316   9.133   8.339  0.1857 -0.1566 -0.0282
  211MOL0     O29039   7.212   9.040   8.345  0.1111 -0.4101  0.1056
  211MOL0     C29040   7.087   9.057   8.276 -0.0852  0.0549 -0.4593
  211MOL0     C29041   6.996   9.139   8.365  0.1030 -1.0190 -0.4024
  211MOL0     C29042   6.860   9.167   8.312  0.7297  0.3939 -0.7615
  211MOL0     C29043   6.765   9.190   8.437  0.2637 -0.3256  1.0887
  211MOL0     C29044   6.636   9.172   8.385  0.5874 -0.0385 -0.0022
  211MOL0     C29045   6.528   9.142   8.340  0.7376 -0.3867  0.2970
  211MOL0     C29046   7.308   9.254   8.275  0.5129 -0.7516 -0.4413
  211MOL0     C29047   7.416   9.345   8.274  0.2782  0.3039  0.2335
  211MOL0     C29048   7.392   9.472   8.192  0.4777 -0.4720  0.7943
  211MOL0     H29049   7.804   9.642   8.416  0.2873  0.4921 -0.9233
  211MOL0     H29050   8.013   9.745   8.477  1.8902  0.3176 -0.9402
  211MOL0     H29051   8.415   9.670   8.630 -1.7422  1.5282 -0.1989
  211MOL0     H29052   8.388   9.508   8.567 -1.5250 -1.1989 -1.6755
  211MOL0     H29053   8.206   9.504   8.767  0.6105 -0.4843  0.9380
  211MOL0     H29054   8.373   9.483   8.810 -1.1675 -2.5585 -2.1502
  211MOL0     H29055   8.386   9.744   8.832 -0.5610  0.5986 -2.0032
  211MOL0     H29056   8.210   9.739   8.806  0.1816  0.5952  1.4243
  211MOL0     H29057   8.196   9.585   9.014 -1.2619  1.0163  0.7467
  211MOL0     H29058   8.364   9.622   9.049  1.3300 -0.8586 -2.5937
  211MOL0     H29059   8.244   9.776   9.188  1.9595 -1.2825 -0.7050
  211MOL0     H29060   8.117   9.800   9.058 -0.6470 -0.7760  0.7985
  211MOL0     H29061   8.409   9.892   9.068  0.7867  1.8459  1.6677
  211MOL0     H29062   8.283   9.957   8.953  0.1055 -3.5355 -0.8441
  211MOL0     H29063   8.305   9.990   9.250  1.0547  0.7728  0.4003
  211MOL0     H29064   8.167  10.048   9.160 -0.2751 -2.1334  2.0854
  211MOL0     H29065   8.352  10.188   9.017  0.5216  0.1505  0.2122
  211MOL0     H29066   8.313  10.228   9.189  1.3213 -0.0729  0.7765
  211MOL0     H29067   8.525  10.018   9.340 -0.9171 -0.6975 -1.0138
  211MOL0     H29068   8.733  10.089   9.469  1.1859 -4.8073 -0.2657
  211MOL0     H29069   8.826  10.230   9.395 -1.8128  0.2064  2.2042
  211MOL0     H29070   8.962  10.028   9.426  1.0394  1.9214 -0.7648
  211MOL0     H29071   8.834   9.935   9.328  1.9467 -1.8612  0.2088
  211MOL0     H29072   8.901  10.058   9.126  0.3660 -1.3840 -0.9162
  211MOL0     H29073   9.026  10.150   9.213 -0.7243  0.0731  1.0009
  211MOL0     H29074   9.157   9.964   9.265  0.0416 -0.1426 -0.2310
  211MOL0     H29075   9.023   9.845   9.237 -0.3819  0.3321 -0.2751
  211MOL0     H29076   9.203   9.707   9.219  3.5983  0.7303 -0.0863
  211MOL0     H29077   9.435   9.461   9.193 -0.0670 -0.1482 -0.4611
  211MOL0     H29078   9.263   9.409   9.184  0.4759  0.4663 -0.4536
  211MOL0     H29079   9.320   9.553   9.284  1.2199 -0.2317  0.5530
  211MOL0     H29080   9.745   9.575   8.730  0.9940 -0.7765 -1.0123
  211MOL0     H29081   9.905   9.447   8.609 -0.5070  1.5510 -0.0506
  211MOL0     H29082  10.051   9.196   8.680  0.2612 -0.4915 -0.1963
  211MOL0     H29083   9.966   9.042   8.676  0.1461 -0.4116 -0.8326
  211MOL0     H29084  10.066   8.997   8.456 -1.5128 -0.2016  1.3144
  211MOL0     H29085  10.139   9.166   8.464  2.6087 -1.0268  0.2415
  211MOL0     H29086  10.217   8.928   8.634 -1.0300 -1.4887 -1.7228
  211MOL0     H29087  10.258   9.094   8.688  2.3180 -2.2843  0.3649
  211MOL0     H29088  10.363   9.118   8.447  0.7168 -0.1214 -1.4686
  211MOL0     H29089  10.341   8.941   8.438 -1.0369 -1.4834  2.9285
  211MOL0     H29090  10.486   9.076   8.667  2.4069  1.2019 -0.0347
  211MOL0     H29091  10.487   8.903   8.621 -2.1860  1.1361  0.6573
  211MOL0     H29092  10.623   9.148   8.478  0.4984  0.1011 -1.2418
  211MOL0     H29093  10.586   8.993   8.393 -0.1033 -2.8866  1.7825
  211MOL0     H29094  10.739   8.892   8.564  2.6636  0.8397  3.0853
  211MOL0     H29095  10.766   9.058   8.637  2.0695  0.8092  0.4044
  211MOL0     H29096  10.958   9.030   8.513  0.1658  2.8151 -3.1427
  211MOL0     H29097  10.850   9.112   8.397  0.2419 -0.5485 -1.9633
  211MOL0     H29098   9.661   9.093   8.654 -0.7735  0.4182 -0.3317
  211MOL0     H29099   9.503   9.221   8.773 -0.2453 -0.1088 -0.9141
  211MOL0     H29100   9.337   9.685   8.760 -1.7558  1.6979  0.1835
  211MOL0     H29101   9.221   9.881   8.839 -1.8120 -0.4234  0.2721
  211MOL0     H29102   8.188   9.359   8.544 -1.5109 -2.4493 -2.8261
  211MOL0     H29103   7.976   9.256   8.508 -0.8649  0.8452  2.1161
  211MOL0     H29104   7.619   9.157   8.468  0.1646  0.3535 -0.4600
  211MOL0     H29105   7.447   9.004   8.456  3.7066  0.1240 -0.6782
  211MOL0     H29106   7.117   9.108   8.184  3.1885  1.7165  1.3441
  211MOL0     H29107   7.035   8.966   8.246 -4.4404  2.6526 -1.6322
  211MOL0     H29108   7.040   9.232   8.402 -2.7271 -0.6714  2.5888
  211MOL0     H29109   6.982   9.094   8.463  0.9737  4.7208  2.7809
  211MOL0     H29110   6.873   9.254   8.247 -0.0646 -0.5160 -2.1938
  211MOL0     H29111   6.817   9.087   8.251 -0.5308  0.3854  0.1039
  211MOL0     H29112   6.768   9.295   8.469 -1.8655  0.4190 -0.8555
  211MOL0     H29113   6.785   9.120   8.519 -1.7915  1.2391  3.0814
  211MOL0     H29114   6.440   9.098   8.298  0.6219 -1.7419  1.8224
  211MOL0     H29115   7.221   9.286   8.219 -0.1687 -0.8144  0.5500
  211MOL0     H29116   7.420   9.554   8.257 -0.6674  0.2011  0.4606
  211MOL0     H29117   7.460   9.484   8.107 -1.8381  0.0208 -1.1040
  211MOL0     H29118   7.297   9.489   8.141  1.2427  0.3382 -0.4416
  212MOL0     O29119   0.889   3.543   9.034  0.0943  0.3957 -0.7824
  212MOL0     C29120   0.844   3.616   8.944  0.2085  0.0824 -0.0699
  212MOL0     O29121   0.920   3.688   8.856  0.2193 -0.3660 -0.2874
  212MOL0     C29122   1.057   3.681   8.879 -0.2147 -1.0523 -0.8341
  212MOL0     C29123   1.110   3.740   8.993  1.0107  0.6800  0.5543
  212MOL0     C29124   1.243   3.753   9.013 -0.3162  0.0714  0.4733
  212MOL0     C29125   1.327   3.718   8.911 -0.1059  0.8053  1.4731
  212MOL0     O29126   1.463   3.739   8.912  0.0024 -0.5468  0.3566
  212MOL0     C29127   1.528   3.651   9.005 -0.9131  0.4552  0.3879
  212MOL0     C29128   1.663   3.704   9.057 -0.0596 -0.1704  0.1278
  212MOL0     C29129   1.781   3.659   8.967 -0.1839 -0.2119 -0.0787
  212MOL0     C29130   1.907   3.735   8.993 -0.0624 -0.5976  0.1864
  212MOL0     C29131   2.021   3.693   8.898  1.4571 -0.3639  0.0954
  212MOL0     C29132   2.151   3.786   8.923  0.3328 -0.8113  0.0980
  212MOL0     C29133   2.262   3.713   8.851 -0.9252  0.0474 -0.1185
  212MOL0     C29134   2.306   3.588   8.936 -0.6714  0.6060  0.1594
  212MOL0     N29135   2.385   3.608   9.055  0.2394 -0.0485 -0.6739
  212MOL0     C29136   2.522   3.599   9.076 -1.5648  0.2113  0.5478
  212MOL0     C29137   2.543   3.598   9.204 -0.2008  0.2856  0.5547
  212MOL0     C29138   2.675   3.595   9.276 -1.1658 -1.2784  0.0802
  212MOL0     C29139   2.797   3.552   9.184  0.1112 -0.0017 -0.8666
  212MOL0     C29140   2.915   3.537   9.279  0.3734  0.4027 -0.2681
  212MOL0     C29141   3.048   3.490   9.205 -0.2346 -0.2054 -0.6544
  212MOL0     O29142   3.073   3.582   9.099  0.1853  0.6693  0.1758
  212MOL0     C29143   3.196   3.595   9.046 -0.5096 -0.2748 -0.0329
  212MOL0     C29144   3.311   3.547   9.098  0.3269  0.6696  0.7174
  212MOL0     C29145   3.439   3.558   9.035  0.7264 -0.0271 -0.1404
  212MOL0     C29146   3.558   3.517   9.114 -0.0974 -0.7591  0.0898
  212MOL0     C29147   3.437   3.626   8.912 -0.4368  0.4160  0.6616
  212MOL0     C29148   3.562   3.638   8.829 -0.4792  1.2519  0.0043
  212MOL0     O29149   3.667   3.640   8.899 -0.7434 -0.4018  0.2008
  212MOL0     C29150   3.793   3.631   8.848 -1.4073  0.0370  0.4615
  212MOL0     C29151   3.880   3.545   8.910  0.3255 -0.1628 -0.0137
  212MOL0     C29152   4.014   3.506   8.858 -0.3512 -0.6595  0.3553
  212MOL0     C29153   4.066   3.570   8.747 -0.3811  0.7869 -0.6554
  212MOL0     O29154   4.191   3.547   8.693 -1.0256  0.5134 -0.3515
  212MOL0     C29155   4.266   3.440   8.749 -0.8381  0.5466 -0.5218
  212MOL0     C29156   4.395   3.439   8.663  0.2285 -0.1865 -0.0443
  212MOL0     C29157   4.486   3.325   8.713 -0.8748  0.1428 -0.7961
  212MOL0     C29158   4.609   3.313   8.637 -0.2123 -0.3382 -0.4439
  212MOL0     C29159   4.670   3.172   8.647  0.0293 -0.3996 -0.3915
  212MOL0     C29160   4.808   3.157   8.583  0.6683  0.6719 -0.6524
  212MOL0     C29161   4.835   3.204   8.434  0.6058 -0.2341 -0.4303
  212MOL0     C29162   4.944   3.121   8.368  0.5633  0.6208 -0.5600
  212MOL0    Cl29163   4.922   2.939   8.384  0.3671 -0.3374  0.3813
  212MOL0     C29164   3.986   3.674   8.690  0.8159  0.9120  0.1757
  212MOL0     C29165   3.856   3.692   8.732 -0.0365 -0.1420 -0.6127
  212MOL0     O29166   3.556   3.623   8.704  0.1468  0.6462 -0.0957
  212MOL0     C29167   3.319   3.677   8.856 -0.0234 -0.4593 -0.2181
  212MOL0     C29168   3.200   3.665   8.928  0.2058 -0.9960 -0.2436
  212MOL0     N29169   2.425   3.612   9.267  0.2767  0.1370  0.2665
  212MOL0     N29170   2.329   3.613   9.177 -0.5512  0.2303 -0.3445
  212MOL0     C29171   1.276   3.666   8.792  0.8838  0.7315  0.2100
  212MOL0     C29172   1.141   3.647   8.775 -0.8285  0.4126 -0.0786
  212MOL0     C29173   0.705   3.613   8.904  0.8685  0.1813 -1.3267
  212MOL0     C29174   0.670   3.633   8.769 -0.0396  0.5458  0.3598
  212MOL0     C29175   0.535   3.635   8.728 -0.3362 -1.3732  0.8077
  212MOL0     C29176   0.435   3.617   8.823  0.0712  0.2917 -0.2930
  212MOL0     O29177   0.305   3.607   8.777  0.5160 -0.4339  0.6117
  212MOL0     C29178   0.240   3.491   8.811  0.6818  0.5373  0.8454
  212MOL0     C29179   0.122   3.542   8.893  0.7470  0.4188  0.5432
  212MOL0     C29180   0.045   3.421   8.949 -1.0809 -0.1143  0.6701
  212MOL0     C29181  -0.046   3.467   9.062 -0.4848  0.2886  0.3418
  212MOL0     C29182  -0.123   3.352   9.111  0.0384 -1.0501  1.3179
  212MOL0     C29183  -0.190   3.261   9.144 -0.5387  0.4035  0.0749
  212MOL0     C29184   0.470   3.605   8.960 -1.4790  0.3285 -0.1424
  212MOL0     C29185   0.604   3.616   9.000  0.2269 -0.0019 -0.1197
  212MOL0     C29186   0.628   3.628   9.149  0.0704 -0.0875  0.8547
  212MOL0     H29187   1.043   3.769   9.073  0.7525 -0.6141  0.8395
  212MOL0     H29188   1.280   3.799   9.105  1.6699 -0.8678  0.2085
  212MOL0     H29189   1.545   3.554   8.956  0.2649  0.2688  1.1345
  212MOL0     H29190   1.473   3.621   9.095 -0.4997 -1.1908  0.1294
  212MOL0     H29191   1.655   3.813   9.060  0.8060 -0.0781 -0.6397
  212MOL0     H29192   1.668   3.673   9.162  2.8669  0.0909  0.1459
  212MOL0     H29193   1.797   3.551   8.977 -1.3032 -0.4754 -0.9521
  212MOL0     H29194   1.757   3.668   8.861  2.4843 -1.2664 -0.8464
  212MOL0     H29195   1.895   3.841   8.970  0.4952 -1.3267 -4.3177
  212MOL0     H29196   1.936   3.715   9.097 -0.7356 -0.8139  0.3383
  212MOL0     H29197   1.993   3.707   8.793  0.7297  1.1100  0.4529
  212MOL0     H29198   2.046   3.591   8.926  2.8337 -0.4316 -1.2779
  212MOL0     H29199   2.136   3.885   8.880  1.5134 -0.9922 -0.7761
  212MOL0     H29200   2.166   3.798   9.030 -0.8680 -2.9603  0.5844
  212MOL0     H29201   2.347   3.777   8.827 -1.7847  1.2704  0.0434
  212MOL0     H29202   2.228   3.671   8.755 -0.8660 -0.9778  0.2893
  212MOL0     H29203   2.226   3.527   8.979  1.6224 -1.1762  2.1944
  212MOL0     H29204   2.357   3.512   8.876  1.7828  0.1752  2.6131
  212MOL0     H29205   2.605   3.598   9.006 -1.6491  0.7003  0.4397
  212MOL0     H29206   2.668   3.541   9.370 -1.0212 -0.5811  0.5028
  212MOL0     H29207   2.698   3.698   9.306 -2.3021 -0.9875 -0.0136
  212MOL0     H29208   2.782   3.456   9.134  2.7161 -1.7815  1.4484
  212MOL0     H29209   2.812   3.625   9.104 -4.3257  1.3835 -0.7208
  212MOL0     H29210   2.926   3.630   9.336 -1.1169  0.6781 -0.3876
  212MOL0     H29211   2.899   3.458   9.353 -0.4599  2.3504  1.7140
  212MOL0     H29212   3.123   3.475   9.282 -1.1213  2.7609  0.9236
  212MOL0     H29213   3.024   3.399   9.149 -1.2042 -0.6858  0.5000
  212MOL0     H29214   3.312   3.483   9.185  0.9129  1.6845  1.4795
  212MOL0     H29215   3.615   3.602   9.154  1.4754 -2.6388  2.0609
  212MOL0     H29216   3.625   3.450   9.060  0.9650 -0.4688  0.9998
  212MOL0     H29217   3.523   3.462   9.202 -4.7349  1.5945  0.0068
  212MOL0     H29218   3.848   3.487   8.996  2.3661 -2.0438 -0.4503
  212MOL0     H29219   4.071   3.427   8.905  0.4097 -2.8009 -3.7509
  212MOL0     H29220   4.294   3.465   8.851 -2.5682 -0.9903  0.3987
  212MOL0     H29221   4.222   3.340   8.742  1.4993 -0.6641  0.8157
  212MOL0     H29222   4.367   3.416   8.559  0.4908 -1.4718  0.1527
  212MOL0     H29223   4.436   3.540   8.663 -0.8711  0.2946 -1.4063
  212MOL0     H29224   4.433   3.229   8.717 -0.7151 -0.1063 -2.9620
  212MOL0     H29225   4.515   3.350   8.815  2.6735 -3.8992 -0.5626
  212MOL0     H29226   4.675   3.394   8.668 -0.8604 -0.1064  0.3568
  212MOL0     H29227   4.589   3.325   8.530  2.2033 -1.3048 -1.0733
  212MOL0     H29228   4.678   3.148   8.753  2.2116  2.5182  0.2336
  212MOL0     H29229   4.603   3.102   8.596  0.8726  0.1305 -2.3345
  212MOL0     H29230   4.841   3.054   8.600 -1.3393  0.2812  1.3136
  212MOL0     H29231   4.874   3.215   8.649 -1.3211  1.1422  1.0243
  212MOL0     H29232   4.871   3.305   8.413  3.0607 -1.3339 -1.9645
  212MOL0     H29233   4.739   3.182   8.386  0.0486  1.9199 -0.3993
  212MOL0     H29234   5.031   3.145   8.430  0.2930 -1.7297  0.8395
  212MOL0     H29235   4.960   3.149   8.264 -0.2213  0.4740 -0.7247
  212MOL0     H29236   4.030   3.721   8.602  0.6662 -0.5724 -0.7317
  212MOL0     H29237   3.798   3.759   8.670  0.6227 -1.7144 -3.0921
  212MOL0     H29238   3.313   3.717   8.755  0.1356 -2.6649 -1.1548
  212MOL0     H29239   3.112   3.712   8.886 -1.3437 -1.0854  2.6389
  212MOL0     H29240   1.340   3.662   8.704 -0.2541  3.1858 -0.8213
  212MOL0     H29241   1.100   3.627   8.676 -1.3341  1.4174 -0.0899
  212MOL0     H29242   0.752   3.624   8.697  0.8665  1.4795  1.2351
  212MOL0     H29243   0.509   3.649   8.623  0.3621  1.1477  0.9011
  212MOL0     H29244   0.201   3.450   8.718  0.8923  1.1045  0.5024
  212MOL0     H29245   0.292   3.419   8.875 -2.9953  0.0858  3.6430
  212MOL0     H29246   0.056   3.599   8.828  2.4831 -0.7276 -2.4116
  212MOL0     H29247   0.151   3.609   8.974  1.4060  3.8131 -2.2895
  212MOL0     H29248  -0.022   3.379   8.874  0.5137 -5.4573  1.8539
  212MOL0     H29249   0.110   3.342   8.988 -0.7083 -0.5338 -0.7234
  212MOL0     H29250  -0.117   3.544   9.030 -3.9069 -2.7209  0.1939
  212MOL0     H29251   0.012   3.507   9.146 -0.8684 -0.4531  0.9751
  212MOL0     H29252  -0.254   3.175   9.150  2.5698 -2.1886 -0.5757
  212MOL0     H29253   0.393   3.580   9.033 -0.2186 -0.6559  0.9060
  212MOL0     H29254   0.538   3.607   9.207  0.1558  1.1207  1.4568
  212MOL0     H29255   0.701   3.550   9.172  0.3791 -0.2216 -0.4857
  212MOL0     H29256   0.674   3.724   9.175  0.0394  0.7362 -1.8322
  213MOL0     O29257   6.479   8.006   7.401  0.2793  0.2272 -0.4965
  213MOL0     C29258   6.392   7.933   7.446 -0.4084  0.5039 -1.1052
  213MOL0     O29259   6.414   7.809   7.504 -0.6131 -0.4923 -0.1638
  213MOL0     C29260   6.549   7.776   7.516  0.3446 -0.3911  0.1462
  213MOL0     C29261   6.607   7.795   7.645 -0.7167 -0.6001 -0.1200
  213MOL0     C29262   6.742   7.759   7.662 -0.1109  0.2720  1.5026
  213MOL0     C29263   6.828   7.711   7.558  0.8076 -0.2342  0.1767
  213MOL0     O29264   6.948   7.655   7.597  0.0253 -0.2672  0.2697
  213MOL0     C29265   7.063   7.732   7.572 -0.2441  0.8308  0.1322
  213MOL0     C29266   7.188   7.663   7.636 -0.4362 -0.1032 -0.0968
  213MOL0     C29267   7.163   7.590   7.775  0.3427 -0.6706  0.0909
  213MOL0     C29268   7.296   7.532   7.834  0.1055  0.0674 -0.8097
  213MOL0     C29269   7.268   7.439   7.954  0.4309 -0.3247 -0.0715
  213MOL0     C29270   7.388   7.438   8.047  0.2159  1.1152  0.5000
  213MOL0     C29271   7.387   7.317   8.142  0.1750  0.0531 -0.9423
  213MOL0     C29272   7.494   7.340   8.251 -0.0826 -0.3095  0.0499
  213MOL0     N29273   7.628   7.323   8.206 -0.0484  0.4875  0.4965
  213MOL0     C29274   7.699   7.213   8.197 -0.3886  0.7167 -0.2410
  213MOL0     C29275   7.821   7.259   8.168 -0.0785 -0.8645 -0.5947
  213MOL0     C29276   7.942   7.178   8.141  0.0159  0.5078 -0.3489
  213MOL0     C29277   7.931   7.090   8.022 -0.8512 -0.5347 -0.1083
  213MOL0     C29278   8.031   6.973   8.042  0.1257  0.2833  0.2774
  213MOL0     C29279   8.172   7.017   8.060 -0.4475  0.0132  0.0176
  213MOL0     O29280   8.262   6.910   8.013 -0.1233 -1.1221  0.9205
  213MOL0     C29281   8.394   6.943   7.986  0.1032  0.4366 -0.0737
  213MOL0     C29282   8.472   6.838   7.942  0.4068 -0.4983 -0.6632
  213MOL0     C29283   8.610   6.854   7.935  0.8629  0.6161 -0.1114
  213MOL0     C29284   8.681   6.726   7.913  0.4268 -0.6216 -0.8254
  213MOL0     C29285   8.675   6.977   7.953 -0.0788  0.1971 -0.6376
  213MOL0     C29286   8.825   7.011   7.930  1.0385 -0.0483 -0.2474
  213MOL0     O29287   8.859   7.140   7.942 -0.0108  0.1519 -0.6000
  213MOL0     C29288   8.990   7.187   7.920  0.1698  0.5739 -0.3874
  213MOL0     C29289   9.020   7.309   7.844  0.5256  0.9885 -1.0489
  213MOL0     C29290   9.149   7.358   7.833  0.6381 -0.0633 -0.7390
  213MOL0     C29291   9.250   7.298   7.905 -0.2439 -0.4667  0.3532
  213MOL0     O29292   9.374   7.349   7.925 -0.1111  0.2538  0.4511
  213MOL0     C29293   9.398   7.480   7.884 -0.2218  0.5950  0.1436
  213MOL0     C29294   9.542   7.532   7.917  0.1782  0.0111  0.2982
  213MOL0     C29295   9.656   7.456   7.850  0.3491  1.1328 -0.2330
  213MOL0     C29296   9.794   7.522   7.860  0.0189 -0.6745 -0.2564
  213MOL0     C29297   9.896   7.512   7.750 -0.4827 -0.3634  0.5504
  213MOL0     C29298   9.916   7.359   7.704  0.3875 -0.2603  0.1707
  213MOL0     C29299  10.002   7.349   7.573  0.1210 -0.1842 -0.0364
  213MOL0     C29300   9.972   7.210   7.515  0.1001  0.3190  0.1606
  213MOL0    Cl29301  10.073   7.081   7.602  0.3632 -0.0797 -0.3812
  213MOL0     C29302   9.223   7.178   7.976 -0.0007 -0.8673  0.3137
  213MOL0     C29303   9.093   7.125   7.980 -0.5139  0.9995  0.1713
  213MOL0     O29304   8.902   6.921   7.917 -0.2795 -0.3876 -0.0502
  213MOL0     C29305   8.589   7.084   7.993 -0.5694  0.2152  0.4608
  213MOL0     C29306   8.452   7.063   8.011  0.4150  0.8718  0.2637
  213MOL0     N29307   7.822   7.396   8.142  0.4775  0.0278  0.0122
  213MOL0     N29308   7.702   7.436   8.171  0.0877  0.3904  0.5074
  213MOL0     C29309   6.774   7.719   7.420  0.2609 -0.4472 -0.1673
  213MOL0     C29310   6.632   7.743   7.410 -0.0898 -0.1711 -0.4813
  213MOL0     C29311   6.256   7.991   7.462 -0.1477  0.4575 -0.0459
  213MOL0     C29312   6.258   8.094   7.563 -0.0244 -0.1733  0.3904
  213MOL0     C29313   6.143   8.162   7.582  0.3567  0.4515  0.4184
  213MOL0     C29314   6.023   8.106   7.534 -0.2396  0.0347 -0.1050
  213MOL0     O29315   5.902   8.144   7.583 -0.1705  0.5614 -0.3920
  213MOL0     C29316   5.899   8.182   7.726  0.1911 -0.2117  0.6604
  213MOL0     C29317   5.916   8.067   7.824  0.7595 -0.5086  0.2586
  213MOL0     C29318   5.803   7.962   7.818  0.8512  0.1944 -0.8432
  213MOL0     C29319   5.674   8.030   7.876  0.0453 -0.3474 -0.6425
  213MOL0     C29320   5.579   8.076   7.776  0.3167  0.6809  0.5632
  213MOL0     C29321   5.489   8.121   7.710  0.8970  0.3693  0.7187
  213MOL0     C29322   6.019   8.007   7.433  0.7826 -0.7146 -0.1715
  213MOL0     C29323   6.141   7.948   7.393  0.3695  0.2302  0.2598
  213MOL0     C29324   6.142   7.837   7.296 -0.5339  1.2723  0.4544
  213MOL0     H29325   6.548   7.829   7.729 -0.6275 -1.2856  0.2202
  213MOL0     H29326   6.783   7.759   7.762 -0.2837 -0.6382  1.5805
  213MOL0     H29327   7.033   7.829   7.614 -1.4677  0.2723  0.5958
  213MOL0     H29328   7.078   7.742   7.464 -1.0059 -0.7796 -0.1585
  213MOL0     H29329   7.219   7.578   7.574 -1.8818 -2.1958  1.8817
  213MOL0     H29330   7.272   7.733   7.629  0.2245 -0.9001 -0.3357
  213MOL0     H29331   7.123   7.662   7.847 -1.5476 -1.8391  0.2972
  213MOL0     H29332   7.098   7.503   7.764 -0.0823 -0.2450 -0.9428
  213MOL0     H29333   7.349   7.473   7.759  1.9603 -0.3695  0.7687
  213MOL0     H29334   7.358   7.619   7.858  1.9151 -1.6076  0.9516
  213MOL0     H29335   7.247   7.343   7.907 -0.8148  1.5667 -3.7089
  213MOL0     H29336   7.181   7.474   8.011  1.1323  1.9503 -0.3257
  213MOL0     H29337   7.475   7.425   7.983  0.2045  0.2639  0.6506
  213MOL0     H29338   7.378   7.533   8.100 -0.6860  0.5689  1.3522
  213MOL0     H29339   7.397   7.217   8.097  1.1479  1.6315 -4.6477
  213MOL0     H29340   7.293   7.317   8.197  0.5858 -2.0037 -0.1725
  213MOL0     H29341   7.489   7.439   8.298  1.2953 -0.0609 -0.2912
  213MOL0     H29342   7.479   7.271   8.334  0.5063 -0.7598 -0.2121
  213MOL0     H29343   7.661   7.114   8.217  1.0576 -1.5275 -6.2441
  213MOL0     H29344   7.969   7.121   8.230  1.9803 -1.2731 -1.9818
  213MOL0     H29345   8.016   7.259   8.139  0.4050  0.1471 -1.5177
  213MOL0     H29346   7.828   7.053   8.020 -1.3517  0.8028 -0.3787
  213MOL0     H29347   7.953   7.143   7.928 -0.3445 -1.0228 -0.2731
  213MOL0     H29348   7.992   6.914   8.126 -0.3860  3.0798  2.1387
  213MOL0     H29349   8.041   6.905   7.957 -0.3123 -1.0834  1.2757
  213MOL0     H29350   8.182   7.099   7.988  0.9582 -0.9715 -0.9572
  213MOL0     H29351   8.197   7.042   8.163  0.7696 -1.1145  0.0181
  213MOL0     H29352   8.415   6.746   7.937  1.1874 -0.9803 -0.8647
  213MOL0     H29353   8.604   6.648   7.917  0.2307 -0.3531  1.2425
  213MOL0     H29354   8.759   6.720   7.989  2.3602  1.4662 -2.4986
  213MOL0     H29355   8.725   6.721   7.812  1.6233  0.4665 -0.3828
  213MOL0     H29356   8.934   7.366   7.810 -1.4454 -1.1696  0.0234
  213MOL0     H29357   9.169   7.456   7.791 -0.8464  0.6257  0.1000
  213MOL0     H29358   9.381   7.487   7.776  0.9789 -0.5386 -0.1448
  213MOL0     H29359   9.336   7.554   7.936 -2.6583 -1.6052  0.6013
  213MOL0     H29360   9.566   7.635   7.889  1.1844 -0.0176  1.0243
  213MOL0     H29361   9.562   7.520   8.024  1.2753 -0.3285  0.0702
  213MOL0     H29362   9.625   7.451   7.746  0.3438 -1.2182 -0.1696
  213MOL0     H29363   9.658   7.356   7.895 -1.3680 -0.1855 -2.8295
  213MOL0     H29364   9.846   7.485   7.949  0.8114 -1.0281 -0.8574
  213MOL0     H29365   9.780   7.628   7.885 -1.9763 -0.7124 -1.0263
  213MOL0     H29366   9.865   7.567   7.661  0.6270 -1.2409 -0.4101
  213MOL0     H29367   9.990   7.561   7.774 -1.3894  3.3588 -2.5447
  213MOL0     H29368   9.819   7.311   7.688  0.9386 -1.2446 -0.2644
  213MOL0     H29369   9.959   7.292   7.779  1.6366 -1.2191 -1.3675
  213MOL0     H29370  10.109   7.371   7.581 -0.1476  1.1851 -0.1063
  213MOL0     H29371   9.962   7.417   7.498  2.6016  0.6700 -0.6683
  213MOL0     H29372   9.997   7.210   7.409  0.4983  1.5907  0.2303
  213MOL0     H29373   9.867   7.183   7.526  0.4568 -0.8983  0.7101
  213MOL0     H29374   9.298   7.122   8.032  1.8971 -0.6994 -1.8753
  213MOL0     H29375   9.078   7.029   8.029  2.0182 -0.3772 -1.4959
  213MOL0     H29376   8.623   7.187   7.997 -0.4298  0.2914 -1.4773
  213MOL0     H29377   8.400   7.154   8.041  1.2009  1.5078 -0.2656
  213MOL0     H29378   6.834   7.715   7.330 -1.2007  1.4856 -1.3205
  213MOL0     H29379   6.597   7.752   7.307 -4.5152  1.7150  0.9627
  213MOL0     H29380   6.346   8.135   7.611 -0.3036  0.1253  0.6509
  213MOL0     H29381   6.163   8.243   7.651  1.3461 -0.2500  0.9878
  213MOL0     H29382   5.977   8.255   7.747  1.1254 -0.5833 -1.3685
  213MOL0     H29383   5.801   8.230   7.741  0.4450  0.1384  1.2337
  213MOL0     H29384   5.916   8.105   7.926 -2.3881 -2.6144  1.1816
  213MOL0     H29385   6.007   8.010   7.801  0.4485 -0.2877 -1.7490
  213MOL0     H29386   5.786   7.926   7.716 -0.0029 -2.2333  0.0755
  213MOL0     H29387   5.829   7.875   7.880  1.2793  0.1835 -1.0335
  213MOL0     H29388   5.683   8.119   7.939  0.0923 -0.6029 -0.2856
  213MOL0     H29389   5.626   7.957   7.941  0.9037 -1.1296 -0.8654
  213MOL0     H29390   5.415   8.157   7.641 -1.4157 -0.3748  2.6561
  213MOL0     H29391   5.921   7.971   7.403  1.1487 -1.0198 -1.0472
  213MOL0     H29392   6.202   7.863   7.208  0.7149 -0.6884  0.6622
  213MOL0     H29393   6.209   7.760   7.336  1.1090  2.8813  0.9231
  213MOL0     H29394   6.045   7.806   7.255 -0.2478  2.1661 -0.9833
  214MOL0     O29395   7.130   6.790   9.870  0.0116 -0.0115  0.2837
  214MOL0     C29396   7.090   6.676   9.878 -0.2320 -1.1939 -0.2603
  214MOL0     O29397   7.168   6.573   9.918  0.3349  0.1966 -0.0386
  214MOL0     C29398   7.305   6.584   9.909  0.1981  0.0622 -0.3873
  214MOL0     C29399   7.376   6.529  10.020 -0.0429  0.8627 -0.0035
  214MOL0     C29400   7.518   6.514  10.017 -0.1400  1.2018 -0.3572
  214MOL0     C29401   7.587   6.554   9.901  0.7744 -0.1420  0.2136
  214MOL0     O29402   7.718   6.532   9.882  0.4658  0.2823  0.7243
  214MOL0     C29403   7.752   6.397   9.871  0.2144 -0.5251  0.6355
  214MOL0     C29404   7.859   6.374   9.762 -0.3249  0.2480 -0.2930
  214MOL0     C29405   7.790   6.354   9.620  0.0627 -0.2645 -0.0701
  214MOL0     C29406   7.859   6.260   9.524 -0.7531  0.8690 -0.3624
  214MOL0     C29407   7.846   6.117   9.563 -0.6743 -0.7155 -0.5760
  214MOL0     C29408   7.906   6.031   9.448 -0.1438  0.0589  0.2869
  214MOL0     C29409   7.925   5.876   9.476 -0.3415 -0.2272 -0.8989
  214MOL0     C29410   7.968   5.792   9.363  0.4036 -0.7236 -0.3215
  214MOL0     N29411   7.872   5.780   9.252 -0.0070 -0.4016 -0.8861
  214MOL0     C29412   7.742   5.763   9.275  0.6328  1.0752 -0.7760
  214MOL0     C29413   7.683   5.752   9.155 -0.1141 -0.0831  0.2919
  214MOL0     C29414   7.539   5.741   9.141 -0.8878 -0.4252  0.0965
  214MOL0     C29415   7.485   5.886   9.114 -0.0659  0.3583  0.7535
  214MOL0     C29416   7.492   5.990   9.228  0.0507  0.6611  0.5789
  214MOL0     C29417   7.399   5.970   9.347  0.4641 -0.1943  0.0968
  214MOL0     O29418   7.267   5.986   9.295 -0.1590  0.2781 -1.1248
  214MOL0     C29419   7.158   5.931   9.359 -0.3890  0.2031 -0.7561
  214MOL0     C29420   7.030   5.961   9.314  0.2611  0.8848  0.0040
  214MOL0     C29421   6.909   5.954   9.393 -1.0731  0.3131  0.4939
  214MOL0     C29422   6.790   5.994   9.314 -0.0284  0.1148 -0.1312
  214MOL0     C29423   6.924   5.916   9.529  0.1860 -0.0355  0.2969
  214MOL0     C29424   6.803   5.906   9.625 -0.4464 -0.0042  0.2621
  214MOL0     O29425   6.830   5.865   9.755 -0.7909 -0.3028  0.2243
  214MOL0     C29426   6.726   5.853   9.851 -0.2422 -0.4332  0.2940
  214MOL0     C29427   6.679   5.730   9.909 -0.3198 -0.0120  0.6574
  214MOL0     C29428   6.579   5.727  10.002 -0.0408 -0.6982 -0.0459
  214MOL0     C29429   6.503   5.850  10.020  0.0381 -0.3841 -0.0107
  214MOL0     O29430   6.395   5.850  10.101  0.5653  0.1083 -0.2022
  214MOL0     C29431   6.342   5.730  10.158 -0.0641 -0.1783 -0.1947
  214MOL0     C29432   6.212   5.769  10.231 -0.0269 -0.4343 -0.3225
  214MOL0     C29433   6.130   5.663  10.308 -1.0062 -0.0174 -0.0920
  214MOL0     C29434   6.213   5.615  10.432 -0.1304  0.9287 -1.2902
  214MOL0     C29435   6.138   5.511  10.515 -0.5591 -1.2684  0.1563
  214MOL0     C29436   6.115   5.371  10.452 -0.8721  0.0482 -0.4540
  214MOL0     C29437   6.056   5.268  10.554 -0.3489 -0.4099  0.4595
  214MOL0     C29438   5.906   5.285  10.575 -0.1573 -0.4463  0.1936
  214MOL0    Cl29439   5.848   5.201  10.725 -0.1534  0.2282 -0.0109
  214MOL0     C29440   6.550   5.971   9.974  0.7869  0.5017  0.3576
  214MOL0     C29441   6.658   5.969   9.885 -0.2618 -0.6617  0.6965
  214MOL0     O29442   6.691   5.915   9.584  0.0099 -0.5169 -0.1826
  214MOL0     C29443   7.051   5.882   9.580 -0.2277  0.2312  0.5948
  214MOL0     C29444   7.163   5.888   9.491 -0.7811  0.7445 -0.1614
  214MOL0     N29445   7.784   5.746   9.061  0.5417 -0.8338 -0.2951
  214MOL0     N29446   7.905   5.757   9.121  0.4771  0.2703  0.3398
  214MOL0     C29447   7.515   6.616   9.795 -0.3563 -0.4317  0.5523
  214MOL0     C29448   7.379   6.622   9.794  1.0504 -0.2142 -1.8989
  214MOL0     C29449   6.951   6.648   9.834  0.3132  0.1845 -1.2991
  214MOL0     C29450   6.920   6.512   9.832  0.6722 -0.4247  0.3904
  214MOL0     C29451   6.793   6.462   9.815 -0.0381  0.2893  0.4712
  214MOL0     C29452   6.681   6.552   9.802 -1.0380 -0.3237  0.0471
  214MOL0     O29453   6.562   6.498   9.785  0.0860  0.3005 -0.6010
  214MOL0     C29454   6.461   6.538   9.875 -0.8634  0.6430  1.3020
  214MOL0     C29455   6.324   6.490   9.827  0.9347  0.4706  0.2375
  214MOL0     C29456   6.202   6.510   9.914 -0.5768 -0.4369  0.2933
  214MOL0     C29457   6.178   6.658   9.944 -0.0848  0.4538  0.3495
  214MOL0     C29458   6.050   6.706   9.894 -0.3257  0.4159 -0.3780
  214MOL0     C29459   5.935   6.729   9.863 -0.4393  0.7825 -0.2144
  214MOL0     C29460   6.711   6.693   9.796  0.2431  0.4860  0.0793
  214MOL0     C29461   6.843   6.739   9.813 -0.7584 -0.2066  0.6102
  214MOL0     C29462   6.861   6.892   9.802  1.2736 -0.5156 -0.1725
  214MOL0     H29463   7.328   6.490  10.108 -0.6335 -0.3944 -0.8561
  214MOL0     H29464   7.571   6.462  10.096 -1.3411 -1.3393 -1.1165
  214MOL0     H29465   7.665   6.333   9.853  0.7198 -0.5603 -2.2407
  214MOL0     H29466   7.795   6.361   9.965 -1.3134 -2.1223  0.7845
  214MOL0     H29467   7.934   6.453   9.771  2.1258 -1.8208 -1.5258
  214MOL0     H29468   7.905   6.279   9.790 -0.9649  0.5241  1.9263
  214MOL0     H29469   7.688   6.323   9.642  0.2784 -1.2378 -0.3645
  214MOL0     H29470   7.778   6.455   9.582 -2.9947 -0.7692 -0.6738
  214MOL0     H29471   7.821   6.271   9.422 -2.5569  2.1698  0.3890
  214MOL0     H29472   7.966   6.277   9.508 -0.5306 -0.9676 -0.9868
  214MOL0     H29473   7.739   6.099   9.577 -0.8583  1.2735  0.9274
  214MOL0     H29474   7.900   6.100   9.656 -1.6958  0.8151  0.3376
  214MOL0     H29475   7.834   6.032   9.365 -0.3569  1.5675  0.4495
  214MOL0     H29476   8.000   6.079   9.420  0.2513 -1.2023 -0.6465
  214MOL0     H29477   7.831   5.848   9.525  0.2462 -1.1239 -0.2600
  214MOL0     H29478   8.007   5.870   9.547  0.0449 -2.3218 -1.4501
  214MOL0     H29479   8.051   5.841   9.311  0.2155  0.2077  0.2243
  214MOL0     H29480   8.004   5.697   9.404  0.5198  0.1118  1.6382
  214MOL0     H29481   7.689   5.746   9.368 -2.3671  0.6117 -2.4674
  214MOL0     H29482   7.497   5.703   9.234 -1.8939  1.0964  0.3080
  214MOL0     H29483   7.511   5.679   9.055  2.1542  0.3174 -1.5757
  214MOL0     H29484   7.535   5.916   9.022 -2.7147  0.9058 -0.5860
  214MOL0     H29485   7.378   5.880   9.091 -0.8615  1.0155  3.8443
  214MOL0     H29486   7.595   6.004   9.262 -0.1955  0.8534  1.2716
  214MOL0     H29487   7.473   6.089   9.186 -1.4646 -0.5237 -1.7658
  214MOL0     H29488   7.412   5.869   9.387 -0.9500 -1.3306 -2.1368
  214MOL0     H29489   7.413   6.047   9.424 -0.6633  0.3356 -0.2084
  214MOL0     H29490   7.026   5.990   9.209  3.6696  2.2574  0.1252
  214MOL0     H29491   6.802   5.961   9.210  1.0925  0.1742 -0.0365
  214MOL0     H29492   6.771   6.101   9.326 -0.3527 -0.0838  1.2237
  214MOL0     H29493   6.705   5.932   9.345  0.0739  0.4646  0.8915
  214MOL0     H29494   6.712   5.633   9.873 -0.3732  0.5955 -1.1334
  214MOL0     H29495   6.557   5.634  10.053 -0.4307 -1.0394 -0.8139
  214MOL0     H29496   6.317   5.650  10.087 -0.1862 -5.0995  4.6761
  214MOL0     H29497   6.401   5.697  10.244 -1.8553  0.5944  1.3931
  214MOL0     H29498   6.232   5.849  10.304  1.3747 -0.3561 -0.7483
  214MOL0     H29499   6.147   5.808  10.153  2.8296 -0.9168 -3.1571
  214MOL0     H29500   6.120   5.572  10.248  1.6195 -0.0236 -0.6401
  214MOL0     H29501   6.028   5.692  10.334 -1.4247  0.1344 -1.8079
  214MOL0     H29502   6.235   5.701  10.496 -0.8014 -1.5578  2.6484
  214MOL0     H29503   6.306   5.573  10.392 -0.3002 -2.8586  1.7895
  214MOL0     H29504   6.191   5.507  10.611 -2.3957 -0.1346  1.3002
  214MOL0     H29505   6.038   5.547  10.540  1.0345  2.1060  2.3687
  214MOL0     H29506   6.215   5.339  10.423 -0.0960  2.4632 -0.6280
  214MOL0     H29507   6.055   5.379  10.361 -2.4338  1.3141  0.6443
  214MOL0     H29508   6.104   5.273  10.652  0.2577 -2.2778  0.2987
  214MOL0     H29509   6.070   5.165  10.521 -3.4445 -0.5790 -0.6203
  214MOL0     H29510   5.857   5.242  10.488 -1.7515 -0.6870  1.1756
  214MOL0     H29511   5.878   5.391  10.581 -3.0217 -1.0082 -1.3165
  214MOL0     H29512   6.501   6.067   9.985  1.0373  0.7274 -0.4066
  214MOL0     H29513   6.688   6.051   9.821  0.6864 -3.4274 -2.6917
  214MOL0     H29514   7.063   5.854   9.684  1.7517 -2.4376 -0.2227
  214MOL0     H29515   7.261   5.877   9.537 -1.4982  0.3129  1.3312
  214MOL0     H29516   7.574   6.654   9.712 -2.1865  0.4603 -0.3892
  214MOL0     H29517   7.317   6.657   9.712  1.6208  2.8046 -1.1894
  214MOL0     H29518   6.998   6.438   9.844  1.6503  0.7732  1.6709
  214MOL0     H29519   6.782   6.354   9.807 -2.4436  0.3291  1.9966
  214MOL0     H29520   6.470   6.488   9.972  1.4441  0.1233  0.8933
  214MOL0     H29521   6.475   6.646   9.887 -2.2394  1.1563 -1.1276
  214MOL0     H29522   6.336   6.383   9.807  1.6587  0.8793 -1.8917
  214MOL0     H29523   6.295   6.537   9.732 -3.1093 -3.4222 -0.7352
  214MOL0     H29524   6.116   6.457   9.873  1.0171 -1.6991 -1.6694
  214MOL0     H29525   6.214   6.457  10.009  1.5888 -1.4396 -0.4545
  214MOL0     H29526   6.245   6.724   9.890  0.9546 -1.0606 -0.2895
  214MOL0     H29527   6.183   6.684  10.050 -4.4782 -0.0194  0.8799
  214MOL0     H29528   5.838   6.763   9.833 -0.6324  1.0531  0.6789
  214MOL0     H29529   6.626   6.759   9.786 -1.3778 -1.5116  0.1166
  214MOL0     H29530   6.875   6.942   9.899  0.3050 -0.1722 -0.1919
  214MOL0     H29531   6.949   6.908   9.739  0.8631  0.7031 -0.4605
  214MOL0     H29532   6.771   6.933   9.756  0.4519 -1.0099  0.9517
  215MOL0     O29533   6.383   0.898   2.348  0.2727 -0.1970 -0.1539
  215MOL0     C29534   6.409   0.938   2.458 -0.3507 -0.5878  1.2360
  215MOL0     O29535   6.515   1.023   2.487  0.2789 -0.0586 -0.4140
  215MOL0     C29536   6.613   1.060   2.392 -0.1029  0.4076  0.5559
  215MOL0     C29537   6.714   0.976   2.331  0.1074 -0.2185 -0.6765
  215MOL0     C29538   6.804   1.033   2.245 -0.1562 -0.4418 -0.2909
  215MOL0     C29539   6.805   1.174   2.216 -0.4100 -0.1108  0.6433
  215MOL0     O29540   6.898   1.237   2.127 -0.1476  0.6588 -0.3476
  215MOL0     C29541   6.986   1.145   2.050  0.2191 -0.0728  0.5197
  215MOL0     C29542   7.113   1.130   2.125  0.1204  0.0471  0.0057
  215MOL0     C29543   7.205   1.022   2.075 -0.0852 -0.4784 -0.1240
  215MOL0     C29544   7.341   1.038   2.144 -0.6263 -0.1342  0.3762
  215MOL0     C29545   7.420   0.905   2.115  0.4739  0.4002 -0.3530
  215MOL0     C29546   7.550   0.892   2.198  0.6299 -0.2495  0.2531
  215MOL0     C29547   7.637   1.014   2.179 -0.1171  0.2081  0.2036
  215MOL0     C29548   7.779   1.007   2.250  0.9949  0.4787  0.3178
  215MOL0     N29549   7.860   1.131   2.221  0.2631 -1.0146 -0.5917
  215MOL0     C29550   7.998   1.129   2.226 -0.0244 -0.0237 -0.5655
  215MOL0     C29551   8.041   1.249   2.198 -0.0066 -0.9037 -0.7151
  215MOL0     C29552   8.185   1.294   2.227  0.1812  0.3824 -0.0888
  215MOL0     C29553   8.222   1.440   2.179 -0.2273 -0.0664 -0.0130
  215MOL0     C29554   8.237   1.436   2.029  0.6652  0.4568 -0.1679
  215MOL0     C29555   8.297   1.564   1.965 -0.3632  1.5096  0.3042
  215MOL0     O29556   8.438   1.574   1.983 -0.2297 -0.3736  0.4078
  215MOL0     C29557   8.500   1.681   1.930  0.3673 -0.5596 -0.2359
  215MOL0     C29558   8.434   1.790   1.860  0.0744  0.1223 -0.3575
  215MOL0     C29559   8.511   1.887   1.804  0.2138 -0.1301  0.1374
  215MOL0     C29560   8.447   1.999   1.718 -0.2909 -0.1049 -0.6223
  215MOL0     C29561   8.659   1.887   1.815  1.3029 -0.2398 -0.7022
  215MOL0     C29562   8.752   1.979   1.760  0.5501 -0.4509  0.6876
  215MOL0     O29563   8.844   2.034   1.854  0.3144 -0.0995  0.3434
  215MOL0     C29564   8.964   2.092   1.811 -0.5826 -0.1416  0.6048
  215MOL0     C29565   9.073   2.106   1.903  0.6435  0.0452  0.2935
  215MOL0     C29566   9.194   2.177   1.885  0.6457 -0.5066  0.3925
  215MOL0     C29567   9.221   2.235   1.756 -0.1886 -0.4920 -0.1595
  215MOL0     O29568   9.333   2.314   1.731 -0.6004  0.0431 -0.2064
  215MOL0     C29569   9.403   2.275   1.613 -0.1453 -0.2827  1.2728
  215MOL0     C29570   9.552   2.288   1.631 -0.2991  0.0427 -0.5473
  215MOL0     C29571   9.607   2.437   1.644  0.5934  0.4013 -0.2962
  215MOL0     C29572   9.754   2.433   1.663  0.1334 -0.2842 -0.3793
  215MOL0     C29573   9.837   2.388   1.544 -0.3204 -0.2868 -0.7198
  215MOL0     C29574   9.977   2.423   1.554  0.1482 -0.0515 -0.6301
  215MOL0     C29575  10.052   2.338   1.662  0.4820  0.1137  0.2677
  215MOL0     C29576  10.181   2.403   1.694  0.6589 -0.0404 -0.8121
  215MOL0    Cl29577  10.259   2.316   1.820 -0.1216  0.1769  0.0160
  215MOL0     C29578   9.114   2.223   1.660 -0.5839 -0.8017 -0.5481
  215MOL0     C29579   8.998   2.149   1.686 -0.8035 -0.0822  0.4348
  215MOL0     O29580   8.746   2.001   1.640 -0.6919  1.5452  0.2492
  215MOL0     C29581   8.718   1.782   1.878  0.5065  0.3947 -1.4751
  215MOL0     C29582   8.642   1.679   1.940 -0.1762  0.4959  0.3890
  215MOL0     N29583   7.933   1.324   2.158  0.0035 -0.1205  0.3009
  215MOL0     N29584   7.830   1.254   2.162  0.2862 -0.4124  0.1729
  215MOL0     C29585   6.707   1.253   2.265  0.1302  0.9371 -0.4720
  215MOL0     C29586   6.610   1.195   2.351 -0.4277  0.3331 -0.5551
  215MOL0     C29587   6.323   0.896   2.565 -0.5309 -0.6622 -0.0492
  215MOL0     C29588   6.390   0.838   2.673 -0.3407 -0.7669 -0.4709
  215MOL0     C29589   6.320   0.787   2.784  0.2043  0.0158  0.4017
  215MOL0     C29590   6.178   0.793   2.780  0.4610  0.8770 -0.3255
  215MOL0     O29591   6.106   0.756   2.896  0.8376 -0.4731 -0.5433
  215MOL0     C29592   6.172   0.695   3.007 -0.1172 -0.3173 -0.0682
  215MOL0     C29593   6.085   0.634   3.120 -0.3866 -1.1443  0.7840
  215MOL0     C29594   5.967   0.537   3.084  0.2970  0.5064  0.4404
  215MOL0     C29595   5.963   0.425   3.183 -0.0853  0.2583 -0.9104
  215MOL0     C29596   5.942   0.473   3.318 -0.0949  0.2076  0.0694
  215MOL0     C29597   5.927   0.508   3.433  0.0442  0.0185 -0.5095
  215MOL0     C29598   6.109   0.844   2.671 -0.1654 -0.0357  0.2492
  215MOL0     C29599   6.185   0.895   2.564 -0.3852  0.3407 -0.7662
  215MOL0     C29600   6.104   0.940   2.449 -0.3321 -0.0797  0.4836
  215MOL0     H29601   6.723   0.873   2.365 -0.0965 -0.0555 -0.1179
  215MOL0     H29602   6.880   0.963   2.210  1.1267  0.9131 -0.3446
  215MOL0     H29603   7.017   1.195   1.958 -0.4826  2.4771  1.5820
  215MOL0     H29604   6.926   1.059   2.019  0.7957  0.2670 -1.6908
  215MOL0     H29605   7.176   1.218   2.113  0.6749 -0.4740 -1.1612
  215MOL0     H29606   7.099   1.115   2.232  2.6990  1.2020  0.5889
  215MOL0     H29607   7.156   0.925   2.092 -0.0542 -0.2123  1.7260
  215MOL0     H29608   7.213   1.033   1.967  2.2875  1.1168  0.1331
  215MOL0     H29609   7.386   1.128   2.101 -1.0485 -0.1439 -0.0972
  215MOL0     H29610   7.326   1.047   2.252 -0.2266 -1.6956  0.5806
  215MOL0     H29611   7.441   0.895   2.008 -1.0052 -0.1349 -0.6060
  215MOL0     H29612   7.360   0.820   2.146  1.1400  0.7434  2.0819
  215MOL0     H29613   7.514   0.880   2.300  0.0289  0.2369  0.1091
  215MOL0     H29614   7.596   0.802   2.157 -0.2286  0.7487 -3.2960
  215MOL0     H29615   7.589   1.103   2.220  1.1661  1.5385 -1.0475
  215MOL0     H29616   7.663   1.020   2.072  2.3174 -0.3186  0.7045
  215MOL0     H29617   7.752   0.999   2.356 -0.5170 -0.5166 -0.1034
  215MOL0     H29618   7.833   0.918   2.217 -1.5772 -1.1469  0.1619
  215MOL0     H29619   8.055   1.042   2.255 -1.6542 -0.9538 -0.0146
  215MOL0     H29620   8.254   1.217   2.193  1.8715  2.2533 -1.1143
  215MOL0     H29621   8.207   1.294   2.334  3.2509  2.2967 -0.5897
  215MOL0     H29622   8.138   1.502   2.210 -2.4202 -3.2372  0.8225
  215MOL0     H29623   8.310   1.491   2.221 -0.5928  4.3572 -3.7395
  215MOL0     H29624   8.299   1.348   2.008  2.4014  0.9197  2.5420
  215MOL0     H29625   8.136   1.442   1.988 -0.2293  2.6403  2.0669
  215MOL0     H29626   8.275   1.553   1.858 -5.1848 -1.3697  1.2902
  215MOL0     H29627   8.237   1.634   2.023 -0.0404  0.0776  2.4668
  215MOL0     H29628   8.326   1.789   1.849  0.3016 -1.4875 -3.9753
  215MOL0     H29629   8.524   2.063   1.672  0.0985  0.1839  0.4090
  215MOL0     H29630   8.383   2.069   1.772  1.4865  2.3438 -1.4908
  215MOL0     H29631   8.385   1.963   1.635 -2.9739  0.7308  0.9217
  215MOL0     H29632   9.059   2.062   2.002 -3.3292 -0.7455 -0.4244
  215MOL0     H29633   9.262   2.198   1.967  1.7650 -0.9060 -0.4149
  215MOL0     H29634   9.381   2.171   1.588 -1.0102  0.2391 -0.3216
  215MOL0     H29635   9.375   2.340   1.529  0.7238  1.7884  2.5273
  215MOL0     H29636   9.573   2.229   1.720  1.5794  0.4080 -0.7020
  215MOL0     H29637   9.608   2.239   1.550  0.7426  1.7478 -0.9348
  215MOL0     H29638   9.558   2.490   1.726 -0.8772 -1.6722  0.2323
  215MOL0     H29639   9.582   2.500   1.558 -0.0635  2.9647  1.6357
  215MOL0     H29640   9.780   2.371   1.750  0.5077  0.6782  0.2089
  215MOL0     H29641   9.791   2.533   1.685  3.1858 -1.0955 -1.3401
  215MOL0     H29642   9.816   2.284   1.521  0.5849 -0.5524 -0.3913
  215MOL0     H29643   9.797   2.446   1.460 -1.4322  1.2062  0.7943
  215MOL0     H29644   9.990   2.527   1.584  1.8632 -0.7597  1.3258
  215MOL0     H29645  10.027   2.416   1.457  0.5543  0.5833 -0.4771
  215MOL0     H29646  10.068   2.234   1.634 -1.8931 -0.8702  2.1899
  215MOL0     H29647   9.997   2.335   1.757 -2.2965  2.2059 -1.1617
  215MOL0     H29648  10.175   2.508   1.724  0.1698 -0.6871  1.5517
  215MOL0     H29649  10.242   2.406   1.604  0.2573  1.3468 -1.0590
  215MOL0     H29650   9.124   2.276   1.566 -0.6268  0.6129  0.2136
  215MOL0     H29651   8.928   2.158   1.604  1.8169  2.6071 -1.7559
  215MOL0     H29652   8.826   1.771   1.881  0.3597 -0.9291  0.3293
  215MOL0     H29653   8.697   1.594   1.978 -0.2397  0.5111  0.5131
  215MOL0     H29654   6.701   1.359   2.240  1.7301  0.4145 -3.5388
  215MOL0     H29655   6.524   1.254   2.382 -1.5813 -0.6776 -1.7243
  215MOL0     H29656   6.498   0.826   2.680 -0.0935  1.0925 -0.5508
  215MOL0     H29657   6.372   0.739   2.867 -1.7403 -0.2758  1.5073
  215MOL0     H29658   6.242   0.622   2.966  2.8502  0.9262  2.4397
  215MOL0     H29659   6.232   0.774   3.051 -2.0242  0.9756  0.3503
  215MOL0     H29660   6.046   0.714   3.184  2.2293  2.6832 -1.9697
  215MOL0     H29661   6.156   0.570   3.172  2.4093 -2.6148 -4.1514
  215MOL0     H29662   5.881   0.605   3.080  1.5033  2.0206 -1.4008
  215MOL0     H29663   5.990   0.492   2.987  1.5899  1.4446  0.2925
  215MOL0     H29664   6.055   0.366   3.184 -1.2520 -1.6653 -1.4260
  215MOL0     H29665   5.878   0.361   3.158  1.5701 -2.3151 -0.3463
  215MOL0     H29666   5.901   0.528   3.535 -4.0269 -2.1306 -0.9342
  215MOL0     H29667   6.001   0.848   2.666 -0.2068 -1.4626 -0.6894
  215MOL0     H29668   5.998   0.915   2.455 -0.0544 -1.0163  2.1066
  215MOL0     H29669   6.121   1.046   2.428 -0.8682 -0.5247 -2.6850
  215MOL0     H29670   6.131   0.889   2.356  2.4140  0.6260  0.7913
  216MOL0     O29671   9.068   0.620   3.205  0.1187  1.0313 -0.1223
  216MOL0     C29672   8.986   0.527   3.201  0.4871 -0.5847 -0.0804
  216MOL0     O29673   9.008   0.401   3.247 -0.4277 -0.3370 -0.1140
  216MOL0     C29674   9.120   0.375   3.321 -0.8793  0.7372  0.2286
  216MOL0     C29675   9.225   0.292   3.275  0.0877 -0.6716  0.2521
  216MOL0     C29676   9.329   0.249   3.359 -0.0683 -0.6309  0.1809
  216MOL0     C29677   9.335   0.311   3.484  0.3668 -0.8781 -0.2953
  216MOL0     O29678   9.448   0.296   3.566 -0.1653 -0.1694 -0.4672
  216MOL0     C29679   9.580   0.262   3.510  1.1182  0.5654 -0.3058
  216MOL0     C29680   9.697   0.302   3.599  0.1173 -0.5942  1.3781
  216MOL0     C29681   9.727   0.456   3.598  0.0933 -0.2441 -1.2063
  216MOL0     C29682   9.818   0.494   3.707  0.1440  0.1578 -0.1281
  216MOL0     C29683   9.744   0.571   3.813 -0.3976 -0.6737 -0.0907
  216MOL0     C29684   9.703   0.716   3.779  0.5344 -0.0323 -0.0785
  216MOL0     C29685   9.823   0.810   3.748  0.4133  0.3833  0.5281
  216MOL0     C29686   9.773   0.952   3.758 -0.2641 -0.2663  0.5749
  216MOL0     N29687   9.866   1.047   3.688  0.1825 -0.1380  0.1927
  216MOL0     C29688   9.892   1.045   3.551  0.4463  0.2368  0.2917
  216MOL0     C29689   9.981   1.142   3.531 -0.6015 -1.0542 -0.7126
  216MOL0     C29690  10.040   1.195   3.398  0.4118  0.2600 -0.8146
  216MOL0     C29691  10.061   1.345   3.407 -0.4925  1.0314  0.0765
  216MOL0     C29692  10.075   1.398   3.264  0.3814 -0.0045  0.0220
  216MOL0     C29693  10.107   1.551   3.260 -0.5697 -0.5025  0.2728
  216MOL0     O29694  10.235   1.571   3.323 -0.4312  0.5670 -0.1306
  216MOL0     C29695  10.350   1.565   3.251 -0.0545 -0.5606  0.9338
  216MOL0     C29696  10.355   1.565   3.111  0.4067  0.0951  0.4789
  216MOL0     C29697  10.477   1.565   3.041  0.7699 -0.3179  0.5583
  216MOL0     C29698  10.471   1.595   2.888  0.1934  0.5847 -0.1713
  216MOL0     C29699  10.595   1.565   3.116  0.6161  0.5737 -0.0518
  216MOL0     C29700  10.729   1.559   3.055 -0.0202  0.0414  0.1211
  216MOL0     O29701  10.747   1.525   2.920 -0.1674  0.0141 -0.1705
  216MOL0     C29702  10.863   1.533   2.859  0.1305 -0.4924  0.2867
  216MOL0     C29703  10.930   1.659   2.858 -0.8637 -0.2376  0.0556
  216MOL0     C29704  11.053   1.678   2.791 -0.5589 -0.0554  0.1788
  216MOL0     C29705  11.130   1.571   2.748 -0.0947  0.3782  0.4187
  216MOL0     O29706  11.255   1.587   2.694 -0.6645 -0.5169  0.2493
  216MOL0     C29707  11.343   1.472   2.689  0.6546 -0.9042 -0.5255
  216MOL0     C29708  11.492   1.507   2.653 -0.4848  0.3403  0.4703
  216MOL0     C29709  11.500   1.511   2.499 -0.3288  0.1097 -0.5703
  216MOL0     C29710  11.636   1.578   2.460 -0.6495 -0.3624  0.3017
  216MOL0     C29711  11.752   1.485   2.466  0.2270 -0.3169 -0.4791
  216MOL0     C29712  11.867   1.543   2.399  0.6393 -0.1130  0.2690
  216MOL0     C29713  11.983   1.446   2.404  0.0812  0.2212  0.1576
  216MOL0     C29714  12.119   1.511   2.352  0.0107 -0.3107  0.3972
  216MOL0    Cl29715  12.258   1.400   2.403 -0.4345 -0.1830  0.0021
  216MOL0     C29716  11.059   1.445   2.745 -1.4514  0.4692 -0.1397
  216MOL0     C29717  10.931   1.423   2.792  0.4282  0.3297 -0.1601
  216MOL0     O29718  10.823   1.585   3.132  0.3588 -0.1063 -0.5173
  216MOL0     C29719  10.590   1.563   3.257 -0.9684 -0.0556 -0.7813
  216MOL0     C29720  10.471   1.560   3.323  0.0993 -0.3874 -0.2428
  216MOL0     N29721  10.003   1.212   3.656 -0.1704  0.5826  0.2527
  216MOL0     N29722   9.935   1.152   3.743  0.0923 -0.7116 -0.2110
  216MOL0     C29723   9.235   0.396   3.536 -0.2906  0.2247 -0.1091
  216MOL0     C29724   9.122   0.416   3.454 -0.3213 -0.1808 -1.2820
  216MOL0     C29725   8.847   0.551   3.147  0.1402  0.3168  0.0031
  216MOL0     C29726   8.750   0.443   3.165 -0.1655  0.1963 -0.0778
  216MOL0     C29727   8.618   0.455   3.126  0.0059  0.3326  0.5842
  216MOL0     C29728   8.572   0.581   3.085 -0.2501  0.2309  0.5042
  216MOL0     O29729   8.445   0.610   3.044 -0.1239 -0.3884  0.6410
  216MOL0     C29730   8.333   0.528   3.080 -0.6727  0.1859 -0.5488
  216MOL0     C29731   8.207   0.600   3.045 -0.0887 -0.2534 -0.0781
  216MOL0     C29732   8.091   0.511   3.071  0.3554  0.2908 -0.4243
  216MOL0     C29733   7.968   0.604   3.077  0.1681  0.0745  0.0185
  216MOL0     C29734   7.847   0.519   3.082  0.5071 -0.4915 -0.5101
  216MOL0     C29735   7.756   0.450   3.092  0.3279  0.1006  0.1632
  216MOL0     C29736   8.664   0.685   3.075  0.5122  0.1148  1.0321
  216MOL0     C29737   8.800   0.672   3.100  0.2207 -0.5480  0.1749
  216MOL0     C29738   8.877   0.798   3.066 -1.0605 -0.1934  0.1033
  216MOL0     H29739   9.220   0.253   3.174 -2.6171 -0.9552  0.4091
  216MOL0     H29740   9.404   0.188   3.309 -1.1690 -2.6663  0.9000
  216MOL0     H29741   9.586   0.294   3.406  1.3349 -0.2410 -0.5464
  216MOL0     H29742   9.587   0.153   3.503 -0.9886  0.4091 -0.5594
  216MOL0     H29743   9.673   0.275   3.703 -1.1882  1.2764  1.6205
  216MOL0     H29744   9.781   0.243   3.563 -2.1062 -2.9709 -0.2593
  216MOL0     H29745   9.791   0.479   3.512  1.1364  2.6174  0.2259
  216MOL0     H29746   9.639   0.521   3.589 -0.5727 -0.5445  2.0975
  216MOL0     H29747   9.868   0.404   3.743 -0.0958 -1.1036 -2.7393
  216MOL0     H29748   9.897   0.559   3.665 -0.6463  0.9281 -0.4535
  216MOL0     H29749   9.816   0.565   3.895  0.4032 -3.1041 -0.8839
  216MOL0     H29750   9.653   0.521   3.847 -1.4731 -0.4557 -2.4312
  216MOL0     H29751   9.636   0.719   3.692  0.1017  2.1995  0.2604
  216MOL0     H29752   9.639   0.760   3.856 -0.8712 -0.8185 -0.7499
  216MOL0     H29753   9.865   0.785   3.650  2.5561 -0.2814  1.5550
  216MOL0     H29754   9.904   0.792   3.819  1.1483 -0.9999 -0.6111
  216MOL0     H29755   9.680   0.958   3.702 -0.0515 -0.0060  0.2483
  216MOL0     H29756   9.760   0.993   3.859  1.9016  0.3552  0.6610
  216MOL0     H29757   9.844   0.982   3.477 -0.4431  1.4682 -0.2112
  216MOL0     H29758   9.973   1.170   3.316  1.6896  2.2690 -2.5520
  216MOL0     H29759  10.134   1.142   3.380  0.0933 -1.9390  2.7788
  216MOL0     H29760   9.977   1.404   3.445  0.6412  3.2247 -0.6620
  216MOL0     H29761  10.148   1.365   3.471 -1.1046  0.0583  1.2583
  216MOL0     H29762  10.149   1.333   3.217 -0.0342 -0.5281  0.0771
  216MOL0     H29763   9.976   1.389   3.217 -0.9089 -0.3640  2.6356
  216MOL0     H29764  10.099   1.587   3.157 -1.9352  0.0340  0.5434
  216MOL0     H29765  10.035   1.612   3.315 -0.5455  0.4353 -0.7162
  216MOL0     H29766  10.263   1.581   3.055  0.1898 -0.8410  0.5519
  216MOL0     H29767  10.490   1.502   2.833 -1.5760  0.8265 -1.2706
  216MOL0     H29768  10.545   1.672   2.864 -0.3649  0.3840 -2.8236
  216MOL0     H29769  10.373   1.637   2.864 -0.1742  0.7756  1.5259
  216MOL0     H29770  10.883   1.737   2.917  2.0099 -0.3545  2.7629
  216MOL0     H29771  11.108   1.771   2.782 -0.7803  0.4351  3.0411
  216MOL0     H29772  11.347   1.437   2.792 -1.0134  0.3439  0.0279
  216MOL0     H29773  11.306   1.405   2.611 -1.5555  0.9223 -1.2037
  216MOL0     H29774  11.522   1.606   2.690  1.9988  0.4219 -1.4595
  216MOL0     H29775  11.557   1.430   2.695 -3.0120 -2.2010  0.0511
  216MOL0     H29776  11.410   1.554   2.454 -1.5194 -1.4266  0.2447
  216MOL0     H29777  11.498   1.408   2.461 -0.1753 -1.5112  3.3194
  216MOL0     H29778  11.646   1.656   2.537  1.4379 -3.1882  3.1166
  216MOL0     H29779  11.632   1.630   2.364 -1.5136 -1.0458 -0.0377
  216MOL0     H29780  11.768   1.460   2.571  0.4832 -0.2153 -0.4930
  216MOL0     H29781  11.726   1.387   2.426  0.4395 -1.2195  1.4604
  216MOL0     H29782  11.890   1.634   2.456  2.0071 -0.8619  0.9901
  216MOL0     H29783  11.844   1.563   2.294  0.2254 -0.4811  0.2908
  216MOL0     H29784  11.967   1.361   2.336 -0.6483  2.4459 -2.6400
  216MOL0     H29785  12.004   1.404   2.502 -1.0424 -1.9372 -0.4596
  216MOL0     H29786  12.129   1.615   2.382 -0.5193 -0.6185  1.7246
  216MOL0     H29787  12.118   1.509   2.243 -0.1274  0.0858  0.3901
  216MOL0     H29788  11.110   1.359   2.702  1.5648  1.0745  1.8614
  216MOL0     H29789  10.889   1.323   2.797 -0.2947  0.6310 -0.1349
  216MOL0     H29790  10.681   1.562   3.316 -1.0813 -2.3231 -0.5437
  216MOL0     H29791  10.479   1.577   3.430 -0.6882  0.9874 -0.3717
  216MOL0     H29792   9.241   0.430   3.639 -1.1815 -0.1666  0.0797
  216MOL0     H29793   9.040   0.480   3.486  0.3267 -0.9127  2.2634
  216MOL0     H29794   8.780   0.347   3.205  2.1093  0.8014 -0.1732
  216MOL0     H29795   8.553   0.368   3.131 -0.1124  0.2952 -0.9822
  216MOL0     H29796   8.344   0.434   3.026  0.5677 -0.6528  1.0734
  216MOL0     H29797   8.331   0.502   3.186 -3.4400 -0.0595 -0.5795
  216MOL0     H29798   8.206   0.622   2.938  0.5638 -3.0998 -0.7319
  216MOL0     H29799   8.196   0.693   3.102  0.1497 -1.2959  1.7411
  216MOL0     H29800   8.075   0.435   2.993 -4.7581  0.5528  0.0208
  216MOL0     H29801   8.107   0.457   3.165 -1.2505 -1.6670 -1.2057
  216MOL0     H29802   7.970   0.667   2.988  0.9481 -0.8406 -0.6283
  216MOL0     H29803   7.978   0.667   3.166  2.6657  1.0696 -0.9038
  216MOL0     H29804   7.675   0.380   3.093 -0.4534  0.8920 -1.9097
  216MOL0     H29805   8.627   0.781   3.041 -0.5327 -1.2845 -2.1191
  216MOL0     H29806   8.949   0.784   2.984 -2.6526 -0.2405 -1.3445
  216MOL0     H29807   8.820   0.884   3.029 -0.6781  0.9049  1.9672
  216MOL0     H29808   8.933   0.827   3.155 -2.8122 -0.7579  1.4375
  217MOL0     O29809   1.330   0.108   0.448 -0.0789  0.3592 -0.0491
  217MOL0     C29810   1.214   0.123   0.490  0.5645  0.2656  0.8204
  217MOL0     O29811   1.107   0.046   0.447 -0.1821  0.4517 -0.6834
  217MOL0     C29812   1.147  -0.065   0.372  0.1531  0.6828 -1.0373
  217MOL0     C29813   1.097  -0.077   0.241  0.3344 -0.2969 -0.1673
  217MOL0     C29814   1.123  -0.198   0.163  0.3352  0.6284 -0.9455
  217MOL0     C29815   1.188  -0.313   0.218  0.5440  0.1191 -0.5789
  217MOL0     O29816   1.202  -0.433   0.150  0.7407 -0.3482  0.2163
  217MOL0     C29817   1.269  -0.547   0.208 -0.1365 -1.0157 -0.1702
  217MOL0     C29818   1.266  -0.672   0.129 -0.3507 -0.1790  0.2888
  217MOL0     C29819   1.145  -0.766   0.148 -0.0182  0.8507 -0.4866
  217MOL0     C29820   1.144  -0.890   0.059 -0.3280 -0.6278  0.3344
  217MOL0     C29821   1.016  -0.976   0.103 -0.6578  0.1915 -0.3150
  217MOL0     C29822   0.996  -1.107   0.016 -0.2597 -0.0930 -0.4340
  217MOL0     C29823   0.860  -1.184   0.059 -0.6874  0.7129  0.8934
  217MOL0     C29824   0.851  -1.332   0.001 -0.0990  0.7524 -1.2057
  217MOL0     N29825   0.933  -1.413   0.087 -0.6823 -0.1590 -0.5196
  217MOL0     C29826   0.899  -1.470   0.207  0.2159 -0.4586  0.6910
  217MOL0     C29827   1.009  -1.535   0.243  0.9522 -0.0110 -0.3993
  217MOL0     C29828   1.016  -1.617   0.371  0.0733 -0.4956  0.5268
  217MOL0     C29829   1.151  -1.605   0.443  0.3260 -0.0257  0.1198
  217MOL0     C29830   1.161  -1.701   0.556 -0.3589  0.3516 -0.1076
  217MOL0     C29831   1.291  -1.687   0.632  0.1100  0.5558 -0.3293
  217MOL0     O29832   1.397  -1.728   0.546 -0.8026 -0.8692 -0.1820
  217MOL0     C29833   1.528  -1.697   0.590 -0.2588  0.3298  0.8392
  217MOL0     C29834   1.619  -1.700   0.483  0.9799  0.6886 -0.4762
  217MOL0     C29835   1.752  -1.659   0.492  0.2241 -0.1168 -0.4119
  217MOL0     C29836   1.836  -1.674   0.365  0.0525  0.3892  1.2373
  217MOL0     C29837   1.805  -1.622   0.619 -0.1799  0.4871  1.3348
  217MOL0     C29838   1.941  -1.568   0.638 -0.7724 -0.0234 -0.1574
  217MOL0     O29839   2.029  -1.582   0.537  0.0813  0.3673  0.5483
  217MOL0     C29840   2.163  -1.581   0.565 -0.8380 -0.2007 -0.1046
  217MOL0     C29841   2.243  -1.507   0.481  0.0545  0.2170  0.3483
  217MOL0     C29842   2.384  -1.520   0.493  0.6524 -0.7024 -0.4986
  217MOL0     C29843   2.442  -1.603   0.592 -1.4058 -0.1851 -0.0204
  217MOL0     O29844   2.580  -1.611   0.608 -0.0190  0.5540  0.0010
  217MOL0     C29845   2.661  -1.569   0.489 -0.5488  0.4418 -0.0146
  217MOL0     C29846   2.804  -1.610   0.503  0.1772 -0.0771 -0.5660
  217MOL0     C29847   2.893  -1.538   0.402  0.7867 -0.8133 -0.9334
  217MOL0     C29848   2.910  -1.596   0.267 -0.0970  0.2470  0.0097
  217MOL0     C29849   3.002  -1.509   0.181 -0.2703 -0.3121  0.1347
  217MOL0     C29850   2.957  -1.373   0.151  0.3187 -0.9197 -0.3753
  217MOL0     C29851   3.022  -1.309   0.026 -0.4448  0.8046 -0.0516
  217MOL0     C29852   3.004  -1.374  -0.116 -0.4747  0.2536  0.0949
  217MOL0    Cl29853   2.833  -1.404  -0.160  0.3815 -0.0253 -0.3902
  217MOL0     C29854   2.364  -1.669   0.680  0.5584  1.2121  0.3738
  217MOL0     C29855   2.224  -1.655   0.668  0.4020 -0.4086 -0.2815
  217MOL0     O29856   1.955  -1.502   0.741  0.3155 -0.3269  0.1587
  217MOL0     C29857   1.715  -1.640   0.731 -0.5676  0.4949  0.5574
  217MOL0     C29858   1.580  -1.675   0.719  0.7326  0.0450 -0.4138
  217MOL0     N29859   1.107  -1.531   0.149 -0.3499 -0.0014  0.2836
  217MOL0     N29860   1.063  -1.452   0.059 -0.6930 -0.1723 -0.3074
  217MOL0     C29861   1.250  -0.291   0.342  0.0098 -0.4323  0.1166
  217MOL0     C29862   1.229  -0.176   0.418  0.8941 -0.7273 -0.1750
  217MOL0     C29863   1.182   0.233   0.588 -0.3414  0.1644 -0.0068
  217MOL0     C29864   1.065   0.216   0.663 -0.0992 -0.5469  0.5407
  217MOL0     C29865   1.037   0.312   0.767 -0.0113 -0.1190  0.0430
  217MOL0     C29866   1.120   0.419   0.800 -0.0181  0.1663  0.0537
  217MOL0     O29867   1.072   0.502   0.899 -0.5904  0.5340  0.8224
  217MOL0     C29868   1.160   0.612   0.942 -1.0234  0.2067 -0.4791
  217MOL0     C29869   1.137   0.672   1.083 -0.7295  0.6800  1.2035
  217MOL0     C29870   1.245   0.783   1.121  0.2239 -0.3854 -0.4011
  217MOL0     C29871   1.213   0.847   1.257 -0.5927 -0.2466  0.4236
  217MOL0     C29872   1.311   0.785   1.356  0.8587 -0.2452 -0.7106
  217MOL0     C29873   1.398   0.735   1.424  0.0103  0.2658 -0.2042
  217MOL0     C29874   1.236   0.433   0.716  0.2577 -0.2756 -0.4803
  217MOL0     C29875   1.262   0.348   0.614  0.0305 -0.3343  0.7104
  217MOL0     C29876   1.378   0.390   0.525 -0.0354 -0.1470  0.9047
  217MOL0     H29877   1.020  -0.015   0.196 -1.1553 -2.0374 -0.1115
  217MOL0     H29878   1.059  -0.208   0.075 -0.1062 -2.1827 -0.3974
  217MOL0     H29879   1.236  -0.570   0.310  0.7418 -3.1231 -0.2959
  217MOL0     H29880   1.373  -0.513   0.204  0.0604 -1.7043 -1.3269
  217MOL0     H29881   1.276  -0.645   0.024  0.1249 -0.8072  0.1640
  217MOL0     H29882   1.362  -0.722   0.149 -0.7879 -0.1438  2.7209
  217MOL0     H29883   1.133  -0.808   0.248 -1.3177 -0.3076 -1.0936
  217MOL0     H29884   1.054  -0.707   0.132  0.0178  0.7706 -1.0272
  217MOL0     H29885   1.146  -0.861  -0.047  2.1980 -0.1112  0.4765
  217MOL0     H29886   1.235  -0.944   0.086 -2.4203 -3.2231  2.8985
  217MOL0     H29887   0.928  -0.912   0.092  0.4747  2.3045  1.9283
  217MOL0     H29888   1.025  -0.998   0.210 -1.5214  0.3837 -0.1963
  217MOL0     H29889   1.004  -1.071  -0.087  2.4987  1.9556  0.3422
  217MOL0     H29890   1.085  -1.165   0.043 -1.7477 -2.5294 -0.4597
  217MOL0     H29891   0.783  -1.119   0.017 -0.3757 -1.2487 -3.2088
  217MOL0     H29892   0.854  -1.183   0.168  3.3434 -4.8281  1.5925
  217MOL0     H29893   0.753  -1.380  -0.003  1.0374 -2.0869  1.2185
  217MOL0     H29894   0.898  -1.338  -0.098  0.9672 -3.3831 -0.6601
  217MOL0     H29895   0.802  -1.470   0.257 -0.1602  1.6026  0.0707
  217MOL0     H29896   0.995  -1.719   0.338  2.0791  0.0372 -2.9154
  217MOL0     H29897   0.938  -1.573   0.434 -2.5667 -1.2015 -2.0398
  217MOL0     H29898   1.230  -1.627   0.371 -1.2045 -2.6925 -0.9038
  217MOL0     H29899   1.166  -1.506   0.486  1.2141  1.4869 -3.2793
  217MOL0     H29900   1.073  -1.693   0.621 -1.0948  0.9832 -1.1599
  217MOL0     H29901   1.164  -1.804   0.518  1.1447  0.6844 -0.9669
  217MOL0     H29902   1.305  -1.585   0.671 -0.9129  0.1337  1.2493
  217MOL0     H29903   1.279  -1.755   0.716  1.0406  2.2820  1.2935
  217MOL0     H29904   1.578  -1.738   0.390 -2.6473  0.1894  1.1547
  217MOL0     H29905   1.902  -1.761   0.369  0.4456  0.4403 -1.7436
  217MOL0     H29906   1.884  -1.575   0.357 -0.3826  0.7271  2.6144
  217MOL0     H29907   1.774  -1.702   0.280  2.2522 -0.0457 -0.3181
  217MOL0     H29908   2.203  -1.441   0.405 -0.1569  0.8563  1.0115
  217MOL0     H29909   2.441  -1.451   0.432 -1.6685  1.6514 -0.2013
  217MOL0     H29910   2.620  -1.606   0.394 -1.3836 -1.1429  0.9167
  217MOL0     H29911   2.649  -1.461   0.480  0.8882  0.5522 -1.1520
  217MOL0     H29912   2.838  -1.578   0.602  0.4775 -1.9151 -0.0357
  217MOL0     H29913   2.808  -1.716   0.476  0.1426  0.0019 -0.8885
  217MOL0     H29914   2.988  -1.537   0.456 -0.3153  3.1158  1.3444
  217MOL0     H29915   2.863  -1.433   0.392  1.7318 -0.6302 -2.0476
  217MOL0     H29916   2.812  -1.599   0.219  1.0143  1.0712 -2.4424
  217MOL0     H29917   2.959  -1.693   0.278 -0.3673 -0.1405 -1.8976
  217MOL0     H29918   3.101  -1.493   0.223  0.0066  1.3977 -1.0365
  217MOL0     H29919   3.008  -1.565   0.087 -0.5927 -0.2568  0.0809
  217MOL0     H29920   2.982  -1.313   0.239  0.6059  0.7953 -1.5821
  217MOL0     H29921   2.848  -1.373   0.141  0.3926 -0.0349 -1.2684
  217MOL0     H29922   3.128  -1.309   0.049 -0.5707  0.0359  0.5577
  217MOL0     H29923   2.986  -1.205   0.023 -2.0769  0.2943  0.5766
  217MOL0     H29924   3.064  -1.465  -0.125  1.1291  1.1573  1.1171
  217MOL0     H29925   3.049  -1.306  -0.189 -0.3952  2.7024  2.2881
  217MOL0     H29926   2.408  -1.747   0.740  3.6343 -0.1169 -3.2403
  217MOL0     H29927   2.161  -1.710   0.736 -0.8041  2.9712  1.5564
  217MOL0     H29928   1.766  -1.616   0.825  2.9959  1.9693 -1.5365
  217MOL0     H29929   1.512  -1.686   0.802  0.5271  0.5108 -0.5186
  217MOL0     H29930   1.321  -0.365   0.379  2.7229  2.8129  1.8894
  217MOL0     H29931   1.260  -0.174   0.522  3.6993 -0.6864 -0.9409
  217MOL0     H29932   0.992   0.137   0.650  2.7747 -3.6157  1.7144
  217MOL0     H29933   0.937   0.307   0.811  0.2295  3.0301  1.1734
  217MOL0     H29934   1.263   0.575   0.937 -1.3992 -0.9701  0.2193
  217MOL0     H29935   1.147   0.703   0.882 -2.6897  0.2564 -0.0883
  217MOL0     H29936   1.144   0.595   1.160  1.7713 -1.1427 -0.6743
  217MOL0     H29937   1.032   0.706   1.087 -1.6263 -1.5772 -0.8058
  217MOL0     H29938   1.348   0.746   1.114  1.3954  2.7418 -1.4994
  217MOL0     H29939   1.264   0.865   1.051  1.7577 -1.6262 -1.5190
  217MOL0     H29940   1.110   0.818   1.280 -0.5124  0.5335  1.9185
  217MOL0     H29941   1.232   0.954   1.271  0.1997 -0.6066  2.4629
  217MOL0     H29942   1.467   0.678   1.483  0.9024 -1.2158 -2.5228
  217MOL0     H29943   1.291   0.524   0.738  0.1684 -1.1816  4.5658
  217MOL0     H29944   1.443   0.307   0.494  0.6014  0.2035  1.2779
  217MOL0     H29945   1.341   0.430   0.430  0.6850 -1.6590 -0.0458
  217MOL0     H29946   1.449   0.458   0.573  2.5624 -1.9191 -0.1822
  218MOL0     O29947   4.881   0.059   3.327 -1.0093  0.1861 -0.3339
  218MOL0     C29948   4.841   0.175   3.364  0.6712  1.0625  0.2970
  218MOL0     O29949   4.925   0.282   3.380  0.0563  0.1662 -0.0884
  218MOL0     C29950   5.061   0.281   3.352  0.4296  0.3952  0.6714
  218MOL0     C29951   5.141   0.364   3.430 -0.0416  0.5446 -0.1287
  218MOL0     C29952   5.279   0.377   3.405 -0.1433  0.8320 -0.4392
  218MOL0     C29953   5.340   0.305   3.303 -0.5576  0.2945  0.5980
  218MOL0     O29954   5.470   0.318   3.268  0.0590 -0.2031 -0.2318
  218MOL0     C29955   5.543   0.435   3.322 -0.1506  0.6337  0.4052
  218MOL0     C29956   5.495   0.567   3.260 -0.7346  0.4150  0.6307
  218MOL0     C29957   5.500   0.690   3.358 -0.1507  1.2620  0.1579
  218MOL0     C29958   5.645   0.715   3.401  1.3930  0.3452 -0.3611
  218MOL0     C29959   5.652   0.844   3.474  0.7124 -0.2016 -0.6360
  218MOL0     C29960   5.784   0.885   3.545 -0.0933  0.7340  0.0824
  218MOL0     C29961   5.905   0.894   3.450 -1.1530 -0.6612 -0.3413
  218MOL0     C29962   6.040   0.936   3.513  0.5505 -0.9981 -0.4826
  218MOL0     N29963   6.109   0.819   3.575 -0.4898  0.1607  0.4917
  218MOL0     C29964   6.226   0.758   3.520 -0.2375  0.0608 -0.6614
  218MOL0     C29965   6.245   0.650   3.601  0.6176 -0.2136  0.0204
  218MOL0     C29966   6.349   0.542   3.605  0.8659 -0.4866 -0.2338
  218MOL0     C29967   6.344   0.458   3.471 -0.0136 -0.2409 -0.8187
  218MOL0     C29968   6.446   0.354   3.447 -0.4643  1.0844  0.3989
  218MOL0     C29969   6.584   0.405   3.489  0.7025 -0.4811  0.3907
  218MOL0     O29970   6.679   0.379   3.387  0.0884 -0.1198 -0.3060
  218MOL0     C29971   6.813   0.407   3.419  0.9465 -0.2773  0.6077
  218MOL0     C29972   6.904   0.366   3.321 -1.5506 -0.1049  0.5542
  218MOL0     C29973   7.035   0.395   3.325 -0.5762  0.2889 -0.0618
  218MOL0     C29974   7.132   0.336   3.229  0.6761 -0.0110 -0.1856
  218MOL0     C29975   7.077   0.469   3.434 -0.4377 -0.3826  0.1730
  218MOL0     C29976   7.219   0.515   3.458 -1.0532 -0.0547  0.0295
  218MOL0     O29977   7.297   0.536   3.353 -0.0098  0.8380  0.3406
  218MOL0     C29978   7.417   0.599   3.376  0.2324  0.1140 -0.9810
  218MOL0     C29979   7.544   0.537   3.371  0.1402 -0.8785  0.7668
  218MOL0     C29980   7.650   0.629   3.375 -0.9219  0.6324 -0.0269
  218MOL0     C29981   7.644   0.768   3.388 -0.5847  0.7403 -0.4644
  218MOL0     O29982   7.765   0.836   3.396 -0.9991 -0.2579  0.1325
  218MOL0     C29983   7.770   0.963   3.461 -0.0014 -0.9859 -0.8078
  218MOL0     C29984   7.916   0.988   3.526  0.3264 -0.1197 -0.1531
  218MOL0     C29985   8.037   0.993   3.430  0.9449  0.3782  0.4054
  218MOL0     C29986   8.175   0.985   3.506 -0.3556 -0.8573 -0.1393
  218MOL0     C29987   8.280   0.903   3.419  0.1113 -0.1512  0.5154
  218MOL0     C29988   8.418   0.875   3.493 -0.0440  0.0796  0.8799
  218MOL0     C29989   8.515   0.801   3.401  0.6930 -0.2071  0.5938
  218MOL0     C29990   8.632   0.755   3.488  0.3455 -0.9024 -0.6289
  218MOL0    Cl29991   8.722   0.911   3.542 -0.3602 -0.2537 -0.2197
  218MOL0     C29992   7.519   0.825   3.400 -0.8940 -0.5972 -0.0216
  218MOL0     C29993   7.411   0.739   3.396  1.0378  0.3993  0.5062
  218MOL0     O29994   7.248   0.525   3.576 -0.0237 -0.0650  0.0988
  218MOL0     C29995   6.989   0.516   3.534  1.0327 -0.5868 -0.1239
  218MOL0     C29996   6.855   0.481   3.531  0.0085  0.8089  0.4634
  218MOL0     N29997   6.152   0.658   3.706  0.7693  0.5959  0.3327
  218MOL0     N29998   6.069   0.754   3.687  0.5395  0.2153  0.4947
  218MOL0     C29999   5.264   0.223   3.225  0.2917 -0.6386  0.5199
  218MOL0     C30000   5.121   0.215   3.235 -0.1862  0.1335 -0.8438
  218MOL0     C30001   4.693   0.195   3.392 -0.3603 -0.4322  0.1423
  218MOL0     C30002   4.631   0.318   3.351 -0.1348  0.7046 -0.4393
  218MOL0     C30003   4.503   0.345   3.364  1.2420  0.0074 -0.8897
  218MOL0     C30004   4.421   0.241   3.413 -0.6100 -0.0130  0.0393
  218MOL0     O30005   4.291   0.264   3.450 -0.3594 -0.3315 -0.0588
  218MOL0     C30006   4.194   0.163   3.462 -0.6418 -0.6233 -1.0813
  218MOL0     C30007   4.059   0.222   3.496 -0.3929  0.0533  1.1266
  218MOL0     C30008   4.015   0.327   3.397 -0.1987  0.1243 -0.2466
  218MOL0     C30009   3.866   0.384   3.436 -0.0586 -0.4319  0.0884
  218MOL0     C30010   3.766   0.274   3.434 -0.7002 -0.1398  0.0996
  218MOL0     C30011   3.674   0.196   3.439  0.3941  0.8974 -0.2898
  218MOL0     C30012   4.475   0.122   3.458 -0.9969  0.1729  0.2568
  218MOL0     C30013   4.615   0.102   3.449  0.3322  0.5918 -0.6395
  218MOL0     C30014   4.650  -0.035   3.502 -0.1446  0.1863 -0.8359
  218MOL0     H30015   5.095   0.426   3.505  1.5267 -0.5127  1.8115
  218MOL0     H30016   5.339   0.438   3.471 -0.2685  1.6970 -1.1069
  218MOL0     H30017   5.647   0.421   3.293 -0.6347  0.5102 -1.4629
  218MOL0     H30018   5.545   0.443   3.431  0.1932 -1.6001  0.6270
  218MOL0     H30019   5.532   0.599   3.162 -1.5757  3.6748  1.2316
  218MOL0     H30020   5.389   0.558   3.237 -0.9318 -1.2319  2.0533
  218MOL0     H30021   5.452   0.778   3.316  0.3615  1.8728  0.8368
  218MOL0     H30022   5.438   0.669   3.446 -0.9008  0.5005 -0.5376
  218MOL0     H30023   5.697   0.637   3.458 -0.6762  0.6531  2.1303
  218MOL0     H30024   5.699   0.713   3.306 -0.7433  2.3777 -1.7182
  218MOL0     H30025   5.576   0.839   3.552 -0.0687  3.3883 -1.0034
  218MOL0     H30026   5.628   0.921   3.399  2.0155  0.5300 -0.3391
  218MOL0     H30027   5.776   0.980   3.597 -0.1175  0.1395  1.1868
  218MOL0     H30028   5.801   0.817   3.629  0.3911  1.5017  0.6137
  218MOL0     H30029   5.888   0.976   3.379  1.3448  0.6943  0.4911
  218MOL0     H30030   5.925   0.799   3.401  1.4351 -1.3227  1.7336
  218MOL0     H30031   6.097   0.980   3.431  0.2499  1.9836  0.7783
  218MOL0     H30032   6.016   1.014   3.587  0.8143 -0.8407 -0.5597
  218MOL0     H30033   6.280   0.791   3.432  0.7385  1.1555  0.3097
  218MOL0     H30034   6.331   0.471   3.687  1.5601 -0.8025 -0.3511
  218MOL0     H30035   6.441   0.592   3.638 -0.3066  1.3143  0.4634
  218MOL0     H30036   6.250   0.404   3.485  0.0386 -0.3629 -0.9303
  218MOL0     H30037   6.335   0.526   3.386 -1.4247  1.9173  0.9393
  218MOL0     H30038   6.426   0.269   3.513 -0.8353  1.6823  1.0691
  218MOL0     H30039   6.453   0.337   3.339  4.5145  1.0070  0.5473
  218MOL0     H30040   6.576   0.513   3.506 -1.0152  0.2148 -3.7334
  218MOL0     H30041   6.606   0.359   3.586  0.7316 -0.0782  0.5781
  218MOL0     H30042   6.863   0.307   3.240 -0.9994 -1.3364  1.1385
  218MOL0     H30043   7.102   0.241   3.185  1.3784  0.2780 -1.3064
  218MOL0     H30044   7.224   0.314   3.284  0.3497 -0.5206  0.1751
  218MOL0     H30045   7.141   0.411   3.150 -0.2062 -0.5196 -0.7823
  218MOL0     H30046   7.569   0.432   3.356  3.5424  0.0072 -0.8406
  218MOL0     H30047   7.749   0.586   3.379 -1.0176  0.5224  2.2331
  218MOL0     H30048   7.745   1.049   3.399 -1.8065 -1.2716 -0.5175
  218MOL0     H30049   7.699   0.956   3.544  0.5212 -0.9941 -0.3507
  218MOL0     H30050   7.913   1.078   3.588 -2.3637  0.1757 -0.6139
  218MOL0     H30051   7.916   0.903   3.595 -3.9866 -0.4705 -0.3347
  218MOL0     H30052   8.021   1.083   3.369  1.6934  1.1134  1.2657
  218MOL0     H30053   8.023   0.910   3.360  0.5710  3.1193 -3.0519
  218MOL0     H30054   8.153   0.929   3.598  1.2740  1.4493  1.7761
  218MOL0     H30055   8.219   1.083   3.523  2.6675 -1.8783 -1.3898
  218MOL0     H30056   8.227   0.815   3.381  0.6964 -0.0803 -0.4825
  218MOL0     H30057   8.313   0.947   3.325 -0.1912  0.4886  0.6977
  218MOL0     H30058   8.392   0.814   3.580 -2.0310 -2.3398 -1.2465
  218MOL0     H30059   8.459   0.968   3.534  1.2866 -0.7680  1.5518
  218MOL0     H30060   8.547   0.863   3.316 -1.2547 -0.8933 -0.7167
  218MOL0     H30061   8.468   0.717   3.350  1.8687  0.7636 -2.3096
  218MOL0     H30062   8.703   0.687   3.440  0.4515 -1.4227  0.2477
  218MOL0     H30063   8.586   0.696   3.568 -0.2466  0.7479  0.2966
  218MOL0     H30064   7.499   0.932   3.394 -1.1705 -0.6052  0.6009
  218MOL0     H30065   7.316   0.792   3.391  0.2962 -0.6851  2.2347
  218MOL0     H30066   7.012   0.577   3.621 -3.8002 -1.1188  1.8101
  218MOL0     H30067   6.783   0.500   3.610 -0.5268 -0.1295  0.2190
  218MOL0     H30068   5.306   0.174   3.138 -1.0887 -0.6132 -0.1972
  218MOL0     H30069   5.059   0.160   3.166 -0.5819  4.3468 -4.2836
  218MOL0     H30070   4.695   0.391   3.303  1.6153  0.6655  1.6721
  218MOL0     H30071   4.462   0.444   3.347  1.3752  0.5967  1.8760
  218MOL0     H30072   4.196   0.109   3.367  0.5875 -2.8180  0.1034
  218MOL0     H30073   4.216   0.100   3.549 -1.8061  2.2134  1.4507
  218MOL0     H30074   4.055   0.265   3.596  2.9300 -2.5457  2.5495
  218MOL0     H30075   3.986   0.141   3.485  1.7749 -2.1985  2.2850
  218MOL0     H30076   4.082   0.412   3.410  0.5893 -0.3234 -1.2442
  218MOL0     H30077   4.014   0.290   3.294 -1.2219  2.0060 -0.9724
  218MOL0     H30078   3.840   0.473   3.377  1.7939  0.7932  1.0146
  218MOL0     H30079   3.856   0.413   3.541  0.3457  1.6175 -0.3893
  218MOL0     H30080   3.589   0.131   3.438 -1.3400  3.0517 -0.8766
  218MOL0     H30081   4.413   0.038   3.489  0.7701 -1.0022  0.7893
  218MOL0     H30082   4.633  -0.106   3.420  2.1314 -0.1006 -1.1099
  218MOL0     H30083   4.755  -0.039   3.533 -0.5406  1.2330  0.7287
  218MOL0     H30084   4.594  -0.059   3.593  2.6760  2.1742  1.6159
  219MOL0     O30085   8.378   0.187  10.190  0.1779  0.1587 -0.3973
  219MOL0     C30086   8.317   0.295  10.200  0.4085 -0.2070  0.0829
  219MOL0     O30087   8.384   0.421  10.188  0.4206 -0.6761 -0.0600
  219MOL0     C30088   8.516   0.429  10.147  0.3959 -0.9419 -0.6939
  219MOL0     C30089   8.560   0.363  10.036  0.6833 -0.1701 -0.4292
  219MOL0     C30090   8.698   0.364   9.999 -0.8138 -0.0262 -0.3801
  219MOL0     C30091   8.792   0.432  10.087  0.5281 -0.1277  0.5113
  219MOL0     O30092   8.932   0.440  10.067  0.3857 -0.2125 -0.3931
  219MOL0     C30093   8.985   0.454   9.937  0.3570  0.4185 -0.0433
  219MOL0     C30094   9.136   0.498   9.938  0.8155 -0.0415  0.8745
  219MOL0     C30095   9.230   0.399  10.005 -0.1922 -0.0274 -0.0826
  219MOL0     C30096   9.377   0.428   9.961  0.7730 -0.2480 -0.4512
  219MOL0     C30097   9.479   0.322  10.015 -1.3511 -0.1807  0.7685
  219MOL0     C30098   9.620   0.324   9.958  0.2407 -0.1581 -0.3971
  219MOL0     C30099   9.618   0.290   9.804  0.1928 -0.0247 -0.2631
  219MOL0     C30100   9.770   0.288   9.754  0.0950  0.4459  0.4461
  219MOL0     N30101   9.848   0.177   9.814 -0.4944  0.1455 -0.6195
  219MOL0     C30102   9.819   0.039   9.797  0.4873 -0.4771 -0.4279
  219MOL0     C30103   9.917  -0.009   9.876  0.7405  0.1491 -0.0226
  219MOL0     C30104   9.948  -0.157   9.893 -0.4554  0.5942 -0.4414
  219MOL0     C30105  10.026  -0.183  10.018 -0.4144 -0.1015 -0.2595
  219MOL0     C30106  10.092  -0.322  10.022  0.5488  0.4316  0.7300
  219MOL0     C30107  10.189  -0.324  10.145 -0.2563  0.9100 -0.4831
  219MOL0     O30108  10.279  -0.434  10.123  0.1397  0.2541  1.0211
  219MOL0     C30109  10.389  -0.422  10.041 -0.2709 -0.5553  0.3449
  219MOL0     C30110  10.404  -0.331   9.939 -0.1736 -0.4137 -0.2064
  219MOL0     C30111  10.509  -0.348   9.840 -0.2164  0.1210  0.0523
  219MOL0     C30112  10.517  -0.244   9.732 -0.0588 -0.3926  1.2944
  219MOL0     C30113  10.604  -0.450   9.866 -0.5173  0.6586  0.0394
  219MOL0     C30114  10.721  -0.468   9.775 -0.1552 -0.5357 -0.5282
  219MOL0     O30115  10.801  -0.564   9.824  0.2674 -0.1720  0.1508
  219MOL0     C30116  10.929  -0.577   9.773  0.3506  0.0684 -0.7419
  219MOL0     C30117  10.979  -0.673   9.677  0.3260  0.0412  0.0185
  219MOL0     C30118  11.114  -0.678   9.639 -0.5532 -0.6237 -0.8432
  219MOL0     C30119  11.205  -0.598   9.702  0.0647 -0.4316 -0.6722
  219MOL0     O30120  11.335  -0.620   9.678  0.1827 -0.0108  0.0568
  219MOL0     C30121  11.410  -0.664   9.781 -0.8366 -0.0045 -0.4957
  219MOL0     C30122  11.556  -0.663   9.735  0.0158  0.3884  0.6819
  219MOL0     C30123  11.634  -0.782   9.791 -0.1188 -0.5590 -0.3829
  219MOL0     C30124  11.777  -0.763   9.744  0.0410 -0.2716  0.0775
  219MOL0     C30125  11.867  -0.860   9.811  0.9261  0.3234 -0.0936
  219MOL0     C30126  12.012  -0.822   9.815  1.0760  0.8174 -0.5226
  219MOL0     C30127  12.085  -0.937   9.892  0.0919 -0.8119  0.3786
  219MOL0     C30128  12.237  -0.909   9.897  1.4227  0.4857 -0.4569
  219MOL0    Cl30129  12.323  -0.986   9.763  0.4130 -0.1854  0.0395
  219MOL0     C30130  11.161  -0.502   9.792 -0.3009  0.5153  0.0973
  219MOL0     C30131  11.030  -0.501   9.833 -0.1616  0.6887 -0.2658
  219MOL0     O30132  10.744  -0.404   9.672 -0.7854  0.1022  0.3000
  219MOL0     C30133  10.580  -0.536   9.970 -0.7274  0.7411 -0.5099
  219MOL0     C30134  10.479  -0.521  10.053  0.5229  0.2320  0.2634
  219MOL0     N30135  10.006   0.087   9.922  0.1968 -1.0804 -0.3035
  219MOL0     N30136   9.961   0.201   9.892  0.4826  0.3189  0.0622
  219MOL0     C30137   8.744   0.508  10.191  0.5760 -0.5071 -0.5869
  219MOL0     C30138   8.608   0.508  10.222  1.3051 -0.7323  0.3501
  219MOL0     C30139   8.169   0.302  10.216  0.0304  0.6238 -0.0738
  219MOL0     C30140   8.097   0.191  10.165  0.1754 -0.2683  0.2591
  219MOL0     C30141   7.963   0.176  10.183  0.2634  0.6316 -0.5562
  219MOL0     C30142   7.894   0.275  10.260 -0.0879  0.9004  0.1056
  219MOL0     O30143   7.760   0.255  10.283 -0.2045  0.4558  0.0887
  219MOL0     C30144   7.680   0.362  10.343 -0.2067  0.6230 -0.8424
  219MOL0     C30145   7.530   0.360  10.325 -0.4648  0.1919  0.3446
  219MOL0     C30146   7.461   0.227  10.338 -0.0168  0.0264  0.6123
  219MOL0     C30147   7.323   0.226  10.267  0.1367  0.1807  0.0963
  219MOL0     C30148   7.266   0.096  10.272 -0.0316 -0.6349 -1.0174
  219MOL0     C30149   7.215  -0.016  10.262 -0.1002 -0.7404 -0.6485
  219MOL0     C30150   7.959   0.392  10.303 -0.6346  0.0783  0.3133
  219MOL0     C30151   8.098   0.401  10.289 -0.0744  0.1568  0.3078
  219MOL0     C30152   8.162   0.523  10.346  0.6719  0.5133 -0.1859
  219MOL0     H30153   8.484   0.314   9.976 -1.4193  0.3008  1.7133
  219MOL0     H30154   8.728   0.318   9.906  0.1407  2.0079 -1.1508
  219MOL0     H30155   8.932   0.535   9.885  1.2555  0.0898 -1.5057
  219MOL0     H30156   8.982   0.359   9.883  2.5281 -0.5432  1.4089
  219MOL0     H30157   9.173   0.507   9.835  0.7699  1.4254  0.9718
  219MOL0     H30158   9.151   0.601   9.970  1.2378 -0.2064  1.2198
  219MOL0     H30159   9.212   0.422  10.110  0.3216  2.8173 -0.5294
  219MOL0     H30160   9.204   0.295   9.983 -1.2401  0.3971 -0.9443
  219MOL0     H30161   9.379   0.443   9.852 -0.7267 -0.8733 -0.5885
  219MOL0     H30162   9.407   0.521  10.009 -0.1898  1.0964 -2.3271
  219MOL0     H30163   9.436   0.223   9.996 -2.6939  0.4035  0.6950
  219MOL0     H30164   9.500   0.339  10.121  0.1319 -2.1202  0.8490
  219MOL0     H30165   9.654   0.427   9.948  1.2445 -0.6185 -2.2056
  219MOL0     H30166   9.695   0.265  10.010  0.3601  1.0096  0.7902
  219MOL0     H30167   9.578   0.372   9.743  1.8822 -0.0756 -1.5146
  219MOL0     H30168   9.568   0.195   9.783  2.4265 -1.2293 -0.3626
  219MOL0     H30169   9.775   0.281   9.645  2.2248 -0.5304  0.5585
  219MOL0     H30170   9.810   0.383   9.790 -0.3605 -0.2326  2.9406
  219MOL0     H30171   9.734  -0.006   9.746 -1.7008  1.8190  0.9512
  219MOL0     H30172  10.000  -0.194   9.804  0.0591  0.4202 -0.0739
  219MOL0     H30173   9.851  -0.205   9.907  0.2404 -0.4590  0.9470
  219MOL0     H30174  10.111  -0.115  10.031 -0.3332  0.7900 -4.1781
  219MOL0     H30175   9.953  -0.165  10.097  1.8724  4.0168  1.2418
  219MOL0     H30176  10.026  -0.409  10.032  3.5690 -1.9868  0.8079
  219MOL0     H30177  10.152  -0.334   9.932 -0.3808  0.0429  0.1462
  219MOL0     H30178  10.254  -0.236  10.153 -0.5055  1.1848 -1.3185
  219MOL0     H30179  10.132  -0.348  10.235  1.1125  0.6619  0.3324
  219MOL0     H30180  10.333  -0.255   9.909 -0.1586  0.2930  1.4641
  219MOL0     H30181  10.593  -0.171   9.762  1.1379 -1.1676  0.2519
  219MOL0     H30182  10.425  -0.188   9.718  1.5228  2.1466  0.2343
  219MOL0     H30183  10.551  -0.290   9.639 -1.3458 -0.0731  0.6447
  219MOL0     H30184  10.909  -0.742   9.631 -0.9192  0.2910  1.4188
  219MOL0     H30185  11.145  -0.750   9.564  1.5677 -0.3654 -0.2750
  219MOL0     H30186  11.407  -0.596   9.866 -0.2677 -0.6635  0.0653
  219MOL0     H30187  11.370  -0.762   9.808 -0.8979  0.5351  1.4948
  219MOL0     H30188  11.564  -0.667   9.626 -1.0236 -0.4775  0.6266
  219MOL0     H30189  11.595  -0.567   9.770  1.2225  0.1417  0.0527
  219MOL0     H30190  11.588  -0.871   9.747  0.6659 -0.8006 -0.7289
  219MOL0     H30191  11.638  -0.792   9.899 -1.2634 -1.3901 -0.4059
  219MOL0     H30192  11.818  -0.667   9.775  2.2367 -0.9259 -0.6216
  219MOL0     H30193  11.792  -0.766   9.635  0.3020  4.0335 -0.1681
  219MOL0     H30194  11.834  -0.886   9.912 -1.0881 -0.8186 -0.9852
  219MOL0     H30195  11.867  -0.946   9.744  1.1681  0.6854 -0.5604
  219MOL0     H30196  12.025  -0.732   9.876 -0.1165  0.1509  0.7768
  219MOL0     H30197  12.052  -0.805   9.715  0.4451  0.9665 -0.7570
  219MOL0     H30198  12.081  -1.036   9.845  1.6324 -0.4687 -0.5331
  219MOL0     H30199  12.032  -0.952   9.987  0.6783  2.7921  1.4135
  219MOL0     H30200  12.272  -0.964   9.985  1.7352 -1.6972 -1.8700
  219MOL0     H30201  12.245  -0.802   9.916 -0.9368  0.1098  4.0519
  219MOL0     H30202  11.230  -0.433   9.840 -1.3836  1.5384  0.2300
  219MOL0     H30203  10.994  -0.434   9.910 -4.1825 -1.9337  0.4113
  219MOL0     H30204  10.646  -0.621   9.985 -1.8671 -0.0943 -0.0700
  219MOL0     H30205  10.457  -0.598  10.126 -1.1660 -0.4460 -0.8923
  219MOL0     H30206   8.815   0.553  10.260  0.4487 -2.1354  0.6588
  219MOL0     H30207   8.577   0.550  10.317  1.7893 -0.4031  0.3669
  219MOL0     H30208   8.138   0.108  10.109 -1.1408  0.8739 -2.6488
  219MOL0     H30209   7.919   0.078  10.166  1.8792 -0.5606  1.5886
  219MOL0     H30210   7.700   0.355  10.451  1.3527  0.2203 -1.1292
  219MOL0     H30211   7.714   0.449  10.286 -0.3773  0.8961 -0.5286
  219MOL0     H30212   7.511   0.400  10.225 -0.2389 -0.8747 -0.1310
  219MOL0     H30213   7.482   0.427  10.397  0.2249  2.0870 -0.8729
  219MOL0     H30214   7.526   0.150  10.296  0.7951  0.0199  1.8303
  219MOL0     H30215   7.440   0.206  10.443 -2.9729  1.4289  0.4262
  219MOL0     H30216   7.332   0.236  10.159 -0.5586 -1.6839 -0.1690
  219MOL0     H30217   7.250   0.301  10.298 -0.2715 -0.2046  0.0902
  219MOL0     H30218   7.183  -0.118  10.250  3.0449 -1.8902 -0.1078
  219MOL0     H30219   7.908   0.473  10.355  2.7145  1.2555  2.0661
  219MOL0     H30220   8.227   0.573  10.274  2.0146  0.5743  1.0033
  219MOL0     H30221   8.099   0.607  10.373 -0.4494 -1.0649  2.5486
  219MOL0     H30222   8.232   0.490  10.424 -1.8430  0.0059  1.9700
  220MOL0     O30223   5.497   4.493   0.561 -0.4494  0.9331 -0.4047
  220MOL0     C30224   5.394   4.530   0.596  0.0556 -0.0593  0.1877
  220MOL0     O30225   5.297   4.587   0.516  0.1361  0.0283  0.7684
  220MOL0     C30226   5.333   4.621   0.387  0.2516 -0.9313 -0.3918
  220MOL0     C30227   5.413   4.739   0.361  0.1086 -0.4724 -0.9581
  220MOL0     C30228   5.454   4.783   0.238  0.2603 -0.3461  0.3894
  220MOL0     C30229   5.412   4.713   0.124 -0.1030 -0.0662  0.2005
  220MOL0     O30230   5.450   4.744  -0.006 -0.3665  0.0823  0.6277
  220MOL0     C30231   5.534   4.852  -0.028 -0.3972 -0.4581 -0.5067
  220MOL0     C30232   5.560   4.867  -0.177  0.0455  0.2715  0.0015
  220MOL0     C30233   5.669   4.760  -0.222 -0.5058 -0.4250 -0.7701
  220MOL0     C30234   5.776   4.808  -0.328  0.0028  0.7668  0.5275
  220MOL0     C30235   5.841   4.687  -0.408 -0.1318  0.2481 -0.5166
  220MOL0     C30236   5.936   4.732  -0.523  0.5943  0.0614  0.1772
  220MOL0     C30237   5.876   4.838  -0.625  0.3577 -1.1679  0.6088
  220MOL0     C30238   5.961   4.866  -0.748 -0.3600  0.7942  0.0123
  220MOL0     N30239   6.098   4.890  -0.706  0.2315 -0.4263  0.2522
  220MOL0     C30240   6.132   4.998  -0.629 -0.6103 -1.0028  0.4553
  220MOL0     C30241   6.252   4.961  -0.597 -0.3240  0.1160 -1.1914
  220MOL0     C30242   6.347   5.044  -0.518 -0.7984 -0.0107  0.3824
  220MOL0     C30243   6.464   5.100  -0.602 -0.0889 -0.3156 -0.3701
  220MOL0     C30244   6.554   4.997  -0.653 -1.1867  0.0638 -0.2944
  220MOL0     C30245   6.707   5.034  -0.662  0.2409 -0.6932  0.3753
  220MOL0     O30246   6.729   5.168  -0.713  0.4350 -0.3794  0.4508
  220MOL0     C30247   6.844   5.240  -0.678  0.5125 -0.9849 -0.1327
  220MOL0     C30248   6.848   5.375  -0.681  0.3130 -0.4381  0.5126
  220MOL0     C30249   6.965   5.446  -0.665  0.3649 -0.2760 -0.1283
  220MOL0     C30250   6.956   5.597  -0.679 -0.3010 -1.1718  0.3821
  220MOL0     C30251   7.086   5.372  -0.642  0.1147  0.1086 -0.3533
  220MOL0     C30252   7.221   5.438  -0.628 -0.2623  0.7388  0.0910
  220MOL0     O30253   7.326   5.363  -0.571  0.5079 -0.2017 -0.0237
  220MOL0     C30254   7.444   5.430  -0.554 -0.6057  0.1718  0.2009
  220MOL0     C30255   7.476   5.499  -0.439  0.2985  0.2264 -0.3375
  220MOL0     C30256   7.605   5.561  -0.435  0.1679 -0.3737  0.2482
  220MOL0     C30257   7.694   5.546  -0.548 -0.5023 -0.7506 -0.1455
  220MOL0     O30258   7.823   5.598  -0.557  0.1256  0.2099  0.5080
  220MOL0     C30259   7.874   5.659  -0.441  0.3691  0.2552 -0.1202
  220MOL0     C30260   8.017   5.711  -0.476  0.3086  0.3568  0.1332
  220MOL0     C30261   8.106   5.612  -0.562  0.0177  0.1108  0.8667
  220MOL0     C30262   8.247   5.662  -0.578  0.4131 -0.4604 -0.5726
  220MOL0     C30263   8.327   5.543  -0.638  0.4917 -0.1227  0.2764
  220MOL0     C30264   8.475   5.588  -0.655 -0.3805 -1.3875 -0.8422
  220MOL0     C30265   8.535   5.636  -0.519  0.2676 -0.2078 -0.7961
  220MOL0     C30266   8.689   5.652  -0.521 -0.0962  0.5241  0.1304
  220MOL0    Cl30267   8.746   5.774  -0.635 -0.2176 -0.2033  0.6031
  220MOL0     C30268   7.657   5.471  -0.659 -0.5426 -0.1894 -0.1548
  220MOL0     C30269   7.536   5.402  -0.659  0.3600  0.0944 -0.3089
  220MOL0     O30270   7.232   5.549  -0.678 -0.0442 -0.0520  0.3378
  220MOL0     C30271   7.084   5.232  -0.624 -0.4566  0.0563  0.1013
  220MOL0     C30272   6.961   5.172  -0.648 -0.4800  0.3593 -0.2310
  220MOL0     N30273   6.288   4.841  -0.640 -0.3396 -0.2037 -0.1723
  220MOL0     N30274   6.192   4.800  -0.711  0.1461  0.3506  0.1842
  220MOL0     C30275   5.340   4.594   0.146 -0.0211  0.4899 -0.5859
  220MOL0     C30276   5.303   4.549   0.279  0.4728  0.5404  0.1119
  220MOL0     C30277   5.367   4.511   0.744  0.2284 -0.1414  0.7774
  220MOL0     C30278   5.238   4.537   0.794  0.2915 -0.5471  0.8745
  220MOL0     C30279   5.203   4.516   0.928 -0.4395 -0.5262 -0.0933
  220MOL0     C30280   5.293   4.453   1.015 -0.4396  0.0046  0.7950
  220MOL0     O30281   5.265   4.433   1.139  0.0802 -0.0089 -0.4539
  220MOL0     C30282   5.242   4.298   1.173 -0.7701  0.8845 -0.1303
  220MOL0     C30283   5.164   4.284   1.295 -0.9565  0.3320 -0.8604
  220MOL0     C30284   5.022   4.339   1.302  0.7450  0.1147  0.2488
  220MOL0     C30285   4.918   4.255   1.224 -0.4352  0.1197 -0.0636
  220MOL0     C30286   4.923   4.284   1.083 -0.4692 -0.9096 -0.0381
  220MOL0     C30287   4.955   4.307   0.967  0.4620 -0.2866 -0.1456
  220MOL0     C30288   5.419   4.426   0.968 -0.5536  0.6427 -0.0833
  220MOL0     C30289   5.464   4.460   0.836 -0.6649  1.1751 -0.4563
  220MOL0     C30290   5.610   4.463   0.807 -0.7477 -0.0418  0.1741
  220MOL0     H30291   5.446   4.798   0.446 -1.2416 -0.4360 -0.4346
  220MOL0     H30292   5.505   4.879   0.237 -2.0297  1.0667  3.3233
  220MOL0     H30293   5.628   4.851   0.028 -0.7370  3.5912  0.4406
  220MOL0     H30294   5.484   4.940   0.014 -0.4818  0.1193 -1.7646
  220MOL0     H30295   5.473   4.858  -0.243 -0.6299  3.3062  0.3262
  220MOL0     H30296   5.594   4.970  -0.190 -0.1639  0.3457  0.0369
  220MOL0     H30297   5.716   4.728  -0.128  1.2879  1.0362 -1.1253
  220MOL0     H30298   5.617   4.674  -0.265  0.3600 -0.6258 -1.4496
  220MOL0     H30299   5.717   4.859  -0.405 -0.3794  0.6415  0.7353
  220MOL0     H30300   5.856   4.871  -0.287  0.0176  0.5107  0.8978
  220MOL0     H30301   5.759   4.631  -0.453  0.8221 -0.4529 -1.4441
  220MOL0     H30302   5.891   4.620  -0.337 -2.4044 -2.5626 -1.3463
  220MOL0     H30303   6.034   4.770  -0.493  0.4132  0.6529  0.0341
  220MOL0     H30304   5.963   4.646  -0.585 -1.6024 -1.0708  0.6854
  220MOL0     H30305   5.849   4.925  -0.564 -1.8988 -2.5408  1.7256
  220MOL0     H30306   5.778   4.812  -0.666 -1.2138  2.9676  1.2327
  220MOL0     H30307   5.977   4.783  -0.817  3.9793  1.4343 -0.0113
  220MOL0     H30308   5.917   4.957  -0.791  0.1494  1.6091  1.1691
  220MOL0     H30309   6.074   5.089  -0.617 -1.9654 -1.7080 -0.4886
  220MOL0     H30310   6.383   4.998  -0.425  3.3882  1.4746 -0.2866
  220MOL0     H30311   6.299   5.126  -0.463 -0.1605  1.0035 -0.5149
  220MOL0     H30312   6.419   5.151  -0.687 -2.4551  0.8155  1.4255
  220MOL0     H30313   6.518   5.173  -0.539 -1.3145  0.2570  0.0587
  220MOL0     H30314   6.551   4.908  -0.589  1.6512  1.1047  1.4602
  220MOL0     H30315   6.532   4.965  -0.755  0.4105 -0.4556 -0.5015
  220MOL0     H30316   6.751   5.021  -0.563  1.9144  0.7092 -0.1390
  220MOL0     H30317   6.762   4.959  -0.720  1.5949 -0.3020  1.1075
  220MOL0     H30318   6.757   5.432  -0.699  0.1708 -1.3464 -2.1019
  220MOL0     H30319   6.991   5.629  -0.581 -0.4441  2.3908 -0.5910
  220MOL0     H30320   6.851   5.626  -0.693 -0.5815 -1.1621  2.3030
  220MOL0     H30321   7.015   5.625  -0.767 -3.6416 -1.9331 -2.3420
  220MOL0     H30322   7.423   5.512  -0.345  3.1159  1.8501  1.1448
  220MOL0     H30323   7.642   5.613  -0.347 -0.2711  2.7141 -1.2548
  220MOL0     H30324   7.804   5.740  -0.419  0.1695  0.1126 -0.2226
  220MOL0     H30325   7.887   5.597  -0.352 -0.2738 -0.1689 -0.3105
  220MOL0     H30326   8.002   5.792  -0.548 -0.7030  1.9414  2.0419
  220MOL0     H30327   8.062   5.733  -0.379  0.7381 -1.0421  0.2689
  220MOL0     H30328   8.055   5.584  -0.655 -1.5150  3.6930  0.4522
  220MOL0     H30329   8.117   5.521  -0.502  1.9272 -0.0471  0.3348
  220MOL0     H30330   8.287   5.696  -0.482 -1.1751  0.2509 -0.1449
  220MOL0     H30331   8.239   5.745  -0.648  2.3270  0.2455 -0.0170
  220MOL0     H30332   8.321   5.464  -0.562  0.0667  1.5830  2.1107
  220MOL0     H30333   8.297   5.506  -0.736  1.3456 -1.5924  0.5322
  220MOL0     H30334   8.484   5.673  -0.724  2.0596  0.1693  1.2213
  220MOL0     H30335   8.535   5.504  -0.689 -0.7059 -3.6120  3.4310
  220MOL0     H30336   8.510   5.565  -0.440 -0.8907  0.3017 -0.6818
  220MOL0     H30337   8.500   5.737  -0.498 -0.2353 -0.5446  0.0223
  220MOL0     H30338   8.741   5.563  -0.559  1.1606  2.1109 -2.1211
  220MOL0     H30339   8.727   5.658  -0.419 -0.0013 -1.2738  0.2439
  220MOL0     H30340   7.727   5.451  -0.740  3.2468 -0.0221  2.7834
  220MOL0     H30341   7.507   5.336  -0.739  3.0896  0.6172 -1.8556
  220MOL0     H30342   7.167   5.167  -0.601  0.0901  0.5468 -0.4415
  220MOL0     H30343   6.966   5.064  -0.650  0.0515  0.3799 -0.3462
  220MOL0     H30344   5.313   4.531   0.062  1.6595 -0.6584 -0.3168
  220MOL0     H30345   5.246   4.461   0.306  1.6498  0.8139  4.0052
  220MOL0     H30346   5.168   4.589   0.729  1.6412 -2.6749 -2.5437
  220MOL0     H30347   5.105   4.547   0.964 -0.2167 -1.0066  0.9454
  220MOL0     H30348   5.201   4.230   1.098  0.3339  0.0334 -0.0072
  220MOL0     H30349   5.340   4.252   1.191 -0.8855 -1.7685 -4.7104
  220MOL0     H30350   5.225   4.339   1.368 -0.5617 -0.2777 -0.7179
  220MOL0     H30351   5.164   4.180   1.328 -0.4062  1.3893  3.0389
  220MOL0     H30352   4.988   4.326   1.405 -0.6507 -4.7022 -0.5427
  220MOL0     H30353   5.028   4.443   1.271  0.9207  1.3077  3.8592
  220MOL0     H30354   4.815   4.278   1.254 -1.3037 -2.9737 -0.3333
  220MOL0     H30355   4.934   4.149   1.241 -0.5565 -0.3469 -2.5160
  220MOL0     H30356   4.988   4.330   0.868 -3.1712  0.8464 -1.2532
  220MOL0     H30357   5.495   4.399   1.042  0.9914  2.7295 -0.7911
  220MOL0     H30358   5.660   4.419   0.894 -0.5109  0.4115  0.2756
  220MOL0     H30359   5.633   4.401   0.720 -1.7725  0.1836 -0.2717
  220MOL0     H30360   5.648   4.565   0.794 -0.2296 -0.3803 -1.0951
  221MOL0     O30361   3.779   4.276   0.937  0.5768 -0.2773 -0.1019
  221MOL0     C30362   3.727   4.213   1.032 -0.8887 -0.4271  0.5119
  221MOL0     O30363   3.766   4.225   1.159  0.2600  0.3966  0.0314
  221MOL0     C30364   3.840   4.338   1.187  0.4053 -0.2236  0.4470
  221MOL0     C30365   3.980   4.329   1.183  0.2463  0.2976  0.0584
  221MOL0     C30366   4.065   4.445   1.200 -0.4317  0.1980  0.5818
  221MOL0     C30367   4.005   4.578   1.221 -0.6300  0.2514  0.5532
  221MOL0     O30368   4.082   4.696   1.246 -0.2900  0.2271 -0.0139
  221MOL0     C30369   4.195   4.712   1.159 -0.0944  0.3429 -0.6021
  221MOL0     C30370   4.241   4.854   1.179 -0.7017 -0.5104 -0.6359
  221MOL0     C30371   4.337   4.900   1.069  0.4292 -0.2601 -0.2817
  221MOL0     C30372   4.383   5.045   1.101 -1.1958  0.4170  0.6919
  221MOL0     C30373   4.508   5.084   1.014 -0.3349  0.9533 -0.2399
  221MOL0     C30374   4.561   5.218   1.067  0.4115  0.1505 -0.1553
  221MOL0     C30375   4.685   5.259   0.980 -0.7726  0.6367 -0.7518
  221MOL0     C30376   4.820   5.214   1.037  0.1664 -0.1345  0.1482
  221MOL0     N30377   4.843   5.071   1.044  0.3203  0.0804 -1.2149
  221MOL0     C30378   4.818   4.987   1.153 -1.2008  0.0262  1.7315
  221MOL0     C30379   4.851   4.866   1.103 -0.4008  0.3999 -0.1033
  221MOL0     C30380   4.837   4.731   1.167  0.0560  0.8161  0.4216
  221MOL0     C30381   4.909   4.701   1.296 -0.2698  0.8195 -0.3700
  221MOL0     C30382   5.063   4.714   1.271  0.3580 -1.0228 -0.4885
  221MOL0     C30383   5.149   4.706   1.398 -0.1915 -0.4108 -0.3904
  221MOL0     O30384   5.258   4.611   1.380  0.2995 -0.2277 -0.1096
  221MOL0     C30385   5.373   4.616   1.447 -0.0248 -0.2632  0.4826
  221MOL0     C30386   5.414   4.721   1.523 -0.2933 -0.1471  0.6694
  221MOL0     C30387   5.537   4.720   1.593  0.4041 -0.7214 -0.5576
  221MOL0     C30388   5.572   4.852   1.668  0.1061  1.0403 -0.0547
  221MOL0     C30389   5.631   4.615   1.564  0.2182 -0.8857 -1.3314
  221MOL0     C30390   5.759   4.601   1.619  0.8322 -0.3257 -1.0032
  221MOL0     O30391   5.859   4.583   1.534 -0.1675  0.4742 -0.4506
  221MOL0     C30392   5.990   4.574   1.580  1.0246  0.2815  0.4485
  221MOL0     C30393   6.070   4.462   1.537  0.6278 -0.5511 -0.7167
  221MOL0     C30394   6.197   4.443   1.607  0.1358  0.4448 -1.0217
  221MOL0     C30395   6.249   4.539   1.701  0.2387  0.8100 -0.3693
  221MOL0     O30396   6.387   4.545   1.743  0.2045 -0.0212 -0.2682
  221MOL0     C30397   6.489   4.464   1.678 -0.3942 -0.0376  0.6655
  221MOL0     C30398   6.535   4.350   1.761  0.1459  0.0501  0.5655
  221MOL0     C30399   6.440   4.235   1.772  1.0712 -0.9384 -0.0572
  221MOL0     C30400   6.508   4.111   1.820 -0.8578  0.0160 -0.2692
  221MOL0     C30401   6.421   4.006   1.893 -0.1171  0.5035  0.8261
  221MOL0     C30402   6.324   3.944   1.793  0.8720  0.7398 -0.4820
  221MOL0     C30403   6.243   3.826   1.848  0.0534  1.0467  0.6958
  221MOL0     C30404   6.306   3.693   1.815  0.4279 -0.0024 -0.0589
  221MOL0    Cl30405   6.284   3.660   1.644  0.2536  0.1898  0.3932
  221MOL0     C30406   6.166   4.642   1.736 -0.5842 -0.2657  1.1513
  221MOL0     C30407   6.039   4.663   1.671 -0.1614  0.8024  0.3952
  221MOL0     O30408   5.769   4.622   1.741  1.0149  0.3798  0.4208
  221MOL0     C30409   5.585   4.517   1.474 -0.3189 -0.1446  0.1536
  221MOL0     C30410   5.463   4.516   1.412 -0.1666 -0.9124 -0.2894
  221MOL0     N30411   4.863   4.872   0.969  0.6919  0.3000 -0.1456
  221MOL0     N30412   4.863   4.996   0.928  0.2416 -0.2464  0.1905
  221MOL0     C30413   3.866   4.581   1.233  0.1998  0.5097 -0.2690
  221MOL0     C30414   3.790   4.460   1.218 -0.0304  0.1939  0.2269
  221MOL0     C30415   3.636   4.098   1.003  0.1102 -0.5533 -0.1864
  221MOL0     C30416   3.577   4.029   1.115 -0.0802 -0.8737  0.1609
  221MOL0     C30417   3.512   3.908   1.106  1.0291 -0.3988 -0.3520
  221MOL0     C30418   3.494   3.847   0.986 -0.4299  0.2823  0.1173
  221MOL0     O30419   3.417   3.733   0.959  0.0978  0.3487  0.0043
  221MOL0     C30420   3.431   3.615   1.040  0.7419  0.0495  0.2992
  221MOL0     C30421   3.305   3.606   1.130 -0.0555 -1.0479  0.6497
  221MOL0     C30422   3.329   3.525   1.250  0.2352 -0.4730  0.0637
  221MOL0     C30423   3.327   3.370   1.234  0.1598  0.1313 -0.7690
  221MOL0     C30424   3.201   3.317   1.175  0.3415 -0.0792 -0.3418
  221MOL0     C30425   3.092   3.288   1.136  0.2898  0.9574  0.0893
  221MOL0     C30426   3.528   3.922   0.875 -1.2367 -0.0365 -0.0746
  221MOL0     C30427   3.590   4.050   0.879 -0.9107  0.1231 -0.2062
  221MOL0     C30428   3.611   4.117   0.747  0.4368 -0.5435  0.2737
  221MOL0     H30429   4.017   4.227   1.195  0.5508  0.5639  1.5731
  221MOL0     H30430   4.173   4.431   1.199  0.2365  4.0752  1.4627
  221MOL0     H30431   4.154   4.691   1.060 -0.1094 -1.3215 -0.2753
  221MOL0     H30432   4.275   4.643   1.189 -0.0892  0.4395 -0.3869
  221MOL0     H30433   4.155   4.921   1.166 -1.1099 -1.1877 -1.6009
  221MOL0     H30434   4.284   4.864   1.278  1.8093  2.8647 -1.8930
  221MOL0     H30435   4.426   4.835   1.069 -0.8605 -2.1291  0.4049
  221MOL0     H30436   4.292   4.895   0.969  2.9876  0.1321 -1.5355
  221MOL0     H30437   4.299   5.115   1.094 -0.7222  0.8515 -1.1145
  221MOL0     H30438   4.409   5.042   1.208  0.4158  1.9826  0.3992
  221MOL0     H30439   4.483   5.085   0.907 -2.9673 -0.5475  0.2782
  221MOL0     H30440   4.577   5.001   1.031 -0.7743  0.3910 -1.1531
  221MOL0     H30441   4.486   5.297   1.069 -0.5529 -0.5577 -2.9613
  221MOL0     H30442   4.579   5.201   1.173 -2.4247  0.4998  0.4792
  221MOL0     H30443   4.695   5.367   0.989  2.2266  0.4911 -1.1592
  221MOL0     H30444   4.681   5.234   0.874  0.8028  0.4855 -0.8050
  221MOL0     H30445   4.902   5.267   0.987 -1.5612  1.4389 -1.1546
  221MOL0     H30446   4.824   5.247   1.141 -1.5760 -4.5005  1.8291
  221MOL0     H30447   4.795   5.006   1.257  0.2785 -1.1866  2.3220
  221MOL0     H30448   4.861   4.650   1.099  0.2937  1.2117  0.0325
  221MOL0     H30449   4.728   4.728   1.182  0.1186 -1.2113  0.7819
  221MOL0     H30450   4.879   4.778   1.368 -2.2647  0.0278 -0.2967
  221MOL0     H30451   4.884   4.603   1.337 -1.8720  1.2150 -0.3238
  221MOL0     H30452   5.074   4.630   1.201 -2.3136 -3.1227  1.3562
  221MOL0     H30453   5.091   4.808   1.225  3.1622 -0.6894  1.6410
  221MOL0     H30454   5.178   4.809   1.421  1.1725 -1.1171  1.2100
  221MOL0     H30455   5.094   4.665   1.483 -2.7717 -1.2596 -2.3281
  221MOL0     H30456   5.361   4.815   1.534  2.6480  1.6811  0.3707
  221MOL0     H30457   5.531   4.942   1.622  2.3026  1.4323 -1.4144
  221MOL0     H30458   5.681   4.852   1.660  0.2405 -3.1436 -0.5713
  221MOL0     H30459   5.556   4.848   1.776  1.7169  0.5367  0.1928
  221MOL0     H30460   6.032   4.396   1.460  0.4980  1.1476 -2.1714
  221MOL0     H30461   6.249   4.352   1.578  1.9061  1.9668 -2.9789
  221MOL0     H30462   6.451   4.434   1.581 -1.6283  0.4796  0.9758
  221MOL0     H30463   6.576   4.531   1.672 -0.3856  0.0422  1.5243
  221MOL0     H30464   6.623   4.308   1.710 -0.3261  1.6597 -1.7159
  221MOL0     H30465   6.569   4.383   1.860  2.1015  1.8215 -0.6097
  221MOL0     H30466   6.403   4.214   1.671  1.7966 -0.1742 -0.5000
  221MOL0     H30467   6.353   4.261   1.834  1.2684 -1.5617  0.4864
  221MOL0     H30468   6.574   4.145   1.901  1.2124 -2.0538 -0.9593
  221MOL0     H30469   6.571   4.070   1.740 -2.1590 -2.5912 -0.0645
  221MOL0     H30470   6.485   3.926   1.932  0.7854 -0.0080 -1.5492
  221MOL0     H30471   6.366   4.060   1.971  0.2514  3.2681 -0.7119
  221MOL0     H30472   6.387   3.904   1.714 -0.0304  0.0361 -0.8549
  221MOL0     H30473   6.250   4.008   1.745 -2.2929 -1.8332  0.5936
  221MOL0     H30474   6.140   3.826   1.814 -0.2168 -3.0504  1.0157
  221MOL0     H30475   6.231   3.833   1.957  0.6001 -1.4647  0.9774
  221MOL0     H30476   6.260   3.615   1.877 -0.4084  0.6490  0.1629
  221MOL0     H30477   6.409   3.702   1.851  0.0278 -0.6764  1.3245
  221MOL0     H30478   6.205   4.724   1.796  0.3636  0.0448  0.1449
  221MOL0     H30479   5.985   4.756   1.683  0.9610  1.8329 -1.8451
  221MOL0     H30480   5.649   4.436   1.439 -1.2823 -0.8035 -0.1230
  221MOL0     H30481   5.438   4.456   1.326 -1.1828  1.6895 -1.9090
  221MOL0     H30482   3.829   4.680   1.259 -0.8215 -0.0276  0.3468
  221MOL0     H30483   3.682   4.468   1.215 -0.1799 -1.5302 -1.2685
  221MOL0     H30484   3.578   4.067   1.216 -1.8785 -2.1648  0.6994
  221MOL0     H30485   3.468   3.877   1.201 -2.8214  0.7431 -1.5832
  221MOL0     H30486   3.444   3.527   0.976  0.6689 -0.5071  1.0322
  221MOL0     H30487   3.518   3.613   1.106  0.9510  0.7074  0.0447
  221MOL0     H30488   3.219   3.587   1.065  0.5403 -0.8170 -0.2371
  221MOL0     H30489   3.293   3.708   1.166  2.6938  0.1862 -1.5701
  221MOL0     H30490   3.416   3.562   1.305 -0.3597  2.6623 -0.8881
  221MOL0     H30491   3.249   3.549   1.321  1.2287  0.9771  0.7473
  221MOL0     H30492   3.351   3.311   1.324 -0.5461 -1.6928 -1.7177
  221MOL0     H30493   3.412   3.346   1.168  1.9659 -2.0467  2.0663
  221MOL0     H30494   2.990   3.258   1.118  0.0853 -0.5684  3.1855
  221MOL0     H30495   3.508   3.890   0.774  2.0593  0.6567 -1.0819
  221MOL0     H30496   3.530   4.092   0.677  0.6723  0.7705 -0.5067
  221MOL0     H30497   3.610   4.226   0.754 -0.7496 -0.4251 -1.2102
  221MOL0     H30498   3.709   4.098   0.702  2.7112  2.1318  3.5944
  222MOL0     O30499   9.925   1.838   0.319 -0.1777 -0.4272  0.0710
  222MOL0     C30500   9.957   1.723   0.357  0.2224 -0.5496  0.6075
  222MOL0     O30501  10.068   1.657   0.308 -0.3211 -0.2153 -0.0828
  222MOL0     C30502  10.155   1.707   0.213  0.2751  0.2945  0.5107
  222MOL0     C30503  10.278   1.761   0.250  0.2895 -0.0391  0.4888
  222MOL0     C30504  10.361   1.808   0.146  0.0178  0.8048 -0.3121
  222MOL0     C30505  10.330   1.799   0.015 -0.4405  0.3567 -0.1706
  222MOL0     O30506  10.418   1.844  -0.074 -0.4183 -0.3158 -0.5551
  222MOL0     C30507  10.416   1.983  -0.091 -0.5440 -0.0498 -0.5147
  222MOL0     C30508  10.552   2.035  -0.143  1.0757 -0.0044 -0.7944
  222MOL0     C30509  10.543   2.188  -0.124 -0.0308 -0.6805  0.7986
  222MOL0     C30510  10.661   2.263  -0.204 -0.6527 -0.1248 -0.9268
  222MOL0     C30511  10.759   2.339  -0.109 -0.3359  0.2021  0.3423
  222MOL0     C30512  10.889   2.390  -0.190 -0.6505 -0.0953  0.5034
  222MOL0     C30513  10.958   2.279  -0.270 -0.0329  0.9544 -0.1183
  222MOL0     C30514  11.093   2.331  -0.314 -0.5471  0.4522  0.8030
  222MOL0     N30515  11.143   2.260  -0.436  0.1935 -0.2022 -0.0799
  222MOL0     C30516  11.176   2.127  -0.443  1.3207  0.4636  0.9647
  222MOL0     C30517  11.221   2.102  -0.568 -0.2138 -0.6423  0.4641
  222MOL0     C30518  11.256   1.966  -0.626  0.1526  0.0001  0.3864
  222MOL0     C30519  11.399   1.928  -0.604 -0.8059  0.9501 -0.8102
  222MOL0     C30520  11.510   1.995  -0.680  0.6539  0.3891  0.1221
  222MOL0     C30521  11.647   1.947  -0.630 -0.5826 -0.3658 -0.3890
  222MOL0     O30522  11.675   2.031  -0.514  0.0352  0.2759 -0.4517
  222MOL0     C30523  11.795   2.018  -0.447  0.3813 -0.3623 -0.1549
  222MOL0     C30524  11.903   1.942  -0.499 -0.5027 -0.7490 -0.4051
  222MOL0     C30525  12.020   1.926  -0.431 -1.1790  0.5935  0.0533
  222MOL0     C30526  12.125   1.833  -0.496  0.0247 -0.6012  0.6398
  222MOL0     C30527  12.045   2.001  -0.312 -0.0192  0.5875  0.3892
  222MOL0     C30528  12.166   1.991  -0.235  0.9884 -0.1477  0.8851
  222MOL0     O30529  12.166   2.003  -0.101  0.4176 -0.4283  0.1558
  222MOL0     C30530  12.283   1.988  -0.031 -0.5209  0.8480 -0.0318
  222MOL0     C30531  12.279   1.895   0.068  0.6246  0.0470 -0.0731
  222MOL0     C30532  12.400   1.859   0.137  0.2728 -0.0502  0.0864
  222MOL0     C30533  12.527   1.912   0.106  0.6512  0.1453  1.3788
  222MOL0     O30534  12.640   1.866   0.164 -0.0504 -0.3876  0.2080
  222MOL0     C30535  12.658   1.725   0.187  0.3208 -1.0097 -0.4548
  222MOL0     C30536  12.799   1.681   0.170  0.4545  0.2819 -0.6878
  222MOL0     C30537  12.859   1.672   0.312 -0.6855 -0.3138 -0.1017
  222MOL0     C30538  13.001   1.605   0.304 -0.3724  0.3633  0.6528
  222MOL0     C30539  13.045   1.588   0.445 -0.4734 -0.4742 -0.6190
  222MOL0     C30540  13.118   1.711   0.504  0.6200 -0.2446  0.0258
  222MOL0     C30541  13.197   1.672   0.623 -0.2595  0.9880  0.2282
  222MOL0     C30542  13.263   1.799   0.695  0.9589  0.2120 -0.0060
  222MOL0    Cl30543  13.426   1.754   0.743  0.2041  0.0676 -0.1330
  222MOL0     C30544  12.532   2.009   0.007  0.2567 -0.2979  0.7799
  222MOL0     C30545  12.411   2.042  -0.064  0.5391 -0.1817  0.2826
  222MOL0     O30546  12.270   1.993  -0.302 -0.5756  0.1552  0.5999
  222MOL0     C30547  11.935   2.067  -0.254 -0.3065 -0.0163  0.2859
  222MOL0     C30548  11.820   2.081  -0.330  0.2824 -0.0594  0.6886
  222MOL0     N30549  11.243   2.229  -0.619  0.7985 -0.2385  0.2559
  222MOL0     N30550  11.188   2.322  -0.546  0.5127  0.2363 -0.1505
  222MOL0     C30551  10.210   1.743  -0.027 -0.1128 -0.4381  0.0718
  222MOL0     C30552  10.116   1.704   0.075 -0.3680  0.5904  0.3047
  222MOL0     C30553   9.874   1.637   0.449 -0.4484  1.3786  0.2059
  222MOL0     C30554   9.931   1.518   0.484  0.1726  0.3924 -0.8409
  222MOL0     C30555   9.873   1.446   0.589 -0.8690 -0.3851  0.1930
  222MOL0     C30556   9.742   1.468   0.644  0.2927  0.0933  0.4208
  222MOL0     O30557   9.672   1.393   0.730  0.3899 -0.2296 -0.3191
  222MOL0     C30558   9.727   1.264   0.773 -0.2213 -0.1662  0.2758
  222MOL0     C30559   9.633   1.178   0.855  0.8714  0.0633 -1.3161
  222MOL0     C30560   9.610   1.237   0.993  0.2708 -0.4696  0.1882
  222MOL0     C30561   9.472   1.221   1.060 -0.1577 -0.8832  1.4759
  222MOL0     C30562   9.422   1.077   1.049  0.8299  0.4992  0.0588
  222MOL0     C30563   9.380   0.958   1.057  0.0160  0.1116  0.5304
  222MOL0     C30564   9.683   1.587   0.590 -0.5611 -0.6689  0.5495
  222MOL0     C30565   9.749   1.680   0.502 -1.2996 -0.0931 -0.0512
  222MOL0     C30566   9.669   1.797   0.460  0.4060 -0.3816  0.1709
  222MOL0     H30567  10.306   1.768   0.355  0.3270  1.1552  0.4191
  222MOL0     H30568  10.444   1.869   0.183 -0.1191  2.2275 -2.1933
  222MOL0     H30569  10.392   2.030   0.005 -0.8362  0.7290 -0.9567
  222MOL0     H30570  10.344   2.006  -0.170  0.4746  0.3038 -1.3815
  222MOL0     H30571  10.634   1.991  -0.087 -0.3526 -1.6019  0.1371
  222MOL0     H30572  10.562   2.003  -0.247  3.0816 -0.4031 -0.5172
  222MOL0     H30573  10.443   2.213  -0.161 -0.6671 -3.5330  0.3945
  222MOL0     H30574  10.555   2.211  -0.018  2.0966 -0.3575  0.5364
  222MOL0     H30575  10.715   2.184  -0.257  1.4321 -0.6236  1.7115
  222MOL0     H30576  10.617   2.330  -0.279 -0.0884  1.6956  0.2913
  222MOL0     H30577  10.782   2.272  -0.026 -3.3312 -2.1423 -0.5447
  222MOL0     H30578  10.711   2.428  -0.069  1.8326  1.7721 -0.3565
  222MOL0     H30579  10.875   2.480  -0.249  2.2821  1.7590  2.3984
  222MOL0     H30580  10.961   2.419  -0.113  2.5985 -2.7647 -1.2861
  222MOL0     H30581  10.900   2.266  -0.362  1.0021  1.5475 -0.8847
  222MOL0     H30582  10.976   2.182  -0.223  1.8321  1.0504 -0.5607
  222MOL0     H30583  11.086   2.438  -0.338  3.0347  0.8427  1.0181
  222MOL0     H30584  11.174   2.330  -0.241  0.4149 -0.1233 -0.2577
  222MOL0     H30585  11.137   2.049  -0.379  1.7578 -0.7938 -0.2601
  222MOL0     H30586  11.238   1.971  -0.734  1.0280  5.3403  0.2085
  222MOL0     H30587  11.186   1.893  -0.585  0.2797 -1.2790 -1.5577
  222MOL0     H30588  11.415   1.949  -0.498 -1.5394 -0.1543 -0.4651
  222MOL0     H30589  11.403   1.820  -0.619 -0.2193  0.3938  2.5381
  222MOL0     H30590  11.500   1.954  -0.781 -0.9012 -0.0597  0.4282
  222MOL0     H30591  11.500   2.104  -0.677 -0.6002  0.2600  2.1266
  222MOL0     H30592  11.659   1.842  -0.600  1.7604  0.9642  4.4140
  222MOL0     H30593  11.722   1.961  -0.709 -3.4343 -1.3347 -3.4905
  222MOL0     H30594  11.896   1.889  -0.593  0.4225 -0.5849 -0.5740
  222MOL0     H30595  12.205   1.796  -0.432 -0.4082 -1.5920  0.6343
  222MOL0     H30596  12.178   1.886  -0.576 -2.7293  3.8237  1.4329
  222MOL0     H30597  12.084   1.742  -0.541  0.1026 -1.1542  1.6585
  222MOL0     H30598  12.187   1.852   0.108  0.5269 -0.3170 -0.6802
  222MOL0     H30599  12.401   1.791   0.221 -0.4829  1.9050  1.7731
  222MOL0     H30600  12.636   1.715   0.293 -2.4957  1.8476 -0.6225
  222MOL0     H30601  12.581   1.667   0.135 -0.1067 -0.3614 -0.5567
  222MOL0     H30602  12.792   1.582   0.123 -1.4992  0.7259 -1.4185
  222MOL0     H30603  12.857   1.749   0.108  2.7839 -0.9958 -0.0337
  222MOL0     H30604  12.790   1.613   0.374 -0.5857 -1.1612 -0.7764
  222MOL0     H30605  12.867   1.773   0.352  2.5018 -1.2552  1.9406
  222MOL0     H30606  13.063   1.674   0.246  0.0578 -0.1349  0.5163
  222MOL0     H30607  13.008   1.510   0.251  0.3555  1.1900 -0.7866
  222MOL0     H30608  12.969   1.559   0.519  1.2812 -0.0292  1.4709
  222MOL0     H30609  13.116   1.506   0.452  0.0136 -0.0252 -0.1874
  222MOL0     H30610  13.041   1.784   0.530  0.7762  0.0777 -0.3999
  222MOL0     H30611  13.185   1.759   0.432  0.0902 -2.0382 -1.7499
  222MOL0     H30612  13.273   1.598   0.597 -2.0179 -0.6434 -0.4957
  222MOL0     H30613  13.138   1.610   0.690  1.7100  0.4518  1.5535
  222MOL0     H30614  13.196   1.827   0.777 -2.5202 -3.3838 -1.2602
  222MOL0     H30615  13.275   1.882   0.624 -1.5867  2.2809  1.7948
  222MOL0     H30616  12.631   2.043  -0.022  0.2829 -0.3829  0.7682
  222MOL0     H30617  12.414   2.114  -0.145  1.4074 -0.2363  0.2587
  222MOL0     H30618  11.934   2.127  -0.163  1.5046 -1.3317  1.2403
  222MOL0     H30619  11.737   2.131  -0.282  0.4158  0.3102  0.5361
  222MOL0     H30620  10.196   1.728  -0.133 -1.3061 -1.7355  0.3756
  222MOL0     H30621  10.020   1.659   0.056 -0.5677  0.4069  1.5983
  222MOL0     H30622  10.019   1.478   0.435 -1.8391 -1.7686 -2.9318
  222MOL0     H30623   9.929   1.356   0.611  0.8938 -0.2043 -2.9988
  222MOL0     H30624   9.766   1.219   0.681 -0.7596 -2.0056  0.9160
  222MOL0     H30625   9.807   1.281   0.846  1.8207 -0.6612 -1.7196
  222MOL0     H30626   9.689   1.085   0.869  1.4059  0.6643  1.0999
  222MOL0     H30627   9.539   1.167   0.801  1.1634  0.0349 -1.8248
  222MOL0     H30628   9.676   1.182   1.060 -1.0311  0.3677  2.2784
  222MOL0     H30629   9.643   1.341   0.996  1.1352 -0.7487  0.5066
  222MOL0     H30630   9.395   1.280   1.009  2.5280  2.3728  0.8039
  222MOL0     H30631   9.482   1.248   1.165  2.0176  0.4010  1.0061
  222MOL0     H30632   9.346   0.859   1.077  0.0243 -0.1718 -0.8056
  222MOL0     H30633   9.585   1.615   0.627 -1.0484 -0.1903 -1.0016
  222MOL0     H30634   9.723   1.892   0.455 -1.4691  0.7311 -0.0310
  222MOL0     H30635   9.625   1.781   0.361 -2.4876  1.7319  0.9794
  222MOL0     H30636   9.591   1.815   0.534  1.7239 -2.6492  2.2541
  223MOL0     O30637   4.507   1.792   2.391 -0.4685  0.6520 -0.0197
  223MOL0     C30638   4.486   1.683   2.339  0.0697 -0.7988  0.1638
  223MOL0     O30639   4.587   1.592   2.313  0.8957  0.0730 -0.3292
  223MOL0     C30640   4.716   1.617   2.337 -0.1403 -0.0128 -0.6095
  223MOL0     C30641   4.781   1.534   2.427 -0.6006  0.4882 -0.0955
  223MOL0     C30642   4.923   1.542   2.440 -0.0321  0.2345  1.1106
  223MOL0     C30643   4.993   1.618   2.343 -0.4559  0.5729  0.9011
  223MOL0     O30644   5.125   1.601   2.314 -0.2541  0.5649 -0.5478
  223MOL0     C30645   5.207   1.547   2.424 -0.5141 -0.8950 -0.8287
  223MOL0     C30646   5.354   1.584   2.392 -0.2654 -0.2857 -0.1781
  223MOL0     C30647   5.412   1.512   2.274  0.8875  0.7874 -0.7922
  223MOL0     C30648   5.562   1.555   2.277 -1.2603 -0.6449 -0.7062
  223MOL0     C30649   5.623   1.518   2.147 -0.3571  0.1705 -0.0952
  223MOL0     C30650   5.759   1.577   2.136  0.6159  0.2243 -0.4847
  223MOL0     C30651   5.827   1.534   2.010 -0.7627  0.0290 -0.2449
  223MOL0     C30652   5.952   1.624   1.985  1.0060 -0.2422  0.5387
  223MOL0     N30653   6.023   1.575   1.867 -0.3347  0.0358 -0.3884
  223MOL0     C30654   6.156   1.585   1.838 -0.6096 -0.5354 -0.0515
  223MOL0     C30655   6.174   1.520   1.718  0.5785 -0.8945  0.3165
  223MOL0     C30656   6.306   1.500   1.649  0.5029 -0.0751 -0.3175
  223MOL0     C30657   6.322   1.383   1.546 -0.3758 -0.0193 -0.2050
  223MOL0     C30658   6.419   1.401   1.428  0.4538 -0.1593 -0.2302
  223MOL0     C30659   6.564   1.395   1.451  0.0895  0.0212  0.2362
  223MOL0     O30660   6.617   1.511   1.504  0.2935 -0.2216  0.7040
  223MOL0     C30661   6.753   1.515   1.496  0.6672 -0.5794  0.2642
  223MOL0     C30662   6.831   1.447   1.589 -0.8299  0.0530 -0.6995
  223MOL0     C30663   6.975   1.447   1.582  0.0018 -0.8937 -1.2723
  223MOL0     C30664   7.044   1.387   1.698 -0.2497 -0.0868 -0.2719
  223MOL0     C30665   7.042   1.496   1.465 -0.1214 -0.5303  1.0391
  223MOL0     C30666   7.182   1.476   1.425  0.2832  0.3705 -0.4675
  223MOL0     O30667   7.232   1.525   1.306  0.6615 -0.3915  0.3251
  223MOL0     C30668   7.363   1.503   1.267 -0.0570 -0.2151  0.6065
  223MOL0     C30669   7.439   1.610   1.221  0.5435  0.4126 -0.0350
  223MOL0     C30670   7.581   1.590   1.189 -0.9976 -0.2504 -0.2638
  223MOL0     C30671   7.640   1.468   1.208  0.1819 -0.5919  0.3768
  223MOL0     O30672   7.775   1.435   1.180  0.5132  0.1953  0.1048
  223MOL0     C30673   7.854   1.522   1.097 -0.4088  0.2980 -0.4957
  223MOL0     C30674   7.961   1.439   1.020 -0.1861  0.0678  0.5315
  223MOL0     C30675   8.042   1.350   1.111 -1.0190 -0.0643  0.1188
  223MOL0     C30676   8.158   1.278   1.041 -0.2408 -0.0104  0.3562
  223MOL0     C30677   8.261   1.230   1.131 -0.2703  1.2904 -0.3809
  223MOL0     C30678   8.213   1.128   1.231 -0.1138  0.3817 -0.4679
  223MOL0     C30679   8.325   1.083   1.323 -0.9640 -0.5718  0.0676
  223MOL0     C30680   8.307   0.940   1.373  0.7140  0.4336 -0.2403
  223MOL0    Cl30681   8.169   0.945   1.489 -0.3308  0.2311 -0.2130
  223MOL0     C30682   7.551   1.359   1.237 -0.8354 -0.7246 -1.3859
  223MOL0     C30683   7.417   1.376   1.274  0.4918  0.3387  0.5053
  223MOL0     O30684   7.250   1.415   1.508  0.4550 -0.0901  0.7068
  223MOL0     C30685   6.958   1.562   1.372 -0.5312 -0.1503  0.1165
  223MOL0     C30686   6.822   1.571   1.387 -0.3218  0.8887  0.5974
  223MOL0     N30687   6.053   1.463   1.680 -0.7582  0.2788  0.3798
  223MOL0     N30688   5.961   1.498   1.771 -0.0585  0.6094  0.9043
  223MOL0     C30689   4.922   1.692   2.253 -0.5525 -0.5041  0.9324
  223MOL0     C30690   4.781   1.706   2.260 -0.8235 -0.3211  0.3861
  223MOL0     C30691   4.360   1.654   2.275  0.1958 -0.4210 -0.2006
  223MOL0     C30692   4.330   1.521   2.240 -0.1001  0.0082  0.3389
  223MOL0     C30693   4.204   1.477   2.195  0.0540 -0.5586  0.7821
  223MOL0     C30694   4.102   1.578   2.180 -0.0178 -0.8923 -0.6590
  223MOL0     O30695   3.971   1.549   2.144 -0.6103  0.1914  0.1359
  223MOL0     C30696   3.927   1.410   2.131 -0.4402 -0.4077  0.0759
  223MOL0     C30697   3.799   1.405   2.050  1.4761 -0.2995 -0.0529
  223MOL0     C30698   3.677   1.481   2.104 -0.1146 -0.3721 -0.5168
  223MOL0     C30699   3.595   1.544   1.990 -0.9796  0.1138 -0.0602
  223MOL0     C30700   3.519   1.442   1.919  0.7266 -0.1011 -0.1020
  223MOL0     C30701   3.466   1.346   1.863 -0.0463 -0.3728 -1.1043
  223MOL0     C30702   4.138   1.714   2.199 -0.0316 -0.3589  0.5775
  223MOL0     C30703   4.264   1.758   2.242  0.8168  0.1369 -0.5602
  223MOL0     C30704   4.287   1.911   2.249 -0.2013 -0.0761  0.3859
  223MOL0     H30705   4.727   1.470   2.496 -1.3847  0.7984 -0.4145
  223MOL0     H30706   4.974   1.478   2.511  1.4068  1.4557  1.2268
  223MOL0     H30707   5.198   1.438   2.415  1.2519 -1.3059  1.4451
  223MOL0     H30708   5.180   1.581   2.525  0.2500 -0.8631 -0.6270
  223MOL0     H30709   5.365   1.693   2.387  0.5235 -0.1779  2.4023
  223MOL0     H30710   5.409   1.564   2.484  0.0914 -0.6031 -0.4546
  223MOL0     H30711   5.394   1.404   2.285 -1.8224  1.3057  1.1198
  223MOL0     H30712   5.363   1.537   2.179  1.0193  1.8275 -0.5917
  223MOL0     H30713   5.568   1.664   2.291  0.7124 -0.9272  1.1363
  223MOL0     H30714   5.623   1.505   2.353  0.8841  2.5094 -0.1560
  223MOL0     H30715   5.556   1.540   2.063 -0.0954  0.4816 -0.2268
  223MOL0     H30716   5.637   1.409   2.150  1.0764  0.2824 -1.5229
  223MOL0     H30717   5.750   1.686   2.138  0.2196  0.2637 -2.7429
  223MOL0     H30718   5.817   1.546   2.224  1.5039 -0.8618 -1.4258
  223MOL0     H30719   5.758   1.526   1.925  0.4419 -2.7975 -1.0716
  223MOL0     H30720   5.864   1.435   2.036  1.0233  1.3650  2.8007
  223MOL0     H30721   5.901   1.719   1.965  0.6788 -0.5754 -0.2432
  223MOL0     H30722   6.013   1.629   2.077 -0.6636 -0.1433  1.6794
  223MOL0     H30723   6.236   1.638   1.889  0.8830 -1.8672 -0.9133
  223MOL0     H30724   6.383   1.487   1.725 -0.5437  3.0595  1.4466
  223MOL0     H30725   6.329   1.597   1.606 -2.9897 -0.1719 -2.8584
  223MOL0     H30726   6.346   1.286   1.591 -1.0024 -0.4503 -0.7731
  223MOL0     H30727   6.222   1.370   1.502 -0.6589  2.9320 -0.6187
  223MOL0     H30728   6.402   1.320   1.357  0.6013 -1.6257  1.3385
  223MOL0     H30729   6.396   1.499   1.384  0.7536  0.5984  1.2314
  223MOL0     H30730   6.578   1.314   1.524 -3.1969  1.2632  2.5107
  223MOL0     H30731   6.611   1.378   1.354  0.8958  2.5434  0.1017
  223MOL0     H30732   6.801   1.374   1.664  0.9712 -0.1472 -0.1134
  223MOL0     H30733   7.132   1.449   1.722 -0.2127 -0.8988  1.9111
  223MOL0     H30734   7.065   1.280   1.695 -1.2737 -0.3459  1.2654
  223MOL0     H30735   6.981   1.376   1.786  1.1377 -0.4600  0.6986
  223MOL0     H30736   7.397   1.710   1.209  0.6938  0.5795  0.7390
  223MOL0     H30737   7.636   1.675   1.149 -1.0364  1.1377  2.3997
  223MOL0     H30738   7.788   1.560   1.019  0.2513 -2.4664 -2.5769
  223MOL0     H30739   7.894   1.609   1.149 -1.6071  1.5208 -1.5252
  223MOL0     H30740   7.908   1.371   0.952 -0.2204  1.3932 -0.8143
  223MOL0     H30741   8.028   1.504   0.965 -2.7408  1.7861 -0.7340
  223MOL0     H30742   7.983   1.276   1.166  0.1128 -1.7340 -0.8202
  223MOL0     H30743   8.082   1.421   1.184  1.7450  0.2195 -1.5509
  223MOL0     H30744   8.213   1.328   0.962  1.3162 -2.2483 -0.0832
  223MOL0     H30745   8.111   1.189   0.998  1.2274 -1.3594  1.4502
  223MOL0     H30746   8.339   1.181   1.072 -1.6841 -0.9943 -0.4815
  223MOL0     H30747   8.321   1.306   1.183  0.2508  0.9010 -0.4097
  223MOL0     H30748   8.187   1.042   1.169  2.6407 -0.8923 -0.0193
  223MOL0     H30749   8.127   1.155   1.292 -1.2323 -1.3656 -1.2313
  223MOL0     H30750   8.334   1.145   1.413  0.3711 -1.9306  0.9384
  223MOL0     H30751   8.418   1.096   1.267 -0.8311  2.3061  0.8354
  223MOL0     H30752   8.393   0.899   1.426 -0.2824  0.2646  1.3193
  223MOL0     H30753   8.290   0.879   1.284  0.5735  0.3453 -0.1536
  223MOL0     H30754   7.602   1.264   1.252  0.2469  0.2264  1.9993
  223MOL0     H30755   7.361   1.292   1.313 -0.9256  0.4313 -1.2331
  223MOL0     H30756   7.000   1.603   1.280  0.1936 -1.1153  0.0042
  223MOL0     H30757   6.759   1.618   1.311  1.9690  2.2232 -0.6213
  223MOL0     H30758   4.968   1.738   2.167  1.8484 -0.0059  2.4004
  223MOL0     H30759   4.729   1.776   2.195 -0.3266  0.1583  0.5046
  223MOL0     H30760   4.406   1.446   2.257  3.8044  3.1189 -1.7215
  223MOL0     H30761   4.179   1.376   2.163 -0.5227  0.4008 -2.1457
  223MOL0     H30762   4.002   1.352   2.077  0.9263 -0.9153  2.3649
  223MOL0     H30763   3.897   1.371   2.229  0.8754 -0.1268  0.6101
  223MOL0     H30764   3.770   1.300   2.042  2.4874 -0.5911 -0.1121
  223MOL0     H30765   3.829   1.443   1.952  2.5347  0.3904  0.5109
  223MOL0     H30766   3.620   1.417   2.173  1.2000 -0.8706  0.1558
  223MOL0     H30767   3.708   1.560   2.173 -0.4618  0.9833 -1.8641
  223MOL0     H30768   3.664   1.583   1.915 -0.5715 -3.0784 -1.5484
  223MOL0     H30769   3.532   1.616   2.043  1.5224 -0.1962  3.7033
  223MOL0     H30770   3.424   1.259   1.817 -0.2276 -1.7131  1.4234
  223MOL0     H30771   4.077   1.800   2.174  2.4073  1.4369  0.5435
  223MOL0     H30772   4.295   1.937   2.355 -3.0650  3.3360 -0.0532
  223MOL0     H30773   4.383   1.931   2.203  0.4416  0.1651  1.7713
  223MOL0     H30774   4.205   1.967   2.204 -0.4473  0.1557  1.1095
  224MOL0     O30775   0.602   2.884   8.170  0.1410 -0.3902 -0.0191
  224MOL0     C30776   0.533   2.988   8.160 -0.2116 -0.2557 -0.0425
  224MOL0     O30777   0.586   3.115   8.137 -0.0662 -0.3903 -0.4130
  224MOL0     C30778   0.725   3.139   8.119  1.3270 -0.3189 -0.1053
  224MOL0     C30779   0.771   3.174   8.002 -0.0186 -0.0510  0.5437
  224MOL0     C30780   0.908   3.166   7.977 -0.2170  0.9860 -0.2351
  224MOL0     C30781   1.002   3.149   8.083 -0.2788 -0.5336 -0.0056
  224MOL0     O30782   1.136   3.157   8.053 -0.5311  0.2922  0.3387
  224MOL0     C30783   1.213   3.197   8.166  0.0726  0.2168 -0.5069
  224MOL0     C30784   1.360   3.188   8.132  0.1372 -0.4321  0.0282
  224MOL0     C30785   1.440   3.267   8.241 -0.4981  0.5096 -0.2789
  224MOL0     C30786   1.587   3.275   8.196 -0.1524 -0.5461  0.5597
  224MOL0     C30787   1.653   3.140   8.172  1.1548  0.9025 -0.8295
  224MOL0     C30788   1.803   3.158   8.187 -0.3347 -0.2302  0.3136
  224MOL0     C30789   1.886   3.033   8.160  0.0726  0.7386 -0.8567
  224MOL0     C30790   1.908   2.955   8.295  0.2110  0.4632  0.1254
  224MOL0     N30791   1.958   2.824   8.270  1.0830 -0.4376 -0.4789
  224MOL0     C30792   1.894   2.711   8.227  0.2579 -0.1774 -0.0633
  224MOL0     C30793   1.986   2.612   8.232 -0.2410 -0.5736  0.6591
  224MOL0     C30794   1.971   2.476   8.181  0.0844  0.0434  0.2587
  224MOL0     C30795   1.955   2.364   8.278 -0.4984  0.3187  0.4338
  224MOL0     C30796   1.908   2.239   8.198 -0.5988 -0.6125 -0.4613
  224MOL0     C30797   1.999   2.190   8.079 -0.3333  0.4668 -0.0733
  224MOL0     O30798   2.144   2.188   8.104  0.1273 -0.4243  0.4826
  224MOL0     C30799   2.181   2.094   8.190 -0.2965  0.1288 -0.5446
  224MOL0     C30800   2.119   1.965   8.208 -0.5692 -1.2508  0.2313
  224MOL0     C30801   2.172   1.867   8.296  0.4468 -0.5519  0.0840
  224MOL0     C30802   2.100   1.734   8.305  0.7834  0.5748 -0.4586
  224MOL0     C30803   2.296   1.885   8.355 -0.0188 -0.1320 -0.0549
  224MOL0     C30804   2.373   1.780   8.429  0.2813  0.3679  0.8033
  224MOL0     O30805   2.425   1.688   8.348 -0.0947 -1.0667  0.4248
  224MOL0     C30806   2.493   1.588   8.403 -0.4000  0.6934 -0.7966
  224MOL0     C30807   2.631   1.582   8.377  0.1111 -0.6607 -0.2306
  224MOL0     C30808   2.708   1.471   8.410 -0.5519 -0.1828  0.2718
  224MOL0     C30809   2.650   1.357   8.460 -0.3231 -0.7584  0.0428
  224MOL0     O30810   2.708   1.235   8.482 -0.5662 -0.2181  0.1380
  224MOL0     C30811   2.849   1.233   8.478  0.2211  0.0588  0.9344
  224MOL0     C30812   2.913   1.101   8.511 -0.1633  0.0804  0.0803
  224MOL0     C30813   3.054   1.113   8.551  0.2574  0.3945  1.0312
  224MOL0     C30814   3.085   1.089   8.699 -0.0745  0.4194 -0.7442
  224MOL0     C30815   3.233   1.081   8.725  0.3268 -0.3135  0.4643
  224MOL0     C30816   3.262   1.067   8.871  0.1220  0.7048  0.1990
  224MOL0     C30817   3.416   1.095   8.907  0.4449 -0.5222  0.5404
  224MOL0     C30818   3.442   1.095   9.060  0.2793  0.4582  0.1971
  224MOL0    Cl30819   3.473   0.917   9.105  0.2082 -0.0089 -0.6629
  224MOL0     C30820   2.512   1.362   8.485 -0.6657  0.3970  0.2635
  224MOL0     C30821   2.435   1.480   8.457 -0.1037  0.4217  0.2215
  224MOL0     O30822   2.377   1.772   8.548  0.0084 -0.3320  0.2079
  224MOL0     C30823   2.367   2.005   8.329  0.4132  0.5700  0.0457
  224MOL0     C30824   2.303   2.111   8.255 -0.5221 -0.3582  0.2289
  224MOL0     N30825   2.109   2.669   8.266 -0.1141 -0.3820  0.0388
  224MOL0     N30826   2.088   2.793   8.287 -0.0976 -0.0505  1.0300
  224MOL0     C30827   0.949   3.129   8.209  0.4866 -0.1253  0.0281
  224MOL0     C30828   0.816   3.121   8.235 -0.2331 -0.0860 -0.3023
  224MOL0     C30829   0.394   2.966   8.191  0.4054  0.3182  1.0980
  224MOL0     C30830   0.371   2.888   8.305  0.1302 -0.3585  0.7163
  224MOL0     C30831   0.241   2.859   8.351 -0.0570 -0.1122 -0.0187
  224MOL0     C30832   0.127   2.893   8.270 -0.3260  0.0019 -0.2027
  224MOL0     O30833  -0.001   2.838   8.308 -0.1605  0.2411  0.3272
  224MOL0     C30834  -0.121   2.914   8.269 -0.2961 -0.1680  0.8378
  224MOL0     C30835  -0.243   2.831   8.312  0.3643 -0.1815 -0.2428
  224MOL0     C30836  -0.368   2.903   8.270  0.6385 -0.0597 -0.3143
  224MOL0     C30837  -0.473   2.883   8.380  0.1667  0.7161  0.4926
  224MOL0     C30838  -0.460   2.990   8.486  0.2138  1.1137  0.1013
  224MOL0     C30839  -0.457   3.095   8.551  0.1012  1.1753 -0.0489
  224MOL0     C30840   0.150   2.970   8.157  0.2096 -0.5172  0.2310
  224MOL0     C30841   0.281   3.007   8.117 -0.1233 -0.7683 -0.4574
  224MOL0     C30842   0.297   3.068   7.973 -0.2945  0.3807  0.1582
  224MOL0     H30843   0.701   3.205   7.925 -0.8746 -1.4466  0.7134
  224MOL0     H30844   0.948   3.179   7.876  0.1100 -3.2463 -0.8305
  224MOL0     H30845   1.196   3.119   8.241 -2.8625 -1.5380 -2.7714
  224MOL0     H30846   1.186   3.297   8.200 -0.8945 -0.0917 -0.3496
  224MOL0     H30847   1.379   3.081   8.119 -3.1570 -0.9984 -1.0145
  224MOL0     H30848   1.383   3.241   8.039  1.5543 -0.6927  0.2083
  224MOL0     H30849   1.388   3.362   8.255  0.4599  1.1432 -0.8432
  224MOL0     H30850   1.447   3.205   8.331 -1.5625  1.6111  0.5909
  224MOL0     H30851   1.595   3.327   8.100 -0.7200  1.4689  1.5596
  224MOL0     H30852   1.644   3.328   8.273 -0.0748 -0.3344  0.3550
  224MOL0     H30853   1.621   3.109   8.072  0.2546 -2.5294  0.3880
  224MOL0     H30854   1.621   3.065   8.245 -1.6254  0.7106 -2.1169
  224MOL0     H30855   1.816   3.247   8.125 -1.8820  0.7192  1.2836
  224MOL0     H30856   1.826   3.198   8.286 -0.4442 -0.9961  0.6517
  224MOL0     H30857   1.988   3.053   8.127  1.4410 -0.2953  2.3487
  224MOL0     H30858   1.840   2.957   8.096  4.0707 -1.6897 -1.1744
  224MOL0     H30859   1.974   3.016   8.358 -2.4112 -0.8015  4.5164
  224MOL0     H30860   1.816   2.942   8.353  1.5695 -0.7475  2.1438
  224MOL0     H30861   1.787   2.699   8.213  0.8066 -2.0127 -4.0857
  224MOL0     H30862   2.054   2.460   8.112 -1.0295 -1.6348 -0.7613
  224MOL0     H30863   1.883   2.474   8.116  1.0307 -0.0963 -1.0526
  224MOL0     H30864   2.051   2.340   8.325 -0.4818  1.7551  1.1534
  224MOL0     H30865   1.881   2.398   8.350 -0.4468 -0.4264  0.8445
  224MOL0     H30866   1.908   2.158   8.272 -1.7238  2.2913  2.9953
  224MOL0     H30867   1.809   2.264   8.160 -0.5331  0.6500  0.1469
  224MOL0     H30868   1.964   2.091   8.047 -1.5377  0.8099  0.1111
  224MOL0     H30869   1.979   2.254   7.993  3.3059 -0.0500 -1.4836
  224MOL0     H30870   2.025   1.940   8.160 -0.1719  0.0856 -1.3235
  224MOL0     H30871   2.134   1.667   8.225  1.0009 -0.0064  0.1156
  224MOL0     H30872   1.992   1.746   8.297  0.5200  1.2952  2.9098
  224MOL0     H30873   2.123   1.684   8.399 -0.6427 -0.3333 -0.5519
  224MOL0     H30874   2.668   1.669   8.325 -1.8728 -0.1890 -0.9474
  224MOL0     H30875   2.811   1.471   8.377 -0.7196  0.3758 -0.2574
  224MOL0     H30876   2.879   1.254   8.375 -0.1567  2.4239  1.2463
  224MOL0     H30877   2.879   1.316   8.543 -0.9468 -0.8433  2.7152
  224MOL0     H30878   2.850   1.075   8.596 -1.5147 -1.3759 -1.2956
  224MOL0     H30879   2.894   1.035   8.426  1.8359  0.8692 -1.0663
  224MOL0     H30880   3.091   1.210   8.517 -0.2980  0.0909 -0.5288
  224MOL0     H30881   3.114   1.043   8.493 -0.2008  0.6229  0.2689
  224MOL0     H30882   3.034   0.998   8.733 -1.0698  0.9863 -0.7047
  224MOL0     H30883   3.044   1.173   8.755 -0.8591 -0.8759  0.7366
  224MOL0     H30884   3.266   0.992   8.671  0.0598 -0.4493  0.5232
  224MOL0     H30885   3.277   1.169   8.676 -1.3147  0.0513 -0.4502
  224MOL0     H30886   3.239   0.965   8.902 -2.7090  1.3615  0.4910
  224MOL0     H30887   3.202   1.133   8.934 -2.5357 -0.8750 -0.4962
  224MOL0     H30888   3.445   1.196   8.876  3.2058 -1.8114 -1.5044
  224MOL0     H30889   3.483   1.024   8.857  0.5937 -2.9205  3.8022
  224MOL0     H30890   3.358   1.134   9.119  1.6253  2.7549  0.7313
  224MOL0     H30891   3.530   1.154   9.089  0.3118  2.0598 -2.7962
  224MOL0     H30892   2.461   1.281   8.535 -0.0671  0.3476  0.8179
  224MOL0     H30893   2.335   1.473   8.500 -0.5334 -3.3030 -0.9740
  224MOL0     H30894   2.463   2.026   8.376  0.5146  0.6412 -0.1889
  224MOL0     H30895   2.361   2.203   8.244 -0.2390 -0.6851 -1.2529
  224MOL0     H30896   1.012   3.113   8.296 -0.8740  0.9801  1.2837
  224MOL0     H30897   0.777   3.111   8.336 -0.0297  0.4573 -0.1642
  224MOL0     H30898   0.448   2.842   8.366 -0.0370  1.2616  2.2292
  224MOL0     H30899   0.227   2.802   8.443 -1.3263 -1.4403 -0.9744
  224MOL0     H30900  -0.114   3.013   8.315 -1.6856  0.2742  0.1706
  224MOL0     H30901  -0.138   2.932   8.163 -0.6828 -2.4055  0.4670
  224MOL0     H30902  -0.233   2.812   8.419  2.4095  2.6431  0.1765
  224MOL0     H30903  -0.246   2.731   8.267  1.5530  0.9761 -3.0773
  224MOL0     H30904  -0.367   3.011   8.257 -0.4561 -0.2372 -2.2041
  224MOL0     H30905  -0.409   2.873   8.173 -0.1740  1.0721 -0.3281
  224MOL0     H30906  -0.464   2.781   8.417  3.2421  1.9860  3.9253
  224MOL0     H30907  -0.569   2.900   8.330  1.1971  1.8713 -1.2097
  224MOL0     H30908  -0.480   3.176   8.618 -1.6766 -0.5842  1.6012
  224MOL0     H30909   0.072   2.988   8.083  0.8375  0.2115 -0.2593
  224MOL0     H30910   0.400   3.048   7.941 -0.2511 -0.5187  0.8232
  224MOL0     H30911   0.223   3.028   7.903  0.3577  1.1347 -0.9861
  224MOL0     H30912   0.285   3.176   7.979  1.6429  0.6691 -0.4160
  225MOL0     O30913   1.774   2.088  10.056 -0.0913  0.5702 -0.7302
  225MOL0     C30914   1.782   2.203  10.101 -0.1482  0.1795  0.4096
  225MOL0     O30915   1.873   2.248  10.192 -0.1769 -0.0578  0.2441
  225MOL0     C30916   1.961   2.160  10.255 -0.9313 -0.0510  0.5560
  225MOL0     C30917   2.102   2.184  10.256 -0.0932  1.2890 -0.0139
  225MOL0     C30918   2.180   2.099  10.327  0.2622 -0.7522  0.4359
  225MOL0     C30919   2.128   2.006  10.415  0.0969 -0.1744  0.3181
  225MOL0     O30920   2.207   1.939  10.499  0.3408 -0.2068  0.0436
  225MOL0     C30921   2.290   1.836  10.443 -0.3256 -0.2293  0.1406
  225MOL0     C30922   2.417   1.805  10.524  0.2342 -0.2880  0.0482
  225MOL0     C30923   2.545   1.834  10.441  0.4287 -0.0923  0.2458
  225MOL0     C30924   2.567   1.983  10.424 -0.5631 -1.4209 -0.3332
  225MOL0     C30925   2.723   2.012  10.386  0.7748  0.1400  0.2571
  225MOL0     C30926   2.771   1.917  10.281  0.0855 -0.5565 -0.3078
  225MOL0     C30927   2.916   1.958  10.230 -0.6665 -0.2691 -0.6433
  225MOL0     C30928   3.018   1.950  10.353 -0.2471 -0.4395 -0.4863
  225MOL0     N30929   3.153   1.959  10.300 -0.4346 -0.8926  0.4296
  225MOL0     C30930   3.234   2.068  10.313 -0.2208  0.7987 -0.6971
  225MOL0     C30931   3.344   2.034  10.243  0.4186  0.3811  0.6639
  225MOL0     C30932   3.468   2.116  10.251  0.5720  0.3793 -0.5682
  225MOL0     C30933   3.563   2.088  10.142 -0.6291  0.1165 -0.9744
  225MOL0     C30934   3.680   2.192  10.128  0.5826  0.5067  0.4487
  225MOL0     C30935   3.792   2.145  10.033  0.4569 -0.4267  0.2571
  225MOL0     O30936   3.886   2.081  10.114 -0.2890  0.2057  0.2785
  225MOL0     C30937   4.007   2.137  10.140 -0.1540  0.0779  1.0823
  225MOL0     C30938   4.031   2.277  10.144  0.4642  0.5642  0.0578
  225MOL0     C30939   4.148   2.334  10.186 -0.5634  0.1867  0.1553
  225MOL0     C30940   4.156   2.482  10.200 -0.2438 -0.0271  0.7149
  225MOL0     C30941   4.264   2.248  10.199  0.3615  0.0640  0.6790
  225MOL0     C30942   4.410   2.296  10.204  0.1125  0.3246  0.2192
  225MOL0     O30943   4.435   2.425  10.212  0.6157 -0.2875  1.0299
  225MOL0     C30944   4.563   2.481  10.213 -1.1514 -0.0046 -0.2350
  225MOL0     C30945   4.686   2.409  10.229  0.5363  0.2462  0.2309
  225MOL0     C30946   4.815   2.472  10.217  0.1078 -0.0652  0.7298
  225MOL0     C30947   4.819   2.597  10.168 -0.3325 -0.1529  0.4801
  225MOL0     O30948   4.948   2.651  10.140 -0.2063 -0.2245  0.7870
  225MOL0     C30949   4.966   2.790  10.100  0.0010  0.2751 -0.2477
  225MOL0     C30950   5.106   2.814  10.053 -0.1834 -0.3191  0.1142
  225MOL0     C30951   5.220   2.730  10.129 -0.0810 -0.1022  0.2961
  225MOL0     C30952   5.355   2.793  10.110 -0.3946  0.1974 -0.7118
  225MOL0     C30953   5.472   2.715  10.174 -0.0013  0.4040  1.1137
  225MOL0     C30954   5.502   2.588  10.092  0.1520 -0.0966 -0.0419
  225MOL0     C30955   5.627   2.520  10.146 -0.0040 -0.5671  0.3140
  225MOL0     C30956   5.665   2.385  10.081  0.4498 -0.5869 -0.1510
  225MOL0    Cl30957   5.797   2.312  10.180  0.4827 -0.1217 -0.3039
  225MOL0     C30958   4.706   2.676  10.145  0.9789  0.0208 -0.4677
  225MOL0     C30959   4.578   2.614  10.159 -0.0582  0.2384 -0.1428
  225MOL0     O30960   4.487   2.202  10.185  0.8345 -0.6004 -0.0130
  225MOL0     C30961   4.235   2.106  10.198  0.3539 -0.3194 -0.8379
  225MOL0     C30962   4.109   2.049  10.167  0.2729  0.5322  0.0267
  225MOL0     N30963   3.338   1.904  10.199  0.6823  0.1634  0.0361
  225MOL0     N30964   3.216   1.869  10.225 -1.2002  0.0256 -0.3087
  225MOL0     C30965   1.994   1.979  10.408 -0.4016  0.4888 -0.0588
  225MOL0     C30966   1.911   2.048  10.329 -0.5321 -0.1009 -0.0316
  225MOL0     C30967   1.662   2.287  10.053 -0.5723  0.1617  0.8259
  225MOL0     C30968   1.536   2.223  10.050 -0.3486 -0.2546 -0.1717
  225MOL0     C30969   1.425   2.297   9.999 -0.4611  0.2173  0.1777
  225MOL0     C30970   1.448   2.427   9.959  0.5533 -0.3654  0.0253
  225MOL0     O30971   1.348   2.505   9.907 -0.8778 -0.3910 -0.9201
  225MOL0     C30972   1.244   2.433   9.838  0.4742 -1.1736  0.1640
  225MOL0     C30973   1.214   2.507   9.707  0.0161 -0.7524 -0.4124
  225MOL0     C30974   1.109   2.456   9.604 -0.0455 -0.0705  0.0006
  225MOL0     C30975   0.963   2.504   9.641  0.8313  0.9867  0.1469
  225MOL0     C30976   0.910   2.420   9.752  0.0948  0.0890 -0.2064
  225MOL0     C30977   0.874   2.360   9.851 -0.1635  0.3491  0.2621
  225MOL0     C30978   1.573   2.486   9.976  0.3583 -0.1737 -0.7851
  225MOL0     C30979   1.683   2.414  10.009  0.6324  0.1432 -0.5230
  225MOL0     C30980   1.822   2.484  10.009 -0.4461  0.2042  0.4265
  225MOL0     H30981   2.151   2.267  10.204  3.8981 -0.6757  0.1921
  225MOL0     H30982   2.289   2.103  10.331  0.2213  2.8055  1.7471
  225MOL0     H30983   2.323   1.877  10.347  0.0176 -1.3838 -0.2465
  225MOL0     H30984   2.245   1.739  10.417 -0.5486  0.0661 -0.6081
  225MOL0     H30985   2.418   1.863  10.617 -2.5794  0.0007 -0.0228
  225MOL0     H30986   2.417   1.701  10.557  2.8341  0.1303  1.6412
  225MOL0     H30987   2.635   1.794  10.490  0.9848 -0.0871 -0.7387
  225MOL0     H30988   2.529   1.787  10.344 -0.0284 -1.2679  0.8813
  225MOL0     H30989   2.505   2.015  10.339  0.8476  1.5572 -0.3844
  225MOL0     H30990   2.549   2.045  10.512  2.5313  1.3262 -1.4322
  225MOL0     H30991   2.777   1.988  10.478 -0.2252  0.0351  0.8352
  225MOL0     H30992   2.741   2.112  10.346  1.5430 -0.5759 -1.2930
  225MOL0     H30993   2.784   1.817  10.324  0.8865  0.7798  2.8278
  225MOL0     H30994   2.707   1.904  10.193  0.4714  2.1045 -1.0620
  225MOL0     H30995   2.911   2.057  10.183  1.3120 -1.2697 -3.2426
  225MOL0     H30996   2.936   1.887  10.149  0.9643 -3.5947  2.3901
  225MOL0     H30997   3.013   2.032  10.425  0.1845 -1.8465  1.2210
  225MOL0     H30998   2.999   1.858  10.410 -1.4239 -0.3117 -0.6627
  225MOL0     H30999   3.214   2.156  10.373  1.1030  0.9529 -0.4533
  225MOL0     H31000   3.519   2.089  10.344 -1.8623  0.6613  0.9348
  225MOL0     H31001   3.445   2.223  10.256  1.1290  0.5809 -1.8807
  225MOL0     H31002   3.611   1.990  10.148 -0.7823  0.1175  0.5771
  225MOL0     H31003   3.507   2.087  10.048 -1.4398  4.8436 -0.7835
  225MOL0     H31004   3.630   2.284  10.094 -2.3827 -1.0045  0.3655
  225MOL0     H31005   3.710   2.220  10.229 -2.4472 -1.3173  2.0083
  225MOL0     H31006   3.762   2.070   9.960  0.5747  0.9532 -1.2611
  225MOL0     H31007   3.821   2.235   9.979 -0.1774 -0.2342  0.2235
  225MOL0     H31008   3.944   2.341  10.129 -0.0784 -0.6365 -2.5239
  225MOL0     H31009   4.059   2.533  10.199 -0.6273 -0.7334  0.4386
  225MOL0     H31010   4.212   2.522  10.115 -0.0076 -0.0572  0.8580
  225MOL0     H31011   4.210   2.509  10.290 -1.3105 -0.1702  1.4139
  225MOL0     H31012   4.696   2.302  10.250  2.2710  0.2789 -0.2777
  225MOL0     H31013   4.907   2.416  10.228 -0.9959 -2.1396  0.0613
  225MOL0     H31014   4.905   2.819  10.014  1.7301  2.1177 -0.9272
  225MOL0     H31015   4.936   2.840  10.192 -2.9358 -0.6943 -0.5784
  225MOL0     H31016   5.097   2.805   9.944 -0.7599  1.5694 -0.0334
  225MOL0     H31017   5.127   2.919  10.071 -0.2399 -0.5092  1.3334
  225MOL0     H31018   5.221   2.625  10.099  0.0951 -0.1726  0.5439
  225MOL0     H31019   5.196   2.742  10.235  1.5983 -0.5189  0.7537
  225MOL0     H31020   5.355   2.888  10.166  1.0961  0.7280 -1.5739
  225MOL0     H31021   5.370   2.813  10.004 -1.5057 -0.4784 -1.0161
  225MOL0     H31022   5.557   2.783  10.186  0.0540  0.9975 -1.9641
  225MOL0     H31023   5.432   2.697  10.275 -0.5144  3.0245  1.4717
  225MOL0     H31024   5.528   2.612   9.988  0.6861  4.0583  0.8926
  225MOL0     H31025   5.414   2.524  10.086 -0.8840  1.3002 -0.3341
  225MOL0     H31026   5.600   2.499  10.249  1.6933  1.1264  1.1642
  225MOL0     H31027   5.706   2.595  10.134 -1.9861  1.5575 -0.1765
  225MOL0     H31028   5.694   2.394   9.976  0.4532 -0.9609 -0.1831
  225MOL0     H31029   5.583   2.314  10.070  1.3963 -1.3820 -2.8766
  225MOL0     H31030   4.697   2.776  10.104  0.9610  0.0437 -0.4073
  225MOL0     H31031   4.481   2.656  10.132  1.4768  3.2888 -1.2739
  225MOL0     H31032   4.316   2.034  10.205 -0.5986 -1.4765 -1.3874
  225MOL0     H31033   4.101   1.940  10.165  1.5344  0.3745 -3.4064
  225MOL0     H31034   1.946   1.902  10.468  0.3653  0.4740  0.5428
  225MOL0     H31035   1.807   2.023  10.314 -0.0557 -1.1913 -1.7948
  225MOL0     H31036   1.532   2.119  10.080  0.2745  0.5809  3.2285
  225MOL0     H31037   1.327   2.250  10.002 -0.1314 -0.6189  3.8774
  225MOL0     H31038   1.268   2.330   9.810 -2.5266 -2.9531  3.4193
  225MOL0     H31039   1.155   2.422   9.900 -1.2425 -1.8626 -2.2794
  225MOL0     H31040   1.310   2.517   9.656 -0.2763  0.2035 -0.8063
  225MOL0     H31041   1.187   2.606   9.746  4.6240  0.9100 -0.7490
  225MOL0     H31042   1.143   2.499   9.510  0.5101  0.7723  0.5649
  225MOL0     H31043   1.116   2.347   9.601  1.1951 -0.0256  0.5891
  225MOL0     H31044   0.903   2.488   9.551 -0.9695 -0.2787  1.4934
  225MOL0     H31045   0.954   2.607   9.675  0.7026  0.1857  2.8124
  225MOL0     H31046   0.861   2.286   9.927 -2.0303 -2.1450 -2.2429
  225MOL0     H31047   1.603   2.590   9.960  2.5827 -0.4869  0.8581
  225MOL0     H31048   1.815   2.590   9.987 -0.6304  0.2269  0.5912
  225MOL0     H31049   1.856   2.473  10.112  1.2381 -0.2802 -0.1406
  225MOL0     H31050   1.893   2.433   9.942 -0.9547 -0.5273  0.4351
  226MOL0     O31051   2.307   5.292  10.112  0.5266  0.3383 -0.3394
  226MOL0     C31052   2.346   5.347  10.211 -0.0644  0.3854 -1.1257
  226MOL0     O31053   2.480   5.353  10.248  0.4683 -0.4141  1.1849
  226MOL0     C31054   2.559   5.278  10.155 -0.7282 -0.7797  0.2826
  226MOL0     C31055   2.592   5.331  10.031  1.1154  0.1311 -0.6454
  226MOL0     C31056   2.653   5.243   9.939  0.7060 -0.4520 -0.0496
  226MOL0     C31057   2.671   5.103   9.960 -0.1607 -0.4641 -1.3316
  226MOL0     O31058   2.715   5.021   9.858  0.1678  0.5436 -0.2879
  226MOL0     C31059   2.738   4.881   9.871  0.1698 -0.6236  0.0170
  226MOL0     C31060   2.871   4.846   9.935  0.6603 -0.1211  0.0936
  226MOL0     C31061   2.989   4.892   9.850 -0.0153 -0.1625 -0.5393
  226MOL0     C31062   3.115   4.868   9.924 -1.1424 -0.6282 -0.4264
  226MOL0     C31063   3.172   4.726   9.938  0.0187  0.0608  0.4908
  226MOL0     C31064   3.293   4.746  10.022 -0.0495 -0.2148  0.1893
  226MOL0     C31065   3.404   4.650   9.991  0.7608  0.4638 -0.5206
  226MOL0     C31066   3.371   4.507  10.021 -0.7577  0.4339 -0.5809
  226MOL0     N31067   3.480   4.410   9.994 -0.4463 -0.1870  0.4881
  226MOL0     C31068   3.523   4.374   9.870  0.0723 -0.3376  0.1829
  226MOL0     C31069   3.596   4.268   9.883 -1.5123 -0.3617  0.5479
  226MOL0     C31070   3.653   4.188   9.772  0.0894  0.0616  0.6895
  226MOL0     C31071   3.804   4.159   9.791 -0.6768  0.4553  0.0636
  226MOL0     C31072   3.856   4.076   9.673 -0.0437  1.0544  0.6168
  226MOL0     C31073   4.005   4.061   9.670 -0.2559 -1.1591 -0.6063
  226MOL0     O31074   4.073   4.182   9.627  0.2706 -1.1348 -0.5401
  226MOL0     C31075   4.213   4.177   9.611 -0.4391 -0.6103  0.2238
  226MOL0     C31076   4.279   4.280   9.540 -0.5079 -0.0569  0.3573
  226MOL0     C31077   4.417   4.286   9.528  0.1912 -0.4529  0.7191
  226MOL0     C31078   4.468   4.410   9.460 -0.3820  0.2593 -0.5036
  226MOL0     C31079   4.490   4.179   9.590 -0.1293 -0.6433  0.4445
  226MOL0     C31080   4.637   4.189   9.598 -0.0082  0.5681  0.0210
  226MOL0     O31081   4.705   4.092   9.667 -0.3763  0.4254  0.4971
  226MOL0     C31082   4.845   4.092   9.665  0.4681  0.5298 -0.3548
  226MOL0     C31083   4.916   4.008   9.571 -0.2360 -0.3330  0.3875
  226MOL0     C31084   5.055   3.993   9.575 -0.1599  0.0699  0.9115
  226MOL0     C31085   5.135   4.079   9.663  0.0705  0.2316 -0.9512
  226MOL0     O31086   5.279   4.083   9.675 -0.1539  0.2867  0.6341
  226MOL0     C31087   5.355   4.010   9.569 -0.5030  0.1288 -0.0412
  226MOL0     C31088   5.492   4.077   9.566  0.0678 -0.0371 -0.6767
  226MOL0     C31089   5.496   4.223   9.521  0.5997  0.1660 -0.5497
  226MOL0     C31090   5.497   4.231   9.368 -0.3073 -0.6780  1.0684
  226MOL0     C31091   5.455   4.363   9.320 -0.0184  0.3375  0.5136
  226MOL0     C31092   5.495   4.373   9.171  0.6967  0.2828 -0.5331
  226MOL0     C31093   5.437   4.263   9.069 -0.3746 -0.0772 -0.6432
  226MOL0     C31094   5.469   4.286   8.923  0.4971 -0.1096 -0.5597
  226MOL0    Cl31095   5.643   4.284   8.897  0.3532  0.0252  0.2210
  226MOL0     C31096   5.066   4.162   9.750  0.2597 -0.4216  1.0729
  226MOL0     C31097   4.924   4.168   9.746 -0.7766  0.5783 -0.1843
  226MOL0     O31098   4.694   4.270   9.527 -0.3923  0.7661  0.0510
  226MOL0     C31099   4.419   4.066   9.638  0.6671  0.3759 -0.7527
  226MOL0     C31100   4.280   4.065   9.654 -0.8444 -0.2222  0.4791
  226MOL0     N31101   3.614   4.246  10.014  0.4970  0.4604 -0.5979
  226MOL0     N31102   3.537   4.325  10.085 -0.3276  0.3847 -0.3719
  226MOL0     C31103   2.626   5.054  10.085  0.5425  0.8592 -0.5366
  226MOL0     C31104   2.581   5.142  10.179  0.7758 -0.0425  0.0785
  226MOL0     C31105   2.248   5.427  10.288  0.1780 -0.1828 -0.2142
  226MOL0     C31106   2.118   5.378  10.305 -0.5306 -0.5067 -1.2704
  226MOL0     C31107   2.033   5.445  10.391  1.1768  0.5971 -0.4148
  226MOL0     C31108   2.066   5.565  10.443  0.4921  0.6370 -0.2013
  226MOL0     O31109   1.994   5.645  10.536 -0.8231  0.9039  0.7784
  226MOL0     C31110   1.869   5.598  10.576  0.3512 -0.0196  0.3372
  226MOL0     C31111   1.760   5.618  10.465 -1.3059  0.2677 -0.4369
  226MOL0     C31112   1.631   5.565  10.539 -0.1959 -0.8056  0.0173
  226MOL0     C31113   1.511   5.562  10.440  0.3939 -0.1924 -0.5330
  226MOL0     C31114   1.470   5.698  10.406 -0.8050  0.4572  0.0068
  226MOL0     C31115   1.414   5.798  10.369 -0.2604  0.9950  0.8738
  226MOL0     C31116   2.187   5.624  10.405 -0.0410  0.2094  0.8103
  226MOL0     C31117   2.278   5.564  10.326  0.7275 -0.2236 -0.3004
  226MOL0     C31118   2.400   5.640  10.283 -0.1894 -0.4527  0.8976
  226MOL0     H31119   2.585   5.438  10.012 -1.2377  0.0190 -0.6863
  226MOL0     H31120   2.663   5.283   9.838 -3.1698  1.1328  0.0388
  226MOL0     H31121   2.757   4.844   9.770  0.0294  0.7847 -0.5539
  226MOL0     H31122   2.655   4.826   9.916  1.2832  0.0969  3.2332
  226MOL0     H31123   2.877   4.898  10.030  1.0166 -1.0910  0.6138
  226MOL0     H31124   2.863   4.738   9.952 -2.0832  0.0145  0.1660
  226MOL0     H31125   2.978   4.845   9.752 -0.0150 -1.7711  0.1862
  226MOL0     H31126   2.980   5.000   9.841  0.9917 -0.0345 -0.1275
  226MOL0     H31127   3.192   4.935   9.885  0.4858 -0.0994  3.2298
  226MOL0     H31128   3.100   4.906  10.026  1.5585  1.0091 -0.5373
  226MOL0     H31129   3.193   4.689   9.837  2.3231  1.9586  0.1803
  226MOL0     H31130   3.109   4.646   9.979  0.1223 -0.1414  0.2577
  226MOL0     H31131   3.340   4.842   9.996  1.4468 -1.2178 -0.9499
  226MOL0     H31132   3.267   4.752  10.128 -0.0002  0.9596  0.1512
  226MOL0     H31133   3.473   4.676  10.072 -1.3866 -0.4160  1.7431
  226MOL0     H31134   3.455   4.663   9.896  1.9452 -1.3330 -0.1677
  226MOL0     H31135   3.360   4.502  10.129  2.1109 -2.4136 -0.2929
  226MOL0     H31136   3.282   4.476   9.965  0.1762 -2.1364 -0.7499
  226MOL0     H31137   3.488   4.394   9.769  0.6142  1.3584  0.2992
  226MOL0     H31138   3.636   4.239   9.676  0.9710 -0.0346  0.4788
  226MOL0     H31139   3.596   4.095   9.764 -4.1019  2.0163  3.9043
  226MOL0     H31140   3.851   4.257   9.791 -2.2688  1.3113  2.4632
  226MOL0     H31141   3.813   4.108   9.887 -1.8882  1.5222  0.7831
  226MOL0     H31142   3.811   3.976   9.678  2.5177 -0.1534  2.0225
  226MOL0     H31143   3.833   4.118   9.575  4.0366 -0.3531 -1.1547
  226MOL0     H31144   4.040   4.044   9.772  0.3709  2.9521  0.0393
  226MOL0     H31145   4.046   3.977   9.613  4.1983  0.3877 -0.1007
  226MOL0     H31146   4.218   4.361   9.501 -1.3396  0.4662  2.6199
  226MOL0     H31147   4.373   4.449   9.420 -1.5858 -2.2146 -0.2294
  226MOL0     H31148   4.535   4.389   9.376  2.1056  2.0157  0.9101
  226MOL0     H31149   4.513   4.491   9.518 -2.2151  1.1322 -0.2268
  226MOL0     H31150   4.867   3.958   9.488  1.8978  0.4289 -1.4281
  226MOL0     H31151   5.108   3.926   9.508 -1.5391  1.0438 -1.2577
  226MOL0     H31152   5.370   3.910   9.610  2.1755  0.3051 -0.4284
  226MOL0     H31153   5.314   4.005   9.468  0.1388 -4.1401 -0.2851
  226MOL0     H31154   5.529   4.080   9.669 -1.7237 -2.7217  0.1491
  226MOL0     H31155   5.543   4.015   9.493  0.6864  0.6520 -0.8457
  226MOL0     H31156   5.583   4.277   9.559  0.6051  1.1783 -1.8953
  226MOL0     H31157   5.405   4.267   9.563  0.6318  2.5484 -2.7114
  226MOL0     H31158   5.435   4.151   9.327 -0.5663  1.0464 -2.2334
  226MOL0     H31159   5.603   4.219   9.342 -1.1414 -2.0388 -2.1962
  226MOL0     H31160   5.348   4.385   9.316 -0.1310 -0.2909 -0.4956
  226MOL0     H31161   5.510   4.439   9.375 -0.0480 -2.5069  4.9579
  226MOL0     H31162   5.602   4.369   9.149  1.4784  1.1088  2.5961
  226MOL0     H31163   5.478   4.470   9.123 -1.0947 -0.6332 -1.8575
  226MOL0     H31164   5.329   4.255   9.084 -0.2590 -2.1577 -0.7474
  226MOL0     H31165   5.471   4.161   9.084 -1.8913 -0.6970 -1.2357
  226MOL0     H31166   5.430   4.386   8.900 -4.3189 -0.8745  2.8184
  226MOL0     H31167   5.410   4.216   8.864 -2.0294  0.6041  0.9545
  226MOL0     H31168   5.108   4.230   9.823 -2.3175 -0.3190  2.5538
  226MOL0     H31169   4.885   4.227   9.828 -0.9215 -0.0479  0.2059
  226MOL0     H31170   4.480   3.981   9.666  0.7699  0.3914 -0.9265
  226MOL0     H31171   4.238   3.970   9.684  0.0163 -1.9365 -3.2347
  226MOL0     H31172   2.643   4.950  10.113 -2.7521 -0.4756 -2.8254
  226MOL0     H31173   2.548   5.107  10.276 -0.6091 -1.3716 -0.8271
  226MOL0     H31174   2.086   5.278  10.277 -1.8741 -0.9104  1.3548
  226MOL0     H31175   1.939   5.403  10.424  0.0308  1.8166 -1.9796
  226MOL0     H31176   1.864   5.492  10.602  0.9477  0.0730  0.8414
  226MOL0     H31177   1.835   5.660  10.659 -1.1539  0.2475 -0.4518
  226MOL0     H31178   1.801   5.560  10.381  3.0779  0.3848  1.3527
  226MOL0     H31179   1.740   5.721  10.436  0.7576  0.1907 -2.4408
  226MOL0     H31180   1.652   5.462  10.569 -0.2590 -0.7151  0.3802
  226MOL0     H31181   1.603   5.629  10.623 -0.4904 -0.0947 -0.6023
  226MOL0     H31182   1.423   5.522  10.491 -0.9259  0.8307 -1.9288
  226MOL0     H31183   1.526   5.492  10.358 -0.1991  2.5927 -3.2016
  226MOL0     H31184   1.376   5.883  10.315 -0.7019 -0.9225 -2.0755
  226MOL0     H31185   2.201   5.726  10.439 -0.1443  0.4693  0.0912
  226MOL0     H31186   2.485   5.596  10.336  0.5462 -1.6361 -1.1304
  226MOL0     H31187   2.416   5.623  10.176 -1.0471 -0.2542  0.7320
  226MOL0     H31188   2.397   5.747  10.303 -1.1162 -0.3468  0.2460
  227MOL0     O31189   3.823   9.479   9.619  0.0221  0.4781  0.6843
  227MOL0     C31190   3.784   9.388   9.694  0.8165 -0.0907  0.1100
  227MOL0     O31191   3.857   9.335   9.798  0.0015 -0.5084 -0.0973
  227MOL0     C31192   3.984   9.387   9.826 -1.0219  0.0041  0.1551
  227MOL0     C31193   4.093   9.311   9.784 -1.3031  0.1650  0.6864
  227MOL0     C31194   4.214   9.376   9.779 -0.7207  0.0698 -0.3327
  227MOL0     C31195   4.234   9.499   9.845  0.3382 -0.6159  0.3007
  227MOL0     O31196   4.354   9.562   9.840 -0.1744  0.2369  0.4744
  227MOL0     C31197   4.479   9.490   9.857  0.3949  0.1851  0.1449
  227MOL0     C31198   4.584   9.547   9.760  0.2886  0.8650  0.3142
  227MOL0     C31199   4.720   9.503   9.790 -0.4894  0.5041 -0.6669
  227MOL0     C31200   4.834   9.547   9.694  0.4722  0.9921  0.0125
  227MOL0     C31201   4.972   9.495   9.758 -0.6334 -0.6812  0.7452
  227MOL0     C31202   4.993   9.347   9.698 -0.4640 -0.6635  0.0989
  227MOL0     C31203   5.110   9.260   9.755 -0.1217 -0.2787 -0.1899
  227MOL0     C31204   5.244   9.313   9.720 -0.0116 -0.0774  0.4790
  227MOL0     N31205   5.336   9.214   9.772  0.2620 -0.0680 -0.0745
  227MOL0     C31206   5.398   9.216   9.900 -0.7271 -1.1854  0.6948
  227MOL0     C31207   5.494   9.115   9.888 -0.2736 -0.1494 -0.3135
  227MOL0     C31208   5.575   9.066   9.998  1.1801 -0.4044 -0.9428
  227MOL0     C31209   5.715   9.072   9.951  0.1285  1.0335  0.6400
  227MOL0     C31210   5.803   9.047  10.070 -0.0023 -0.5569 -0.0989
  227MOL0     C31211   5.949   9.105  10.030  0.3849 -0.2743 -0.1165
  227MOL0     O31212   6.017   9.117  10.155 -0.0107  0.8626 -0.2686
  227MOL0     C31213   6.150   9.137  10.169  0.1242 -0.0470 -0.3721
  227MOL0     C31214   6.249   9.150  10.066 -0.8513  0.0171 -0.5946
  227MOL0     C31215   6.393   9.169  10.086  0.9098  0.3283  0.1659
  227MOL0     C31216   6.484   9.199   9.965 -0.2389 -0.1043 -0.4854
  227MOL0     C31217   6.443   9.163  10.221  0.6522 -0.6459  0.6473
  227MOL0     C31218   6.579   9.182  10.266  0.4902  0.0136 -0.2794
  227MOL0     O31219   6.597   9.188  10.404 -0.3373  0.4925  0.7254
  227MOL0     C31220   6.726   9.185  10.456  0.0544  0.1515  0.1186
  227MOL0     C31221   6.750   9.269  10.566  0.0377  0.1503 -0.9637
  227MOL0     C31222   6.880   9.274  10.617 -0.0034 -0.2985  0.4499
  227MOL0     C31223   6.988   9.212  10.558  0.1339  0.2967  1.3407
  227MOL0     O31224   7.118   9.238  10.594 -0.8343  0.4066 -0.0764
  227MOL0     C31225   7.223   9.148  10.538 -0.0863  0.6053  0.5177
  227MOL0     C31226   7.362   9.206  10.583 -0.0007  0.0367 -0.2130
  227MOL0     C31227   7.483   9.139  10.517 -0.0425  0.4579 -0.9725
  227MOL0     C31228   7.517   9.013  10.599  0.0075 -0.2651 -0.9376
  227MOL0     C31229   7.648   8.958  10.550  0.5444  0.4449 -0.6171
  227MOL0     C31230   7.708   8.863  10.652  0.4069  0.4127 -0.8492
  227MOL0     C31231   7.870   8.828  10.650 -0.8689  0.3923 -0.4443
  227MOL0     C31232   7.892   8.706  10.560  0.9533 -1.3894 -0.4166
  227MOL0    Cl31233   7.859   8.562  10.662  0.0154  0.1748 -0.1264
  227MOL0     C31234   6.957   9.117  10.454  0.3093  0.5527 -0.0539
  227MOL0     C31235   6.827   9.105  10.404  0.9163 -0.5719 -0.6760
  227MOL0     O31236   6.666   9.194  10.182  0.5105 -0.2347 -0.0043
  227MOL0     C31237   6.340   9.139  10.322 -0.8651  0.5899  0.3795
  227MOL0     C31238   6.200   9.132  10.298  0.4711 -0.9847 -0.7243
  227MOL0     N31239   5.495   9.060   9.758 -0.5822  0.0337 -0.3259
  227MOL0     N31240   5.391   9.111   9.699 -0.7126  0.4810  0.4229
  227MOL0     C31241   4.125   9.565   9.898  0.9831 -0.3901  0.0188
  227MOL0     C31242   4.001   9.512   9.890 -0.1857  0.2881  0.4136
  227MOL0     C31243   3.657   9.317   9.657 -1.1428  0.0333 -0.5169
  227MOL0     C31244   3.666   9.180   9.657 -0.2331  0.7029  0.0603
  227MOL0     C31245   3.558   9.101   9.602  1.2089 -0.6965 -1.2300
  227MOL0     C31246   3.446   9.166   9.553  1.1997  0.3600  0.1409
  227MOL0     O31247   3.340   9.087   9.494 -0.0680 -0.2367  0.2513
  227MOL0     C31248   3.221   9.147   9.433 -0.3384 -0.1674  0.5587
  227MOL0     C31249   3.133   9.045   9.363  0.4978  0.4945  0.6493
  227MOL0     C31250   2.982   9.077   9.368 -0.0997  0.4720 -0.1186
  227MOL0     C31251   2.936   9.159   9.249  0.4854 -0.6016 -0.3138
  227MOL0     C31252   2.806   9.211   9.297 -0.1561 -0.8356 -0.6996
  227MOL0     C31253   2.693   9.244   9.333 -0.1295 -0.1996  0.6939
  227MOL0     C31254   3.429   9.309   9.564  0.2219  0.0523 -0.2336
  227MOL0     C31255   3.541   9.381   9.617  0.3510 -0.7873 -0.1060
  227MOL0     C31256   3.527   9.531   9.613  0.8661  0.0447  0.2602
  227MOL0     H31257   4.076   9.214   9.738  2.1734 -0.7004  0.9682
  227MOL0     H31258   4.289   9.329   9.716  0.0677  2.8152 -1.6137
  227MOL0     H31259   4.476   9.381   9.848 -2.1719  0.3577 -2.8980
  227MOL0     H31260   4.512   9.521   9.956 -1.2812  0.0794  0.7554
  227MOL0     H31261   4.573   9.504   9.660  2.9531 -0.6201  0.5754
  227MOL0     H31262   4.588   9.657   9.758 -1.8889  0.9671 -0.1719
  227MOL0     H31263   4.743   9.539   9.891  1.5876  1.8347 -1.5476
  227MOL0     H31264   4.725   9.394   9.791 -0.6765  0.4938  0.3460
  227MOL0     H31265   4.806   9.512   9.594 -0.8025 -1.0833  1.0208
  227MOL0     H31266   4.845   9.656   9.698  0.8233  0.9376  0.4845
  227MOL0     H31267   4.972   9.494   9.868 -0.3289 -0.0410  0.7554
  227MOL0     H31268   5.048   9.566   9.724 -1.4444 -0.7069 -1.2480
  227MOL0     H31269   4.898   9.295   9.717 -2.9756  2.2835 -3.2060
  227MOL0     H31270   5.002   9.335   9.590 -0.3646 -1.4100  0.1849
  227MOL0     H31271   5.103   9.162   9.708 -2.6921  0.3252 -1.2374
  227MOL0     H31272   5.101   9.249   9.864  1.7856 -4.6900 -0.3001
  227MOL0     H31273   5.256   9.335   9.614 -0.0297 -0.3272  0.4251
  227MOL0     H31274   5.260   9.406   9.776 -1.1130  0.7680 -0.5525
  227MOL0     H31275   5.369   9.271   9.989 -4.2935 -2.1154  0.2517
  227MOL0     H31276   5.544   8.970  10.039 -2.2700  0.3523 -1.3966
  227MOL0     H31277   5.560   9.148  10.069 -1.2431 -0.8850 -0.8008
  227MOL0     H31278   5.723   8.993   9.876 -0.8721 -1.4541  2.9816
  227MOL0     H31279   5.747   9.163   9.899  2.1853  0.7963  1.4041
  227MOL0     H31280   5.766   9.108  10.152  1.0695  0.8729 -0.6341
  227MOL0     H31281   5.814   8.942  10.098 -2.5410 -0.8465  0.0318
  227MOL0     H31282   5.996   9.035   9.960 -0.9636 -0.7823 -0.5586
  227MOL0     H31283   5.948   9.205   9.986  2.1972 -0.5457 -0.8817
  227MOL0     H31284   6.227   9.159   9.960  1.5997 -1.7849 -1.3487
  227MOL0     H31285   6.559   9.120   9.958  1.4067  1.4928 -1.8038
  227MOL0     H31286   6.537   9.292   9.986 -1.7741  0.6159  0.3985
  227MOL0     H31287   6.435   9.218   9.869 -0.6611 -0.9024 -0.4372
  227MOL0     H31288   6.667   9.328  10.602  0.1021 -0.0968 -0.3999
  227MOL0     H31289   6.901   9.344  10.698  1.9264 -0.6116  0.2740
  227MOL0     H31290   7.209   9.043  10.564 -2.2646  0.4027 -1.1958
  227MOL0     H31291   7.230   9.142  10.429 -2.1093  0.7281  0.3376
  227MOL0     H31292   7.362   9.313  10.559 -1.8014 -0.5863 -3.7972
  227MOL0     H31293   7.366   9.201  10.692  2.7530  1.5303 -0.1621
  227MOL0     H31294   7.567   9.209  10.523  0.5264 -0.3315  1.0715
  227MOL0     H31295   7.469   9.130  10.409 -2.7403  3.2740 -1.0159
  227MOL0     H31296   7.428   8.951  10.590 -0.5751  0.6120 -1.3879
  227MOL0     H31297   7.532   9.040  10.704 -1.5331 -1.1791 -0.4531
  227MOL0     H31298   7.638   8.913  10.451 -0.2539 -1.6837  0.3702
  227MOL0     H31299   7.720   9.041  10.549  2.3335 -0.9501  1.2846
  227MOL0     H31300   7.649   8.773  10.630 -2.0180  1.5286  0.7191
  227MOL0     H31301   7.679   8.889  10.754 -2.8058  1.1721 -1.8545
  227MOL0     H31302   7.923   8.812  10.744 -0.0705  2.6990 -0.4608
  227MOL0     H31303   7.916   8.915  10.603  0.4656  1.4155  2.5421
  227MOL0     H31304   7.995   8.705  10.523  0.5558 -2.4644 -1.5548
  227MOL0     H31305   7.828   8.721  10.473  0.9443  2.4637  0.0857
  227MOL0     H31306   7.041   9.057  10.420  0.9128 -1.2677  3.9542
  227MOL0     H31307   6.796   9.028  10.334 -3.2626  0.8888 -0.7178
  227MOL0     H31308   6.373   9.137  10.425  2.0999  1.4280 -0.4559
  227MOL0     H31309   6.133   9.130  10.383  0.8396 -2.1810 -0.4410
  227MOL0     H31310   4.140   9.664   9.941 -0.5409 -0.2156  0.1857
  227MOL0     H31311   3.915   9.562   9.934 -0.1662 -1.0493  2.1122
  227MOL0     H31312   3.752   9.132   9.703 -2.2971  0.2375  3.8959
  227MOL0     H31313   3.554   8.993   9.600 -1.2205 -0.6813 -0.2943
  227MOL0     H31314   3.156   9.196   9.506  2.0836  2.2527  1.2363
  227MOL0     H31315   3.252   9.219   9.357  1.4057 -0.8204  0.6009
  227MOL0     H31316   3.166   8.954   9.415  1.3766  0.6522  0.3960
  227MOL0     H31317   3.155   9.037   9.257  0.2413 -0.0491  0.6367
  227MOL0     H31318   2.928   8.983   9.386 -1.6946  1.3032 -0.4101
  227MOL0     H31319   2.959   9.127   9.462 -2.3940  0.2892 -0.5417
  227MOL0     H31320   2.908   9.102   9.159  0.8601  0.5729 -1.2033
  227MOL0     H31321   3.017   9.227   9.221  1.8217 -1.3405  1.5098
  227MOL0     H31322   2.590   9.261   9.358  0.0656  0.4308  1.1006
  227MOL0     H31323   3.344   9.368   9.531  0.0627  0.7712  1.3775
  227MOL0     H31324   3.421   9.557   9.609 -0.0699 -3.3796 -0.9254
  227MOL0     H31325   3.573   9.574   9.703  2.6482  1.0932 -1.0862
  227MOL0     H31326   3.572   9.576   9.524  1.4167 -0.3127  0.3542
  228MOL0     O31327   3.795   4.609   4.357  0.4493 -1.0765 -0.3079
  228MOL0     C31328   3.741   4.499   4.369 -0.7053 -0.9705 -0.4332
  228MOL0     O31329   3.813   4.378   4.384  0.1316  0.4652  0.0367
  228MOL0     C31330   3.944   4.388   4.349 -0.4657  0.3850 -0.7870
  228MOL0     C31331   4.038   4.386   4.454  0.5218  0.3994 -0.5992
  228MOL0     C31332   4.174   4.401   4.420 -0.1394 -0.0412  0.3880
  228MOL0     C31333   4.219   4.432   4.286 -0.0102 -0.5180 -0.0273
  228MOL0     O31334   4.348   4.464   4.254 -0.6780  0.1364  0.5787
  228MOL0     C31335   4.445   4.369   4.218 -0.0133  0.2987 -1.2116
  228MOL0     C31336   4.567   4.449   4.165 -0.3114 -0.1888 -0.2477
  228MOL0     C31337   4.665   4.349   4.091 -0.5987  0.2942 -0.0116
  228MOL0     C31338   4.808   4.409   4.071 -0.7166  0.9383 -0.1916
  228MOL0     C31339   4.895   4.335   3.968 -0.0956  0.1043 -1.0528
  228MOL0     C31340   4.922   4.184   4.023 -0.3659 -0.4728  0.5777
  228MOL0     C31341   5.048   4.133   3.956 -0.2180 -0.1301 -0.0185
  228MOL0     C31342   5.090   3.995   4.008  0.1234  0.8103  0.1595
  228MOL0     N31343   5.227   3.953   3.965 -0.6214  0.5458 -0.3414
  228MOL0     C31344   5.261   3.889   3.847  0.4739 -0.1939 -0.7817
  228MOL0     C31345   5.388   3.848   3.865 -0.3980  0.1694  0.1888
  228MOL0     C31346   5.467   3.777   3.751  0.1042 -0.2330  0.5536
  228MOL0     C31347   5.621   3.794   3.754 -0.2139 -0.5542 -0.3715
  228MOL0     C31348   5.670   3.937   3.726  0.1242 -0.4349  0.1581
  228MOL0     C31349   5.811   3.966   3.786  0.1254 -0.0775 -0.1007
  228MOL0     O31350   5.893   3.860   3.732 -0.2725  0.4105 -0.4953
  228MOL0     C31351   6.023   3.868   3.714 -0.7806 -0.0152 -0.2827
  228MOL0     C31352   6.085   3.756   3.659  0.2647 -0.5141  0.1327
  228MOL0     C31353   6.225   3.753   3.657  0.0160  0.2280  0.8596
  228MOL0     C31354   6.285   3.638   3.582  0.3598  0.0803  0.0917
  228MOL0     C31355   6.308   3.853   3.717 -0.5235 -0.7467 -0.8692
  228MOL0     C31356   6.456   3.856   3.732  0.3856  1.0561 -0.2115
  228MOL0     O31357   6.510   3.971   3.779 -0.2847 -0.2819  0.0106
  228MOL0     C31358   6.640   3.978   3.817  0.1613  0.2511  0.2185
  228MOL0     C31359   6.719   3.867   3.862 -0.5763  0.3243  0.1316
  228MOL0     C31360   6.849   3.886   3.911  0.3696  0.5848  0.1772
  228MOL0     C31361   6.903   4.018   3.917 -0.3842 -0.6872  0.2054
  228MOL0     O31362   7.034   4.049   3.935 -0.5609  0.0616 -0.0209
  228MOL0     C31363   7.089   4.020   4.065 -0.0156 -0.0004 -0.4663
  228MOL0     C31364   7.075   4.146   4.156 -0.0525  0.3372  0.4763
  228MOL0     C31365   7.197   4.232   4.109  0.2644  0.8933 -0.3749
  228MOL0     C31366   7.151   4.335   4.003  0.3536  0.5663 -0.1423
  228MOL0     C31367   7.260   4.432   3.970  0.6041  0.3138  0.2331
  228MOL0     C31368   7.270   4.555   4.060  0.2941  0.1837 -0.3322
  228MOL0     C31369   7.375   4.659   4.022 -0.0102 -0.3926 -0.6598
  228MOL0     C31370   7.388   4.773   4.129  0.1869  0.0413 -0.3391
  228MOL0    Cl31371   7.470   4.908   4.061  0.1605  0.0646  0.3451
  228MOL0     C31372   6.825   4.127   3.884  0.8908 -0.5989  0.4330
  228MOL0     C31373   6.689   4.113   3.828  0.1707  0.1413 -0.2845
  228MOL0     O31374   6.524   3.759   3.699  0.4202  0.2160 -0.0267
  228MOL0     C31375   6.234   3.971   3.758  0.1171  0.3002  0.0648
  228MOL0     C31376   6.101   3.970   3.758 -0.0126 -1.1185 -1.1764
  228MOL0     N31377   5.438   3.901   3.982 -0.1330 -0.0633  0.4995
  228MOL0     N31378   5.336   3.960   4.045  0.2366  0.1959  0.0359
  228MOL0     C31379   4.128   4.430   4.186  1.3666 -0.2942 -0.2580
  228MOL0     C31380   3.991   4.410   4.217  0.3317  0.0388  0.5428
  228MOL0     C31381   3.600   4.497   4.377  1.4961 -0.0463 -0.2265
  228MOL0     C31382   3.533   4.439   4.485 -0.1423  0.7691  0.1832
  228MOL0     C31383   3.395   4.441   4.498 -0.5120 -0.3599 -0.9483
  228MOL0     C31384   3.316   4.505   4.397 -0.5406  0.2203  0.4236
  228MOL0     O31385   3.176   4.503   4.393  0.1568 -0.7495  0.6782
  228MOL0     C31386   3.108   4.436   4.501  0.3335 -0.1800  0.5740
  228MOL0     C31387   2.954   4.427   4.471  0.3035  0.1672 -0.7587
  228MOL0     C31388   2.896   4.567   4.440  0.9780 -0.6890 -0.4473
  228MOL0     C31389   2.763   4.540   4.372 -0.1286 -0.7030 -0.7810
  228MOL0     C31390   2.693   4.666   4.353  0.4318 -0.6353 -0.3108
  228MOL0     C31391   2.619   4.759   4.316 -0.3222  0.0373 -0.4571
  228MOL0     C31392   3.380   4.570   4.294  0.0580 -0.2493 -0.8132
  228MOL0     C31393   3.520   4.575   4.290  0.0475 -0.0534  0.4659
  228MOL0     C31394   3.580   4.649   4.180  0.1638 -0.6931  1.0352
  228MOL0     H31395   4.001   4.376   4.555  1.4426 -0.9944 -0.3751
  228MOL0     H31396   4.254   4.401   4.493 -0.4436  5.0139  1.1097
  228MOL0     H31397   4.405   4.295   4.149  1.6427 -0.4074 -1.4745
  228MOL0     H31398   4.482   4.318   4.308 -0.4314  2.6118  0.3407
  228MOL0     H31399   4.529   4.529   4.102  0.8356  0.2641 -0.4000
  228MOL0     H31400   4.614   4.502   4.249 -1.5722  0.3833  0.1096
  228MOL0     H31401   4.690   4.262   4.152 -0.8843  1.5559  1.9924
  228MOL0     H31402   4.620   4.319   3.996 -1.1766  1.5588 -0.1692
  228MOL0     H31403   4.794   4.511   4.033  2.2185  1.1152 -1.0288
  228MOL0     H31404   4.860   4.413   4.167 -0.6499  0.6880 -0.2177
  228MOL0     H31405   4.987   4.394   3.963 -1.2396  2.1779  0.6004
  228MOL0     H31406   4.843   4.338   3.872 -3.6075 -0.7142  0.6699
  228MOL0     H31407   4.922   4.189   4.132 -1.0000  1.5017  0.5234
  228MOL0     H31408   4.844   4.118   3.983 -0.2803  1.9459 -4.2406
  228MOL0     H31409   5.119   4.211   3.986 -0.3251 -0.6033  1.5241
  228MOL0     H31410   5.051   4.123   3.847  1.4043 -1.6415  0.1178
  228MOL0     H31411   5.076   3.997   4.116 -0.6162  0.8049  0.0740
  228MOL0     H31412   5.015   3.926   3.967  2.0727 -0.4609 -1.4670
  228MOL0     H31413   5.198   3.891   3.758 -1.6727  0.1518  0.6860
  228MOL0     H31414   5.437   3.830   3.660  1.5403  0.4358  0.4448
  228MOL0     H31415   5.443   3.670   3.753  2.9530 -0.9399  1.0072
  228MOL0     H31416   5.659   3.761   3.851 -0.6458 -0.3642 -0.1353
  228MOL0     H31417   5.662   3.731   3.674  1.1502 -1.0096  0.6506
  228MOL0     H31418   5.664   3.962   3.620  0.4499 -0.4676  0.1315
  228MOL0     H31419   5.603   4.012   3.770 -1.3934 -1.2486 -0.6667
  228MOL0     H31420   5.827   4.067   3.747 -0.7220  0.7299  1.5603
  228MOL0     H31421   5.822   3.958   3.895  1.2329 -2.5705 -0.3298
  228MOL0     H31422   6.024   3.671   3.631  2.0970 -1.9615  0.3305
  228MOL0     H31423   6.330   3.564   3.648 -0.9568 -0.5200  0.3619
  228MOL0     H31424   6.350   3.671   3.501 -0.7637 -0.5530 -1.1153
  228MOL0     H31425   6.204   3.579   3.537 -0.9350  1.9169 -0.1005
  228MOL0     H31426   6.689   3.763   3.857 -0.7177  0.3243  0.9098
  228MOL0     H31427   6.915   3.800   3.917  2.3354  1.7498 -2.7327
  228MOL0     H31428   7.039   3.938   4.116 -3.1189  2.6331  1.1084
  228MOL0     H31429   7.195   3.992   4.065 -0.2020 -1.2003  2.7581
  228MOL0     H31430   6.975   4.191   4.147 -1.9997 -3.5563  0.4179
  228MOL0     H31431   7.092   4.127   4.263  3.4684  0.8546  0.1282
  228MOL0     H31432   7.274   4.169   4.061 -0.9507 -0.7807 -0.2238
  228MOL0     H31433   7.228   4.281   4.201  0.4234 -0.8809  0.5696
  228MOL0     H31434   7.063   4.379   4.051  1.1085  0.0269  1.8025
  228MOL0     H31435   7.131   4.282   3.909 -0.7568 -1.0101  0.9431
  228MOL0     H31436   7.357   4.382   3.971 -0.3016 -1.5760 -0.7219
  228MOL0     H31437   7.243   4.469   3.869 -0.3939  1.2136  0.7009
  228MOL0     H31438   7.273   4.524   4.165  0.4683 -2.4542 -1.0492
  228MOL0     H31439   7.173   4.604   4.044  0.7968  2.0019  1.6889
  228MOL0     H31440   7.334   4.704   3.931 -2.9969  0.8538  1.1412
  228MOL0     H31441   7.475   4.615   4.016 -0.0159 -0.3918 -0.7551
  228MOL0     H31442   7.428   4.742   4.226  2.9616 -0.3094 -1.4998
  228MOL0     H31443   7.292   4.821   4.151 -0.8409 -1.2589 -1.7574
  228MOL0     H31444   6.856   4.230   3.891 -3.0464  0.6580  2.2303
  228MOL0     H31445   6.639   4.200   3.787  0.3302 -0.6526 -2.3019
  228MOL0     H31446   6.288   4.050   3.809 -0.0171 -0.5338  1.5252
  228MOL0     H31447   6.057   4.063   3.794  1.8047 -0.8267  0.4499
  228MOL0     H31448   4.159   4.451   4.085 -0.5355 -1.3460 -1.1220
  228MOL0     H31449   3.916   4.430   4.141 -0.3695  0.8829  1.4264
  228MOL0     H31450   3.588   4.396   4.568 -0.0719  3.1768  1.4963
  228MOL0     H31451   3.353   4.388   4.583  1.1913  0.2307  0.3088
  228MOL0     H31452   3.147   4.334   4.493 -0.5094 -0.5499  1.1015
  228MOL0     H31453   3.129   4.473   4.602 -1.4496  1.3327  0.4360
  228MOL0     H31454   2.901   4.381   4.556  0.3621 -0.7471 -1.2061
  228MOL0     H31455   2.942   4.367   4.381  0.2883  0.5828 -1.0356
  228MOL0     H31456   2.874   4.631   4.526 -1.2703 -1.1593 -0.5924
  228MOL0     H31457   2.961   4.624   4.373 -2.7416  2.9649 -1.4536
  228MOL0     H31458   2.701   4.477   4.435 -1.3304  0.0012 -1.2228
  228MOL0     H31459   2.777   4.489   4.276  0.8907 -0.3124 -0.8566
  228MOL0     H31460   2.541   4.831   4.300  0.6594  1.4008  0.5893
  228MOL0     H31461   3.322   4.607   4.210 -2.3220 -1.5477  0.1348
  228MOL0     H31462   3.512   4.679   4.100  0.4707 -0.6561  0.7871
  228MOL0     H31463   3.613   4.746   4.218  0.5552 -0.2149 -0.4563
  228MOL0     H31464   3.668   4.601   4.135  0.0522  0.9785 -1.1340
  229MOL0     O31465   7.193   0.960  11.252  0.1028 -0.2250 -0.1919
  229MOL0     C31466   7.125   0.865  11.207 -0.6148  0.1317 -1.0321
  229MOL0     O31467   7.158   0.784  11.100 -0.5795  0.3065 -0.1358
  229MOL0     C31468   7.295   0.764  11.072 -0.0523 -0.3244  0.1245
  229MOL0     C31469   7.341   0.775  10.938 -0.3284 -0.3606  0.7231
  229MOL0     C31470   7.468   0.741  10.907 -0.1096  0.3074  0.0361
  229MOL0     C31471   7.548   0.687  11.009 -0.5458 -0.1447 -0.3325
  229MOL0     O31472   7.675   0.634  10.988 -0.2425 -0.3292 -0.2029
  229MOL0     C31473   7.721   0.618  10.850 -0.1211  0.3590  0.4649
  229MOL0     C31474   7.854   0.538  10.841 -0.0717  0.1354  0.1198
  229MOL0     C31475   7.978   0.607  10.906  0.4141  0.0981 -0.3315
  229MOL0     C31476   8.097   0.507  10.903  0.3171 -1.1359 -0.1926
  229MOL0     C31477   8.219   0.574  10.967 -0.2282 -0.2023 -0.4217
  229MOL0     C31478   8.329   0.472  10.977 -0.2571  0.1136  0.0293
  229MOL0     C31479   8.441   0.530  11.072  0.1013  0.1216  0.6288
  229MOL0     C31480   8.577   0.456  11.051  1.1879 -0.1493 -0.4316
  229MOL0     N31481   8.632   0.495  10.920 -0.8443 -0.7263  0.3374
  229MOL0     C31482   8.676   0.625  10.885  0.7980 -0.0486  0.6782
  229MOL0     C31483   8.733   0.616  10.759 -0.0491  0.8969 -0.1771
  229MOL0     C31484   8.805   0.715  10.666  0.7251  0.0855  0.7730
  229MOL0     C31485   8.758   0.704  10.518 -0.0386 -0.7719 -0.6805
  229MOL0     C31486   8.813   0.818  10.429 -0.4469  0.0322 -0.0464
  229MOL0     C31487   8.957   0.781  10.408 -0.1871  0.3296  0.8132
  229MOL0     O31488   9.000   0.831  10.278 -0.5177 -0.0910 -0.4977
  229MOL0     C31489   9.132   0.816  10.247  0.3438 -0.7943  0.0964
  229MOL0     C31490   9.230   0.761  10.320 -0.1207  0.5659 -0.3491
  229MOL0     C31491   9.364   0.747  10.275 -0.5094 -0.7549 -0.7811
  229MOL0     C31492   9.457   0.689  10.381  0.4719  0.0830 -0.2364
  229MOL0     C31493   9.407   0.802  10.160  0.3290  0.4510  0.3997
  229MOL0     C31494   9.539   0.779  10.099  0.3974  0.4416 -0.3736
  229MOL0     O31495   9.635   0.691  10.152  0.1593 -0.7745 -0.4550
  229MOL0     C31496   9.757   0.665  10.091 -0.5201  0.3644  0.3744
  229MOL0     C31497   9.855   0.626  10.179 -0.1103  0.4699  0.1319
  229MOL0     C31498   9.980   0.578  10.130 -0.0285 -0.1448  0.3594
  229MOL0     C31499  10.003   0.570   9.989  0.1705 -0.2693 -0.5321
  229MOL0     O31500  10.129   0.524   9.952 -0.2225 -0.2011 -0.0020
  229MOL0     C31501  10.132   0.476   9.815 -0.1428  0.1709 -0.2847
  229MOL0     C31502  10.234   0.360   9.810 -0.4541  0.5337 -0.7107
  229MOL0     C31503  10.384   0.401   9.845 -1.0494 -0.2494 -0.2070
  229MOL0     C31504  10.480   0.284   9.854 -0.5556  0.7712  0.3162
  229MOL0     C31505  10.622   0.336   9.862  0.5753 -0.0996  0.1993
  229MOL0     C31506  10.659   0.373  10.006  0.7555  0.6564 -0.4690
  229MOL0     C31507  10.811   0.401  10.007  0.6134 -0.0544 -0.5964
  229MOL0     C31508  10.852   0.443  10.151  0.7330 -0.6742 -0.8174
  229MOL0    Cl31509  11.025   0.481  10.172 -0.2432 -0.1960 -0.3753
  229MOL0     C31510   9.913   0.632   9.907  0.2699 -0.4107 -0.3445
  229MOL0     C31511   9.795   0.687   9.956 -0.3796  0.2552  0.4938
  229MOL0     O31512   9.556   0.837   9.993  1.0244 -0.1838  0.6686
  229MOL0     C31513   9.307   0.867  10.080 -0.4165 -1.1580 -0.6876
  229MOL0     C31514   9.173   0.870  10.130 -0.0280 -0.3983 -0.3661
  229MOL0     N31515   8.740   0.480  10.739  0.0046  0.7097  0.0152
  229MOL0     N31516   8.678   0.408  10.828 -0.0049 -0.2955 -0.9721
  229MOL0     C31517   7.507   0.671  11.137 -0.8117 -0.4049 -0.1004
  229MOL0     C31518   7.379   0.712  11.171 -0.5221  0.1212 -0.4756
  229MOL0     C31519   6.988   0.847  11.257  0.2574 -0.8023 -0.7510
  229MOL0     C31520   6.913   0.739  11.210 -0.3708  0.0985  0.4151
  229MOL0     C31521   6.786   0.711  11.256 -0.5332 -0.1518 -0.2777
  229MOL0     C31522   6.721   0.783  11.347 -0.1952  0.5352 -0.4109
  229MOL0     O31523   6.594   0.756  11.383  0.3296  0.1603  0.0274
  229MOL0     C31524   6.490   0.840  11.341 -0.4464 -0.3074 -0.2187
  229MOL0     C31525   6.357   0.765  11.369  0.4406  0.4969 -0.1079
  229MOL0     C31526   6.344   0.646  11.267 -0.4868 -0.2864  1.4443
  229MOL0     C31527   6.201   0.604  11.222 -0.3966 -0.1795  0.1413
  229MOL0     C31528   6.126   0.530  11.317  0.7554  0.1530  0.0507
  229MOL0     C31529   6.072   0.467  11.409 -0.1110  0.0871  0.1460
  229MOL0     C31530   6.792   0.886  11.404 -0.2460  0.3585  0.4393
  229MOL0     C31531   6.924   0.917  11.367 -0.3777  0.6163  0.3844
  229MOL0     C31532   6.987   1.024  11.441 -0.2888 -0.8373 -1.0210
  229MOL0     H31533   7.276   0.811  10.859 -0.6025 -0.5095  0.8813
  229MOL0     H31534   7.508   0.756  10.807  1.6352 -1.7544  0.3513
  229MOL0     H31535   7.722   0.717  10.802 -0.1819  0.8766  1.4959
  229MOL0     H31536   7.652   0.557  10.792  2.7143 -0.3722 -2.4750
  229MOL0     H31537   7.831   0.439  10.881  0.4510  0.5250  1.4593
  229MOL0     H31538   7.871   0.528  10.734 -2.1621  1.0395 -0.3318
  229MOL0     H31539   8.006   0.701  10.858  1.5959  0.2823  0.6589
  229MOL0     H31540   7.960   0.641  11.009 -1.6380 -0.5447 -0.4333
  229MOL0     H31541   8.072   0.411  10.951  0.5095 -0.4596  1.3142
  229MOL0     H31542   8.119   0.490  10.797  1.0420  0.2045 -0.2709
  229MOL0     H31543   8.188   0.594  11.070  0.1437 -2.0671  0.0871
  229MOL0     H31544   8.247   0.666  10.915 -1.5672  0.7414  0.4327
  229MOL0     H31545   8.295   0.378  11.022 -0.2876  1.2325  2.5204
  229MOL0     H31546   8.364   0.448  10.877 -2.0977 -3.3763  0.0704
  229MOL0     H31547   8.425   0.507  11.178 -1.1973  0.9275  0.6282
  229MOL0     H31548   8.466   0.635  11.054  1.3043 -0.2512 -0.0466
  229MOL0     H31549   8.638   0.482  11.138  0.6778  0.3671 -0.2181
  229MOL0     H31550   8.565   0.348  11.065  0.1466  0.1943  1.9683
  229MOL0     H31551   8.654   0.709  10.949 -2.2737 -0.9286  0.9501
  229MOL0     H31552   8.913   0.704  10.677  1.1416  3.8887  2.2661
  229MOL0     H31553   8.771   0.810  10.709 -0.8773 -0.9380  1.8876
  229MOL0     H31554   8.783   0.604  10.482  1.2595 -0.5853 -0.3423
  229MOL0     H31555   8.650   0.713  10.507  0.1067  0.3780 -1.3504
  229MOL0     H31556   8.776   0.818  10.326  1.9104 -1.7794 -0.9764
  229MOL0     H31557   8.799   0.917  10.474  2.7103  0.3582  0.3877
  229MOL0     H31558   9.024   0.824  10.483  3.7551 -3.8075  0.0531
  229MOL0     H31559   8.977   0.674  10.410  0.7800  0.3076 -2.8978
  229MOL0     H31560   9.203   0.719  10.417  1.8386  1.2644  0.5539
  229MOL0     H31561   9.548   0.749  10.387 -1.4746  3.3226 -0.6280
  229MOL0     H31562   9.489   0.590  10.347  2.1272  0.0907  1.2055
  229MOL0     H31563   9.409   0.666  10.477 -1.7251 -0.6126 -1.4241
  229MOL0     H31564   9.843   0.626  10.287  3.3282 -3.5877  0.7588
  229MOL0     H31565  10.041   0.528  10.205  2.5203  0.8726 -0.9476
  229MOL0     H31566  10.034   0.439   9.783 -1.4454  1.0991  2.3597
  229MOL0     H31567  10.162   0.549   9.740  3.0020 -0.3461  0.3207
  229MOL0     H31568  10.196   0.293   9.887 -1.5608  2.1056  0.1705
  229MOL0     H31569  10.230   0.305   9.715  4.4631 -0.5923 -0.5227
  229MOL0     H31570  10.385   0.463   9.935  1.0355 -0.7028  0.1201
  229MOL0     H31571  10.418   0.465   9.763 -0.9059  2.6326  1.9432
  229MOL0     H31572  10.467   0.216   9.768 -1.6128 -0.9744  1.7824
  229MOL0     H31573  10.466   0.219   9.940  1.4193  0.9309  0.7997
  229MOL0     H31574  10.687   0.252   9.836  0.0888 -0.3943 -0.0778
  229MOL0     H31575  10.653   0.416   9.795  3.8088 -0.7315  0.7394
  229MOL0     H31576  10.633   0.293  10.076  1.0014  2.7058  2.1393
  229MOL0     H31577  10.607   0.461  10.047 -0.6400 -0.8526  1.1604
  229MOL0     H31578  10.834   0.473   9.929 -0.9245 -2.0217 -2.9905
  229MOL0     H31579  10.865   0.309   9.981  0.1851 -0.2550 -0.7798
  229MOL0     H31580  10.812   0.367  10.219 -0.9344 -2.4455 -3.6055
  229MOL0     H31581  10.805   0.538  10.179  0.0938 -1.0224 -0.6952
  229MOL0     H31582   9.923   0.642   9.799 -1.0682  0.3030 -0.4277
  229MOL0     H31583   9.732   0.741   9.886  1.4677  1.6203 -0.1922
  229MOL0     H31584   9.331   0.920   9.988  0.7891 -2.3782 -1.1088
  229MOL0     H31585   9.099   0.931  10.079 -0.9479  1.7471  3.2386
  229MOL0     H31586   7.564   0.635  11.222  2.3859  2.5379 -0.7752
  229MOL0     H31587   7.335   0.694  11.269  1.8478 -1.5162  0.3701
  229MOL0     H31588   6.958   0.674  11.136 -0.5281  0.2170  0.2146
  229MOL0     H31589   6.734   0.625  11.215 -1.5131  0.2056  0.1902
  229MOL0     H31590   6.491   0.935  11.394 -2.8536  1.0186 -2.3386
  229MOL0     H31591   6.507   0.867  11.236  1.0854  1.0250  0.3309
  229MOL0     H31592   6.272   0.829  11.346  1.5191  2.0805  0.1556
  229MOL0     H31593   6.363   0.729  11.472 -1.6521  2.2536  0.7008
  229MOL0     H31594   6.393   0.678  11.175 -2.9954  0.4301  0.2587
  229MOL0     H31595   6.396   0.563  11.316 -0.9319 -2.9835 -2.2317
  229MOL0     H31596   6.208   0.534  11.139 -2.1949 -1.5334  1.0740
  229MOL0     H31597   6.151   0.697  11.191 -0.1466 -0.5157 -1.3410
  229MOL0     H31598   6.036   0.415  11.495 -0.9830  3.9044  2.3308
  229MOL0     H31599   6.745   0.942  11.484  3.2457  0.7258  2.4574
  229MOL0     H31600   7.082   1.002  11.490  0.1802  0.3545 -1.3457
  229MOL0     H31601   7.011   1.105  11.371  1.7730  0.8836  1.4593
  229MOL0     H31602   6.929   1.076  11.519  3.7616  0.0450  1.6890
  230MOL0     O31603   0.943   0.182   2.829  0.3041 -0.6296 -0.1196
  230MOL0     C31604   0.927   0.068   2.884  1.4177  0.0630  0.5627
  230MOL0     O31605   1.031  -0.021   2.913  0.1802  0.3536 -0.7833
  230MOL0     C31606   1.155   0.027   2.897  0.6848 -0.3080  0.3416
  230MOL0     C31607   1.221  -0.015   2.782  0.3440  0.2872 -0.5094
  230MOL0     C31608   1.350   0.030   2.768 -0.0651  0.0268 -0.0488
  230MOL0     C31609   1.408   0.129   2.849 -1.0382  0.1135 -0.2023
  230MOL0     O31610   1.531   0.168   2.803 -0.2901  0.6239 -0.3302
  230MOL0     C31611   1.623   0.250   2.876 -0.6438  0.0543  0.6556
  230MOL0     C31612   1.595   0.395   2.829  0.1439  0.2919 -1.2726
  230MOL0     C31613   1.697   0.479   2.896 -1.2510 -0.0991  0.9509
  230MOL0     C31614   1.793   0.545   2.793  0.9252  0.0445 -0.3403
  230MOL0     C31615   1.729   0.660   2.724 -1.1487 -0.6736 -0.1163
  230MOL0     C31616   1.826   0.744   2.635  0.6129  0.0601 -0.3520
  230MOL0     C31617   1.763   0.872   2.577 -0.0191 -0.0222 -0.3065
  230MOL0     C31618   1.714   0.979   2.686  0.5736  0.1279 -0.0051
  230MOL0     N31619   1.819   1.035   2.778  0.2974  0.1345  0.2305
  230MOL0     C31620   1.813   1.017   2.911  0.3643  0.7885 -0.4376
  230MOL0     C31621   1.919   1.085   2.968  0.2574  0.3595  0.4589
  230MOL0     C31622   1.969   1.080   3.105  1.1016 -0.4462 -0.3100
  230MOL0     C31623   2.099   0.991   3.109 -0.3397  0.3546  0.4343
  230MOL0     C31624   2.175   0.993   3.246 -0.0222 -0.4253  0.3233
  230MOL0     C31625   2.289   0.886   3.262  0.2380 -0.4514  0.4121
  230MOL0     O31626   2.387   0.903   3.158  0.3200 -0.3085  0.4318
  230MOL0     C31627   2.479   0.804   3.139 -0.7287 -0.2499  0.4987
  230MOL0     C31628   2.543   0.800   3.013 -0.9723 -0.2164 -0.5549
  230MOL0     C31629   2.639   0.706   2.977 -0.3648  0.1056  1.2918
  230MOL0     C31630   2.694   0.717   2.833 -0.1415  0.3177 -0.2234
  230MOL0     C31631   2.672   0.605   3.067 -0.5609 -0.1689 -0.0793
  230MOL0     C31632   2.773   0.497   3.041  0.1997  0.6996 -0.2021
  230MOL0     O31633   2.751   0.382   3.123 -0.5273 -0.3731  0.4531
  230MOL0     C31634   2.814   0.262   3.114  1.5735  0.7041 -0.2411
  230MOL0     C31635   2.803   0.177   3.228  0.3995  0.3486 -0.0973
  230MOL0     C31636   2.816   0.034   3.216  0.1112 -0.0585 -0.0027
  230MOL0     C31637   2.872  -0.015   3.101  0.8079  0.6459 -0.1676
  230MOL0     O31638   2.901  -0.154   3.103  0.7099  0.3648  0.5451
  230MOL0     C31639   3.038  -0.195   3.095  1.0594  0.1046 -0.4683
  230MOL0     C31640   3.051  -0.346   3.122 -0.2296  0.7236  0.1504
  230MOL0     C31641   3.198  -0.389   3.156 -0.6450 -0.0392 -0.5499
  230MOL0     C31642   3.203  -0.535   3.220  0.2958 -0.4940 -0.5171
  230MOL0     C31643   3.214  -0.635   3.108  0.2308  0.5474  0.1168
  230MOL0     C31644   3.239  -0.778   3.159 -0.7782  0.0538  0.2801
  230MOL0     C31645   3.246  -0.891   3.047 -0.4013 -0.4024 -0.8006
  230MOL0     C31646   3.376  -0.896   2.964  0.2455 -0.7327 -0.1421
  230MOL0    Cl31647   3.346  -1.028   2.841  0.3251 -0.3132  0.0505
  230MOL0     C31648   2.897   0.066   2.989 -0.0901 -0.3402 -0.4588
  230MOL0     C31649   2.860   0.207   2.996 -0.7947  0.7326  0.3771
  230MOL0     O31650   2.864   0.510   2.960  0.5532  0.3633 -0.2994
  230MOL0     C31651   2.612   0.609   3.195  0.1433  0.1624  0.6909
  230MOL0     C31652   2.515   0.700   3.224 -0.1600 -1.4343 -0.6640
  230MOL0     N31653   1.982   1.138   2.857  0.7894  0.0680  0.4866
  230MOL0     N31654   1.919   1.112   2.755  0.0943 -0.4988  1.8688
  230MOL0     C31655   1.334   0.175   2.960 -0.0057  1.0261 -0.2032
  230MOL0     C31656   1.206   0.121   2.990 -0.3341 -0.4193 -0.5745
  230MOL0     C31657   0.786   0.023   2.909  0.6823 -0.1886  0.2053
  230MOL0     C31658   0.755  -0.084   2.994  0.2970 -0.4536  0.3489
  230MOL0     C31659   0.622  -0.126   3.024  0.1847  0.8231  0.2411
  230MOL0     C31660   0.514  -0.061   2.967 -0.0451 -0.2115 -0.7109
  230MOL0     O31661   0.385  -0.113   2.985  0.8364 -0.0786 -0.1526
  230MOL0     C31662   0.300  -0.089   2.863 -0.7313  0.7450 -0.7073
  230MOL0     C31663   0.175  -0.186   2.858  0.5235  0.4835 -0.3360
  230MOL0     C31664   0.232  -0.322   2.804  0.1851  0.0957  0.6093
  230MOL0     C31665   0.131  -0.427   2.762  0.5691 -0.1024  0.6988
  230MOL0     C31666   0.032  -0.389   2.665 -0.9026  0.9312  0.4189
  230MOL0     C31667  -0.044  -0.335   2.593  0.1499  0.2122  0.1520
  230MOL0     C31668   0.539   0.049   2.892 -0.1900  0.7853 -0.0695
  230MOL0     C31669   0.668   0.092   2.860 -1.3787 -0.3173 -0.6586
  230MOL0     C31670   0.686   0.206   2.761  0.2847 -0.1564 -0.0205
  230MOL0     H31671   1.179  -0.086   2.711  1.6550  0.4729 -1.5180
  230MOL0     H31672   1.413  -0.015   2.693 -1.1877  2.6498 -2.7652
  230MOL0     H31673   1.724   0.219   2.849 -0.4578 -0.4922  1.9157
  230MOL0     H31674   1.616   0.241   2.985 -1.7439 -2.3681  0.4621
  230MOL0     H31675   1.601   0.404   2.721  1.1061  0.2484 -1.2358
  230MOL0     H31676   1.494   0.417   2.864  0.2805 -2.2244  1.0331
  230MOL0     H31677   1.655   0.556   2.962  1.4051  1.9124  0.4604
  230MOL0     H31678   1.766   0.424   2.960 -1.2694  0.3268  1.3387
  230MOL0     H31679   1.883   0.587   2.839  1.7929 -1.9332 -0.1349
  230MOL0     H31680   1.820   0.468   2.720 -1.6849  2.0520 -3.7197
  230MOL0     H31681   1.695   0.731   2.800  0.8467 -0.4743  0.6600
  230MOL0     H31682   1.645   0.624   2.664 -2.0283  0.1021  0.6197
  230MOL0     H31683   1.916   0.774   2.690  0.5528  2.7592 -1.5521
  230MOL0     H31684   1.861   0.675   2.558  0.8700  0.1787 -0.3439
  230MOL0     H31685   1.679   0.852   2.509  0.2369 -1.7365 -0.1436
  230MOL0     H31686   1.839   0.918   2.513 -0.7261  1.3331 -0.2168
  230MOL0     H31687   1.681   1.065   2.626  1.8348  0.6482  0.0098
  230MOL0     H31688   1.626   0.940   2.738 -2.1368  1.0716 -3.4763
  230MOL0     H31689   1.742   0.950   2.958  1.0906  0.0669 -0.3553
  230MOL0     H31690   1.890   1.039   3.168  0.3062  0.1642 -0.8775
  230MOL0     H31691   1.984   1.186   3.129 -0.9367 -0.3129  0.5203
  230MOL0     H31692   2.073   0.888   3.083 -4.4752  1.2417  0.3105
  230MOL0     H31693   2.169   1.021   3.031 -0.1237 -1.2275 -0.0027
  230MOL0     H31694   2.224   1.090   3.253  0.8754 -0.8388 -0.1220
  230MOL0     H31695   2.103   0.974   3.326  1.1800 -0.2887  1.4756
  230MOL0     H31696   2.336   0.909   3.358 -0.5001 -0.3966  0.7626
  230MOL0     H31697   2.258   0.783   3.280 -0.1520  0.0607  2.9988
  230MOL0     H31698   2.511   0.876   2.942  1.8852 -0.6739 -2.4772
  230MOL0     H31699   2.803   0.708   2.836 -0.0095 -0.9193 -3.5950
  230MOL0     H31700   2.672   0.813   2.786 -0.2695  1.1452  1.4744
  230MOL0     H31701   2.643   0.636   2.780 -4.1724  1.8055  0.9727
  230MOL0     H31702   2.767   0.223   3.320 -2.0827 -0.6408 -0.4927
  230MOL0     H31703   2.798  -0.036   3.297  1.4396 -1.5908 -0.9632
  230MOL0     H31704   3.086  -0.163   3.002 -0.6146 -1.4822 -1.9513
  230MOL0     H31705   3.085  -0.145   3.180 -2.1682  3.9800 -0.6530
  230MOL0     H31706   3.005  -0.358   3.221  1.7941 -3.8903  0.8144
  230MOL0     H31707   2.999  -0.409   3.050  0.5859 -1.8409  1.6311
  230MOL0     H31708   3.234  -0.317   3.231 -1.6580  1.9665 -1.9054
  230MOL0     H31709   3.255  -0.385   3.063  3.9419 -1.1529  1.8973
  230MOL0     H31710   3.121  -0.548   3.291  0.6172 -1.4854 -0.3192
  230MOL0     H31711   3.283  -0.548   3.294 -2.4495 -2.8002  2.2855
  230MOL0     H31712   3.126  -0.636   3.043 -1.8084 -3.1829  2.5836
  230MOL0     H31713   3.289  -0.613   3.031  1.4560 -3.6872 -0.1593
  230MOL0     H31714   3.164  -0.799   3.235 -0.7410  0.6445  0.4799
  230MOL0     H31715   3.338  -0.790   3.205  0.1376 -0.0030 -1.5728
  230MOL0     H31716   3.155  -0.882   2.987 -1.0665 -2.5970 -0.2032
  230MOL0     H31717   3.261  -0.983   3.104 -0.1953  0.1708  0.0936
  230MOL0     H31718   3.461  -0.914   3.031 -1.0590 -1.0936  1.4964
  230MOL0     H31719   3.388  -0.805   2.904 -2.7656 -0.9553 -1.2284
  230MOL0     H31720   2.947   0.024   2.902  0.0116 -2.5795  0.6235
  230MOL0     H31721   2.878   0.278   2.917  0.8375  1.1620  1.0982
  230MOL0     H31722   2.633   0.524   3.259  5.6271 -0.4424 -1.3872
  230MOL0     H31723   2.467   0.693   3.321  0.1840  0.8403 -0.2766
  230MOL0     H31724   1.378   0.245   3.031  0.0877 -1.0144  1.8670
  230MOL0     H31725   1.169   0.150   3.088  0.3715  1.2167 -0.7453
  230MOL0     H31726   0.837  -0.144   3.032  0.8796 -0.7229 -1.2557
  230MOL0     H31727   0.601  -0.220   3.074  0.1123  1.2803  1.0849
  230MOL0     H31728   0.257   0.010   2.878 -0.0420  0.5804  3.4923
  230MOL0     H31729   0.353  -0.101   2.768 -2.0402 -1.3672 -1.2417
  230MOL0     H31730   0.108  -0.143   2.784 -0.8955 -0.7371  0.1697
  230MOL0     H31731   0.119  -0.193   2.952 -0.0944  1.2772 -0.6403
  230MOL0     H31732   0.277  -0.288   2.711 -0.6531  3.7893  1.4011
  230MOL0     H31733   0.292  -0.372   2.880 -0.0620  0.4599  1.0458
  230MOL0     H31734   0.069  -0.465   2.844 -0.6470 -1.0003 -0.5924
  230MOL0     H31735   0.182  -0.517   2.725  2.6824  0.9381  0.8992
  230MOL0     H31736  -0.120  -0.286   2.536 -1.6707 -2.7988 -0.1993
  230MOL0     H31737   0.456   0.109   2.856  0.2040  0.7314 -1.0968
  230MOL0     H31738   0.720   0.297   2.812 -0.6940  0.9320 -1.2541
  230MOL0     H31739   0.752   0.170   2.682 -0.9616 -1.4314 -0.5156
  230MOL0     H31740   0.606   0.231   2.691  1.0831  0.2497 -0.8122
  231MOL0     O31741   2.151   3.306   5.857  0.4312  0.3549 -0.2052
  231MOL0     C31742   2.142   3.391   5.765 -1.5622  0.5588 -0.4776
  231MOL0     O31743   2.255   3.434   5.691  0.5447  0.4332 -0.1072
  231MOL0     C31744   2.380   3.418   5.736  0.5148 -0.1300 -0.1537
  231MOL0     C31745   2.482   3.402   5.644  0.3775  0.1290  0.2627
  231MOL0     C31746   2.613   3.386   5.685 -0.7581 -1.2377 -0.3427
  231MOL0     C31747   2.655   3.413   5.819 -0.1514 -0.5542 -0.4058
  231MOL0     O31748   2.783   3.400   5.870 -0.1152 -0.1681  0.4910
  231MOL0     C31749   2.879   3.357   5.777  0.1326  0.4532 -0.9846
  231MOL0     C31750   3.008   3.347   5.861  0.2553  0.2608  0.8345
  231MOL0     C31751   3.127   3.300   5.774 -0.1334  0.7674  0.8481
  231MOL0     C31752   3.264   3.307   5.850  0.6111  0.2406  0.2312
  231MOL0     C31753   3.381   3.266   5.765 -0.1014  0.7712 -1.0222
  231MOL0     C31754   3.507   3.300   5.846 -0.2588  0.8179 -0.2117
  231MOL0     C31755   3.639   3.265   5.775 -0.1512  0.1027 -0.4298
  231MOL0     C31756   3.756   3.330   5.850 -0.8772 -0.4007 -0.0761
  231MOL0     N31757   3.897   3.309   5.793  0.0651  0.1569 -0.2742
  231MOL0     C31758   3.967   3.410   5.725  0.0413 -0.0676 -0.6389
  231MOL0     C31759   4.074   3.355   5.673 -0.4659  0.5000 -1.0773
  231MOL0     C31760   4.170   3.446   5.597 -0.0592  0.9470 -0.3434
  231MOL0     C31761   4.314   3.463   5.644 -0.0477 -0.2445 -0.4647
  231MOL0     C31762   4.393   3.327   5.657 -0.4177 -0.2354  0.1771
  231MOL0     C31763   4.421   3.258   5.519  0.0959  0.1025 -0.0108
  231MOL0     O31764   4.556   3.201   5.502  0.5118  0.5923  0.2683
  231MOL0     C31765   4.663   3.271   5.462 -0.2040 -0.6179  0.3019
  231MOL0     C31766   4.676   3.409   5.469 -0.2405 -0.6909 -0.2439
  231MOL0     C31767   4.788   3.477   5.419 -0.4223 -0.2294  0.5140
  231MOL0     C31768   4.777   3.623   5.426 -1.0710  0.0505 -0.0670
  231MOL0     C31769   4.904   3.408   5.378  0.0473  0.3828  0.6132
  231MOL0     C31770   5.035   3.466   5.339  0.7604  0.1717 -0.5169
  231MOL0     O31771   5.081   3.584   5.390  1.1434 -0.3515  0.1624
  231MOL0     C31772   5.205   3.629   5.392 -0.3883 -0.8941  0.9902
  231MOL0     C31773   5.250   3.746   5.322  0.6370  0.1355  0.0214
  231MOL0     C31774   5.377   3.788   5.312  0.1862  0.8764  0.2644
  231MOL0     C31775   5.477   3.713   5.373 -0.4237  0.0265  0.6458
  231MOL0     O31776   5.606   3.771   5.371 -0.2145 -0.5266  0.4488
  231MOL0     C31777   5.689   3.722   5.480 -0.2293 -0.2916 -0.4445
  231MOL0     C31778   5.823   3.806   5.488 -0.0097  0.0058 -0.7025
  231MOL0     C31779   5.920   3.766   5.374 -0.2635  0.6358 -0.6780
  231MOL0     C31780   5.991   3.627   5.385  0.6045 -0.1414  0.4167
  231MOL0     C31781   6.121   3.646   5.461 -0.1409 -1.3771  0.3474
  231MOL0     C31782   6.181   3.508   5.471  0.4578  0.4251 -0.3537
  231MOL0     C31783   6.308   3.493   5.555 -1.0169  0.4476 -0.8541
  231MOL0     C31784   6.426   3.570   5.520  0.1798 -1.3791  0.5973
  231MOL0    Cl31785   6.455   3.571   5.346 -0.3625  0.0774  0.2487
  231MOL0     C31786   5.442   3.592   5.441 -0.2162  0.4180  1.0363
  231MOL0     C31787   5.308   3.548   5.445 -0.0429 -0.4116 -0.1008
  231MOL0     O31788   5.100   3.398   5.265  0.0597 -0.0879 -0.1668
  231MOL0     C31789   4.889   3.263   5.380 -0.8265 -0.2391  0.3331
  231MOL0     C31790   4.778   3.198   5.421 -0.1212  0.0564  0.5272
  231MOL0     N31791   4.081   3.228   5.730  0.0594 -0.1359 -0.3446
  231MOL0     N31792   3.981   3.201   5.803 -0.1835  0.4906 -0.2509
  231MOL0     C31793   2.550   3.438   5.908 -0.9371  0.7000 -0.3142
  231MOL0     C31794   2.414   3.439   5.870 -0.3169  0.3269 -0.5605
  231MOL0     C31795   2.006   3.441   5.728  0.3948  0.5037  1.0758
  231MOL0     C31796   1.897   3.357   5.749  0.3896  0.1280 -0.3317
  231MOL0     C31797   1.764   3.390   5.710 -0.5303 -0.2018 -0.9651
  231MOL0     C31798   1.736   3.515   5.658  0.8099 -0.5884 -1.0382
  231MOL0     O31799   1.597   3.540   5.636  0.5330 -0.3538  0.1937
  231MOL0     C31800   1.564   3.675   5.628 -0.0611 -0.5749 -0.9892
  231MOL0     C31801   1.570   3.738   5.488 -0.2445  0.5149  0.1079
  231MOL0     C31802   1.499   3.659   5.386 -0.1892  0.4603 -0.2137
  231MOL0     C31803   1.349   3.640   5.398 -0.6211 -0.1366 -0.4004
  231MOL0     C31804   1.283   3.773   5.394 -0.8889  0.9018  0.7995
  231MOL0     C31805   1.258   3.894   5.391 -0.6049  0.4501 -0.4835
  231MOL0     C31806   1.842   3.594   5.632 -0.2562 -0.4374  0.5659
  231MOL0     C31807   1.978   3.559   5.659 -0.4794 -0.2344  0.1368
  231MOL0     C31808   2.084   3.662   5.626  0.0792  0.2785  0.1582
  231MOL0     H31809   2.450   3.391   5.541  1.9280 -1.1633 -0.1218
  231MOL0     H31810   2.688   3.359   5.611  0.5633  1.2871 -0.0441
  231MOL0     H31811   2.900   3.439   5.708 -1.2451  0.8830 -0.9125
  231MOL0     H31812   2.858   3.266   5.720 -0.2332 -1.3578  1.8597
  231MOL0     H31813   3.046   3.442   5.899  2.7386  0.9211 -2.8095
  231MOL0     H31814   3.000   3.262   5.931  1.7213  0.1405  0.9045
  231MOL0     H31815   3.099   3.196   5.754  1.3693  0.2927  1.0572
  231MOL0     H31816   3.131   3.356   5.680  0.6972  0.4597  0.6903
  231MOL0     H31817   3.288   3.410   5.878 -0.5286  0.6237 -0.1472
  231MOL0     H31818   3.263   3.248   5.941 -1.0619 -2.2619 -1.2896
  231MOL0     H31819   3.375   3.325   5.673  4.8701 -1.4805 -3.1984
  231MOL0     H31820   3.387   3.160   5.739  1.7362  0.5255  0.1821
  231MOL0     H31821   3.500   3.407   5.867 -2.4963  0.5284  0.8550
  231MOL0     H31822   3.507   3.252   5.945 -1.2759 -0.0651 -0.6135
  231MOL0     H31823   3.651   3.310   5.676  0.6121 -2.2772 -1.4949
  231MOL0     H31824   3.652   3.157   5.767  1.6001  0.2936 -0.5214
  231MOL0     H31825   3.738   3.438   5.856  2.9790  0.3742  5.4652
  231MOL0     H31826   3.760   3.298   5.955 -0.8962  1.5302  0.5520
  231MOL0     H31827   3.924   3.507   5.702  1.4348  0.2621 -2.0111
  231MOL0     H31828   4.128   3.547   5.586 -0.4124  0.6871 -1.5720
  231MOL0     H31829   4.187   3.408   5.496  1.2568 -1.3591  0.6584
  231MOL0     H31830   4.368   3.527   5.573 -0.3715 -1.8660 -2.2618
  231MOL0     H31831   4.314   3.501   5.746 -0.0978  0.2171 -0.6312
  231MOL0     H31832   4.492   3.348   5.699  0.0288  2.2781 -1.8146
  231MOL0     H31833   4.336   3.260   5.722 -0.9395  1.6489  1.7782
  231MOL0     H31834   4.355   3.175   5.489  0.8597 -0.5991  0.1890
  231MOL0     H31835   4.398   3.331   5.441 -2.1701 -0.9161 -0.4014
  231MOL0     H31836   4.589   3.457   5.514 -0.4460  0.1697 -1.5012
  231MOL0     H31837   4.828   3.666   5.340 -0.2496 -1.9971 -0.6706
  231MOL0     H31838   4.836   3.661   5.510 -0.8203 -2.7149  1.1478
  231MOL0     H31839   4.677   3.665   5.436 -0.4930  1.1717  1.3256
  231MOL0     H31840   5.183   3.816   5.272 -1.5993 -1.9365 -0.0299
  231MOL0     H31841   5.408   3.872   5.251 -1.0876  1.1347 -0.0415
  231MOL0     H31842   5.640   3.729   5.577 -0.0079 -1.8023 -0.1951
  231MOL0     H31843   5.719   3.617   5.476 -0.1186 -0.6956  4.5488
  231MOL0     H31844   5.798   3.911   5.471 -1.3823  0.2247  2.0935
  231MOL0     H31845   5.868   3.803   5.588 -0.8644 -0.4025 -0.3140
  231MOL0     H31846   6.000   3.839   5.363  1.9828 -1.2591  1.7394
  231MOL0     H31847   5.852   3.759   5.289 -3.9874  0.8613  2.0285
  231MOL0     H31848   6.011   3.598   5.281 -0.5217  2.0085 -0.4791
  231MOL0     H31849   5.925   3.558   5.438  3.2677 -1.9737  1.5718
  231MOL0     H31850   6.184   3.714   5.403 -0.3014 -0.5764  1.0822
  231MOL0     H31851   6.099   3.696   5.556  1.4371  0.0305  0.0203
  231MOL0     H31852   6.195   3.474   5.368 -2.5752 -1.5275 -0.2645
  231MOL0     H31853   6.107   3.443   5.520 -0.7552  2.5354  0.8055
  231MOL0     H31854   6.346   3.390   5.563  1.1788  1.3269  2.0018
  231MOL0     H31855   6.275   3.508   5.658 -1.1189 -1.6933 -0.5177
  231MOL0     H31856   6.514   3.527   5.569  0.8746 -1.7015 -0.8799
  231MOL0     H31857   6.408   3.675   5.545  0.2930 -1.7128  2.2130
  231MOL0     H31858   5.515   3.530   5.493  2.3210  0.0438 -2.5507
  231MOL0     H31859   5.291   3.455   5.498  0.8447 -0.7526 -0.4091
  231MOL0     H31860   4.974   3.202   5.353 -0.2094 -0.3522  2.3406
  231MOL0     H31861   4.761   3.091   5.418 -2.9932  0.4421 -1.5253
  231MOL0     H31862   2.577   3.456   6.012 -0.2471  0.6475 -0.4810
  231MOL0     H31863   2.340   3.460   5.947  0.9185  1.9941  0.2598
  231MOL0     H31864   1.913   3.256   5.784  2.5688  0.1124 -1.2052
  231MOL0     H31865   1.681   3.327   5.742  1.0432  0.0765  4.9449
  231MOL0     H31866   1.464   3.681   5.672  0.6495  2.3100  0.4585
  231MOL0     H31867   1.625   3.738   5.694  1.5066 -1.9049 -1.0921
  231MOL0     H31868   1.675   3.743   5.458 -0.5108  0.0818 -0.9353
  231MOL0     H31869   1.532   3.841   5.491 -1.5507  0.0319  2.1044
  231MOL0     H31870   1.518   3.712   5.292  0.4737 -1.4106 -1.1819
  231MOL0     H31871   1.544   3.560   5.384 -2.6813 -0.7858  0.9003
  231MOL0     H31872   1.324   3.582   5.488  3.2983  0.3874  1.2332
  231MOL0     H31873   1.326   3.582   5.308  2.2812 -0.1016 -1.2541
  231MOL0     H31874   1.244   3.999   5.406 -0.5227  0.0300  3.3439
  231MOL0     H31875   1.827   3.692   5.588  0.6617 -0.3983  0.3300
  231MOL0     H31876   2.167   3.619   5.569  0.4301 -3.0097  2.8569
  231MOL0     H31877   2.041   3.744   5.568  0.7381 -0.6932 -1.7839
  231MOL0     H31878   2.123   3.703   5.720 -1.0639 -0.1499  0.8356
  232MOL0     O31879   6.056   7.813   0.584  0.3082 -0.3849 -0.3359
  232MOL0     C31880   6.002   7.906   0.524 -0.3306 -0.5163  0.7033
  232MOL0     O31881   6.064   8.015   0.472 -0.4037  0.1761  0.4774
  232MOL0     C31882   6.189   8.039   0.524  0.2441  0.0750 -0.0139
  232MOL0     C31883   6.210   8.152   0.609  0.1843  0.7133  0.7211
  232MOL0     C31884   6.332   8.178   0.653 -0.7718 -0.4655  0.3500
  232MOL0     C31885   6.444   8.095   0.626  0.3701  0.4353 -0.0047
  232MOL0     O31886   6.565   8.143   0.671  0.1912  0.1872 -0.5163
  232MOL0     C31887   6.689   8.064   0.677 -0.1230  0.4483  0.3698
  232MOL0     C31888   6.802   8.167   0.709 -0.1907 -0.2181  0.5375
  232MOL0     C31889   6.931   8.113   0.774 -0.1227 -0.0910 -0.3335
  232MOL0     C31890   7.042   8.222   0.765  0.0659  0.6535  0.3377
  232MOL0     C31891   7.157   8.197   0.864 -0.3307 -0.2064  0.2885
  232MOL0     C31892   7.248   8.321   0.868  0.4667  0.2192 -0.0726
  232MOL0     C31893   7.383   8.310   0.924  0.9040 -0.3789  0.0158
  232MOL0     C31894   7.449   8.452   0.947  0.0861  0.1979  0.1979
  232MOL0     N31895   7.592   8.468   0.968  0.3575  0.3993 -0.8919
  232MOL0     C31896   7.680   8.389   1.038  0.6572 -0.9677  0.1736
  232MOL0     C31897   7.803   8.403   0.986 -0.2474  0.5546 -0.6953
  232MOL0     C31898   7.925   8.325   1.027 -0.1582  0.2305  0.1091
  232MOL0     C31899   7.954   8.339   1.171  0.2405  0.3870 -0.2422
  232MOL0     C31900   8.093   8.280   1.208 -0.4631 -0.3483  0.0249
  232MOL0     C31901   8.146   8.349   1.330  0.3033  0.0359  0.1392
  232MOL0     O31902   8.248   8.267   1.388  0.3970  0.0354 -0.2124
  232MOL0     C31903   8.328   8.308   1.487  0.1976  0.3570 -0.5883
  232MOL0     C31904   8.378   8.202   1.571 -0.0348  0.0342 -0.0724
  232MOL0     C31905   8.474   8.223   1.673  0.1981 -0.2492  0.4134
  232MOL0     C31906   8.525   8.104   1.749 -0.2564 -0.3823 -0.1915
  232MOL0     C31907   8.524   8.359   1.685  0.0739  0.5521  0.1836
  232MOL0     C31908   8.627   8.403   1.783 -0.1608  0.7635 -0.6264
  232MOL0     O31909   8.664   8.539   1.788  0.2543  0.1796 -0.7410
  232MOL0     C31910   8.781   8.574   1.845  0.5505 -0.8128 -0.9079
  232MOL0     C31911   8.785   8.592   1.979  0.3818  0.7217  0.2159
  232MOL0     C31912   8.899   8.645   2.041  0.0242  1.4136  0.7185
  232MOL0     C31913   9.015   8.663   1.963 -0.1216 -0.4516  0.8805
  232MOL0     O31914   9.136   8.704   2.009  0.0047  0.4164 -0.4463
  232MOL0     C31915   9.149   8.814   2.102 -0.3362  0.6110 -0.0486
  232MOL0     C31916   9.137   8.949   2.030  0.3506  0.3993 -0.6658
  232MOL0     C31917   9.190   9.081   2.094 -0.9451 -0.7030 -0.3104
  232MOL0     C31918   9.119   9.145   2.212 -0.0694  0.4205 -0.3067
  232MOL0     C31919   8.963   9.148   2.221 -0.1718 -0.4904 -0.5491
  232MOL0     C31920   8.903   9.218   2.103 -0.0085 -0.9322 -0.1753
  232MOL0     C31921   8.975   9.355   2.059 -0.1502 -0.2622 -0.0027
  232MOL0     C31922   8.900   9.411   1.937 -0.4228  0.8478 -0.1495
  232MOL0    Cl31923   8.950   9.330   1.787  0.2237  0.0029 -0.2428
  232MOL0     C31924   8.999   8.649   1.816 -0.7188 -0.2419 -0.5091
  232MOL0     C31925   8.876   8.615   1.759 -0.3613  0.5147  0.1730
  232MOL0     O31926   8.688   8.310   1.839 -0.3887 -0.1532  0.1374
  232MOL0     C31927   8.468   8.461   1.617  0.2591  0.0165 -0.1270
  232MOL0     C31928   8.375   8.441   1.508 -0.2032 -0.8482 -0.0734
  232MOL0     N31929   7.790   8.507   0.891  0.2225  0.6137 -0.0178
  232MOL0     N31930   7.659   8.543   0.887  0.2762  0.7676 -0.2574
  232MOL0     C31931   6.423   7.976   0.552 -0.3430  0.4679 -0.2150
  232MOL0     C31932   6.297   7.951   0.500 -0.1982  0.9333 -0.3152
  232MOL0     C31933   5.864   7.878   0.479 -0.8401 -0.2412  0.6740
  232MOL0     C31934   5.838   7.913   0.342  0.1118  0.6544  0.0183
  232MOL0     C31935   5.710   7.900   0.276 -0.2212  0.2878 -0.4278
  232MOL0     C31936   5.598   7.838   0.346  0.3241  0.0687  0.0523
  232MOL0     O31937   5.487   7.806   0.270  0.1146 -0.6940 -0.4780
  232MOL0     C31938   5.396   7.716   0.326 -0.0772  0.2297 -0.1421
  232MOL0     C31939   5.442   7.560   0.345  0.8527 -0.5081  0.7748
  232MOL0     C31940   5.324   7.469   0.380 -0.0836  0.0146  0.1588
  232MOL0     C31941   5.223   7.457   0.267 -0.1810 -0.0178  0.4314
  232MOL0     C31942   5.105   7.388   0.322 -0.2137  0.0173  0.7829
  232MOL0     C31943   5.010   7.323   0.363 -0.0959 -0.3658 -0.0952
  232MOL0     C31944   5.626   7.806   0.486  0.2470 -0.3556 -0.1292
  232MOL0     C31945   5.753   7.824   0.548  1.0227 -0.5038 -0.2221
  232MOL0     C31946   5.765   7.788   0.692  0.6292  0.0294  0.6048
  232MOL0     H31947   6.129   8.219   0.635 -0.4978 -0.6759  2.4199
  232MOL0     H31948   6.357   8.260   0.719 -0.6305 -1.0403  1.0315
  232MOL0     H31949   6.715   8.017   0.582  0.5439  3.2010 -0.9152
  232MOL0     H31950   6.687   7.995   0.761  1.8744  0.4855  0.4747
  232MOL0     H31951   6.836   8.212   0.615 -3.0782  0.1153 -0.4499
  232MOL0     H31952   6.762   8.237   0.782  2.2413 -0.9203  2.6841
  232MOL0     H31953   6.920   8.085   0.879  0.5308 -0.3118 -0.3212
  232MOL0     H31954   6.973   8.030   0.717  0.2804 -1.5524  1.9517
  232MOL0     H31955   7.078   8.229   0.662  2.2154 -3.2657  0.5876
  232MOL0     H31956   6.984   8.309   0.796  1.7040  2.4163 -1.2671
  232MOL0     H31957   7.220   8.121   0.818 -0.9023  0.1453 -1.0984
  232MOL0     H31958   7.110   8.173   0.960 -4.2521  0.1253 -1.3620
  232MOL0     H31959   7.259   8.353   0.764 -0.2448 -1.2699 -0.6227
  232MOL0     H31960   7.180   8.391   0.918 -0.3780 -0.0010 -0.8839
  232MOL0     H31961   7.440   8.250   0.853  0.7327  0.7818 -1.1536
  232MOL0     H31962   7.372   8.249   1.013 -1.1042 -0.5260 -0.2731
  232MOL0     H31963   7.427   8.511   0.858 -0.3211 -2.2725 -1.4579
  232MOL0     H31964   7.407   8.500   1.035 -0.0612  0.3879  0.0254
  232MOL0     H31965   7.650   8.325   1.120 -1.2065  1.2088  1.3036
  232MOL0     H31966   8.010   8.368   0.974 -1.3456  3.5800  0.6375
  232MOL0     H31967   7.912   8.219   1.003 -2.6066  1.1861 -3.4378
  232MOL0     H31968   7.951   8.446   1.197 -1.6883  0.1802  0.5629
  232MOL0     H31969   7.876   8.286   1.226  0.0012 -0.2777 -1.2006
  232MOL0     H31970   8.081   8.171   1.215  1.4169 -0.6501 -0.8278
  232MOL0     H31971   8.169   8.304   1.133  0.6371  0.5661  1.3875
  232MOL0     H31972   8.186   8.444   1.296 -1.6252  0.1714 -1.9857
  232MOL0     H31973   8.062   8.371   1.398  0.8754 -0.1541  0.9230
  232MOL0     H31974   8.351   8.100   1.545  1.2168 -0.3260 -0.0356
  232MOL0     H31975   8.625   8.065   1.727  0.6277  0.4409  2.1085
  232MOL0     H31976   8.458   8.017   1.745 -0.3484 -0.2835 -1.8825
  232MOL0     H31977   8.529   8.126   1.856  0.0653  0.2917 -0.3377
  232MOL0     H31978   8.691   8.576   2.030  1.4722  0.2230  2.2076
  232MOL0     H31979   8.900   8.675   2.146 -1.8902 -0.8956  1.4770
  232MOL0     H31980   9.098   8.798   2.198  3.2193 -2.3266  1.6081
  232MOL0     H31981   9.250   8.805   2.142 -0.0706  1.0711 -0.6033
  232MOL0     H31982   9.193   8.943   1.936  0.1110  0.6017 -0.8237
  232MOL0     H31983   9.030   8.956   2.010  0.2190 -0.2224 -0.2105
  232MOL0     H31984   9.192   9.155   2.014 -2.4503  0.6614  0.8432
  232MOL0     H31985   9.294   9.062   2.124 -0.1356  1.8481 -1.2360
  232MOL0     H31986   9.161   9.245   2.227 -1.4861  0.6401  3.0381
  232MOL0     H31987   9.156   9.084   2.295  1.4094  0.7112 -0.7325
  232MOL0     H31988   8.916   9.050   2.232 -1.2527  0.0478 -0.1866
  232MOL0     H31989   8.937   9.201   2.313  2.0411 -1.2342  0.5737
  232MOL0     H31990   8.797   9.235   2.125 -0.1928 -1.5075 -0.5950
  232MOL0     H31991   8.897   9.152   2.016 -3.6594 -0.2863 -0.5820
  232MOL0     H31992   9.079   9.331   2.035  0.3379 -0.6633  2.2946
  232MOL0     H31993   8.970   9.422   2.145 -2.0587 -2.6440  1.8678
  232MOL0     H31994   8.915   9.519   1.925  0.2323  1.3278  3.7635
  232MOL0     H31995   8.793   9.411   1.957 -0.7212  1.5135 -1.6145
  232MOL0     H31996   9.090   8.667   1.760  0.6336  0.9474  1.9410
  232MOL0     H31997   8.853   8.612   1.653 -1.6409 -1.8711  0.4696
  232MOL0     H31998   8.496   8.565   1.631 -3.9377  1.2976  0.3896
  232MOL0     H31999   8.341   8.528   1.454 -1.1288 -0.1144  1.5943
  232MOL0     H32000   6.505   7.906   0.537 -0.4444  0.5460 -1.1957
  232MOL0     H32001   6.269   7.862   0.444  1.7160 -1.3601  2.1079
  232MOL0     H32002   5.923   7.952   0.286  0.6977  0.4878  0.7782
  232MOL0     H32003   5.698   7.930   0.173 -0.3339  0.5326 -0.3460
  232MOL0     H32004   5.369   7.759   0.423 -0.6407  1.7366 -0.9318
  232MOL0     H32005   5.305   7.720   0.266 -0.9993  0.7269  1.2411
  232MOL0     H32006   5.509   7.562   0.431  2.3933 -1.0095 -0.3890
  232MOL0     H32007   5.490   7.522   0.255  0.1443  1.2756 -0.4096
  232MOL0     H32008   5.363   7.368   0.400  2.3337  0.7615 -0.3981
  232MOL0     H32009   5.280   7.509   0.472  1.7925  0.3159  0.9694
  232MOL0     H32010   5.266   7.406   0.180 -1.2032 -0.3420  0.1025
  232MOL0     H32011   5.183   7.549   0.223 -1.3929 -1.9617 -2.8447
  232MOL0     H32012   4.925   7.279   0.411 -0.1634  0.7337  0.8539
  232MOL0     H32013   5.548   7.764   0.548  0.3410  0.9017  0.8772
  232MOL0     H32014   5.841   7.710   0.697  1.3045  0.5133 -1.2465
  232MOL0     H32015   5.809   7.873   0.745  2.2360  0.0301 -0.6683
  232MOL0     H32016   5.674   7.749   0.739  0.0195  0.1377 -0.4538
  233MOL0     O32017  11.139   9.872   5.210 -0.7651  0.3579 -0.2658
  233MOL0     C32018  11.068   9.948   5.275 -0.1571 -0.7288  0.0046
  233MOL0     O32019  11.101  10.069   5.318  0.0547  0.5185  0.3465
  233MOL0     C32020  11.232  10.098   5.318  0.0765 -0.9450  0.7927
  233MOL0     C32021  11.307  10.084   5.430  0.3777 -0.1313 -0.2398
  233MOL0     C32022  11.435  10.144   5.439 -0.0673 -1.1279 -0.1433
  233MOL0     C32023  11.497  10.186   5.322 -0.4700 -0.5287 -0.5777
  233MOL0     O32024  11.629  10.247   5.310  0.3533  0.5281 -0.1006
  233MOL0     C32025  11.723  10.233   5.418 -0.9319  0.2678  0.9150
  233MOL0     C32026  11.859  10.285   5.379  0.6351 -0.4831 -0.4074
  233MOL0     C32027  11.913  10.201   5.264 -0.2303 -0.2272 -0.8422
  233MOL0     C32028  12.028  10.283   5.206  0.1134  0.7835  0.9607
  233MOL0     C32029  12.104  10.214   5.090 -0.1793 -0.6460  0.5440
  233MOL0     C32030  12.014  10.206   4.964  0.5977 -0.1429  0.0482
  233MOL0     C32031  12.077  10.124   4.852 -0.7419 -0.1836 -0.3615
  233MOL0     C32032  12.023  10.167   4.715 -0.3062 -0.6045  0.1482
  233MOL0     N32033  11.901  10.098   4.681  0.5695  0.6466  0.0747
  233MOL0     C32034  11.771  10.129   4.716  0.0564  0.1519 -0.0655
  233MOL0     C32035  11.689  10.043   4.643 -0.0331 -1.1154  0.0387
  233MOL0     C32036  11.540  10.067   4.659 -0.0972  1.2059  0.3708
  233MOL0     C32037  11.497  10.014   4.794  0.0788 -0.7410 -0.3482
  233MOL0     C32038  11.481   9.858   4.793 -0.5712  0.9437  0.2159
  233MOL0     C32039  11.456   9.782   4.926  0.3758 -0.4154  0.7851
  233MOL0     O32040  11.464   9.866   5.040  0.2292 -0.0892 -0.1446
  233MOL0     C32041  11.576   9.846   5.114  0.1567  1.0343  0.2561
  233MOL0     C32042  11.561   9.803   5.244  0.1849 -0.5098 -0.3557
  233MOL0     C32043  11.663   9.779   5.331 -0.2345 -0.8859  0.1354
  233MOL0     C32044  11.616   9.769   5.474  0.6096 -0.1193  0.1058
  233MOL0     C32045  11.801   9.787   5.287 -0.1576  0.5278 -0.4200
  233MOL0     C32046  11.915   9.764   5.372 -1.1738 -0.6673 -0.0837
  233MOL0     O32047  12.033   9.785   5.304  0.8527  0.6201  0.3271
  233MOL0     C32048  12.152   9.761   5.372  0.3639  0.4349 -0.1391
  233MOL0     C32049  12.199   9.853   5.468 -0.5091  0.2218  0.7735
  233MOL0     C32050  12.321   9.825   5.538  0.4573  0.4034  1.2741
  233MOL0     C32051  12.406   9.725   5.513 -0.0461 -0.4684 -0.5620
  233MOL0     O32052  12.515   9.710   5.595  0.9621  0.6109 -0.2970
  233MOL0     C32053  12.583   9.587   5.581 -0.9853  0.4476 -0.0411
  233MOL0     C32054  12.707   9.589   5.669 -0.0370  0.3886  0.2329
  233MOL0     C32055  12.808   9.485   5.639 -0.8343  0.5635  0.3939
  233MOL0     C32056  12.928   9.497   5.732  0.0065  0.5583 -0.5631
  233MOL0     C32057  13.034   9.390   5.725  0.0487  0.2638 -0.7003
  233MOL0     C32058  13.097   9.396   5.584 -0.3599  0.1959 -0.2740
  233MOL0     C32059  13.241   9.350   5.562  0.2908  0.6936  0.3630
  233MOL0     C32060  13.362   9.444   5.606  0.0352  0.1104 -0.0611
  233MOL0    Cl32061  13.515   9.374   5.544 -0.0875  0.2276 -0.1369
  233MOL0     C32062  12.360   9.638   5.417  0.4904  0.2490 -0.1422
  233MOL0     C32063  12.230   9.655   5.344 -0.4756  0.1612 -0.1922
  233MOL0     O32064  11.901   9.725   5.486 -0.2621  0.2009 -0.4353
  233MOL0     C32065  11.818   9.830   5.148  0.3201  0.4363 -0.1420
  233MOL0     C32066  11.714   9.859   5.066  0.7496 -0.0154 -0.1575
  233MOL0     N32067  11.772   9.939   4.601  0.0558 -0.8365  0.1099
  233MOL0     N32068  11.896   9.973   4.625  0.2120  0.8134 -0.0066
  233MOL0     C32069  11.422  10.182   5.203 -0.1058 -0.2745 -0.5987
  233MOL0     C32070  11.289  10.140   5.202  0.5078 -0.4153  0.0024
  233MOL0     C32071  10.936   9.903   5.298  0.2492 -0.4427 -0.1527
  233MOL0     C32072  10.837  10.003   5.289  0.0638  0.2977 -0.3112
  233MOL0     C32073  10.705   9.977   5.333  0.5937  0.5265 -0.0877
  233MOL0     C32074  10.672   9.844   5.387 -0.2208 -0.2250  0.4095
  233MOL0     O32075  10.546   9.817   5.414  0.5017 -0.6105 -0.1636
  233MOL0     C32076  10.505   9.679   5.453 -0.0306 -0.4101  0.3266
  233MOL0     C32077  10.519   9.588   5.335 -0.0065 -0.2182 -0.6176
  233MOL0     C32078  10.417   9.474   5.330 -0.0927  0.2759  0.2856
  233MOL0     C32079  10.415   9.402   5.198 -1.0778 -0.0721  0.2005
  233MOL0     C32080  10.541   9.342   5.153  0.4960  0.8957  0.1087
  233MOL0     C32081  10.649   9.300   5.132  0.2195  0.9022  0.4036
  233MOL0     C32082  10.779   9.750   5.406  0.5010  0.3897 -0.5474
  233MOL0     C32083  10.912   9.788   5.368  0.2896  0.3869 -0.7498
  233MOL0     C32084  11.027   9.682   5.400  0.2795  0.0623  0.3077
  233MOL0     H32085  11.256  10.056   5.521  3.0456 -0.0105  1.4009
  233MOL0     H32086  11.496  10.154   5.529  0.9038  1.8329 -1.0238
  233MOL0     H32087  11.734  10.126   5.441  3.5899  0.7696  2.0999
  233MOL0     H32088  11.691  10.288   5.507 -2.0426 -1.1676  1.4568
  233MOL0     H32089  11.840  10.390   5.357  0.4291 -0.3190  0.5098
  233MOL0     H32090  11.925  10.277   5.466 -2.2876 -3.7175  1.7851
  233MOL0     H32091  11.951  10.104   5.297 -0.7595 -0.3682 -0.6393
  233MOL0     H32092  11.837  10.190   5.186 -0.1404  2.0021 -1.3355
  233MOL0     H32093  11.994  10.383   5.177 -1.6980 -0.3510 -1.1553
  233MOL0     H32094  12.109  10.297   5.278  0.4245  4.2112  0.1169
  233MOL0     H32095  12.129  10.112   5.122  0.4073 -0.9264 -0.7420
  233MOL0     H32096  12.199  10.266   5.078  0.2394 -1.5417 -0.1867
  233MOL0     H32097  11.915  10.162   4.981  1.0703 -1.1752  0.2048
  233MOL0     H32098  12.022  10.310   4.935  2.7778  0.1329  1.4309
  233MOL0     H32099  12.056  10.018   4.864  0.9281 -0.9066 -2.9481
  233MOL0     H32100  12.186  10.134   4.861 -0.8788  0.8222  0.3014
  233MOL0     H32101  12.003  10.275   4.707  0.6182 -0.4787 -0.7544
  233MOL0     H32102  12.095  10.147   4.635  1.1764  1.9570  0.7103
  233MOL0     H32103  11.750  10.219   4.772  2.0405  1.6688 -1.6151
  233MOL0     H32104  11.475  10.032   4.578 -0.4372  1.6626  0.4407
  233MOL0     H32105  11.529  10.176   4.653  1.5764  1.3422 -0.8553
  233MOL0     H32106  11.567  10.037   4.874  0.7226 -2.1651 -0.4879
  233MOL0     H32107  11.398  10.056   4.817 -0.0930 -2.0458  1.4610
  233MOL0     H32108  11.391   9.839   4.733 -1.4009  3.2107  0.6594
  233MOL0     H32109  11.571   9.807   4.757  0.2839  0.2884  3.0664
  233MOL0     H32110  11.354   9.743   4.929 -0.4906  1.5679 -0.8619
  233MOL0     H32111  11.534   9.705   4.930  0.8070 -0.2541 -2.4624
  233MOL0     H32112  11.460   9.796   5.284  1.5806 -1.8599  3.3891
  233MOL0     H32113  11.508   9.765   5.491  0.3163 -0.9301 -1.6616
  233MOL0     H32114  11.665   9.843   5.539  0.4567 -0.9637  1.2066
  233MOL0     H32115  11.655   9.670   5.499  2.8884  1.3276  2.9416
  233MOL0     H32116  12.133   9.937   5.486 -0.7117  0.8565 -2.3765
  233MOL0     H32117  12.340   9.908   5.605  0.2104  0.8231  0.8264
  233MOL0     H32118  12.521   9.500   5.608 -1.4938  1.2269  1.4057
  233MOL0     H32119  12.613   9.582   5.476 -3.1653 -0.6279 -0.6951
  233MOL0     H32120  12.750   9.689   5.654  0.0798  0.1345 -1.2868
  233MOL0     H32121  12.677   9.583   5.774  0.7117 -0.9876  0.3795
  233MOL0     H32122  12.836   9.503   5.535  0.2114 -2.2007  0.1175
  233MOL0     H32123  12.765   9.385   5.654  0.7418 -0.2829 -0.4081
  233MOL0     H32124  12.889   9.481   5.833  2.2287 -0.7092  0.1712
  233MOL0     H32125  12.962   9.599   5.714 -2.7511  1.4706 -1.1651
  233MOL0     H32126  13.106   9.423   5.801 -1.0081 -0.3507  0.6141
  233MOL0     H32127  13.003   9.287   5.746  6.0874 -1.7500  0.2529
  233MOL0     H32128  13.099   9.501   5.553 -0.1610  0.4072  0.4410
  233MOL0     H32129  13.031   9.345   5.513 -1.9110  2.9437 -0.9836
  233MOL0     H32130  13.247   9.321   5.456 -0.5021 -2.5452  1.1129
  233MOL0     H32131  13.253   9.255   5.614  2.8666  0.3519 -0.6623
  233MOL0     H32132  13.359   9.452   5.715 -0.4400 -1.8837  0.1101
  233MOL0     H32133  13.364   9.539   5.552  1.2143 -0.6599 -1.4761
  233MOL0     H32134  12.424   9.553   5.396  1.6981  1.5883 -2.2676
  233MOL0     H32135  12.212   9.587   5.262 -2.0387 -0.4425  0.6167
  233MOL0     H32136  11.919   9.849   5.114  0.9938 -0.6911  1.1132
  233MOL0     H32137  11.738   9.883   4.963  1.6762 -1.5762 -0.3537
  233MOL0     H32138  11.471  10.203   5.109 -1.5545 -0.6515 -1.4543
  233MOL0     H32139  11.245  10.138   5.103  1.5458  2.2578 -0.5898
  233MOL0     H32140  10.862  10.088   5.227  1.1753 -1.3556 -2.2657
  233MOL0     H32141  10.625  10.043   5.301 -1.8142 -0.7800  2.7339
  233MOL0     H32142  10.565   9.641   5.536  1.7697 -1.3101 -1.3146
  233MOL0     H32143  10.398   9.681   5.479 -0.0464  1.3567  0.2722
  233MOL0     H32144  10.620   9.545   5.338 -0.4522 -1.2542  1.1979
  233MOL0     H32145  10.512   9.637   5.238  1.7102 -0.3228 -0.8212
  233MOL0     H32146  10.447   9.402   5.407 -1.9712  0.7125  1.4708
  233MOL0     H32147  10.318   9.514   5.353 -0.0817  0.5927 -0.2017
  233MOL0     H32148  10.383   9.472   5.121 -0.7112 -2.6592 -2.4838
  233MOL0     H32149  10.335   9.327   5.205 -0.0545 -1.1074  1.4546
  233MOL0     H32150  10.737   9.242   5.109 -0.6129 -1.3042  2.3184
  233MOL0     H32151  10.754   9.653   5.447 -3.0193  1.7525  0.9781
  233MOL0     H32152  11.056   9.614   5.319 -1.1269 -3.1864  2.3552
  233MOL0     H32153  11.117   9.738   5.429 -0.3588  1.3771 -0.1836
  233MOL0     H32154  11.002   9.618   5.485  0.9118  1.6425  1.7613
  234MOL0     O32155  11.180   3.651   1.789 -0.5625  0.2526 -0.2666
  234MOL0     C32156  11.161   3.736   1.704 -0.7979  0.0005 -0.1439
  234MOL0     O32157  11.263   3.806   1.632 -0.6634  0.6453  0.5276
  234MOL0     C32158  11.392   3.764   1.635 -0.0661  0.8385 -0.0464
  234MOL0     C32159  11.427   3.628   1.621  0.2758 -0.5981  0.0095
  234MOL0     C32160  11.561   3.587   1.630  1.1162  0.1970 -0.7558
  234MOL0     C32161  11.657   3.690   1.631  0.1001  0.0027 -0.4357
  234MOL0     O32162  11.794   3.674   1.649  0.1067 -0.2916  0.2168
  234MOL0     C32163  11.854   3.543   1.639 -0.6751  0.7666 -0.4763
  234MOL0     C32164  11.999   3.561   1.701  0.0524 -0.2327 -0.0461
  234MOL0     C32165  12.084   3.441   1.683 -0.8076 -0.0654  1.3093
  234MOL0     C32166  12.051   3.330   1.779  0.4814  0.5689 -0.0106
  234MOL0     C32167  12.100   3.354   1.919 -0.5932  0.5941  0.2213
  234MOL0     C32168  12.062   3.256   2.020 -0.6935  0.5501  0.4581
  234MOL0     C32169  11.941   3.278   2.110  0.3190 -0.1124  0.1856
  234MOL0     C32170  11.887   3.144   2.149  0.6085 -0.1305  0.1743
  234MOL0     N32171  11.937   3.093   2.277 -0.4661  0.0826 -0.3183
  234MOL0     C32172  11.907   3.132   2.406  0.7513  0.1619 -0.5220
  234MOL0     C32173  11.975   3.041   2.482  0.0963  0.6386  0.2317
  234MOL0     C32174  11.974   3.043   2.627 -0.1600 -1.0960 -0.9920
  234MOL0     C32175  12.108   3.035   2.700 -0.1836 -0.4034  0.1840
  234MOL0     C32176  12.078   3.040   2.852  0.0574 -1.2728 -0.0111
  234MOL0     C32177  12.209   3.060   2.932 -0.8362  0.5309  0.1643
  234MOL0     O32178  12.265   3.189   2.911  0.3490  0.0206 -0.5727
  234MOL0     C32179  12.398   3.202   2.909  0.2624 -0.0466  0.1189
  234MOL0     C32180  12.461   3.292   2.814  0.2239 -0.1653 -0.7251
  234MOL0     C32181  12.596   3.323   2.821 -0.0994  0.6381  0.2644
  234MOL0     C32182  12.638   3.441   2.736  0.7592  0.5038 -0.5539
  234MOL0     C32183  12.678   3.236   2.897 -0.8394  0.9103  0.4087
  234MOL0     C32184  12.833   3.237   2.900  0.0984 -0.9538  0.1865
  234MOL0     O32185  12.888   3.163   2.990  0.0361  0.5033  0.2456
  234MOL0     C32186  13.019   3.161   3.018 -0.9620  0.1654  0.5985
  234MOL0     C32187  13.079   3.036   3.027  0.7136 -0.7782  0.1364
  234MOL0     C32188  13.214   3.024   3.048  0.2180  0.1776 -0.4878
  234MOL0     C32189  13.295   3.140   3.066 -0.7971 -1.2631  0.6358
  234MOL0     O32190  13.433   3.146   3.090  0.8544  0.9617  0.3191
  234MOL0     C32191  13.504   3.022   3.109  0.5943 -0.2858 -0.4290
  234MOL0     C32192  13.658   3.049   3.104  0.6465 -0.2011 -0.0185
  234MOL0     C32193  13.740   2.938   3.177  0.3206 -0.2786  0.5159
  234MOL0     C32194  13.882   2.997   3.173  0.8718 -0.0304  1.1813
  234MOL0     C32195  13.988   2.901   3.223 -0.3202 -0.9584  0.2143
  234MOL0     C32196  14.118   2.986   3.210  0.4373 -0.2040 -0.2205
  234MOL0     C32197  14.237   2.896   3.256 -0.0514 -0.8546 -0.1233
  234MOL0     C32198  14.356   2.915   3.165  0.5372  0.4838 -0.0387
  234MOL0    Cl32199  14.512   2.838   3.224  0.0091  0.3624  0.2883
  234MOL0     C32200  13.232   3.270   3.068  0.0060  0.3038  0.2924
  234MOL0     C32201  13.096   3.281   3.037  0.1733 -0.0365  0.4435
  234MOL0     O32202  12.885   3.322   2.832  0.6706 -0.5244 -0.6335
  234MOL0     C32203  12.617   3.139   2.976  0.2916  0.4504  0.5635
  234MOL0     C32204  12.480   3.128   2.992  0.0999 -0.0903  0.0022
  234MOL0     N32205  12.029   2.943   2.399  0.0491 -0.3688  0.0207
  234MOL0     N32206  12.020   2.988   2.286  0.1010  0.4664 -0.0863
  234MOL0     C32207  11.622   3.825   1.629 -0.3065 -0.1160  0.2054
  234MOL0     C32208  11.489   3.862   1.633  0.0698 -0.6251 -0.2664
  234MOL0     C32209  11.017   3.775   1.682  0.3487  0.5774  0.5068
  234MOL0     C32210  10.986   3.909   1.659  0.1889  0.2965 -0.4715
  234MOL0     C32211  10.857   3.959   1.658 -0.0524 -0.3384  1.3237
  234MOL0     C32212  10.745   3.874   1.657  0.3132 -0.0443  0.0496
  234MOL0     O32213  10.615   3.913   1.628 -0.6763  0.2486 -0.7453
  234MOL0     C32214  10.573   4.046   1.585 -0.6522  0.1404 -0.4664
  234MOL0     C32215  10.421   4.034   1.540 -0.8561  0.0631 -0.1247
  234MOL0     C32216  10.334   3.970   1.648 -0.1535 -0.6158 -0.2214
  234MOL0     C32217  10.190   3.985   1.592 -0.2710 -0.5196  0.1270
  234MOL0     C32218  10.109   3.865   1.602 -0.5073  0.0336 -0.0098
  234MOL0     C32219  10.046   3.762   1.606  0.5628 -0.5625 -0.4776
  234MOL0     C32220  10.773   3.742   1.667  0.0045  0.0544  0.3368
  234MOL0     C32221  10.903   3.684   1.690 -0.4534  0.6897 -0.7777
  234MOL0     C32222  10.925   3.538   1.714  0.1218  0.8163 -0.3244
  234MOL0     H32223  11.350   3.553   1.612  1.0241 -1.2667 -0.9797
  234MOL0     H32224  11.579   3.480   1.638 -2.4438 -0.4300  0.8611
  234MOL0     H32225  11.869   3.523   1.533 -2.8893 -0.9294 -0.5431
  234MOL0     H32226  11.794   3.460   1.678 -1.4404  0.7689 -1.5976
  234MOL0     H32227  12.043   3.645   1.646 -1.4164  0.9906  0.5448
  234MOL0     H32228  11.986   3.589   1.806  0.1671 -0.8941  0.1495
  234MOL0     H32229  12.064   3.407   1.581 -1.8006  1.0919  1.0999
  234MOL0     H32230  12.191   3.455   1.703 -1.2940  1.0748  3.3714
  234MOL0     H32231  11.946   3.300   1.776  0.5056  0.4908 -0.0831
  234MOL0     H32232  12.116   3.254   1.735  2.0098  0.8993  1.5250
  234MOL0     H32233  12.075   3.459   1.937  2.4004  1.5257 -0.4506
  234MOL0     H32234  12.209   3.358   1.906 -0.3814  4.1343  1.8189
  234MOL0     H32235  12.060   3.161   1.966  2.0857  0.2758  0.7033
  234MOL0     H32236  12.143   3.262   2.093 -0.3179  2.4383 -0.0562
  234MOL0     H32237  11.857   3.329   2.061  0.0014 -0.7304  0.0710
  234MOL0     H32238  11.964   3.350   2.189 -2.2646  0.5540  0.4187
  234MOL0     H32239  11.778   3.153   2.143  0.5319 -0.8217  0.3734
  234MOL0     H32240  11.904   3.071   2.069  1.2048  1.2799 -1.0351
  234MOL0     H32241  11.837   3.212   2.427 -2.7898 -2.8765  0.3660
  234MOL0     H32242  11.913   2.956   2.656 -1.7491 -0.1526 -1.3547
  234MOL0     H32243  11.923   3.133   2.661 -0.8649 -2.4821  1.9337
  234MOL0     H32244  12.149   2.939   2.669 -3.1815 -1.6958 -0.1631
  234MOL0     H32245  12.177   3.112   2.665  0.1797  0.1087  1.9610
  234MOL0     H32246  12.012   3.125   2.874 -2.2928 -2.9620 -0.1523
  234MOL0     H32247  12.025   2.949   2.884  0.0249 -1.2731 -0.0659
  234MOL0     H32248  12.183   3.050   3.037 -0.6880  0.0141  0.1553
  234MOL0     H32249  12.283   2.983   2.905  0.9338  2.0807  0.3778
  234MOL0     H32250  12.403   3.356   2.748 -4.2647 -2.2191  0.8224
  234MOL0     H32251  12.671   3.515   2.809 -3.4547  3.4701 -1.3249
  234MOL0     H32252  12.555   3.488   2.684  0.3150  1.4150  0.9292
  234MOL0     H32253  12.723   3.410   2.674  1.2097  0.7285 -0.0540
  234MOL0     H32254  13.013   2.950   3.018 -2.7802  1.7389 -0.4478
  234MOL0     H32255  13.254   2.925   3.067  1.8821  0.8643 -0.2332
  234MOL0     H32256  13.477   2.993   3.210  2.1314 -0.2514  0.0199
  234MOL0     H32257  13.487   2.938   3.042 -0.0449  0.3844 -1.1396
  234MOL0     H32258  13.682   3.043   2.998 -0.4833  0.0769 -0.3005
  234MOL0     H32259  13.679   3.150   3.141 -1.9102  1.6634 -3.1496
  234MOL0     H32260  13.733   2.844   3.121 -1.7829 -0.8899  1.6877
  234MOL0     H32261  13.699   2.924   3.277  1.6881  0.2793  1.1674
  234MOL0     H32262  13.880   3.091   3.229 -1.2031 -1.4488  3.6867
  234MOL0     H32263  13.906   3.020   3.068  1.9664  0.2969  1.4870
  234MOL0     H32264  13.975   2.879   3.329  2.9351 -0.5395  0.8087
  234MOL0     H32265  14.001   2.814   3.157  4.2899  0.7078 -1.4991
  234MOL0     H32266  14.107   3.072   3.277 -0.9335  3.1818 -4.3829
  234MOL0     H32267  14.127   3.029   3.111  1.6272  0.1988  0.0518
  234MOL0     H32268  14.207   2.791   3.256  0.1060 -0.9153 -1.4796
  234MOL0     H32269  14.265   2.920   3.359  2.8709  0.4166 -1.1118
  234MOL0     H32270  14.361   3.023   3.151 -0.9599  0.9168  2.2720
  234MOL0     H32271  14.328   2.871   3.069  0.8771 -3.0007  1.3204
  234MOL0     H32272  13.279   3.364   3.095 -1.2671  0.7590  1.0125
  234MOL0     H32273  13.043   3.376   3.043 -0.0689 -0.0410 -1.2247
  234MOL0     H32274  12.669   3.065   3.036  0.5149  0.0993 -0.0566
  234MOL0     H32275  12.427   3.055   3.053  1.7903 -2.9926 -1.8258
  234MOL0     H32276  11.702   3.898   1.630  1.0341 -1.4812  2.6565
  234MOL0     H32277  11.461   3.966   1.648  2.0593 -0.5078  4.3034
  234MOL0     H32278  11.073   3.971   1.676  0.5186  0.1574 -1.5976
  234MOL0     H32279  10.843   4.066   1.654 -2.3686 -0.6268 -1.2743
  234MOL0     H32280  10.596   4.121   1.661 -0.3123  0.6907 -1.1074
  234MOL0     H32281  10.621   4.082   1.494 -0.3034 -3.9381 -2.0875
  234MOL0     H32282  10.418   3.973   1.450 -1.2537  1.1610 -0.8878
  234MOL0     H32283  10.388   4.136   1.514 -0.8174  0.6985  2.1213
  234MOL0     H32284  10.365   3.868   1.668  2.3335  0.3207  1.1314
  234MOL0     H32285  10.337   4.021   1.745 -0.1000 -0.7255 -0.1662
  234MOL0     H32286  10.193   4.034   1.494  1.8951  0.4526  0.6153
  234MOL0     H32287  10.136   4.054   1.658 -0.1172 -0.3982  0.1272
  234MOL0     H32288   9.999   3.667   1.588  1.9991 -1.2336 -0.8043
  234MOL0     H32289  10.686   3.677   1.676  0.2664 -0.4954 -0.8724
  234MOL0     H32290  11.023   3.510   1.675  0.0003  1.7878 -1.3891
  234MOL0     H32291  10.921   3.522   1.822  0.0308  0.1660 -0.4232
  234MOL0     H32292  10.848   3.477   1.665  1.3001 -1.1092  0.1615
  235MOL0     O32293   1.031   1.427   6.100  0.2222  0.5396 -0.3423
  235MOL0     C32294   0.989   1.512   6.179  0.0260 -0.0388 -0.1671
  235MOL0     O32295   0.973   1.642   6.154  0.9190 -0.0682 -0.0724
  235MOL0     C32296   0.969   1.683   6.023 -0.5945 -0.2212 -0.5470
  235MOL0     C32297   1.081   1.681   5.937  0.2622 -0.0998  0.1875
  235MOL0     C32298   1.082   1.740   5.808  0.3687 -0.1427  0.2987
  235MOL0     C32299   0.960   1.786   5.761 -0.0963 -0.4510 -0.5201
  235MOL0     O32300   0.937   1.858   5.645 -0.1033 -0.0432 -0.3696
  235MOL0     C32301   1.024   1.815   5.539 -0.0984 -0.7234 -0.1432
  235MOL0     C32302   0.975   1.878   5.400  0.2547  0.7152 -0.0038
  235MOL0     C32303   1.027   2.016   5.386  0.0172 -0.4078  0.5665
  235MOL0     C32304   1.004   2.085   5.247  0.8094  0.2976  0.2108
  235MOL0     C32305   1.077   2.012   5.139  0.0818 -0.1890 -0.1953
  235MOL0     C32306   1.126   2.113   5.029 -0.7451  0.4794  0.3347
  235MOL0     C32307   1.211   2.039   4.925 -0.4590 -0.2559 -1.0190
  235MOL0     C32308   1.139   1.933   4.839  0.2902  0.7304 -0.7316
  235MOL0     N32309   1.202   1.903   4.714  0.5649  0.1327  0.3399
  235MOL0     C32310   1.336   1.850   4.719  0.0831  0.3411  0.2734
  235MOL0     C32311   1.381   1.868   4.592 -0.2369 -0.3551  0.4786
  235MOL0     C32312   1.511   1.816   4.548  0.3302 -0.6752  0.9060
  235MOL0     C32313   1.576   1.907   4.437  0.1672  0.6702  0.4410
  235MOL0     C32314   1.633   2.042   4.490 -0.2834 -0.5845  0.5947
  235MOL0     C32315   1.758   2.053   4.577  0.1107  0.0908  0.6785
  235MOL0     O32316   1.752   1.951   4.672  0.3809  0.0381  0.6257
  235MOL0     C32317   1.864   1.870   4.680  0.7251 -0.3174  0.3158
  235MOL0     C32318   1.851   1.730   4.669 -1.0315  0.2321  0.4679
  235MOL0     C32319   1.971   1.653   4.664 -0.5523  0.1883 -1.5194
  235MOL0     C32320   1.951   1.517   4.621 -0.2210 -0.4076 -0.0136
  235MOL0     C32321   2.102   1.708   4.700 -1.4470 -0.3576  0.0942
  235MOL0     C32322   2.226   1.627   4.711  0.2584  0.3943 -0.8070
  235MOL0     O32323   2.310   1.652   4.815 -0.1972  0.5077  0.0262
  235MOL0     C32324   2.422   1.586   4.818 -0.4077  0.4579  0.3337
  235MOL0     C32325   2.428   1.475   4.900 -0.1182  0.5112 -0.3483
  235MOL0     C32326   2.539   1.390   4.902  0.0019  0.4779 -0.6674
  235MOL0     C32327   2.639   1.399   4.811  0.0444  0.3222  0.6550
  235MOL0     O32328   2.738   1.304   4.810 -0.0191  1.0043 -0.0826
  235MOL0     C32329   2.690   1.174   4.756 -1.2395 -0.5162 -0.8461
  235MOL0     C32330   2.694   1.175   4.604  0.4078  0.1921 -0.0246
  235MOL0     C32331   2.806   1.257   4.536  0.2075  0.7959 -0.7376
  235MOL0     C32332   2.818   1.226   4.384  0.1733 -0.0808 -0.0224
  235MOL0     C32333   2.895   1.100   4.353  0.3945 -0.0324 -0.3767
  235MOL0     C32334   3.035   1.083   4.413 -0.0542  0.0714  0.1930
  235MOL0     C32335   3.124   1.188   4.367  0.9194 -0.2646 -0.3309
  235MOL0     C32336   3.261   1.161   4.437 -0.8659  1.3653  0.3664
  235MOL0    Cl32337   3.346   1.025   4.363 -0.6014 -0.5297 -0.1933
  235MOL0     C32338   2.645   1.526   4.739 -0.3761  0.0229  0.2797
  235MOL0     C32339   2.534   1.607   4.736 -0.0302  0.5306 -0.2341
  235MOL0     O32340   2.242   1.547   4.620  0.2112  0.3844  0.1237
  235MOL0     C32341   2.110   1.850   4.710  0.1430  0.6186  0.1306
  235MOL0     C32342   1.993   1.929   4.700 -0.2697  0.7265 -0.5420
  235MOL0     N32343   1.284   1.948   4.519  0.0559 -0.0121 -0.6572
  235MOL0     N32344   1.189   1.972   4.598  0.1687 -0.2025 -0.5154
  235MOL0     C32345   0.850   1.783   5.848 -0.6009 -0.8941  1.1264
  235MOL0     C32346   0.854   1.742   5.979  1.0083 -0.0140  0.2452
  235MOL0     C32347   0.979   1.474   6.323 -0.2000  0.0605 -0.0766
  235MOL0     C32348   1.064   1.382   6.372  0.7463  0.7679 -0.2838
  235MOL0     C32349   1.061   1.347   6.512  0.1311 -0.1592  0.1408
  235MOL0     C32350   0.964   1.399   6.591  0.0700 -0.2366  0.1773
  235MOL0     O32351   0.969   1.354   6.721 -0.4892  0.3053 -0.0329
  235MOL0     C32352   0.857   1.380   6.802  1.3512  0.0271 -0.5035
  235MOL0     C32353   0.827   1.270   6.911 -0.1547  0.0682 -0.5133
  235MOL0     C32354   0.699   1.297   6.993  0.4344  0.2074 -0.3524
  235MOL0     C32355   0.695   1.436   7.057 -0.8592  0.2789 -1.0334
  235MOL0     C32356   0.583   1.425   7.145 -0.4496 -0.4943  0.3267
  235MOL0     C32357   0.479   1.413   7.213 -0.0108  0.3821 -0.1576
  235MOL0     C32358   0.885   1.510   6.541  0.0515 -0.1201  1.0680
  235MOL0     C32359   0.887   1.537   6.406  0.4552 -0.3014 -0.1961
  235MOL0     C32360   0.757   1.607   6.352 -0.1955 -0.0643 -0.1961
  235MOL0     H32361   1.166   1.630   5.983  0.8043  2.5348  2.3936
  235MOL0     H32362   1.179   1.743   5.757  0.1612  1.2355 -0.0618
  235MOL0     H32363   1.026   1.706   5.532 -0.4602 -0.6943 -0.7431
  235MOL0     H32364   1.124   1.851   5.562 -0.2362  0.1133 -0.8325
  235MOL0     H32365   1.000   1.822   5.309 -0.3710  1.8681 -0.9152
  235MOL0     H32366   0.866   1.873   5.389  0.5156 -1.9283 -2.6632
  235MOL0     H32367   0.979   2.080   5.461 -0.0089 -0.6816  0.7871
  235MOL0     H32368   1.135   2.018   5.408 -0.1719 -1.8678  1.8113
  235MOL0     H32369   0.900   2.086   5.212  0.2418 -1.0205  1.7409
  235MOL0     H32370   1.038   2.189   5.254 -0.2921  0.6910  0.0030
  235MOL0     H32371   1.025   1.925   5.098  0.8746 -1.2460  0.9748
  235MOL0     H32372   1.167   1.969   5.184  0.1851  0.2506  0.0167
  235MOL0     H32373   1.039   2.158   4.980 -0.2557 -0.0749 -1.1186
  235MOL0     H32374   1.188   2.188   5.079  0.5887 -0.0310 -0.4768
  235MOL0     H32375   1.294   1.993   4.980  0.3367  1.1302 -1.0003
  235MOL0     H32376   1.247   2.119   4.859 -2.5625  1.2738 -0.4358
  235MOL0     H32377   1.117   1.842   4.895  0.5388  0.0987 -1.6480
  235MOL0     H32378   1.037   1.972   4.828 -0.4472 -0.6612  0.7033
  235MOL0     H32379   1.397   1.805   4.797  2.9482  1.6299 -1.0878
  235MOL0     H32380   1.497   1.711   4.521 -2.6524 -0.0265 -0.5144
  235MOL0     H32381   1.576   1.817   4.637 -0.2016 -2.4118  1.3492
  235MOL0     H32382   1.654   1.849   4.386  0.4136  2.2344 -1.1003
  235MOL0     H32383   1.508   1.928   4.354  1.3484 -0.5501 -0.8896
  235MOL0     H32384   1.659   2.092   4.396 -0.0964 -2.4612 -0.4111
  235MOL0     H32385   1.552   2.085   4.550  1.7384  1.0747  2.2896
  235MOL0     H32386   1.849   2.044   4.517 -0.8990 -0.7030 -0.7619
  235MOL0     H32387   1.765   2.146   4.636  2.6977  0.4577 -0.0735
  235MOL0     H32388   1.756   1.678   4.664 -1.2544  0.7267 -0.8043
  235MOL0     H32389   1.852   1.477   4.641  1.2732 -3.4056  2.3576
  235MOL0     H32390   2.019   1.452   4.679 -0.4600 -0.1644  0.5482
  235MOL0     H32391   1.973   1.511   4.514 -0.5698  0.2202 -0.1224
  235MOL0     H32392   2.346   1.446   4.965 -1.4020 -3.7740 -3.4526
  235MOL0     H32393   2.534   1.302   4.966 -3.2539  1.3175  0.4256
  235MOL0     H32394   2.761   1.097   4.787  0.1253  1.8234  2.4601
  235MOL0     H32395   2.593   1.141   4.793 -0.5950 -2.2816 -0.6551
  235MOL0     H32396   2.704   1.069   4.582  1.1209 -0.2851  2.2632
  235MOL0     H32397   2.597   1.213   4.571 -0.3438  0.9422  2.7584
  235MOL0     H32398   2.905   1.232   4.577 -0.3921  2.3042  1.9026
  235MOL0     H32399   2.795   1.365   4.548  2.5643  1.1436 -1.1211
  235MOL0     H32400   2.859   1.317   4.337 -0.2041  0.9038  1.4802
  235MOL0     H32401   2.718   1.204   4.348  0.1230  2.7511 -2.0387
  235MOL0     H32402   2.836   1.013   4.384  0.5391 -0.8898 -2.3285
  235MOL0     H32403   2.897   1.081   4.245 -1.7981 -0.8933 -0.3177
  235MOL0     H32404   3.081   0.989   4.383  0.6163  0.6699 -0.7062
  235MOL0     H32405   3.032   1.083   4.523  2.0496 -0.3919  0.2866
  235MOL0     H32406   3.091   1.284   4.410 -0.8728 -1.0308  0.0843
  235MOL0     H32407   3.130   1.195   4.258 -1.2756 -1.6540 -0.6005
  235MOL0     H32408   3.247   1.136   4.542  2.0068  0.8883  0.7010
  235MOL0     H32409   3.316   1.254   4.427 -0.6341  1.0051 -2.8967
  235MOL0     H32410   2.740   1.555   4.697 -0.9459  1.7385  0.1212
  235MOL0     H32411   2.530   1.699   4.679  2.0633  1.0417  0.3703
  235MOL0     H32412   2.209   1.893   4.724  0.1134  0.1183  2.3559
  235MOL0     H32413   1.992   2.038   4.702 -3.8880  1.0579 -4.4732
  235MOL0     H32414   0.760   1.825   5.805  0.1755  0.7532  1.0548
  235MOL0     H32415   0.777   1.761   6.053 -0.5939  1.4018 -1.6695
  235MOL0     H32416   1.133   1.335   6.302  1.0776  2.3827 -1.0912
  235MOL0     H32417   1.133   1.282   6.560  1.3729  2.7978  2.6557
  235MOL0     H32418   0.873   1.475   6.855  2.9541  0.6370 -1.9976
  235MOL0     H32419   0.760   1.393   6.752 -0.3588  1.8255  2.9185
  235MOL0     H32420   0.910   1.257   6.981 -1.5951 -2.7738  0.8851
  235MOL0     H32421   0.799   1.174   6.864 -2.7937  1.4490 -2.0325
  235MOL0     H32422   0.615   1.300   6.922  0.0653  1.1845  0.0993
  235MOL0     H32423   0.674   1.217   7.063  1.8654  0.1851  0.1637
  235MOL0     H32424   0.671   1.501   6.973 -0.0093 -0.0323 -1.5317
  235MOL0     H32425   0.792   1.457   7.103 -1.6407  0.0135  0.8063
  235MOL0     H32426   0.390   1.418   7.272  0.3075 -1.0514  0.5021
  235MOL0     H32427   0.810   1.554   6.606  0.0808  0.8656  0.4521
  235MOL0     H32428   0.716   1.675   6.427 -2.3295 -0.5516 -0.8725
  235MOL0     H32429   0.771   1.656   6.255 -0.7431 -1.9247 -1.2559
  235MOL0     H32430   0.691   1.525   6.322  0.0065 -0.3559  0.1530
  236MOL0     O32431   1.603   3.931  10.717  0.7021  0.4526 -0.3470
  236MOL0     C32432   1.556   3.884  10.613  0.2110  1.1049 -0.2703
  236MOL0     O32433   1.624   3.782  10.542 -0.2523 -0.2854 -0.2850
  236MOL0     C32434   1.752   3.755  10.583 -0.0577 -0.3753  0.1081
  236MOL0     C32435   1.774   3.617  10.587  0.2913 -0.4733 -0.3156
  236MOL0     C32436   1.900   3.566  10.640  0.3917  0.0595  0.4786
  236MOL0     C32437   2.006   3.655  10.670  0.0687 -0.4285 -1.3659
  236MOL0     O32438   2.123   3.612  10.711 -0.8756  0.8581 -1.0437
  236MOL0     C32439   2.192   3.496  10.661 -0.2226 -0.2605 -0.4403
  236MOL0     C32440   2.229   3.401  10.778 -1.1411  0.5202 -0.5398
  236MOL0     C32441   2.324   3.282  10.746 -1.1692  1.0290  0.0314
  236MOL0     C32442   2.474   3.327  10.737 -0.2248 -0.1988 -0.4931
  236MOL0     C32443   2.573   3.214  10.740 -0.1189  0.0446  0.4387
  236MOL0     C32444   2.562   3.131  10.618  0.4296 -0.3598  0.1919
  236MOL0     C32445   2.658   3.016  10.609  0.6670  0.9004  0.7233
  236MOL0     C32446   2.650   2.898  10.700 -0.3827  0.2846  0.0375
  236MOL0     N32447   2.739   2.924  10.815  0.7626  0.1928  0.1352
  236MOL0     C32448   2.707   2.981  10.941 -1.3762 -0.2786  0.1617
  236MOL0     C32449   2.832   3.012  10.995  0.1494  1.0199 -0.1595
  236MOL0     C32450   2.850   3.085  11.124 -0.0768  0.8006  0.2246
  236MOL0     C32451   2.875   2.989  11.245  0.0014 -0.0806  0.3234
  236MOL0     C32452   3.007   2.919  11.232  0.8921 -0.2710  0.2709
  236MOL0     C32453   3.051   2.855  11.364  1.0277 -0.3856  0.0052
  236MOL0     O32454   3.189   2.833  11.380 -0.4281  0.6438  0.1871
  236MOL0     C32455   3.279   2.934  11.368  0.5938 -0.0862  0.2030
  236MOL0     C32456   3.399   2.915  11.318 -1.1635  0.2502 -0.5031
  236MOL0     C32457   3.490   3.012  11.281  0.1794 -0.3983 -0.5885
  236MOL0     C32458   3.616   2.956  11.216  0.0880 -0.2573 -0.7282
  236MOL0     C32459   3.468   3.142  11.320 -0.1469 -0.1754  0.1209
  236MOL0     C32460   3.571   3.247  11.286 -0.3475  0.4680 -0.5896
  236MOL0     O32461   3.702   3.215  11.311  0.6820  0.2459  0.7248
  236MOL0     C32462   3.780   3.328  11.304 -0.0758 -0.2132 -0.1631
  236MOL0     C32463   3.838   3.406  11.404 -0.3970  0.2408  0.4096
  236MOL0     C32464   3.931   3.510  11.375 -0.0640  0.6283  0.2592
  236MOL0     C32465   3.960   3.544  11.246  0.4141 -0.1761  0.0828
  236MOL0     O32466   4.035   3.659  11.241 -0.3831  0.5043  0.3222
  236MOL0     C32467   4.041   3.726  11.113  0.5166  0.5235 -0.3392
  236MOL0     C32468   4.182   3.702  11.055  0.6040  0.1789  0.2006
  236MOL0     C32469   4.294   3.757  11.145  0.1075 -0.7484 -0.0969
  236MOL0     C32470   4.325   3.909  11.146 -0.4856  0.0969 -0.3460
  236MOL0     C32471   4.433   3.924  11.255 -0.3967 -0.7314 -0.0370
  236MOL0     C32472   4.504   4.051  11.260  0.1098  0.3225  0.1351
  236MOL0     C32473   4.413   4.169  11.279  0.5183  0.0864  0.6780
  236MOL0     C32474   4.497   4.295  11.266 -0.9230 -0.7772 -0.0129
  236MOL0    Cl32475   4.658   4.279  11.359 -0.0058  0.2978  0.1884
  236MOL0     C32476   3.909   3.467  11.144 -0.5996 -0.5358  0.4319
  236MOL0     C32477   3.821   3.359  11.175  0.0155 -0.1742  0.3126
  236MOL0     O32478   3.534   3.357  11.263 -0.7293  0.1145  0.4284
  236MOL0     C32479   3.344   3.173  11.374  0.4194 -0.2267 -0.4355
  236MOL0     C32480   3.249   3.065  11.403 -0.0772 -1.1201  0.0031
  236MOL0     N32481   2.933   2.957  10.916  0.2673  0.0805  0.2955
  236MOL0     N32482   2.874   2.902  10.814 -0.1524  0.0725 -0.1416
  236MOL0     C32483   1.979   3.795  10.658 -0.2118 -0.4056  0.4643
  236MOL0     C32484   1.861   3.845  10.611  0.8079 -0.4878  0.4960
  236MOL0     C32485   1.425   3.929  10.582 -0.2741 -0.2176  1.0500
  236MOL0     C32486   1.325   3.831  10.551 -0.3576 -0.4696  0.1828
  236MOL0     C32487   1.198   3.869  10.532  0.5519 -0.3092  0.0525
  236MOL0     C32488   1.158   4.001  10.538  0.9673  0.3604  0.0289
  236MOL0     O32489   1.026   4.051  10.530 -0.1571 -0.0048 -0.6237
  236MOL0     C32490   0.926   3.948  10.534  0.4794  0.1982  1.2004
  236MOL0     C32491   0.788   4.021  10.540  0.3478  0.3390 -0.2829
  236MOL0     C32492   0.781   4.111  10.657  0.4751  0.1733  0.7972
  236MOL0     C32493   0.718   4.046  10.774  0.6503 -0.6683  0.0355
  236MOL0     C32494   0.808   3.958  10.841  0.6118 -0.2902 -0.2349
  236MOL0     C32495   0.880   3.869  10.876  0.0509  0.1767  0.5753
  236MOL0     C32496   1.253   4.094  10.547 -0.6443  0.4919 -0.2058
  236MOL0     C32497   1.390   4.070  10.572 -0.1432  1.0090 -0.3255
  236MOL0     C32498   1.488   4.182  10.587  0.4234 -0.1686 -0.4080
  236MOL0     H32499   1.693   3.552  10.555 -2.0807  1.6012  1.0978
  236MOL0     H32500   1.908   3.458  10.646  1.1846 -0.1503 -2.7384
  236MOL0     H32501   2.288   3.533  10.623  0.1424  0.2208  0.9167
  236MOL0     H32502   2.143   3.437  10.582 -0.4483 -1.9189  0.8675
  236MOL0     H32503   2.276   3.464  10.854 -3.0856  0.4522  0.7912
  236MOL0     H32504   2.146   3.350  10.828 -0.3153 -0.1920  0.1276
  236MOL0     H32505   2.317   3.209  10.828 -0.4697  2.7737  1.7042
  236MOL0     H32506   2.295   3.229  10.655  2.6164 -0.0236 -0.7231
  236MOL0     H32507   2.489   3.385  10.645 -0.4308  0.5507 -0.0578
  236MOL0     H32508   2.494   3.389  10.825  2.1619 -0.9178 -0.4640
  236MOL0     H32509   2.560   3.149  10.828  0.3573  0.0607  0.5247
  236MOL0     H32510   2.668   3.264  10.720  0.0840 -1.3757 -2.8848
  236MOL0     H32511   2.470   3.072  10.621  0.8505 -1.0774 -0.7038
  236MOL0     H32512   2.564   3.192  10.527 -0.2012 -2.5139 -1.3430
  236MOL0     H32513   2.764   3.045  10.607  0.9969 -0.2636  0.8856
  236MOL0     H32514   2.640   2.961  10.516  4.0759 -2.0567  1.5781
  236MOL0     H32515   2.548   2.875  10.732 -0.7184  0.5553 -0.8156
  236MOL0     H32516   2.688   2.807  10.651 -1.0880  0.4122 -0.7691
  236MOL0     H32517   2.612   3.010  10.985 -0.4502 -1.3558  3.1083
  236MOL0     H32518   2.769   3.157  11.140  1.1280  2.1848  0.1936
  236MOL0     H32519   2.940   3.144  11.107 -1.7093  3.0085 -1.3987
  236MOL0     H32520   2.877   3.051  11.335  1.6486  1.1522 -0.5261
  236MOL0     H32521   2.788   2.922  11.246 -0.4377  0.4789  0.1693
  236MOL0     H32522   2.993   2.839  11.158  2.0775  0.1110 -0.4004
  236MOL0     H32523   3.084   2.992  11.205 -0.7651  0.6744 -2.1958
  236MOL0     H32524   2.993   2.908  11.440 -3.9779 -0.9122 -2.9622
  236MOL0     H32525   3.000   2.758  11.360  3.3601 -1.6984 -4.2811
  236MOL0     H32526   3.419   2.812  11.289  1.0368  0.9410 -1.6720
  236MOL0     H32527   3.692   2.928  11.289  0.3129 -0.7306 -1.1385
  236MOL0     H32528   3.666   3.029  11.151 -2.6092  1.7550 -0.7096
  236MOL0     H32529   3.577   2.875  11.153 -3.3201  0.5181  0.2079
  236MOL0     H32530   3.814   3.364  11.502 -2.6940 -0.1854 -0.2640
  236MOL0     H32531   3.974   3.565  11.458  1.5076  1.1757 -0.8922
  236MOL0     H32532   3.970   3.701  11.033  0.7235  1.7692 -0.9327
  236MOL0     H32533   4.034   3.833  11.134 -1.0792  0.3756  0.0365
  236MOL0     H32534   4.196   3.594  11.050  2.0629  0.2534  1.8349
  236MOL0     H32535   4.196   3.756  10.961 -2.9347  0.4251 -0.3330
  236MOL0     H32536   4.378   3.699  11.104 -1.1531 -2.9408  0.2657
  236MOL0     H32537   4.276   3.718  11.245  0.0234  0.6716  0.4600
  236MOL0     H32538   4.234   3.963  11.176 -0.0528 -0.8623  3.1289
  236MOL0     H32539   4.372   3.945  11.054  1.0681  1.9226  1.0871
  236MOL0     H32540   4.380   3.908  11.350 -0.1319  3.3785  1.0151
  236MOL0     H32541   4.504   3.843  11.241  0.9953  0.6974 -1.7417
  236MOL0     H32542   4.566   4.061  11.171  0.6626  0.6728  0.5534
  236MOL0     H32543   4.574   4.046  11.343 -0.1509 -4.0120  0.3302
  236MOL0     H32544   4.380   4.164  11.383  1.8325  1.9483  1.2527
  236MOL0     H32545   4.328   4.171  11.211  0.5055 -1.6150  0.6198
  236MOL0     H32546   4.445   4.382  11.309  1.0873  0.0633  0.8510
  236MOL0     H32547   4.511   4.322  11.161 -0.5630  3.4242  0.9125
  236MOL0     H32548   3.935   3.489  11.041  5.5977 -2.1157  1.2240
  236MOL0     H32549   3.779   3.311  11.088  3.2490 -1.8680 -0.4582
  236MOL0     H32550   3.298   3.271  11.386  0.6860 -0.1229 -0.2667
  236MOL0     H32551   3.156   3.087  11.455 -0.4321 -1.9384 -0.2608
  236MOL0     H32552   2.058   3.867  10.679  1.0806 -2.1565  2.0374
  236MOL0     H32553   1.838   3.950  10.594  1.8501 -0.7885 -4.0781
  236MOL0     H32554   1.354   3.726  10.557  1.9314  0.1534  1.2566
  236MOL0     H32555   1.124   3.789  10.524 -3.0237  2.8806 -3.1761
  236MOL0     H32556   0.921   3.899  10.436  0.9539  0.5018  1.0242
  236MOL0     H32557   0.945   3.874  10.613 -0.5437 -0.0257  1.2538
  236MOL0     H32558   0.715   3.940  10.541  1.6746 -0.8857  0.9138
  236MOL0     H32559   0.779   4.088  10.454  1.0861  2.2368  1.0557
  236MOL0     H32560   0.875   4.160  10.681  0.4999 -0.0754  1.2132
  236MOL0     H32561   0.711   4.191  10.629 -2.1563 -1.9890  0.8330
  236MOL0     H32562   0.625   3.997  10.743  1.1728  0.2436 -3.3550
  236MOL0     H32563   0.679   4.116  10.849 -1.1916  0.6439 -2.0290
  236MOL0     H32564   0.950   3.809  10.930 -0.8161  2.0233  4.0025
  236MOL0     H32565   1.228   4.200  10.548  0.4260  0.7513  0.1718
  236MOL0     H32566   1.431   4.271  10.558 -2.0020 -0.6328  2.5319
  236MOL0     H32567   1.524   4.187  10.690 -1.5742 -0.4977  0.3534
  236MOL0     H32568   1.570   4.184  10.514  1.1920  2.9206  0.3690
  237MOL0     O32569  11.183   2.890   3.139  0.3099  0.4435 -0.4393
  237MOL0     C32570  11.105   2.902   3.240 -0.4426 -0.7100  0.2377
  237MOL0     O32571  11.131   2.896   3.370 -0.4092  0.5380 -0.3562
  237MOL0     C32572  11.258   2.855   3.414 -0.0425  0.0939 -0.4114
  237MOL0     C32573  11.382   2.892   3.360  0.0235 -0.1535  0.6430
  237MOL0     C32574  11.500   2.841   3.413  0.2154  0.1572 -0.0932
  237MOL0     C32575  11.495   2.758   3.532 -0.8476  0.4142  0.6374
  237MOL0     O32576  11.610   2.727   3.605  0.0537  0.1038 -0.6220
  237MOL0     C32577  11.738   2.694   3.532 -0.0709 -0.8901 -0.2175
  237MOL0     C32578  11.786   2.543   3.547 -0.6805 -0.6652  0.6359
  237MOL0     C32579  11.941   2.526   3.544  0.4152 -0.6559  0.5829
  237MOL0     C32580  11.984   2.525   3.391  0.3735 -0.6519  0.2431
  237MOL0     C32581  12.137   2.518   3.373  0.5059  0.4563  0.1523
  237MOL0     C32582  12.199   2.392   3.434 -0.2477  0.0326 -0.6751
  237MOL0     C32583  12.350   2.390   3.413 -0.8391 -0.7606  0.5661
  237MOL0     C32584  12.397   2.252   3.441  0.3063  0.7643  0.4656
  237MOL0     N32585  12.540   2.243   3.402 -0.3435  0.4387  0.0917
  237MOL0     C32586  12.640   2.323   3.458  0.4013 -0.5350 -0.1396
  237MOL0     C32587  12.755   2.279   3.406 -0.1172 -0.2555  0.3520
  237MOL0     C32588  12.897   2.322   3.448 -0.8872 -0.2411 -0.6766
  237MOL0     C32589  12.940   2.275   3.591 -0.3865  0.1413  0.0193
  237MOL0     C32590  13.092   2.257   3.588 -0.0740 -0.0077  0.0478
  237MOL0     C32591  13.147   2.225   3.729 -0.1715  0.1909 -0.6663
  237MOL0     O32592  13.164   2.356   3.791 -0.3498 -0.5667 -0.5310
  237MOL0     C32593  13.279   2.382   3.871 -0.2112 -0.7060 -0.0327
  237MOL0     C32594  13.388   2.303   3.873 -0.6640  1.3361  0.7047
  237MOL0     C32595  13.510   2.340   3.939 -0.3259  1.1302  0.4499
  237MOL0     C32596  13.628   2.245   3.919 -0.4085 -0.2224 -0.0390
  237MOL0     C32597  13.513   2.466   4.003  0.2411 -0.4602 -0.3538
  237MOL0     C32598  13.635   2.518   4.079  0.1712 -0.1455  0.6942
  237MOL0     O32599  13.742   2.439   4.079 -0.2676 -0.2838  0.0731
  237MOL0     C32600  13.859   2.468   4.132  0.3778  0.4166  0.1231
  237MOL0     C32601  13.973   2.430   4.056  0.0954 -1.1452  0.0720
  237MOL0     C32602  14.097   2.490   4.086  1.1810 -0.1752 -0.1992
  237MOL0     C32603  14.117   2.572   4.194  0.7822 -0.0739  0.0107
  237MOL0     O32604  14.239   2.616   4.238  0.1201  0.8808  0.3472
  237MOL0     C32605  14.351   2.605   4.149 -0.4355 -0.3021 -0.1351
  237MOL0     C32606  14.466   2.685   4.206  0.2407 -0.1636  0.2426
  237MOL0     C32607  14.598   2.650   4.142  0.1304  0.5147  0.0091
  237MOL0     C32608  14.688   2.771   4.175  0.3413 -0.4486 -0.0420
  237MOL0     C32609  14.841   2.740   4.173 -0.1272  0.1002  1.3790
  237MOL0     C32610  14.882   2.713   4.027 -0.8389  0.3835 -1.5106
  237MOL0     C32611  15.035   2.698   4.021  0.0057 -0.2141 -0.5467
  237MOL0     C32612  15.079   2.724   3.873  0.2067 -0.9357 -0.1702
  237MOL0    Cl32613  15.262   2.700   3.846  0.1254 -0.2582 -0.6323
  237MOL0     C32614  14.002   2.612   4.264 -0.3908  0.3615 -0.3192
  237MOL0     C32615  13.878   2.557   4.242  0.7750 -0.1963 -0.5644
  237MOL0     O32616  13.633   2.631   4.122  0.0327 -0.4333 -0.3208
  237MOL0     C32617  13.401   2.549   3.999 -0.1051 -1.0643  0.3970
  237MOL0     C32618  13.280   2.504   3.941 -0.1283  1.0722  0.3360
  237MOL0     N32619  12.718   2.178   3.312 -0.2483 -0.3283  0.7712
  237MOL0     N32620  12.593   2.150   3.323  0.2896  0.3752 -0.6361
  237MOL0     C32621  11.374   2.733   3.584  0.1766 -0.4134 -0.3981
  237MOL0     C32622  11.253   2.786   3.533 -0.7649 -0.5257  0.1607
  237MOL0     C32623  10.972   2.917   3.201  0.1332 -0.4207 -0.4832
  237MOL0     C32624  10.945   2.983   3.076 -0.2181  0.1729  0.4308
  237MOL0     C32625  10.816   2.988   3.027 -0.0801  0.6795 -0.0099
  237MOL0     C32626  10.708   2.938   3.101  0.1522  0.5346  0.1123
  237MOL0     O32627  10.577   2.962   3.062 -0.9734 -0.0488  0.7373
  237MOL0     C32628  10.478   2.981   3.162  0.0680 -0.5377  0.8487
  237MOL0     C32629  10.389   3.092   3.104  0.0083  0.1788 -0.6215
  237MOL0     C32630  10.246   3.063   3.148  0.8694  0.7360 -0.4559
  237MOL0     C32631  10.224   3.125   3.282 -0.2010 -0.0659 -0.1987
  237MOL0     C32632  10.220   3.271   3.265 -0.4472  0.5777  0.1927
  237MOL0     C32633  10.230   3.396   3.269  0.3096  0.4545  0.8147
  237MOL0     C32634  10.738   2.870   3.224  0.3665  0.3717 -0.1354
  237MOL0     C32635  10.863   2.859   3.271 -0.1241 -0.2334  0.3046
  237MOL0     C32636  10.878   2.790   3.411 -0.6144  0.7173 -0.3853
  237MOL0     H32637  11.406   2.945   3.269  1.7381  0.5913  1.4824
  237MOL0     H32638  11.598   2.877   3.384  0.7618 -0.7934  0.5270
  237MOL0     H32639  11.814   2.760   3.576  0.4849 -2.4644  1.2684
  237MOL0     H32640  11.730   2.719   3.426 -0.3397 -0.7165 -0.1586
  237MOL0     H32641  11.758   2.503   3.645 -0.4977 -2.5344 -0.0502
  237MOL0     H32642  11.735   2.477   3.477 -0.5036 -0.3487  0.2059
  237MOL0     H32643  11.993   2.601   3.605 -1.1836  0.5770  0.4853
  237MOL0     H32644  11.970   2.428   3.583  0.3883 -0.4417  1.1379
  237MOL0     H32645  11.929   2.444   3.344 -2.2233  1.7568 -1.2011
  237MOL0     H32646  11.948   2.616   3.341 -2.6277 -1.1434  1.3176
  237MOL0     H32647  12.185   2.608   3.413 -0.1145  1.9378 -2.1764
  237MOL0     H32648  12.159   2.523   3.266  1.7178  3.3500  0.4490
  237MOL0     H32649  12.175   2.380   3.540 -1.8395 -1.9163 -1.1988
  237MOL0     H32650  12.154   2.299   3.399  1.9869 -2.6952  2.9934
  237MOL0     H32651  12.401   2.467   3.471 -0.8087  0.9067 -1.5484
  237MOL0     H32652  12.373   2.413   3.309  2.9824  0.3233  1.5057
  237MOL0     H32653  12.387   2.227   3.547  0.6681  1.3604  0.6489
  237MOL0     H32654  12.351   2.170   3.386  1.6978 -0.5275  1.1549
  237MOL0     H32655  12.636   2.404   3.530 -0.0273 -2.7995  2.5427
  237MOL0     H32656  12.918   2.427   3.429  2.6728 -0.9372 -1.2906
  237MOL0     H32657  12.959   2.286   3.365 -1.9285  1.3268 -2.1921
  237MOL0     H32658  12.915   2.357   3.658  1.5231  1.7369 -1.1283
  237MOL0     H32659  12.906   2.178   3.628  3.2493 -1.0144  0.7637
  237MOL0     H32660  13.115   2.178   3.516 -1.0049 -1.7532  1.5786
  237MOL0     H32661  13.134   2.353   3.556  0.2768 -1.0431 -2.9609
  237MOL0     H32662  13.068   2.180   3.791 -1.3821  1.3484 -1.3066
  237MOL0     H32663  13.229   2.154   3.728  0.2674  0.5051  2.7815
  237MOL0     H32664  13.388   2.209   3.821 -0.1357  0.0526  2.8902
  237MOL0     H32665  13.607   2.161   3.852  1.0934 -1.2129  0.6541
  237MOL0     H32666  13.654   2.194   4.013 -0.6907 -0.6790 -0.2047
  237MOL0     H32667  13.718   2.293   3.879  0.7782 -0.4361  2.2235
  237MOL0     H32668  13.969   2.376   3.961 -0.4670 -1.9005  0.5137
  237MOL0     H32669  14.180   2.474   4.019  1.8073  2.4608 -0.1527
  237MOL0     H32670  14.370   2.498   4.134 -2.3645 -0.8937  1.1907
  237MOL0     H32671  14.338   2.647   4.049  3.1392  0.7408 -0.3047
  237MOL0     H32672  14.447   2.791   4.187  0.4468 -0.7702 -4.2832
  237MOL0     H32673  14.468   2.688   4.316  0.9527  1.3830  0.2180
  237MOL0     H32674  14.591   2.639   4.034 -1.5641  1.1146  0.0263
  237MOL0     H32675  14.629   2.559   4.193  1.2316  0.9592  0.1807
  237MOL0     H32676  14.662   2.808   4.275  0.4446  0.5505 -0.3701
  237MOL0     H32677  14.656   2.846   4.101 -2.3186 -2.2335 -0.8322
  237MOL0     H32678  14.903   2.820   4.215 -0.1217 -0.6204  2.8294
  237MOL0     H32679  14.852   2.652   4.237  0.5049  1.2322  2.8836
  237MOL0     H32680  14.856   2.802   3.968  0.4751  1.4728 -0.5030
  237MOL0     H32681  14.832   2.630   3.977  1.8744 -0.9373 -2.2161
  237MOL0     H32682  15.054   2.595   4.053 -0.1247  0.2336  1.0661
  237MOL0     H32683  15.085   2.773   4.084  0.0938  0.9326 -1.9304
  237MOL0     H32684  15.052   2.826   3.842 -2.9488 -1.3341  0.8996
  237MOL0     H32685  15.020   2.653   3.814  0.9613 -3.1974  1.6218
  237MOL0     H32686  14.001   2.689   4.340  0.7517  1.6041 -1.5134
  237MOL0     H32687  13.787   2.593   4.289  0.0052 -2.5549 -0.1180
  237MOL0     H32688  13.418   2.652   4.031 -2.9366 -0.0120 -1.1877
  237MOL0     H32689  13.185   2.553   3.919  0.4301  2.0649  0.0817
  237MOL0     H32690  11.377   2.699   3.687 -1.5615  1.0833  0.2097
  237MOL0     H32691  11.161   2.777   3.591 -1.7171 -2.6287 -1.5474
  237MOL0     H32692  11.020   3.032   3.015 -1.7446 -0.3829 -2.0454
  237MOL0     H32693  10.787   3.039   2.936 -1.4225 -0.9381 -0.5517
  237MOL0     H32694  10.429   2.886   3.187 -2.0439  0.7106  1.7280
  237MOL0     H32695  10.511   3.011   3.262 -0.6559  0.2364  0.8670
  237MOL0     H32696  10.392   3.075   2.995 -2.3476 -1.3870 -0.5162
  237MOL0     H32697  10.430   3.189   3.133 -0.7934  0.2147  0.4160
  237MOL0     H32698  10.170   3.104   3.081  0.1175  4.6559  2.4698
  237MOL0     H32699  10.228   2.955   3.151  2.0309  0.4137  5.2070
  237MOL0     H32700  10.304   3.100   3.352  1.0078  1.2262 -1.0674
  237MOL0     H32701  10.127   3.090   3.317  0.2911 -1.8079 -0.4757
  237MOL0     H32702  10.238   3.503   3.277 -1.2654  0.5162  2.3132
  237MOL0     H32703  10.658   2.818   3.276  2.5141 -1.4012  1.6035
  237MOL0     H32704  10.908   2.871   3.479  2.1263 -0.9549  0.5301
  237MOL0     H32705  10.787   2.742   3.448 -0.6724  1.3753  0.3692
  237MOL0     H32706  10.961   2.720   3.416 -0.2274  1.2495  1.3741
  238MOL0     O32707  10.468   7.796   4.321  0.3188  0.4961  0.2370
  238MOL0     C32708  10.401   7.705   4.264  0.8802 -0.5286  1.0370
  238MOL0     O32709  10.456   7.600   4.187 -0.1720 -0.6705  0.4086
  238MOL0     C32710  10.585   7.608   4.142 -0.0703  0.3076 -0.6625
  238MOL0     C32711  10.648   7.736   4.110 -0.1614  0.1490 -0.7833
  238MOL0     C32712  10.783   7.734   4.076 -0.3012 -0.8361  0.2228
  238MOL0     C32713  10.853   7.613   4.062 -0.1758 -0.3807  0.2937
  238MOL0     O32714  10.986   7.602   4.006  0.3102  0.0232  0.1172
  238MOL0     C32715  11.074   7.721   4.022  0.7221  0.9529 -0.1115
  238MOL0     C32716  11.228   7.687   4.012  0.1896 -0.3437 -1.3364
  238MOL0     C32717  11.306   7.821   3.984  0.5826  0.8423  0.4685
  238MOL0     C32718  11.458   7.802   4.000  0.4819 -0.6931 -1.3008
  238MOL0     C32719  11.509   7.804   4.138 -0.9311 -0.5465 -0.0005
  238MOL0     C32720  11.663   7.780   4.154 -0.1757  0.3358  0.6896
  238MOL0     C32721  11.745   7.862   4.059  0.2448 -0.2244  0.0664
  238MOL0     C32722  11.897   7.848   4.074  0.0731 -0.0135  0.4891
  238MOL0     N32723  11.947   7.942   4.177 -0.5017 -0.4708  0.5256
  238MOL0     C32724  11.970   7.906   4.303 -0.6771  0.4299 -1.0601
  238MOL0     C32725  12.045   7.999   4.373 -0.3959  0.1223  0.7095
  238MOL0     C32726  12.078   8.012   4.514  0.1968  0.5372 -0.2221
  238MOL0     C32727  12.230   8.013   4.545  0.0050  0.2373  0.5597
  238MOL0     C32728  12.305   8.107   4.455  0.1063  0.3681 -0.2705
  238MOL0     C32729  12.446   8.122   4.518  0.5220  0.8005  0.1277
  238MOL0     O32730  12.527   8.198   4.425  0.5003  0.0451  1.1409
  238MOL0     C32731  12.660   8.195   4.430  0.1889 -0.3144 -0.2635
  238MOL0     C32732  12.730   8.129   4.534 -0.4233  0.1933  0.9365
  238MOL0     C32733  12.873   8.135   4.543 -0.5722  0.8247 -0.5325
  238MOL0     C32734  12.934   8.066   4.667 -0.0585  0.2275 -0.6258
  238MOL0     C32735  12.941   8.214   4.446 -0.7610 -0.5872  0.3493
  238MOL0     C32736  13.089   8.246   4.456 -0.1738  0.0428  0.9223
  238MOL0     O32737  13.140   8.317   4.354  0.2802 -0.2081  0.1186
  238MOL0     C32738  13.272   8.354   4.354  0.5723  0.6507  0.6414
  238MOL0     C32739  13.312   8.449   4.442  0.3865 -0.6100 -0.2552
  238MOL0     C32740  13.433   8.503   4.433  0.6193 -0.0570  0.2361
  238MOL0     C32741  13.524   8.458   4.335 -0.9492 -0.3048  0.1150
  238MOL0     O32742  13.645   8.529   4.321  0.3624  0.0185  0.3133
  238MOL0     C32743  13.762   8.444   4.305 -0.8303  0.3188  0.3418
  238MOL0     C32744  13.878   8.493   4.386 -0.2741 -0.7612 -0.1677
  238MOL0     C32745  13.945   8.620   4.337 -0.4139  0.5082  0.2034
  238MOL0     C32746  14.030   8.679   4.446 -0.3850  0.2899  0.1921
  238MOL0     C32747  14.127   8.786   4.393  0.3699  0.8106  0.1344
  238MOL0     C32748  14.215   8.836   4.508 -0.8019  0.1921 -0.1209
  238MOL0     C32749  14.297   8.955   4.460 -0.4619 -0.5034 -0.2303
  238MOL0     C32750  14.431   8.968   4.536 -0.5785 -0.8261  0.2614
  238MOL0    Cl32751  14.556   8.836   4.497 -0.2144  0.3440 -0.3872
  238MOL0     C32752  13.495   8.344   4.266 -0.5952  0.0113 -0.1681
  238MOL0     C32753  13.365   8.295   4.265  0.2884 -0.1070 -0.0328
  238MOL0     O32754  13.158   8.209   4.552  0.0284 -0.0430 -0.9527
  238MOL0     C32755  12.869   8.277   4.342 -0.0408 -0.3854 -0.7858
  238MOL0     C32756  12.730   8.270   4.337 -0.3513  0.0478  1.0411
  238MOL0     N32757  12.059   8.097   4.276 -0.2737  0.1174 -0.2499
  238MOL0     N32758  12.007   8.058   4.160  0.2273 -0.2677 -0.3303
  238MOL0     C32759  10.782   7.489   4.078 -0.9411 -0.0820 -0.0206
  238MOL0     C32760  10.650   7.493   4.119 -0.6783  0.2481  0.0721
  238MOL0     C32761  10.253   7.691   4.294  0.7606 -1.4091 -0.1132
  238MOL0     C32762  10.202   7.556   4.302  0.6356  0.0991  0.3627
  238MOL0     C32763  10.066   7.531   4.331  0.4448 -0.3650 -0.2408
  238MOL0     C32764   9.978   7.639   4.334  0.8018 -0.9413  0.0489
  238MOL0     O32765   9.852   7.601   4.345  0.5704 -0.0887 -0.0283
  238MOL0     C32766   9.755   7.678   4.272 -0.8243 -0.3096  0.0205
  238MOL0     C32767   9.650   7.753   4.357  1.3854  0.1069  0.1216
  238MOL0     C32768   9.710   7.818   4.479 -0.1296 -0.5485 -0.5279
  238MOL0     C32769   9.603   7.882   4.570 -0.3279  0.8723 -0.0355
  238MOL0     C32770   9.519   7.781   4.636 -0.1093  0.0186 -0.0374
  238MOL0     C32771   9.447   7.696   4.691  0.4160 -0.3724  0.3708
  238MOL0     C32772  10.025   7.775   4.317  0.6673 -0.3718 -0.2065
  238MOL0     C32773  10.159   7.793   4.305  1.0734 -0.7324  0.5925
  238MOL0     C32774  10.203   7.935   4.314 -0.5276 -0.1416 -0.6873
  238MOL0     H32775  10.600   7.833   4.119  1.5728  1.0014 -0.1762
  238MOL0     H32776  10.838   7.827   4.066 -0.6131 -0.6188  0.5271
  238MOL0     H32777  11.059   7.780   4.113  0.5953  0.5159  0.1539
  238MOL0     H32778  11.059   7.786   3.935  0.4285 -0.3053 -1.0427
  238MOL0     H32779  11.274   7.636   4.097 -2.3320  1.3206  1.1700
  238MOL0     H32780  11.237   7.617   3.928 -0.4912 -0.0231 -1.6826
  238MOL0     H32781  11.286   7.840   3.878 -0.6890 -0.6964  0.3900
  238MOL0     H32782  11.258   7.899   4.043 -1.6908  0.3203 -0.5864
  238MOL0     H32783  11.491   7.708   3.956  0.5203 -0.4271 -1.8426
  238MOL0     H32784  11.495   7.894   3.954  1.8244 -0.4413  0.1968
  238MOL0     H32785  11.464   7.731   4.206 -0.1054  0.1781  1.3693
  238MOL0     H32786  11.482   7.904   4.173  0.8113  0.8046 -2.2197
  238MOL0     H32787  11.681   7.808   4.258  0.5949  0.3599  0.5569
  238MOL0     H32788  11.683   7.674   4.142 -2.0163 -0.1262  1.4206
  238MOL0     H32789  11.715   7.966   4.076  2.6453  0.5617 -0.0534
  238MOL0     H32790  11.716   7.837   3.956 -1.4551 -1.4891  0.8121
  238MOL0     H32791  11.927   7.745   4.095 -1.7207 -1.2758 -2.4816
  238MOL0     H32792  11.941   7.881   3.979  0.5991  1.2200  1.1400
  238MOL0     H32793  11.926   7.817   4.347  0.2414 -0.5653 -2.1017
  238MOL0     H32794  12.016   7.946   4.575 -0.2579  1.0607 -0.1086
  238MOL0     H32795  12.046   8.111   4.549 -1.5110  1.0586 -2.9707
  238MOL0     H32796  12.232   8.053   4.647  0.6634  1.6843  0.0130
  238MOL0     H32797  12.269   7.911   4.551 -1.0142 -0.2453 -0.5768
  238MOL0     H32798  12.300   8.060   4.356 -0.4535 -1.0966  0.4284
  238MOL0     H32799  12.260   8.207   4.458 -1.9604 -0.4968 -0.5673
  238MOL0     H32800  12.441   8.175   4.613 -1.2281 -1.5558  1.4213
  238MOL0     H32801  12.485   8.026   4.551  1.5028  2.4086  4.2035
  238MOL0     H32802  12.677   8.081   4.615  2.3194 -0.4237  2.5192
  238MOL0     H32803  12.990   8.128   4.737  3.0281 -2.9780  0.0272
  238MOL0     H32804  12.997   7.985   4.630  1.7109 -1.4334  5.0391
  238MOL0     H32805  12.850   8.020   4.719 -0.3870  1.1343 -0.3372
  238MOL0     H32806  13.244   8.479   4.521 -1.2491 -2.8948 -0.6924
  238MOL0     H32807  13.466   8.595   4.481  0.5338  0.3855 -0.5429
  238MOL0     H32808  13.740   8.345   4.347 -1.5694 -0.2202 -1.2154
  238MOL0     H32809  13.798   8.425   4.203  3.5432  0.5422  1.6364
  238MOL0     H32810  13.838   8.493   4.488 -0.4623 -2.2720 -0.2158
  238MOL0     H32811  13.954   8.415   4.385  0.4526 -0.0867  1.0543
  238MOL0     H32812  13.862   8.688   4.318 -2.9149 -2.2383  0.6196
  238MOL0     H32813  14.005   8.596   4.249 -3.2388  0.3509 -1.8191
  238MOL0     H32814  14.095   8.607   4.497  0.2382  1.7647  1.5610
  238MOL0     H32815  13.959   8.718   4.519  0.5436  2.2017  0.1466
  238MOL0     H32816  14.184   8.741   4.311 -3.6454  2.6903 -4.1588
  238MOL0     H32817  14.076   8.870   4.344  0.7399  0.0055 -1.7164
  238MOL0     H32818  14.282   8.760   4.549  0.0005 -0.0581 -1.8021
  238MOL0     H32819  14.147   8.875   4.584  1.2204  2.6426  0.5834
  238MOL0     H32820  14.229   9.041   4.468 -0.1400 -0.3886  1.7814
  238MOL0     H32821  14.329   8.933   4.358  2.2160 -0.0480  0.4516
  238MOL0     H32822  14.414   8.974   4.644  0.5369 -1.6515  0.4960
  238MOL0     H32823  14.480   9.057   4.494  2.0591 -2.2765  0.0886
  238MOL0     H32824  13.560   8.322   4.182  0.4129  5.1764 -1.1240
  238MOL0     H32825  13.318   8.222   4.199 -0.9364  0.9636 -0.3840
  238MOL0     H32826  12.909   8.344   4.266 -0.6972  1.4484  0.4207
  238MOL0     H32827  12.671   8.315   4.257 -1.5243  1.0099  2.4025
  238MOL0     H32828  10.829   7.395   4.053  0.4016  0.4441  0.4322
  238MOL0     H32829  10.592   7.401   4.124 -2.0666  0.8616 -2.5129
  238MOL0     H32830  10.261   7.466   4.290  1.5242  0.6877  0.2029
  238MOL0     H32831  10.016   7.436   4.343 -1.1462  0.5559  0.7108
  238MOL0     H32832   9.796   7.751   4.201  0.4949 -1.6187 -0.6162
  238MOL0     H32833   9.702   7.616   4.199  0.9945 -0.2191 -1.4518
  238MOL0     H32834   9.566   7.689   4.386 -0.2586  1.6362 -1.1013
  238MOL0     H32835   9.608   7.839   4.304  3.4208  1.6708  0.8848
  238MOL0     H32836   9.773   7.752   4.540 -1.5235  2.1180  4.3757
  238MOL0     H32837   9.779   7.898   4.448  0.7842 -0.6425  1.1113
  238MOL0     H32838   9.534   7.946   4.515  0.3023  1.2558 -0.3850
  238MOL0     H32839   9.644   7.943   4.651 -1.3406  0.6389  0.6789
  238MOL0     H32840   9.389   7.632   4.755 -0.7220  0.5814  0.3308
  238MOL0     H32841   9.961   7.862   4.316  1.5703  0.3142 -0.3041
  238MOL0     H32842  10.125   8.011   4.300 -1.9559 -1.3582  0.3600
  238MOL0     H32843  10.259   7.957   4.405  1.2323  1.1557 -1.9890
  238MOL0     H32844  10.282   7.948   4.239  1.4241  0.1006  1.3055
  239MOL0     O32845   3.270  10.053   3.688  0.2284  0.2198  0.4912
  239MOL0     C32846   3.191  10.017   3.599 -0.2544 -0.6117 -0.4417
  239MOL0     O32847   3.210   9.929   3.498 -1.1297 -0.1951  0.0595
  239MOL0     C32848   3.299   9.824   3.509  0.8634  0.1096  0.1310
  239MOL0     C32849   3.352   9.770   3.629 -0.7023 -0.0321  0.7040
  239MOL0     C32850   3.454   9.674   3.623 -0.3548  0.0717  0.0662
  239MOL0     C32851   3.504   9.633   3.496 -0.5437  0.1313 -0.4977
  239MOL0     O32852   3.611   9.551   3.480 -0.4725 -0.0514 -0.9793
  239MOL0     C32853   3.704   9.520   3.582  0.1453 -0.5002 -0.4862
  239MOL0     C32854   3.777   9.393   3.545  0.0601  0.0326  0.8316
  239MOL0     C32855   3.882   9.371   3.656  0.8878 -0.3088 -0.0088
  239MOL0     C32856   4.031   9.397   3.620  0.4671  0.3402 -0.0935
  239MOL0     C32857   4.077   9.279   3.532  0.0395  0.1086  0.5253
  239MOL0     C32858   4.228   9.287   3.480  0.5613 -0.0664  0.6838
  239MOL0     C32859   4.265   9.156   3.409  0.9398 -0.0312  0.9469
  239MOL0     C32860   4.412   9.160   3.362  0.6205  0.3397 -0.1401
  239MOL0     N32861   4.469   9.028   3.354 -0.9916 -0.2063  0.2574
  239MOL0     C32862   4.573   8.989   3.439  0.1707 -0.3905  0.2685
  239MOL0     C32863   4.617   8.870   3.379  0.1197 -0.0605  0.5866
  239MOL0     C32864   4.725   8.770   3.415 -0.2865  0.3844 -0.0372
  239MOL0     C32865   4.826   8.849   3.512  0.7690 -0.4667 -0.3229
  239MOL0     C32866   4.953   8.781   3.541 -0.6859 -0.7332 -0.2527
  239MOL0     C32867   4.928   8.680   3.646 -0.5476 -0.5248 -0.3967
  239MOL0     O32868   4.923   8.746   3.774  0.3235  0.0676 -0.5096
  239MOL0     C32869   4.917   8.667   3.885  0.1412  0.9530  1.0126
  239MOL0     C32870   4.942   8.722   4.011  0.0217 -0.5505 -0.0021
  239MOL0     C32871   4.946   8.650   4.132 -0.0784 -0.7148 -0.1464
  239MOL0     C32872   4.941   8.730   4.265 -0.0806  0.0265  0.6681
  239MOL0     C32873   4.911   8.517   4.126 -0.4452 -0.3425 -0.5968
  239MOL0     C32874   4.882   8.430   4.244 -0.0945  0.2662  1.1931
  239MOL0     O32875   4.970   8.430   4.351  0.2326  0.6364  0.0743
  239MOL0     C32876   5.018   8.309   4.403  0.4822  0.1059  0.8986
  239MOL0     C32877   5.157   8.290   4.400  0.3677  0.1338 -0.1466
  239MOL0     C32878   5.220   8.180   4.453 -0.7007 -0.4780  0.2807
  239MOL0     C32879   5.148   8.079   4.515  0.2044 -1.0666  1.6583
  239MOL0     O32880   5.203   7.969   4.572 -0.9353 -0.7144  0.4811
  239MOL0     C32881   5.318   7.906   4.509 -0.0229 -1.3801 -0.9668
  239MOL0     C32882   5.419   7.847   4.612 -0.0454  0.0746  0.3158
  239MOL0     C32883   5.558   7.815   4.557 -0.3316 -0.4153 -0.1527
  239MOL0     C32884   5.565   7.688   4.468 -0.1250  0.4346 -0.0322
  239MOL0     C32885   5.716   7.675   4.416 -0.1816 -0.0021  0.4326
  239MOL0     C32886   5.724   7.567   4.313 -0.6815  0.1768  0.3551
  239MOL0     C32887   5.702   7.421   4.365 -0.2051  0.6210  0.2254
  239MOL0     C32888   5.725   7.328   4.248 -1.0943 -0.2081 -1.1198
  239MOL0    Cl32889   5.705   7.161   4.301  0.5552  0.0958  0.3989
  239MOL0     C32890   5.004   8.098   4.528 -0.0474  0.2841 -0.1260
  239MOL0     C32891   4.939   8.216   4.472 -0.8662 -0.7777 -0.1119
  239MOL0     O32892   4.795   8.349   4.236 -0.0325  0.3799  0.1295
  239MOL0     C32893   4.887   8.461   4.001 -0.2223  0.4777  0.7594
  239MOL0     C32894   4.882   8.527   3.883  0.5645  0.3016  0.9312
  239MOL0     N32895   4.535   8.853   3.264 -0.1705 -0.8772  0.5590
  239MOL0     N32896   4.453   8.948   3.254 -0.0617 -0.5315  0.9443
  239MOL0     C32897   3.445   9.684   3.375  0.5470  0.0442 -1.6002
  239MOL0     C32898   3.346   9.779   3.387  0.8145  0.2038 -0.0707
  239MOL0     C32899   3.063  10.084   3.595 -0.0755 -0.2090 -0.2301
  239MOL0     C32900   3.028  10.144   3.467  0.9540  0.0734  0.1736
  239MOL0     C32901   2.915  10.221   3.447 -0.2995  0.4657 -0.0186
  239MOL0     C32902   2.840  10.259   3.558  0.2036 -0.1787  0.1163
  239MOL0     O32903   2.730  10.334   3.527  0.1223  0.6140 -0.2296
  239MOL0     C32904   2.628  10.346   3.632 -0.3082 -0.2247 -0.0334
  239MOL0     C32905   2.526  10.438   3.558  0.2280  0.7767 -0.0849
  239MOL0     C32906   2.574  10.579   3.551  0.7417  0.5327  0.4064
  239MOL0     C32907   2.471  10.670   3.491 -0.5070  0.7430  0.1589
  239MOL0     C32908   2.334  10.673   3.546 -0.4163 -0.0131 -0.6384
  239MOL0     C32909   2.230  10.680   3.608  0.2930  1.7607  0.1196
  239MOL0     C32910   2.874  10.196   3.680  1.1907 -0.4010 -0.4819
  239MOL0     C32911   2.983  10.108   3.704  0.1456 -0.1547  0.9638
  239MOL0     C32912   3.012  10.037   3.842 -0.0725 -1.1576  0.3035
  239MOL0     H32913   3.302   9.798   3.722  2.5874  2.9470  1.7959
  239MOL0     H32914   3.513   9.641   3.708  2.3019 -2.3674 -2.4598
  239MOL0     H32915   3.645   9.501   3.671  1.1583 -0.7449  0.1466
  239MOL0     H32916   3.769   9.607   3.597 -1.2928  0.2064  2.5169
  239MOL0     H32917   3.704   9.312   3.559 -1.1021  0.9942  0.4736
  239MOL0     H32918   3.822   9.403   3.447 -1.0278  1.2907  0.4348
  239MOL0     H32919   3.860   9.430   3.745 -0.9453 -0.9862  0.0230
  239MOL0     H32920   3.883   9.270   3.697  2.0679  0.1871  1.2450
  239MOL0     H32921   4.049   9.488   3.563 -0.6602 -0.0919 -1.1944
  239MOL0     H32922   4.095   9.402   3.708  0.6118 -0.7114 -0.1183
  239MOL0     H32923   4.014   9.279   3.443  0.0569 -0.3834  0.5086
  239MOL0     H32924   4.063   9.188   3.590  1.2209 -0.6555 -0.3287
  239MOL0     H32925   4.241   9.369   3.409 -0.3764  0.4373  1.0783
  239MOL0     H32926   4.298   9.308   3.562  0.5335 -2.0067  1.2518
  239MOL0     H32927   4.197   9.137   3.326  0.5474 -0.0160  1.2609
  239MOL0     H32928   4.253   9.071   3.477  0.9613  0.1311  1.1527
  239MOL0     H32929   4.428   9.210   3.266  2.0213 -1.0000 -0.6525
  239MOL0     H32930   4.472   9.220   3.431  1.3168  0.4007 -0.7883
  239MOL0     H32931   4.610   9.028   3.533 -0.5891 -0.2194  0.5036
  239MOL0     H32932   4.775   8.729   3.326  0.6412  0.1952  0.5565
  239MOL0     H32933   4.679   8.691   3.475 -3.6265  2.2191  0.0355
  239MOL0     H32934   4.856   8.945   3.469  0.9805 -1.9421 -3.8121
  239MOL0     H32935   4.778   8.872   3.608  0.3675 -4.0140  0.4907
  239MOL0     H32936   4.981   8.728   3.449 -2.8040  0.2329 -1.5392
  239MOL0     H32937   5.029   8.857   3.559 -0.4288 -1.0288 -0.0805
  239MOL0     H32938   4.831   8.632   3.633 -0.5415 -1.0123  1.1064
  239MOL0     H32939   5.006   8.602   3.645 -0.5630 -0.5850  1.0359
  239MOL0     H32940   4.954   8.829   4.024 -0.7608 -0.4023 -0.4339
  239MOL0     H32941   4.871   8.686   4.337 -2.4497 -0.4704 -1.7958
  239MOL0     H32942   4.918   8.833   4.235  3.5233  1.2031  1.4413
  239MOL0     H32943   5.042   8.737   4.307  0.3966  1.6152 -0.6549
  239MOL0     H32944   5.217   8.371   4.360 -0.7616  1.3812  0.6103
  239MOL0     H32945   5.327   8.165   4.442 -1.0825 -1.6305 -2.7575
  239MOL0     H32946   5.293   7.824   4.441 -0.3501 -0.8688 -1.4662
  239MOL0     H32947   5.368   7.985   4.453  0.0967  1.0446  2.2513
  239MOL0     H32948   5.428   7.918   4.694  0.4414  0.0625  0.2764
  239MOL0     H32949   5.371   7.757   4.651  0.2425  0.8088  2.4850
  239MOL0     H32950   5.630   7.791   4.636  0.5124  2.6906  0.1460
  239MOL0     H32951   5.607   7.900   4.508  0.9322  0.4230  2.3628
  239MOL0     H32952   5.499   7.703   4.382 -0.2538  2.6362  0.3761
  239MOL0     H32953   5.528   7.603   4.526  1.1939  0.0931  0.3344
  239MOL0     H32954   5.735   7.769   4.363 -2.7474  0.5676  0.4050
  239MOL0     H32955   5.790   7.663   4.496  1.0743  1.7624 -0.3848
  239MOL0     H32956   5.813   7.563   4.250 -1.6201  0.6763 -1.0578
  239MOL0     H32957   5.641   7.587   4.244 -0.6084  1.6905  0.6777
  239MOL0     H32958   5.602   7.409   4.406  0.2918  1.0289  1.6327
  239MOL0     H32959   5.771   7.400   4.447 -1.3158  0.1279  1.0571
  239MOL0     H32960   5.828   7.341   4.213 -0.7018  0.2630  0.1428
  239MOL0     H32961   5.652   7.333   4.166  0.1775 -3.0348 -2.5536
  239MOL0     H32962   4.954   8.014   4.574  0.6836  0.0151  0.1826
  239MOL0     H32963   4.833   8.233   4.486 -0.6722  0.2829  0.2072
  239MOL0     H32964   4.858   8.357   3.996 -3.0866  1.2650 -0.9562
  239MOL0     H32965   4.840   8.478   3.796 -0.5914  0.6125  1.2927
  239MOL0     H32966   3.499   9.648   3.289  3.1001 -5.1292  1.6794
  239MOL0     H32967   3.304   9.824   3.298 -0.9932  0.4623  0.8779
  239MOL0     H32968   3.099  10.131   3.386  0.3636  0.1386 -0.3632
  239MOL0     H32969   2.900  10.264   3.349  1.7018 -0.2479 -0.6773
  239MOL0     H32970   2.584  10.247   3.646 -0.6279 -0.1316 -0.3407
  239MOL0     H32971   2.665  10.385   3.727 -3.9846  3.5233  0.1815
  239MOL0     H32972   2.428  10.430   3.608  0.3911  1.7361  0.4056
  239MOL0     H32973   2.516  10.401   3.456  0.4414 -0.5785  0.3557
  239MOL0     H32974   2.593  10.614   3.653  3.2985 -1.0676  0.5639
  239MOL0     H32975   2.667  10.578   3.493  0.2847  0.7040 -0.3412
  239MOL0     H32976   2.458  10.634   3.389  0.5156  1.0657 -0.0901
  239MOL0     H32977   2.512  10.771   3.488  2.1015 -0.2735 -0.5440
  239MOL0     H32978   2.136  10.684   3.660  0.7045  0.7331  0.9921
  239MOL0     H32979   2.817  10.235   3.764  0.9229 -0.7702 -0.4937
  239MOL0     H32980   2.925  10.039   3.908  0.3959  0.0325  0.9137
  239MOL0     H32981   3.068   9.943   3.834 -2.9378 -2.8886 -0.6388
  239MOL0     H32982   3.083  10.101   3.895  0.6054 -1.0843 -0.6641
  240MOL0     O32983   2.708   4.241   9.792  0.0708 -0.6607  0.2750
  240MOL0     C32984   2.674   4.251   9.906  0.1862  0.5454 -0.2300
  240MOL0     O32985   2.739   4.207  10.016 -0.4513 -0.0007 -0.6718
  240MOL0     C32986   2.865   4.152   9.992 -0.6446 -0.7433 -0.4298
  240MOL0     C32987   2.987   4.225   9.994  0.8292  0.3377 -0.3473
  240MOL0     C32988   3.105   4.158   9.974 -0.3999  1.1849  1.1605
  240MOL0     C32989   3.107   4.013   9.951  0.5470 -0.3733 -0.1102
  240MOL0     O32990   3.219   3.943   9.933  0.1266 -0.8777  0.4069
  240MOL0     C32991   3.352   4.004   9.942 -0.7908  0.1118  0.2818
  240MOL0     C32992   3.461   3.891   9.965  0.4725 -0.5683  0.0481
  240MOL0     C32993   3.448   3.783   9.858 -0.4776  0.6035 -0.5516
  240MOL0     C32994   3.566   3.683   9.847 -0.4702  0.3276  0.6547
  240MOL0     C32995   3.705   3.736   9.814  0.1603  0.6403  0.1282
  240MOL0     C32996   3.808   3.632   9.787  0.0415  0.5981 -0.1968
  240MOL0     C32997   3.946   3.707   9.767 -0.1820 -0.3519  0.2804
  240MOL0     C32998   4.056   3.592   9.758  0.1203 -0.3536 -0.5781
  240MOL0     N32999   4.172   3.662   9.716  0.1254  0.3077  0.1255
  240MOL0     C33000   4.212   3.649   9.583  0.3801 -0.7938  0.3851
  240MOL0     C33001   4.347   3.692   9.593  0.5086 -0.8074 -0.1768
  240MOL0     C33002   4.444   3.709   9.478  1.0220 -0.9092 -0.3751
  240MOL0     C33003   4.583   3.695   9.524  0.5197  0.2256 -0.6849
  240MOL0     C33004   4.693   3.715   9.417  1.1299  0.9204 -0.1329
  240MOL0     C33005   4.827   3.666   9.465 -0.7434  0.2386  0.1456
  240MOL0     O33006   4.934   3.701   9.376  0.1454 -0.7971  0.0929
  240MOL0     C33007   5.063   3.662   9.411  0.4330 -0.3017  0.8153
  240MOL0     C33008   5.107   3.597   9.525  0.3767  0.0555  0.3571
  240MOL0     C33009   5.245   3.578   9.546  0.2690  0.1537 -0.3463
  240MOL0     C33010   5.295   3.504   9.673  0.4826  0.5893 -0.1761
  240MOL0     C33011   5.341   3.629   9.454  0.6965  0.5179 -0.0731
  240MOL0     C33012   5.485   3.621   9.473  0.0026 -0.9968 -0.2964
  240MOL0     O33013   5.551   3.503   9.468 -1.1387 -0.3080 -0.3080
  240MOL0     C33014   5.691   3.505   9.488 -0.7503  0.3492  0.2362
  240MOL0     C33015   5.734   3.489   9.622  0.2573  0.3880  0.2629
  240MOL0     C33016   5.871   3.481   9.655  0.0726 -0.8332  0.0127
  240MOL0     C33017   5.957   3.496   9.546 -0.3049  0.0692  0.1674
  240MOL0     O33018   6.086   3.489   9.575 -0.1155 -0.1090  0.2678
  240MOL0     C33019   6.190   3.534   9.482  0.5364  0.2564 -0.3865
  240MOL0     C33020   6.318   3.542   9.557 -0.8346 -0.0064 -0.4742
  240MOL0     C33021   6.432   3.577   9.465 -0.0206  0.1205 -0.4455
  240MOL0     C33022   6.559   3.605   9.549  1.2771 -0.5081 -0.9244
  240MOL0     C33023   6.687   3.585   9.476  0.3009  0.6969 -0.0085
  240MOL0     C33024   6.805   3.622   9.563 -0.4540 -0.2687  0.4203
  240MOL0     C33025   6.934   3.593   9.489  0.2335 -0.0245  0.1593
  240MOL0     C33026   7.054   3.605   9.582 -0.3849  0.3739 -1.1112
  240MOL0    Cl33027   7.066   3.439   9.666  0.1611  0.1855  0.0819
  240MOL0     C33028   5.913   3.498   9.409 -0.1762  0.0181 -0.3319
  240MOL0     C33029   5.779   3.517   9.389  0.7261 -0.2018  0.5818
  240MOL0     O33030   5.536   3.726   9.500  0.1748 -0.4324  0.0416
  240MOL0     C33031   5.300   3.678   9.329  0.8950 -0.0082  0.3194
  240MOL0     C33032   5.163   3.690   9.312 -0.1512 -0.3486  0.1230
  240MOL0     N33033   4.385   3.714   9.726  0.0266 -0.5728 -0.6542
  240MOL0     N33034   4.274   3.710   9.796 -0.6174  0.5001  0.8040
  240MOL0     C33035   2.988   3.947   9.961 -0.2263  0.5624 -0.0200
  240MOL0     C33036   2.873   4.018   9.968  0.1374  0.2304 -0.5673
  240MOL0     C33037   2.546   4.311   9.943  0.4632 -0.0320 -0.0722
  240MOL0     C33038   2.463   4.239  10.025  0.5851 -0.1708 -0.0025
  240MOL0     C33039   2.335   4.275  10.050  0.4382 -0.4303 -0.2397
  240MOL0     C33040   2.285   4.393   9.990  0.0376 -0.3418 -0.0269
  240MOL0     O33041   2.158   4.431  10.021 -0.1213  0.1354  0.0819
  240MOL0     C33042   2.092   4.534   9.951 -0.4627  1.4268  0.3083
  240MOL0     C33043   1.942   4.538  10.002  0.3727 -0.0773  0.1066
  240MOL0     C33044   1.860   4.636   9.911 -0.4590 -0.1369  0.1800
  240MOL0     C33045   1.713   4.666   9.949 -0.3197 -0.2557 -0.2920
  240MOL0     C33046   1.642   4.734   9.838 -0.3123 -0.1183 -0.5729
  240MOL0     C33047   1.592   4.780   9.742 -0.4799  0.0863  1.0782
  240MOL0     C33048   2.370   4.466   9.905 -0.0811 -0.0981  0.0258
  240MOL0     C33049   2.505   4.432   9.888  0.7635 -0.4665 -0.5250
  240MOL0     C33050   2.603   4.520   9.805  0.5638  1.5424 -0.8175
  240MOL0     H33051   2.989   4.333   9.998 -0.2172  0.3195  2.3509
  240MOL0     H33052   3.194   4.217   9.959 -1.4027  3.1862  2.6467
  240MOL0     H33053   3.349   4.075  10.026 -0.0813 -1.7487  1.9476
  240MOL0     H33054   3.368   4.057   9.848  1.2323 -1.9759 -0.6400
  240MOL0     H33055   3.559   3.937   9.951  0.1688  0.4226  1.0170
  240MOL0     H33056   3.454   3.845  10.064 -1.8756  0.1478  0.2826
  240MOL0     H33057   3.356   3.728   9.881 -1.6832  3.1662  1.1880
  240MOL0     H33058   3.423   3.825   9.760 -2.4755  0.4458 -0.1713
  240MOL0     H33059   3.572   3.617   9.935 -0.0528  0.4233  0.7012
  240MOL0     H33060   3.544   3.616   9.763  3.3746 -0.8372  0.3482
  240MOL0     H33061   3.745   3.793   9.899  2.1402 -0.1797 -0.1846
  240MOL0     H33062   3.706   3.802   9.727  1.4603 -0.2666 -0.5790
  240MOL0     H33063   3.821   3.572   9.878  0.9596  1.5954  0.3554
  240MOL0     H33064   3.783   3.574   9.698 -1.3314 -0.0425  0.5589
  240MOL0     H33065   3.959   3.773   9.854 -0.7480  0.6132 -0.3451
  240MOL0     H33066   3.939   3.781   9.687  0.8475  1.1598  1.5152
  240MOL0     H33067   4.063   3.541   9.854 -0.8557 -1.3200 -1.0022
  240MOL0     H33068   4.028   3.524   9.678 -1.7641 -1.3396  0.8473
  240MOL0     H33069   4.141   3.628   9.503 -1.6845  4.1924  0.4835
  240MOL0     H33070   4.438   3.807   9.429  0.0186 -0.2087  1.0799
  240MOL0     H33071   4.429   3.630   9.403 -0.2353 -1.0494  0.0072
  240MOL0     H33072   4.597   3.758   9.612 -1.0916 -1.3854  0.8157
  240MOL0     H33073   4.603   3.596   9.565  1.4619  0.9578  0.6980
  240MOL0     H33074   4.679   3.650   9.330  0.3829  0.2386  0.4828
  240MOL0     H33075   4.691   3.819   9.382  2.0723  1.3816  1.1136
  240MOL0     H33076   4.849   3.724   9.555 -3.1398  0.8171  0.4251
  240MOL0     H33077   4.829   3.559   9.485  2.4807 -0.6843 -3.6077
  240MOL0     H33078   5.041   3.569   9.607 -0.2890 -2.0665 -0.8229
  240MOL0     H33079   5.224   3.472   9.749  3.9300 -5.9166  1.0404
  240MOL0     H33080   5.370   3.567   9.722  1.1777  0.4735 -1.0686
  240MOL0     H33081   5.331   3.411   9.628 -0.8488  0.0547 -0.1689
  240MOL0     H33082   5.663   3.491   9.703  1.9080  0.3338  1.7727
  240MOL0     H33083   5.905   3.490   9.758 -1.1455  1.0189  0.3178
  240MOL0     H33084   6.209   3.459   9.405  0.8995 -1.4683  1.3174
  240MOL0     H33085   6.158   3.627   9.435 -1.4905  0.6299  1.5730
  240MOL0     H33086   6.304   3.622   9.631 -2.6775  0.2381 -1.0343
  240MOL0     H33087   6.331   3.445   9.606 -0.7440  0.0071 -0.4703
  240MOL0     H33088   6.406   3.663   9.402 -2.0922  0.6571  1.0406
  240MOL0     H33089   6.443   3.487   9.403 -0.3187 -1.4950  1.7472
  240MOL0     H33090   6.573   3.533   9.631  1.7655  0.0289 -0.5263
  240MOL0     H33091   6.552   3.701   9.600  0.2597 -0.1817 -1.6553
  240MOL0     H33092   6.697   3.484   9.437  0.1224 -0.0131  1.6857
  240MOL0     H33093   6.688   3.653   9.390  0.8157  0.3941 -0.2466
  240MOL0     H33094   6.817   3.548   9.643  2.7745 -0.7412 -0.3245
  240MOL0     H33095   6.809   3.730   9.581 -2.2279 -0.3556  1.5165
  240MOL0     H33096   6.938   3.669   9.411  0.5560  0.4111  0.6025
  240MOL0     H33097   6.922   3.492   9.447 -0.7441 -1.2842  3.1457
  240MOL0     H33098   7.035   3.687   9.653  3.0367  1.4866 -1.3011
  240MOL0     H33099   7.154   3.609   9.537 -0.1067 -0.9121 -0.6480
  240MOL0     H33100   5.986   3.510   9.330 -0.0327 -1.8426 -0.5292
  240MOL0     H33101   5.738   3.532   9.290  1.0414 -1.9249  0.1491
  240MOL0     H33102   5.376   3.706   9.257  1.5940 -1.1748  0.5818
  240MOL0     H33103   5.136   3.730   9.215  0.9709  1.0675  0.3539
  240MOL0     H33104   2.993   3.839   9.955  4.8824  0.5387 -0.1132
  240MOL0     H33105   2.775   3.972   9.975  0.2169  0.2727  1.1773
  240MOL0     H33106   2.499   4.147  10.071 -0.1242 -1.2305 -1.4872
  240MOL0     H33107   2.271   4.218  10.116  0.9253  1.3927  1.9370
  240MOL0     H33108   2.141   4.629   9.976 -0.9626  1.5776  0.7571
  240MOL0     H33109   2.104   4.517   9.844 -1.2543  1.2959  0.2283
  240MOL0     H33110   1.950   4.572  10.106  0.5085 -0.1888  0.1335
  240MOL0     H33111   1.895   4.440   9.996  0.4455 -0.0745 -0.6040
  240MOL0     H33112   1.907   4.734   9.907  0.0231 -0.3938 -0.9504
  240MOL0     H33113   1.867   4.598   9.808  2.3336 -2.1076  0.9611
  240MOL0     H33114   1.708   4.729  10.039 -0.9266 -0.0403 -0.4717
  240MOL0     H33115   1.658   4.573   9.963 -0.2814 -0.1137  0.9322
  240MOL0     H33116   1.531   4.836   9.674  2.3892  1.1096 -0.8527
  240MOL0     H33117   2.320   4.545   9.849 -0.3550 -0.7366 -0.6340
  240MOL0     H33118   2.625   4.468   9.711  1.6384  2.1594 -0.9208
  240MOL0     H33119   2.569   4.621   9.781  1.5033  3.0034  3.1329
  240MOL0     H33120   2.696   4.541   9.860 -0.6255 -1.9894  3.0513
  241MOL0     O33121   6.935   4.643   9.905  0.3815  0.2657  0.4173
  241MOL0     C33122   6.907   4.664   9.785 -0.7559  0.4348  0.0838
  241MOL0     O33123   6.857   4.575   9.696  0.3286 -0.5375  0.2580
  241MOL0     C33124   6.832   4.448   9.748 -0.2187 -0.2256  0.2469
  241MOL0     C33125   6.925   4.344   9.756  0.2481  0.3677 -0.2140
  241MOL0     C33126   6.890   4.218   9.812 -0.9257 -0.4849 -0.0625
  241MOL0     C33127   6.755   4.198   9.861 -0.5141  0.4355  1.0319
  241MOL0     O33128   6.721   4.080   9.927  0.4061  0.3814 -0.2739
  241MOL0     C33129   6.714   3.973   9.828  0.2869  0.9818  0.9233
  241MOL0     C33130   6.618   3.862   9.868  0.6026  0.9072 -0.5164
  241MOL0     C33131   6.650   3.809  10.014  0.9892  0.4209  0.0812
  241MOL0     C33132   6.767   3.711  10.025 -0.1740 -0.3834 -1.1636
  241MOL0     C33133   6.750   3.622  10.145  0.9863  0.8119 -0.3911
  241MOL0     C33134   6.730   3.690  10.278 -0.2182  0.0116 -0.1001
  241MOL0     C33135   6.698   3.592  10.396 -0.5987  0.8125  0.7905
  241MOL0     C33136   6.816   3.501  10.432 -0.4874  0.2669 -0.2201
  241MOL0     N33137   6.918   3.585  10.505 -0.3184 -0.0462  0.1250
  241MOL0     C33138   7.048   3.592  10.461  0.3149  0.2853 -0.5121
  241MOL0     C33139   7.124   3.630  10.566 -0.0631 -0.3755 -0.5630
  241MOL0     C33140   7.270   3.657  10.578  0.0102 -0.2040 -0.5883
  241MOL0     C33141   7.342   3.622  10.451  0.3379 -0.3395 -0.3971
  241MOL0     C33142   7.482   3.662  10.478 -0.4149  0.2341 -1.0289
  241MOL0     C33143   7.573   3.627  10.359 -0.0403  0.1940 -0.0982
  241MOL0     O33144   7.614   3.743  10.290  0.1206  0.1186  0.3166
  241MOL0     C33145   7.706   3.727  10.185 -0.3070 -0.0335 -0.6719
  241MOL0     C33146   7.777   3.613  10.156 -0.3132 -0.9522 -0.3365
  241MOL0     C33147   7.864   3.603  10.048  0.5599  0.0893 -0.3280
  241MOL0     C33148   7.925   3.471  10.019  0.8172 -0.1533 -0.2459
  241MOL0     C33149   7.882   3.723   9.969 -0.4325  0.0139  0.0409
  241MOL0     C33150   7.969   3.730   9.852 -0.4854  0.1983  0.5393
  241MOL0     O33151   8.066   3.642   9.845  0.8960  0.1987 -0.4881
  241MOL0     C33152   8.175   3.662   9.764  0.2032 -1.0010  0.9161
  241MOL0     C33153   8.236   3.787   9.735  0.2075  0.3436  0.0830
  241MOL0     C33154   8.339   3.801   9.647  0.0341  0.0196 -0.1207
  241MOL0     C33155   8.411   3.691   9.598  0.8118 -0.4182  0.3631
  241MOL0     O33156   8.528   3.726   9.537  0.2507 -0.4135  0.2721
  241MOL0     C33157   8.637   3.626   9.561  0.0730  0.6376 -0.1167
  241MOL0     C33158   8.624   3.516   9.455  0.5802  0.3740 -0.0184
  241MOL0     C33159   8.653   3.378   9.519 -0.2755  1.1589 -0.3798
  241MOL0     C33160   8.720   3.284   9.417  0.1554 -0.2515  0.7856
  241MOL0     C33161   8.862   3.318   9.381 -0.4899 -0.2612 -0.6730
  241MOL0     C33162   8.947   3.191   9.343  0.9397 -0.3931  0.5675
  241MOL0     C33163   8.995   3.122   9.472  0.0684 -0.4511  0.0052
  241MOL0     C33164   9.115   3.030   9.451 -0.1465 -0.0504 -0.1461
  241MOL0    Cl33165   9.104   2.917   9.582  0.4703 -0.6412  0.0615
  241MOL0     C33166   8.348   3.567   9.630 -0.3240  0.3856 -0.1388
  241MOL0     C33167   8.231   3.553   9.702 -0.6371  0.7192 -0.1780
  241MOL0     O33168   7.948   3.825   9.770 -0.2082 -0.1429 -0.1066
  241MOL0     C33169   7.819   3.842  10.004  0.2008  0.4828 -0.4613
  241MOL0     C33170   7.738   3.837  10.112 -0.2837  0.3904  0.1246
  241MOL0     N33171   7.027   3.662  10.666 -0.5222  0.5785 -0.0486
  241MOL0     N33172   6.909   3.630  10.632 -0.2314  0.2510  0.5791
  241MOL0     C33173   6.662   4.299   9.843  0.4699 -0.5494  0.9179
  241MOL0     C33174   6.710   4.423   9.797  0.0633 -0.2812 -0.3264
  241MOL0     C33175   6.920   4.800   9.734  0.4442  0.0094  0.2175
  241MOL0     C33176   6.808   4.850   9.657 -0.6836 -0.3656  0.0354
  241MOL0     C33177   6.798   4.982   9.609  0.2339  0.5401 -0.3304
  241MOL0     C33178   6.896   5.069   9.647 -0.2651  0.0768  0.2626
  241MOL0     O33179   6.879   5.207   9.624 -0.4564  0.1599  0.4280
  241MOL0     C33180   6.801   5.253   9.508  0.4178 -0.2603  0.6368
  241MOL0     C33181   6.860   5.386   9.460 -0.4837  0.2350  0.6648
  241MOL0     C33182   6.776   5.466   9.357 -0.1144 -1.0784  0.1213
  241MOL0     C33183   6.828   5.609   9.338  0.6101  0.3582 -0.4251
  241MOL0     C33184   6.959   5.614   9.287 -0.8994  0.3187 -0.0876
  241MOL0     C33185   7.070   5.607   9.247  0.4229 -0.2867  1.1545
  241MOL0     C33186   6.996   5.041   9.735  0.2102  1.1382 -0.3093
  241MOL0     C33187   7.009   4.903   9.780  0.2224  0.0326  0.7611
  241MOL0     C33188   7.109   4.882   9.884 -0.4710  0.7414 -0.1920
  241MOL0     H33189   7.027   4.358   9.720  0.4377 -1.5151 -0.4935
  241MOL0     H33190   6.963   4.139   9.822  0.2605  0.4836 -0.7299
  241MOL0     H33191   6.812   3.928   9.813 -0.1743  0.1990  0.1652
  241MOL0     H33192   6.682   4.007   9.729 -2.8327 -1.4876  0.9383
  241MOL0     H33193   6.519   3.909   9.877 -0.7664 -2.0213  1.5697
  241MOL0     H33194   6.620   3.781   9.795 -3.6380 -1.5208  1.6489
  241MOL0     H33195   6.642   3.893  10.083 -0.4570  1.3011 -1.0889
  241MOL0     H33196   6.569   3.736  10.026  2.0936 -1.8492 -4.1824
  241MOL0     H33197   6.765   3.648   9.936  0.0585 -1.5508 -0.3509
  241MOL0     H33198   6.864   3.761  10.022 -1.3747  2.0881 -1.5969
  241MOL0     H33199   6.838   3.558  10.155  0.7195  0.4213 -0.5388
  241MOL0     H33200   6.670   3.548  10.133  3.1103 -1.6180 -0.3961
  241MOL0     H33201   6.823   3.744  10.302  1.1953 -1.9443 -0.8927
  241MOL0     H33202   6.639   3.751  10.272 -0.8686 -0.9580 -0.2578
  241MOL0     H33203   6.617   3.525  10.362  0.7553 -0.8334  0.6841
  241MOL0     H33204   6.669   3.646  10.486 -0.5836 -0.7986  1.8041
  241MOL0     H33205   6.770   3.418  10.487 -0.5887 -0.7725 -1.8163
  241MOL0     H33206   6.863   3.458  10.343 -2.5519  0.9237 -1.6970
  241MOL0     H33207   7.091   3.576  10.363  0.1198 -1.1923 -0.3839
  241MOL0     H33208   7.312   3.605  10.664  2.2279  1.6106 -0.4672
  241MOL0     H33209   7.285   3.762  10.606  1.0593 -0.3884 -0.4129
  241MOL0     H33210   7.330   3.515  10.435 -1.6797  0.0584 -1.9623
  241MOL0     H33211   7.300   3.666  10.360 -0.9312 -2.3130 -0.7996
  241MOL0     H33212   7.500   3.765  10.508  1.6062  0.0585 -1.4944
  241MOL0     H33213   7.528   3.601  10.556  0.1132  1.2212 -0.5566
  241MOL0     H33214   7.660   3.579  10.405 -2.0156 -1.6229  2.0252
  241MOL0     H33215   7.524   3.553  10.294  1.4561 -1.6984  0.8175
  241MOL0     H33216   7.755   3.525  10.216  0.0099 -0.8679 -0.0902
  241MOL0     H33217   8.034   3.466  10.027  0.7586 -2.3397 -0.1094
  241MOL0     H33218   7.898   3.443   9.916  2.5894  4.0295 -2.0651
  241MOL0     H33219   7.882   3.393  10.083  2.1639 -1.2852 -0.6459
  241MOL0     H33220   8.209   3.883   9.777  1.3566 -0.1284  2.0329
  241MOL0     H33221   8.388   3.897   9.632  2.0649 -0.5739  2.0772
  241MOL0     H33222   8.743   3.654   9.559  0.7285 -1.6626 -1.0475
  241MOL0     H33223   8.632   3.595   9.666  2.6896  0.0577 -0.0932
  241MOL0     H33224   8.526   3.520   9.405  0.9968 -1.0630 -0.9993
  241MOL0     H33225   8.693   3.533   9.372  0.6145  3.3141  0.5060
  241MOL0     H33226   8.559   3.343   9.563 -0.0280 -0.5044 -1.0871
  241MOL0     H33227   8.722   3.398   9.602 -1.7446  1.5097  0.8063
  241MOL0     H33228   8.659   3.258   9.330 -0.1714 -0.1762  0.9900
  241MOL0     H33229   8.730   3.187   9.468  0.1662 -0.2275  0.8293
  241MOL0     H33230   8.859   3.389   9.299 -1.2912  0.0127 -0.4212
  241MOL0     H33231   8.915   3.371   9.461  0.6166  0.6315 -1.9576
  241MOL0     H33232   9.032   3.228   9.284  0.6406 -1.1324 -0.3482
  241MOL0     H33233   8.893   3.122   9.278  3.3668 -1.9691  0.0744
  241MOL0     H33234   8.913   3.077   9.528 -0.3288  1.6777  1.2251
  241MOL0     H33235   9.030   3.203   9.537  0.4780  0.7168 -1.6041
  241MOL0     H33236   9.215   3.075   9.457  0.7733 -2.0110  0.5041
  241MOL0     H33237   9.112   2.979   9.354 -1.4454 -2.4131  1.0382
  241MOL0     H33238   8.393   3.475   9.594  3.5521  1.0960  2.2586
  241MOL0     H33239   8.189   3.457   9.727  2.2387 -0.2976  1.1825
  241MOL0     H33240   7.840   3.936   9.953  2.6172  0.3779  0.2022
  241MOL0     H33241   7.682   3.919  10.156 -0.6139 -1.2165  2.8777
  241MOL0     H33242   6.563   4.289   9.884  0.7645 -1.4858  1.4312
  241MOL0     H33243   6.643   4.509   9.788  0.6751  0.8994  3.9510
  241MOL0     H33244   6.728   4.784   9.626 -0.0709 -0.4201 -1.5394
  241MOL0     H33245   6.720   5.002   9.537 -1.1110  1.9720  1.4275
  241MOL0     H33246   6.807   5.182   9.425  0.5941  0.0057  0.4182
  241MOL0     H33247   6.697   5.267   9.538 -0.2907 -0.6292 -1.4372
  241MOL0     H33248   6.959   5.365   9.419 -0.5698 -2.9317  1.7781
  241MOL0     H33249   6.868   5.448   9.550 -1.3570  3.2497 -1.2262
  241MOL0     H33250   6.772   5.416   9.260 -1.5668 -3.4175  1.3017
  241MOL0     H33251   6.672   5.470   9.391 -0.4172 -1.9925 -0.6458
  241MOL0     H33252   6.823   5.664   9.433  1.1037 -0.3252 -0.0000
  241MOL0     H33253   6.769   5.674   9.272  0.6559  0.1843 -0.6393
  241MOL0     H33254   7.167   5.623   9.203  0.5371  0.6171  1.7213
  241MOL0     H33255   7.058   5.120   9.775  1.9710 -1.4484  2.4587
  241MOL0     H33256   7.166   4.976   9.892 -1.2850  1.3664 -1.3824
  241MOL0     H33257   7.065   4.858   9.981  1.8489 -0.4561  0.6492
  241MOL0     H33258   7.171   4.799   9.848 -1.7821 -0.7603  0.8925
  242MOL0     O33259   9.872   8.082   1.301 -0.3609  0.4940 -0.1211
  242MOL0     C33260   9.796   7.999   1.250  0.9045  0.2106  0.7485
  242MOL0     O33261   9.832   7.888   1.175 -0.5983  0.6792 -0.3856
  242MOL0     C33262   9.964   7.895   1.132  0.4122  0.1752  0.4556
  242MOL0     C33263  10.009   8.005   1.061 -0.3351 -0.4961  1.0281
  242MOL0     C33264  10.140   8.004   1.006 -0.3644  0.4668  0.4274
  242MOL0     C33265  10.224   7.890   1.027  0.1256 -0.4144  0.4414
  242MOL0     O33266  10.357   7.881   0.988  0.3380  0.1560  0.4690
  242MOL0     C33267  10.423   7.994   0.937  0.0441  0.4048  0.4828
  242MOL0     C33268  10.558   7.936   0.893 -0.3440  0.4315 -0.3432
  242MOL0     C33269  10.666   8.033   0.848  0.4025 -0.5188 -1.0181
  242MOL0     C33270  10.812   7.974   0.826  0.7739  0.7067  0.7536
  242MOL0     C33271  10.910   8.092   0.787 -0.1560 -0.0963  0.7921
  242MOL0     C33272  11.053   8.042   0.743  0.4075 -0.1836 -0.7863
  242MOL0     C33273  11.134   8.157   0.682 -0.0854 -0.1948  0.4499
  242MOL0     C33274  11.287   8.113   0.670  0.7948 -0.4730 -0.1524
  242MOL0     N33275  11.353   8.075   0.792  0.3378  0.4248 -1.1507
  242MOL0     C33276  11.323   7.962   0.863 -0.2856 -0.4596  0.7444
  242MOL0     C33277  11.393   7.974   0.983  0.7520 -0.7240 -0.1289
  242MOL0     C33278  11.384   7.875   1.096  0.3992  0.1153  0.1148
  242MOL0     C33279  11.462   7.902   1.231  1.0011  0.2439  1.1405
  242MOL0     C33280  11.453   7.775   1.319  0.3413 -0.7882  1.1333
  242MOL0     C33281  11.547   7.805   1.437 -0.1037 -0.0443 -0.4907
  242MOL0     O33282  11.554   7.695   1.533 -0.2925 -0.2943 -0.5767
  242MOL0     C33283  11.464   7.693   1.639  0.1994 -0.6184  0.0363
  242MOL0     C33284  11.352   7.785   1.645 -0.0818  0.0135 -0.6844
  242MOL0     C33285  11.264   7.776   1.753  0.2773  0.5291 -0.2994
  242MOL0     C33286  11.138   7.864   1.734 -0.4487  0.9675  0.2114
  242MOL0     C33287  11.299   7.697   1.864 -0.2827 -0.1935 -0.0818
  242MOL0     C33288  11.207   7.696   1.976 -0.0816  0.0186  0.0640
  242MOL0     O33289  11.157   7.572   1.998 -0.4811  0.5766 -0.5919
  242MOL0     C33290  11.044   7.556   2.068  0.2553 -0.4583  0.5140
  242MOL0     C33291  11.045   7.481   2.185  0.4601 -0.1113  0.8121
  242MOL0     C33292  10.921   7.461   2.247 -0.3098  0.0781  0.2604
  242MOL0     C33293  10.804   7.523   2.195 -0.4255 -0.8605 -0.6247
  242MOL0     O33294  10.680   7.494   2.246 -0.1049 -0.6201  0.2549
  242MOL0     C33295  10.649   7.358   2.239 -0.3012 -0.1642  0.3123
  242MOL0     C33296  10.496   7.348   2.248  0.1207  0.1170 -0.5905
  242MOL0     C33297  10.446   7.383   2.388  0.3217 -0.1825 -0.0974
  242MOL0     C33298  10.295   7.385   2.384  0.2495  0.2112 -0.2574
  242MOL0     C33299  10.222   7.397   2.517 -0.8727 -0.3096 -0.1679
  242MOL0     C33300  10.072   7.417   2.505 -0.6540  0.1376  0.1171
  242MOL0     C33301  10.001   7.363   2.628  0.3937  0.6251  0.0038
  242MOL0     C33302   9.849   7.386   2.617 -0.5543  0.0083 -0.3420
  242MOL0    Cl33303   9.798   7.551   2.668 -0.4264  0.2165 -0.0864
  242MOL0     C33304  10.800   7.592   2.078  0.2995  0.0690 -0.1168
  242MOL0     C33305  10.920   7.606   2.018  0.2989 -0.6623 -0.1977
  242MOL0     O33306  11.165   7.801   2.024 -0.1991 -0.0957 -0.1075
  242MOL0     C33307  11.422   7.619   1.865  1.5337 -0.0015 -0.6878
  242MOL0     C33308  11.497   7.606   1.749  0.0874  0.3237  0.0190
  242MOL0     N33309  11.470   8.087   0.972 -0.2412 -0.6410  0.7247
  242MOL0     N33310  11.450   8.145   0.860 -0.1608 -0.2174 -0.0764
  242MOL0     C33311  10.178   7.785   1.106 -0.2010  0.1513 -0.4217
  242MOL0     C33312  10.050   7.793   1.160 -0.7632  0.2457  0.0191
  242MOL0     C33313   9.647   7.997   1.282  0.1654  0.3900 -1.3377
  242MOL0     C33314   9.585   7.879   1.323  0.3244  0.0711 -0.0532
  242MOL0     C33315   9.452   7.885   1.377 -0.1514 -0.4918  0.6998
  242MOL0     C33316   9.377   8.007   1.378 -0.3609  0.0532  0.0885
  242MOL0     O33317   9.259   8.026   1.433  0.7785  0.7122 -0.2423
  242MOL0     C33318   9.218   7.927   1.529  0.3362 -0.2594 -0.3731
  242MOL0     C33319   9.099   7.986   1.611 -0.2598  0.5040  0.3659
  242MOL0     C33320   9.050   7.883   1.713 -0.0807  0.3115  0.1431
  242MOL0     C33321   8.896   7.888   1.735 -0.1221  1.0614  0.5788
  242MOL0     C33322   8.850   7.802   1.842  0.5320  0.1743 -0.2154
  242MOL0     C33323   8.817   7.721   1.922  0.7389 -0.2233 -0.1720
  242MOL0     C33324   9.434   8.116   1.321  0.4529  0.1461  0.9335
  242MOL0     C33325   9.572   8.114   1.287  0.4327 -0.4967  1.1190
  242MOL0     C33326   9.646   8.243   1.264  0.2272 -0.0091  0.8291
  242MOL0     H33327   9.945   8.090   1.040  1.6084  0.8819  0.3588
  242MOL0     H33328  10.182   8.089   0.954  0.5087  0.6002  1.3222
  242MOL0     H33329  10.434   8.075   1.010 -0.4258  1.7126 -0.8575
  242MOL0     H33330  10.375   8.034   0.847  0.4542 -3.2756 -1.5785
  242MOL0     H33331  10.597   7.875   0.975  1.0229  2.8250  0.8835
  242MOL0     H33332  10.542   7.871   0.806 -0.1913  2.3160 -1.8407
  242MOL0     H33333  10.634   8.085   0.758 -1.8140 -3.5688 -2.1327
  242MOL0     H33334  10.675   8.109   0.927 -1.0889 -0.6125 -0.7356
  242MOL0     H33335  10.847   7.924   0.916  1.1316 -0.9616 -0.2765
  242MOL0     H33336  10.822   7.904   0.742  1.4934 -1.8489  2.8457
  242MOL0     H33337  10.920   8.145   0.882  4.1513  0.1974  0.3341
  242MOL0     H33338  10.864   8.160   0.715  1.1768  0.8529  0.7929
  242MOL0     H33339  11.097   8.008   0.837  2.9573 -0.4894 -2.0092
  242MOL0     H33340  11.053   7.964   0.666 -2.5824 -1.9116  0.7546
  242MOL0     H33341  11.128   8.244   0.748 -0.5508  0.4920 -0.4660
  242MOL0     H33342  11.088   8.183   0.586 -0.3752 -0.9273  0.3867
  242MOL0     H33343  11.305   8.033   0.598  0.0495 -1.7833  1.0600
  242MOL0     H33344  11.335   8.200   0.624  0.8342  0.2827  1.2558
  242MOL0     H33345  11.255   7.889   0.822 -0.1655 -1.1974  1.8057
  242MOL0     H33346  11.421   7.776   1.068  0.9949  0.1710  0.6972
  242MOL0     H33347  11.278   7.855   1.117  0.1375 -0.6628 -1.7372
  242MOL0     H33348  11.566   7.925   1.208  0.8281 -0.0414 -0.0360
  242MOL0     H33349  11.413   7.982   1.287 -1.0101  0.7598 -1.1679
  242MOL0     H33350  11.359   7.743   1.366 -1.4028  1.5607 -0.5174
  242MOL0     H33351  11.486   7.679   1.278  1.2040 -1.0776  2.4381
  242MOL0     H33352  11.643   7.809   1.385  0.1351 -3.2399 -0.4564
  242MOL0     H33353  11.528   7.903   1.482  0.6180 -1.1110  2.3647
  242MOL0     H33354  11.328   7.863   1.573 -1.0129 -1.2455 -1.7730
  242MOL0     H33355  11.051   7.824   1.786 -0.0983  2.6368  2.1991
  242MOL0     H33356  11.117   7.858   1.627 -0.7869  1.4135  0.2480
  242MOL0     H33357  11.157   7.968   1.764  0.7616  0.4998  1.1395
  242MOL0     H33358  11.132   7.428   2.223 -1.1829 -3.2727  0.5548
  242MOL0     H33359  10.922   7.395   2.334 -2.2185  1.7863  1.6578
  242MOL0     H33360  10.678   7.312   2.144 -2.4010 -0.8059 -0.0728
  242MOL0     H33361  10.696   7.292   2.313 -2.3613 -2.7481 -0.5041
  242MOL0     H33362  10.448   7.422   2.184 -2.2004 -0.7659  0.0261
  242MOL0     H33363  10.457   7.250   2.218  1.5114  0.0933 -2.5186
  242MOL0     H33364  10.481   7.484   2.412 -0.1052  0.1425 -0.8049
  242MOL0     H33365  10.492   7.308   2.453  1.3832 -0.2357 -0.8990
  242MOL0     H33366  10.271   7.286   2.345  0.6599  0.5474 -1.4019
  242MOL0     H33367  10.254   7.468   2.326  0.4719  2.5185  2.6652
  242MOL0     H33368  10.247   7.310   2.580 -2.7501 -0.5391  0.3075
  242MOL0     H33369  10.266   7.488   2.559 -0.6858 -0.2502 -0.4860
  242MOL0     H33370  10.032   7.369   2.415 -0.2359 -0.2904  0.1562
  242MOL0     H33371  10.049   7.523   2.495  0.6851  0.3224 -1.4254
  242MOL0     H33372  10.041   7.402   2.722 -1.1579 -2.6676  2.2265
  242MOL0     H33373  10.011   7.254   2.631 -0.7572  0.4530 -1.0881
  242MOL0     H33374   9.794   7.309   2.672  3.0662 -2.4088  0.2961
  242MOL0     H33375   9.819   7.379   2.513 -0.0121  1.6257 -0.6357
  242MOL0     H33376  10.713   7.639   2.035  1.1312  1.2377 -0.5739
  242MOL0     H33377  10.920   7.679   1.938 -1.3873 -0.7864 -0.3449
  242MOL0     H33378  11.448   7.558   1.952 -0.4945  0.4170  0.2747
  242MOL0     H33379  11.584   7.541   1.739 -1.7434 -1.9903 -2.1145
  242MOL0     H33380  10.241   7.698   1.126 -0.2494  0.3672  0.7100
  242MOL0     H33381  10.008   7.711   1.218 -2.8286  0.1765 -1.4549
  242MOL0     H33382   9.633   7.782   1.333  1.4184  0.7830  2.1705
  242MOL0     H33383   9.413   7.789   1.409  1.7469 -1.0688  1.4203
  242MOL0     H33384   9.177   7.835   1.488 -2.5311 -0.7864  3.1329
  242MOL0     H33385   9.304   7.906   1.593  1.7487  2.7520 -1.0959
  242MOL0     H33386   9.025   8.018   1.537  2.2105  0.5385 -2.3034
  242MOL0     H33387   9.143   8.074   1.660 -0.7466  1.6977 -1.2379
  242MOL0     H33388   9.073   7.779   1.691  0.5478  0.5945 -0.5688
  242MOL0     H33389   9.085   7.908   1.813 -1.2845 -1.4433  1.0362
  242MOL0     H33390   8.846   7.870   1.639  1.3376  2.8053 -0.5965
  242MOL0     H33391   8.864   7.986   1.771 -1.8707  0.6003  0.3511
  242MOL0     H33392   8.795   7.649   1.998 -0.3402  1.1384  0.8758
  242MOL0     H33393   9.380   8.210   1.321  0.5248  0.2734 -2.0976
  242MOL0     H33394   9.586   8.332   1.243  2.5798  0.8585 -3.2985
  242MOL0     H33395   9.715   8.268   1.345 -0.5594  0.1554  1.4629
  242MOL0     H33396   9.703   8.227   1.172 -0.5082 -1.3938  0.5949
  243MOL0     O33397   6.753   0.408   6.785  0.7067 -0.1236 -0.0187
  243MOL0     C33398   6.775   0.499   6.706 -0.0649 -0.6319  0.2858
  243MOL0     O33399   6.685   0.598   6.667 -0.2934 -0.3528 -0.1142
  243MOL0     C33400   6.553   0.569   6.661  0.2811 -1.2328  0.4911
  243MOL0     C33401   6.490   0.446   6.667  0.6358  0.5598 -0.3982
  243MOL0     C33402   6.354   0.442   6.639  0.1051  0.2391  0.3822
  243MOL0     C33403   6.264   0.542   6.608  0.1349 -0.3267 -0.4919
  243MOL0     O33404   6.125   0.535   6.600  0.2106 -0.3921  0.2945
  243MOL0     C33405   6.051   0.477   6.707 -0.6536  0.4619  0.2988
  243MOL0     C33406   5.910   0.521   6.694 -0.0568 -0.4410  0.9401
  243MOL0     C33407   5.872   0.666   6.684  0.0768  0.1480 -0.4834
  243MOL0     C33408   5.723   0.687   6.640  0.1319 -0.5376  0.3116
  243MOL0     C33409   5.696   0.827   6.593  1.1575 -0.2483  0.2914
  243MOL0     C33410   5.546   0.835   6.546 -0.2634 -0.1577  0.2747
  243MOL0     C33411   5.496   0.979   6.513 -0.6064  0.3948 -0.3725
  243MOL0     C33412   5.561   1.040   6.385  0.2398  0.1984  0.0943
  243MOL0     N33413   5.696   1.090   6.415 -0.8570 -0.2481 -0.3391
  243MOL0     C33414   5.734   1.172   6.521 -0.4257  0.9703  0.3787
  243MOL0     C33415   5.872   1.168   6.515  0.5400 -0.4999 -0.3968
  243MOL0     C33416   5.967   1.264   6.587 -0.6924 -0.3930 -0.1963
  243MOL0     C33417   6.123   1.236   6.590  0.1498  0.0823  0.2911
  243MOL0     C33418   6.171   1.103   6.650 -1.2222  0.0311 -0.0158
  243MOL0     C33419   6.313   1.078   6.588  0.7683 -0.0229 -0.0550
  243MOL0     O33420   6.383   1.024   6.697 -0.2374 -0.3026 -1.1182
  243MOL0     C33421   6.515   1.042   6.712  0.0757  0.6424  0.3844
  243MOL0     C33422   6.594   1.024   6.600  0.1568 -0.7165 -0.2269
  243MOL0     C33423   6.731   1.026   6.614 -0.2980 -0.0740  1.1237
  243MOL0     C33424   6.815   1.010   6.493 -0.1839  0.5720  0.2599
  243MOL0     C33425   6.798   1.046   6.737  0.7141 -0.1227 -0.0539
  243MOL0     C33426   6.941   1.046   6.744 -0.0742 -1.3579 -0.8050
  243MOL0     O33427   6.999   1.153   6.810  0.1119  0.7868 -0.3555
  243MOL0     C33428   7.130   1.136   6.826 -0.3837 -0.4581 -0.5873
  243MOL0     C33429   7.186   1.097   6.951  0.4378 -0.3064 -0.1112
  243MOL0     C33430   7.328   1.100   6.962  0.5787  0.6798 -0.5246
  243MOL0     C33431   7.412   1.116   6.855 -0.2799  0.4406 -0.0820
  243MOL0     O33432   7.548   1.100   6.883 -1.0504  0.2219  0.1249
  243MOL0     C33433   7.640   1.180   6.816  0.2557  0.6342  0.3158
  243MOL0     C33434   7.792   1.150   6.860  0.2833 -0.2369  0.0553
  243MOL0     C33435   7.876   1.257   6.787  0.2638 -0.1953  0.5019
  243MOL0     C33436   8.031   1.205   6.774 -0.5577  0.3084 -0.9293
  243MOL0     C33437   8.116   1.302   6.695  0.0678  0.3209 -0.4114
  243MOL0     C33438   8.255   1.244   6.663  0.4742  0.5619 -0.1508
  243MOL0     C33439   8.354   1.345   6.623 -0.0231 -0.1967 -0.1018
  243MOL0     C33440   8.329   1.410   6.482 -0.6760  0.1261 -1.0201
  243MOL0    Cl33441   8.468   1.501   6.425  0.3108  0.1378 -0.0932
  243MOL0     C33442   7.361   1.145   6.723 -0.2934 -0.4211 -0.8078
  243MOL0     C33443   7.221   1.162   6.719 -0.0219  0.2572  0.6394
  243MOL0     O33444   7.000   0.949   6.695  0.0651 -0.5074 -0.3247
  243MOL0     C33445   6.714   1.064   6.850 -0.7739  0.8388 -0.1009
  243MOL0     C33446   6.574   1.057   6.835  0.6317 -0.5390  0.0206
  243MOL0     N33447   5.910   1.089   6.417 -0.0502 -0.1955 -0.0092
  243MOL0     N33448   5.809   1.045   6.361 -0.1853 -0.0598  0.8980
  243MOL0     C33449   6.330   0.665   6.593  0.5970 -0.4923 -1.2223
  243MOL0     C33450   6.467   0.677   6.617 -0.1349 -0.1443 -0.3949
  243MOL0     C33451   6.911   0.521   6.640  0.5483  0.7781  0.6219
  243MOL0     C33452   6.945   0.647   6.592 -0.7291 -0.9677 -0.3343
  243MOL0     C33453   7.070   0.683   6.545 -0.2199 -0.5349 -0.0442
  243MOL0     C33454   7.164   0.584   6.527  0.2505  1.3217 -0.7280
  243MOL0     O33455   7.277   0.596   6.458  0.7079  0.4570  0.4202
  243MOL0     C33456   7.390   0.628   6.542  0.1815 -0.4528 -0.3168
  243MOL0     C33457   7.512   0.588   6.458 -0.1583 -0.9774  0.4349
  243MOL0     C33458   7.584   0.473   6.522 -0.5022 -0.2932  0.1740
  243MOL0     C33459   7.706   0.450   6.431  0.3899 -0.1716 -0.4264
  243MOL0     C33460   7.774   0.328   6.473 -0.8178  0.4345  0.6126
  243MOL0     C33461   7.850   0.236   6.504  0.5270  0.0739 -0.8004
  243MOL0     C33462   7.137   0.450   6.575  0.3701 -0.8001 -0.5341
  243MOL0     C33463   7.016   0.419   6.634 -0.8931 -0.5726 -0.3573
  243MOL0     C33464   6.998   0.282   6.698 -0.0055  1.1440 -0.6351
  243MOL0     H33465   6.545   0.354   6.686  3.0565  1.0187 -4.1528
  243MOL0     H33466   6.317   0.344   6.667  2.1580 -0.2401  1.6633
  243MOL0     H33467   6.092   0.520   6.799  0.0100  2.3736 -0.8323
  243MOL0     H33468   6.044   0.368   6.702 -3.5816  0.6192 -0.7824
  243MOL0     H33469   5.878   0.466   6.604  2.9459 -0.3643 -0.2741
  243MOL0     H33470   5.858   0.482   6.782 -0.1788  1.0092  1.5297
  243MOL0     H33471   5.894   0.718   6.778  2.2596 -1.5860  0.0381
  243MOL0     H33472   5.934   0.716   6.610 -1.8063  1.0675 -1.5329
  243MOL0     H33473   5.694   0.609   6.568  0.1144 -1.0523  0.8756
  243MOL0     H33474   5.656   0.663   6.723  0.9308  1.3983  1.6001
  243MOL0     H33475   5.763   0.863   6.514  0.9290  0.1541  0.2767
  243MOL0     H33476   5.718   0.898   6.674  1.7886  1.8055 -1.5566
  243MOL0     H33477   5.551   0.786   6.448  0.5135  0.7341 -0.1562
  243MOL0     H33478   5.481   0.782   6.615  2.9686  0.1149  3.9252
  243MOL0     H33479   5.514   1.042   6.601  0.6050  0.2103 -0.4693
  243MOL0     H33480   5.387   0.977   6.503 -0.8136  1.0511  1.4029
  243MOL0     H33481   5.551   0.961   6.309 -2.8144 -0.2792  0.8417
  243MOL0     H33482   5.498   1.122   6.349 -1.1788 -1.0007 -0.2872
  243MOL0     H33483   5.668   1.230   6.585  0.2101  0.0134  1.9666
  243MOL0     H33484   5.931   1.270   6.690 -0.3250 -3.2692  0.1794
  243MOL0     H33485   5.947   1.361   6.539  0.9269 -0.4432 -1.0383
  243MOL0     H33486   6.162   1.238   6.488 -0.9085 -2.3589 -0.2311
  243MOL0     H33487   6.169   1.313   6.653 -1.1843 -0.5364  2.0886
  243MOL0     H33488   6.168   1.116   6.758  1.1071 -1.6943  0.3367
  243MOL0     H33489   6.114   1.014   6.621  0.7375 -1.1730 -0.3840
  243MOL0     H33490   6.319   1.011   6.502 -0.1874 -1.2966  0.8259
  243MOL0     H33491   6.361   1.175   6.573 -1.1131  0.9327 -0.2145
  243MOL0     H33492   6.553   1.009   6.501 -4.4164 -0.7640  1.4567
  243MOL0     H33493   6.885   1.094   6.486 -0.1813  0.6505  1.0938
  243MOL0     H33494   6.761   1.011   6.398  0.8966 -0.9633 -0.4224
  243MOL0     H33495   6.860   0.910   6.492  0.5579  0.8725 -1.7061
  243MOL0     H33496   7.122   1.065   7.033  0.0995 -0.0695 -0.2808
  243MOL0     H33497   7.376   1.083   7.058  0.9993 -1.6942 -1.0880
  243MOL0     H33498   7.640   1.159   6.708 -0.4737  1.7642  0.0766
  243MOL0     H33499   7.622   1.286   6.839  1.9639  1.2616 -1.0314
  243MOL0     H33500   7.801   1.172   6.966 -0.6200 -0.7349  0.2432
  243MOL0     H33501   7.822   1.047   6.838 -2.2355 -1.0643  0.1012
  243MOL0     H33502   7.855   1.355   6.832 -3.7307 -1.8745  2.8747
  243MOL0     H33503   7.832   1.260   6.687 -1.7161  0.7114  1.3609
  243MOL0     H33504   8.032   1.112   6.716 -2.0113 -1.5123  1.7189
  243MOL0     H33505   8.072   1.189   6.874  1.6501 -0.2326 -1.8638
  243MOL0     H33506   8.067   1.334   6.603 -0.4194 -1.9108 -0.9812
  243MOL0     H33507   8.121   1.396   6.752 -0.9978 -0.2217  0.5989
  243MOL0     H33508   8.241   1.178   6.576  0.1440 -1.9970  1.7317
  243MOL0     H33509   8.297   1.193   6.750  3.6789 -0.1163 -1.9317
  243MOL0     H33510   8.458   1.311   6.621  0.0904  0.1568 -0.3157
  243MOL0     H33511   8.347   1.420   6.702 -1.6619 -1.5699  1.1355
  243MOL0     H33512   8.247   1.483   6.489 -0.9339  0.0165 -2.4661
  243MOL0     H33513   8.286   1.342   6.408 -1.8928  0.5712 -0.7545
  243MOL0     H33514   7.429   1.181   6.646  0.6773 -0.5784 -0.0527
  243MOL0     H33515   7.174   1.178   6.622  0.3749  1.4585  0.6288
  243MOL0     H33516   6.753   1.075   6.951 -4.6715 -1.2171  1.8835
  243MOL0     H33517   6.512   1.064   6.924 -1.3944  0.9907 -1.4231
  243MOL0     H33518   6.267   0.748   6.565 -1.2093 -2.1275 -2.2784
  243MOL0     H33519   6.505   0.778   6.619  0.6808 -0.3559 -2.7095
  243MOL0     H33520   6.865   0.716   6.615  0.8378 -0.2201  3.8667
  243MOL0     H33521   7.078   0.786   6.513 -1.9092 -0.2083  0.4845
  243MOL0     H33522   7.387   0.737   6.538 -1.9316 -0.4883 -0.6021
  243MOL0     H33523   7.387   0.588   6.644  3.2474 -1.5958 -0.5810
  243MOL0     H33524   7.578   0.674   6.445  1.3180 -2.1664 -0.2774
  243MOL0     H33525   7.484   0.564   6.355 -2.8456 -1.3254  1.1621
  243MOL0     H33526   7.615   0.500   6.623  0.6080  0.1144 -0.2548
  243MOL0     H33527   7.533   0.377   6.529 -0.7964 -0.2445 -1.0247
  243MOL0     H33528   7.769   0.537   6.447 -0.1428  0.0418  0.6484
  243MOL0     H33529   7.688   0.467   6.324  2.4918  0.9455 -0.6568
  243MOL0     H33530   7.917   0.158   6.534 -1.3977 -0.2426  3.2291
  243MOL0     H33531   7.212   0.372   6.585 -0.5892 -1.6652  0.1064
  243MOL0     H33532   6.983   0.292   6.806  2.2488  3.3379 -0.4284
  243MOL0     H33533   6.914   0.230   6.651 -0.4401  1.5783 -0.3518
  243MOL0     H33534   7.090   0.224   6.702  1.7330  3.8117  2.0348
  244MOL0     O33535   7.577   3.976   1.591 -0.5171 -0.3849  0.3313
  244MOL0     C33536   7.602   3.988   1.473  0.0391  0.3737  0.0393
  244MOL0     O33537   7.506   3.996   1.379 -0.0544  0.0505 -0.2383
  244MOL0     C33538   7.380   3.986   1.419  0.0299  0.4269 -0.1912
  244MOL0     C33539   7.320   3.891   1.502 -0.0140  0.0190 -0.2162
  244MOL0     C33540   7.186   3.886   1.516  0.8986 -0.2660  0.2511
  244MOL0     C33541   7.101   3.965   1.447  1.0163 -1.7285  0.4795
  244MOL0     O33542   6.959   3.952   1.438 -0.6778  0.1150 -0.5605
  244MOL0     C33543   6.902   3.839   1.507 -0.3170 -0.1526  0.0803
  244MOL0     C33544   6.750   3.831   1.475 -0.4000  0.6182 -0.4052
  244MOL0     C33545   6.697   3.687   1.499 -0.4720 -0.2348 -0.7041
  244MOL0     C33546   6.740   3.634   1.632  0.8021 -0.4937  0.2974
  244MOL0     C33547   6.666   3.499   1.672  0.2304 -0.1457 -0.5485
  244MOL0     C33548   6.671   3.471   1.820 -0.8404  0.4711  0.5214
  244MOL0     C33549   6.581   3.351   1.864  0.0513  0.2856  0.0937
  244MOL0     C33550   6.607   3.314   2.009  1.0147  0.8524  0.6957
  244MOL0     N33551   6.529   3.192   2.047  1.2704  0.3440  0.2747
  244MOL0     C33552   6.548   3.066   1.989  0.3617 -0.1558 -0.3296
  244MOL0     C33553   6.441   2.997   2.029 -0.7225 -0.2922  0.2201
  244MOL0     C33554   6.417   2.858   1.978  0.1345 -0.0246 -0.0718
  244MOL0     C33555   6.387   2.874   1.823  0.5921 -0.2423  0.1300
  244MOL0     C33556   6.341   2.738   1.760 -0.8617  0.1712 -0.9425
  244MOL0     C33557   6.286   2.760   1.620  0.5734 -0.2434  0.2706
  244MOL0     O33558   6.402   2.824   1.550 -0.0917  0.2219  0.8161
  244MOL0     C33559   6.379   2.861   1.417  0.4946 -0.2623  0.3268
  244MOL0     C33560   6.474   2.830   1.324  0.6851  0.0945  0.5062
  244MOL0     C33561   6.463   2.842   1.193  0.4892 -0.1372 -0.1747
  244MOL0     C33562   6.560   2.778   1.112  0.1435 -0.6438 -0.3789
  244MOL0     C33563   6.349   2.904   1.139  0.1889 -0.7997 -0.5885
  244MOL0     C33564   6.319   2.923   0.994 -0.0457  0.6744  0.6097
  244MOL0     O33565   6.260   3.040   0.951 -0.1739 -0.6242 -0.5990
  244MOL0     C33566   6.236   3.060   0.811  0.6416  0.9390 -0.0216
  244MOL0     C33567   6.293   3.172   0.749 -0.7997 -0.6459  0.2229
  244MOL0     C33568   6.257   3.197   0.621  0.2340 -0.3710  0.5655
  244MOL0     C33569   6.166   3.120   0.543  0.6157 -0.1390 -0.2925
  244MOL0     O33570   6.153   3.148   0.407  0.0805  0.0435  0.2080
  244MOL0     C33571   6.113   3.049   0.307 -0.6843  0.0592 -0.1147
  244MOL0     C33572   6.183   3.081   0.169  0.6395 -0.4606 -0.8013
  244MOL0     C33573   6.134   3.223   0.119  0.2702  0.1374  0.1174
  244MOL0     C33574   5.995   3.202   0.055 -0.5567 -0.1029 -0.0131
  244MOL0     C33575   5.912   3.328   0.058 -0.4503  0.2648 -0.0043
  244MOL0     C33576   5.805   3.337  -0.053 -0.2418 -0.3365 -0.1600
  244MOL0     C33577   5.707   3.219  -0.063  0.6713 -0.0852  0.5200
  244MOL0     C33578   5.613   3.245  -0.179 -0.1712 -0.9298  0.3248
  244MOL0    Cl33579   5.695   3.232  -0.337 -0.0983 -0.6582 -0.1704
  244MOL0     C33580   6.119   3.008   0.607 -0.4391 -0.2419  0.3852
  244MOL0     C33581   6.146   2.976   0.745 -0.3635 -0.7137  1.1100
  244MOL0     O33582   6.343   2.823   0.923  0.8520 -0.1992 -0.2951
  244MOL0     C33583   6.257   2.964   1.232  0.5516 -0.0517  0.0953
  244MOL0     C33584   6.260   2.940   1.374 -0.5174  0.6667 -0.3411
  244MOL0     N33585   6.356   3.083   2.102 -0.6586  0.5520 -0.2086
  244MOL0     N33586   6.410   3.195   2.117  0.0106  0.3459  0.1207
  244MOL0     C33587   7.155   4.072   1.371  0.1050  0.6376 -0.7037
  244MOL0     C33588   7.299   4.075   1.350  0.8647  0.0641  0.2399
  244MOL0     C33589   7.751   4.013   1.446  0.3850  0.5661  0.3394
  244MOL0     C33590   7.835   4.022   1.559 -0.0264  0.5086  0.0755
  244MOL0     C33591   7.970   4.049   1.543 -0.2332 -0.2428 -0.4514
  244MOL0     C33592   8.022   4.081   1.417 -0.4960  0.9403  1.1168
  244MOL0     O33593   8.154   4.112   1.404 -0.5322  0.6862  0.4827
  244MOL0     C33594   8.207   4.075   1.279 -0.7168 -0.3719  0.9696
  244MOL0     C33595   8.355   4.077   1.288 -0.0974  0.3157 -0.0812
  244MOL0     C33596   8.420   4.183   1.377  0.6113 -1.0829  0.5724
  244MOL0     C33597   8.371   4.322   1.334  0.1399 -0.5695  0.6953
  244MOL0     C33598   8.401   4.360   1.195  0.4453 -0.4337  0.3263
  244MOL0     C33599   8.408   4.394   1.079  0.2677  0.4143  0.3790
  244MOL0     C33600   7.932   4.073   1.308  0.0913 -0.6373 -0.4077
  244MOL0     C33601   7.800   4.034   1.314 -0.4635 -0.1729 -0.5258
  244MOL0     C33602   7.715   4.026   1.187 -0.5833  0.8104 -0.3850
  244MOL0     H33603   7.384   3.820   1.554 -2.0474 -2.0606 -0.3922
  244MOL0     H33604   7.142   3.806   1.575 -1.7102  0.1109 -1.0083
  244MOL0     H33605   6.920   3.842   1.615  2.5795 -3.0706 -0.1638
  244MOL0     H33606   6.953   3.748   1.474  2.1139  2.2583 -3.5455
  244MOL0     H33607   6.710   3.902   1.548 -2.4051 -1.0090  0.1838
  244MOL0     H33608   6.724   3.857   1.372  3.3102 -0.5279 -1.7929
  244MOL0     H33609   6.587   3.688   1.495 -0.4917 -1.9166 -1.2810
  244MOL0     H33610   6.738   3.617   1.427 -0.0200 -0.0128 -0.6676
  244MOL0     H33611   6.848   3.618   1.630  0.8065 -1.2605  2.8455
  244MOL0     H33612   6.717   3.711   1.706  1.4608  0.6342 -0.6543
  244MOL0     H33613   6.691   3.409   1.614  0.2083  0.8719 -2.1965
  244MOL0     H33614   6.560   3.517   1.650 -0.8595  0.5952  4.1849
  244MOL0     H33615   6.775   3.446   1.842 -1.1783 -1.7465 -0.1129
  244MOL0     H33616   6.641   3.564   1.868 -0.6437  1.2720 -0.8467
  244MOL0     H33617   6.598   3.265   1.798 -0.3093  1.0391 -1.0052
  244MOL0     H33618   6.477   3.374   1.838 -0.2632 -1.3676 -0.2548
  244MOL0     H33619   6.714   3.298   2.025  1.3621  2.0565 -0.2655
  244MOL0     H33620   6.580   3.407   2.060  3.8020  4.5473 -3.6843
  244MOL0     H33621   6.611   3.023   1.911 -1.8009 -1.1793 -1.5799
  244MOL0     H33622   6.327   2.822   2.028  0.7242 -1.5041 -0.0391
  244MOL0     H33623   6.507   2.803   2.008 -0.0456  0.7124  1.9591
  244MOL0     H33624   6.304   2.945   1.826  0.8881  0.1061  3.3010
  244MOL0     H33625   6.470   2.923   1.771 -0.2942 -0.4969 -1.5836
  244MOL0     H33626   6.431   2.677   1.752  1.2558  2.8419  1.0141
  244MOL0     H33627   6.267   2.693   1.826 -0.2028  1.1712  0.5102
  244MOL0     H33628   6.265   2.665   1.570  0.4682 -0.5709  0.9230
  244MOL0     H33629   6.199   2.825   1.627  0.4708 -0.1777 -1.1968
  244MOL0     H33630   6.565   2.780   1.355  0.5859  0.5309  1.5500
  244MOL0     H33631   6.591   2.860   1.047  0.9081 -0.3386  0.3600
  244MOL0     H33632   6.518   2.694   1.055 -0.7468 -0.8084  0.4833
  244MOL0     H33633   6.653   2.758   1.165 -0.4320  0.7353  1.2363
  244MOL0     H33634   6.360   3.235   0.807 -1.8908 -1.0814  2.0152
  244MOL0     H33635   6.306   3.275   0.564 -1.1786 -1.5047 -2.3913
  244MOL0     H33636   6.140   2.947   0.338  0.9222 -0.2274 -2.1801
  244MOL0     H33637   6.004   3.057   0.299 -0.8467 -1.3074  0.3714
  244MOL0     H33638   6.289   3.085   0.194  0.5843  1.8380 -0.6915
  244MOL0     H33639   6.157   2.998   0.103  0.5875 -1.0785 -0.0230
  244MOL0     H33640   6.203   3.265   0.044 -0.5723  1.0934 -0.1383
  244MOL0     H33641   6.136   3.302   0.195  1.4690  1.0606 -0.8290
  244MOL0     H33642   5.940   3.123   0.107  0.1808  0.2245  1.3113
  244MOL0     H33643   6.003   3.165  -0.047  2.9980 -2.2371  0.8805
  244MOL0     H33644   5.875   3.344   0.160  0.5509  0.0046  0.4102
  244MOL0     H33645   5.983   3.411   0.046 -0.0200 -0.0355  0.4343
  244MOL0     H33646   5.862   3.341  -0.146  0.1316 -1.0386  0.0351
  244MOL0     H33647   5.746   3.428  -0.039  1.5484  0.7784  0.6040
  244MOL0     H33648   5.641   3.203   0.023  0.4485 -1.4751  0.1190
  244MOL0     H33649   5.759   3.125  -0.083 -2.9895 -2.2900  0.4043
  244MOL0     H33650   5.567   3.344  -0.179  1.9833  0.1305  0.9044
  244MOL0     H33651   5.536   3.166  -0.183 -1.8677  0.7037 -2.0522
  244MOL0     H33652   6.051   2.940   0.557 -2.2204  0.1220  2.1708
  244MOL0     H33653   6.098   2.892   0.794 -0.9221 -1.1423 -0.1370
  244MOL0     H33654   6.177   3.019   1.183  2.1717  0.4444 -2.1428
  244MOL0     H33655   6.193   2.978   1.450 -0.4997  0.7200 -0.3523
  244MOL0     H33656   7.096   4.150   1.323 -2.1001 -0.8649 -0.5831
  244MOL0     H33657   7.329   4.143   1.271 -1.2169 -0.0454 -0.7187
  244MOL0     H33658   7.811   3.990   1.660  1.4041  2.3769  1.0692
  244MOL0     H33659   8.045   4.040   1.621 -1.5060  0.4956  0.9044
  244MOL0     H33660   8.173   3.973   1.259 -2.7724  0.3287  0.6382
  244MOL0     H33661   8.175   4.134   1.193  0.8113 -0.7567  0.0982
  244MOL0     H33662   8.396   4.073   1.187 -0.1712 -1.3120 -0.0753
  244MOL0     H33663   8.383   3.982   1.335 -1.5768 -0.4447 -0.6824
  244MOL0     H33664   8.428   4.164   1.484 -1.7800 -1.7565  0.6865
  244MOL0     H33665   8.527   4.171   1.359  0.6087 -0.6742  0.2574
  244MOL0     H33666   8.403   4.398   1.405 -0.9014 -0.5297  1.1302
  244MOL0     H33667   8.262   4.329   1.340 -0.1474 -1.0185 -2.3113
  244MOL0     H33668   8.396   4.426   0.977  0.0838  0.0829  0.2945
  244MOL0     H33669   7.965   4.095   1.207 -2.2767  1.5810 -0.8023
  244MOL0     H33670   7.770   4.025   1.092 -0.1977  0.1399 -0.1588
  244MOL0     H33671   7.641   3.946   1.174  0.9059 -0.4678 -1.3441
  244MOL0     H33672   7.660   4.120   1.195 -0.0528  0.9617  3.2900
  245MOL0     O33673  10.328   9.636  10.565  0.0145 -0.4335  0.0491
  245MOL0     C33674  10.210   9.632  10.536  0.1903 -0.2431 -0.8821
  245MOL0     O33675  10.163   9.609  10.412  0.0741 -0.3034  0.3719
  245MOL0     C33676  10.244   9.594  10.301 -0.0525 -0.7469 -0.2920
  245MOL0     C33677  10.212   9.503  10.207  0.8343  0.7950  0.8252
  245MOL0     C33678  10.284   9.486  10.091  0.2036 -0.2251 -0.1431
  245MOL0     C33679  10.403   9.567  10.063 -0.5829  0.3422 -0.6015
  245MOL0     O33680  10.487   9.560   9.949 -0.5915  0.0166  0.0989
  245MOL0     C33681  10.490   9.430   9.887  0.8709 -0.4182 -0.1971
  245MOL0     C33682  10.625   9.417   9.815  0.6309 -0.5391 -0.4995
  245MOL0     C33683  10.641   9.512   9.688 -0.5596  0.1789 -0.4013
  245MOL0     C33684  10.791   9.506   9.638 -0.1101 -0.1057 -0.5921
  245MOL0     C33685  10.806   9.505   9.480  1.1107 -0.7744  0.2622
  245MOL0     C33686  10.961   9.502   9.459  0.8965  0.1548  0.5531
  245MOL0     C33687  10.997   9.564   9.328 -1.0717  0.4463 -0.3598
  245MOL0     C33688  11.139   9.512   9.274  0.2661 -0.2443  0.4453
  245MOL0     N33689  11.230   9.553   9.390 -0.5643  0.5217  0.4523
  245MOL0     C33690  11.305   9.459   9.469 -0.2362 -0.5393 -1.0709
  245MOL0     C33691  11.400   9.534   9.530 -0.5026 -0.2936 -0.5357
  245MOL0     C33692  11.505   9.490   9.629  0.4907  0.0675 -0.1099
  245MOL0     C33693  11.621   9.421   9.561 -0.1190  0.2362 -1.0070
  245MOL0     C33694  11.692   9.323   9.669 -0.0024  0.0398 -0.3209
  245MOL0     C33695  11.818   9.246   9.622  0.4328 -1.1405 -0.4984
  245MOL0     O33696  11.914   9.344   9.605 -0.0256 -0.4135 -0.8467
  245MOL0     C33697  12.033   9.281   9.604  0.2482  0.3914  0.0612
  245MOL0     C33698  12.096   9.259   9.729 -0.3645  0.1157  0.1312
  245MOL0     C33699  12.222   9.202   9.736  0.1236 -0.1495  0.2041
  245MOL0     C33700  12.269   9.171   9.873  0.2003 -0.3730 -1.1239
  245MOL0     C33701  12.289   9.157   9.616  0.6859 -0.3076 -0.6473
  245MOL0     C33702  12.428   9.102   9.612  0.4739 -0.6434 -0.1154
  245MOL0     O33703  12.494   9.117   9.728  0.5477 -0.2491  0.7211
  245MOL0     C33704  12.596   9.040   9.765  0.1835 -0.6416 -0.4081
  245MOL0     C33705  12.694   8.982   9.683  0.5716  0.4177 -0.3793
  245MOL0     C33706  12.803   8.912   9.741 -1.0437 -0.3322 -0.4159
  245MOL0     C33707  12.824   8.896   9.878  0.2393 -0.2401  0.6755
  245MOL0     O33708  12.916   8.810   9.928 -0.3466  0.6252 -0.0553
  245MOL0     C33709  13.038   8.794   9.853  0.4624 -0.0870  0.1613
  245MOL0     C33710  13.156   8.741   9.941 -0.5645 -0.4645  0.3860
  245MOL0     C33711  13.185   8.826  10.061  0.6514  0.2866 -0.5115
  245MOL0     C33712  13.269   8.744  10.156 -0.1399 -0.8241  0.6932
  245MOL0     C33713  13.331   8.827  10.271 -0.0896 -0.3007  0.6949
  245MOL0     C33714  13.243   8.855  10.392 -0.5818 -0.7834  0.8790
  245MOL0     C33715  13.330   8.923  10.500  0.2625  0.2395 -0.2825
  245MOL0     C33716  13.275   8.936  10.644  0.0873  0.2595  1.0490
  245MOL0    Cl33717  13.397   9.018  10.745 -0.2675 -0.1562 -0.3076
  245MOL0     C33718  12.729   8.962   9.962  0.1127  0.0660  0.0849
  245MOL0     C33719  12.611   9.022   9.903 -0.9386  0.4112 -0.3702
  245MOL0     O33720  12.470   9.065   9.501 -0.2202  0.0170  0.0349
  245MOL0     C33721  12.219   9.193   9.497  0.2435  0.0138 -0.2262
  245MOL0     C33722  12.092   9.243   9.488 -0.8506  0.3306  0.7449
  245MOL0     N33723  11.395   9.669   9.487  0.1500  0.2505  0.2803
  245MOL0     N33724  11.287   9.678   9.411 -0.0045 -0.3765 -0.7494
  245MOL0     C33725  10.420   9.666  10.156 -0.5022  0.2079 -0.1931
  245MOL0     C33726  10.348   9.679  10.278  0.1830  0.0929  0.3787
  245MOL0     C33727  10.122   9.635  10.660  0.5173  0.0445  0.6414
  245MOL0     C33728  10.176   9.690  10.773 -0.7040  0.0343  0.3215
  245MOL0     C33729  10.113   9.695  10.894  0.3214  0.8701  0.1703
  245MOL0     C33730   9.988   9.633  10.907 -0.5074  0.0095 -0.2666
  245MOL0     O33731   9.923   9.623  11.030  0.0810 -0.3542 -0.4771
  245MOL0     C33732   9.929   9.729  11.118 -1.2916 -0.2962 -0.1300
  245MOL0     C33733   9.821   9.730  11.219  0.3124 -0.6049  1.0598
  245MOL0     C33734   9.831   9.847  11.323  0.4950 -0.1428  0.6133
  245MOL0     C33735   9.710   9.854  11.406 -0.8743  0.8190  0.0668
  245MOL0     C33736   9.717   9.960  11.503 -0.7341 -0.0508 -0.1840
  245MOL0     C33737   9.746  10.051  11.577 -0.0920 -0.1046 -0.5028
  245MOL0     C33738   9.934   9.567  10.800 -0.1207  0.3391 -0.3568
  245MOL0     C33739   9.992   9.579  10.671 -0.5364  0.0295 -0.7542
  245MOL0     C33740   9.936   9.520  10.539 -0.1089 -0.8298 -1.2808
  245MOL0     H33741  10.127   9.440  10.231  1.8916 -1.9705 -1.9763
  245MOL0     H33742  10.249   9.420  10.012 -2.6327 -1.2153  1.8044
  245MOL0     H33743  10.413   9.424   9.809  0.4622 -1.0012  0.2423
  245MOL0     H33744  10.476   9.340   9.948 -0.0325 -0.5045 -0.5242
  245MOL0     H33745  10.705   9.453   9.880  1.2646 -0.2526 -1.4185
  245MOL0     H33746  10.654   9.316   9.786  1.5794 -0.8786  1.4767
  245MOL0     H33747  10.577   9.464   9.613 -1.9175  0.0457  0.7830
  245MOL0     H33748  10.608   9.612   9.718 -1.7251 -0.6882  1.4676
  245MOL0     H33749  10.845   9.590   9.682 -1.7924 -0.0830  1.5904
  245MOL0     H33750  10.833   9.416   9.684  0.4840  0.6622  0.4185
  245MOL0     H33751  10.756   9.596   9.448 -0.7520 -1.6348  0.5736
  245MOL0     H33752  10.756   9.417   9.439  0.5247 -0.8309  1.0739
  245MOL0     H33753  11.021   9.556   9.532  3.7270 -1.3873 -0.4873
  245MOL0     H33754  10.997   9.398   9.457 -0.5467 -0.3650 -0.2149
  245MOL0     H33755  10.995   9.674   9.333  0.4580  0.4165  1.8157
  245MOL0     H33756  10.930   9.526   9.249 -0.3854  0.6750 -1.0677
  245MOL0     H33757  11.142   9.409   9.239  1.7428  0.6440 -2.2595
  245MOL0     H33758  11.173   9.569   9.187 -0.4865 -0.9975 -0.3684
  245MOL0     H33759  11.304   9.354   9.494  0.8914  0.2335  2.8198
  245MOL0     H33760  11.458   9.424   9.703 -0.1328  0.0863 -0.4795
  245MOL0     H33761  11.540   9.577   9.685 -0.8854 -1.8386  4.2032
  245MOL0     H33762  11.579   9.355   9.484  0.0414 -0.1729 -0.7443
  245MOL0     H33763  11.684   9.498   9.516 -1.3303  0.6469 -2.0678
  245MOL0     H33764  11.718   9.378   9.760 -1.4831 -0.4949  0.4594
  245MOL0     H33765  11.619   9.246   9.696 -0.8731  1.2070  0.7778
  245MOL0     H33766  11.847   9.176   9.701  0.2448 -0.0273  0.5802
  245MOL0     H33767  11.795   9.199   9.526 -0.5569 -0.5292 -0.5779
  245MOL0     H33768  12.047   9.291   9.820 -1.1607  0.2181 -0.3253
  245MOL0     H33769  12.353   9.231   9.910 -0.9734  0.8195 -0.3177
  245MOL0     H33770  12.306   9.068   9.877  1.1182 -0.0324  1.3495
  245MOL0     H33771  12.189   9.194   9.944  2.1828 -0.1958  1.2123
  245MOL0     H33772  12.701   9.000   9.576  0.7654  4.8990  0.2041
  245MOL0     H33773  12.880   8.879   9.673 -0.8955 -1.1513  0.1338
  245MOL0     H33774  13.017   8.728   9.769  0.3416  1.7611 -1.3362
  245MOL0     H33775  13.070   8.892   9.815  2.0492 -0.9508 -0.8458
  245MOL0     H33776  13.144   8.635   9.963  1.0981 -0.2512  2.6152
  245MOL0     H33777  13.243   8.758   9.878 -1.4821  0.8867 -0.5858
  245MOL0     H33778  13.090   8.859  10.104  0.3121  0.7210 -1.5811
  245MOL0     H33779  13.232   8.922  10.037  0.2346  0.2930 -1.3253
  245MOL0     H33780  13.350   8.704  10.094 -0.4244 -0.8335  0.3263
  245MOL0     H33781  13.211   8.662  10.198  0.0039 -1.2743  0.0242
  245MOL0     H33782  13.409   8.761  10.310 -1.9928 -0.7091  4.1636
  245MOL0     H33783  13.379   8.919  10.237  0.8556 -0.3215  1.9214
  245MOL0     H33784  13.221   8.752  10.421  1.3913 -1.3621  0.4471
  245MOL0     H33785  13.152   8.909  10.364  0.6144  0.0062 -1.7628
  245MOL0     H33786  13.357   9.020  10.459  1.4086 -0.5352 -1.4295
  245MOL0     H33787  13.422   8.864  10.500 -0.2353 -0.5774  0.6545
  245MOL0     H33788  13.230   8.845  10.686 -2.2681  0.7100 -0.2935
  245MOL0     H33789  13.195   9.010  10.645 -1.5297 -1.3019 -1.4344
  245MOL0     H33790  12.757   8.956  10.067 -1.9578 -1.1480  0.6170
  245MOL0     H33791  12.540   9.066   9.972 -0.8242 -1.2501  0.8910
  245MOL0     H33792  12.272   9.168   9.406 -0.8572  1.7817 -1.4382
  245MOL0     H33793  12.042   9.267   9.395 -0.1656 -1.1012 -0.0159
  245MOL0     H33794  10.499   9.735  10.129 -1.4687  1.1137 -0.7636
  245MOL0     H33795  10.362   9.761  10.348  0.2394 -1.8341  2.7391
  245MOL0     H33796  10.261   9.756  10.764 -2.2885  1.9880 -1.3249
  245MOL0     H33797  10.161   9.747  10.976 -0.8022 -0.1836  1.5498
  245MOL0     H33798  10.025   9.733  11.170 -2.1520  0.2081  1.4816
  245MOL0     H33799   9.925   9.815  11.050  0.9412 -1.7074 -2.2140
  245MOL0     H33800   9.824   9.633  11.270  1.8400 -1.4408 -0.5238
  245MOL0     H33801   9.724   9.729  11.168 -0.3656 -2.0692  2.2706
  245MOL0     H33802   9.922   9.821  11.380  2.6909  0.3298 -2.4288
  245MOL0     H33803   9.849   9.944  11.277 -1.9096  0.2265  0.3287
  245MOL0     H33804   9.702   9.756  11.454  0.5577 -0.5479 -2.3063
  245MOL0     H33805   9.619   9.856  11.345  0.7346 -1.7681 -2.6683
  245MOL0     H33806   9.780  10.115  11.656 -0.2003 -1.5839  0.7874
  245MOL0     H33807   9.832   9.530  10.807 -0.4044  1.0988 -0.3974
  245MOL0     H33808   9.834   9.490  10.562  0.0066 -0.0035  0.5250
  245MOL0     H33809   9.942   9.607  10.473 -1.0436 -0.5149 -0.9653
  245MOL0     H33810   9.987   9.431  10.500 -0.1097 -2.0870  1.3223
  246MOL0     O33811   4.851   2.253  11.223  0.2627  0.5451  0.2412
  246MOL0     C33812   4.760   2.318  11.168  0.0711  1.0444  0.2634
  246MOL0     O33813   4.743   2.458  11.174  0.1159  0.6579  0.4588
  246MOL0     C33814   4.841   2.532  11.236 -0.1651  0.5659 -0.5470
  246MOL0     C33815   4.932   2.607  11.164 -0.3055 -0.2423 -0.1805
  246MOL0     C33816   5.032   2.675  11.236  0.5364 -0.9060 -0.1525
  246MOL0     C33817   5.027   2.681  11.380 -0.1606  0.6996  0.2573
  246MOL0     O33818   5.114   2.763  11.446  0.6245 -0.5312  0.0653
  246MOL0     C33819   5.254   2.748  11.403 -0.6654  0.3922  0.7862
  246MOL0     C33820   5.336   2.773  11.529 -0.7891 -0.5979 -0.3781
  246MOL0     C33821   5.486   2.739  11.505 -0.4894 -0.4599 -1.0487
  246MOL0     C33822   5.576   2.857  11.549  0.1180  0.2790 -0.3016
  246MOL0     C33823   5.726   2.818  11.547 -0.5068 -0.5267  0.1303
  246MOL0     C33824   5.787   2.804  11.403  0.2999 -0.1232 -0.3778
  246MOL0     C33825   5.928   2.743  11.398  0.0066 -0.1553  0.7796
  246MOL0     C33826   6.004   2.771  11.262 -0.3711 -0.3821 -0.6994
  246MOL0     N33827   6.141   2.725  11.287 -0.2299  0.4751 -0.2060
  246MOL0     C33828   6.188   2.591  11.329 -0.7242  0.1272  0.2282
  246MOL0     C33829   6.316   2.608  11.367 -0.0948  0.8619 -0.0119
  246MOL0     C33830   6.402   2.494  11.427 -0.0020 -0.5444  0.4889
  246MOL0     C33831   6.443   2.373  11.333  0.8719  0.2509  0.4510
  246MOL0     C33832   6.528   2.419  11.209  0.0920  0.3229 -0.6191
  246MOL0     C33833   6.536   2.324  11.087  0.2750  0.5276 -0.5742
  246MOL0     O33834   6.592   2.197  11.117  0.6617  0.4428 -0.0520
  246MOL0     C33835   6.724   2.177  11.144  0.0015  0.7009 -0.0674
  246MOL0     C33836   6.750   2.074  11.236 -0.9196  1.2650 -0.2352
  246MOL0     C33837   6.880   2.042  11.280 -0.6338 -0.2033 -0.1004
  246MOL0     C33838   6.889   1.936  11.380 -0.9213  0.4020 -1.4191
  246MOL0     C33839   6.992   2.121  11.236  0.3621  1.2286 -0.6280
  246MOL0     C33840   7.138   2.111  11.276  0.3436 -0.4295 -0.7246
  246MOL0     O33841   7.165   2.002  11.362 -0.2797 -0.3697 -0.5069
  246MOL0     C33842   7.283   1.986  11.421  0.3601  0.2156 -0.3899
  246MOL0     C33843   7.288   1.871  11.502 -0.9636  0.0638  0.4511
  246MOL0     C33844   7.404   1.845  11.576 -0.5098  0.4184 -0.7693
  246MOL0     C33845   7.516   1.916  11.563  0.4483  0.0719 -0.0035
  246MOL0     O33846   7.624   1.876  11.639 -0.1240 -0.0219 -0.3187
  246MOL0     C33847   7.743   1.952  11.628 -1.1050 -0.1518 -0.1964
  246MOL0     C33848   7.852   1.891  11.716 -1.0343  0.1102  0.3728
  246MOL0     C33849   7.984   1.967  11.709 -0.1204 -0.8138 -0.2570
  246MOL0     C33850   8.090   1.922  11.811  0.4928  0.3338  0.0874
  246MOL0     C33851   8.233   1.950  11.754  0.0603  0.1343 -0.3418
  246MOL0     C33852   8.334   1.893  11.849  0.5880 -0.4940  1.0986
  246MOL0     C33853   8.476   1.893  11.791 -0.6388  0.1976  0.2490
  246MOL0     C33854   8.577   1.890  11.902 -0.5440  0.6205 -0.3860
  246MOL0    Cl33855   8.743   1.898  11.823 -0.1408 -0.0657 -0.0913
  246MOL0     C33856   7.517   2.023  11.472  0.8294 -0.0001 -0.2306
  246MOL0     C33857   7.400   2.069  11.413  0.2618 -0.2526 -0.4619
  246MOL0     O33858   7.219   2.187  11.222 -0.2613  0.5999 -0.1401
  246MOL0     C33859   6.961   2.223  11.149 -0.1185  0.2058  0.2928
  246MOL0     C33860   6.837   2.251  11.108 -0.2936 -0.7042 -0.1278
  246MOL0     N33861   6.358   2.738  11.354 -0.1073 -1.0926 -0.0975
  246MOL0     N33862   6.250   2.810  11.315  0.2599 -0.4807 -0.2316
  246MOL0     C33863   4.938   2.605  11.449  0.3272 -0.1427 -0.0598
  246MOL0     C33864   4.845   2.531  11.375 -0.3981  0.1558  0.0425
  246MOL0     C33865   4.642   2.234  11.134  0.7503 -0.1235 -1.0487
  246MOL0     C33866   4.520   2.274  11.195 -0.5805  0.3961  0.0353
  246MOL0     C33867   4.397   2.199  11.176 -0.9204  0.3925 -0.3976
  246MOL0     C33868   4.400   2.083  11.099 -0.3675  0.4439  0.6314
  246MOL0     O33869   4.273   2.035  11.076  0.0900  0.3871  0.6696
  246MOL0     C33870   4.260   1.909  11.013 -0.8940 -0.3352  0.1473
  246MOL0     C33871   4.125   1.858  10.994 -0.5038 -0.2658  1.2779
  246MOL0     C33872   4.134   1.718  10.923 -0.7757 -0.1265  0.1633
  246MOL0     C33873   4.017   1.623  10.971 -0.5798 -0.5153  1.1124
  246MOL0     C33874   4.018   1.498  10.893  0.0877 -0.5584  0.3466
  246MOL0     C33875   4.021   1.389  10.840 -0.6228 -0.1587 -0.6381
  246MOL0     C33876   4.521   2.052  11.032  0.2838 -0.2562 -0.8624
  246MOL0     C33877   4.644   2.121  11.050 -1.0504 -0.8090 -0.6485
  246MOL0     C33878   4.759   2.081  10.968 -0.1876  0.6313  0.4157
  246MOL0     H33879   4.931   2.601  11.056 -1.5700 -1.5440 -0.1265
  246MOL0     H33880   5.108   2.717  11.172  0.6010 -1.2261 -0.2885
  246MOL0     H33881   5.279   2.818  11.323  4.2331 -1.1748  0.6171
  246MOL0     H33882   5.270   2.646  11.365 -1.5044 -0.0989  1.6972
  246MOL0     H33883   5.331   2.880  11.550 -2.5172 -0.9352  1.1779
  246MOL0     H33884   5.292   2.716  11.611 -3.0943  0.7724 -0.5983
  246MOL0     H33885   5.514   2.660  11.576  2.1413  3.3036  2.6049
  246MOL0     H33886   5.504   2.714  11.400 -2.3562 -0.3721 -1.4232
  246MOL0     H33887   5.567   2.952  11.495 -2.7844  0.1110 -0.2607
  246MOL0     H33888   5.563   2.875  11.656  1.6334 -1.5780  0.2633
  246MOL0     H33889   5.724   2.718  11.590 -0.6707  0.9423  3.8694
  246MOL0     H33890   5.775   2.896  11.606 -4.5141  1.5235  1.1514
  246MOL0     H33891   5.730   2.731  11.343  1.2402  0.0588 -1.5319
  246MOL0     H33892   5.779   2.897  11.346 -1.8484  1.1194  1.7629
  246MOL0     H33893   5.913   2.640  11.431 -1.6262  0.4307  2.0178
  246MOL0     H33894   5.982   2.805  11.470  0.6424 -1.9856  1.9408
  246MOL0     H33895   5.959   2.713  11.181  0.1239 -0.8640 -0.6403
  246MOL0     H33896   6.009   2.876  11.233 -4.1818 -0.6490 -2.9903
  246MOL0     H33897   6.125   2.502  11.329 -2.3063  1.1616 -2.2648
  246MOL0     H33898   6.355   2.451  11.516 -0.7715 -0.2254  0.2445
  246MOL0     H33899   6.496   2.542  11.457  0.8300 -0.0003 -2.6116
  246MOL0     H33900   6.492   2.295  11.392  1.7990  0.9374  0.6178
  246MOL0     H33901   6.355   2.330  11.284  3.1067 -0.8287 -2.9903
  246MOL0     H33902   6.488   2.512  11.168  1.3191  1.0248 -0.2837
  246MOL0     H33903   6.626   2.441  11.252  0.3249 -1.7165  0.0189
  246MOL0     H33904   6.431   2.302  11.065  0.0519 -1.3351  1.9149
  246MOL0     H33905   6.581   2.372  11.000  1.8657 -0.6744 -0.4525
  246MOL0     H33906   6.667   2.022  11.281 -0.0490  1.0368  1.1780
  246MOL0     H33907   6.797   1.878  11.394  0.0288 -0.7338  0.6778
  246MOL0     H33908   6.928   1.983  11.471 -1.8937  0.4163 -0.9948
  246MOL0     H33909   6.966   1.865  11.348 -1.0603  0.0555 -1.0043
  246MOL0     H33910   7.197   1.811  11.499 -0.9221  0.0266 -0.2715
  246MOL0     H33911   7.411   1.763  11.647  0.1713 -1.2806 -2.6997
  246MOL0     H33912   7.779   1.945  11.525  0.1109  1.4110  0.0861
  246MOL0     H33913   7.717   2.056  11.648 -2.1000 -0.6228  1.1751
  246MOL0     H33914   7.816   1.897  11.819  0.7413  0.9980  0.9845
  246MOL0     H33915   7.878   1.788  11.691  0.8960  0.3864  1.1032
  246MOL0     H33916   7.985   2.076  11.720  0.8689 -0.7683 -0.7342
  246MOL0     H33917   8.029   1.947  11.611 -4.0898 -1.8350 -2.0573
  246MOL0     H33918   8.088   1.813  11.817  0.5810  0.1324 -2.5843
  246MOL0     H33919   8.067   1.963  11.910 -3.1056  0.3762 -0.6565
  246MOL0     H33920   8.248   1.897  11.660 -1.4229  1.3424 -1.3141
  246MOL0     H33921   8.244   2.059  11.747 -3.9119  0.8833  1.9349
  246MOL0     H33922   8.303   1.791  11.875  0.7096 -0.5997  0.8416
  246MOL0     H33923   8.335   1.952  11.940 -0.2863  0.0067  0.7952
  246MOL0     H33924   8.500   1.986  11.738  0.8576  0.1283  0.7576
  246MOL0     H33925   8.488   1.817  11.713  1.1666  0.2387  0.4507
  246MOL0     H33926   8.569   1.802  11.967 -3.1348  0.9212 -0.2104
  246MOL0     H33927   8.570   1.972  11.973  0.2253  0.8149 -0.5275
  246MOL0     H33928   7.606   2.084  11.463 -0.6497  2.1873 -0.7625
  246MOL0     H33929   7.405   2.169  11.373  2.4799  1.0416  2.6581
  246MOL0     H33930   7.029   2.287  11.094 -0.1413 -1.1129 -1.3485
  246MOL0     H33931   6.828   2.325  11.029  1.6113 -0.6261 -0.2987
  246MOL0     H33932   4.929   2.617  11.557 -4.5717  3.8912 -0.5665
  246MOL0     H33933   4.761   2.480  11.420  0.3255 -1.3070 -0.1817
  246MOL0     H33934   4.521   2.361  11.260 -2.5992 -0.2395  1.0062
  246MOL0     H33935   4.308   2.222  11.234 -1.2989 -1.7688 -0.0337
  246MOL0     H33936   4.301   1.922  10.913  3.0615  0.6980  1.7264
  246MOL0     H33937   4.330   1.841  11.064  1.1311 -0.1807 -2.2383
  246MOL0     H33938   4.061   1.927  10.937  0.9924  0.4386  0.3844
  246MOL0     H33939   4.074   1.834  11.087 -2.0324 -2.0353  0.0461
  246MOL0     H33940   4.118   1.732  10.816  1.0642  0.8701 -0.0246
  246MOL0     H33941   4.231   1.672  10.943  0.8872  2.9544 -0.0573
  246MOL0     H33942   3.920   1.672  10.972  0.1071  0.9198  0.6050
  246MOL0     H33943   4.027   1.606  11.079 -1.8096 -1.1424  1.1369
  246MOL0     H33944   4.024   1.291  10.798  1.6582 -1.1304  1.5409
  246MOL0     H33945   4.519   1.985  10.946 -1.8537 -1.5858  0.1334
  246MOL0     H33946   4.849   2.072  11.029 -0.3291  0.2169  0.5699
  246MOL0     H33947   4.733   1.990  10.914  2.4512 -0.1087  0.2873
  246MOL0     H33948   4.776   2.163  10.897  1.5634 -1.1329 -1.3129
  247MOL0     O33949   5.957   7.980   1.851  0.8269 -0.6079  0.2193
  247MOL0     C33950   5.879   7.995   1.951 -0.1500  0.2610  1.1117
  247MOL0     O33951   5.761   8.072   1.951  1.0961  0.0011  0.0914
  247MOL0     C33952   5.749   8.173   1.853 -0.2525  0.7357  0.1195
  247MOL0     C33953   5.627   8.194   1.789 -0.2549  0.5070 -0.4449
  247MOL0     C33954   5.607   8.274   1.681  0.0907  0.0053 -0.1759
  247MOL0     C33955   5.716   8.359   1.634  0.2012  1.0640 -0.2960
  247MOL0     O33956   5.707   8.454   1.538 -0.1865  0.2511  0.4348
  247MOL0     C33957   5.596   8.545   1.538 -0.4682 -0.0035  0.4160
  247MOL0     C33958   5.649   8.687   1.514 -0.2358  0.2486 -0.4213
  247MOL0     C33959   5.706   8.757   1.642  0.3578 -0.4687 -0.1862
  247MOL0     C33960   5.760   8.897   1.603 -0.0793  1.0909  0.3054
  247MOL0     C33961   5.873   8.924   1.700  0.4680 -0.2434  0.7959
  247MOL0     C33962   5.917   9.071   1.695 -0.3298  0.2960 -0.3180
  247MOL0     C33963   6.005   9.103   1.813  0.0064 -0.2470  0.5638
  247MOL0     C33964   6.134   9.038   1.801 -1.5991 -0.0343  0.2395
  247MOL0     N33965   6.226   9.071   1.915  0.5808 -0.5404 -0.2299
  247MOL0     C33966   6.315   9.173   1.928  0.3110  0.3838 -0.0626
  247MOL0     C33967   6.367   9.169   2.050  0.2168  0.2645 -0.2995
  247MOL0     C33968   6.468   9.264   2.113 -0.1897  0.6814  0.6578
  247MOL0     C33969   6.573   9.310   2.011  0.3182  0.2503  1.3550
  247MOL0     C33970   6.662   9.183   1.979  0.0262  0.2597  0.0776
  247MOL0     C33971   6.811   9.216   1.976 -0.1893  0.1152  0.3989
  247MOL0     O33972   6.855   9.255   2.112 -0.5783  0.2813 -0.4192
  247MOL0     C33973   6.920   9.376   2.127  0.6491  0.4942 -0.9541
  247MOL0     C33974   7.033   9.407   2.048  1.5665  1.0558  1.1758
  247MOL0     C33975   7.101   9.531   2.068 -0.1615 -0.4991 -0.8446
  247MOL0     C33976   7.214   9.571   1.977 -0.2274 -0.1940 -0.8264
  247MOL0     C33977   7.072   9.605   2.182  0.8822  0.2366  0.6546
  247MOL0     C33978   7.129   9.734   2.208 -0.3727  1.3421 -0.4338
  247MOL0     O33979   7.099   9.831   2.123 -0.0166  0.6323 -0.2613
  247MOL0     C33980   7.183   9.940   2.125  0.5395 -0.8950  0.5080
  247MOL0     C33981   7.324   9.942   2.099  0.1648  0.3451 -0.1142
  247MOL0     C33982   7.400  10.054   2.126  0.5618  0.3033  0.4248
  247MOL0     C33983   7.340  10.174   2.161  0.0719 -0.1594  0.2265
  247MOL0     O33984   7.405  10.289   2.165 -0.4000  1.0497 -0.8680
  247MOL0     C33985   7.364  10.399   2.080  0.0995 -0.3758  0.3629
  247MOL0     C33986   7.480  10.502   2.078  0.4898 -0.4020  0.0799
  247MOL0     C33987   7.550  10.532   2.213 -0.0314 -0.3012 -0.6441
  247MOL0     C33988   7.688  10.603   2.186  0.1824 -0.2552 -0.2098
  247MOL0     C33989   7.749  10.646   2.321 -0.2702 -0.2778 -0.7242
  247MOL0     C33990   7.862  10.744   2.299  0.3186  0.0988 -0.3271
  247MOL0     C33991   7.927  10.765   2.448 -0.5981 -0.4295 -1.0815
  247MOL0     C33992   8.067  10.793   2.414  0.6916 -0.1735 -0.2292
  247MOL0    Cl33993   8.102  10.915   2.285 -0.4967  0.0404  0.0905
  247MOL0     C33994   7.204  10.176   2.182 -0.3223 -0.1099 -0.1295
  247MOL0     C33995   7.127  10.064   2.167  0.2124 -0.0088  0.4451
  247MOL0     O33996   7.208   9.741   2.303 -0.0207  0.4867 -0.3039
  247MOL0     C33997   6.968   9.559   2.265  0.5686  0.2806  0.7391
  247MOL0     C33998   6.892   9.455   2.234  0.1935  0.4390 -0.4212
  247MOL0     N33999   6.315   9.050   2.104 -0.1423  0.6236  0.2379
  247MOL0     N34000   6.239   8.988   2.027  0.2077  0.6067  0.8011
  247MOL0     C34001   5.834   8.355   1.704 -0.6876 -0.3263 -0.1625
  247MOL0     C34002   5.850   8.266   1.806  0.4484  0.3549 -0.1006
  247MOL0     C34003   5.895   7.921   2.074  0.1375 -0.2900  0.0828
  247MOL0     C34004   5.786   7.911   2.163 -0.5105  0.1266  0.0699
  247MOL0     C34005   5.796   7.850   2.284 -0.6262  0.9564  0.3428
  247MOL0     C34006   5.919   7.792   2.325 -0.5982 -0.4535 -0.5455
  247MOL0     O34007   5.918   7.746   2.452 -0.7378  0.8915  0.1475
  247MOL0     C34008   6.018   7.662   2.500 -0.1759  0.6908 -0.3736
  247MOL0     C34009   6.011   7.516   2.441  0.8359  0.0593  0.5582
  247MOL0     C34010   5.879   7.436   2.454 -0.7563 -0.6632 -0.7757
  247MOL0     C34011   5.819   7.452   2.593  0.6781  0.1309 -0.4447
  247MOL0     C34012   5.698   7.369   2.610 -0.1989 -0.6482  1.0295
  247MOL0     C34013   5.596   7.313   2.630 -0.3294  0.0311 -0.8650
  247MOL0     C34014   6.026   7.798   2.237  0.2866 -0.0710 -0.4389
  247MOL0     C34015   6.026   7.867   2.115 -0.3393 -0.6717  0.3051
  247MOL0     C34016   6.155   7.881   2.034  0.2501 -0.1018  0.7015
  247MOL0     H34017   5.542   8.137   1.825  0.1169 -0.0695 -0.4698
  247MOL0     H34018   5.506   8.286   1.644 -0.2890 -2.3794 -0.0781
  247MOL0     H34019   5.547   8.542   1.636 -0.8347  0.2173  0.2386
  247MOL0     H34020   5.520   8.531   1.461  0.8616  2.2577 -1.4432
  247MOL0     H34021   5.725   8.684   1.436  0.7257  2.7700  0.3219
  247MOL0     H34022   5.561   8.744   1.482 -0.5655  0.9365  1.5506
  247MOL0     H34023   5.634   8.773   1.723  0.2274 -1.0576 -0.1850
  247MOL0     H34024   5.790   8.698   1.679 -0.4789 -1.3455  0.3694
  247MOL0     H34025   5.810   8.897   1.505 -3.3403  0.2159 -1.5230
  247MOL0     H34026   5.685   8.977   1.599 -1.3838  0.1097  2.8952
  247MOL0     H34027   5.964   8.868   1.676 -0.5858 -1.7185  0.1622
  247MOL0     H34028   5.825   8.898   1.795 -2.1112 -1.2834 -0.6952
  247MOL0     H34029   5.982   9.092   1.610  3.4691 -0.6941  2.0935
  247MOL0     H34030   5.832   9.140   1.692 -0.7054 -0.1417  0.0308
  247MOL0     H34031   5.959   9.057   1.901 -0.3537 -0.2434  0.3788
  247MOL0     H34032   6.019   9.211   1.808  0.7610 -0.4017 -1.2909
  247MOL0     H34033   6.132   8.928   1.804  1.7016 -0.2001  1.2600
  247MOL0     H34034   6.186   9.075   1.712  0.9848 -0.6677  1.3667
  247MOL0     H34035   6.346   9.245   1.853  0.5764 -0.5863 -0.8903
  247MOL0     H34036   6.522   9.217   2.197  1.9425  0.9085 -0.5145
  247MOL0     H34037   6.416   9.352   2.151  0.6061  0.4776  2.3717
  247MOL0     H34038   6.535   9.356   1.919  0.7192 -2.7527 -0.4681
  247MOL0     H34039   6.625   9.387   2.068 -1.9777  0.9883  2.5817
  247MOL0     H34040   6.638   9.108   2.055 -3.7215  0.5040 -0.6662
  247MOL0     H34041   6.633   9.148   1.879 -0.6560 -0.4244  0.5055
  247MOL0     H34042   6.860   9.122   1.951 -0.7319 -0.3765  1.1387
  247MOL0     H34043   6.835   9.296   1.905  1.7570  0.3794  1.2904
  247MOL0     H34044   7.060   9.335   1.970 -0.7718  1.2846  0.0852
  247MOL0     H34045   7.183   9.666   1.930 -0.2935  0.9479  1.3989
  247MOL0     H34046   7.218   9.496   1.898 -1.0347  2.3581 -3.5114
  247MOL0     H34047   7.304   9.575   2.038 -1.3582 -2.5125  1.1394
  247MOL0     H34048   7.360   9.855   2.045 -0.8094  1.0587 -2.0443
  247MOL0     H34049   7.499  10.045   2.084  0.5221  2.6463 -0.3142
  247MOL0     H34050   7.345  10.362   1.979  0.8012  0.1841  0.0137
  247MOL0     H34051   7.271  10.445   2.115 -1.2096 -1.8924 -0.9795
  247MOL0     H34052   7.555  10.460   2.011 -0.0318  1.6339 -1.8731
  247MOL0     H34053   7.447  10.597   2.035  1.8613  0.4219  0.7693
  247MOL0     H34054   7.577  10.444   2.271  3.0889  0.0680 -1.3363
  247MOL0     H34055   7.494  10.606   2.271  2.0698  2.5142 -1.9502
  247MOL0     H34056   7.656  10.689   2.126  2.1053 -0.2129 -1.2736
  247MOL0     H34057   7.754  10.539   2.127  1.1780  0.3243  0.2430
  247MOL0     H34058   7.680  10.702   2.385  0.1098  0.3129 -0.8242
  247MOL0     H34059   7.789  10.560   2.375 -0.0008 -1.1570 -2.2579
  247MOL0     H34060   7.836  10.845   2.267 -0.9935  0.1436  0.8020
  247MOL0     H34061   7.935  10.691   2.237  1.0806 -0.4782  1.0044
  247MOL0     H34062   7.921  10.678   2.514  0.8648  1.8070  2.2719
  247MOL0     H34063   7.884  10.848   2.505  0.6076 -0.1866 -0.4667
  247MOL0     H34064   8.105  10.697   2.379  2.1852  0.7637 -1.2914
  247MOL0     H34065   8.119  10.806   2.509 -2.1947 -2.5440  1.8797
  247MOL0     H34066   7.167  10.265   2.230 -3.4000 -1.6787  0.6073
  247MOL0     H34067   7.024  10.060   2.201  1.3102 -2.4804  4.0320
  247MOL0     H34068   6.942   9.607   2.359 -0.0511 -1.2223  1.3644
  247MOL0     H34069   6.814   9.421   2.302 -1.2185  0.4759 -1.9678
  247MOL0     H34070   5.914   8.427   1.687  0.5625 -1.5713  0.3031
  247MOL0     H34071   5.939   8.251   1.867 -0.5218 -0.2826  1.2161
  247MOL0     H34072   5.686   7.941   2.134 -0.4829 -0.0006 -0.1553
  247MOL0     H34073   5.709   7.859   2.349 -1.0007  1.7609 -0.2464
  247MOL0     H34074   6.121   7.695   2.487 -0.5206  1.9556 -0.0203
  247MOL0     H34075   6.010   7.656   2.609  0.3205  1.4245 -0.2903
  247MOL0     H34076   6.092   7.472   2.499  0.1314 -0.8519  0.8612
  247MOL0     H34077   6.031   7.506   2.334 -0.3625 -2.6229  0.5315
  247MOL0     H34078   5.804   7.475   2.385  0.3401 -3.3996 -3.7504
  247MOL0     H34079   5.901   7.333   2.427  2.0250 -0.1797 -0.6035
  247MOL0     H34080   5.790   7.555   2.613 -2.2483 -0.9300  1.4684
  247MOL0     H34081   5.887   7.425   2.674  0.7728 -1.0935 -0.9044
  247MOL0     H34082   5.502   7.262   2.642  0.5366 -2.0819 -2.4076
  247MOL0     H34083   6.117   7.743   2.258  1.1939  1.8903  1.2155
  247MOL0     H34084   6.151   7.857   1.928  0.3622  0.0906  0.6539
  247MOL0     H34085   6.200   7.980   2.046 -1.6708  0.9693 -0.4892
  247MOL0     H34086   6.221   7.807   2.081  1.1934  0.0837 -0.3125
  248MOL0     O34087   3.321   7.811   3.755  0.2458 -0.1293  0.1443
  248MOL0     C34088   3.335   7.917   3.703  1.2114  0.2574  0.0375
  248MOL0     O34089   3.455   7.985   3.708 -0.0524  0.1427  0.5497
  248MOL0     C34090   3.550   7.955   3.804  0.5714 -0.1408  0.8766
  248MOL0     C34091   3.560   8.040   3.914  0.9560  0.6088  0.2862
  248MOL0     C34092   3.662   8.020   4.006  0.3217 -0.5405 -0.1046
  248MOL0     C34093   3.757   7.916   3.989  0.5122 -0.2164 -0.2809
  248MOL0     O34094   3.859   7.904   4.077 -0.4368 -0.4459 -0.0792
  248MOL0     C34095   3.988   7.877   4.016 -0.3161 -0.6062  0.0710
  248MOL0     C34096   4.094   7.842   4.125  0.3515 -0.1991  0.6576
  248MOL0     C34097   4.233   7.810   4.070  0.1653  0.0437  0.5727
  248MOL0     C34098   4.243   7.679   3.986 -0.9334 -0.9330  0.5283
  248MOL0     C34099   4.387   7.658   3.942  0.1986  0.3112  1.1016
  248MOL0     C34100   4.491   7.630   4.047  1.2118 -0.5853 -0.5662
  248MOL0     C34101   4.638   7.618   4.012 -0.0979 -0.5061 -0.5020
  248MOL0     C34102   4.726   7.638   4.138  0.4453 -0.6237 -1.1493
  248MOL0     N34103   4.692   7.537   4.244 -0.0853 -0.7815 -0.6755
  248MOL0     C34104   4.722   7.407   4.235  0.7771 -0.2656 -0.8425
  248MOL0     C34105   4.697   7.362   4.360  0.0250 -0.6194 -0.0283
  248MOL0     C34106   4.705   7.231   4.423  0.4825  0.3146 -0.2312
  248MOL0     C34107   4.573   7.162   4.426  0.5724  0.2769 -0.4445
  248MOL0     C34108   4.570   7.008   4.456 -0.8548 -0.9674  0.3671
  248MOL0     C34109   4.426   6.963   4.483 -0.3326  0.1728 -0.2540
  248MOL0     O34110   4.365   6.928   4.353 -0.4400  0.1621  0.5624
  248MOL0     C34111   4.346   6.793   4.339  0.3357  0.2833  0.4288
  248MOL0     C34112   4.449   6.692   4.348 -0.1905 -0.3128 -0.5559
  248MOL0     C34113   4.427   6.551   4.337  0.0240 -0.1294  0.1438
  248MOL0     C34114   4.536   6.445   4.372 -0.1196  0.6273  0.2043
  248MOL0     C34115   4.299   6.509   4.283  0.1336  1.0075 -0.2582
  248MOL0     C34116   4.266   6.363   4.249 -0.0568  0.3874 -0.8959
  248MOL0     O34117   4.179   6.358   4.138  0.3902  0.0622 -0.1100
  248MOL0     C34118   4.170   6.242   4.061 -0.5033  0.7514  0.4574
  248MOL0     C34119   4.046   6.192   4.022  0.0350  0.6725  0.3853
  248MOL0     C34120   4.039   6.069   3.949  0.6840  0.3087 -0.2996
  248MOL0     C34121   4.156   5.996   3.922 -0.1194 -0.7109 -0.6649
  248MOL0     O34122   4.153   5.877   3.841  0.3097  0.2543  0.2137
  248MOL0     C34123   4.245   5.776   3.877 -0.3678  0.4356  0.1213
  248MOL0     C34124   4.194   5.636   3.853 -0.2411 -0.1306 -0.1828
  248MOL0     C34125   4.207   5.598   3.707 -0.3780 -0.3522  0.2611
  248MOL0     C34126   4.332   5.503   3.689 -0.4095 -0.8009  0.6146
  248MOL0     C34127   4.335   5.431   3.553  0.2644  0.4421  0.3826
  248MOL0     C34128   4.327   5.526   3.431  0.2610 -0.5525  1.2512
  248MOL0     C34129   4.352   5.449   3.295  0.2212 -0.0222  0.2912
  248MOL0     C34130   4.336   5.540   3.176  0.9664 -0.4405 -0.1722
  248MOL0    Cl34131   4.476   5.656   3.171  0.2561 -0.0598  0.5998
  248MOL0     C34132   4.279   6.054   3.958  0.4044 -0.8094 -0.1358
  248MOL0     C34133   4.291   6.174   4.027 -0.0990  0.5723 -0.1147
  248MOL0     O34134   4.333   6.270   4.292  0.0088 -0.1299 -0.3507
  248MOL0     C34135   4.192   6.608   4.272 -0.3675 -0.1024 -0.1971
  248MOL0     C34136   4.220   6.742   4.294 -0.0842  0.7908 -0.6679
  248MOL0     N34137   4.636   7.471   4.429  0.0379  0.3021  0.8177
  248MOL0     N34138   4.654   7.575   4.370 -0.2465  0.2351 -0.0072
  248MOL0     C34139   3.735   7.820   3.889 -0.4348 -0.6015  0.1421
  248MOL0     C34140   3.631   7.843   3.794 -0.7654  0.2860 -0.6309
  248MOL0     C34141   3.230   7.961   3.605  0.5009  0.2626  0.3852
  248MOL0     C34142   3.244   8.086   3.552 -0.0286  0.4850 -1.4964
  248MOL0     C34143   3.156   8.137   3.461  0.4053 -0.3967  0.6246
  248MOL0     C34144   3.040   8.064   3.425 -0.0641  0.1536  0.3348
  248MOL0     O34145   2.960   8.123   3.335  0.0518  0.2026  0.4893
  248MOL0     C34146   2.825   8.064   3.313 -0.3303 -0.0149  0.0235
  248MOL0     C34147   2.747   8.136   3.196  0.7414  0.0462  0.3049
  248MOL0     C34148   2.706   8.275   3.230 -0.1107  0.0044 -0.1391
  248MOL0     C34149   2.628   8.348   3.106  0.5858  0.2298  0.8528
  248MOL0     C34150   2.499   8.280   3.077  0.4519  0.6687 -0.0617
  248MOL0     C34151   2.394   8.222   3.059 -0.5184  0.4183 -0.0227
  248MOL0     C34152   3.021   7.943   3.488  0.0392 -0.5623  0.0793
  248MOL0     C34153   3.115   7.890   3.576  0.6247 -0.1498 -0.0551
  248MOL0     C34154   3.079   7.764   3.639 -0.1582  0.2505  0.8371
  248MOL0     H34155   3.475   8.097   3.950  0.0947 -1.4152  1.6784
  248MOL0     H34156   3.659   8.077   4.098 -3.0896  2.0912 -1.6059
  248MOL0     H34157   4.025   7.960   3.954 -0.1169 -1.6504 -1.2485
  248MOL0     H34158   3.980   7.800   3.939 -1.3411 -0.2312 -0.2090
  248MOL0     H34159   4.102   7.926   4.195  3.6197 -0.8341  1.2050
  248MOL0     H34160   4.058   7.753   4.178  0.6509 -0.1479  0.9465
  248MOL0     H34161   4.278   7.896   4.019  1.1250  0.0207  1.3426
  248MOL0     H34162   4.297   7.799   4.158  0.8991  1.2396  0.2126
  248MOL0     H34163   4.213   7.592   4.044  1.3981 -3.0132 -1.1785
  248MOL0     H34164   4.182   7.691   3.896 -1.8651 -0.0942  1.2511
  248MOL0     H34165   4.422   7.744   3.884 -2.6514  2.1236  1.8875
  248MOL0     H34166   4.398   7.570   3.877  3.8958  0.4814  1.3020
  248MOL0     H34167   4.485   7.711   4.120 -1.0746  1.5099 -2.8808
  248MOL0     H34168   4.467   7.538   4.102 -0.2116  1.2930  2.1452
  248MOL0     H34169   4.662   7.699   3.944 -2.8645  2.2839  1.5506
  248MOL0     H34170   4.661   7.523   3.963  1.9987 -0.1468 -0.2984
  248MOL0     H34171   4.832   7.627   4.116  0.9026 -1.4405  1.2539
  248MOL0     H34172   4.694   7.736   4.174 -0.7562 -0.9584 -1.2492
  248MOL0     H34173   4.761   7.355   4.148  4.7693  2.1540 -0.7441
  248MOL0     H34174   4.731   7.242   4.529 -1.5306 -3.3468  0.8160
  248MOL0     H34175   4.790   7.183   4.373  1.4367  0.8609  0.8111
  248MOL0     H34176   4.521   7.224   4.499  1.6043  0.2502  0.3470
  248MOL0     H34177   4.528   7.168   4.326  2.8643 -1.1439 -1.6404
  248MOL0     H34178   4.618   6.961   4.370  1.9570  0.5359  0.9881
  248MOL0     H34179   4.628   6.989   4.547 -0.5255 -2.2595 -0.0840
  248MOL0     H34180   4.419   6.886   4.560  4.3473 -0.4676 -0.2229
  248MOL0     H34181   4.365   7.043   4.526 -0.6932 -0.6625  0.8343
  248MOL0     H34182   4.548   6.734   4.365  1.3155 -3.2653 -1.1472
  248MOL0     H34183   4.512   6.368   4.446  0.1998  1.3154  1.0450
  248MOL0     H34184   4.633   6.484   4.406 -0.6228 -0.6436  3.3655
  248MOL0     H34185   4.554   6.381   4.285  0.1894  1.6354 -0.4881
  248MOL0     H34186   3.949   6.232   4.052 -0.3052  0.3496 -0.2570
  248MOL0     H34187   3.948   6.018   3.919  0.7616  0.0231 -0.0536
  248MOL0     H34188   4.339   5.786   3.822 -0.0212  1.3066  0.8444
  248MOL0     H34189   4.266   5.783   3.984 -1.9764 -0.6322  0.5453
  248MOL0     H34190   4.242   5.559   3.915 -2.4380 -0.6571  0.9685
  248MOL0     H34191   4.090   5.648   3.884 -0.1559 -2.9956  1.6363
  248MOL0     H34192   4.223   5.691   3.652  2.6045 -0.3998  0.8796
  248MOL0     H34193   4.117   5.546   3.673 -0.2533 -0.1150 -0.4561
  248MOL0     H34194   4.318   5.423   3.763 -0.2489 -1.6089 -0.2102
  248MOL0     H34195   4.427   5.554   3.708 -0.0370 -1.8433  1.6930
  248MOL0     H34196   4.432   5.380   3.542 -0.0160 -0.2682  1.1235
  248MOL0     H34197   4.251   5.361   3.552  0.1966  0.1956  4.6122
  248MOL0     H34198   4.405   5.599   3.452  0.7430 -0.8185  0.4517
  248MOL0     H34199   4.230   5.577   3.423  0.4420 -0.1310  1.6997
  248MOL0     H34200   4.287   5.361   3.284  3.1821 -2.4762  0.8373
  248MOL0     H34201   4.453   5.407   3.297  0.5357  0.6409 -0.9170
  248MOL0     H34202   4.236   5.584   3.181 -0.7685 -4.1682  1.1601
  248MOL0     H34203   4.342   5.482   3.084 -0.4732 -1.4230  0.3314
  248MOL0     H34204   4.369   6.006   3.920 -0.2762 -1.1190 -1.3955
  248MOL0     H34205   4.387   6.215   4.056 -1.7549  3.0522  2.5296
  248MOL0     H34206   4.092   6.582   4.240 -1.8484  0.9272  3.1152
  248MOL0     H34207   4.144   6.813   4.264 -1.1988  0.1428  0.5282
  248MOL0     H34208   3.788   7.727   3.907  0.5813  0.0492  0.6441
  248MOL0     H34209   3.601   7.766   3.724 -2.0429  0.0997  0.0776
  248MOL0     H34210   3.338   8.137   3.574 -0.8392  1.5785 -0.4203
  248MOL0     H34211   3.178   8.239   3.430  0.0333 -0.2558  0.8197
  248MOL0     H34212   2.840   7.959   3.288 -1.8326 -0.0474 -0.8646
  248MOL0     H34213   2.757   8.067   3.399 -2.1340  0.0061 -1.3349
  248MOL0     H34214   2.654   8.079   3.181 -1.3240  3.5935 -1.7143
  248MOL0     H34215   2.807   8.132   3.104  0.4960  1.9220  0.0358
  248MOL0     H34216   2.646   8.269   3.321 -0.1728  1.7749 -0.0296
  248MOL0     H34217   2.787   8.344   3.259 -1.9326  3.1013 -1.8474
  248MOL0     H34218   2.686   8.351   3.013 -1.7457  1.0165 -0.6558
  248MOL0     H34219   2.605   8.449   3.139 -3.1649  0.0079 -0.6080
  248MOL0     H34220   2.301   8.174   3.036 -0.9589  1.3365 -0.2456
  248MOL0     H34221   2.938   7.879   3.460  0.8144 -1.0925 -1.0731
  248MOL0     H34222   3.149   7.682   3.619 -0.9235  0.1980 -1.9458
  248MOL0     H34223   3.062   7.768   3.747 -0.0997  0.0775  0.8522
  248MOL0     H34224   2.996   7.715   3.588 -0.2658  0.8224  0.4510
  249MOL0     O34225   6.122   0.516   7.266 -0.0814 -0.1315  0.0820
  249MOL0     C34226   6.034   0.451   7.207 -0.3931  0.2990  0.7744
  249MOL0     O34227   6.065   0.347   7.120 -1.1317 -0.8957  0.0972
  249MOL0     C34228   6.193   0.299   7.129  0.5266 -0.2735  0.4746
  249MOL0     C34229   6.245   0.237   7.240  0.6209 -0.1105 -0.6889
  249MOL0     C34230   6.379   0.195   7.252  0.2438 -0.2473 -0.0647
  249MOL0     C34231   6.465   0.209   7.140  0.1288  0.3652 -0.4289
  249MOL0     O34232   6.597   0.159   7.159  0.0379  0.8567  0.2218
  249MOL0     C34233   6.689   0.251   7.103 -0.4321  0.4719  0.1341
  249MOL0     C34234   6.825   0.232   7.176  0.4387 -0.7083  0.2723
  249MOL0     C34235   6.820   0.294   7.317 -0.2422  0.6102 -0.6798
  249MOL0     C34236   6.957   0.266   7.394 -0.0974  0.4847  0.4196
  249MOL0     C34237   6.949   0.306   7.543  0.3005  0.1053  0.2907
  249MOL0     C34238   7.083   0.293   7.623 -0.6859 -0.2729 -0.6425
  249MOL0     C34239   7.076   0.301   7.771  0.1166  1.0403  0.5262
  249MOL0     C34240   7.211   0.313   7.840  0.0404  0.8592  0.7696
  249MOL0     N34241   7.256   0.450   7.843 -0.3159 -0.5777  0.1205
  249MOL0     C34242   7.329   0.516   7.743  0.6254  0.0782 -0.3437
  249MOL0     C34243   7.342   0.641   7.791 -0.0419  0.9339 -0.2441
  249MOL0     C34244   7.418   0.742   7.722  0.3362  1.4255 -0.0678
  249MOL0     C34245   7.573   0.723   7.730 -0.2267  0.3329 -0.7818
  249MOL0     C34246   7.630   0.844   7.662 -0.7145  0.2119 -0.6947
  249MOL0     C34247   7.764   0.828   7.588  0.6524 -0.0912  0.2993
  249MOL0     O34248   7.872   0.803   7.674 -0.5956 -0.9794 -0.3374
  249MOL0     C34249   8.000   0.831   7.630 -0.2326  0.1147  0.7995
  249MOL0     C34250   8.103   0.819   7.716  0.7276 -0.1462  0.0561
  249MOL0     C34251   8.230   0.866   7.694 -0.7792  0.2633  0.2709
  249MOL0     C34252   8.344   0.843   7.784  0.0331  0.1833 -0.2578
  249MOL0     C34253   8.258   0.913   7.563  0.2666 -0.4394  0.0266
  249MOL0     C34254   8.392   0.970   7.527  0.4301  0.2442 -0.1102
  249MOL0     O34255   8.462   1.048   7.615 -0.1547  0.1699 -0.0390
  249MOL0     C34256   8.595   1.069   7.585  0.8265  0.0110  0.6404
  249MOL0     C34257   8.688   0.967   7.603  0.0384  0.1096  0.3389
  249MOL0     C34258   8.822   0.995   7.597 -0.3160 -0.1047 -0.7455
  249MOL0     C34259   8.865   1.126   7.553 -0.0090  0.1407 -0.3497
  249MOL0     O34260   8.996   1.152   7.548  0.7016 -0.1270  0.9563
  249MOL0     C34261   9.052   1.273   7.493 -0.1410  0.1116  0.1163
  249MOL0     C34262   9.192   1.241   7.440 -0.9164  0.8091 -0.4297
  249MOL0     C34263   9.192   1.127   7.332 -0.1627  0.4972  0.1248
  249MOL0     C34264   9.321   1.114   7.242  0.4334 -0.1056 -0.2599
  249MOL0     C34265   9.451   1.144   7.311 -0.4703 -0.5289  0.4692
  249MOL0     C34266   9.571   1.118   7.214 -0.3322  0.4760  0.5153
  249MOL0     C34267   9.712   1.147   7.272 -0.1290  0.7832  0.1630
  249MOL0     C34268   9.812   1.157   7.154 -0.0561  0.3602  1.1324
  249MOL0    Cl34269   9.825   1.002   7.079  0.2696 -0.2875  0.0244
  249MOL0     C34270   8.773   1.229   7.531 -0.2798  0.3586  0.6677
  249MOL0     C34271   8.639   1.194   7.539 -0.0520 -0.7213 -0.4177
  249MOL0     O34272   8.426   0.937   7.413  0.3525 -0.5809 -0.1291
  249MOL0     C34273   8.158   0.923   7.474 -0.2423 -0.0817 -0.2080
  249MOL0     C34274   8.032   0.881   7.505 -0.2458  1.1046  0.2609
  249MOL0     N34275   7.266   0.653   7.904  0.2926  0.4958 -0.1275
  249MOL0     N34276   7.217   0.537   7.938  0.3829 -0.6997 -0.0657
  249MOL0     C34277   6.417   0.270   7.028 -0.5101 -0.2065 -0.6469
  249MOL0     C34278   6.283   0.317   7.016  0.9486  0.0629 -0.4124
  249MOL0     C34279   5.899   0.508   7.199 -1.2164  0.3329 -0.5926
  249MOL0     C34280   5.830   0.488   7.080 -1.0230  0.2643  0.3078
  249MOL0     C34281   5.706   0.551   7.063 -1.0058  0.5947  0.2034
  249MOL0     C34282   5.636   0.612   7.167 -0.4970  0.5025 -0.0947
  249MOL0     O34283   5.504   0.653   7.150  0.4309  0.2796 -0.7981
  249MOL0     C34284   5.456   0.662   7.012  0.2079 -1.5039 -0.8000
  249MOL0     C34285   5.335   0.764   7.009 -0.3029 -0.0665  0.3552
  249MOL0     C34286   5.212   0.681   6.995  0.1934  0.5598 -0.3511
  249MOL0     C34287   5.080   0.748   7.037  0.8632  0.4163 -0.8252
  249MOL0     C34288   4.972   0.652   7.033 -0.2045  0.8299 -0.2185
  249MOL0     C34289   4.882   0.573   7.032  0.0952  0.8133 -0.2258
  249MOL0     C34290   5.705   0.640   7.282 -0.2531 -0.0605 -0.6278
  249MOL0     C34291   5.836   0.584   7.302  0.2549  0.4340  0.2992
  249MOL0     C34292   5.906   0.626   7.434 -0.0132 -0.4848 -0.5457
  249MOL0     H34293   6.180   0.236   7.328 -2.3782  0.6117 -2.7488
  249MOL0     H34294   6.422   0.141   7.336 -0.0610 -3.7274 -1.9561
  249MOL0     H34295   6.659   0.353   7.125 -0.4387  1.1717 -2.8200
  249MOL0     H34296   6.688   0.241   6.995 -0.1622  0.1525  0.1589
  249MOL0     H34297   6.835   0.124   7.168  0.0123 -0.8394  1.3283
  249MOL0     H34298   6.902   0.277   7.112  0.5118 -0.7832  0.3087
  249MOL0     H34299   6.795   0.400   7.322  0.9000  0.8421  0.3494
  249MOL0     H34300   6.742   0.241   7.374  1.0049 -0.3231  0.2101
  249MOL0     H34301   6.990   0.162   7.384 -0.3742  0.2298  1.8825
  249MOL0     H34302   7.040   0.327   7.357  2.4678 -1.7327  2.1644
  249MOL0     H34303   6.872   0.241   7.588 -1.0905  0.8102 -0.9637
  249MOL0     H34304   6.909   0.408   7.552  1.8660  0.7547  0.0430
  249MOL0     H34305   7.123   0.193   7.599  1.9109  0.4803  0.2025
  249MOL0     H34306   7.156   0.368   7.593 -2.5414  1.4029 -1.1497
  249MOL0     H34307   7.025   0.217   7.819  1.6566  1.2940  2.7204
  249MOL0     H34308   7.025   0.395   7.795 -1.2197  0.0459  1.8139
  249MOL0     H34309   7.208   0.256   7.933  1.3313  1.0481  0.9459
  249MOL0     H34310   7.288   0.259   7.784  0.9645  1.6232  1.2660
  249MOL0     H34311   7.373   0.472   7.654 -0.2070 -0.2936 -0.5789
  249MOL0     H34312   7.385   0.836   7.768  0.0008  0.3579  1.9650
  249MOL0     H34313   7.395   0.733   7.616  1.0662 -2.0285 -0.0300
  249MOL0     H34314   7.609   0.711   7.833 -1.4347  0.6474 -0.3118
  249MOL0     H34315   7.609   0.640   7.668  1.9798  0.0850  0.7185
  249MOL0     H34316   7.556   0.896   7.600  1.5636  0.7175 -3.1666
  249MOL0     H34317   7.652   0.904   7.751 -2.8756 -1.9946  1.4929
  249MOL0     H34318   7.758   0.745   7.516 -1.8899 -2.7565  3.2571
  249MOL0     H34319   7.776   0.920   7.530 -0.1737  1.4427  2.4439
  249MOL0     H34320   8.083   0.783   7.816  3.7173 -2.1039  0.0710
  249MOL0     H34321   8.315   0.762   7.852  0.8044 -0.5211 -0.7315
  249MOL0     H34322   8.384   0.931   7.834 -3.4110  1.4747  0.4472
  249MOL0     H34323   8.423   0.795   7.724 -2.5602 -1.7788 -2.3334
  249MOL0     H34324   8.656   0.868   7.634 -1.8088 -0.6242 -3.3527
  249MOL0     H34325   8.894   0.919   7.626 -3.3079 -1.3595  4.7207
  249MOL0     H34326   8.991   1.290   7.404 -0.5872 -1.4682  0.0796
  249MOL0     H34327   9.051   1.350   7.570 -0.9759 -0.4780  0.7137
  249MOL0     H34328   9.229   1.323   7.378  1.9249 -1.4881 -2.0865
  249MOL0     H34329   9.260   1.222   7.524 -0.9134 -1.6211 -0.8916
  249MOL0     H34330   9.107   1.146   7.265 -0.9630 -1.2210  0.5902
  249MOL0     H34331   9.176   1.025   7.367  2.2380 -0.0138 -0.1613
  249MOL0     H34332   9.313   1.195   7.169  0.5295  2.6124  2.5839
  249MOL0     H34333   9.334   1.011   7.207 -0.2355 -0.5590  0.7851
  249MOL0     H34334   9.446   1.246   7.349 -0.1901 -0.4270  0.2382
  249MOL0     H34335   9.446   1.087   7.404 -0.1349 -0.3147  0.6211
  249MOL0     H34336   9.563   1.193   7.135  0.0738 -0.5867 -0.5747
  249MOL0     H34337   9.563   1.019   7.168 -2.3880  0.7496  0.1983
  249MOL0     H34338   9.742   1.063   7.335 -0.7604 -1.0930 -1.8663
  249MOL0     H34339   9.706   1.239   7.331 -1.7570 -0.0218  1.3395
  249MOL0     H34340   9.912   1.189   7.188 -0.1989  2.2151 -0.0727
  249MOL0     H34341   9.773   1.238   7.092  2.9301  1.9782  1.1601
  249MOL0     H34342   8.797   1.333   7.510  2.3414 -0.7711 -2.9798
  249MOL0     H34343   8.566   1.272   7.520 -0.9525 -1.3377  0.4467
  249MOL0     H34344   8.180   0.963   7.375 -0.6632 -0.0276 -0.2809
  249MOL0     H34345   7.963   0.897   7.423  2.8239  3.6136 -2.0749
  249MOL0     H34346   6.487   0.278   6.945  2.7586 -2.7818  1.5959
  249MOL0     H34347   6.241   0.357   6.924 -0.2490 -1.7946 -0.7356
  249MOL0     H34348   5.877   0.421   7.009 -0.6114 -2.0197  2.5822
  249MOL0     H34349   5.662   0.535   6.965  0.8577 -1.1094 -0.4226
  249MOL0     H34350   5.538   0.701   6.952  1.5562  0.1862  1.9526
  249MOL0     H34351   5.428   0.563   6.975 -1.5805 -0.6151 -1.9749
  249MOL0     H34352   5.360   0.832   6.926 -0.2671  1.2387  1.4023
  249MOL0     H34353   5.326   0.814   7.106  1.7745 -0.0944  0.6055
  249MOL0     H34354   5.192   0.655   6.891 -3.6219  0.5982  0.2311
  249MOL0     H34355   5.227   0.587   7.050  1.1236  0.9850  0.1409
  249MOL0     H34356   5.059   0.837   6.977 -1.7083  0.0391 -0.5668
  249MOL0     H34357   5.083   0.780   7.142  1.9009  0.5395 -0.8820
  249MOL0     H34358   4.804   0.501   7.015  1.8039 -0.5857 -3.0477
  249MOL0     H34359   5.657   0.699   7.360  2.9681  0.6814  0.9511
  249MOL0     H34360   5.963   0.715   7.407  2.3415 -2.2043 -1.6652
  249MOL0     H34361   5.838   0.640   7.518 -0.1214  1.1754 -0.8814
  249MOL0     H34362   5.974   0.551   7.475  1.6247  2.1615  1.9032
  250MOL0     O34363  10.776   5.745   5.376  1.2158 -0.6241  0.4496
  250MOL0     C34364  10.882   5.788   5.331 -0.0223  0.8658 -0.1535
  250MOL0     O34365  10.960   5.713   5.242  0.1793  0.2423 -0.1707
  250MOL0     C34366  10.924   5.583   5.219 -0.4149 -0.3612 -0.2368
  250MOL0     C34367  10.991   5.483   5.293  0.8955  0.4448 -0.4602
  250MOL0     C34368  10.963   5.344   5.260 -0.5810 -0.2555  0.3930
  250MOL0     C34369  10.873   5.303   5.165 -0.0065  0.0294  0.1340
  250MOL0     O34370  10.839   5.174   5.133  0.0457  0.0773 -0.0613
  250MOL0     C34371  10.934   5.071   5.157 -0.2054  0.6067 -0.3703
  250MOL0     C34372  10.878   4.934   5.121  0.3887 -0.3952 -0.4223
  250MOL0     C34373  10.961   4.818   5.136 -0.4673 -0.2657 -0.5673
  250MOL0     C34374  10.903   4.679   5.092  0.7220 -0.2025 -0.4426
  250MOL0     C34375  10.989   4.561   5.136 -0.6736  0.8769 -0.8773
  250MOL0     C34376  11.132   4.556   5.066  0.0121  0.5649  0.2339
  250MOL0     C34377  11.114   4.591   4.919 -0.8055 -0.1147 -0.2429
  250MOL0     C34378  11.237   4.580   4.838 -0.5859  0.1399  0.6671
  250MOL0     N34379  11.372   4.596   4.906 -0.2536  0.0048 -0.0613
  250MOL0     C34380  11.434   4.502   4.998  0.4854 -0.0465 -0.3129
  250MOL0     C34381  11.547   4.558   5.043  0.7316  0.3654 -0.4170
  250MOL0     C34382  11.628   4.517   5.163  0.4736  0.0815 -0.5115
  250MOL0     C34383  11.764   4.462   5.124  0.1568 -0.9621 -0.6179
  250MOL0     C34384  11.865   4.565   5.082  0.2869 -0.3379  0.1616
  250MOL0     C34385  12.002   4.499   5.046  0.1687 -0.1642  0.0384
  250MOL0     O34386  12.078   4.469   5.158 -0.6415  0.5025 -0.4232
  250MOL0     C34387  12.203   4.406   5.142  0.7796 -0.5875 -0.6868
  250MOL0     C34388  12.266   4.370   5.257  0.8676  0.0197 -0.1903
  250MOL0     C34389  12.384   4.296   5.265  0.9285 -0.0574  0.6769
  250MOL0     C34390  12.436   4.277   5.409 -0.8250 -0.3008  0.0732
  250MOL0     C34391  12.451   4.250   5.148 -0.4287  0.0775 -0.1941
  250MOL0     C34392  12.574   4.176   5.128 -0.6595  0.6653  0.2423
  250MOL0     O34393  12.610   4.142   5.002 -0.4316 -0.1429 -0.2412
  250MOL0     C34394  12.705   4.043   4.992 -0.6492  0.3668  0.3260
  250MOL0     C34395  12.692   3.916   5.053 -0.8977  0.2033 -0.1472
  250MOL0     C34396  12.802   3.827   5.051 -0.1952 -0.0273  0.6559
  250MOL0     C34397  12.913   3.855   4.981 -0.6905 -0.5102 -0.5912
  250MOL0     O34398  13.013   3.762   4.968  0.3431 -0.2144 -0.0586
  250MOL0     C34399  13.135   3.806   5.028  0.1562 -0.0801 -0.8981
  250MOL0     C34400  13.236   3.694   5.050  0.6701 -0.5975  0.3292
  250MOL0     C34401  13.213   3.591   5.163  0.7250  0.7944  0.0283
  250MOL0     C34402  13.313   3.476   5.149  0.8687  0.2182  0.0722
  250MOL0     C34403  13.322   3.393   5.283  0.5832 -0.2089 -0.3325
  250MOL0     C34404  13.413   3.276   5.273 -0.3788  0.2509  0.6706
  250MOL0     C34405  13.443   3.230   5.416 -0.8682  0.3309 -0.2764
  250MOL0     C34406  13.542   3.110   5.424 -0.1225 -0.7461 -0.4423
  250MOL0    Cl34407  13.702   3.158   5.347  0.2072  0.3665 -0.1962
  250MOL0     C34408  12.921   3.976   4.912 -0.0883 -1.0663 -0.2087
  250MOL0     C34409  12.820   4.069   4.915 -0.3914  0.3017 -0.1714
  250MOL0     O34410  12.643   4.162   5.221 -0.1250 -0.6570  0.7071
  250MOL0     C34411  12.380   4.282   5.022 -0.5948 -0.5788 -0.7408
  250MOL0     C34412  12.269   4.364   5.024  0.8423  0.0548 -0.1475
  250MOL0     N34413  11.563   4.674   4.971 -0.4370  0.3057 -0.0693
  250MOL0     N34414  11.459   4.699   4.886 -0.1462  0.0234 -0.3374
  250MOL0     C34415  10.809   5.408   5.093  0.5720 -0.4557 -0.5791
  250MOL0     C34416  10.839   5.544   5.117  0.2702 -0.8132 -0.2248
  250MOL0     C34417  10.921   5.925   5.364  0.1499  0.2090 -0.0069
  250MOL0     C34418  11.002   5.989   5.271  0.4516  0.4354 -0.0691
  250MOL0     C34419  11.039   6.123   5.293  0.1871 -0.4826  0.0223
  250MOL0     C34420  11.000   6.197   5.405 -0.3808  0.5093  0.3674
  250MOL0     O34421  11.047   6.329   5.414 -0.4433  0.0351  0.2982
  250MOL0     C34422  11.055   6.410   5.532 -0.0389  0.5430  0.5071
  250MOL0     C34423  11.153   6.353   5.636 -0.1967  0.1601  0.1314
  250MOL0     C34424  11.142   6.435   5.770  0.2274  0.1296  0.5199
  250MOL0     C34425  11.260   6.412   5.861 -0.0778 -0.6333  0.4310
  250MOL0     C34426  11.224   6.318   5.965  0.2089  0.4582  0.1186
  250MOL0     C34427  11.169   6.252   6.053 -0.1748  0.1950 -1.2325
  250MOL0     C34428  10.921   6.127   5.505  0.6137  0.7604  0.0649
  250MOL0     C34429  10.883   5.997   5.490  0.3899  0.3518 -0.8652
  250MOL0     C34430  10.801   5.936   5.603 -0.4276  1.0502  0.6385
  250MOL0     H34431  11.061   5.515   5.370  0.8361 -3.7158  1.6584
  250MOL0     H34432  11.013   5.270   5.322  0.9806  0.7183  0.3713
  250MOL0     H34433  10.958   5.055   5.263 -2.5879 -3.9860 -0.2885
  250MOL0     H34434  11.023   5.091   5.096 -0.8227  2.2825 -0.7716
  250MOL0     H34435  10.792   4.914   5.185  0.7710 -0.8977 -0.0586
  250MOL0     H34436  10.845   4.945   5.017 -0.5749 -1.5125 -0.2609
  250MOL0     H34437  11.055   4.823   5.080  1.4428 -1.7363  2.2889
  250MOL0     H34438  10.987   4.792   5.239  0.9971 -0.1211 -0.8888
  250MOL0     H34439  10.810   4.660   5.147 -0.0720  1.0256 -1.3186
  250MOL0     H34440  10.876   4.675   4.986  0.7096 -3.9370 -0.4315
  250MOL0     H34441  10.944   4.466   5.108  1.8569 -0.4315 -0.8423
  250MOL0     H34442  11.002   4.560   5.244  1.1265 -2.0420 -1.0127
  250MOL0     H34443  11.205   4.618   5.117  0.7712 -1.6546  2.0510
  250MOL0     H34444  11.175   4.455   5.075 -1.1527  0.0005 -0.2904
  250MOL0     H34445  11.094   4.698   4.911  1.7805  0.5772  1.3059
  250MOL0     H34446  11.038   4.531   4.868  0.1688 -0.7593 -0.9817
  250MOL0     H34447  11.241   4.477   4.801  3.7054 -0.1121  1.3244
  250MOL0     H34448  11.228   4.640   4.747 -0.7772 -0.6755  0.1376
  250MOL0     H34449  11.401   4.401   5.021 -0.8252 -0.0724 -2.1236
  250MOL0     H34450  11.582   4.436   5.220  3.0919 -1.1521 -0.0206
  250MOL0     H34451  11.653   4.599   5.230  0.4760 -0.2505 -0.1061
  250MOL0     H34452  11.797   4.417   5.218 -0.0881 -0.5332 -0.3202
  250MOL0     H34453  11.759   4.384   5.047  2.1987 -4.0579  2.1205
  250MOL0     H34454  11.824   4.633   5.006 -1.0206  0.6863  1.7062
  250MOL0     H34455  11.888   4.635   5.162 -0.4821 -1.5212  1.4523
  250MOL0     H34456  11.998   4.422   4.968  2.4889  0.0003 -0.3041
  250MOL0     H34457  12.055   4.584   5.002 -0.4832  0.0377 -0.3805
  250MOL0     H34458  12.228   4.396   5.355  1.4914 -0.7468  0.2634
  250MOL0     H34459  12.465   4.173   5.398 -1.2435 -0.3048 -1.0524
  250MOL0     H34460  12.357   4.290   5.485  1.1123  1.4666  1.9331
  250MOL0     H34461  12.519   4.342   5.438 -0.5122 -0.8261  0.3558
  250MOL0     H34462  12.610   3.896   5.122 -0.8284 -1.3870 -0.4845
  250MOL0     H34463  12.790   3.728   5.095  2.3532 -1.1403 -0.9529
  250MOL0     H34464  13.180   3.888   4.971  1.6764  0.8912  1.5240
  250MOL0     H34465  13.111   3.839   5.130 -0.3111 -0.1601 -0.9818
  250MOL0     H34466  13.242   3.644   4.953 -0.1044  1.0605 -0.6077
  250MOL0     H34467  13.335   3.734   5.072  2.1731 -3.1828 -1.2038
  250MOL0     H34468  13.112   3.549   5.156  0.7676  0.6642  0.2025
  250MOL0     H34469  13.214   3.638   5.261 -0.7912  2.3555 -0.6440
  250MOL0     H34470  13.409   3.523   5.127 -0.0732  1.5888 -1.4149
  250MOL0     H34471  13.287   3.416   5.061  1.3176  1.3575 -0.8578
  250MOL0     H34472  13.358   3.455   5.366  1.7121 -0.5231 -0.5642
  250MOL0     H34473  13.221   3.358   5.306  0.3155 -0.1030 -1.3275
  250MOL0     H34474  13.508   3.309   5.232 -0.9717 -2.4780 -3.4400
  250MOL0     H34475  13.368   3.190   5.222 -1.7797 -0.7580  3.4045
  250MOL0     H34476  13.354   3.199   5.471  1.0074 -0.9817  2.2790
  250MOL0     H34477  13.487   3.310   5.476 -0.7224 -0.4699  0.7089
  250MOL0     H34478  13.498   3.018   5.385 -0.4582 -0.5219 -0.5976
  250MOL0     H34479  13.557   3.083   5.529 -1.8288 -3.0339 -0.7122
  250MOL0     H34480  13.012   4.002   4.859  0.7922  0.8117  2.0146
  250MOL0     H34481  12.821   4.161   4.857  0.4966 -0.3699 -1.2438
  250MOL0     H34482  12.415   4.260   4.921 -1.2372  2.9080 -1.8650
  250MOL0     H34483  12.231   4.397   4.928 -1.2099 -4.9013 -1.3703
  250MOL0     H34484  10.737   5.391   5.013  2.9729  0.3445 -3.0326
  250MOL0     H34485  10.800   5.619   5.048  1.7214  0.3261  0.1558
  250MOL0     H34486  11.050   5.944   5.184  1.6941  1.0704  0.2570
  250MOL0     H34487  11.105   6.163   5.216 -1.6105  1.8089 -0.4630
  250MOL0     H34488  11.080   6.514   5.507 -0.3707  0.8603  1.4422
  250MOL0     H34489  10.955   6.422   5.575 -1.1758  2.8625 -2.4105
  250MOL0     H34490  11.257   6.369   5.605  0.8850 -0.9949  2.8516
  250MOL0     H34491  11.146   6.244   5.642  2.0015 -0.1746 -1.7909
  250MOL0     H34492  11.147   6.539   5.736  1.7952 -0.4906 -1.3308
  250MOL0     H34493  11.048   6.415   5.822  1.1414 -0.2402  2.1133
  250MOL0     H34494  11.279   6.507   5.912 -0.4439 -1.4055  2.0760
  250MOL0     H34495  11.346   6.377   5.803  0.3656 -0.6009  1.0661
  250MOL0     H34496  11.124   6.203   6.137 -0.3279 -0.4826 -1.7068
  250MOL0     H34497  10.894   6.173   5.600  1.4699 -0.4949  0.9384
  250MOL0     H34498  10.852   5.849   5.645 -1.9400  0.0985  0.5762
  250MOL0     H34499  10.797   6.006   5.687  1.2856  2.1476 -0.1226
  250MOL0     H34500  10.703   5.915   5.561 -0.7772  2.1877  0.8441
  251MOL0     O34501   7.288   7.327   1.332 -0.1945  0.0811 -0.1013
  251MOL0     C34502   7.254   7.315   1.217 -0.6069 -0.0315 -0.0445
  251MOL0     O34503   7.338   7.329   1.105  0.2823 -0.7556 -0.6154
  251MOL0     C34504   7.475   7.335   1.127  0.0395 -0.3946  0.6006
  251MOL0     C34505   7.551   7.435   1.053 -0.7761  0.0378  0.1266
  251MOL0     C34506   7.684   7.444   1.081 -0.6622  0.1954  0.0720
  251MOL0     C34507   7.748   7.369   1.179 -0.5581 -0.6212  0.3971
  251MOL0     O34508   7.881   7.359   1.204  0.3039  0.6379 -0.1899
  251MOL0     C34509   7.973   7.436   1.130 -0.4574  0.1666  0.0787
  251MOL0     C34510   8.116   7.377   1.162 -0.6660  0.5763  0.0757
  251MOL0     C34511   8.165   7.375   1.313 -0.2915  0.1011 -0.2955
  251MOL0     C34512   8.251   7.497   1.343  0.1369 -0.0571 -0.3390
  251MOL0     C34513   8.242   7.519   1.498 -0.2656  0.6842 -0.1867
  251MOL0     C34514   8.323   7.646   1.547  0.0032 -0.4007 -0.5531
  251MOL0     C34515   8.467   7.590   1.576 -0.0886  0.4888  0.8164
  251MOL0     C34516   8.562   7.702   1.628  0.4432  1.1702  0.5213
  251MOL0     N34517   8.572   7.799   1.521 -0.1718  0.0170  0.0126
  251MOL0     C34518   8.648   7.790   1.406 -0.1475 -0.3316 -0.1515
  251MOL0     C34519   8.621   7.906   1.334  1.0532  0.3605  0.2431
  251MOL0     C34520   8.678   7.955   1.199 -1.1252 -0.5445 -0.2381
  251MOL0     C34521   8.803   8.034   1.229 -0.4464 -0.1187 -0.7076
  251MOL0     C34522   8.857   8.102   1.107 -0.3238 -0.7554 -0.0960
  251MOL0     C34523   9.015   8.100   1.096 -0.2606 -0.2852  0.2411
  251MOL0     O34524   9.045   8.171   0.972  0.0382  0.2974  0.0526
  251MOL0     C34525   9.173   8.179   0.926 -0.3759 -0.6865 -0.1061
  251MOL0     C34526   9.186   8.221   0.796  0.1879 -0.3819 -0.6484
  251MOL0     C34527   9.313   8.233   0.743 -0.4221 -0.6357 -0.3682
  251MOL0     C34528   9.325   8.296   0.602  1.2446  0.0657 -0.0265
  251MOL0     C34529   9.433   8.186   0.811  0.8451  0.2575  0.0304
  251MOL0     C34530   9.572   8.177   0.751  0.1283 -0.2191  0.4956
  251MOL0     O34531   9.660   8.103   0.819 -1.1068 -0.0115  0.5525
  251MOL0     C34532   9.791   8.099   0.774  0.4141  0.0385 -0.0804
  251MOL0     C34533   9.865   8.210   0.745 -0.0559  0.8251 -0.2064
  251MOL0     C34534   9.997   8.206   0.693 -0.1790 -0.1934  0.4306
  251MOL0     C34535  10.060   8.084   0.674 -0.5289 -0.6715  0.2472
  251MOL0     O34536  10.181   8.080   0.610 -0.3712  0.2137  0.2672
  251MOL0     C34537  10.247   7.957   0.571 -0.3609 -0.1653 -0.2921
  251MOL0     C34538  10.393   7.982   0.538 -0.1472 -0.2991 -0.3671
  251MOL0     C34539  10.454   7.859   0.482 -0.3751  0.3156 -0.6473
  251MOL0     C34540  10.602   7.875   0.438 -0.3222  0.3420  0.0122
  251MOL0     C34541  10.633   7.996   0.349  0.2496  0.7547 -1.0665
  251MOL0     C34542  10.777   7.995   0.312  0.4507  0.3321 -0.1407
  251MOL0     C34543  10.845   8.131   0.279 -0.2320 -0.3029  0.2449
  251MOL0     C34544  10.778   8.206   0.161 -0.2321  0.0151 -0.0570
  251MOL0    Cl34545  10.610   8.273   0.192 -0.1519 -0.1567 -0.0581
  251MOL0     C34546   9.985   7.965   0.707 -0.4398  0.0382  0.1397
  251MOL0     C34547   9.854   7.972   0.751 -0.0784 -0.2593  0.4226
  251MOL0     O34548   9.590   8.239   0.643 -0.5602  0.8030 -0.0892
  251MOL0     C34549   9.410   8.142   0.941 -0.5028  0.3559 -0.1974
  251MOL0     C34550   9.285   8.135   0.994 -0.1691  0.1802 -0.2609
  251MOL0     N34551   8.517   7.968   1.405  0.2621 -0.2625  0.4996
  251MOL0     N34552   8.493   7.910   1.517 -0.6380 -0.5842  0.4328
  251MOL0     C34553   7.679   7.264   1.237 -0.0931 -0.4477 -0.3831
  251MOL0     C34554   7.540   7.246   1.216 -0.7957 -0.8320 -0.5855
  251MOL0     C34555   7.112   7.300   1.195  0.6868  0.4232  0.4625
  251MOL0     C34556   7.058   7.187   1.120  0.3783 -0.2234  0.3136
  251MOL0     C34557   6.918   7.162   1.128 -0.3373  0.1503 -0.0972
  251MOL0     C34558   6.834   7.251   1.188  0.0371 -0.3326  0.7443
  251MOL0     O34559   6.694   7.223   1.176 -0.7948  0.1418  0.2724
  251MOL0     C34560   6.614   7.308   1.246  0.4519 -0.2686 -1.1834
  251MOL0     C34561   6.464   7.273   1.222 -0.4347 -0.4757 -0.6244
  251MOL0     C34562   6.422   7.151   1.298 -0.7877 -0.0148  0.3809
  251MOL0     C34563   6.269   7.123   1.286  0.2736  0.7826 -0.3166
  251MOL0     C34564   6.189   7.189   1.396 -1.1056 -0.1365 -0.2253
  251MOL0     C34565   6.145   7.266   1.482  0.0127 -0.7878 -0.0611
  251MOL0     C34566   6.893   7.370   1.239  0.1799  0.2911  0.2442
  251MOL0     C34567   7.027   7.396   1.244 -0.4813  0.9632 -0.4352
  251MOL0     C34568   7.074   7.527   1.301 -1.2784  0.9842 -0.2798
  251MOL0     H34569   7.496   7.494   0.980  0.6167  0.8126 -0.3446
  251MOL0     H34570   7.739   7.527   1.039  2.0738 -2.0542 -1.1107
  251MOL0     H34571   7.959   7.540   1.161 -0.1073  0.7278 -1.5536
  251MOL0     H34572   7.947   7.438   1.024 -0.3352  0.4285  0.0538
  251MOL0     H34573   8.124   7.276   1.121  1.2429 -0.4383  2.7126
  251MOL0     H34574   8.197   7.429   1.109  1.1104 -0.9913  1.1535
  251MOL0     H34575   8.071   7.373   1.370 -0.8070  2.2925 -0.9989
  251MOL0     H34576   8.235   7.293   1.334  2.1544  2.5148  1.5985
  251MOL0     H34577   8.356   7.475   1.320  1.3015  1.7376  2.5942
  251MOL0     H34578   8.218   7.586   1.290  1.1772  0.8148  0.4116
  251MOL0     H34579   8.267   7.420   1.538  0.5136 -0.8096 -3.9572
  251MOL0     H34580   8.140   7.545   1.531  0.0903  4.2464 -1.4121
  251MOL0     H34581   8.310   7.725   1.473 -1.1022  0.6463  0.7269
  251MOL0     H34582   8.286   7.682   1.643 -0.1288  1.6593 -1.3259
  251MOL0     H34583   8.515   7.546   1.488 -3.1416 -0.6092 -0.4311
  251MOL0     H34584   8.468   7.509   1.649  0.3509  0.7688  1.1233
  251MOL0     H34585   8.520   7.741   1.722 -2.4661 -0.5428  0.0289
  251MOL0     H34586   8.662   7.661   1.646 -0.1220 -0.5888 -0.2177
  251MOL0     H34587   8.712   7.707   1.376  0.4722 -0.0077  0.2491
  251MOL0     H34588   8.620   8.037   1.154 -0.2694  0.4957  0.5000
  251MOL0     H34589   8.696   7.877   1.124  0.5205  1.4309 -2.0268
  251MOL0     H34590   8.791   8.107   1.309  3.5697 -0.8833  0.8139
  251MOL0     H34591   8.880   7.972   1.275 -2.8600 -1.0200  2.4991
  251MOL0     H34592   8.819   8.037   1.027 -2.6955 -1.1337  1.2399
  251MOL0     H34593   8.819   8.204   1.098 -3.1875 -1.5463  1.6479
  251MOL0     H34594   9.052   8.156   1.183 -0.3899 -1.1303  0.8522
  251MOL0     H34595   9.054   7.998   1.100  0.3936 -0.0299  3.1471
  251MOL0     H34596   9.096   8.266   0.754  0.7802  1.2455 -0.2191
  251MOL0     H34597   9.401   8.375   0.597  0.3557  0.9990  0.6818
  251MOL0     H34598   9.233   8.351   0.580  0.4275 -1.0856  0.4439
  251MOL0     H34599   9.324   8.224   0.520 -0.5485  0.8055 -0.6928
  251MOL0     H34600   9.817   8.307   0.755 -0.3674  1.0246 -2.8538
  251MOL0     H34601  10.036   8.306   0.678 -0.0966  0.0472  2.0761
  251MOL0     H34602  10.227   7.886   0.651 -0.4113 -0.7694 -0.8323
  251MOL0     H34603  10.211   7.921   0.474  0.3177 -3.4122  0.5423
  251MOL0     H34604  10.399   8.068   0.470  1.2216  2.1017  2.5432
  251MOL0     H34605  10.446   8.003   0.631 -1.9544  2.5259  0.1403
  251MOL0     H34606  10.396   7.832   0.394  0.1866 -0.3346 -0.8276
  251MOL0     H34607  10.437   7.781   0.557  2.0840  0.4993  0.1907
  251MOL0     H34608  10.634   7.784   0.388  0.4305  0.7928 -0.3515
  251MOL0     H34609  10.672   7.879   0.522  0.5174  1.8083 -0.7175
  251MOL0     H34610  10.570   7.990   0.260 -1.2910  1.8841 -0.1030
  251MOL0     H34611  10.604   8.084   0.407 -2.4536  0.4255 -1.7964
  251MOL0     H34612  10.782   7.919   0.234 -0.9341 -1.5699  1.4933
  251MOL0     H34613  10.831   7.946   0.394 -1.5267 -2.9102 -0.6100
  251MOL0     H34614  10.946   8.110   0.242 -1.0330  0.3169 -2.5434
  251MOL0     H34615  10.870   8.193   0.366  1.3149  0.6106 -0.8047
  251MOL0     H34616  10.781   8.147   0.069  1.8074  0.0159 -0.0339
  251MOL0     H34617  10.831   8.301   0.147 -2.7794  1.4727 -0.5311
  251MOL0     H34618  10.022   7.864   0.715 -0.3425  0.2254  3.0799
  251MOL0     H34619   9.803   7.877   0.762 -2.1950 -0.4059 -6.3031
  251MOL0     H34620   9.498   8.112   0.996 -0.8234 -0.0472  0.0955
  251MOL0     H34621   9.278   8.086   1.091 -2.1211 -2.8580 -1.7817
  251MOL0     H34622   7.729   7.202   1.311  0.6639  0.2245 -0.3206
  251MOL0     H34623   7.476   7.163   1.244 -1.0496 -0.1479  0.9838
  251MOL0     H34624   7.142   7.130   1.082  1.4382  1.2852  0.2873
  251MOL0     H34625   6.882   7.075   1.074 -1.0186 -0.9692  2.0310
  251MOL0     H34626   6.633   7.314   1.353  2.8113  1.7955 -1.6365
  251MOL0     H34627   6.616   7.412   1.213 -3.0821  0.6007  0.8656
  251MOL0     H34628   6.453   7.249   1.116 -0.1020  1.3681 -1.1032
  251MOL0     H34629   6.414   7.367   1.247 -0.8228 -0.1952 -2.3143
  251MOL0     H34630   6.479   7.065   1.265 -0.8185 -1.1929  3.1334
  251MOL0     H34631   6.447   7.171   1.403 -2.7021  1.4419  0.6351
  251MOL0     H34632   6.259   7.015   1.280 -1.4224  0.8523  0.5255
  251MOL0     H34633   6.245   7.157   1.185 -0.5464  0.4254 -0.2472
  251MOL0     H34634   6.118   7.332   1.562  0.2924 -0.3356 -0.3336
  251MOL0     H34635   6.844   7.455   1.284  0.8382  1.3760 -1.0171
  251MOL0     H34636   7.160   7.562   1.243 -3.1529  2.3818 -2.4098
  251MOL0     H34637   6.986   7.591   1.308 -3.0184 -1.4029  0.5736
  251MOL0     H34638   7.107   7.503   1.403 -1.3324 -1.4131 -0.7705
  252MOL0     O34639   2.032   2.981   2.783 -0.0456  0.3790  0.6174
  252MOL0     C34640   2.084   2.896   2.712 -0.3467  0.5508  0.5304
  252MOL0     O34641   2.017   2.812   2.624  0.3981  0.3961 -0.4142
  252MOL0     C34642   1.881   2.826   2.611 -0.6430  0.2200 -0.7800
  252MOL0     C34643   1.833   2.941   2.543  0.7751 -0.5131  0.2592
  252MOL0     C34644   1.695   2.954   2.518 -0.5830  0.5150  0.0371
  252MOL0     C34645   1.601   2.860   2.566  0.5108 -0.6219 -0.0936
  252MOL0     O34646   1.465   2.887   2.553  0.4288  0.3705 -0.4025
  252MOL0     C34647   1.413   2.949   2.670 -0.8758  0.2476  0.2268
  252MOL0     C34648   1.258   2.965   2.652 -0.8537 -0.0677 -0.7030
  252MOL0     C34649   1.212   3.048   2.531  0.3757 -0.1798 -0.2391
  252MOL0     C34650   1.066   3.018   2.501 -0.1370 -0.2031  0.6735
  252MOL0     C34651   0.999   3.099   2.393 -0.0550 -0.4927  0.3435
  252MOL0     C34652   0.978   3.248   2.428 -0.6374 -0.4271  0.8776
  252MOL0     C34653   0.892   3.318   2.314  0.4809 -0.2197  0.4467
  252MOL0     C34654   0.827   3.456   2.345 -0.6913  0.5406  0.4359
  252MOL0     N34655   0.708   3.448   2.429  0.1276 -0.4570  0.0868
  252MOL0     C34656   0.693   3.407   2.555 -0.4182  0.0085 -0.0318
  252MOL0     C34657   0.561   3.429   2.587 -0.8949  0.2266 -0.3767
  252MOL0     C34658   0.519   3.409   2.727  0.0811  0.1786 -0.4390
  252MOL0     C34659   0.458   3.533   2.790 -0.0501  0.1507 -0.1212
  252MOL0     C34660   0.381   3.512   2.920 -0.0050 -0.1374 -0.7647
  252MOL0     C34661   0.474   3.470   3.042 -0.4414 -0.1821  0.0227
  252MOL0     O34662   0.558   3.579   3.077  0.8114 -0.8139 -0.3728
  252MOL0     C34663   0.689   3.550   3.095  0.0478  0.7270 -0.1624
  252MOL0     C34664   0.734   3.450   3.188  0.3309 -0.2109  0.1171
  252MOL0     C34665   0.871   3.426   3.209 -0.0251 -0.2870  0.3966
  252MOL0     C34666   0.897   3.318   3.313 -0.0261 -1.5864  0.4269
  252MOL0     C34667   0.969   3.516   3.145  0.4680  0.2828  0.3474
  252MOL0     C34668   1.115   3.496   3.175 -0.1063 -0.5675 -0.6128
  252MOL0     O34669   1.149   3.412   3.282  0.7727 -0.4238  0.0384
  252MOL0     C34670   1.272   3.407   3.327  0.7719  0.0693  0.1963
  252MOL0     C34671   1.282   3.426   3.463  0.5430 -0.1259  0.4088
  252MOL0     C34672   1.409   3.420   3.520 -0.3308  0.9892 -0.2189
  252MOL0     C34673   1.512   3.358   3.459 -0.7704  0.3776 -0.4711
  252MOL0     O34674   1.623   3.322   3.535 -0.3921 -0.1358  0.2709
  252MOL0     C34675   1.731   3.274   3.454  0.0018 -0.3762 -0.6823
  252MOL0     C34676   1.843   3.253   3.561 -0.3015  0.4897 -0.2254
  252MOL0     C34677   1.964   3.220   3.469  0.2909  0.5464  0.4064
  252MOL0     C34678   2.080   3.166   3.562  0.6633 -0.4702 -0.4474
  252MOL0     C34679   2.212   3.170   3.475 -0.8762  0.0224 -0.0351
  252MOL0     C34680   2.317   3.123   3.573  0.0238 -0.0173  0.3709
  252MOL0     C34681   2.460   3.132   3.525  0.0115 -0.4865 -0.8721
  252MOL0     C34682   2.545   3.174   3.642 -0.2008  0.1768 -0.5931
  252MOL0    Cl34683   2.725   3.162   3.606  0.2340 -0.5474  0.1311
  252MOL0     C34684   1.502   3.341   3.318  0.1388 -0.0016 -1.1654
  252MOL0     C34685   1.378   3.372   3.251 -1.1451 -0.4979 -0.0122
  252MOL0     O34686   1.190   3.568   3.115 -0.3739 -0.6687  0.2081
  252MOL0     C34687   0.924   3.605   3.053 -0.4691 -0.3849  0.8084
  252MOL0     C34688   0.786   3.628   3.028 -1.2153  0.5256 -0.2089
  252MOL0     N34689   0.491   3.482   2.474  0.1663  0.6903 -0.4829
  252MOL0     N34690   0.588   3.490   2.384  0.0780  0.1472 -0.4141
  252MOL0     C34691   1.650   2.747   2.640  0.1963 -0.3879  0.3070
  252MOL0     C34692   1.792   2.730   2.657  0.8499 -0.6063  0.7099
  252MOL0     C34693   2.227   2.860   2.735  0.3703  0.5107 -0.2633
  252MOL0     C34694   2.321   2.964   2.724 -0.4499 -0.1672  0.7755
  252MOL0     C34695   2.457   2.944   2.742  0.5999 -0.4980 -0.0381
  252MOL0     C34696   2.501   2.818   2.779 -0.3061  1.1646 -0.3340
  252MOL0     O34697   2.633   2.815   2.818 -0.2871  0.1920  0.4007
  252MOL0     C34698   2.709   2.710   2.748 -0.7182  0.8856 -0.3638
  252MOL0     C34699   2.828   2.669   2.832  0.5888 -0.1082 -0.2167
  252MOL0     C34700   2.797   2.575   2.943  0.4413 -0.5740  0.3691
  252MOL0     C34701   2.887   2.455   2.977 -0.3709 -0.2359 -0.1297
  252MOL0     C34702   3.025   2.498   3.016 -0.0351 -0.6149 -0.3634
  252MOL0     C34703   3.131   2.540   3.063  0.5365  0.4886  0.3901
  252MOL0     C34704   2.408   2.715   2.814 -0.4036 -0.0731  0.6809
  252MOL0     C34705   2.276   2.735   2.781 -0.0999  0.1327  0.0069
  252MOL0     C34706   2.177   2.627   2.825 -0.2633  0.3576 -0.1256
  252MOL0     H34707   1.912   3.006   2.507 -0.9750  0.1953 -2.5563
  252MOL0     H34708   1.666   3.038   2.457 -0.7689  0.3646 -0.0815
  252MOL0     H34709   1.447   3.051   2.688 -1.0883  0.0031  2.3936
  252MOL0     H34710   1.428   2.893   2.764 -2.2503 -0.6045 -0.0287
  252MOL0     H34711   1.223   2.862   2.634 -2.8572  0.4645 -0.0776
  252MOL0     H34712   1.201   2.992   2.741 -0.5887 -0.0280 -0.5447
  252MOL0     H34713   1.217   3.153   2.560 -1.7936 -0.5624  1.7917
  252MOL0     H34714   1.275   3.039   2.442 -0.6204  0.4353 -1.0320
  252MOL0     H34715   1.059   2.912   2.474  2.1000 -1.4738  4.3512
  252MOL0     H34716   1.011   3.026   2.596  0.5507 -3.1144  1.4130
  252MOL0     H34717   0.905   3.048   2.372 -1.2461  1.3310  1.0254
  252MOL0     H34718   1.065   3.095   2.306 -2.5534  1.7470 -1.8200
  252MOL0     H34719   0.913   3.248   2.515  0.1102  1.9413  1.5257
  252MOL0     H34720   1.074   3.299   2.445 -1.0256  1.6659 -2.3803
  252MOL0     H34721   0.813   3.245   2.292  1.7278 -0.5713 -3.8431
  252MOL0     H34722   0.956   3.328   2.225  1.7630  2.5514  1.5518
  252MOL0     H34723   0.905   3.520   2.388  2.3498 -2.2778 -0.5179
  252MOL0     H34724   0.807   3.499   2.247  1.0253 -1.3038 -0.7795
  252MOL0     H34725   0.773   3.386   2.625 -0.1591  1.1398  0.0375
  252MOL0     H34726   0.600   3.379   2.793 -0.5441 -1.3115 -0.3097
  252MOL0     H34727   0.438   3.336   2.730  0.6049 -0.7916 -4.4050
  252MOL0     H34728   0.542   3.598   2.813  1.2203 -2.1962  2.4794
  252MOL0     H34729   0.383   3.579   2.725 -1.6955 -2.0817  0.0594
  252MOL0     H34730   0.321   3.596   2.954 -2.0565 -2.1070  0.8448
  252MOL0     H34731   0.324   3.419   2.907  0.3989 -0.5507  0.2598
  252MOL0     H34732   0.397   3.439   3.114  1.4968 -4.1246  0.6762
  252MOL0     H34733   0.533   3.385   3.007  0.9235  1.1955 -1.1423
  252MOL0     H34734   0.657   3.396   3.242 -1.2692  0.9836 -0.8736
  252MOL0     H34735   0.977   3.247   3.290  0.8660 -0.0564 -1.4736
  252MOL0     H34736   0.807   3.257   3.323 -0.3578 -1.4027 -1.1705
  252MOL0     H34737   0.901   3.365   3.412 -3.7400  2.7388 -1.0997
  252MOL0     H34738   1.203   3.472   3.522 -1.4035 -0.6326 -1.6357
  252MOL0     H34739   1.433   3.438   3.625 -1.0990  0.1733  0.1164
  252MOL0     H34740   1.706   3.177   3.410 -0.1809  0.1408 -1.7617
  252MOL0     H34741   1.756   3.348   3.378 -3.7790  0.8715 -0.8820
  252MOL0     H34742   1.848   3.348   3.615 -4.2779  0.2140  0.9862
  252MOL0     H34743   1.814   3.176   3.633  1.5361  1.1276  1.2782
  252MOL0     H34744   2.002   3.309   3.419  1.5743 -0.3746 -0.3196
  252MOL0     H34745   1.939   3.141   3.398  0.8454  0.5464  0.2041
  252MOL0     H34746   2.048   3.067   3.597 -2.3410  0.6021  0.1489
  252MOL0     H34747   2.080   3.236   3.645  0.1149 -1.3498  0.3178
  252MOL0     H34748   2.212   3.098   3.393  3.0572 -1.3744  0.9927
  252MOL0     H34749   2.230   3.272   3.439 -0.8363 -1.2283 -4.0460
  252MOL0     H34750   2.296   3.019   3.602 -1.3194  0.5462  1.5447
  252MOL0     H34751   2.310   3.179   3.666  0.2710 -1.2825  1.1816
  252MOL0     H34752   2.464   3.211   3.450  0.7969 -0.3045 -0.6535
  252MOL0     H34753   2.500   3.043   3.476  0.5442 -0.8619  0.2047
  252MOL0     H34754   2.533   3.120   3.736 -0.0352  3.5166  1.5421
  252MOL0     H34755   2.516   3.278   3.659 -0.0134  0.4651 -1.9103
  252MOL0     H34756   1.573   3.282   3.260  0.9468  1.6103 -1.8652
  252MOL0     H34757   1.351   3.354   3.148 -3.3613  0.0887  0.4247
  252MOL0     H34758   0.989   3.663   2.988 -3.4398  0.9601 -1.2278
  252MOL0     H34759   0.754   3.706   2.960 -0.4706  1.7279  0.7689
  252MOL0     H34760   1.580   2.671   2.673  0.5762 -0.9392 -0.1418
  252MOL0     H34761   1.837   2.648   2.712  1.0129 -0.4827  0.7592
  252MOL0     H34762   2.290   3.060   2.685  2.9538  1.6494  2.0889
  252MOL0     H34763   2.535   3.012   2.708 -1.6727  1.8806 -0.8177
  252MOL0     H34764   2.640   2.632   2.713 -0.6721  0.5249  0.3242
  252MOL0     H34765   2.755   2.764   2.665  0.5403  1.6801  0.8132
  252MOL0     H34766   2.859   2.760   2.884 -1.5283 -0.2624  1.4786
  252MOL0     H34767   2.907   2.619   2.775  1.0252  0.4517 -0.1122
  252MOL0     H34768   2.783   2.636   3.032  3.2167  2.3990 -1.0179
  252MOL0     H34769   2.699   2.530   2.924 -1.4388  3.2714 -0.0496
  252MOL0     H34770   2.890   2.390   2.889 -3.3732  0.8547 -1.1602
  252MOL0     H34771   2.839   2.407   3.062 -0.4453 -1.6319 -0.9320
  252MOL0     H34772   3.223   2.585   3.095  0.2549 -0.2960  2.4058
  252MOL0     H34773   2.442   2.617   2.846  2.5720 -1.0695 -4.4511
  252MOL0     H34774   2.244   2.562   2.881  1.8004  0.9092 -1.8132
  252MOL0     H34775   2.094   2.666   2.883 -0.6451  1.5478 -1.4072
  252MOL0     H34776   2.148   2.576   2.732  3.2480  1.2962 -1.9099
  253MOL0     O34777   5.992   3.035   6.926 -0.8097 -0.0061 -0.0258
  253MOL0     C34778   5.989   2.925   6.874  0.5363  1.2614  0.5678
  253MOL0     O34779   6.099   2.836   6.852  0.7485 -0.8187 -0.9791
  253MOL0     C34780   6.218   2.882   6.909 -0.1201  0.7226 -0.8772
  253MOL0     C34781   6.238   2.877   7.046 -0.0363  1.4417 -1.0079
  253MOL0     C34782   6.354   2.915   7.101 -0.0257 -0.4938 -0.0436
  253MOL0     C34783   6.456   2.976   7.021 -0.1774  0.6859  0.3734
  253MOL0     O34784   6.578   3.014   7.072 -0.0142 -0.2050  0.2843
  253MOL0     C34785   6.621   2.955   7.198 -0.4003  0.7704  0.2309
  253MOL0     C34786   6.766   2.990   7.217 -0.9516 -0.1045 -0.0595
  253MOL0     C34787   6.792   2.970   7.369  0.6256  0.0010 -0.6334
  253MOL0     C34788   6.930   2.915   7.410  0.5524  0.3376  0.1277
  253MOL0     C34789   7.037   3.019   7.420  0.0682 -0.4138  0.0404
  253MOL0     C34790   7.177   2.963   7.460  0.5860 -1.1183 -0.4484
  253MOL0     C34791   7.239   2.886   7.350 -0.2903  0.1944  0.0876
  253MOL0     C34792   7.383   2.827   7.394  0.3980  0.0847 -0.6245
  253MOL0     N34793   7.457   2.791   7.275  0.5312 -0.0674 -0.2008
  253MOL0     C34794   7.590   2.823   7.245  0.0001 -0.3894  0.2530
  253MOL0     C34795   7.601   2.774   7.119  0.3509  0.6354  0.3338
  253MOL0     C34796   7.716   2.778   7.026 -0.7056  0.8378 -0.6636
  253MOL0     C34797   7.853   2.827   7.084 -0.2970  0.1313 -0.9351
  253MOL0     C34798   7.965   2.831   6.983  0.0597 -0.1383  0.2004
  253MOL0     C34799   8.090   2.910   7.036 -0.1524 -0.7347 -0.7048
  253MOL0     O34800   8.038   3.033   7.088  0.1086 -0.5186 -0.0446
  253MOL0     C34801   8.119   3.123   7.152  0.5677  0.3859 -0.3777
  253MOL0     C34802   8.062   3.218   7.230 -0.1973 -1.0391  0.6631
  253MOL0     C34803   8.134   3.314   7.296  0.6775  0.2412 -0.3951
  253MOL0     C34804   8.056   3.408   7.394 -0.1976 -0.7700  0.2668
  253MOL0     C34805   8.277   3.315   7.276  0.9094  0.0163 -1.1469
  253MOL0     C34806   8.373   3.418   7.338  0.4277 -0.1812 -0.3972
  253MOL0     O34807   8.502   3.400   7.309 -0.2527 -0.3969  0.3737
  253MOL0     C34808   8.590   3.494   7.360  0.4708 -0.8344 -0.1908
  253MOL0     C34809   8.682   3.463   7.463  1.0136  0.8478  0.3270
  253MOL0     C34810   8.758   3.567   7.519  0.4483 -0.7800 -0.1752
  253MOL0     C34811   8.778   3.694   7.464  1.0710  0.8641 -0.2118
  253MOL0     O34812   8.863   3.779   7.526  0.1662  0.8456 -0.3862
  253MOL0     C34813   8.933   3.881   7.447  0.1550 -0.4805 -0.8775
  253MOL0     C34814   9.011   3.968   7.543  0.5826  0.8589  0.1307
  253MOL0     C34815   9.109   3.889   7.634  0.1038 -0.6565  0.6241
  253MOL0     C34816   9.220   3.816   7.547  0.3998  0.1573 -0.0880
  253MOL0     C34817   9.324   3.752   7.626  0.6901  0.1887  0.1149
  253MOL0     C34818   9.444   3.721   7.529  0.1602  0.8174  0.1054
  253MOL0     C34819   9.560   3.653   7.599  0.4269  0.2472  0.9007
  253MOL0     C34820   9.678   3.643   7.514 -0.0989  0.1555  0.5166
  253MOL0    Cl34821   9.813   3.569   7.613  0.3058 -0.4753 -0.1523
  253MOL0     C34822   8.692   3.720   7.350 -0.0906  0.2610 -0.0674
  253MOL0     C34823   8.601   3.626   7.305  0.3472 -0.6511  0.1011
  253MOL0     O34824   8.317   3.512   7.405 -0.6687  0.0122  0.2046
  253MOL0     C34825   8.333   3.209   7.201  0.0904  0.4385 -0.3236
  253MOL0     C34826   8.256   3.118   7.136 -0.0477 -0.5241 -0.4840
  253MOL0     N34827   7.482   2.716   7.079 -0.0649 -0.2667  0.4567
  253MOL0     N34828   7.399   2.731   7.168  0.6437 -0.8322 -0.0479
  253MOL0     C34829   6.433   2.988   6.885  0.7194 -0.4692 -0.2673
  253MOL0     C34830   6.318   2.937   6.828 -0.5071  0.4705  0.6600
  253MOL0     C34831   5.848   2.877   6.839  0.7104 -0.3026  0.4257
  253MOL0     C34832   5.744   2.973   6.804 -0.2896  0.3110 -0.0061
  253MOL0     C34833   5.615   2.925   6.770  0.5327 -0.2939 -0.2225
  253MOL0     C34834   5.582   2.792   6.770 -0.4629  0.2978 -0.3518
  253MOL0     O34835   5.449   2.757   6.759 -0.6420 -0.3649  0.4615
  253MOL0     C34836   5.418   2.616   6.749  0.9166 -0.0752 -0.0914
  253MOL0     C34837   5.265   2.620   6.727  0.2633 -0.6857  0.0315
  253MOL0     C34838   5.209   2.473   6.703  0.7477  0.2922 -1.0794
  253MOL0     C34839   5.219   2.441   6.552  0.6327 -0.1638  0.3625
  253MOL0     C34840   5.115   2.509   6.479 -0.9228 -0.1266  0.4996
  253MOL0     C34841   5.033   2.564   6.412  0.2978 -1.1987  0.6419
  253MOL0     C34842   5.683   2.703   6.806  0.1160  0.0911  0.6324
  253MOL0     C34843   5.812   2.740   6.837  0.1589 -0.6914  1.1020
  253MOL0     C34844   5.903   2.632   6.888 -0.5338 -0.1539  0.9716
  253MOL0     H34845   6.159   2.845   7.112  0.7039  0.3547 -0.6314
  253MOL0     H34846   6.370   2.901   7.208  1.5433  0.6684 -0.0844
  253MOL0     H34847   6.609   2.847   7.182 -0.1596  0.8147 -0.2604
  253MOL0     H34848   6.547   2.985   7.273  0.1251  1.6725  0.4084
  253MOL0     H34849   6.831   2.923   7.161 -2.4040 -0.7496 -1.0482
  253MOL0     H34850   6.795   3.091   7.187 -0.3828  0.2745  1.6330
  253MOL0     H34851   6.783   3.071   7.410 -1.1202 -0.2858 -0.2494
  253MOL0     H34852   6.714   2.900   7.401  1.6835 -0.7661  0.3542
  253MOL0     H34853   6.919   2.865   7.507 -1.7314 -1.2390 -0.8249
  253MOL0     H34854   6.955   2.828   7.348 -0.3461  0.4781 -0.4551
  253MOL0     H34855   6.994   3.095   7.486 -1.7279 -0.6908 -0.7686
  253MOL0     H34856   7.039   3.063   7.320 -1.1000  0.2383  0.2797
  253MOL0     H34857   7.238   3.048   7.492 -2.4117  1.4847 -1.0902
  253MOL0     H34858   7.167   2.893   7.544  2.3050 -1.0691 -0.1579
  253MOL0     H34859   7.250   2.954   7.266 -0.7952  1.7321  1.2133
  253MOL0     H34860   7.176   2.806   7.310 -0.1949  1.3794 -2.6653
  253MOL0     H34861   7.438   2.908   7.443 -0.1141  1.1436 -1.7486
  253MOL0     H34862   7.375   2.747   7.468 -1.4870  1.5129  0.8468
  253MOL0     H34863   7.669   2.868   7.304 -0.0500  1.9103 -1.3232
  253MOL0     H34864   7.701   2.829   6.930  1.4596 -2.1622 -2.7767
  253MOL0     H34865   7.719   2.679   6.979 -0.6769  0.4370  0.1645
  253MOL0     H34866   7.822   2.929   7.110 -0.3691 -0.2784  0.7613
  253MOL0     H34867   7.885   2.776   7.176 -3.5331  0.3486  0.4464
  253MOL0     H34868   7.990   2.727   6.958  0.1627  0.0786 -0.6474
  253MOL0     H34869   7.925   2.886   6.897 -1.6127  3.0168  2.7657
  253MOL0     H34870   8.136   2.845   7.111 -1.1746 -1.2734 -0.5242
  253MOL0     H34871   8.165   2.923   6.958 -0.4951 -1.2862 -1.1389
  253MOL0     H34872   7.954   3.218   7.246 -0.3500 -0.9877 -0.3197
  253MOL0     H34873   8.072   3.511   7.361  0.7421 -0.6317  1.1101
  253MOL0     H34874   8.094   3.410   7.497 -2.2961  0.3998  1.0848
  253MOL0     H34875   7.950   3.381   7.401 -1.5242  2.8741 -2.4973
  253MOL0     H34876   8.682   3.360   7.497 -1.6177  0.9796  0.9363
  253MOL0     H34877   8.811   3.539   7.610 -0.3377  1.1591  0.9483
  253MOL0     H34878   8.999   3.844   7.368 -1.0694  1.3459 -2.8586
  253MOL0     H34879   8.863   3.950   7.400  0.4947 -0.4059 -1.2754
  253MOL0     H34880   9.063   4.051   7.496 -1.2999  3.4357  2.2964
  253MOL0     H34881   8.938   4.017   7.607 -1.6279 -0.9130 -0.8925
  253MOL0     H34882   9.060   3.813   7.696  2.3345 -1.0001  2.1048
  253MOL0     H34883   9.154   3.959   7.705  0.5365 -1.2834  0.9824
  253MOL0     H34884   9.274   3.890   7.488  2.2923 -2.2312 -1.5038
  253MOL0     H34885   9.169   3.735   7.494  0.3094 -1.4882  2.3644
  253MOL0     H34886   9.361   3.820   7.703 -0.0881  1.9800 -1.0233
  253MOL0     H34887   9.291   3.658   7.671  0.9652 -0.9521 -1.9490
  253MOL0     H34888   9.473   3.816   7.483 -1.1560  1.9221  1.4643
  253MOL0     H34889   9.404   3.650   7.457 -0.0349 -2.7926  3.4359
  253MOL0     H34890   9.526   3.559   7.643 -2.3971  1.1540  0.8061
  253MOL0     H34891   9.586   3.720   7.682 -4.2100 -0.3574  3.1443
  253MOL0     H34892   9.716   3.737   7.475  1.1979 -1.0458 -1.2869
  253MOL0     H34893   9.656   3.591   7.420 -2.8246  1.1825  0.4775
  253MOL0     H34894   8.687   3.817   7.301 -1.8415 -0.1824 -0.8345
  253MOL0     H34895   8.545   3.646   7.214  1.6020 -2.9780 -1.2517
  253MOL0     H34896   8.441   3.205   7.191 -0.0494  2.4205 -4.6017
  253MOL0     H34897   8.303   3.048   7.067 -1.3514 -1.3297 -0.5921
  253MOL0     H34898   6.511   3.044   6.834 -0.4848  2.4453  0.8495
  253MOL0     H34899   6.295   2.938   6.722  1.9921 -0.2550  0.0562
  253MOL0     H34900   5.764   3.079   6.819  1.3578  0.0468 -0.1004
  253MOL0     H34901   5.535   2.996   6.750  0.8370  1.1932  3.0649
  253MOL0     H34902   5.481   2.572   6.672  1.0662  0.3959 -0.2425
  253MOL0     H34903   5.435   2.568   6.846  1.6122  0.1337 -0.1064
  253MOL0     H34904   5.230   2.686   6.647 -1.1816 -1.6087 -0.1404
  253MOL0     H34905   5.220   2.655   6.820  1.1740  0.4387  0.0731
  253MOL0     H34906   5.273   2.403   6.758  1.6484  0.5750 -1.7378
  253MOL0     H34907   5.108   2.471   6.745  1.8734  1.4859  1.9540
  253MOL0     H34908   5.212   2.336   6.522  2.1921  0.0056 -0.7084
  253MOL0     H34909   5.319   2.468   6.516  1.4784 -1.6638  1.4653
  253MOL0     H34910   4.964   2.606   6.342  2.3133 -0.9818 -1.3558
  253MOL0     H34911   5.652   2.601   6.822 -0.0203  0.1578  0.7994
  253MOL0     H34912   5.947   2.668   6.982  0.2453  2.6096 -0.3588
  253MOL0     H34913   5.862   2.533   6.909 -0.1545 -0.3740  0.6865
  253MOL0     H34914   5.980   2.617   6.812  0.1547  2.5963  1.0253
  254MOL0     O34915   8.818   6.628  10.087  0.6233 -0.1975  0.3720
  254MOL0     C34916   8.803   6.602  10.205 -0.1477 -0.0416  0.1483
  254MOL0     O34917   8.849   6.490  10.268  0.0607 -0.0074  0.8758
  254MOL0     C34918   8.922   6.408  10.195 -0.5653  0.0484  0.0641
  254MOL0     C34919   9.053   6.396  10.244 -0.4271  0.1534 -0.5442
  254MOL0     C34920   9.137   6.301  10.190  0.8343  0.0714 -0.8417
  254MOL0     C34921   9.100   6.226  10.086  0.2319 -0.0477  0.1791
  254MOL0     O34922   9.191   6.133  10.044 -0.2899  0.2983  0.1298
  254MOL0     C34923   9.181   6.090   9.904 -0.5612 -0.3855  0.9215
  254MOL0     C34924   9.284   5.987   9.871 -0.4346  0.4411 -0.7074
  254MOL0     C34925   9.430   6.038   9.901 -0.5148  0.0947  0.4862
  254MOL0     C34926   9.539   5.936   9.865 -0.1235  0.0667  0.1949
  254MOL0     C34927   9.679   6.003   9.841 -0.1298  0.2892 -1.0492
  254MOL0     C34928   9.792   5.900   9.809 -0.0327  0.0950 -0.3485
  254MOL0     C34929   9.927   5.965   9.797  0.2598 -0.6577  0.0490
  254MOL0     C34930   9.945   6.041   9.666 -0.3776 -0.0046  0.0309
  254MOL0     N34931  10.085   6.099   9.653  1.0665 -0.3932 -0.4750
  254MOL0     C34932  10.201   6.035   9.688  1.1007 -0.2700  0.5530
  254MOL0     C34933  10.300   6.124   9.663 -0.4257  0.3565 -0.7461
  254MOL0     C34934  10.449   6.111   9.688 -0.6486  0.7675 -0.1274
  254MOL0     C34935  10.529   6.016   9.603  0.6940 -1.2150 -0.2613
  254MOL0     C34936  10.673   6.024   9.660 -0.1277 -0.0372 -0.0140
  254MOL0     C34937  10.767   5.926   9.589 -1.4270 -0.8850  1.3537
  254MOL0     O34938  10.718   5.790   9.590 -0.0427 -0.5792  0.3460
  254MOL0     C34939  10.809   5.680   9.616 -1.1257  0.5675 -0.1010
  254MOL0     C34940  10.950   5.689   9.575  0.3615  0.1215 -0.2530
  254MOL0     C34941  11.027   5.575   9.594  0.5744  0.9499 -0.6679
  254MOL0     C34942  11.170   5.606   9.556 -0.2907  0.2562  0.8012
  254MOL0     C34943  10.971   5.450   9.634 -0.5063  0.1125 -0.6572
  254MOL0     C34944  11.045   5.317   9.649  0.1764  1.0919  0.0307
  254MOL0     O34945  10.974   5.190   9.648  0.3657 -0.0017  0.1341
  254MOL0     C34946  11.041   5.069   9.647  0.0558 -0.0554 -0.2056
  254MOL0     C34947  11.169   5.031   9.596  1.2293  0.1912  0.2601
  254MOL0     C34948  11.211   4.898   9.586  0.4496 -0.2394 -0.0225
  254MOL0     C34949  11.130   4.793   9.626 -1.0268 -0.4187 -0.2647
  254MOL0     O34950  11.181   4.661   9.615 -0.8294 -0.7462 -0.2345
  254MOL0     C34951  11.120   4.559   9.700 -0.0977  0.2134  0.1855
  254MOL0     C34952  11.195   4.418   9.680 -0.4918  0.2064  0.0588
  254MOL0     C34953  11.143   4.326   9.563 -0.1321 -0.4376  0.3180
  254MOL0     C34954  11.264   4.249   9.503 -0.0397  0.5203  0.3685
  254MOL0     C34955  11.299   4.125   9.577 -0.4481  0.6479  1.0415
  254MOL0     C34956  11.421   4.048   9.513  0.0641  0.4768  0.5750
  254MOL0     C34957  11.441   3.925   9.599  0.2551  0.0649  0.7401
  254MOL0     C34958  11.565   3.849   9.564  0.1223  0.1240  0.1754
  254MOL0    Cl34959  11.596   3.724   9.698 -0.2700 -0.4989  0.3634
  254MOL0     C34960  10.996   4.824   9.674  0.4920 -0.2181 -0.1439
  254MOL0     C34961  10.959   4.958   9.684  0.4212 -0.2936 -0.3679
  254MOL0     O34962  11.169   5.319   9.662  0.7732  0.2483 -0.4307
  254MOL0     C34963  10.837   5.443   9.666  0.5844 -0.5584  1.1456
  254MOL0     C34964  10.752   5.556   9.667 -0.8056  0.3584  0.5933
  254MOL0     N34965  10.240   6.235   9.605  0.4095 -0.1575 -0.3311
  254MOL0     N34966  10.113   6.220   9.595  0.3537 -0.3272  0.2385
  254MOL0     C34967   8.965   6.236  10.038 -0.2674 -1.2048 -0.5322
  254MOL0     C34968   8.878   6.333  10.094 -0.3043 -0.5231  0.0880
  254MOL0     C34969   8.752   6.709  10.291  0.0254  0.0307 -0.0309
  254MOL0     C34970   8.606   6.736  10.292 -0.4195  0.2919  0.4494
  254MOL0     C34971   8.551   6.829  10.376 -0.3679  0.0396 -0.6847
  254MOL0     C34972   8.629   6.901  10.471  0.2676 -0.4564 -0.0262
  254MOL0     O34973   8.570   6.999  10.547 -0.3502 -0.1357 -0.0343
  254MOL0     C34974   8.459   6.952  10.630  0.6187 -0.7447  0.7430
  254MOL0     C34975   8.423   7.056  10.736 -0.0516 -0.1933  0.4268
  254MOL0     C34976   8.524   7.078  10.850 -0.3678 -0.8763 -0.8494
  254MOL0     C34977   8.466   7.181  10.943  0.3484 -0.6254 -0.3578
  254MOL0     C34978   8.553   7.185  11.062 -0.7741  0.8263 -0.1930
  254MOL0     C34979   8.610   7.182  11.167 -1.5748  0.5477 -0.2140
  254MOL0     C34980   8.766   6.862  10.487  0.3113  0.3975  0.6926
  254MOL0     C34981   8.824   6.774  10.395  0.1178 -0.1217  1.0307
  254MOL0     C34982   8.975   6.765  10.382 -0.1132 -0.9531 -0.1151
  254MOL0     H34983   9.084   6.462  10.324 -0.6825 -0.9495  0.4952
  254MOL0     H34984   9.241   6.293  10.219  0.6354  0.1788 -0.0914
  254MOL0     H34985   9.188   6.179   9.840 -0.5556  0.9198  2.6452
  254MOL0     H34986   9.084   6.047   9.879 -0.6512  0.6414 -0.6184
  254MOL0     H34987   9.262   5.911   9.946  1.1564 -0.3595 -1.0045
  254MOL0     H34988   9.271   5.945   9.770  0.4266  1.2679 -1.1733
  254MOL0     H34989   9.449   6.130   9.846 -1.1965 -0.5315 -0.8508
  254MOL0     H34990   9.436   6.058  10.008 -0.9131 -1.0702  0.7412
  254MOL0     H34991   9.543   5.850   9.933 -0.9330 -1.1381 -1.2178
  254MOL0     H34992   9.523   5.897   9.764  2.6277  0.2673 -0.4046
  254MOL0     H34993   9.694   6.061   9.932 -0.2260 -0.3127 -0.6400
  254MOL0     H34994   9.678   6.066   9.751 -0.5154 -1.3763 -2.2785
  254MOL0     H34995   9.788   5.823   9.887  1.9892 -2.0539 -2.1972
  254MOL0     H34996   9.760   5.848   9.718 -0.4552  0.0726 -0.1894
  254MOL0     H34997  10.007   5.891   9.798  2.7246  1.8661 -0.1024
  254MOL0     H34998   9.935   6.031   9.884  0.2249  1.8879 -1.7812
  254MOL0     H34999   9.921   5.976   9.582 -2.0867  0.1791  0.3413
  254MOL0     H35000   9.877   6.125   9.650  0.8830  0.8713 -0.9430
  254MOL0     H35001  10.195   5.939   9.738 -1.8642 -1.2809 -1.4886
  254MOL0     H35002  10.451   6.090   9.796 -1.0277  0.4592 -0.1766
  254MOL0     H35003  10.493   6.209   9.669  3.3812 -0.9585 -0.7902
  254MOL0     H35004  10.485   5.916   9.606 -2.7158  0.1475  0.9296
  254MOL0     H35005  10.529   6.052   9.500  1.7554  1.3205  0.5431
  254MOL0     H35006  10.709   6.128   9.656  0.3161 -0.2087 -3.7813
  254MOL0     H35007  10.677   5.991   9.764  0.4188  1.3459  0.4267
  254MOL0     H35008  10.780   5.955   9.484 -0.4846 -0.1439  1.6690
  254MOL0     H35009  10.861   5.932   9.644  1.0972  3.0813 -2.6928
  254MOL0     H35010  10.979   5.788   9.541 -0.0130  1.0492  1.9525
  254MOL0     H35011  11.244   5.526   9.567  0.2497  0.7157  0.5848
  254MOL0     H35012  11.198   5.693   9.617 -0.1171  0.9738 -0.2588
  254MOL0     H35013  11.176   5.626   9.449 -0.5374  2.2599  1.1211
  254MOL0     H35014  11.238   5.103   9.553 -0.0773 -0.6194 -3.6215
  254MOL0     H35015  11.307   4.876   9.540 -0.9468 -2.0735 -2.3225
  254MOL0     H35016  11.134   4.591   9.804  2.0845  2.2266 -0.6279
  254MOL0     H35017  11.012   4.545   9.689  0.0425 -1.1347  0.2619
  254MOL0     H35018  11.301   4.439   9.665 -0.1777 -2.5222 -2.3583
  254MOL0     H35019  11.176   4.353   9.766 -0.3831  1.6703  1.2308
  254MOL0     H35020  11.110   4.383   9.476 -0.5637 -4.1141 -2.1068
  254MOL0     H35021  11.062   4.264   9.604  0.2916 -0.1821  1.6156
  254MOL0     H35022  11.349   4.317   9.501 -0.9544  1.7346  0.9365
  254MOL0     H35023  11.236   4.210   9.405  1.0122 -0.0195  0.2748
  254MOL0     H35024  11.333   4.151   9.678 -1.1900  1.8072  1.0198
  254MOL0     H35025  11.218   4.053   9.584  1.1234 -1.2628  0.4333
  254MOL0     H35026  11.510   4.109   9.533 -0.0783  0.6910  0.5565
  254MOL0     H35027  11.411   4.034   9.405  1.2767 -0.6318  0.5790
  254MOL0     H35028  11.356   3.859   9.579  2.3624 -1.9637 -2.4408
  254MOL0     H35029  11.446   3.949   9.706  2.1274  0.6002  0.5684
  254MOL0     H35030  11.646   3.917   9.539 -1.0296  1.5815  0.2928
  254MOL0     H35031  11.557   3.785   9.475  1.2071 -3.9483  2.7002
  254MOL0     H35032  10.915   4.761   9.711  0.0131 -1.1454 -2.6024
  254MOL0     H35033  10.865   4.980   9.734  0.9710 -0.7617  0.9215
  254MOL0     H35034  10.781   5.356   9.696 -0.8082 -0.0381  0.1811
  254MOL0     H35035  10.653   5.551   9.711  0.1362  1.9365  3.1156
  254MOL0     H35036   8.931   6.167   9.961 -1.5718 -0.1341 -0.9419
  254MOL0     H35037   8.780   6.359  10.054  0.0835  1.8724  0.5201
  254MOL0     H35038   8.542   6.699  10.212  0.9737 -0.6285 -0.2775
  254MOL0     H35039   8.447   6.859  10.376  0.1781  2.1750 -2.5167
  254MOL0     H35040   8.370   6.935  10.569  2.8861 -2.1065 -2.4447
  254MOL0     H35041   8.490   6.857  10.676  0.6145 -1.5167 -0.7842
  254MOL0     H35042   8.333   7.026  10.790 -0.3745  2.9003  1.8398
  254MOL0     H35043   8.403   7.154  10.692 -0.5989 -0.0437  0.9990
  254MOL0     H35044   8.549   6.982  10.896  0.2728 -0.0166  0.6810
  254MOL0     H35045   8.618   7.115  10.806 -0.2517 -0.8481 -0.5801
  254MOL0     H35046   8.367   7.149  10.976 -0.1317  1.0853 -0.0372
  254MOL0     H35047   8.465   7.284  10.905  1.4916 -0.4325  0.0698
  254MOL0     H35048   8.667   7.146  11.250 -4.5020 -1.4414  1.1173
  254MOL0     H35049   8.826   6.914  10.561 -0.0225  0.6666  0.7817
  254MOL0     H35050   9.015   6.839  10.452 -0.9070 -0.1823 -0.4571
  254MOL0     H35051   9.010   6.665  10.409  0.9142 -0.8705 -1.0684
  254MOL0     H35052   9.008   6.785  10.280 -2.1667 -1.9004 -1.0262
  255MOL0     O35053   8.539   2.231   6.250  0.2789 -0.5191 -0.3516
  255MOL0     C35054   8.429   2.235   6.312 -0.0676 -0.2194 -0.2756
  255MOL0     O35055   8.414   2.289   6.431  0.6616  0.3422  0.4147
  255MOL0     C35056   8.517   2.302   6.520  0.4673 -0.0639  0.1953
  255MOL0     C35057   8.622   2.204   6.542  0.0263 -0.4107  0.7225
  255MOL0     C35058   8.728   2.244   6.626 -0.6381 -0.5398 -0.1098
  255MOL0     C35059   8.733   2.369   6.691 -0.3300 -0.5476 -0.1270
  255MOL0     O35060   8.833   2.397   6.788 -0.1915  0.8306 -0.3254
  255MOL0     C35061   8.787   2.397   6.923 -0.0065  0.5141  0.9472
  255MOL0     C35062   8.911   2.392   7.002 -0.0429 -0.1161 -0.6964
  255MOL0     C35063   8.901   2.368   7.157 -0.0066 -0.6618 -0.2775
  255MOL0     C35064   9.036   2.363   7.226  0.2016  0.1331 -0.8195
  255MOL0     C35065   9.142   2.466   7.188 -0.9531 -0.7604  0.8078
  255MOL0     C35066   9.105   2.610   7.215  0.5357 -0.1334 -0.5454
  255MOL0     C35067   9.211   2.707   7.155  0.2733 -1.2580  0.0743
  255MOL0     C35068   9.158   2.852   7.154 -0.9168  0.1149  0.3704
  255MOL0     N35069   9.084   2.897   7.032  0.0984  0.3112 -0.6579
  255MOL0     C35070   8.995   2.819   6.960  0.9673  0.2554 -0.9573
  255MOL0     C35071   8.970   2.897   6.848 -0.4828 -0.2217 -0.0268
  255MOL0     C35072   8.873   2.857   6.732 -0.3460 -0.5502 -0.8909
  255MOL0     C35073   8.750   2.941   6.709 -0.3915  0.2731  0.0906
  255MOL0     C35074   8.768   3.071   6.631  0.7010  0.4036 -0.1690
  255MOL0     C35075   8.628   3.109   6.568 -0.1901 -0.4931 -1.2037
  255MOL0     O35076   8.653   3.208   6.469 -0.0760  0.0605  0.8402
  255MOL0     C35077   8.572   3.227   6.357  0.0520  0.4874 -0.2470
  255MOL0     C35078   8.603   3.331   6.265 -0.2673 -0.1132 -0.4690
  255MOL0     C35079   8.527   3.359   6.153  0.5233  0.1755 -0.0406
  255MOL0     C35080   8.575   3.462   6.058  1.0339 -0.1894  0.6873
  255MOL0     C35081   8.408   3.289   6.126  0.0985  0.2094 -0.5350
  255MOL0     C35082   8.318   3.313   6.014 -0.0501 -0.6168 -0.3325
  255MOL0     O35083   8.276   3.204   5.950  0.5392 -0.8081 -0.0257
  255MOL0     C35084   8.186   3.222   5.841 -0.9106 -0.7792  0.4906
  255MOL0     C35085   8.212   3.162   5.723 -0.2639  0.7667 -0.3127
  255MOL0     C35086   8.111   3.160   5.617 -0.0335  1.3304  0.2466
  255MOL0     C35087   7.986   3.212   5.636 -0.2434 -0.3309 -0.3770
  255MOL0     O35088   7.884   3.193   5.539 -0.7020 -0.2196  0.1851
  255MOL0     C35089   7.756   3.159   5.587  0.1830  0.3392  0.8902
  255MOL0     C35090   7.669   3.084   5.479  0.4689 -0.3806 -0.1427
  255MOL0     C35091   7.629   3.180   5.363  0.2231 -0.8989  0.0923
  255MOL0     C35092   7.549   3.105   5.250 -0.1293 -0.7709 -0.3658
  255MOL0     C35093   7.496   3.206   5.146  0.0263 -0.4892  0.3211
  255MOL0     C35094   7.367   3.159   5.076  0.2521 -0.1083  0.9278
  255MOL0     C35095   7.372   3.028   5.001  0.2991  0.4661 -0.0801
  255MOL0     C35096   7.264   3.022   4.906 -1.0023 -0.0685 -0.7053
  255MOL0    Cl35097   7.114   3.018   5.000 -0.4387 -0.1730  0.1317
  255MOL0     C35098   7.964   3.277   5.750 -0.0366  0.7352 -0.2788
  255MOL0     C35099   8.058   3.287   5.854  0.6426 -0.4704 -1.3817
  255MOL0     O35100   8.271   3.425   6.004  0.1859  0.3855  0.6496
  255MOL0     C35101   8.370   3.196   6.232  0.6612 -0.2158 -0.4315
  255MOL0     C35102   8.457   3.155   6.329  0.2719  0.7476 -0.4838
  255MOL0     N35103   9.037   3.017   6.865 -0.2069  0.3221 -0.8548
  255MOL0     N35104   9.099   3.018   6.977  0.5372 -0.5822 -0.4725
  255MOL0     C35105   8.623   2.453   6.675 -0.3039  0.5891  0.3835
  255MOL0     C35106   8.516   2.420   6.599 -0.5794  0.9513  0.0549
  255MOL0     C35107   8.311   2.167   6.253 -0.2588  0.7074 -0.4300
  255MOL0     C35108   8.256   2.063   6.320  0.4814  0.2469 -0.4944
  255MOL0     C35109   8.156   1.977   6.266 -0.3436 -0.4184  0.0810
  255MOL0     C35110   8.117   1.997   6.132 -0.0339  1.0549 -0.2032
  255MOL0     O35111   8.041   1.896   6.077 -0.2089  0.6798 -0.2298
  255MOL0     C35112   8.008   1.896   5.940  0.1744  0.9898  0.1390
  255MOL0     C35113   7.901   2.001   5.905 -0.2108 -0.4692 -1.0056
  255MOL0     C35114   7.789   2.009   6.012  0.2738 -0.7158  0.1619
  255MOL0     C35115   7.742   1.873   6.054  0.2494  0.0561  0.8085
  255MOL0     C35116   7.628   1.884   6.146 -0.9517  0.2277 -0.3185
  255MOL0     C35117   7.541   1.873   6.232  0.1612 -0.4299 -0.0507
  255MOL0     C35118   8.177   2.105   6.060  0.4954  0.8735 -0.5166
  255MOL0     C35119   8.267   2.188   6.121 -0.4332 -0.1062 -0.1219
  255MOL0     C35120   8.340   2.288   6.027 -0.2190 -0.5350 -0.1742
  255MOL0     H35121   8.632   2.109   6.491  0.5749  1.4780 -3.0943
  255MOL0     H35122   8.817   2.182   6.636  0.8354  1.4615 -0.3513
  255MOL0     H35123   8.728   2.308   6.945  0.3188 -0.4027 -1.5130
  255MOL0     H35124   8.724   2.483   6.948  1.2103  1.4289  0.9528
  255MOL0     H35125   8.974   2.311   6.964 -3.1857 -2.1085 -2.0611
  255MOL0     H35126   8.965   2.484   6.981 -1.8187  0.7812 -1.5296
  255MOL0     H35127   8.848   2.453   7.199 -2.4978 -2.2146 -0.0363
  255MOL0     H35128   8.840   2.282   7.187  1.0869 -0.8658  1.5125
  255MOL0     H35129   9.027   2.379   7.334  1.6084  0.8581 -0.7818
  255MOL0     H35130   9.072   2.260   7.216 -0.1649  0.1012 -2.0226
  255MOL0     H35131   9.169   2.453   7.082  1.1762  1.0075  1.0696
  255MOL0     H35132   9.232   2.457   7.249 -0.3614  2.0978  0.4858
  255MOL0     H35133   9.002   2.638   7.189 -1.6988 -4.1600  2.6141
  255MOL0     H35134   9.106   2.632   7.322 -0.7763  1.0425 -0.7411
  255MOL0     H35135   9.243   2.692   7.051  4.3844  0.2084  0.9108
  255MOL0     H35136   9.297   2.699   7.223  0.7135 -0.2411 -0.3393
  255MOL0     H35137   9.101   2.860   7.247  1.2563 -2.7879  2.1156
  255MOL0     H35138   9.242   2.920   7.171 -1.3388  0.8748 -0.4722
  255MOL0     H35139   8.961   2.720   6.988  2.9186 -1.0921 -3.0888
  255MOL0     H35140   8.860   2.749   6.745  3.6396 -0.9614  1.3990
  255MOL0     H35141   8.945   2.868   6.650  1.0414 -0.5623  0.2928
  255MOL0     H35142   8.673   2.878   6.663  0.3675 -1.7731  1.4491
  255MOL0     H35143   8.715   2.970   6.809  1.2182  0.5955  0.5967
  255MOL0     H35144   8.800   3.150   6.699 -1.4859  1.3423 -0.1655
  255MOL0     H35145   8.833   3.074   6.542 -1.2477 -0.1686 -1.6757
  255MOL0     H35146   8.582   3.017   6.529 -2.7402  0.0893  0.1711
  255MOL0     H35147   8.556   3.140   6.644 -1.3403 -1.3562 -1.9035
  255MOL0     H35148   8.686   3.398   6.287 -0.3735  0.0473 -0.5550
  255MOL0     H35149   8.501   3.540   6.038  1.4326 -0.0211 -0.1744
  255MOL0     H35150   8.599   3.407   5.967 -0.7710 -2.1126  1.3125
  255MOL0     H35151   8.663   3.520   6.090  1.8452 -0.5392 -0.8230
  255MOL0     H35152   8.305   3.108   5.713  0.8373  2.6404 -0.5308
  255MOL0     H35153   8.137   3.103   5.529 -4.2685  0.4405 -0.6381
  255MOL0     H35154   7.752   3.091   5.672  0.4617 -0.4051  0.3223
  255MOL0     H35155   7.691   3.242   5.616 -1.4082 -0.9260  1.0575
  255MOL0     H35156   7.734   3.008   5.435 -2.0239 -0.9276 -3.2385
  255MOL0     H35157   7.584   3.029   5.519 -0.2234  0.2458 -0.7250
  255MOL0     H35158   7.708   3.240   5.317 -1.4910  0.5774 -1.0705
  255MOL0     H35159   7.554   3.245   5.408 -0.0123  0.2569 -1.8581
  255MOL0     H35160   7.466   3.054   5.301 -0.6016  0.2283 -0.1186
  255MOL0     H35161   7.614   3.039   5.193 -0.1680  1.1309 -2.7507
  255MOL0     H35162   7.466   3.303   5.189  0.3505  1.0649 -2.6961
  255MOL0     H35163   7.583   3.225   5.084  1.1881  0.7116  2.2136
  255MOL0     H35164   7.324   3.239   5.014 -0.0880  0.0025  1.2991
  255MOL0     H35165   7.297   3.155   5.159  0.7189 -0.7422  1.2975
  255MOL0     H35166   7.368   2.946   5.073 -2.4633  0.5578 -0.0070
  255MOL0     H35167   7.466   3.014   4.947 -0.0119  0.7148 -0.6985
  255MOL0     H35168   7.265   2.931   4.846  0.2269  0.4281 -1.4752
  255MOL0     H35169   7.262   3.107   4.838 -1.9865  0.5254  0.0333
  255MOL0     H35170   7.863   3.317   5.759 -0.3242  0.8336 -3.1860
  255MOL0     H35171   8.024   3.348   5.938 -1.9705 -0.2147 -2.5124
  255MOL0     H35172   8.279   3.137   6.223 -0.9005  1.8457  0.8095
  255MOL0     H35173   8.431   3.067   6.387 -2.8769  0.1983 -2.4301
  255MOL0     H35174   8.630   2.549   6.724 -1.2061  1.1553 -0.5663
  255MOL0     H35175   8.433   2.487   6.580  0.8839  1.9728 -3.6520
  255MOL0     H35176   8.287   2.035   6.420 -2.3764  0.1206  0.4519
  255MOL0     H35177   8.118   1.890   6.319  0.1526 -1.2648 -0.9284
  255MOL0     H35178   8.098   1.909   5.878  1.4123 -2.7239  0.8619
  255MOL0     H35179   7.969   1.800   5.906 -0.2562  1.4911 -0.8188
  255MOL0     H35180   7.860   1.986   5.805 -2.1029  3.2865 -0.9759
  255MOL0     H35181   7.950   2.099   5.908  1.0272 -1.0909  1.6863
  255MOL0     H35182   7.825   2.061   6.102 -1.7836  1.7878 -0.3225
  255MOL0     H35183   7.716   2.078   5.967 -0.0116  0.5307  2.3593
  255MOL0     H35184   7.818   1.816   6.107 -0.7113  0.6157  2.9317
  255MOL0     H35185   7.711   1.819   5.964  0.2332  0.1887  0.7330
  255MOL0     H35186   7.459   1.866   6.301 -1.2494 -0.2967 -1.6423
  255MOL0     H35187   8.169   2.117   5.953  0.6995  1.2330 -0.4932
  255MOL0     H35188   8.407   2.362   6.073  0.9741 -2.0701  0.6918
  255MOL0     H35189   8.403   2.231   5.958 -0.5988 -0.9351 -0.1953
  255MOL0     H35190   8.261   2.342   5.975 -0.0921  1.4449  1.5646
  256MOL0     O35191  10.280   3.051   2.522  0.0501  0.7314 -0.9284
  256MOL0     C35192  10.283   2.931   2.542  0.3559  0.1625 -0.6741
  256MOL0     O35193  10.327   2.835   2.454 -0.0885 -0.3832  0.2626
  256MOL0     C35194  10.409   2.863   2.347  0.0814 -0.2599  0.7337
  256MOL0     C35195  10.503   2.966   2.354 -0.6593 -0.2784 -0.2439
  256MOL0     C35196  10.583   2.992   2.240  0.5465 -0.1603  0.4828
  256MOL0     C35197  10.577   2.912   2.132 -0.6276 -0.6027 -0.3338
  256MOL0     O35198  10.670   2.948   2.036  0.8505  0.1703  0.2616
  256MOL0     C35199  10.679   2.861   1.924  0.2164  0.5254  0.7043
  256MOL0     C35200  10.757   2.923   1.807  1.0712  1.3171  0.4310
  256MOL0     C35201  10.894   2.973   1.861  0.0496  0.3232  0.5014
  256MOL0     C35202  10.982   3.007   1.733 -0.4664  0.3306 -0.0289
  256MOL0     C35203  11.113   3.072   1.786 -0.1090  0.1072 -0.5565
  256MOL0     C35204  11.095   3.218   1.810 -0.6613 -0.3441 -0.1374
  256MOL0     C35205  11.216   3.281   1.873  0.1119  0.2035 -0.1325
  256MOL0     C35206  11.319   3.316   1.773 -0.3355  0.7834  0.5283
  256MOL0     N35207  11.440   3.357   1.850  0.4434 -0.5687 -0.4156
  256MOL0     C35208  11.452   3.475   1.920  0.6163 -0.1778  1.1284
  256MOL0     C35209  11.585   3.476   1.951 -0.5305 -0.0178  1.4778
  256MOL0     C35210  11.653   3.598   2.001 -0.3014 -0.1913  0.5691
  256MOL0     C35211  11.680   3.581   2.151  0.0786  0.3974  0.1708
  256MOL0     C35212  11.802   3.658   2.185 -0.3602  0.3592  0.1878
  256MOL0     C35213  11.793   3.809   2.156 -0.3098 -0.1367 -0.4021
  256MOL0     O35214  11.899   3.890   2.214 -0.3112 -0.1821 -0.5029
  256MOL0     C35215  12.021   3.852   2.195 -0.0775 -0.3819 -0.3972
  256MOL0     C35216  12.067   3.828   2.071 -1.2853 -0.1212  0.4299
  256MOL0     C35217  12.201   3.778   2.045  0.2711 -0.7757  0.4126
  256MOL0     C35218  12.237   3.747   1.899 -0.5193  0.2989 -1.0362
  256MOL0     C35219  12.284   3.769   2.161 -0.3462 -0.1688 -0.6789
  256MOL0     C35220  12.429   3.750   2.148 -0.2917  0.4816  0.1082
  256MOL0     O35221  12.485   3.821   2.042  0.4157  0.0224 -0.1728
  256MOL0     C35222  12.617   3.787   2.020  0.5030 -0.1965 -0.7219
  256MOL0     C35223  12.736   3.848   2.080 -1.1364  1.0912  0.1633
  256MOL0     C35224  12.867   3.796   2.056 -0.6370 -0.5909 -1.1941
  256MOL0     C35225  12.879   3.687   1.973 -0.6970 -0.3321  0.8802
  256MOL0     O35226  13.007   3.635   1.946 -0.9095 -0.3908 -0.0172
  256MOL0     C35227  13.051   3.523   2.024  0.6113  0.9600 -0.2764
  256MOL0     C35228  13.199   3.500   2.006  0.2882 -0.4443  0.4393
  256MOL0     C35229  13.271   3.618   2.066  1.1211  0.4391 -0.5931
  256MOL0     C35230  13.404   3.577   2.130  0.7802  0.0935  0.3509
  256MOL0     C35231  13.475   3.705   2.191 -0.0003  0.8075 -0.7970
  256MOL0     C35232  13.589   3.652   2.271 -0.0249  0.1539  0.0287
  256MOL0     C35233  13.672   3.777   2.335  0.2926 -0.1906 -0.3601
  256MOL0     C35234  13.747   3.865   2.235  0.4872 -0.8784  0.1478
  256MOL0    Cl35235  13.895   3.784   2.205 -0.0779 -0.2886 -0.0036
  256MOL0     C35236  12.765   3.633   1.909  0.4539  0.0666 -0.2979
  256MOL0     C35237  12.638   3.687   1.931  0.7105  0.0972  0.0600
  256MOL0     O35238  12.495   3.704   2.244 -0.1319 -0.8749  0.0760
  256MOL0     C35239  12.237   3.795   2.292 -0.7439 -0.0277 -0.8230
  256MOL0     C35240  12.097   3.838   2.310  0.5965  0.5950 -0.3249
  256MOL0     N35241  11.642   3.361   1.906  0.3277  0.7736  0.3316
  256MOL0     N35242  11.563   3.298   1.840 -0.8402  0.0802  0.1996
  256MOL0     C35243  10.491   2.809   2.132  0.2519 -0.6117  0.0594
  256MOL0     C35244  10.414   2.776   2.240 -0.8665  0.1682  0.1955
  256MOL0     C35245  10.225   2.864   2.664 -0.1564  0.1151 -0.3476
  256MOL0     C35246  10.222   2.721   2.668 -0.0006 -0.2805  1.3123
  256MOL0     C35247  10.162   2.657   2.773 -0.7746  0.3296 -1.2136
  256MOL0     C35248  10.107   2.724   2.880  0.2960  0.2397 -0.1993
  256MOL0     O35249  10.037   2.647   2.964  0.1786  0.4283 -0.1668
  256MOL0     C35250   9.974   2.711   3.072  0.4489  0.2373 -0.2808
  256MOL0     C35251   9.926   2.600   3.174 -0.3370 -0.5436 -0.3796
  256MOL0     C35252   9.853   2.654   3.295 -0.2448  0.3401  0.1734
  256MOL0     C35253   9.871   2.803   3.329  0.3299 -0.2982 -0.2070
  256MOL0     C35254  10.006   2.820   3.394 -0.6709  0.1781 -0.0440
  256MOL0     C35255  10.113   2.815   3.446 -0.1813 -0.8705 -0.7475
  256MOL0     C35256  10.122   2.861   2.885  0.6238  0.1678  0.0628
  256MOL0     C35257  10.179   2.927   2.777  0.1196 -0.3216  0.5213
  256MOL0     C35258  10.165   3.080   2.779  0.3410 -0.6604 -0.3587
  256MOL0     H35259  10.514   3.033   2.439  1.0648 -1.1874  0.2975
  256MOL0     H35260  10.655   3.072   2.251 -0.5023  1.2731 -2.0984
  256MOL0     H35261  10.589   2.830   1.871  1.0802 -1.4475  0.3098
  256MOL0     H35262  10.729   2.768   1.953 -2.1816 -1.0755  0.0345
  256MOL0     H35263  10.778   2.849   1.729  0.1914 -1.0082  2.2837
  256MOL0     H35264  10.708   3.014   1.770  3.3502  2.5379  0.2718
  256MOL0     H35265  10.876   3.054   1.932  0.0137 -0.7210  1.7104
  256MOL0     H35266  10.946   2.893   1.914 -0.2185  0.2936  0.7194
  256MOL0     H35267  11.007   2.916   1.678 -3.3376  0.1738 -1.2421
  256MOL0     H35268  10.929   3.079   1.670 -0.8987  1.7282  1.8646
  256MOL0     H35269  11.191   3.063   1.711  0.3464 -0.4359 -0.0285
  256MOL0     H35270  11.150   3.015   1.872  0.4132  0.6280 -0.4356
  256MOL0     H35271  11.080   3.266   1.713  0.5090 -3.0009 -1.7751
  256MOL0     H35272  11.006   3.235   1.870 -1.5346  0.6476 -1.6635
  256MOL0     H35273  11.261   3.220   1.951  0.9685  0.3743 -0.4826
  256MOL0     H35274  11.189   3.375   1.923  1.8991  0.0533  1.1915
  256MOL0     H35275  11.347   3.228   1.714  0.5875  0.0802  1.9563
  256MOL0     H35276  11.278   3.399   1.714 -1.6147 -0.5145 -0.4950
  256MOL0     H35277  11.383   3.558   1.937  2.4360  1.0982  2.7403
  256MOL0     H35278  11.595   3.691   1.994 -1.3245 -0.8559 -0.0559
  256MOL0     H35279  11.743   3.625   1.946 -1.6651  2.3763 -0.5844
  256MOL0     H35280  11.594   3.622   2.206 -1.6111  3.4247 -4.1769
  256MOL0     H35281  11.687   3.477   2.184  1.1403  0.1996 -0.6224
  256MOL0     H35282  11.813   3.652   2.294  0.1628 -2.2286  0.0665
  256MOL0     H35283  11.884   3.613   2.128  0.0593  0.9584  0.3197
  256MOL0     H35284  11.797   3.831   2.049  0.5178 -0.6611 -0.4881
  256MOL0     H35285  11.698   3.844   2.198  0.5108  3.3468 -1.0893
  256MOL0     H35286  12.007   3.844   1.982 -0.2255  2.9622  0.1795
  256MOL0     H35287  12.284   3.835   1.854  0.4747  0.0573 -0.5168
  256MOL0     H35288  12.145   3.729   1.843 -0.4250  0.9931 -1.4245
  256MOL0     H35289  12.314   3.670   1.890  0.6327  1.0826  1.4058
  256MOL0     H35290  12.715   3.928   2.150 -2.2382  1.6919 -0.8097
  256MOL0     H35291  12.948   3.838   2.114 -1.6436 -3.1105  2.3665
  256MOL0     H35292  13.015   3.528   2.127 -2.2070 -0.8961 -1.0489
  256MOL0     H35293  13.002   3.435   1.982  1.1780 -0.5788  2.0599
  256MOL0     H35294  13.229   3.406   2.053  1.4522  0.1561  0.9211
  256MOL0     H35295  13.221   3.491   1.900  1.5539 -0.8442  0.7192
  256MOL0     H35296  13.216   3.661   2.150 -0.1292 -0.3265 -1.0044
  256MOL0     H35297  13.283   3.696   1.990  0.9261 -0.7338 -1.8619
  256MOL0     H35298  13.472   3.537   2.055  1.2617 -2.1848  1.8937
  256MOL0     H35299  13.387   3.501   2.207 -1.5758 -3.2995 -3.1980
  256MOL0     H35300  13.505   3.773   2.111 -1.2572 -0.1791 -2.1707
  256MOL0     H35301  13.406   3.760   2.255  1.7144  2.6438 -0.4410
  256MOL0     H35302  13.651   3.587   2.209 -2.0352 -1.3562 -0.4553
  256MOL0     H35303  13.549   3.606   2.362 -1.3275  2.6997  0.8417
  256MOL0     H35304  13.751   3.742   2.402 -0.0240  1.1568  0.7698
  256MOL0     H35305  13.603   3.850   2.378  0.6683 -0.2178  0.3062
  256MOL0     H35306  13.762   3.963   2.282  1.7646 -2.1250  2.4893
  256MOL0     H35307  13.705   3.884   2.135  2.3048  2.2320 -0.1757
  256MOL0     H35308  12.778   3.551   1.838  1.4679  2.3848 -2.9955
  256MOL0     H35309  12.556   3.655   1.867  1.7644  1.9113 -2.3843
  256MOL0     H35310  12.301   3.797   2.379  0.4943 -0.3652 -1.6944
  256MOL0     H35311  12.055   3.839   2.409 -2.0764 -0.9954 -1.3302
  256MOL0     H35312  10.481   2.741   2.048  0.1864 -0.4118 -0.0951
  256MOL0     H35313  10.357   2.685   2.256 -1.9679  0.8489  0.2000
  256MOL0     H35314  10.245   2.652   2.587  0.5967  0.6205  0.7076
  256MOL0     H35315  10.157   2.549   2.779  1.9379  0.2579  1.6614
  256MOL0     H35316  10.039   2.778   3.130  2.2281 -1.2366 -0.4991
  256MOL0     H35317   9.889   2.772   3.042  0.9693  1.7584  1.1429
  256MOL0     H35318  10.015   2.545   3.208 -0.8313 -0.6997  0.7133
  256MOL0     H35319   9.871   2.523   3.119  0.3633 -1.4175  0.1129
  256MOL0     H35320   9.749   2.628   3.271 -0.2902  1.1170 -0.4828
  256MOL0     H35321   9.870   2.595   3.386 -2.9408  1.1771  1.3261
  256MOL0     H35322   9.792   2.831   3.399  0.5122 -1.7877  0.6378
  256MOL0     H35323   9.861   2.869   3.243  0.2743  0.8410  0.6438
  256MOL0     H35324  10.208   2.827   3.495 -0.4810  1.0210 -0.5329
  256MOL0     H35325  10.075   2.921   2.962 -0.9729 -0.6927 -0.2142
  256MOL0     H35326  10.129   3.118   2.874  0.8411 -1.0061 -0.0256
  256MOL0     H35327  10.264   3.122   2.757 -1.2605  3.0410 -1.3012
  256MOL0     H35328  10.102   3.116   2.697  0.5080 -0.2892 -0.3273
  257MOL0     O35329   9.231   7.613   1.315 -0.1057  0.0603 -0.0107
  257MOL0     C35330   9.204   7.553   1.215 -0.2560  0.5033 -0.7227
  257MOL0     O35331   9.295   7.506   1.130 -0.0103 -0.0049 -0.4395
  257MOL0     C35332   9.426   7.525   1.160  0.0733 -0.0989 -0.6206
  257MOL0     C35333   9.483   7.443   1.257 -0.3102 -0.3566 -0.0610
  257MOL0     C35334   9.619   7.425   1.275 -0.1636 -0.0796 -0.2153
  257MOL0     C35335   9.713   7.510   1.211 -0.2689  0.0532 -0.6067
  257MOL0     O35336   9.853   7.507   1.221 -0.2568 -0.0597  0.1185
  257MOL0     C35337   9.918   7.382   1.274 -0.6021  0.0451  0.3836
  257MOL0     C35338  10.070   7.394   1.252  0.5497  0.4406 -0.3750
  257MOL0     C35339  10.126   7.267   1.321 -0.1023  0.4541  0.3739
  257MOL0     C35340  10.277   7.286   1.357  0.6518  0.3004  0.0130
  257MOL0     C35341  10.312   7.181   1.466 -0.1157 -0.4946 -0.2935
  257MOL0     C35342  10.286   7.041   1.412 -0.1486 -0.0585  1.0552
  257MOL0     C35343  10.322   6.933   1.503 -0.9235  0.0094  0.4213
  257MOL0     C35344  10.475   6.907   1.522 -0.1127  0.3917  0.8347
  257MOL0     N35345  10.503   6.808   1.632 -0.2066 -0.1805  0.3579
  257MOL0     C35346  10.521   6.674   1.603  0.4834 -0.1304 -0.0825
  257MOL0     C35347  10.584   6.631   1.713  0.3875 -0.0189 -0.0012
  257MOL0     C35348  10.653   6.501   1.738  0.3735  0.2673  0.0368
  257MOL0     C35349  10.765   6.480   1.635  0.2912  0.1665 -0.3921
  257MOL0     C35350  10.870   6.590   1.632 -0.3965 -0.2527  0.5273
  257MOL0     C35351  10.990   6.544   1.554 -0.2262 -0.4821  1.1422
  257MOL0     O35352  10.943   6.542   1.419 -0.4347 -0.4125 -0.2138
  257MOL0     C35353  11.036   6.503   1.329 -0.1248 -0.4020 -0.3645
  257MOL0     C35354  10.993   6.441   1.209 -0.2848 -0.8989  0.3838
  257MOL0     C35355  11.086   6.403   1.108 -0.1906  0.0361 -0.4155
  257MOL0     C35356  11.035   6.342   0.984 -1.3905  0.4065 -0.4360
  257MOL0     C35357  11.228   6.420   1.136  0.3233  0.8385  0.1662
  257MOL0     C35358  11.331   6.385   1.044  0.4622 -0.5408 -0.2603
  257MOL0     O35359  11.451   6.440   1.074 -0.1503  0.1397  0.6262
  257MOL0     C35360  11.552   6.412   0.984  0.2096  0.3647 -0.6556
  257MOL0     C35361  11.557   6.457   0.845  0.2513 -1.0154  0.6825
  257MOL0     C35362  11.667   6.441   0.753  0.1500 -0.7901  0.1124
  257MOL0     C35363  11.779   6.382   0.812  0.4671  0.5617 -0.9611
  257MOL0     O35364  11.900   6.375   0.738  0.0175 -0.0447 -0.0303
  257MOL0     C35365  11.924   6.463   0.625  0.1466 -0.6670 -0.0659
  257MOL0     C35366  12.077   6.466   0.583 -0.5129  1.2082  0.2155
  257MOL0     C35367  12.169   6.496   0.695  1.0331  0.3792 -0.7830
  257MOL0     C35368  12.299   6.434   0.668 -0.1805 -0.4729 -0.5299
  257MOL0     C35369  12.399   6.474   0.780 -0.6526 -0.3109 -0.8590
  257MOL0     C35370  12.499   6.587   0.737  0.3016  0.3176  0.0021
  257MOL0     C35371  12.633   6.548   0.785  0.0997 -0.3709 -0.0598
  257MOL0     C35372  12.733   6.652   0.738 -0.3738 -0.4245 -0.6368
  257MOL0    Cl35373  12.725   6.790   0.834  0.2968 -0.2064 -0.2000
  257MOL0     C35374  11.772   6.335   0.945  0.6342 -0.2241 -0.0995
  257MOL0     C35375  11.660   6.345   1.026 -0.8723 -0.0503 -0.6469
  257MOL0     O35376  11.311   6.292   0.968 -0.2072 -0.9314 -0.0811
  257MOL0     C35377  11.267   6.487   1.257  0.3499 -0.2410 -0.2787
  257MOL0     C35378  11.180   6.528   1.357  0.6195 -0.8543  0.6213
  257MOL0     N35379  10.579   6.732   1.812 -0.0126  0.1717 -0.7105
  257MOL0     N35380  10.523   6.834   1.766  0.6367  0.5155  0.5675
  257MOL0     C35381   9.654   7.602   1.119  0.0682  0.2256 -0.6882
  257MOL0     C35382   9.516   7.602   1.086  0.8849  0.1891 -0.6847
  257MOL0     C35383   9.066   7.528   1.192 -0.5091 -0.3290 -0.4436
  257MOL0     C35384   9.025   7.509   1.059 -0.5345 -1.0277  0.0973
  257MOL0     C35385   8.903   7.492   1.020  0.0937  1.0184  0.8552
  257MOL0     C35386   8.800   7.481   1.115 -0.0418 -0.8383  0.3183
  257MOL0     O35387   8.684   7.461   1.048  0.4623 -0.5615  0.0577
  257MOL0     C35388   8.579   7.402   1.131  0.0094  0.4674 -0.2746
  257MOL0     C35389   8.599   7.255   1.146  0.5259  0.6858 -0.2864
  257MOL0     C35390   8.629   7.183   1.012  0.0945 -0.2135 -0.7132
  257MOL0     C35391   8.590   7.036   1.017  0.1012  0.7542  0.0133
  257MOL0     C35392   8.602   6.970   0.883  0.0075 -0.1276 -0.4766
  257MOL0     C35393   8.614   6.924   0.771 -0.6411 -0.6651 -1.1463
  257MOL0     C35394   8.830   7.480   1.252 -0.6321  0.2180 -0.1937
  257MOL0     C35395   8.964   7.506   1.296 -0.1297 -0.6846 -0.2983
  257MOL0     C35396   8.994   7.507   1.438  0.0983 -0.2085  0.5038
  257MOL0     H35397   9.411   7.381   1.311 -1.7067 -1.0895 -2.5929
  257MOL0     H35398   9.647   7.361   1.359 -0.5047  1.8118  1.4195
  257MOL0     H35399   9.870   7.299   1.220 -0.2170  1.1417 -1.7559
  257MOL0     H35400   9.893   7.385   1.381  0.4494  1.3333  0.6127
  257MOL0     H35401  10.087   7.398   1.144  2.5277 -2.2644 -0.2633
  257MOL0     H35402  10.105   7.483   1.306  3.9488 -2.5161  2.8092
  257MOL0     H35403  10.076   7.247   1.416 -2.2670 -0.2591 -0.8560
  257MOL0     H35404  10.118   7.187   1.248  1.3793  0.9679 -0.4011
  257MOL0     H35405  10.335   7.274   1.264 -1.7833 -0.3497 -1.4957
  257MOL0     H35406  10.290   7.389   1.394 -1.0539  0.0367  1.4783
  257MOL0     H35407  10.251   7.181   1.556  2.2867 -2.4479  1.4562
  257MOL0     H35408  10.418   7.196   1.491 -0.1031 -1.3207  0.1530
  257MOL0     H35409  10.180   7.032   1.382  0.2217  0.4175 -0.5400
  257MOL0     H35410  10.330   7.019   1.314  0.1041  0.0673  1.1393
  257MOL0     H35411  10.273   6.848   1.454 -0.8510 -0.5775  1.3275
  257MOL0     H35412  10.268   6.953   1.596 -0.3996  1.0870  0.5068
  257MOL0     H35413  10.527   6.883   1.429  2.0325 -0.6749  2.2288
  257MOL0     H35414  10.516   7.004   1.552  2.1396 -1.1622  3.0759
  257MOL0     H35415  10.491   6.620   1.514 -2.1059  3.3222 -1.5878
  257MOL0     H35416  10.577   6.427   1.713  1.4230 -0.0876 -2.4178
  257MOL0     H35417  10.693   6.508   1.840  0.6070 -1.8659  0.1440
  257MOL0     H35418  10.818   6.393   1.676  0.0985  0.7933  1.2411
  257MOL0     H35419  10.743   6.456   1.530  1.7093  3.0484 -1.4305
  257MOL0     H35420  10.827   6.683   1.593  2.2899  0.8147 -0.0925
  257MOL0     H35421  10.904   6.622   1.731  1.6911 -1.5893  0.3105
  257MOL0     H35422  11.066   6.621   1.569  1.0900 -1.4108 -0.3663
  257MOL0     H35423  11.032   6.453   1.598  0.1322 -0.2272  1.3369
  257MOL0     H35424  10.887   6.428   1.190 -0.6248  1.8285  0.0594
  257MOL0     H35425  11.077   6.389   0.895 -3.2820 -2.0407 -2.7695
  257MOL0     H35426  10.926   6.342   0.974 -1.2915 -1.4342 -2.1126
  257MOL0     H35427  11.067   6.238   0.971  0.7267  1.0781 -1.0526
  257MOL0     H35428  11.476   6.504   0.790  1.8102 -0.6450 -1.4433
  257MOL0     H35429  11.668   6.485   0.653 -0.4346  3.1587  1.6778
  257MOL0     H35430  11.860   6.422   0.546 -1.6404  1.1104  0.3972
  257MOL0     H35431  11.892   6.563   0.653  0.6898 -0.6784  0.6152
  257MOL0     H35432  12.100   6.368   0.541 -0.6965  1.2769 -0.0414
  257MOL0     H35433  12.093   6.549   0.514  0.0351  3.0136  2.3950
  257MOL0     H35434  12.137   6.441   0.783  1.4489 -1.5299 -1.7729
  257MOL0     H35435  12.169   6.601   0.727 -0.1218  0.0512  0.3682
  257MOL0     H35436  12.334   6.467   0.570  2.3802  3.1681  1.3318
  257MOL0     H35437  12.291   6.326   0.656  2.3780 -0.4331 -3.9093
  257MOL0     H35438  12.347   6.510   0.870 -0.1560  0.1051 -0.7331
  257MOL0     H35439  12.457   6.388   0.815 -1.8193 -0.1695  1.6672
  257MOL0     H35440  12.461   6.681   0.777 -0.8747  0.5157 -1.4768
  257MOL0     H35441  12.504   6.604   0.629 -1.0947 -0.4366 -0.2051
  257MOL0     H35442  12.664   6.454   0.739  2.2896  0.1191  0.3281
  257MOL0     H35443  12.635   6.539   0.894 -0.8758 -1.4944 -0.1188
  257MOL0     H35444  12.722   6.674   0.632  3.8947  1.0661 -0.9564
  257MOL0     H35445  12.835   6.613   0.735  0.2928  1.2559 -1.7854
  257MOL0     H35446  11.857   6.284   0.988 -0.8826 -0.6784  2.5871
  257MOL0     H35447  11.671   6.303   1.125 -1.1206  0.6943 -0.2983
  257MOL0     H35448  11.373   6.495   1.280  0.5963 -2.6850 -0.3238
  257MOL0     H35449  11.226   6.566   1.447  2.2694  0.5293 -0.7407
  257MOL0     H35450   9.726   7.669   1.072  1.1107  0.0756  0.6365
  257MOL0     H35451   9.475   7.655   1.001 -4.7466 -3.7355 -0.9391
  257MOL0     H35452   9.099   7.516   0.980  1.4683 -2.3104  1.7416
  257MOL0     H35453   8.874   7.472   0.917 -2.5058 -1.1116  1.8983
  257MOL0     H35454   8.568   7.450   1.229 -0.1469 -1.7166  0.8312
  257MOL0     H35455   8.484   7.421   1.078 -1.3319  0.4175  1.9818
  257MOL0     H35456   8.509   7.209   1.187  0.4282  0.7744 -0.4007
  257MOL0     H35457   8.680   7.231   1.215 -0.4656  2.2576  1.5306
  257MOL0     H35458   8.576   7.227   0.927  2.1875 -1.3553 -2.7116
  257MOL0     H35459   8.732   7.194   0.977  0.4026  2.4564  0.7634
  257MOL0     H35460   8.489   7.024   1.060 -0.1977  1.2083 -0.5524
  257MOL0     H35461   8.655   6.976   1.081  0.9061  0.4317 -1.0920
  257MOL0     H35462   8.618   6.880   0.674 -0.1263  0.2606 -1.5598
  257MOL0     H35463   8.765   7.458   1.337  0.5484  1.4749  1.0903
  257MOL0     H35464   9.095   7.478   1.468 -0.6917 -1.1876  2.3965
  257MOL0     H35465   8.995   7.610   1.475  0.7410  0.1589 -0.5160
  257MOL0     H35466   8.925   7.444   1.495  1.2187 -0.3841  1.7137
  258MOL0     O35467   2.307   1.642   9.245 -0.5784  0.3033 -0.5414
  258MOL0     C35468   2.254   1.538   9.213  0.9936 -0.0816 -0.0477
  258MOL0     O35469   2.310   1.418   9.222 -0.2986  0.3863 -0.4193
  258MOL0     C35470   2.434   1.403   9.270 -1.0564 -0.0713  0.8650
  258MOL0     C35471   2.466   1.301   9.360 -0.1393 -0.5519 -0.0435
  258MOL0     C35472   2.598   1.265   9.402 -0.7343  0.1779  0.1273
  258MOL0     C35473   2.712   1.345   9.361 -1.6195  0.8783 -0.1248
  258MOL0     O35474   2.841   1.333   9.409 -0.5589 -0.0271  0.6842
  258MOL0     C35475   2.847   1.304   9.552 -0.1009  0.1770 -0.1310
  258MOL0     C35476   2.995   1.336   9.607  0.2584  0.5073 -0.0727
  258MOL0     C35477   3.018   1.308   9.759 -0.4241  0.9083  0.1330
  258MOL0     C35478   3.036   1.164   9.784 -0.2167  0.0572 -0.6235
  258MOL0     C35479   3.083   1.127   9.929  0.2215  0.1918 -0.1083
  258MOL0     C35480   3.098   0.976   9.945  0.9606  0.6185  0.8613
  258MOL0     C35481   3.169   0.931  10.077 -0.1159 -0.2612 -0.4090
  258MOL0     C35482   3.321   0.945  10.089  0.3989 -0.1491 -0.5784
  258MOL0     N35483   3.370   0.884  10.211 -0.2777  0.2467 -0.3947
  258MOL0     C35484   3.415   0.949  10.327  0.1538 -0.2172  1.1155
  258MOL0     C35485   3.447   0.843  10.407 -0.2218 -1.0150  0.1568
  258MOL0     C35486   3.479   0.880  10.546  0.2717 -0.0241  0.0092
  258MOL0     C35487   3.636   0.892  10.551  0.2614  0.0535 -0.0150
  258MOL0     C35488   3.693   1.020  10.486  0.0371  0.4662 -0.2954
  258MOL0     C35489   3.837   1.042  10.530  0.7075 -0.7372 -0.3941
  258MOL0     O35490   3.889   1.159  10.468 -0.1889  0.5755  0.3064
  258MOL0     C35491   4.014   1.181  10.518  0.2579 -0.6292 -0.5943
  258MOL0     C35492   4.095   1.100  10.589  0.4941  0.9572 -0.4440
  258MOL0     C35493   4.221   1.141  10.623 -0.0177 -0.0852 -0.8038
  258MOL0     C35494   4.316   1.035  10.682  0.2741 -0.0045  0.3139
  258MOL0     C35495   4.270   1.267  10.588 -0.7669 -0.2950 -0.2990
  258MOL0     C35496   4.406   1.328  10.624  0.1109 -0.2244 -0.7003
  258MOL0     O35497   4.432   1.448  10.574 -0.5391 -0.0901 -0.0390
  258MOL0     C35498   4.533   1.518  10.622 -0.1656 -0.6918 -1.2155
  258MOL0     C35499   4.662   1.507  10.571  0.3102 -0.1680  0.0103
  258MOL0     C35500   4.762   1.572  10.638 -0.7267 -1.1314 -0.4273
  258MOL0     C35501   4.733   1.656  10.750 -0.3366  0.3707 -0.4440
  258MOL0     O35502   4.830   1.724  10.826  0.7883 -0.5525 -0.8136
  258MOL0     C35503   4.956   1.666  10.842 -0.3459  0.8897  0.3905
  258MOL0     C35504   5.044   1.737  10.946  0.1921  0.1932 -0.3270
  258MOL0     C35505   5.102   1.855  10.871  0.2928  0.1277  0.0676
  258MOL0     C35506   5.145   1.962  10.966  0.6905  0.1645  0.3659
  258MOL0     C35507   5.254   2.044  10.895  0.6752  0.2259 -0.3252
  258MOL0     C35508   5.390   1.984  10.910  0.1385  0.8872  0.2631
  258MOL0     C35509   5.491   2.058  10.827 -0.4108  0.4876  0.2038
  258MOL0     C35510   5.628   1.994  10.840 -0.3424 -0.3964  0.3044
  258MOL0    Cl35511   5.735   2.083  10.727 -0.0698 -0.3200 -0.1233
  258MOL0     C35512   4.610   1.667  10.794 -0.0311  0.5496 -0.0736
  258MOL0     C35513   4.508   1.600  10.735 -0.3128  0.0989  0.8394
  258MOL0     O35514   4.492   1.256  10.687 -0.1742 -0.1174 -0.4931
  258MOL0     C35515   4.179   1.351  10.522  0.9982 -0.0290 -0.0073
  258MOL0     C35516   4.055   1.305  10.488 -0.7819  0.2498  0.7343
  258MOL0     N35517   3.411   0.723  10.358 -0.3972 -0.0553  0.9400
  258MOL0     N35518   3.359   0.754  10.246  0.1957 -0.2495  0.2760
  258MOL0     C35519   2.679   1.440   9.260  0.1712  0.0751  1.2503
  258MOL0     C35520   2.547   1.464   9.215  0.3636 -0.8513 -0.4228
  258MOL0     C35521   2.114   1.544   9.162 -0.8578 -0.1070 -1.0029
  258MOL0     C35522   2.040   1.420   9.156 -0.9639 -0.1394 -0.6789
  258MOL0     C35523   1.907   1.416   9.115  0.1202  0.4820 -0.6183
  258MOL0     C35524   1.843   1.530   9.080 -0.0137  0.1154  0.4813
  258MOL0     O35525   1.721   1.511   9.042  0.1303 -0.2217  0.3353
  258MOL0     C35526   1.655   1.629   8.991  0.2698  0.5297 -0.3918
  258MOL0     C35527   1.510   1.592   8.954  0.0662 -0.2861 -0.1790
  258MOL0     C35528   1.492   1.480   8.847  0.0712  0.3607 -0.5466
  258MOL0     C35529   1.552   1.505   8.714 -0.7512 -0.2091  0.0933
  258MOL0     C35530   1.519   1.635   8.654  0.0728  0.0934  0.6552
  258MOL0     C35531   1.477   1.731   8.596  0.3085  0.5235  0.1707
  258MOL0     C35532   1.920   1.648   9.067  0.0904  0.3220 -0.3052
  258MOL0     C35533   2.055   1.654   9.111  0.4658 -0.1416  0.7131
  258MOL0     C35534   2.125   1.782   9.081 -0.0653 -0.4117  0.1447
  258MOL0     H35535   2.385   1.237   9.393 -1.8794 -0.7158 -4.0184
  258MOL0     H35536   2.607   1.179   9.467  0.2262 -0.3643 -0.6847
  258MOL0     H35537   2.819   1.199   9.557 -0.3297 -0.1084 -3.8929
  258MOL0     H35538   2.773   1.376   9.588 -0.2162  0.4122 -0.8142
  258MOL0     H35539   3.061   1.268   9.553 -1.4278 -2.0946  0.9461
  258MOL0     H35540   3.019   1.441   9.591 -0.6738  1.0906  1.9979
  258MOL0     H35541   3.107   1.362   9.794 -0.2214  1.7656 -1.6170
  258MOL0     H35542   2.942   1.355   9.822 -1.0977  1.1774 -0.8520
  258MOL0     H35543   2.940   1.120   9.757 -0.6732  2.5179 -3.5580
  258MOL0     H35544   3.121   1.131   9.724 -0.2446 -0.4438 -0.3900
  258MOL0     H35545   3.017   1.182   9.998 -2.0052 -0.2212 -1.8143
  258MOL0     H35546   3.182   1.171   9.948 -1.1639  2.6089  2.3556
  258MOL0     H35547   2.999   0.932   9.936  1.1355 -0.3347  2.9292
  258MOL0     H35548   3.150   0.939   9.856 -2.1118 -0.5206 -0.5952
  258MOL0     H35549   3.139   0.826  10.084 -1.3051 -0.0617 -1.9753
  258MOL0     H35550   3.124   0.995  10.152 -0.5475  1.9925 -2.4795
  258MOL0     H35551   3.351   0.890   9.999  1.9062  0.7962 -0.6816
  258MOL0     H35552   3.339   1.053  10.092 -2.9362  0.5014  2.5689
  258MOL0     H35553   3.430   1.056  10.342 -3.7752  0.7129 -0.4456
  258MOL0     H35554   3.443   0.801  10.612 -2.0243  0.0369 -1.0633
  258MOL0     H35555   3.421   0.971  10.562 -1.2389 -0.6660 -1.4878
  258MOL0     H35556   3.665   0.882  10.656  1.2220 -5.3090 -0.5010
  258MOL0     H35557   3.675   0.804  10.498  0.5644  1.7326 -2.7837
  258MOL0     H35558   3.687   1.014  10.377  0.5168 -0.2341 -0.2935
  258MOL0     H35559   3.629   1.105  10.511  0.5814  0.8301 -0.1223
  258MOL0     H35560   3.822   1.052  10.638  0.6334 -0.8553 -0.3938
  258MOL0     H35561   3.892   0.947  10.526  0.4268 -1.0213  1.3766
  258MOL0     H35562   4.072   0.997  10.615  0.5310  1.0206 -0.1485
  258MOL0     H35563   4.406   1.030  10.620 -0.2201  2.4800 -0.6968
  258MOL0     H35564   4.268   0.938  10.692  0.7819 -0.1098  2.3752
  258MOL0     H35565   4.351   1.065  10.782 -2.7091 -0.5680  1.6358
  258MOL0     H35566   4.682   1.447  10.483  3.3189  0.7599 -0.0445
  258MOL0     H35567   4.865   1.557  10.607 -0.5296 -1.4349  0.3710
  258MOL0     H35568   4.943   1.562  10.872  0.9179  0.0997 -1.6669
  258MOL0     H35569   5.002   1.670  10.744 -0.7911 -3.2985 -0.1684
  258MOL0     H35570   4.971   1.755  11.026  2.1206 -3.3217  2.5285
  258MOL0     H35571   5.123   1.666  10.973  2.8517  2.3428 -1.9477
  258MOL0     H35572   5.032   1.905  10.804 -0.5865 -3.0995 -1.6519
  258MOL0     H35573   5.188   1.828  10.808 -0.3258  1.1455 -1.2735
  258MOL0     H35574   5.185   1.921  11.060  1.2302 -4.2709 -1.5308
  258MOL0     H35575   5.060   2.026  10.989 -0.0715 -1.1186  1.2684
  258MOL0     H35576   5.226   2.058  10.790  1.0309  0.5962 -0.3755
  258MOL0     H35577   5.256   2.148  10.930 -1.9033  0.5798 -1.0457
  258MOL0     H35578   5.389   1.878  10.884 -0.0938  1.4619 -2.2392
  258MOL0     H35579   5.419   1.997  11.015  1.8275 -0.0983 -0.0437
  258MOL0     H35580   5.486   2.161  10.863 -2.0993 -0.4702  2.9960
  258MOL0     H35581   5.459   2.064  10.722 -0.4305 -1.9823  0.0182
  258MOL0     H35582   5.609   1.890  10.812 -4.0167 -0.4825  2.3649
  258MOL0     H35583   5.654   1.997  10.946 -1.2204  0.4256  0.5207
  258MOL0     H35584   4.596   1.739  10.874  0.8984 -0.2153  0.7979
  258MOL0     H35585   4.403   1.602  10.762 -0.1344  1.9995  1.6116
  258MOL0     H35586   4.197   1.454  10.495 -0.5117  0.5480  1.0613
  258MOL0     H35587   3.985   1.372  10.440  1.2878  2.3027  0.4227
  258MOL0     H35588   2.765   1.481   9.207 -1.3807  0.1359 -1.4051
  258MOL0     H35589   2.545   1.534   9.133  3.1655 -1.7166 -1.3639
  258MOL0     H35590   2.092   1.333   9.195  1.1651  0.9487 -0.9745
  258MOL0     H35591   1.848   1.326   9.122 -2.5458  2.1804  0.5208
  258MOL0     H35592   1.642   1.705   9.068 -1.3730  0.6695 -0.7546
  258MOL0     H35593   1.707   1.671   8.905  0.7099 -3.2609 -2.2057
  258MOL0     H35594   1.463   1.687   8.926  1.8126  1.3597  2.1069
  258MOL0     H35595   1.467   1.561   9.049  0.5557 -0.2171  0.0697
  258MOL0     H35596   1.516   1.384   8.895  0.7990 -0.7270 -2.9499
  258MOL0     H35597   1.384   1.481   8.831 -0.5403  0.5479  2.8740
  258MOL0     H35598   1.508   1.431   8.648 -2.4843 -1.0099  2.0162
  258MOL0     H35599   1.660   1.503   8.728 -0.9681 -1.4922  1.9686
  258MOL0     H35600   1.447   1.817   8.540 -0.6233  1.1597  1.5914
  258MOL0     H35601   1.884   1.740   9.023  2.2135  0.5026 -1.8293
  258MOL0     H35602   2.074   1.848   9.010 -0.2842 -1.1473 -0.3968
  258MOL0     H35603   2.125   1.844   9.172  1.1488 -0.3853  0.1411
  258MOL0     H35604   2.221   1.763   9.033 -0.5198  0.8773 -1.3515
  259MOL0     O35605   3.260   7.868   1.402  0.1164  0.1289  0.3996
  259MOL0     C35606   3.144   7.859   1.442 -0.2695 -0.3413  0.1591
  259MOL0     O35607   3.104   7.893   1.572  0.1893  0.4520  0.4516
  259MOL0     C35608   3.178   7.992   1.644  0.5963  0.2428 -0.3484
  259MOL0     C35609   3.193   8.119   1.588  0.0718  0.6384  0.4900
  259MOL0     C35610   3.275   8.216   1.644 -0.1251  0.2268  0.6641
  259MOL0     C35611   3.341   8.190   1.760 -0.4223 -0.4822 -0.6441
  259MOL0     O35612   3.408   8.288   1.833  0.2982  0.0519 -0.0126
  259MOL0     C35613   3.515   8.353   1.777 -0.0190 -0.0131 -0.3355
  259MOL0     C35614   3.633   8.274   1.828  0.2960  0.0761 -0.2634
  259MOL0     C35615   3.775   8.334   1.808  0.1975  0.3150  0.0589
  259MOL0     C35616   3.878   8.238   1.855 -0.7060 -0.4005  0.2952
  259MOL0     C35617   4.020   8.273   1.795 -0.8878  0.0185 -0.9730
  259MOL0     C35618   4.079   8.408   1.845 -0.6089  0.7918  0.7813
  259MOL0     C35619   4.217   8.417   1.787  0.6089  0.0371  0.2472
  259MOL0     C35620   4.222   8.442   1.638  0.7767 -0.5573 -0.6851
  259MOL0     N35621   4.357   8.471   1.589 -0.1791  0.5129  0.2795
  259MOL0     C35622   4.423   8.593   1.595  0.0664  0.0097  0.4580
  259MOL0     C35623   4.546   8.568   1.538  0.4677  0.3301 -0.3403
  259MOL0     C35624   4.659   8.660   1.522  0.2567  0.1443 -0.3980
  259MOL0     C35625   4.723   8.722   1.652 -0.2975  0.5563 -0.0302
  259MOL0     C35626   4.810   8.843   1.616 -0.0201  0.4993 -0.3322
  259MOL0     C35627   4.933   8.820   1.525  0.1572  0.0700  0.1756
  259MOL0     O35628   5.018   8.716   1.595  0.1276 -0.0888 -0.2804
  259MOL0     C35629   5.130   8.776   1.638 -0.0882 -0.4151 -0.3074
  259MOL0     C35630   5.123   8.806   1.773  1.0161  1.4138 -0.0515
  259MOL0     C35631   5.225   8.877   1.843  0.1638 -0.6588  0.1131
  259MOL0     C35632   5.208   8.892   1.989  0.6791 -0.1390 -0.8778
  259MOL0     C35633   5.331   8.934   1.767  0.6350 -0.9539  0.1393
  259MOL0     C35634   5.445   9.010   1.821 -0.0170  0.4393 -0.2336
  259MOL0     O35635   5.493   8.960   1.944 -0.0290  0.1957 -0.5529
  259MOL0     C35636   5.576   9.029   2.032  0.0418  0.4056 -0.8876
  259MOL0     C35637   5.589   9.172   2.028  0.1520 -0.1231 -0.1625
  259MOL0     C35638   5.667   9.237   2.126  0.9615 -0.5308  0.6986
  259MOL0     C35639   5.730   9.156   2.216 -0.3603  0.9642 -0.2476
  259MOL0     O35640   5.805   9.212   2.311  0.0187 -0.7955 -0.4656
  259MOL0     C35641   5.933   9.168   2.315 -0.3977 -1.0008 -0.3613
  259MOL0     C35642   6.011   9.245   2.210 -0.3684  0.7989  0.8307
  259MOL0     C35643   6.053   9.387   2.252  0.2827 -0.4391  0.1191
  259MOL0     C35644   6.173   9.380   2.336  0.0939  0.0742 -0.2307
  259MOL0     C35645   6.241   9.509   2.359  0.3945  0.0060 -0.1233
  259MOL0     C35646   6.372   9.496   2.449  0.1492  0.1543 -0.4650
  259MOL0     C35647   6.342   9.422   2.578 -0.4743  0.8306 -1.1707
  259MOL0     C35648   6.454   9.452   2.679 -0.1172 -0.0807 -0.8163
  259MOL0    Cl35649   6.627   9.432   2.627  0.4411 -0.4420 -0.3423
  259MOL0     C35650   5.711   9.019   2.230 -0.4952 -0.2826  0.5218
  259MOL0     C35651   5.636   8.959   2.134 -0.0425  0.6303  0.2309
  259MOL0     O35652   5.491   9.101   1.755  0.3423 -0.2111 -0.3192
  259MOL0     C35653   5.339   8.887   1.641 -0.8000  0.5455  0.0598
  259MOL0     C35654   5.241   8.813   1.566 -0.6928  0.7218  0.2444
  259MOL0     N35655   4.547   8.433   1.490  0.5382  0.0174  0.2501
  259MOL0     N35656   4.434   8.381   1.514  0.4456  0.2373 -0.7886
  259MOL0     C35657   3.319   8.067   1.830  0.5244  0.4593 -0.0443
  259MOL0     C35658   3.247   7.967   1.761 -0.7165 -0.2646 -0.4039
  259MOL0     C35659   3.041   7.803   1.363 -0.3397  0.5910  0.4604
  259MOL0     C35660   2.908   7.820   1.413  0.4345  0.5915  0.8787
  259MOL0     C35661   2.804   7.746   1.363  0.5575 -0.4592 -0.1680
  259MOL0     C35662   2.820   7.664   1.250 -0.1799 -0.7118 -0.5762
  259MOL0     O35663   2.723   7.586   1.186  0.0501  0.3376 -0.2296
  259MOL0     C35664   2.602   7.566   1.257  0.5348 -0.2466 -0.0215
  259MOL0     C35665   2.503   7.656   1.192 -0.7392 -0.5473 -0.2189
  259MOL0     C35666   2.452   7.595   1.061 -1.0960  0.0987  0.0109
  259MOL0     C35667   2.322   7.669   1.010 -0.0273  0.5745  0.6896
  259MOL0     C35668   2.192   7.611   1.055  0.8539 -0.3199 -0.2109
  259MOL0     C35669   2.095   7.550   1.088  0.4879  0.0985 -0.5420
  259MOL0     C35670   2.952   7.647   1.207 -0.1486  0.2927 -0.1632
  259MOL0     C35671   3.069   7.711   1.258  0.3735  1.0865  0.9300
  259MOL0     C35672   3.198   7.671   1.195 -0.5413 -0.1579 -0.0490
  259MOL0     H35673   3.138   8.143   1.497  0.8022  1.2439  0.1914
  259MOL0     H35674   3.278   8.317   1.602 -0.5629  0.3200  0.8533
  259MOL0     H35675   3.524   8.453   1.819 -0.1315  0.9144 -2.3868
  259MOL0     H35676   3.493   8.364   1.670 -1.6112  1.9618  0.1407
  259MOL0     H35677   3.621   8.266   1.937 -0.4587 -0.5533 -0.3869
  259MOL0     H35678   3.623   8.172   1.788 -3.2319  0.0582  0.3367
  259MOL0     H35679   3.790   8.369   1.706  0.6164 -2.8701 -1.0681
  259MOL0     H35680   3.778   8.420   1.876 -1.8018  1.1123 -0.7965
  259MOL0     H35681   3.886   8.241   1.964 -1.3025 -2.7190  0.4571
  259MOL0     H35682   3.842   8.137   1.832 -0.6807 -0.2975 -0.2084
  259MOL0     H35683   4.027   8.256   1.687  2.2845  0.2944 -0.9127
  259MOL0     H35684   4.082   8.198   1.844 -4.8884 -0.5411  4.0572
  259MOL0     H35685   4.020   8.495   1.816 -0.7695  0.2375 -0.6229
  259MOL0     H35686   4.085   8.410   1.955  0.8428 -2.4377  0.8674
  259MOL0     H35687   4.278   8.328   1.808  0.0130 -0.8200 -1.5020
  259MOL0     H35688   4.275   8.498   1.831  1.9775 -0.2313 -0.9562
  259MOL0     H35689   4.182   8.355   1.584 -1.8609  1.0041 -1.4078
  259MOL0     H35690   4.157   8.528   1.621 -0.8101 -1.8019 -1.0609
  259MOL0     H35691   4.382   8.676   1.651  1.9241 -1.6272  4.5821
  259MOL0     H35692   4.640   8.740   1.449  0.9601  0.3859 -0.3300
  259MOL0     H35693   4.739   8.603   1.474  0.1786 -0.3557  0.0577
  259MOL0     H35694   4.638   8.746   1.717 -0.5527 -2.4953  0.9257
  259MOL0     H35695   4.798   8.652   1.688 -0.7314 -0.2183 -0.5993
  259MOL0     H35696   4.746   8.922   1.576 -0.8873 -0.3552 -0.6490
  259MOL0     H35697   4.850   8.875   1.713 -0.0300 -0.2243 -0.0799
  259MOL0     H35698   4.897   8.781   1.430 -1.6075 -2.3325  1.7212
  259MOL0     H35699   4.990   8.908   1.495  0.5096 -0.6073 -1.2165
  259MOL0     H35700   5.034   8.765   1.819  0.4033 -1.0984 -3.1045
  259MOL0     H35701   5.112   8.856   2.027  0.2260 -0.1835 -2.0268
  259MOL0     H35702   5.219   8.998   2.015  0.3397  0.3246 -2.4735
  259MOL0     H35703   5.287   8.837   2.041 -0.4374 -0.1435  0.8856
  259MOL0     H35704   5.541   9.235   1.954 -0.0237  0.2683  0.2796
  259MOL0     H35705   5.676   9.345   2.135 -1.3767 -0.1234 -0.8617
  259MOL0     H35706   5.974   9.181   2.416 -1.0598  2.2901 -0.4027
  259MOL0     H35707   5.953   9.062   2.295 -0.1003 -0.6766 -1.8618
  259MOL0     H35708   6.104   9.190   2.194 -0.1547  1.8196 -1.9349
  259MOL0     H35709   5.949   9.244   2.119 -2.0385 -0.7757  1.9105
  259MOL0     H35710   5.974   9.435   2.310  0.1625 -2.4925  1.7953
  259MOL0     H35711   6.066   9.448   2.162 -0.6340  0.7575  0.7785
  259MOL0     H35712   6.245   9.312   2.290  1.1565 -0.7864  2.5609
  259MOL0     H35713   6.136   9.339   2.430  0.2617 -2.1168 -1.0548
  259MOL0     H35714   6.264   9.551   2.261 -0.2228 -1.3016 -0.8550
  259MOL0     H35715   6.175   9.582   2.405 -0.7825 -0.1268 -1.5424
  259MOL0     H35716   6.419   9.591   2.472  5.3205 -2.1633 -0.1758
  259MOL0     H35717   6.450   9.438   2.400 -1.2128  0.3598 -3.0598
  259MOL0     H35718   6.347   9.313   2.569 -0.4938  0.5799  1.2501
  259MOL0     H35719   6.246   9.457   2.617  0.8964  1.6347  1.8200
  259MOL0     H35720   6.447   9.382   2.763 -0.4617  0.1550 -0.6459
  259MOL0     H35721   6.445   9.555   2.714 -1.4112 -0.3568 -0.2890
  259MOL0     H35722   5.754   8.957   2.307 -3.5339 -1.3967  1.4851
  259MOL0     H35723   5.609   8.854   2.139  0.7741  0.2693 -1.8140
  259MOL0     H35724   5.432   8.908   1.589 -1.7056 -0.2826 -2.0213
  259MOL0     H35725   5.259   8.794   1.461  2.3806  0.8034  0.6487
  259MOL0     H35726   3.373   8.046   1.921 -0.5091 -0.3079  0.4047
  259MOL0     H35727   3.227   7.871   1.807  2.2338  0.4037  2.6574
  259MOL0     H35728   2.881   7.895   1.488  1.4827  1.4474  0.4363
  259MOL0     H35729   2.710   7.769   1.411  1.8976 -1.2246  3.1517
  259MOL0     H35730   2.563   7.464   1.241 -1.1062  0.2659  0.4935
  259MOL0     H35731   2.610   7.587   1.364  3.1612  0.2550 -0.2636
  259MOL0     H35732   2.535   7.758   1.168  1.8266 -1.9770 -3.7226
  259MOL0     H35733   2.421   7.675   1.263  0.4939 -0.6058  1.2615
  259MOL0     H35734   2.526   7.592   0.981 -2.3161  0.1399 -1.1420
  259MOL0     H35735   2.428   7.489   1.077  1.0258 -0.6243 -1.1451
  259MOL0     H35736   2.320   7.666   0.901 -3.0105 -2.2133  0.6739
  259MOL0     H35737   2.315   7.770   1.052 -0.5909  0.3332  1.1980
  259MOL0     H35738   2.011   7.490   1.117 -0.4333  1.8949  0.6779
  259MOL0     H35739   2.965   7.576   1.126 -2.9553  0.8243 -1.2227
  259MOL0     H35740   3.200   7.573   1.148  1.0695  1.1759 -3.0246
  259MOL0     H35741   3.222   7.736   1.110 -0.7955  0.9687  0.7126
  259MOL0     H35742   3.284   7.681   1.262  1.9948 -1.4793 -2.8640
  260MOL0     O35743   6.616  10.866   6.826  1.0103  0.3535 -1.0531
  260MOL0     C35744   6.566  10.828   6.935  0.1183 -0.5114  0.1152
  260MOL0     O35745   6.638  10.787   7.050 -0.9923 -0.8683 -0.2037
  260MOL0     C35746   6.776  10.780   7.051 -0.1048 -0.4791 -0.2877
  260MOL0     C35747   6.856  10.741   6.951 -0.0840  1.2195  0.7757
  260MOL0     C35748   6.994  10.710   6.974 -0.7970  0.7862 -0.5138
  260MOL0     C35749   7.042  10.712   7.109 -0.1071 -0.0191  0.5473
  260MOL0     O35750   7.172  10.679   7.137  0.3536 -0.4674  0.0829
  260MOL0     C35751   7.272  10.783   7.114  0.8661  0.6413 -0.9399
  260MOL0     C35752   7.375  10.780   7.224  0.6765  0.5883 -0.1329
  260MOL0     C35753   7.433  10.644   7.254 -0.0791  0.5927 -0.1756
  260MOL0     C35754   7.573  10.654   7.326 -0.7144  0.4646  0.2935
  260MOL0     C35755   7.633  10.519   7.351 -0.6398  0.4164 -0.5894
  260MOL0     C35756   7.757  10.534   7.435 -0.2408 -0.6870 -0.2025
  260MOL0     C35757   7.834  10.397   7.450 -0.0637 -0.2247 -0.4896
  260MOL0     C35758   7.907  10.359   7.321 -0.3663  0.4771 -1.8195
  260MOL0     N35759   8.005  10.457   7.284  0.0423 -0.8182 -0.3379
  260MOL0     C35760   8.118  10.492   7.358  0.0930  0.5841 -0.5378
  260MOL0     C35761   8.174  10.597   7.293  0.2656 -1.6610  0.0755
  260MOL0     C35762   8.311  10.668   7.319 -0.5666 -0.0729 -0.2398
  260MOL0     C35763   8.384  10.731   7.194  0.6506 -0.5136 -0.2881
  260MOL0     C35764   8.425  10.620   7.092  0.3934  0.1619  0.0830
  260MOL0     C35765   8.550  10.675   7.011  0.1666 -0.1882 -0.2009
  260MOL0     O35766   8.630  10.565   6.968 -0.3728 -0.6092  0.4103
  260MOL0     C35767   8.708  10.586   6.861  0.4511 -0.0056 -0.6931
  260MOL0     C35768   8.806  10.684   6.852  0.1480  0.2231  0.0593
  260MOL0     C35769   8.896  10.696   6.742  0.9728  0.2787 -0.2614
  260MOL0     C35770   8.976  10.818   6.754  1.0466  0.2363 -0.1616
  260MOL0     C35771   8.892  10.589   6.645 -0.0744 -0.0211 -0.4202
  260MOL0     C35772   8.977  10.584   6.527 -0.0506  0.8732 -0.0089
  260MOL0     O35773   9.018  10.708   6.475 -0.2626  0.1268 -0.4623
  260MOL0     C35774   9.058  10.711   6.348  0.1427  0.1104 -0.1420
  260MOL0     C35775   9.181  10.678   6.308 -1.0136  0.1751 -0.2503
  260MOL0     C35776   9.216  10.670   6.169  0.0505 -0.1865  0.0833
  260MOL0     C35777   9.128  10.711   6.076  0.6504  0.0385 -0.5832
  260MOL0     O35778   9.179  10.707   5.948  0.0169 -0.0262  0.1020
  260MOL0     C35779   9.084  10.733   5.847 -0.3597 -0.2689 -0.4012
  260MOL0     C35780   9.105  10.886   5.824  0.2108  0.1140  0.2741
  260MOL0     C35781   8.976  10.953   5.801  0.5129 -0.4276  0.4100
  260MOL0     C35782   8.899  10.914   5.675 -0.4001  0.3499 -0.2640
  260MOL0     C35783   8.779  10.996   5.660 -0.1919 -0.4297 -1.0330
  260MOL0     C35784   8.715  10.959   5.523 -0.2661  0.4467  0.6029
  260MOL0     C35785   8.586  11.052   5.515 -0.0653  0.5338  0.0015
  260MOL0     C35786   8.526  11.036   5.373  0.0749 -0.9768 -1.3365
  260MOL0    Cl35787   8.373  11.135   5.341 -0.0399 -0.3174 -0.1554
  260MOL0     C35788   9.004  10.756   6.120 -0.6514 -0.3552  0.4261
  260MOL0     C35789   8.967  10.751   6.250 -0.1125  0.1815  0.1705
  260MOL0     O35790   8.993  10.474   6.475 -0.5671  0.2622 -0.0416
  260MOL0     C35791   8.795  10.489   6.660  0.7587  0.4274  0.9369
  260MOL0     C35792   8.701  10.488   6.764  0.1565 -0.1149 -0.2988
  260MOL0     N35793   8.086  10.626   7.186  0.4149 -0.1431 -0.0696
  260MOL0     N35794   7.996  10.534   7.174  0.3275  0.3178 -0.3019
  260MOL0     C35795   6.954  10.754   7.210 -0.4920  0.4010 -0.1648
  260MOL0     C35796   6.828  10.791   7.185 -0.5314 -0.2715 -0.4801
  260MOL0     C35797   6.408  10.830   6.944 -0.4173 -1.0834  0.3386
  260MOL0     C35798   6.336  10.875   6.828 -0.0751 -0.5531 -0.4115
  260MOL0     C35799   6.202  10.901   6.826  0.4058  0.2558  0.2481
  260MOL0     C35800   6.132  10.865   6.940 -0.7935  0.3695  0.6571
  260MOL0     O35801   5.997  10.887   6.954  0.6014  0.3125 -0.5108
  260MOL0     C35802   5.925  10.965   6.858 -0.4631  0.4152  1.0583
  260MOL0     C35803   5.777  10.937   6.889  0.0966  1.3316 -0.0115
  260MOL0     C35804   5.740  10.790   6.915 -0.5275  0.6783 -0.0278
  260MOL0     C35805   5.597  10.757   6.888  0.0179  0.2314  0.4134
  260MOL0     C35806   5.499  10.806   6.983  0.7048 -0.5478  0.2126
  260MOL0     C35807   5.419  10.866   7.058  0.7174 -0.0455  0.5260
  260MOL0     C35808   6.193  10.823   7.058  0.3845  0.1065  0.1491
  260MOL0     C35809   6.330  10.805   7.061  0.1898 -0.2737 -0.4152
  260MOL0     C35810   6.387  10.763   7.187  0.4208  0.1818  0.4727
  260MOL0     H35811   6.801  10.736   6.858 -0.0208  0.9414  0.7549
  260MOL0     H35812   7.058  10.676   6.893  0.4591 -0.7740  1.0416
  260MOL0     H35813   7.217  10.877   7.098 -1.9974 -0.5914  0.9284
  260MOL0     H35814   7.326  10.753   7.024  1.0334  2.3415 -1.4376
  260MOL0     H35815   7.453  10.853   7.198  2.0336 -0.6506  0.2837
  260MOL0     H35816   7.330  10.821   7.315  0.2949  4.1343 -1.7376
  260MOL0     H35817   7.357  10.583   7.304 -0.1833  0.2916 -0.6949
  260MOL0     H35818   7.448  10.577   7.169  0.1732 -0.7684  0.9170
  260MOL0     H35819   7.646  10.705   7.261  1.0934 -0.4276  1.5515
  260MOL0     H35820   7.564  10.706   7.421  3.1281  0.7325  0.6762
  260MOL0     H35821   7.666  10.466   7.261  2.6129  0.3030  0.5303
  260MOL0     H35822   7.561  10.446   7.390 -0.8843  1.0252  0.1242
  260MOL0     H35823   7.828  10.607   7.396  1.3569 -1.5184  1.0408
  260MOL0     H35824   7.725  10.558   7.536 -0.9308 -2.2951 -0.0037
  260MOL0     H35825   7.761  10.317   7.467  1.2017 -0.9774  1.8311
  260MOL0     H35826   7.910  10.400   7.528  0.6343 -1.3113 -1.0972
  260MOL0     H35827   7.965  10.268   7.335  0.4102  0.9641 -1.7961
  260MOL0     H35828   7.834  10.339   7.242 -1.3769  1.5810 -1.2124
  260MOL0     H35829   8.132  10.441   7.452 -1.4981  1.5492  0.2666
  260MOL0     H35830   8.384  10.611   7.377 -1.3030 -0.2903  0.4875
  260MOL0     H35831   8.297  10.749   7.391  1.9476 -1.8867  2.5255
  260MOL0     H35832   8.313  10.804   7.155  0.7128 -1.5008 -2.3879
  260MOL0     H35833   8.476  10.772   7.237  0.7011 -1.1035  0.1985
  260MOL0     H35834   8.452  10.528   7.144 -0.1410 -0.4556 -0.7177
  260MOL0     H35835   8.336  10.602   7.031  0.3008  0.9968 -0.0503
  260MOL0     H35836   8.518  10.734   6.925 -0.5282 -1.0754 -0.5689
  260MOL0     H35837   8.607  10.739   7.078 -3.1279  1.9646  0.8065
  260MOL0     H35838   8.813  10.756   6.933 -0.4369  0.1467  0.1757
  260MOL0     H35839   9.066  10.804   6.695  0.7790  1.5102 -0.9044
  260MOL0     H35840   8.998  10.849   6.857  2.3707  1.1210 -0.6925
  260MOL0     H35841   8.915  10.889   6.697 -0.3851 -2.0874 -1.6895
  260MOL0     H35842   9.258  10.642   6.376  1.4812  3.5814 -1.0042
  260MOL0     H35843   9.315  10.630   6.149 -0.9013 -1.8884 -1.4944
  260MOL0     H35844   9.111  10.684   5.753  0.3184  1.5132 -1.1782
  260MOL0     H35845   8.978  10.713   5.868  0.6759 -2.0556  4.2868
  260MOL0     H35846   9.149  10.932   5.912 -1.9028  3.0764 -0.0644
  260MOL0     H35847   9.173  10.897   5.739 -0.0667 -0.8477 -0.0823
  260MOL0     H35848   8.990  11.060   5.786  1.4652 -0.4513  1.0370
  260MOL0     H35849   8.906  10.947   5.885  1.2361 -0.8433  0.9864
  260MOL0     H35850   8.867  10.810   5.667 -3.6878  0.9341  3.0174
  260MOL0     H35851   8.968  10.945   5.595  1.2033 -1.0652  0.5041
  260MOL0     H35852   8.709  10.981   5.742 -2.7707  1.9045 -2.6233
  260MOL0     H35853   8.803  11.103   5.657  0.7655 -0.6404 -1.5231
  260MOL0     H35854   8.696  10.851   5.519  2.0436  0.0389 -0.9477
  260MOL0     H35855   8.789  10.979   5.445 -1.2178 -0.2256 -0.5103
  260MOL0     H35856   8.611  11.155   5.540 -0.4614  0.2344  1.7574
  260MOL0     H35857   8.508  11.012   5.581 -0.5985  1.1634 -0.2379
  260MOL0     H35858   8.497  10.932   5.356 -2.1512  0.0030 -4.6771
  260MOL0     H35859   8.600  11.068   5.299 -1.6088 -0.4745 -2.8715
  260MOL0     H35860   8.934  10.805   6.053 -0.8992  0.1547  1.0584
  260MOL0     H35861   8.869  10.790   6.274 -1.2176 -2.4960  0.4237
  260MOL0     H35862   8.784  10.407   6.589 -3.3714  1.6526 -0.1056
  260MOL0     H35863   8.627  10.409   6.775  1.7030 -1.3832  1.8554
  260MOL0     H35864   6.988  10.750   7.314  0.6443 -0.6925 -0.5515
  260MOL0     H35865   6.758  10.829   7.259 -1.4201 -0.9118 -0.9763
  260MOL0     H35866   6.387  10.916   6.741 -1.2001  4.0994  0.8236
  260MOL0     H35867   6.169  10.942   6.731 -1.3881 -0.1614  0.6609
  260MOL0     H35868   5.955  11.065   6.890  1.4785  0.8605 -1.8055
  260MOL0     H35869   5.953  10.935   6.757  0.1655 -0.6307  1.5260
  260MOL0     H35870   5.722  10.965   6.799  0.6310 -1.8885 -1.4827
  260MOL0     H35871   5.747  10.989   6.981 -4.1247 -1.6718  0.6389
  260MOL0     H35872   5.798  10.735   6.841  0.4537  1.4625  0.1312
  260MOL0     H35873   5.760  10.757   7.018  1.6001 -1.4858 -1.0382
  260MOL0     H35874   5.591  10.647   6.892 -0.5949  0.2645  0.5091
  260MOL0     H35875   5.567  10.784   6.786  4.1286 -0.9508 -1.3085
  260MOL0     H35876   5.350  10.910   7.128  0.7603  0.3130  0.3430
  260MOL0     H35877   6.130  10.798   7.143  0.4334  2.4811  0.9491
  260MOL0     H35878   6.317  10.726   7.261  1.1657  0.3299  1.2714
  260MOL0     H35879   6.452  10.679   7.161  1.7110 -0.2440  4.4861
  260MOL0     H35880   6.434  10.853   7.228 -1.3199 -0.3625  4.0035
  261MOL0     O35881   9.621   5.973   1.467 -0.3003  0.0717 -0.1163
  261MOL0     C35882   9.679   6.046   1.391  0.0089 -0.3158 -1.0787
  261MOL0     O35883   9.624   6.154   1.336  0.0693 -0.3604  0.4201
  261MOL0     C35884   9.490   6.181   1.350  0.0153  0.1315 -0.2288
  261MOL0     C35885   9.385   6.093   1.360  0.5471 -0.0297  0.4477
  261MOL0     C35886   9.256   6.143   1.373  0.1301 -0.7219  0.2247
  261MOL0     C35887   9.227   6.280   1.385  0.1024 -0.1149  0.4724
  261MOL0     O35888   9.100   6.339   1.393 -0.2089  0.3694 -0.0232
  261MOL0     C35889   9.004   6.285   1.312  0.3533 -0.1858 -0.1373
  261MOL0     C35890   8.929   6.167   1.382 -0.8948 -0.2405 -0.6086
  261MOL0     C35891   8.801   6.137   1.309  0.1441 -0.4751 -0.2352
  261MOL0     C35892   8.704   6.041   1.375 -0.0739  0.7799  0.2716
  261MOL0     C35893   8.583   5.995   1.284 -0.3805  0.1462 -0.2635
  261MOL0     C35894   8.495   5.880   1.351  0.2172 -1.0122 -0.5670
  261MOL0     C35895   8.354   5.882   1.293  0.9514  0.3906  0.1456
  261MOL0     C35896   8.284   5.755   1.339  0.0447  0.1101 -0.6691
  261MOL0     N35897   8.156   5.751   1.277 -0.1676 -0.6514 -0.6233
  261MOL0     C35898   8.115   5.655   1.187 -0.0577  0.4532  0.0403
  261MOL0     C35899   7.989   5.691   1.148 -0.2967  0.1006 -0.1771
  261MOL0     C35900   7.907   5.603   1.060 -0.9513 -0.3123 -0.6584
  261MOL0     C35901   7.867   5.472   1.128 -0.2143 -0.0411 -0.9008
  261MOL0     C35902   7.767   5.383   1.047  0.4516 -0.5595 -0.4763
  261MOL0     C35903   7.826   5.325   0.921  0.0494 -0.4743  0.6251
  261MOL0     O35904   7.954   5.261   0.955 -0.3343  0.4270 -0.1583
  261MOL0     C35905   7.959   5.133   0.995  0.1704 -0.6124 -0.2870
  261MOL0     C35906   8.079   5.092   1.042  0.0910 -0.0385 -0.3208
  261MOL0     C35907   8.115   4.958   1.074  1.2387  0.0045  0.5531
  261MOL0     C35908   8.255   4.930   1.117  0.4174  0.0929  0.4646
  261MOL0     C35909   8.012   4.856   1.057 -0.2944  0.1960 -0.6244
  261MOL0     C35910   8.033   4.712   1.068 -0.0781  0.2551 -0.4164
  261MOL0     O35911   7.926   4.632   1.043  0.5972 -0.4044  0.2416
  261MOL0     C35912   7.934   4.492   1.007  0.1085 -0.0260 -0.6961
  261MOL0     C35913   8.050   4.436   0.948  0.3269  0.4477 -0.0494
  261MOL0     C35914   8.042   4.304   0.909 -0.6455  1.4356 -0.3687
  261MOL0     C35915   7.933   4.218   0.933 -1.1794  0.2625 -0.0969
  261MOL0     O35916   7.935   4.087   0.892  0.0560 -0.6294  0.5433
  261MOL0     C35917   7.833   4.053   0.806 -0.4267  0.5556  0.6919
  261MOL0     C35918   7.891   3.946   0.705  0.2936 -0.2884  0.0870
  261MOL0     C35919   7.908   3.804   0.759  0.3020  0.5926  0.9708
  261MOL0     C35920   8.042   3.788   0.821 -0.1302 -0.1327  0.0968
  261MOL0     C35921   8.043   3.675   0.924  0.5483 -0.2787  0.0104
  261MOL0     C35922   8.190   3.635   0.949  0.7218  0.0814 -0.1844
  261MOL0     C35923   8.288   3.747   0.986 -0.8625  0.4883  0.0512
  261MOL0     C35924   8.438   3.703   0.967 -0.4837  0.3189 -0.7381
  261MOL0    Cl35925   8.460   3.552   1.047 -0.6322  0.4354 -0.3644
  261MOL0     C35926   7.827   4.274   0.999  1.2199  0.6072 -1.0087
  261MOL0     C35927   7.824   4.409   1.042 -0.2379  0.4240 -0.1938
  261MOL0     O35928   8.143   4.673   1.092 -0.2728  0.4261 -0.2986
  261MOL0     C35929   7.884   4.912   1.018 -0.1244 -0.3575 -0.0818
  261MOL0     C35930   7.857   5.044   0.986  0.2902 -0.3375  0.3112
  261MOL0     N35931   7.957   5.803   1.226  0.2939  0.9106  0.6405
  261MOL0     N35932   8.059   5.837   1.300  1.2691 -0.2148  1.0978
  261MOL0     C35933   9.337   6.363   1.400 -0.7744 -0.4865  0.1194
  261MOL0     C35934   9.468   6.321   1.371 -0.5158 -1.0468  0.7352
  261MOL0     C35935   9.830   6.033   1.361 -0.2558 -0.1911 -0.3752
  261MOL0     C35936   9.875   6.080   1.239 -0.4271 -0.4182 -0.0561
  261MOL0     C35937  10.009   6.051   1.202  0.2816  0.5280  0.9935
  261MOL0     C35938  10.096   5.984   1.281  0.7432 -0.0709  0.3117
  261MOL0     O35939  10.223   5.961   1.238  0.1761 -0.0493 -0.1645
  261MOL0     C35940  10.303   5.856   1.290  0.0685  0.0990 -0.1918
  261MOL0     C35941  10.409   5.835   1.192 -0.1202  0.7243  0.8250
  261MOL0     C35942  10.522   5.935   1.210 -0.1600  0.4646  0.5103
  261MOL0     C35943  10.591   5.917   1.077 -0.0764 -0.5197  0.4337
  261MOL0     C35944  10.721   5.970   1.077 -0.1327  0.1648  0.1939
  261MOL0     C35945  10.837   6.014   1.070 -0.3933 -0.5160  0.5909
  261MOL0     C35946  10.050   5.946   1.410 -0.2865  0.4158  0.1125
  261MOL0     C35947   9.919   5.972   1.453  0.8972  0.3296  0.3062
  261MOL0     C35948   9.882   5.955   1.595 -0.5359 -0.4214 -1.0629
  261MOL0     H35949   9.420   5.998   1.321 -0.0074  0.0751 -0.3337
  261MOL0     H35950   9.172   6.074   1.363 -1.9895  1.6016  1.0572
  261MOL0     H35951   9.051   6.236   1.226  2.9113 -0.5841  1.3909
  261MOL0     H35952   8.940   6.369   1.284  0.0835  1.6525  5.0019
  261MOL0     H35953   8.976   6.068   1.384 -0.0366  0.1561 -0.2350
  261MOL0     H35954   8.906   6.198   1.485  0.5504 -1.9681  0.2987
  261MOL0     H35955   8.745   6.230   1.300  1.9886  0.6917 -0.2591
  261MOL0     H35956   8.813   6.106   1.205 -0.1932 -1.5319  0.0331
  261MOL0     H35957   8.757   5.951   1.405  0.3387  0.3593 -1.6057
  261MOL0     H35958   8.676   6.086   1.470 -1.0163  0.8431 -0.0221
  261MOL0     H35959   8.616   5.949   1.191 -2.5971 -3.9058  0.7107
  261MOL0     H35960   8.526   6.087   1.270 -2.1954 -0.4486  2.2952
  261MOL0     H35961   8.537   5.780   1.337 -0.5959 -1.0938 -2.9703
  261MOL0     H35962   8.483   5.905   1.456 -1.0680  4.0899 -1.6575
  261MOL0     H35963   8.369   5.880   1.184  0.8699  0.8068  0.1246
  261MOL0     H35964   8.294   5.971   1.317 -0.7512 -0.5805 -0.2752
  261MOL0     H35965   8.338   5.662   1.319  0.0561 -0.1118  0.3424
  261MOL0     H35966   8.264   5.751   1.446  0.5576 -0.0562 -0.5732
  261MOL0     H35967   8.175   5.569   1.160  2.5838  2.4449 -0.8394
  261MOL0     H35968   7.960   5.581   0.967  0.2163  1.7161 -0.5565
  261MOL0     H35969   7.817   5.659   1.033 -1.1223 -0.8810 -1.2835
  261MOL0     H35970   7.955   5.416   1.160  0.6275  1.7801  0.1836
  261MOL0     H35971   7.804   5.503   1.213 -0.5403  0.9317 -1.4829
  261MOL0     H35972   7.736   5.302   1.114 -1.2762 -1.6766 -2.5004
  261MOL0     H35973   7.676   5.434   1.014 -0.3923 -1.0166  1.0116
  261MOL0     H35974   7.752   5.260   0.875  0.4588 -0.7172  0.3034
  261MOL0     H35975   7.842   5.400   0.843 -0.5663  2.0943  2.7847
  261MOL0     H35976   8.157   5.167   1.049  1.0272 -1.0754  0.7787
  261MOL0     H35977   8.316   4.864   1.053 -1.2941 -0.7608 -0.3628
  261MOL0     H35978   8.253   4.884   1.216  1.8078 -1.1882 -0.0542
  261MOL0     H35979   8.307   5.026   1.119 -0.5203  0.6904 -1.2774
  261MOL0     H35980   8.140   4.495   0.930 -0.5292  2.2218  1.1997
  261MOL0     H35981   8.128   4.262   0.856 -2.3929 -0.3759 -1.9192
  261MOL0     H35982   7.745   4.016   0.859 -0.7439  1.5990  0.9209
  261MOL0     H35983   7.801   4.134   0.739 -1.1460 -0.7851 -0.6341
  261MOL0     H35984   7.823   3.929   0.621  0.8039 -4.6824  0.3189
  261MOL0     H35985   7.981   3.985   0.656  0.9825 -0.5716  1.0936
  261MOL0     H35986   7.896   3.736   0.674 -1.0662  0.5966  1.1473
  261MOL0     H35987   7.824   3.784   0.826 -2.6042  1.9025 -2.0070
  261MOL0     H35988   8.082   3.880   0.866 -1.3530  0.3944  0.1499
  261MOL0     H35989   8.118   3.774   0.745 -0.9013 -2.3918 -0.3397
  261MOL0     H35990   7.997   3.708   1.018  1.6923 -1.1577  0.9050
  261MOL0     H35991   7.991   3.591   0.877 -2.1184  0.6442  1.1246
  261MOL0     H35992   8.228   3.589   0.858  0.0854 -3.1872  1.0376
  261MOL0     H35993   8.182   3.561   1.029 -2.3399 -0.7821 -1.1306
  261MOL0     H35994   8.284   3.762   1.094  0.1532 -3.9927  0.9003
  261MOL0     H35995   8.261   3.835   0.927 -3.5058  0.8711  1.7112
  261MOL0     H35996   8.508   3.780   1.001  2.1390 -2.5975  0.9932
  261MOL0     H35997   8.455   3.673   0.863  0.5805 -0.8418 -0.2464
  261MOL0     H35998   7.736   4.226   1.034 -0.4405  4.4094  0.5135
  261MOL0     H35999   7.748   4.438   1.114 -1.2323  0.6775 -1.3044
  261MOL0     H36000   7.799   4.848   0.995 -0.8722 -0.6749  3.1251
  261MOL0     H36001   7.756   5.065   0.953  0.6298 -0.0749 -0.5915
  261MOL0     H36002   9.306   6.464   1.424 -0.2925 -0.8245  2.3572
  261MOL0     H36003   9.555   6.385   1.374 -1.2014 -0.0218 -0.2346
  261MOL0     H36004   9.812   6.141   1.176 -0.5362  3.0443  3.0315
  261MOL0     H36005  10.042   6.077   1.102  1.0255 -2.8013  0.2503
  261MOL0     H36006  10.342   5.880   1.390 -1.7964 -0.6128  0.7436
  261MOL0     H36007  10.246   5.764   1.303  0.2506  0.0563  0.3270
  261MOL0     H36008  10.368   5.840   1.091  2.1657 -1.9387 -0.3819
  261MOL0     H36009  10.447   5.733   1.200  0.8377  1.0977  1.3090
  261MOL0     H36010  10.487   6.035   1.234 -0.4204  0.6505 -0.5721
  261MOL0     H36011  10.594   5.903   1.285 -1.1060 -0.4846  1.0437
  261MOL0     H36012  10.531   5.975   1.007  1.7835  1.5281  0.4550
  261MOL0     H36013  10.620   5.813   1.057  4.6351  0.0078  3.2096
  261MOL0     H36014  10.929   6.067   1.055 -0.7959 -0.6149 -3.2284
  261MOL0     H36015  10.114   5.895   1.482 -0.9599  0.0205  0.4382
  261MOL0     H36016   9.963   5.921   1.660 -0.5243  2.7399  0.7890
  261MOL0     H36017   9.861   6.055   1.635  2.7160  0.8306 -2.1536
  261MOL0     H36018   9.802   5.881   1.605  1.0799 -2.1938 -0.7092
  262MOL0     O36019   4.492   9.052   5.914 -0.1374 -0.1093  0.0054
  262MOL0     C36020   4.440   9.155   5.951  0.0140 -0.8304 -0.3433
  262MOL0     O36021   4.483   9.228   6.061  0.4990  0.8066  0.2567
  262MOL0     C36022   4.539   9.158   6.168 -0.9915 -0.7716  0.5423
  262MOL0     C36023   4.654   9.213   6.234  0.1408  0.0309 -0.5465
  262MOL0     C36024   4.719   9.138   6.334 -0.2745 -1.2008 -0.1033
  262MOL0     C36025   4.673   9.006   6.369  0.3861 -1.4281 -0.4852
  262MOL0     O36026   4.744   8.935   6.462 -0.0220 -0.1768  0.2023
  262MOL0     C36027   4.883   8.963   6.489  0.6217 -0.6276  0.0776
  262MOL0     C36028   4.930   8.848   6.582 -0.1241 -0.0964  0.0351
  262MOL0     C36029   5.080   8.840   6.584  0.3579 -1.0868  0.4158
  262MOL0     C36030   5.141   8.994   6.618  0.5409 -0.2711  0.1430
  262MOL0     C36031   5.289   8.978   6.656  0.7836  0.2735 -0.0168
  262MOL0     C36032   5.343   9.098   6.728 -0.3111 -0.4538 -0.3607
  262MOL0     C36033   5.489   9.073   6.775  0.4773  0.6137  0.3451
  262MOL0     C36034   5.573   9.042   6.654  0.3835  0.3301  0.6347
  262MOL0     N36035   5.703   9.074   6.688 -0.8810  0.0371 -0.0804
  262MOL0     C36036   5.789   9.015   6.780  0.6702  0.7379 -0.2504
  262MOL0     C36037   5.909   9.062   6.752 -0.5538 -0.4958  0.7348
  262MOL0     C36038   6.034   9.018   6.828  0.7018  0.3283 -0.3296
  262MOL0     C36039   6.048   9.096   6.951 -0.2060 -0.1595 -0.8432
  262MOL0     C36040   6.073   9.245   6.913 -0.2352 -0.0219  0.0736
  262MOL0     C36041   6.133   9.332   7.026  0.4978  0.1953  0.2826
  262MOL0     O36042   6.252   9.272   7.074 -0.4192 -0.2814 -0.7869
  262MOL0     C36043   6.312   9.343   7.171  0.0139 -1.0062 -0.0906
  262MOL0     C36044   6.439   9.299   7.189  0.0483  0.3605 -0.3099
  262MOL0     C36045   6.536   9.372   7.273  0.3342  0.0183  0.1646
  262MOL0     C36046   6.674   9.308   7.281 -0.6728 -1.0447  0.4409
  262MOL0     C36047   6.487   9.496   7.331 -0.3404  0.5691  0.4777
  262MOL0     C36048   6.577   9.579   7.414  0.5496  0.7192 -0.0616
  262MOL0     O36049   6.533   9.705   7.428 -0.0401 -0.1650  0.4530
  262MOL0     C36050   6.603   9.804   7.501  0.0729 -0.7023  0.4065
  262MOL0     C36051   6.740   9.797   7.537 -0.4829  0.4801 -0.3340
  262MOL0     C36052   6.796   9.902   7.613  0.3701  0.7173 -0.1840
  262MOL0     C36053   6.715  10.001   7.668 -0.5297  0.3104 -0.0701
  262MOL0     O36054   6.767  10.097   7.756  0.2417 -0.2529  0.3559
  262MOL0     C36055   6.888  10.082   7.831  0.4415  0.1028  0.7035
  262MOL0     C36056   6.894  10.196   7.931 -0.2154 -0.2349 -0.5499
  262MOL0     C36057   7.012  10.169   8.018 -0.1856  0.3777 -0.8481
  262MOL0     C36058   7.061  10.298   8.089  0.6631  0.4840  0.1176
  262MOL0     C36059   7.179  10.278   8.181  0.2553  0.5469 -0.3412
  262MOL0     C36060   7.231  10.423   8.222 -0.6375 -0.1874  0.0817
  262MOL0     C36061   7.133  10.506   8.301 -0.0738  1.0655 -0.3995
  262MOL0     C36062   7.160  10.498   8.453  0.1421  0.0321 -0.1342
  262MOL0    Cl36063   7.124  10.327   8.520  0.5256  0.2052 -0.0168
  262MOL0     C36064   6.588  10.012   7.624  0.4199 -0.5697 -0.6543
  262MOL0     C36065   6.526   9.917   7.538 -0.0390  0.0199 -1.0226
  262MOL0     O36066   6.670   9.531   7.474  0.4567  0.9719  0.0513
  262MOL0     C36067   6.352   9.538   7.309 -0.3557  0.4409  0.5834
  262MOL0     C36068   6.266   9.464   7.225  0.3661  0.1088 -0.0583
  262MOL0     N36069   5.901   9.144   6.634  0.1955  0.5847 -0.2729
  262MOL0     N36070   5.777   9.152   6.601  0.4528 -0.8106  0.8695
  262MOL0     C36071   4.566   8.952   6.299  0.0403 -0.5197  0.1584
  262MOL0     C36072   4.492   9.033   6.204 -0.1255  0.0491 -0.2098
  262MOL0     C36073   4.339   9.219   5.849  0.1406  0.3336 -0.9409
  262MOL0     C36074   4.302   9.345   5.880  0.6306 -0.5130 -0.3899
  262MOL0     C36075   4.214   9.420   5.801 -0.6398  1.1618  0.4865
  262MOL0     C36076   4.161   9.371   5.678  0.2322 -0.9236 -0.4959
  262MOL0     O36077   4.103   9.467   5.599 -1.0584  0.0317  0.5362
  262MOL0     C36078   4.082   9.435   5.458  0.6636 -0.1233 -0.4729
  262MOL0     C36079   3.989   9.538   5.390 -0.5135 -0.1341 -0.4424
  262MOL0     C36080   3.876   9.591   5.478 -0.2262  0.1040 -0.8096
  262MOL0     C36081   3.761   9.493   5.475 -0.1226 -0.3924 -0.0553
  262MOL0     C36082   3.778   9.400   5.581  0.1761  0.6639  0.2121
  262MOL0     C36083   3.787   9.314   5.667 -0.1464 -0.2535  0.5343
  262MOL0     C36084   4.196   9.236   5.655 -0.1154 -0.6070  0.1363
  262MOL0     C36085   4.279   9.157   5.739 -0.2774  0.2741 -0.4227
  262MOL0     C36086   4.327   9.025   5.678  0.6787 -0.0197 -0.6576
  262MOL0     H36087   4.681   9.315   6.207 -2.0719  0.4324 -1.4965
  262MOL0     H36088   4.806   9.189   6.374  0.3681 -0.5987 -2.1850
  262MOL0     H36089   4.890   9.060   6.540 -3.1989 -0.8197  1.3201
  262MOL0     H36090   4.939   8.965   6.396  2.0112  1.6902  0.8816
  262MOL0     H36091   4.887   8.858   6.682  0.4160  0.0196  0.2548
  262MOL0     H36092   4.885   8.756   6.541 -1.6623 -0.3969  2.1891
  262MOL0     H36093   5.120   8.763   6.651  1.0650 -0.9937  0.1081
  262MOL0     H36094   5.107   8.809   6.483 -2.2216  1.6334 -1.2823
  262MOL0     H36095   5.110   9.056   6.533 -1.1910 -1.6114 -0.2708
  262MOL0     H36096   5.090   9.042   6.702  0.3730  0.0839 -0.1571
  262MOL0     H36097   5.339   8.975   6.559 -1.1399  2.1685 -1.1505
  262MOL0     H36098   5.309   8.890   6.718 -1.9582 -0.1869  0.3391
  262MOL0     H36099   5.346   9.191   6.670  2.0666  0.0671  0.5109
  262MOL0     H36100   5.286   9.114   6.820  3.1188 -0.6766  1.9368
  262MOL0     H36101   5.493   9.003   6.858 -1.0249  1.8928  1.5501
  262MOL0     H36102   5.519   9.172   6.811 -1.1356  1.2983 -0.1064
  262MOL0     H36103   5.559   8.938   6.623  3.1872 -0.1136  0.6368
  262MOL0     H36104   5.548   9.105   6.568  3.5821 -1.6734 -2.0081
  262MOL0     H36105   5.754   8.936   6.847  2.2606 -1.7155 -2.1381
  262MOL0     H36106   6.122   9.032   6.765  1.2342  1.6923  0.6781
  262MOL0     H36107   6.017   8.920   6.872 -2.3728  1.1251  0.5260
  262MOL0     H36108   5.967   9.078   7.023  2.8352 -1.8829  2.4787
  262MOL0     H36109   6.131   9.050   7.005 -1.6893 -0.6291  1.1531
  262MOL0     H36110   6.131   9.255   6.821 -0.3761 -1.9149 -0.2606
  262MOL0     H36111   5.972   9.274   6.885 -0.5551 -2.6830 -1.8653
  262MOL0     H36112   6.156   9.428   6.979  1.8292 -2.0209 -4.1196
  262MOL0     H36113   6.052   9.343   7.099 -0.3792  1.0008 -0.7744
  262MOL0     H36114   6.466   9.200   7.154 -0.5189  0.2323 -0.3999
  262MOL0     H36115   6.698   9.302   7.387 -2.5655 -1.1556  0.8958
  262MOL0     H36116   6.753   9.365   7.232 -4.1815  2.3964 -1.8190
  262MOL0     H36117   6.681   9.207   7.240  1.8180 -0.2578 -1.3436
  262MOL0     H36118   6.812   9.721   7.507 -0.3403 -0.4316  2.0967
  262MOL0     H36119   6.900   9.890   7.641  0.4464  1.4813 -0.1264
  262MOL0     H36120   6.873   9.986   7.880 -2.8665 -0.1745 -0.6058
  262MOL0     H36121   6.977  10.082   7.767 -0.8491 -1.3915 -1.1858
  262MOL0     H36122   6.903  10.295   7.884  1.8338  0.0101  0.2735
  262MOL0     H36123   6.801  10.196   7.989  0.1811 -2.1788  0.1679
  262MOL0     H36124   7.100  10.149   7.956 -0.8056 -0.4910 -1.4748
  262MOL0     H36125   7.005  10.090   8.093 -4.7155  1.0984 -0.2165
  262MOL0     H36126   6.969  10.338   8.133  0.2851  1.1267 -1.2044
  262MOL0     H36127   7.094  10.373   8.017  0.3357  0.6458  0.1344
  262MOL0     H36128   7.149  10.209   8.261  0.5903  0.7430 -0.0423
  262MOL0     H36129   7.264  10.229   8.131 -0.2338  0.6527 -1.2950
  262MOL0     H36130   7.249  10.489   8.137  2.8304  0.0704  0.8602
  262MOL0     H36131   7.325  10.421   8.278 -1.1863 -0.7490  1.0165
  262MOL0     H36132   7.030  10.475   8.278 -0.2589  1.3705 -0.0081
  262MOL0     H36133   7.148  10.610   8.271  1.3916  0.6866 -1.0504
  262MOL0     H36134   7.103  10.572   8.510  0.5736 -0.0775  0.4589
  262MOL0     H36135   7.265  10.525   8.468  0.1244 -0.5241  1.0989
  262MOL0     H36136   6.531  10.095   7.664  0.3528  0.0303 -1.9330
  262MOL0     H36137   6.422   9.926   7.506  0.1485  2.8035 -1.0850
  262MOL0     H36138   6.306   9.623   7.358 -0.4699  2.3263 -2.5288
  262MOL0     H36139   6.161   9.493   7.219 -0.1821 -1.8095 -0.1984
  262MOL0     H36140   4.539   8.848   6.315  0.4438 -0.5698  0.5247
  262MOL0     H36141   4.410   8.993   6.145 -0.0490  0.7897 -0.8322
  262MOL0     H36142   4.353   9.396   5.961 -0.2494 -0.8805  0.4180
  262MOL0     H36143   4.202   9.528   5.811  0.3805  1.3190  0.0809
  262MOL0     H36144   4.178   9.438   5.405  0.5148 -0.5608 -0.7671
  262MOL0     H36145   4.038   9.336   5.452 -2.2340  1.1340 -1.5662
  262MOL0     H36146   3.955   9.485   5.300  1.1852 -0.3919 -0.9662
  262MOL0     H36147   4.036   9.633   5.360 -2.1718  2.9211  5.2603
  262MOL0     H36148   3.915   9.621   5.576 -4.2745  0.3093  0.9246
  262MOL0     H36149   3.842   9.678   5.421 -0.2602 -0.1925 -1.2482
  262MOL0     H36150   3.765   9.440   5.379  1.2751 -1.8666  0.7547
  262MOL0     H36151   3.665   9.544   5.473 -0.3217 -0.3279  3.7166
  262MOL0     H36152   3.778   9.221   5.719 -0.9634 -1.6268 -1.9266
  262MOL0     H36153   4.167   9.195   5.558 -4.4601 -1.0183  1.3897
  262MOL0     H36154   4.256   8.998   5.599 -2.1747 -1.3640  2.1530
  262MOL0     H36155   4.427   9.038   5.636  0.0713 -0.8324 -2.4848
  262MOL0     H36156   4.316   8.950   5.757  0.1703 -0.5574 -1.2303
  263MOL0     O36157   5.648   0.786   4.138  0.5336 -0.5697  0.2318
  263MOL0     C36158   5.746   0.853   4.101  0.0436 -0.3622  1.7100
  263MOL0     O36159   5.828   0.828   3.999 -0.2419 -0.5712  0.3511
  263MOL0     C36160   5.807   0.710   3.930 -0.4212 -0.4485  0.7427
  263MOL0     C36161   5.706   0.683   3.841  0.5454 -1.0256 -0.1889
  263MOL0     C36162   5.694   0.564   3.766 -0.7620 -0.0234 -0.0201
  263MOL0     C36163   5.805   0.470   3.786  0.0528  0.0401  0.2255
  263MOL0     O36164   5.800   0.354   3.711 -0.5204 -0.4386 -0.9587
  263MOL0     C36165   5.838   0.239   3.790  0.4634  0.4843 -0.5948
  263MOL0     C36166   5.797   0.108   3.729  0.8434  0.2910  0.1971
  263MOL0     C36167   5.842   0.095   3.583  0.1878 -0.3450  0.4517
  263MOL0     C36168   5.999   0.097   3.559 -0.5212  0.2796  0.4993
  263MOL0     C36169   6.031   0.056   3.416 -0.6691  0.6356  0.0864
  263MOL0     C36170   6.186   0.060   3.400 -0.0586 -0.1025 -0.1750
  263MOL0     C36171   6.225   0.016   3.259 -0.2428  0.2364  0.3917
  263MOL0     C36172   6.324   0.119   3.196 -0.0542 -0.1979  0.2971
  263MOL0     N36173   6.366   0.065   3.062 -0.9741 -0.3352  0.5139
  263MOL0     C36174   6.293   0.076   2.952 -0.4158  0.3958  0.4198
  263MOL0     C36175   6.365   0.016   2.853 -0.4936 -1.1103 -0.2182
  263MOL0     C36176   6.343   0.006   2.704  0.0946 -0.7839  0.1896
  263MOL0     C36177   6.192  -0.017   2.652  0.3410 -0.7589  0.0575
  263MOL0     C36178   6.119  -0.141   2.726 -0.2966 -0.6409  0.4217
  263MOL0     C36179   5.976  -0.163   2.690 -0.3089  0.4918 -0.6263
  263MOL0     O36180   5.898  -0.047   2.725 -0.1751 -0.0993  0.1209
  263MOL0     C36181   5.762  -0.053   2.713  1.1670 -0.4828  0.6442
  263MOL0     C36182   5.693   0.068   2.740  0.8525  0.3005 -0.1249
  263MOL0     C36183   5.553   0.083   2.745 -0.6673 -0.1252 -0.5736
  263MOL0     C36184   5.494   0.221   2.781  0.3123  0.9685 -0.6766
  263MOL0     C36185   5.478  -0.030   2.728 -0.1625  0.6567 -0.8515
  263MOL0     C36186   5.326  -0.032   2.754 -0.2306 -0.0770  0.4753
  263MOL0     O36187   5.259   0.082   2.796 -0.1237 -0.0668  0.9682
  263MOL0     C36188   5.121   0.073   2.818 -0.1988  0.1717  0.1180
  263MOL0     C36189   5.073  -0.025   2.909 -0.0363  0.5629  0.1399
  263MOL0     C36190   4.932  -0.027   2.933 -0.9946  0.4131  0.4348
  263MOL0     C36191   4.845   0.053   2.853  0.5708 -0.1783 -0.4199
  263MOL0     O36192   4.714   0.050   2.877 -0.7438  0.7321  0.7670
  263MOL0     C36193   4.656   0.132   2.982 -1.2255 -0.8141 -0.0041
  263MOL0     C36194   4.507   0.159   2.941 -0.3401  0.9414 -0.9417
  263MOL0     C36195   4.448   0.295   2.983  0.2221 -0.0013  0.2748
  263MOL0     C36196   4.305   0.314   2.947  0.0805 -0.3309  0.4012
  263MOL0     C36197   4.253   0.457   2.978  0.0875  0.7865  0.3657
  263MOL0     C36198   4.116   0.500   2.910 -0.7305  0.1885 -0.5068
  263MOL0     C36199   4.066   0.627   2.990 -0.0768  0.3223  0.1639
  263MOL0     C36200   3.908   0.628   2.983  0.0175  0.0361  0.1535
  263MOL0    Cl36201   3.855   0.778   3.070 -0.0828  0.4786  0.0244
  263MOL0     C36202   4.890   0.136   2.750  0.4028 -0.4065 -0.3340
  263MOL0     C36203   5.029   0.149   2.739  0.1161 -0.4389 -0.4275
  263MOL0     O36204   5.273  -0.133   2.715  0.0493  0.8595 -0.2315
  263MOL0     C36205   5.546  -0.147   2.685  0.2730  0.4767 -0.1063
  263MOL0     C36206   5.683  -0.160   2.679 -0.1262 -0.0870  0.7333
  263MOL0     N36207   6.487  -0.016   2.915 -0.1192 -0.3122 -0.3577
  263MOL0     N36208   6.490   0.010   3.036  0.8920 -0.6534  0.1743
  263MOL0     C36209   5.914   0.495   3.866 -0.1381  0.6890 -0.7296
  263MOL0     C36210   5.923   0.615   3.931 -0.0239 -0.6516  0.2473
  263MOL0     C36211   5.784   0.978   4.178 -0.0732  0.6305 -0.5056
  263MOL0     C36212   5.920   1.015   4.191  0.1994  0.4196 -0.5929
  263MOL0     C36213   5.960   1.124   4.271 -0.0913  0.4324  0.6438
  263MOL0     C36214   5.865   1.204   4.335 -0.6132 -0.2760 -0.2676
  263MOL0     O36215   5.902   1.302   4.421 -0.1663 -0.7381 -0.1236
  263MOL0     C36216   5.797   1.374   4.491 -0.1983 -0.2756  0.1939
  263MOL0     C36217   5.858   1.453   4.604 -0.3823  1.1364  0.2351
  263MOL0     C36218   5.944   1.571   4.555 -0.4771 -0.2614 -0.2668
  263MOL0     C36219   5.874   1.682   4.473 -0.1096  0.0049 -0.4138
  263MOL0     C36220   5.962   1.797   4.467  0.2141  0.0010  0.1779
  263MOL0     C36221   6.018   1.901   4.454  0.0914  0.3222 -0.3607
  263MOL0     C36222   5.729   1.157   4.322 -0.5861  0.2522 -0.1123
  263MOL0     C36223   5.685   1.049   4.244 -0.4158  0.7745 -0.2382
  263MOL0     C36224   5.539   1.014   4.249  0.5293  0.4533 -0.5529
  263MOL0     H36225   5.613   0.740   3.839 -0.7931 -3.0546  0.7178
  263MOL0     H36226   5.609   0.548   3.701 -0.9343 -2.9432  0.8024
  263MOL0     H36227   5.791   0.235   3.889  0.1739 -3.2147 -0.7510
  263MOL0     H36228   5.946   0.231   3.803  0.5643  0.9377 -1.1123
  263MOL0     H36229   5.806   0.024   3.798 -0.5139 -1.0352 -1.1369
  263MOL0     H36230   5.688   0.112   3.726  0.8320  4.1062  0.5963
  263MOL0     H36231   5.791   0.006   3.545 -0.7787  0.6230 -0.5994
  263MOL0     H36232   5.797   0.164   3.512 -1.9778  0.1369  2.1958
  263MOL0     H36233   6.043   0.192   3.589  0.8961 -0.5374  1.1217
  263MOL0     H36234   6.041   0.015   3.618 -1.1046 -0.5755 -0.2399
  263MOL0     H36235   5.993   0.120   3.336  1.2232 -1.2007 -2.4946
  263MOL0     H36236   6.003  -0.048   3.397  2.3226  0.0483 -2.0014
  263MOL0     H36237   6.214   0.163   3.424  1.0145 -0.8646  2.1473
  263MOL0     H36238   6.238  -0.011   3.464 -0.9378 -1.7024 -1.1684
  263MOL0     H36239   6.138   0.006   3.193 -1.2389  1.2962  1.4733
  263MOL0     H36240   6.273  -0.081   3.271 -0.4849  0.1584  0.7343
  263MOL0     H36241   6.275   0.216   3.187 -1.2408 -0.8338 -0.4039
  263MOL0     H36242   6.414   0.122   3.258  1.5784 -4.3631 -1.4537
  263MOL0     H36243   6.194   0.121   2.948 -0.0650  1.1360 -0.4484
  263MOL0     H36244   6.407  -0.079   2.678  1.9805  0.3674  0.8321
  263MOL0     H36245   6.382   0.095   2.655 -2.9014  0.7215  0.3399
  263MOL0     H36246   6.133   0.072   2.677 -3.4114 -2.8338 -0.7905
  263MOL0     H36247   6.197  -0.033   2.544 -0.0221 -0.3203 -0.0297
  263MOL0     H36248   6.169  -0.236   2.707  0.3466 -0.1164 -0.5980
  263MOL0     H36249   6.119  -0.114   2.832 -0.1427 -1.0494  0.5265
  263MOL0     H36250   5.964  -0.172   2.581  0.9374 -1.3704 -0.6398
  263MOL0     H36251   5.933  -0.254   2.733  0.1619  0.6810  0.2579
  263MOL0     H36252   5.766   0.145   2.761  1.1782  0.1984 -0.8380
  263MOL0     H36253   5.582   0.284   2.794  0.0312  1.2656 -0.1574
  263MOL0     H36254   5.433   0.221   2.872 -1.2140  0.3060 -1.6622
  263MOL0     H36255   5.441   0.268   2.698 -1.9328  2.6107  1.5166
  263MOL0     H36256   5.146  -0.086   2.960 -0.4427 -0.4007 -0.4156
  263MOL0     H36257   4.883  -0.090   3.007 -0.4267 -1.3784 -0.6440
  263MOL0     H36258   4.663   0.080   3.078 -2.4265  0.7610  1.0063
  263MOL0     H36259   4.708   0.227   2.995 -1.7800 -0.4334 -0.5432
  263MOL0     H36260   4.507   0.152   2.832 -1.4407 -4.1109 -0.8316
  263MOL0     H36261   4.441   0.081   2.979  1.5818 -0.3499 -0.1193
  263MOL0     H36262   4.505   0.373   2.931 -0.8653 -0.2151 -1.2997
  263MOL0     H36263   4.454   0.310   3.092  1.4829  1.2894  0.0632
  263MOL0     H36264   4.238   0.248   3.002 -0.2542 -2.4351 -2.3358
  263MOL0     H36265   4.282   0.288   2.843 -0.3001  1.1281  0.0973
  263MOL0     H36266   4.240   0.459   3.087  0.3689 -1.4518  0.5031
  263MOL0     H36267   4.330   0.526   2.943  1.0289 -1.0008 -1.2899
  263MOL0     H36268   4.048   0.419   2.938  1.2046 -0.4385  2.9260
  263MOL0     H36269   4.126   0.529   2.805  0.5458  1.9370  0.0601
  263MOL0     H36270   4.113   0.718   2.952  0.1747  0.1817  0.1340
  263MOL0     H36271   4.102   0.615   3.092  1.5983 -0.4557 -0.4832
  263MOL0     H36272   3.859   0.543   3.031 -1.7616  2.0561  2.1409
  263MOL0     H36273   3.895   0.628   2.874  1.9842 -1.9039 -0.1601
  263MOL0     H36274   4.815   0.190   2.693  0.0002 -1.5813 -0.9450
  263MOL0     H36275   5.064   0.221   2.665  2.8187 -0.3334  0.8504
  263MOL0     H36276   5.481  -0.233   2.678  0.3790  0.1892  1.7538
  263MOL0     H36277   5.719  -0.260   2.656 -0.0613  0.4038 -1.5634
  263MOL0     H36278   5.992   0.422   3.884  0.0646  1.2836  1.0880
  263MOL0     H36279   6.014   0.641   3.983 -1.0554 -1.4055  2.5295
  263MOL0     H36280   5.991   0.950   4.141 -2.5406 -1.3465 -2.5197
  263MOL0     H36281   6.067   1.135   4.291 -0.3385 -0.4332  2.6903
  263MOL0     H36282   5.738   1.428   4.416 -1.3501 -2.8527 -0.8925
  263MOL0     H36283   5.735   1.293   4.532  0.3682  0.0207  1.6600
  263MOL0     H36284   5.918   1.385   4.664  0.7471 -2.4304 -4.3337
  263MOL0     H36285   5.780   1.500   4.664  0.1960  1.2328  0.9199
  263MOL0     H36286   5.982   1.616   4.647  1.9693 -0.3052 -1.1896
  263MOL0     H36287   6.026   1.520   4.503  1.8382  2.0224  0.9229
  263MOL0     H36288   5.796   1.722   4.538  0.1244 -0.9646  0.5013
  263MOL0     H36289   5.833   1.654   4.376 -1.2445  1.7081 -0.4585
  263MOL0     H36290   6.061   1.998   4.448  0.8396  0.1807  1.8120
  263MOL0     H36291   5.648   1.203   4.376  1.2207 -0.2244  3.2479
  263MOL0     H36292   5.521   0.930   4.317  2.6633  1.1766  0.9890
  263MOL0     H36293   5.479   1.096   4.289 -0.5146 -0.7447  0.4224
  263MOL0     H36294   5.496   0.998   4.149 -1.2692  0.3045  0.2139
  264MOL0     O36295  10.052   7.174   6.456  0.2035 -0.4396  0.0678
  264MOL0     C36296   9.950   7.177   6.390  0.3342  0.4411  0.0466
  264MOL0     O36297   9.933   7.134   6.260 -0.2395 -0.4608  0.8224
  264MOL0     C36298  10.039   7.086   6.184 -0.5524 -0.7754 -0.1302
  264MOL0     C36299  10.078   7.172   6.073 -0.2113  0.6711 -1.0918
  264MOL0     C36300  10.185   7.137   5.998 -0.8872  0.2618 -0.2093
  264MOL0     C36301  10.262   7.023   6.027 -0.5752  0.4285 -0.1265
  264MOL0     O36302  10.351   6.981   5.938  0.1863  0.0788 -0.3703
  264MOL0     C36303  10.432   6.869   5.970 -0.9080 -0.5361  0.3215
  264MOL0     C36304  10.529   6.844   5.856  0.4607 -0.5554 -0.6317
  264MOL0     C36305  10.602   6.977   5.825  0.1320 -0.6620  0.4712
  264MOL0     C36306  10.690   6.963   5.699  0.3523  0.1228  0.1484
  264MOL0     C36307  10.826   6.897   5.733  0.4426 -0.4605 -0.4943
  264MOL0     C36308  10.925   6.893   5.613  0.2082 -0.4848  0.8191
  264MOL0     C36309  11.051   6.811   5.645  0.0186  0.3465 -0.0824
  264MOL0     C36310  11.138   6.798   5.517 -0.1037  0.4044  0.8550
  264MOL0     N36311  11.278   6.744   5.532  0.2495 -0.3679 -0.4491
  264MOL0     C36312  11.376   6.744   5.430  0.3475  0.1705 -0.1028
  264MOL0     C36313  11.483   6.675   5.484  0.6059  0.2439  0.0008
  264MOL0     C36314  11.620   6.638   5.430 -0.5717  0.5981  0.1493
  264MOL0     C36315  11.727   6.668   5.532  0.1132 -0.7838  0.6717
  264MOL0     C36316  11.877   6.677   5.491 -0.5394  0.3664  0.1445
  264MOL0     C36317  11.940   6.534   5.483 -0.4389 -0.1704 -0.3514
  264MOL0     O36318  11.903   6.482   5.355 -0.0461 -0.3702  0.1800
  264MOL0     C36319  11.974   6.491   5.243 -0.4126 -0.2203  0.0970
  264MOL0     C36320  11.898   6.495   5.127 -0.8236  1.0583  0.9280
  264MOL0     C36321  11.957   6.509   5.004 -0.1586 -0.1534  0.6330
  264MOL0     C36322  11.874   6.493   4.877 -0.0265 -0.2559 -1.7757
  264MOL0     C36323  12.103   6.526   4.988  0.5894 -0.0621 -0.2772
  264MOL0     C36324  12.176   6.551   4.858  0.1263  0.5083 -0.8464
  264MOL0     O36325  12.308   6.591   4.865  0.6446  0.1628  0.6113
  264MOL0     C36326  12.369   6.634   4.748 -0.3726 -0.4808 -0.2034
  264MOL0     C36327  12.505   6.599   4.732  0.2074  1.0315  0.0347
  264MOL0     C36328  12.578   6.653   4.623  0.0852 -0.3054  0.4305
  264MOL0     C36329  12.508   6.735   4.531  0.4749 -0.3770 -0.4053
  264MOL0     O36330  12.573   6.763   4.412  0.0395  0.2113 -0.0556
  264MOL0     C36331  12.501   6.845   4.313  0.1820  0.1007 -0.1159
  264MOL0     C36332  12.606   6.895   4.208 -0.9735  0.8729 -0.2593
  264MOL0     C36333  12.655   6.762   4.145 -0.1493  0.0970 -0.1568
  264MOL0     C36334  12.734   6.791   4.018  0.5245 -0.7644  0.1001
  264MOL0     C36335  12.827   6.682   3.970 -0.0992 -0.4565  0.2015
  264MOL0     C36336  12.781   6.543   4.024  0.3268 -0.4805 -0.0753
  264MOL0     C36337  12.869   6.431   3.963 -0.0183  0.1240 -0.1167
  264MOL0     C36338  12.850   6.285   4.027  0.0993 -0.0875 -0.2151
  264MOL0    Cl36339  12.682   6.228   3.999  0.0252  0.0279 -0.1769
  264MOL0     C36340  12.378   6.776   4.555  0.1920  0.6323 -0.3963
  264MOL0     C36341  12.309   6.723   4.656  0.0323  0.3430 -0.5342
  264MOL0     O36342  12.117   6.526   4.757 -1.0105 -0.7116  0.8578
  264MOL0     C36343  12.173   6.519   5.111 -0.8926 -0.1098 -0.6815
  264MOL0     C36344  12.118   6.492   5.234  0.9682  0.8387  0.6034
  264MOL0     N36345  11.449   6.636   5.612 -0.1626  0.5692  0.3227
  264MOL0     N36346  11.326   6.680   5.641 -0.3595 -0.6811 -0.0529
  264MOL0     C36347  10.220   6.942   6.138  0.8990 -1.0324  0.3840
  264MOL0     C36348  10.109   6.973   6.216 -0.1523 -0.3658 -0.6818
  264MOL0     C36349   9.813   7.205   6.451 -0.1317 -0.1942 -0.1371
  264MOL0     C36350   9.718   7.251   6.365  1.1120  0.4275  0.0317
  264MOL0     C36351   9.587   7.275   6.405 -0.6378  0.8925  0.6775
  264MOL0     C36352   9.549   7.252   6.541 -0.0614  0.3458 -0.3297
  264MOL0     O36353   9.422   7.258   6.597 -0.5218  0.3417 -0.5921
  264MOL0     C36354   9.317   7.261   6.497 -0.2986 -0.0054 -0.7173
  264MOL0     C36355   9.181   7.229   6.548 -0.2184 -0.0717  0.4389
  264MOL0     C36356   9.077   7.211   6.434 -0.2899  0.2307 -0.0990
  264MOL0     C36357   8.938   7.197   6.502 -0.2527  0.5165 -0.7310
  264MOL0     C36358   8.840   7.128   6.414 -0.3164 -0.1889 -0.8957
  264MOL0     C36359   8.773   7.054   6.349 -0.8644 -0.0533  0.7474
  264MOL0     C36360   9.644   7.207   6.631 -0.2350  0.1760 -0.0615
  264MOL0     C36361   9.777   7.188   6.590  0.5703 -0.4424  0.6398
  264MOL0     C36362   9.872   7.148   6.694 -0.6618  0.3850  0.3949
  264MOL0     H36363  10.014   7.254   6.043  0.4525  0.4177 -3.4420
  264MOL0     H36364  10.207   7.201   5.913  3.0136  0.7389  0.9768
  264MOL0     H36365  10.371   6.781   5.993 -1.7780  0.1546  0.7183
  264MOL0     H36366  10.494   6.899   6.055  2.5978 -0.9132 -1.8956
  264MOL0     H36367  10.600   6.763   5.873  2.4885  1.4994  1.4816
  264MOL0     H36368  10.466   6.810   5.774  0.5353 -2.8979  0.1891
  264MOL0     H36369  10.534   7.061   5.809  0.2697 -0.6380 -0.0299
  264MOL0     H36370  10.675   7.008   5.900  1.4076  0.5044 -1.1720
  264MOL0     H36371  10.641   6.911   5.616  0.9238 -0.1329 -0.0421
  264MOL0     H36372  10.717   7.062   5.659 -3.7697  2.3339  2.2732
  264MOL0     H36373  10.821   6.793   5.767  1.9137 -0.1584  0.7474
  264MOL0     H36374  10.861   6.956   5.818 -0.7059  0.9687 -0.9857
  264MOL0     H36375  10.875   6.847   5.527 -0.7316  1.5142  0.2289
  264MOL0     H36376  10.957   6.995   5.590  1.1764 -1.3056 -1.8224
  264MOL0     H36377  11.022   6.717   5.693 -0.4313  1.1531  1.2851
  264MOL0     H36378  11.112   6.868   5.716  2.4630 -0.1005 -1.7173
  264MOL0     H36379  11.087   6.734   5.445  3.1875  0.6724 -1.9827
  264MOL0     H36380  11.138   6.900   5.477 -0.0204  0.6296  1.4290
  264MOL0     H36381  11.361   6.794   5.335 -0.0965  1.6398  0.6962
  264MOL0     H36382  11.643   6.690   5.337 -0.1088 -0.9214 -0.6074
  264MOL0     H36383  11.615   6.531   5.409 -1.7039  0.6877 -0.0760
  264MOL0     H36384  11.698   6.769   5.562  1.1934 -0.7598  1.7074
  264MOL0     H36385  11.715   6.606   5.622  0.1691 -2.6144 -0.5133
  264MOL0     H36386  11.883   6.739   5.401 -0.0297 -1.3485 -1.0320
  264MOL0     H36387  11.929   6.731   5.571  0.6227 -0.7623  0.1837
  264MOL0     H36388  12.048   6.537   5.497 -0.5667 -1.9669  1.4200
  264MOL0     H36389  11.893   6.467   5.555 -0.8658 -0.6090 -1.0296
  264MOL0     H36390  11.790   6.482   5.128 -0.6908 -0.2132  1.0587
  264MOL0     H36391  11.769   6.470   4.898  0.2525 -1.0353 -1.1639
  264MOL0     H36392  11.913   6.414   4.812  1.4779 -2.3760  1.4050
  264MOL0     H36393  11.873   6.581   4.812  1.2737  0.4794 -0.8389
  264MOL0     H36394  12.546   6.544   4.816 -0.6042  2.0830  1.1465
  264MOL0     H36395  12.682   6.628   4.603 -0.0051  1.6545 -3.4665
  264MOL0     H36396  12.418   6.780   4.283  0.5231 -1.4464  2.0179
  264MOL0     H36397  12.457   6.935   4.357  0.0036 -0.2655  0.4786
  264MOL0     H36398  12.555   6.956   4.133 -3.9074 -2.4190 -1.2431
  264MOL0     H36399  12.680   6.956   4.260  1.1721 -1.4807 -0.3856
  264MOL0     H36400  12.569   6.699   4.122  0.7188 -1.0719 -0.2441
  264MOL0     H36401  12.709   6.713   4.227  1.8474 -0.8215 -1.9176
  264MOL0     H36402  12.805   6.872   4.039 -0.5673 -0.2413  1.9347
  264MOL0     H36403  12.670   6.835   3.940 -2.9532 -1.4057  2.4012
  264MOL0     H36404  12.819   6.687   3.861 -1.6951  2.4861  0.3656
  264MOL0     H36405  12.928   6.705   4.006 -0.0037  2.0875 -1.4889
  264MOL0     H36406  12.675   6.529   4.003 -0.1426 -3.6462  3.4433
  264MOL0     H36407  12.796   6.541   4.132 -0.1587 -1.3697 -0.0227
  264MOL0     H36408  12.972   6.463   3.981 -0.1779  0.0004  1.0619
  264MOL0     H36409  12.856   6.414   3.856  0.1746  0.3790 -0.1810
  264MOL0     H36410  12.878   6.275   4.132 -2.2389  1.7627  0.6760
  264MOL0     H36411  12.923   6.224   3.973 -0.1925 -2.3452  1.7823
  264MOL0     H36412  12.330   6.851   4.491  0.6226 -0.2530 -1.8131
  264MOL0     H36413  12.203   6.749   4.662  0.6473  4.0356 -2.4548
  264MOL0     H36414  12.281   6.535   5.107 -1.0886  1.5575 -0.2580
  264MOL0     H36415  12.188   6.485   5.316  1.6884 -0.6769 -0.0878
  264MOL0     H36416  10.232   6.835   6.149 -2.3012 -1.6945 -1.3894
  264MOL0     H36417  10.082   6.916   6.304  0.7167  1.6348  0.9336
  264MOL0     H36418   9.747   7.272   6.262  0.1264  0.1263 -0.3137
  264MOL0     H36419   9.505   7.302   6.339 -0.0998 -0.2357 -0.4937
  264MOL0     H36420   9.306   7.364   6.463  2.2110  0.3599 -0.5848
  264MOL0     H36421   9.335   7.194   6.411  0.1677  0.7425 -1.2105
  264MOL0     H36422   9.160   7.306   6.622  2.1752  2.1409 -1.0321
  264MOL0     H36423   9.188   7.134   6.602 -2.3618  0.7422  2.2605
  264MOL0     H36424   9.079   7.292   6.360  0.3931  0.0979 -0.2257
  264MOL0     H36425   9.113   7.125   6.379  1.6856  1.4261 -0.7599
  264MOL0     H36426   8.917   7.304   6.510  1.5873  0.8660 -0.1599
  264MOL0     H36427   8.956   7.142   6.594  0.6257  0.0344 -1.1828
  264MOL0     H36428   8.720   6.978   6.297  1.3409 -1.3967  0.3191
  264MOL0     H36429   9.613   7.192   6.734  0.1803  3.2792  0.6099
  264MOL0     H36430   9.899   7.045   6.669 -1.8290  0.3212 -0.6824
  264MOL0     H36431   9.957   7.215   6.688  0.0953 -0.7053 -2.6988
  264MOL0     H36432   9.825   7.135   6.793  0.3036 -0.3695  0.7751
  265MOL0     O36433   5.510   6.829  10.037  0.4173 -0.4281 -0.7736
  265MOL0     C36434   5.554   6.912   9.956  0.4249 -1.1719  0.3709
  265MOL0     O36435   5.578   7.042   9.990 -0.0293 -0.0613 -0.2435
  265MOL0     C36436   5.556   7.095  10.115 -0.7256 -0.6362  0.4904
  265MOL0     C36437   5.501   7.220  10.123 -0.1810 -0.6658 -0.2131
  265MOL0     C36438   5.472   7.271  10.251 -0.7706  0.8456 -0.4341
  265MOL0     C36439   5.531   7.223  10.367  0.2409 -0.0110  1.2371
  265MOL0     O36440   5.514   7.291  10.483  0.1519 -0.2161 -0.4927
  265MOL0     C36441   5.395   7.251  10.557 -0.3335 -0.2690  0.7975
  265MOL0     C36442   5.386   7.300  10.697 -0.2469 -0.0504  0.8884
  265MOL0     C36443   5.262   7.243  10.769  0.5238  0.2361 -0.5150
  265MOL0     C36444   5.134   7.317  10.708  0.2309 -0.5692  0.0858
  265MOL0     C36445   5.120   7.463  10.747 -0.3124 -0.3322  0.9866
  265MOL0     C36446   4.990   7.527  10.687  0.9477  0.6699 -0.8660
  265MOL0     C36447   5.001   7.680  10.682  0.2199 -0.0623 -0.3225
  265MOL0     C36448   5.023   7.734  10.542 -0.9944 -0.4401 -0.1647
  265MOL0     N36449   5.157   7.698  10.487  0.0033  0.3183  0.8838
  265MOL0     C36450   5.261   7.792  10.473 -0.1757  0.4682  0.3618
  265MOL0     C36451   5.369   7.727  10.440  1.1979  0.5089 -0.5795
  265MOL0     C36452   5.509   7.787  10.440  0.4667 -0.5709  0.1191
  265MOL0     C36453   5.568   7.814  10.299 -0.1958  0.3732  0.0506
  265MOL0     C36454   5.577   7.683  10.212  0.0736  0.0176  0.1757
  265MOL0     C36455   5.667   7.579  10.279  0.3655 -0.3449 -0.2888
  265MOL0     O36456   5.806   7.627  10.298 -0.3028  0.4005 -0.6447
  265MOL0     C36457   5.896   7.548  10.369  0.1504 -0.0292 -0.1785
  265MOL0     C36458   6.005   7.607  10.425 -0.3630 -0.0523 -0.1253
  265MOL0     C36459   6.114   7.537  10.482 -0.3825  0.0596  0.1803
  265MOL0     C36460   6.252   7.609  10.507 -0.8106  0.1394 -0.1838
  265MOL0     C36461   6.091   7.398  10.499  0.0828  0.0806  0.7475
  265MOL0     C36462   6.192   7.316  10.563  0.8720  0.8643 -0.6690
  265MOL0     O36463   6.316   7.311  10.535 -0.5482  0.3735 -0.3534
  265MOL0     C36464   6.411   7.216  10.565  0.5506  0.4671 -0.0739
  265MOL0     C36465   6.397   7.094  10.630 -0.0919 -0.5596  0.0500
  265MOL0     C36466   6.502   7.017  10.658 -1.2282  0.1313  0.6682
  265MOL0     C36467   6.635   7.058  10.637 -1.0941  0.0726 -0.0302
  265MOL0     O36468   6.731   6.988  10.707 -0.0706 -0.5446 -0.4454
  265MOL0     C36469   6.868   7.022  10.680 -0.3121  0.5336  0.1637
  265MOL0     C36470   6.956   6.911  10.740  0.0253 -0.9533 -0.1248
  265MOL0     C36471   7.087   6.915  10.660 -0.7100 -0.1869 -0.2878
  265MOL0     C36472   7.183   6.816  10.725 -0.7453  0.0051  0.6997
  265MOL0     C36473   7.314   6.787  10.647 -1.1036  0.3944 -0.1471
  265MOL0     C36474   7.406   6.679  10.712  0.0446 -0.8791  0.1789
  265MOL0     C36475   7.466   6.724  10.847  0.1071  0.1540  0.7903
  265MOL0     C36476   7.591   6.638  10.880  0.1110 -0.0852  1.3862
  265MOL0    Cl36477   7.699   6.632  10.740  0.0841  0.1242  0.4398
  265MOL0     C36478   6.647   7.171  10.553 -0.3374  0.0967  0.6426
  265MOL0     C36479   6.538   7.253  10.531  0.3833 -0.5277  0.3501
  265MOL0     O36480   6.141   7.238  10.648 -0.4526 -0.7158  0.1869
  265MOL0     C36481   5.976   7.332  10.446 -0.7636 -0.4922 -0.0069
  265MOL0     C36482   5.880   7.406  10.380 -0.1456  0.1574  0.0351
  265MOL0     N36483   5.334   7.589  10.434 -0.4332 -0.4946  0.3014
  265MOL0     N36484   5.211   7.570  10.453  0.0663 -0.2215 -0.0009
  265MOL0     C36485   5.607   7.106  10.350 -0.0414 -0.1973 -0.1718
  265MOL0     C36486   5.619   7.039  10.229  0.1721 -0.2456 -0.5190
  265MOL0     C36487   5.594   6.881   9.815 -0.1026 -0.2665  0.0133
  265MOL0     C36488   5.655   6.980   9.735  0.1973  0.0336  0.4711
  265MOL0     C36489   5.700   6.956   9.600  0.0336 -1.1404 -0.3075
  265MOL0     C36490   5.666   6.845   9.536  0.1969 -0.0649  0.6442
  265MOL0     O36491   5.707   6.843   9.400  0.3376  0.2226 -0.3338
  265MOL0     C36492   5.666   6.728   9.322 -0.2426 -0.4572  0.0294
  265MOL0     C36493   5.733   6.720   9.179 -0.0971 -0.3131 -0.2207
  265MOL0     C36494   5.687   6.585   9.116 -0.0187 -0.2379  0.1488
  265MOL0     C36495   5.725   6.567   8.976  0.2094  0.1582 -0.0267
  265MOL0     C36496   5.666   6.441   8.934 -0.2755  0.2092 -1.0478
  265MOL0     C36497   5.602   6.346   8.896  0.0185  0.1926  0.0376
  265MOL0     C36498   5.610   6.745   9.605  1.0462 -0.3132  0.0112
  265MOL0     C36499   5.568   6.760   9.741  0.5274 -0.0818  0.1564
  265MOL0     C36500   5.510   6.642   9.812  0.1271  0.0172  0.1846
  265MOL0     H36501   5.470   7.278  10.037 -0.3330 -0.4349 -0.0043
  265MOL0     H36502   5.397   7.349  10.249 -1.1927  0.4739  0.6540
  265MOL0     H36503   5.385   7.143  10.554  1.8225 -0.5289  1.2099
  265MOL0     H36504   5.313   7.290  10.496  0.6553 -0.2352 -0.5652
  265MOL0     H36505   5.472   7.267  10.756 -0.1273  0.0838  0.7899
  265MOL0     H36506   5.383   7.410  10.694  0.0548 -0.0510  0.5228
  265MOL0     H36507   5.248   7.137  10.747  0.8624 -0.0352  0.5102
  265MOL0     H36508   5.270   7.263  10.877  0.7612  0.2249 -0.5295
  265MOL0     H36509   5.132   7.300  10.600  1.8340  0.5632 -0.1529
  265MOL0     H36510   5.049   7.264  10.754 -0.2521  0.1552  0.0400
  265MOL0     H36511   5.216   7.512  10.725 -0.7257 -0.6030 -1.8738
  265MOL0     H36512   5.117   7.472  10.856 -1.4763 -1.3559  1.0574
  265MOL0     H36513   4.963   7.486  10.589  0.7535 -2.5843  0.4540
  265MOL0     H36514   4.908   7.507  10.757  0.3805  3.9153 -0.4227
  265MOL0     H36515   5.092   7.709  10.736  0.1756  0.4549 -0.5207
  265MOL0     H36516   4.912   7.727  10.725 -0.9257 -1.2883 -1.2478
  265MOL0     H36517   4.951   7.720  10.461  0.9838  0.0615 -2.1050
  265MOL0     H36518   5.028   7.841  10.560 -2.5402 -0.2448 -0.7830
  265MOL0     H36519   5.239   7.897  10.489 -3.4453 -0.0169 -0.3174
  265MOL0     H36520   5.578   7.720  10.492  1.7296  0.9992  0.5295
  265MOL0     H36521   5.502   7.878  10.501 -2.5790  2.4232 -4.0726
  265MOL0     H36522   5.509   7.891  10.249 -0.0813  2.0402  2.3222
  265MOL0     H36523   5.666   7.858  10.319  0.2001  0.5238 -1.9618
  265MOL0     H36524   5.483   7.628  10.203  1.5315 -2.5914 -0.1750
  265MOL0     H36525   5.598   7.710  10.108 -0.0906 -0.5061  0.0030
  265MOL0     H36526   5.629   7.538  10.373  0.5232 -1.9813 -0.9014
  265MOL0     H36527   5.660   7.495  10.209 -0.9513  2.9165 -4.5464
  265MOL0     H36528   6.019   7.713  10.409 -2.5502  0.3436  0.2248
  265MOL0     H36529   6.291   7.579  10.605  0.7086  1.7327 -0.2523
  265MOL0     H36530   6.240   7.718  10.504 -1.9887 -0.0060 -1.5356
  265MOL0     H36531   6.325   7.581  10.431  0.0931  2.6786 -0.3352
  265MOL0     H36532   6.293   7.073  10.652 -0.4110  0.2958 -0.5800
  265MOL0     H36533   6.481   6.931  10.721 -0.5261  0.3957  1.2690
  265MOL0     H36534   6.882   7.029  10.572 -1.2468  1.7032  0.1042
  265MOL0     H36535   6.905   7.115  10.726 -0.5907  1.2951 -1.1082
  265MOL0     H36536   6.981   6.931  10.845 -2.1939  0.7954  0.1470
  265MOL0     H36537   6.905   6.815  10.738 -2.2705  0.1777  0.6374
  265MOL0     H36538   7.132   7.014  10.671  0.6105 -0.9095  1.3224
  265MOL0     H36539   7.079   6.884  10.556 -3.1160 -0.3152 -0.1185
  265MOL0     H36540   7.138   6.717  10.717  0.8007 -0.7773  1.1879
  265MOL0     H36541   7.195   6.844  10.830  2.9040 -1.9027  0.9654
  265MOL0     H36542   7.284   6.744  10.551  0.6072 -1.4021  0.0519
  265MOL0     H36543   7.380   6.871  10.627  0.4100 -1.3572 -3.3271
  265MOL0     H36544   7.484   6.663  10.638  0.5401 -2.2675  0.9663
  265MOL0     H36545   7.367   6.578  10.729  3.2337 -2.0395  1.4050
  265MOL0     H36546   7.377   6.708  10.908 -0.9288  0.4797 -0.5721
  265MOL0     H36547   7.492   6.830  10.857  0.8097 -0.0448  1.0858
  265MOL0     H36548   7.567   6.537  10.915 -0.6570 -0.8949 -1.2695
  265MOL0     H36549   7.640   6.678  10.970 -3.3190 -1.4020  4.0414
  265MOL0     H36550   6.745   7.212  10.532 -0.7994  1.4782  1.0731
  265MOL0     H36551   6.546   7.350  10.484 -1.6288  0.6036  2.1891
  265MOL0     H36552   5.955   7.226  10.455  1.6698 -1.0670 -0.2594
  265MOL0     H36553   5.790   7.357  10.341 -1.5662  2.4406  0.2683
  265MOL0     H36554   5.670   7.061  10.426 -0.5305  0.1153  0.4277
  265MOL0     H36555   5.681   6.951  10.213  3.1722  1.8231 -0.9346
  265MOL0     H36556   5.653   7.085   9.761 -1.8939  1.0486 -3.0597
  265MOL0     H36557   5.755   7.040   9.559  0.6128 -0.5811  1.5366
  265MOL0     H36558   5.697   6.637   9.375 -1.0464 -0.8457 -0.1436
  265MOL0     H36559   5.557   6.717   9.310 -0.1494 -1.4381 -0.0343
  265MOL0     H36560   5.842   6.722   9.188 -0.0544 -1.3023 -0.4174
  265MOL0     H36561   5.702   6.798   9.110 -0.8076  0.2784  0.7401
  265MOL0     H36562   5.726   6.492   9.158 -0.4357 -0.8449 -0.7618
  265MOL0     H36563   5.578   6.588   9.127 -0.1785 -3.1452  0.2004
  265MOL0     H36564   5.834   6.562   8.975  0.2395 -2.4879  2.3234
  265MOL0     H36565   5.700   6.644   8.903 -0.3131 -0.1850 -0.2222
  265MOL0     H36566   5.552   6.257   8.864  1.5264 -0.3524 -0.9058
  265MOL0     H36567   5.590   6.653   9.549  0.3760  1.1473 -2.3080
  265MOL0     H36568   5.583   6.610   9.886  1.2126  1.8906 -0.0025
  265MOL0     H36569   5.416   6.677   9.856  0.0646  0.4550 -0.2868
  265MOL0     H36570   5.486   6.554   9.751 -1.8415  1.1752 -0.8190
  266MOL0     O36571   8.938   5.450   4.807  0.0081  0.3500  0.5007
  266MOL0     C36572   8.909   5.513   4.708  0.1662 -0.5582 -0.0779
  266MOL0     O36573   8.990   5.540   4.608 -0.7175  0.4932  0.1390
  266MOL0     C36574   9.126   5.515   4.634  0.6128 -0.5013 -0.4330
  266MOL0     C36575   9.178   5.389   4.610 -0.2456 -0.0881 -0.8327
  266MOL0     C36576   9.303   5.356   4.660  0.2075  0.6767  0.1601
  266MOL0     C36577   9.380   5.446   4.732  0.1812  0.1190  0.4372
  266MOL0     O36578   9.501   5.404   4.788  0.5581  0.9017 -0.3891
  266MOL0     C36579   9.513   5.444   4.929 -0.8326 -0.4413  0.2207
  266MOL0     C36580   9.655   5.423   4.992  0.1962  0.0884  0.0259
  266MOL0     C36581   9.770   5.482   4.905  0.4247  0.3889  0.5985
  266MOL0     C36582   9.897   5.447   4.972 -0.1896  0.3816  1.3031
  266MOL0     C36583  10.011   5.504   4.883  0.1171 -0.1774  0.3900
  266MOL0     C36584  10.155   5.487   4.943 -0.5164 -0.3205 -0.2642
  266MOL0     C36585  10.255   5.497   4.825  0.2254 -0.7618 -0.7711
  266MOL0     C36586  10.400   5.503   4.858  0.2081  0.4000  0.7217
  266MOL0     N36587  10.434   5.619   4.948 -0.2748 -0.3422 -0.2471
  266MOL0     C36588  10.513   5.722   4.909 -0.1824  0.7227  0.1625
  266MOL0     C36589  10.522   5.806   5.020  0.3170 -0.0388  0.1713
  266MOL0     C36590  10.577   5.943   5.028  0.1999  0.3896  0.0512
  266MOL0     C36591  10.731   5.943   5.007 -0.4082 -0.0561  0.0650
  266MOL0     C36592  10.786   5.925   4.862  0.3069  0.0522  0.0253
  266MOL0     C36593  10.934   5.943   4.852  0.1223 -0.8073 -0.7972
  266MOL0     O36594  11.005   5.892   4.964  0.2415 -0.3031 -0.3536
  266MOL0     C36595  11.139   5.886   4.931  0.2787 -0.1716  0.4188
  266MOL0     C36596  11.197   5.772   4.875  0.4123 -0.3737  0.1035
  266MOL0     C36597  11.331   5.761   4.832  0.4252  0.2109  0.3906
  266MOL0     C36598  11.384   5.631   4.781 -0.0089  0.3054 -0.5729
  266MOL0     C36599  11.411   5.877   4.848 -0.2367  0.0910 -0.4390
  266MOL0     C36600  11.545   5.897   4.792 -0.2227 -0.1541  1.0680
  266MOL0     O36601  11.630   5.980   4.860  0.4363 -0.3700 -0.6868
  266MOL0     C36602  11.768   5.993   4.833 -0.2382  0.3605  0.4269
  266MOL0     C36603  11.816   6.120   4.816  0.4721 -0.5419  0.3127
  266MOL0     C36604  11.954   6.144   4.792 -0.4704 -1.0977  0.6970
  266MOL0     C36605  12.041   6.040   4.779  0.2867 -0.3114  0.3504
  266MOL0     O36606  12.181   6.055   4.767 -0.7430 -0.2142  0.5886
  266MOL0     C36607  12.235   6.189   4.766  0.2142 -0.5529  0.2804
  266MOL0     C36608  12.386   6.183   4.735 -0.1169 -0.6916  0.3242
  266MOL0     C36609  12.461   6.111   4.841  0.7269 -0.8800 -0.2560
  266MOL0     C36610  12.613   6.107   4.823 -0.1561 -1.0008  0.9126
  266MOL0     C36611  12.704   6.046   4.936 -0.3674 -0.4883  0.7806
  266MOL0     C36612  12.854   6.073   4.903 -0.0885 -0.2211 -0.1344
  266MOL0     C36613  12.946   6.024   5.019  0.6363 -0.0284  0.1165
  266MOL0     C36614  12.947   5.866   5.056 -0.7829 -0.0500 -0.2998
  266MOL0    Cl36615  13.001   5.768   4.925 -0.6313  0.6980  0.0935
  266MOL0     C36616  11.990   5.918   4.797 -0.1806 -0.8377  0.2045
  266MOL0     C36617  11.859   5.893   4.822 -0.0520  0.7716  0.1794
  266MOL0     O36618  11.577   5.824   4.696 -0.5414  0.3581  0.2540
  266MOL0     C36619  11.360   5.995   4.911  0.7619 -0.1364 -0.7796
  266MOL0     C36620  11.223   5.996   4.943 -0.4098  0.9177  0.0284
  266MOL0     N36621  10.455   5.747   5.128 -0.4917  0.3519  0.2817
  266MOL0     N36622  10.401   5.638   5.083  0.2193  1.3867 -0.1425
  266MOL0     C36623   9.324   5.572   4.745  0.2829  1.1951  0.3484
  266MOL0     C36624   9.195   5.608   4.699  1.2316 -0.8062 -0.0368
  266MOL0     C36625   8.772   5.561   4.702 -0.4029  0.4282  0.9973
  266MOL0     C36626   8.743   5.699   4.721 -0.1356  0.9366 -0.6521
  266MOL0     C36627   8.604   5.737   4.727  0.0179  0.2074  0.4009
  266MOL0     C36628   8.500   5.644   4.719 -0.3246 -0.3928  0.0754
  266MOL0     O36629   8.375   5.701   4.704 -0.5236 -0.2209  0.1600
  266MOL0     C36630   8.261   5.613   4.707  0.0515 -0.6290 -0.3181
  266MOL0     C36631   8.131   5.693   4.676 -0.0398  0.7580 -0.2438
  266MOL0     C36632   8.136   5.774   4.540  0.3280 -0.2487 -0.5134
  266MOL0     C36633   7.991   5.812   4.484  0.1214 -0.0321 -0.8013
  266MOL0     C36634   7.993   5.864   4.349  0.4694 -0.6919  0.1251
  266MOL0     C36635   7.994   5.883   4.226 -1.1631 -0.5440  0.5494
  266MOL0     C36636   8.532   5.505   4.704 -0.6748 -0.2051  0.4229
  266MOL0     C36637   8.668   5.464   4.695  0.2978  0.3228 -0.4698
  266MOL0     C36638   8.704   5.320   4.654  0.9212  0.2792 -0.2954
  266MOL0     H36639   9.118   5.315   4.557 -2.7227  0.2061  1.3490
  266MOL0     H36640   9.337   5.254   4.648  2.1663  1.0235  1.9692
  266MOL0     H36641   9.443   5.389   4.993 -0.3011 -2.1465 -0.6060
  266MOL0     H36642   9.484   5.549   4.945 -0.6759 -0.6050  1.7531
  266MOL0     H36643   9.645   5.459   5.095 -1.8667 -2.0119  0.6491
  266MOL0     H36644   9.680   5.316   4.992  1.9300  0.4662  0.3683
  266MOL0     H36645   9.769   5.435   4.807  0.8242 -0.3000  0.9147
  266MOL0     H36646   9.759   5.590   4.892  1.8463  0.3859 -0.8956
  266MOL0     H36647   9.893   5.497   5.070 -1.5725  1.6407  0.6395
  266MOL0     H36648   9.908   5.339   4.989 -0.5334  0.5258  2.5661
  266MOL0     H36649   9.990   5.610   4.864 -2.0486 -0.4542  0.9248
  266MOL0     H36650  10.009   5.458   4.784 -1.6433 -1.6727  1.0689
  266MOL0     H36651  10.178   5.571   5.010 -2.3049  1.2872 -1.5744
  266MOL0     H36652  10.168   5.395   5.001 -2.3306  1.6780  3.6958
  266MOL0     H36653  10.228   5.587   4.769  0.3141 -0.7068 -0.7247
  266MOL0     H36654  10.234   5.410   4.762 -0.3871 -0.5673 -0.8458
  266MOL0     H36655  10.416   5.402   4.899 -4.5087 -1.1361 -0.6047
  266MOL0     H36656  10.461   5.513   4.768  0.3092 -1.0202  0.5972
  266MOL0     H36657  10.541   5.738   4.805 -1.2223 -1.3183 -0.4774
  266MOL0     H36658  10.568   5.967   5.135  0.7546 -2.9817  0.9963
  266MOL0     H36659  10.528   6.015   4.962 -0.3179 -1.3727 -1.5962
  266MOL0     H36660  10.775   6.037   5.041 -1.3699  0.5405 -0.3013
  266MOL0     H36661  10.771   5.865   5.073 -0.7487  0.3112  0.7207
  266MOL0     H36662  10.770   5.821   4.833  0.3988 -0.1605  0.7048
  266MOL0     H36663  10.727   5.986   4.793 -1.7119  0.1784  1.7376
  266MOL0     H36664  10.972   5.900   4.759  1.9679 -0.5179 -0.2180
  266MOL0     H36665  10.965   6.047   4.848 -0.3766 -0.5111  1.5778
  266MOL0     H36666  11.130   5.688   4.858 -0.0717 -0.5863  2.6348
  266MOL0     H36667  11.492   5.621   4.797 -0.2238 -2.3693 -0.4348
  266MOL0     H36668  11.349   5.622   4.678  0.2846 -0.2527 -0.6260
  266MOL0     H36669  11.345   5.553   4.847  2.6537  1.4177  2.6247
  266MOL0     H36670  11.754   6.208   4.829  1.5746  0.6100 -1.6280
  266MOL0     H36671  11.990   6.245   4.779 -1.2656 -0.6322  1.9845
  266MOL0     H36672  12.172   6.252   4.703  1.6569 -0.0315 -0.6739
  266MOL0     H36673  12.232   6.238   4.864 -3.5251 -0.2114  0.1600
  266MOL0     H36674  12.405   6.135   4.639  0.8741 -2.7502  1.4984
  266MOL0     H36675  12.421   6.286   4.722 -1.4962 -0.3120 -0.7448
  266MOL0     H36676  12.413   6.013   4.852 -1.8041  0.5540  4.3134
  266MOL0     H36677  12.436   6.153   4.939  1.3983 -1.3788  0.1351
  266MOL0     H36678  12.645   6.211   4.812  0.3389 -1.1517  0.8830
  266MOL0     H36679  12.636   6.051   4.731  1.4675 -0.1857  0.7849
  266MOL0     H36680  12.685   6.090   5.034  0.6693  1.2761  0.2390
  266MOL0     H36681  12.681   5.940   4.928 -0.9638 -0.3379  0.4377
  266MOL0     H36682  12.867   6.182   4.898 -2.2407  0.0278 -1.8728
  266MOL0     H36683  12.880   6.035   4.804  2.3051 -0.6535  0.6057
  266MOL0     H36684  12.913   6.072   5.112  0.8684  0.1229  0.1228
  266MOL0     H36685  13.051   6.042   4.996  0.9069 -0.8921  0.6030
  266MOL0     H36686  12.846   5.828   5.079  0.4435 -4.1745 -0.8071
  266MOL0     H36687  13.017   5.851   5.138 -1.7243  1.4202  0.8208
  266MOL0     H36688  12.063   5.837   4.796 -0.5122 -1.1329 -0.1200
  266MOL0     H36689  11.825   5.790   4.826  0.4583  0.5084 -1.4552
  266MOL0     H36690  11.426   6.081   4.918  1.5218 -0.7406 -0.4575
  266MOL0     H36691  11.182   6.091   4.977  2.4493  2.7149 -1.1499
  266MOL0     H36692   9.394   5.647   4.780  1.8282  0.0650 -0.1924
  266MOL0     H36693   9.164   5.711   4.711 -0.2364 -1.3904  1.8039
  266MOL0     H36694   8.816   5.777   4.739 -0.5447  1.1830 -0.0132
  266MOL0     H36695   8.579   5.841   4.741 -2.7646 -0.4769  1.1969
  266MOL0     H36696   8.258   5.533   4.632 -2.4668  0.7892 -1.8822
  266MOL0     H36697   8.249   5.585   4.812  0.6533 -0.1810 -0.1251
  266MOL0     H36698   8.115   5.762   4.759 -2.7732  0.4942 -0.4554
  266MOL0     H36699   8.042   5.629   4.674  0.4958 -0.0002 -0.1775
  266MOL0     H36700   8.194   5.865   4.558  2.7772 -1.7711 -0.2678
  266MOL0     H36701   8.200   5.723   4.468  3.5256  0.2726  1.7359
  266MOL0     H36702   7.948   5.878   4.560  2.7127 -0.1818  0.9499
  266MOL0     H36703   7.922   5.728   4.475 -1.8178  1.3627  0.1581
  266MOL0     H36704   8.003   5.895   4.120 -0.3637 -0.9089  0.5650
  266MOL0     H36705   8.455   5.430   4.691  0.1280 -1.5427  2.7339
  266MOL0     H36706   8.729   5.252   4.736  0.2653 -2.4251 -2.2158
  266MOL0     H36707   8.613   5.285   4.604  1.0871 -1.0140  0.2657
  266MOL0     H36708   8.779   5.315   4.575  0.4780 -0.9157 -0.6688
  267MOL0     O36709  10.358   9.347  11.166 -0.2573 -0.1122  0.0451
  267MOL0     C36710  10.331   9.465  11.196 -1.2173  0.2907  0.1021
  267MOL0     O36711  10.388   9.580  11.148 -0.6810 -0.2048 -0.3723
  267MOL0     C36712  10.483   9.565  11.050 -0.7640  1.2148 -0.9577
  267MOL0     C36713  10.426   9.533  10.925 -0.7837 -0.3216  0.4888
  267MOL0     C36714  10.513   9.512  10.826 -0.5792 -0.3156  0.1800
  267MOL0     C36715  10.651   9.514  10.831  0.0441  0.2074  0.5384
  267MOL0     O36716  10.737   9.504  10.726  0.2663 -0.4051  0.5481
  267MOL0     C36717  10.703   9.562  10.601 -1.0605 -0.3827  0.2055
  267MOL0     C36718  10.827   9.573  10.521  0.1669 -0.6170 -0.3056
  267MOL0     C36719  10.792   9.615  10.381  0.2452 -0.0383 -0.1946
  267MOL0     C36720  10.912   9.623  10.280  0.5627  0.1129 -0.4416
  267MOL0     C36721  10.854   9.654  10.144  0.4195 -0.3652 -0.3408
  267MOL0     C36722  10.966   9.667  10.038  0.4390  0.0377  0.6296
  267MOL0     C36723  11.008   9.527  10.000  0.1547 -1.6855  0.5447
  267MOL0     C36724  11.110   9.532   9.885 -0.1398 -0.0445  0.1256
  267MOL0     N36725  11.145   9.391   9.854  0.2315  0.9215 -0.1448
  267MOL0     C36726  11.254   9.320   9.909  0.3278 -0.6178  0.3899
  267MOL0     C36727  11.273   9.217   9.821  0.6263 -0.3958 -0.8847
  267MOL0     C36728  11.379   9.115   9.837  0.0799  1.0529 -0.4450
  267MOL0     C36729  11.300   8.983   9.872  0.2549 -0.6512 -1.5975
  267MOL0     C36730  11.389   8.864   9.915 -0.3454 -0.4631  0.2404
  267MOL0     C36731  11.446   8.798   9.791  0.4459 -1.0543  0.3995
  267MOL0     O36732  11.551   8.864   9.719  0.2340  0.1169 -0.2763
  267MOL0     C36733  11.679   8.854   9.758 -0.4747 -0.6192 -0.0081
  267MOL0     C36734  11.781   8.899   9.669 -0.2909  0.5720 -0.0684
  267MOL0     C36735  11.917   8.893   9.697  0.9038 -0.3321  0.4549
  267MOL0     C36736  12.012   8.930   9.590 -0.3558  0.9410  0.0052
  267MOL0     C36737  11.959   8.840   9.825  0.5468  0.3656 -0.4856
  267MOL0     C36738  12.100   8.807   9.866  0.6810  0.2489  0.0559
  267MOL0     O36739  12.172   8.754   9.766 -0.4481  0.3666  0.3967
  267MOL0     C36740  12.285   8.685   9.809 -0.7415 -0.2051 -0.1405
  267MOL0     C36741  12.285   8.558   9.871 -0.7698 -0.0101  0.2370
  267MOL0     C36742  12.403   8.490   9.903 -1.3884 -0.2791  0.5589
  267MOL0     C36743  12.527   8.553   9.868 -0.3298  0.7667 -0.4254
  267MOL0     O36744  12.655   8.501   9.908  0.0167  0.2657 -0.0440
  267MOL0     C36745  12.655   8.362   9.920 -0.1942  0.5675 -0.9377
  267MOL0     C36746  12.793   8.312   9.877 -0.3961 -0.1473 -0.1079
  267MOL0     C36747  12.903   8.368   9.969  0.1989  0.2927 -0.4268
  267MOL0     C36748  13.044   8.317   9.948  0.5759  0.3859  0.4750
  267MOL0     C36749  13.122   8.332  10.073 -1.4108  0.1202 -0.1567
  267MOL0     C36750  13.275   8.333  10.036  1.2535  0.3748 -0.6229
  267MOL0     C36751  13.357   8.383  10.157  0.3891 -0.2831  0.2115
  267MOL0     C36752  13.508   8.379  10.134 -0.0694  0.4271 -0.0858
  267MOL0    Cl36753  13.554   8.209  10.115 -0.2133 -0.5763  0.3782
  267MOL0     C36754  12.522   8.668   9.792 -0.1921 -0.0089 -1.1688
  267MOL0     C36755  12.405   8.741   9.775  0.2197  0.0005  0.8994
  267MOL0     O36756  12.143   8.855   9.971 -0.4518  0.0016  0.0369
  267MOL0     C36757  11.860   8.793   9.917  0.9996 -0.4353  0.1142
  267MOL0     C36758  11.723   8.810   9.885  1.1114 -0.7320  0.4158
  267MOL0     N36759  11.198   9.219   9.707 -0.1186  0.0317 -0.0080
  267MOL0     N36760  11.123   9.317   9.737  0.5902  0.0355  0.0909
  267MOL0     C36761  10.703   9.526  10.965  0.3760  0.0495  0.6959
  267MOL0     C36762  10.620   9.557  11.072 -0.1851 -0.2680 -0.3019
  267MOL0     C36763  10.219   9.499  11.284 -0.6652  0.3029 -0.1012
  267MOL0     C36764  10.215   9.618  11.352  0.1847 -0.4580 -0.1642
  267MOL0     C36765  10.117   9.641  11.449  0.0726  0.2085 -0.2426
  267MOL0     C36766  10.014   9.560  11.467 -0.5706  0.5487 -1.2101
  267MOL0     O36767   9.925   9.597  11.570  0.7811  0.6832  0.1480
  267MOL0     C36768   9.798   9.531  11.589 -0.6362 -0.6238 -0.3464
  267MOL0     C36769   9.752   9.544  11.740  0.5804  0.7436  0.6825
  267MOL0     C36770   9.599   9.517  11.753 -0.3356  0.0580  0.0246
  267MOL0     C36771   9.536   9.539  11.895 -0.1207  0.3442 -0.9533
  267MOL0     C36772   9.530   9.408  11.970  0.7029 -0.6588  0.9279
  267MOL0     C36773   9.542   9.309  12.044 -0.0963  0.4306 -0.1874
  267MOL0     C36774  10.010   9.439  11.389  0.6217  0.3186  0.4176
  267MOL0     C36775  10.113   9.406  11.296  0.8675 -0.1021 -0.5805
  267MOL0     C36776  10.095   9.269  11.236  0.3983  0.4793 -0.2674
  267MOL0     H36777  10.318   9.525  10.914 -1.0585  2.1753  0.7959
  267MOL0     H36778  10.475   9.512  10.724  1.2931  5.0132 -0.8311
  267MOL0     H36779  10.671   9.663  10.630 -0.1210  0.5093 -1.6712
  267MOL0     H36780  10.624   9.512  10.544  0.2372  0.0998 -2.1803
  267MOL0     H36781  10.893   9.640  10.576 -1.8826 -0.7659  2.5478
  267MOL0     H36782  10.873   9.474  10.523 -3.9092 -2.7756 -1.9736
  267MOL0     H36783  10.718   9.542  10.348 -1.3804  2.1214 -1.6289
  267MOL0     H36784  10.733   9.707  10.389 -1.7776 -1.1256 -1.7122
  267MOL0     H36785  10.984   9.700  10.308  0.1646  1.0468 -1.8801
  267MOL0     H36786  10.958   9.523  10.286 -0.7620 -0.5090 -0.3526
  267MOL0     H36787  10.798   9.748  10.153  1.9742  0.8845 -2.7498
  267MOL0     H36788  10.782   9.575  10.119 -1.1323  0.4506  1.2833
  267MOL0     H36789  10.930   9.713   9.945 -0.5327 -2.2868 -0.2347
  267MOL0     H36790  11.051   9.726  10.072  1.5831 -1.2645  0.1138
  267MOL0     H36791  10.928   9.461   9.964  0.9782 -1.9972 -0.8139
  267MOL0     H36792  11.061   9.476  10.081 -1.6916 -1.7380  1.7805
  267MOL0     H36793  11.060   9.582   9.801  3.5114  1.8882 -1.1133
  267MOL0     H36794  11.198   9.589   9.916  0.8439 -0.2040 -2.1845
  267MOL0     H36795  11.310   9.340  10.000 -2.4373 -0.3985  2.1643
  267MOL0     H36796  11.439   9.138   9.925 -1.2072  1.7400  0.2859
  267MOL0     H36797  11.435   9.093   9.746  0.8176  1.0612  0.0004
  267MOL0     H36798  11.244   9.001   9.964  2.9244 -2.1204  0.4553
  267MOL0     H36799  11.237   8.952   9.788 -1.1486  0.8008 -1.1277
  267MOL0     H36800  11.469   8.901   9.979 -0.1658 -1.8173  0.8233
  267MOL0     H36801  11.333   8.785   9.965  0.5904 -0.2790  1.6319
  267MOL0     H36802  11.479   8.697   9.818  0.5630 -1.0690  0.1973
  267MOL0     H36803  11.364   8.775   9.722  1.3699 -4.1330  0.1788
  267MOL0     H36804  11.752   8.938   9.572 -1.3713  2.4908  0.9592
  267MOL0     H36805  11.966   9.004   9.524 -1.0531  0.8177  0.3494
  267MOL0     H36806  12.038   8.843   9.529 -2.6835 -0.2046  0.5389
  267MOL0     H36807  12.102   8.975   9.633  0.6132  0.3720 -1.3369
  267MOL0     H36808  12.196   8.505   9.902 -1.1797 -0.9408 -2.3556
  267MOL0     H36809  12.400   8.396   9.957  0.6705 -0.0655  1.1254
  267MOL0     H36810  12.626   8.336  10.022  3.0385  1.5712  0.3455
  267MOL0     H36811  12.582   8.310   9.857 -1.5649 -1.4582  2.0955
  267MOL0     H36812  12.799   8.203   9.886  2.6821  0.0213  1.3591
  267MOL0     H36813  12.805   8.338   9.771 -1.0649  3.5850  0.5919
  267MOL0     H36814  12.859   8.337  10.065  0.2968  5.6209  1.7191
  267MOL0     H36815  12.892   8.477   9.976  1.1970  0.2991  3.4843
  267MOL0     H36816  13.080   8.363   9.855 -1.5331 -0.1856 -0.6842
  267MOL0     H36817  13.041   8.209   9.936  0.1071  0.1886  2.0511
  267MOL0     H36818  13.090   8.428  10.114 -1.9315  0.2923 -0.9482
  267MOL0     H36819  13.092   8.252  10.142  0.5364 -2.8531 -2.4515
  267MOL0     H36820  13.283   8.401   9.951 -0.5895  0.8741 -0.4456
  267MOL0     H36821  13.304   8.230  10.012 -0.4334 -0.6795  1.4457
  267MOL0     H36822  13.328   8.325  10.245 -2.6409 -0.7908 -1.0121
  267MOL0     H36823  13.332   8.489  10.170  3.4887  0.5529  0.1697
  267MOL0     H36824  13.555   8.441  10.210  3.2874 -0.3708 -1.3361
  267MOL0     H36825  13.525   8.426  10.037  1.3522 -1.1019 -0.6204
  267MOL0     H36826  12.617   8.716   9.769  0.1908 -0.0101  0.3194
  267MOL0     H36827  12.404   8.832   9.717  1.9950  0.3559  1.3855
  267MOL0     H36828  11.881   8.756  10.017  0.3472 -3.1607 -0.6876
  267MOL0     H36829  11.643   8.780   9.953  1.9165 -1.0421  1.2399
  267MOL0     H36830  10.811   9.527  10.977  0.4321  1.3830  0.3390
  267MOL0     H36831  10.659   9.571  11.173  0.3404  1.0663 -0.6639
  267MOL0     H36832  10.293   9.692  11.340 -1.0917  1.0517  0.5663
  267MOL0     H36833  10.115   9.726  11.517 -2.4833 -1.9281  2.6147
  267MOL0     H36834   9.714   9.563  11.528 -1.0668 -1.4289 -0.1762
  267MOL0     H36835   9.812   9.424  11.573  3.6617  0.1061 -3.3098
  267MOL0     H36836   9.784   9.641  11.781  1.0020  0.9611 -0.1234
  267MOL0     H36837   9.801   9.468  11.801  0.0838 -0.0975  0.0489
  267MOL0     H36838   9.553   9.597  11.693 -0.1839  1.3159  1.5271
  267MOL0     H36839   9.574   9.418  11.713 -3.4031  0.7374 -0.0352
  267MOL0     H36840   9.431   9.569  11.881 -0.4092 -0.0745  0.2100
  267MOL0     H36841   9.581   9.618  11.956 -1.4833 -0.0850  0.6894
  267MOL0     H36842   9.556   9.227  12.112  0.4634  0.0610 -0.7302
  267MOL0     H36843   9.925   9.372  11.383  1.4908 -0.8932  1.1097
  267MOL0     H36844  10.094   9.276  11.127 -0.8338 -2.9420 -0.6044
  267MOL0     H36845  10.177   9.208  11.275 -0.3173  1.1631  2.4758
  267MOL0     H36846  10.004   9.224  11.276  1.4285  1.0194  2.9285
  268MOL0     O36847   4.927   7.992  10.743  0.2853 -0.7940 -0.2184
  268MOL0     C36848   4.860   8.092  10.729  1.0276  0.2867  0.6300
  268MOL0     O36849   4.837   8.153  10.607 -0.1531 -0.4483 -0.4236
  268MOL0     C36850   4.911   8.102  10.504 -0.3763 -0.0668 -0.1014
  268MOL0     C36851   4.849   8.007  10.418  0.2097  0.1422  0.9346
  268MOL0     C36852   4.923   7.951  10.310  0.5977 -0.3468 -0.4527
  268MOL0     C36853   5.055   7.995  10.284 -0.1075 -0.0376  0.5095
  268MOL0     O36854   5.121   7.942  10.174 -0.8198 -0.6601  0.3617
  268MOL0     C36855   5.254   7.992  10.151 -0.7989  1.0278  0.3906
  268MOL0     C36856   5.306   7.910  10.033 -0.3199  1.1779  0.1875
  268MOL0     C36857   5.235   7.916   9.901  0.6243  0.3616 -0.4319
  268MOL0     C36858   5.205   8.050   9.845  0.4393 -0.0189 -0.0138
  268MOL0     C36859   5.328   8.117   9.771  0.1667 -0.2454  0.4208
  268MOL0     C36860   5.367   8.056   9.634 -0.3648  0.0384 -0.6741
  268MOL0     C36861   5.446   8.150   9.537 -0.7269 -0.2527  0.2414
  268MOL0     C36862   5.584   8.195   9.596  0.0169  1.0898  0.5258
  268MOL0     N36863   5.672   8.080   9.645  0.4315  0.1024 -0.6033
  268MOL0     C36864   5.713   8.060   9.775  0.3844  0.1000  0.0246
  268MOL0     C36865   5.752   7.928   9.787 -0.0583  0.3341  0.3907
  268MOL0     C36866   5.795   7.854   9.907  0.7673  0.1394 -0.8134
  268MOL0     C36867   5.941   7.808   9.881  0.1732  0.6955 -0.0442
  268MOL0     C36868   5.999   7.724   9.990 -0.6047  0.1543  0.2404
  268MOL0     C36869   6.154   7.703   9.989  0.2432  0.1832  0.2990
  268MOL0     O36870   6.177   7.588  10.078 -0.9928 -0.0867  0.3040
  268MOL0     C36871   6.308   7.554  10.105  0.1223 -0.2141 -0.0288
  268MOL0     C36872   6.428   7.618  10.063 -0.6024  0.3433  0.0862
  268MOL0     C36873   6.563   7.579  10.112  0.4197 -0.2009  0.1166
  268MOL0     C36874   6.677   7.672  10.066 -0.2637 -0.0477 -0.5097
  268MOL0     C36875   6.563   7.467  10.195  0.0930  0.0111 -0.6533
  268MOL0     C36876   6.695   7.418  10.250 -0.5618  0.5692 -0.1683
  268MOL0     O36877   6.716   7.288  10.223  0.3992 -0.2167 -0.1638
  268MOL0     C36878   6.827   7.213  10.256 -0.2754 -0.7321 -0.5493
  268MOL0     C36879   6.932   7.253  10.336  0.4455  0.5327 -0.1032
  268MOL0     C36880   7.038   7.167  10.359  0.2812 -0.8980  0.8782
  268MOL0     C36881   7.037   7.045  10.294 -0.2000 -0.2159 -0.1739
  268MOL0     O36882   7.141   6.963  10.313 -0.8633 -0.1789 -0.2841
  268MOL0     C36883   7.230   6.925  10.203 -0.6009  0.1100  0.1638
  268MOL0     C36884   7.363   6.868  10.262 -0.2872 -0.1261 -0.5514
  268MOL0     C36885   7.467   6.864  10.156  0.8044  0.6355  0.9573
  268MOL0     C36886   7.606   6.820  10.219  0.5075  0.1218  1.0513
  268MOL0     C36887   7.722   6.865  10.132 -0.1456  0.2547 -0.3080
  268MOL0     C36888   7.852   6.784  10.154 -0.1283  0.2570 -1.1571
  268MOL0     C36889   7.970   6.841  10.075  0.5535 -0.8671  0.4760
  268MOL0     C36890   8.086   6.750  10.066  0.5992 -0.5197  0.0979
  268MOL0    Cl36891   8.146   6.715  10.228 -0.0015  0.0763 -0.2199
  268MOL0     C36892   6.937   7.006  10.210  0.4546  0.2653 -0.1657
  268MOL0     C36893   6.831   7.089  10.196  0.5436 -0.3508  0.1401
  268MOL0     O36894   6.769   7.497  10.309  0.0287  0.3524 -0.4114
  268MOL0     C36895   6.449   7.398  10.227  0.4156 -0.1801  0.7266
  268MOL0     C36896   6.322   7.436  10.183 -0.1531  0.0595 -0.9602
  268MOL0     N36897   5.733   7.879   9.650  0.6832 -0.2098  0.1750
  268MOL0     N36898   5.689   7.969   9.572 -0.0454 -0.2700  0.4638
  268MOL0     C36899   5.111   8.091  10.371  0.2543 -0.2073 -1.2667
  268MOL0     C36900   5.038   8.143  10.477 -0.1493 -0.3598 -0.8342
  268MOL0     C36901   4.806   8.175  10.842  0.4563  0.2680 -0.2800
  268MOL0     C36902   4.780   8.318  10.827 -0.2405  0.0248 -0.1319
  268MOL0     C36903   4.751   8.400  10.937  0.6369 -1.2061  0.3096
  268MOL0     C36904   4.740   8.349  11.063 -0.5346 -0.4019 -0.1570
  268MOL0     O36905   4.707   8.436  11.173 -0.5521  0.8416  0.4271
  268MOL0     C36906   4.830   8.492  11.234  0.0652  0.1182 -0.3564
  268MOL0     C36907   4.808   8.520  11.396 -0.1226  0.2271  1.4019
  268MOL0     C36908   4.808   8.390  11.482 -0.5162  0.5613  0.0191
  268MOL0     C36909   4.672   8.320  11.493 -0.0627 -0.1398  0.0937
  268MOL0     C36910   4.672   8.176  11.540 -0.1410  0.0395 -0.0469
  268MOL0     C36911   4.687   8.060  11.576 -0.4789 -0.7694 -0.2241
  268MOL0     C36912   4.756   8.210  11.088 -0.0021  0.1694 -0.0890
  268MOL0     C36913   4.788   8.128  10.976  0.0577 -0.5109 -0.1205
  268MOL0     C36914   4.803   7.989  11.014 -0.0568  0.9750 -0.2950
  268MOL0     H36915   4.744   7.984  10.435 -0.0103  1.6046  1.7204
  268MOL0     H36916   4.869   7.903  10.229  0.8280  0.5765 -1.1716
  268MOL0     H36917   5.317   7.982  10.240  0.1888 -0.1632 -0.4104
  268MOL0     H36918   5.246   8.097  10.123  2.0695  0.9634 -0.9686
  268MOL0     H36919   5.414   7.929  10.029  0.0243 -0.3109  1.4675
  268MOL0     H36920   5.307   7.805  10.063  1.1359  1.2633  0.5460
  268MOL0     H36921   5.287   7.855   9.827 -0.4618  0.5350 -1.3735
  268MOL0     H36922   5.143   7.859   9.915  0.1661  1.1961  0.0413
  268MOL0     H36923   5.126   8.039   9.770  1.9078  1.7848 -1.9557
  268MOL0     H36924   5.164   8.111   9.926 -0.5563 -0.1902 -0.3734
  268MOL0     H36925   5.416   8.114   9.837 -0.1210 -0.4194  0.8028
  268MOL0     H36926   5.306   8.223   9.753 -0.6361 -0.3313  0.8490
  268MOL0     H36927   5.421   7.962   9.643  3.6213  2.2720  1.5334
  268MOL0     H36928   5.270   8.025   9.594 -1.2610 -0.3967  1.6578
  268MOL0     H36929   5.387   8.238   9.512 -0.2905 -0.3607 -1.2575
  268MOL0     H36930   5.466   8.093   9.446 -1.7555  0.8411 -0.6827
  268MOL0     H36931   5.645   8.251   9.525  0.9904  0.7484  1.0780
  268MOL0     H36932   5.549   8.247   9.686 -0.0872 -1.8225  2.3003
  268MOL0     H36933   5.720   8.128   9.860  3.1857 -0.2501  0.1723
  268MOL0     H36934   5.737   7.764   9.929  1.8385 -1.2366 -3.2159
  268MOL0     H36935   5.783   7.913   9.998  1.2494 -0.0592 -0.6127
  268MOL0     H36936   5.939   7.747   9.791 -2.5437  0.2520  0.2172
  268MOL0     H36937   6.012   7.891   9.876  1.3383 -0.0254  2.6136
  268MOL0     H36938   5.976   7.762  10.090  2.9207 -4.1431  3.0662
  268MOL0     H36939   5.956   7.623   9.986 -1.2373  0.1899  3.3617
  268MOL0     H36940   6.186   7.666   9.891 -3.4936  3.0772 -2.3457
  268MOL0     H36941   6.194   7.797  10.029  0.4206 -0.8109  2.5965
  268MOL0     H36942   6.416   7.706  10.001 -0.2831 -0.0588 -0.5506
  268MOL0     H36943   6.663   7.707   9.963  2.2063  1.7026 -0.3594
  268MOL0     H36944   6.762   7.602  10.061  0.0207  0.2714 -0.1920
  268MOL0     H36945   6.690   7.759  10.131 -1.7071 -0.0392 -0.2145
  268MOL0     H36946   6.941   7.345  10.393 -1.2295 -0.5951  2.1521
  268MOL0     H36947   7.112   7.194  10.433  1.1166  0.4467 -0.3948
  268MOL0     H36948   7.186   6.858  10.128  1.9645 -0.3015 -1.0575
  268MOL0     H36949   7.252   7.020  10.153  1.6298  0.7255  2.1422
  268MOL0     H36950   7.377   6.929  10.352 -4.5105 -1.2122  1.0625
  268MOL0     H36951   7.351   6.765  10.296  0.6722  0.0955  0.5049
  268MOL0     H36952   7.476   6.960  10.104 -3.5815 -1.0854 -3.8347
  268MOL0     H36953   7.439   6.805  10.068 -1.2187  3.2614 -0.2834
  268MOL0     H36954   7.628   6.713  10.216 -0.5173 -0.0928 -2.0935
  268MOL0     H36955   7.619   6.857  10.321 -2.0078  0.1456  1.4237
  268MOL0     H36956   7.692   6.857  10.028 -0.7770  0.6154 -0.1591
  268MOL0     H36957   7.747   6.968  10.160  2.1943 -0.4057  0.2701
  268MOL0     H36958   7.843   6.676  10.137  2.2581 -0.7318  2.6301
  268MOL0     H36959   7.878   6.798  10.259 -2.8109 -0.1943 -0.3551
  268MOL0     H36960   8.007   6.937  10.111  2.8654 -1.5450  0.0400
  268MOL0     H36961   7.931   6.863   9.975  0.0101 -2.3786  0.3338
  268MOL0     H36962   8.163   6.799  10.007 -1.4948 -0.2027 -2.5516
  268MOL0     H36963   8.066   6.665  10.000 -1.3360 -0.1456  0.1301
  268MOL0     H36964   6.944   6.912  10.155  2.3450  0.1301  0.2206
  268MOL0     H36965   6.739   7.056  10.147  2.1794 -2.0608 -2.0031
  268MOL0     H36966   6.432   7.310  10.289 -0.0096 -1.7067 -1.4165
  268MOL0     H36967   6.229   7.392  10.218  1.6404 -1.4281  2.4234
  268MOL0     H36968   5.214   8.121  10.354 -0.4406  2.2275 -1.5820
  268MOL0     H36969   5.086   8.222  10.533  3.2740  0.8212 -4.9412
  268MOL0     H36970   4.799   8.366  10.732 -1.8780 -1.4890 -1.3121
  268MOL0     H36971   4.740   8.506  10.915  2.2685 -1.4679 -2.2180
  268MOL0     H36972   4.910   8.418  11.227  1.6806  1.2409  3.4326
  268MOL0     H36973   4.861   8.587  11.189 -0.1759  0.3348 -0.0696
  268MOL0     H36974   4.711   8.570  11.402 -1.4141 -1.5957 -1.7412
  268MOL0     H36975   4.888   8.582  11.439 -2.5892  2.0989  3.6142
  268MOL0     H36976   4.883   8.317  11.449 -1.1560  0.7244 -1.9342
  268MOL0     H36977   4.834   8.416  11.585 -0.9744 -0.7465  0.4842
  268MOL0     H36978   4.629   8.316  11.393  1.2566  3.0964 -0.7219
  268MOL0     H36979   4.605   8.377  11.559  1.4612  1.3407  0.4151
  268MOL0     H36980   4.693   7.953  11.578 -3.3956 -1.1800 -3.5315
  268MOL0     H36981   4.752   8.170  11.189 -0.4663  0.1842 -0.0977
  268MOL0     H36982   4.723   7.969  11.086  1.2916 -0.4485  0.8899
  268MOL0     H36983   4.785   7.930  10.923 -0.4025 -1.3787  1.2256
  268MOL0     H36984   4.895   7.963  11.068 -2.0835 -3.2455  1.5552
  269MOL0     O36985   1.362   5.527   3.909  0.3599 -0.4176  0.4224
  269MOL0     C36986   1.320   5.452   3.995  0.0853  0.2257  1.2010
  269MOL0     O36987   1.366   5.333   4.023 -0.3863  0.8079  0.1791
  269MOL0     C36988   1.482   5.303   3.954 -0.0627 -0.1876 -0.1505
  269MOL0     C36989   1.475   5.239   3.829  0.2515 -0.3912 -0.6481
  269MOL0     C36990   1.594   5.214   3.762  0.7456 -0.8025  0.7217
  269MOL0     C36991   1.713   5.268   3.806 -0.4651  0.2259 -0.3980
  269MOL0     O36992   1.812   5.263   3.716  0.3784 -0.4331  0.5717
  269MOL0     C36993   1.948   5.299   3.760 -0.4807 -0.2117 -0.1423
  269MOL0     C36994   2.049   5.313   3.648  0.0544 -0.6777  0.0671
  269MOL0     C36995   2.060   5.188   3.564  0.6665  0.2645  0.1357
  269MOL0     C36996   2.193   5.149   3.499 -0.0632 -1.2037  0.2949
  269MOL0     C36997   2.173   5.033   3.409 -0.3903  0.0369  0.1636
  269MOL0     C36998   2.318   4.989   3.375 -0.4725 -0.9887  0.0731
  269MOL0     C36999   2.300   4.858   3.306  1.0497 -0.4111  0.6711
  269MOL0     C37000   2.432   4.791   3.264  0.1214  0.4314 -0.3162
  269MOL0     N37001   2.495   4.840   3.143  0.1069 -1.0360 -0.2917
  269MOL0     C37002   2.443   4.822   3.012 -0.6212  0.1836 -0.0682
  269MOL0     C37003   2.549   4.851   2.935  0.1528 -0.1776  0.5163
  269MOL0     C37004   2.559   4.853   2.783  0.4722  1.3618 -0.3185
  269MOL0     C37005   2.532   4.977   2.711  0.3129 -0.4144  0.4019
  269MOL0     C37006   2.385   5.016   2.709  1.3218 -0.3499 -0.0054
  269MOL0     C37007   2.358   5.144   2.789 -0.2972 -0.1948 -1.4072
  269MOL0     O37008   2.230   5.196   2.771 -0.1397 -0.3573 -0.3820
  269MOL0     C37009   2.114   5.167   2.834  0.3622  0.3742 -0.2195
  269MOL0     C37010   2.093   5.034   2.884 -0.4925  0.1039  0.0315
  269MOL0     C37011   1.977   5.007   2.962 -0.6170 -0.2692  0.5834
  269MOL0     C37012   1.962   4.870   3.026 -0.4489  1.0810 -0.0890
  269MOL0     C37013   1.873   5.101   2.966  0.1769  0.6257  0.3553
  269MOL0     C37014   1.748   5.082   3.042 -0.7965 -0.4986  0.3725
  269MOL0     O37015   1.642   5.117   2.974  0.5594 -0.2389  0.6631
  269MOL0     C37016   1.524   5.062   3.015  0.0845 -0.5162 -0.0709
  269MOL0     C37017   1.505   4.921   2.994 -0.4667 -0.0524  0.5512
  269MOL0     C37018   1.387   4.852   3.021 -0.1448 -0.4457  0.0601
  269MOL0     C37019   1.287   4.920   3.092 -0.3817 -0.3993  0.3989
  269MOL0     O37020   1.175   4.852   3.134 -1.2392 -0.1383  0.2697
  269MOL0     C37021   1.091   4.913   3.221 -0.1465  0.4871 -0.2743
  269MOL0     C37022   0.990   4.816   3.271  0.4850  0.9631 -0.8800
  269MOL0     C37023   0.891   4.875   3.365  0.7265  0.8199  0.0986
  269MOL0     C37024   0.791   4.766   3.421  0.0182  0.1532 -0.0534
  269MOL0     C37025   0.709   4.812   3.536 -0.1897  0.1820 -0.1578
  269MOL0     C37026   0.610   4.710   3.597 -0.4278 -0.5942 -0.6261
  269MOL0     C37027   0.672   4.584   3.664 -0.4472 -0.2196 -0.3379
  269MOL0     C37028   0.565   4.498   3.728 -0.3747 -0.1350  0.9509
  269MOL0    Cl37029   0.535   4.533   3.893  0.6167  0.3662 -0.0248
  269MOL0     C37030   1.308   5.059   3.112 -0.0993  0.6150 -0.0844
  269MOL0     C37031   1.415   5.134   3.067 -0.4569 -0.3860 -0.3709
  269MOL0     O37032   1.751   5.043   3.156  0.9055 -0.2465  0.6019
  269MOL0     C37033   1.891   5.228   2.913  0.7028 -0.3744  0.1440
  269MOL0     C37034   2.007   5.251   2.843  0.3307  0.0630 -0.1660
  269MOL0     N37035   2.657   4.900   3.014  0.3573 -0.2066 -0.3442
  269MOL0     N37036   2.622   4.896   3.142  0.1938 -0.1986  0.1648
  269MOL0     C37037   1.722   5.330   3.928  0.7333 -0.6033 -0.4686
  269MOL0     C37038   1.601   5.352   3.997 -0.8593 -0.4728  0.1742
  269MOL0     C37039   1.202   5.499   4.084  0.6706 -0.1569 -0.1229
  269MOL0     C37040   1.209   5.486   4.231 -0.6277  0.0186  0.3329
  269MOL0     C37041   1.089   5.477   4.309 -0.5011  1.0072 -0.2936
  269MOL0     C37042   0.966   5.490   4.244  0.3443 -1.0112  0.2243
  269MOL0     O37043   0.858   5.478   4.333  0.3428 -0.0184 -0.1208
  269MOL0     C37044   0.723   5.457   4.286  0.3006  0.4165  0.5904
  269MOL0     C37045   0.635   5.484   4.403  1.7204 -0.8285 -0.3684
  269MOL0     C37046   0.662   5.622   4.468 -0.4780 -0.2565  0.3869
  269MOL0     C37047   0.534   5.651   4.557 -0.4597 -0.1002  0.2062
  269MOL0     C37048   0.526   5.573   4.686  0.4829 -0.4289  0.4919
  269MOL0     C37049   0.538   5.506   4.787 -0.0030  0.4219  0.5903
  269MOL0     C37050   0.961   5.519   4.110  0.0592  0.5943  0.5634
  269MOL0     C37051   1.076   5.519   4.029  0.1312 -0.1766 -0.1778
  269MOL0     C37052   1.070   5.529   3.874 -1.2526 -0.0643  0.2689
  269MOL0     H37053   1.379   5.199   3.799 -0.5550  0.8027  0.2177
  269MOL0     H37054   1.590   5.167   3.665 -1.8303 -0.4207  0.5775
  269MOL0     H37055   1.981   5.222   3.831  1.9599  0.5677 -0.3267
  269MOL0     H37056   1.956   5.400   3.799 -0.9084  0.7244 -2.3289
  269MOL0     H37057   2.016   5.403   3.595  0.0124  1.9236  4.0814
  269MOL0     H37058   2.144   5.323   3.700 -0.2732  0.1339  0.5203
  269MOL0     H37059   2.028   5.103   3.624  0.7774 -2.1091 -2.8984
  269MOL0     H37060   1.980   5.203   3.490  1.2441  1.4075 -0.2769
  269MOL0     H37061   2.237   5.241   3.460 -1.9334 -0.2414  0.3665
  269MOL0     H37062   2.243   5.110   3.588  1.0314 -2.0912 -0.6525
  269MOL0     H37063   2.114   5.059   3.321 -2.1855 -2.9639  0.3321
  269MOL0     H37064   2.116   4.947   3.446  1.7805 -1.7247 -0.3221
  269MOL0     H37065   2.371   5.064   3.316  0.8300 -3.0547 -1.5254
  269MOL0     H37066   2.377   4.979   3.467  2.4953  0.5263 -1.5636
  269MOL0     H37067   2.240   4.869   3.215  0.1542  0.8775  1.4051
  269MOL0     H37068   2.255   4.787   3.376 -2.9191  1.5685  0.3742
  269MOL0     H37069   2.509   4.793   3.342  1.8376  1.2606 -1.9643
  269MOL0     H37070   2.410   4.688   3.236  3.1870  0.1644 -2.1936
  269MOL0     H37071   2.347   4.779   2.987 -0.3646 -0.6946  0.3877
  269MOL0     H37072   2.482   4.782   2.750  0.2364  1.4562  0.0287
  269MOL0     H37073   2.657   4.814   2.755 -0.0943  0.8352 -1.6520
  269MOL0     H37074   2.596   5.056   2.750 -1.8951  2.3067 -1.0854
  269MOL0     H37075   2.553   4.956   2.606  1.8843  0.3641  0.5471
  269MOL0     H37076   2.358   5.038   2.605 -0.7678 -1.4616  0.2388
  269MOL0     H37077   2.319   4.937   2.745 -1.4445  1.4016 -0.8334
  269MOL0     H37078   2.367   5.118   2.895 -0.4499  1.4951 -0.9471
  269MOL0     H37079   2.437   5.218   2.772  1.8164 -2.6042 -2.7347
  269MOL0     H37080   2.168   4.955   2.882 -0.5553  0.0141  0.8677
  269MOL0     H37081   2.052   4.808   3.014 -1.3566 -0.6039  1.3513
  269MOL0     H37082   1.879   4.815   2.981 -1.3507  2.3389 -0.0212
  269MOL0     H37083   1.944   4.871   3.134 -3.3864  1.2656 -0.5184
  269MOL0     H37084   1.583   4.871   2.937  1.0069  1.6856  0.9594
  269MOL0     H37085   1.393   4.753   2.976  2.1106  0.1630 -1.1215
  269MOL0     H37086   1.144   4.965   3.301  2.6638  0.0738 -1.7619
  269MOL0     H37087   1.036   4.985   3.159  1.8908  0.7567 -1.8664
  269MOL0     H37088   0.946   4.780   3.178  0.4726  0.7859 -0.8057
  269MOL0     H37089   1.040   4.729   3.314  0.5989  0.6408 -1.6479
  269MOL0     H37090   0.832   4.947   3.307  1.6533  2.0982  0.6967
  269MOL0     H37091   0.945   4.932   3.441  0.5435  2.5524 -1.0014
  269MOL0     H37092   0.847   4.677   3.453  3.0078  0.7736 -2.9737
  269MOL0     H37093   0.734   4.744   3.331  2.1568  0.2867 -1.5053
  269MOL0     H37094   0.775   4.857   3.611  0.6522  1.2237 -1.4880
  269MOL0     H37095   0.646   4.897   3.508 -1.9906 -0.3231  2.0186
  269MOL0     H37096   0.546   4.691   3.510 -2.1937  0.8081  0.2959
  269MOL0     H37097   0.539   4.757   3.666 -0.0151  0.1867 -0.7247
  269MOL0     H37098   0.743   4.611   3.742 -2.1211 -1.0655  1.5656
  269MOL0     H37099   0.720   4.527   3.584  0.5819 -0.9367  0.7615
  269MOL0     H37100   0.594   4.394   3.718 -0.4485  0.0333 -1.7268
  269MOL0     H37101   0.470   4.508   3.675 -0.1588 -1.5308  0.2705
  269MOL0     H37102   1.231   5.123   3.155  0.5387  1.5117 -0.2347
  269MOL0     H37103   1.421   5.243   3.073 -0.2053 -0.4363  0.3307
  269MOL0     H37104   1.810   5.300   2.903  0.5483 -0.5437  0.1653
  269MOL0     H37105   2.016   5.342   2.784  2.2487  0.0242  0.0155
  269MOL0     H37106   1.820   5.358   3.967 -0.0049 -2.4063  3.1663
  269MOL0     H37107   1.602   5.419   4.083  0.9586 -3.0441  2.3182
  269MOL0     H37108   1.304   5.471   4.280 -1.1306 -2.0570  0.7768
  269MOL0     H37109   1.099   5.457   4.415 -0.4593 -2.2624 -0.8030
  269MOL0     H37110   0.698   5.519   4.200 -3.7198  0.0389  1.3097
  269MOL0     H37111   0.718   5.351   4.257  0.4151  0.7269 -0.5997
  269MOL0     H37112   0.659   5.408   4.477  5.9532 -0.4169 -1.0148
  269MOL0     H37113   0.531   5.480   4.369  2.3635 -1.9116 -2.3890
  269MOL0     H37114   0.747   5.624   4.538 -0.9245 -1.7059  1.0236
  269MOL0     H37115   0.676   5.692   4.386 -0.7653 -1.3382 -0.6085
  269MOL0     H37116   0.440   5.633   4.503 -0.6757  2.1084 -0.2660
  269MOL0     H37117   0.532   5.760   4.566 -1.1526  0.1738 -2.3881
  269MOL0     H37118   0.544   5.447   4.876 -0.4172 -1.3549 -0.4965
  269MOL0     H37119   0.867   5.538   4.058 -0.2338  1.7177  1.4689
  269MOL0     H37120   1.144   5.599   3.835  0.3040 -2.6544 -1.7880
  269MOL0     H37121   1.087   5.426   3.839 -1.0388 -1.0610  3.0414
  269MOL0     H37122   0.969   5.556   3.841 -1.4710 -1.9991 -0.8331
  270MOL0     O37123   5.549  10.498   3.550 -0.1146  0.8970 -0.1849
  270MOL0     C37124   5.477  10.463   3.648 -0.8269 -0.4373  0.4345
  270MOL0     O37125   5.516  10.440   3.775 -0.4239 -0.8730 -0.3101
  270MOL0     C37126   5.648  10.459   3.789 -0.3403  0.3331 -1.2507
  270MOL0     C37127   5.689  10.573   3.863  0.1676 -0.1497  0.3533
  270MOL0     C37128   5.819  10.595   3.886 -0.1587  0.2230 -0.5620
  270MOL0     C37129   5.921  10.505   3.840 -0.1862 -0.0846 -0.5968
  270MOL0     O37130   6.058  10.509   3.840 -0.1325  0.3324 -0.3339
  270MOL0     C37131   6.113  10.645   3.857 -0.3293  0.4585  0.1701
  270MOL0     C37132   6.255  10.656   3.805 -0.1777  0.3270  0.7216
  270MOL0     C37133   6.356  10.554   3.862 -0.0787  0.1432  0.3439
  270MOL0     C37134   6.485  10.557   3.781 -0.0053  0.0070 -0.5074
  270MOL0     C37135   6.570  10.433   3.801  1.2762  0.5841  0.6608
  270MOL0     C37136   6.694  10.435   3.709 -0.4413  0.4228 -0.2309
  270MOL0     C37137   6.799  10.535   3.770  0.2879 -0.2536 -0.1616
  270MOL0     C37138   6.916  10.563   3.672 -0.2899 -0.2141  0.1822
  270MOL0     N37139   6.923  10.704   3.650  0.5452 -0.4458  0.3915
  270MOL0     C37140   7.023  10.772   3.709  0.0292 -0.3694 -0.5460
  270MOL0     C37141   7.019  10.894   3.653  0.1857 -0.1499 -0.1765
  270MOL0     C37142   7.132  11.002   3.656  1.0569 -0.4684  0.6874
  270MOL0     C37143   7.247  11.012   3.760  1.1683 -0.0697  0.2552
  270MOL0     C37144   7.353  10.897   3.769  0.2754 -0.1394 -0.4958
  270MOL0     C37145   7.451  10.920   3.888 -0.4036  0.0288  0.1863
  270MOL0     O37146   7.557  11.012   3.848 -0.4429 -0.5886  0.7000
  270MOL0     C37147   7.661  10.970   3.768 -0.1224  0.3290 -0.3170
  270MOL0     C37148   7.688  11.018   3.643  0.4176  0.0825  1.0338
  270MOL0     C37149   7.811  10.986   3.582  0.2149  0.2499  0.5171
  270MOL0     C37150   7.840  11.061   3.453 -0.5475  0.0469  0.6550
  270MOL0     C37151   7.910  10.896   3.638 -0.8771 -0.0759  0.3848
  270MOL0     C37152   8.038  10.857   3.566  0.5572 -0.9117 -0.0260
  270MOL0     O37153   8.143  10.823   3.641  0.3665 -0.2758 -0.2859
  270MOL0     C37154   8.262  10.780   3.577  0.0215  0.0956  0.7557
  270MOL0     C37155   8.258  10.647   3.521  0.4380  0.2422 -0.3574
  270MOL0     C37156   8.371  10.594   3.455 -0.1487  0.1732  0.3988
  270MOL0     C37157   8.489  10.673   3.452 -0.2363  0.9992  0.1701
  270MOL0     O37158   8.598  10.626   3.385 -0.4004 -0.2492 -0.8287
  270MOL0     C37159   8.722  10.700   3.346 -0.2097 -0.4584 -0.9666
  270MOL0     C37160   8.815  10.627   3.251  0.4343  0.2443  0.4325
  270MOL0     C37161   8.871  10.511   3.336 -0.9853  0.4322 -0.1796
  270MOL0     C37162   8.943  10.415   3.238 -0.6235  0.8694 -0.0752
  270MOL0     C37163   8.986  10.294   3.334 -0.0074  0.0685  0.4185
  270MOL0     C37164   9.061  10.185   3.254  0.2021 -0.1015 -0.1386
  270MOL0     C37165   8.986  10.139   3.136  0.3073 -0.2126  0.7725
  270MOL0     C37166   9.043  10.005   3.097  0.0831  0.2092  0.1045
  270MOL0    Cl37167   9.212  10.014   3.044 -0.5169 -0.2034  0.1612
  270MOL0     C37168   8.492  10.801   3.511  0.2230 -0.3061  0.3456
  270MOL0     C37169   8.377  10.846   3.571 -0.4982 -1.0455  0.2186
  270MOL0     O37170   8.034  10.859   3.442  0.4630  0.3370  0.0956
  270MOL0     C37171   7.874  10.847   3.763  0.1392  0.4447 -0.5865
  270MOL0     C37172   7.751  10.887   3.827  0.4168  0.3208 -0.3859
  270MOL0     N37173   6.915  10.895   3.565 -0.2503  0.1970 -0.4241
  270MOL0     N37174   6.849  10.779   3.557 -0.4890  0.7652 -0.4443
  270MOL0     C37175   5.870  10.395   3.766 -0.8545  0.2268 -0.6172
  270MOL0     C37176   5.740  10.372   3.737  0.1710 -1.1801  0.4983
  270MOL0     C37177   5.337  10.469   3.623  0.5295 -0.8217  0.9054
  270MOL0     C37178   5.284  10.436   3.495  0.2512  0.0327 -0.1829
  270MOL0     C37179   5.147  10.431   3.468  0.5784  0.1835 -0.0401
  270MOL0     C37180   5.058  10.451   3.575 -0.7323  0.2972  0.7572
  270MOL0     O37181   4.922  10.424   3.566 -0.4036  0.4586 -0.2604
  270MOL0     C37182   4.869  10.326   3.477  0.6963  0.1860  0.0279
  270MOL0     C37183   4.728  10.291   3.526 -0.8296  0.1763 -0.1867
  270MOL0     C37184   4.690  10.179   3.447  0.5327  0.6148 -0.1769
  270MOL0     C37185   4.552  10.124   3.482 -0.9813 -0.4128 -0.0203
  270MOL0     C37186   4.443  10.221   3.459 -0.5096  0.8598  1.1206
  270MOL0     C37187   4.352  10.297   3.461  0.2848  0.4899  0.3501
  270MOL0     C37188   5.107  10.484   3.703  0.4902 -0.1784  0.4813
  270MOL0     C37189   5.244  10.486   3.731  0.0273 -0.3416 -0.2103
  270MOL0     C37190   5.271  10.523   3.869 -0.6070  0.7839 -0.5080
  270MOL0     H37191   5.609  10.638   3.897 -0.4664 -0.7813  0.1003
  270MOL0     H37192   5.845  10.689   3.934  2.5135 -0.4969 -0.4253
  270MOL0     H37193   6.112  10.670   3.964  0.2396 -2.7300  1.0320
  270MOL0     H37194   6.045  10.711   3.803 -0.1500  2.0982  1.8688
  270MOL0     H37195   6.243  10.647   3.696  4.8263 -1.1423  0.0562
  270MOL0     H37196   6.302  10.753   3.820  2.9280 -1.2510  2.0716
  270MOL0     H37197   6.378  10.588   3.964  0.5333  0.0855  0.2374
  270MOL0     H37198   6.313  10.454   3.867  1.7346 -0.6654  0.7668
  270MOL0     H37199   6.460  10.568   3.675 -0.2266  1.3758 -0.3301
  270MOL0     H37200   6.541  10.644   3.815  0.5720 -0.9926  1.2091
  270MOL0     H37201   6.516  10.343   3.770  1.3187  1.1533 -1.2028
  270MOL0     H37202   6.599  10.434   3.906 -0.8951  3.3289  1.3502
  270MOL0     H37203   6.735  10.333   3.712  1.0046  0.9567 -1.0720
  270MOL0     H37204   6.664  10.468   3.610  0.3319 -0.2346 -0.6985
  270MOL0     H37205   6.835  10.493   3.864  2.8107  1.3890 -0.2953
  270MOL0     H37206   6.751  10.631   3.792  0.0450 -0.3926 -0.0845
  270MOL0     H37207   7.008  10.538   3.725 -1.2560 -1.7603  1.2080
  270MOL0     H37208   6.901  10.509   3.579 -0.8066 -0.7069  0.5458
  270MOL0     H37209   7.079  10.731   3.793 -4.9719 -2.8535  1.9688
  270MOL0     H37210   7.082  11.099   3.659  2.1371  0.1440 -0.2722
  270MOL0     H37211   7.172  10.998   3.554 -4.6284  2.2506 -2.0921
  270MOL0     H37212   7.307  11.104   3.761  0.6212  0.3671 -1.6055
  270MOL0     H37213   7.192  11.005   3.854 -1.1260 -0.7454 -1.0680
  270MOL0     H37214   7.295  10.806   3.786  1.9323 -1.3801 -1.2950
  270MOL0     H37215   7.411  10.876   3.679 -0.1388 -3.0601 -0.1747
  270MOL0     H37216   7.397  10.959   3.974 -0.9290 -1.2635  0.4706
  270MOL0     H37217   7.486  10.819   3.913 -3.5362 -0.5472  2.8698
  270MOL0     H37218   7.621  11.087   3.593  1.0901 -1.7478 -2.8084
  270MOL0     H37219   7.842  10.993   3.368  0.4842  0.0577  0.6510
  270MOL0     H37220   7.934  11.118   3.461 -0.1103 -0.9018  3.2024
  270MOL0     H37221   7.758  11.132   3.440  0.6454  1.5385  1.0037
  270MOL0     H37222   8.163  10.595   3.511  0.9036 -0.9259  0.8701
  270MOL0     H37223   8.368  10.503   3.396 -1.0583 -0.4236  1.3232
  270MOL0     H37224   8.696  10.794   3.297  0.0772 -1.1222 -2.4339
  270MOL0     H37225   8.781  10.728   3.434 -0.7520 -1.8587 -0.1193
  270MOL0     H37226   8.752  10.585   3.173  1.6611  0.3357 -0.6410
  270MOL0     H37227   8.898  10.680   3.202 -0.4025  0.7536 -0.4779
  270MOL0     H37228   8.785  10.459   3.381 -0.3264 -1.2832 -0.8306
  270MOL0     H37229   8.936  10.552   3.414  1.3461 -0.3290 -1.6242
  270MOL0     H37230   9.022  10.467   3.183  0.2017 -0.0626  0.1903
  270MOL0     H37231   8.869  10.379   3.167  0.0198  0.3699 -0.5024
  270MOL0     H37232   9.045  10.333   3.417 -1.5109 -1.5908  2.3935
  270MOL0     H37233   8.899  10.240   3.373  1.3984 -1.1932  1.9565
  270MOL0     H37234   9.081  10.103   3.324  2.6276  1.7504  1.5162
  270MOL0     H37235   9.162  10.217   3.227  0.1329  0.3045  0.0713
  270MOL0     H37236   9.003  10.213   3.057 -0.7093  0.3984  1.1115
  270MOL0     H37237   8.882  10.112   3.159 -0.0189 -0.1276 -0.4975
  270MOL0     H37238   8.980   9.981   3.010 -0.1727  0.0613  0.3306
  270MOL0     H37239   9.035   9.920   3.165 -0.4499 -0.1015 -0.3343
  270MOL0     H37240   8.587  10.851   3.524 -1.3595  3.2534 -0.3546
  270MOL0     H37241   8.385  10.943   3.621 -1.3265  0.3733 -2.2275
  270MOL0     H37242   7.937  10.771   3.809 -0.3046  1.3685  1.7172
  270MOL0     H37243   7.725  10.851   3.926  0.2273 -0.5882 -0.7593
  270MOL0     H37244   5.940  10.331   3.713 -1.1323  0.5374 -1.3665
  270MOL0     H37245   5.714  10.281   3.684 -1.5710 -1.0210  1.0207
  270MOL0     H37246   5.357  10.415   3.417  1.9390  0.2754  1.2886
  270MOL0     H37247   5.120  10.399   3.368  1.5382 -1.0672  0.0744
  270MOL0     H37248   4.860  10.369   3.376  1.3373  2.2075  0.7773
  270MOL0     H37249   4.934  10.238   3.482  1.5845  0.7020 -1.5540
  270MOL0     H37250   4.654  10.371   3.519 -0.2875  0.8007  0.9762
  270MOL0     H37251   4.737  10.262   3.631 -3.4173  0.8403  0.2862
  270MOL0     H37252   4.676  10.213   3.344 -0.0411 -1.3861 -0.7991
  270MOL0     H37253   4.769  10.104   3.454 -0.1938 -0.2630 -1.0512
  270MOL0     H37254   4.563  10.095   3.587  2.7883  0.2521 -0.0866
  270MOL0     H37255   4.525  10.041   3.416 -0.7541 -0.0494 -0.5786
  270MOL0     H37256   4.271  10.366   3.455  0.6583  0.8079 -1.8027
  270MOL0     H37257   5.030  10.496   3.778  0.5605 -0.4791  0.6038
  270MOL0     H37258   5.194  10.588   3.912  0.3054  1.3000  0.3749
  270MOL0     H37259   5.293  10.437   3.932 -0.5995  0.5253 -0.8544
  270MOL0     H37260   5.361  10.582   3.887  0.6614 -1.8298  2.5912
  271MOL0     O37261   7.257   2.431   0.764  1.0253  0.4891 -0.7875
  271MOL0     C37262   7.300   2.541   0.738  0.2751 -0.0840 -1.1604
  271MOL0     O37263   7.406   2.598   0.806  0.4081  0.6050  0.0050
  271MOL0     C37264   7.486   2.518   0.884  0.0191 -0.3643  0.1340
  271MOL0     C37265   7.549   2.396   0.841  0.0112 -0.0311  0.7206
  271MOL0     C37266   7.625   2.321   0.932 -0.4646  0.3913 -0.0507
  271MOL0     C37267   7.662   2.375   1.054  0.0277 -0.3642  0.4089
  271MOL0     O37268   7.742   2.310   1.139 -0.5557 -0.3566 -0.8196
  271MOL0     C37269   7.847   2.216   1.098  0.8511  0.4720  0.5406
  271MOL0     C37270   7.944   2.192   1.212  0.4103 -0.4089 -0.1368
  271MOL0     C37271   8.055   2.095   1.185 -0.4644 -0.3924  0.7894
  271MOL0     C37272   8.151   2.090   1.300  0.2541 -0.7747  0.2448
  271MOL0     C37273   8.266   2.003   1.243 -0.3904  0.0759  0.1914
  271MOL0     C37274   8.377   1.984   1.346  0.2174  0.1380 -0.5839
  271MOL0     C37275   8.499   1.936   1.271  0.0809 -0.4032 -0.0412
  271MOL0     C37276   8.620   1.946   1.364  0.5030  0.2920  0.6265
  271MOL0     N37277   8.747   1.906   1.300 -0.0493 -0.3216 -0.3863
  271MOL0     C37278   8.872   1.902   1.363 -0.0817 -0.1025  0.2139
  271MOL0     C37279   8.967   1.893   1.268 -0.5013  0.3735 -0.0621
  271MOL0     C37280   9.112   1.900   1.312  0.1044 -0.0741  0.7480
  271MOL0     C37281   9.224   1.873   1.197 -0.0658 -0.1491 -0.7700
  271MOL0     C37282   9.365   1.849   1.258 -0.1245  0.1933 -0.1153
  271MOL0     C37283   9.407   1.982   1.329 -0.1977  0.1464  0.1148
  271MOL0     O37284   9.548   1.967   1.359  0.5201 -0.0400 -0.1418
  271MOL0     C37285   9.580   1.962   1.498 -0.3124  0.0933 -0.5231
  271MOL0     C37286   9.500   1.917   1.605 -0.5541 -0.4476 -0.6572
  271MOL0     C37287   9.547   1.902   1.742  0.5090 -0.3144  0.3281
  271MOL0     C37288   9.442   1.865   1.852  0.1075  0.3321 -0.2838
  271MOL0     C37289   9.682   1.922   1.760  0.1393 -0.0803 -0.0930
  271MOL0     C37290   9.759   1.909   1.888  0.0694  0.6741  0.7635
  271MOL0     O37291   9.894   1.913   1.880  0.2499  0.1957  0.5319
  271MOL0     C37292   9.962   1.929   1.995 -0.1502 -0.3086 -0.6660
  271MOL0     C37293   9.945   1.846   2.104 -0.3562  0.3374  0.2077
  271MOL0     C37294  10.033   1.857   2.214 -0.3096 -0.6607  0.1669
  271MOL0     C37295  10.129   1.961   2.220 -0.3936 -0.4578 -0.6614
  271MOL0     O37296  10.213   1.983   2.326  0.9010  0.1372  0.0106
  271MOL0     C37297  10.246   1.870   2.406 -0.1293  0.3889 -0.2967
  271MOL0     C37298  10.356   1.910   2.501 -0.0504  0.2279 -0.2507
  271MOL0     C37299  10.494   1.888   2.457  0.0543  0.4466  0.4627
  271MOL0     C37300  10.542   1.749   2.451  0.0199  0.7530 -0.2760
  271MOL0     C37301  10.697   1.741   2.445 -0.5477 -0.2109 -0.3722
  271MOL0     C37302  10.724   1.615   2.379  0.4944  1.4344  0.3750
  271MOL0     C37303  10.863   1.588   2.334  0.0434  0.0671  0.3444
  271MOL0     C37304  10.977   1.589   2.432 -0.9608 -0.3336 -0.4505
  271MOL0    Cl37305  11.013   1.769   2.475  0.2223  0.0347  0.3831
  271MOL0     C37306  10.148   2.048   2.111  0.1815 -0.3297  0.1226
  271MOL0     C37307  10.061   2.029   1.998  0.2719 -0.0733 -0.3758
  271MOL0     O37308   9.692   1.881   1.987 -0.7252 -0.5595 -0.4188
  271MOL0     C37309   9.757   1.968   1.650  0.3469 -0.0818  0.0844
  271MOL0     C37310   9.714   1.990   1.525  1.0376  0.3018  0.5863
  271MOL0     N37311   8.902   1.873   1.153  0.1456  0.6560 -0.3887
  271MOL0     N37312   8.775   1.902   1.164 -0.1827 -0.1904 -0.3024
  271MOL0     C37313   7.611   2.496   1.095 -0.1238  0.6961 -0.6062
  271MOL0     C37314   7.520   2.564   1.012  1.0255  0.3188 -0.6668
  271MOL0     C37315   7.226   2.637   0.642  0.5555 -0.3873  0.7292
  271MOL0     C37316   7.268   2.778   0.644 -1.1659  0.2185  0.1156
  271MOL0     C37317   7.213   2.875   0.558 -0.1997 -0.3576 -0.0469
  271MOL0     C37318   7.116   2.838   0.464  0.4004  0.1961  0.2069
  271MOL0     O37319   7.064   2.941   0.396 -0.7029  0.1844  0.2712
  271MOL0     C37320   6.984   2.917   0.278  0.4346 -0.6036  1.0889
  271MOL0     C37321   6.835   2.954   0.298  0.3852  0.0411  0.3043
  271MOL0     C37322   6.730   2.922   0.193 -0.1099  0.1222 -0.1070
  271MOL0     C37323   6.589   2.977   0.218 -0.3895 -0.0955  0.6536
  271MOL0     C37324   6.598   3.120   0.242 -0.3152  1.0673 -0.7871
  271MOL0     C37325   6.602   3.235   0.274 -0.2860  0.8074  0.1970
  271MOL0     C37326   7.059   2.707   0.472  0.3605 -0.2462 -0.2540
  271MOL0     C37327   7.121   2.605   0.552 -0.0664 -0.6443 -0.4877
  271MOL0     C37328   7.072   2.462   0.531 -0.3243 -0.1071 -0.3673
  271MOL0     H37329   7.538   2.356   0.741  0.8235 -1.3046  1.1109
  271MOL0     H37330   7.661   2.223   0.903 -0.3790  0.9426 -1.9759
  271MOL0     H37331   7.905   2.261   1.016  2.2925  0.0041  1.2863
  271MOL0     H37332   7.799   2.129   1.052  1.5581  1.4577 -2.2993
  271MOL0     H37333   7.982   2.286   1.252 -0.9683  0.3310 -0.4915
  271MOL0     H37334   7.887   2.153   1.297 -1.7916  0.8889 -0.9423
  271MOL0     H37335   8.011   2.001   1.151 -1.3739  0.4070 -0.3121
  271MOL0     H37336   8.118   2.129   1.103  0.4969 -1.3501  1.1084
  271MOL0     H37337   8.205   2.182   1.323 -0.0724 -0.4362 -0.3445
  271MOL0     H37338   8.107   2.050   1.392  0.8733  0.3763  1.0687
  271MOL0     H37339   8.304   2.049   1.151  0.5774 -2.4765 -0.7749
  271MOL0     H37340   8.228   1.904   1.216  0.9564 -0.6232  0.7851
  271MOL0     H37341   8.411   2.070   1.405  1.5707 -1.0737  0.4638
  271MOL0     H37342   8.350   1.909   1.421 -0.8511  1.2546  0.2009
  271MOL0     H37343   8.520   2.007   1.191 -0.5809 -0.6675 -0.4587
  271MOL0     H37344   8.471   1.840   1.227  2.9763 -1.1475 -0.4624
  271MOL0     H37345   8.629   2.050   1.394 -3.2518  0.9997 -0.2733
  271MOL0     H37346   8.608   1.881   1.451  3.6116  1.5980  2.2215
  271MOL0     H37347   8.888   1.922   1.469 -2.5324  0.9054  0.4733
  271MOL0     H37348   9.120   1.839   1.402 -3.2946 -3.7677 -1.1462
  271MOL0     H37349   9.124   2.002   1.351 -0.5741  1.4395 -2.6282
  271MOL0     H37350   9.195   1.782   1.144  0.7058 -1.0047  0.2230
  271MOL0     H37351   9.220   1.948   1.118  2.1933  1.2828  0.3679
  271MOL0     H37352   9.356   1.763   1.325 -0.3968  0.0967 -0.2731
  271MOL0     H37353   9.433   1.832   1.174  0.4785 -1.1163  0.6234
  271MOL0     H37354   9.392   2.079   1.281 -3.6728  1.5368  3.4848
  271MOL0     H37355   9.347   1.988   1.421  1.9400  0.1431  1.6011
  271MOL0     H37356   9.396   1.888   1.588 -0.7717  0.0265 -0.1620
  271MOL0     H37357   9.423   1.938   1.931 -0.3310 -0.2251  0.1380
  271MOL0     H37358   9.476   1.769   1.892  0.6790 -0.6593 -2.9605
  271MOL0     H37359   9.345   1.855   1.803  0.9911 -1.6493 -1.8055
  271MOL0     H37360   9.886   1.756   2.091  2.0532 -1.0382 -2.5353
  271MOL0     H37361  10.029   1.781   2.292 -1.0948  0.3534  1.1618
  271MOL0     H37362  10.157   1.845   2.465 -0.1689  1.7082  0.2425
  271MOL0     H37363  10.292   1.787   2.351 -1.2652  0.5219 -1.4678
  271MOL0     H37364  10.344   2.013   2.534  1.3346  0.1721  0.5047
  271MOL0     H37365  10.348   1.850   2.593 -0.0725  1.5677  0.6562
  271MOL0     H37366  10.563   1.941   2.523 -0.7158  2.3845 -0.2038
  271MOL0     H37367  10.494   1.931   2.357 -0.2238  1.0372  0.7136
  271MOL0     H37368  10.503   1.706   2.358  0.6388  1.8288 -1.0598
  271MOL0     H37369  10.511   1.698   2.543 -1.8602  3.2192  0.5895
  271MOL0     H37370  10.730   1.823   2.379  3.4972 -0.8007  0.6824
  271MOL0     H37371  10.734   1.755   2.547  1.0773  0.5233 -1.0171
  271MOL0     H37372  10.662   1.596   2.291  1.2194  0.0414  0.1346
  271MOL0     H37373  10.702   1.533   2.448  0.0484  1.5014  0.3195
  271MOL0     H37374  10.886   1.653   2.249  0.5393  1.7565  1.7064
  271MOL0     H37375  10.881   1.486   2.299  1.0221  0.4387 -0.2813
  271MOL0     H37376  11.068   1.549   2.387  0.0693  0.1093  1.1281
  271MOL0     H37377  10.958   1.524   2.518  2.4523 -1.9725 -0.7811
  271MOL0     H37378  10.209   2.138   2.110 -1.3811  0.9696  3.9891
  271MOL0     H37379  10.066   2.095   1.912 -0.2683 -0.7276 -0.9188
  271MOL0     H37380   9.863   1.985   1.664  0.3350 -0.9113  1.3031
  271MOL0     H37381   9.776   2.015   1.439 -1.0519  1.5608 -0.6574
  271MOL0     H37382   7.641   2.534   1.192  0.8519 -2.7497  0.5828
  271MOL0     H37383   7.479   2.656   1.053  0.6907 -1.0098  2.2341
  271MOL0     H37384   7.346   2.810   0.713  0.1444 -0.7478 -0.8748
  271MOL0     H37385   7.248   2.978   0.560  2.9409 -1.3024 -0.0138
  271MOL0     H37386   7.023   2.988   0.204 -2.0765  1.6263  1.7422
  271MOL0     H37387   6.994   2.818   0.232 -1.6825 -0.7312  0.8236
  271MOL0     H37388   6.831   3.060   0.323 -0.9424  0.0372  0.1696
  271MOL0     H37389   6.827   2.904   0.395  3.1230  3.3723  2.4737
  271MOL0     H37390   6.763   2.964   0.098  1.7129  1.1405  0.9251
  271MOL0     H37391   6.718   2.813   0.189 -1.3402  0.2543 -0.4449
  271MOL0     H37392   6.549   2.922   0.304 -0.8830 -1.4409 -0.3950
  271MOL0     H37393   6.512   2.954   0.144  0.1062 -0.2054  0.1664
  271MOL0     H37394   6.615   3.335   0.312  2.6661  1.0052 -1.0735
  271MOL0     H37395   6.966   2.701   0.418 -1.3814  0.3363  2.4802
  271MOL0     H37396   6.995   2.463   0.454  0.4816  3.8744 -1.3761
  271MOL0     H37397   7.157   2.400   0.500 -0.6299 -0.4429 -0.5384
  271MOL0     H37398   7.027   2.433   0.627 -1.1689  2.3005  0.0394
  272MOL0     O37399   9.405   3.231   2.130 -0.2365  0.6751 -0.4905
  272MOL0     C37400   9.337   3.183   2.228 -0.6754 -0.1583  1.2302
  272MOL0     O37401   9.240   3.084   2.219  0.1446 -0.3606 -0.6743
  272MOL0     C37402   9.240   2.999   2.107  0.7399 -0.3918  0.0006
  272MOL0     C37403   9.314   2.888   2.088  0.0102 -0.1807  0.4706
  272MOL0     C37404   9.301   2.800   1.972  0.1266  0.2797  0.2122
  272MOL0     C37405   9.209   2.837   1.869  0.5342  0.4755 -0.3497
  272MOL0     O37406   9.178   2.752   1.765 -0.1384 -0.0343 -0.0507
  272MOL0     C37407   9.147   2.808   1.634  0.1702 -0.8633 -0.3979
  272MOL0     C37408   9.206   2.722   1.522  0.5643  0.2108 -0.8030
  272MOL0     C37409   9.157   2.761   1.381 -0.5798  0.5258  0.0235
  272MOL0     C37410   9.186   2.902   1.344 -0.1960 -0.3345 -0.2461
  272MOL0     C37411   9.191   2.934   1.194  0.5520 -0.7326 -0.1514
  272MOL0     C37412   9.230   3.087   1.168 -0.5265  0.2194  0.1611
  272MOL0     C37413   9.123   3.181   1.212  0.3464  0.1132  0.0022
  272MOL0     C37414   8.983   3.161   1.147 -0.1407  0.0745  0.0610
  272MOL0     N37415   8.899   3.270   1.186  0.1418 -0.3785 -0.7942
  272MOL0     C37416   8.912   3.404   1.134 -0.0233 -0.3236 -0.5630
  272MOL0     C37417   8.830   3.472   1.213  0.0462 -0.3040 -0.1561
  272MOL0     C37418   8.812   3.622   1.183  0.2358 -0.2756  0.7821
  272MOL0     C37419   8.823   3.693   1.316 -0.0927 -0.3742 -0.6031
  272MOL0     C37420   8.857   3.846   1.291 -0.1283 -0.0360  0.7199
  272MOL0     C37421   8.735   3.919   1.214  0.0134  0.2481  0.9331
  272MOL0     O37422   8.729   4.061   1.219 -0.3326  0.0740  0.3143
  272MOL0     C37423   8.832   4.127   1.156  0.2113 -0.1296 -0.0134
  272MOL0     C37424   8.935   4.080   1.077  0.3171 -0.0384  0.0729
  272MOL0     C37425   9.047   4.160   1.045  0.5861  0.0910 -0.0296
  272MOL0     C37426   9.147   4.103   0.943 -0.4529  0.3938  0.4630
  272MOL0     C37427   9.060   4.293   1.094  0.1570 -0.0148  0.3712
  272MOL0     C37428   9.176   4.391   1.081  0.6876 -0.1572  0.6006
  272MOL0     O37429   9.156   4.524   1.101 -0.2393  0.0818 -0.0435
  272MOL0     C37430   9.252   4.615   1.077 -0.0327 -0.5447  0.2933
  272MOL0     C37431   9.209   4.716   0.992  0.0235 -0.1828  0.1008
  272MOL0     C37432   9.295   4.817   0.964  0.1630  0.8831  0.1389
  272MOL0     C37433   9.423   4.828   1.012 -0.2979 -0.7505  0.3150
  272MOL0     O37434   9.519   4.922   0.971  0.2444  0.2505 -0.6692
  272MOL0     C37435   9.520   4.947   0.824 -0.1953 -0.0738  0.8653
  272MOL0     C37436   9.671   4.995   0.797  0.0928 -0.2083 -0.4676
  272MOL0     C37437   9.777   4.883   0.803  0.1152 -0.4125 -0.6391
  272MOL0     C37438   9.900   4.933   0.728  0.2178 -0.6535  0.3406
  272MOL0     C37439  10.014   4.822   0.728 -0.3651 -1.0856 -0.3838
  272MOL0     C37440  10.145   4.869   0.671  0.0677  0.7392  0.7769
  272MOL0     C37441  10.220   4.962   0.760 -0.5052  0.4232 -0.7534
  272MOL0     C37442  10.368   4.990   0.715  0.8327 -0.5743 -0.4092
  272MOL0    Cl37443  10.377   5.026   0.546 -0.4519  0.1256  0.5704
  272MOL0     C37444   9.460   4.734   1.108 -0.1118  0.5503  0.1891
  272MOL0     C37445   9.377   4.624   1.137  0.0954 -0.2045 -1.2867
  272MOL0     O37446   9.279   4.344   1.033  0.5914 -1.0541 -0.3589
  272MOL0     C37447   8.951   4.336   1.174  0.0620 -0.4863 -0.4202
  272MOL0     C37448   8.838   4.256   1.202  0.8185  0.1610  1.1108
  272MOL0     N37449   8.780   3.399   1.319 -0.5527 -0.3187  0.5319
  272MOL0     N37450   8.825   3.274   1.305 -0.6903  0.5446 -0.5694
  272MOL0     C37451   9.144   2.961   1.883  0.0704  0.5239 -0.2919
  272MOL0     C37452   9.162   3.045   1.996  0.5305 -0.1569  0.0932
  272MOL0     C37453   9.370   3.235   2.365 -0.7377 -0.0916 -0.6836
  272MOL0     C37454   9.283   3.226   2.473 -0.0423  0.4129  0.8390
  272MOL0     C37455   9.307   3.289   2.599  0.3506 -0.3784 -0.6009
  272MOL0     C37456   9.423   3.355   2.628 -0.4139  1.1515  0.3030
  272MOL0     O37457   9.438   3.424   2.745 -0.1029  0.3383  0.4395
  272MOL0     C37458   9.564   3.418   2.814  0.3329  0.2398  0.1214
  272MOL0     C37459   9.578   3.541   2.901  0.0729 -0.3946 -0.3018
  272MOL0     C37460   9.467   3.543   3.009  0.5714  0.7426  0.0679
  272MOL0     C37461   9.471   3.678   3.086  0.5119 -0.0098  0.1160
  272MOL0     C37462   9.468   3.804   3.004  0.0085 -0.2139  0.2296
  272MOL0     C37463   9.454   3.900   2.931  0.0781  0.1698  0.5601
  272MOL0     C37464   9.517   3.355   2.522 -0.0257  0.4659 -0.4819
  272MOL0     C37465   9.498   3.290   2.399  0.7284 -0.5012  1.0207
  272MOL0     C37466   9.616   3.304   2.301  0.4234 -0.2216 -0.0182
  272MOL0     H37467   9.381   2.848   2.163 -0.9339 -0.5261  1.1391
  272MOL0     H37468   9.355   2.706   1.959 -3.9808 -2.0636 -1.9783
  272MOL0     H37469   9.165   2.914   1.615 -2.0711 -0.7715 -2.4851
  272MOL0     H37470   9.038   2.811   1.625  0.1801 -0.1421 -0.3627
  272MOL0     H37471   9.315   2.725   1.512  0.7158 -0.7323  0.3628
  272MOL0     H37472   9.168   2.621   1.538 -0.8928  0.7854 -0.5069
  272MOL0     H37473   9.207   2.696   1.308  1.5443 -2.2167  3.5788
  272MOL0     H37474   9.049   2.752   1.367 -0.0796 -2.5835 -3.0626
  272MOL0     H37475   9.107   2.959   1.395 -0.4571  0.3431 -1.3628
  272MOL0     H37476   9.275   2.937   1.396 -0.3722 -0.0528 -0.1285
  272MOL0     H37477   9.085   2.920   1.171  0.4568  2.1080 -2.0461
  272MOL0     H37478   9.255   2.860   1.145 -1.1020 -0.8744 -2.2240
  272MOL0     H37479   9.322   3.103   1.225 -0.3923 -2.3999  0.8137
  272MOL0     H37480   9.251   3.108   1.062  0.3536 -0.3933  0.2047
  272MOL0     H37481   9.157   3.283   1.189 -0.6618  0.6369  0.7691
  272MOL0     H37482   9.108   3.185   1.320 -2.1990  2.4811 -0.3256
  272MOL0     H37483   8.992   3.177   1.039 -3.0383  3.5985  0.1511
  272MOL0     H37484   8.938   3.066   1.177 -1.3303  0.6841  0.2321
  272MOL0     H37485   8.972   3.451   1.057 -0.8911  3.7134  0.9417
  272MOL0     H37486   8.711   3.642   1.146  0.7443 -0.9078 -1.0253
  272MOL0     H37487   8.895   3.648   1.117  0.8379 -3.9018 -0.1353
  272MOL0     H37488   8.728   3.684   1.370 -0.4677  1.7631 -0.8445
  272MOL0     H37489   8.907   3.654   1.374 -0.3926 -0.8906 -0.5042
  272MOL0     H37490   8.855   3.901   1.386  0.3800  0.2524  0.5671
  272MOL0     H37491   8.959   3.856   1.253 -0.5882 -0.5846 -0.7200
  272MOL0     H37492   8.729   3.875   1.114 -1.2779  1.8809  0.2227
  272MOL0     H37493   8.641   3.882   1.258 -0.1919 -0.6389 -0.1964
  272MOL0     H37494   8.926   3.980   1.037  0.1837  0.2021 -0.5015
  272MOL0     H37495   9.120   4.000   0.916  3.8164 -1.5090  2.4818
  272MOL0     H37496   9.251   4.094   0.977 -0.1531 -1.4018 -0.7791
  272MOL0     H37497   9.139   4.167   0.855 -0.1334  1.2695  1.0551
  272MOL0     H37498   9.112   4.723   0.944 -0.0502  0.9287  0.3750
  272MOL0     H37499   9.257   4.885   0.888 -0.5612  1.0516  0.6408
  272MOL0     H37500   9.504   4.855   0.768 -1.1497 -0.7796  2.2420
  272MOL0     H37501   9.443   5.021   0.797 -0.8510 -1.2227 -0.5541
  272MOL0     H37502   9.673   5.031   0.694  3.3322  3.7250  0.7025
  272MOL0     H37503   9.709   5.074   0.862 -0.5201 -1.4522  1.4985
  272MOL0     H37504   9.731   4.791   0.767 -2.9751  0.4911  0.6031
  272MOL0     H37505   9.806   4.866   0.907 -1.8393  2.1390  0.4408
  272MOL0     H37506   9.942   5.021   0.777  1.9003  0.0502 -2.1802
  272MOL0     H37507   9.876   4.967   0.627 -2.0531  0.8498  1.3019
  272MOL0     H37508  10.027   4.785   0.830  1.3640 -0.0244 -0.1637
  272MOL0     H37509   9.985   4.734   0.671 -2.0815 -1.3887  0.9010
  272MOL0     H37510  10.117   4.916   0.577 -2.6254 -2.1176 -0.0254
  272MOL0     H37511  10.203   4.778   0.651  0.8738  1.5529 -0.7186
  272MOL0     H37512  10.229   4.918   0.859 -1.4311 -0.3217 -0.9924
  272MOL0     H37513  10.179   5.063   0.771  1.4343  1.0302  1.9967
  272MOL0     H37514  10.444   4.917   0.743  1.2125  0.1235  0.4249
  272MOL0     H37515  10.398   5.083   0.765 -0.7070  0.0589 -0.5964
  272MOL0     H37516   9.557   4.749   1.154  0.9212 -1.0788 -1.3081
  272MOL0     H37517   9.399   4.550   1.214 -3.3148  0.3645  0.4115
  272MOL0     H37518   8.949   4.441   1.200 -0.9253 -0.2977 -1.1555
  272MOL0     H37519   8.765   4.307   1.264 -0.1448  0.4194 -0.1651
  272MOL0     H37520   9.076   2.999   1.807 -3.9867 -2.7477  1.3310
  272MOL0     H37521   9.094   3.128   2.010 -1.8765 -1.9003 -0.6667
  272MOL0     H37522   9.189   3.173   2.461  1.4393 -2.2766  0.2750
  272MOL0     H37523   9.233   3.295   2.678  0.8483  1.5677 -0.2149
  272MOL0     H37524   9.569   3.326   2.873  0.4881  0.5544  0.6057
  272MOL0     H37525   9.650   3.428   2.748 -0.2213  3.3362 -0.2766
  272MOL0     H37526   9.554   3.626   2.837  1.6466 -1.7712 -2.9126
  272MOL0     H37527   9.676   3.550   2.948 -0.0179 -1.6091  0.1522
  272MOL0     H37528   9.366   3.528   2.971  0.1851  2.4017  0.3466
  272MOL0     H37529   9.490   3.458   3.074 -0.8727 -1.0694 -1.6659
  272MOL0     H37530   9.554   3.681   3.157  1.2852 -1.2463 -0.6933
  272MOL0     H37531   9.383   3.683   3.149 -1.6280  0.9453 -2.7435
  272MOL0     H37532   9.447   3.984   2.865  2.4811  1.8179  2.2371
  272MOL0     H37533   9.608   3.411   2.537  0.7641 -0.2334 -2.3637
  272MOL0     H37534   9.595   3.387   2.233  0.9836  1.7351  2.0672
  272MOL0     H37535   9.706   3.339   2.352  0.4917  1.0776 -1.0019
  272MOL0     H37536   9.641   3.212   2.248  0.1135  0.5580 -1.5521
  273MOL0     O37537   1.185   8.322   7.595 -0.6154 -0.1680 -0.2421
  273MOL0     C37538   1.116   8.227   7.587  0.4017  0.4361 -0.9129
  273MOL0     O37539   1.155   8.105   7.625  0.1124  0.8151 -0.3100
  273MOL0     C37540   1.274   8.068   7.687 -0.1562  0.2774 -0.3356
  273MOL0     C37541   1.404   8.113   7.652 -0.7769  0.2783  0.1151
  273MOL0     C37542   1.517   8.050   7.711  0.1222 -0.2404 -0.2229
  273MOL0     C37543   1.514   7.946   7.813 -0.0283 -0.3520  0.3654
  273MOL0     O37544   1.632   7.892   7.865  0.6275 -0.0570  0.0884
  273MOL0     C37545   1.757   7.932   7.833  0.3659  0.1766  0.2438
  273MOL0     C37546   1.852   7.862   7.916  0.5549 -0.0432 -0.4732
  273MOL0     C37547   1.993   7.918   7.890  0.1197  0.6243  0.1605
  273MOL0     C37548   2.085   7.843   7.987 -0.6808  0.5450 -0.5587
  273MOL0     C37549   2.228   7.846   7.940  0.1534 -0.1781 -0.4741
  273MOL0     C37550   2.314   7.779   8.047  0.2243  0.2185 -0.4113
  273MOL0     C37551   2.463   7.800   8.021  0.3416 -0.2349  0.4033
  273MOL0     C37552   2.523   7.708   7.910  0.6367  0.4115  0.0379
  273MOL0     N37553   2.663   7.734   7.901 -0.4932 -0.0944  0.3991
  273MOL0     C37554   2.753   7.700   7.993  0.0622 -0.1618 -0.4300
  273MOL0     C37555   2.869   7.741   7.942 -0.6741 -0.2148 -0.4767
  273MOL0     C37556   3.005   7.730   8.011  1.1350  0.3485 -0.0307
  273MOL0     C37557   2.999   7.725   8.158 -0.0085 -0.4511 -0.0163
  273MOL0     C37558   3.143   7.744   8.228 -0.2282 -0.1595 -0.3219
  273MOL0     C37559   3.129   7.705   8.376 -0.0552  0.4621  0.5570
  273MOL0     O37560   3.243   7.741   8.449 -0.1194  0.3653 -0.0007
  273MOL0     C37561   3.331   7.645   8.471 -0.7255 -0.6176 -0.4175
  273MOL0     C37562   3.313   7.517   8.523 -0.1945 -0.1177 -0.0651
  273MOL0     C37563   3.412   7.419   8.518 -0.0667  0.8974 -0.1946
  273MOL0     C37564   3.373   7.268   8.560 -0.3689 -0.4962 -0.2513
  273MOL0     C37565   3.538   7.450   8.471  0.1205 -0.5303  0.0985
  273MOL0     C37566   3.662   7.363   8.471  0.1467  0.1032  0.7045
  273MOL0     O37567   3.777   7.423   8.497  0.0184 -0.1492  0.5334
  273MOL0     C37568   3.892   7.368   8.445 -0.0999 -0.1456  0.5568
  273MOL0     C37569   3.908   7.269   8.346 -0.9711 -0.0285 -0.3972
  273MOL0     C37570   4.025   7.233   8.290 -0.5900 -0.0605  0.4864
  273MOL0     C37571   4.147   7.289   8.340 -0.1820  0.2662  0.7730
  273MOL0     O37572   4.265   7.244   8.278 -0.4812  0.0576 -0.5768
  273MOL0     C37573   4.390   7.280   8.339 -0.6853  0.2931  0.3266
  273MOL0     C37574   4.397   7.230   8.486 -0.2431 -0.3838 -0.1397
  273MOL0     C37575   4.380   7.078   8.504 -0.2235 -0.2412  0.1755
  273MOL0     C37576   4.416   7.030   8.644 -0.6621 -0.2296 -0.4726
  273MOL0     C37577   4.416   6.879   8.653 -0.1252 -0.0744  0.0476
  273MOL0     C37578   4.472   6.833   8.788 -0.1082  0.4133 -0.2417
  273MOL0     C37579   4.402   6.907   8.906 -0.1968  0.1804 -0.8380
  273MOL0     C37580   4.446   6.845   9.045 -0.4075  0.0482  0.3521
  273MOL0    Cl37581   4.616   6.856   9.074 -0.1620  0.0863  0.0547
  273MOL0     C37582   4.133   7.398   8.432 -0.4323  0.3216  0.1928
  273MOL0     C37583   4.007   7.428   8.486 -0.5538  0.7474  0.4247
  273MOL0     O37584   3.651   7.246   8.445 -0.1559 -0.3015  0.3141
  273MOL0     C37585   3.556   7.578   8.424 -0.5152  0.8871  1.1975
  273MOL0     C37586   3.457   7.671   8.412 -0.0270  0.6651  0.0761
  273MOL0     N37587   2.851   7.797   7.819  0.1524  0.4334  0.3472
  273MOL0     N37588   2.724   7.794   7.791  0.1092  0.2031  0.6420
  273MOL0     C37589   1.380   7.913   7.854 -0.1107 -0.3676 -0.3514
  273MOL0     C37590   1.271   7.971   7.787  0.8937  0.4869 -0.5422
  273MOL0     C37591   0.978   8.223   7.523  0.1929 -0.7977  1.1340
  273MOL0     C37592   0.902   8.112   7.514 -0.3151  0.2092 -1.1077
  273MOL0     C37593   0.769   8.109   7.469  0.5903 -0.7748 -0.0878
  273MOL0     C37594   0.705   8.234   7.444 -0.4530 -0.1281 -0.9320
  273MOL0     O37595   0.573   8.253   7.411 -0.1721  0.2882  0.0690
  273MOL0     C37596   0.503   8.142   7.349 -0.5261 -0.4739  0.1732
  273MOL0     C37597   0.379   8.211   7.288  0.6117  0.0229 -0.5659
  273MOL0     C37598   0.397   8.345   7.202 -0.9504 -0.1212  0.4800
  273MOL0     C37599   0.471   8.327   7.070 -0.3011 -0.7266 -0.5213
  273MOL0     C37600   0.554   8.445   7.055 -0.3181 -0.1903  0.3427
  273MOL0     C37601   0.617   8.539   7.022 -0.6656 -0.4196 -0.2158
  273MOL0     C37602   0.789   8.349   7.453  0.7795 -0.1166  0.2781
  273MOL0     C37603   0.916   8.352   7.485 -0.0434 -0.9601 -0.4943
  273MOL0     C37604   0.989   8.487   7.486 -0.2147 -0.0311  0.0077
  273MOL0     H37605   1.422   8.182   7.570  0.3020  0.0588  0.1436
  273MOL0     H37606   1.607   8.107   7.687  1.4540 -2.0915  0.1729
  273MOL0     H37607   1.777   8.037   7.853 -1.1252  0.4443  0.4577
  273MOL0     H37608   1.775   7.894   7.732 -0.9870 -2.6469  0.9467
  273MOL0     H37609   1.828   7.885   8.020  0.0134 -0.5525 -0.4782
  273MOL0     H37610   1.856   7.753   7.908 -3.0953 -0.2798 -0.6962
  273MOL0     H37611   2.013   7.889   7.787  1.4269 -1.2052  0.8719
  273MOL0     H37612   2.009   8.025   7.899 -0.2549  0.8594 -1.6132
  273MOL0     H37613   2.079   7.881   8.090  0.7993 -0.8708  0.1079
  273MOL0     H37614   2.059   7.736   7.988 -0.8774  0.5455 -2.4166
  273MOL0     H37615   2.266   7.948   7.925 -0.1371  0.4664  2.4865
  273MOL0     H37616   2.238   7.792   7.845  1.3849  1.1699 -1.1510
  273MOL0     H37617   2.286   7.825   8.142 -0.6370 -2.3721  0.6546
  273MOL0     H37618   2.295   7.672   8.046 -3.1089  0.6929 -1.3817
  273MOL0     H37619   2.507   7.769   8.116  0.9864  1.8620  0.8372
  273MOL0     H37620   2.482   7.903   7.990  0.5962  0.5476  2.8906
  273MOL0     H37621   2.495   7.603   7.922  0.0731 -0.1100 -4.2707
  273MOL0     H37622   2.482   7.730   7.812 -0.6559 -1.0630  0.2166
  273MOL0     H37623   2.740   7.643   8.085 -0.5095  1.0334  0.2495
  273MOL0     H37624   3.053   7.823   7.980  2.3187  0.1825  1.2002
  273MOL0     H37625   3.053   7.643   7.966  2.9604  2.0112 -1.4969
  273MOL0     H37626   2.930   7.803   8.192 -2.0799 -1.7719 -0.9659
  273MOL0     H37627   2.959   7.629   8.191 -1.1835  0.6117  1.8191
  273MOL0     H37628   3.226   7.687   8.185 -1.6605 -4.0052  1.5414
  273MOL0     H37629   3.159   7.852   8.222  1.3646 -0.4388 -2.0784
  273MOL0     H37630   3.037   7.747   8.419 -0.6897 -0.7947  0.4776
  273MOL0     H37631   3.115   7.596   8.379 -0.5314  0.4721 -0.8186
  273MOL0     H37632   3.220   7.478   8.561  0.4986 -0.7108  1.0846
  273MOL0     H37633   3.298   7.230   8.491 -1.9567 -0.2604  1.2628
  273MOL0     H37634   3.314   7.282   8.651 -0.1481  4.9744 -0.6641
  273MOL0     H37635   3.462   7.207   8.579  2.1498  2.9397 -0.2191
  273MOL0     H37636   3.813   7.225   8.317 -1.3206 -1.1160  2.1072
  273MOL0     H37637   4.025   7.158   8.212  1.2614 -0.3252  0.6970
  273MOL0     H37638   4.479   7.231   8.297  0.3851  2.9397 -0.6658
  273MOL0     H37639   4.407   7.387   8.329 -1.3991  0.3903  0.1333
  273MOL0     H37640   4.494   7.263   8.525 -0.5727  3.2749 -2.0210
  273MOL0     H37641   4.314   7.272   8.543 -2.0356 -0.3488 -2.6379
  273MOL0     H37642   4.442   7.031   8.428  4.4213  3.0036  1.5179
  273MOL0     H37643   4.274   7.055   8.488 -0.5071  1.6728 -1.0064
  273MOL0     H37644   4.343   7.065   8.717  3.0841  1.9417  2.5729
  273MOL0     H37645   4.515   7.059   8.679 -1.8383  0.5769  2.4254
  273MOL0     H37646   4.318   6.832   8.644 -0.0183 -0.1476 -0.8632
  273MOL0     H37647   4.473   6.853   8.563 -0.3681  1.0406 -0.4505
  273MOL0     H37648   4.579   6.854   8.779  0.0059  0.4310  0.9844
  273MOL0     H37649   4.469   6.725   8.803  2.8098  0.5577  2.2475
  273MOL0     H37650   4.293   6.901   8.913 -0.2959  1.8912 -0.3700
  273MOL0     H37651   4.429   7.013   8.901  0.9759 -0.0984 -0.7086
  273MOL0     H37652   4.422   6.739   9.056  5.0888 -1.3673  1.4542
  273MOL0     H37653   4.400   6.898   9.129  2.3709  1.1206  1.2899
  273MOL0     H37654   4.211   7.453   8.483  0.1549 -0.9426  0.6863
  273MOL0     H37655   3.991   7.482   8.579 -0.5020 -1.0159  1.5131
  273MOL0     H37656   3.655   7.608   8.390  0.4571  0.0801  3.1781
  273MOL0     H37657   3.502   7.754   8.359  3.9590 -2.1214 -1.4582
  273MOL0     H37658   1.378   7.836   7.931  1.7365 -1.4816 -1.3305
  273MOL0     H37659   1.176   7.924   7.810  0.8972  0.6710 -0.1412
  273MOL0     H37660   0.940   8.014   7.540 -0.5792  0.1565 -0.9096
  273MOL0     H37661   0.717   8.015   7.455 -1.2578  0.5868 -3.7958
  273MOL0     H37662   0.565   8.090   7.275 -2.6437 -2.1153 -0.5462
  273MOL0     H37663   0.476   8.063   7.419 -2.2456 -0.7272 -0.7301
  273MOL0     H37664   0.318   8.241   7.373  0.6273 -0.9893 -0.1812
  273MOL0     H37665   0.324   8.133   7.234  0.4226 -2.1237  2.4497
  273MOL0     H37666   0.296   8.377   7.176 -0.6975  0.0050 -0.3950
  273MOL0     H37667   0.442   8.425   7.261 -3.2175  0.5486  1.3884
  273MOL0     H37668   0.399   8.336   6.988 -0.9125  1.1319  0.1422
  273MOL0     H37669   0.520   8.230   7.058  1.1393 -0.5377  2.7179
  273MOL0     H37670   0.677   8.621   6.989  0.6304 -1.8247 -1.5616
  273MOL0     H37671   0.740   8.445   7.444 -0.4984 -0.6142  1.5043
  273MOL0     H37672   1.060   8.493   7.403  1.1575  1.8133  1.2555
  273MOL0     H37673   0.915   8.566   7.470  1.9599  1.6775 -2.1904
  273MOL0     H37674   1.035   8.521   7.579 -2.6956  0.6829  1.0733
  274MOL0     O37675   8.149   3.947   4.811 -0.2950 -0.5503  0.3944
  274MOL0     C37676   8.067   3.980   4.894  0.6312  0.8132 -0.3995
  274MOL0     O37677   8.080   4.094   4.968 -0.0186  0.4123  0.0643
  274MOL0     C37678   8.199   4.161   4.958 -0.4854  0.4671 -0.1290
  274MOL0     C37679   8.230   4.216   4.827 -0.8307 -1.0043 -0.5796
  274MOL0     C37680   8.326   4.312   4.813 -0.1848 -0.3805 -0.9467
  274MOL0     C37681   8.403   4.366   4.917  0.3026 -0.0543  0.5985
  274MOL0     O37682   8.525   4.430   4.895  0.5493  0.2581  1.1550
  274MOL0     C37683   8.534   4.522   4.782 -0.7591 -0.3934  0.5772
  274MOL0     C37684   8.670   4.589   4.775  1.3343 -0.5167  0.1412
  274MOL0     C37685   8.701   4.708   4.871  0.5876 -0.3400  0.4073
  274MOL0     C37686   8.846   4.757   4.850 -0.5007 -1.0799 -0.2590
  274MOL0     C37687   8.865   4.904   4.896 -0.2471  0.2998  0.0988
  274MOL0     C37688   9.005   4.960   4.877  0.6733 -0.2468  0.4960
  274MOL0     C37689   8.993   5.107   4.931  0.5415  0.2536  0.8799
  274MOL0     C37690   9.131   5.169   4.917  0.5520 -0.8625  0.2735
  274MOL0     N37691   9.226   5.109   5.014 -0.0181  0.4470 -0.6652
  274MOL0     C37692   9.363   5.088   5.007 -0.5525 -0.0524 -0.1934
  274MOL0     C37693   9.393   5.008   5.110  0.0027  0.1437  1.2299
  274MOL0     C37694   9.538   4.978   5.162 -0.2979  0.0176 -0.3580
  274MOL0     C37695   9.627   4.909   5.055  0.3877  1.1157  0.3970
  274MOL0     C37696   9.739   4.817   5.104 -0.6440 -0.4789  0.0669
  274MOL0     C37697   9.818   4.882   5.217 -0.4406 -0.7289 -0.5332
  274MOL0     O37698   9.946   4.825   5.244  0.3715 -0.6921 -0.1018
  274MOL0     C37699  10.053   4.866   5.171 -0.1138  0.3806  0.2405
  274MOL0     C37700  10.047   4.960   5.062 -0.2426  0.7277  0.3901
  274MOL0     C37701  10.166   5.010   5.003  0.2596  0.3456 -0.1432
  274MOL0     C37702  10.145   5.104   4.883  0.3196  0.4385  0.2537
  274MOL0     C37703  10.288   4.954   5.041 -0.1623  0.2515  0.8666
  274MOL0     C37704  10.416   4.985   4.978 -0.8872  0.1849 -0.5942
  274MOL0     O37705  10.419   5.108   4.911 -0.0832 -0.3112  0.0074
  274MOL0     C37706  10.525   5.157   4.829 -0.3470 -0.8439 -0.4717
  274MOL0     C37707  10.501   5.207   4.702  0.2790 -0.4392  0.2513
  274MOL0     C37708  10.608   5.248   4.627  0.2466 -0.1413 -0.4812
  274MOL0     C37709  10.739   5.251   4.667 -0.1275 -0.1252  0.4892
  274MOL0     O37710  10.851   5.296   4.598  0.5247 -0.2915 -0.0760
  274MOL0     C37711  10.850   5.296   4.456  0.0966  0.6547 -0.2327
  274MOL0     C37712  10.990   5.276   4.399  0.3294  0.2425 -0.4769
  274MOL0     C37713  11.106   5.349   4.483  0.4906  0.3137  0.9566
  274MOL0     C37714  11.226   5.378   4.387  0.2063  0.1348 -0.2353
  274MOL0     C37715  11.344   5.440   4.458  0.1727  0.8031  0.8212
  274MOL0     C37716  11.465   5.410   4.367 -0.0643  0.0097 -0.0102
  274MOL0     C37717  11.586   5.472   4.431 -0.2990 -0.1044 -0.5683
  274MOL0     C37718  11.637   5.390   4.544 -0.1895 -0.7117 -0.0134
  274MOL0    Cl37719  11.774   5.275   4.490  0.1628  0.1026  0.0726
  274MOL0     C37720  10.761   5.205   4.795  0.5068 -0.1587 -0.4531
  274MOL0     C37721  10.655   5.158   4.874 -0.0750  0.5239 -0.3730
  274MOL0     O37722  10.517   4.910   4.994 -0.0639 -0.0436  0.1294
  274MOL0     C37723  10.298   4.865   5.146 -0.2886  0.7471  0.2700
  274MOL0     C37724  10.178   4.817   5.211 -0.0190  0.1230 -0.1223
  274MOL0     N37725   9.286   4.978   5.179 -0.6196  0.1559  0.0572
  274MOL0     N37726   9.184   5.042   5.122  0.1148 -0.0331 -0.5011
  274MOL0     C37727   8.381   4.310   5.050  0.0315  0.4101  0.2554
  274MOL0     C37728   8.274   4.207   5.068  0.3306 -0.2200 -0.3924
  274MOL0     C37729   7.955   3.893   4.918 -0.3347 -0.6458 -0.3906
  274MOL0     C37730   7.860   3.945   5.014  0.0319  0.3678  0.5087
  274MOL0     C37731   7.750   3.871   5.050 -0.0492 -0.0062  0.7495
  274MOL0     C37732   7.720   3.747   4.987  0.1012 -0.5877  0.1879
  274MOL0     O37733   7.621   3.662   5.015 -0.0692 -0.8960  0.1935
  274MOL0     C37734   7.505   3.712   5.088  0.3588  0.3224  0.2088
  274MOL0     C37735   7.401   3.608   5.052  0.4652  0.1223  0.7869
  274MOL0     C37736   7.277   3.628   5.128  0.7287 -0.8904  0.6976
  274MOL0     C37737   7.196   3.504   5.131 -0.1224 -0.5176 -0.2255
  274MOL0     C37738   7.065   3.526   5.191  0.1230  0.4861  0.6311
  274MOL0     C37739   6.947   3.558   5.221  0.6914 -0.4038 -0.1573
  274MOL0     C37740   7.817   3.702   4.909 -0.1788  0.0304  0.1458
  274MOL0     C37741   7.933   3.770   4.868 -0.0610 -0.0581 -0.3575
  274MOL0     C37742   8.014   3.706   4.758 -0.0382 -0.1569  0.2070
  274MOL0     H37743   8.167   4.189   4.743  0.5813 -0.9778 -1.6767
  274MOL0     H37744   8.349   4.340   4.711  0.2454 -2.7386 -1.5611
  274MOL0     H37745   8.461   4.603   4.789 -0.1210  0.1746  0.7653
  274MOL0     H37746   8.522   4.470   4.686  0.3360 -0.1539  0.3021
  274MOL0     H37747   8.742   4.512   4.807 -0.9643 -1.9892  2.0796
  274MOL0     H37748   8.685   4.633   4.676 -1.4552  2.6637  0.9695
  274MOL0     H37749   8.635   4.793   4.847  0.7592 -0.3741 -0.2036
  274MOL0     H37750   8.686   4.686   4.977  0.1258  0.1697  0.4536
  274MOL0     H37751   8.920   4.692   4.897  0.5886  0.3281  0.0289
  274MOL0     H37752   8.861   4.741   4.742  0.5390 -0.2984 -0.2481
  274MOL0     H37753   8.826   4.904   4.999  0.9624 -0.7957  0.5909
  274MOL0     H37754   8.795   4.959   4.832  0.6820  0.9391 -0.3771
  274MOL0     H37755   9.086   4.915   4.934  0.8165  0.6019  0.9821
  274MOL0     H37756   9.026   4.942   4.771  2.8306 -3.2948  1.3001
  274MOL0     H37757   8.953   5.117   5.032 -2.5495 -0.9396 -0.1210
  274MOL0     H37758   8.922   5.160   4.867 -0.6231 -0.2572  1.7127
  274MOL0     H37759   9.165   5.155   4.814 -0.7930 -0.0210 -0.3182
  274MOL0     H37760   9.116   5.275   4.936 -1.3581 -0.9533 -0.5003
  274MOL0     H37761   9.442   5.116   4.937  0.3469 -1.2590  0.2892
  274MOL0     H37762   9.522   4.910   5.247 -2.2900  0.1579 -0.5878
  274MOL0     H37763   9.582   5.071   5.198  0.1496 -0.9587  1.7901
  274MOL0     H37764   9.569   4.856   4.979  0.1949  0.6257  0.8794
  274MOL0     H37765   9.668   4.983   4.986 -1.1358  1.5061 -0.1347
  274MOL0     H37766   9.699   4.721   5.139 -1.5800  0.1517  0.8067
  274MOL0     H37767   9.813   4.797   5.027  0.8535 -0.6104  1.4859
  274MOL0     H37768   9.831   4.990   5.200  1.6156 -0.9325 -0.4257
  274MOL0     H37769   9.764   4.868   5.311 -0.2934  1.4341 -0.0800
  274MOL0     H37770   9.949   4.987   5.024  0.1155  3.2821  1.1175
  274MOL0     H37771  10.212   5.073   4.803  0.0526  2.2647 -0.7208
  274MOL0     H37772  10.185   5.205   4.900 -1.7412  0.9903  2.4181
  274MOL0     H37773  10.042   5.115   4.847 -0.5595  1.3441  2.7934
  274MOL0     H37774  10.398   5.220   4.671 -0.3929 -1.5115  1.8910
  274MOL0     H37775  10.573   5.288   4.532 -0.0563  0.7499 -0.0072
  274MOL0     H37776  10.782   5.222   4.413  1.6166 -1.5957  1.0238
  274MOL0     H37777  10.806   5.394   4.435  1.2306  1.3917  0.6921
  274MOL0     H37778  11.017   5.171   4.413  0.9512  0.1037 -2.3858
  274MOL0     H37779  11.004   5.281   4.291  2.9683 -2.1294 -0.3459
  274MOL0     H37780  11.139   5.284   4.564 -0.6163  1.1097  2.0830
  274MOL0     H37781  11.070   5.446   4.520 -1.3643 -0.4292  1.1994
  274MOL0     H37782  11.208   5.451   4.307 -1.2089 -0.3943 -0.4299
  274MOL0     H37783  11.256   5.286   4.335  1.4922  0.4529 -0.0995
  274MOL0     H37784  11.328   5.548   4.460  0.1707  0.8037  0.7698
  274MOL0     H37785  11.352   5.406   4.562 -2.4154 -2.8229  0.0380
  274MOL0     H37786  11.445   5.446   4.265 -2.6527  1.2281  0.8536
  274MOL0     H37787  11.480   5.304   4.344 -0.8464  0.0471 -0.7417
  274MOL0     H37788  11.547   5.567   4.470 -0.5597 -1.8794  4.0973
  274MOL0     H37789  11.667   5.479   4.357  0.3769 -1.4500  0.0038
  274MOL0     H37790  11.560   5.327   4.590  3.6483 -3.7843  2.9390
  274MOL0     H37791  11.681   5.452   4.623  0.8248  0.8247 -1.7032
  274MOL0     H37792  10.861   5.207   4.837 -0.6269 -1.2943  2.5942
  274MOL0     H37793  10.667   5.118   4.975 -4.3308 -0.5389 -0.0741
  274MOL0     H37794  10.390   4.823   5.187 -0.5997  2.4048  2.8706
  274MOL0     H37795  10.185   4.752   5.298 -3.2819  1.9735  1.7403
  274MOL0     H37796   8.440   4.340   5.136 -0.7512 -0.0945  0.9814
  274MOL0     H37797   8.240   4.181   5.168 -2.0126 -1.0359 -1.3293
  274MOL0     H37798   7.872   4.034   5.076 -1.6846  2.0029 -1.3483
  274MOL0     H37799   7.683   3.927   5.113  0.1343 -0.2693  1.1807
  274MOL0     H37800   7.518   3.714   5.196 -0.8981 -1.6868  0.4373
  274MOL0     H37801   7.476   3.812   5.053 -0.0923 -0.2113 -0.9631
  274MOL0     H37802   7.435   3.507   5.074 -0.1561 -0.0832  0.7928
  274MOL0     H37803   7.381   3.609   4.945  0.8964  3.8513  0.5952
  274MOL0     H37804   7.295   3.663   5.230 -0.3346  1.4315  0.1757
  274MOL0     H37805   7.226   3.710   5.075 -0.2286 -2.0553 -0.2472
  274MOL0     H37806   7.246   3.428   5.192 -0.4190 -1.4221 -1.0776
  274MOL0     H37807   7.189   3.456   5.033  0.6125 -1.4316  0.1597
  274MOL0     H37808   6.841   3.570   5.231  0.1765 -2.6248 -2.1584
  274MOL0     H37809   7.812   3.596   4.887  0.0226 -0.3014  1.5780
  274MOL0     H37810   8.011   3.765   4.666 -0.4023  1.1863  1.0472
  274MOL0     H37811   8.116   3.693   4.795 -0.5535  0.9495  2.1994
  274MOL0     H37812   7.961   3.614   4.730 -1.3076  1.5882 -3.8314
  275MOL0     O37813   7.161   6.653   3.205 -1.2976  0.2295  0.3677
  275MOL0     C37814   7.163   6.767   3.239  0.5427 -0.0848 -0.1283
  275MOL0     O37815   7.274   6.838   3.281 -0.2525  0.7064 -0.1003
  275MOL0     C37816   7.389   6.765   3.282  0.2600  0.9305  0.8024
  275MOL0     C37817   7.473   6.770   3.167  0.4727 -0.7777 -0.2559
  275MOL0     C37818   7.598   6.717   3.178 -0.3131  0.0512 -0.4276
  275MOL0     C37819   7.630   6.631   3.275 -0.5698 -0.6844  0.3310
  275MOL0     O37820   7.740   6.555   3.272  0.0525 -0.4048 -0.4717
  275MOL0     C37821   7.861   6.595   3.203  0.2313  0.2659 -0.4117
  275MOL0     C37822   7.963   6.489   3.235 -0.8693 -0.2616 -0.3488
  275MOL0     C37823   8.093   6.543   3.173  0.0323 -0.6187 -0.3072
  275MOL0     C37824   8.212   6.455   3.209  0.5695 -0.4789  0.3196
  275MOL0     C37825   8.355   6.488   3.159  0.4620  0.3970 -0.1069
  275MOL0     C37826   8.349   6.502   3.012  0.4116  0.2849 -0.4016
  275MOL0     C37827   8.492   6.531   2.964  0.6141 -0.1445  0.7214
  275MOL0     C37828   8.542   6.671   2.979  0.2791  0.4190 -0.0633
  275MOL0     N37829   8.686   6.666   3.023  0.1975  0.2820 -0.1620
  275MOL0     C37830   8.787   6.591   2.958 -0.0751  0.2053  0.0034
  275MOL0     C37831   8.896   6.652   3.002  0.6072  0.5513  0.8082
  275MOL0     C37832   9.033   6.614   2.954 -0.4649  0.3673 -0.4624
  275MOL0     C37833   9.107   6.542   3.076 -0.0093 -0.9751 -0.0921
  275MOL0     C37834   9.246   6.488   3.031  0.4067  0.5746  0.7588
  275MOL0     C37835   9.341   6.601   3.040  0.1816  0.4614 -0.1226
  275MOL0     O37836   9.456   6.552   2.970  0.0871 -0.0777 -0.2498
  275MOL0     C37837   9.571   6.566   3.039 -0.1069 -0.1113  0.8221
  275MOL0     C37838   9.614   6.692   3.085  0.6211 -0.4792  0.3265
  275MOL0     C37839   9.741   6.708   3.140 -0.6330  0.0268 -1.2574
  275MOL0     C37840   9.770   6.833   3.219 -0.7625 -0.2436  0.4322
  275MOL0     C37841   9.822   6.589   3.161  0.3703  0.0605  1.1693
  275MOL0     C37842   9.953   6.593   3.233  0.0586 -0.2359  0.4290
  275MOL0     O37843  10.029   6.707   3.226 -0.4141  0.2111 -0.5324
  275MOL0     C37844  10.138   6.705   3.311 -0.0880  0.1977 -0.8874
  275MOL0     C37845  10.130   6.780   3.438  0.7619 -0.0892 -0.7562
  275MOL0     C37846  10.246   6.775   3.522  0.2900  0.4426 -0.6485
  275MOL0     C37847  10.362   6.714   3.486 -0.4463  1.2591 -0.2652
  275MOL0     O37848  10.466   6.710   3.576 -0.5472  0.4075 -0.3101
  275MOL0     C37849  10.591   6.647   3.552 -0.7297  0.8099  0.6196
  275MOL0     C37850  10.681   6.672   3.670  0.4193  0.8882  0.3422
  275MOL0     C37851  10.819   6.596   3.666  0.2951  0.2014 -0.9576
  275MOL0     C37852  10.921   6.668   3.757 -0.1018  0.3175  0.7735
  275MOL0     C37853  11.059   6.585   3.768 -0.4432  0.2930  0.4604
  275MOL0     C37854  11.136   6.596   3.630 -0.0248  0.6715 -0.2287
  275MOL0     C37855  11.290   6.592   3.659 -0.8870 -0.2860 -0.2503
  275MOL0     C37856  11.353   6.553   3.527 -0.2539  0.4133 -0.4234
  275MOL0    Cl37857  11.527   6.526   3.568 -0.3305 -0.2302 -0.0775
  275MOL0     C37858  10.366   6.641   3.366  0.3858 -0.4976 -0.2344
  275MOL0     C37859  10.257   6.631   3.281  0.6190 -0.0388 -0.4188
  275MOL0     O37860   9.992   6.485   3.276 -0.0890 -0.4499  0.2119
  275MOL0     C37861   9.777   6.468   3.109 -0.5219 -0.0394 -0.4494
  275MOL0     C37862   9.658   6.457   3.046 -0.3107  0.3121 -0.4337
  275MOL0     N37863   8.874   6.761   3.085 -0.9541  0.1422 -0.0494
  275MOL0     N37864   8.746   6.765   3.105  0.4582 -0.2538 -0.3551
  275MOL0     C37865   7.538   6.609   3.377  0.9466  0.3914  0.0142
  275MOL0     C37866   7.420   6.679   3.388 -1.0084 -0.9875  0.6932
  275MOL0     C37867   7.025   6.831   3.233 -0.0261  0.0240 -0.4604
  275MOL0     C37868   6.972   6.894   3.353  0.0958 -0.6877 -0.4912
  275MOL0     C37869   6.836   6.937   3.364 -0.2407  0.2023 -0.1916
  275MOL0     C37870   6.757   6.941   3.247  0.2090 -0.3670 -0.2367
  275MOL0     O37871   6.627   6.978   3.234  0.4548  0.3829 -0.0965
  275MOL0     C37872   6.566   7.010   3.361 -0.2242  0.4251 -0.5297
  275MOL0     C37873   6.419   7.053   3.361  0.3778 -0.2450  0.7243
  275MOL0     C37874   6.374   7.117   3.493  0.2407  0.7294  0.6626
  275MOL0     C37875   6.233   7.182   3.492 -0.8754  0.2376 -0.0754
  275MOL0     C37876   6.223   7.299   3.411 -0.2983 -0.2642  0.1753
  275MOL0     C37877   6.234   7.404   3.344 -0.1118  0.7353  0.4851
  275MOL0     C37878   6.808   6.893   3.130  0.7459 -0.4722 -0.7698
  275MOL0     C37879   6.936   6.832   3.123 -0.1708  0.4609  0.3088
  275MOL0     C37880   6.986   6.776   2.993  0.3205 -0.0660 -0.1273
  275MOL0     H37881   7.449   6.848   3.095 -0.2807  0.5420  1.3387
  275MOL0     H37882   7.674   6.745   3.105  0.9803 -0.6722  0.6129
  275MOL0     H37883   7.885   6.691   3.249 -0.8585  0.9029 -1.1162
  275MOL0     H37884   7.843   6.595   3.095 -2.5430  0.9016 -0.0118
  275MOL0     H37885   7.963   6.483   3.344 -2.2319 -0.7090 -0.3541
  275MOL0     H37886   7.925   6.393   3.198 -0.4519 -0.7356  0.4261
  275MOL0     H37887   8.075   6.547   3.065 -0.6447 -1.0799 -0.2172
  275MOL0     H37888   8.093   6.647   3.208  1.0305 -0.6433 -0.1953
  275MOL0     H37889   8.219   6.466   3.317  2.2585  0.4453  0.1416
  275MOL0     H37890   8.194   6.350   3.183 -0.9932 -0.1348 -0.0917
  275MOL0     H37891   8.418   6.405   3.194 -2.0137 -0.9146  1.5785
  275MOL0     H37892   8.403   6.578   3.197  0.8236  0.2479 -0.2062
  275MOL0     H37893   8.325   6.402   2.974 -0.8432  0.1198  0.7648
  275MOL0     H37894   8.276   6.577   2.980 -0.2928 -0.4541 -0.5726
  275MOL0     H37895   8.497   6.498   2.860 -0.6661 -2.6652  1.3754
  275MOL0     H37896   8.557   6.458   3.012  1.0147 -0.2283  0.0494
  275MOL0     H37897   8.548   6.725   2.884 -0.2402  1.7174  0.6197
  275MOL0     H37898   8.469   6.723   3.041  0.4149  0.7196 -0.1500
  275MOL0     H37899   8.784   6.520   2.876 -1.5320  2.6413 -2.2006
  275MOL0     H37900   9.091   6.700   2.920 -2.2062  2.7138  2.0903
  275MOL0     H37901   9.038   6.545   2.870  0.3073  0.3029 -0.3665
  275MOL0     H37902   9.109   6.610   3.162 -3.4404  1.2511 -1.5479
  275MOL0     H37903   9.041   6.457   3.099 -2.5669  0.3589 -1.9890
  275MOL0     H37904   9.279   6.411   3.101 -0.1041  0.7578  1.2070
  275MOL0     H37905   9.235   6.433   2.938  1.2163 -2.4931  2.3624
  275MOL0     H37906   9.309   6.688   2.982  3.0071  0.4322 -1.8801
  275MOL0     H37907   9.364   6.629   3.143 -2.7266 -0.0608  0.7705
  275MOL0     H37908   9.553   6.781   3.073  0.4788 -0.4562  1.1943
  275MOL0     H37909   9.677   6.888   3.239 -1.1160 -0.5961 -0.1995
  275MOL0     H37910   9.837   6.896   3.159  0.4857  0.5463  2.5663
  275MOL0     H37911   9.809   6.803   3.316 -0.7943 -0.7544  0.2914
  275MOL0     H37912  10.044   6.844   3.454  1.1498  0.3167 -0.3154
  275MOL0     H37913  10.234   6.827   3.616 -0.1766  0.2418 -0.5951
  275MOL0     H37914  10.579   6.539   3.537  3.2829  0.5579 -2.5673
  275MOL0     H37915  10.626   6.683   3.455  0.1550  3.0950  1.7235
  275MOL0     H37916  10.694   6.780   3.682  4.3246  0.6355 -0.2680
  275MOL0     H37917  10.621   6.648   3.759  2.0842 -0.8101  1.0662
  275MOL0     H37918  10.851   6.586   3.562  0.2888  0.9179 -1.0347
  275MOL0     H37919  10.814   6.499   3.717  0.7875 -0.0646 -1.4104
  275MOL0     H37920  10.890   6.679   3.862 -0.0805  0.5808  0.7551
  275MOL0     H37921  10.950   6.768   3.722  3.5727 -1.2376 -1.2282
  275MOL0     H37922  11.126   6.624   3.845 -0.0973  0.2217  0.1998
  275MOL0     H37923  11.031   6.480   3.782 -2.3663  0.5325 -1.0380
  275MOL0     H37924  11.105   6.693   3.591 -2.0480  0.3565  0.4775
  275MOL0     H37925  11.104   6.524   3.553 -1.5577  1.1394 -0.0459
  275MOL0     H37926  11.311   6.530   3.746 -0.5993  2.4054  1.7065
  275MOL0     H37927  11.331   6.691   3.679 -0.6108 -0.8827  2.4051
  275MOL0     H37928  11.346   6.641   3.461  2.6133  0.4796 -0.7479
  275MOL0     H37929  11.291   6.472   3.489 -0.1343  0.1030  0.0395
  275MOL0     H37930  10.456   6.589   3.335  0.4526  0.0400 -0.9726
  275MOL0     H37931  10.257   6.585   3.183 -2.3167  0.7570 -0.8802
  275MOL0     H37932   9.837   6.379   3.113  2.7782  1.8947 -2.2324
  275MOL0     H37933   9.626   6.358   3.015  0.6268  0.1338 -0.8886
  275MOL0     H37934   7.561   6.531   3.449 -0.2691  1.7093  1.9033
  275MOL0     H37935   7.363   6.660   3.479 -1.2942 -2.0057  0.3170
  275MOL0     H37936   7.029   6.899   3.445  3.6329 -0.8608 -2.4685
  275MOL0     H37937   6.803   6.982   3.457  3.4862  0.7014  1.0844
  275MOL0     H37938   6.567   6.931   3.437  4.5995 -1.0019 -1.7040
  275MOL0     H37939   6.627   7.090   3.404 -0.7579  0.7902 -0.4557
  275MOL0     H37940   6.362   6.960   3.347  0.0929  0.2019 -1.3449
  275MOL0     H37941   6.397   7.121   3.278  0.6538  1.6518  2.1278
  275MOL0     H37942   6.377   7.037   3.568 -1.6870 -0.4151 -0.4174
  275MOL0     H37943   6.452   7.185   3.527  1.1427 -0.6769  1.5324
  275MOL0     H37944   6.223   7.205   3.599 -0.6270 -0.2163  0.0457
  275MOL0     H37945   6.162   7.112   3.448 -1.0014 -0.1522  0.7241
  275MOL0     H37946   6.267   7.486   3.285 -0.8041  0.2831 -0.5550
  275MOL0     H37947   6.752   6.908   3.038  1.6665 -1.2225 -1.4624
  275MOL0     H37948   6.930   6.821   2.910  0.0686  1.3844  0.8030
  275MOL0     H37949   7.093   6.781   2.973  0.6077 -1.0780  1.0169
  275MOL0     H37950   6.966   6.668   2.998 -1.7009  0.2260 -0.6745
  276MOL0     O37951   9.733   7.175   7.312  0.7195 -0.4541 -0.3713
  276MOL0     C37952   9.640   7.101   7.289 -0.0802 -0.3442 -0.1304
  276MOL0     O37953   9.645   6.978   7.238  0.0324 -0.4833  0.7484
  276MOL0     C37954   9.777   6.933   7.214  0.1512  0.3526  0.6170
  276MOL0     C37955   9.860   6.883   7.314 -0.3215  0.4927  0.0885
  276MOL0     C37956   9.997   6.859   7.300 -0.6206  0.1228  0.1254
  276MOL0     C37957  10.056   6.861   7.168  0.6694 -0.3365  0.4981
  276MOL0     O37958  10.187   6.835   7.136 -0.1860  0.4415  0.6101
  276MOL0     C37959  10.281   6.836   7.251  0.2104 -0.7563 -0.1797
  276MOL0     C37960  10.410   6.773   7.201  0.3179 -0.3433  0.2886
  276MOL0     C37961  10.460   6.821   7.060  0.4304 -1.0461  0.4397
  276MOL0     C37962  10.520   6.960   7.058  0.3009 -0.5443 -0.2236
  276MOL0     C37963  10.618   6.975   6.939 -0.0450  0.0050 -0.2278
  276MOL0     C37964  10.684   7.113   6.928 -0.3389 -0.5591 -0.4066
  276MOL0     C37965  10.760   7.123   6.795  0.2315 -0.0228 -0.0499
  276MOL0     C37966  10.796   7.262   6.767 -0.0532  0.9632 -0.2338
  276MOL0     N37967  10.892   7.282   6.664 -0.1334 -0.9446  0.3311
  276MOL0     C37968  10.861   7.247   6.532 -0.5403 -0.5263  0.4149
  276MOL0     C37969  10.978   7.271   6.465  0.1114 -0.3337  0.0161
  276MOL0     C37970  10.985   7.286   6.315 -0.6340  0.0953  0.0189
  276MOL0     C37971  11.097   7.209   6.247  0.5338  0.0880  0.5124
  276MOL0     C37972  11.237   7.252   6.277  0.3557  0.2123  0.4167
  276MOL0     C37973  11.333   7.145   6.228 -0.1972 -0.0695 -1.5337
  276MOL0     O37974  11.460   7.195   6.222 -0.5606 -0.1929  1.0220
  276MOL0     C37975  11.564   7.122   6.167  0.1561  0.2278 -0.9387
  276MOL0     C37976  11.692   7.176   6.187 -0.5177  0.0211  0.4405
  276MOL0     C37977  11.806   7.108   6.148  0.1862 -0.7451  0.2299
  276MOL0     C37978  11.941   7.170   6.165  0.2397  0.0813 -0.1320
  276MOL0     C37979  11.797   6.985   6.071 -0.7128  0.2461  0.0365
  276MOL0     C37980  11.913   6.902   6.027 -0.6065 -0.2108 -0.1446
  276MOL0     O37981  11.916   6.866   5.891  0.1987 -0.2678 -0.2457
  276MOL0     C37982  12.013   6.783   5.850  0.6011  0.3779  0.4449
  276MOL0     C37983  11.986   6.646   5.819 -0.3710 -0.5991  0.9214
  276MOL0     C37984  12.095   6.571   5.773  0.4781  0.1233  0.6631
  276MOL0     C37985  12.221   6.617   5.756  0.3097  0.3153 -0.7583
  276MOL0     O37986  12.331   6.536   5.731 -0.5566  0.3415 -0.0190
  276MOL0     C37987  12.308   6.391   5.753  0.0047  0.1961  0.4353
  276MOL0     C37988  12.441   6.323   5.717  0.0798 -0.0329  0.1730
  276MOL0     C37989  12.472   6.321   5.569  0.6845  0.0771 -0.4167
  276MOL0     C37990  12.610   6.366   5.522 -0.3553  0.0364 -0.8129
  276MOL0     C37991  12.610   6.478   5.417  0.4712  0.7659 -0.2899
  276MOL0     C37992  12.740   6.488   5.333  0.9861  0.0480 -0.0404
  276MOL0     C37993  12.733   6.379   5.224  0.2913 -0.2951  0.0763
  276MOL0     C37994  12.837   6.409   5.115  0.5013 -0.4159 -0.3622
  276MOL0    Cl37995  12.807   6.571   5.022 -0.0156  0.1277  0.2906
  276MOL0     C37996  12.238   6.754   5.772 -0.1409 -0.3742 -0.7199
  276MOL0     C37997  12.144   6.841   5.827  0.1605  0.3118 -0.0462
  276MOL0     O37998  12.004   6.884   6.111 -0.1124  0.0207  0.2606
  276MOL0     C37999  11.670   6.932   6.061  0.9754  0.9667 -0.6574
  276MOL0     C38000  11.551   6.997   6.103 -0.3015  0.4136 -0.2737
  276MOL0     N38001  11.080   7.295   6.558  0.3262 -0.0456 -0.7399
  276MOL0     N38002  11.031   7.297   6.677  0.4283 -0.0628  0.1621
  276MOL0     C38003   9.967   6.893   7.065 -0.4128 -0.4135 -0.2323
  276MOL0     C38004   9.836   6.933   7.089 -0.3536 -0.1314  0.3431
  276MOL0     C38005   9.499   7.152   7.318 -0.4471 -0.5306  0.3360
  276MOL0     C38006   9.396   7.100   7.237  0.0748  0.0117 -1.1048
  276MOL0     C38007   9.268   7.151   7.247  0.2847 -0.0185  0.1789
  276MOL0     C38008   9.230   7.247   7.338 -0.0271 -0.2324  0.8204
  276MOL0     O38009   9.098   7.299   7.338 -0.6138 -1.1986  0.2798
  276MOL0     C38010   8.990   7.233   7.271  0.3312  0.4827  0.5707
  276MOL0     C38011   8.853   7.261   7.330 -0.2398 -0.2343 -0.7819
  276MOL0     C38012   8.816   7.411   7.302 -0.6053  0.2506  0.1752
  276MOL0     C38013   8.676   7.432   7.365 -0.0759 -0.2346 -0.0072
  276MOL0     C38014   8.617   7.559   7.346  0.0748  0.5354  1.4167
  276MOL0     C38015   8.583   7.678   7.330 -0.8882  0.5744 -0.2843
  276MOL0     C38016   9.328   7.297   7.423 -0.0519 -0.4665 -0.5556
  276MOL0     C38017   9.460   7.246   7.422  0.6470  0.9250  0.4660
  276MOL0     C38018   9.559   7.291   7.527 -0.5703  0.2541 -0.3012
  276MOL0     H38019   9.811   6.882   7.411 -2.7146  0.9996 -1.0639
  276MOL0     H38020  10.056   6.832   7.387  0.9985  0.6682 -0.7544
  276MOL0     H38021  10.263   6.776   7.341  0.1380 -1.1150 -0.4305
  276MOL0     H38022  10.294   6.939   7.283 -2.3503 -0.9245  1.7328
  276MOL0     H38023  10.491   6.789   7.272  0.4715 -2.6412  0.7031
  276MOL0     H38024  10.395   6.665   7.198 -0.9121 -0.1718 -0.6933
  276MOL0     H38025  10.547   6.760   7.032  0.5773 -0.9853  0.7521
  276MOL0     H38026  10.377   6.812   6.990  0.8207 -1.2288 -0.0089
  276MOL0     H38027  10.443   7.038   7.061  3.1749  2.4200  1.5992
  276MOL0     H38028  10.570   6.984   7.152 -1.8359  0.3092  0.7800
  276MOL0     H38029  10.560   6.959   6.848  0.5835 -0.6132 -0.5380
  276MOL0     H38030  10.704   6.906   6.944 -0.3721 -0.4263 -0.5315
  276MOL0     H38031  10.614   7.196   6.943  1.4705  1.4065 -2.0999
  276MOL0     H38032  10.758   7.136   7.006  0.6985 -1.3390 -1.1289
  276MOL0     H38033  10.699   7.096   6.708  0.5550  0.8536 -0.5538
  276MOL0     H38034  10.847   7.056   6.801  2.0359  2.2776  0.8966
  276MOL0     H38035  10.705   7.322   6.752  0.5513  1.6134 -1.3936
  276MOL0     H38036  10.848   7.311   6.850  1.4738 -0.1941 -0.4796
  276MOL0     H38037  10.767   7.221   6.484 -0.4844  2.8412 -1.8447
  276MOL0     H38038  10.996   7.392   6.290  1.9268  0.3218  1.6513
  276MOL0     H38039  10.888   7.250   6.280 -1.8357  1.2855  1.9531
  276MOL0     H38040  11.071   7.110   6.286  0.3176  0.6795  1.9445
  276MOL0     H38041  11.074   7.198   6.141  0.7124 -1.5095  0.6175
  276MOL0     H38042  11.252   7.351   6.232 -1.5994  1.3024  2.0305
  276MOL0     H38043  11.254   7.271   6.383 -1.7551  1.6624  0.5665
  276MOL0     H38044  11.324   7.063   6.301  2.3738 -0.4574 -1.5415
  276MOL0     H38045  11.306   7.089   6.138  0.6820 -2.4884 -0.4058
  276MOL0     H38046  11.713   7.277   6.221 -0.0957  0.4767 -1.0831
  276MOL0     H38047  11.938   7.275   6.195 -0.6713  0.3127 -0.9773
  276MOL0     H38048  11.979   7.175   6.063 -0.4628  0.9618 -0.3646
  276MOL0     H38049  12.003   7.116   6.237  1.8142  1.0445 -0.7022
  276MOL0     H38050  11.888   6.603   5.832  1.2720 -4.3303  2.5149
  276MOL0     H38051  12.071   6.468   5.749 -2.0881  0.4605  1.4957
  276MOL0     H38052  12.276   6.372   5.856 -1.2942 -2.4067 -0.3645
  276MOL0     H38053  12.236   6.353   5.680  1.0571 -0.4201 -0.3066
  276MOL0     H38054  12.520   6.371   5.775  0.4881  2.7678 -2.4750
  276MOL0     H38055  12.434   6.219   5.751  1.6042 -0.2475 -0.0968
  276MOL0     H38056  12.396   6.371   5.509  0.5433  1.5877  0.9566
  276MOL0     H38057  12.459   6.214   5.551 -2.6865  0.3571 -0.3480
  276MOL0     H38058  12.657   6.282   5.472  3.6770  1.0642  0.8503
  276MOL0     H38059  12.680   6.392   5.602 -0.4932 -1.6492 -0.1046
  276MOL0     H38060  12.527   6.469   5.346  1.0128  0.4610 -0.8876
  276MOL0     H38061  12.593   6.575   5.465 -0.4696 -0.3754  1.8342
  276MOL0     H38062  12.832   6.468   5.389  0.0107 -0.9812  1.2407
  276MOL0     H38063  12.741   6.591   5.294 -0.1877 -0.2803 -1.0068
  276MOL0     H38064  12.637   6.375   5.173  0.4788  0.0048 -0.3041
  276MOL0     H38065  12.748   6.279   5.266 -0.5338 -0.7415 -0.6644
  276MOL0     H38066  12.844   6.331   5.039  3.3059  0.1932 -0.8370
  276MOL0     H38067  12.933   6.416   5.168 -0.7482  2.9505  1.7622
  276MOL0     H38068  12.342   6.783   5.778  0.7601 -3.5285  0.7074
  276MOL0     H38069  12.163   6.943   5.861  1.4091 -0.3368  1.3234
  276MOL0     H38070  11.656   6.834   6.015 -0.9894  0.5125  0.8271
  276MOL0     H38071  11.454   6.947   6.102  0.5800 -1.3846 -1.9539
  276MOL0     H38072  10.002   6.886   6.962 -1.7001  2.3796 -0.9579
  276MOL0     H38073   9.772   6.962   7.006 -2.1672 -0.7952  1.4592
  276MOL0     H38074   9.418   7.017   7.170  0.7635  0.2533 -1.1883
  276MOL0     H38075   9.195   7.120   7.174 -2.1064  2.3905  1.3502
  276MOL0     H38076   9.006   7.264   7.167  3.3719  0.5312  0.9593
  276MOL0     H38077   9.016   7.127   7.285  1.1226  0.9378  2.9925
  276MOL0     H38078   8.858   7.241   7.437 -0.1259  1.5536 -0.4113
  276MOL0     H38079   8.777   7.200   7.281  0.3082 -1.7691  0.2094
  276MOL0     H38080   8.889   7.479   7.345 -0.9585  1.3263 -0.8630
  276MOL0     H38081   8.804   7.428   7.194  0.2806 -1.4095 -0.2109
  276MOL0     H38082   8.680   7.429   7.474 -0.8559 -2.3673  0.0209
  276MOL0     H38083   8.610   7.353   7.326 -1.8248  1.1416  0.0340
  276MOL0     H38084   8.556   7.782   7.331 -0.1880  0.7645 -0.2853
  276MOL0     H38085   9.302   7.377   7.491  1.0407 -1.3659  0.9809
  276MOL0     H38086   9.513   7.327   7.620  3.3835  0.4414  1.8255
  276MOL0     H38087   9.628   7.211   7.556  0.0645  1.8776  3.2049
  276MOL0     H38088   9.626   7.375   7.506  0.7889 -0.0178  2.5008
  277MOL0     O38089   8.681   4.024  10.365 -0.0468 -0.1875  0.1995
  277MOL0     C38090   8.611   4.026  10.262  0.2826  0.2937 -0.8901
  277MOL0     O38091   8.637   4.103  10.152 -0.0162 -0.6247  0.0659
  277MOL0     C38092   8.762   4.169  10.154  0.2488  0.0925 -0.4650
  277MOL0     C38093   8.868   4.106  10.082  0.2313 -0.8657 -1.1242
  277MOL0     C38094   8.991   4.170  10.070 -0.5463  0.0096 -0.9768
  277MOL0     C38095   9.025   4.293  10.135  0.4446  0.2018 -0.1059
  277MOL0     O38096   9.150   4.343  10.129 -0.0334  0.5498  0.2040
  277MOL0     C38097   9.177   4.474  10.178  0.2277 -0.6239 -0.3790
  277MOL0     C38098   9.309   4.542  10.124  0.6709  0.2548  0.1975
  277MOL0     C38099   9.430   4.481  10.188 -0.9874  1.0177  0.5135
  277MOL0     C38100   9.474   4.343  10.137  0.5574  0.4925  0.6138
  277MOL0     C38101   9.619   4.306  10.161 -0.3082 -0.5382  0.0111
  277MOL0     C38102   9.649   4.297  10.307 -1.4231  0.2614  0.3371
  277MOL0     C38103   9.776   4.221  10.342  0.3841 -0.0729 -0.4309
  277MOL0     C38104   9.750   4.086  10.388  0.0804 -0.1829  0.2168
  277MOL0     N38105   9.873   4.009  10.393 -0.9406 -0.0699  0.4464
  277MOL0     C38106  10.005   4.056  10.384 -0.2206  0.4591  0.1187
  277MOL0     C38107  10.078   3.948  10.357  0.1237 -1.1403  0.5261
  277MOL0     C38108  10.224   3.939  10.339 -0.2258  0.2829  0.0279
  277MOL0     C38109  10.287   3.930  10.474 -0.4100 -0.6410 -0.1924
  277MOL0     C38110  10.294   3.788  10.531 -0.2480 -0.1672 -0.3435
  277MOL0     C38111  10.336   3.772  10.671 -0.4620  1.0039  0.4246
  277MOL0     O38112  10.406   3.647  10.692  0.5710 -0.4239  0.2258
  277MOL0     C38113  10.485   3.630  10.795  0.2295 -0.1758  0.0997
  277MOL0     C38114  10.496   3.725  10.900 -0.0760  0.4358 -0.2685
  277MOL0     C38115  10.588   3.709  11.009 -0.5244  1.0285 -0.3848
  277MOL0     C38116  10.619   3.823  11.098  0.0146  0.3725 -1.1405
  277MOL0     C38117  10.654   3.585  11.018  0.1399 -0.2096 -0.3649
  277MOL0     C38118  10.763   3.550  11.117 -0.0305 -0.3544  0.0243
  277MOL0     O38119  10.793   3.421  11.132  0.6550 -0.2839  0.0627
  277MOL0     C38120  10.879   3.381  11.232 -0.2785  0.1749  0.4751
  277MOL0     C38121  11.002   3.336  11.191 -0.3640  0.5787 -0.4109
  277MOL0     C38122  11.096   3.300  11.281  0.1520 -0.6095  0.5762
  277MOL0     C38123  11.078   3.324  11.414 -0.2295 -0.4492 -0.9911
  277MOL0     O38124  11.167   3.292  11.513  0.5872  0.3418 -0.6448
  277MOL0     C38125  11.307   3.269  11.477 -0.1813  0.0212  0.2089
  277MOL0     C38126  11.399   3.265  11.596  0.9926 -0.0557  0.1756
  277MOL0     C38127  11.543   3.226  11.570  0.0705  0.6388  0.8941
  277MOL0     C38128  11.621   3.348  11.511  0.0450  0.0285  0.0689
  277MOL0     C38129  11.774   3.321  11.514 -0.6281  0.2087  0.8682
  277MOL0     C38130  11.838   3.308  11.647  0.4163  0.1785  0.0850
  277MOL0     C38131  11.825   3.441  11.723 -0.0369  0.0425  0.2857
  277MOL0     C38132  11.909   3.421  11.856  0.4468 -0.4374  0.0758
  277MOL0    Cl38133  12.086   3.384  11.837 -0.0046  0.1596  0.2512
  277MOL0     C38134  10.953   3.368  11.463 -0.9449  0.2513 -0.2856
  277MOL0     C38135  10.858   3.400  11.367 -0.1820  0.1573 -0.6620
  277MOL0     O38136  10.833   3.650  11.168  0.4275  0.8271  0.1639
  277MOL0     C38137  10.620   3.483  10.927 -1.1745 -0.1717 -1.1314
  277MOL0     C38138  10.551   3.516  10.809  0.1014 -0.1890 -0.2247
  277MOL0     N38139   9.999   3.837  10.363 -0.1501  0.4058  0.2907
  277MOL0     N38140   9.882   3.875  10.373  0.0314  0.4138 -0.6772
  277MOL0     C38141   8.921   4.347  10.209 -0.4170 -0.3345  0.0417
  277MOL0     C38142   8.793   4.288  10.222 -0.1644 -0.0855  0.2178
  277MOL0     C38143   8.485   3.945  10.268  0.5156 -0.0417 -0.4955
  277MOL0     C38144   8.475   3.857  10.373  0.4586 -0.5871  0.0800
  277MOL0     C38145   8.369   3.762  10.379  0.4164 -0.2032 -0.0442
  277MOL0     C38146   8.272   3.763  10.291  0.9377 -1.2632  0.2391
  277MOL0     O38147   8.177   3.677  10.309  0.3969 -0.9513  0.1870
  277MOL0     C38148   8.055   3.722  10.366  0.1144 -0.2693 -0.2063
  277MOL0     C38149   8.003   3.652  10.495 -0.3285 -0.3495 -0.3895
  277MOL0     C38150   8.053   3.736  10.615 -0.3077  0.0923  0.5110
  277MOL0     C38151   8.010   3.671  10.747  1.3010  0.1287  0.0212
  277MOL0     C38152   7.865   3.681  10.768 -0.3546  1.4657 -0.0209
  277MOL0     C38153   7.747   3.690  10.781  0.2651 -1.0026 -0.8801
  277MOL0     C38154   8.272   3.865  10.186 -0.2257  0.0724  0.2343
  277MOL0     C38155   8.378   3.955  10.174 -0.5467 -0.6460 -0.3208
  277MOL0     C38156   8.378   4.063  10.062 -0.6646 -0.1778  0.1167
  277MOL0     H38157   8.850   4.013  10.029  0.5473 -0.7001 -1.5244
  277MOL0     H38158   9.069   4.114  10.020  0.6072 -0.5582  1.2966
  277MOL0     H38159   9.186   4.473  10.287  2.1558  0.0979 -0.4768
  277MOL0     H38160   9.094   4.539  10.150  0.4295  0.6987  1.8797
  277MOL0     H38161   9.317   4.529  10.015 -0.9936 -1.6020  0.2483
  277MOL0     H38162   9.305   4.650  10.142 -0.3042  0.5072 -1.2875
  277MOL0     H38163   9.519   4.543  10.175 -1.3771  2.1926  2.8937
  277MOL0     H38164   9.409   4.468  10.295 -0.8676  0.4776  0.4738
  277MOL0     H38165   9.405   4.270  10.179  1.2530 -0.6422 -0.1569
  277MOL0     H38166   9.468   4.341  10.028 -0.2098  2.7191  0.5727
  277MOL0     H38167   9.690   4.382  10.125  1.1972 -1.2124  1.3965
  277MOL0     H38168   9.637   4.206  10.122 -3.1873 -1.1639  0.1103
  277MOL0     H38169   9.657   4.403  10.333 -1.5823  0.3982 -0.1601
  277MOL0     H38170   9.571   4.255  10.370 -0.7375  1.8138  2.3397
  277MOL0     H38171   9.824   4.279  10.421 -2.4820  1.4728  0.2971
  277MOL0     H38172   9.847   4.215  10.258 -0.9211 -1.9953 -1.4838
  277MOL0     H38173   9.708   4.098  10.489  2.3068  0.6368  1.1036
  277MOL0     H38174   9.676   4.032  10.328  2.7572 -3.0048 -0.8165
  277MOL0     H38175  10.037   4.157  10.408  0.1926  0.1248  1.0017
  277MOL0     H38176  10.263   4.032  10.295 -0.2514 -0.5139 -1.7490
  277MOL0     H38177  10.260   3.864  10.269 -1.8502  0.2275 -0.7976
  277MOL0     H38178  10.391   3.959  10.457 -1.5704  2.4525 -3.6121
  277MOL0     H38179  10.243   4.002  10.544  2.9386  0.8246  0.6091
  277MOL0     H38180  10.195   3.744  10.515  1.0145 -2.8401 -1.5582
  277MOL0     H38181  10.356   3.725  10.467 -1.4386 -0.1926 -1.5295
  277MOL0     H38182  10.404   3.853  10.700 -0.7933  2.0450 -1.5105
  277MOL0     H38183  10.241   3.772  10.725 -1.5743  1.6850 -1.4189
  277MOL0     H38184  10.433   3.813  10.893  0.3572  0.7324 -0.4832
  277MOL0     H38185  10.550   3.907  11.090 -4.2707 -2.3191  2.7980
  277MOL0     H38186  10.716   3.860  11.063  0.4749  1.5796  1.2022
  277MOL0     H38187  10.608   3.800  11.204 -1.1157  3.1576 -0.5655
  277MOL0     H38188  11.030   3.318  11.088  1.6888  2.6361 -0.3005
  277MOL0     H38189  11.185   3.263  11.230 -0.5867  2.9231 -3.9921
  277MOL0     H38190  11.327   3.174  11.426  3.5679  0.2425  1.0257
  277MOL0     H38191  11.346   3.348  11.412  0.9354 -1.0878 -0.5084
  277MOL0     H38192  11.387   3.353  11.661 -0.4529 -1.5312  2.0384
  277MOL0     H38193  11.344   3.194  11.659 -1.5141  3.6139  2.5765
  277MOL0     H38194  11.549   3.151  11.490 -0.2511 -0.4022  1.8204
  277MOL0     H38195  11.590   3.186  11.660 -1.2656  0.1855  1.4218
  277MOL0     H38196  11.594   3.434  11.573  1.7385  0.9441 -0.4029
  277MOL0     H38197  11.590   3.368  11.407 -1.2980 -0.5501  0.3415
  277MOL0     H38198  11.796   3.227  11.463 -0.0335  1.6071 -1.5964
  277MOL0     H38199  11.816   3.404  11.457  0.3277  0.5498  2.0246
  277MOL0     H38200  11.943   3.278  11.646 -0.2345 -2.2943 -0.0213
  277MOL0     H38201  11.781   3.229  11.696 -0.7109  0.7616 -0.2445
  277MOL0     H38202  11.722   3.464  11.753  0.3275  1.0190  0.8051
  277MOL0     H38203  11.863   3.525  11.665 -1.1007 -1.5039 -2.8911
  277MOL0     H38204  11.859   3.344  11.916  3.0916 -1.1921  1.4706
  277MOL0     H38205  11.905   3.520  11.903 -0.5482  0.2825 -1.4232
  277MOL0     H38206  10.941   3.378  11.570  1.8076  0.9778  0.0307
  277MOL0     H38207  10.763   3.434  11.406  0.7422  2.2665 -0.1165
  277MOL0     H38208  10.667   3.386  10.944  3.0903  2.0741  1.8986
  277MOL0     H38209  10.546   3.443  10.729  2.1647 -2.1094  1.2832
  277MOL0     H38210   8.937   4.446  10.251  1.3437 -0.1555 -0.9534
  277MOL0     H38211   8.718   4.327  10.289 -1.3679 -0.4464 -0.8858
  277MOL0     H38212   8.551   3.862  10.450 -0.4665  0.4483  0.9538
  277MOL0     H38213   8.381   3.680  10.449 -1.8762 -2.4382 -2.0582
  277MOL0     H38214   8.046   3.829  10.387 -0.9525 -0.5109  0.6607
  277MOL0     H38215   7.978   3.704  10.291  0.7850  2.7673 -1.7590
  277MOL0     H38216   8.034   3.547  10.494 -1.2239 -0.6263 -0.6794
  277MOL0     H38217   7.894   3.646  10.487 -0.3584  0.3054 -0.4937
  277MOL0     H38218   8.162   3.739  10.607 -0.3713  1.6153 -0.2863
  277MOL0     H38219   8.005   3.834  10.605 -0.6097 -0.0125  0.9309
  277MOL0     H38220   8.063   3.725  10.827 -0.8817  0.1471  1.5259
  277MOL0     H38221   8.042   3.567  10.749 -1.3765 -0.7862 -0.8269
  277MOL0     H38222   7.642   3.688  10.804  0.2292  2.0010 -0.4510
  277MOL0     H38223   8.189   3.886  10.119  0.3467  0.5011 -0.3475
  277MOL0     H38224   8.288   4.054   9.999 -0.6939 -1.8917  0.3597
  277MOL0     H38225   8.362   4.161  10.108  1.2774  0.8347 -1.2389
  277MOL0     H38226   8.473   4.051  10.009  1.8296 -1.0847  4.3530
  278MOL0     O38227   5.432   7.498   9.866  0.2251 -0.0290  0.2513
  278MOL0     C38228   5.365   7.426   9.787  0.1815 -0.9489 -0.6002
  278MOL0     O38229   5.234   7.397   9.801 -0.0920 -0.2649 -0.2484
  278MOL0     C38230   5.152   7.418   9.910  0.3114  0.2634  0.4493
  278MOL0     C38231   5.043   7.336   9.901 -0.1438 -0.7371  0.9146
  278MOL0     C38232   4.939   7.351   9.997  0.5737  0.3027  0.4557
  278MOL0     C38233   4.950   7.443  10.099 -0.1398  0.0236 -0.5549
  278MOL0     O38234   4.850   7.470  10.191 -0.0360 -0.0507 -0.1364
  278MOL0     C38235   4.724   7.412  10.182  1.3025  0.9149 -0.4542
  278MOL0     C38236   4.635   7.492  10.282 -0.4472 -0.3078  0.1023
  278MOL0     C38237   4.650   7.457  10.434  0.3921  0.7688  0.7054
  278MOL0     C38238   4.565   7.547  10.525  0.0464  0.3435  0.1798
  278MOL0     C38239   4.568   7.501  10.671  0.3578 -0.0817  0.1594
  278MOL0     C38240   4.450   7.564  10.752 -0.2300 -0.0697  0.6310
  278MOL0     C38241   4.467   7.537  10.904  0.6616  0.4700  1.0100
  278MOL0     C38242   4.575   7.627  10.971 -0.0698  0.1948 -1.0338
  278MOL0     N38243   4.551   7.630  11.124 -0.5707  0.5739 -0.7854
  278MOL0     C38244   4.570   7.516  11.204 -0.0515  0.0349  0.4837
  278MOL0     C38245   4.564   7.562  11.327 -0.0639 -0.2168 -0.2396
  278MOL0     C38246   4.563   7.481  11.453  0.3977  0.4616  0.5888
  278MOL0     C38247   4.656   7.526  11.564 -0.0923  0.3700  0.5558
  278MOL0     C38248   4.599   7.630  11.658  0.5440 -0.7998  1.5310
  278MOL0     C38249   4.685   7.657  11.778  0.3269 -0.4380  0.4805
  278MOL0     O38250   4.791   7.736  11.734 -0.6051 -0.0918  0.8926
  278MOL0     C38251   4.879   7.772  11.832 -0.1613  0.4687 -0.1022
  278MOL0     C38252   4.861   7.771  11.971  0.3486 -0.2586  0.2156
  278MOL0     C38253   4.960   7.801  12.069 -0.2982  0.8450 -0.5367
  278MOL0     C38254   4.916   7.773  12.214 -0.0235  0.1623  0.7867
  278MOL0     C38255   5.086   7.837  12.027  0.1284 -0.2232 -0.0973
  278MOL0     C38256   5.199   7.869  12.124  0.1579  0.0608  0.7376
  278MOL0     O38257   5.173   7.912  12.254  0.1841  1.3128  0.4588
  278MOL0     C38258   5.278   7.949  12.334  0.0720  0.1530 -1.1562
  278MOL0     C38259   5.348   8.066  12.306 -0.5468  0.0093  0.5725
  278MOL0     C38260   5.461   8.098  12.375  0.4152  0.6062  0.7420
  278MOL0     C38261   5.505   8.014  12.475  0.5501 -0.1176 -0.6862
  278MOL0     O38262   5.611   8.043  12.552 -0.4147 -0.7756 -0.5429
  278MOL0     C38263   5.577   8.107  12.680  0.2339 -0.4130 -0.6231
  278MOL0     C38264   5.666   8.057  12.794  0.8022  0.5466  0.2270
  278MOL0     C38265   5.706   7.908  12.797 -1.4566 -0.5714 -0.9319
  278MOL0     C38266   5.775   7.881  12.930 -0.3235 -0.4495  0.1060
  278MOL0     C38267   5.808   7.732  12.966  0.2976  1.2985 -0.1157
  278MOL0     C38268   5.931   7.699  12.897 -0.1115  0.5347 -0.1341
  278MOL0     C38269   6.061   7.755  12.943  0.2780  0.0086  0.3083
  278MOL0     C38270   6.187   7.754  12.856  0.2894  0.5171  0.4566
  278MOL0    Cl38271   6.221   7.586  12.793 -0.2382  0.3390  0.0848
  278MOL0     C38272   5.455   7.893  12.493  0.0293  0.5459  0.0523
  278MOL0     C38273   5.335   7.851  12.424  0.0559 -0.2940  0.3786
  278MOL0     O38274   5.315   7.866  12.067 -0.5201  0.0225  0.2916
  278MOL0     C38275   5.101   7.856  11.886  0.0231 -0.5694  0.0552
  278MOL0     C38276   5.004   7.815  11.791 -0.7491  1.2999 -1.0976
  278MOL0     N38277   4.537   7.694  11.322 -0.3833 -0.7065  0.6466
  278MOL0     N38278   4.526   7.737  11.204  0.1992 -0.6915  0.2854
  278MOL0     C38279   5.066   7.518  10.103 -0.0315 -0.3359 -0.2037
  278MOL0     C38280   5.169   7.506  10.015 -0.3023  0.6014  0.7344
  278MOL0     C38281   5.424   7.386   9.657 -0.0711 -0.4798  0.5904
  278MOL0     C38282   5.348   7.292   9.574 -0.9130  0.4914 -0.5088
  278MOL0     C38283   5.397   7.249   9.450 -0.9351  0.3067  0.0107
  278MOL0     C38284   5.523   7.281   9.418 -0.3411  0.2424 -0.5587
  278MOL0     O38285   5.561   7.214   9.313 -0.1772  0.4965  0.4029
  278MOL0     C38286   5.690   7.233   9.268 -0.5141  0.5375  0.2724
  278MOL0     C38287   5.716   7.169   9.131 -0.1580 -0.4295 -0.3217
  278MOL0     C38288   5.852   7.087   9.133  0.7008 -0.1881 -0.6547
  278MOL0     C38289   5.897   7.065   8.989  0.0571 -0.0864 -0.3009
  278MOL0     C38290   5.809   6.982   8.911 -0.0966 -0.2067  0.9514
  278MOL0     C38291   5.721   6.924   8.850 -0.4004 -0.0050  0.0066
  278MOL0     C38292   5.595   7.378   9.494  0.5031  0.1656  0.7289
  278MOL0     C38293   5.546   7.437   9.611 -0.1421 -0.3008 -0.0316
  278MOL0     C38294   5.630   7.553   9.669  0.3723 -0.3661 -0.7089
  278MOL0     H38295   5.027   7.269   9.817  0.9353 -1.1412  1.0166
  278MOL0     H38296   4.849   7.292   9.981  1.7241 -1.2915 -0.3809
  278MOL0     H38297   4.717   7.306  10.206  1.7058  0.3805 -2.4682
  278MOL0     H38298   4.676   7.421  10.083 -2.5435 -0.2609  1.1243
  278MOL0     H38299   4.654   7.598  10.263  1.9053 -0.8116 -0.6821
  278MOL0     H38300   4.529   7.469  10.264 -1.1631  0.5816  2.6154
  278MOL0     H38301   4.625   7.352  10.449  2.3437 -0.0665 -1.3936
  278MOL0     H38302   4.754   7.468  10.465  0.4805  5.8011 -0.4367
  278MOL0     H38303   4.616   7.642  10.511  0.3028  0.1574 -0.1714
  278MOL0     H38304   4.460   7.559  10.496  0.0349  0.2934  0.2013
  278MOL0     H38305   4.671   7.534  10.692  1.2238 -1.5728 -1.5280
  278MOL0     H38306   4.565   7.393  10.686 -0.9853  0.1970  2.2122
  278MOL0     H38307   4.436   7.670  10.732 -0.3798 -0.5227 -2.0677
  278MOL0     H38308   4.356   7.518  10.720 -0.8526 -0.1214  2.4549
  278MOL0     H38309   4.496   7.431  10.907  1.9282  0.8157  1.5466
  278MOL0     H38310   4.369   7.544  10.952  0.2436  1.2752  0.0843
  278MOL0     H38311   4.675   7.590  10.945 -0.1984 -0.4082 -0.6746
  278MOL0     H38312   4.568   7.729  10.930 -0.3277  1.1192  1.1409
  278MOL0     H38313   4.586   7.413  11.173  0.2375 -0.1456  1.2194
  278MOL0     H38314   4.598   7.382  11.424 -0.5772  0.5223 -0.8942
  278MOL0     H38315   4.462   7.467  11.493 -0.2655 -2.0650 -1.7023
  278MOL0     H38316   4.684   7.436  11.620  1.1376 -0.2770 -1.0257
  278MOL0     H38317   4.751   7.569  11.532 -0.2771  1.2145  1.1213
  278MOL0     H38318   4.593   7.729  11.611  0.8542  0.5425  4.1819
  278MOL0     H38319   4.494   7.605  11.679  0.2179 -0.5151  0.3629
  278MOL0     H38320   4.625   7.699  11.859  1.6120  1.7284  0.3636
  278MOL0     H38321   4.709   7.556  11.812 -4.2192 -0.8209  3.4097
  278MOL0     H38322   4.760   7.755  12.006 -0.4048 -1.0666 -2.1062
  278MOL0     H38323   4.837   7.696  12.208 -1.9617  2.0522  0.7874
  278MOL0     H38324   4.874   7.861  12.263 -1.5198  0.2542 -0.5521
  278MOL0     H38325   4.994   7.737  12.281  0.8278  0.4287 -0.0464
  278MOL0     H38326   5.322   8.131  12.222  3.2589 -0.1820 -0.9604
  278MOL0     H38327   5.523   8.183  12.349  1.7751 -0.5644 -0.0458
  278MOL0     H38328   5.573   8.216  12.673  0.8353 -0.2978  0.5917
  278MOL0     H38329   5.475   8.076  12.704 -0.9089  2.8139 -0.8525
  278MOL0     H38330   5.757   8.115  12.805  1.0475  0.2018  0.0437
  278MOL0     H38331   5.618   8.086  12.888  0.4335  0.5031  0.0563
  278MOL0     H38332   5.781   7.883  12.720 -0.6528  3.6800 -1.7832
  278MOL0     H38333   5.615   7.848  12.791 -2.1049  0.2548  0.2464
  278MOL0     H38334   5.700   7.916  13.002  0.1835 -0.2562  0.5487
  278MOL0     H38335   5.866   7.942  12.935 -0.8457  0.2509  3.0041
  278MOL0     H38336   5.822   7.731  13.074  0.3990  1.2700 -0.1290
  278MOL0     H38337   5.726   7.666  12.936  0.7885 -0.1538  1.5737
  278MOL0     H38338   5.927   7.737  12.794 -0.3902  2.0809  0.4137
  278MOL0     H38339   5.947   7.591  12.900  0.8464  0.4721 -3.4851
  278MOL0     H38340   6.082   7.696  13.032  1.1174 -0.2392 -0.0413
  278MOL0     H38341   6.059   7.860  12.976  0.7572  0.1674 -0.1393
  278MOL0     H38342   6.270   7.790  12.917 -1.1457  4.9827  0.1720
  278MOL0     H38343   6.181   7.823  12.771  2.8655  0.5355  0.2144
  278MOL0     H38344   5.495   7.819  12.562 -2.2471 -2.1405 -1.3005
  278MOL0     H38345   5.297   7.751  12.441 -0.9792  0.0947  0.4209
  278MOL0     H38346   5.198   7.891  11.852  0.0131  1.7392  2.0982
  278MOL0     H38347   5.027   7.825  11.686  1.2996  0.4244 -0.7714
  278MOL0     H38348   5.086   7.581  10.189 -2.7794 -3.1447  2.7262
  278MOL0     H38349   5.260   7.565  10.019  1.0826 -1.4119  0.6786
  278MOL0     H38350   5.254   7.251   9.608  0.0427 -1.8181 -0.5009
  278MOL0     H38351   5.340   7.177   9.392  2.2070 -1.7920 -0.7232
  278MOL0     H38352   5.717   7.339   9.263 -0.8974  0.6348  0.2753
  278MOL0     H38353   5.762   7.176   9.328  0.4169  0.0891 -1.2122
  278MOL0     H38354   5.716   7.255   9.063 -4.4373  0.3325  0.3668
  278MOL0     H38355   5.634   7.107   9.092 -0.9237 -0.8051  1.7809
  278MOL0     H38356   5.934   7.135   9.187 -0.8158 -1.5205  3.2211
  278MOL0     H38357   5.840   6.991   9.184 -0.6756  0.5276  0.4719
  278MOL0     H38358   6.002   7.034   8.982  0.7542  2.0459 -0.2298
  278MOL0     H38359   5.900   7.165   8.944  0.6824 -0.1798 -0.4832
  278MOL0     H38360   5.652   6.868   8.789 -0.1283  0.9107 -1.1619
  278MOL0     H38361   5.698   7.400   9.466 -0.0090  2.0123  0.1991
  278MOL0     H38362   5.675   7.521   9.764 -0.0378  1.2591  0.0628
  278MOL0     H38363   5.710   7.589   9.605 -0.2187 -2.6611 -2.8914
  278MOL0     H38364   5.564   7.637   9.691 -1.7322 -1.4898 -2.3689
  279MOL0     O38365   7.747   0.120   0.855  0.0495  0.3367 -0.3137
  279MOL0     C38366   7.822   0.119   0.955 -0.6441  0.0225  0.2637
  279MOL0     O38367   7.923   0.017   0.975 -0.4729  0.0766  0.2245
  279MOL0     C38368   7.950  -0.059   0.864 -0.0701  0.1545 -0.3869
  279MOL0     C38369   7.856  -0.157   0.821 -0.3078  0.3333 -0.1032
  279MOL0     C38370   7.898  -0.243   0.716  0.9514 -0.3721  0.2408
  279MOL0     C38371   8.019  -0.236   0.654 -0.5941 -1.1337  0.0934
  279MOL0     O38372   8.049  -0.315   0.546  0.0046  0.0843  0.2348
  279MOL0     C38373   8.041  -0.459   0.560  0.3014 -0.2685  0.6656
  279MOL0     C38374   8.121  -0.532   0.669 -0.5497 -0.2988 -0.3506
  279MOL0     C38375   8.095  -0.683   0.642  0.0288 -0.2885  0.0576
  279MOL0     C38376   8.199  -0.764   0.729 -0.6137 -0.1066  0.2607
  279MOL0     C38377   8.201  -0.749   0.883 -0.0351 -0.4506  0.4956
  279MOL0     C38378   8.265  -0.860   0.960  0.1249 -0.9698 -0.1359
  279MOL0     C38379   8.249  -0.856   1.109 -0.1974 -0.1337  1.0417
  279MOL0     C38380   8.337  -0.745   1.175 -0.2163 -0.5217 -0.0279
  279MOL0     N38381   8.269  -0.717   1.306  0.2680  0.4109  0.3883
  279MOL0     C38382   8.139  -0.672   1.326  0.6664 -0.2353  1.0098
  279MOL0     C38383   8.132  -0.678   1.460  0.5871  0.6776 -0.1976
  279MOL0     C38384   8.016  -0.630   1.540 -0.8615  0.5546 -0.2566
  279MOL0     C38385   7.913  -0.737   1.561 -0.6933 -0.3714  0.4110
  279MOL0     C38386   7.822  -0.748   1.438  0.2825 -1.1031  0.4557
  279MOL0     C38387   7.753  -0.886   1.427 -0.0913  0.3249 -0.2056
  279MOL0     O38388   7.658  -0.870   1.321  1.0962 -1.3090 -0.0122
  279MOL0     C38389   7.593  -0.992   1.282  0.3247 -0.2828  0.2100
  279MOL0     C38390   7.660  -1.112   1.269 -0.0689 -0.0391  0.3087
  279MOL0     C38391   7.595  -1.224   1.217  0.3322 -0.2249 -0.6957
  279MOL0     C38392   7.673  -1.357   1.213  0.2953  0.9091 -0.0147
  279MOL0     C38393   7.462  -1.213   1.162 -0.2787  0.3702 -0.5520
  279MOL0     C38394   7.371  -1.314   1.108  0.4172  0.3674  0.1163
  279MOL0     O38395   7.248  -1.275   1.071  0.0065 -0.2405  0.2460
  279MOL0     C38396   7.173  -1.368   1.017  0.1121  0.0043 -0.6664
  279MOL0     C38397   7.127  -1.339   0.891  0.4016  1.0236  0.1726
  279MOL0     C38398   7.031  -1.414   0.820 -0.0223  0.5633 -0.2752
  279MOL0     C38399   6.968  -1.519   0.890 -0.2856 -0.7753 -0.0346
  279MOL0     O38400   6.871  -1.604   0.839  0.5370  0.0238 -0.3637
  279MOL0     C38401   6.784  -1.539   0.741 -0.0357 -0.6786  0.0591
  279MOL0     C38402   6.647  -1.603   0.728 -0.7009  0.1851  0.1778
  279MOL0     C38403   6.664  -1.755   0.739  0.5711 -0.2571  0.4539
  279MOL0     C38404   6.529  -1.811   0.708 -0.3444 -0.0103 -0.7268
  279MOL0     C38405   6.525  -1.966   0.719 -0.7484 -0.4502  0.2299
  279MOL0     C38406   6.391  -2.027   0.676  0.3795 -0.6046 -0.4105
  279MOL0     C38407   6.400  -2.054   0.520  1.0638  0.2324 -0.0947
  279MOL0     C38408   6.269  -2.124   0.469  0.4280 -0.8609  0.9275
  279MOL0    Cl38409   6.303  -2.215   0.317 -0.3379  0.2021  0.0012
  279MOL0     C38410   7.021  -1.557   1.020  0.1264  0.6746 -0.1511
  279MOL0     C38411   7.126  -1.483   1.077  1.0933  0.0454  0.2993
  279MOL0     O38412   7.408  -1.430   1.093  0.9910  0.2125  0.0839
  279MOL0     C38413   7.402  -1.087   1.173  0.8882  0.0278  0.2214
  279MOL0     C38414   7.469  -0.982   1.226 -0.3903  0.2203  0.1069
  279MOL0     N38415   8.244  -0.720   1.514  0.1469  0.2140 -0.0475
  279MOL0     N38416   8.323  -0.755   1.422 -0.0867  0.1877  0.1773
  279MOL0     C38417   8.114  -0.148   0.710  0.3455 -0.1857 -0.8539
  279MOL0     C38418   8.080  -0.068   0.810  0.5570 -0.7533 -0.5617
  279MOL0     C38419   7.827   0.252   1.028  1.2296  0.2786  0.2374
  279MOL0     C38420   7.730   0.357   1.001  0.9814 -0.0322 -0.7268
  279MOL0     C38421   7.741   0.489   1.055 -0.5378 -0.0617 -0.2429
  279MOL0     C38422   7.843   0.514   1.150  0.6118 -0.9455  0.0754
  279MOL0     O38423   7.868   0.638   1.200  0.1112  0.0413 -0.3869
  279MOL0     C38424   7.772   0.695   1.296 -0.5074  0.2806  0.1563
  279MOL0     C38425   7.822   0.827   1.351 -0.0134  0.2844  0.1807
  279MOL0     C38426   7.755   0.950   1.280  0.4107 -0.5809 -0.7529
  279MOL0     C38427   7.784   0.952   1.135 -0.1494 -0.9742  0.3920
  279MOL0     C38428   7.701   1.051   1.073  0.4887 -0.4929 -0.5936
  279MOL0     C38429   7.622   1.131   1.023  0.2588  0.1321  0.1421
  279MOL0     C38430   7.919   0.399   1.199 -0.7286 -0.9244  0.1592
  279MOL0     C38431   7.906   0.268   1.148 -0.8909 -0.4071  0.3821
  279MOL0     C38432   7.988   0.156   1.222 -0.3116 -0.2468 -0.1023
  279MOL0     H38433   7.771  -0.186   0.881 -1.8933  2.2765 -1.2928
  279MOL0     H38434   7.826  -0.317   0.681 -2.1371  2.9306 -0.9991
  279MOL0     H38435   8.073  -0.504   0.465 -0.2932 -3.7011  1.9375
  279MOL0     H38436   7.940  -0.493   0.580  1.5350 -3.7060  1.7013
  279MOL0     H38437   8.226  -0.503   0.655 -0.2002 -1.2183  0.2985
  279MOL0     H38438   8.093  -0.509   0.773  0.1362  2.0545 -0.6170
  279MOL0     H38439   7.992  -0.717   0.658  0.6237 -2.1462  0.1313
  279MOL0     H38440   8.130  -0.710   0.541  0.1380 -0.3429  0.1099
  279MOL0     H38441   8.191  -0.871   0.711 -0.0052  0.4103 -3.9768
  279MOL0     H38442   8.300  -0.739   0.695 -1.1026  1.3213 -0.2494
  279MOL0     H38443   8.098  -0.739   0.918  0.4350  3.7379  1.1485
  279MOL0     H38444   8.254  -0.656   0.906 -0.1219  0.5611 -2.8212
  279MOL0     H38445   8.228  -0.955   0.920 -0.1008  0.1428 -2.7804
  279MOL0     H38446   8.372  -0.843   0.948 -0.0912  0.8686  0.1214
  279MOL0     H38447   8.274  -0.956   1.147 -0.6414 -1.1707 -1.2456
  279MOL0     H38448   8.142  -0.849   1.131  0.4248 -0.2921  4.7092
  279MOL0     H38449   8.436  -0.790   1.186  1.8604  2.9094 -2.6224
  279MOL0     H38450   8.346  -0.661   1.106 -0.4852 -1.6338 -1.4628
  279MOL0     H38451   8.069  -0.623   1.259  0.8222 -1.5893 -0.2011
  279MOL0     H38452   7.967  -0.541   1.499 -0.4947  0.1025 -1.7236
  279MOL0     H38453   8.048  -0.586   1.635 -0.4389  0.1615 -0.2108
  279MOL0     H38454   7.956  -0.836   1.576 -0.9937 -0.3758  1.3395
  279MOL0     H38455   7.861  -0.711   1.654  3.4786  2.9970  2.1047
  279MOL0     H38456   7.735  -0.685   1.457 -0.9320 -2.5986  0.0766
  279MOL0     H38457   7.871  -0.724   1.343  0.3870 -0.0979  0.7491
  279MOL0     H38458   7.832  -0.961   1.411  1.5687  1.5131  1.8991
  279MOL0     H38459   7.705  -0.918   1.520 -2.1453 -1.8994 -1.8929
  279MOL0     H38460   7.753  -1.130   1.322 -1.5765 -3.9166  2.0648
  279MOL0     H38461   7.616  -1.432   1.268  2.0593 -0.1956  0.3783
  279MOL0     H38462   7.771  -1.351   1.261  0.3958 -0.3162 -0.0434
  279MOL0     H38463   7.679  -1.382   1.107 -1.3891  0.4620 -0.0329
  279MOL0     H38464   7.159  -1.247   0.843  1.3052  2.3176  3.0792
  279MOL0     H38465   7.008  -1.375   0.722  1.4891  1.5638 -0.2626
  279MOL0     H38466   6.752  -1.436   0.763  1.6744  0.0924 -0.8522
  279MOL0     H38467   6.833  -1.548   0.644 -0.0719 -2.0406  0.1493
  279MOL0     H38468   6.579  -1.564   0.805 -0.5273  0.8340  0.0103
  279MOL0     H38469   6.616  -1.581   0.626  1.6902  0.6289 -0.5129
  279MOL0     H38470   6.692  -1.805   0.832  1.9356 -0.1819  0.1021
  279MOL0     H38471   6.736  -1.785   0.663  0.6314 -2.1796  1.2091
  279MOL0     H38472   6.501  -1.786   0.605  0.9160  2.0153 -0.6255
  279MOL0     H38473   6.455  -1.764   0.774  1.1334  3.2870 -1.2069
  279MOL0     H38474   6.606  -2.010   0.660 -1.0108 -0.3913 -0.1788
  279MOL0     H38475   6.554  -1.997   0.820 -3.9738 -0.2924  1.3178
  279MOL0     H38476   6.303  -1.966   0.698 -0.9445 -2.7917  0.6761
  279MOL0     H38477   6.384  -2.121   0.732  3.0676  0.1774  1.4187
  279MOL0     H38478   6.481  -2.127   0.514  1.2698  0.5809 -3.6929
  279MOL0     H38479   6.418  -1.959   0.470 -1.7457  2.5898  2.9633
  279MOL0     H38480   6.185  -2.057   0.449 -0.0308 -1.4328  0.9147
  279MOL0     H38481   6.244  -2.193   0.550  2.2833 -1.6986  0.8353
  279MOL0     H38482   6.989  -1.648   1.070  1.0617  0.8491  0.7843
  279MOL0     H38483   7.152  -1.503   1.181  3.0918  1.7083  0.1778
  279MOL0     H38484   7.294  -1.077   1.176  0.7160 -1.0251 -1.2298
  279MOL0     H38485   7.409  -0.892   1.237 -1.4282 -0.3976 -0.3588
  279MOL0     H38486   8.206  -0.133   0.654 -0.3597  1.5079 -1.6055
  279MOL0     H38487   8.162  -0.001   0.836  0.1678  0.0783 -1.3961
  279MOL0     H38488   7.659   0.339   0.921  0.2402  1.6913 -0.4847
  279MOL0     H38489   7.667   0.566   1.041  0.5803  1.6549  2.5484
  279MOL0     H38490   7.677   0.709   1.243 -0.7163  4.6474  1.2865
  279MOL0     H38491   7.755   0.631   1.383 -2.4596  2.0739  1.1939
  279MOL0     H38492   7.930   0.837   1.357 -0.2484  2.7971  1.8858
  279MOL0     H38493   7.790   0.820   1.456 -0.0386 -0.6366  0.1173
  279MOL0     H38494   7.647   0.937   1.290  0.7300 -2.9181  0.6568
  279MOL0     H38495   7.767   1.052   1.317 -1.2337 -0.6657  0.1175
  279MOL0     H38496   7.758   0.855   1.092  1.8592 -2.3799  2.1211
  279MOL0     H38497   7.885   0.981   1.105 -0.4384 -1.1132 -0.7762
  279MOL0     H38498   7.550   1.195   0.975 -1.0382 -1.9468 -0.8119
  279MOL0     H38499   7.990   0.419   1.279  0.2481 -1.1048 -0.6486
  279MOL0     H38500   8.082   0.146   1.168  0.1299  1.9571  0.1721
  279MOL0     H38501   8.020   0.177   1.324  0.2623 -2.9554  0.3635
  279MOL0     H38502   7.940   0.058   1.210  1.4045 -0.7529 -4.9101
  280MOL0     O38503   3.708   2.878   9.892 -0.5344 -0.0820 -0.1884
  280MOL0     C38504   3.716   2.759   9.876  0.2312  0.6665  0.5134
  280MOL0     O38505   3.830   2.680   9.887  0.3460  0.5718 -0.3141
  280MOL0     C38506   3.946   2.739   9.948  0.4179  0.1654  0.5897
  280MOL0     C38507   4.068   2.712   9.883 -0.0043 -0.3055  1.0154
  280MOL0     C38508   4.193   2.754   9.934 -0.1137  1.1067  0.6455
  280MOL0     C38509   4.192   2.835  10.042  0.2779  0.6806 -0.2747
  280MOL0     O38510   4.318   2.879  10.088 -0.1718  0.3573  0.2608
  280MOL0     C38511   4.319   3.024  10.123  0.4690 -0.4666 -0.2121
  280MOL0     C38512   4.460   3.060  10.162  0.0310  0.1723  0.7639
  280MOL0     C38513   4.558   3.048  10.039  0.1928 -0.6827  0.1179
  280MOL0     C38514   4.703   3.058  10.069 -0.1821  0.0303 -0.5867
  280MOL0     C38515   4.740   3.205  10.039  0.1518 -0.1547 -0.0715
  280MOL0     C38516   4.895   3.208  10.054 -0.1752 -0.7642 -0.5409
  280MOL0     C38517   4.953   3.340  10.009 -0.2078  0.0618 -0.9258
  280MOL0     C38518   5.098   3.355  10.048 -0.8407  0.2155 -0.3328
  280MOL0     N38519   5.177   3.260   9.977 -0.2111  0.7471 -0.5204
  280MOL0     C38520   5.171   3.218   9.846  0.4667  0.2028 -0.0253
  280MOL0     C38521   5.247   3.103   9.846 -0.2487 -0.9608  0.8432
  280MOL0     C38522   5.261   3.022   9.722  0.0444  0.7829 -0.7655
  280MOL0     C38523   5.407   3.010   9.677 -0.6032  0.2685 -1.2031
  280MOL0     C38524   5.422   2.908   9.569 -0.1042  0.5011  0.3910
  280MOL0     C38525   5.568   2.865   9.540 -0.4502 -0.6370 -0.2628
  280MOL0     O38526   5.657   2.978   9.547 -0.3757  0.6809  0.0186
  280MOL0     C38527   5.789   2.961   9.524  0.0312 -0.2076  0.2298
  280MOL0     C38528   5.887   3.061   9.567 -0.1813 -0.4493 -0.1382
  280MOL0     C38529   6.017   3.055   9.533  0.8294  0.2601  0.2072
  280MOL0     C38530   6.106   3.160   9.587 -0.2384  0.0618 -0.1330
  280MOL0     C38531   6.072   2.935   9.472  0.5625 -0.2245 -0.4795
  280MOL0     C38532   6.209   2.911   9.424 -0.1310 -0.1501 -0.0867
  280MOL0     O38533   6.297   3.014   9.438  0.4905  1.0201 -0.3806
  280MOL0     C38534   6.394   3.027   9.348  0.6323  0.2891  0.2358
  280MOL0     C38535   6.403   2.979   9.216  0.3439  0.4550 -0.3412
  280MOL0     C38536   6.515   3.006   9.140 -0.0428  0.1066  0.0906
  280MOL0     C38537   6.618   3.083   9.194  0.7875 -0.4159  0.9608
  280MOL0     O38538   6.721   3.109   9.100  0.2886  0.2059 -0.1452
  280MOL0     C38539   6.843   3.174   9.128 -0.1915  0.7048  0.0275
  280MOL0     C38540   6.937   3.085   9.204  0.0299 -0.1997  0.4179
  280MOL0     C38541   7.001   2.989   9.103  0.7191  0.3845 -0.0443
  280MOL0     C38542   7.154   2.981   9.119 -0.5968  0.3727  0.6955
  280MOL0     C38543   7.243   3.095   9.067 -0.2709  0.0807  0.9611
  280MOL0     C38544   7.393   3.070   9.074  0.0497  0.6151 -0.7884
  280MOL0     C38545   7.469   3.201   9.066  0.0106 -0.7616 -0.8558
  280MOL0     C38546   7.612   3.192   9.112 -0.7046 -0.3138  0.8959
  280MOL0    Cl38547   7.644   3.193   9.286 -0.1816 -0.4955  0.0602
  280MOL0     C38548   6.602   3.143   9.322 -0.0480  0.3890  0.3552
  280MOL0     C38549   6.483   3.126   9.392 -1.3406  0.6923  0.1263
  280MOL0     O38550   6.235   2.801   9.385  0.3411 -0.3894  0.9232
  280MOL0     C38551   5.980   2.835   9.446 -0.5153  0.2772  0.1360
  280MOL0     C38552   5.840   2.848   9.460 -0.4548 -0.3010  0.0612
  280MOL0     N38553   5.295   3.081   9.971 -0.4003  0.4893  0.3622
  280MOL0     N38554   5.252   3.175  10.052 -0.1603  0.3256 -0.2762
  280MOL0     C38555   4.068   2.875  10.104 -1.4308  0.7809  0.3967
  280MOL0     C38556   3.948   2.822  10.058 -0.7103 -0.8099 -0.5201
  280MOL0     C38557   3.579   2.691   9.856 -0.5288 -0.7925 -0.0294
  280MOL0     C38558   3.560   2.564   9.904 -0.7030  0.5587  0.8029
  280MOL0     C38559   3.437   2.495   9.883 -0.5506 -0.3344 -0.2781
  280MOL0     C38560   3.336   2.565   9.832  0.0284  0.6268  0.3902
  280MOL0     O38561   3.210   2.518   9.809  0.1509 -0.3497 -0.1845
  280MOL0     C38562   3.181   2.378   9.819 -0.4614  0.6865  1.1263
  280MOL0     C38563   3.135   2.343   9.960  0.2575  0.8704 -0.0368
  280MOL0     C38564   3.140   2.204   9.990  0.4926 -0.9713 -0.8459
  280MOL0     C38565   3.045   2.122   9.911 -0.1196 -0.4914 -0.9425
  280MOL0     C38566   2.910   2.159   9.916 -0.0175  0.5260  0.3108
  280MOL0     C38567   2.796   2.196   9.919 -0.4873 -0.0914  0.4373
  280MOL0     C38568   3.347   2.693   9.802 -0.8253 -0.6954  0.6028
  280MOL0     C38569   3.468   2.761   9.804 -0.6800 -0.1411  0.5348
  280MOL0     C38570   3.481   2.892   9.723 -0.4062 -0.3135  0.2604
  280MOL0     H38571   4.064   2.646   9.797 -0.4100  1.5442 -0.4600
  280MOL0     H38572   4.282   2.721   9.880 -1.7417 -2.0347 -0.3560
  280MOL0     H38573   4.260   3.057  10.209  0.7198  0.2143 -0.2898
  280MOL0     H38574   4.287   3.088  10.040 -1.3145  1.1902  1.6464
  280MOL0     H38575   4.452   3.165  10.189 -1.9987  0.2733 -0.0469
  280MOL0     H38576   4.490   2.994  10.244  1.3327 -0.2862 -0.0432
  280MOL0     H38577   4.563   2.942  10.012  1.7041 -1.1539  2.0016
  280MOL0     H38578   4.531   3.116   9.958  1.1227 -0.0774  0.3009
  280MOL0     H38579   4.727   3.036  10.174  1.9082  0.3931 -0.9345
  280MOL0     H38580   4.755   2.988  10.003  1.2988 -0.7803  1.3307
  280MOL0     H38581   4.700   3.284  10.103  1.7198  0.6471 -0.0200
  280MOL0     H38582   4.711   3.241   9.940  0.7085  1.0555  0.1928
  280MOL0     H38583   4.910   3.206  10.163 -0.5205  1.4511 -0.4101
  280MOL0     H38584   4.940   3.121  10.005  1.2431  0.0232 -0.6854
  280MOL0     H38585   4.889   3.411  10.063 -3.2510 -3.0105 -0.1244
  280MOL0     H38586   4.932   3.337   9.902 -0.4094  0.3689 -0.8979
  280MOL0     H38587   5.130   3.454  10.015 -2.0348  1.7786  2.7591
  280MOL0     H38588   5.125   3.355  10.154 -1.9340  1.2912 -0.0324
  280MOL0     H38589   5.117   3.267   9.766 -0.4100  1.6048  1.3673
  280MOL0     H38590   5.198   3.070   9.647  2.0235  5.6753  0.3369
  280MOL0     H38591   5.203   2.934   9.753  2.7646 -0.6161  0.7620
  280MOL0     H38592   5.442   3.106   9.639 -1.7777  0.8744 -0.7850
  280MOL0     H38593   5.457   2.980   9.770  2.4815  0.3442 -2.7003
  280MOL0     H38594   5.377   2.810   9.590  3.4453 -1.2709  0.3639
  280MOL0     H38595   5.369   2.934   9.477  2.5594 -1.0935 -1.7646
  280MOL0     H38596   5.593   2.790   9.615 -2.7114 -0.2780  0.9452
  280MOL0     H38597   5.567   2.830   9.436 -1.2490  2.4486 -1.4272
  280MOL0     H38598   5.845   3.145   9.621  2.0644 -0.4129  1.7319
  280MOL0     H38599   6.045   3.231   9.644  0.5497 -0.0263  0.8551
  280MOL0     H38600   6.154   3.216   9.506 -1.1615 -0.6319 -1.1801
  280MOL0     H38601   6.182   3.121   9.655  0.4698 -0.5713 -1.2691
  280MOL0     H38602   6.330   2.910   9.175  1.7742  0.2020 -2.6314
  280MOL0     H38603   6.515   2.973   9.037  0.7247  0.6905 -0.1063
  280MOL0     H38604   6.900   3.222   9.048 -1.3745  1.7159 -0.2345
  280MOL0     H38605   6.822   3.256   9.197  2.0159 -1.7117  3.8745
  280MOL0     H38606   7.012   3.140   9.261 -0.6447 -2.2357  3.5118
  280MOL0     H38607   6.884   3.024   9.278 -1.5116 -0.9307 -1.2131
  280MOL0     H38608   6.976   3.009   8.999 -1.3140  2.6368  0.7793
  280MOL0     H38609   6.968   2.887   9.125  0.8092 -0.6665 -4.0908
  280MOL0     H38610   7.201   2.892   9.076  2.2491  1.8941  0.4018
  280MOL0     H38611   7.173   2.975   9.226  0.7347 -2.4681  0.3791
  280MOL0     H38612   7.224   3.103   8.959 -0.5398 -1.2244  0.9008
  280MOL0     H38613   7.199   3.182   9.117 -0.7171  0.1508  0.4616
  280MOL0     H38614   7.421   2.999   8.996 -0.2274 -0.6877  0.2680
  280MOL0     H38615   7.416   3.027   9.171  2.0960 -1.9853 -2.3062
  280MOL0     H38616   7.427   3.279   9.130  1.1669 -0.3849 -0.5296
  280MOL0     H38617   7.460   3.247   8.967 -0.5802 -0.4459 -0.6595
  280MOL0     H38618   7.666   3.280   9.075 -1.9239  0.5168  1.0340
  280MOL0     H38619   7.661   3.107   9.065  0.2166  0.6119  0.1372
  280MOL0     H38620   6.688   3.201   9.354 -1.8272  2.1294  2.1914
  280MOL0     H38621   6.470   3.182   9.484 -0.1705  0.0250  0.7276
  280MOL0     H38622   6.006   2.742   9.396  1.8131  1.2760 -0.6448
  280MOL0     H38623   5.780   2.763   9.428  1.0556 -0.5579 -2.3425
  280MOL0     H38624   4.069   2.943  10.188  0.4777  0.6623  0.5208
  280MOL0     H38625   3.860   2.858  10.110 -2.2247 -2.8328 -1.5220
  280MOL0     H38626   3.641   2.511   9.954 -0.1177  0.9785  0.3190
  280MOL0     H38627   3.421   2.391   9.910 -2.3515 -0.2689 -0.9312
  280MOL0     H38628   3.098   2.342   9.757 -2.0203  0.1470  3.4001
  280MOL0     H38629   3.271   2.322   9.793  0.4980  3.0800 -1.1578
  280MOL0     H38630   3.034   2.378   9.979  0.5853  1.0622  1.5513
  280MOL0     H38631   3.194   2.401  10.032  1.1180 -1.5055  1.2930
  280MOL0     H38632   3.239   2.159   9.976 -1.1250 -4.6514 -1.8113
  280MOL0     H38633   3.119   2.200  10.097  0.0520  1.1609 -0.8088
  280MOL0     H38634   3.040   2.026   9.963  1.4627  0.3573  0.9081
  280MOL0     H38635   3.059   2.112   9.803  2.7922 -4.1157 -0.4071
  280MOL0     H38636   2.691   2.220   9.925  0.0162  2.0890  1.3462
  280MOL0     H38637   3.257   2.741   9.763  1.1109  3.3894  0.6987
  280MOL0     H38638   3.380   2.929   9.699 -0.1209 -0.0086 -0.5010
  280MOL0     H38639   3.523   2.967   9.791 -1.1069 -0.9408  1.4225
  280MOL0     H38640   3.545   2.886   9.635  3.3698 -0.5672  2.8247
  281MOL0     O38641   0.536   8.610   3.793 -0.0764 -0.1548 -0.4366
  281MOL0     C38642   0.485   8.675   3.701  0.1800  0.2804 -0.3296
  281MOL0     O38643   0.511   8.650   3.563  0.4064  0.4155  0.6110
  281MOL0     C38644   0.610   8.559   3.522 -0.1833  1.1626 -0.2272
  281MOL0     C38645   0.589   8.429   3.561  0.0620  0.2114  0.2030
  281MOL0     C38646   0.679   8.326   3.534 -0.3431  0.5850 -0.6322
  281MOL0     C38647   0.796   8.361   3.463  0.0089  0.0801  0.1390
  281MOL0     O38648   0.899   8.277   3.429 -0.9910  0.4459 -0.5529
  281MOL0     C38649   0.868   8.133   3.443 -0.0952  0.0211 -0.5399
  281MOL0     C38650   0.989   8.064   3.363  0.6051  0.7148  0.3419
  281MOL0     C38651   1.116   8.070   3.446  0.0757  0.0394 -0.7287
  281MOL0     C38652   1.235   8.010   3.364 -0.0007 -0.6352 -0.5925
  281MOL0     C38653   1.373   8.031   3.430  0.4303  0.3052  0.2525
  281MOL0     C38654   1.421   8.172   3.404 -0.1362 -0.2590  0.2946
  281MOL0     C38655   1.564   8.197   3.368  1.1205 -0.0685 -0.2259
  281MOL0     C38656   1.663   8.133   3.464  0.1400 -0.5566 -0.1856
  281MOL0     N38657   1.802   8.144   3.405 -0.3158 -0.1586  0.3160
  281MOL0     C38658   1.872   8.263   3.381  0.6860 -0.6647  0.3986
  281MOL0     C38659   1.996   8.225   3.337 -0.1342 -0.7446  0.4489
  281MOL0     C38660   2.091   8.341   3.283  0.1959  0.1226  0.7194
  281MOL0     C38661   2.230   8.332   3.333 -0.3696 -0.0733  0.4591
  281MOL0     C38662   2.247   8.390   3.465 -0.4837 -0.6402 -0.3104
  281MOL0     C38663   2.386   8.364   3.520  0.2751  0.2685  0.2644
  281MOL0     O38664   2.413   8.225   3.530 -0.0740 -0.1670  0.0558
  281MOL0     C38665   2.530   8.183   3.589  0.0908 -0.4823  0.0807
  281MOL0     C38666   2.535   8.055   3.640  0.4555  0.5528  0.2459
  281MOL0     C38667   2.636   8.004   3.716 -0.3780  0.3668  0.2302
  281MOL0     C38668   2.621   7.853   3.751  0.1836  0.9350 -0.3124
  281MOL0     C38669   2.745   8.084   3.751  0.2882  0.4226 -1.7021
  281MOL0     C38670   2.854   8.044   3.836  1.1768 -0.3597 -0.7957
  281MOL0     O38671   2.953   8.144   3.861  0.4551  0.0287  0.0631
  281MOL0     C38672   3.060   8.131   3.942  0.0861  0.2436  0.2243
  281MOL0     C38673   3.122   8.011   3.963 -0.2749  0.1555  0.6534
  281MOL0     C38674   3.221   8.006   4.061  0.4666  0.3621  0.4616
  281MOL0     C38675   3.260   8.116   4.134  0.6096  0.3143  0.8635
  281MOL0     O38676   3.348   8.092   4.234 -0.9124 -0.3340  0.3678
  281MOL0     C38677   3.342   8.169   4.363 -0.2370  0.2809 -0.5518
  281MOL0     C38678   3.427   8.290   4.362  0.0967  0.1478  0.4865
  281MOL0     C38679   3.466   8.340   4.503  0.7975 -0.0578  0.5093
  281MOL0     C38680   3.565   8.455   4.503 -0.6054 -0.7529 -0.0893
  281MOL0     C38681   3.499   8.597   4.477 -0.5303  0.3428  0.1497
  281MOL0     C38682   3.604   8.700   4.435 -0.5856 -0.4063  0.5799
  281MOL0     C38683   3.684   8.757   4.553  0.3200  0.4296 -0.3419
  281MOL0     C38684   3.836   8.775   4.519  1.1911  0.1897  0.5643
  281MOL0    Cl38685   3.860   8.896   4.380  0.0955 -0.1925 -0.5753
  281MOL0     C38686   3.201   8.236   4.105  0.9699  0.6830  0.5269
  281MOL0     C38687   3.097   8.247   4.012 -0.1356  0.4552  0.1906
  281MOL0     O38688   2.852   7.929   3.890  0.1570 -0.1938  0.4116
  281MOL0     C38689   2.735   8.221   3.707 -0.3283  0.2390  0.1067
  281MOL0     C38690   2.637   8.268   3.624 -0.5289  0.5173 -0.3991
  281MOL0     N38691   1.997   8.081   3.325 -0.1015  0.8107 -0.0301
  281MOL0     N38692   1.887   8.043   3.369 -0.0736  0.1883  0.5069
  281MOL0     C38693   0.817   8.492   3.428  0.7888  0.5566 -0.1314
  281MOL0     C38694   0.722   8.591   3.455  0.1304  0.7895 -0.1813
  281MOL0     C38695   0.399   8.787   3.735  0.7376 -0.0331 -0.2623
  281MOL0     C38696   0.417   8.908   3.665 -0.7929 -0.4312 -0.3004
  281MOL0     C38697   0.336   9.024   3.701 -0.1885 -0.5523  0.1935
  281MOL0     C38698   0.245   9.018   3.811  1.0512 -0.3203  0.3340
  281MOL0     O38699   0.168   9.120   3.856  0.1591  0.1979 -0.5906
  281MOL0     C38700   0.183   9.254   3.794  0.4192 -0.0394  0.6816
  281MOL0     C38701   0.055   9.339   3.819 -0.6017  0.5458 -0.0439
  281MOL0     C38702   0.051   9.406   3.958  0.1276  0.0706 -0.6501
  281MOL0     C38703  -0.092   9.447   3.991 -0.1316  0.6546  0.3596
  281MOL0     C38704  -0.153   9.538   3.895  0.2004 -0.5500  0.3250
  281MOL0     C38705  -0.195   9.614   3.808 -1.3943 -0.7744  0.1395
  281MOL0     C38706   0.225   8.888   3.867 -0.5604 -0.3897  0.0676
  281MOL0     C38707   0.303   8.775   3.839  0.3118 -0.0202  0.1606
  281MOL0     C38708   0.270   8.648   3.916  0.1335  0.5155  0.7867
  281MOL0     H38709   0.508   8.406   3.630 -1.0903  0.6511 -0.9557
  281MOL0     H38710   0.645   8.225   3.555  1.5809 -0.3242 -1.6711
  281MOL0     H38711   0.775   8.110   3.390 -0.4519  1.4592 -0.5848
  281MOL0     H38712   0.854   8.102   3.547 -0.1749  0.2113 -0.4944
  281MOL0     H38713   0.973   7.957   3.348 -0.4791  0.4724  2.7006
  281MOL0     H38714   1.016   8.125   3.276  1.7141  0.2272  0.3213
  281MOL0     H38715   1.148   8.170   3.479  1.9966 -0.3253 -1.3332
  281MOL0     H38716   1.102   8.003   3.531 -1.5745 -2.6526 -2.9670
  281MOL0     H38717   1.209   7.905   3.352 -3.8692  0.2494 -1.2233
  281MOL0     H38718   1.246   8.054   3.265  0.5900  2.0513  0.5639
  281MOL0     H38719   1.424   7.951   3.377  0.6758 -1.4607  2.9643
  281MOL0     H38720   1.374   8.000   3.535 -1.6734  2.0062  0.8621
  281MOL0     H38721   1.363   8.225   3.328  0.0548  5.0967  3.3809
  281MOL0     H38722   1.399   8.227   3.496  2.4770 -0.3871  1.0856
  281MOL0     H38723   1.587   8.304   3.361  1.5105 -0.2371 -2.7565
  281MOL0     H38724   1.587   8.155   3.269  0.4553 -0.9977  0.0027
  281MOL0     H38725   1.657   8.187   3.558 -0.7740  1.9969 -1.6310
  281MOL0     H38726   1.640   8.026   3.475 -2.7552  0.1704  2.0026
  281MOL0     H38727   1.843   8.368   3.383 -2.6875 -1.4409 -0.8076
  281MOL0     H38728   2.041   8.437   3.300 -3.0626 -0.4285 -3.7352
  281MOL0     H38729   2.098   8.340   3.174 -0.9395  0.0954  0.6367
  281MOL0     H38730   2.277   8.233   3.320  1.1955  0.2733  2.8755
  281MOL0     H38731   2.281   8.392   3.257 -0.9443  0.6408  0.6279
  281MOL0     H38732   2.239   8.497   3.443 -0.4566 -0.9862 -2.1690
  281MOL0     H38733   2.166   8.361   3.532 -1.4224 -1.7725 -1.8724
  281MOL0     H38734   2.452   8.408   3.445 -1.0638  0.8414 -0.6249
  281MOL0     H38735   2.409   8.414   3.614 -0.2591 -0.6507  0.9049
  281MOL0     H38736   2.454   7.985   3.624  2.5861 -1.3974 -3.1958
  281MOL0     H38737   2.699   7.788   3.710 -0.3734 -1.2324  1.8501
  281MOL0     H38738   2.522   7.818   3.722 -0.4271  2.9446 -0.7962
  281MOL0     H38739   2.621   7.846   3.860  2.1329  2.8397 -0.1203
  281MOL0     H38740   3.095   7.925   3.903 -0.2442  0.8843 -0.4376
  281MOL0     H38741   3.282   7.918   4.082  1.0477  0.5738 -0.2909
  281MOL0     H38742   3.239   8.196   4.389 -0.2854 -3.0404  3.9815
  281MOL0     H38743   3.365   8.104   4.448 -0.9913  0.7458  0.0213
  281MOL0     H38744   3.506   8.270   4.289 -0.6427 -0.2127 -0.2315
  281MOL0     H38745   3.360   8.369   4.325  0.0726 -0.4154 -0.7221
  281MOL0     H38746   3.495   8.252   4.561 -2.4474 -1.1529  0.6699
  281MOL0     H38747   3.374   8.376   4.551 -0.4828  1.9376 -3.1000
  281MOL0     H38748   3.648   8.444   4.432 -1.3717 -2.4419 -0.7660
  281MOL0     H38749   3.618   8.454   4.599  1.3856  2.2297 -0.9769
  281MOL0     H38750   3.422   8.584   4.401 -0.6818  1.9925 -0.0034
  281MOL0     H38751   3.453   8.629   4.571  0.3268  0.0109  0.6982
  281MOL0     H38752   3.566   8.788   4.381 -0.0010 -0.4639  0.0690
  281MOL0     H38753   3.665   8.651   4.359  1.1575 -0.1632  1.7591
  281MOL0     H38754   3.670   8.690   4.639 -1.6205  2.1875  0.8109
  281MOL0     H38755   3.642   8.851   4.590  0.0082  0.8686 -1.7417
  281MOL0     H38756   3.887   8.682   4.495  2.9279  0.4169  2.9780
  281MOL0     H38757   3.888   8.820   4.605  1.0750  0.6835  0.3791
  281MOL0     H38758   3.228   8.330   4.151  0.5496  0.8829  0.3755
  281MOL0     H38759   3.045   8.340   3.991 -2.0253 -0.0060  2.3255
  281MOL0     H38760   2.803   8.299   3.739  1.5347 -0.6912 -1.3849
  281MOL0     H38761   2.649   8.374   3.602  0.7600  0.6985  0.9907
  281MOL0     H38762   0.911   8.508   3.376  0.6335  0.9229 -0.3026
  281MOL0     H38763   0.716   8.694   3.419 -2.0350  0.6526 -0.3150
  281MOL0     H38764   0.502   8.917   3.598 -0.1584 -0.4532  0.4978
  281MOL0     H38765   0.344   9.117   3.645  0.5895  0.2986  1.6834
  281MOL0     H38766   0.273   9.304   3.830 -1.1298  0.5287  4.1620
  281MOL0     H38767   0.182   9.238   3.685 -1.4504  0.2802  0.6054
  281MOL0     H38768  -0.033   9.276   3.800  1.0739 -1.8058 -0.3944
  281MOL0     H38769   0.051   9.414   3.740 -0.5384 -0.1702 -0.7379
  281MOL0     H38770   0.086   9.331   4.029 -1.1770 -1.8622 -1.9623
  281MOL0     H38771   0.121   9.490   3.964  1.5055 -1.0445 -0.4989
  281MOL0     H38772  -0.089   9.483   4.094  1.7869  1.6881 -0.0235
  281MOL0     H38773  -0.165   9.365   4.001  1.4857 -0.6526  2.5722
  281MOL0     H38774  -0.221   9.695   3.743 -1.5459  0.9759  2.2512
  281MOL0     H38775   0.145   8.866   3.938  2.3447 -2.6581  2.9368
  281MOL0     H38776   0.193   8.648   3.993  2.8614 -1.0822  3.8037
  281MOL0     H38777   0.237   8.569   3.848  1.9478  0.3663  0.0054
  281MOL0     H38778   0.362   8.610   3.963  0.7801  0.7472 -0.2406
  282MOL0     O38779   0.395   0.600  11.271  0.0185 -0.3315 -0.6035
  282MOL0     C38780   0.349   0.488  11.267  0.5059  0.2119  1.1794
  282MOL0     O38781   0.415   0.371  11.289 -0.7594 -0.0957  0.1977
  282MOL0     C38782   0.553   0.371  11.305  0.5596 -0.5558 -0.1219
  282MOL0     C38783   0.600   0.258  11.387  0.0467 -0.5553 -0.8697
  282MOL0     C38784   0.730   0.226  11.395  0.5309 -0.3628  0.6127
  282MOL0     C38785   0.824   0.301  11.330 -0.6457  0.3002  0.4498
  282MOL0     O38786   0.958   0.274  11.326 -0.3317  0.0023  0.1288
  282MOL0     C38787   1.023   0.214  11.447 -0.8883  0.6428  0.1566
  282MOL0     C38788   1.054   0.313  11.551 -0.2148  0.4436  0.0589
  282MOL0     C38789   1.138   0.439  11.497  0.1860 -0.4777  0.8956
  282MOL0     C38790   1.290   0.410  11.503 -0.1450 -0.2963 -0.0518
  282MOL0     C38791   1.371   0.532  11.443  0.5701  0.2285  0.9383
  282MOL0     C38792   1.518   0.500  11.435  0.8277 -0.0117 -0.1480
  282MOL0     C38793   1.596   0.598  11.344 -0.0727 -0.6672 -0.3033
  282MOL0     C38794   1.733   0.532  11.315 -0.6570 -0.0861 -0.2823
  282MOL0     N38795   1.825   0.632  11.249  1.0651  0.0227  0.4073
  282MOL0     C38796   1.961   0.608  11.224  0.5357 -0.4999 -0.5892
  282MOL0     C38797   2.002   0.725  11.164 -0.8340 -0.4199  0.2615
  282MOL0     C38798   2.145   0.749  11.128  0.5816  0.1064  0.8730
  282MOL0     C38799   2.237   0.767  11.247 -0.1452  1.0321 -0.1478
  282MOL0     C38800   2.366   0.838  11.215  0.7206  0.1919 -0.2312
  282MOL0     C38801   2.484   0.752  11.180  0.6296  0.5032  0.0081
  282MOL0     O38802   2.460   0.693  11.050  0.4945 -0.6318 -0.2455
  282MOL0     C38803   2.539   0.591  11.004  0.1655  0.7496  0.8113
  282MOL0     C38804   2.494   0.525  10.886 -0.7397  0.1569 -0.5257
  282MOL0     C38805   2.570   0.423  10.834  0.4546  0.4916  0.0276
  282MOL0     C38806   2.516   0.369  10.698  0.4776  0.0912 -0.0571
  282MOL0     C38807   2.695   0.381  10.900  0.2557  0.2244 -0.2413
  282MOL0     C38808   2.787   0.295  10.830 -0.3550  1.0144  0.0092
  282MOL0     O38809   2.906   0.279  10.906  0.2802  1.1401 -1.0885
  282MOL0     C38810   2.971   0.161  10.922 -0.5082  0.0614 -0.3736
  282MOL0     C38811   3.093   0.152  10.986 -0.3068 -0.9718 -0.6753
  282MOL0     C38812   3.169   0.038  11.003 -0.2804  0.1382 -0.0395
  282MOL0     C38813   3.117  -0.086  10.967 -0.1060 -0.6800 -0.7771
  282MOL0     O38814   3.183  -0.205  11.001 -0.4606 -0.4219 -0.0894
  282MOL0     C38815   3.231  -0.219  11.139  0.7594 -0.9071 -0.5917
  282MOL0     C38816   3.252  -0.365  11.194 -0.5618  1.1041 -0.1307
  282MOL0     C38817   3.118  -0.450  11.203 -0.4784 -0.5197 -0.0506
  282MOL0     C38818   3.049  -0.490  11.073  0.5787 -0.1307 -0.1585
  282MOL0     C38819   2.950  -0.604  11.109 -0.8077 -0.2683 -0.6337
  282MOL0     C38820   2.863  -0.650  10.994 -0.4429 -0.2536  0.1363
  282MOL0     C38821   2.943  -0.727  10.892  1.1896 -0.2883 -0.6305
  282MOL0     C38822   2.864  -0.797  10.777 -0.0156 -0.0345  0.2767
  282MOL0    Cl38823   2.707  -0.860  10.845 -0.2397  0.4346  0.2483
  282MOL0     C38824   2.989  -0.083  10.907  0.8274 -0.3569  0.3241
  282MOL0     C38825   2.923   0.035  10.883  0.5193  0.0748 -0.6588
  282MOL0     O38826   2.770   0.244  10.712  0.3851  0.0112 -0.1432
  282MOL0     C38827   2.730   0.441  11.024  0.3038  0.4559 -0.0047
  282MOL0     C38828   2.658   0.549  11.070 -0.1480  0.2256  0.6142
  282MOL0     N38829   1.895   0.812  11.156 -0.5013 -0.3631 -0.3225
  282MOL0     N38830   1.793   0.753  11.194  0.0002  0.3450 -0.1740
  282MOL0     C38831   0.776   0.394  11.237 -0.3195 -0.8104 -0.7867
  282MOL0     C38832   0.647   0.440  11.235  0.1561 -0.0727  1.1317
  282MOL0     C38833   0.200   0.482  11.264 -0.3507  0.7374 -0.1834
  282MOL0     C38834   0.145   0.354  11.239  0.1485  0.2426 -0.1054
  282MOL0     C38835   0.012   0.320  11.244  0.0097 -0.2014 -0.6621
  282MOL0     C38836  -0.078   0.425  11.263 -0.6216 -0.3424 -0.2066
  282MOL0     O38837  -0.214   0.414  11.277  0.5006 -0.0183  0.4404
  282MOL0     C38838  -0.270   0.285  11.277 -0.6905  0.5672 -0.3684
  282MOL0     C38839  -0.421   0.293  11.293  0.4319  0.2624  0.7712
  282MOL0     C38840  -0.485   0.149  11.307  0.6927 -0.2232  0.6508
  282MOL0     C38841  -0.596   0.155  11.413 -0.9134  0.8171  0.0563
  282MOL0     C38842  -0.637   0.015  11.444  0.3067 -0.4553  0.1871
  282MOL0     C38843  -0.664  -0.090  11.485  0.3140  0.2116 -0.1297
  282MOL0     C38844  -0.033   0.554  11.281 -0.2262 -0.3334  0.1519
  282MOL0     C38845   0.101   0.583  11.277  0.1145  0.2528 -0.2291
  282MOL0     C38846   0.138   0.728  11.274  1.0932  0.4892  0.0287
  282MOL0     H38847   0.526   0.195  11.436 -0.9550  1.3555  0.2461
  282MOL0     H38848   0.772   0.151  11.461  0.0815 -1.1982 -0.0358
  282MOL0     H38849   1.111   0.157  11.415 -2.5128 -1.4244 -0.8646
  282MOL0     H38850   0.960   0.139  11.496 -1.1238  0.9381  0.3069
  282MOL0     H38851   0.960   0.339  11.601  0.2138 -3.0220  3.1574
  282MOL0     H38852   1.116   0.255  11.620  2.3626 -0.1204 -2.5107
  282MOL0     H38853   1.092   0.469  11.403 -2.0577 -0.0105  2.0806
  282MOL0     H38854   1.109   0.526  11.557  1.1016 -2.1521  3.9930
  282MOL0     H38855   1.327   0.410  11.606  1.5901 -0.2023 -0.6531
  282MOL0     H38856   1.307   0.315  11.452 -1.1920 -1.4553  1.6523
  282MOL0     H38857   1.355   0.621  11.505  1.4605 -1.1326  3.2736
  282MOL0     H38858   1.335   0.555  11.342 -0.4349 -1.1988  0.9357
  282MOL0     H38859   1.571   0.494  11.530  1.3757 -0.7226 -0.4849
  282MOL0     H38860   1.523   0.393  11.409 -1.0728 -0.3555  0.6726
  282MOL0     H38861   1.606   0.684  11.411  0.5097 -1.3891  0.5553
  282MOL0     H38862   1.548   0.624  11.249  1.3945 -1.3959 -1.2869
  282MOL0     H38863   1.773   0.506  11.414 -1.3945  2.3131  0.7255
  282MOL0     H38864   1.727   0.440  11.257  0.1849 -0.4166  0.1292
  282MOL0     H38865   2.022   0.523  11.253 -0.3277 -1.6420 -1.9889
  282MOL0     H38866   2.155   0.841  11.068  1.4538  0.2677  1.2472
  282MOL0     H38867   2.180   0.663  11.071  1.4112  1.3395 -0.5594
  282MOL0     H38868   2.189   0.823  11.327 -2.9246 -1.4464  0.0736
  282MOL0     H38869   2.264   0.672  11.295  2.1732  1.1309 -1.0944
  282MOL0     H38870   2.361   0.907  11.130 -0.5563 -0.3887 -0.6461
  282MOL0     H38871   2.400   0.895  11.302 -2.4593 -0.2770  1.4482
  282MOL0     H38872   2.576   0.812  11.178  0.4866  0.7246 -1.6059
  282MOL0     H38873   2.495   0.680  11.261  0.1911  0.6966  0.2396
  282MOL0     H38874   2.403   0.552  10.833 -0.8792  0.8910  0.0861
  282MOL0     H38875   2.570   0.402  10.609  0.6973  0.9075  0.3675
  282MOL0     H38876   2.413   0.401  10.680 -0.2672 -2.2965 -0.3315
  282MOL0     H38877   2.525   0.260  10.707  2.5020  0.0456 -1.9567
  282MOL0     H38878   3.139   0.244  11.020 -0.8987 -0.2541 -1.7925
  282MOL0     H38879   3.271   0.040  11.041  0.3640  0.7388 -1.6867
  282MOL0     H38880   3.328  -0.168  11.145  0.6138 -0.7438  0.5614
  282MOL0     H38881   3.161  -0.164  11.203 -1.3299  0.8189 -4.0883
  282MOL0     H38882   3.324  -0.420  11.133 -2.1410  2.0067 -2.9785
  282MOL0     H38883   3.303  -0.352  11.290  1.2690 -1.2055 -0.6904
  282MOL0     H38884   3.049  -0.387  11.259 -1.3677 -0.4325 -1.2154
  282MOL0     H38885   3.131  -0.541  11.264 -1.3885 -0.8839 -0.3700
  282MOL0     H38886   3.120  -0.521  10.995  0.9221  2.1990 -0.8586
  282MOL0     H38887   2.998  -0.402  11.032 -2.7581 -1.7160  0.2855
  282MOL0     H38888   3.004  -0.690  11.151  0.5670  0.7272 -0.2673
  282MOL0     H38889   2.885  -0.573  11.191  1.0618 -1.4288  1.4139
  282MOL0     H38890   2.813  -0.567  10.943  0.2070 -2.1206 -3.9525
  282MOL0     H38891   2.784  -0.716  11.028 -1.8370  0.9086 -0.7043
  282MOL0     H38892   3.004  -0.801  10.944  2.8288  0.5032 -1.3672
  282MOL0     H38893   3.017  -0.663  10.844  1.1123 -0.0050 -0.3778
  282MOL0     H38894   2.933  -0.874  10.740  2.1289  2.7914 -2.0901
  282MOL0     H38895   2.851  -0.724  10.697  0.1451 -1.0406 -0.6826
  282MOL0     H38896   2.945  -0.181  10.890  2.4634 -1.1749  0.6123
  282MOL0     H38897   2.819   0.032  10.854 -0.9686  0.9265  3.7579
  282MOL0     H38898   2.823   0.410  11.070 -0.5184  0.2209  1.5404
  282MOL0     H38899   2.700   0.585  11.164  1.3139  2.1937 -0.7242
  282MOL0     H38900   0.852   0.441  11.176 -1.2754  0.7610 -0.8267
  282MOL0     H38901   0.627   0.528  11.175 -0.0952 -0.5569  0.4995
  282MOL0     H38902   0.218   0.276  11.220  1.8983  1.9403 -0.6681
  282MOL0     H38903  -0.036   0.223  11.237 -0.9354  0.3000 -1.6328
  282MOL0     H38904  -0.243   0.232  11.185  0.5475  0.2710  0.1492
  282MOL0     H38905  -0.234   0.223  11.360 -1.6451  1.6085  0.8604
  282MOL0     H38906  -0.465   0.349  11.210 -0.3408 -3.9803 -2.0030
  282MOL0     H38907  -0.445   0.338  11.390 -0.4029  0.7697  0.3405
  282MOL0     H38908  -0.535   0.123  11.213  0.0961  1.4645  0.4522
  282MOL0     H38909  -0.404   0.080  11.329  1.2278  0.5468  1.1728
  282MOL0     H38910  -0.689   0.207  11.388 -1.1490  0.5075  0.2927
  282MOL0     H38911  -0.559   0.202  11.504 -0.3038 -0.7194  0.6390
  282MOL0     H38912  -0.704  -0.184  11.518  0.7338  0.0806  0.0080
  282MOL0     H38913  -0.107   0.631  11.297 -2.8694 -2.2273 -1.9603
  282MOL0     H38914   0.212   0.744  11.195 -0.8098  2.3573 -1.5009
  282MOL0     H38915   0.053   0.791  11.245  1.3589  1.8239  1.9759
  282MOL0     H38916   0.173   0.774  11.367  0.0880  0.1345  0.5981
  283MOL0     O38917   2.298   7.358   3.413 -0.3609 -0.8904  0.9516
  283MOL0     C38918   2.198   7.432   3.438 -0.1561  0.4806  0.0444
  283MOL0     O38919   2.191   7.524   3.541 -0.5468 -0.0026 -0.5824
  283MOL0     C38920   2.287   7.537   3.644 -0.3323 -0.2301 -0.4899
  283MOL0     C38921   2.424   7.505   3.628  0.0658  0.0052 -0.0057
  283MOL0     C38922   2.510   7.520   3.740  0.6966  0.6768  0.2031
  283MOL0     C38923   2.456   7.545   3.871 -0.3290 -0.6446  0.4803
  283MOL0     O38924   2.547   7.550   3.974 -0.0537  0.0055 -0.0017
  283MOL0     C38925   2.536   7.456   4.087 -0.3279 -0.1260  0.2331
  283MOL0     C38926   2.684   7.435   4.115  0.5894 -1.1661  0.0253
  283MOL0     C38927   2.765   7.566   4.134  0.2679  0.2586 -0.4622
  283MOL0     C38928   2.890   7.540   4.222 -0.8393 -0.1648 -0.0215
  283MOL0     C38929   2.957   7.671   4.266 -0.5763  0.9430 -0.0104
  283MOL0     C38930   3.076   7.658   4.361 -0.9313 -0.0906 -0.0780
  283MOL0     C38931   3.058   7.578   4.487  0.3865 -0.8825 -0.2716
  283MOL0     C38932   3.172   7.583   4.589 -0.3611  0.7972  0.4541
  283MOL0     N38933   3.177   7.709   4.674  0.7562  0.3205  0.0100
  283MOL0     C38934   3.276   7.807   4.667 -0.1539  1.2254  0.3709
  283MOL0     C38935   3.227   7.894   4.761  0.1791 -0.0492 -0.8106
  283MOL0     C38936   3.295   8.016   4.814  0.3978 -0.0811  0.5872
  283MOL0     C38937   3.431   8.007   4.876  0.4038 -0.5346 -0.0062
  283MOL0     C38938   3.426   7.921   5.001 -0.5507  0.3371 -1.2022
  283MOL0     C38939   3.568   7.875   5.067  0.4782 -0.0097  0.2252
  283MOL0     O38940   3.651   7.802   4.971  0.6341 -0.5271  0.1904
  283MOL0     C38941   3.782   7.785   4.994 -0.4163 -1.0387 -0.2415
  283MOL0     C38942   3.858   7.733   4.889 -0.7221 -0.5146 -0.3617
  283MOL0     C38943   3.993   7.700   4.913 -0.2607 -0.3724  0.2620
  283MOL0     C38944   4.058   7.635   4.792  0.1196  0.0931 -0.0429
  283MOL0     C38945   4.052   7.726   5.036 -0.2723  0.5440 -0.2137
  283MOL0     C38946   4.189   7.699   5.062 -0.4599 -0.4977 -0.0529
  283MOL0     O38947   4.220   7.680   5.197 -0.5283 -0.0539 -0.3545
  283MOL0     C38948   4.359   7.685   5.217  0.0138  0.5290 -0.5666
  283MOL0     C38949   4.412   7.814   5.234  0.0317 -0.1599  0.2060
  283MOL0     C38950   4.546   7.832   5.272  0.5834 -0.0247  0.2915
  283MOL0     C38951   4.623   7.725   5.281  0.1313  0.0834 -0.1265
  283MOL0     O38952   4.748   7.758   5.311  0.3826 -0.6140 -0.7788
  283MOL0     C38953   4.851   7.661   5.322  0.0183 -0.4023  0.6346
  283MOL0     C38954   4.971   7.727   5.397  0.0094  0.6869 -0.2208
  283MOL0     C38955   5.114   7.669   5.386 -0.4139  0.3079  0.0313
  283MOL0     C38956   5.228   7.733   5.475  1.0044 -0.1272 -0.1630
  283MOL0     C38957   5.364   7.662   5.459 -0.1990 -0.1525 -0.7646
  283MOL0     C38958   5.434   7.668   5.327 -0.6159  0.2208  0.9193
  283MOL0     C38959   5.540   7.553   5.314 -0.1492  0.5897  0.0437
  283MOL0     C38960   5.664   7.584   5.391  0.1328 -0.5054 -0.3005
  283MOL0    Cl38961   5.741   7.732   5.338  0.4459 -0.0293 -0.2582
  283MOL0     C38962   4.572   7.597   5.262 -0.5080 -0.5413  0.6887
  283MOL0     C38963   4.436   7.575   5.234  0.0556 -0.3811 -0.3707
  283MOL0     O38964   4.275   7.702   4.975 -0.0513 -0.3225  0.1431
  283MOL0     C38965   3.975   7.776   5.140  0.0931  0.1745  0.8318
  283MOL0     C38966   3.838   7.809   5.122 -1.6423  0.1601  0.0817
  283MOL0     N38967   3.100   7.865   4.793 -0.6857 -0.4290  0.0867
  283MOL0     N38968   3.071   7.754   4.738 -0.0537  0.8752 -0.6905
  283MOL0     C38969   2.320   7.556   3.884  0.4960 -0.4278  0.2521
  283MOL0     C38970   2.236   7.567   3.770 -0.4195  0.9197  0.9395
  283MOL0     C38971   2.078   7.433   3.346 -0.3815 -1.2626  0.6025
  283MOL0     C38972   2.014   7.564   3.341 -0.0762 -0.0739  0.3618
  283MOL0     C38973   1.900   7.583   3.265 -0.2988 -0.5234  0.1998
  283MOL0     C38974   1.850   7.480   3.182  0.0336 -0.4304  0.3036
  283MOL0     O38975   1.725   7.491   3.126 -0.3927  0.8892  0.5516
  283MOL0     C38976   1.610   7.533   3.201 -0.2425  0.6675 -0.5975
  283MOL0     C38977   1.488   7.554   3.114 -0.7451  0.2904  0.1615
  283MOL0     C38978   1.361   7.616   3.169 -0.2499 -0.0662  0.1002
  283MOL0     C38979   1.235   7.596   3.081  0.3383 -1.2641  0.1914
  283MOL0     C38980   1.128   7.661   3.158  0.0936  0.7261  0.2611
  283MOL0     C38981   1.035   7.716   3.213  0.2144 -0.0039  0.6875
  283MOL0     C38982   1.923   7.359   3.175  0.0140 -0.3148  0.6440
  283MOL0     C38983   2.041   7.342   3.248  0.0820 -0.1714  0.3440
  283MOL0     C38984   2.105   7.206   3.233  0.1963  0.2067 -0.3152
  283MOL0     H38985   2.465   7.466   3.535  0.3755  2.5851 -1.0607
  283MOL0     H38986   2.616   7.495   3.733 -0.0173 -2.8023 -0.1805
  283MOL0     H38987   2.475   7.368   4.065 -5.2759  1.9650  3.9275
  283MOL0     H38988   2.493   7.512   4.170  1.3405  2.6297 -0.6398
  283MOL0     H38989   2.706   7.374   4.202 -2.3986 -0.4605  1.4312
  283MOL0     H38990   2.728   7.378   4.033  2.1381  0.0729 -0.0602
  283MOL0     H38991   2.802   7.606   4.039  1.3915 -0.6228 -0.4101
  283MOL0     H38992   2.695   7.639   4.176 -0.2984 -0.1737 -0.6348
  283MOL0     H38993   2.863   7.482   4.311 -1.3161 -0.8063 -0.5694
  283MOL0     H38994   2.968   7.487   4.168 -0.1551  1.3623 -0.6022
  283MOL0     H38995   2.881   7.740   4.303 -0.8431  0.9231 -0.5254
  283MOL0     H38996   3.004   7.712   4.177  1.4732 -2.0313 -0.4745
  283MOL0     H38997   3.170   7.626   4.314 -0.4283  1.0659  0.0819
  283MOL0     H38998   3.100   7.758   4.400 -0.1673 -0.2932 -0.0163
  283MOL0     H38999   3.041   7.476   4.451  0.7113 -1.9402  2.3560
  283MOL0     H39000   2.966   7.601   4.543  0.6845  0.4956 -0.3092
  283MOL0     H39001   3.152   7.499   4.656  3.0912 -2.4047 -2.0871
  283MOL0     H39002   3.268   7.573   4.538  0.6977  0.5558  2.4357
  283MOL0     H39003   3.377   7.809   4.627  0.4878  0.1594  1.8406
  283MOL0     H39004   3.233   8.055   4.896 -0.6063 -0.5853  0.0805
  283MOL0     H39005   3.296   8.092   4.735 -1.5617 -0.1995  0.3889
  283MOL0     H39006   3.499   7.962   4.803  2.8531  1.1719  1.1184
  283MOL0     H39007   3.475   8.102   4.909 -2.1261 -0.0655  2.4163
  283MOL0     H39008   3.382   7.974   5.087  0.2415 -3.0322  1.4822
  283MOL0     H39009   3.365   7.831   4.991  1.4039 -1.7093  3.0138
  283MOL0     H39010   3.613   7.970   5.095 -2.6118  2.0759 -1.3840
  283MOL0     H39011   3.540   7.816   5.154  0.4815  0.7213  0.7277
  283MOL0     H39012   3.804   7.718   4.796  2.2951 -0.7063 -2.2347
  283MOL0     H39013   4.104   7.708   4.725  1.3920 -0.4973  0.1538
  283MOL0     H39014   3.986   7.573   4.739  1.9891 -1.7525 -0.5757
  283MOL0     H39015   4.141   7.569   4.821  0.5233 -1.0583 -3.4120
  283MOL0     H39016   4.348   7.902   5.227  2.2338  1.5014 -0.0002
  283MOL0     H39017   4.579   7.935   5.283  0.2053 -0.0818  2.2044
  283MOL0     H39018   4.829   7.567   5.375  1.4115 -0.0521  1.9134
  283MOL0     H39019   4.873   7.628   5.221  1.5401 -2.6655  1.6192
  283MOL0     H39020   4.988   7.828   5.360  0.5604  1.0163  0.8931
  283MOL0     H39021   4.951   7.731   5.504  1.2717  0.5237  0.0445
  283MOL0     H39022   5.138   7.675   5.280  0.9424 -0.1643  0.2903
  283MOL0     H39023   5.105   7.564   5.413  1.1492 -0.3158 -1.6760
  283MOL0     H39024   5.193   7.735   5.579  0.5667  2.2441 -0.2829
  283MOL0     H39025   5.222   7.833   5.431  2.6160 -0.6876 -1.7774
  283MOL0     H39026   5.421   7.714   5.536  0.9702  2.5507 -3.2546
  283MOL0     H39027   5.347   7.558   5.489 -0.0614  0.1973  0.6118
  283MOL0     H39028   5.481   7.765   5.310  0.8450 -0.4489  1.0292
  283MOL0     H39029   5.362   7.639   5.249  0.8699  0.5773 -0.6565
  283MOL0     H39030   5.570   7.537   5.210  2.2794  0.9658  0.6148
  283MOL0     H39031   5.501   7.462   5.362  0.6255  0.2561  0.0525
  283MOL0     H39032   5.739   7.505   5.390  0.6887 -0.1050  2.3465
  283MOL0     H39033   5.640   7.598   5.497 -2.0173 -1.4583 -0.6108
  283MOL0     H39034   4.637   7.510   5.269  1.7599  0.8253 -1.7350
  283MOL0     H39035   4.380   7.483   5.218  0.5341 -1.0011  1.2854
  283MOL0     H39036   4.023   7.797   5.235 -4.5153  1.8250  3.1294
  283MOL0     H39037   3.790   7.844   5.213  3.1999 -0.3668  3.1997
  283MOL0     H39038   2.279   7.557   3.985  3.1657 -1.1060  1.4229
  283MOL0     H39039   2.134   7.586   3.802 -0.2798  1.8534  0.8560
  283MOL0     H39040   2.045   7.658   3.387  1.6538 -0.7753  0.7070
  283MOL0     H39041   1.862   7.684   3.257  3.5345  1.6452  4.2953
  283MOL0     H39042   1.596   7.459   3.280  2.5024  0.3453 -0.2961
  283MOL0     H39043   1.633   7.630   3.246  0.0038  0.7623 -0.9206
  283MOL0     H39044   1.460   7.456   3.076 -2.9522  1.4459 -1.4581
  283MOL0     H39045   1.525   7.616   3.032  1.9477  0.9149  1.7137
  283MOL0     H39046   1.337   7.583   3.270 -3.3258 -0.9321 -0.8293
  283MOL0     H39047   1.384   7.723   3.171 -0.9078  0.0754  0.0981
  283MOL0     H39048   1.200   7.492   3.081 -1.8021 -0.6259  2.0115
  283MOL0     H39049   1.239   7.640   2.981  0.6858 -0.7099  0.4437
  283MOL0     H39050   0.948   7.760   3.257  1.3318 -0.6720  3.7758
  283MOL0     H39051   1.876   7.283   3.113 -0.0546  0.5523 -0.3944
  283MOL0     H39052   2.084   7.165   3.135  3.0041  0.0812 -0.9551
  283MOL0     H39053   2.211   7.214   3.260 -0.2600 -0.5854  1.9517
  283MOL0     H39054   2.055   7.144   3.308  0.7602  0.8641  0.6458
  284MOL0     O39055   7.614   6.552   1.114  0.0349 -0.3106 -0.1848
  284MOL0     C39056   7.624   6.519   1.231 -0.0362  0.1367  0.0162
  284MOL0     O39057   7.744   6.501   1.302 -0.1919  0.2366 -0.2748
  284MOL0     C39058   7.869   6.515   1.248  1.0158  0.6254  0.0015
  284MOL0     C39059   7.960   6.577   1.326 -0.7580  0.2035  0.5029
  284MOL0     C39060   8.095   6.590   1.281 -0.6689  0.6991  0.1862
  284MOL0     C39061   8.136   6.543   1.157 -0.2373  0.3383 -0.3281
  284MOL0     O39062   8.269   6.545   1.127 -0.2841  0.1663 -0.1719
  284MOL0     C39063   8.303   6.561   0.995  0.6019 -0.5405  0.1032
  284MOL0     C39064   8.428   6.647   0.991 -0.9251  0.1365  0.1252
  284MOL0     C39065   8.540   6.569   1.056  0.5837  0.1525 -0.1377
  284MOL0     C39066   8.680   6.617   1.028  0.7969 -0.1025  0.5100
  284MOL0     C39067   8.764   6.567   1.144 -0.0511 -0.0182 -0.0340
  284MOL0     C39068   8.908   6.600   1.138  0.2271 -0.0170 -0.1534
  284MOL0     C39069   8.977   6.521   1.027 -0.3181  0.9476 -0.7666
  284MOL0     C39070   9.132   6.518   1.039  0.2080 -0.0062 -0.3830
  284MOL0     N39071   9.186   6.405   0.966  0.6261 -0.1094 -0.0955
  284MOL0     C39072   9.307   6.346   0.983  0.5483  0.1363 -0.9391
  284MOL0     C39073   9.325   6.253   0.884 -0.7012  0.4272 -0.8131
  284MOL0     C39074   9.451   6.166   0.883  0.2857  0.1684 -0.8815
  284MOL0     C39075   9.555   6.235   0.797 -0.1504  0.2224 -0.4663
  284MOL0     C39076   9.624   6.349   0.873  0.0015 -0.2403  0.3321
  284MOL0     C39077   9.771   6.377   0.817 -0.2180 -0.0881  0.2731
  284MOL0     O39078   9.848   6.259   0.856  1.1658 -0.3672  0.1815
  284MOL0     C39079   9.982   6.255   0.821 -0.8525  0.1056  0.6427
  284MOL0     C39080  10.050   6.134   0.820 -0.2923 -0.3308 -0.2187
  284MOL0     C39081  10.191   6.132   0.811  0.3423  0.4619  0.2826
  284MOL0     C39082  10.262   5.999   0.818  0.6855  0.9104 -0.3701
  284MOL0     C39083  10.267   6.249   0.786 -0.3090  0.3467  0.5707
  284MOL0     C39084  10.416   6.254   0.775 -0.1215 -0.2552  0.2894
  284MOL0     O39085  10.463   6.367   0.712  0.3837  0.1932  0.1848
  284MOL0     C39086  10.594   6.382   0.674  0.9542  0.5720  0.7008
  284MOL0     C39087  10.627   6.510   0.649 -1.2897  0.3374  0.3507
  284MOL0     C39088  10.756   6.547   0.609  0.5523  0.0890  0.0994
  284MOL0     C39089  10.862   6.447   0.601  0.4880  0.1952  1.0848
  284MOL0     O39090  10.997   6.467   0.585 -0.2623 -0.0340  0.2132
  284MOL0     C39091  11.027   6.604   0.547 -1.3338  0.6615 -0.2410
  284MOL0     C39092  11.183   6.617   0.540 -0.2713  0.1860 -0.3230
  284MOL0     C39093  11.261   6.503   0.481  0.2383 -0.4553 -0.0619
  284MOL0     C39094  11.206   6.455   0.348 -0.1918  0.0897 -0.3357
  284MOL0     C39095  11.312   6.391   0.254  0.2544 -0.6551  0.7620
  284MOL0     C39096  11.373   6.495   0.160  0.1881  0.3766  0.0550
  284MOL0     C39097  11.432   6.426   0.035  0.8289  0.8008  0.1662
  284MOL0     C39098  11.472   6.528  -0.085  0.2899  0.2447 -0.6859
  284MOL0    Cl39099  11.595   6.648  -0.034  0.2264  0.0719 -0.6999
  284MOL0     C39100  10.822   6.310   0.615 -0.5106 -0.2816 -0.0474
  284MOL0     C39101  10.687   6.284   0.651  1.0060 -0.3260 -0.4084
  284MOL0     O39102  10.490   6.180   0.838 -0.0933  1.5958  1.0994
  284MOL0     C39103  10.195   6.369   0.774  0.4380 -0.2666 -0.2286
  284MOL0     C39104  10.061   6.372   0.793 -0.5109  0.0818 -0.1919
  284MOL0     N39105   9.225   6.261   0.793 -0.8932  0.0580 -0.8431
  284MOL0     N39106   9.139   6.343   0.849  0.4109  0.3341  0.5754
  284MOL0     C39107   8.036   6.475   1.080  0.2452  0.2951 -0.8634
  284MOL0     C39108   7.905   6.466   1.124 -0.2400  0.7299  0.6235
  284MOL0     C39109   7.500   6.485   1.296  0.9045  1.2740  0.3129
  284MOL0     C39110   7.509   6.456   1.441 -0.5039 -0.1460  0.1465
  284MOL0     C39111   7.389   6.424   1.517  0.4489  0.3873  0.0972
  284MOL0     C39112   7.273   6.399   1.453  0.4471 -0.1346  0.8852
  284MOL0     O39113   7.164   6.382   1.537 -0.3287 -0.2031  0.7081
  284MOL0     C39114   7.033   6.376   1.475 -0.5897 -0.1251 -0.0080
  284MOL0     C39115   6.938   6.328   1.579  0.1694  0.8983  1.5964
  284MOL0     C39116   6.970   6.188   1.621 -0.1406  0.7020  0.1014
  284MOL0     C39117   6.886   6.153   1.737 -0.2427 -0.0851  0.2246
  284MOL0     C39118   6.749   6.113   1.697 -0.0340 -0.7829  1.4197
  284MOL0     C39119   6.636   6.076   1.665  1.3371  0.7143  0.4519
  284MOL0     C39120   7.270   6.408   1.310 -0.9191  0.2329 -0.5040
  284MOL0     C39121   7.374   6.458   1.233 -0.2645  0.0279  0.4227
  284MOL0     C39122   7.348   6.465   1.077  0.0990  0.0463 -0.1530
  284MOL0     H39123   7.946   6.600   1.431  1.3896 -0.6284  1.0377
  284MOL0     H39124   8.168   6.643   1.343  0.7889  0.3241 -1.1506
  284MOL0     H39125   8.230   6.620   0.939 -1.9860 -1.9709  1.7478
  284MOL0     H39126   8.319   6.464   0.946 -0.5741 -0.5357 -0.3228
  284MOL0     H39127   8.470   6.671   0.893  1.0696 -4.5109 -0.4017
  284MOL0     H39128   8.412   6.743   1.042  2.0861 -0.1827  1.9284
  284MOL0     H39129   8.515   6.567   1.162 -2.3673  0.5091 -0.7386
  284MOL0     H39130   8.533   6.466   1.020  1.7159  0.5844 -1.7012
  284MOL0     H39131   8.715   6.574   0.934  1.1647 -0.6765  0.9062
  284MOL0     H39132   8.683   6.725   1.009 -2.2085 -0.3448 -2.3517
  284MOL0     H39133   8.743   6.460   1.154 -3.3544  0.5467  0.2325
  284MOL0     H39134   8.738   6.618   1.237 -2.0811  0.8939 -1.0500
  284MOL0     H39135   8.919   6.702   1.102  2.6317 -1.2795 -3.5836
  284MOL0     H39136   8.960   6.581   1.232 -0.0125  0.0363 -0.0094
  284MOL0     H39137   8.953   6.556   0.926 -0.5487  3.3520  0.0533
  284MOL0     H39138   8.941   6.417   1.031  1.9844  0.1294  1.3293
  284MOL0     H39139   9.183   6.609   1.006 -3.0278  1.9887 -0.2417
  284MOL0     H39140   9.156   6.498   1.144 -0.8321 -1.2102 -0.3483
  284MOL0     H39141   9.366   6.373   1.070 -1.5096 -1.5599  1.0995
  284MOL0     H39142   9.425   6.072   0.833  1.1047  0.1782 -1.3558
  284MOL0     H39143   9.480   6.155   0.988  0.1084  1.6242 -0.6637
  284MOL0     H39144   9.632   6.163   0.769  2.6741  2.0830  1.9053
  284MOL0     H39145   9.499   6.274   0.711 -2.1216 -1.2342  0.1152
  284MOL0     H39146   9.565   6.441   0.874 -0.5209 -0.5701  0.2225
  284MOL0     H39147   9.626   6.319   0.978 -0.3480  3.0972  1.4328
  284MOL0     H39148   9.769   6.380   0.708 -0.7515 -3.4412  0.0736
  284MOL0     H39149   9.808   6.471   0.858 -1.8705  0.3597  0.8250
  284MOL0     H39150   9.988   6.048   0.844 -3.5769  2.5472  2.7854
  284MOL0     H39151  10.292   5.995   0.923 -4.7021 -1.1063  1.4211
  284MOL0     H39152  10.348   5.999   0.750  1.3922  1.5542  0.5160
  284MOL0     H39153  10.206   5.908   0.794  0.9479  0.1821  1.6158
  284MOL0     H39154  10.556   6.590   0.665 -1.1848  0.9087 -1.6824
  284MOL0     H39155  10.767   6.655   0.597 -1.3515  0.2886 -0.1458
  284MOL0     H39156  10.991   6.630   0.447  0.2700  0.3685 -0.9140
  284MOL0     H39157  10.986   6.675   0.619 -0.0022  1.5462 -0.3216
  284MOL0     H39158  11.207   6.709   0.487  3.5067  0.3238  1.2853
  284MOL0     H39159  11.228   6.633   0.638 -0.7474 -1.4518  0.2055
  284MOL0     H39160  11.266   6.427   0.560  1.3361  0.8673  1.2073
  284MOL0     H39161  11.360   6.543   0.456 -0.2680  0.5382 -0.5216
  284MOL0     H39162  11.154   6.537   0.299 -1.4754  0.6390  1.8570
  284MOL0     H39163  11.129   6.381   0.373 -0.0992  0.1228  0.0548
  284MOL0     H39164  11.388   6.334   0.309  1.4982 -1.0890 -1.3264
  284MOL0     H39165  11.250   6.319   0.200 -1.9095  2.6804 -1.5455
  284MOL0     H39166  11.446   6.550   0.220  1.3121 -0.4853 -0.5039
  284MOL0     H39167  11.300   6.567   0.122 -2.3699 -1.6009  0.9205
  284MOL0     H39168  11.365   6.361  -0.023  1.7604  2.0829 -2.5402
  284MOL0     H39169  11.522   6.374   0.070  0.1874 -0.9198 -0.6131
  284MOL0     H39170  11.380   6.579  -0.115 -0.6748 -0.4110  1.0237
  284MOL0     H39171  11.502   6.476  -0.176 -0.8640 -1.1566 -0.3105
  284MOL0     H39172  10.901   6.236   0.610 -0.0679  0.1623  0.2033
  284MOL0     H39173  10.675   6.179   0.673  1.0835 -0.1567  0.4693
  284MOL0     H39174  10.239   6.466   0.755  1.6331 -1.1435 -2.2717
  284MOL0     H39175  10.007   6.466   0.792 -1.0196 -0.0797  2.6733
  284MOL0     H39176   8.074   6.423   0.993 -1.5837 -0.2766 -1.3631
  284MOL0     H39177   7.827   6.432   1.057  0.0906  0.8922  0.1539
  284MOL0     H39178   7.603   6.457   1.494 -1.0092  0.2072  1.0647
  284MOL0     H39179   7.396   6.415   1.624 -1.0843 -0.9290  0.1225
  284MOL0     H39180   7.001   6.479   1.457 -0.4711 -0.1886 -0.5924
  284MOL0     H39181   7.040   6.312   1.387  0.9603  0.8596 -0.6478
  284MOL0     H39182   6.838   6.329   1.535  1.0944 -0.2254 -0.6597
  284MOL0     H39183   6.944   6.395   1.666 -0.6162  3.5604 -0.2777
  284MOL0     H39184   6.964   6.125   1.531 -1.9921  1.8156 -0.6102
  284MOL0     H39185   7.071   6.176   1.661  1.3177 -0.8301 -3.6179
  284MOL0     H39186   6.877   6.229   1.815  1.1201 -0.7229  1.0295
  284MOL0     H39187   6.926   6.072   1.798  0.3625 -0.0643 -0.1337
  284MOL0     H39188   6.542   6.027   1.650  0.8755  1.3975  1.0576
  284MOL0     H39189   7.182   6.377   1.254 -1.4919  1.1588 -0.1349
  284MOL0     H39190   7.252   6.425   1.045  0.5455  1.0715 -2.9983
  284MOL0     H39191   7.364   6.572   1.059  2.9105 -0.2408  0.1050
  284MOL0     H39192   7.432   6.406   1.040  0.1358 -0.4215  0.6552
  285MOL0     O39193   8.219   5.569   7.443  0.0649 -0.3663  0.2761
  285MOL0     C39194   8.111   5.519   7.434  1.0807  0.6998  0.2823
  285MOL0     O39195   8.076   5.392   7.475  0.2494  0.5861 -0.2551
  285MOL0     C39196   8.165   5.326   7.553 -0.1323  0.6680 -0.2632
  285MOL0     C39197   8.131   5.309   7.687 -0.3458 -0.7430 -0.2252
  285MOL0     C39198   8.232   5.249   7.774  0.6159  0.4261 -0.1484
  285MOL0     C39199   8.354   5.198   7.737 -1.0303  0.3763 -0.4161
  285MOL0     O39200   8.451   5.143   7.821  0.1400  0.2661  0.7473
  285MOL0     C39201   8.399   5.087   7.944 -0.1018  0.1079 -0.4617
  285MOL0     C39202   8.502   5.035   8.040 -0.2050 -0.5527 -0.5536
  285MOL0     C39203   8.596   5.147   8.086  0.6841  0.1537 -0.5738
  285MOL0     C39204   8.717   5.071   8.152 -0.2391 -0.1734  0.4529
  285MOL0     C39205   8.838   5.158   8.187 -0.6673 -0.2278  0.0402
  285MOL0     C39206   8.969   5.077   8.234  0.6116 -0.2488 -0.2849
  285MOL0     C39207   9.069   5.187   8.261 -0.1159 -0.0282  0.0781
  285MOL0     C39208   9.203   5.132   8.306  0.0950 -1.3111 -0.1008
  285MOL0     N39209   9.280   5.072   8.204  0.1262  0.7262  0.9463
  285MOL0     C39210   9.371   5.127   8.114 -0.7149 -0.0899  0.3378
  285MOL0     C39211   9.404   5.025   8.026 -0.4483  0.0110  0.0501
  285MOL0     C39212   9.496   5.038   7.907  0.9508 -0.1484 -0.3022
  285MOL0     C39213   9.574   4.907   7.877  0.0715  0.5006 -0.0539
  285MOL0     C39214   9.636   4.912   7.744  0.0463 -0.6861 -0.1306
  285MOL0     C39215   9.743   4.809   7.711 -0.0562  0.7575  0.0517
  285MOL0     O39216   9.867   4.834   7.788 -0.1914 -0.8109 -0.1657
  285MOL0     C39217   9.952   4.729   7.809  0.2111  0.9602 -0.1707
  285MOL0     C39218   9.968   4.620   7.721 -0.0335 -0.7082 -0.4512
  285MOL0     C39219  10.067   4.523   7.735 -0.1336  0.2769 -0.2422
  285MOL0     C39220  10.090   4.418   7.631  1.0506  0.2038  0.6548
  285MOL0     C39221  10.160   4.546   7.846 -0.8536  0.0334 -0.2153
  285MOL0     C39222  10.284   4.475   7.865  0.3383  0.0681  0.1007
  285MOL0     O39223  10.371   4.521   7.960 -0.4269 -0.1301  0.0188
  285MOL0     C39224  10.508   4.484   7.973  0.5640 -0.6942 -0.0604
  285MOL0     C39225  10.607   4.542   7.890 -0.6011  0.4553 -0.4168
  285MOL0     C39226  10.748   4.527   7.917 -0.2165 -0.0846 -0.9975
  285MOL0     C39227  10.784   4.450   8.031  0.2288 -0.3680  0.0679
  285MOL0     O39228  10.916   4.435   8.070  0.0661  0.0356  0.8616
  285MOL0     C39229  11.012   4.415   7.970 -0.2209  0.1880  0.1391
  285MOL0     C39230  11.154   4.395   8.034 -0.0069  0.3753  1.6157
  285MOL0     C39231  11.199   4.508   8.125  0.0847 -0.0737  0.2178
  285MOL0     C39232  11.220   4.636   8.041 -0.6884  0.6568 -0.1287
  285MOL0     C39233  11.296   4.736   8.137 -0.4631  0.1664  0.2046
  285MOL0     C39234  11.312   4.861   8.055  0.0461 -0.2261 -0.9995
  285MOL0     C39235  11.353   4.977   8.153 -0.1416  0.2754  0.2386
  285MOL0     C39236  11.358   5.099   8.063  0.2190  0.2984 -0.3114
  285MOL0    Cl39237  11.465   5.099   7.933 -0.2608 -0.5534  0.5602
  285MOL0     C39238  10.685   4.401   8.107  0.0740  0.9095  0.2190
  285MOL0     C39239  10.552   4.413   8.079 -0.7196 -0.1712 -0.5130
  285MOL0     O39240  10.304   4.376   7.795  0.5295 -0.3408 -1.0807
  285MOL0     C39241  10.137   4.654   7.931 -0.0078  0.5895 -0.0333
  285MOL0     C39242  10.040   4.741   7.910  0.0331 -0.0446  0.9979
  285MOL0     N39243   9.340   4.914   8.074  0.1123 -0.4877  0.1658
  285MOL0     N39244   9.268   4.941   8.179  1.0676  0.7090  0.3905
  285MOL0     C39245   8.384   5.218   7.599  0.1116  0.2457  0.2386
  285MOL0     C39246   8.288   5.273   7.503 -0.3297  0.3696 -0.5614
  285MOL0     C39247   7.998   5.606   7.384  0.4080  0.1079 -0.4049
  285MOL0     C39248   7.868   5.548   7.374  0.2328 -0.0481  0.6015
  285MOL0     C39249   7.755   5.615   7.322 -0.2963 -0.7462 -0.9098
  285MOL0     C39250   7.757   5.753   7.302 -1.0423 -0.6087  0.9418
  285MOL0     O39251   7.646   5.823   7.282  0.1589 -0.3582  0.6020
  285MOL0     C39252   7.526   5.760   7.232 -0.9227  1.0011  0.4147
  285MOL0     C39253   7.443   5.862   7.153  0.7152 -0.0484  0.1203
  285MOL0     C39254   7.285   5.845   7.152  0.0839 -0.1701  0.6538
  285MOL0     C39255   7.215   5.977   7.118 -0.5970 -0.7790  0.2011
  285MOL0     C39256   7.233   6.076   7.217 -0.7204  0.7601 -0.9981
  285MOL0     C39257   7.237   6.152   7.308  0.3508  0.2568 -0.0407
  285MOL0     C39258   7.886   5.815   7.300  0.5172  0.4655  0.5759
  285MOL0     C39259   8.007   5.740   7.334  0.0095 -0.0224 -0.2095
  285MOL0     C39260   8.133   5.820   7.327  0.2440  0.6168  1.1242
  285MOL0     H39261   8.042   5.341   7.741  2.3495 -0.6166  4.6490
  285MOL0     H39262   8.196   5.222   7.872  0.4843 -0.3516 -0.4066
  285MOL0     H39263   8.332   5.007   7.912  1.0699 -0.9931 -0.2382
  285MOL0     H39264   8.349   5.168   7.999 -0.0499  0.2993 -0.6971
  285MOL0     H39265   8.449   4.978   8.117  1.5330 -0.5921  0.6721
  285MOL0     H39266   8.557   4.968   7.973  1.5442 -0.6588  0.8936
  285MOL0     H39267   8.641   5.211   8.010  3.1388 -0.1758  0.5125
  285MOL0     H39268   8.549   5.216   8.156 -1.1578 -1.2297 -0.3604
  285MOL0     H39269   8.683   5.025   8.245 -1.7419 -2.9950 -1.3473
  285MOL0     H39270   8.747   4.981   8.099 -2.0272 -0.9535  0.6791
  285MOL0     H39271   8.814   5.231   8.265 -0.8404 -0.0467 -0.1820
  285MOL0     H39272   8.862   5.211   8.094  1.9059  0.4423  0.9914
  285MOL0     H39273   8.955   5.019   8.325  2.0376  0.2441  0.2696
  285MOL0     H39274   9.000   5.019   8.146 -2.5662  0.3743 -1.9761
  285MOL0     H39275   9.040   5.251   8.345 -2.2079 -1.3335  0.4302
  285MOL0     H39276   9.080   5.251   8.173  0.1771 -0.8886 -0.5259
  285MOL0     H39277   9.249   5.222   8.348 -1.9078 -0.7396  0.9896
  285MOL0     H39278   9.190   5.067   8.393  1.5527 -0.7314  0.5868
  285MOL0     H39279   9.416   5.225   8.100 -1.2701 -0.0074 -1.0725
  285MOL0     H39280   9.573   5.111   7.929  1.4027 -0.1683 -1.6958
  285MOL0     H39281   9.447   5.064   7.812 -0.6160  2.5576  1.1071
  285MOL0     H39282   9.650   4.887   7.953  1.1022 -3.3146 -1.8731
  285MOL0     H39283   9.510   4.819   7.875  0.4506  0.2276 -0.2218
  285MOL0     H39284   9.553   4.902   7.673 -0.2632 -2.5022  0.4380
  285MOL0     H39285   9.695   5.004   7.737 -0.1637 -0.6156 -1.1662
  285MOL0     H39286   9.695   4.716   7.744 -4.5002  2.7582 -0.0137
  285MOL0     H39287   9.765   4.806   7.604 -0.8806 -1.7142 -0.1328
  285MOL0     H39288   9.901   4.616   7.636 -0.7515  2.5432 -0.1675
  285MOL0     H39289  10.182   4.439   7.576  1.5690  1.5361  1.9493
  285MOL0     H39290  10.008   4.402   7.561 -0.4168  0.2505  2.2767
  285MOL0     H39291  10.101   4.318   7.674  1.0604  0.2554  0.7746
  285MOL0     H39292  10.589   4.601   7.800  0.4616  0.2013 -0.8123
  285MOL0     H39293  10.829   4.557   7.851 -0.0582 -0.0095 -0.7683
  285MOL0     H39294  10.993   4.315   7.931  2.5090  0.6086 -2.6648
  285MOL0     H39295  11.021   4.486   7.888  0.3912 -1.4605 -1.3000
  285MOL0     H39296  11.153   4.302   8.093 -0.4979 -0.5305  0.2257
  285MOL0     H39297  11.222   4.377   7.950 -1.5932  0.9392  0.1505
  285MOL0     H39298  11.293   4.477   8.171  0.3519  1.3612  0.6946
  285MOL0     H39299  11.124   4.525   8.204  1.9539 -2.5349  2.7490
  285MOL0     H39300  11.121   4.670   8.009 -0.9508 -0.1035 -0.1458
  285MOL0     H39301  11.281   4.603   7.956  3.2555 -0.5260  2.8538
  285MOL0     H39302  11.236   4.766   8.224 -1.4223  2.1605 -1.0602
  285MOL0     H39303  11.384   4.688   8.182 -1.0955 -1.7716 -0.5607
  285MOL0     H39304  11.223   4.887   7.996 -1.5752 -0.6282  1.1306
  285MOL0     H39305  11.386   4.847   7.977  2.1460 -0.5908  0.9595
  285MOL0     H39306  11.450   4.968   8.202 -1.2064 -1.3093  2.2162
  285MOL0     H39307  11.285   4.983   8.239  2.3820 -2.9116  2.7421
  285MOL0     H39308  11.387   5.182   8.128  1.3869  0.6832 -1.2685
  285MOL0     H39309  11.256   5.127   8.034 -0.4953 -0.4687  1.3316
  285MOL0     H39310  10.699   4.335   8.191 -3.6326 -0.3410  0.0421
  285MOL0     H39311  10.476   4.358   8.135 -0.5840  2.5708  2.6579
  285MOL0     H39312  10.197   4.672   8.019 -0.5768  2.1006  0.0733
  285MOL0     H39313  10.045   4.828   7.976  2.3837  0.4688  0.2227
  285MOL0     H39314   8.488   5.195   7.575  0.6475  1.3898  1.3599
  285MOL0     H39315   8.314   5.265   7.398 -3.4354 -2.3925 -1.2766
  285MOL0     H39316   7.843   5.447   7.406 -0.4780 -0.3019 -0.6805
  285MOL0     H39317   7.663   5.556   7.318 -0.6040 -0.7338  2.9149
  285MOL0     H39318   7.545   5.676   7.165 -0.3548  1.5591 -0.1374
  285MOL0     H39319   7.479   5.725   7.324  2.5747 -1.7326  1.3641
  285MOL0     H39320   7.480   5.864   7.050  2.7321 -1.1011  0.7710
  285MOL0     H39321   7.458   5.959   7.200  0.1406 -0.5285  1.3284
  285MOL0     H39322   7.249   5.768   7.083  3.0652  1.3384 -2.9255
  285MOL0     H39323   7.248   5.826   7.253 -1.5808  3.2712  0.8486
  285MOL0     H39324   7.109   5.952   7.110 -0.4575 -1.1529 -0.5330
  285MOL0     H39325   7.263   6.019   7.029  0.1443  0.6706  1.2334
  285MOL0     H39326   7.249   6.217   7.392 -3.0105  0.4981  0.3813
  285MOL0     H39327   7.883   5.918   7.268 -0.0224  0.0749 -0.6828
  285MOL0     H39328   8.175   5.850   7.423 -0.7951  1.8034  1.2407
  285MOL0     H39329   8.207   5.750   7.286 -1.1806 -0.0288 -0.4921
  285MOL0     H39330   8.122   5.907   7.262 -1.2514  0.1582  0.7122
  286MOL0     O39331   3.431   4.702   1.020 -0.0418 -0.6134  0.0584
  286MOL0     C39332   3.426   4.666   0.896 -0.0992  0.9647 -0.1997
  286MOL0     O39333   3.522   4.699   0.807  0.2740  0.2834 -0.3937
  286MOL0     C39334   3.638   4.769   0.838  0.5365 -0.5710 -0.4568
  286MOL0     C39335   3.711   4.755   0.957 -0.4956 -0.8468  0.1228
  286MOL0     C39336   3.824   4.828   0.975  0.2131 -0.8416 -0.0166
  286MOL0     C39337   3.870   4.922   0.884 -0.4067 -0.6564  0.8126
  286MOL0     O39338   3.988   4.993   0.919  0.4555  0.6326  0.0298
  286MOL0     C39339   4.019   5.106   0.843 -0.3593 -0.8324  1.5353
  286MOL0     C39340   4.153   5.175   0.880 -0.1206 -0.0764 -0.4948
  286MOL0     C39341   4.179   5.306   0.814  0.1485 -0.7869 -0.2748
  286MOL0     C39342   4.266   5.291   0.695  0.8702  0.3511  0.5826
  286MOL0     C39343   4.276   5.421   0.610 -0.2174 -0.9450 -0.3969
  286MOL0     C39344   4.383   5.528   0.670  0.3328 -0.0934 -0.1156
  286MOL0     C39345   4.533   5.477   0.671  0.9318 -0.4291 -0.1582
  286MOL0     C39346   4.623   5.592   0.668 -0.3167 -0.9878  0.3030
  286MOL0     N39347   4.757   5.553   0.696  0.1172  0.3795 -0.1615
  286MOL0     C39348   4.858   5.496   0.609  0.2311  0.9431  0.2995
  286MOL0     C39349   4.969   5.477   0.692 -0.2125  0.2112  0.1767
  286MOL0     C39350   5.106   5.419   0.655  0.5542 -0.0156  0.4126
  286MOL0     C39351   5.178   5.511   0.558 -0.3903  0.0116  0.4979
  286MOL0     C39352   5.267   5.607   0.633 -0.6677 -0.0996 -0.1473
  286MOL0     C39353   5.394   5.552   0.697 -0.3926  0.3214  0.8158
  286MOL0     O39354   5.474   5.664   0.733 -0.3818  0.0366 -0.5756
  286MOL0     C39355   5.602   5.638   0.792  0.0382 -0.5405  0.0955
  286MOL0     C39356   5.639   5.708   0.918 -0.1892 -0.6096  0.1873
  286MOL0     C39357   5.768   5.700   0.969 -0.5405  0.1331  0.1384
  286MOL0     C39358   5.796   5.773   1.104  0.6713  0.2899  0.0253
  286MOL0     C39359   5.863   5.620   0.909  0.4286  0.7061 -0.3408
  286MOL0     C39360   6.002   5.596   0.959 -0.1227  0.1328 -0.3592
  286MOL0     O39361   6.054   5.465   0.949  0.2112 -0.4291 -0.4660
  286MOL0     C39362   6.194   5.452   0.956  0.2161 -0.4348  0.4131
  286MOL0     C39363   6.276   5.462   0.838  0.1438  0.1375 -0.0295
  286MOL0     C39364   6.418   5.450   0.850  0.0474 -0.1594 -0.5371
  286MOL0     C39365   6.474   5.419   0.972 -0.4737 -1.3551  0.0601
  286MOL0     O39366   6.605   5.407   0.971 -0.1230  0.0575  0.3525
  286MOL0     C39367   6.681   5.347   1.075 -0.9012  0.9342  0.1768
  286MOL0     C39368   6.816   5.271   1.023 -0.9295 -0.2871  0.4940
  286MOL0     C39369   6.911   5.384   0.974  0.6824  0.2965 -0.0648
  286MOL0     C39370   6.938   5.508   1.061 -0.5723  0.0553 -0.0168
  286MOL0     C39371   7.040   5.605   0.998  0.3649 -0.7262 -0.7488
  286MOL0     C39372   7.182   5.543   1.011 -0.9767 -0.1885 -0.3419
  286MOL0     C39373   7.286   5.625   0.935 -0.4801 -0.0330  0.3393
  286MOL0     C39374   7.424   5.569   0.953  0.1934  0.2656  0.2486
  286MOL0    Cl39375   7.527   5.684   0.871 -0.0268  0.1627 -0.2068
  286MOL0     C39376   6.394   5.398   1.087  0.0425  0.7578  0.2566
  286MOL0     C39377   6.255   5.416   1.075 -1.4500 -0.4401  0.5635
  286MOL0     O39378   6.063   5.690   1.016 -0.6248 -0.2864 -0.5653
  286MOL0     C39379   5.825   5.557   0.784  0.0819  0.3750 -0.8419
  286MOL0     C39380   5.701   5.564   0.730 -0.3791  0.0003 -0.0694
  286MOL0     N39381   4.934   5.522   0.809 -1.2451  0.1485 -0.1951
  286MOL0     N39382   4.815   5.562   0.824 -0.2058  0.0896  0.6780
  286MOL0     C39383   3.795   4.953   0.769  0.4092  0.0491  1.0240
  286MOL0     C39384   3.676   4.870   0.747  1.0093  0.6819 -0.0308
  286MOL0     C39385   3.308   4.576   0.856 -0.3504  0.2411 -0.1368
  286MOL0     C39386   3.194   4.587   0.937 -0.6678  0.0718  0.3059
  286MOL0     C39387   3.085   4.508   0.910 -0.6043  0.6214  0.1051
  286MOL0     C39388   3.087   4.416   0.803 -0.3395  0.4074  0.4699
  286MOL0     O39389   2.981   4.345   0.750 -0.3276 -0.3292 -0.3226
  286MOL0     C39390   2.859   4.410   0.771  1.1199 -0.0403  0.6249
  286MOL0     C39391   2.757   4.372   0.667 -0.2214  0.0407 -0.3898
  286MOL0     C39392   2.682   4.250   0.704 -1.0882  0.5859  0.9780
  286MOL0     C39393   2.762   4.131   0.755 -0.2453  0.2686 -0.4339
  286MOL0     C39394   2.687   4.005   0.767  0.2196 -0.0791  0.1033
  286MOL0     C39395   2.602   3.919   0.773 -0.8277  0.5080  0.0478
  286MOL0     C39396   3.203   4.392   0.740  0.2345  0.6955 -0.0122
  286MOL0     C39397   3.316   4.472   0.759  0.1503  0.1930 -0.4302
  286MOL0     C39398   3.435   4.445   0.677  0.6798  0.2061 -0.7348
  286MOL0     H39399   3.682   4.675   1.025 -1.7876  1.3331  2.2589
  286MOL0     H39400   3.874   4.813   1.071 -0.5810 -2.9600  0.1291
  286MOL0     H39401   3.946   5.185   0.863 -0.8764 -1.0640  0.6313
  286MOL0     H39402   4.026   5.093   0.735  2.6708 -0.1017  1.5621
  286MOL0     H39403   4.139   5.201   0.986 -1.7746 -1.7798 -0.2502
  286MOL0     H39404   4.231   5.099   0.871  0.1378  0.0071  0.8195
  286MOL0     H39405   4.088   5.353   0.774  1.5221  2.1859 -0.1537
  286MOL0     H39406   4.220   5.377   0.886  0.8017 -1.5645  0.1233
  286MOL0     H39407   4.365   5.248   0.714  2.0766  3.5150  2.1730
  286MOL0     H39408   4.218   5.203   0.651 -2.0848 -0.4257  4.8455
  286MOL0     H39409   4.179   5.470   0.602 -2.0503 -3.5917  3.1093
  286MOL0     H39410   4.315   5.392   0.512  0.0292 -2.4285  0.1155
  286MOL0     H39411   4.378   5.623   0.616  0.3994  0.5125  0.9175
  286MOL0     H39412   4.355   5.551   0.773  1.9173  0.3855  0.2361
  286MOL0     H39413   4.547   5.413   0.583 -0.7547  0.2189 -0.9561
  286MOL0     H39414   4.540   5.415   0.761  1.6122 -2.3633 -1.4789
  286MOL0     H39415   4.626   5.635   0.567 -0.2972 -0.6232  0.4589
  286MOL0     H39416   4.587   5.664   0.742 -1.2124 -0.7411 -0.3546
  286MOL0     H39417   4.850   5.461   0.506  2.2195  1.3454 -0.0256
  286MOL0     H39418   5.095   5.315   0.622  2.2404 -0.1134  0.0506
  286MOL0     H39419   5.162   5.413   0.749 -1.8151 -0.8378  1.8554
  286MOL0     H39420   5.238   5.448   0.492 -0.6534  0.2003  0.0795
  286MOL0     H39421   5.102   5.567   0.502  0.7793  1.5406  0.3634
  286MOL0     H39422   5.299   5.684   0.562 -0.0558  0.7009  0.9513
  286MOL0     H39423   5.218   5.665   0.712  1.4903  1.0641  0.4143
  286MOL0     H39424   5.382   5.484   0.782 -0.5876 -1.2341 -0.4118
  286MOL0     H39425   5.458   5.482   0.643  1.9346  1.1880  2.2895
  286MOL0     H39426   5.558   5.749   0.978 -0.1573 -1.2627  0.6930
  286MOL0     H39427   5.850   5.723   1.184 -1.3426 -0.0956  1.2189
  286MOL0     H39428   5.700   5.809   1.142  0.6804 -1.4980  1.9161
  286MOL0     H39429   5.866   5.854   1.079  1.6138  0.3467  2.5939
  286MOL0     H39430   6.234   5.477   0.739 -4.0053 -2.7220  1.0200
  286MOL0     H39431   6.473   5.456   0.756  0.8792 -0.1412 -0.0536
  286MOL0     H39432   6.702   5.425   1.148  0.3851  1.5684 -0.8228
  286MOL0     H39433   6.624   5.266   1.121  0.3128  1.0371  1.9486
  286MOL0     H39434   6.860   5.215   1.106 -0.0898  1.9870  1.6586
  286MOL0     H39435   6.796   5.199   0.943  2.6821 -0.8317 -0.0931
  286MOL0     H39436   6.861   5.427   0.887 -0.7287  2.4232  1.6928
  286MOL0     H39437   6.999   5.327   0.945  1.0539  0.8740 -0.0838
  286MOL0     H39438   6.964   5.486   1.165  0.1334  1.5457  0.1525
  286MOL0     H39439   6.848   5.569   1.066  0.0690  1.0683 -0.4130
  286MOL0     H39440   7.012   5.630   0.895  1.0872  0.3548 -0.7028
  286MOL0     H39441   7.038   5.697   1.057  1.0075 -0.9471 -0.3734
  286MOL0     H39442   7.177   5.440   0.975  1.8721  0.0195 -1.6097
  286MOL0     H39443   7.207   5.549   1.118  2.0078  1.8991 -1.0364
  286MOL0     H39444   7.286   5.728   0.974  1.9938  0.0306  0.3724
  286MOL0     H39445   7.265   5.635   0.828  0.8487 -3.1111 -0.3094
  286MOL0     H39446   7.437   5.473   0.900 -0.3309  0.4594 -0.2429
  286MOL0     H39447   7.441   5.562   1.060 -2.9099 -1.8554  0.7651
  286MOL0     H39448   6.453   5.367   1.173  0.7269 -3.1860 -1.4062
  286MOL0     H39449   6.196   5.401   1.165 -1.1087  2.3407  1.3466
  286MOL0     H39450   5.903   5.497   0.739 -1.2644 -1.1980 -1.1598
  286MOL0     H39451   5.685   5.493   0.649  1.6710 -0.4461 -0.1293
  286MOL0     H39452   3.813   5.032   0.697  4.1652 -1.9562 -0.5469
  286MOL0     H39453   3.606   4.889   0.666 -1.1584 -2.1293  1.0281
  286MOL0     H39454   3.187   4.663   1.015 -1.7843  2.3595 -1.8720
  286MOL0     H39455   2.993   4.530   0.964 -2.9237 -1.1539 -2.8071
  286MOL0     H39456   2.827   4.374   0.870  1.3468 -2.8662 -0.2506
  286MOL0     H39457   2.868   4.519   0.771 -1.4042  0.2479  0.5755
  286MOL0     H39458   2.811   4.374   0.572 -1.3834  2.8921 -1.0829
  286MOL0     H39459   2.678   4.448   0.673 -0.5148 -0.3512  4.1153
  286MOL0     H39460   2.616   4.278   0.786 -1.0254  2.4884  0.4404
  286MOL0     H39461   2.616   4.219   0.622  0.2800 -1.1560  0.4718
  286MOL0     H39462   2.790   4.163   0.856 -2.1810  0.2637  0.1573
  286MOL0     H39463   2.855   4.119   0.699  1.6380  4.3047  1.3827
  286MOL0     H39464   2.528   3.841   0.766  1.3152 -1.5999 -0.5543
  286MOL0     H39465   3.215   4.332   0.650  1.5195  2.6829 -1.2760
  286MOL0     H39466   3.448   4.533   0.612  2.5809 -0.8664 -1.9233
  286MOL0     H39467   3.526   4.448   0.739  0.1062 -0.3699  0.1497
  286MOL0     H39468   3.435   4.366   0.602  0.8408  2.4953 -3.3207
  287MOL0     O39469   3.480   7.899   5.401 -0.2417 -0.3030 -0.1951
  287MOL0     C39470   3.370   7.906   5.448  0.2448 -0.0034 -0.0932
  287MOL0     O39471   3.335   7.844   5.566  0.2717  0.4417  0.8090
  287MOL0     C39472   3.424   7.775   5.637  0.8118  0.1481 -0.0341
  287MOL0     C39473   3.492   7.668   5.589 -0.7423  0.5522  0.2632
  287MOL0     C39474   3.592   7.606   5.668 -0.3208 -0.0973 -0.8588
  287MOL0     C39475   3.617   7.647   5.802 -0.0941 -0.4686 -0.2751
  287MOL0     O39476   3.726   7.584   5.857  0.5081 -0.0070 -0.2097
  287MOL0     C39477   3.766   7.631   5.992 -0.0782  0.3242  0.5061
  287MOL0     C39478   3.838   7.766   6.010 -0.1509  0.3275  0.0978
  287MOL0     C39479   3.984   7.732   5.991  0.0555  0.1499 -0.0681
  287MOL0     C39480   4.063   7.854   5.980  0.2526  0.1564  0.3135
  287MOL0     C39481   4.113   7.912   6.124 -0.8605  0.2301  0.2523
  287MOL0     C39482   4.237   7.837   6.181  0.1064  0.2506 -0.2664
  287MOL0     C39483   4.312   7.896   6.305  0.5248 -0.7715 -1.1874
  287MOL0     C39484   4.394   8.014   6.277  0.4765 -0.2918 -0.0841
  287MOL0     N39485   4.523   7.994   6.227 -0.2463  0.6340 -0.1438
  287MOL0     C39486   4.549   8.006   6.099 -0.2981 -0.1435  0.3151
  287MOL0     C39487   4.684   8.019   6.101 -1.0373  0.4062 -0.8980
  287MOL0     C39488   4.745   8.054   5.978 -0.0306 -0.2620 -0.1137
  287MOL0     C39489   4.887   8.114   5.991  0.1826 -0.4460 -0.4375
  287MOL0     C39490   4.966   8.092   5.861  0.1938 -0.4503  0.1545
  287MOL0     C39491   5.085   8.186   5.851  0.7670 -0.2237 -0.2223
  287MOL0     O39492   5.165   8.143   5.952  0.0165 -0.1819 -0.2395
  287MOL0     C39493   5.282   8.220   5.979 -0.1100  0.3709 -0.0501
  287MOL0     C39494   5.344   8.179   6.095 -0.4197 -0.5666  0.0071
  287MOL0     C39495   5.453   8.261   6.134 -0.2459 -0.7876 -0.0221
  287MOL0     C39496   5.511   8.225   6.266  0.4904  0.0179  0.1345
  287MOL0     C39497   5.513   8.356   6.048 -0.3782 -0.3940 -0.1424
  287MOL0     C39498   5.647   8.422   6.082  0.2487  0.4273  1.2260
  287MOL0     O39499   5.699   8.480   5.977 -0.8184 -0.4428  0.3683
  287MOL0     C39500   5.794   8.573   6.005 -0.0978 -0.3355  0.3681
  287MOL0     C39501   5.929   8.539   5.988  0.5333 -0.2764 -0.0331
  287MOL0     C39502   6.026   8.636   6.010  0.2233 -0.2380 -0.2790
  287MOL0     C39503   6.003   8.768   6.060 -0.1821 -0.3186  0.1987
  287MOL0     O39504   6.090   8.865   6.091 -1.0917 -0.8802  0.4445
  287MOL0     C39505   6.231   8.850   6.063 -0.1505  0.3012 -0.1517
  287MOL0     C39506   6.306   8.800   6.197 -0.4440  0.2607  0.2468
  287MOL0     C39507   6.434   8.880   6.227 -1.0740  0.0729 -0.1465
  287MOL0     C39508   6.499   8.842   6.363  0.3938  0.1917  0.0353
  287MOL0     C39509   6.650   8.865   6.357 -0.7700  0.0938 -0.2391
  287MOL0     C39510   6.713   8.833   6.494  0.6584  0.3002  0.6865
  287MOL0     C39511   6.850   8.897   6.511  0.3492  0.5702 -0.3163
  287MOL0     C39512   6.924   8.863   6.635 -0.0975  0.2631 -0.7407
  287MOL0    Cl39513   7.092   8.902   6.621  0.2680  0.1918  0.0625
  287MOL0     C39514   5.866   8.805   6.069  0.2146  0.6777 -0.2782
  287MOL0     C39515   5.764   8.709   6.048  0.5315  0.0061  0.8707
  287MOL0     O39516   5.693   8.421   6.195 -0.5754  0.3243  0.1959
  287MOL0     C39517   5.449   8.391   5.932  0.0315 -0.0079  0.6557
  287MOL0     C39518   5.327   8.326   5.898 -0.0779 -0.3936  0.1754
  287MOL0     N39519   4.731   8.004   6.228 -0.4376  0.2969  0.0369
  287MOL0     N39520   4.636   7.996   6.309 -0.0556  0.4324 -0.3633
  287MOL0     C39521   3.544   7.759   5.854 -0.0814 -0.2262  0.4835
  287MOL0     C39522   3.457   7.821   5.769  0.3680  0.2639  0.4519
  287MOL0     C39523   3.261   7.973   5.371 -0.2480 -0.5676 -0.2826
  287MOL0     C39524   3.166   7.894   5.302  0.4364  0.1008  0.8283
  287MOL0     C39525   3.072   7.947   5.212  0.4679  0.7120  0.6478
  287MOL0     C39526   3.057   8.090   5.199 -1.0058 -0.2881  1.4252
  287MOL0     O39527   2.975   8.158   5.114 -0.7759 -0.3765 -0.0668
  287MOL0     C39528   2.841   8.106   5.104 -0.2053  0.6512  0.3092
  287MOL0     C39529   2.778   8.131   4.964  0.6723  1.1593  0.2627
  287MOL0     C39530   2.771   8.289   4.934  0.4722 -0.3865  0.4930
  287MOL0     C39531   2.679   8.314   4.805 -0.3211  0.1224  0.4813
  287MOL0     C39532   2.596   8.427   4.830  0.2933  0.5977 -0.5452
  287MOL0     C39533   2.532   8.531   4.829  0.2724  0.1514  0.3142
  287MOL0     C39534   3.150   8.162   5.266  0.1989 -0.1545  0.5966
  287MOL0     C39535   3.257   8.114   5.340  0.2926 -0.1634 -0.7849
  287MOL0     C39536   3.367   8.212   5.407  0.0053  0.8423  0.7142
  287MOL0     H39537   3.472   7.641   5.485  2.3761  2.7866 -1.0808
  287MOL0     H39538   3.657   7.536   5.616  1.2221 -0.7857  1.8249
  287MOL0     H39539   3.832   7.560   6.041  0.4832  1.0209  0.7794
  287MOL0     H39540   3.674   7.624   6.052 -0.0037 -3.0601  0.3624
  287MOL0     H39541   3.794   7.831   5.934 -1.2801  2.2562  2.2602
  287MOL0     H39542   3.818   7.802   6.112 -1.3881 -0.5033  0.1776
  287MOL0     H39543   4.017   7.675   6.079 -2.1506  0.1467  0.8342
  287MOL0     H39544   4.003   7.683   5.895 -0.5939 -3.0617  1.3204
  287MOL0     H39545   4.155   7.825   5.927 -0.5745 -3.4525  0.5646
  287MOL0     H39546   4.005   7.919   5.915  0.6116  0.0097 -0.1612
  287MOL0     H39547   4.037   7.907   6.202  0.4026  2.0544  1.6516
  287MOL0     H39548   4.141   8.015   6.104  0.4434 -0.5864 -2.7393
  287MOL0     H39549   4.201   7.736   6.203 -1.3420  0.6362 -0.7449
  287MOL0     H39550   4.312   7.823   6.102  0.1186  2.1205 -0.6216
  287MOL0     H39551   4.380   7.819   6.345 -0.7546 -1.2466  0.1651
  287MOL0     H39552   4.241   7.930   6.380 -0.7413 -2.9281 -1.3179
  287MOL0     H39553   4.345   8.085   6.210 -1.2200 -0.1271  1.2654
  287MOL0     H39554   4.395   8.072   6.370  0.1391 -0.7820  0.2290
  287MOL0     H39555   4.480   8.026   6.018  0.6818  0.2861 -0.4345
  287MOL0     H39556   4.681   8.131   5.933 -1.4650  0.8109  3.4566
  287MOL0     H39557   4.745   7.964   5.916 -2.5631 -1.1258  1.0154
  287MOL0     H39558   4.873   8.216   6.026 -3.3163 -0.6241 -0.8805
  287MOL0     H39559   4.935   8.060   6.074 -1.8047  1.6032  2.2495
  287MOL0     H39560   5.002   7.988   5.859  1.5778  0.0071 -1.7208
  287MOL0     H39561   4.900   8.111   5.776 -0.3296  0.1612  0.6833
  287MOL0     H39562   5.127   8.170   5.751 -1.4300 -0.0135 -1.2504
  287MOL0     H39563   5.039   8.285   5.864  1.2119  0.3311 -2.4693
  287MOL0     H39564   5.305   8.091   6.145  0.9289 -1.8480 -1.0927
  287MOL0     H39565   5.516   8.310   6.335 -0.4946  0.0294  0.1936
  287MOL0     H39566   5.611   8.189   6.238 -0.5623 -1.7166 -1.5728
  287MOL0     H39567   5.452   8.151   6.322  1.3436 -0.4098  0.5037
  287MOL0     H39568   5.962   8.445   5.947 -1.6367 -2.5060  2.9238
  287MOL0     H39569   6.129   8.603   6.017  0.2816 -0.0116 -0.0586
  287MOL0     H39570   6.245   8.777   5.983 -3.4033 -0.3078 -0.2996
  287MOL0     H39571   6.266   8.942   6.015 -0.2486 -0.0001 -0.8070
  287MOL0     H39572   6.235   8.803   6.280 -0.4816 -2.2755  0.3843
  287MOL0     H39573   6.336   8.696   6.181  2.2451  1.3003 -2.6295
  287MOL0     H39574   6.412   8.987   6.232  0.4512  0.4043  0.2875
  287MOL0     H39575   6.502   8.860   6.144 -1.7616  1.1742 -0.9886
  287MOL0     H39576   6.475   8.741   6.396 -0.0713  0.2656 -0.0576
  287MOL0     H39577   6.451   8.907   6.437 -1.5962  1.1266 -1.9528
  287MOL0     H39578   6.706   8.800   6.288 -1.0541 -1.3751  0.8747
  287MOL0     H39579   6.671   8.971   6.337 -0.1280 -0.0735 -0.4869
  287MOL0     H39580   6.724   8.727   6.520  0.9046  0.7525  2.6356
  287MOL0     H39581   6.647   8.871   6.572  1.7200  0.5872  1.4690
  287MOL0     H39582   6.840   9.006   6.512  1.1288  0.7567 -3.3858
  287MOL0     H39583   6.916   8.870   6.428 -0.6623 -1.1011 -0.6161
  287MOL0     H39584   6.912   8.756   6.649  0.2203  0.3988  0.6915
  287MOL0     H39585   6.889   8.923   6.719  1.5450  2.5265 -1.5535
  287MOL0     H39586   5.848   8.902   6.115  0.8568 -0.5727  2.8789
  287MOL0     H39587   5.656   8.723   6.053  0.4360 -0.9382  1.5849
  287MOL0     H39588   5.478   8.477   5.871 -1.5907 -0.9059 -1.5083
  287MOL0     H39589   5.274   8.367   5.812  0.8488  0.0757 -0.1939
  287MOL0     H39590   3.548   7.794   5.956 -3.4722 -2.5099  1.5687
  287MOL0     H39591   3.407   7.912   5.799  2.3148  1.9045 -0.9794
  287MOL0     H39592   3.171   7.786   5.311 -0.6621 -0.3335 -2.4889
  287MOL0     H39593   3.007   7.878   5.159  1.0754  0.0819  0.6963
  287MOL0     H39594   2.838   7.998   5.120 -1.0322  0.3258 -1.7293
  287MOL0     H39595   2.771   8.143   5.180 -1.4787 -2.4876  0.8103
  287MOL0     H39596   2.676   8.090   4.968  1.3859 -0.6575  2.4276
  287MOL0     H39597   2.838   8.087   4.884  1.2872 -0.4305  1.5411
  287MOL0     H39598   2.738   8.346   5.022  0.6250 -0.1343  0.3869
  287MOL0     H39599   2.868   8.337   4.916 -0.6058  2.2050  1.1389
  287MOL0     H39600   2.621   8.224   4.785 -1.4759  1.2431 -1.5609
  287MOL0     H39601   2.752   8.322   4.723 -2.3712 -1.3033 -1.5883
  287MOL0     H39602   2.492   8.628   4.811  1.7736  1.2124  2.2670
  287MOL0     H39603   3.148   8.271   5.267  3.2962  0.0202  0.1646
  287MOL0     H39604   3.383   8.294   5.336  1.8016 -0.5660 -0.5920
  287MOL0     H39605   3.328   8.257   5.499 -1.0544  2.3615 -0.4226
  287MOL0     H39606   3.463   8.161   5.422 -0.1289  0.3054 -0.2076
  288MOL0     O39607   2.017   0.316   1.273 -0.2443 -0.6796 -1.3141
  288MOL0     C39608   1.984   0.406   1.342  0.6975  0.0136 -0.6913
  288MOL0     O39609   2.061   0.505   1.394 -0.4768 -0.0686 -0.2652
  288MOL0     C39610   2.175   0.522   1.330 -0.3945  0.5379  0.2466
  288MOL0     C39611   2.192   0.640   1.269 -0.5039  0.7509  0.1050
  288MOL0     C39612   2.311   0.674   1.201  0.8625 -0.5835  0.0196
  288MOL0     C39613   2.409   0.581   1.184 -0.7050  0.2109 -0.8694
  288MOL0     O39614   2.506   0.614   1.097 -0.3769 -0.4082  0.0364
  288MOL0     C39615   2.638   0.551   1.113 -0.6436  0.0602  0.6405
  288MOL0     C39616   2.754   0.634   1.042  0.2749  1.0973  0.2622
  288MOL0     C39617   2.890   0.568   1.057  0.1573 -1.4952 -0.2697
  288MOL0     C39618   2.997   0.657   0.980  0.9756  0.8074 -1.0988
  288MOL0     C39619   3.010   0.802   1.029  0.8953  0.2213  0.3938
  288MOL0     C39620   3.101   0.877   0.935  0.2690  0.8521 -0.4454
  288MOL0     C39621   3.131   1.019   0.998  0.3290  0.0898 -0.0963
  288MOL0     C39622   3.212   1.103   0.901  0.6555 -1.0845  0.1081
  288MOL0     N39623   3.300   1.201   0.977  1.0014  0.6379  0.6477
  288MOL0     C39624   3.414   1.248   0.920  0.0337  0.1337  0.2893
  288MOL0     C39625   3.476   1.321   1.024  0.5390 -0.9034  0.0357
  288MOL0     C39626   3.619   1.378   1.017 -0.6286 -0.6316 -1.2305
  288MOL0     C39627   3.708   1.324   1.131  0.6195 -0.6951  0.7515
  288MOL0     C39628   3.759   1.181   1.090  0.5874  0.4107  0.1708
  288MOL0     C39629   3.809   1.111   1.218 -0.2988 -0.1914 -0.6201
  288MOL0     O39630   3.909   1.202   1.275 -0.2170  0.3809  0.4065
  288MOL0     C39631   4.044   1.184   1.250 -0.2040 -0.0192  0.3375
  288MOL0     C39632   4.084   1.133   1.127 -0.5149  0.2744 -0.3764
  288MOL0     C39633   4.222   1.119   1.103 -0.3283 -0.3925 -0.4680
  288MOL0     C39634   4.255   1.088   0.957  0.8110 -1.0503 -0.2326
  288MOL0     C39635   4.310   1.152   1.209  0.3216  0.1416 -0.0589
  288MOL0     C39636   4.458   1.159   1.184 -0.0800 -0.0611  0.8735
  288MOL0     O39637   4.512   1.041   1.161  0.1847 -0.6855 -0.3351
  288MOL0     C39638   4.633   1.025   1.081  0.6269  0.2971  0.0515
  288MOL0     C39639   4.747   1.094   1.091 -0.2539  0.8384 -0.1151
  288MOL0     C39640   4.857   1.075   1.006  0.2619  0.0205  0.6517
  288MOL0     C39641   4.850   0.967   0.914  0.0870  0.2989 -0.3969
  288MOL0     O39642   4.957   0.941   0.837  0.2580  0.0152 -0.0594
  288MOL0     C39643   4.974   1.033   0.724  0.0048 -0.0202  0.2352
  288MOL0     C39644   5.106   1.108   0.720  1.2698  0.0675 -0.2127
  288MOL0     C39645   5.130   1.177   0.579  1.2419 -0.0048  0.1826
  288MOL0     C39646   5.183   1.074   0.472  0.3852 -0.4712 -0.5517
  288MOL0     C39647   5.319   1.124   0.405  1.1774  0.2644  0.5169
  288MOL0     C39648   5.384   1.007   0.331  0.1999  0.0327 -0.2847
  288MOL0     C39649   5.461   1.055   0.216 -0.3955 -0.4745  0.1080
  288MOL0     C39650   5.520   0.941   0.131 -0.2358  0.5298 -0.3693
  288MOL0    Cl39651   5.375   0.875   0.039  0.0769 -0.4013  0.1890
  288MOL0     C39652   4.731   0.886   0.912 -0.0143 -0.1971  1.0659
  288MOL0     C39653   4.615   0.921   0.992 -0.6105 -0.4727 -0.2223
  288MOL0     O39654   4.510   1.270   1.167 -0.0965  0.3575 -0.2819
  288MOL0     C39655   4.261   1.210   1.328  0.3591 -0.6535 -0.6676
  288MOL0     C39656   4.128   1.220   1.350 -1.0149  0.6024 -0.1623
  288MOL0     N39657   3.393   1.303   1.135 -0.2087  0.3252 -0.1231
  288MOL0     N39658   3.290   1.233   1.104 -0.1922  0.3352 -0.2498
  288MOL0     C39659   2.401   0.470   1.264  0.5722 -0.0083 -0.1438
  288MOL0     C39660   2.281   0.439   1.336 -0.6953 -0.3941 -0.0095
  288MOL0     C39661   1.838   0.422   1.381 -0.4249  0.4396  0.3488
  288MOL0     C39662   1.806   0.518   1.481 -0.7561  0.2757  0.1047
  288MOL0     C39663   1.682   0.537   1.528  0.0725  0.1598 -0.0050
  288MOL0     C39664   1.585   0.436   1.504  0.3149  0.1023 -0.9657
  288MOL0     O39665   1.464   0.441   1.577 -0.2933  0.5382 -0.2168
  288MOL0     C39666   1.413   0.313   1.617  0.9146  0.7392  0.0423
  288MOL0     C39667   1.504   0.257   1.716 -0.6952  0.1959 -0.3151
  288MOL0     C39668   1.502   0.349   1.840  0.5960 -0.8338  0.2524
  288MOL0     C39669   1.584   0.284   1.952  0.0066 -0.6029  1.3165
  288MOL0     C39670   1.728   0.287   1.944  0.0152  1.1519  0.3906
  288MOL0     C39671   1.848   0.280   1.940  0.0691  0.4304 -0.7413
  288MOL0     C39672   1.611   0.336   1.407  0.5654 -0.4993  0.2332
  288MOL0     C39673   1.731   0.330   1.340 -0.9201 -0.2687  0.8674
  288MOL0     C39674   1.756   0.219   1.236 -1.2015 -0.1392 -0.0210
  288MOL0     H39675   2.113   0.712   1.289 -1.2325  0.0376 -0.1856
  288MOL0     H39676   2.305   0.759   1.134 -0.9772 -2.2258 -2.0530
  288MOL0     H39677   2.640   0.444   1.091  1.0094  0.5233 -1.8429
  288MOL0     H39678   2.670   0.557   1.217  0.2114 -2.0967  0.5615
  288MOL0     H39679   2.718   0.641   0.939 -1.3701 -2.8345  0.3892
  288MOL0     H39680   2.752   0.731   1.092 -1.7230 -1.6214  6.3019
  288MOL0     H39681   2.912   0.564   1.165 -0.4564 -2.1678 -0.1570
  288MOL0     H39682   2.886   0.470   1.007 -2.1014 -0.7937 -1.5762
  288MOL0     H39683   3.096   0.617   1.002 -0.3066 -2.6180 -0.9520
  288MOL0     H39684   2.977   0.644   0.874 -1.7362 -1.0166 -0.4754
  288MOL0     H39685   3.052   0.814   1.130  1.3687  1.1402  0.0972
  288MOL0     H39686   2.915   0.855   1.037 -0.7697 -2.2683 -1.4538
  288MOL0     H39687   3.196   0.826   0.919 -0.1164 -0.6671  1.6763
  288MOL0     H39688   3.047   0.890   0.840  2.5509  1.1142 -1.7599
  288MOL0     H39689   3.179   1.004   1.095  2.0327 -1.0004 -1.0564
  288MOL0     H39690   3.038   1.074   1.013 -0.7184 -1.6282 -0.0849
  288MOL0     H39691   3.274   1.039   0.837 -0.5469 -2.5455  0.3612
  288MOL0     H39692   3.143   1.153   0.833 -0.1242  1.7006  2.7278
  288MOL0     H39693   3.433   1.251   0.813 -1.6440  3.4516 -0.0501
  288MOL0     H39694   3.611   1.485   1.037 -2.9256 -1.2398  1.9727
  288MOL0     H39695   3.675   1.374   0.923  0.6009 -0.1317 -0.5347
  288MOL0     H39696   3.789   1.397   1.135  0.6511 -0.6409 -0.5179
  288MOL0     H39697   3.656   1.325   1.228  0.1913  3.0691  0.6284
  288MOL0     H39698   3.670   1.124   1.062  0.5606  0.1704  0.7234
  288MOL0     H39699   3.833   1.171   1.010  1.3703 -1.5847  1.0831
  288MOL0     H39700   3.728   1.116   1.291 -0.7098  0.1120 -1.0948
  288MOL0     H39701   3.841   1.008   1.196 -0.9681 -0.4348 -0.4644
  288MOL0     H39702   4.009   1.117   1.050 -2.4604  0.4801  1.3886
  288MOL0     H39703   4.329   1.009   0.969  0.9589 -0.8128  0.4595
  288MOL0     H39704   4.298   1.171   0.900 -0.8107 -1.3493 -1.9914
  288MOL0     H39705   4.167   1.053   0.902  1.0576  0.8032 -1.9305
  288MOL0     H39706   4.748   1.169   1.169  0.1033  0.1459  0.5571
  288MOL0     H39707   4.940   1.146   1.006 -0.3242  0.7168 -0.1681
  288MOL0     H39708   4.972   0.982   0.627  1.9475  0.3976 -0.0712
  288MOL0     H39709   4.883   1.094   0.713 -1.7913 -2.4863  0.6501
  288MOL0     H39710   5.098   1.182   0.801  2.1167 -1.3031  1.1684
  288MOL0     H39711   5.187   1.039   0.746  0.5705 -0.9073 -0.5721
  288MOL0     H39712   5.196   1.264   0.584  1.3895 -0.0537 -0.8502
  288MOL0     H39713   5.029   1.204   0.548  0.6877 -0.2585  1.6885
  288MOL0     H39714   5.107   1.069   0.393  0.9487  1.7870 -1.3201
  288MOL0     H39715   5.201   0.979   0.523  1.8590  1.0810  2.0532
  288MOL0     H39716   5.295   1.199   0.330 -1.0449 -3.3234 -2.6937
  288MOL0     H39717   5.395   1.152   0.480  2.7589  2.4466 -1.7408
  288MOL0     H39718   5.310   0.934   0.298  1.2477 -1.6172  0.9005
  288MOL0     H39719   5.452   0.954   0.397 -1.6057  1.0117  2.5326
  288MOL0     H39720   5.545   1.118   0.246 -1.7267  1.1181  0.6926
  288MOL0     H39721   5.395   1.107   0.145  1.2218 -0.5320 -1.5089
  288MOL0     H39722   5.565   0.864   0.194  2.0401  0.6998 -1.6829
  288MOL0     H39723   5.587   0.978   0.053 -1.7818  1.1498 -1.4589
  288MOL0     H39724   4.733   0.807   0.836  4.6757 -1.0769  1.7871
  288MOL0     H39725   4.521   0.869   0.985  0.3931 -2.5078  0.5758
  288MOL0     H39726   4.335   1.239   1.402  2.5077 -2.1970 -2.0483
  288MOL0     H39727   4.091   1.259   1.444  0.8384  0.6118  0.6156
  288MOL0     H39728   2.486   0.403   1.273 -0.9688 -1.8247  1.6912
  288MOL0     H39729   2.282   0.347   1.394 -0.0642 -0.4704 -0.1293
  288MOL0     H39730   1.874   0.581   1.538  0.1392 -0.8291  0.3054
  288MOL0     H39731   1.660   0.601   1.613 -0.5104  1.2529 -0.9470
  288MOL0     H39732   1.314   0.336   1.658  0.4030  0.2915 -0.9127
  288MOL0     H39733   1.399   0.249   1.529  1.6837  0.7778 -0.1116
  288MOL0     H39734   1.609   0.241   1.688 -1.3506 -0.0814 -2.8177
  288MOL0     H39735   1.451   0.167   1.748 -0.5271 -0.2178 -1.1558
  288MOL0     H39736   1.542   0.447   1.816 -3.1302  0.4588 -1.4339
  288MOL0     H39737   1.400   0.352   1.880  0.6699 -0.3516  0.4054
  288MOL0     H39738   1.551   0.180   1.964  1.4709 -1.2209  0.2788
  288MOL0     H39739   1.559   0.340   2.043 -1.8669 -1.8876  1.6379
  288MOL0     H39740   1.954   0.272   1.952  0.1389  3.6629  2.0263
  288MOL0     H39741   1.539   0.258   1.381  0.3781 -0.1363 -0.3511
  288MOL0     H39742   1.829   0.146   1.273  1.5561  1.9853 -0.9372
  288MOL0     H39743   1.669   0.164   1.199 -2.3071  0.3190  1.7295
  288MOL0     H39744   1.809   0.252   1.146 -2.1746  1.3912 -0.0715
  289MOL0     O39745   1.529   0.800   7.720 -0.5077 -0.0234 -0.3336
  289MOL0     C39746   1.498   0.699   7.788  0.2070  0.3182  0.6171
  289MOL0     O39747   1.421   0.712   7.897  0.1293  0.4396 -0.1989
  289MOL0     C39748   1.381   0.839   7.944 -0.2563  0.7978  0.5832
  289MOL0     C39749   1.335   0.944   7.858  1.4278 -0.0200  0.2161
  289MOL0     C39750   1.308   1.067   7.913  0.5048 -0.3772 -0.5781
  289MOL0     C39751   1.302   1.090   8.048 -0.3627 -1.0922  0.0368
  289MOL0     O39752   1.268   1.209   8.105 -0.6095 -0.4106 -0.1751
  289MOL0     C39753   1.267   1.327   8.027 -0.3308 -0.4492  0.0260
  289MOL0     C39754   1.397   1.405   8.052 -1.1890 -0.0930 -0.4358
  289MOL0     C39755   1.510   1.356   7.956 -0.0025 -0.9450 -0.7360
  289MOL0     C39756   1.631   1.291   8.030  0.6069  0.4698 -0.5250
  289MOL0     C39757   1.755   1.267   7.943 -0.9061  0.0092 -0.0642
  289MOL0     C39758   1.758   1.181   7.816 -0.0527 -0.3023 -0.2106
  289MOL0     C39759   1.889   1.183   7.725  0.3973 -0.6910  0.0427
  289MOL0     C39760   2.017   1.176   7.817  0.1430 -0.7420 -0.2307
  289MOL0     N39761   2.126   1.169   7.724 -0.1975  0.1321  1.3155
  289MOL0     C39762   2.154   1.064   7.630 -1.3197  0.1698 -0.5148
  289MOL0     C39763   2.264   1.108   7.567 -0.4641 -0.7392 -0.3301
  289MOL0     C39764   2.317   1.031   7.452 -0.4360 -0.2902  0.6892
  289MOL0     C39765   2.471   1.018   7.436  1.0051 -0.0285  0.1066
  289MOL0     C39766   2.542   0.988   7.570  0.1041 -0.2681 -0.2605
  289MOL0     C39767   2.477   0.864   7.651 -1.0816  0.5780 -0.0834
  289MOL0     O39768   2.563   0.816   7.756 -0.3190 -0.2116  0.0714
  289MOL0     C39769   2.675   0.748   7.718 -1.4244 -0.6895 -0.5545
  289MOL0     C39770   2.715   0.713   7.582 -0.4151 -0.3321  0.8353
  289MOL0     C39771   2.840   0.663   7.544 -0.0005 -0.4137 -0.4064
  289MOL0     C39772   2.866   0.647   7.399  0.1066  0.2074 -0.3072
  289MOL0     C39773   2.939   0.641   7.650  0.7861 -0.4865 -0.1097
  289MOL0     C39774   3.069   0.575   7.630  0.0650  0.2517 -0.0860
  289MOL0     O39775   3.155   0.566   7.734  0.3722  0.6644 -1.1331
  289MOL0     C39776   3.275   0.502   7.708 -1.5133  0.2283 -0.3645
  289MOL0     C39777   3.390   0.585   7.731  0.5880 -0.7458 -0.1903
  289MOL0     C39778   3.519   0.544   7.684 -0.9029 -0.8529 -0.1262
  289MOL0     C39779   3.536   0.420   7.622  0.3539  0.2543 -0.0733
  289MOL0     O39780   3.646   0.375   7.559 -0.0723 -0.4074 -0.4055
  289MOL0     C39781   3.782   0.434   7.596 -0.4585  0.5088  0.0837
  289MOL0     C39782   3.890   0.345   7.531  0.2312  0.2028 -0.0946
  289MOL0     C39783   4.030   0.386   7.575 -0.0358 -0.0826  0.5929
  289MOL0     C39784   4.139   0.288   7.528  0.4006 -0.0102 -0.0169
  289MOL0     C39785   4.278   0.328   7.547 -0.3022  0.3072  0.3826
  289MOL0     C39786   4.386   0.229   7.485 -0.1052  0.0091 -0.0200
  289MOL0     C39787   4.521   0.300   7.464  0.8875 -0.4099  0.8342
  289MOL0     C39788   4.626   0.209   7.403  0.3169  0.2026 -0.7686
  289MOL0    Cl39789   4.789   0.293   7.410 -0.3064 -0.2278 -0.0896
  289MOL0     C39790   3.426   0.336   7.612 -0.0480  0.6611  0.6337
  289MOL0     C39791   3.303   0.371   7.649  0.1882 -0.0989 -1.5571
  289MOL0     O39792   3.086   0.533   7.514 -0.6915 -0.5400 -0.0352
  289MOL0     C39793   2.901   0.668   7.779  0.5290 -0.9821  0.1006
  289MOL0     C39794   2.776   0.717   7.818  0.2911  0.1951 -0.3850
  289MOL0     N39795   2.310   1.220   7.626  0.3426 -0.2761 -0.9294
  289MOL0     N39796   2.221   1.263   7.722  0.1926 -0.9565  0.3502
  289MOL0     C39797   1.319   0.987   8.137  0.2529  0.6822  0.0433
  289MOL0     C39798   1.365   0.861   8.089  0.5281  0.0950  0.5489
  289MOL0     C39799   1.548   0.570   7.749  0.2076  0.7472  0.7159
  289MOL0     C39800   1.521   0.462   7.835  0.7951  0.0328  0.4571
  289MOL0     C39801   1.569   0.334   7.819  0.4856  0.3583 -0.3459
  289MOL0     C39802   1.640   0.295   7.699 -0.2149 -0.0008 -0.8765
  289MOL0     O39803   1.682   0.165   7.699 -0.2863 -0.1301 -0.2045
  289MOL0     C39804   1.802   0.151   7.618 -0.3632 -0.0411  0.3535
  289MOL0     C39805   1.928   0.216   7.678  0.6845  0.8531 -0.1006
  289MOL0     C39806   1.948   0.201   7.828 -0.0030  0.1783  0.7548
  289MOL0     C39807   2.007   0.066   7.879  0.3880 -0.2947  0.3535
  289MOL0     C39808   2.135   0.030   7.810 -0.2878  0.4328  0.4743
  289MOL0     C39809   2.253   0.007   7.789  0.1163  0.0037  0.6528
  289MOL0     C39810   1.667   0.406   7.612  0.1425  0.0375  0.4214
  289MOL0     C39811   1.625   0.537   7.634 -0.3252 -0.1784 -0.5357
  289MOL0     C39812   1.664   0.645   7.528 -0.5111  0.4081 -0.6035
  289MOL0     H39813   1.331   0.931   7.750 -0.3898  0.2581  0.2162
  289MOL0     H39814   1.288   1.149   7.845  1.0477 -0.4936 -0.8832
  289MOL0     H39815   1.193   1.397   8.068  0.4117 -1.0522  2.6292
  289MOL0     H39816   1.249   1.321   7.920 -0.6107  1.4893 -0.0740
  289MOL0     H39817   1.379   1.511   8.029 -0.2526  0.0969 -0.3256
  289MOL0     H39818   1.421   1.400   8.158 -0.4409 -2.7005 -0.6557
  289MOL0     H39819   1.477   1.288   7.878 -1.1540 -0.2800 -0.8513
  289MOL0     H39820   1.543   1.444   7.899 -0.3952 -1.0593 -1.1392
  289MOL0     H39821   1.645   1.365   8.110 -5.0587  1.3111  0.1480
  289MOL0     H39822   1.596   1.195   8.071  0.8496  0.6510  0.1269
  289MOL0     H39823   1.832   1.225   8.009 -0.8944 -0.4733 -0.3733
  289MOL0     H39824   1.790   1.367   7.917  2.8365 -0.5792  1.9942
  289MOL0     H39825   1.733   1.077   7.839 -1.4091  0.1794  0.5911
  289MOL0     H39826   1.675   1.222   7.756 -1.2388 -1.3140  0.6944
  289MOL0     H39827   1.905   1.273   7.665 -0.9879  0.9163  1.9576
  289MOL0     H39828   1.881   1.102   7.651  1.9605 -2.2431  1.4570
  289MOL0     H39829   2.017   1.263   7.884 -0.2976  0.2157 -1.4307
  289MOL0     H39830   2.025   1.083   7.873  0.2758 -0.9370 -0.5710
  289MOL0     H39831   2.094   0.979   7.598  1.0620 -1.3987 -1.0205
  289MOL0     H39832   2.281   1.072   7.357  0.1097 -2.1158 -0.3648
  289MOL0     H39833   2.286   0.926   7.453 -2.3898  0.2504  1.4219
  289MOL0     H39834   2.500   0.952   7.354 -1.0668  1.9468 -2.4050
  289MOL0     H39835   2.507   1.112   7.391  0.6593 -0.2786 -0.7058
  289MOL0     H39836   2.650   0.989   7.556  0.0342  1.9817 -1.0593
  289MOL0     H39837   2.538   1.076   7.636 -2.4734  1.8386 -2.9023
  289MOL0     H39838   2.380   0.885   7.696 -1.3899 -1.5552  0.3698
  289MOL0     H39839   2.468   0.780   7.582  1.0702 -2.5008  3.0263
  289MOL0     H39840   2.659   0.730   7.491  0.1386 -0.9825  0.3644
  289MOL0     H39841   2.955   0.704   7.369  1.1139  1.0990  3.7421
  289MOL0     H39842   2.785   0.666   7.329 -1.6737 -2.0243  1.0015
  289MOL0     H39843   2.902   0.545   7.382  2.3437  1.1185 -1.4807
  289MOL0     H39844   3.384   0.689   7.761  0.7810 -0.1887 -1.9884
  289MOL0     H39845   3.604   0.609   7.701 -1.5430 -0.0792  0.1540
  289MOL0     H39846   3.784   0.532   7.548  1.0916 -0.2434 -1.5053
  289MOL0     H39847   3.802   0.426   7.703  0.1335 -1.2826 -0.1273
  289MOL0     H39848   3.874   0.245   7.572  0.0055 -0.0194 -0.7070
  289MOL0     H39849   3.886   0.343   7.422 -0.5286  1.7974 -0.1215
  289MOL0     H39850   4.033   0.403   7.683  0.6443  2.5097  0.2360
  289MOL0     H39851   4.044   0.483   7.526 -1.2972 -0.1348  0.0840
  289MOL0     H39852   4.120   0.287   7.420  2.2318  0.9086 -0.3834
  289MOL0     H39853   4.114   0.187   7.561 -0.0384 -0.2803 -1.1381
  289MOL0     H39854   4.289   0.433   7.519 -0.7265  0.8310  2.0851
  289MOL0     H39855   4.301   0.331   7.653  2.4125  1.8842 -0.1620
  289MOL0     H39856   4.357   0.183   7.391  1.5041  0.0066 -0.5494
  289MOL0     H39857   4.393   0.145   7.555  1.9046 -0.5727 -0.8600
  289MOL0     H39858   4.549   0.348   7.558  0.2115 -1.9927  1.8967
  289MOL0     H39859   4.496   0.378   7.391 -0.6013  0.2273  1.9732
  289MOL0     H39860   4.605   0.188   7.298 -0.3949  0.7892 -0.7523
  289MOL0     H39861   4.632   0.112   7.454 -0.2308  1.3919  1.7109
  289MOL0     H39862   3.424   0.248   7.548  0.3531  0.2439  1.1860
  289MOL0     H39863   3.215   0.307   7.648 -0.1291  0.3003 -0.7670
  289MOL0     H39864   2.974   0.645   7.857  0.6980 -3.2750 -0.6464
  289MOL0     H39865   2.746   0.738   7.920  0.3486 -1.0813 -0.0905
  289MOL0     H39866   1.303   1.000   8.243  2.4071 -0.3792  0.5491
  289MOL0     H39867   1.390   0.779   8.155 -0.1694 -1.3023 -0.8436
  289MOL0     H39868   1.465   0.478   7.926  1.3238  0.0443  0.7888
  289MOL0     H39869   1.550   0.254   7.890 -0.0386 -0.0697 -0.9532
  289MOL0     H39870   1.819   0.043   7.621  2.6025  0.2855 -0.6037
  289MOL0     H39871   1.782   0.192   7.518  0.3680  3.5329  1.5137
  289MOL0     H39872   1.923   0.325   7.669  0.0692  1.0403  1.9534
  289MOL0     H39873   2.013   0.181   7.619 -1.0679 -3.0777 -0.6126
  289MOL0     H39874   2.012   0.284   7.859  0.0212  1.2772 -1.9724
  289MOL0     H39875   1.850   0.210   7.875  0.0571 -1.4527  1.2498
  289MOL0     H39876   1.937  -0.016   7.859 -0.3217  0.4155 -0.1371
  289MOL0     H39877   2.022   0.077   7.987  1.3470 -0.0086  0.2023
  289MOL0     H39878   2.352  -0.031   7.778 -0.7815 -1.7273 -2.6041
  289MOL0     H39879   1.724   0.382   7.523  0.1996 -0.5964  0.6258
  289MOL0     H39880   1.580   0.709   7.499 -0.2122  1.0937  0.0257
  289MOL0     H39881   1.748   0.701   7.571 -1.2094  3.1973 -2.5726
  289MOL0     H39882   1.708   0.588   7.445  1.3237 -1.8340  1.7418
  290MOL0     O39883   5.003   3.950  10.586 -0.1415 -0.6672  0.2046
  290MOL0     C39884   4.969   4.026  10.493  0.8606 -0.0299 -0.1527
  290MOL0     O39885   5.047   4.121  10.443 -0.0061 -0.0462  0.4787
  290MOL0     C39886   5.184   4.097  10.413  0.3973 -0.5210 -0.5710
  290MOL0     C39887   5.244   3.977  10.380  1.0682 -0.1532 -0.7544
  290MOL0     C39888   5.381   3.975  10.339 -0.3117  0.4858  0.9585
  290MOL0     C39889   5.463   4.086  10.347 -0.7610 -0.3527  0.6544
  290MOL0     O39890   5.600   4.101  10.318 -0.4836  0.4672  0.2351
  290MOL0     C39891   5.671   3.984  10.266  0.9159  0.1868  0.0002
  290MOL0     C39892   5.816   4.014  10.272 -0.0728  0.3777 -0.6755
  290MOL0     C39893   5.862   4.139  10.200 -0.3617 -0.0327  0.3832
  290MOL0     C39894   6.016   4.164  10.195  0.3835  0.4179 -0.5070
  290MOL0     C39895   6.050   4.311  10.161  0.3675 -0.3318 -0.3544
  290MOL0     C39896   6.052   4.342  10.013 -0.3289  0.0199  0.9970
  290MOL0     C39897   6.148   4.261   9.910  0.5939  0.0795 -0.4205
  290MOL0     C39898   6.292   4.266   9.954 -0.1190  0.3022 -0.1046
  290MOL0     N39899   6.349   4.396   9.984  0.0332 -0.8122  1.0129
  290MOL0     C39900   6.398   4.426  10.108 -0.2246 -0.2787 -0.2493
  290MOL0     C39901   6.409   4.563  10.113 -0.5194  0.1334 -0.6851
  290MOL0     C39902   6.469   4.629  10.233 -0.4335 -0.4784 -0.7100
  290MOL0     C39903   6.564   4.751  10.195 -0.1670  1.0880 -0.2103
  290MOL0     C39904   6.640   4.823  10.309  0.0832  0.8758 -0.3886
  290MOL0     C39905   6.788   4.801  10.309 -0.3968  0.3396 -0.3131
  290MOL0     O39906   6.832   4.898  10.404  0.0841 -0.7305  0.1094
  290MOL0     C39907   6.960   4.950  10.389 -0.5015  0.1494 -0.1350
  290MOL0     C39908   7.064   4.880  10.327  0.0988  0.5759 -0.6266
  290MOL0     C39909   7.195   4.941  10.310 -0.5295  0.0840 -1.2837
  290MOL0     C39910   7.300   4.864  10.224  0.1189  0.0166  0.0772
  290MOL0     C39911   7.222   5.062  10.377  0.1737  0.0084 -0.0130
  290MOL0     C39912   7.359   5.140  10.354  0.1054  0.2432  0.4083
  290MOL0     O39913   7.380   5.259  10.415  0.3455  0.8126  0.0724
  290MOL0     C39914   7.501   5.317  10.375  0.6920  0.2521 -0.7216
  290MOL0     C39915   7.612   5.279  10.452  0.4758  0.5693 -0.8035
  290MOL0     C39916   7.735   5.331  10.427 -0.4968 -0.5005  0.5139
  290MOL0     C39917   7.749   5.438  10.339  0.2985 -0.7784 -0.7284
  290MOL0     O39918   7.872   5.503  10.321 -0.1786 -0.9680 -0.1186
  290MOL0     C39919   7.978   5.417  10.272  0.0714  0.1038 -0.1263
  290MOL0     C39920   8.094   5.507  10.243 -0.0402 -0.2123  0.4230
  290MOL0     C39921   8.166   5.547  10.382  0.1770  0.7624 -0.6112
  290MOL0     C39922   8.286   5.647  10.367  0.2698  0.2752 -0.4468
  290MOL0     C39923   8.405   5.562  10.310 -1.0481 -0.0646 -0.4443
  290MOL0     C39924   8.504   5.644  10.226 -0.5958  0.0786  0.1643
  290MOL0     C39925   8.613   5.555  10.190 -0.2391 -1.0493 -0.1015
  290MOL0     C39926   8.632   5.560  10.038  0.2294  0.0353 -0.4637
  290MOL0    Cl39927   8.777   5.462   9.980 -0.3576 -0.0243 -0.4522
  290MOL0     C39928   7.638   5.486  10.268 -0.6943 -1.3448  0.2851
  290MOL0     C39929   7.511   5.427  10.285  0.0807  0.1841  0.2840
  290MOL0     O39930   7.433   5.100  10.263  0.4479  0.0552 -1.3728
  290MOL0     C39931   7.124   5.125  10.447  0.7037 -0.2868  0.1768
  290MOL0     C39932   6.993   5.068  10.457  0.1881  0.5209 -0.6200
  290MOL0     N39933   6.358   4.616   9.996 -0.6468 -0.0255 -0.9321
  290MOL0     N39934   6.331   4.513   9.920  0.3125 -0.3813  0.5986
  290MOL0     C39935   5.402   4.208  10.384 -0.2037  0.0566  0.0233
  290MOL0     C39936   5.263   4.218  10.410  1.0254  0.2721  0.3575
  290MOL0     C39937   4.831   4.023  10.444 -0.2785  0.0813  0.2878
  290MOL0     C39938   4.791   4.143  10.396  0.3730  0.3389  0.5403
  290MOL0     C39939   4.664   4.163  10.345  0.2686 -0.0561  1.3128
  290MOL0     C39940   4.585   4.047  10.333 -0.1296 -1.1144 -0.0774
  290MOL0     O39941   4.473   4.069  10.255  0.4250  0.3332 -0.5276
  290MOL0     C39942   4.479   4.020  10.121 -0.4164  0.6207 -0.4785
  290MOL0     C39943   4.359   3.934  10.088  1.4918  1.4489  0.2333
  290MOL0     C39944   4.303   3.845  10.206  0.6256 -0.4496  0.6134
  290MOL0     C39945   4.186   3.751  10.160 -0.4783 -0.7672 -0.5801
  290MOL0     C39946   4.068   3.842  10.148  0.8187  0.6611  0.8613
  290MOL0     C39947   3.979   3.920  10.139 -0.4128 -0.6539  0.2729
  290MOL0     C39948   4.624   3.928  10.379 -0.0655  0.6190  0.3926
  290MOL0     C39949   4.748   3.910  10.438  0.1537  0.1617  0.4835
  290MOL0     C39950   4.797   3.775  10.478 -0.8096  0.0433  0.1256
  290MOL0     H39951   5.182   3.888  10.385 -0.9112  1.2125  0.3128
  290MOL0     H39952   5.427   3.882  10.308  1.8182  2.0974 -1.0357
  290MOL0     H39953   5.644   3.976  10.161  0.1638 -1.1163  0.2734
  290MOL0     H39954   5.638   3.892  10.315 -2.1197  1.0164 -0.3080
  290MOL0     H39955   5.843   4.029  10.377  1.1910 -2.0340 -0.5918
  290MOL0     H39956   5.868   3.923  10.240 -3.1250 -0.9802 -2.1066
  290MOL0     H39957   5.818   4.139  10.100  0.3775  0.0941  0.0547
  290MOL0     H39958   5.837   4.226  10.261  1.2220  1.6579 -1.2371
  290MOL0     H39959   6.065   4.136  10.289 -0.3208 -0.9905 -0.5272
  290MOL0     H39960   6.047   4.094  10.117 -4.8434 -0.8332 -1.8557
  290MOL0     H39961   6.152   4.323  10.198 -0.9847  1.7858  3.1654
  290MOL0     H39962   5.979   4.377  10.212 -0.9390  1.9281 -4.6200
  290MOL0     H39963   5.948   4.335   9.980  0.4004  0.0300 -1.4993
  290MOL0     H39964   6.070   4.449  10.003 -0.6009  0.0046  0.3319
  290MOL0     H39965   6.135   4.302   9.810 -0.4853 -1.3388 -0.8884
  290MOL0     H39966   6.128   4.154   9.903  0.7855 -0.0405  0.6579
  290MOL0     H39967   6.305   4.200  10.041 -2.2733 -1.3014 -0.8961
  290MOL0     H39968   6.346   4.220   9.871 -0.2457 -2.1208  1.0564
  290MOL0     H39969   6.441   4.364  10.186  0.4214 -0.6249 -0.8584
  290MOL0     H39970   6.531   4.550  10.278 -1.5996 -0.1253  1.6693
  290MOL0     H39971   6.395   4.660  10.307 -1.4257 -0.1081 -1.8169
  290MOL0     H39972   6.629   4.721  10.112 -1.6671 -0.8866 -0.7471
  290MOL0     H39973   6.498   4.827  10.153  1.8173  3.7251  1.1698
  290MOL0     H39974   6.626   4.930  10.298 -0.6590  1.4068  3.9903
  290MOL0     H39975   6.594   4.786  10.401  0.7755 -2.5432 -1.2602
  290MOL0     H39976   6.815   4.701  10.345  2.1758  1.3421  0.7432
  290MOL0     H39977   6.829   4.819  10.210  0.9468 -1.4797 -0.1309
  290MOL0     H39978   7.043   4.783  10.283  2.8934 -1.2853  1.8029
  290MOL0     H39979   7.317   4.917  10.130 -1.0080  0.2009 -0.0299
  290MOL0     H39980   7.274   4.762  10.194 -0.3458  0.9359 -2.9623
  290MOL0     H39981   7.396   4.862  10.276  1.1881  1.1079 -1.7672
  290MOL0     H39982   7.598   5.193  10.515 -1.4142  0.9434 -0.6380
  290MOL0     H39983   7.817   5.287  10.482  1.7591  0.0194 -2.2376
  290MOL0     H39984   8.000   5.347  10.353  2.2663  1.1083  0.2187
  290MOL0     H39985   7.939   5.368  10.183 -3.1049 -3.0611  2.6632
  290MOL0     H39986   8.169   5.452  10.185  1.1339  2.1667 -0.4971
  290MOL0     H39987   8.067   5.607  10.208  0.9174 -0.2534 -0.4911
  290MOL0     H39988   8.195   5.458  10.439  0.0772  1.0006 -0.1900
  290MOL0     H39989   8.085   5.587  10.443 -2.0543 -1.5630 -1.8400
  290MOL0     H39990   8.306   5.685  10.468 -2.3065  2.0764 -0.5260
  290MOL0     H39991   8.255   5.733  10.307 -3.0055  0.2947  1.0701
  290MOL0     H39992   8.456   5.502  10.386  1.6760  0.8298 -1.4512
  290MOL0     H39993   8.362   5.489  10.240 -2.5239 -0.2723  0.6247
  290MOL0     H39994   8.535   5.726  10.291  2.0325  0.1900 -1.1105
  290MOL0     H39995   8.451   5.681  10.138  1.2878 -0.8886 -1.4425
  290MOL0     H39996   8.592   5.453  10.223 -0.2525 -0.7082  0.9588
  290MOL0     H39997   8.700   5.593  10.243 -0.8246  0.6191 -0.2842
  290MOL0     H39998   8.643   5.664  10.009  0.9175 -0.3993 -1.8591
  290MOL0     H39999   8.548   5.520   9.981  1.1900 -1.6466 -0.7887
  290MOL0     H40000   7.656   5.574  10.207  0.8125 -1.9789 -0.2348
  290MOL0     H40001   7.432   5.471  10.226 -0.7015 -1.8083 -0.2520
  290MOL0     H40002   7.158   5.208  10.508  0.2333 -2.2962  3.4067
  290MOL0     H40003   6.916   5.119  10.515  2.1397  0.1773  2.5296
  290MOL0     H40004   5.466   4.295  10.395  2.2614 -1.4283 -1.5128
  290MOL0     H40005   5.209   4.305  10.446 -0.0383 -0.7029  1.2098
  290MOL0     H40006   4.855   4.229  10.412  1.0422  0.5431 -2.5293
  290MOL0     H40007   4.624   4.257  10.308 -3.3458 -1.6547  0.7086
  290MOL0     H40008   4.480   4.107  10.056  2.2456  1.3061  0.3455
  290MOL0     H40009   4.570   3.963  10.098 -1.5081 -2.2563  1.6989
  290MOL0     H40010   4.379   3.870  10.001 -4.4252 -0.0110 -0.4845
  290MOL0     H40011   4.282   4.003  10.053 -0.4444  0.1671  1.7448
  290MOL0     H40012   4.387   3.781  10.235  1.4045  0.3530  0.2077
  290MOL0     H40013   4.273   3.909  10.289 -3.1125 -1.9984  0.6319
  290MOL0     H40014   4.172   3.665  10.227 -1.6605 -0.0455  0.1134
  290MOL0     H40015   4.212   3.707  10.063 -0.1686 -0.1311 -0.7885
  290MOL0     H40016   3.892   3.978  10.114 -0.2921  0.0263  1.3654
  290MOL0     H40017   4.564   3.840  10.356 -1.2632  1.7625 -0.9880
  290MOL0     H40018   4.719   3.698  10.475 -0.9216  0.1165  0.8685
  290MOL0     H40019   4.887   3.748  10.422  2.0805 -0.3200  4.4591
  290MOL0     H40020   4.841   3.777  10.578  3.3205 -1.0656 -1.4750
  291MOL0     O40021  10.926   5.318   3.497  0.4022  0.3191 -0.3040
  291MOL0     C40022  10.832   5.399   3.493 -0.4578  0.1349 -1.4376
  291MOL0     O40023  10.855   5.528   3.489  0.3697 -0.2477  0.0760
  291MOL0     C40024  10.977   5.577   3.460 -0.7973 -0.5095  0.5003
  291MOL0     C40025  11.070   5.531   3.366 -0.6291 -0.0181 -1.1711
  291MOL0     C40026  11.193   5.588   3.347 -0.5632 -0.0316  0.1808
  291MOL0     C40027  11.235   5.691   3.438  0.1012  0.9702  0.1995
  291MOL0     O40028  11.362   5.752   3.436 -0.3128  0.2461 -0.4639
  291MOL0     C40029  11.475   5.662   3.399  0.6869 -0.0720  0.4463
  291MOL0     C40030  11.613   5.708   3.445  0.4769  0.0261  0.0228
  291MOL0     C40031  11.645   5.854   3.395 -0.0946  0.7956  0.6112
  291MOL0     C40032  11.699   5.827   3.253 -0.3803  0.0525 -0.8108
  291MOL0     C40033  11.751   5.958   3.202  0.8303 -0.3359  0.1369
  291MOL0     C40034  11.854   5.927   3.078  0.4556 -0.0960 -0.5701
  291MOL0     C40035  11.961   6.040   3.060  0.5933 -0.1766 -0.0562
  291MOL0     C40036  12.059   6.013   2.952 -0.2179 -0.8175  0.2386
  291MOL0     N40037  12.137   6.136   2.913  0.7528 -1.0424  0.0498
  291MOL0     C40038  12.265   6.121   2.857  1.4593  0.8160 -0.2112
  291MOL0     C40039  12.301   6.246   2.836  0.7463 -0.1713 -0.8311
  291MOL0     C40040  12.431   6.287   2.766  0.4113 -0.0166  0.4770
  291MOL0     C40041  12.561   6.272   2.855 -0.3445  0.5077  0.2724
  291MOL0     C40042  12.687   6.322   2.794  1.0198  0.9964 -0.0550
  291MOL0     C40043  12.718   6.259   2.658  0.3012  0.2191  0.8734
  291MOL0     O40044  12.858   6.267   2.630 -0.0820  0.5638 -0.5101
  291MOL0     C40045  12.944   6.161   2.648  0.4274 -0.4483  0.7062
  291MOL0     C40046  13.056   6.168   2.574 -0.1708 -0.1726  0.1589
  291MOL0     C40047  13.155   6.069   2.581  0.1822  0.1218  1.0908
  291MOL0     C40048  13.284   6.087   2.513 -0.4334  0.1077 -0.3200
  291MOL0     C40049  13.127   5.955   2.662  0.0614  0.1616  0.0063
  291MOL0     C40050  13.199   5.824   2.663  0.3041 -0.2280  0.8082
  291MOL0     O40051  13.273   5.802   2.547  0.6466 -0.3439 -0.6496
  291MOL0     C40052  13.392   5.741   2.551  0.0447 -0.0223  0.5688
  291MOL0     C40053  13.469   5.760   2.434 -1.1446 -0.5833  0.0271
  291MOL0     C40054  13.594   5.694   2.427  0.3316  0.6421 -0.0759
  291MOL0     C40055  13.657   5.634   2.535 -0.7631 -0.3470 -0.1307
  291MOL0     O40056  13.788   5.614   2.519  0.3336  0.1740 -0.1736
  291MOL0     C40057  13.864   5.563   2.634 -0.4916  0.0174  0.5477
  291MOL0     C40058  14.016   5.549   2.609  0.4339  0.0884  0.9624
  291MOL0     C40059  14.081   5.478   2.723  0.9436 -0.1684  0.3715
  291MOL0     C40060  14.224   5.466   2.691  0.4974  0.0345  0.4339
  291MOL0     C40061  14.255   5.351   2.585 -0.7832 -0.5626 -0.4553
  291MOL0     C40062  14.378   5.394   2.507  0.0524 -0.2881  0.0574
  291MOL0     C40063  14.365   5.353   2.356 -0.4950  1.0264  0.4236
  291MOL0     C40064  14.484   5.393   2.269 -0.2197  0.4708  0.1442
  291MOL0    Cl40065  14.474   5.320   2.102 -0.1287 -0.2743 -0.2521
  291MOL0     C40066  13.578   5.616   2.649  0.3674 -0.8640 -0.1197
  291MOL0     C40067  13.455   5.667   2.649 -0.0262 -0.6588 -0.1137
  291MOL0     O40068  13.178   5.737   2.752 -0.3965  0.1940  0.0825
  291MOL0     C40069  13.019   5.951   2.742 -0.6303 -0.0555 -0.4493
  291MOL0     C40070  12.927   6.052   2.737  0.3662 -0.8237 -0.7549
  291MOL0     N40071  12.210   6.331   2.898  0.2433 -0.6990  0.2093
  291MOL0     N40072  12.115   6.265   2.942  0.2307 -0.5706  0.2789
  291MOL0     C40073  11.141   5.741   3.531  0.1470  0.1166  0.7005
  291MOL0     C40074  11.016   5.678   3.537 -0.2008 -0.3852 -0.8007
  291MOL0     C40075  10.691   5.350   3.497  0.2682  0.0957  0.1761
  291MOL0     C40076  10.598   5.428   3.565  0.1241  0.3618  0.3640
  291MOL0     C40077  10.460   5.385   3.576 -0.4891  0.1557 -0.0642
  291MOL0     C40078  10.423   5.264   3.518 -0.6309 -0.2930  0.5214
  291MOL0     O40079  10.295   5.216   3.521  0.1936  0.1320 -0.3962
  291MOL0     C40080  10.198   5.266   3.610  0.0865  1.0224  0.1442
  291MOL0     C40081  10.053   5.197   3.595 -1.1711 -0.2401  0.2867
  291MOL0     C40082   9.989   5.207   3.453 -0.1441 -0.1403  0.0277
  291MOL0     C40083   9.891   5.093   3.411  0.5710  0.2518 -0.1977
  291MOL0     C40084   9.954   4.960   3.403 -1.0920  0.1338  0.7313
  291MOL0     C40085  10.021   4.859   3.420 -0.2453 -0.0803 -0.3571
  291MOL0     C40086  10.517   5.184   3.453  0.1893  0.5271 -0.5903
  291MOL0     C40087  10.648   5.223   3.444  0.0441 -0.2671  0.3636
  291MOL0     C40088  10.743   5.126   3.376 -0.4876  0.0160 -0.1621
  291MOL0     H40089  11.052   5.437   3.316 -3.1765 -0.8253  1.0742
  291MOL0     H40090  11.268   5.562   3.273  2.1437 -2.6939  3.5605
  291MOL0     H40091  11.477   5.659   3.290 -0.8059  1.6291  0.3312
  291MOL0     H40092  11.449   5.565   3.441 -0.6295 -0.2543 -0.7242
  291MOL0     H40093  11.620   5.723   3.553 -0.4426  0.9059 -0.0150
  291MOL0     H40094  11.686   5.631   3.421  1.2366  0.4579  0.8941
  291MOL0     H40095  11.557   5.918   3.385 -0.1564  0.4580 -1.3379
  291MOL0     H40096  11.722   5.896   3.461  0.3354  1.1981 -0.1330
  291MOL0     H40097  11.775   5.749   3.265  0.3769  1.0796  2.0682
  291MOL0     H40098  11.624   5.781   3.190 -3.0998 -0.0846  2.2569
  291MOL0     H40099  11.796   6.021   3.279  1.6692 -3.1509  2.1056
  291MOL0     H40100  11.663   6.011   3.165  1.0590 -0.6159 -0.8406
  291MOL0     H40101  11.893   5.826   3.084 -1.7472 -1.1872 -2.8190
  291MOL0     H40102  11.804   5.931   2.980 -1.5463  1.2731  0.4332
  291MOL0     H40103  12.008   6.076   3.152 -0.8761 -2.1697  1.5633
  291MOL0     H40104  11.899   6.123   3.025  0.3109  0.3696  1.6563
  291MOL0     H40105  12.130   5.931   2.965  0.0253 -0.7397 -0.5511
  291MOL0     H40106  11.989   5.990   2.872 -1.5111 -1.7739  1.5758
  291MOL0     H40107  12.311   6.036   2.808  0.2402  1.3097 -2.3798
  291MOL0     H40108  12.428   6.389   2.727  2.5661  0.0694  0.4096
  291MOL0     H40109  12.442   6.225   2.676  0.6435 -1.2614  1.3302
  291MOL0     H40110  12.545   6.316   2.954  2.0958  0.4397  0.7674
  291MOL0     H40111  12.567   6.163   2.858  0.3163  0.4217 -2.1378
  291MOL0     H40112  12.672   6.430   2.787 -1.8537  0.6088 -2.0128
  291MOL0     H40113  12.768   6.282   2.855  0.6479 -1.6279 -1.1428
  291MOL0     H40114  12.683   6.156   2.642 -0.1257  0.5142 -0.1411
  291MOL0     H40115  12.670   6.309   2.573 -2.0404 -2.9017  0.1703
  291MOL0     H40116  13.073   6.255   2.512 -0.3255 -1.2158 -1.4210
  291MOL0     H40117  13.288   6.188   2.471 -0.5105  0.4980  0.5978
  291MOL0     H40118  13.297   6.018   2.430  2.1675 -0.8039  0.7458
  291MOL0     H40119  13.358   6.078   2.592  0.1036 -0.2393 -0.8552
  291MOL0     H40120  13.435   5.822   2.352  2.0435  1.4506  0.0650
  291MOL0     H40121  13.647   5.700   2.332 -2.3327 -1.6371 -1.8675
  291MOL0     H40122  13.833   5.620   2.722 -2.5296 -1.5100  0.9083
  291MOL0     H40123  13.830   5.461   2.655  1.1404 -0.7116 -0.2111
  291MOL0     H40124  14.029   5.495   2.514  3.6441  2.1617  0.0592
  291MOL0     H40125  14.062   5.647   2.597 -0.9886  0.9099  1.9501
  291MOL0     H40126  14.017   5.395   2.753 -1.6360  1.9451  1.1288
  291MOL0     H40127  14.077   5.550   2.805  2.6342 -1.3784  1.5782
  291MOL0     H40128  14.284   5.443   2.779 -0.9983 -1.6274  1.0784
  291MOL0     H40129  14.265   5.562   2.659  1.8212 -0.5578  0.2779
  291MOL0     H40130  14.272   5.256   2.637  1.9213 -0.4889 -1.0099
  291MOL0     H40131  14.177   5.336   2.511 -0.1464 -3.4999 -0.6700
  291MOL0     H40132  14.467   5.349   2.552 -1.8066 -1.1731  3.1131
  291MOL0     H40133  14.385   5.503   2.505 -2.3815 -0.0649 -0.4276
  291MOL0     H40134  14.267   5.382   2.316 -0.7289  1.4488  1.2808
  291MOL0     H40135  14.368   5.244   2.352  2.4159  1.0582 -0.4553
  291MOL0     H40136  14.580   5.388   2.321 -1.5882  1.1296  2.9278
  291MOL0     H40137  14.483   5.502   2.259 -1.0733  0.6642  1.8964
  291MOL0     H40138  13.624   5.588   2.743  1.4254 -0.3058 -0.4669
  291MOL0     H40139  13.396   5.626   2.730  1.8054 -2.4706  0.3954
  291MOL0     H40140  12.997   5.862   2.801 -1.9099 -0.0907 -0.9464
  291MOL0     H40141  12.844   6.033   2.805 -0.0578 -2.2217 -1.6120
  291MOL0     H40142  11.182   5.810   3.604  2.5223 -0.6022  0.1126
  291MOL0     H40143  10.953   5.723   3.614  3.3239 -0.2227  2.2222
  291MOL0     H40144  10.626   5.523   3.610  1.2931  0.3677 -0.3370
  291MOL0     H40145  10.393   5.454   3.626  1.1507  1.2981  0.6676
  291MOL0     H40146  10.219   5.263   3.718  0.3220  0.1183  0.0785
  291MOL0     H40147  10.178   5.372   3.589 -1.6400  0.7240  0.1083
  291MOL0     H40148   9.981   5.240   3.665 -1.1854 -2.4635  1.7237
  291MOL0     H40149  10.060   5.094   3.632 -1.9322 -0.2406  0.4354
  291MOL0     H40150   9.918   5.290   3.446 -2.1484 -1.4671  2.4951
  291MOL0     H40151  10.071   5.215   3.382 -0.7413 -1.4612 -0.8536
  291MOL0     H40152   9.848   5.121   3.314 -0.1016 -1.4276 -0.4296
  291MOL0     H40153   9.809   5.085   3.483  2.8834 -0.8937  2.4913
  291MOL0     H40154  10.096   4.784   3.433  0.2089 -0.0244 -2.3289
  291MOL0     H40155  10.480   5.087   3.420  1.3742 -0.3573  0.5477
  291MOL0     H40156  10.700   5.056   3.304 -0.3573 -0.8542  0.5899
  291MOL0     H40157  10.824   5.178   3.325 -0.6943  2.1580  1.5222
  291MOL0     H40158  10.790   5.070   3.458 -1.6407  2.3398  2.2636
  292MOL0     O40159   9.056   7.164  11.249 -0.2905  0.4706  0.0128
  292MOL0     C40160   9.070   7.212  11.360 -0.4437  0.3832 -0.5993
  292MOL0     O40161   9.186   7.216  11.430 -0.0995 -0.9104 -0.0366
  292MOL0     C40162   9.307   7.155  11.380  0.9403  0.4060  0.6209
  292MOL0     C40163   9.424   7.200  11.433 -0.2451  0.1928  0.4003
  292MOL0     C40164   9.545   7.124  11.418  0.4643 -0.1388 -0.0927
  292MOL0     C40165   9.549   7.007  11.331 -0.2592 -0.3039 -0.7280
  292MOL0     O40166   9.669   6.941  11.317  0.6899  0.7999 -0.4968
  292MOL0     C40167   9.796   7.012  11.302  1.1334 -0.3956  0.7305
  292MOL0     C40168   9.899   6.938  11.210  0.3164  0.1177 -1.0149
  292MOL0     C40169   9.852   6.920  11.066  0.1659  0.8144 -0.5536
  292MOL0     C40170   9.957   6.856  10.980 -0.5324  0.8302 -0.5048
  292MOL0     C40171   9.908   6.815  10.829  0.1514  0.0058 -0.6869
  292MOL0     C40172   9.885   6.947  10.744 -0.1157 -0.3725  0.4232
  292MOL0     C40173   9.999   7.041  10.738  0.5506  1.4333 -0.5878
  292MOL0     C40174   9.986   7.122  10.611 -0.6816  0.4871  0.0950
  292MOL0     N40175  10.084   7.226  10.612 -0.7926 -0.0699  0.0543
  292MOL0     C40176  10.065   7.354  10.657 -0.0504  0.0290 -0.2096
  292MOL0     C40177  10.179   7.419  10.654 -0.3170 -0.1566  0.7164
  292MOL0     C40178  10.174   7.566  10.682 -0.5206  0.7673 -0.0748
  292MOL0     C40179  10.243   7.672  10.590  0.4502 -0.0602  1.0121
  292MOL0     C40180  10.201   7.669  10.440 -0.4725  0.2441 -0.4518
  292MOL0     C40181  10.051   7.705  10.434  0.0212 -0.2759  0.7435
  292MOL0     O40182  10.016   7.818  10.518  0.3632  0.0114 -0.2137
  292MOL0     C40183   9.892   7.887  10.517 -0.4017  0.8194  0.4589
  292MOL0     C40184   9.885   7.995  10.603 -0.0707  0.5894 -0.4720
  292MOL0     C40185   9.772   8.080  10.608 -0.7345  0.4832 -0.0177
  292MOL0     C40186   9.803   8.184  10.719 -0.0235 -0.7533 -0.3819
  292MOL0     C40187   9.656   8.054  10.525 -0.0728  0.2773 -0.1754
  292MOL0     C40188   9.528   8.122  10.527  0.1895 -0.5374 -0.5753
  292MOL0     O40189   9.429   8.081  10.433 -0.5011 -0.1178 -0.1829
  292MOL0     C40190   9.309   8.140  10.447 -0.8948  0.4358 -0.3729
  292MOL0     C40191   9.196   8.066  10.471  0.1134  0.0830 -0.2476
  292MOL0     C40192   9.069   8.113  10.447  0.4903  0.7617 -0.7423
  292MOL0     C40193   9.058   8.243  10.408  0.0815 -0.2322  0.2784
  292MOL0     O40194   8.933   8.296  10.388 -0.1097 -0.0221  0.2949
  292MOL0     C40195   8.907   8.389  10.272 -0.0447 -0.1723  0.1144
  292MOL0     C40196   8.750   8.416  10.272 -0.3214  0.2209 -0.5530
  292MOL0     C40197   8.724   8.553  10.342  0.6665 -0.1999  0.8005
  292MOL0     C40198   8.571   8.592  10.327 -0.3827  0.2337 -0.2056
  292MOL0     C40199   8.471   8.487  10.380  0.4057  0.1400  0.6398
  292MOL0     C40200   8.503   8.453  10.525  0.2018  0.5509  0.9337
  292MOL0     C40201   8.388   8.366  10.586 -0.3082  0.0219 -0.0207
  292MOL0     C40202   8.367   8.230  10.527  0.1598 -0.1449  0.5389
  292MOL0    Cl40203   8.263   8.145  10.650  0.0957  0.1411  0.0896
  292MOL0     C40204   9.168   8.319  10.384 -0.8742 -0.3585 -0.1112
  292MOL0     C40205   9.292   8.269  10.396  0.1331 -0.2484 -0.3697
  292MOL0     O40206   9.520   8.225  10.590 -0.1797  0.1808 -0.0386
  292MOL0     C40207   9.670   7.950  10.432  0.2042 -0.0023 -0.8747
  292MOL0     C40208   9.783   7.869  10.437  0.2980 -0.8361  0.0735
  292MOL0     N40209  10.274   7.331  10.616  0.1142 -0.9259  0.1993
  292MOL0     N40210  10.224   7.216  10.594  0.0485  0.5671  0.0352
  292MOL0     C40211   9.424   6.959  11.283 -0.3214 -0.3023 -0.5529
  292MOL0     C40212   9.309   7.037  11.310  0.0747  0.2137 -0.0958
  292MOL0     C40213   8.951   7.285  11.398 -0.0302 -0.0968 -0.0336
  292MOL0     C40214   8.910   7.404  11.326  0.3776  0.2555  0.2263
  292MOL0     C40215   8.810   7.487  11.379 -0.8996 -0.9455 -0.1948
  292MOL0     C40216   8.742   7.456  11.501 -0.1370  0.3605  0.4657
  292MOL0     O40217   8.643   7.535  11.546 -0.6772  0.3846 -0.6438
  292MOL0     C40218   8.506   7.486  11.553  0.2881 -0.0197 -0.1645
  292MOL0     C40219   8.421   7.581  11.473  0.8831  0.1103  0.6147
  292MOL0     C40220   8.409   7.718  11.538  0.2739 -1.1355  1.5792
  292MOL0     C40221   8.337   7.817  11.440  0.2821  0.0142  0.3101
  292MOL0     C40222   8.199   7.769  11.416  0.6790  0.3860 -1.1733
  292MOL0     C40223   8.080   7.738  11.394 -0.2261 -0.1609  0.0512
  292MOL0     C40224   8.779   7.342  11.566 -0.6697 -0.9948  0.2661
  292MOL0     C40225   8.878   7.257  11.513 -0.4371  0.6673 -0.0258
  292MOL0     C40226   8.918   7.142  11.600 -0.5526  0.2203  1.2365
  292MOL0     H40227   9.421   7.287  11.497 -1.7455 -0.1944  0.9196
  292MOL0     H40228   9.632   7.170  11.463 -1.0996  1.0628  1.8447
  292MOL0     H40229   9.835   7.020  11.404  2.0146  0.9989  0.3126
  292MOL0     H40230   9.767   7.105  11.252 -1.0980 -0.7442  1.2905
  292MOL0     H40231   9.997   6.987  11.218 -0.2707  1.4191 -1.6084
  292MOL0     H40232   9.913   6.839  11.255 -1.8837  0.4931  0.6570
  292MOL0     H40233   9.765   6.854  11.068 -0.2337  1.2086 -2.5993
  292MOL0     H40234   9.827   7.017  11.021  1.7828  1.6428  0.2472
  292MOL0     H40235  10.049   6.914  10.966  0.0123 -0.2220 -1.4827
  292MOL0     H40236   9.985   6.765  11.035 -0.0820 -0.2240 -2.3988
  292MOL0     H40237   9.817   6.755  10.825 -0.8438  1.3605  0.3594
  292MOL0     H40238   9.986   6.759  10.777 -1.4958 -0.6754 -2.5197
  292MOL0     H40239   9.856   6.904  10.648  2.9406 -1.4974 -0.1048
  292MOL0     H40240   9.796   6.998  10.782  0.2278  0.7351 -0.2156
  292MOL0     H40241  10.084   6.973  10.728  1.3109  2.5741 -2.2401
  292MOL0     H40242  10.003   7.091  10.835 -3.2514 -1.4839  1.3723
  292MOL0     H40243  10.015   7.058  10.526 -1.0578  1.6318 -0.9300
  292MOL0     H40244   9.882   7.151  10.590 -0.3532 -0.2475 -3.2010
  292MOL0     H40245   9.968   7.395  10.684  0.1933  0.3920  0.1276
  292MOL0     H40246  10.205   7.579  10.786 -0.0012 -1.6951  0.1321
  292MOL0     H40247  10.072   7.603  10.691 -0.6823  0.2870  0.0607
  292MOL0     H40248  10.225   7.772  10.630  0.1776 -0.2837  1.4561
  292MOL0     H40249  10.353   7.668  10.592  0.4095 -2.2249  1.4955
  292MOL0     H40250  10.268   7.745  10.399 -0.1701  0.5287  0.5380
  292MOL0     H40251  10.214   7.568  10.402  1.0910 -0.4072  1.5974
  292MOL0     H40252  10.034   7.726  10.328  2.6345  2.7139  0.7583
  292MOL0     H40253   9.998   7.615  10.467  1.3538 -0.4646  2.5138
  292MOL0     H40254   9.973   7.998  10.667  1.0881 -1.8733 -1.8432
  292MOL0     H40255   9.898   8.235  10.698  0.8123 -1.0814  2.2696
  292MOL0     H40256   9.819   8.128  10.812 -3.0925 -2.8081 -0.9259
  292MOL0     H40257   9.724   8.257  10.733  0.4792 -0.6437  2.4647
  292MOL0     H40258   9.219   7.964  10.500  2.6433  1.0447  1.4308
  292MOL0     H40259   8.977   8.060  10.470  1.0763 -0.2313 -0.6392
  292MOL0     H40260   8.964   8.480  10.289 -1.3531  0.8975 -1.0253
  292MOL0     H40261   8.926   8.341  10.176  1.3721 -0.6436  0.6037
  292MOL0     H40262   8.703   8.415  10.174  0.6064  4.3814 -1.2282
  292MOL0     H40263   8.709   8.334  10.332  1.7614 -0.9229 -0.5991
  292MOL0     H40264   8.774   8.632  10.285 -2.4919  2.3550  1.3032
  292MOL0     H40265   8.756   8.556  10.446  3.2429 -1.6742  0.1313
  292MOL0     H40266   8.543   8.611  10.223  0.8114  2.3917 -0.1907
  292MOL0     H40267   8.553   8.684  10.382 -0.9924  0.2585 -0.4434
  292MOL0     H40268   8.371   8.525  10.359  0.8546 -0.2601 -2.8469
  292MOL0     H40269   8.478   8.396  10.319 -0.4909  0.0509  0.6614
  292MOL0     H40270   8.524   8.544  10.582  0.4200  1.9211 -1.2324
  292MOL0     H40271   8.599   8.399  10.524  0.6474  1.2332  2.7224
  292MOL0     H40272   8.292   8.416  10.598  0.2933  1.5791 -1.3752
  292MOL0     H40273   8.425   8.346  10.687  0.9062 -0.1747 -0.4880
  292MOL0     H40274   8.461   8.175  10.519  1.6723  2.1564  1.4891
  292MOL0     H40275   8.321   8.239  10.428  1.6976 -0.5139 -0.2396
  292MOL0     H40276   9.158   8.413  10.332 -1.1116 -0.1847  0.2446
  292MOL0     H40277   9.380   8.324  10.365  1.2594 -2.1876 -0.7652
  292MOL0     H40278   9.596   7.912  10.363 -0.3101 -0.2877 -0.1726
  292MOL0     H40279   9.799   7.793  10.361  0.1569 -0.5799 -0.2155
  292MOL0     H40280   9.427   6.863  11.233  1.4809  0.0626 -1.2334
  292MOL0     H40281   9.215   7.004  11.268 -0.1353  0.8991 -0.1783
  292MOL0     H40282   8.946   7.447  11.233  0.0898 -1.3172 -0.6470
  292MOL0     H40283   8.776   7.568  11.315 -0.6100 -1.0256 -0.4496
  292MOL0     H40284   8.505   7.390  11.501  0.5735 -0.6485  0.9539
  292MOL0     H40285   8.475   7.475  11.657  1.9293 -1.9519  0.1884
  292MOL0     H40286   8.321   7.537  11.470  1.3204 -0.8359 -0.6273
  292MOL0     H40287   8.460   7.601  11.373  0.9865  2.9706  1.1424
  292MOL0     H40288   8.367   7.727  11.638 -0.0320 -2.1086  1.5543
  292MOL0     H40289   8.512   7.752  11.551  0.0111  0.9192 -0.8882
  292MOL0     H40290   8.388   7.828  11.344  0.8814 -3.0207  0.1893
  292MOL0     H40291   8.326   7.916  11.485 -0.0511 -0.7159  1.9167
  292MOL0     H40292   7.978   7.710  11.382  0.1284 -0.4400 -2.8593
  292MOL0     H40293   8.734   7.309  11.659  2.2372 -4.3672  0.6970
  292MOL0     H40294   9.013   7.175  11.643  0.3408  1.4410 -1.4979
  292MOL0     H40295   8.839   7.112  11.670 -3.9627 -2.5953 -3.2655
  292MOL0     H40296   8.941   7.048  11.548  1.0450  1.9268 -1.3253
  293MOL0     O40297   9.373   3.237   9.357  0.3040 -0.2175 -0.2263
  293MOL0     C40298   9.330   3.311   9.277 -0.1092  0.2934 -0.4664
  293MOL0     O40299   9.322   3.278   9.141 -0.4556  0.1664  0.1719
  293MOL0     C40300   9.390   3.173   9.104 -0.3238 -0.3133 -0.3859
  293MOL0     C40301   9.524   3.173   9.088 -0.2998  0.7385  0.8100
  293MOL0     C40302   9.598   3.056   9.083 -0.2292  0.2507 -1.1313
  293MOL0     C40303   9.541   2.934   9.058  0.2029  0.2099  0.0297
  293MOL0     O40304   9.618   2.822   9.036  0.1434 -0.0839  0.3903
  293MOL0     C40305   9.556   2.696   9.055 -0.1589  1.3984 -0.2565
  293MOL0     C40306   9.661   2.586   9.032 -0.5303 -0.0722 -0.3601
  293MOL0     C40307   9.769   2.589   9.138  0.3761  0.2884 -0.0715
  293MOL0     C40308   9.868   2.477   9.117 -1.0703  0.0919 -0.0518
  293MOL0     C40309   9.978   2.501   9.003  0.3200 -0.0018  0.0527
  293MOL0     C40310  10.103   2.419   8.996  1.1382 -0.0286  1.6311
  293MOL0     C40311  10.214   2.437   9.098 -0.0819 -0.3406 -0.1259
  293MOL0     C40312  10.308   2.311   9.096  0.4144 -0.7508 -0.4772
  293MOL0     N40313  10.364   2.275   8.962  0.4035 -0.7574 -0.1860
  293MOL0     C40314  10.435   2.363   8.880  0.4172 -0.5093 -0.4724
  293MOL0     C40315  10.427   2.294   8.764 -0.2527 -1.1245 -0.3439
  293MOL0     C40316  10.488   2.343   8.636  0.4576 -0.3909 -0.8638
  293MOL0     C40317  10.630   2.279   8.604  0.3173 -0.7354  0.2008
  293MOL0     C40318  10.738   2.378   8.564 -0.1922 -0.7223 -0.0248
  293MOL0     C40319  10.866   2.307   8.524 -0.2592  0.8047  0.4718
  293MOL0     O40320  10.960   2.412   8.497  0.1616 -1.0610  0.2002
  293MOL0     C40321  11.092   2.388   8.501  0.7418  0.1092  0.8813
  293MOL0     C40322  11.152   2.261   8.521 -0.1289 -0.2919 -0.7843
  293MOL0     C40323  11.294   2.253   8.527  0.3541  0.9726 -0.0832
  293MOL0     C40324  11.342   2.110   8.522 -0.4160  0.0975  0.1169
  293MOL0     C40325  11.375   2.374   8.516 -0.1504 -0.3987 -0.1035
  293MOL0     C40326  11.521   2.377   8.516 -0.4592  0.1336  0.2178
  293MOL0     O40327  11.583   2.483   8.449 -0.3833 -0.1633  0.2809
  293MOL0     C40328  11.716   2.505   8.456  0.2453  1.0087  0.9482
  293MOL0     C40329  11.788   2.488   8.573 -0.6997  0.2623 -0.2176
  293MOL0     C40330  11.933   2.517   8.579  0.0515 -0.5343  0.4492
  293MOL0     C40331  11.995   2.561   8.456 -0.0286 -1.1591 -0.3425
  293MOL0     O40332  12.124   2.610   8.454 -0.7348  0.6179 -0.5918
  293MOL0     C40333  12.168   2.706   8.555  1.0634 -0.1210 -0.1518
  293MOL0     C40334  12.277   2.789   8.503 -0.1920 -0.4926  0.4100
  293MOL0     C40335  12.422   2.715   8.503 -0.4885  0.1066  0.4080
  293MOL0     C40336  12.529   2.824   8.479  0.2886  0.8994 -0.7688
  293MOL0     C40337  12.671   2.776   8.511 -0.9416 -0.1907  0.9115
  293MOL0     C40338  12.771   2.889   8.475 -0.2541 -0.0552  0.2276
  293MOL0     C40339  12.923   2.866   8.500  0.2859 -0.2797 -0.0536
  293MOL0     C40340  12.980   2.771   8.393  0.4978  0.2918  0.5616
  293MOL0    Cl40341  12.941   2.828   8.218 -0.1374  0.2324  0.6938
  293MOL0     C40342  11.914   2.573   8.345  1.1282  0.9271 -0.0781
  293MOL0     C40343  11.780   2.541   8.339  0.2914  0.1587  0.0859
  293MOL0     O40344  11.584   2.284   8.567  0.3357  0.2039  0.8683
  293MOL0     C40345  11.311   2.498   8.515 -0.7209  0.0602 -0.4783
  293MOL0     C40346  11.172   2.499   8.498 -0.3784 -0.8144  0.2582
  293MOL0     N40347  10.364   2.170   8.775  0.0439 -0.6646  0.0725
  293MOL0     N40348  10.338   2.158   8.898  0.3409 -0.5349  0.3125
  293MOL0     C40349   9.402   2.937   9.063  0.3272  0.8981 -0.5258
  293MOL0     C40350   9.330   3.053   9.094  0.1481  0.3783  0.5718
  293MOL0     C40351   9.277   3.444   9.327 -0.7149 -0.4198  0.0247
  293MOL0     C40352   9.168   3.491   9.264  0.2142  0.9490  0.0910
  293MOL0     C40353   9.096   3.596   9.312 -0.3187  0.3095  0.3049
  293MOL0     C40354   9.145   3.674   9.422  0.5456  0.7636  0.9945
  293MOL0     O40355   9.069   3.783   9.458 -0.0821  0.1008 -0.0085
  293MOL0     C40356   9.125   3.884   9.538 -0.5110 -0.3959  1.0638
  293MOL0     C40357   9.026   3.992   9.578  0.3311  0.5566  0.2752
  293MOL0     C40358   8.908   3.940   9.644  1.1409 -0.4303 -0.8560
  293MOL0     C40359   8.801   4.051   9.660 -0.6530 -0.0666  0.0857
  293MOL0     C40360   8.684   4.009   9.744 -0.0523  0.2793  0.2650
  293MOL0     C40361   8.595   3.964   9.815 -0.0668 -0.0728 -0.0345
  293MOL0     C40362   9.263   3.634   9.489  0.4025  0.7006 -0.1143
  293MOL0     C40363   9.328   3.520   9.440  0.3747 -1.0965  0.2433
  293MOL0     C40364   9.461   3.499   9.504 -0.0713  0.6837 -0.1936
  293MOL0     H40365   9.568   3.271   9.101  2.1532 -0.0147 -1.0418
  293MOL0     H40366   9.706   3.063   9.092 -0.4026  0.6143  1.4484
  293MOL0     H40367   9.479   2.680   8.978 -1.0647 -1.3890  1.0823
  293MOL0     H40368   9.506   2.693   9.152  0.3382 -0.8144 -0.0180
  293MOL0     H40369   9.607   2.490   9.032 -0.7561  0.0313  1.1748
  293MOL0     H40370   9.713   2.606   8.938 -0.2946  1.2386  0.0418
  293MOL0     H40371   9.817   2.687   9.133 -0.4443  0.6841 -0.4003
  293MOL0     H40372   9.710   2.580   9.229  0.6665 -2.6203 -0.0572
  293MOL0     H40373   9.920   2.469   9.214 -0.1150 -0.6729 -0.6112
  293MOL0     H40374   9.817   2.383   9.095 -0.3113 -0.1179 -0.9648
  293MOL0     H40375  10.016   2.603   9.015 -0.3002  0.3522 -0.8719
  293MOL0     H40376   9.918   2.507   8.912 -1.9155 -0.1086  1.4398
  293MOL0     H40377  10.077   2.312   8.991  0.8489  0.1034 -1.2852
  293MOL0     H40378  10.137   2.442   8.895  0.5839  2.1859  1.9103
  293MOL0     H40379  10.174   2.456   9.198  3.7759  1.8418  1.2414
  293MOL0     H40380  10.275   2.517   9.055  1.0781 -2.2658 -2.2876
  293MOL0     H40381  10.384   2.328   9.173  2.2611 -0.1133 -2.3391
  293MOL0     H40382  10.241   2.233   9.132 -0.0782  0.8092  2.3205
  293MOL0     H40383  10.475   2.463   8.893  0.9814 -0.1513 -3.9693
  293MOL0     H40384  10.497   2.452   8.637  0.5249 -0.3988 -0.6210
  293MOL0     H40385  10.419   2.323   8.554 -0.3972 -1.6005  0.1123
  293MOL0     H40386  10.660   2.221   8.691  0.0712  1.3636  1.7739
  293MOL0     H40387  10.619   2.201   8.528  0.3158 -0.1602 -0.4030
  293MOL0     H40388  10.717   2.451   8.485  3.0850  1.2589  0.7653
  293MOL0     H40389  10.762   2.433   8.656 -1.7298 -0.6318  0.3595
  293MOL0     H40390  10.906   2.241   8.601  2.6545  1.7621 -0.0850
  293MOL0     H40391  10.846   2.243   8.437  1.4823  0.5527  0.2259
  293MOL0     H40392  11.087   2.176   8.506 -1.4312  0.4281  0.5369
  293MOL0     H40393  11.436   2.097   8.466  0.1409  1.1269  0.7850
  293MOL0     H40394  11.270   2.045   8.472 -0.5495 -1.1644  1.8663
  293MOL0     H40395  11.362   2.064   8.619 -1.3538 -1.1122 -0.2311
  293MOL0     H40396  11.728   2.469   8.662  0.2455 -0.3268  0.3144
  293MOL0     H40397  11.995   2.502   8.667  1.6226 -2.1186 -0.8591
  293MOL0     H40398  12.078   2.768   8.557 -0.1821 -1.6215 -3.2854
  293MOL0     H40399  12.194   2.657   8.649 -0.4762  0.4791  0.6107
  293MOL0     H40400  12.264   2.816   8.397  0.1659  2.4297  1.0310
  293MOL0     H40401  12.287   2.878   8.565  0.0393 -0.3209  0.1319
  293MOL0     H40402  12.429   2.631   8.434 -1.3420 -0.4647  0.9984
  293MOL0     H40403  12.436   2.670   8.602  0.8221  1.7377  1.0168
  293MOL0     H40404  12.505   2.914   8.536  1.3355  0.2891  0.6996
  293MOL0     H40405  12.520   2.860   8.376  1.8253 -0.4378 -1.4133
  293MOL0     H40406  12.669   2.744   8.616 -3.8564  0.8875  1.2679
  293MOL0     H40407  12.704   2.688   8.455  3.1065 -0.3916  3.1739
  293MOL0     H40408  12.734   2.967   8.543 -2.5811 -2.1049  1.4781
  293MOL0     H40409  12.761   2.914   8.369  1.9736 -0.9741 -0.2482
  293MOL0     H40410  12.937   2.827   8.601  0.9105  1.7846  0.6945
  293MOL0     H40411  12.973   2.962   8.486 -0.7379  0.2498 -0.1627
  293MOL0     H40412  12.950   2.666   8.393 -1.1922  0.4958 -4.4444
  293MOL0     H40413  13.088   2.766   8.414  0.8657  1.3580 -0.8598
  293MOL0     H40414  11.963   2.619   8.260  1.7858  3.3188  1.5190
  293MOL0     H40415  11.710   2.563   8.259  0.9719  0.4535 -0.4430
  293MOL0     H40416  11.365   2.592   8.513 -0.7567  0.0893 -0.1136
  293MOL0     H40417  11.125   2.596   8.480  4.1431  1.7038  0.6225
  293MOL0     H40418   9.344   2.845   9.063  0.7971  0.5799 -1.9406
  293MOL0     H40419   9.226   3.057   9.124  0.7597  2.6191  2.7482
  293MOL0     H40420   9.130   3.447   9.173  4.3100  2.1645 -2.4791
  293MOL0     H40421   9.008   3.622   9.254  0.0982  2.0976  0.4252
  293MOL0     H40422   9.157   3.856   9.639 -2.4086  4.2094  3.2190
  293MOL0     H40423   9.202   3.941   9.485 -2.6614  0.6956 -1.0771
  293MOL0     H40424   9.007   4.058   9.492  0.0952 -0.1710 -0.2431
  293MOL0     H40425   9.071   4.052   9.657 -1.0718 -0.0501  1.5878
  293MOL0     H40426   8.866   3.854   9.591 -1.5692 -0.4620  1.1283
  293MOL0     H40427   8.931   3.906   9.745 -0.2170 -1.7030 -0.9393
  293MOL0     H40428   8.765   4.073   9.559 -0.2056  0.3531  0.0088
  293MOL0     H40429   8.847   4.139   9.706 -1.8518  1.3013 -1.2376
  293MOL0     H40430   8.519   3.913   9.871 -0.4686 -0.0319 -0.5287
  293MOL0     H40431   9.318   3.695   9.561  2.1312  0.0946 -0.8509
  293MOL0     H40432   9.514   3.422   9.448 -0.7653  1.4642 -1.9878
  293MOL0     H40433   9.514   3.595   9.499 -0.5672  0.9122 -4.1743
  293MOL0     H40434   9.451   3.478   9.611 -0.5824 -0.0351 -0.3728
  294MOL0     O40435   2.573  10.104  10.236 -0.3103  0.5240 -0.0430
  294MOL0     C40436   2.492  10.142  10.156  0.7167  0.1732  0.8543
  294MOL0     O40437   2.523  10.220  10.051 -0.2514 -0.0123  0.3449
  294MOL0     C40438   2.651  10.270  10.013  1.0435 -0.5160 -0.2966
  294MOL0     C40439   2.766  10.265  10.102 -0.7991 -0.1789 -0.0560
  294MOL0     C40440   2.871  10.341  10.055 -0.9728  0.1669  0.1037
  294MOL0     C40441   2.883  10.401   9.922  0.1132  0.4420 -0.5600
  294MOL0     O40442   2.993  10.470   9.877 -0.1932 -0.8017 -0.3408
  294MOL0     C40443   3.088  10.520   9.974 -1.2176  0.0418  0.4130
  294MOL0     C40444   3.186  10.616   9.898  0.5575 -0.5498 -0.2597
  294MOL0     C40445   3.275  10.687   9.995  0.1680  0.9151 -0.2700
  294MOL0     C40446   3.364  10.796   9.947 -0.3021 -0.1384  0.0912
  294MOL0     C40447   3.447  10.856  10.066 -1.0221  0.1676  0.0968
  294MOL0     C40448   3.568  10.919   9.994  0.5455  0.3526  1.4632
  294MOL0     C40449   3.662  10.993  10.095 -0.1130 -0.0546 -0.0177
  294MOL0     C40450   3.796  10.929  10.086  0.1552  0.9641  0.4311
  294MOL0     N40451   3.880  10.986  10.186  0.5989  0.3455 -0.1973
  294MOL0     C40452   3.842  11.007  10.316 -0.0465 -0.7285  0.4810
  294MOL0     C40453   3.955  11.058  10.373 -0.3206  0.0589 -0.4167
  294MOL0     C40454   3.981  11.101  10.514 -0.6637 -0.2321  0.2007
  294MOL0     C40455   4.121  11.173  10.523 -0.4047 -0.4471 -0.2965
  294MOL0     C40456   4.165  11.221  10.663  0.3424 -0.0500  0.4847
  294MOL0     C40457   4.047  11.270  10.738 -1.0247  0.4880  0.1505
  294MOL0     O40458   4.089  11.334  10.865 -0.1278 -0.2341  0.5494
  294MOL0     C40459   4.165  11.451  10.859 -0.2331  0.6588 -0.8544
  294MOL0     C40460   4.160  11.536  10.751  0.1893  0.2628  0.6268
  294MOL0     C40461   4.250  11.645  10.738  0.1422 -0.4743  0.0641
  294MOL0     C40462   4.229  11.738  10.617 -0.2074  0.2084 -1.2962
  294MOL0     C40463   4.344  11.681  10.849  0.9917 -0.7324  0.2789
  294MOL0     C40464   4.438  11.802  10.852  0.5879  0.7682  0.3247
  294MOL0     O40465   4.490  11.828  10.977  0.3197 -0.4715  0.2503
  294MOL0     C40466   4.628  11.861  10.991  0.6289 -0.4361 -1.1029
  294MOL0     C40467   4.724  11.821  10.901 -0.6386  0.1302 -0.5020
  294MOL0     C40468   4.861  11.840  10.928  0.1677  0.1085 -0.1948
  294MOL0     C40469   4.909  11.925  11.037  0.1061  0.3641  0.0871
  294MOL0     O40470   5.044  11.950  11.051  0.3703 -0.4177 -0.1589
  294MOL0     C40471   5.097  11.953  11.178 -0.2687 -0.9065  1.7866
  294MOL0     C40472   5.247  11.996  11.153  0.4035  0.0625  0.1897
  294MOL0     C40473   5.246  12.152  11.115 -0.0034  0.3036 -0.1436
  294MOL0     C40474   5.392  12.205  11.075 -0.7782  0.1255  0.1983
  294MOL0     C40475   5.380  12.356  11.037  0.0101 -0.2501 -0.0789
  294MOL0     C40476   5.517  12.408  11.003  0.1052 -0.0921  1.2037
  294MOL0     C40477   5.498  12.541  10.930 -0.6427 -0.0823  0.2062
  294MOL0     C40478   5.616  12.585  10.841 -0.1431 -0.5942 -0.1912
  294MOL0    Cl40479   5.766  12.599  10.934  0.2690 -0.0856 -0.2781
  294MOL0     C40480   4.812  11.980  11.117 -0.3306  0.8784  0.5472
  294MOL0     C40481   4.674  11.945  11.101 -0.4468  0.2175 -0.5178
  294MOL0     O40482   4.456  11.879  10.754  0.0074 -0.4513 -0.5886
  294MOL0     C40483   4.339  11.602  10.963  0.5505 -1.1338 -0.2360
  294MOL0     C40484   4.260  11.486  10.959 -0.9918  0.8469 -0.6155
  294MOL0     N40485   4.052  11.090  10.280  0.0849 -0.1965 -0.2233
  294MOL0     N40486   4.010  11.045  10.169 -0.0352 -0.4482  0.3313
  294MOL0     C40487   2.774  10.378   9.836 -0.3379  0.3972 -0.5534
  294MOL0     C40488   2.659  10.321   9.883  0.8929 -0.0915 -0.2413
  294MOL0     C40489   2.351  10.088  10.161 -0.2031 -0.2241 -0.1658
  294MOL0     C40490   2.257  10.153  10.083 -0.4460 -0.3894  0.0612
  294MOL0     C40491   2.123  10.103  10.079  0.3581  0.6774 -0.2124
  294MOL0     C40492   2.082   9.994  10.152 -0.3144 -0.3296 -0.0870
  294MOL0     O40493   1.955   9.933  10.155 -0.2392 -0.6585  0.1392
  294MOL0     C40494   1.880   9.941  10.029 -0.0291 -0.1251  0.7464
  294MOL0     C40495   1.731   9.976  10.067 -0.8702 -0.5453 -0.2144
  294MOL0     C40496   1.636   9.997   9.951 -0.0918  0.3212  0.9143
  294MOL0     C40497   1.493  10.026  10.002 -0.1373 -0.3727  0.7889
  294MOL0     C40498   1.412  10.106   9.904  0.3263  0.8685 -0.5662
  294MOL0     C40499   1.349  10.170   9.824 -0.6330 -0.5342 -0.7938
  294MOL0     C40500   2.179   9.931  10.234 -0.8248  0.7736 -0.8724
  294MOL0     C40501   2.310   9.979  10.241 -0.6613  0.6371 -0.2158
  294MOL0     C40502   2.403   9.911  10.342 -0.6745 -0.7899  0.6243
  294MOL0     H40503   2.770  10.221  10.201 -1.8618  1.0020  0.5437
  294MOL0     H40504   2.959  10.345  10.119 -3.0601 -2.3284  3.4631
  294MOL0     H40505   3.146  10.439  10.020 -0.7852 -0.5815 -1.1481
  294MOL0     H40506   3.047  10.571  10.061  3.8490  0.9906  2.6169
  294MOL0     H40507   3.245  10.546   9.837  0.1670  0.8004 -2.2724
  294MOL0     H40508   3.121  10.682   9.841 -0.4698 -1.2446  0.0868
  294MOL0     H40509   3.215  10.731  10.075  0.4858  1.6706 -0.4364
  294MOL0     H40510   3.334  10.615  10.053 -0.5676 -0.2952 -0.9849
  294MOL0     H40511   3.431  10.758   9.870 -1.0706 -2.9960  0.7180
  294MOL0     H40512   3.307  10.874   9.897  1.1456 -0.7287 -2.6475
  294MOL0     H40513   3.469  10.786  10.148 -2.5814 -0.3573  0.0968
  294MOL0     H40514   3.391  10.942  10.103  0.0384  0.2712  1.5612
  294MOL0     H40515   3.621  10.844   9.935 -0.1553  0.2527  0.9407
  294MOL0     H40516   3.520  10.995   9.930 -0.3112 -1.8546 -0.6566
  294MOL0     H40517   3.623  10.984  10.197 -1.1103  0.3101 -0.3472
  294MOL0     H40518   3.671  11.098  10.066  1.7110 -0.0390  0.4779
  294MOL0     H40519   3.790  10.824  10.116  1.1003  0.5777 -0.6468
  294MOL0     H40520   3.839  10.944   9.986  2.0073  1.7083  1.2917
  294MOL0     H40521   3.755  10.993  10.380 -1.3486 -0.5841 -1.2098
  294MOL0     H40522   3.976  11.011  10.577 -2.0820 -1.0607 -1.0285
  294MOL0     H40523   3.904  11.174  10.541  1.6465  3.5886 -2.5848
  294MOL0     H40524   4.193  11.110  10.470  0.3404  0.0902  0.0479
  294MOL0     H40525   4.106  11.261  10.459 -0.6587 -0.6818 -0.5609
  294MOL0     H40526   4.195  11.139  10.729  0.3770  0.6657  1.3724
  294MOL0     H40527   4.240  11.299  10.657 -1.4675  1.6506 -2.2449
  294MOL0     H40528   3.993  11.345  10.679  1.6962  2.9378  0.5103
  294MOL0     H40529   3.981  11.187  10.764  1.0569 -1.3803 -0.2630
  294MOL0     H40530   4.086  11.531  10.671 -1.5970  0.5086  2.1984
  294MOL0     H40531   4.158  11.688  10.549 -0.8757 -0.0752 -0.4130
  294MOL0     H40532   4.324  11.771  10.575  0.9163 -0.2215  0.7624
  294MOL0     H40533   4.170  11.825  10.647 -2.5081 -1.2801 -1.2236
  294MOL0     H40534   4.695  11.753  10.822  0.1247  0.9927 -1.5473
  294MOL0     H40535   4.940  11.808  10.860 -2.0708 -2.4335 -1.7832
  294MOL0     H40536   5.035  12.014  11.245 -1.6076 -0.1955 -0.0336
  294MOL0     H40537   5.098  11.852  11.219 -0.9011 -1.6652  0.0305
  294MOL0     H40538   5.305  11.979  11.245 -1.5307  1.3171  1.7327
  294MOL0     H40539   5.284  11.938  11.068 -0.1387  0.4222 -0.2937
  294MOL0     H40540   5.204  12.215  11.194 -1.1277  0.4649 -0.8450
  294MOL0     H40541   5.190  12.176  11.023  0.7337 -1.4233 -1.0865
  294MOL0     H40542   5.429  12.148  10.989  1.3840  2.2040 -0.3548
  294MOL0     H40543   5.467  12.183  11.152  0.1332  2.3953  0.0509
  294MOL0     H40544   5.307  12.355  10.956 -2.1722 -0.9833  1.7895
  294MOL0     H40545   5.341  12.426  11.112 -1.2436 -0.8406 -0.1603
  294MOL0     H40546   5.568  12.342  10.931 -2.4792 -1.4350  0.4808
  294MOL0     H40547   5.574  12.423  11.095  0.0480 -0.8019  1.3578
  294MOL0     H40548   5.465  12.619  11.000  2.3985  2.2167 -0.6965
  294MOL0     H40549   5.418  12.536  10.856 -0.2578  0.7752 -0.2853
  294MOL0     H40550   5.591  12.683  10.801 -0.0327 -0.8998 -1.0187
  294MOL0     H40551   5.628  12.512  10.760  1.2391 -0.0919 -0.4786
  294MOL0     H40552   4.846  12.048  11.194 -1.0451  0.4693  1.2432
  294MOL0     H40553   4.592  11.980  11.162  0.7596  1.6087  0.3660
  294MOL0     H40554   4.403  11.627  11.047  0.8472  0.0778 -0.8081
  294MOL0     H40555   4.281  11.422  11.045 -0.4713  1.1063 -0.5481
  294MOL0     H40556   2.783  10.423   9.737  2.2746  2.0492  0.3272
  294MOL0     H40557   2.587  10.300   9.804  1.3714  0.9300 -0.9862
  294MOL0     H40558   2.287  10.234  10.018  1.9465 -2.5325 -1.7252
  294MOL0     H40559   2.056  10.169  10.024  0.6451  0.2074 -1.1467
  294MOL0     H40560   1.920  10.017   9.962 -1.8311  0.6709  0.5215
  294MOL0     H40561   1.887   9.846   9.975  1.5260  0.3055  0.1244
  294MOL0     H40562   1.723  10.065  10.130 -0.8878 -0.6301 -0.0968
  294MOL0     H40563   1.701   9.892  10.130  0.7310  0.0410  1.4236
  294MOL0     H40564   1.671  10.082   9.893  4.1838 -2.2777 -0.8196
  294MOL0     H40565   1.637   9.907   9.888  1.9394 -0.0615  1.4084
  294MOL0     H40566   1.506  10.089  10.091 -0.5855  0.6256  0.1610
  294MOL0     H40567   1.438   9.935  10.028  0.2491 -0.1215  2.6483
  294MOL0     H40568   1.301  10.230   9.749  1.3467  4.3088  1.3650
  294MOL0     H40569   2.146   9.848  10.297  3.3219  0.3838  1.0863
  294MOL0     H40570   2.446   9.977  10.418  0.3646  0.6423 -1.1213
  294MOL0     H40571   2.350   9.830  10.393 -1.3928  0.3110  1.6890
  294MOL0     H40572   2.481   9.868  10.279 -2.2593 -0.7989 -1.4639
  295MOL0     O40573   1.185   5.458   9.034  0.0294  0.3346 -0.3454
  295MOL0     C40574   1.156   5.525   8.941  0.0828  0.2600  0.0493
  295MOL0     O40575   1.245   5.582   8.860  0.5251 -0.6374  0.7344
  295MOL0     C40576   1.370   5.538   8.862  0.2522 -0.1300 -0.1620
  295MOL0     C40577   1.415   5.452   8.760  0.2127 -0.1404  0.3356
  295MOL0     C40578   1.548   5.413   8.751  0.1145 -1.1574 -1.5164
  295MOL0     C40579   1.643   5.456   8.855  0.2265  0.0778  0.2262
  295MOL0     O40580   1.773   5.409   8.840 -0.3534 -0.1064 -0.6470
  295MOL0     C40581   1.856   5.374   8.956  0.1647 -0.0484  0.0877
  295MOL0     C40582   1.996   5.333   8.913 -0.0119 -0.4263 -0.3269
  295MOL0     C40583   2.071   5.439   8.847  0.4381  0.4900  0.0885
  295MOL0     C40584   2.210   5.384   8.802 -0.2240 -0.2006  0.0512
  295MOL0     C40585   2.288   5.506   8.736  0.2540  0.4818  0.8929
  295MOL0     C40586   2.407   5.447   8.665  0.1880  0.2723 -0.6727
  295MOL0     C40587   2.502   5.387   8.774 -0.2477  1.0807 -0.5720
  295MOL0     C40588   2.641   5.411   8.724 -1.1443 -0.0605 -0.5193
  295MOL0     N40589   2.740   5.336   8.812 -0.3058 -0.0256 -0.3080
  295MOL0     C40590   2.874   5.309   8.798 -0.1604 -0.1294  0.2454
  295MOL0     C40591   2.926   5.297   8.923 -0.4241  0.7093  0.3912
  295MOL0     C40592   3.071   5.268   8.936 -0.0593  0.0903 -0.2905
  295MOL0     C40593   3.133   5.347   9.054 -0.6528  0.5088  0.0373
  295MOL0     C40594   3.285   5.365   9.032 -0.1183  0.6440  1.0619
  295MOL0     C40595   3.350   5.458   9.135  0.5113 -0.5684  0.6296
  295MOL0     O40596   3.361   5.387   9.259 -0.3531 -0.2953  0.1578
  295MOL0     C40597   3.429   5.457   9.359 -0.2415  0.4972  0.8141
  295MOL0     C40598   3.450   5.598   9.369  0.0701  0.3958  0.3064
  295MOL0     C40599   3.526   5.659   9.472 -0.4767 -0.2025 -0.0185
  295MOL0     C40600   3.554   5.808   9.455 -0.0683  0.2480 -0.7885
  295MOL0     C40601   3.570   5.579   9.576 -0.6213 -0.6192 -1.4053
  295MOL0     C40602   3.651   5.632   9.680 -0.3832 -0.3968  0.8391
  295MOL0     O40603   3.773   5.677   9.627 -0.0647 -0.0407 -0.2016
  295MOL0     C40604   3.850   5.751   9.709 -0.4828  0.1133 -0.5335
  295MOL0     C40605   3.912   5.693   9.819  0.0547 -0.4710 -0.7793
  295MOL0     C40606   3.990   5.771   9.906  0.2866  0.4348  0.2259
  295MOL0     C40607   4.009   5.912   9.879 -0.6021  0.4343  1.2662
  295MOL0     O40608   4.103   5.971   9.962 -0.7075  0.0223  0.2164
  295MOL0     C40609   4.207   6.048   9.904 -0.5566  0.2454  0.2315
  295MOL0     C40610   4.300   6.073  10.020 -0.0346 -0.7407 -0.1923
  295MOL0     C40611   4.408   6.178   9.985 -0.0466 -1.0571 -0.8619
  295MOL0     C40612   4.498   6.198  10.112  0.0173 -0.2859 -0.5796
  295MOL0     C40613   4.602   6.302  10.087 -0.5471 -0.3250  0.4852
  295MOL0     C40614   4.717   6.294  10.192  0.3515 -0.2777  0.0552
  295MOL0     C40615   4.830   6.401  10.173 -0.2875 -0.4729 -0.2375
  295MOL0     C40616   4.950   6.375  10.272  0.9353 -0.3761 -0.3087
  295MOL0    Cl40617   5.080   6.299  10.196  0.0605 -0.2480  0.1226
  295MOL0     C40618   3.946   5.972   9.768  0.3745 -0.0469 -0.2875
  295MOL0     C40619   3.864   5.889   9.686 -0.1422 -0.3789 -0.0587
  295MOL0     O40620   3.622   5.594   9.795 -0.2274 -0.5486  0.0546
  295MOL0     C40621   3.547   5.441   9.579 -0.0175 -0.1517  0.4745
  295MOL0     C40622   3.474   5.384   9.468  0.6143  0.7807 -0.4795
  295MOL0     N40623   2.831   5.319   9.013  0.4070 -0.1395 -0.3278
  295MOL0     N40624   2.722   5.329   8.952  0.4467 -0.3147  0.1961
  295MOL0     C40625   1.606   5.538   8.958  0.3013 -0.2246  0.6670
  295MOL0     C40626   1.467   5.568   8.965  0.3204 -0.1756  0.0969
  295MOL0     C40627   1.010   5.562   8.918 -0.5073  1.0256  0.5413
  295MOL0     C40628   0.990   5.609   8.784  0.5999  0.1618  0.6413
  295MOL0     C40629   0.860   5.637   8.743  0.7671  0.7011 -0.0013
  295MOL0     C40630   0.750   5.637   8.832 -0.5143  1.4204 -0.3884
  295MOL0     O40631   0.627   5.675   8.794  0.4085  0.4803 -0.1181
  295MOL0     C40632   0.598   5.800   8.849  0.5585  0.0597 -0.4603
  295MOL0     C40633   0.453   5.832   8.837 -0.3662  0.9033 -0.1955
  295MOL0     C40634   0.404   5.930   8.954 -0.2912  0.1636  0.4567
  295MOL0     C40635   0.467   6.075   8.944  0.0392 -0.2244 -0.2750
  295MOL0     C40636   0.608   6.079   8.992  0.9139 -0.1281  0.3576
  295MOL0     C40637   0.722   6.063   9.043 -0.6679 -0.9124 -0.0701
  295MOL0     C40638   0.774   5.587   8.958  0.1994  0.0963 -0.2119
  295MOL0     C40639   0.892   5.534   9.004 -0.2457 -0.6726  0.0384
  295MOL0     C40640   0.915   5.475   9.142 -0.0177 -0.2912 -0.1480
  295MOL0     H40641   1.354   5.415   8.678  0.8944  2.3764 -1.4108
  295MOL0     H40642   1.579   5.350   8.668  3.1881 -0.1465 -1.2564
  295MOL0     H40643   1.812   5.291   9.012 -0.7404  0.4387  0.1179
  295MOL0     H40644   1.883   5.460   9.018  3.7343 -1.0934  0.2122
  295MOL0     H40645   2.055   5.312   9.002  0.5307 -0.4649 -0.6923
  295MOL0     H40646   2.002   5.247   8.845  1.3278 -0.6164  0.0144
  295MOL0     H40647   2.019   5.476   8.758  1.3813  1.1880 -0.1914
  295MOL0     H40648   2.067   5.527   8.912 -1.3775  1.8009 -1.6704
  295MOL0     H40649   2.263   5.346   8.890  1.9756 -0.4995 -1.3119
  295MOL0     H40650   2.207   5.295   8.737  1.9165 -2.1293  2.3587
  295MOL0     H40651   2.319   5.576   8.814  0.3013 -2.9820  4.2916
  295MOL0     H40652   2.229   5.556   8.658  0.1080  1.1211  1.4020
  295MOL0     H40653   2.377   5.377   8.587  1.4410  0.0359 -0.9682
  295MOL0     H40654   2.459   5.519   8.601  2.6135 -3.1482 -2.9235
  295MOL0     H40655   2.478   5.281   8.785 -0.7352  1.0827 -1.4708
  295MOL0     H40656   2.507   5.440   8.869  2.5231 -0.7555  0.4275
  295MOL0     H40657   2.645   5.381   8.619 -2.3276 -0.5097 -0.4590
  295MOL0     H40658   2.659   5.519   8.726 -0.8401 -0.0965  2.2833
  295MOL0     H40659   2.924   5.298   8.702  1.3624  0.6060  0.9262
  295MOL0     H40660   3.122   5.311   8.849 -2.6763  0.6629 -1.6609
  295MOL0     H40661   3.088   5.161   8.940 -1.3021 -0.2685 -2.7649
  295MOL0     H40662   3.088   5.447   9.060  1.6479  1.6376 -0.4775
  295MOL0     H40663   3.111   5.308   9.154  1.9986  2.4271  1.4760
  295MOL0     H40664   3.335   5.268   9.036 -2.3232 -0.8180 -2.1519
  295MOL0     H40665   3.298   5.411   8.933 -0.5243  2.7013  1.9254
  295MOL0     H40666   3.446   5.481   9.088 -1.1452  0.0835 -2.7300
  295MOL0     H40667   3.302   5.555   9.151 -0.2206 -1.0056  1.1404
  295MOL0     H40668   3.408   5.665   9.295 -0.0874 -0.4061 -0.3370
  295MOL0     H40669   3.655   5.822   9.414  0.6878  1.5381  1.3028
  295MOL0     H40670   3.564   5.853   9.555  2.3538  3.8989 -2.4315
  295MOL0     H40671   3.486   5.874   9.400  0.1601 -0.0230 -1.4031
  295MOL0     H40672   3.885   5.590   9.844 -0.6713 -0.3255 -0.9350
  295MOL0     H40673   4.055   5.731   9.983  1.3515  1.0727 -0.3196
  295MOL0     H40674   4.271   5.983   9.844 -1.4050 -0.7234  0.3388
  295MOL0     H40675   4.166   6.136   9.853  0.6069  0.2985 -0.6525
  295MOL0     H40676   4.243   6.112  10.105 -1.5266 -1.9397 -0.6027
  295MOL0     H40677   4.353   5.985  10.058  2.9788  0.1553 -1.9409
  295MOL0     H40678   4.356   6.268   9.952  0.5511 -0.2107  0.4021
  295MOL0     H40679   4.469   6.147   9.899 -0.2911  0.2774 -1.5314
  295MOL0     H40680   4.537   6.098  10.128 -1.8224 -0.8218  0.8996
  295MOL0     H40681   4.446   6.226  10.205  0.5193 -3.4994  0.8019
  295MOL0     H40682   4.641   6.289   9.985 -1.7878  2.0550 -0.3656
  295MOL0     H40683   4.544   6.395  10.094 -0.7216 -0.4557  0.7978
  295MOL0     H40684   4.767   6.197  10.178  0.3195 -0.5108  1.4074
  295MOL0     H40685   4.676   6.302  10.293  3.9293  1.8391  1.5495
  295MOL0     H40686   4.791   6.503  10.186  1.2472 -0.0670  1.6432
  295MOL0     H40687   4.875   6.393  10.074  1.7291 -0.7451  0.6545
  295MOL0     H40688   4.909   6.325  10.361  0.5771 -1.9683 -1.3261
  295MOL0     H40689   4.980   6.474  10.306  0.4938 -0.3881  0.1319
  295MOL0     H40690   3.958   6.078   9.750 -2.8407  0.3441 -0.6885
  295MOL0     H40691   3.828   5.935   9.594  2.7524 -1.0751 -1.6684
  295MOL0     H40692   3.584   5.391   9.668  1.1696  0.6560  0.4688
  295MOL0     H40693   3.461   5.276   9.472 -1.5202  1.0217  0.5258
  295MOL0     H40694   1.688   5.582   9.013 -1.1884  1.9548  1.2912
  295MOL0     H40695   1.426   5.630   9.044  0.1111 -2.8456  2.2326
  295MOL0     H40696   1.071   5.620   8.714  0.5259 -2.4028  0.0299
  295MOL0     H40697   0.848   5.660   8.637  1.5852  3.5639  0.4202
  295MOL0     H40698   0.625   5.798   8.955  1.7829 -4.1700 -0.6831
  295MOL0     H40699   0.657   5.875   8.795 -0.9976  0.8365 -1.1528
  295MOL0     H40700   0.389   5.743   8.830  1.8833 -0.9860  1.6244
  295MOL0     H40701   0.440   5.880   8.740 -1.4149  0.5662 -0.2427
  295MOL0     H40702   0.297   5.937   8.931 -0.0455  1.1762 -0.4310
  295MOL0     H40703   0.411   5.890   9.056 -2.8864  1.6144  1.2948
  295MOL0     H40704   0.409   6.125   9.022 -0.1618 -2.2881  0.9821
  295MOL0     H40705   0.468   6.135   8.853  0.3710 -1.5547 -1.1723
  295MOL0     H40706   0.817   6.054   9.093 -0.1458  0.6142 -0.7057
  295MOL0     H40707   0.690   5.594   9.025  0.5633  1.3195  0.1370
  295MOL0     H40708   0.833   5.505   9.207  0.8599  2.8922 -0.3597
  295MOL0     H40709   0.912   5.366   9.128 -0.3444 -0.3176  0.1276
  295MOL0     H40710   1.004   5.506   9.198  1.4619  2.1929 -3.5046
  296MOL0     O40711   0.406   6.703   7.903  0.2096 -1.1667  0.1503
  296MOL0     C40712   0.320   6.633   7.847 -0.1177 -0.9723  0.2837
  296MOL0     O40713   0.340   6.505   7.804  0.6121  0.4042  0.6834
  296MOL0     C40714   0.459   6.435   7.816 -0.0192 -0.6793  0.0738
  296MOL0     C40715   0.446   6.298   7.832 -0.2013 -0.4616  0.0971
  296MOL0     C40716   0.560   6.225   7.859 -0.9094  0.1802  0.0847
  296MOL0     C40717   0.691   6.288   7.882  0.8043 -0.0656  0.8308
  296MOL0     O40718   0.807   6.219   7.920 -0.2515  0.4109  1.1131
  296MOL0     C40719   0.836   6.093   7.857  1.0803 -0.3133 -0.3484
  296MOL0     C40720   0.938   6.020   7.946  0.6833 -0.1434 -0.0743
  296MOL0     C40721   0.959   5.873   7.881 -0.4809 -0.6816 -0.2939
  296MOL0     C40722   1.098   5.820   7.928  0.5961 -0.3716 -0.2253
  296MOL0     C40723   1.113   5.671   7.898 -0.3615 -0.1224 -0.2542
  296MOL0     C40724   1.235   5.599   7.948 -0.1422 -0.3325  1.0445
  296MOL0     C40725   1.371   5.678   7.927  1.3411 -0.6774  0.8174
  296MOL0     C40726   1.495   5.586   7.954  0.1573 -0.0225 -0.3856
  296MOL0     N40727   1.555   5.536   7.831  0.9349 -0.7765 -0.3013
  296MOL0     C40728   1.494   5.434   7.754 -0.3908  0.0765  1.4036
  296MOL0     C40729   1.592   5.399   7.667  0.6701 -0.3555 -0.1255
  296MOL0     C40730   1.560   5.312   7.555  0.0612 -0.0971  0.6975
  296MOL0     C40731   1.626   5.175   7.575 -0.5733  0.0134 -0.3057
  296MOL0     C40732   1.768   5.173   7.510  1.0045 -0.3990  0.7504
  296MOL0     C40733   1.851   5.044   7.526  0.6444 -0.5416  1.0221
  296MOL0     O40734   1.977   5.064   7.448  0.5049 -0.4659 -0.5272
  296MOL0     C40735   2.058   4.952   7.439 -1.0046  0.0215 -0.3403
  296MOL0     C40736   2.187   4.975   7.382 -0.0736  0.8046  0.9391
  296MOL0     C40737   2.285   4.878   7.368 -1.0115  0.2878  0.1210
  296MOL0     C40738   2.406   4.922   7.283  0.3403 -0.2143  0.0657
  296MOL0     C40739   2.265   4.749   7.430 -0.0325 -0.5431  1.0899
  296MOL0     C40740   2.361   4.639   7.436  0.2533 -0.0126  0.5442
  296MOL0     O40741   2.475   4.646   7.351 -0.0540  0.3055 -0.1370
  296MOL0     C40742   2.552   4.528   7.351 -0.4241  0.3327  0.0528
  296MOL0     C40743   2.576   4.451   7.238  0.4638  0.3826 -0.7254
  296MOL0     C40744   2.648   4.332   7.246 -1.3225 -0.5496  0.2001
  296MOL0     C40745   2.712   4.290   7.362  0.7908  1.0164 -0.1428
  296MOL0     O40746   2.795   4.185   7.357 -0.6148 -0.3595 -0.3098
  296MOL0     C40747   2.930   4.193   7.416  0.4589  0.4170  0.5141
  296MOL0     C40748   3.005   4.064   7.396  0.4368 -0.0980  0.2552
  296MOL0     C40749   3.144   4.074   7.461 -0.7623  0.4213  0.7009
  296MOL0     C40750   3.233   4.188   7.419  0.2589 -0.4030  0.4019
  296MOL0     C40751   3.366   4.176   7.489 -0.5136  0.2597  0.1163
  296MOL0     C40752   3.359   4.206   7.636 -0.1941  0.6471 -0.2623
  296MOL0     C40753   3.492   4.195   7.706  0.9110 -0.2170 -0.5148
  296MOL0     C40754   3.595   4.301   7.660 -0.2067 -0.3505 -0.1288
  296MOL0    Cl40755   3.538   4.465   7.690 -0.1330  0.0460 -0.4705
  296MOL0     C40756   2.683   4.362   7.478  0.2347  0.0034  0.1766
  296MOL0     C40757   2.614   4.483   7.468  0.1550 -0.3048  0.0402
  296MOL0     O40758   2.331   4.544   7.507 -0.2840 -0.3148  0.1883
  296MOL0     C40759   2.132   4.728   7.486 -0.3903  0.0975  0.6172
  296MOL0     C40760   2.032   4.823   7.480 -0.0974 -0.0993 -0.9891
  296MOL0     N40761   1.718   5.456   7.709  0.6047  0.0543  1.2717
  296MOL0     N40762   1.687   5.539   7.806 -0.2179 -0.0531 -0.4374
  296MOL0     C40763   0.701   6.429   7.865 -0.2391  0.4872 -0.7475
  296MOL0     C40764   0.583   6.502   7.824  0.0481  0.1825 -0.2209
  296MOL0     C40765   0.191   6.692   7.808 -0.7901 -0.6585  0.2766
  296MOL0     C40766   0.123   6.619   7.713  0.0009 -0.1569 -0.9025
  296MOL0     C40767   0.003   6.655   7.663 -0.1271 -0.4464 -0.9689
  296MOL0     C40768  -0.059   6.766   7.708  0.4082  0.0844  0.4206
  296MOL0     O40769  -0.178   6.801   7.649 -0.1675  0.1413  0.3459
  296MOL0     C40770  -0.284   6.875   7.714 -0.4410  0.3205  0.4361
  296MOL0     C40771  -0.421   6.835   7.667 -0.2157 -0.5294  1.1146
  296MOL0     C40772  -0.463   6.688   7.698  0.1608 -0.6693  0.4702
  296MOL0     C40773  -0.609   6.663   7.689 -0.1213  0.7201  0.2188
  296MOL0     C40774  -0.638   6.537   7.753 -0.6327  0.2695 -0.2597
  296MOL0     C40775  -0.647   6.431   7.806  0.3290  0.3400 -0.5247
  296MOL0     C40776   0.004   6.849   7.804  1.1863 -0.1584  0.2132
  296MOL0     C40777   0.132   6.814   7.846  0.7667 -0.0009  0.2107
  296MOL0     C40778   0.191   6.899   7.949 -0.4107  0.1092 -0.4505
  296MOL0     H40779   0.346   6.260   7.815 -1.2597  2.0671  0.1664
  296MOL0     H40780   0.547   6.117   7.859  0.0149 -0.0191  2.9050
  296MOL0     H40781   0.869   6.106   7.754 -0.0052  1.3709 -0.5122
  296MOL0     H40782   0.741   6.041   7.853  0.9540 -0.5016  2.7562
  296MOL0     H40783   1.038   6.063   7.957  0.8768  0.1986 -2.6146
  296MOL0     H40784   0.900   6.021   8.048 -0.6493 -0.2771 -0.5525
  296MOL0     H40785   0.880   5.801   7.903 -0.4160 -0.5355  0.4725
  296MOL0     H40786   0.953   5.880   7.772 -2.9067  4.2309 -0.1541
  296MOL0     H40787   1.180   5.876   7.884  0.0916  0.6728  0.1332
  296MOL0     H40788   1.108   5.840   8.035  0.5961  0.6149 -0.4037
  296MOL0     H40789   1.114   5.651   7.790  0.5800  0.2502 -0.3237
  296MOL0     H40790   1.031   5.627   7.955 -0.8301  1.7456  0.5592
  296MOL0     H40791   1.229   5.576   8.055  0.4066  1.9025  1.6090
  296MOL0     H40792   1.248   5.506   7.893 -2.6228 -2.4323  3.6965
  296MOL0     H40793   1.366   5.768   7.989 -1.8092  1.2863 -1.9252
  296MOL0     H40794   1.377   5.701   7.820  1.4295 -1.3321  0.6780
  296MOL0     H40795   1.566   5.650   8.006  0.9869 -2.1867  1.3345
  296MOL0     H40796   1.481   5.507   8.029  1.4814 -0.0095 -0.0918
  296MOL0     H40797   1.389   5.406   7.744  0.0688 -0.8081 -3.2755
  296MOL0     H40798   1.581   5.364   7.462 -2.4949  1.5697  0.9661
  296MOL0     H40799   1.451   5.297   7.552 -0.0535  0.6529  0.9659
  296MOL0     H40800   1.625   5.133   7.676  2.4332 -0.7364 -0.5000
  296MOL0     H40801   1.580   5.098   7.512  3.2860 -0.5612 -2.7870
  296MOL0     H40802   1.746   5.198   7.405 -1.8269  1.3756  1.6373
  296MOL0     H40803   1.834   5.251   7.549  4.4958 -0.9614 -3.3421
  296MOL0     H40804   1.880   5.026   7.630  1.2469 -0.9552  0.7922
  296MOL0     H40805   1.785   4.967   7.487 -1.8470  2.1821 -0.5456
  296MOL0     H40806   2.205   5.070   7.332  0.3954  0.6789  0.8668
  296MOL0     H40807   2.419   5.031   7.286  2.0080 -0.3080  5.0808
  296MOL0     H40808   2.391   4.894   7.178 -0.0259 -2.2692  0.6235
  296MOL0     H40809   2.505   4.879   7.304  2.0003  1.1215 -4.0368
  296MOL0     H40810   2.532   4.475   7.142  1.3648 -5.1361 -2.8824
  296MOL0     H40811   2.651   4.273   7.155 -0.6412 -2.0082  1.1320
  296MOL0     H40812   2.980   4.278   7.369  0.5945  0.2069  0.2744
  296MOL0     H40813   2.916   4.210   7.523  0.8552  0.2704  0.5918
  296MOL0     H40814   2.955   3.980   7.446 -0.5353 -1.0112 -2.1012
  296MOL0     H40815   3.021   4.039   7.291 -1.0301  0.5910 -0.1441
  296MOL0     H40816   3.209   3.989   7.437  2.4505  3.0163 -0.4652
  296MOL0     H40817   3.123   4.065   7.568  0.8736 -0.6415  0.9618
  296MOL0     H40818   3.178   4.279   7.443  0.8653  0.1270 -0.1801
  296MOL0     H40819   3.250   4.194   7.312 -0.9998 -1.4375  0.1161
  296MOL0     H40820   3.410   4.076   7.480 -0.9591 -0.0187  0.9577
  296MOL0     H40821   3.437   4.245   7.443  1.0602 -0.7730  0.8814
  296MOL0     H40822   3.292   4.132   7.681 -0.2761 -0.3017 -1.8854
  296MOL0     H40823   3.322   4.304   7.667 -0.2328  0.1692  1.2867
  296MOL0     H40824   3.538   4.097   7.687 -0.0923 -0.2293 -3.2277
  296MOL0     H40825   3.473   4.208   7.813  1.9201 -0.4253 -0.3026
  296MOL0     H40826   3.611   4.294   7.552 -1.4074  1.5891 -0.4774
  296MOL0     H40827   3.682   4.286   7.724 -0.1389  1.4927  0.2581
  296MOL0     H40828   2.725   4.317   7.567  0.0625  0.4237  0.4747
  296MOL0     H40829   2.595   4.551   7.550  1.6943  0.1298  0.0767
  296MOL0     H40830   2.102   4.648   7.553  0.1032 -1.9000 -1.4421
  296MOL0     H40831   1.947   4.798   7.544  1.5684  1.8418  2.2548
  296MOL0     H40832   0.793   6.485   7.861  0.4141 -0.2930  1.3732
  296MOL0     H40833   0.598   6.609   7.815 -0.3492  0.5441  2.5856
  296MOL0     H40834   0.159   6.527   7.667  0.0322 -1.3354  1.3396
  296MOL0     H40835  -0.040   6.595   7.583 -0.6229 -1.6534  0.1535
  296MOL0     H40836  -0.268   6.867   7.822  0.0258  2.5598  0.5871
  296MOL0     H40837  -0.270   6.980   7.688  0.5378  0.7752  2.5661
  296MOL0     H40838  -0.431   6.851   7.559 -1.3960 -4.2801  0.5288
  296MOL0     H40839  -0.491   6.897   7.724 -0.9014 -1.7043  1.5739
  296MOL0     H40840  -0.416   6.606   7.642 -1.2635  0.3311 -2.3468
  296MOL0     H40841  -0.434   6.679   7.804 -3.5422 -0.8547  1.5849
  296MOL0     H40842  -0.648   6.655   7.587 -0.6472  0.0386  0.4642
  296MOL0     H40843  -0.668   6.735   7.747 -1.2978 -3.5449  5.0118
  296MOL0     H40844  -0.648   6.335   7.854 -0.4953  0.1120 -0.9721
  296MOL0     H40845  -0.051   6.936   7.840  0.0490  0.5416 -2.8704
  296MOL0     H40846   0.203   6.849   8.045 -1.1135  2.4795  0.9671
  296MOL0     H40847   0.294   6.929   7.929  0.4385 -2.0958  0.3387
  296MOL0     H40848   0.128   6.988   7.963 -0.3564 -0.1133  1.4625
  297MOL0     O40849   9.881   3.288   2.578 -0.8188  0.1056  0.4183
  297MOL0     C40850   9.937   3.346   2.672 -0.2803  0.2682 -0.2229
  297MOL0     O40851  10.004   3.461   2.658 -0.4341 -0.2001  0.1867
  297MOL0     C40852  10.027   3.501   2.528 -0.4058 -0.6031 -0.3051
  297MOL0     C40853   9.957   3.611   2.481  0.1062  1.6127 -0.7539
  297MOL0     C40854   9.977   3.638   2.346 -0.3043  0.3708 -0.6688
  297MOL0     C40855  10.075   3.571   2.257  0.8368  0.3047 -0.6819
  297MOL0     O40856  10.108   3.604   2.129  0.2905 -0.9085 -0.2952
  297MOL0     C40857  10.038   3.716   2.065 -0.0710 -0.4797 -0.6338
  297MOL0     C40858  10.129   3.777   1.954 -0.0908  0.1860 -0.3050
  297MOL0     C40859  10.278   3.793   2.007  0.3095  0.8117  0.0893
  297MOL0     C40860  10.367   3.681   1.944  0.9418 -1.1821 -0.4658
  297MOL0     C40861  10.496   3.669   2.021 -0.5078  0.7723  0.3237
  297MOL0     C40862  10.589   3.781   1.988  0.5566  0.5534  0.6005
  297MOL0     C40863  10.714   3.778   2.070 -1.0539  0.8828 -1.0801
  297MOL0     C40864  10.819   3.876   2.009 -0.0279 -0.3367 -0.4791
  297MOL0     N40865  10.773   4.018   2.010 -0.7170 -0.6450 -1.3324
  297MOL0     C40866  10.747   4.088   2.127 -0.1841 -0.2794  0.2064
  297MOL0     C40867  10.735   4.219   2.093  0.0984  0.2991 -0.3783
  297MOL0     C40868  10.730   4.327   2.186  1.2989 -0.0643 -1.2500
  297MOL0     C40869  10.860   4.403   2.193  1.0723 -0.2285  0.3506
  297MOL0     C40870  10.850   4.510   2.298 -0.7779 -0.0445 -0.3077
  297MOL0     C40871  10.985   4.581   2.312  0.6065  0.5728  0.0756
  297MOL0     O40872  10.995   4.684   2.219  0.0652  0.0525 -1.0022
  297MOL0     C40873  11.121   4.729   2.187  0.6338  0.1896  0.2444
  297MOL0     C40874  11.219   4.644   2.130  1.3856 -0.2083  0.0261
  297MOL0     C40875  11.350   4.683   2.105  0.5720 -0.3152  0.1438
  297MOL0     C40876  11.447   4.579   2.043  1.1642  0.1628 -0.5646
  297MOL0     C40877  11.391   4.806   2.143  0.1089 -1.0418 -0.2836
  297MOL0     C40878  11.526   4.864   2.116 -0.0745 -0.0297  0.5669
  297MOL0     O40879  11.587   4.941   2.218 -0.6014 -0.3916  0.3176
  297MOL0     C40880  11.698   5.010   2.175  0.4623 -0.4215 -0.7061
  297MOL0     C40881  11.702   5.094   2.056  0.0744  0.4501 -0.2078
  297MOL0     C40882  11.820   5.166   2.031  0.2275 -0.4839  0.3168
  297MOL0     C40883  11.934   5.151   2.112  0.1459 -1.0976 -0.4347
  297MOL0     O40884  12.049   5.223   2.095  0.0981  0.5905 -0.5335
  297MOL0     C40885  12.119   5.169   1.982  0.1288  0.1078 -0.4920
  297MOL0     C40886  12.225   5.270   1.932  0.0184  0.0561  0.0719
  297MOL0     C40887  12.184   5.416   1.920  0.8785 -0.1123  0.9377
  297MOL0     C40888  12.058   5.452   1.830 -0.4170 -0.0487 -0.8184
  297MOL0     C40889  12.071   5.419   1.678 -0.0751 -0.0252  0.0746
  297MOL0     C40890  11.983   5.501   1.590  0.5782  0.1260 -0.9227
  297MOL0     C40891  12.013   5.479   1.437 -0.7543 -0.3901 -0.0616
  297MOL0     C40892  11.887   5.503   1.358 -0.3792 -0.0087 -0.4306
  297MOL0    Cl40893  11.756   5.370   1.368  0.0510 -0.0015  0.6317
  297MOL0     C40894  11.918   5.063   2.219  0.1397  0.0293 -0.6778
  297MOL0     C40895  11.809   4.989   2.253  0.1406 -0.4700 -0.1529
  297MOL0     O40896  11.576   4.845   2.008  0.1158  0.0774  0.8112
  297MOL0     C40897  11.292   4.899   2.191 -0.0218 -0.1675  0.0020
  297MOL0     C40898  11.155   4.857   2.216 -0.1008 -0.2132 -0.0360
  297MOL0     N40899  10.747   4.222   1.951  0.3675  0.1085  0.1332
  297MOL0     N40900  10.765   4.103   1.904 -0.2379  0.1337  0.3032
  297MOL0     C40901  10.152   3.472   2.319 -0.4249 -0.5609 -0.3984
  297MOL0     C40902  10.135   3.444   2.452 -0.4686 -0.0396 -0.1137
  297MOL0     C40903   9.910   3.303   2.813 -0.4028  0.5797  0.7771
  297MOL0     C40904   9.948   3.373   2.922 -0.4696 -0.6131  0.3378
  297MOL0     C40905   9.919   3.346   3.053 -0.3319  0.3160  0.1913
  297MOL0     C40906   9.852   3.222   3.080 -0.1313  0.6817  0.7135
  297MOL0     O40907   9.810   3.173   3.200  0.4456 -0.0533 -0.1335
  297MOL0     C40908   9.839   3.244   3.326  0.1812 -0.6216 -0.0355
  297MOL0     C40909   9.743   3.356   3.377  0.1178 -0.2680  0.1275
  297MOL0     C40910   9.822   3.442   3.481 -0.3277 -0.8455  1.4353
  297MOL0     C40911   9.737   3.568   3.529 -0.1562  0.6839 -0.3158
  297MOL0     C40912   9.822   3.612   3.639 -0.0781 -0.8146  0.3251
  297MOL0     C40913   9.894   3.660   3.731  0.2468 -0.3802 -0.0012
  297MOL0     C40914   9.819   3.146   2.974  0.0430  0.5776  0.3794
  297MOL0     C40915   9.836   3.183   2.842  0.2590  0.6036 -0.1445
  297MOL0     C40916   9.784   3.085   2.737  0.5514 -0.1803  0.2057
  297MOL0     H40917   9.879   3.658   2.538  0.4522 -0.4548  1.5599
  297MOL0     H40918   9.922   3.725   2.313 -0.0773  1.4260  1.5857
  297MOL0     H40919  10.015   3.806   2.122 -2.7675 -0.0471 -2.2109
  297MOL0     H40920   9.933   3.700   2.037 -0.7099  4.1614 -1.7049
  297MOL0     H40921  10.128   3.714   1.865 -4.1942 -3.4591  1.9363
  297MOL0     H40922  10.082   3.868   1.915  0.8902 -0.3247 -2.8691
  297MOL0     H40923  10.309   3.894   1.977 -1.2343  1.1282 -0.5516
  297MOL0     H40924  10.283   3.791   2.117  1.3065  2.3722  0.1174
  297MOL0     H40925  10.304   3.591   1.948 -1.0909 -0.1335 -4.0379
  297MOL0     H40926  10.390   3.702   1.839  2.1020  2.9421  0.4423
  297MOL0     H40927  10.543   3.574   1.994 -0.3961  0.5552  1.2472
  297MOL0     H40928  10.482   3.670   2.129 -1.2883  1.7069  0.2305
  297MOL0     H40929  10.605   3.784   1.880  2.3450  2.0553  0.8623
  297MOL0     H40930  10.536   3.870   2.023  0.2115 -0.5870  3.2074
  297MOL0     H40931  10.749   3.675   2.079 -0.7758  0.7768 -2.9408
  297MOL0     H40932  10.689   3.812   2.171 -0.1833  0.5822 -0.7523
  297MOL0     H40933  10.904   3.872   2.078 -1.1861  0.8215  1.0947
  297MOL0     H40934  10.856   3.853   1.908  2.9862 -1.2992  0.7171
  297MOL0     H40935  10.762   4.056   2.229 -0.7154 -0.1150  0.3399
  297MOL0     H40936  10.693   4.290   2.283 -0.8664  2.6930 -0.8818
  297MOL0     H40937  10.652   4.400   2.163  0.4691  0.3468  2.2813
  297MOL0     H40938  10.935   4.330   2.226  0.9255 -0.8205 -0.5843
  297MOL0     H40939  10.901   4.431   2.095 -2.1935 -0.9026 -1.3267
  297MOL0     H40940  10.774   4.587   2.281 -2.8530 -1.8077  0.5842
  297MOL0     H40941  10.826   4.457   2.391 -2.1033 -2.6111 -2.0154
  297MOL0     H40942  11.000   4.633   2.407 -0.1283  0.9098  0.0143
  297MOL0     H40943  11.065   4.506   2.307  2.6127  2.4132  2.1638
  297MOL0     H40944  11.197   4.540   2.111 -1.2044  0.4914 -1.2800
  297MOL0     H40945  11.528   4.569   2.115  2.2852 -3.4940 -2.1000
  297MOL0     H40946  11.475   4.601   1.939  0.6539 -0.0299 -0.7490
  297MOL0     H40947  11.406   4.479   2.026 -0.0484  0.6138 -0.4152
  297MOL0     H40948  11.621   5.107   1.983 -2.8649 -0.6415  2.6180
  297MOL0     H40949  11.820   5.229   1.943 -2.5365 -1.0385 -0.1728
  297MOL0     H40950  12.162   5.073   2.012 -2.3775 -0.4293  1.6416
  297MOL0     H40951  12.049   5.147   1.901 -0.1329  0.1376 -0.2718
  297MOL0     H40952  12.304   5.261   2.007  1.5714  2.4895 -1.1840
  297MOL0     H40953  12.265   5.249   1.832 -1.6087  0.7415 -0.7603
  297MOL0     H40954  12.267   5.482   1.892  0.5124  0.3855  1.0319
  297MOL0     H40955  12.172   5.448   2.024  2.1377  2.8132  0.2882
  297MOL0     H40956  12.042   5.558   1.852  0.8103  0.2162 -1.1285
  297MOL0     H40957  11.975   5.399   1.877  1.0230 -0.4884  1.3597
  297MOL0     H40958  12.170   5.445   1.640 -0.4867  1.8025  0.1588
  297MOL0     H40959  12.046   5.314   1.660 -1.1804  0.4003 -1.0401
  297MOL0     H40960  11.985   5.608   1.614  1.5019  0.1169 -0.9445
  297MOL0     H40961  11.880   5.473   1.615 -0.5716  4.1906 -0.3989
  297MOL0     H40962  12.057   5.380   1.418  0.7671  0.4994 -1.3832
  297MOL0     H40963  12.090   5.551   1.408  0.4362 -1.5974 -0.0168
  297MOL0     H40964  11.924   5.511   1.255 -2.0878 -0.7987 -1.1540
  297MOL0     H40965  11.848   5.600   1.390  0.9695  0.3094  0.3034
  297MOL0     H40966  12.010   5.045   2.273  0.3496  0.0804 -1.0177
  297MOL0     H40967  11.815   4.912   2.329  1.3709 -0.7187 -0.4834
  297MOL0     H40968  11.309   5.004   2.215  0.0524 -0.6657  2.3349
  297MOL0     H40969  11.085   4.934   2.247  1.0352  0.7211  0.2536
  297MOL0     H40970  10.227   3.429   2.252 -0.0376 -1.0201  0.3196
  297MOL0     H40971  10.205   3.370   2.491  0.9431  1.3124  0.0007
  297MOL0     H40972  10.000   3.467   2.915 -0.9253 -0.2186  1.7958
  297MOL0     H40973   9.942   3.412   3.135  0.4032  0.9967 -0.5406
  297MOL0     H40974   9.841   3.162   3.398  2.2170  0.0778  0.7719
  297MOL0     H40975   9.940   3.284   3.336 -1.0023  2.2101  1.5200
  297MOL0     H40976   9.659   3.305   3.426 -2.7641  3.1243 -0.9056
  297MOL0     H40977   9.717   3.413   3.288 -0.9914 -0.1457  0.5232
  297MOL0     H40978   9.849   3.382   3.568 -3.3024 -1.9405  1.7502
  297MOL0     H40979   9.910   3.485   3.432 -1.9188  0.2706 -0.6438
  297MOL0     H40980   9.636   3.535   3.554  0.4589  0.2355  1.8014
  297MOL0     H40981   9.723   3.652   3.460 -3.5688  0.7910  0.3145
  297MOL0     H40982   9.968   3.708   3.793  0.6070 -0.1621 -0.5897
  297MOL0     H40983   9.776   3.050   3.003 -2.9402  1.9659  0.9696
  297MOL0     H40984   9.856   3.072   2.656  1.6069 -0.4007  1.1529
  297MOL0     H40985   9.765   2.984   2.775  1.6908 -0.5026 -0.0474
  297MOL0     H40986   9.691   3.124   2.696  1.2626 -0.0233 -1.3211
  298MOL0     O40987  11.285   1.590   9.612 -0.5137  0.5286 -0.6133
  298MOL0     C40988  11.324   1.473   9.586  0.1813  0.8175  0.3126
  298MOL0     O40989  11.242   1.362   9.570  1.3352 -0.2618  0.1266
  298MOL0     C40990  11.110   1.397   9.560 -0.5393  0.4717 -0.0616
  298MOL0     C40991  11.051   1.363   9.443 -0.1263 -0.9670  1.0886
  298MOL0     C40992  10.913   1.380   9.426  0.7182 -0.5654  0.1500
  298MOL0     C40993  10.836   1.427   9.534  0.8399  1.1389  0.0405
  298MOL0     O40994  10.696   1.454   9.518  0.2161  0.2769  0.6284
  298MOL0     C40995  10.619   1.509   9.621  0.1763 -0.2104  0.7460
  298MOL0     C40996  10.471   1.531   9.594 -0.6946 -0.0710 -0.2744
  298MOL0     C40997  10.447   1.640   9.494  0.0152  0.4775  0.3169
  298MOL0     C40998  10.299   1.637   9.459  0.0738  0.0901 -0.2202
  298MOL0     C40999  10.217   1.742   9.536  0.5550 -0.2829  0.2162
  298MOL0     C41000  10.069   1.736   9.490  0.2229 -0.7074 -0.6379
  298MOL0     C41001   9.980   1.820   9.575  0.0260  0.6152 -0.2937
  298MOL0     C41002   9.830   1.814   9.518 -0.3149  0.4554  0.4956
  298MOL0     N41003   9.770   1.679   9.524  0.0893  0.4712 -0.0168
  298MOL0     C41004   9.784   1.588   9.420  0.4073 -0.6986  0.2379
  298MOL0     C41005   9.760   1.464   9.475  0.0093 -0.2475 -0.6273
  298MOL0     C41006   9.777   1.329   9.422 -0.2314 -0.3051 -0.2068
  298MOL0     C41007   9.919   1.266   9.415  0.9124 -0.6791 -0.3350
  298MOL0     C41008  10.023   1.329   9.313 -0.1569  0.3519  0.0736
  298MOL0     C41009   9.969   1.377   9.173 -0.2599 -0.4122  0.5471
  298MOL0     O41010   9.890   1.284   9.102  0.5169 -0.1273  0.3121
  298MOL0     C41011   9.960   1.166   9.088 -0.6931  0.6066 -0.3077
  298MOL0     C41012   9.913   1.043   9.145 -0.0509  0.0200 -0.6404
  298MOL0     C41013   9.982   0.923   9.123  0.6155 -0.1183  0.9649
  298MOL0     C41014   9.911   0.789   9.169 -0.1575 -0.6352 -0.5171
  298MOL0     C41015  10.118   0.925   9.071  0.7829 -0.5913  0.2494
  298MOL0     C41016  10.211   0.805   9.070  0.6038  0.4703 -0.3993
  298MOL0     O41017  10.312   0.802   8.973  0.2376  0.4854  0.8250
  298MOL0     C41018  10.392   0.695   8.968  0.5030 -0.2089  0.0729
  298MOL0     C41019  10.529   0.720   8.944  0.5043  0.6573 -0.4933
  298MOL0     C41020  10.618   0.612   8.938 -0.3192  0.2948  0.6254
  298MOL0     C41021  10.575   0.479   8.963 -0.3320 -0.5084 -0.1342
  298MOL0     O41022  10.648   0.361   8.965 -0.2867 -0.6283 -0.1227
  298MOL0     C41023  10.794   0.370   8.960 -0.3473 -1.3025  0.4111
  298MOL0     C41024  10.867   0.239   8.940 -0.0253 -0.1812 -0.7604
  298MOL0     C41025  11.023   0.262   8.955 -0.0972  0.1586 -0.0027
  298MOL0     C41026  11.097   0.138   8.919  0.8031 -0.2359 -0.5586
  298MOL0     C41027  11.249   0.152   8.961  0.9841 -0.3625  0.3579
  298MOL0     C41028  11.311   0.017   8.919  0.6248  0.2600 -0.0795
  298MOL0     C41029  11.453  -0.009   8.975  0.4920 -0.6134  0.0717
  298MOL0     C41030  11.551   0.089   8.926 -0.0966  0.1350 -0.2391
  298MOL0    Cl41031  11.715   0.064   9.013 -0.4415 -0.1914  0.1532
  298MOL0     C41032  10.439   0.454   8.971 -0.6665 -0.4703 -1.1494
  298MOL0     C41033  10.348   0.562   8.979  0.4695  0.4981  0.1132
  298MOL0     O41034  10.195   0.728   9.160 -0.0724  0.1991  1.0034
  298MOL0     C41035  10.159   1.044   9.008 -0.3516  0.0117  0.0067
  298MOL0     C41036  10.078   1.161   9.015  0.4159 -0.0999  0.3174
  298MOL0     N41037   9.722   1.479   9.605  0.0368 -0.2308  0.7167
  298MOL0     N41038   9.723   1.613   9.625  0.1438  0.4026 -0.4007
  298MOL0     C41039  10.898   1.455   9.658  0.0089 -0.3765  0.5012
  298MOL0     C41040  11.038   1.443   9.669 -0.3323 -0.3630  0.5894
  298MOL0     C41041  11.470   1.450   9.547  0.0370  0.0452  0.4152
  298MOL0     C41042  11.496   1.346   9.453  0.1672 -1.0238  0.5707
  298MOL0     C41043  11.624   1.327   9.407  0.7972  0.3556 -0.2402
  298MOL0     C41044  11.730   1.406   9.456 -0.3543 -0.2002  0.1271
  298MOL0     O41045  11.862   1.390   9.414  0.1689 -0.4414 -0.4261
  298MOL0     C41046  11.908   1.332   9.296  0.4563  0.0107  0.4456
  298MOL0     C41047  12.030   1.393   9.223 -0.4071  0.4907 -0.1603
  298MOL0     C41048  12.133   1.456   9.325  0.2353  0.5887  0.0488
  298MOL0     C41049  12.260   1.370   9.341  0.3484  0.1405 -0.7890
  298MOL0     C41050  12.233   1.235   9.395 -0.5246 -0.3331  0.4436
  298MOL0     C41051  12.183   1.135   9.443 -0.7103  0.0589 -0.1416
  298MOL0     C41052  11.707   1.515   9.539  0.1503 -0.0561 -0.7382
  298MOL0     C41053  11.577   1.537   9.581 -0.4048  0.1723 -0.0926
  298MOL0     C41054  11.555   1.635   9.687 -0.1097  0.2132  0.1955
  298MOL0     H41055  11.110   1.332   9.358  0.7582  0.1040  1.2862
  298MOL0     H41056  10.851   1.371   9.337 -1.4707  0.7444  1.4500
  298MOL0     H41057  10.664   1.602   9.659 -1.3037  0.4160  1.0529
  298MOL0     H41058  10.613   1.443   9.708  0.2575  0.5525  1.3356
  298MOL0     H41059  10.429   1.434   9.565 -2.7496  0.4468  0.7574
  298MOL0     H41060  10.422   1.558   9.688  1.2703 -2.0137  1.4159
  298MOL0     H41061  10.472   1.740   9.529 -3.2715  2.0610 -1.4196
  298MOL0     H41062  10.508   1.622   9.405 -0.7983  1.4317 -0.4575
  298MOL0     H41063  10.291   1.659   9.352 -1.6875  0.8276  0.0316
  298MOL0     H41064  10.246   1.542   9.451  0.8413 -0.3246 -0.5424
  298MOL0     H41065  10.256   1.840   9.506  2.7398 -0.7268  1.4574
  298MOL0     H41066  10.233   1.727   9.643  1.8292  2.0328  0.4128
  298MOL0     H41067  10.062   1.775   9.388  0.0060 -1.2493 -0.8376
  298MOL0     H41068  10.031   1.633   9.492 -0.9182 -0.3182 -1.1030
  298MOL0     H41069  10.014   1.922   9.557  0.8716  0.4722  0.3901
  298MOL0     H41070   9.984   1.795   9.682  0.6416 -1.3814 -0.7412
  298MOL0     H41071   9.762   1.868   9.584 -2.4749 -2.3755  0.7872
  298MOL0     H41072   9.815   1.853   9.417 -1.9807  0.5915  0.7696
  298MOL0     H41073   9.828   1.600   9.321  1.3563 -2.0262  0.4697
  298MOL0     H41074   9.747   1.337   9.317 -1.2169  1.2600  0.1737
  298MOL0     H41075   9.709   1.264   9.478  0.1891 -2.2313 -1.8111
  298MOL0     H41076   9.967   1.272   9.513  0.1397 -2.2377  0.1752
  298MOL0     H41077   9.913   1.157   9.402  0.9510 -1.1987  2.9886
  298MOL0     H41078  10.055   1.421   9.364 -1.9027  0.4010  1.1529
  298MOL0     H41079  10.109   1.263   9.307  0.2937  0.9717 -0.4997
  298MOL0     H41080   9.914   1.471   9.176 -1.0852 -0.5469 -3.8590
  298MOL0     H41081  10.055   1.411   9.116 -0.6497 -0.1473  0.1095
  298MOL0     H41082   9.814   1.044   9.188 -0.3198 -0.1611 -1.2471
  298MOL0     H41083   9.893   0.710   9.096 -2.4934 -1.4270  0.8053
  298MOL0     H41084   9.805   0.813   9.188 -0.3103 -0.5605 -1.4095
  298MOL0     H41085   9.963   0.746   9.255 -1.8928 -3.1516 -0.6305
  298MOL0     H41086  10.557   0.824   8.931 -0.7523  1.1339  0.4937
  298MOL0     H41087  10.726   0.619   8.932  0.2202 -3.3998  2.7191
  298MOL0     H41088  10.822   0.435   8.877  2.6600  1.5587  3.3946
  298MOL0     H41089  10.835   0.419   9.049 -2.0873  1.3226 -0.1274
  298MOL0     H41090  10.834   0.169   9.017  2.1102 -1.8387 -1.2414
  298MOL0     H41091  10.840   0.199   8.842 -1.3219  0.8120 -0.8387
  298MOL0     H41092  11.037   0.273   9.063  1.0292  1.8749 -0.2761
  298MOL0     H41093  11.067   0.350   8.907  0.1778  0.8892  1.5500
  298MOL0     H41094  11.093   0.116   8.812  1.2027  0.1267 -0.6487
  298MOL0     H41095  11.045   0.065   8.982  1.4391 -1.6803 -1.6476
  298MOL0     H41096  11.295   0.235   8.905  1.5933 -0.5110  0.6251
  298MOL0     H41097  11.257   0.162   9.069  0.4524 -1.7379  0.5392
  298MOL0     H41098  11.323   0.003   8.811  1.4193 -0.5075  0.0912
  298MOL0     H41099  11.254  -0.065   8.963  2.0332 -1.9243 -2.0271
  298MOL0     H41100  11.497  -0.105   8.943  0.4086 -0.2602 -1.1750
  298MOL0     H41101  11.443  -0.005   9.083  0.3989  1.1067  0.0216
  298MOL0     H41102  11.526   0.194   8.944 -0.4581  0.3966 -2.1067
  298MOL0     H41103  11.564   0.067   8.820  1.2346 -1.7384  0.2504
  298MOL0     H41104  10.400   0.355   8.990 -0.4336 -0.1209  1.4724
  298MOL0     H41105  10.246   0.529   8.994  1.4203 -1.6758  2.5831
  298MOL0     H41106  10.252   1.062   8.956 -1.1463  2.2815 -0.7678
  298MOL0     H41107  10.110   1.247   8.957 -0.0304 -2.4220 -3.7944
  298MOL0     H41108  10.845   1.491   9.746  1.1394  2.2236  0.2303
  298MOL0     H41109  11.074   1.445   9.772  0.6274  0.6738  0.2634
  298MOL0     H41110  11.422   1.274   9.418 -0.9791  0.5617 -0.3823
  298MOL0     H41111  11.646   1.255   9.329 -0.7839  0.0035 -0.3974
  298MOL0     H41112  11.930   1.227   9.317 -3.6854 -1.1985 -0.3427
  298MOL0     H41113  11.825   1.329   9.225  0.2108  0.7600  0.6926
  298MOL0     H41114  12.002   1.487   9.175 -0.4666  1.1503  1.1207
  298MOL0     H41115  12.083   1.326   9.155  0.1869 -1.3472  1.9805
  298MOL0     H41116  12.165   1.552   9.284  0.9201 -0.1361 -1.1373
  298MOL0     H41117  12.088   1.469   9.425 -2.1364  3.1807 -1.2008
  298MOL0     H41118  12.330   1.412   9.413  0.8262 -1.0421 -0.5392
  298MOL0     H41119  12.299   1.366   9.239 -0.3457  5.9183 -1.5984
  298MOL0     H41120  12.140   1.049   9.489  4.0940 -2.1651  0.8824
  298MOL0     H41121  11.789   1.574   9.578  0.4783 -1.3210  0.5753
  298MOL0     H41122  11.487   1.713   9.651 -0.0982 -0.0096 -0.3218
  298MOL0     H41123  11.510   1.600   9.781  3.7675 -1.4336  1.6573
  298MOL0     H41124  11.648   1.689   9.706  0.3158 -0.1598 -0.7905
  299MOL0     O41125   9.988   9.719   1.958 -0.0665 -0.0145 -0.0555
  299MOL0     C41126  10.014   9.824   2.017  0.4541 -0.4607  0.5813
  299MOL0     O41127  10.116   9.901   1.993 -0.2125  0.3091 -0.6603
  299MOL0     C41128  10.208   9.874   1.896  0.2296  0.2767 -0.3820
  299MOL0     C41129  10.334   9.907   1.933 -0.7363 -0.7795  0.6784
  299MOL0     C41130  10.437   9.907   1.834  0.0542  0.4737 -0.4984
  299MOL0     C41131  10.408   9.859   1.708  0.4460  0.1208  0.4489
  299MOL0     O41132  10.510   9.855   1.618 -0.0033 -0.6665 -0.0466
  299MOL0     C41133  10.514   9.752   1.516  0.1418  0.8180 -0.1515
  299MOL0     C41134  10.649   9.709   1.474 -0.8259  0.5996 -0.0705
  299MOL0     C41135  10.751   9.813   1.507  0.3516  1.4225  0.2980
  299MOL0     C41136  10.887   9.777   1.466  0.2819  0.1074 -0.4703
  299MOL0     C41137  10.996   9.867   1.511 -0.6030 -0.2686  0.4481
  299MOL0     C41138  11.129   9.811   1.470  0.2716  0.4749 -0.3401
  299MOL0     C41139  11.248   9.901   1.518  0.0567  0.5480  0.2623
  299MOL0     C41140  11.372   9.858   1.437  0.3772  0.1812  0.4508
  299MOL0     N41141  11.482   9.967   1.441 -0.1338  1.0301 -0.0521
  299MOL0     C41142  11.512  10.039   1.550  0.4653 -0.2462 -0.0245
  299MOL0     C41143  11.613  10.118   1.504 -0.1297 -0.5028 -0.2614
  299MOL0     C41144  11.669  10.226   1.585  0.2856  0.2711 -0.0614
  299MOL0     C41145  11.752  10.174   1.706 -0.6697 -0.0190  0.0353
  299MOL0     C41146  11.838  10.042   1.675  0.1539 -0.5103  0.6467
  299MOL0     C41147  11.945  10.056   1.566 -0.4253  0.6127 -1.3950
  299MOL0     O41148  12.031  10.162   1.597 -1.1518 -0.5709 -0.1643
  299MOL0     C41149  12.158  10.128   1.638 -0.6285  0.1566 -0.5021
  299MOL0     C41150  12.184  10.130   1.778 -0.3535 -0.5117 -0.1448
  299MOL0     C41151  12.311  10.085   1.828  0.2489  0.2125 -0.7147
  299MOL0     C41152  12.336  10.111   1.974 -0.3422  0.0236  0.3062
  299MOL0     C41153  12.405  10.038   1.738 -0.1119  0.4003 -0.3527
  299MOL0     C41154  12.540   9.975   1.769 -0.9538  0.1374 -0.4111
  299MOL0     O41155  12.643   9.984   1.673 -0.2364 -0.7784  0.2939
  299MOL0     C41156  12.769   9.958   1.707 -0.8602 -0.1085 -0.7114
  299MOL0     C41157  12.807   9.847   1.785  0.5220  1.0351 -0.3097
  299MOL0     C41158  12.943   9.814   1.805 -0.2469  0.9929  0.4433
  299MOL0     C41159  13.048   9.885   1.750 -0.0724 -0.6216 -0.3301
  299MOL0     O41160  13.184   9.871   1.774  0.5650 -0.2005  0.4850
  299MOL0     C41161  13.218   9.767   1.864 -0.6399 -0.1165 -0.5825
  299MOL0     C41162  13.367   9.779   1.881 -0.0411  0.2708  0.1110
  299MOL0     C41163  13.434   9.644   1.944  0.0025  0.2558  0.3335
  299MOL0     C41164  13.581   9.655   1.948  0.5271  0.0356  0.3728
  299MOL0     C41165  13.651   9.517   1.942  0.4771  0.4033  0.6417
  299MOL0     C41166  13.806   9.516   1.947 -0.6710  0.0902 -0.5857
  299MOL0     C41167  13.866   9.376   1.946 -0.5894 -0.6824 -0.6048
  299MOL0     C41168  14.002   9.359   2.003 -0.0064  1.2500  0.4462
  299MOL0    Cl41169  14.006   9.383   2.182  0.1447 -0.5037  0.3386
  299MOL0     C41170  13.007   9.998   1.676 -0.0768 -0.1166  0.4269
  299MOL0     C41171  12.874  10.030   1.653  0.1370 -0.8359 -0.4644
  299MOL0     O41172  12.563   9.946   1.885  0.1493 -0.3451 -0.1570
  299MOL0     C41173  12.378  10.038   1.596 -0.2205  1.0559 -0.7183
  299MOL0     C41174  12.252  10.083   1.547 -0.2292 -0.2004  0.7339
  299MOL0     N41175  11.627  10.095   1.373 -0.0389  0.1991  1.4152
  299MOL0     N41176  11.561   9.999   1.335  0.5592  0.4689 -0.5166
  299MOL0     C41177  10.277   9.828   1.671 -0.8840  0.1806 -0.3692
  299MOL0     C41178  10.176   9.843   1.767  0.3168 -0.0924 -0.6274
  299MOL0     C41179   9.911   9.862   2.123  0.0463  0.0453 -0.0053
  299MOL0     C41180   9.840   9.755   2.184  0.7297  0.0526  0.3983
  299MOL0     C41181   9.749   9.777   2.282  0.2541 -0.8854 -0.7906
  299MOL0     C41182   9.712   9.909   2.315 -0.2956 -0.5321 -0.0746
  299MOL0     O41183   9.613   9.928   2.411  0.3876  0.1064  0.0328
  299MOL0     C41184   9.625  10.039   2.504  0.1966  0.5806 -0.1388
  299MOL0     C41185   9.526  10.007   2.604  0.4832 -0.3373  0.1166
  299MOL0     C41186   9.515  10.109   2.717 -0.4419  0.4730 -0.6160
  299MOL0     C41187   9.398  10.214   2.702  0.9404  0.4071  0.2354
  299MOL0     C41188   9.264  10.154   2.693  0.9737  0.5405  0.3927
  299MOL0     C41189   9.145  10.130   2.683 -0.2563 -0.8128  0.3344
  299MOL0     C41190   9.780  10.017   2.252 -0.0382 -0.3129 -0.1083
  299MOL0     C41191   9.883  10.000   2.160 -0.1946 -0.0986 -0.6295
  299MOL0     C41192   9.958  10.120   2.114 -0.0946 -0.2399 -0.0836
  299MOL0     H41193  10.345   9.958   2.029 -1.3442  2.7026 -0.9326
  299MOL0     H41194  10.535   9.938   1.869  0.1309  2.3385 -2.2450
  299MOL0     H41195  10.473   9.792   1.423 -1.0280  0.0737  0.0154
  299MOL0     H41196  10.458   9.662   1.544  0.1045  1.3612  1.6656
  299MOL0     H41197  10.687   9.630   1.539  0.9290  1.1925 -0.3294
  299MOL0     H41198  10.651   9.678   1.369 -1.6916 -0.5574  0.2307
  299MOL0     H41199  10.726   9.905   1.454  0.8999  0.4637 -1.7005
  299MOL0     H41200  10.762   9.826   1.616  1.9553  1.6376  0.1351
  299MOL0     H41201  10.907   9.676   1.503 -0.7090  0.2290  0.4639
  299MOL0     H41202  10.879   9.768   1.357 -1.0925 -0.4155 -0.3437
  299MOL0     H41203  10.990   9.876   1.620  0.8818  0.5795  0.4917
  299MOL0     H41204  10.995   9.969   1.471  1.8283  0.9112  3.0551
  299MOL0     H41205  11.139   9.709   1.508 -2.0176  1.1918  2.5782
  299MOL0     H41206  11.122   9.806   1.361  0.0808  0.5543 -0.3319
  299MOL0     H41207  11.261   9.880   1.625  1.5423  0.7140  0.1400
  299MOL0     H41208  11.227  10.007   1.501  0.3076  0.4795 -0.4755
  299MOL0     H41209  11.403   9.765   1.484  0.9869  0.6251  0.9446
  299MOL0     H41210  11.348   9.843   1.332 -1.0703  1.3155  0.5693
  299MOL0     H41211  11.469  10.033   1.650  1.9841  4.0200  1.1108
  299MOL0     H41212  11.585  10.285   1.621  0.8715  1.2085 -0.1982
  299MOL0     H41213  11.727  10.299   1.527  2.6776 -1.9516 -0.6527
  299MOL0     H41214  11.813  10.260   1.736  0.6766 -1.4224  1.4563
  299MOL0     H41215  11.687  10.157   1.792 -0.2681 -2.5217 -0.0811
  299MOL0     H41216  11.885  10.007   1.768  0.4247 -1.5714  0.1237
  299MOL0     H41217  11.775   9.960   1.642  1.1696 -1.2551  0.5139
  299MOL0     H41218  11.993   9.959   1.551 -0.6344  0.0400  1.2330
  299MOL0     H41219  11.895  10.087   1.474 -1.3101  0.3423 -1.0140
  299MOL0     H41220  12.097  10.161   1.835 -0.7803  0.3729 -1.2399
  299MOL0     H41221  12.321  10.025   2.039 -0.5603 -0.6113 -0.5549
  299MOL0     H41222  12.267  10.191   2.001 -0.5684  1.0255 -2.8019
  299MOL0     H41223  12.439  10.144   1.990 -0.5825  0.8979  0.1028
  299MOL0     H41224  12.731   9.782   1.826  0.8303  1.9301  1.7774
  299MOL0     H41225  12.953   9.717   1.854 -0.2895  0.4688 -0.5426
  299MOL0     H41226  13.178   9.776   1.965 -1.5779  0.3468 -0.9852
  299MOL0     H41227  13.181   9.668   1.835 -2.3974  0.4412 -0.3275
  299MOL0     H41228  13.412   9.783   1.782  0.7569  1.5246  0.5160
  299MOL0     H41229  13.386   9.870   1.938 -0.6268 -0.3578  1.3653
  299MOL0     H41230  13.398   9.558   1.887 -1.8433  1.8207 -0.9981
  299MOL0     H41231  13.391   9.643   2.045  1.2295  2.0317  0.9159
  299MOL0     H41232  13.621   9.721   2.026  1.3030 -0.6883  0.6050
  299MOL0     H41233  13.615   9.707   1.857  0.0186 -2.1827 -1.1713
  299MOL0     H41234  13.627   9.439   2.014  3.1877 -0.2946  0.8757
  299MOL0     H41235  13.613   9.468   1.851  0.7018  2.1844 -0.4735
  299MOL0     H41236  13.844   9.565   2.037  1.5540 -0.3079 -1.2446
  299MOL0     H41237  13.830   9.581   1.863  0.3945  4.0762  2.5236
  299MOL0     H41238  13.874   9.357   1.839 -0.3216 -0.6471 -0.5921
  299MOL0     H41239  13.790   9.304   1.979 -1.0134 -1.1927 -2.5744
  299MOL0     H41240  14.064   9.445   1.976  0.2838  2.0189  3.2624
  299MOL0     H41241  14.049   9.262   1.980 -1.7920  0.2805  0.7038
  299MOL0     H41242  13.093  10.054   1.641  1.0946 -1.8512  0.4339
  299MOL0     H41243  12.849  10.112   1.586  1.1974  0.4663  0.6633
  299MOL0     H41244  12.457  10.017   1.525 -0.2332  1.5975 -0.8958
  299MOL0     H41245  12.219  10.090   1.444  0.0003  2.2374  0.7548
  299MOL0     H41246  10.251   9.799   1.570 -0.7803  0.3644 -0.4497
  299MOL0     H41247  10.072   9.822   1.747  0.0710 -3.7750  3.1937
  299MOL0     H41248   9.871   9.652   2.169 -0.6390 -0.3067 -0.0613
  299MOL0     H41249   9.711   9.687   2.328 -2.4809  0.9620  0.8822
  299MOL0     H41250   9.718  10.038   2.562  0.2041 -1.1401 -0.1155
  299MOL0     H41251   9.626  10.135   2.453  1.1760  1.3733  1.2958
  299MOL0     H41252   9.557   9.912   2.648  1.3009  0.8618  2.3062
  299MOL0     H41253   9.425   9.991   2.566  0.4053  1.3647 -0.4790
  299MOL0     H41254   9.491  10.058   2.811 -2.0551 -1.9305 -2.2052
  299MOL0     H41255   9.611  10.161   2.725 -0.1941 -0.2742  2.6036
  299MOL0     H41256   9.417  10.262   2.605 -1.6655  0.5803 -0.2612
  299MOL0     H41257   9.399  10.283   2.786 -1.4697 -0.1706  0.8180
  299MOL0     H41258   9.046  10.090   2.686 -0.9286  0.8604  1.9909
  299MOL0     H41259   9.761  10.117   2.291 -1.0248 -0.6793  0.3851
  299MOL0     H41260   9.988  10.116   2.009  0.2763  4.3892 -0.3518
  299MOL0     H41261   9.894  10.208   2.128 -0.8768 -1.1157  2.4666
  299MOL0     H41262  10.049  10.123   2.175  0.2871  2.5634 -0.6329
  300MOL0     O41263   8.326  10.591   4.612  0.2308  0.6164  0.5908
  300MOL0     C41264   8.322  10.713   4.591 -0.8427  0.1867  0.4072
  300MOL0     O41265   8.420  10.789   4.574  0.0261  0.1277 -0.0973
  300MOL0     C41266   8.547  10.734   4.559 -0.4084 -0.0704  0.7694
  300MOL0     C41267   8.621  10.674   4.665  0.8597 -0.0158  0.3088
  300MOL0     C41268   8.750  10.625   4.647  0.1232 -0.9848  0.4492
  300MOL0     C41269   8.812  10.632   4.529 -1.1172 -0.0845 -0.2254
  300MOL0     O41270   8.934  10.571   4.504 -0.0001 -0.7294  0.0167
  300MOL0     C41271   8.989  10.534   4.372 -0.5325 -0.4521 -0.0693
  300MOL0     C41272   9.129  10.479   4.370  0.8588  0.5015  0.1759
  300MOL0     C41273   9.164  10.365   4.466  0.6784 -0.2516 -0.5264
  300MOL0     C41274   9.193  10.417   4.604  0.5916  0.4656 -0.4364
  300MOL0     C41275   9.245  10.305   4.699  0.1352  0.3129 -0.0046
  300MOL0     C41276   9.261  10.347   4.840  0.0588  0.5955 -0.0963
  300MOL0     C41277   9.303  10.227   4.930 -0.2943  0.6962  1.0527
  300MOL0     C41278   9.364  10.271   5.056  0.0126  0.2536 -0.8294
  300MOL0     N41279   9.399  10.156   5.131 -0.4607  0.0883  0.3758
  300MOL0     C41280   9.526  10.107   5.164  0.1324 -0.3346  0.0776
  300MOL0     C41281   9.498   9.998   5.244  0.2285 -0.4338  0.4976
  300MOL0     C41282   9.594   9.897   5.292  1.0943 -0.2593 -0.0971
  300MOL0     C41283   9.643   9.934   5.430  0.7379 -0.2762 -0.6004
  300MOL0     C41284   9.700   9.813   5.492 -0.1733 -0.1550 -0.1445
  300MOL0     C41285   9.755   9.851   5.633 -0.3390  0.6490 -0.5171
  300MOL0     O41286   9.807   9.734   5.703  0.6799 -0.3429 -0.3123
  300MOL0     C41287   9.938   9.738   5.745 -0.0061 -1.0053  1.4050
  300MOL0     C41288  10.017   9.618   5.746  1.2365 -0.3461 -1.2093
  300MOL0     C41289  10.145   9.617   5.797 -0.4459 -0.8541  0.6923
  300MOL0     C41290  10.218   9.488   5.789 -0.0893 -0.5314  0.2267
  300MOL0     C41291  10.198   9.735   5.862 -0.1659  0.0610  0.5653
  300MOL0     C41292  10.328   9.747   5.936  0.5751 -0.0811  1.1275
  300MOL0     O41293  10.370   9.875   5.958  0.1653 -0.3285  0.8945
  300MOL0     C41294  10.466   9.885   6.048  0.3446 -0.5107  0.5118
  300MOL0     C41295  10.589   9.922   6.004 -1.0535  0.2996  0.3823
  300MOL0     C41296  10.693   9.941   6.090 -0.7639 -0.0415 -0.2715
  300MOL0     C41297  10.672   9.915   6.225 -0.5342 -0.6966 -0.3852
  300MOL0     O41298  10.760   9.908   6.329 -0.2310 -1.0979 -0.5674
  300MOL0     C41299  10.903   9.909   6.300  0.6186  0.3294  0.1391
  300MOL0     C41300  10.982   9.848   6.417  0.0559 -0.6007 -0.0521
  300MOL0     C41301  11.132   9.840   6.387  0.7955 -0.6592 -0.0667
  300MOL0     C41302  11.225   9.822   6.512 -0.6942 -0.4721  0.1093
  300MOL0     C41303  11.376   9.791   6.462 -0.2703 -0.4129 -0.2306
  300MOL0     C41304  11.468   9.793   6.588 -0.6158 -0.2711  0.3023
  300MOL0     C41305  11.601   9.730   6.549 -1.1186  0.2093 -0.0481
  300MOL0     C41306  11.682   9.725   6.672 -0.0532  0.0656 -0.4192
  300MOL0    Cl41307  11.844   9.656   6.638 -0.0849 -0.2983 -0.7125
  300MOL0     C41308  10.545   9.893   6.276  0.2418 -0.4933 -0.2275
  300MOL0     C41309  10.438   9.883   6.185 -0.3709  1.0245 -0.8872
  300MOL0     O41310  10.382   9.646   5.979  0.1985 -0.0090  0.7306
  300MOL0     C41311  10.121   9.850   5.851  0.3815 -0.4702  0.5730
  300MOL0     C41312   9.998   9.857   5.797 -0.9310 -0.1133  0.3305
  300MOL0     N41313   9.365   9.993   5.261 -0.0115 -0.6458 -0.1757
  300MOL0     N41314   9.308  10.087   5.201  0.3736  0.2965  0.0073
  300MOL0     C41315   8.746  10.698   4.423 -0.0005  1.1603 -0.3178
  300MOL0     C41316   8.612  10.747   4.435  0.5698 -0.4234 -0.4804
  300MOL0     C41317   8.185  10.770   4.590 -0.7811 -0.6947 -0.1253
  300MOL0     C41318   8.163  10.894   4.533 -0.1894 -0.3885  0.2091
  300MOL0     C41319   8.041  10.951   4.499  0.5450 -0.4074 -0.3534
  300MOL0     C41320   7.927  10.885   4.554  0.7009 -0.1082 -1.0800
  300MOL0     O41321   7.794  10.919   4.537 -0.5024 -0.2936 -0.0013
  300MOL0     C41322   7.764  11.048   4.485  0.8116  0.3563  1.1993
  300MOL0     C41323   7.609  11.070   4.468  0.4611  0.0907 -0.8382
  300MOL0     C41324   7.531  10.983   4.364 -1.1164  0.6518 -0.1376
  300MOL0     C41325   7.509  11.043   4.238 -0.2615 -0.7364 -0.4907
  300MOL0     C41326   7.633  11.079   4.154  0.2147 -0.2698 -0.0625
  300MOL0     C41327   7.725  11.110   4.073 -0.3267 -0.1595 -0.1173
  300MOL0     C41328   7.948  10.766   4.621  0.4841  0.0647  0.7730
  300MOL0     C41329   8.070  10.705   4.634 -0.5434  0.2206  1.0962
  300MOL0     C41330   8.065  10.559   4.692 -0.6795 -0.1854  0.5815
  300MOL0     H41331   8.581  10.692   4.764 -0.1875 -0.0389 -0.0994
  300MOL0     H41332   8.797  10.575   4.730 -0.0150 -0.5860  0.7687
  300MOL0     H41333   8.982  10.611   4.295 -1.3893 -1.1950 -0.7637
  300MOL0     H41334   8.919  10.454   4.344 -0.7311  0.1645 -1.3623
  300MOL0     H41335   9.146  10.430   4.273  0.5292  0.0833  0.3238
  300MOL0     H41336   9.192  10.568   4.375 -1.6692  2.4480 -0.6625
  300MOL0     H41337   9.086  10.289   4.470  0.5126 -0.0481  0.6416
  300MOL0     H41338   9.255  10.317   4.428  0.5698 -1.9925  1.2553
  300MOL0     H41339   9.254  10.508   4.605 -0.0778  0.9180 -0.3077
  300MOL0     H41340   9.095  10.451   4.639  0.0423  1.0184 -2.3786
  300MOL0     H41341   9.345  10.270   4.671  0.7187  1.4065  0.6518
  300MOL0     H41342   9.187  10.213   4.690  1.6855 -0.6480 -0.7103
  300MOL0     H41343   9.323  10.436   4.849 -1.9014  2.0614 -0.2535
  300MOL0     H41344   9.171  10.390   4.886  1.4384  2.7900  0.7430
  300MOL0     H41345   9.375  10.165   4.875  0.4767  2.3276  0.1559
  300MOL0     H41346   9.219  10.167   4.967 -0.7156 -0.7104 -1.9059
  300MOL0     H41347   9.451  10.336   5.043 -0.4641  1.7345  2.3824
  300MOL0     H41348   9.282  10.321   5.108 -0.4336 -0.3488 -0.9417
  300MOL0     H41349   9.621  10.140   5.124  0.1668  1.2859  1.3962
  300MOL0     H41350   9.688   9.898   5.236  0.1201 -3.6410 -2.0432
  300MOL0     H41351   9.554   9.796   5.302  1.7702 -0.6203 -0.8443
  300MOL0     H41352   9.725  10.007   5.425  2.0931 -1.5003  1.9811
  300MOL0     H41353   9.558   9.980   5.481 -1.1418 -2.9303 -1.1234
  300MOL0     H41354   9.633   9.726   5.496  0.1991 -0.3979  2.4255
  300MOL0     H41355   9.793   9.788   5.441  0.3938 -0.9748  1.2417
  300MOL0     H41356   9.827   9.931   5.614 -0.7259  1.2326  0.4169
  300MOL0     H41357   9.676   9.896   5.693 -1.5096 -0.7157 -0.9735
  300MOL0     H41358   9.966   9.529   5.712 -4.1361  1.5533  0.7491
  300MOL0     H41359  10.148   9.414   5.749 -3.3345  1.8091  1.2440
  300MOL0     H41360  10.229   9.440   5.886 -0.1601 -2.1217 -0.5171
  300MOL0     H41361  10.307   9.501   5.726 -0.8128  2.2611 -0.3655
  300MOL0     H41362  10.599   9.904   5.897 -2.6072 -0.4116  0.3232
  300MOL0     H41363  10.795   9.960   6.059 -0.6926  0.0710  0.0257
  300MOL0     H41364  10.915   9.845   6.213  0.9131 -1.1051  1.1941
  300MOL0     H41365  10.928  10.013   6.276  1.1587 -0.0965 -1.2007
  300MOL0     H41366  10.979   9.920   6.500 -1.9901  0.2747 -0.8047
  300MOL0     H41367  10.929   9.757   6.446 -3.0800  0.7391 -1.1138
  300MOL0     H41368  11.165   9.917   6.317  2.9821  1.4716  3.0845
  300MOL0     H41369  11.141   9.753   6.321 -0.9050 -0.9124 -0.0229
  300MOL0     H41370  11.194   9.746   6.584  0.8552  0.0829  1.4390
  300MOL0     H41371  11.241   9.918   6.561  0.2011 -0.8346  0.5475
  300MOL0     H41372  11.387   9.701   6.401  1.3672  1.1482 -2.3957
  300MOL0     H41373  11.406   9.870   6.392 -0.9826 -0.3339 -0.4526
  300MOL0     H41374  11.432   9.723   6.664  1.0372  0.9664  2.3484
  300MOL0     H41375  11.478   9.896   6.625 -0.3336  0.3586 -1.4121
  300MOL0     H41376  11.663   9.788   6.480 -0.2385 -0.7974 -0.1354
  300MOL0     H41377  11.577   9.630   6.510 -2.3381  1.4167 -2.6530
  300MOL0     H41378  11.635   9.660   6.747  0.2440 -0.4260 -0.6471
  300MOL0     H41379  11.698   9.825   6.712  0.4279  0.9315 -2.6762
  300MOL0     H41380  10.524   9.868   6.379 -0.4174  0.0681 -0.2186
  300MOL0     H41381  10.338   9.865   6.224  0.7965 -0.5497  1.6300
  300MOL0     H41382  10.156   9.948   5.882 -2.6331  0.5359  1.1411
  300MOL0     H41383   9.934   9.944   5.809 -1.4168 -0.8069  3.4870
  300MOL0     H41384   8.791  10.701   4.324  1.5192  3.3928  0.3579
  300MOL0     H41385   8.563  10.790   4.348  2.1491  1.6747 -0.4068
  300MOL0     H41386   8.242  10.957   4.493 -1.5844  2.5150  1.7573
  300MOL0     H41387   8.040  11.038   4.434  1.9751  1.0131  1.3859
  300MOL0     H41388   7.809  11.113   4.561  0.8755  0.7931  0.7891
  300MOL0     H41389   7.808  11.061   4.386  2.8886 -1.9594  1.7318
  300MOL0     H41390   7.588  11.175   4.448 -2.1444  0.1838  1.6769
  300MOL0     H41391   7.567  11.052   4.567  4.9265 -0.7856  1.1332
  300MOL0     H41392   7.586  10.888   4.357 -1.0797  0.7013 -0.5640
  300MOL0     H41393   7.432  10.962   4.405 -1.5133  0.4402 -1.1799
  300MOL0     H41394   7.467  11.142   4.261 -0.4410 -0.8825 -0.1716
  300MOL0     H41395   7.431  10.994   4.179 -1.2108  0.3441 -0.1949
  300MOL0     H41396   7.798  11.125   3.997  0.1813  0.0861  0.4158
  300MOL0     H41397   7.864  10.708   4.660  0.9583 -0.1926  1.4274
  300MOL0     H41398   7.965  10.525   4.721 -0.8126  0.5631  1.0224
  300MOL0     H41399   8.117  10.486   4.629 -0.6685 -0.4971  0.9478
  300MOL0     H41400   8.111  10.574   4.790 -1.5965  1.8082  0.7514
  301MOL0     O41401   5.068  11.259   0.571 -0.8117  0.0382  1.0515
  301MOL0     C41402   5.146  11.328   0.508 -1.1682  0.8086 -0.5184
  301MOL0     O41403   5.119  11.448   0.458 -0.0735 -0.3920 -0.3773
  301MOL0     C41404   4.983  11.483   0.450  0.4846  0.5087  0.3256
  301MOL0     C41405   4.897  11.441   0.342  0.4102  0.2839  0.3338
  301MOL0     C41406   4.763  11.485   0.329  0.1751  0.4109 -0.4530
  301MOL0     C41407   4.707  11.569   0.432 -0.1555  0.6665 -0.3992
  301MOL0     O41408   4.576  11.604   0.443  0.2738 -0.0400  0.1178
  301MOL0     C41409   4.486  11.500   0.466  0.3611 -0.1616  0.2304
  301MOL0     C41410   4.356  11.552   0.409  0.6249 -0.5583 -0.7618
  301MOL0     C41411   4.313  11.681   0.474 -1.0195  0.4369 -0.6127
  301MOL0     C41412   4.182  11.713   0.405 -0.6312 -0.2924 -0.4599
  301MOL0     C41413   4.134  11.842   0.461 -0.3720  0.9486  0.5907
  301MOL0     C41414   4.004  11.885   0.386 -0.4581  0.1089  0.1388
  301MOL0     C41415   3.879  11.824   0.450  0.3518  0.5428  0.0575
  301MOL0     C41416   3.746  11.847   0.378  0.4539  0.0457  0.6180
  301MOL0     N41417   3.704  11.983   0.404  0.1030 -0.2645 -0.2340
  301MOL0     C41418   3.670  12.046   0.520 -0.2504 -0.2414 -0.8427
  301MOL0     C41419   3.614  12.167   0.490  0.5763  1.0655 -0.6365
  301MOL0     C41420   3.555  12.262   0.590  0.1746 -0.5941  0.0154
  301MOL0     C41421   3.659  12.327   0.689 -1.2073  1.3255 -0.0729
  301MOL0     C41422   3.707  12.223   0.791  0.1343 -0.2379  0.2536
  301MOL0     C41423   3.813  12.284   0.883  0.3512  0.5766  0.1224
  301MOL0     O41424   3.864  12.183   0.974 -0.3491 -0.0983 -0.2680
  301MOL0     C41425   3.989  12.146   0.965  0.4563  0.6822 -0.0306
  301MOL0     C41426   4.074  12.170   1.067 -0.4293  0.4365 -0.9850
  301MOL0     C41427   4.210  12.129   1.059  0.0617  0.2473  0.7161
  301MOL0     C41428   4.318  12.173   1.157  0.7368 -0.6911  0.1678
  301MOL0     C41429   4.254  12.054   0.942  0.2528  0.4070 -0.3946
  301MOL0     C41430   4.386  11.995   0.933  0.7370 -0.9843 -0.1708
  301MOL0     O41431   4.411  11.891   1.026  0.2767  0.3418 -0.2852
  301MOL0     C41432   4.541  11.851   1.043 -0.0449 -0.0580 -0.6084
  301MOL0     C41433   4.572  11.714   1.008  1.1435  0.4976  0.3900
  301MOL0     C41434   4.706  11.683   1.017 -0.6023 -0.1511  0.0076
  301MOL0     C41435   4.808  11.770   1.060 -0.1213  0.3078 -0.3435
  301MOL0     O41436   4.940  11.751   1.086 -0.0855  0.5032  0.3545
  301MOL0     C41437   4.987  11.620   1.055 -0.0375 -0.3758 -0.0504
  301MOL0     C41438   5.139  11.647   1.040  0.0500 -0.3280  0.5520
  301MOL0     C41439   5.158  11.717   0.900 -0.3742  0.3528  0.1384
  301MOL0     C41440   5.316  11.732   0.882  0.4962  0.6546 -0.5021
  301MOL0     C41441   5.367  11.609   0.804  0.0817 -0.2539  0.6728
  301MOL0     C41442   5.516  11.627   0.762 -0.9692 -0.0738  0.0939
  301MOL0     C41443   5.564  11.519   0.672 -0.0369 -0.2180  0.9616
  301MOL0     C41444   5.717  11.502   0.701 -0.2852 -0.7886  0.8604
  301MOL0    Cl41445   5.784  11.350   0.651  0.1342 -0.0185 -0.1548
  301MOL0     C41446   4.775  11.897   1.112 -0.4036  0.8357 -0.4149
  301MOL0     C41447   4.637  11.931   1.101  0.8055  1.0841 -0.4475
  301MOL0     O41448   4.461  12.041   0.848 -0.2056  0.4155  0.1947
  301MOL0     C41449   4.164  12.022   0.840  1.4111 -0.7217  0.4884
  301MOL0     C41450   4.032  12.065   0.856  0.9706 -0.0812  0.1857
  301MOL0     N41451   3.612  12.179   0.349 -0.5559 -0.3242  0.3320
  301MOL0     N41452   3.675  12.077   0.308 -0.1485  0.2338  0.0685
  301MOL0     C41453   4.793  11.609   0.541 -0.7191  0.1559  0.0297
  301MOL0     C41454   4.926  11.565   0.551  0.1627 -0.2754  0.3872
  301MOL0     C41455   5.285  11.270   0.479  0.3572  0.1126 -0.5844
  301MOL0     C41456   5.387  11.355   0.426  0.4289  0.6802  0.7220
  301MOL0     C41457   5.512  11.307   0.382  0.2732 -0.0619 -1.1336
  301MOL0     C41458   5.542  11.171   0.394  0.9143  0.6006 -0.0553
  301MOL0     O41459   5.666  11.134   0.350 -0.3315 -0.3510 -1.3782
  301MOL0     C41460   5.710  11.008   0.404  1.0030  0.4113  0.0371
  301MOL0     C41461   5.861  10.995   0.366 -1.2270  0.4148  0.3829
  301MOL0     C41462   5.954  11.109   0.426 -0.1238 -0.4101 -0.1264
  301MOL0     C41463   6.033  11.063   0.546 -0.3814 -0.9002 -0.6026
  301MOL0     C41464   6.127  11.163   0.587  0.3001  0.8420 -1.3934
  301MOL0     C41465   6.211  11.244   0.622  0.9196  0.1562 -0.4973
  301MOL0     C41466   5.448  11.093   0.467  0.0516 -0.5044  0.1556
  301MOL0     C41467   5.316  11.133   0.502 -0.0126 -0.0978 -0.0219
  301MOL0     C41468   5.227  11.033   0.569 -0.4443 -0.3423 -0.3212
  301MOL0     H41469   4.933  11.367   0.271  3.5231 -0.0630  2.0822
  301MOL0     H41470   4.699  11.446   0.251  1.8998 -0.8593 -1.2711
  301MOL0     H41471   4.476  11.480   0.573  0.4276  0.0165  0.2701
  301MOL0     H41472   4.520  11.407   0.420 -1.4680  0.1177 -1.8560
  301MOL0     H41473   4.373  11.565   0.302 -1.5294  1.2155 -0.9561
  301MOL0     H41474   4.282  11.473   0.425 -0.2723 -0.1843 -2.8446
  301MOL0     H41475   4.299  11.664   0.582  0.3772  2.5135 -0.0330
  301MOL0     H41476   4.387  11.758   0.455  1.5540 -1.5192  0.8460
  301MOL0     H41477   4.211  11.731   0.302  1.6260 -0.1408  0.1521
  301MOL0     H41478   4.115  11.627   0.411 -4.9806  2.7839  0.5581
  301MOL0     H41479   4.212  11.916   0.441 -0.3272  0.6874 -0.2613
  301MOL0     H41480   4.108  11.827   0.566 -0.2036  1.2840  0.6818
  301MOL0     H41481   3.990  11.993   0.391 -1.5503 -0.0584  1.4027
  301MOL0     H41482   4.014  11.857   0.281 -0.1893 -1.1386  0.4745
  301MOL0     H41483   3.869  11.852   0.555  0.5029 -1.4873  0.6650
  301MOL0     H41484   3.898  11.716   0.446 -0.6975  0.3593 -0.5826
  301MOL0     H41485   3.761  11.833   0.271 -1.7572  1.0668  0.1134
  301MOL0     H41486   3.678  11.770   0.415 -0.4946 -1.0044 -2.9439
  301MOL0     H41487   3.689  11.998   0.615 -0.6825 -0.9175 -1.0896
  301MOL0     H41488   3.469  12.210   0.634 -0.0623 -1.8186 -1.7984
  301MOL0     H41489   3.519  12.348   0.532  1.7850  1.4416  1.8677
  301MOL0     H41490   3.744  12.357   0.629 -1.0912 -0.4620 -0.8764
  301MOL0     H41491   3.599  12.404   0.739 -2.0055  1.1612 -0.7534
  301MOL0     H41492   3.628  12.182   0.854 -0.3351  2.4786  1.5615
  301MOL0     H41493   3.757  12.137   0.744 -2.1732 -2.0063  0.8643
  301MOL0     H41494   3.894  12.329   0.826 -0.1918  0.1940 -0.9758
  301MOL0     H41495   3.769  12.363   0.945 -1.1923 -0.3545  0.2702
  301MOL0     H41496   4.045  12.226   1.156 -0.8510 -0.4711 -0.5395
  301MOL0     H41497   4.373  12.255   1.109  1.9612 -1.2834  0.5376
  301MOL0     H41498   4.383  12.092   1.190 -0.2285 -1.0625  1.2311
  301MOL0     H41499   4.272  12.219   1.245  1.8318  0.9932 -0.1034
  301MOL0     H41500   4.497  11.641   0.980  2.1817 -0.4629  0.0015
  301MOL0     H41501   4.736  11.582   0.991  1.5700  0.4002  0.2372
  301MOL0     H41502   4.972  11.549   1.137  1.5592  0.0399  0.6289
  301MOL0     H41503   4.954  11.581   0.958  0.4160  1.0421 -0.8044
  301MOL0     H41504   5.166  11.707   1.127  0.3955 -0.6377  0.6591
  301MOL0     H41505   5.207  11.562   1.047  2.7202  1.8098  2.7719
  301MOL0     H41506   5.117  11.818   0.892 -0.6099  0.2380 -0.0728
  301MOL0     H41507   5.121  11.654   0.820 -0.7387 -0.6882  1.0975
  301MOL0     H41508   5.367  11.746   0.977  1.3114 -0.6027 -0.7277
  301MOL0     H41509   5.354  11.816   0.825  0.1824  1.7646  0.8684
  301MOL0     H41510   5.360  11.526   0.875  0.1187 -0.7927  0.0606
  301MOL0     H41511   5.308  11.579   0.717  0.9432  0.9355 -0.3609
  301MOL0     H41512   5.575  11.641   0.853  0.2541 -0.3295 -0.6469
  301MOL0     H41513   5.522  11.716   0.699  2.5342 -0.1491  0.1435
  301MOL0     H41514   5.554  11.542   0.566  1.9995 -0.2543  0.7201
  301MOL0     H41515   5.518  11.422   0.696  0.2410 -0.5817  0.0606
  301MOL0     H41516   5.739  11.507   0.808  2.4865  2.4930  0.3172
  301MOL0     H41517   5.767  11.586   0.651 -0.5347 -0.5075  1.0754
  301MOL0     H41518   4.852  11.963   1.151 -1.1855  0.4142  2.0047
  301MOL0     H41519   4.607  12.029   1.138  2.3075  0.9180  1.3917
  301MOL0     H41520   4.193  11.960   0.755  0.7429 -0.8485  0.3460
  301MOL0     H41521   3.959  12.026   0.785  2.2522  1.3965 -2.0683
  301MOL0     H41522   4.747  11.681   0.608 -2.5613  0.5890 -1.5976
  301MOL0     H41523   4.981  11.604   0.637  2.2532 -0.9244 -0.6029
  301MOL0     H41524   5.364  11.459   0.407 -3.0679  0.1233  1.2999
  301MOL0     H41525   5.588  11.378   0.351  0.1202 -0.9249 -3.7298
  301MOL0     H41526   5.696  10.998   0.512 -1.6662  0.2706 -0.2522
  301MOL0     H41527   5.654  10.924   0.362  1.3169 -0.8012  1.9241
  301MOL0     H41528   5.868  11.019   0.259 -2.9473  2.7686  0.7320
  301MOL0     H41529   5.908  10.898   0.383 -2.3133 -0.2183 -0.1167
  301MOL0     H41530   6.021  11.153   0.352  5.7214 -1.9259  3.6438
  301MOL0     H41531   5.883  11.187   0.456  1.9002  1.1235  0.8736
  301MOL0     H41532   6.077  10.967   0.520 -0.6593 -0.9032 -1.0651
  301MOL0     H41533   5.966  11.040   0.630  0.5738 -0.5292  0.2830
  301MOL0     H41534   6.291  11.312   0.642  2.5677 -2.0206  0.8670
  301MOL0     H41535   5.469  10.988   0.487  2.3944 -0.4089 -1.5086
  301MOL0     H41536   5.290  10.950   0.603  2.6367  0.8369 -2.7568
  301MOL0     H41537   5.179  11.078   0.657 -1.3153  1.3897 -1.6172
  301MOL0     H41538   5.139  11.002   0.513 -0.8879  1.0842 -0.4642
  302MOL0     O41539   5.724   3.691   8.779 -0.2511 -0.2715 -0.0690
  302MOL0     C41540   5.819   3.669   8.854 -0.0417 -0.1022  0.3757
  302MOL0     O41541   5.897   3.558   8.854 -0.0150 -0.0075 -0.1314
  302MOL0     C41542   5.827   3.443   8.822  0.2046 -0.0991  0.1917
  302MOL0     C41543   5.912   3.344   8.757  0.6988 -0.2127 -0.1477
  302MOL0     C41544   5.862   3.219   8.724  0.1531  0.1195 -0.6089
  302MOL0     C41545   5.727   3.187   8.751 -0.1665  0.2480  0.1578
  302MOL0     O41546   5.667   3.068   8.720  0.3000  0.0656  0.3237
  302MOL0     C41547   5.744   2.968   8.664 -1.3698  0.3506  0.1019
  302MOL0     C41548   5.785   2.874   8.778  0.0327  0.6045  0.7229
  302MOL0     C41549   5.683   2.835   8.884  0.2768  0.2206  0.9012
  302MOL0     C41550   5.582   2.737   8.831 -0.0835 -0.1158  0.4917
  302MOL0     C41551   5.458   2.712   8.914  0.2456  0.1176 -0.5788
  302MOL0     C41552   5.502   2.655   9.055 -1.1069 -0.5304 -0.1337
  302MOL0     C41553   5.397   2.604   9.153  0.3930  0.0345  0.1193
  302MOL0     C41554   5.317   2.704   9.239 -0.2079  0.6715  0.2239
  302MOL0     N41555   5.219   2.625   9.297  0.2174 -0.5663  0.4951
  302MOL0     C41556   5.243   2.532   9.402 -0.1261  0.2011 -0.2854
  302MOL0     C41557   5.119   2.498   9.456  0.3088 -0.3083  1.2754
  302MOL0     C41558   5.082   2.410   9.567 -0.8651 -0.4630  0.3530
  302MOL0     C41559   4.972   2.294   9.550 -0.0777  0.7341 -0.4415
  302MOL0     C41560   4.834   2.350   9.558 -0.0341 -0.0521 -0.4368
  302MOL0     C41561   4.730   2.239   9.516 -0.1893  0.2353 -0.4878
  302MOL0     O41562   4.603   2.301   9.483  0.4504 -0.0580 -0.7265
  302MOL0     C41563   4.495   2.222   9.462 -0.3116  0.2819 -0.0881
  302MOL0     C41564   4.491   2.080   9.480 -0.8160  0.5286 -0.5348
  302MOL0     C41565   4.388   1.991   9.451  0.1823  0.2159  0.3289
  302MOL0     C41566   4.395   1.840   9.482  0.3015  0.4124  0.8249
  302MOL0     C41567   4.266   2.051   9.398 -0.8566 -0.6845 -0.3460
  302MOL0     C41568   4.137   1.993   9.350  0.9723  0.2225  0.8096
  302MOL0     O41569   4.065   2.054   9.257  1.0456  0.0999 -0.2671
  302MOL0     C41570   3.935   2.004   9.227 -0.2472 -0.8554  0.3577
  302MOL0     C41571   3.825   2.037   9.303 -0.4985  0.5326  1.0091
  302MOL0     C41572   3.697   1.986   9.269  0.1302  0.5150  0.3497
  302MOL0     C41573   3.671   1.906   9.151  0.2144  0.3181  0.4579
  302MOL0     O41574   3.550   1.864   9.102  0.1425 -0.3632 -0.1356
  302MOL0     C41575   3.451   1.852   9.198 -0.3490 -0.4790  0.4385
  302MOL0     C41576   3.331   1.773   9.150 -0.0021 -0.2554  0.4368
  302MOL0     C41577   3.235   1.843   9.055 -0.3280  1.0103  0.5266
  302MOL0     C41578   3.111   1.905   9.137 -0.2909  0.7524  0.8522
  302MOL0     C41579   3.024   1.992   9.047 -0.0919  0.3926 -0.1121
  302MOL0     C41580   2.903   2.060   9.111 -0.2886  0.4963  0.8889
  302MOL0     C41581   2.936   2.143   9.232  0.1058  0.3679 -0.1431
  302MOL0     C41582   2.856   2.278   9.241  0.1024 -0.6642  0.4818
  302MOL0    Cl41583   2.874   2.342   9.402  0.2791  0.1720 -0.3187
  302MOL0     C41584   3.782   1.888   9.071 -0.4159 -0.0464  0.3046
  302MOL0     C41585   3.912   1.934   9.103 -0.6547 -0.0599 -0.1408
  302MOL0     O41586   4.108   1.884   9.392 -1.1076  0.0737 -0.4799
  302MOL0     C41587   4.267   2.193   9.385 -1.1781  0.6546  0.2879
  302MOL0     C41588   4.376   2.274   9.421  0.0599 -0.9581 -0.1972
  302MOL0     N41589   5.029   2.567   9.372 -0.5950  0.1216 -0.7358
  302MOL0     N41590   5.087   2.641   9.285 -0.1542 -0.3833  0.0718
  302MOL0     C41591   5.651   3.282   8.817  0.8655  0.3307 -0.3835
  302MOL0     C41592   5.694   3.406   8.844 -0.2287 -1.0304  0.1722
  302MOL0     C41593   5.849   3.768   8.964 -0.5966 -0.0431 -0.3496
  302MOL0     C41594   5.974   3.760   9.030 -0.5809  0.3174 -0.1469
  302MOL0     C41595   6.015   3.851   9.128 -0.1801 -0.4865 -0.0996
  302MOL0     C41596   5.934   3.956   9.164  0.2963  0.1331 -0.5966
  302MOL0     O41597   5.986   4.034   9.266  0.7439 -0.6408  1.1794
  302MOL0     C41598   5.997   3.971   9.393 -0.7447 -0.6160  0.3398
  302MOL0     C41599   5.860   3.945   9.461  0.3926 -0.5915  0.5184
  302MOL0     C41600   5.888   3.889   9.596 -0.3158  0.0995 -1.1877
  302MOL0     C41601   5.928   3.992   9.709  0.0504 -0.6987  0.3182
  302MOL0     C41602   5.911   3.923   9.835 -0.0382  0.2031  0.0880
  302MOL0     C41603   5.903   3.866   9.938  0.3490 -0.3868  0.3892
  302MOL0     C41604   5.811   3.968   9.096  0.7262  0.2269  0.0486
  302MOL0     C41605   5.767   3.873   8.996  0.1849 -0.4772 -0.4396
  302MOL0     C41606   5.628   3.885   8.951 -0.0695  0.4464  0.3795
  302MOL0     H41607   6.016   3.363   8.733  0.9759 -0.1414  1.0447
  302MOL0     H41608   5.931   3.147   8.682 -0.3625 -3.3573  3.7798
  302MOL0     H41609   5.831   3.005   8.608 -2.6423  2.2845 -0.7152
  302MOL0     H41610   5.683   2.913   8.592 -0.7916  1.2270 -1.0969
  302MOL0     H41611   5.839   2.789   8.735  0.4370  1.3524 -0.3196
  302MOL0     H41612   5.850   2.944   8.832  0.1298  0.7463  0.4266
  302MOL0     H41613   5.730   2.791   8.971  2.6158  0.6927 -0.0515
  302MOL0     H41614   5.631   2.928   8.909 -1.8537 -0.4281 -0.7371
  302MOL0     H41615   5.538   2.777   8.740 -2.4014 -0.7245  1.2663
  302MOL0     H41616   5.629   2.642   8.804 -2.9986 -1.8591  1.0790
  302MOL0     H41617   5.400   2.640   8.855 -3.0481  0.9338  1.4194
  302MOL0     H41618   5.402   2.804   8.933  2.6425  1.2337  1.6094
  302MOL0     H41619   5.580   2.580   9.044  2.5622  2.7470  1.2103
  302MOL0     H41620   5.557   2.739   9.097  0.9165 -1.3608 -1.0195
  302MOL0     H41621   5.461   2.534   9.207 -0.1875 -1.4451 -1.0641
  302MOL0     H41622   5.327   2.553   9.087 -0.7408  0.8458  0.6485
  302MOL0     H41623   5.371   2.753   9.319 -0.4374 -1.0170  1.4656
  302MOL0     H41624   5.261   2.782   9.187  0.3349  1.7112  1.1801
  302MOL0     H41625   5.337   2.487   9.433  0.4141  0.4153 -1.5558
  302MOL0     H41626   5.036   2.473   9.644 -2.4105 -0.9458 -0.1366
  302MOL0     H41627   5.176   2.370   9.605 -0.6400 -2.0933 -1.7875
  302MOL0     H41628   4.985   2.253   9.449  4.6226 -1.7734  0.9028
  302MOL0     H41629   4.971   2.208   9.617 -0.7719  0.6666 -0.5283
  302MOL0     H41630   4.819   2.382   9.661 -0.6115 -0.4213 -0.3992
  302MOL0     H41631   4.826   2.432   9.486  0.7102 -2.2361 -3.1952
  302MOL0     H41632   4.766   2.187   9.427 -0.0373  0.2928 -0.4594
  302MOL0     H41633   4.731   2.163   9.595  0.1629  1.5724  0.8465
  302MOL0     H41634   4.585   2.033   9.507 -1.0168  0.0981 -0.5768
  302MOL0     H41635   4.429   1.784   9.394 -0.4809  1.7828 -0.3907
  302MOL0     H41636   4.300   1.794   9.510  0.3159 -0.9132 -1.0853
  302MOL0     H41637   4.478   1.821   9.551  3.9049  0.1337 -3.1615
  302MOL0     H41638   3.841   2.096   9.392 -1.5069  0.1616  1.4404
  302MOL0     H41639   3.605   1.990   9.326 -0.0564 -1.8068  0.2902
  302MOL0     H41640   3.485   1.802   9.290 -1.5055 -0.7709  0.7212
  302MOL0     H41641   3.412   1.952   9.221  1.4892  0.3078  0.3128
  302MOL0     H41642   3.365   1.684   9.096 -2.7203 -0.8584 -0.4398
  302MOL0     H41643   3.268   1.738   9.233  0.8983 -0.0675  1.2249
  302MOL0     H41644   3.202   1.776   8.975  0.6076 -0.6931  1.4964
  302MOL0     H41645   3.281   1.932   9.011 -2.6489  1.7505 -0.5570
  302MOL0     H41646   3.148   1.974   9.213  1.0228 -0.0706  0.9886
  302MOL0     H41647   3.053   1.822   9.181 -0.6619  1.0585  0.9460
  302MOL0     H41648   3.089   2.071   9.010 -2.0269  2.0615 -0.1511
  302MOL0     H41649   2.986   1.935   8.962  0.5474  2.0716 -1.5890
  302MOL0     H41650   2.828   1.985   9.140 -0.6220  1.4720  2.7535
  302MOL0     H41651   2.852   2.123   9.038  1.4834  0.7451 -0.1749
  302MOL0     H41652   3.041   2.174   9.227  0.4109 -0.6757 -0.3565
  302MOL0     H41653   2.918   2.072   9.313 -3.2222  0.6920 -0.4802
  302MOL0     H41654   2.753   2.256   9.213 -0.0576  1.1124 -0.4583
  302MOL0     H41655   2.893   2.358   9.177 -3.9217  0.8592 -0.1958
  302MOL0     H41656   3.785   1.847   8.971  2.9524  1.2535 -0.2297
  302MOL0     H41657   4.005   1.928   9.049  1.2603  2.4840  2.6084
  302MOL0     H41658   4.178   2.234   9.340 -0.8803 -1.5754 -2.6107
  302MOL0     H41659   4.369   2.381   9.404  2.4813 -0.8297 -0.7249
  302MOL0     H41660   5.547   3.267   8.844  0.5731  2.7545  0.1337
  302MOL0     H41661   5.636   3.486   8.890  0.6037  0.1167 -0.7258
  302MOL0     H41662   6.042   3.676   9.026 -0.6536  0.2404  0.2328
  302MOL0     H41663   6.110   3.850   9.181  0.7917  2.2572 -1.5846
  302MOL0     H41664   6.058   3.880   9.397  1.7156  0.9590  0.6421
  302MOL0     H41665   6.048   4.047   9.452 -0.1000 -0.2037 -0.7090
  302MOL0     H41666   5.802   3.872   9.405 -1.0390  0.8994 -0.0204
  302MOL0     H41667   5.799   4.036   9.470  1.1954  0.3475 -2.3961
  302MOL0     H41668   5.798   3.837   9.631  0.1599  1.5386  2.6482
  302MOL0     H41669   5.969   3.816   9.601  2.4882  3.0321 -0.7937
  302MOL0     H41670   5.869   4.084   9.710  0.6064 -0.3240  2.1055
  302MOL0     H41671   6.033   4.018   9.691  0.3197  0.2636  2.9512
  302MOL0     H41672   5.903   3.814  10.032  1.3940 -1.7804 -0.3618
  302MOL0     H41673   5.736   4.037   9.133  0.2189 -0.5481  0.4675
  302MOL0     H41674   5.573   3.964   9.003  0.6958  3.4425 -2.9302
  302MOL0     H41675   5.627   3.924   8.848 -1.1917  0.7489  0.4841
  302MOL0     H41676   5.571   3.792   8.957  0.6519 -0.0660 -0.4428
  303MOL0     O41677   7.144   4.884   4.757  0.6178  0.1492 -0.0429
  303MOL0     C41678   7.033   4.885   4.815 -0.0388 -0.0183 -0.7215
  303MOL0     O41679   7.017   4.892   4.953  0.1586  0.3483  0.4281
  303MOL0     C41680   7.128   4.901   5.032  0.0678  0.5174  0.3294
  303MOL0     C41681   7.239   4.821   5.025  0.2714  0.9952  0.2703
  303MOL0     C41682   7.346   4.827   5.114 -0.2888 -0.2699  1.0372
  303MOL0     C41683   7.330   4.914   5.221 -0.1237 -0.7297 -0.3386
  303MOL0     O41684   7.426   4.903   5.317 -0.1457  0.3562  0.1519
  303MOL0     C41685   7.532   5.004   5.300  0.0955  0.9211  0.0643
  303MOL0     C41686   7.576   5.052   5.437 -0.4552  0.2821  0.2007
  303MOL0     C41687   7.683   5.149   5.410  0.5884 -0.0762  0.1244
  303MOL0     C41688   7.753   5.212   5.529  0.1708 -0.6048 -0.5180
  303MOL0     C41689   7.666   5.308   5.609  0.2806 -0.9736  0.7624
  303MOL0     C41690   7.729   5.375   5.726 -0.1632 -0.0309 -1.2590
  303MOL0     C41691   7.666   5.518   5.763 -0.0014 -0.4125 -0.0245
  303MOL0     C41692   7.523   5.502   5.821 -0.4335 -0.2126  0.3694
  303MOL0     N41693   7.521   5.439   5.952 -0.0319  0.1785  0.2838
  303MOL0     C41694   7.604   5.447   6.058 -0.4730 -0.5743  0.2697
  303MOL0     C41695   7.529   5.399   6.163 -0.8324 -0.7065  0.3254
  303MOL0     C41696   7.578   5.416   6.304 -0.5811  0.0246 -0.1395
  303MOL0     C41697   7.618   5.284   6.375  0.5634  0.2227 -0.0269
  303MOL0     C41698   7.744   5.221   6.313  0.7920  0.7294  0.0092
  303MOL0     C41699   7.784   5.092   6.391  0.3404 -0.2616  0.0558
  303MOL0     O41700   7.858   5.129   6.508  0.1277  0.7219 -0.2922
  303MOL0     C41701   7.988   5.177   6.496  0.7321 -0.4167  0.3942
  303MOL0     C41702   8.066   5.184   6.374  0.4219  0.8682  0.3335
  303MOL0     C41703   8.205   5.213   6.370 -0.1893 -0.1099  0.4478
  303MOL0     C41704   8.279   5.223   6.249 -0.2072 -0.2610  0.8971
  303MOL0     C41705   8.261   5.241   6.497 -0.8200 -1.1259  0.4439
  303MOL0     C41706   8.408   5.267   6.517  0.6445 -0.1420  0.8087
  303MOL0     O41707   8.438   5.390   6.570  0.0927  0.0173 -0.2597
  303MOL0     C41708   8.570   5.426   6.568  0.1233  0.5214  0.0682
  303MOL0     C41709   8.631   5.460   6.449 -0.7103 -1.0063  0.2681
  303MOL0     C41710   8.767   5.506   6.456 -0.3399  0.4179  1.1683
  303MOL0     C41711   8.844   5.486   6.575 -0.6120  0.2708  0.1146
  303MOL0     O41712   8.982   5.514   6.579  0.2955  0.6447 -0.7194
  303MOL0     C41713   9.058   5.485   6.457 -0.3425 -0.1707 -0.1682
  303MOL0     C41714   9.205   5.506   6.510 -0.3972 -0.2622  0.5443
  303MOL0     C41715   9.307   5.455   6.415 -0.1324  0.5644 -0.3133
  303MOL0     C41716   9.439   5.423   6.491  1.4861  0.3687 -0.0208
  303MOL0     C41717   9.531   5.363   6.395 -0.0746 -0.0062  0.0270
  303MOL0     C41718   9.660   5.324   6.469  0.0891 -0.2612  0.7021
  303MOL0     C41719   9.748   5.253   6.371  0.0539 -0.4497 -0.6870
  303MOL0     C41720   9.893   5.246   6.421 -0.8419 -0.3342  0.0258
  303MOL0    Cl41721   9.907   5.167   6.580  0.0534  0.1538  0.2654
  303MOL0     C41722   8.778   5.441   6.686 -0.5582 -0.0562 -0.0363
  303MOL0     C41723   8.642   5.416   6.683 -0.2759  0.5007 -0.0666
  303MOL0     O41724   8.485   5.184   6.472  0.0139  0.9595  0.2061
  303MOL0     C41725   8.190   5.224   6.615  0.9441 -0.0121 -0.2259
  303MOL0     C41726   8.055   5.196   6.616  0.5735 -1.2377 -0.4691
  303MOL0     N41727   7.408   5.352   6.115  0.4061  0.4591  0.0938
  303MOL0     N41728   7.413   5.370   5.987 -0.4671  0.2067 -0.0135
  303MOL0     C41729   7.214   4.991   5.244  0.0664  0.5410  0.4634
  303MOL0     C41730   7.116   4.985   5.145  1.9587  0.0952  0.1960
  303MOL0     C41731   6.920   4.841   4.735 -0.4142 -0.2279  0.1761
  303MOL0     C41732   6.793   4.830   4.804 -0.0648 -0.1479  0.1566
  303MOL0     C41733   6.679   4.794   4.729 -0.0788 -0.6943 -0.2167
  303MOL0     C41734   6.678   4.776   4.587  0.2474 -0.1578  0.5090
  303MOL0     O41735   6.557   4.763   4.529 -0.8070 -1.3362  0.8554
  303MOL0     C41736   6.549   4.767   4.389 -0.3384 -0.3236 -0.5140
  303MOL0     C41737   6.406   4.750   4.339 -0.3382 -0.4697 -0.0537
  303MOL0     C41738   6.302   4.860   4.397 -0.1081  0.0638 -0.9924
  303MOL0     C41739   6.151   4.819   4.382 -1.3696 -1.0585 -0.5397
  303MOL0     C41740   6.061   4.916   4.437 -0.2291 -0.8300 -0.6441
  303MOL0     C41741   5.991   4.992   4.497  0.0027  0.1481 -0.9411
  303MOL0     C41742   6.802   4.774   4.525 -0.3982  0.2284  0.0295
  303MOL0     C41743   6.919   4.814   4.592  0.2487 -0.6066 -0.0549
  303MOL0     C41744   7.039   4.803   4.492  0.4507 -1.0369 -0.4489
  303MOL0     H41745   7.236   4.753   4.941 -1.3301  1.7501 -0.3207
  303MOL0     H41746   7.439   4.771   5.101  0.1305  0.1618  2.0954
  303MOL0     H41747   7.501   5.086   5.233 -0.4541  1.2855  0.7436
  303MOL0     H41748   7.615   4.953   5.251  1.2698  2.0996  0.7450
  303MOL0     H41749   7.489   5.102   5.480  0.0375  0.4322  1.0363
  303MOL0     H41750   7.605   4.968   5.501 -1.2224 -0.8289 -0.8425
  303MOL0     H41751   7.759   5.098   5.351 -1.3856 -2.1704 -0.7314
  303MOL0     H41752   7.637   5.221   5.340  0.8868  2.1697  2.1039
  303MOL0     H41753   7.784   5.132   5.596 -0.3440 -0.5567 -0.2187
  303MOL0     H41754   7.837   5.276   5.499 -0.2406  0.2537  0.1248
  303MOL0     H41755   7.580   5.247   5.637 -0.0528 -0.8060  0.1113
  303MOL0     H41756   7.629   5.373   5.530  0.6167 -1.4366  0.2214
  303MOL0     H41757   7.733   5.304   5.810 -0.0485  1.3031 -0.0909
  303MOL0     H41758   7.834   5.396   5.703  0.3376  2.4305  2.4486
  303MOL0     H41759   7.661   5.580   5.673 -0.7904  0.4764  0.6095
  303MOL0     H41760   7.727   5.580   5.829  1.3109 -1.1699 -0.4879
  303MOL0     H41761   7.460   5.591   5.825 -0.0593  0.0605  0.2787
  303MOL0     H41762   7.457   5.451   5.752 -0.3075  2.9955 -2.3711
  303MOL0     H41763   7.697   5.503   6.064 -0.8158 -0.0437  0.7330
  303MOL0     H41764   7.494   5.461   6.358 -1.6250  0.4791 -2.0687
  303MOL0     H41765   7.665   5.482   6.298 -0.6256 -0.0376 -3.6717
  303MOL0     H41766   7.635   5.307   6.480  1.2409 -1.7425  0.3376
  303MOL0     H41767   7.532   5.217   6.366  1.5880 -0.9546 -2.0110
  303MOL0     H41768   7.714   5.204   6.209 -1.0687 -1.5572  0.8288
  303MOL0     H41769   7.817   5.300   6.331 -0.7405  1.9233  1.3388
  303MOL0     H41770   7.695   5.030   6.406 -1.9963  2.2883 -2.1879
  303MOL0     H41771   7.850   5.037   6.323 -2.0524 -2.5952 -0.5316
  303MOL0     H41772   8.025   5.157   6.277  1.9070  0.0707 -0.0941
  303MOL0     H41773   8.361   5.151   6.238 -1.0946 -1.1457 -0.1789
  303MOL0     H41774   8.314   5.326   6.237 -1.0371 -0.1683 -1.1249
  303MOL0     H41775   8.211   5.212   6.165  1.3426  0.6949 -0.5454
  303MOL0     H41776   8.568   5.460   6.361  1.0337 -0.2511 -1.0432
  303MOL0     H41777   8.817   5.542   6.367 -1.7862  4.1869  1.7169
  303MOL0     H41778   9.038   5.385   6.420  2.8725 -0.0552 -2.5564
  303MOL0     H41779   9.039   5.560   6.380  1.9015  2.1092  1.3236
  303MOL0     H41780   9.231   5.612   6.519  2.5087 -0.9957  1.7995
  303MOL0     H41781   9.229   5.457   6.604  2.5157 -1.0896 -0.5239
  303MOL0     H41782   9.331   5.523   6.333  2.1383  0.0490 -0.1645
  303MOL0     H41783   9.273   5.357   6.379 -0.6178  0.9800 -1.0084
  303MOL0     H41784   9.415   5.352   6.570  2.8636  1.0399  1.0431
  303MOL0     H41785   9.486   5.513   6.533  2.1191  0.6376 -1.2540
  303MOL0     H41786   9.482   5.269   6.369 -0.9606 -0.3507  2.5900
  303MOL0     H41787   9.545   5.412   6.298 -1.2951 -1.4961 -0.9388
  303MOL0     H41788   9.632   5.256   6.550 -0.6704  0.1087  0.7545
  303MOL0     H41789   9.725   5.408   6.498 -2.7839  3.0414 -1.5461
  303MOL0     H41790   9.739   5.312   6.279 -1.5991  3.2138  1.5552
  303MOL0     H41791   9.706   5.154   6.349 -2.0780  0.1796  0.2347
  303MOL0     H41792   9.937   5.347   6.426 -1.7032 -0.0035  1.4658
  303MOL0     H41793   9.949   5.187   6.348 -2.2767 -0.9166 -0.6315
  303MOL0     H41794   8.836   5.433   6.778  1.6354 -0.2275 -1.3574
  303MOL0     H41795   8.594   5.390   6.777  2.5306 -0.6497  1.1581
  303MOL0     H41796   8.248   5.253   6.703  1.1880  1.7401 -0.9227
  303MOL0     H41797   8.014   5.188   6.716  0.6689 -0.7011 -0.3879
  303MOL0     H41798   7.201   5.057   5.329  0.8310  1.2983  0.0096
  303MOL0     H41799   7.034   5.055   5.158  0.4792 -1.7868  1.6740
  303MOL0     H41800   6.783   4.847   4.910  1.8451 -2.5839  0.8104
  303MOL0     H41801   6.580   4.794   4.773  0.7636  0.8235  1.8651
  303MOL0     H41802   6.582   4.863   4.348  3.0674 -1.2939 -0.3176
  303MOL0     H41803   6.610   4.686   4.349 -0.5693 -2.1743  2.5132
  303MOL0     H41804   6.371   4.649   4.360  1.8664 -1.5481 -1.2884
  303MOL0     H41805   6.410   4.743   4.230  1.2583 -3.4406  0.0939
  303MOL0     H41806   6.342   4.877   4.497  0.9219 -1.0262 -1.2038
  303MOL0     H41807   6.312   4.948   4.333 -2.5362  0.5357 -0.8400
  303MOL0     H41808   6.143   4.724   4.435  0.3935 -0.4405  0.9319
  303MOL0     H41809   6.132   4.793   4.277  2.1258 -0.8837 -1.3340
  303MOL0     H41810   5.924   5.052   4.555  2.6306  1.8874  0.5471
  303MOL0     H41811   6.807   4.735   4.424 -1.4983  0.3862 -0.1003
  303MOL0     H41812   7.139   4.822   4.532  0.2451 -2.0860  0.6199
  303MOL0     H41813   7.043   4.702   4.449 -1.4078 -1.1654 -0.4149
  303MOL0     H41814   7.016   4.874   4.412 -0.7044 -2.3337 -1.3304
  304MOL0     O41815   2.414   7.869  11.010  1.3415  0.1595  0.3179
  304MOL0     C41816   2.426   7.865  10.890 -0.8570 -0.2433 -0.0480
  304MOL0     O41817   2.355   7.783  10.808 -0.2353 -0.3271 -0.1118
  304MOL0     C41818   2.251   7.712  10.859  0.2734 -0.1556 -0.5332
  304MOL0     C41819   2.271   7.581  10.895  0.0756  0.3283  0.4031
  304MOL0     C41820   2.163   7.510  10.943  0.2197  0.4005  0.4806
  304MOL0     C41821   2.033   7.565  10.942 -0.8983 -0.6994 -0.5216
  304MOL0     O41822   1.916   7.500  10.974  0.6848  0.6689 -0.5535
  304MOL0     C41823   1.901   7.377  10.891  0.0311 -0.0105 -0.0288
  304MOL0     C41824   1.754   7.343  10.896 -0.3971  0.1260  0.4389
  304MOL0     C41825   1.654   7.459  10.881  0.0415 -0.5277 -0.4695
  304MOL0     C41826   1.513   7.421  10.830  0.1235  0.3677 -0.3336
  304MOL0     C41827   1.399   7.505  10.895  0.5977 -0.0639  0.9012
  304MOL0     C41828   1.279   7.499  10.811  0.1196 -0.6179  0.1162
  304MOL0     C41829   1.172   7.603  10.841 -0.1142  0.7024 -0.0862
  304MOL0     C41830   1.126   7.612  10.988 -0.2587 -0.1488  0.5117
  304MOL0     N41831   1.016   7.710  11.004  0.0598 -0.0174  0.5354
  304MOL0     C41832   0.995   7.814  11.092  0.8451  0.3275  0.6380
  304MOL0     C41833   0.888   7.886  11.052  0.4032 -0.2373 -0.8151
  304MOL0     C41834   0.829   8.004  11.118  0.1494  0.2045  0.4554
  304MOL0     C41835   0.832   8.131  11.023 -1.5376 -0.0835 -0.4231
  304MOL0     C41836   0.743   8.253  11.069 -0.0434  0.1065 -0.1582
  304MOL0     C41837   0.733   8.361  10.958 -0.0308 -1.1727 -0.7733
  304MOL0     O41838   0.859   8.377  10.887 -0.0403 -0.9774  0.2255
  304MOL0     C41839   0.973   8.427  10.937 -0.3376  0.0671 -0.2139
  304MOL0     C41840   0.994   8.470  11.064 -0.2575  0.5041  0.2012
  304MOL0     C41841   1.124   8.501  11.120  0.3428 -0.7566 -0.7217
  304MOL0     C41842   1.138   8.538  11.270  1.0778  0.4293  0.6447
  304MOL0     C41843   1.238   8.484  11.035  0.7673 -0.6722 -0.1316
  304MOL0     C41844   1.382   8.516  11.075  1.1769  0.5731 -0.1536
  304MOL0     O41845   1.421   8.494  11.204 -0.6270 -0.6559 -0.7302
  304MOL0     C41846   1.552   8.517  11.242  0.6427 -0.3765  1.1021
  304MOL0     C41847   1.636   8.402  11.272  0.6308  0.3117  0.4315
  304MOL0     C41848   1.770   8.434  11.295 -0.5167 -1.8798  0.1034
  304MOL0     C41849   1.822   8.563  11.299  0.8045  0.3368 -0.8540
  304MOL0     O41850   1.952   8.568  11.325 -0.3089 -0.1514 -0.4791
  304MOL0     C41851   1.996   8.693  11.383  0.1483  0.3953 -0.0579
  304MOL0     C41852   2.141   8.657  11.421  0.0745 -0.2477  0.1381
  304MOL0     C41853   2.191   8.780  11.496 -0.7505  0.6331 -0.0721
  304MOL0     C41854   2.321   8.771  11.591  0.2992  0.3672  1.0702
  304MOL0     C41855   2.443   8.724  11.515 -0.6597 -0.4859  0.2021
  304MOL0     C41856   2.578   8.741  11.586 -0.1327 -0.6832  0.0550
  304MOL0     C41857   2.681   8.644  11.537 -0.3079  0.2530  0.3370
  304MOL0     C41858   2.821   8.677  11.570 -0.8526 -0.4071 -0.5304
  304MOL0    Cl41859   2.923   8.536  11.534 -0.0997  0.1706 -0.1911
  304MOL0     C41860   1.735   8.674  11.290  0.2622 -0.1253  0.5053
  304MOL0     C41861   1.601   8.651  11.257  0.4464  0.4858  0.1220
  304MOL0     O41862   1.447   8.568  10.983 -0.7769  0.4400 -0.8064
  304MOL0     C41863   1.214   8.438  10.907  0.3780  0.5221  0.1720
  304MOL0     C41864   1.086   8.413  10.858 -0.3358  0.7812 -1.4620
  304MOL0     N41865   0.843   7.821  10.939  1.1998 -0.2104  0.1760
  304MOL0     N41866   0.914   7.720  10.914 -0.1410  0.9009 -0.6484
  304MOL0     C41867   2.011   7.692  10.887  0.4841  0.5598 -0.9816
  304MOL0     C41868   2.119   7.770  10.854 -0.8327 -0.5606  0.9916
  304MOL0     C41869   2.529   7.953  10.812 -0.0660  0.3138  0.0864
  304MOL0     C41870   2.551   7.933  10.673 -0.9939 -0.7507  0.0069
  304MOL0     C41871   2.641   8.002  10.592  0.1847 -0.5653  0.7038
  304MOL0     C41872   2.720   8.099  10.656  0.3583 -0.0236 -0.6153
  304MOL0     O41873   2.813   8.158  10.579  0.4703 -0.5217 -0.3950
  304MOL0     C41874   2.892   8.268  10.631  0.0376 -0.4551 -0.0122
  304MOL0     C41875   2.951   8.339  10.519 -0.3011 -0.3393 -0.3994
  304MOL0     C41876   2.857   8.433  10.454 -0.5047  1.3234  0.0271
  304MOL0     C41877   2.916   8.490  10.334  0.1289 -0.0590  0.1743
  304MOL0     C41878   3.005   8.595  10.364 -0.2955 -0.8957 -0.3816
  304MOL0     C41879   3.081   8.691  10.386  0.8978 -0.0798 -0.8641
  304MOL0     C41880   2.710   8.119  10.797 -0.1470  0.2865 -0.1873
  304MOL0     C41881   2.611   8.058  10.871 -0.9260 -0.4529 -0.1687
  304MOL0     C41882   2.612   8.095  11.019  0.0532  0.4817 -0.4873
  304MOL0     H41883   2.369   7.538  10.912  0.7948  1.2849 -1.1230
  304MOL0     H41884   2.177   7.411  10.983  1.5259 -0.4884 -1.9415
  304MOL0     H41885   1.959   7.294  10.933 -0.0532 -1.0508 -1.8693
  304MOL0     H41886   1.937   7.398  10.790 -0.2226 -0.7376 -0.2741
  304MOL0     H41887   1.730   7.262  10.827 -0.2858 -0.7778  1.4383
  304MOL0     H41888   1.742   7.290  10.991  0.1196 -0.7723  0.0183
  304MOL0     H41889   1.645   7.498  10.982  0.8062 -3.8629  1.0342
  304MOL0     H41890   1.693   7.532  10.809 -0.8602  2.1062  1.5467
  304MOL0     H41891   1.507   7.435  10.722 -0.0872  1.0518 -0.2350
  304MOL0     H41892   1.493   7.313  10.837  1.0767  0.2840  2.4209
  304MOL0     H41893   1.434   7.608  10.907  0.6209 -0.1027  1.1835
  304MOL0     H41894   1.377   7.475  10.998  0.8515  3.2795  2.0369
  304MOL0     H41895   1.307   7.508  10.705  2.1554  0.6270  0.7028
  304MOL0     H41896   1.229   7.402  10.818 -0.9527 -0.2803 -1.9692
  304MOL0     H41897   1.084   7.575  10.783 -0.8892 -2.1935  2.2710
  304MOL0     H41898   1.201   7.699  10.797 -0.1790  0.1769 -1.3284
  304MOL0     H41899   1.082   7.513  11.002 -0.3661 -0.2237 -0.3303
  304MOL0     H41900   1.211   7.636  11.052  0.9745  0.4995 -1.2973
  304MOL0     H41901   1.053   7.848  11.178  0.7891  2.1171  0.0045
  304MOL0     H41902   0.871   8.020  11.218 -1.4528  4.0789  0.7043
  304MOL0     H41903   0.724   7.983  11.142 -1.1601  4.3103 -0.7710
  304MOL0     H41904   0.932   8.174  11.014 -1.2732  0.0696  2.2494
  304MOL0     H41905   0.787   8.100  10.928  2.9453 -1.6268 -2.2670
  304MOL0     H41906   0.643   8.223  11.101  0.8390 -1.5924  1.2284
  304MOL0     H41907   0.792   8.294  11.158  0.0945 -2.7737  1.2158
  304MOL0     H41908   0.658   8.331  10.884 -1.5049  0.1205  0.1423
  304MOL0     H41909   0.707   8.458  11.002  0.4016 -0.4531 -2.0550
  304MOL0     H41910   0.903   8.481  11.123 -0.6812  1.2583 -0.5754
  304MOL0     H41911   1.184   8.452  11.320  1.6913  0.8701  0.8501
  304MOL0     H41912   1.041   8.570  11.311  0.3945 -1.0044  0.1863
  304MOL0     H41913   1.209   8.621  11.277  2.0530 -0.3184 -0.1366
  304MOL0     H41914   1.599   8.301  11.272 -0.5296  0.7230  0.3669
  304MOL0     H41915   1.837   8.354  11.323 -0.5521 -1.9955 -0.1402
  304MOL0     H41916   1.973   8.778  11.317 -2.2330 -1.0063 -1.1631
  304MOL0     H41917   1.939   8.713  11.474 -1.3434  1.7481 -1.2283
  304MOL0     H41918   2.146   8.566  11.483 -1.1233 -0.8241 -0.5777
  304MOL0     H41919   2.209   8.639  11.338 -1.9710  1.9167 -2.1707
  304MOL0     H41920   2.108   8.817  11.557 -0.6689 -1.7943  1.6792
  304MOL0     H41921   2.229   8.861  11.433  0.0185  0.8220  0.6142
  304MOL0     H41922   2.301   8.706  11.677 -2.2178 -0.1994  0.1354
  304MOL0     H41923   2.344   8.870  11.632  0.8111  0.5869  0.2820
  304MOL0     H41924   2.423   8.621  11.486 -0.3335 -0.4228 -0.2641
  304MOL0     H41925   2.452   8.770  11.416 -1.0839 -0.7625  0.0312
  304MOL0     H41926   2.567   8.749  11.695  1.8597 -0.5971  0.2896
  304MOL0     H41927   2.605   8.845  11.563  0.3067 -1.2639 -2.2902
  304MOL0     H41928   2.678   8.641  11.428  1.1434  0.3040  0.2714
  304MOL0     H41929   2.644   8.552  11.583 -0.8248  0.6568  0.7388
  304MOL0     H41930   2.830   8.700  11.677 -2.0472  2.8586 -0.9983
  304MOL0     H41931   2.850   8.770  11.520  0.8165  0.6878  2.2709
  304MOL0     H41932   1.766   8.778  11.289 -3.0591  0.9901  1.4432
  304MOL0     H41933   1.526   8.725  11.231 -1.2295 -1.5101 -1.0540
  304MOL0     H41934   1.295   8.416  10.839 -0.7067 -0.0595 -0.9756
  304MOL0     H41935   1.066   8.355  10.768 -6.0861 -2.3989  1.2699
  304MOL0     H41936   1.909   7.724  10.867 -0.3857 -1.2738  0.2105
  304MOL0     H41937   2.098   7.866  10.808 -2.4672 -1.5654 -0.5130
  304MOL0     H41938   2.488   7.860  10.624  0.2702  0.4470 -3.7566
  304MOL0     H41939   2.648   7.979  10.486 -0.4101 -1.2575  0.8062
  304MOL0     H41940   2.838   8.333  10.700  0.6826 -1.5277  1.5720
  304MOL0     H41941   2.976   8.220  10.681  1.2326 -1.1387 -2.5179
  304MOL0     H41942   2.994   8.261  10.455  0.3209 -1.1096  0.9126
  304MOL0     H41943   3.028   8.408  10.558 -0.7018  0.7301 -1.4481
  304MOL0     H41944   2.767   8.375  10.431  0.1394  0.7301 -1.0830
  304MOL0     H41945   2.823   8.512  10.522 -0.3893  0.7107  0.8170
  304MOL0     H41946   2.827   8.527  10.283 -0.4191 -2.6524 -0.8887
  304MOL0     H41947   2.964   8.417  10.269 -2.9380 -0.3020 -2.0191
  304MOL0     H41948   3.139   8.779  10.400  0.1027  0.2323  0.7114
  304MOL0     H41949   2.786   8.174  10.852 -0.6197  0.7567  0.0157
  304MOL0     H41950   2.525   8.162  11.031  0.1755  0.1441  3.7039
  304MOL0     H41951   2.601   8.009  11.085 -2.2334  1.8425  1.0381
  304MOL0     H41952   2.704   8.147  11.045  0.0576 -0.1059  0.7331
  305MOL0     O41953   5.145  10.942   9.962 -0.1647  0.7992  0.1852
  305MOL0     C41954   5.099  10.968   9.854 -0.3967 -0.0483 -0.0901
  305MOL0     O41955   5.180  11.008   9.751 -0.2198 -0.0568  0.3178
  305MOL0     C41956   5.308  10.977   9.764  0.4032  1.4118 -0.9904
  305MOL0     C41957   5.403  11.082   9.771 -0.1914  0.6629  0.0995
  305MOL0     C41958   5.534  11.070   9.810 -0.3198 -0.7556  0.0584
  305MOL0     C41959   5.586  10.947   9.815 -0.1819  1.2691 -0.2586
  305MOL0     O41960   5.718  10.934   9.842 -0.9454 -0.8991  0.3579
  305MOL0     C41961   5.768  10.817   9.912 -0.5699  0.0985  0.2971
  305MOL0     C41962   5.838  10.710   9.824  0.5738 -0.1738 -0.0889
  305MOL0     C41963   5.881  10.580   9.903  0.5900  0.6059  0.0671
  305MOL0     C41964   5.886  10.455   9.809 -0.2592 -0.9664  0.2329
  305MOL0     C41965   5.923  10.325   9.882  0.2260 -0.7440 -0.1961
  305MOL0     C41966   5.828  10.293   9.994  0.5238 -0.2794  0.1742
  305MOL0     C41967   5.683  10.270   9.954  1.2598 -0.1786 -0.2234
  305MOL0     C41968   5.584  10.246  10.076 -0.3157  0.5951  0.1101
  305MOL0     N41969   5.633  10.147  10.171  0.9808 -0.1434 -0.5757
  305MOL0     C41970   5.673  10.018  10.139  0.0382 -0.5543  0.8672
  305MOL0     C41971   5.764   9.981  10.228  0.0075  0.2921  0.4605
  305MOL0     C41972   5.829   9.849  10.230 -0.2982  0.5578 -0.1229
  305MOL0     C41973   5.970   9.850  10.280 -0.5949  0.3179 -0.0522
  305MOL0     C41974   6.027   9.717  10.304 -0.1656  0.6306  0.6088
  305MOL0     C41975   6.064   9.635  10.183 -0.3010  0.0411  0.1761
  305MOL0     O41976   5.943   9.560  10.137  1.3122  0.0172  0.3466
  305MOL0     C41977   5.940   9.502  10.008 -0.4215 -0.3400 -0.3920
  305MOL0     C41978   5.818   9.475   9.943 -0.0013  0.1545 -0.6012
  305MOL0     C41979   5.811   9.463   9.804  0.9996  0.6752  0.7636
  305MOL0     C41980   5.675   9.426   9.742  0.6131  0.5218  0.3845
  305MOL0     C41981   5.923   9.477   9.722 -0.8907 -0.7569 -0.1852
  305MOL0     C41982   5.925   9.481   9.566 -0.1866 -0.1663 -0.5872
  305MOL0     O41983   6.055   9.491   9.516  0.2408  0.2720  0.3326
  305MOL0     C41984   6.078   9.556   9.394  0.2857  0.7093 -0.3014
  305MOL0     C41985   5.996   9.665   9.352  0.1541 -0.1093 -0.3871
  305MOL0     C41986   6.005   9.721   9.228 -0.0863 -0.4700 -0.0911
  305MOL0     C41987   6.089   9.654   9.129  0.2020  0.0003 -0.6689
  305MOL0     O41988   6.074   9.696   8.996 -0.3951 -0.3015 -0.5608
  305MOL0     C41989   6.179   9.659   8.921 -0.3591  0.4091  0.6294
  305MOL0     C41990   6.181   9.747   8.796  0.6205 -0.3034  0.0837
  305MOL0     C41991   6.201   9.893   8.843  0.2284 -0.2186 -0.1488
  305MOL0     C41992   6.202  10.010   8.740  0.4166 -0.1916  0.4948
  305MOL0     C41993   6.263  10.143   8.792 -0.4136 -1.2226 -0.4109
  305MOL0     C41994   6.304  10.243   8.676  0.0643  0.5051 -0.1375
  305MOL0     C41995   6.199  10.319   8.592  0.5512  1.4438 -1.0448
  305MOL0     C41996   6.263  10.411   8.496  0.6528  0.3881 -0.1897
  305MOL0    Cl41997   6.357  10.526   8.588  0.2914 -0.0210 -0.3658
  305MOL0     C41998   6.173   9.542   9.170 -0.3785 -0.6598 -0.0024
  305MOL0     C41999   6.174   9.501   9.304  0.5887  0.0843  0.3643
  305MOL0     O42000   5.822   9.483   9.497 -0.1205  0.4616  0.4471
  305MOL0     C42001   6.047   9.495   9.788  0.4445 -0.5752  0.0652
  305MOL0     C42002   6.050   9.505   9.924  0.3906 -0.2949  0.1442
  305MOL0     N42003   5.767  10.090  10.317 -0.3729 -0.4981  0.1867
  305MOL0     N42004   5.691  10.189  10.286  0.2349 -0.3091  0.1736
  305MOL0     C42005   5.498  10.832   9.787 -0.8791  0.2577  1.1135
  305MOL0     C42006   5.364  10.848   9.763  0.1845 -0.5543  0.3993
  305MOL0     C42007   4.949  10.946   9.817 -0.2367  0.7305  0.2251
  305MOL0     C42008   4.903  10.984   9.684 -0.4617 -0.6676 -0.5008
  305MOL0     C42009   4.782  10.968   9.636  0.2737 -0.3760 -0.4476
  305MOL0     C42010   4.689  10.904   9.713  0.8846  0.4717 -0.3595
  305MOL0     O42011   4.564  10.889   9.651  0.3339 -0.7048  0.1709
  305MOL0     C42012   4.470  10.797   9.696  0.6087  0.5737  0.0788
  305MOL0     C42013   4.344  10.794   9.607  0.1607 -0.2426  0.2741
  305MOL0     C42014   4.258  10.920   9.595  0.0866 -0.0231 -0.1314
  305MOL0     C42015   4.190  10.929   9.462 -0.2971 -0.0137  0.9860
  305MOL0     C42016   4.276  10.975   9.353  1.5659  0.5337 -0.1985
  305MOL0     C42017   4.356  11.001   9.268 -1.0522 -0.9619  0.6825
  305MOL0     C42018   4.729  10.849   9.839  0.0905 -0.0917 -0.4637
  305MOL0     C42019   4.856  10.874   9.895  0.0887 -0.3962 -0.2065
  305MOL0     C42020   4.882  10.824  10.032  0.3713 -0.2346  0.3959
  305MOL0     H42021   5.363  11.182   9.761 -0.3082  0.4921 -1.3077
  305MOL0     H42022   5.594  11.159   9.830 -1.8214  0.4676 -0.6905
  305MOL0     H42023   5.687  10.774   9.971  2.0971 -1.2244  3.3606
  305MOL0     H42024   5.839  10.853   9.988 -1.0192 -1.1519  1.3517
  305MOL0     H42025   5.757  10.679   9.756 -1.1659  1.5454  1.0754
  305MOL0     H42026   5.918  10.751   9.762  0.3268 -0.5150 -0.6419
  305MOL0     H42027   5.974  10.593   9.957 -1.4983  1.7372  3.7067
  305MOL0     H42028   5.804  10.552   9.975  0.7601 -3.3772 -1.0481
  305MOL0     H42029   5.786  10.437   9.766 -0.4768  1.0730 -0.2284
  305MOL0     H42030   5.958  10.474   9.729 -1.0630  1.9331  0.1068
  305MOL0     H42031   6.026  10.336   9.920 -0.5016  1.6003  1.3224
  305MOL0     H42032   5.922  10.243   9.810  1.0808  0.4623 -1.6680
  305MOL0     H42033   5.867  10.203  10.043 -1.2828 -1.7081 -0.9166
  305MOL0     H42034   5.827  10.373  10.069  0.1038  1.0892 -1.2466
  305MOL0     H42035   5.686  10.186   9.885  0.5045  0.2156 -0.7428
  305MOL0     H42036   5.649  10.357   9.896  0.6751 -1.3704 -1.7236
  305MOL0     H42037   5.556  10.338  10.127 -0.0023  0.5282  0.4078
  305MOL0     H42038   5.487  10.203  10.050 -1.1878  1.3107  2.0313
  305MOL0     H42039   5.643   9.969  10.046 -4.0849  3.5271 -0.3471
  305MOL0     H42040   5.817   9.794  10.136 -0.8402  0.7285 -0.1522
  305MOL0     H42041   5.772   9.788  10.301  2.2820  0.3803  1.9536
  305MOL0     H42042   6.039   9.902  10.214  2.3618  0.1630  2.6825
  305MOL0     H42043   5.985   9.901  10.376 -0.5296  1.9005 -0.8775
  305MOL0     H42044   6.120   9.735  10.359 -0.4855  0.5756  1.1788
  305MOL0     H42045   5.956   9.651  10.356 -1.4100  0.3847 -1.2944
  305MOL0     H42046   6.108   9.703  10.110  0.1423 -0.5094 -0.0724
  305MOL0     H42047   6.144   9.564  10.205 -0.6782 -0.2693  0.5601
  305MOL0     H42048   5.722   9.487   9.993  0.2606  1.3291 -0.3527
  305MOL0     H42049   5.627   9.507   9.686 -2.5853 -1.4864 -0.0423
  305MOL0     H42050   5.599   9.391   9.813 -0.9129  2.1962 -0.3388
  305MOL0     H42051   5.680   9.342   9.672 -1.0214  1.6497 -1.1833
  305MOL0     H42052   5.924   9.713   9.418 -0.8138  1.2352 -2.2980
  305MOL0     H42053   5.945   9.805   9.194  0.2737 -0.9998 -2.1849
  305MOL0     H42054   6.279   9.664   8.966 -1.6293  0.4247  3.7058
  305MOL0     H42055   6.162   9.554   8.897  0.2504  0.3034  0.6443
  305MOL0     H42056   6.257   9.717   8.724  2.0002  3.0700 -0.0452
  305MOL0     H42057   6.080   9.747   8.752 -0.1892 -3.4154  1.6721
  305MOL0     H42058   6.295   9.892   8.898  1.0130  4.0296 -1.0630
  305MOL0     H42059   6.117   9.912   8.912 -1.1847 -1.3279 -1.5036
  305MOL0     H42060   6.101  10.028   8.704  0.9983 -0.0220 -1.1069
  305MOL0     H42061   6.266   9.983   8.656  0.5753 -0.1634  0.6035
  305MOL0     H42062   6.197  10.186   8.867 -1.6627  0.6826 -2.4694
  305MOL0     H42063   6.360  10.128   8.840  1.1029 -0.1431 -2.9102
  305MOL0     H42064   6.374  10.197   8.606 -2.6341 -2.0280 -1.3750
  305MOL0     H42065   6.365  10.321   8.724  0.2285 -1.1365  2.5388
  305MOL0     H42066   6.129  10.372   8.658 -0.4664 -0.2005 -0.7395
  305MOL0     H42067   6.143  10.236   8.548 -1.4717  0.4773  2.8283
  305MOL0     H42068   6.175  10.444   8.439  0.0762 -3.3178 -1.7630
  305MOL0     H42069   6.324  10.358   8.422  0.8055 -0.9684  0.8665
  305MOL0     H42070   6.240   9.496   9.098 -2.2943  1.0197 -3.0831
  305MOL0     H42071   6.237   9.416   9.326  1.9150  0.2795 -2.1917
  305MOL0     H42072   6.148   9.490   9.748  1.1466  0.6077  1.5649
  305MOL0     H42073   6.148   9.504   9.972  0.8760 -3.0048 -0.6843
  305MOL0     H42074   5.544  10.733   9.778 -0.2734  0.6461 -0.5833
  305MOL0     H42075   5.289  10.771   9.750 -0.2835 -0.1595  0.7074
  305MOL0     H42076   4.964  11.042   9.615 -2.7828  1.3070 -1.0110
  305MOL0     H42077   4.742  11.000   9.540 -0.7113  2.2624  0.7649
  305MOL0     H42078   4.516  10.699   9.713 -0.2241  0.5597  2.8171
  305MOL0     H42079   4.427  10.833   9.790 -1.5188  1.5065 -1.1688
  305MOL0     H42080   4.289  10.704   9.636  0.7368 -0.8695 -0.5549
  305MOL0     H42081   4.378  10.769   9.507  3.2737 -0.4750  1.2863
  305MOL0     H42082   4.186  10.918   9.678  1.5468 -0.8556  1.1580
  305MOL0     H42083   4.315  11.012   9.607  0.8326 -0.4704 -0.1398
  305MOL0     H42084   4.110  11.002   9.475 -1.0245  0.0041 -2.4860
  305MOL0     H42085   4.156  10.827   9.441  1.2532 -0.3553 -0.0939
  305MOL0     H42086   4.429  11.025   9.194 -0.8035  1.5622  1.6525
  305MOL0     H42087   4.649  10.798   9.892  0.1411 -0.0835 -0.3796
  305MOL0     H42088   4.787  10.797  10.078 -0.4291 -1.3493 -1.7627
  305MOL0     H42089   4.953  10.741  10.035  3.2047  1.9472 -1.0782
  305MOL0     H42090   4.924  10.910  10.084  0.8053  0.4643 -1.0364
  306MOL0     O42091   9.003   7.969   8.413 -0.6324  0.0012  0.0078
  306MOL0     C42092   8.930   8.055   8.367  0.1867 -0.0499  0.0362
  306MOL0     O42093   8.971   8.177   8.334 -0.2435 -0.2402 -0.1709
  306MOL0     C42094   9.110   8.194   8.332  0.3553 -0.0346 -0.4367
  306MOL0     C42095   9.185   8.223   8.449  0.5881  0.9157 -0.3674
  306MOL0     C42096   9.324   8.232   8.448 -0.1362 -0.3136  0.1564
  306MOL0     C42097   9.392   8.221   8.327 -0.0272 -0.0635  0.5651
  306MOL0     O42098   9.529   8.223   8.334 -0.7161 -0.0869  0.3185
  306MOL0     C42099   9.597   8.227   8.209  0.3917 -0.5334  0.1912
  306MOL0     C42100   9.748   8.219   8.220 -0.4194  0.1598 -0.6445
  306MOL0     C42101   9.799   8.344   8.295 -0.0040 -0.2784 -0.3931
  306MOL0     C42102   9.950   8.339   8.302  0.2302  0.3283 -0.5261
  306MOL0     C42103  10.026   8.271   8.419  0.8275 -0.7530  0.1276
  306MOL0     C42104  10.177   8.306   8.430 -0.0030 -0.1560 -0.2146
  306MOL0     C42105  10.232   8.259   8.561 -0.4125 -0.1818 -0.3114
  306MOL0     C42106  10.378   8.303   8.585  0.1616 -0.4988  0.3312
  306MOL0     N42107  10.416   8.235   8.709  0.2503 -0.0907 -0.0803
  306MOL0     C42108  10.383   8.284   8.830  0.3974 -0.3121  0.4433
  306MOL0     C42109  10.437   8.196   8.921 -0.0966 -0.9608 -0.0527
  306MOL0     C42110  10.419   8.200   9.065  0.0871 -0.5944 -0.1682
  306MOL0     C42111  10.544   8.231   9.143  0.4981 -0.2985 -0.3931
  306MOL0     C42112  10.582   8.379   9.115  0.1903  0.3092  0.0854
  306MOL0     C42113  10.698   8.437   9.207  1.1485  0.7015 -0.4461
  306MOL0     O42114  10.812   8.353   9.198  0.8404  0.3827  0.0179
  306MOL0     C42115  10.930   8.414   9.225 -0.1800 -1.8308 -0.3745
  306MOL0     C42116  10.953   8.554   9.255  0.1335  0.4923  0.3925
  306MOL0     C42117  11.080   8.606   9.271 -0.4815 -0.5190 -0.2835
  306MOL0     C42118  11.084   8.753   9.286  0.1433 -0.7433 -0.1330
  306MOL0     C42119  11.204   8.532   9.286  0.3290  0.3542 -0.5418
  306MOL0     C42120  11.339   8.582   9.302  0.3364  0.4528 -0.1638
  306MOL0     O42121  11.441   8.487   9.276 -0.3871 -0.5649 -0.1466
  306MOL0     C42122  11.566   8.508   9.335  0.2603  0.4866  0.4287
  306MOL0     C42123  11.591   8.562   9.463 -0.0727  0.8530 -0.5432
  306MOL0     C42124  11.726   8.561   9.519  0.4623 -0.2099 -0.2975
  306MOL0     C42125  11.826   8.506   9.446  0.8389 -0.2748 -0.6236
  306MOL0     O42126  11.950   8.519   9.493  0.1822  0.6519  0.9804
  306MOL0     C42127  12.045   8.417   9.466 -0.4283 -0.1176  0.3745
  306MOL0     C42128  12.156   8.422   9.573 -0.5892 -0.0218  0.2446
  306MOL0     C42129  12.287   8.352   9.535  0.0714  0.2723 -0.6708
  306MOL0     C42130  12.270   8.194   9.548 -0.6684 -0.2013 -0.0744
  306MOL0     C42131  12.410   8.130   9.539 -0.0500  0.3612 -0.3623
  306MOL0     C42132  12.407   7.975   9.531 -0.0056 -0.5091  0.3714
  306MOL0     C42133  12.551   7.910   9.547  0.2842  0.0925  0.1398
  306MOL0     C42134  12.535   7.764   9.562 -0.0248  0.3229 -0.6222
  306MOL0    Cl42135  12.688   7.698   9.638 -0.2417  0.4164 -0.3099
  306MOL0     C42136  11.804   8.444   9.319  0.3392  0.2845 -0.4508
  306MOL0     C42137  11.677   8.449   9.267 -0.5276  0.2307  0.3281
  306MOL0     O42138  11.353   8.700   9.333  0.2075  0.4973 -0.2822
  306MOL0     C42139  11.176   8.390   9.266  0.4204  0.1660 -0.4452
  306MOL0     C42140  11.049   8.342   9.238  0.0676 -0.1376 -0.6238
  306MOL0     N42141  10.510   8.102   8.852  0.6036  0.3325  0.7780
  306MOL0     N42142  10.489   8.124   8.721  0.2981  0.6828 -0.2454
  306MOL0     C42143   9.317   8.207   8.207  0.5449  0.1369  0.1289
  306MOL0     C42144   9.178   8.188   8.210  0.0788 -0.1055  0.0839
  306MOL0     C42145   8.780   8.031   8.359  0.3077 -0.6279  0.3068
  306MOL0     C42146   8.706   8.138   8.314  0.5151  0.4888  0.5706
  306MOL0     C42147   8.578   8.125   8.282  0.0814 -0.5232 -0.5714
  306MOL0     C42148   8.504   8.011   8.299 -0.0070 -0.4773  0.2301
  306MOL0     O42149   8.373   7.988   8.271 -0.3807 -0.1758 -0.3469
  306MOL0     C42150   8.292   8.041   8.367  0.0398  0.1245  0.1153
  306MOL0     C42151   8.148   7.986   8.347 -0.4733  0.2956  0.0940
  306MOL0     C42152   8.143   7.827   8.355 -0.7064  0.3722 -0.0858
  306MOL0     C42153   8.001   7.772   8.334  0.2327 -0.4276  1.0885
  306MOL0     C42154   7.885   7.870   8.352  0.2215  0.0731  0.2522
  306MOL0     C42155   7.785   7.949   8.374  0.0096 -0.0326 -1.3430
  306MOL0     C42156   8.572   7.906   8.361  0.4520 -0.0520  0.4563
  306MOL0     C42157   8.705   7.917   8.390 -0.5009  1.3540 -0.5112
  306MOL0     C42158   8.756   7.791   8.446 -0.2882 -0.0169 -0.3684
  306MOL0     H42159   9.124   8.223   8.538  1.0522 -4.2629  0.2243
  306MOL0     H42160   9.380   8.249   8.539 -0.6572 -0.2012  0.4542
  306MOL0     H42161   9.575   8.319   8.154  2.0737 -1.8184 -2.8973
  306MOL0     H42162   9.567   8.139   8.152 -1.0253 -1.6434  2.4959
  306MOL0     H42163   9.780   8.128   8.272  2.0577 -0.9898 -3.8513
  306MOL0     H42164   9.791   8.207   8.120 -1.5861 -0.9120 -1.0422
  306MOL0     H42165   9.773   8.429   8.230  0.3484 -1.1482 -1.7173
  306MOL0     H42166   9.765   8.357   8.397 -0.4133  1.1343 -0.6884
  306MOL0     H42167   9.982   8.288   8.211  2.7420 -2.5692  1.8090
  306MOL0     H42168   9.981   8.444   8.304  3.2636 -0.4393 -2.0305
  306MOL0     H42169  10.018   8.161   8.416 -2.1019 -0.6400  0.4984
  306MOL0     H42170   9.988   8.306   8.516  3.4578  0.5220  0.7669
  306MOL0     H42171  10.235   8.253   8.354  3.2243 -1.2882  2.7982
  306MOL0     H42172  10.183   8.414   8.417  0.1310  0.0639  1.4851
  306MOL0     H42173  10.226   8.150   8.562 -1.9925 -0.1079  0.2612
  306MOL0     H42174  10.173   8.289   8.648  1.6593 -0.1913  1.1756
  306MOL0     H42175  10.442   8.255   8.511 -1.5690 -2.8102  0.2424
  306MOL0     H42176  10.386   8.412   8.592 -0.7171 -0.3850 -0.3190
  306MOL0     H42177  10.319   8.369   8.848  1.5963  0.9327 -0.8835
  306MOL0     H42178  10.388   8.101   9.098 -0.1268 -1.3713 -2.4967
  306MOL0     H42179  10.337   8.271   9.083  0.0665 -0.7997  0.5512
  306MOL0     H42180  10.517   8.201   9.245 -2.6883  2.5965 -0.1810
  306MOL0     H42181  10.622   8.167   9.101 -2.0637 -2.9415 -1.4719
  306MOL0     H42182  10.607   8.384   9.009 -0.9157  2.2980 -0.1305
  306MOL0     H42183  10.501   8.450   9.136  0.2960  0.2792  0.6303
  306MOL0     H42184  10.708   8.542   9.179  1.3295  1.1564  1.2242
  306MOL0     H42185  10.676   8.442   9.314  0.7212  2.5896 -0.5911
  306MOL0     H42186  10.875   8.627   9.274  1.6675  2.0056  1.2738
  306MOL0     H42187  10.995   8.806   9.250  1.0753  0.0814 -1.3445
  306MOL0     H42188  11.158   8.811   9.229  1.5906  0.4759  2.7706
  306MOL0     H42189  11.096   8.779   9.391  0.1390  2.0596 -0.7441
  306MOL0     H42190  11.508   8.602   9.522  1.3748 -0.3702  2.5673
  306MOL0     H42191  11.754   8.612   9.611 -0.6659 -0.0319 -0.0323
  306MOL0     H42192  11.995   8.320   9.476 -0.3639 -0.2688 -0.7216
  306MOL0     H42193  12.083   8.417   9.364  1.3012 -1.4920  0.9805
  306MOL0     H42194  12.180   8.529   9.581  1.6110 -0.3690 -0.9768
  306MOL0     H42195  12.124   8.386   9.672  0.6454 -2.2581 -0.1253
  306MOL0     H42196  12.358   8.377   9.614  0.3841 -0.3756 -0.7381
  306MOL0     H42197  12.336   8.373   9.440  1.5904 -0.0264  0.0119
  306MOL0     H42198  12.221   8.161   9.456  1.1077  1.2553 -1.6327
  306MOL0     H42199  12.224   8.168   9.644 -1.8192  0.7169 -0.3598
  306MOL0     H42200  12.465   8.165   9.451 -1.0048  3.7600  0.2413
  306MOL0     H42201  12.470   8.151   9.628  1.1638 -1.7352 -0.6168
  306MOL0     H42202  12.363   7.952   9.433 -0.7220 -2.2835  1.0627
  306MOL0     H42203  12.337   7.930   9.602  1.1466  2.0466  3.3547
  306MOL0     H42204  12.601   7.946   9.637 -0.8040 -1.2217  1.2987
  306MOL0     H42205  12.616   7.943   9.465  1.1163 -0.7737  0.4419
  306MOL0     H42206  12.516   7.710   9.468 -3.3519 -2.4796  1.3877
  306MOL0     H42207  12.451   7.732   9.625  2.7610 -1.3485  2.5314
  306MOL0     H42208  11.887   8.409   9.258  1.8984  2.9586 -0.0020
  306MOL0     H42209  11.671   8.408   9.166  2.4786  0.8264 -0.1841
  306MOL0     H42210  11.259   8.321   9.282  0.5678  0.5765  0.6390
  306MOL0     H42211  11.038   8.234   9.227 -3.0283 -0.0105  0.3289
  306MOL0     H42212   9.357   8.203   8.106  0.2753 -2.1019  0.0382
  306MOL0     H42213   9.116   8.177   8.121 -1.3530  0.5444  0.9757
  306MOL0     H42214   8.744   8.236   8.285  0.9238 -0.0835 -0.9459
  306MOL0     H42215   8.516   8.210   8.256  0.9212  1.7099  3.7538
  306MOL0     H42216   8.319   8.015   8.469 -2.7369 -1.5861  0.5263
  306MOL0     H42217   8.287   8.150   8.361 -3.6713  0.1521  1.1372
  306MOL0     H42218   8.110   8.022   8.250 -1.4909  1.2368  0.8051
  306MOL0     H42219   8.082   8.038   8.417 -0.3746  1.2417 -0.4921
  306MOL0     H42220   8.213   7.769   8.294 -1.1205 -2.1785  1.7182
  306MOL0     H42221   8.172   7.800   8.457  1.4904 -1.7600 -1.1721
  306MOL0     H42222   7.972   7.691   8.401 -3.2247  0.5798  1.0126
  306MOL0     H42223   7.988   7.723   8.237  0.4830  0.1725  0.7500
  306MOL0     H42224   7.693   8.002   8.381 -0.4452 -0.7702 -1.6446
  306MOL0     H42225   8.519   7.813   8.381  0.0279 -0.7239 -3.0922
  306MOL0     H42226   8.760   7.806   8.555  1.1257 -0.3482 -0.3551
  306MOL0     H42227   8.685   7.709   8.436  1.1294 -1.2595 -0.7395
  306MOL0     H42228   8.843   7.748   8.396 -0.4017 -0.5282 -0.1368
  307MOL0     O42229   1.957   9.559   6.664  0.1583  0.0604  0.0745
  307MOL0     C42230   1.986   9.615   6.560  0.0641 -0.7903 -0.9794
  307MOL0     O42231   2.111   9.618   6.500  0.1991  0.3995 -0.3036
  307MOL0     C42232   2.209   9.532   6.550  0.2705 -1.0653 -0.3111
  307MOL0     C42233   2.283   9.448   6.476 -0.7764 -0.7961  0.6476
  307MOL0     C42234   2.388   9.372   6.528 -0.2907  0.1717  0.2058
  307MOL0     C42235   2.408   9.371   6.664 -0.7588  0.1183 -0.0083
  307MOL0     O42236   2.506   9.296   6.727  0.4565 -0.3196  0.4502
  307MOL0     C42237   2.627   9.265   6.658  0.4505  0.1539 -0.4839
  307MOL0     C42238   2.715   9.224   6.782  0.2843 -0.6345 -0.5185
  307MOL0     C42239   2.649   9.106   6.862 -0.9636  0.4578  0.3640
  307MOL0     C42240   2.575   9.142   6.986  0.0550  0.3480 -0.5699
  307MOL0     C42241   2.660   9.167   7.108 -0.2873  0.1679 -0.2730
  307MOL0     C42242   2.586   9.193   7.243  1.0650  0.2418  0.4119
  307MOL0     C42243   2.687   9.252   7.337  0.4250  0.4334 -0.5031
  307MOL0     C42244   2.789   9.139   7.371 -0.8385 -0.1203 -0.0418
  307MOL0     N42245   2.881   9.190   7.482  0.4465 -0.6002  0.0449
  307MOL0     C42246   2.832   9.239   7.603  0.0947 -0.2881  0.6182
  307MOL0     C42247   2.940   9.293   7.656 -0.5770 -0.5182 -0.4514
  307MOL0     C42248   2.936   9.349   7.797  0.4764  0.0063  0.4130
  307MOL0     C42249   2.947   9.499   7.807  1.0767 -0.4350  0.2748
  307MOL0     C42250   3.038   9.564   7.713  0.8587  1.4203 -0.0197
  307MOL0     C42251   3.030   9.714   7.737  0.0384 -0.3273  0.9941
  307MOL0     O42252   3.105   9.780   7.631  0.1746  0.5983 -0.9788
  307MOL0     C42253   3.233   9.817   7.670 -0.4644 -0.3996  0.3473
  307MOL0     C42254   3.313   9.754   7.769 -0.0159 -0.6908  0.0030
  307MOL0     C42255   3.440   9.792   7.799 -0.3370  0.2986 -1.0535
  307MOL0     C42256   3.512   9.709   7.903 -0.5097  0.0672  0.5903
  307MOL0     C42257   3.501   9.896   7.730  0.3893  0.3555  0.1170
  307MOL0     C42258   3.644   9.935   7.746 -0.5212  0.5841  0.1205
  307MOL0     O42259   3.732   9.843   7.792  0.1168 -0.0075 -0.3766
  307MOL0     C42260   3.850   9.896   7.841 -0.0753  0.3851 -0.9367
  307MOL0     C42261   3.865   9.911   7.982  0.3628  0.0896  0.0613
  307MOL0     C42262   3.981   9.956   8.037  0.6435 -0.5395  0.0978
  307MOL0     C42263   4.088  10.010   7.964 -0.5212  1.0161  0.5425
  307MOL0     O42264   4.181  10.089   8.017  0.8380 -0.5397  0.0914
  307MOL0     C42265   4.301  10.032   8.070 -0.7795 -0.1223  0.1819
  307MOL0     C42266   4.401  10.140   8.106  0.1641  0.3334 -0.0854
  307MOL0     C42267   4.402  10.262   8.012 -0.7788 -0.1032  0.2076
  307MOL0     C42268   4.499  10.253   7.896 -0.0940 -0.0263  0.2364
  307MOL0     C42269   4.452  10.329   7.764 -0.1392 -0.4640  0.2009
  307MOL0     C42270   4.561  10.338   7.659  0.2558 -0.1543  0.5248
  307MOL0     C42271   4.670  10.438   7.707  0.4087  0.1934  0.2847
  307MOL0     C42272   4.792  10.429   7.613 -0.0759  0.8888 -0.0738
  307MOL0    Cl42273   4.917  10.558   7.658  0.4083 -0.6787 -0.1632
  307MOL0     C42274   4.076  10.002   7.824 -0.0638 -0.4897 -0.2682
  307MOL0     C42275   3.965   9.941   7.766  0.6933 -0.0082 -0.2030
  307MOL0     O42276   3.660  10.054   7.732  0.0362  0.9999 -0.2180
  307MOL0     C42277   3.421   9.964   7.636 -0.4359 -0.6474 -0.3087
  307MOL0     C42278   3.288   9.935   7.610 -0.5362  0.1748  0.2822
  307MOL0     N42279   3.059   9.274   7.580 -0.5974  0.4866 -0.5831
  307MOL0     N42280   3.013   9.206   7.474  0.3247  0.3687  0.2799
  307MOL0     C42281   2.329   9.454   6.750  0.0428 -0.4102 -0.5093
  307MOL0     C42282   2.232   9.538   6.693  0.3109  0.1493 -0.1689
  307MOL0     C42283   1.886   9.716   6.500  0.8636  0.9217  0.3159
  307MOL0     C42284   1.914   9.767   6.373  0.3851  0.4229 -0.4362
  307MOL0     C42285   1.835   9.867   6.315 -0.0798  0.0451 -0.5151
  307MOL0     C42286   1.712   9.898   6.373 -0.2053 -0.4244 -0.4461
  307MOL0     O42287   1.637   9.992   6.305  0.1561 -0.3336 -0.4730
  307MOL0     C42288   1.492  10.021   6.332 -0.4640 -0.5816  0.1633
  307MOL0     C42289   1.428  10.122   6.229 -0.8271 -0.1158 -0.0119
  307MOL0     C42290   1.492  10.265   6.245  0.3402  0.0865  0.5192
  307MOL0     C42291   1.436  10.348   6.125  0.0932  0.8700 -0.5641
  307MOL0     C42292   1.498  10.484   6.107 -0.4545 -0.1066 -0.2935
  307MOL0     C42293   1.545  10.596   6.094  0.1483  0.0358 -0.6918
  307MOL0     C42294   1.684   9.845   6.503 -0.3444 -0.7544  0.7376
  307MOL0     C42295   1.768   9.758   6.574  0.0860  0.6539 -0.1446
  307MOL0     C42296   1.734   9.726   6.712 -0.2271 -0.1732 -1.1507
  307MOL0     H42297   2.257   9.427   6.373  2.6031 -1.1472 -0.2284
  307MOL0     H42298   2.438   9.298   6.467 -2.1095 -1.2131  0.3064
  307MOL0     H42299   2.670   9.349   6.602  0.2655  1.1923  0.8809
  307MOL0     H42300   2.593   9.188   6.588 -0.4414 -1.9756  2.1021
  307MOL0     H42301   2.818   9.201   6.755  0.0566 -1.0838 -1.0209
  307MOL0     H42302   2.718   9.308   6.852  2.2159  0.3189 -1.6767
  307MOL0     H42303   2.579   9.058   6.793  0.2760  0.7209 -1.1339
  307MOL0     H42304   2.727   9.033   6.883 -2.1504 -0.7789  0.6379
  307MOL0     H42305   2.510   9.227   6.964 -1.6478 -0.9229 -0.6677
  307MOL0     H42306   2.500   9.070   7.021  0.1090 -0.6228 -2.3409
  307MOL0     H42307   2.719   9.255   7.082  0.5972 -0.4320 -0.3466
  307MOL0     H42308   2.730   9.083   7.109  1.4518  1.5215 -1.4737
  307MOL0     H42309   2.514   9.272   7.221  1.3746  1.2516  2.7478
  307MOL0     H42310   2.528   9.106   7.275 -1.2167  0.7210 -1.9819
  307MOL0     H42311   2.639   9.295   7.425  0.2063 -0.3596 -0.2293
  307MOL0     H42312   2.728   9.340   7.288 -0.8305  1.0119 -0.5503
  307MOL0     H42313   2.734   9.057   7.417 -0.4149  0.5713  1.7613
  307MOL0     H42314   2.839   9.110   7.278 -1.7579  0.7923 -0.8496
  307MOL0     H42315   2.727   9.233   7.633 -0.4073  0.2073 -0.9341
  307MOL0     H42316   3.001   9.302   7.872 -0.9687  1.8176  2.9473
  307MOL0     H42317   2.840   9.327   7.844 -0.3195  1.0999 -0.6401
  307MOL0     H42318   2.846   9.537   7.789  1.4952  0.3302 -0.5442
  307MOL0     H42319   2.970   9.534   7.909 -0.4080  1.6349 -0.0455
  307MOL0     H42320   3.137   9.524   7.736 -0.3492 -0.4875  2.3535
  307MOL0     H42321   3.020   9.553   7.606  0.7775  2.9965 -0.1847
  307MOL0     H42322   2.926   9.746   7.725  0.6368  1.3632  0.0699
  307MOL0     H42323   3.068   9.739   7.837 -0.6859  1.2842  0.8917
  307MOL0     H42324   3.267   9.664   7.810  1.0185 -1.4698 -0.4897
  307MOL0     H42325   3.436   9.649   7.953  1.0878 -2.5127  0.1339
  307MOL0     H42326   3.566   9.773   7.974  2.4775  0.6658 -1.9933
  307MOL0     H42327   3.584   9.642   7.854 -1.3343 -0.7187  0.4263
  307MOL0     H42328   3.782   9.877   8.044  0.1207  0.7567  0.1059
  307MOL0     H42329   3.989   9.947   8.145  1.6283 -2.7663 -0.1073
  307MOL0     H42330   4.281   9.967   8.156  2.4809 -0.3790  0.8966
  307MOL0     H42331   4.356   9.971   7.998  2.0819  3.6374 -1.1198
  307MOL0     H42332   4.364  10.179   8.201  2.8753 -1.8239  2.0437
  307MOL0     H42333   4.501  10.099   8.125  0.0812 -0.6967 -1.6826
  307MOL0     H42334   4.432  10.352   8.066  0.1731 -0.9377  1.1037
  307MOL0     H42335   4.303  10.281   7.969 -0.2785 -0.0981 -0.9930
  307MOL0     H42336   4.520  10.149   7.871 -3.3888 -1.0832  1.4278
  307MOL0     H42337   4.584  10.300   7.948  1.4589 -0.3182 -1.9187
  307MOL0     H42338   4.360  10.281   7.731 -0.4700 -0.6268  1.3226
  307MOL0     H42339   4.426  10.430   7.796 -0.9835 -0.3650 -0.7457
  307MOL0     H42340   4.516  10.366   7.563 -1.7068 -0.8537  1.1808
  307MOL0     H42341   4.603  10.239   7.637  2.2815  1.1909 -2.3092
  307MOL0     H42342   4.706  10.422   7.809  0.3298  2.1363  0.6663
  307MOL0     H42343   4.640  10.543   7.697 -0.2219 -0.1983 -4.9292
  307MOL0     H42344   4.761  10.453   7.511  0.9042  2.9426  0.0532
  307MOL0     H42345   4.838  10.330   7.616  0.0971  0.9923  0.8936
  307MOL0     H42346   4.160  10.038   7.765 -1.3037  0.1196 -1.7203
  307MOL0     H42347   3.964   9.931   7.658  1.7095 -0.1757 -0.2046
  307MOL0     H42348   3.455  10.054   7.586 -2.2391  0.1912 -0.1187
  307MOL0     H42349   3.234   9.983   7.529 -0.6458 -1.7623 -0.8630
  307MOL0     H42350   2.360   9.444   6.853  1.8478 -1.4789 -1.0984
  307MOL0     H42351   2.178   9.606   6.757 -0.4307 -0.1211 -0.4939
  307MOL0     H42352   2.002   9.733   6.320  0.3509  3.7915 -2.9468
  307MOL0     H42353   1.853   9.908   6.216  0.1286  2.5756  0.4934
  307MOL0     H42354   1.430   9.933   6.312  2.5297 -2.7758 -0.1888
  307MOL0     H42355   1.473  10.059   6.432 -0.9385  2.3932 -0.9505
  307MOL0     H42356   1.320  10.132   6.244 -1.5608 -1.3031 -3.6146
  307MOL0     H42357   1.442  10.080   6.129 -0.5274 -1.2162  0.4832
  307MOL0     H42358   1.453  10.318   6.332 -0.5030  0.1755  0.0869
  307MOL0     H42359   1.602  10.260   6.240  0.4205  2.0324 -3.6609
  307MOL0     H42360   1.327  10.353   6.125  0.1387  2.7593  0.1349
  307MOL0     H42361   1.461  10.308   6.026  2.4327 -0.5062  0.4846
  307MOL0     H42362   1.594  10.691   6.081 -0.7768  0.7589  0.7642
  307MOL0     H42363   1.590   9.872   6.551  2.0751  3.2845  3.9493
  307MOL0     H42364   1.824   9.723   6.774  0.7285 -1.0436 -2.5513
  307MOL0     H42365   1.668   9.800   6.759  1.4341 -0.3644  1.7109
  307MOL0     H42366   1.687   9.628   6.723  3.4956 -2.0809 -0.7551
  308MOL0     O42367   0.330   1.543   4.744  0.2518 -0.0649 -0.2918
  308MOL0     C42368   0.224   1.497   4.711 -0.2227  0.3380  0.1050
  308MOL0     O42369   0.184   1.483   4.579  0.4661 -0.1081 -0.7359
  308MOL0     C42370   0.254   1.545   4.480 -0.0615  0.1723 -0.0990
  308MOL0     C42371   0.379   1.506   4.444 -0.5231 -0.3094  0.7682
  308MOL0     C42372   0.450   1.568   4.334  0.7203  0.0951  1.9343
  308MOL0     C42373   0.389   1.670   4.256  1.0277  0.7351  1.0278
  308MOL0     O42374   0.447   1.754   4.163 -0.0887  0.5265  0.0181
  308MOL0     C42375   0.584   1.737   4.141  0.2887 -0.1881 -0.0689
  308MOL0     C42376   0.660   1.843   4.059 -0.1336  0.0870  0.4532
  308MOL0     C42377   0.792   1.789   3.992  0.7502  0.1313 -0.6937
  308MOL0     C42378   0.869   1.901   3.914  0.3689  0.4204 -0.1028
  308MOL0     C42379   0.961   1.832   3.814  0.6865 -0.6979 -0.2608
  308MOL0     C42380   1.045   1.935   3.751 -0.0851  0.6898 -0.0815
  308MOL0     C42381   1.175   1.869   3.699 -0.3871 -0.0681  0.5492
  308MOL0     C42382   1.263   1.973   3.632  0.5377  0.3903  0.2260
  308MOL0     N42383   1.389   1.906   3.607  0.1804 -0.1053  0.1688
  308MOL0     C42384   1.418   1.834   3.494  0.0709 -0.3748 -0.9962
  308MOL0     C42385   1.548   1.809   3.511 -0.3331  0.6334 -0.4549
  308MOL0     C42386   1.627   1.728   3.411  0.1223 -0.7893  0.1952
  308MOL0     C42387   1.781   1.768   3.417  0.2253 -0.1228 -0.4639
  308MOL0     C42388   1.838   1.714   3.287 -0.7303 -0.3353  0.7060
  308MOL0     C42389   1.966   1.797   3.250  0.0727  0.6446  0.2845
  308MOL0     O42390   2.085   1.756   3.321 -0.5573  0.1678  0.0923
  308MOL0     C42391   2.175   1.846   3.384  0.0248 -0.1899  0.4942
  308MOL0     C42392   2.144   1.979   3.416 -0.4234  0.7200  0.5145
  308MOL0     C42393   2.232   2.058   3.485  0.6229 -0.2055  1.0061
  308MOL0     C42394   2.200   2.203   3.510  0.1051  0.8720 -0.3489
  308MOL0     C42395   2.353   2.012   3.537 -0.0773 -0.1999  0.5096
  308MOL0     C42396   2.466   2.084   3.599  0.2503 -1.0245  0.2837
  308MOL0     O42397   2.568   2.006   3.649  0.5736  0.0521  0.2462
  308MOL0     C42398   2.675   2.072   3.705 -0.5301 -0.4724 -0.2231
  308MOL0     C42399   2.783   2.095   3.620  0.5320  0.4999 -0.8966
  308MOL0     C42400   2.901   2.156   3.664 -0.2761  0.0048  0.5899
  308MOL0     C42401   2.905   2.200   3.802  0.6702 -0.8696 -0.5932
  308MOL0     O42402   3.019   2.261   3.864 -0.2375  0.4244 -0.0601
  308MOL0     C42403   3.151   2.244   3.807 -0.2017  0.4620  0.4891
  308MOL0     C42404   3.242   2.315   3.901 -0.8222 -0.4432  0.1055
  308MOL0     C42405   3.269   2.225   4.021 -1.0041  0.0280  0.4553
  308MOL0     C42406   3.399   2.259   4.090 -0.0062 -0.5258 -0.5526
  308MOL0     C42407   3.431   2.152   4.198 -0.6424 -1.2688  0.6603
  308MOL0     C42408   3.556   2.180   4.286 -0.0291 -0.0835  0.4565
  308MOL0     C42409   3.549   2.089   4.411  0.4072 -0.0460 -0.0998
  308MOL0     C42410   3.676   2.101   4.489 -0.2134  0.8499  0.6552
  308MOL0    Cl42411   3.807   2.035   4.389  0.2032 -0.3331 -0.3667
  308MOL0     C42412   2.793   2.182   3.885 -0.0041  0.0005 -0.6726
  308MOL0     C42413   2.678   2.123   3.836  0.0931 -0.6078 -0.1040
  308MOL0     O42414   2.460   2.206   3.585  0.0568 -0.8173 -0.2626
  308MOL0     C42415   2.372   1.874   3.514 -0.1088  0.8963 -0.4255
  308MOL0     C42416   2.289   1.797   3.436 -1.0610 -0.4268  0.1733
  308MOL0     N42417   1.593   1.859   3.627 -0.7969 -0.5611  0.9212
  308MOL0     N42418   1.497   1.924   3.681 -0.1657 -0.5331 -0.0119
  308MOL0     C42419   0.265   1.713   4.299  0.2123 -0.0408 -0.1835
  308MOL0     C42420   0.202   1.651   4.407 -0.0803 -0.3358 -0.1618
  308MOL0     C42421   0.128   1.434   4.808  0.6620 -0.7577 -0.8689
  308MOL0     C42422   0.038   1.333   4.769 -0.1756  0.5598  0.2881
  308MOL0     C42423  -0.062   1.294   4.853 -0.4834  0.8166  1.0808
  308MOL0     C42424  -0.080   1.339   4.982  0.3150  0.8275 -0.8305
  308MOL0     O42425  -0.182   1.296   5.074 -0.3204 -0.1744 -0.6668
  308MOL0     C42426  -0.286   1.214   5.028  0.3278 -0.4578 -0.0140
  308MOL0     C42427  -0.370   1.177   5.156  0.0945  0.6359  0.2109
  308MOL0     C42428  -0.450   1.297   5.225 -0.1126  0.4340 -0.1930
  308MOL0     C42429  -0.519   1.243   5.353  0.8982  1.0723  1.0327
  308MOL0     C42430  -0.669   1.231   5.335  0.0646  0.1928  1.3466
  308MOL0     C42431  -0.787   1.226   5.303 -0.4775 -0.5366  0.4031
  308MOL0     C42432  -0.002   1.442   5.023  0.3809  0.2452 -0.1698
  308MOL0     C42433   0.109   1.484   4.941  0.2063  0.1286 -0.9383
  308MOL0     C42434   0.203   1.578   5.004 -0.2463 -0.4784 -0.1863
  308MOL0     H42435   0.430   1.424   4.494 -0.3490 -1.2038 -0.7813
  308MOL0     H42436   0.546   1.522   4.311 -0.0067 -3.0415  4.3454
  308MOL0     H42437   0.597   1.637   4.099 -0.4384 -1.2508  2.0871
  308MOL0     H42438   0.629   1.747   4.240 -0.2895 -0.5985  0.2372
  308MOL0     H42439   0.596   1.890   3.983 -0.9006 -0.8749  0.4882
  308MOL0     H42440   0.686   1.927   4.124  1.2030 -0.3841  0.5567
  308MOL0     H42441   0.866   1.748   4.062  0.5807  1.9444  0.6170
  308MOL0     H42442   0.753   1.710   3.927 -1.3793  0.5680 -0.0086
  308MOL0     H42443   0.800   1.971   3.867  0.7079 -0.2727 -1.6919
  308MOL0     H42444   0.938   1.955   3.979  0.8296  1.5054 -1.4483
  308MOL0     H42445   0.897   1.786   3.738 -0.0361 -0.6627  0.3126
  308MOL0     H42446   1.021   1.762   3.874 -0.3094  0.3609  2.1073
  308MOL0     H42447   0.991   1.976   3.665  0.1778  0.8496 -0.1699
  308MOL0     H42448   1.062   2.018   3.820 -1.9657  0.1982  1.0456
  308MOL0     H42449   1.148   1.788   3.631 -2.9355  1.0252  0.1684
  308MOL0     H42450   1.231   1.825   3.782  2.4192 -0.2237 -1.2844
  308MOL0     H42451   1.234   2.012   3.534  2.1836 -2.8929 -1.7628
  308MOL0     H42452   1.277   2.052   3.706  2.7574 -0.9245  1.2996
  308MOL0     H42453   1.351   1.803   3.414  0.5711 -2.2826 -0.7328
  308MOL0     H42454   1.586   1.743   3.311  0.7062 -3.7895 -0.5702
  308MOL0     H42455   1.624   1.621   3.430  0.8703 -0.4864  2.3024
  308MOL0     H42456   1.787   1.877   3.431  0.3736 -0.2721  0.7909
  308MOL0     H42457   1.839   1.725   3.499  1.1754  3.2722  0.8408
  308MOL0     H42458   1.863   1.608   3.289 -3.2115 -1.0146 -0.4427
  308MOL0     H42459   1.769   1.728   3.204 -1.9694  2.8689  2.0764
  308MOL0     H42460   1.986   1.780   3.144  0.3643  2.6613 -0.0281
  308MOL0     H42461   1.943   1.903   3.261 -0.1867  0.7112 -0.7501
  308MOL0     H42462   2.052   2.032   3.396  1.7572  3.7786 -2.5850
  308MOL0     H42463   2.269   2.270   3.460  3.2556 -0.3219  2.0701
  308MOL0     H42464   2.202   2.223   3.617 -0.0295  2.1978 -0.5769
  308MOL0     H42465   2.096   2.227   3.486 -0.7088 -0.1015  1.8940
  308MOL0     H42466   2.780   2.064   3.516  0.2035  2.5738 -1.5565
  308MOL0     H42467   2.979   2.183   3.594  1.0108 -0.2396  1.8825
  308MOL0     H42468   3.177   2.141   3.782  1.8796  0.7548  1.2868
  308MOL0     H42469   3.164   2.304   3.716 -0.4260 -0.9348 -0.4912
  308MOL0     H42470   3.328   2.334   3.836 -0.2952 -1.3623  0.5094
  308MOL0     H42471   3.196   2.404   3.944  1.3214 -0.2437  2.1587
  308MOL0     H42472   3.262   2.120   3.993 -1.0326 -0.8371  3.3823
  308MOL0     H42473   3.192   2.242   4.097  0.4249  1.1136  1.7478
  308MOL0     H42474   3.401   2.363   4.125 -0.3496 -1.5254  2.8536
  308MOL0     H42475   3.475   2.246   4.013 -0.5792 -1.2192 -1.0047
  308MOL0     H42476   3.348   2.157   4.269 -0.5430  0.4468  0.6956
  308MOL0     H42477   3.438   2.053   4.153 -4.0918 -1.1205 -0.4957
  308MOL0     H42478   3.549   2.277   4.335 -0.3443  2.9028 -4.7916
  308MOL0     H42479   3.648   2.176   4.228  0.1374  1.8623  0.5491
  308MOL0     H42480   3.513   1.988   4.389  0.6807 -0.2028  0.1594
  308MOL0     H42481   3.477   2.133   4.480  0.6262  3.3415 -1.7826
  308MOL0     H42482   3.663   2.048   4.583 -1.0895  2.0163  1.2192
  308MOL0     H42483   3.688   2.204   4.524 -3.5805  0.8385  2.2193
  308MOL0     H42484   2.785   2.224   3.985  1.4041  0.8373 -0.8845
  308MOL0     H42485   2.594   2.110   3.903 -0.9427  3.9536 -0.1969
  308MOL0     H42486   2.455   1.814   3.551 -0.7904  0.2279  0.0579
  308MOL0     H42487   2.310   1.692   3.416 -0.0123 -0.4658  1.3866
  308MOL0     H42488   0.207   1.797   4.265 -2.5568 -2.3150 -1.4480
  308MOL0     H42489   0.100   1.682   4.427 -0.4460 -2.1738  1.1437
  308MOL0     H42490   0.033   1.298   4.666 -3.4345 -2.8563  1.3725
  308MOL0     H42491  -0.129   1.216   4.818  1.4375 -0.7547  0.7525
  308MOL0     H42492  -0.358   1.265   4.963 -0.7905 -2.4962 -0.4855
  308MOL0     H42493  -0.248   1.127   4.973 -0.8165 -1.9036  1.3690
  308MOL0     H42494  -0.294   1.151   5.231 -2.0587  0.7355  2.5413
  308MOL0     H42495  -0.436   1.090   5.149  2.0075 -1.0273  1.5274
  308MOL0     H42496  -0.372   1.371   5.243  0.5778 -0.2829 -0.1349
  308MOL0     H42497  -0.526   1.328   5.153 -1.0836 -3.2054 -0.9792
  308MOL0     H42498  -0.488   1.307   5.436  0.0375  1.9414  0.7168
  308MOL0     H42499  -0.483   1.141   5.365 -1.9544 -0.2301 -0.5098
  308MOL0     H42500  -0.891   1.212   5.287 -0.6270  0.9343 -0.0961
  308MOL0     H42501  -0.019   1.485   5.121 -2.1414 -1.1261  0.0644
  308MOL0     H42502   0.189   1.600   5.110  0.5560  1.4521 -0.4479
  308MOL0     H42503   0.309   1.548   5.002  0.0879  0.6779 -0.1804
  308MOL0     H42504   0.198   1.672   4.948  2.5096 -0.6092 -0.7949
  309MOL0     O42505   0.153   3.530   5.980 -0.7247 -1.1792  0.5214
  309MOL0     C42506   0.064   3.608   5.997  0.0095  0.0039  0.6897
  309MOL0     O42507   0.080   3.746   5.988 -0.1561  0.2961  0.6585
  309MOL0     C42508   0.206   3.790   5.951  0.3083  0.2928 -0.5415
  309MOL0     C42509   0.290   3.819   6.049  0.0968 -0.4990 -0.5216
  309MOL0     C42510   0.424   3.848   6.022  0.0253  0.8430  0.7932
  309MOL0     C42511   0.462   3.871   5.890 -0.8500 -0.4866  0.5063
  309MOL0     O42512   0.577   3.929   5.857  0.2723  0.6898 -0.5935
  309MOL0     C42513   0.577   4.016   5.739 -0.1340 -0.0434 -0.1997
  309MOL0     C42514   0.693   4.115   5.740 -0.7449  0.6323 -0.5977
  309MOL0     C42515   0.828   4.062   5.685  0.1046  0.3503  1.0440
  309MOL0     C42516   0.893   3.950   5.772 -0.5200  0.1347  0.4289
  309MOL0     C42517   1.025   3.912   5.696  0.3059 -0.6142 -1.1213
  309MOL0     C42518   1.121   3.821   5.771  0.3065 -0.0605  0.0597
  309MOL0     C42519   1.048   3.696   5.823 -0.4349  0.1769 -0.5175
  309MOL0     C42520   0.976   3.615   5.715 -0.3590  0.3181  1.0429
  309MOL0     N42521   0.903   3.498   5.770 -0.0750  0.8017  0.3181
  309MOL0     C42522   0.822   3.512   5.881  1.2551 -0.5673  0.1438
  309MOL0     C42523   0.784   3.386   5.907  0.1302  0.3643  0.4109
  309MOL0     C42524   0.707   3.351   6.035 -0.3781 -0.1761  0.2473
  309MOL0     C42525   0.596   3.247   6.017  0.1757 -0.0850 -0.0805
  309MOL0     C42526   0.479   3.285   5.932  0.1349  0.1938  0.7159
  309MOL0     C42527   0.379   3.178   5.899  0.1347  0.3724 -0.0491
  309MOL0     O42528   0.314   3.130   6.019 -0.4189 -0.5999  0.2004
  309MOL0     C42529   0.217   3.039   6.010 -0.2691 -0.0381  0.3830
  309MOL0     C42530   0.170   2.982   5.885  0.3720 -0.3344 -0.5242
  309MOL0     C42531   0.070   2.888   5.891  0.1971  0.0414  0.8108
  309MOL0     C42532   0.030   2.826   5.755  0.1118 -0.2297 -0.4036
  309MOL0     C42533   0.020   2.844   6.009  0.6733  0.4473 -0.5415
  309MOL0     C42534  -0.083   2.736   6.010 -0.3600 -0.3965  0.9786
  309MOL0     O42535  -0.140   2.716   6.133 -0.1253  0.3039 -0.6248
  309MOL0     C42536  -0.235   2.624   6.148  0.7308 -0.3681  0.2679
  309MOL0     C42537  -0.222   2.528   6.248 -0.5296 -0.3781  1.2176
  309MOL0     C42538  -0.325   2.442   6.281 -0.2454 -0.0556  0.0263
  309MOL0     C42539  -0.440   2.439   6.199  0.2376  0.2864 -0.3300
  309MOL0     O42540  -0.537   2.349   6.211 -0.3747  0.0407  0.5559
  309MOL0     C42541  -0.497   2.214   6.240 -0.1882 -0.0448  0.4389
  309MOL0     C42542  -0.593   2.189   6.358 -0.4732 -0.0182 -0.6069
  309MOL0     C42543  -0.566   2.061   6.439 -0.1513 -0.2055  0.1866
  309MOL0     C42544  -0.673   2.026   6.536  0.2613  0.1071 -0.2150
  309MOL0     C42545  -0.654   1.901   6.622  0.1007 -0.4373  0.0606
  309MOL0     C42546  -0.675   1.770   6.542 -0.6753  0.2773 -0.5085
  309MOL0     C42547  -0.614   1.649   6.609  0.4525 -0.4918  0.4220
  309MOL0     C42548  -0.722   1.544   6.640 -0.4629 -0.7343 -0.2411
  309MOL0    Cl42549  -0.846   1.601   6.752 -0.0001 -0.1291  0.1841
  309MOL0     C42550  -0.455   2.533   6.099  0.2417  0.6282  0.6013
  309MOL0     C42551  -0.356   2.630   6.071 -0.2774  0.8444  0.0794
  309MOL0     O42552  -0.094   2.655   5.916  0.3798 -0.0103 -0.0751
  309MOL0     C42553   0.063   2.901   6.131 -0.0700 -0.4600 -0.5678
  309MOL0     C42554   0.163   2.997   6.128 -0.4249 -0.0544 -0.5405
  309MOL0     N42555   0.829   3.302   5.806  0.1180  0.5042 -0.0979
  309MOL0     N42556   0.906   3.369   5.729 -0.2388 -0.8808  0.1103
  309MOL0     C42557   0.371   3.839   5.787 -0.5203  0.2341 -0.6091
  309MOL0     C42558   0.240   3.807   5.813 -0.2776  1.0615 -0.5058
  309MOL0     C42559  -0.078   3.562   6.025 -0.4777 -0.9972 -1.2277
  309MOL0     C42560  -0.180   3.659   6.026 -0.1634  0.1545  0.3898
  309MOL0     C42561  -0.310   3.625   6.060  0.6226  0.4147 -0.5161
  309MOL0     C42562  -0.343   3.500   6.106  0.0427  0.7010  0.1897
  309MOL0     O42563  -0.469   3.468   6.131 -0.4458 -0.3993 -0.1648
  309MOL0     C42564  -0.502   3.327   6.172  0.2649 -0.6876 -0.2988
  309MOL0     C42565  -0.651   3.323   6.221 -0.1886 -0.0233 -0.8815
  309MOL0     C42566  -0.672   3.420   6.336 -0.4133 -0.3463  0.7114
  309MOL0     C42567  -0.819   3.416   6.389 -0.9459  0.3853  0.1169
  309MOL0     C42568  -0.850   3.510   6.497  0.2816 -0.3134 -0.1611
  309MOL0     C42569  -0.883   3.568   6.593  0.0487 -0.6280 -0.3735
  309MOL0     C42570  -0.240   3.408   6.110 -0.8443  0.5023 -0.2932
  309MOL0     C42571  -0.108   3.433   6.071 -0.1113 -1.2554 -0.0378
  309MOL0     C42572  -0.011   3.313   6.079  0.2359  0.4318  0.2280
  309MOL0     H42573   0.271   3.805   6.155 -0.9529 -2.3355 -0.9019
  309MOL0     H42574   0.507   3.866   6.090 -1.4916 -0.6919  3.1709
  309MOL0     H42575   0.493   4.084   5.748 -0.8630 -0.9786  0.2308
  309MOL0     H42576   0.579   3.955   5.648 -1.9260  0.5287 -0.6564
  309MOL0     H42577   0.653   4.206   5.694 -3.0529  0.0199  0.0871
  309MOL0     H42578   0.716   4.132   5.846 -0.8169 -4.2597  0.4240
  309MOL0     H42579   0.803   4.031   5.583  0.6109 -0.3195  1.1172
  309MOL0     H42580   0.889   4.152   5.669 -2.6327  1.8415 -2.1324
  309MOL0     H42581   0.922   3.983   5.873 -0.9956 -0.5601  0.8015
  309MOL0     H42582   0.828   3.863   5.771  1.4119 -1.3931 -1.5088
  309MOL0     H42583   1.071   4.011   5.691  0.9387 -0.8267  0.0532
  309MOL0     H42584   1.014   3.876   5.593  0.1907  0.6589 -1.5645
  309MOL0     H42585   1.191   3.789   5.694  0.6324 -0.0394  0.3465
  309MOL0     H42586   1.164   3.878   5.853 -1.2094  0.8202  0.2924
  309MOL0     H42587   0.981   3.737   5.899 -0.4426 -0.8121  0.0235
  309MOL0     H42588   1.120   3.628   5.868 -0.8215  0.8227  1.1629
  309MOL0     H42589   0.907   3.673   5.653 -1.1698 -2.8933 -1.3151
  309MOL0     H42590   1.052   3.566   5.653 -2.1923 -1.4713  0.0982
  309MOL0     H42591   0.792   3.599   5.938 -0.4634 -0.3953 -0.9534
  309MOL0     H42592   0.664   3.446   6.066  0.2045  0.7304 -1.6237
  309MOL0     H42593   0.774   3.307   6.109  2.2578 -1.5716 -2.7428
  309MOL0     H42594   0.632   3.154   5.970  2.4178  0.2289  0.9009
  309MOL0     H42595   0.562   3.220   6.117  2.9671 -0.7163  0.7847
  309MOL0     H42596   0.424   3.374   5.963  0.7794  0.8003  0.1559
  309MOL0     H42597   0.513   3.303   5.829 -1.3806 -0.2771  0.1035
  309MOL0     H42598   0.301   3.236   5.850 -1.5530  1.8365  3.9502
  309MOL0     H42599   0.418   3.105   5.827  1.8159 -0.8051  1.9515
  309MOL0     H42600   0.215   3.011   5.791 -2.8222  1.4757 -1.6825
  309MOL0     H42601   0.054   2.719   5.763 -0.7901 -0.4139  0.0200
  309MOL0     H42602   0.082   2.871   5.671 -3.0474  2.2788 -1.2240
  309MOL0     H42603  -0.078   2.845   5.744  0.6275  2.0827 -2.1549
  309MOL0     H42604  -0.138   2.537   6.316 -0.7520 -1.8151  1.7200
  309MOL0     H42605  -0.328   2.381   6.371 -0.1376  0.2366  0.2277
  309MOL0     H42606  -0.512   2.143   6.157 -0.2288  0.1409  0.2862
  309MOL0     H42607  -0.396   2.202   6.279  1.5645  0.8877 -3.3940
  309MOL0     H42608  -0.597   2.270   6.431 -3.1060 -2.9827  2.8534
  309MOL0     H42609  -0.696   2.182   6.321 -0.3845  0.4930 -0.9696
  309MOL0     H42610  -0.474   2.076   6.496  0.1917 -0.5388 -0.2786
  309MOL0     H42611  -0.536   1.988   6.364  1.5457 -0.6682  1.2713
  309MOL0     H42612  -0.767   2.018   6.482  0.8018 -1.5699 -0.9579
  309MOL0     H42613  -0.686   2.109   6.607 -0.5769  0.4785 -0.7953
  309MOL0     H42614  -0.549   1.897   6.655  0.0516  0.0190  0.2815
  309MOL0     H42615  -0.711   1.905   6.715  1.7181  0.4657  1.0677
  309MOL0     H42616  -0.620   1.783   6.448 -1.9856 -0.7609 -1.4729
  309MOL0     H42617  -0.780   1.750   6.515 -0.4845  0.2623 -1.2574
  309MOL0     H42618  -0.561   1.676   6.701  1.0310 -1.4144  0.3670
  309MOL0     H42619  -0.532   1.615   6.545  0.6969 -0.1922  0.5660
  309MOL0     H42620  -0.676   1.451   6.675  0.7818  0.2442  0.7902
  309MOL0     H42621  -0.770   1.520   6.545 -1.5483  0.1345  0.0698
  309MOL0     H42622  -0.545   2.537   6.039  0.5002  2.7858  0.3070
  309MOL0     H42623  -0.372   2.708   5.998  0.8431  1.6283  0.6333
  309MOL0     H42624   0.036   2.862   6.228  2.0664  1.7359  1.0481
  309MOL0     H42625   0.215   3.050   6.208 -0.4897  2.0027 -1.7920
  309MOL0     H42626   0.404   3.841   5.683  0.6035 -2.4839 -0.3654
  309MOL0     H42627   0.157   3.793   5.745 -2.8742 -0.1740  2.6536
  309MOL0     H42628  -0.165   3.765   6.005 -0.7235  0.5542  1.9013
  309MOL0     H42629  -0.381   3.707   6.059  0.5074  0.3811  1.4417
  309MOL0     H42630  -0.497   3.262   6.084  0.4045  1.4547 -1.9792
  309MOL0     H42631  -0.438   3.288   6.252  0.6901 -0.1547 -0.3689
  309MOL0     H42632  -0.678   3.225   6.261  0.1680 -0.2506 -1.1928
  309MOL0     H42633  -0.723   3.336   6.139 -1.4164 -2.7443 -0.3192
  309MOL0     H42634  -0.606   3.403   6.422 -1.8971  0.8178  2.1731
  309MOL0     H42635  -0.652   3.524   6.309 -1.6057  0.5972  3.1497
  309MOL0     H42636  -0.836   3.312   6.417  1.4194 -0.3468 -0.8813
  309MOL0     H42637  -0.891   3.436   6.308 -0.2906 -0.2740 -0.6537
  309MOL0     H42638  -0.923   3.617   6.679  2.3873  0.6501  0.0694
  309MOL0     H42639  -0.251   3.305   6.144 -1.0187  0.3694 -0.7512
  309MOL0     H42640   0.035   3.292   5.982 -0.5525  2.3898 -0.6323
  309MOL0     H42641   0.063   3.332   6.157 -1.2350  0.8722  1.5632
  309MOL0     H42642  -0.066   3.226   6.114 -1.7838  0.6213 -2.1951
  310MOL0     O42643   3.706   8.266   3.816  0.5088 -0.3396 -0.0031
  310MOL0     C42644   3.693   8.333   3.707  0.0422  0.9084  0.5959
  310MOL0     O42645   3.795   8.363   3.618  0.4075  0.0532  0.1810
  310MOL0     C42646   3.919   8.319   3.660  1.0827  0.4211 -0.0649
  310MOL0     C42647   3.965   8.183   3.642 -0.0794  0.1090 -0.0108
  310MOL0     C42648   4.099   8.146   3.679  0.1001 -0.3658  1.2425
  310MOL0     C42649   4.181   8.247   3.741 -0.0701  0.3027 -0.3078
  310MOL0     O42650   4.296   8.214   3.809  0.3787  0.1454 -0.1848
  310MOL0     C42651   4.347   8.085   3.774 -0.2704  0.4547 -0.5597
  310MOL0     C42652   4.473   8.048   3.853 -0.1733  0.5801  0.6136
  310MOL0     C42653   4.609   8.098   3.804  0.8639  0.0733 -0.2692
  310MOL0     C42654   4.716   8.045   3.897  1.0364 -0.1792  0.8601
  310MOL0     C42655   4.848   8.079   3.864 -0.5917 -0.1195 -1.2729
  310MOL0     C42656   4.958   8.045   3.977 -0.2061  0.2315  0.1344
  310MOL0     C42657   4.920   7.926   4.075 -0.3447 -0.2098 -0.5245
  310MOL0     C42658   5.042   7.891   4.152 -0.2798 -0.5684 -0.7421
  310MOL0     N42659   5.024   7.794   4.256 -0.3499  0.1822  1.0037
  310MOL0     C42660   4.955   7.809   4.374 -0.3616  0.5313 -0.3710
  310MOL0     C42661   4.976   7.698   4.448 -0.9809  0.2160  0.2506
  310MOL0     C42662   4.918   7.656   4.579 -0.3346 -0.4905 -0.3768
  310MOL0     C42663   5.008   7.661   4.697 -0.6163 -0.3803 -0.2857
  310MOL0     C42664   5.042   7.520   4.755  0.0756  0.4961 -0.0013
  310MOL0     C42665   5.106   7.425   4.648 -0.9548 -0.3862 -0.0375
  310MOL0     O42666   5.197   7.339   4.719  1.0128 -0.1154 -0.1002
  310MOL0     C42667   5.276   7.246   4.655  0.1656 -0.3932 -0.6444
  310MOL0     C42668   5.281   7.232   4.522 -0.0464  0.0087  0.1938
  310MOL0     C42669   5.363   7.138   4.457 -0.4393  0.4070 -0.2159
  310MOL0     C42670   5.348   7.137   4.308 -0.3523  1.2424  0.4373
  310MOL0     C42671   5.451   7.051   4.530  0.2288 -0.6598  0.3536
  310MOL0     C42672   5.544   6.943   4.482 -0.2013 -0.7735  0.8537
  310MOL0     O42673   5.639   6.912   4.572  0.0392 -0.4075  0.2068
  310MOL0     C42674   5.718   6.806   4.545 -0.0274  0.7645  0.2056
  310MOL0     C42675   5.812   6.818   4.445 -0.4752 -0.0638 -0.0557
  310MOL0     C42676   5.908   6.718   4.435  0.1800 -0.1994 -0.1946
  310MOL0     C42677   5.896   6.606   4.511 -0.8519 -0.3210  0.9079
  310MOL0     O42678   5.988   6.507   4.487 -0.1989 -0.1538 -0.0551
  310MOL0     C42679   5.966   6.368   4.526  0.0599 -0.0117 -0.2793
  310MOL0     C42680   6.047   6.286   4.416  0.5343 -0.1945 -0.2837
  310MOL0     C42681   6.196   6.286   4.459 -0.2503 -0.3235  0.0888
  310MOL0     C42682   6.292   6.362   4.375 -0.0891  0.1571 -0.1580
  310MOL0     C42683   6.432   6.357   4.435  0.2726  0.3250  0.0244
  310MOL0     C42684   6.515   6.250   4.353  0.7364 -0.7850  0.0119
  310MOL0     C42685   6.663   6.277   4.378 -0.4550  0.8100 -0.1164
  310MOL0     C42686   6.743   6.181   4.286 -0.1040 -0.8571 -0.1863
  310MOL0    Cl42687   6.911   6.144   4.350  0.0599 -0.2904  0.1269
  310MOL0     C42688   5.809   6.595   4.616 -0.1765  0.2759  0.3359
  310MOL0     C42689   5.723   6.697   4.632 -0.1012 -0.3698  0.1110
  310MOL0     O42690   5.531   6.899   4.373  0.3893  0.0018 -0.0294
  310MOL0     C42691   5.438   7.076   4.666 -0.3521 -0.0891 -0.2172
  310MOL0     C42692   5.360   7.172   4.730 -0.2287  0.3963  0.2399
  310MOL0     N42693   5.062   7.618   4.379  0.4268  0.8018 -0.2338
  310MOL0     N42694   5.086   7.675   4.265 -0.5144 -0.5813  0.6248
  310MOL0     C42695   4.127   8.378   3.772  0.7606  0.1456 -0.9645
  310MOL0     C42696   3.998   8.408   3.721 -0.0158 -0.2530 -0.1291
  310MOL0     C42697   3.561   8.401   3.684 -0.6984 -0.2832 -0.2458
  310MOL0     C42698   3.528   8.414   3.550  0.0667 -0.7281 -0.1155
  310MOL0     C42699   3.394   8.447   3.507  0.4572  0.5990  0.0684
  310MOL0     C42700   3.294   8.449   3.602  0.5397  0.3948  0.6128
  310MOL0     O42701   3.167   8.467   3.551  0.1862  0.1441  1.1048
  310MOL0     C42702   3.061   8.501   3.644  0.5486  0.4604 -0.0480
  310MOL0     C42703   2.927   8.523   3.571 -1.1344 -0.6654  0.0297
  310MOL0     C42704   2.926   8.657   3.496  0.8232 -0.0464  0.2182
  310MOL0     C42705   2.803   8.659   3.399 -0.0085  0.1203 -0.3191
  310MOL0     C42706   2.680   8.688   3.481  0.7928  0.4075  0.0435
  310MOL0     C42707   2.587   8.707   3.556 -0.3557  0.1405 -0.1376
  310MOL0     C42708   3.323   8.442   3.733  0.3975 -0.3268 -0.0879
  310MOL0     C42709   3.450   8.415   3.778 -0.4848 -0.2381 -0.5808
  310MOL0     C42710   3.481   8.411   3.931 -0.0340 -0.0633 -0.1228
  310MOL0     H42711   3.905   8.101   3.603  0.0054 -1.3775  2.7422
  310MOL0     H42712   4.125   8.047   3.642  0.8350  0.1308  0.3765
  310MOL0     H42713   4.359   8.081   3.666  1.6525  2.8685 -0.5276
  310MOL0     H42714   4.284   8.005   3.813  0.3103 -0.0012 -0.5489
  310MOL0     H42715   4.458   8.086   3.954 -1.6085  0.3967  0.4809
  310MOL0     H42716   4.469   7.939   3.857 -0.0005  0.5257 -0.3834
  310MOL0     H42717   4.623   8.070   3.700 -3.0474 -0.2998 -0.8382
  310MOL0     H42718   4.614   8.207   3.806  3.6019  0.0640 -1.8395
  310MOL0     H42719   4.699   8.085   3.997 -1.2309 -2.3367  1.4259
  310MOL0     H42720   4.707   7.936   3.906  1.8825 -0.2190  1.3344
  310MOL0     H42721   4.874   8.185   3.851  1.3770 -0.2360  0.8875
  310MOL0     H42722   4.880   8.029   3.772 -1.5628 -0.6832 -1.3203
  310MOL0     H42723   5.053   8.019   3.928  1.9211 -0.8366  4.3904
  310MOL0     H42724   4.970   8.135   4.038 -0.1027 -0.6344  1.4064
  310MOL0     H42725   4.884   7.839   4.020 -0.3509 -1.7381  1.7328
  310MOL0     H42726   4.840   7.953   4.145 -0.0059 -1.9572  0.5997
  310MOL0     H42727   5.105   7.844   4.076  0.9089  0.0594 -0.1754
  310MOL0     H42728   5.099   7.969   4.203  0.7503 -0.9046 -1.3609
  310MOL0     H42729   4.888   7.892   4.395  0.5116  1.0749  0.3205
  310MOL0     H42730   4.876   7.555   4.576 -2.0048  0.1780 -1.2443
  310MOL0     H42731   4.829   7.719   4.583 -0.0421  0.1135 -2.2949
  310MOL0     H42732   5.096   7.722   4.670 -1.4580  1.6462  1.2749
  310MOL0     H42733   4.971   7.730   4.773  1.8354  2.5990 -1.5511
  310MOL0     H42734   5.116   7.531   4.835  0.0320 -1.7994  0.4094
  310MOL0     H42735   4.942   7.488   4.787  0.7705 -0.9380  0.7904
  310MOL0     H42736   5.032   7.358   4.602  0.5187 -1.0935 -1.4965
  310MOL0     H42737   5.151   7.482   4.566 -2.0073 -1.8276 -1.7010
  310MOL0     H42738   5.213   7.287   4.457  2.0840  0.0639 -2.1206
  310MOL0     H42739   5.248   7.124   4.265  0.9097  0.5999 -2.5811
  310MOL0     H42740   5.409   7.056   4.267 -0.5508  1.0799  0.4635
  310MOL0     H42741   5.380   7.227   4.255  0.4940  1.1033  0.6974
  310MOL0     H42742   5.817   6.908   4.385  3.3905  0.1843  0.4133
  310MOL0     H42743   5.981   6.706   4.355  0.6063 -0.1732  0.1804
  310MOL0     H42744   5.990   6.350   4.631 -1.8391 -4.5943 -0.4128
  310MOL0     H42745   5.857   6.355   4.520 -0.1416  1.5149 -0.3722
  310MOL0     H42746   6.013   6.182   4.409  0.7431 -0.7894  4.4848
  310MOL0     H42747   6.025   6.345   4.326 -0.0996  1.3617  0.8409
  310MOL0     H42748   6.218   6.179   4.466  0.5309 -0.1197  6.0743
  310MOL0     H42749   6.201   6.316   4.564 -2.1665 -2.6787  0.9504
  310MOL0     H42750   6.258   6.466   4.372  0.1296  0.2103 -0.8384
  310MOL0     H42751   6.275   6.325   4.274 -2.1163  1.6712 -0.4306
  310MOL0     H42752   6.481   6.454   4.427 -0.8399  0.9124  0.1742
  310MOL0     H42753   6.422   6.334   4.542 -0.6270  1.2050  0.1386
  310MOL0     H42754   6.492   6.261   4.246 -1.3898 -1.5131  0.3620
  310MOL0     H42755   6.487   6.148   4.379  0.5969 -0.6414  0.4362
  310MOL0     H42756   6.695   6.259   4.481 -0.8787 -0.3096 -0.1691
  310MOL0     H42757   6.693   6.374   4.340  1.8341 -0.7796 -2.6807
  310MOL0     H42758   6.745   6.216   4.183 -0.1435 -2.5712 -0.8126
  310MOL0     H42759   6.679   6.092   4.281 -0.6567 -0.5553  1.0438
  310MOL0     H42760   5.813   6.510   4.682  4.6346  0.2685  0.3998
  310MOL0     H42761   5.646   6.687   4.708 -1.0252 -0.4638 -0.8120
  310MOL0     H42762   5.489   7.008   4.734  1.3033  0.3428 -0.9739
  310MOL0     H42763   5.350   7.177   4.838  1.1919  1.5811  0.3595
  310MOL0     H42764   4.179   8.456   3.827 -2.1592  0.1169  2.1660
  310MOL0     H42765   3.954   8.507   3.734  1.0825  0.1857  0.3392
  310MOL0     H42766   3.610   8.419   3.480  0.4806  2.1087  0.4408
  310MOL0     H42767   3.363   8.464   3.404  0.1820 -0.3497 -0.0082
  310MOL0     H42768   3.039   8.412   3.704 -3.1258  0.1911 -1.5802
  310MOL0     H42769   3.082   8.591   3.704  2.1187  0.9887 -1.3146
  310MOL0     H42770   2.838   8.509   3.634 -1.4713 -0.8021 -0.4747
  310MOL0     H42771   2.912   8.445   3.496 -2.1848  0.7116 -1.2391
  310MOL0     H42772   2.923   8.743   3.564 -3.9760  0.1365  0.1430
  310MOL0     H42773   3.015   8.663   3.433 -1.1341  0.3392 -2.7100
  310MOL0     H42774   2.790   8.567   3.341  3.2012 -0.5322 -0.2013
  310MOL0     H42775   2.829   8.736   3.327 -1.5511  0.4949 -0.5141
  310MOL0     H42776   2.500   8.712   3.619 -1.9247  2.8362 -2.2899
  310MOL0     H42777   3.245   8.471   3.803  1.3903  0.7843  0.5999
  310MOL0     H42778   3.584   8.413   3.967 -0.7635  0.7187  2.1083
  310MOL0     H42779   3.427   8.492   3.982 -0.8242 -2.2499  2.7532
  310MOL0     H42780   3.435   8.321   3.973 -0.8253  1.2088  1.9000
  311MOL0     O42781   7.389   4.610   2.817  0.2942 -0.2121 -0.6384
  311MOL0     C42782   7.282   4.637   2.881  0.1777  0.1850  0.3938
  311MOL0     O42783   7.221   4.764   2.882 -0.3107  0.2453 -0.5524
  311MOL0     C42784   7.273   4.868   2.810  0.2370 -0.7212  1.0107
  311MOL0     C42785   7.285   4.997   2.860  0.4134  0.4112  0.1867
  311MOL0     C42786   7.319   5.103   2.785 -0.0372  0.7014  0.1060
  311MOL0     C42787   7.345   5.095   2.645  0.2962  0.4007 -0.9305
  311MOL0     O42788   7.366   5.216   2.581  0.4359  0.4856  0.1407
  311MOL0     C42789   7.507   5.244   2.568 -0.2765 -0.2350  0.0558
  311MOL0     C42790   7.590   5.175   2.467  1.4249  0.1354 -0.4455
  311MOL0     C42791   7.727   5.225   2.473  0.2021 -0.2486  0.2029
  311MOL0     C42792   7.768   5.331   2.369  0.0517 -0.4977  0.3839
  311MOL0     C42793   7.899   5.382   2.398 -0.6497 -0.4090  0.0059
  311MOL0     C42794   7.928   5.489   2.289 -0.9456  0.7541 -0.5873
  311MOL0     C42795   8.056   5.574   2.312 -0.3893  0.4003  0.4874
  311MOL0     C42796   8.190   5.505   2.281  0.8159 -0.2267 -0.6322
  311MOL0     N42797   8.298   5.600   2.268  0.5294 -0.3319 -1.1618
  311MOL0     C42798   8.382   5.644   2.364 -0.1046 -0.8005  0.0865
  311MOL0     C42799   8.461   5.742   2.293  0.0524  0.7640 -0.5323
  311MOL0     C42800   8.562   5.843   2.337  0.6975 -0.0545 -1.4006
  311MOL0     C42801   8.695   5.782   2.365  0.8324  0.0009  0.4065
  311MOL0     C42802   8.754   5.699   2.258  0.3621 -0.6113  0.5335
  311MOL0     C42803   8.765   5.766   2.125 -0.4008 -0.9606 -0.6300
  311MOL0     O42804   8.836   5.895   2.125 -0.3318 -0.4494  0.4449
  311MOL0     C42805   8.969   5.901   2.163  0.1306 -0.0697 -0.5930
  311MOL0     C42806   9.057   5.788   2.168  0.2972 -0.1705  0.1507
  311MOL0     C42807   9.188   5.802   2.211  0.2714 -0.5964  0.4360
  311MOL0     C42808   9.272   5.672   2.220 -0.2509 -0.4905 -0.3239
  311MOL0     C42809   9.242   5.932   2.239 -0.9699 -0.6460  0.5749
  311MOL0     C42810   9.386   5.953   2.264 -0.1066 -0.9562  0.8107
  311MOL0     O42811   9.422   6.085   2.287 -0.4536 -0.5103 -0.0231
  311MOL0     C42812   9.532   6.110   2.353  0.0873 -0.6060  0.1981
  311MOL0     C42813   9.639   6.161   2.279  0.6819  0.1311  0.7380
  311MOL0     C42814   9.760   6.184   2.343 -0.6706 -0.4106  0.7045
  311MOL0     C42815   9.775   6.174   2.481 -0.3994  0.3443  0.3962
  311MOL0     O42816   9.902   6.191   2.537  0.0358  0.7547  0.2273
  311MOL0     C42817   9.940   6.082   2.629  0.0103 -0.5576 -0.2504
  311MOL0     C42818  10.071   6.018   2.602 -1.2330 -0.0592  0.4521
  311MOL0     C42819  10.197   6.106   2.602 -0.9435 -0.7380  0.9074
  311MOL0     C42820  10.308   6.046   2.511  0.2102 -0.4249 -0.6524
  311MOL0     C42821  10.443   6.113   2.533 -0.1882  0.1867 -0.3746
  311MOL0     C42822  10.549   6.064   2.434 -0.3926 -0.6129 -0.3908
  311MOL0     C42823  10.676   6.143   2.468  0.5024  0.3483 -0.2125
  311MOL0     C42824  10.790   6.089   2.385 -0.0092  0.1157  0.0879
  311MOL0    Cl42825  10.953   6.158   2.432  0.1940 -0.0468  0.0733
  311MOL0     C42826   9.667   6.132   2.557 -0.2483 -0.8166 -0.3762
  311MOL0     C42827   9.549   6.099   2.496  0.9163 -0.2888 -0.8911
  311MOL0     O42828   9.467   5.860   2.260  0.3640 -1.1892  0.7969
  311MOL0     C42829   9.155   6.038   2.233  0.0294 -0.7238 -0.7812
  311MOL0     C42830   9.019   6.025   2.204 -0.5064  0.1306  0.3076
  311MOL0     N42831   8.418   5.745   2.162  0.4380  0.2777  0.2122
  311MOL0     N42832   8.316   5.667   2.150  0.4822 -0.7331 -0.4095
  311MOL0     C42833   7.333   4.961   2.593 -0.1327 -0.0568  0.8789
  311MOL0     C42834   7.301   4.855   2.678 -0.0247  0.0947 -0.5444
  311MOL0     C42835   7.228   4.536   2.970 -0.2556 -1.3010  0.4717
  311MOL0     C42836   7.100   4.556   3.018  0.1871 -0.2401 -1.0680
  311MOL0     C42837   7.035   4.467   3.107 -0.2821 -0.3204  0.8403
  311MOL0     C42838   7.104   4.355   3.156  0.1314 -1.0628  0.6936
  311MOL0     O42839   7.046   4.278   3.253  0.5133 -0.7302  0.5358
  311MOL0     C42840   6.984   4.345   3.364 -0.4366 -0.0355  0.2585
  311MOL0     C42841   6.912   4.250   3.459 -0.2645  0.0454 -0.7244
  311MOL0     C42842   6.847   4.326   3.573  0.1775  0.5250 -0.6138
  311MOL0     C42843   6.703   4.398   3.545  0.6085  0.7919  0.5030
  311MOL0     C42844   6.607   4.288   3.522  0.0537 -0.7713  0.7597
  311MOL0     C42845   6.535   4.195   3.500  0.6985 -0.2370  0.4896
  311MOL0     C42846   7.228   4.329   3.107 -0.2885 -0.2850 -0.0455
  311MOL0     C42847   7.296   4.423   3.020  0.0523  0.3879 -0.0214
  311MOL0     C42848   7.431   4.385   2.964 -0.9159  0.3856 -0.6142
  311MOL0     H42849   7.254   5.015   2.962  1.6820  3.5706  0.1024
  311MOL0     H42850   7.323   5.194   2.843  3.1533  0.4882  0.4356
  311MOL0     H42851   7.550   5.233   2.668 -1.6231  0.7928  0.7824
  311MOL0     H42852   7.508   5.352   2.548  1.9361 -0.3181 -0.4845
  311MOL0     H42853   7.587   5.070   2.494  0.9478  0.7189  1.9882
  311MOL0     H42854   7.555   5.192   2.365  3.6138  0.0107 -1.2755
  311MOL0     H42855   7.757   5.269   2.568  2.1151  2.2234 -1.3850
  311MOL0     H42856   7.796   5.141   2.460  1.7924  1.1930 -1.2620
  311MOL0     H42857   7.753   5.281   2.272  0.4076  0.3040 -0.0938
  311MOL0     H42858   7.702   5.418   2.368  1.9944  1.1069 -2.3508
  311MOL0     H42859   7.972   5.302   2.387 -0.5703 -0.6233  1.8345
  311MOL0     H42860   7.900   5.423   2.499  0.5908  0.0231 -0.1647
  311MOL0     H42861   7.928   5.443   2.190 -2.3435  1.5354 -0.9755
  311MOL0     H42862   7.843   5.557   2.281  0.6889  3.1287  1.0141
  311MOL0     H42863   8.060   5.621   2.411  2.5543  1.2700  0.0758
  311MOL0     H42864   8.047   5.653   2.236 -0.0639  0.9067  0.9696
  311MOL0     H42865   8.202   5.428   2.358 -3.5643 -1.2279 -0.6504
  311MOL0     H42866   8.172   5.459   2.183 -1.5455  1.7692 -1.2495
  311MOL0     H42867   8.388   5.619   2.469  0.2146 -2.0577 -0.2157
  311MOL0     H42868   8.532   5.886   2.433 -0.9638 -2.5976 -0.6685
  311MOL0     H42869   8.582   5.931   2.275  3.4462 -1.5284 -2.7857
  311MOL0     H42870   8.770   5.861   2.379  1.1345  1.2355 -5.4773
  311MOL0     H42871   8.696   5.729   2.460  0.6512  1.1600  1.0728
  311MOL0     H42872   8.854   5.684   2.297  0.7607 -2.0272 -0.9460
  311MOL0     H42873   8.704   5.603   2.243 -1.0256  0.3081 -1.1338
  311MOL0     H42874   8.808   5.692   2.057  1.9215 -0.3270  0.0627
  311MOL0     H42875   8.667   5.778   2.078 -0.3197  1.2124 -0.3486
  311MOL0     H42876   9.015   5.691   2.143 -0.7249  0.2553  0.1980
  311MOL0     H42877   9.356   5.667   2.150 -2.4211 -3.2732 -2.9857
  311MOL0     H42878   9.220   5.581   2.191  0.9000 -0.6789 -1.9893
  311MOL0     H42879   9.315   5.664   2.320 -0.4705  0.2272 -0.1615
  311MOL0     H42880   9.626   6.192   2.176 -0.0837  2.2833  1.4168
  311MOL0     H42881   9.853   6.216   2.299  0.0113 -2.8296  0.2028
  311MOL0     H42882   9.949   6.128   2.728  0.0374  0.0206 -0.5171
  311MOL0     H42883   9.859   6.009   2.624 -0.6324  0.1745 -0.8199
  311MOL0     H42884  10.088   5.954   2.689  1.8573  2.7055  2.1132
  311MOL0     H42885  10.062   5.947   2.518 -0.0954 -0.3243  0.5367
  311MOL0     H42886  10.238   6.121   2.702  0.8575  1.9106 -0.1225
  311MOL0     H42887  10.175   6.208   2.572 -0.4744 -0.5614  1.1596
  311MOL0     H42888  10.273   6.058   2.408  2.0153 -1.4535 -1.4225
  311MOL0     H42889  10.314   5.937   2.517  1.0177 -0.3904 -0.6784
  311MOL0     H42890  10.424   6.218   2.510 -0.0948  0.3535  0.2879
  311MOL0     H42891  10.468   6.113   2.640 -0.8512 -0.1023 -0.2137
  311MOL0     H42892  10.519   6.081   2.330 -1.3624  0.3841  0.0295
  311MOL0     H42893  10.559   5.956   2.442 -0.5220 -0.9029 -3.1661
  311MOL0     H42894  10.705   6.138   2.573  2.3075 -1.4354 -0.7222
  311MOL0     H42895  10.665   6.249   2.443 -3.0649  0.4867  1.3938
  311MOL0     H42896  10.771   6.111   2.280  2.6296 -0.3749 -0.5824
  311MOL0     H42897  10.807   5.981   2.398  3.3850  0.6727  1.3568
  311MOL0     H42898   9.677   6.135   2.665  0.3405  2.4666 -0.4354
  311MOL0     H42899   9.460   6.068   2.550  0.6003  0.2378 -1.1068
  311MOL0     H42900   9.174   6.143   2.251  0.6254 -0.6349 -1.8593
  311MOL0     H42901   8.943   6.102   2.193 -3.5298 -2.3754  1.8586
  311MOL0     H42902   7.356   4.949   2.487  1.9216 -0.2737  1.3088
  311MOL0     H42903   7.300   4.758   2.629 -1.8874  0.4889 -1.3549
  311MOL0     H42904   7.034   4.640   2.994  0.6471  0.6625  0.6579
  311MOL0     H42905   6.932   4.474   3.142  0.5355  0.3162  3.3197
  311MOL0     H42906   7.056   4.404   3.422 -1.9801  0.6057  1.6110
  311MOL0     H42907   6.907   4.412   3.324  0.4125  0.7622 -0.0864
  311MOL0     H42908   6.982   4.188   3.515 -1.7415 -0.6923  0.3967
  311MOL0     H42909   6.836   4.183   3.418 -0.2955  0.0965 -0.7507
  311MOL0     H42910   6.825   4.273   3.666 -0.7622  1.8688 -0.0362
  311MOL0     H42911   6.908   4.409   3.609 -0.6197  0.4684  0.9452
  311MOL0     H42912   6.703   4.459   3.454 -0.6992  0.6187  0.3661
  311MOL0     H42913   6.679   4.475   3.618  1.3945  1.5144  0.0087
  311MOL0     H42914   6.470   4.113   3.476  0.5483  0.1109 -0.3167
  311MOL0     H42915   7.282   4.248   3.155  1.2423 -0.1191 -1.3784
  311MOL0     H42916   7.458   4.279   2.975 -3.3919 -0.0923  2.4773
  311MOL0     H42917   7.435   4.383   2.855  1.4831 -0.8065 -0.5720
  311MOL0     H42918   7.513   4.443   3.008 -0.8177  0.1337 -0.4595
  312MOL0     O42919   6.802   7.249   7.009 -0.5349 -0.5652  0.2031
  312MOL0     C42920   6.802   7.371   6.984 -0.2052  0.4546  0.2602
  312MOL0     O42921   6.875   7.463   7.050  0.8339  0.1505  0.1684
  312MOL0     C42922   6.947   7.424   7.157 -0.3528 -0.0325  0.4300
  312MOL0     C42923   6.899   7.404   7.289  0.0177 -0.4986 -0.0908
  312MOL0     C42924   6.977   7.369   7.399 -0.0996 -0.0115  0.6177
  312MOL0     C42925   7.112   7.342   7.382  0.5168  0.3644  0.5102
  312MOL0     O42926   7.170   7.281   7.493 -0.6182 -0.1157 -0.1257
  312MOL0     C42927   7.299   7.222   7.479 -0.1471  0.8115 -1.0477
  312MOL0     C42928   7.408   7.325   7.482  0.1675 -0.8542  0.1306
  312MOL0     C42929   7.538   7.285   7.547 -0.4980  0.1321 -0.0383
  312MOL0     C42930   7.633   7.404   7.583  0.0542  0.3252 -0.3032
  312MOL0     C42931   7.660   7.425   7.730  0.7895 -0.4178 -0.5241
  312MOL0     C42932   7.762   7.534   7.764  0.2537  0.0237  0.3986
  312MOL0     C42933   7.909   7.508   7.724  0.5373 -0.1067  0.2642
  312MOL0     C42934   7.986   7.439   7.845 -0.0973  0.5394 -0.8930
  312MOL0     N42935   8.132   7.414   7.817  1.0316  0.6377 -0.4770
  312MOL0     C42936   8.178   7.369   7.697  0.2662 -1.0650  0.5031
  312MOL0     C42937   8.308   7.333   7.730  0.1701  0.0455  0.6878
  312MOL0     C42938   8.418   7.268   7.647 -0.4751  0.1373  0.2734
  312MOL0     C42939   8.379   7.117   7.626 -1.0324  0.4846 -0.4035
  312MOL0     C42940   8.444   7.058   7.500 -0.0584 -0.0045  0.1948
  312MOL0     C42941   8.596   7.075   7.510 -0.9068 -0.0842  0.1928
  312MOL0     O42942   8.658   6.974   7.424 -0.1472 -0.2985 -0.5228
  312MOL0     C42943   8.793   6.943   7.432  0.1310  0.7286 -0.4499
  312MOL0     C42944   8.874   6.985   7.536 -0.2756 -0.4245 -0.1231
  312MOL0     C42945   9.013   6.962   7.526  0.3271  0.2727  0.3758
  312MOL0     C42946   9.100   7.041   7.632  0.0096 -0.1916 -0.1560
  312MOL0     C42947   9.066   6.877   7.426 -0.2175  0.9535 -0.0721
  312MOL0     C42948   9.206   6.835   7.415 -0.5651  0.2659 -0.6771
  312MOL0     O42949   9.237   6.753   7.302 -0.4952 -0.2255 -0.3313
  312MOL0     C42950   9.364   6.700   7.280  0.5896  0.1238  0.4851
  312MOL0     C42951   9.366   6.582   7.202 -0.1516 -0.2974 -0.3355
  312MOL0     C42952   9.486   6.508   7.180  0.2492 -0.0699  0.6458
  312MOL0     C42953   9.602   6.553   7.233  0.0771 -0.5520  0.1861
  312MOL0     O42954   9.710   6.479   7.184  0.9795 -0.7876 -0.5345
  312MOL0     C42955   9.842   6.540   7.178 -0.1080 -0.4173 -0.3493
  312MOL0     C42956   9.930   6.450   7.099  0.0322 -0.4651 -0.1800
  312MOL0     C42957  10.070   6.504   7.077  0.6780 -0.4227 -0.5352
  312MOL0     C42958  10.145   6.408   6.982 -0.0617  0.3105  0.4737
  312MOL0     C42959  10.284   6.473   6.948  0.1405 -0.1778 -0.8434
  312MOL0     C42960  10.370   6.420   6.830 -0.3311  0.1662 -0.2047
  312MOL0     C42961  10.502   6.504   6.841  0.4624  0.1178 -0.8487
  312MOL0     C42962  10.618   6.439   6.765  1.1639  0.4560  0.9088
  312MOL0    Cl42963  10.594   6.455   6.590  0.2027  0.2893 -0.0446
  312MOL0     C42964   9.602   6.671   7.323  0.2803  0.6216 -0.2375
  312MOL0     C42965   9.487   6.741   7.336  0.1931 -0.1556  0.9818
  312MOL0     O42966   9.278   6.856   7.509  0.0692 -0.1934  0.2245
  312MOL0     C42967   8.976   6.835   7.327  0.1148  0.3652 -0.2664
  312MOL0     C42968   8.840   6.865   7.332  0.1163  0.9788  0.2066
  312MOL0     N42969   8.343   7.371   7.858  1.2362  0.3362  0.3974
  312MOL0     N42970   8.225   7.410   7.912 -0.5193 -0.4726 -0.0642
  312MOL0     C42971   7.168   7.354   7.251 -0.8926  0.1468  0.8352
  312MOL0     C42972   7.089   7.405   7.144  0.5172 -0.6573  0.3437
  312MOL0     C42973   6.727   7.419   6.862 -0.3673 -0.3636 -0.6583
  312MOL0     C42974   6.747   7.556   6.834 -0.7253  0.6146 -0.0663
  312MOL0     C42975   6.680   7.609   6.722 -0.7682  0.3838 -0.2302
  312MOL0     C42976   6.576   7.542   6.658  0.0151  0.5169  0.8582
  312MOL0     O42977   6.486   7.606   6.578 -0.4663 -0.4567 -0.2942
  312MOL0     C42978   6.425   7.533   6.473  1.4195 -0.6586  0.6581
  312MOL0     C42979   6.281   7.510   6.506  0.7770  0.3837  0.0507
  312MOL0     C42980   6.213   7.394   6.422  0.4738 -0.3873 -0.6066
  312MOL0     C42981   6.186   7.428   6.272  0.2559 -0.0039  0.2351
  312MOL0     C42982   6.063   7.370   6.214 -0.3900  0.0812 -0.5822
  312MOL0     C42983   5.957   7.334   6.175  0.0945  0.7693  0.0366
  312MOL0     C42984   6.548   7.408   6.697  0.4509 -0.5290 -0.1461
  312MOL0     C42985   6.626   7.346   6.799 -0.1936  0.1593 -0.6277
  312MOL0     C42986   6.600   7.199   6.827  0.3448  0.1850 -0.1442
  312MOL0     H42987   6.794   7.407   7.316  0.4235  2.0651  1.5607
  312MOL0     H42988   6.924   7.360   7.493 -2.7774  0.6955 -0.7364
  312MOL0     H42989   7.305   7.143   7.403 -3.6196 -0.6158 -0.0462
  312MOL0     H42990   7.312   7.166   7.572  1.1789 -1.5395 -2.5226
  312MOL0     H42991   7.435   7.356   7.381  3.0186 -0.1244  1.0266
  312MOL0     H42992   7.368   7.409   7.539  3.8064 -0.3980  2.3467
  312MOL0     H42993   7.520   7.223   7.635  0.1179 -2.4387 -1.6175
  312MOL0     H42994   7.600   7.221   7.483  1.0320  0.2198  1.3018
  312MOL0     H42995   7.731   7.404   7.535 -1.1024  1.7712 -2.8681
  312MOL0     H42996   7.586   7.497   7.549 -2.2648 -1.0766 -1.1455
  312MOL0     H42997   7.692   7.331   7.776  1.5498 -0.5352 -1.2813
  312MOL0     H42998   7.568   7.444   7.787  2.3756 -3.3007  3.5532
  312MOL0     H42999   7.729   7.630   7.721 -0.4941 -0.4228 -0.0327
  312MOL0     H43000   7.764   7.548   7.873 -1.7312  2.8798  0.1932
  312MOL0     H43001   7.954   7.604   7.699  2.8734 -1.1527  0.1239
  312MOL0     H43002   7.917   7.449   7.632  1.3535  1.3823 -0.6604
  312MOL0     H43003   7.980   7.508   7.931 -0.4188 -1.4664  0.7726
  312MOL0     H43004   7.951   7.339   7.870 -1.4949  1.2162  0.0448
  312MOL0     H43005   8.129   7.361   7.601  2.9443 -1.2603 -0.9328
  312MOL0     H43006   8.506   7.276   7.712 -1.0652  1.6728  0.9223
  312MOL0     H43007   8.436   7.316   7.551  5.4076 -3.1245 -0.8020
  312MOL0     H43008   8.416   7.060   7.712 -1.1948 -0.1741 -0.7599
  312MOL0     H43009   8.271   7.122   7.610 -1.1280 -1.1814 -0.4794
  312MOL0     H43010   8.420   6.951   7.495  1.8588 -0.4317 -0.7679
  312MOL0     H43011   8.402   7.106   7.411 -0.8431 -0.0341  0.5376
  312MOL0     H43012   8.618   7.177   7.479  3.1453 -1.5686 -2.7659
  312MOL0     H43013   8.620   7.058   7.615 -0.5360  3.3937  0.7857
  312MOL0     H43014   8.837   7.044   7.619 -1.2901 -1.8440  0.4790
  312MOL0     H43015   9.036   7.094   7.703  0.9156 -0.3096  0.7737
  312MOL0     H43016   9.160   7.109   7.571  1.0344  0.2193  1.2503
  312MOL0     H43017   9.170   6.976   7.686 -0.1655 -1.1390 -1.0292
  312MOL0     H43018   9.276   6.546   7.152 -0.8985  0.2510  0.5865
  312MOL0     H43019   9.490   6.430   7.105 -1.3120 -1.6085  2.0821
  312MOL0     H43020   9.846   6.635   7.124 -3.6715 -1.0000 -1.8909
  312MOL0     H43021   9.881   6.547   7.280 -0.2017  0.5879 -0.3672
  312MOL0     H43022   9.937   6.355   7.153  2.8682  0.2750  0.9132
  312MOL0     H43023   9.873   6.426   7.009 -3.0360  1.6040  1.0333
  312MOL0     H43024  10.113   6.517   7.177  0.3971 -2.8987 -0.0375
  312MOL0     H43025  10.068   6.607   7.040 -1.0342 -0.1490  0.1809
  312MOL0     H43026  10.092   6.380   6.891 -1.1964  1.6105  0.7069
  312MOL0     H43027  10.152   6.307   7.024  0.5970 -1.0706 -2.6832
  312MOL0     H43028  10.261   6.572   6.909  1.1637 -0.7494 -3.0636
  312MOL0     H43029  10.342   6.482   7.041 -0.1212  0.0182 -0.6972
  312MOL0     H43030  10.321   6.438   6.734 -3.2736 -0.6345  1.0353
  312MOL0     H43031  10.379   6.314   6.852 -2.1656 -0.1211 -0.6682
  312MOL0     H43032  10.522   6.508   6.948 -1.8481  3.3719 -0.3744
  312MOL0     H43033  10.486   6.605   6.801 -1.0537 -0.5448 -2.0191
  312MOL0     H43034  10.628   6.331   6.783  3.1057  0.3357 -0.5561
  312MOL0     H43035  10.705   6.491   6.806 -1.1578  4.0473  1.7050
  312MOL0     H43036   9.693   6.690   7.379 -0.1351  0.8065  0.3965
  312MOL0     H43037   9.493   6.834   7.392  1.7085  0.4431 -0.1094
  312MOL0     H43038   8.996   6.776   7.238 -0.7936  0.7563 -0.7427
  312MOL0     H43039   8.769   6.826   7.260 -0.3064 -0.1260  1.1890
  312MOL0     H43040   7.273   7.325   7.243  0.5946  4.6673  1.3001
  312MOL0     H43041   7.141   7.416   7.049 -0.7364 -1.6858 -0.5020
  312MOL0     H43042   6.814   7.630   6.878  0.6903  0.8819 -2.5061
  312MOL0     H43043   6.694   7.715   6.705 -0.5166  0.3023 -0.5477
  312MOL0     H43044   6.424   7.597   6.384  0.8135  0.0454  1.1598
  312MOL0     H43045   6.483   7.441   6.460  0.3530 -1.1754 -0.7665
  312MOL0     H43046   6.221   7.601   6.490  0.6403  0.0464 -1.5882
  312MOL0     H43047   6.276   7.467   6.606 -4.8314 -2.1348 -0.8944
  312MOL0     H43048   6.266   7.300   6.436  4.0532  1.4093 -0.8028
  312MOL0     H43049   6.117   7.375   6.471  0.5491  1.9609  0.5982
  312MOL0     H43050   6.275   7.397   6.216 -0.2788  1.9456 -1.8282
  312MOL0     H43051   6.168   7.535   6.258 -0.3106 -0.2408 -1.0054
  312MOL0     H43052   5.872   7.289   6.128  1.2447 -0.1944 -1.2171
  312MOL0     H43053   6.467   7.356   6.647  0.3373  1.0415 -1.6843
  312MOL0     H43054   6.578   7.175   6.932 -2.3810  0.5011 -0.5684
  312MOL0     H43055   6.513   7.160   6.774  0.8445 -2.1726  0.6075
  312MOL0     H43056   6.684   7.134   6.802 -0.2090 -0.8673  0.5987
  313MOL0     O43057  10.066   3.287   5.411  0.6810  0.3104 -0.2322
  313MOL0     C43058   9.968   3.228   5.373  0.2629  0.0440 -0.0751
  313MOL0     O43059   9.969   3.094   5.330  0.3707  0.8454  0.7100
  313MOL0     C43060  10.083   3.029   5.305 -0.1456 -0.3244 -0.3190
  313MOL0     C43061  10.090   2.902   5.351  0.0460  0.3535 -0.2278
  313MOL0     C43062  10.200   2.819   5.324 -1.0568  0.2092  0.4407
  313MOL0     C43063  10.316   2.868   5.246 -0.1103  0.0718  0.0841
  313MOL0     O43064  10.433   2.803   5.212 -0.1028 -0.0051 -0.1891
  313MOL0     C43065  10.462   2.691   5.303 -0.9389 -0.2710  0.0333
  313MOL0     C43066  10.587   2.613   5.269 -0.8528  0.7577 -0.5366
  313MOL0     C43067  10.603   2.505   5.378 -0.6879  0.8183  0.5160
  313MOL0     C43068  10.505   2.390   5.359  0.6105 -1.0134  0.0015
  313MOL0     C43069  10.553   2.278   5.454  0.6344 -0.5472 -0.0292
  313MOL0     C43070  10.477   2.150   5.422 -0.1257  0.0667  0.2849
  313MOL0     C43071  10.525   2.045   5.522  0.4633  0.1858  0.4792
  313MOL0     C43072  10.478   1.900   5.492  0.4959 -0.5877  0.3296
  313MOL0     N43073  10.334   1.879   5.517  0.2831  0.0756 -0.0616
  313MOL0     C43074  10.245   1.843   5.419  1.1578 -0.1218 -0.2009
  313MOL0     C43075  10.133   1.842   5.492 -0.4013 -0.4807  0.3253
  313MOL0     C43076  10.000   1.800   5.461 -0.2250  0.5270  0.0149
  313MOL0     C43077   9.978   1.658   5.504  0.5077  0.3645 -0.5970
  313MOL0     C43078   9.872   1.598   5.414 -0.1045  0.0783 -0.1287
  313MOL0     C43079   9.738   1.640   5.474 -0.7945 -0.2267 -0.1093
  313MOL0     O43080   9.631   1.578   5.399  0.0037 -0.7815  0.1005
  313MOL0     C43081   9.593   1.620   5.277 -0.4673  0.3737 -0.1536
  313MOL0     C43082   9.637   1.740   5.218  0.0636  0.1543  0.7936
  313MOL0     C43083   9.613   1.776   5.077 -0.0749  0.5672 -0.5364
  313MOL0     C43084   9.670   1.909   5.026  0.6347 -0.3056 -1.1816
  313MOL0     C43085   9.526   1.685   5.005  0.1536  0.1269  0.8628
  313MOL0     C43086   9.485   1.713   4.866  1.2207  0.2744  0.9038
  313MOL0     O43087   9.399   1.622   4.816 -0.7199 -0.5297  0.9669
  313MOL0     C43088   9.391   1.623   4.684  0.1236  0.0283  1.1714
  313MOL0     C43089   9.313   1.715   4.613  0.1991 -0.3969  0.6873
  313MOL0     C43090   9.301   1.709   4.471 -0.9633  0.3143  0.2872
  313MOL0     C43091   9.376   1.615   4.401  0.8696 -0.2300 -0.7662
  313MOL0     O43092   9.356   1.611   4.264  0.2950  0.4890 -0.0623
  313MOL0     C43093   9.443   1.524   4.193  0.1920  0.6840  0.0668
  313MOL0     C43094   9.416   1.544   4.038 -1.2797  0.3380 -0.5909
  313MOL0     C43095   9.475   1.431   3.950 -0.5634 -0.2825 -0.2459
  313MOL0     C43096   9.429   1.429   3.806 -1.1620  0.4366 -0.1062
  313MOL0     C43097   9.526   1.354   3.722 -1.1890  0.3126  0.4544
  313MOL0     C43098   9.476   1.347   3.581 -0.3461 -0.0859  0.0455
  313MOL0     C43099   9.559   1.253   3.492  0.5938 -0.4476 -0.2216
  313MOL0     C43100   9.507   1.260   3.353 -0.0492 -0.0180 -0.2575
  313MOL0    Cl43101   9.623   1.188   3.244 -0.4514 -0.1991  0.0143
  313MOL0     C43102   9.461   1.525   4.467 -0.3101 -0.5473 -0.0753
  313MOL0     C43103   9.467   1.533   4.605 -0.2943 -0.0109 -1.0005
  313MOL0     O43104   9.538   1.801   4.801  0.7354 -0.2557  1.1915
  313MOL0     C43105   9.487   1.560   5.071 -0.8593 -0.4785  0.0829
  313MOL0     C43106   9.524   1.522   5.201 -0.6989 -0.7685 -0.7257
  313MOL0     N43107  10.159   1.873   5.624 -0.4596 -0.0441  0.0606
  313MOL0     N43108  10.283   1.878   5.640 -0.0641  0.4599  0.4381
  313MOL0     C43109  10.299   2.997   5.197 -0.3748  0.0459 -0.7780
  313MOL0     C43110  10.191   3.083   5.225 -1.0585  0.4221 -0.9885
  313MOL0     C43111   9.836   3.294   5.358 -0.3811 -0.5899  0.2705
  313MOL0     C43112   9.731   3.226   5.309  0.5014  0.2628 -0.1586
  313MOL0     C43113   9.598   3.280   5.297 -0.3078 -0.1308  0.3841
  313MOL0     C43114   9.579   3.412   5.322  0.5228 -0.6144  0.0773
  313MOL0     O43115   9.465   3.486   5.304 -0.4514 -0.7278  0.6396
  313MOL0     C43116   9.417   3.546   5.429  0.7968  0.5431  0.5029
  313MOL0     C43117   9.263   3.565   5.411  0.2384 -0.4287 -0.3883
  313MOL0     C43118   9.229   3.670   5.301  0.1910 -0.5409  0.6411
  313MOL0     C43119   9.079   3.701   5.285 -0.3911  0.7697  0.5813
  313MOL0     C43120   9.008   3.584   5.232 -0.1672 -0.0817  0.3429
  313MOL0     C43121   8.940   3.491   5.192  0.1887  0.2230 -0.1510
  313MOL0     C43122   9.691   3.492   5.357  1.0618 -0.1567 -0.6350
  313MOL0     C43123   9.815   3.431   5.387  0.8027 -0.9515 -0.3170
  313MOL0     C43124   9.923   3.528   5.426 -0.0902  0.5035 -0.6948
  313MOL0     H43125  10.014   2.866   5.419 -0.4296 -1.2652 -1.5568
  313MOL0     H43126  10.195   2.724   5.375 -0.6671 -1.4396 -2.3955
  313MOL0     H43127  10.382   2.616   5.309 -0.8482 -0.2647  2.8943
  313MOL0     H43128  10.466   2.730   5.406 -0.7100 -0.2303  0.0093
  313MOL0     H43129  10.576   2.566   5.171  0.8551 -0.1369 -0.3373
  313MOL0     H43130  10.667   2.688   5.276  1.1218 -1.4431  2.9159
  313MOL0     H43131  10.704   2.467   5.361 -0.2894  3.0953 -3.4678
  313MOL0     H43132  10.597   2.552   5.477 -0.0624  0.5014  0.7094
  313MOL0     H43133  10.405   2.426   5.386  0.4724 -0.8467 -0.7229
  313MOL0     H43134  10.513   2.355   5.256  1.6679 -0.2580 -0.1887
  313MOL0     H43135  10.543   2.322   5.554  1.1439 -2.2002  0.7885
  313MOL0     H43136  10.659   2.266   5.430  0.6354  1.7467 -1.5331
  313MOL0     H43137  10.369   2.162   5.431 -0.3120  0.1375 -1.6313
  313MOL0     H43138  10.491   2.128   5.315 -5.6505  1.0811 -0.9451
  313MOL0     H43139  10.476   2.074   5.616 -3.0924 -0.4541 -1.0302
  313MOL0     H43140  10.633   2.051   5.533  0.6533 -4.0017  3.0391
  313MOL0     H43141  10.515   1.868   5.394  1.5885 -0.2252  0.6033
  313MOL0     H43142  10.530   1.842   5.570  2.4969 -1.1052 -1.2921
  313MOL0     H43143  10.261   1.820   5.314  3.2003 -0.4123  0.1253
  313MOL0     H43144   9.994   1.808   5.352  3.4465 -2.6283 -0.6255
  313MOL0     H43145   9.932   1.871   5.509  3.2134  2.0637  3.0561
  313MOL0     H43146  10.072   1.604   5.496  0.5828  0.4423 -0.2655
  313MOL0     H43147   9.954   1.661   5.611  1.3704  1.9436 -0.4172
  313MOL0     H43148   9.883   1.627   5.308 -3.0592  0.6957 -0.3539
  313MOL0     H43149   9.883   1.489   5.415  1.1751  0.1856 -0.6026
  313MOL0     H43150   9.735   1.617   5.580  1.9629  0.1319  0.1326
  313MOL0     H43151   9.719   1.746   5.456  1.1989 -0.1449 -2.2243
  313MOL0     H43152   9.688   1.813   5.281 -0.7496  3.3182 -1.9860
  313MOL0     H43153   9.697   1.889   4.922 -4.8372 -2.4114 -2.5668
  313MOL0     H43154   9.762   1.935   5.079 -0.3916  1.2751 -0.0601
  313MOL0     H43155   9.599   1.992   5.032  1.5665  0.3842  2.6031
  313MOL0     H43156   9.261   1.801   4.653  0.2778 -1.2684  2.7524
  313MOL0     H43157   9.237   1.778   4.418  0.4690  0.5184 -1.2573
  313MOL0     H43158   9.551   1.536   4.210  0.1919  3.5770 -1.4357
  313MOL0     H43159   9.422   1.419   4.216 -3.0881  1.8560  3.2069
  313MOL0     H43160   9.309   1.563   4.021 -1.1171  1.9110 -0.0248
  313MOL0     H43161   9.464   1.637   4.009 -1.5794  2.0141  3.6254
  313MOL0     H43162   9.449   1.331   3.987  0.7514 -0.5526 -0.0137
  313MOL0     H43163   9.584   1.435   3.959 -0.4505 -1.1306 -1.0528
  313MOL0     H43164   9.425   1.534   3.776 -0.4919  0.8198  1.0758
  313MOL0     H43165   9.327   1.389   3.801 -0.8337 -0.2591 -1.5981
  313MOL0     H43166   9.620   1.409   3.709 -0.4194 -0.9722  0.2671
  313MOL0     H43167   9.543   1.252   3.760  0.4882 -0.4219 -1.9800
  313MOL0     H43168   9.473   1.449   3.540  0.2019 -0.5205 -1.1354
  313MOL0     H43169   9.372   1.315   3.576 -1.2285  2.5308  0.0535
  313MOL0     H43170   9.557   1.151   3.529  0.5040 -0.3366  0.0784
  313MOL0     H43171   9.661   1.292   3.494  0.2149  0.5470  0.6468
  313MOL0     H43172   9.506   1.366   3.327  2.0248 -0.0169 -0.5035
  313MOL0     H43173   9.412   1.208   3.339  0.3680 -0.9957  0.4094
  313MOL0     H43174   9.520   1.455   4.407 -0.6684  0.3552 -1.5375
  313MOL0     H43175   9.533   1.469   4.663  0.8111  0.2629 -1.9507
  313MOL0     H43176   9.431   1.484   5.017 -1.1572  0.5056 -1.0282
  313MOL0     H43177   9.492   1.427   5.241 -0.6187 -0.4137  0.1997
  313MOL0     H43178  10.377   3.047   5.139 -1.0196  0.6338 -1.1546
  313MOL0     H43179  10.203   3.188   5.202  2.4607  0.6639  1.2703
  313MOL0     H43180   9.737   3.123   5.276  0.9141 -0.1636  1.1959
  313MOL0     H43181   9.510   3.241   5.245 -1.9229  3.2017  0.3922
  313MOL0     H43182   9.439   3.479   5.513  2.6360 -0.6418 -0.8374
  313MOL0     H43183   9.454   3.646   5.453 -2.1591  2.2640 -1.3989
  313MOL0     H43184   9.229   3.614   5.503 -0.4963  2.9276 -2.2759
  313MOL0     H43185   9.204   3.473   5.403 -2.6355  1.2672 -0.1658
  313MOL0     H43186   9.282   3.763   5.324  0.8705 -1.0516  1.1601
  313MOL0     H43187   9.248   3.620   5.206 -2.9775 -2.0121  0.6390
  313MOL0     H43188   9.065   3.775   5.207 -1.8376  0.9094  0.9538
  313MOL0     H43189   9.030   3.736   5.377  0.4788 -1.2482  1.9097
  313MOL0     H43190   8.885   3.412   5.144 -0.2577  1.4863 -1.8545
  313MOL0     H43191   9.674   3.597   5.377  1.2368 -0.3017  0.2999
  313MOL0     H43192  10.004   3.540   5.353  3.5177  0.0585  2.8935
  313MOL0     H43193   9.890   3.631   5.439 -1.2449 -0.0042  0.5696
  313MOL0     H43194   9.972   3.493   5.517  0.5636 -0.5814 -1.4292
  314MOL0     O43195   5.349   9.091   7.140  0.3591 -0.2017  0.0804
  314MOL0     C43196   5.303   9.191   7.189 -0.1881 -0.2642  0.5345
  314MOL0     O43197   5.375   9.291   7.242  0.8417  0.2858 -0.0151
  314MOL0     C43198   5.511   9.317   7.215 -0.4877 -0.0365 -0.6291
  314MOL0     C43199   5.581   9.391   7.314 -0.1951 -0.3555 -0.1247
  314MOL0     C43200   5.696   9.469   7.285  0.1699  0.5119 -0.5199
  314MOL0     C43201   5.754   9.461   7.155  0.2725  0.1500  0.0411
  314MOL0     O43202   5.867   9.528   7.114  0.1549  0.5884  0.3030
  314MOL0     C43203   5.851   9.675   7.126 -0.8968 -0.2686  0.6153
  314MOL0     C43204   5.977   9.746   7.069 -0.5114 -0.5069 -0.1110
  314MOL0     C43205   5.947   9.899   7.050 -0.0964 -0.8974 -1.0110
  314MOL0     C43206   6.075   9.967   7.012  0.4175 -1.0345  0.1300
  314MOL0     C43207   6.145   9.907   6.892 -0.3162  0.4421  0.0778
  314MOL0     C43208   6.269   9.997   6.864 -0.8872 -0.9876  0.4981
  314MOL0     C43209   6.397   9.964   6.938  1.0463  0.4372  0.1940
  314MOL0     C43210   6.472  10.088   6.970 -0.0133 -0.2562  0.2722
  314MOL0     N43211   6.603  10.036   7.021  0.0697 -0.0836 -0.1092
  314MOL0     C43212   6.658  10.073   7.146 -1.2126 -0.1271  0.1994
  314MOL0     C43213   6.794  10.040   7.142  0.0253  0.4432 -0.8992
  314MOL0     C43214   6.903  10.058   7.250  0.2582 -0.0350 -0.2354
  314MOL0     C43215   6.980   9.928   7.278  0.2572 -0.0907  0.6919
  314MOL0     C43216   7.094   9.945   7.381  0.4180  0.5910 -0.6050
  314MOL0     C43217   7.232   9.940   7.313  0.4566 -1.0710  0.2188
  314MOL0     O43218   7.244  10.033   7.195  0.9983 -0.5435  0.7131
  314MOL0     C43219   7.360  10.066   7.135  0.2219 -0.2917  0.0862
  314MOL0     C43220   7.376  10.186   7.069  0.4391 -0.2329 -0.1761
  314MOL0     C43221   7.497  10.222   6.997  0.9177  0.5533  0.1558
  314MOL0     C43222   7.494  10.375   6.948  0.6694 -0.8043 -0.1426
  314MOL0     C43223   7.604  10.135   7.006 -0.4463  1.3780  0.6622
  314MOL0     C43224   7.739  10.163   6.946  0.3876  0.4584  0.2468
  314MOL0     O43225   7.742  10.256   6.848 -0.7699  0.4567  0.6539
  314MOL0     C43226   7.866  10.311   6.805  1.0459  0.0376  0.3643
  314MOL0     C43227   7.865  10.354   6.671 -0.6708 -0.1936  0.1197
  314MOL0     C43228   7.960  10.444   6.618 -0.6724  0.2145  0.0745
  314MOL0     C43229   8.070  10.484   6.702 -0.2280 -0.4332 -0.8791
  314MOL0     O43230   8.169  10.555   6.643 -0.4111 -0.0329  0.6047
  314MOL0     C43231   8.267  10.616   6.723  0.5973 -0.1687 -0.7828
  314MOL0     C43232   8.353  10.717   6.650  0.2890 -0.6832 -0.6371
  314MOL0     C43233   8.281  10.838   6.582  0.2018  0.7658 -0.3891
  314MOL0     C43234   8.171  10.904   6.673 -0.7994 -0.2213 -0.4902
  314MOL0     C43235   8.115  11.037   6.615 -0.1453  0.5295  0.2056
  314MOL0     C43236   7.981  11.078   6.678 -0.1668  0.3433  0.5510
  314MOL0     C43237   7.931  11.225   6.644  0.4362  0.1465  0.0317
  314MOL0     C43238   7.838  11.273   6.749  0.8713  0.8238 -0.6136
  314MOL0    Cl43239   7.716  11.383   6.682  0.0705 -0.1479 -0.3421
  314MOL0     C43240   8.067  10.446   6.834  0.5139  0.6480  0.4855
  314MOL0     C43241   7.969  10.360   6.893 -0.1800  0.4436 -0.6090
  314MOL0     O43242   7.832  10.120   7.013 -0.3067  0.1855  0.4099
  314MOL0     C43243   7.590  10.014   7.079  0.1763 -0.5266 -1.2662
  314MOL0     C43244   7.463   9.983   7.134 -1.4478  0.0858  0.1983
  314MOL0     N43245   6.812   9.990   7.015  0.4491  0.1007  1.2291
  314MOL0     N43246   6.706  10.006   6.939 -0.4380  0.0869  0.2305
  314MOL0     C43247   5.692   9.377   7.062 -0.0802 -0.3592  0.2415
  314MOL0     C43248   5.577   9.305   7.087  0.3391 -0.3779  0.2091
  314MOL0     C43249   5.160   9.198   7.221  0.7083 -0.1324 -0.0140
  314MOL0     C43250   5.112   9.284   7.326  0.0908  0.1500 -0.1656
  314MOL0     C43251   4.974   9.286   7.355  0.4216 -0.1698 -1.3101
  314MOL0     C43252   4.885   9.207   7.298 -0.2115  0.5783  0.6125
  314MOL0     O43253   4.746   9.216   7.324 -1.1781 -0.3981 -0.1635
  314MOL0     C43254   4.707   9.278   7.439  0.5095 -0.2254  0.4536
  314MOL0     C43255   4.554   9.242   7.442 -0.4998  0.1259  0.6130
  314MOL0     C43256   4.481   9.332   7.545  0.0701  0.1854  0.3043
  314MOL0     C43257   4.495   9.295   7.695  0.8750  0.4500  0.1919
  314MOL0     C43258   4.627   9.321   7.748  0.1573  0.1715 -0.1714
  314MOL0     C43259   4.738   9.345   7.795 -0.6325  0.7385  0.9279
  314MOL0     C43260   4.924   9.130   7.195 -0.0850 -0.2778 -0.4028
  314MOL0     C43261   5.057   9.123   7.156  0.1110  0.3897 -0.3230
  314MOL0     C43262   5.080   9.031   7.043 -0.8915 -0.1638 -0.0504
  314MOL0     H43263   5.534   9.398   7.412 -1.5227  0.1758 -0.7864
  314MOL0     H43264   5.734   9.528   7.368 -2.1087  1.4704 -0.0795
  314MOL0     H43265   5.841   9.707   7.230  1.1317  1.0898  0.4484
  314MOL0     H43266   5.759   9.710   7.077  0.4917  0.0556 -1.9907
  314MOL0     H43267   6.052   9.725   7.146 -1.2347  1.9597  1.3927
  314MOL0     H43268   6.008   9.703   6.974  0.0885 -0.1203 -0.0959
  314MOL0     H43269   5.871   9.910   6.972  0.6489  0.7980 -1.5483
  314MOL0     H43270   5.914   9.943   7.144  1.5846  2.0483 -1.6776
  314MOL0     H43271   6.061  10.074   6.995 -2.3767 -0.9547  2.2240
  314MOL0     H43272   6.145   9.951   7.095  0.2208 -0.1154  0.4871
  314MOL0     H43273   6.074   9.912   6.809  0.7198 -3.4482 -1.2709
  314MOL0     H43274   6.173   9.803   6.913  0.8691  1.0886  1.9537
  314MOL0     H43275   6.297   9.978   6.760 -2.1942 -0.0615 -0.0559
  314MOL0     H43276   6.250  10.105   6.874 -1.0222 -1.0526  0.9978
  314MOL0     H43277   6.459   9.892   6.883  0.6915  1.2928 -1.4048
  314MOL0     H43278   6.366   9.918   7.032 -1.5238 -1.2847 -1.3754
  314MOL0     H43279   6.486  10.141   6.875  0.6897  0.0228  0.5281
  314MOL0     H43280   6.425  10.159   7.038 -0.9708 -0.9693  0.3717
  314MOL0     H43281   6.604  10.104   7.235  1.0937 -1.4008  2.1451
  314MOL0     H43282   6.854  10.092   7.342 -2.3530  0.8757 -1.8577
  314MOL0     H43283   6.975  10.136   7.225 -0.4999  1.0555  0.8566
  314MOL0     H43284   6.914   9.846   7.309 -0.1367  0.4240  1.2319
  314MOL0     H43285   7.019   9.886   7.185 -1.8031  3.6013 -2.1010
  314MOL0     H43286   7.086  10.043   7.429  0.0890 -0.0044  0.5968
  314MOL0     H43287   7.084   9.864   7.454  1.5772  0.6054 -0.4145
  314MOL0     H43288   7.317   9.952   7.381  0.9357 -1.7208 -0.2555
  314MOL0     H43289   7.242   9.843   7.263  0.1595  0.2722 -2.5772
  314MOL0     H43290   7.291  10.250   7.049  2.2218  2.0953 -0.7317
  314MOL0     H43291   7.417  10.437   6.994 -0.6117 -2.0972 -0.4557
  314MOL0     H43292   7.496  10.382   6.839 -0.1252  0.3587 -0.0889
  314MOL0     H43293   7.585  10.426   6.981  0.2703  1.1530 -1.9419
  314MOL0     H43294   7.787  10.309   6.611  0.0485 -1.3575  0.0094
  314MOL0     H43295   7.945  10.492   6.522 -1.6967 -1.0078 -0.4092
  314MOL0     H43296   8.221  10.669   6.807  2.6610 -0.1648  0.3996
  314MOL0     H43297   8.329  10.532   6.756 -0.8202 -1.3418 -0.9957
  314MOL0     H43298   8.435  10.758   6.709  0.5368  1.8424 -2.5772
  314MOL0     H43299   8.405  10.666   6.568  1.2464 -1.1613  0.2555
  314MOL0     H43300   8.235  10.797   6.491 -1.5426 -0.7383  1.0828
  314MOL0     H43301   8.350  10.920   6.562 -0.4567  1.9500  1.8312
  314MOL0     H43302   8.229  10.913   6.765  2.8442 -1.6111 -2.4637
  314MOL0     H43303   8.083  10.841   6.687 -2.3536  1.4011 -2.2592
  314MOL0     H43304   8.185  11.121   6.626 -1.5073  1.7703 -0.3179
  314MOL0     H43305   8.088  11.019   6.510  2.5804 -0.8415 -0.3487
  314MOL0     H43306   7.993  11.077   6.786 -2.3178  3.6945  0.9828
  314MOL0     H43307   7.900  11.011   6.651  0.3472  0.7375 -2.3267
  314MOL0     H43308   7.884  11.223   6.546 -1.5727  0.8912  0.9143
  314MOL0     H43309   8.015  11.294   6.635  0.7909 -0.4212 -1.1971
  314MOL0     H43310   7.892  11.314   6.835 -0.1684 -0.6348  0.7859
  314MOL0     H43311   7.784  11.187   6.790 -1.2551  0.9603 -2.8653
  314MOL0     H43312   8.142  10.472   6.907  0.6366 -0.4651  0.7666
  314MOL0     H43313   7.969  10.346   7.000 -1.0121 -0.2368 -0.6829
  314MOL0     H43314   7.671   9.946   7.104 -0.8374 -1.7954 -1.3558
  314MOL0     H43315   7.449   9.882   7.172  1.4369 -1.3979 -2.2312
  314MOL0     H43316   5.738   9.367   6.964 -0.8422 -1.3701 -0.0287
  314MOL0     H43317   5.526   9.251   7.008  0.8950 -0.6345  0.0238
  314MOL0     H43318   5.184   9.341   7.383  1.3895 -0.7829 -0.8098
  314MOL0     H43319   4.938   9.354   7.431  0.5267 -2.4046  0.8451
  314MOL0     H43320   4.759   9.243   7.528  1.1379 -0.9006 -0.1733
  314MOL0     H43321   4.712   9.387   7.433 -1.6256 -0.0342  1.1089
  314MOL0     H43322   4.537   9.136   7.464  1.0003 -0.4225 -0.7040
  314MOL0     H43323   4.519   9.259   7.340 -0.5223 -1.5383  0.3162
  314MOL0     H43324   4.510   9.437   7.538  0.9519 -0.1278 -1.0876
  314MOL0     H43325   4.374   9.326   7.521  0.4493 -0.5328 -1.3320
  314MOL0     H43326   4.470   9.191   7.719  0.4796  0.7610  1.1720
  314MOL0     H43327   4.417   9.349   7.750 -2.4525 -0.3685 -3.2333
  314MOL0     H43328   4.829   9.366   7.849 -0.6069  2.8943  0.1611
  314MOL0     H43329   4.851   9.067   7.145 -0.2427 -2.4217  2.2985
  314MOL0     H43330   5.145   9.076   6.968  0.4145 -1.3326  0.3516
  314MOL0     H43331   5.129   8.944   7.088  3.0869  1.7608 -0.2478
  314MOL0     H43332   4.993   8.988   6.993 -2.1688 -0.0549  1.9768
  315MOL0     O43333   5.509   3.249   6.467 -0.0853 -0.2694 -0.0661
  315MOL0     C43334   5.509   3.123   6.453  0.5284  0.2253  0.0940
  315MOL0     O43335   5.617   3.054   6.408 -0.4114 -0.0438  1.0378
  315MOL0     C43336   5.747   3.100   6.413 -0.1265 -0.2113 -1.0516
  315MOL0     C43337   5.837   3.006   6.463 -0.8267 -0.1342  0.5651
  315MOL0     C43338   5.975   3.036   6.462 -0.2855 -0.2418 -0.2863
  315MOL0     C43339   6.017   3.149   6.395  0.2230  0.8717  0.3666
  315MOL0     O43340   6.152   3.178   6.386 -0.3209  0.3123  0.4038
  315MOL0     C43341   6.198   3.185   6.245 -0.7701  0.8350  0.5164
  315MOL0     C43342   6.353   3.201   6.232 -0.3338 -0.2697  0.1191
  315MOL0     C43343   6.383   3.343   6.268 -0.0400  0.3153 -0.2548
  315MOL0     C43344   6.528   3.389   6.242  0.1265 -0.3115 -0.2738
  315MOL0     C43345   6.576   3.518   6.313  0.2404  0.6940  0.1589
  315MOL0     C43346   6.708   3.565   6.255  0.0731 -0.3354  0.4828
  315MOL0     C43347   6.768   3.677   6.339  0.4881  0.2118  0.1126
  315MOL0     C43348   6.889   3.732   6.268 -0.1370  0.3668  0.4650
  315MOL0     N43349   6.977   3.828   6.340 -0.5495 -0.8303  0.9033
  315MOL0     C43350   6.943   3.963   6.362 -1.8010 -0.3976  0.5609
  315MOL0     C43351   7.057   4.019   6.408 -0.3162  0.3546 -0.5916
  315MOL0     C43352   7.088   4.160   6.450  0.0312  0.2993  0.3063
  315MOL0     C43353   7.240   4.183   6.449 -0.5452 -0.2838 -1.0159
  315MOL0     C43354   7.284   4.321   6.480 -0.9161 -0.2535  0.7757
  315MOL0     C43355   7.434   4.331   6.495  0.4463 -0.3506  0.8775
  315MOL0     O43356   7.456   4.441   6.584  0.4397  0.2111  0.0129
  315MOL0     C43357   7.583   4.468   6.622  0.0318  0.3846 -0.1954
  315MOL0     C43358   7.698   4.400   6.582  0.1368 -0.4226 -0.1894
  315MOL0     C43359   7.825   4.442   6.622 -0.6552 -0.7525  0.2054
  315MOL0     C43360   7.938   4.345   6.616  0.4956  0.0732 -0.5303
  315MOL0     C43361   7.843   4.564   6.690  0.2189  0.1643  0.3283
  315MOL0     C43362   7.973   4.620   6.731 -0.0892 -0.0236 -0.1293
  315MOL0     O43363   7.980   4.753   6.715  0.1173  0.4296 -1.0019
  315MOL0     C43364   8.097   4.818   6.743 -0.6903 -0.2107 -0.0288
  315MOL0     C43365   8.145   4.857   6.872 -0.4108  0.5458 -0.8304
  315MOL0     C43366   8.272   4.916   6.886  0.1548  0.0286 -0.6325
  315MOL0     C43367   8.358   4.933   6.782 -0.4647  0.5371  0.0456
  315MOL0     O43368   8.475   4.999   6.813 -0.3682 -0.2535 -0.4113
  315MOL0     C43369   8.588   4.979   6.728  0.5163  0.6233  0.3110
  315MOL0     C43370   8.696   5.066   6.777 -0.3020 -0.6229  0.2126
  315MOL0     C43371   8.833   5.042   6.709  0.2228  0.4867  0.0456
  315MOL0     C43372   8.964   5.062   6.787  0.3807 -0.1442 -0.0003
  315MOL0     C43373   9.078   5.000   6.705  0.4915 -0.0981  1.8736
  315MOL0     C43374   9.212   5.027   6.776 -0.0422  0.5692 -0.0668
  315MOL0     C43375   9.323   4.981   6.683 -0.5768 -0.6334 -0.3907
  315MOL0     C43376   9.456   4.991   6.758 -0.9240 -0.2173 -0.5342
  315MOL0    Cl43377   9.590   4.970   6.642  0.4313  0.2619 -0.1934
  315MOL0     C43378   8.307   4.907   6.650 -0.5720 -0.2295 -0.6948
  315MOL0     C43379   8.177   4.852   6.638 -0.1051  0.7278  0.2930
  315MOL0     O43380   8.056   4.546   6.785 -0.3813 -0.1305 -0.1266
  315MOL0     C43381   7.733   4.629   6.729  0.1921  0.0881 -0.2698
  315MOL0     C43382   7.602   4.583   6.704 -0.1281  0.7475 -0.1092
  315MOL0     N43383   7.160   3.921   6.411 -0.2941  0.0981 -0.6987
  315MOL0     N43384   7.106   3.804   6.378 -0.4605 -0.3105 -0.8394
  315MOL0     C43385   5.924   3.250   6.356 -0.6973 -0.4365  0.4415
  315MOL0     C43386   5.791   3.220   6.362  0.3167 -0.4486  0.3008
  315MOL0     C43387   5.376   3.057   6.471  0.1966 -0.1501  0.5134
  315MOL0     C43388   5.260   3.141   6.495  0.0964  1.0068  0.8928
  315MOL0     C43389   5.134   3.081   6.513 -0.7690 -0.2507  0.5125
  315MOL0     C43390   5.119   2.941   6.494 -0.8259  0.1439  0.2865
  315MOL0     O43391   5.000   2.878   6.494 -0.1961  0.4381  0.5310
  315MOL0     C43392   4.887   2.964   6.475 -0.7339  0.0134 -0.2510
  315MOL0     C43393   4.771   2.891   6.397 -0.6647 -0.3329 -0.1319
  315MOL0     C43394   4.680   2.796   6.488  0.1278 -0.1601 -1.2492
  315MOL0     C43395   4.646   2.847   6.636  0.4313 -0.0143  0.3620
  315MOL0     C43396   4.569   2.972   6.632 -0.4124 -0.5209 -0.5351
  315MOL0     C43397   4.529   3.080   6.621  0.2816  0.3135 -0.0427
  315MOL0     C43398   5.226   2.867   6.469  0.1731 -0.4354 -0.6225
  315MOL0     C43399   5.358   2.917   6.461  0.9139  0.0597  0.7333
  315MOL0     C43400   5.463   2.817   6.430  0.5731 -0.0552  0.0593
  315MOL0     H43401   5.818   2.905   6.498 -1.1183 -0.5875 -0.8531
  315MOL0     H43402   6.047   2.966   6.503 -1.0975 -0.1794  1.3160
  315MOL0     H43403   6.154   3.265   6.185 -1.6680 -0.0045  0.0228
  315MOL0     H43404   6.191   3.085   6.203  3.3413 -0.0162  1.3973
  315MOL0     H43405   6.401   3.129   6.299 -1.5276 -1.8577 -0.6570
  315MOL0     H43406   6.381   3.190   6.127 -2.2361 -0.0048 -0.4584
  315MOL0     H43407   6.318   3.407   6.207  1.4186  0.7803 -1.3832
  315MOL0     H43408   6.364   3.359   6.374 -0.1047 -1.0573 -0.0415
  315MOL0     H43409   6.593   3.304   6.264 -2.0774 -2.0809 -0.2740
  315MOL0     H43410   6.535   3.399   6.133  2.0636 -0.6906 -0.2220
  315MOL0     H43411   6.585   3.509   6.422  0.6051  2.0173  0.2531
  315MOL0     H43412   6.502   3.592   6.282  0.9639  0.8238 -1.3469
  315MOL0     H43413   6.778   3.481   6.251 -0.9792 -1.5303  3.5874
  315MOL0     H43414   6.696   3.594   6.151  0.5510 -0.4539  0.3912
  315MOL0     H43415   6.793   3.632   6.436 -3.7555  1.0109  1.8189
  315MOL0     H43416   6.697   3.759   6.354  2.9199  2.8979 -1.8905
  315MOL0     H43417   6.952   3.645   6.246 -0.2142  0.8234 -1.7947
  315MOL0     H43418   6.866   3.764   6.166 -1.6896 -0.3883  0.5607
  315MOL0     H43419   6.857   4.021   6.330 -2.4056 -1.5236  0.0898
  315MOL0     H43420   7.048   4.177   6.550 -0.0761 -0.1756  0.3466
  315MOL0     H43421   7.045   4.231   6.379 -0.1134  0.0123  0.1078
  315MOL0     H43422   7.284   4.117   6.524  1.2950  2.0638  0.0796
  315MOL0     H43423   7.284   4.155   6.352 -4.9669 -2.6025 -2.6035
  315MOL0     H43424   7.262   4.399   6.406  1.8063 -1.4514 -1.4808
  315MOL0     H43425   7.237   4.352   6.573  1.1503  0.7846  1.5429
  315MOL0     H43426   7.455   4.239   6.549  2.4664  1.3381  3.2001
  315MOL0     H43427   7.478   4.345   6.396 -1.8885 -0.1155 -0.2017
  315MOL0     H43428   7.684   4.303   6.535  0.4047  0.1436 -1.4728
  315MOL0     H43429   8.023   4.397   6.571 -2.1043  2.2305 -3.4621
  315MOL0     H43430   7.912   4.245   6.579 -2.1445 -0.3606  2.1360
  315MOL0     H43431   7.957   4.314   6.719 -0.4852 -0.4256 -0.4891
  315MOL0     H43432   8.104   4.834   6.970  1.6677  4.1598  1.1020
  315MOL0     H43433   8.313   4.935   6.985 -0.4969  0.5613 -0.4586
  315MOL0     H43434   8.631   4.879   6.737  0.7942  0.3974 -2.5741
  315MOL0     H43435   8.571   5.007   6.623  1.3436  0.8798  0.2313
  315MOL0     H43436   8.658   5.167   6.765 -4.8310 -2.1642 -0.3229
  315MOL0     H43437   8.702   5.055   6.886 -0.5213  2.5844  0.6364
  315MOL0     H43438   8.842   5.099   6.616  0.6804 -1.2590 -1.0401
  315MOL0     H43439   8.835   4.941   6.668 -0.3401  0.6276 -0.3455
  315MOL0     H43440   8.961   5.017   6.887  1.2410 -3.3698 -1.3052
  315MOL0     H43441   8.987   5.168   6.799 -2.4600  0.9193 -2.6585
  315MOL0     H43442   9.067   4.896   6.673  1.0696  0.4284 -0.1862
  315MOL0     H43443   9.087   5.043   6.605  5.0006 -2.3221  1.0380
  315MOL0     H43444   9.219   4.979   6.874 -0.1554  3.7240  1.6260
  315MOL0     H43445   9.222   5.131   6.807 -0.6133  1.0866 -1.5402
  315MOL0     H43446   9.319   5.056   6.604  1.3639 -0.0922 -0.0048
  315MOL0     H43447   9.313   4.877   6.648 -2.1201  0.2553 -2.8535
  315MOL0     H43448   9.463   4.916   6.837  2.8217  0.9914  0.5169
  315MOL0     H43449   9.477   5.089   6.803  0.4650 -0.9526  0.5041
  315MOL0     H43450   8.370   4.922   6.563 -0.0027 -1.6571 -0.5546
  315MOL0     H43451   8.143   4.826   6.538  2.4097  1.6658 -0.9054
  315MOL0     H43452   7.731   4.730   6.769  0.2548  0.9090 -2.2563
  315MOL0     H43453   7.516   4.637   6.742  0.6194  0.8691  1.4969
  315MOL0     H43454   5.962   3.345   6.319  2.7518 -0.2617  3.7682
  315MOL0     H43455   5.733   3.298   6.313  0.1460 -1.5914 -1.4078
  315MOL0     H43456   5.268   3.247   6.519 -1.7354  1.6430 -1.0302
  315MOL0     H43457   5.050   3.138   6.551  0.1013 -0.0042  2.1669
  315MOL0     H43458   4.851   2.997   6.573 -2.0789 -0.1325 -0.6635
  315MOL0     H43459   4.917   3.046   6.409  3.1197 -2.1630 -1.4608
  315MOL0     H43460   4.799   2.839   6.305 -1.1300 -1.9270  0.6080
  315MOL0     H43461   4.714   2.982   6.375  1.3937  1.8744  2.8466
  315MOL0     H43462   4.581   2.775   6.448 -0.3226 -2.1579  0.7124
  315MOL0     H43463   4.726   2.696   6.492 -1.6439 -0.9744  0.1242
  315MOL0     H43464   4.727   2.863   6.707 -0.9330  1.5566  1.6737
  315MOL0     H43465   4.578   2.773   6.680  0.8259 -0.5387  0.0820
  315MOL0     H43466   4.493   3.175   6.587 -0.9038  0.2705  1.0232
  315MOL0     H43467   5.213   2.761   6.448 -2.1894  0.0457 -1.9023
  315MOL0     H43468   5.432   2.720   6.471 -1.7763  0.7996  0.4316
  315MOL0     H43469   5.475   2.801   6.323 -2.5778 -0.3994 -0.3104
  315MOL0     H43470   5.560   2.844   6.473  0.3042 -0.6291  1.0760
  316MOL0     O43471   2.901   8.830   2.865  0.1430  0.2831  0.1258
  316MOL0     C43472   2.843   8.798   2.973 -0.3959  0.5410 -0.5921
  316MOL0     O43473   2.898   8.817   3.093 -0.0402  0.0079 -0.0503
  316MOL0     C43474   3.034   8.850   3.103  0.4718  0.0897 -0.3347
  316MOL0     C43475   3.080   8.980   3.091 -0.0425 -0.1091 -0.4068
  316MOL0     C43476   3.214   9.011   3.129  0.2319  0.4838  0.0941
  316MOL0     C43477   3.308   8.914   3.155 -0.5087  0.1738  0.6044
  316MOL0     O43478   3.445   8.934   3.193 -0.1841 -0.1625  0.6149
  316MOL0     C43479   3.493   9.070   3.219  0.6166 -0.8143 -0.1770
  316MOL0     C43480   3.635   9.078   3.277  1.1023 -0.6987 -0.4680
  316MOL0     C43481   3.735   9.004   3.189 -0.1551 -0.2351  0.0344
  316MOL0     C43482   3.871   8.980   3.267  0.1764 -0.4131  0.6302
  316MOL0     C43483   3.989   8.965   3.168  0.3817 -0.1446 -0.0542
  316MOL0     C43484   3.991   8.866   3.057  0.6001  0.2466 -0.1687
  316MOL0     C43485   4.124   8.876   2.989 -0.0558 -0.0874  0.3268
  316MOL0     C43486   4.137   8.769   2.894 -0.5749  0.2889  0.2819
  316MOL0     N43487   4.276   8.766   2.844  0.1308  0.0376 -0.3682
  316MOL0     C43488   4.372   8.675   2.881 -0.2964 -0.1890  0.4309
  316MOL0     C43489   4.457   8.675   2.777 -0.8636 -0.0985 -0.2177
  316MOL0     C43490   4.589   8.595   2.763  0.1718  0.4605 -1.1427
  316MOL0     C43491   4.709   8.671   2.820  0.0437  0.3264  0.0720
  316MOL0     C43492   4.708   8.695   2.973  1.1828  0.1761  0.7760
  316MOL0     C43493   4.840   8.737   3.020 -0.2308  0.1807  0.2102
  316MOL0     O43494   4.925   8.624   3.028  0.4756  0.0083 -0.0982
  316MOL0     C43495   5.052   8.667   3.053 -0.2693 -0.2235  0.2323
  316MOL0     C43496   5.084   8.778   3.137  0.2988  0.1722  0.2016
  316MOL0     C43497   5.207   8.799   3.194  0.2144  0.4058  1.2219
  316MOL0     C43498   5.228   8.935   3.265  0.3187 -0.5784 -0.3213
  316MOL0     C43499   5.316   8.711   3.157  0.0131 -0.1206  0.2054
  316MOL0     C43500   5.467   8.715   3.197  1.0341  0.4375  0.3160
  316MOL0     O43501   5.551   8.659   3.107 -0.2087 -0.6897 -0.0863
  316MOL0     C43502   5.683   8.699   3.116  0.5781  1.1225  0.6509
  316MOL0     C43503   5.717   8.827   3.088 -0.4361 -0.3823 -0.6667
  316MOL0     C43504   5.855   8.869   3.078  0.2820  0.0225  0.8273
  316MOL0     C43505   5.956   8.786   3.122  0.7069  0.5869 -0.6440
  316MOL0     O43506   6.093   8.811   3.132 -0.1729 -0.1058  0.1114
  316MOL0     C43507   6.118   8.921   3.220 -0.3441  0.3765  0.8353
  316MOL0     C43508   6.257   8.908   3.282  0.3768  0.8010  0.1890
  316MOL0     C43509   6.285   8.773   3.341  0.5420 -0.4985 -0.1435
  316MOL0     C43510   6.417   8.764   3.417  0.0884 -0.0079 -0.3765
  316MOL0     C43511   6.455   8.620   3.440 -0.5198 -0.5974 -1.5047
  316MOL0     C43512   6.571   8.617   3.541 -0.4438 -0.2860  0.6481
  316MOL0     C43513   6.612   8.475   3.578 -0.0118 -0.3166 -0.5412
  316MOL0     C43514   6.499   8.394   3.653 -0.6514  0.5271 -0.2533
  316MOL0    Cl43515   6.400   8.273   3.556  0.0313 -0.0840  0.1704
  316MOL0     C43516   5.921   8.650   3.152 -0.5352 -0.0455 -0.6520
  316MOL0     C43517   5.783   8.615   3.147 -0.1594  0.8097 -0.2067
  316MOL0     O43518   5.497   8.765   3.304  0.0943  0.6563  0.2760
  316MOL0     C43519   5.287   8.608   3.063  0.2242 -0.7404 -0.5761
  316MOL0     C43520   5.161   8.589   3.010  0.3612  0.3322  0.0403
  316MOL0     N43521   4.418   8.771   2.677 -0.0755  0.1416  0.0323
  316MOL0     N43522   4.309   8.819   2.727  0.0038  0.9572 -0.1179
  316MOL0     C43523   3.263   8.782   3.149  0.4437  0.1645  0.4549
  316MOL0     C43524   3.125   8.757   3.133 -0.4326 -0.5163 -0.4447
  316MOL0     C43525   2.704   8.736   2.978  0.4409 -1.2948  0.1353
  316MOL0     C43526   2.633   8.758   3.098  0.0839  0.7555 -0.3299
  316MOL0     C43527   2.502   8.719   3.116 -0.2443  1.0117  0.7191
  316MOL0     C43528   2.429   8.660   3.019  0.1338  0.1969  0.5555
  316MOL0     O43529   2.294   8.613   3.038 -0.5694 -0.4964 -0.0675
  316MOL0     C43530   2.209   8.568   2.939  0.7465  0.0819  0.0059
  316MOL0     C43531   2.175   8.686   2.842 -0.9313  0.7136  0.1045
  316MOL0     C43532   2.113   8.637   2.709  0.0514  0.0433  0.0276
  316MOL0     C43533   1.971   8.596   2.718  0.2027  0.0204 -0.8073
  316MOL0     C43534   1.875   8.707   2.736  0.4601 -0.0774  0.1481
  316MOL0     C43535   1.793   8.794   2.768 -0.0555  0.4769  0.7823
  316MOL0     C43536   2.492   8.637   2.897  0.1069  1.1025  0.3571
  316MOL0     C43537   2.629   8.674   2.877  0.3318  0.3380 -0.1648
  316MOL0     C43538   2.680   8.650   2.740  0.5119  0.4101  0.2065
  316MOL0     H43539   3.010   9.061   3.072 -2.2935 -1.6680  0.7317
  316MOL0     H43540   3.232   9.118   3.139  1.5420  0.1900  1.1744
  316MOL0     H43541   3.420   9.113   3.287 -2.5104 -0.1454 -3.6229
  316MOL0     H43542   3.489   9.124   3.124  1.7748 -1.5318 -0.6602
  316MOL0     H43543   3.666   9.181   3.298 -0.7897 -0.5128  1.8385
  316MOL0     H43544   3.620   9.042   3.379 -0.1050 -0.4817 -0.5555
  316MOL0     H43545   3.700   8.900   3.186 -3.2851  0.6870  1.0788
  316MOL0     H43546   3.744   9.043   3.088  0.1889 -0.1345  0.1036
  316MOL0     H43547   3.876   9.070   3.328 -0.3960 -0.3761  0.6317
  316MOL0     H43548   3.872   8.892   3.332 -0.5962  0.8045  2.3617
  316MOL0     H43549   4.072   8.946   3.236  0.0744 -1.7498 -0.1050
  316MOL0     H43550   3.998   9.065   3.123 -0.0468 -0.3569 -0.6248
  316MOL0     H43551   3.958   8.771   3.100 -0.8543  0.2096 -1.2907
  316MOL0     H43552   3.909   8.887   2.989 -0.6381 -0.7822  0.9548
  316MOL0     H43553   4.204   8.875   3.063 -0.4279  1.0364  0.7631
  316MOL0     H43554   4.141   8.976   2.947  0.5404 -1.5809 -3.3840
  316MOL0     H43555   4.126   8.680   2.956  1.4791 -0.2877 -0.1050
  316MOL0     H43556   4.055   8.767   2.822 -1.0496 -1.6113  0.8328
  316MOL0     H43557   4.373   8.604   2.962  0.0989  2.7086  3.1934
  316MOL0     H43558   4.609   8.555   2.664 -1.6857  1.3927 -1.9439
  316MOL0     H43559   4.574   8.508   2.827  1.9924  0.9400  0.0278
  316MOL0     H43560   4.796   8.608   2.799 -0.3337 -0.9270  2.0322
  316MOL0     H43561   4.713   8.768   2.770  0.8080  1.3133  1.9291
  316MOL0     H43562   4.630   8.770   2.986  0.6499 -0.1920 -0.1275
  316MOL0     H43563   4.673   8.605   3.025  1.9075 -0.3306  0.3978
  316MOL0     H43564   4.882   8.817   2.958  0.0419  1.5941  2.0999
  316MOL0     H43565   4.834   8.772   3.124 -1.4860 -0.4184  0.3501
  316MOL0     H43566   5.006   8.849   3.159  0.4720  0.5078 -0.2519
  316MOL0     H43567   5.232   8.930   3.375  1.1713 -2.5131 -0.4043
  316MOL0     H43568   5.152   9.007   3.233  0.5050 -1.4064 -2.7869
  316MOL0     H43569   5.322   8.986   3.245 -1.3122  3.1256  0.5757
  316MOL0     H43570   5.642   8.903   3.066  0.0909 -0.1211 -1.6281
  316MOL0     H43571   5.879   8.973   3.058 -3.4623  0.8753 -0.0174
  316MOL0     H43572   6.122   9.015   3.164  5.2075 -0.5777 -1.0482
  316MOL0     H43573   6.041   8.923   3.297 -2.9534  1.6585 -1.5946
  316MOL0     H43574   6.328   8.928   3.201 -1.5097 -1.0369 -2.0694
  316MOL0     H43575   6.254   8.985   3.359  1.2096 -0.1869  1.2379
  316MOL0     H43576   6.277   8.697   3.263 -3.3112 -1.7478  1.2227
  316MOL0     H43577   6.203   8.756   3.412  2.4698 -1.4875  1.9659
  316MOL0     H43578   6.407   8.802   3.519 -2.1340 -0.9301 -0.1869
  316MOL0     H43579   6.493   8.825   3.368 -0.7246  3.3093  2.1578
  316MOL0     H43580   6.368   8.571   3.485 -0.5568  2.4799  2.3026
  316MOL0     H43581   6.492   8.581   3.345  3.0022  0.0226 -0.5238
  316MOL0     H43582   6.537   8.661   3.635 -0.1837 -1.0268  1.0965
  316MOL0     H43583   6.652   8.674   3.495 -2.2067 -0.2046 -2.7021
  316MOL0     H43584   6.697   8.492   3.645 -0.2295  2.2584 -0.8157
  316MOL0     H43585   6.637   8.406   3.496  0.0842 -0.0913 -0.7025
  316MOL0     H43586   6.419   8.457   3.693 -0.3560  0.1000  1.0673
  316MOL0     H43587   6.542   8.351   3.744 -1.1517  1.2811  0.3542
  316MOL0     H43588   6.007   8.595   3.190 -0.8648 -0.6680 -0.8014
  316MOL0     H43589   5.761   8.511   3.165  0.9163  0.5973 -0.0298
  316MOL0     H43590   5.365   8.537   3.035  0.7759 -1.4352  2.3442
  316MOL0     H43591   5.139   8.509   2.939  0.5127 -0.8905  1.3175
  316MOL0     H43592   3.331   8.700   3.173  3.0287  1.5622 -1.4855
  316MOL0     H43593   3.093   8.654   3.142 -2.6617  0.2201  0.7706
  316MOL0     H43594   2.681   8.804   3.183  3.4829  2.2265 -2.8419
  316MOL0     H43595   2.445   8.746   3.204 -1.0512 -0.3705  0.6445
  316MOL0     H43596   2.251   8.482   2.885  0.2234 -0.8427  1.0375
  316MOL0     H43597   2.117   8.541   2.991 -1.4139 -0.9018 -3.9064
  316MOL0     H43598   2.263   8.746   2.814  0.2274 -1.3999 -1.0306
  316MOL0     H43599   2.113   8.756   2.899 -0.5110 -0.7186  2.4674
  316MOL0     H43600   2.124   8.716   2.633 -1.5710 -0.3131 -0.6094
  316MOL0     H43601   2.175   8.561   2.662  1.3367  2.0070 -1.6640
  316MOL0     H43602   1.959   8.522   2.797 -2.2264  1.8500  0.7141
  316MOL0     H43603   1.961   8.551   2.619 -0.2671  0.5703 -1.0222
  316MOL0     H43604   1.731   8.875   2.802 -0.4706  0.2751  0.5166
  316MOL0     H43605   2.441   8.586   2.816  1.2660  0.1531  0.1966
  316MOL0     H43606   2.719   8.740   2.692 -3.1304  2.2869  0.4821
  316MOL0     H43607   2.759   8.574   2.741  1.9111  1.8041  0.7499
  316MOL0     H43608   2.599   8.615   2.676 -0.1816  1.8719  0.2356
  317MOL0     O43609   9.242   6.874   3.619 -0.0161  0.6602 -0.1145
  317MOL0     C43610   9.168   6.788   3.573  0.3970  0.5570 -0.0099
  317MOL0     O43611   9.198   6.664   3.547 -0.3347  0.1030 -0.3540
  317MOL0     C43612   9.335   6.639   3.541  0.4428 -0.0914  0.6584
  317MOL0     C43613   9.380   6.561   3.645  0.8190 -0.8884 -0.0056
  317MOL0     C43614   9.513   6.508   3.636 -0.4624 -0.3209  0.1009
  317MOL0     C43615   9.587   6.541   3.524  0.2489  0.1607 -0.2298
  317MOL0     O43616   9.716   6.496   3.499  0.2602  0.0213  0.3635
  317MOL0     C43617   9.819   6.506   3.596  0.2711 -0.7294 -0.0497
  317MOL0     C43618   9.857   6.662   3.622  1.0316 -0.0669  0.4199
  317MOL0     C43619   9.976   6.695   3.710 -0.2560  0.6186  0.1292
  317MOL0     C43620   9.951   6.630   3.855 -0.8563 -1.4057 -0.1765
  317MOL0     C43621  10.081   6.624   3.952  0.3124  0.1352  0.0334
  317MOL0     C43622  10.172   6.749   3.954  0.5811  0.3717  0.2223
  317MOL0     C43623  10.301   6.732   4.032 -0.7513  0.1001  0.0913
  317MOL0     C43624  10.408   6.664   3.942  0.3626 -0.4808 -1.2619
  317MOL0     N43625  10.538   6.667   4.008  0.6245 -0.4307  0.1118
  317MOL0     C43626  10.598   6.770   4.068 -0.7443  0.1684 -0.0101
  317MOL0     C43627  10.712   6.711   4.114 -0.0970 -0.4320 -0.7237
  317MOL0     C43628  10.820   6.751   4.203 -0.4029 -0.3858  0.3956
  317MOL0     C43629  10.959   6.760   4.141  0.0806 -0.1371 -0.3394
  317MOL0     C43630  11.064   6.779   4.249  0.0703  0.1102  0.2715
  317MOL0     C43631  11.196   6.714   4.222  0.2927  0.5177  0.0010
  317MOL0     O43632  11.235   6.750   4.088 -0.8029 -0.3835  0.1968
  317MOL0     C43633  11.342   6.837   4.069  0.1032 -0.5079  0.4827
  317MOL0     C43634  11.394   6.923   4.171 -0.5815 -0.4056  0.0897
  317MOL0     C43635  11.514   7.000   4.169 -0.4850  0.0616  0.5630
  317MOL0     C43636  11.543   7.074   4.303 -0.0206 -0.2538 -0.2196
  317MOL0     C43637  11.593   6.988   4.051 -0.3686 -0.3121  0.4498
  317MOL0     C43638  11.720   7.077   4.032 -0.1508 -0.7263  0.6426
  317MOL0     O43639  11.790   7.047   3.925 -0.4523 -0.1281  0.1812
  317MOL0     C43640  11.903   7.102   3.873 -0.5664 -0.1494  0.1315
  317MOL0     C43641  11.984   7.195   3.937  0.7487  0.3734  0.1584
  317MOL0     C43642  12.104   7.240   3.873 -0.7538 -0.3373 -0.2488
  317MOL0     C43643  12.146   7.176   3.754 -0.0214 -0.8092 -0.1779
  317MOL0     O43644  12.261   7.216   3.695 -0.9533 -0.1318  0.0882
  317MOL0     C43645  12.373   7.170   3.767 -0.1160 -0.9640 -0.0994
  317MOL0     C43646  12.502   7.182   3.700  0.6932  0.1014 -0.0948
  317MOL0     C43647  12.549   7.337   3.689  0.3934  1.1117  0.1404
  317MOL0     C43648  12.680   7.329   3.604  1.1590  0.7534 -0.3708
  317MOL0     C43649  12.818   7.327   3.678  0.5927 -1.1243 -0.6093
  317MOL0     C43650  12.938   7.344   3.581 -0.4551  0.7756  0.3051
  317MOL0     C43651  12.982   7.210   3.503 -0.6187  0.0259 -0.9526
  317MOL0     C43652  13.113   7.148   3.573  0.8756 -0.3755  0.3272
  317MOL0    Cl43653  13.245   7.268   3.550  0.3174  0.3714  0.2589
  317MOL0     C43654  12.056   7.091   3.681  0.9351  0.4346  0.0623
  317MOL0     C43655  11.938   7.052   3.747 -0.8097 -0.0063  0.3387
  317MOL0     O43656  11.746   7.169   4.105  0.6074 -0.2336 -0.1175
  317MOL0     C43657  11.536   6.907   3.940 -0.3010 -0.5281  0.7480
  317MOL0     C43658  11.421   6.830   3.952  1.0726 -0.2164 -0.5523
  317MOL0     N43659  10.710   6.586   4.081 -0.4484  0.4512  0.6454
  317MOL0     N43660  10.617   6.557   4.005 -0.6652  0.7337  0.2136
  317MOL0     C43661   9.537   6.632   3.429 -0.3081 -0.1779 -0.8438
  317MOL0     C43662   9.409   6.681   3.433 -0.2294  0.0211 -0.7350
  317MOL0     C43663   9.021   6.822   3.558  1.2375  0.7436 -0.3665
  317MOL0     C43664   8.944   6.752   3.461 -0.3771  0.2712 -0.3196
  317MOL0     C43665   8.810   6.768   3.456  0.2654 -0.7595  0.2957
  317MOL0     C43666   8.735   6.851   3.539  0.5049 -0.2269  0.3493
  317MOL0     O43667   8.602   6.879   3.547  0.2781  0.1542  0.2699
  317MOL0     C43668   8.507   6.773   3.553 -0.1667  0.3734 -0.1642
  317MOL0     C43669   8.466   6.727   3.410  0.3811 -0.1193 -0.4364
  317MOL0     C43670   8.381   6.829   3.332 -0.2162  0.1231 -0.0623
  317MOL0     C43671   8.459   6.951   3.292 -0.9630 -0.0633  0.0718
  317MOL0     C43672   8.394   7.042   3.185  0.2193 -0.4139  0.0781
  317MOL0     C43673   8.338   7.104   3.095  0.2496  0.4112 -0.4242
  317MOL0     C43674   8.813   6.936   3.622 -0.4071 -0.2202  0.1033
  317MOL0     C43675   8.951   6.924   3.629 -1.6127  0.4002  0.2958
  317MOL0     C43676   9.021   7.024   3.726 -0.4297  0.5501 -0.4636
  317MOL0     H43677   9.315   6.551   3.731 -1.2226  3.4470 -0.7923
  317MOL0     H43678   9.562   6.463   3.722  2.3018  3.8371  0.9975
  317MOL0     H43679   9.909   6.460   3.553 -1.1364 -1.4995 -2.3487
  317MOL0     H43680   9.791   6.465   3.693 -0.6402  1.6224  0.7607
  317MOL0     H43681   9.881   6.704   3.524 -0.3940  1.2132  0.5898
  317MOL0     H43682   9.771   6.717   3.660 -0.7607 -1.2031 -1.6987
  317MOL0     H43683  10.065   6.641   3.678 -1.9540 -1.7704 -0.8878
  317MOL0     H43684   9.996   6.801   3.722 -0.2818  0.5240  1.1011
  317MOL0     H43685   9.874   6.690   3.905  0.3969  1.4582 -1.4384
  317MOL0     H43686   9.918   6.526   3.848 -1.0691 -1.4331  0.9538
  317MOL0     H43687  10.149   6.546   3.916  0.1944  0.9297 -2.0608
  317MOL0     H43688  10.051   6.596   4.054  1.1852 -0.0457  0.2491
  317MOL0     H43689  10.203   6.776   3.853  3.6396 -0.7560  0.7548
  317MOL0     H43690  10.117   6.830   4.003  0.3376  0.6057 -0.4308
  317MOL0     H43691  10.297   6.676   4.126  1.4293 -0.3356 -0.0136
  317MOL0     H43692  10.341   6.827   4.069  1.4335 -0.7847  0.1239
  317MOL0     H43693  10.379   6.560   3.923 -1.3211 -0.7203  1.8553
  317MOL0     H43694  10.412   6.717   3.846 -3.2786  1.2685 -0.6436
  317MOL0     H43695  10.562   6.872   4.077  1.3242  0.7780  2.9680
  317MOL0     H43696  10.818   6.691   4.295  2.6096  0.0795  0.8663
  317MOL0     H43697  10.804   6.856   4.228  3.7810  0.1920  1.3955
  317MOL0     H43698  10.984   6.664   4.095 -3.0088 -0.3952 -1.8055
  317MOL0     H43699  10.956   6.819   4.049  0.8999 -0.1115 -0.3545
  317MOL0     H43700  11.090   6.885   4.255  2.9323 -0.4426 -0.7487
  317MOL0     H43701  11.024   6.749   4.346 -0.9349 -1.9647 -0.7137
  317MOL0     H43702  11.272   6.742   4.295 -0.2639  1.3514  0.2643
  317MOL0     H43703  11.178   6.606   4.228 -0.5038  0.7207  1.5540
  317MOL0     H43704  11.339   6.929   4.265 -2.3820 -0.3046 -0.9298
  317MOL0     H43705  11.616   7.012   4.356  0.8218 -0.7706 -1.9073
  317MOL0     H43706  11.452   7.106   4.355 -2.4424 -1.5710 -3.3407
  317MOL0     H43707  11.591   7.172   4.292 -1.3123  0.3577 -0.5880
  317MOL0     H43708  11.964   7.231   4.037 -2.4938 -0.1012 -0.2220
  317MOL0     H43709  12.167   7.319   3.912 -2.0575  0.8612 -0.4722
  317MOL0     H43710  12.386   7.219   3.864  2.2400  1.6818 -1.5891
  317MOL0     H43711  12.365   7.063   3.787 -2.2180 -0.7846  0.1780
  317MOL0     H43712  12.578   7.119   3.748  0.5617  0.8077  1.0736
  317MOL0     H43713  12.486   7.142   3.599 -2.0895  0.8158 -0.0117
  317MOL0     H43714  12.577   7.394   3.778  0.0497 -1.3073  1.8751
  317MOL0     H43715  12.466   7.397   3.649  0.0609  0.2759 -0.4452
  317MOL0     H43716  12.685   7.426   3.555  0.2604  0.8393 -0.3030
  317MOL0     H43717  12.669   7.247   3.533  2.5878  0.4069 -0.2385
  317MOL0     H43718  12.830   7.409   3.749 -3.9686 -1.5397  0.9863
  317MOL0     H43719  12.834   7.235   3.736  0.0354 -1.5588 -1.1285
  317MOL0     H43720  13.028   7.389   3.625 -0.5597  0.7929  0.5032
  317MOL0     H43721  12.911   7.410   3.499  1.0289  1.0724  0.0392
  317MOL0     H43722  13.003   7.241   3.401 -1.5998 -0.4832 -1.3166
  317MOL0     H43723  12.904   7.133   3.496  0.1214 -0.6656 -1.8920
  317MOL0     H43724  13.150   7.056   3.529  1.9458 -0.1249  0.6685
  317MOL0     H43725  13.092   7.132   3.679  1.1515  3.2829  1.0684
  317MOL0     H43726  12.086   7.051   3.585  2.2141 -0.5482  0.8560
  317MOL0     H43727  11.876   6.974   3.704 -3.3826  2.0678  0.0445
  317MOL0     H43728  11.596   6.900   3.850 -0.9623  1.2668  0.1402
  317MOL0     H43729  11.385   6.774   3.866 -0.5735  0.2553 -0.1915
  317MOL0     H43730   9.600   6.679   3.355  0.2750 -0.4058 -0.4916
  317MOL0     H43731   9.372   6.742   3.352  1.5382 -1.3180 -2.6588
  317MOL0     H43732   8.987   6.666   3.411 -0.4500  1.6255 -2.8909
  317MOL0     H43733   8.757   6.703   3.387  1.7842 -1.2007 -0.4850
  317MOL0     H43734   8.548   6.683   3.601  0.4479 -0.0591 -1.4496
  317MOL0     H43735   8.428   6.810   3.618  0.7715  0.1479  1.1488
  317MOL0     H43736   8.395   6.644   3.414  0.3180 -0.0677 -0.5108
  317MOL0     H43737   8.551   6.694   3.349  0.5153  0.3089 -0.4850
  317MOL0     H43738   8.333   6.771   3.252 -1.3093 -3.0989  2.7000
  317MOL0     H43739   8.306   6.864   3.403  1.7711  1.8979  1.2971
  317MOL0     H43740   8.552   6.912   3.249 -0.3802  1.9510 -0.6093
  317MOL0     H43741   8.479   7.013   3.380  3.7273 -1.5059  0.3237
  317MOL0     H43742   8.280   7.156   3.022  1.7640  1.3971 -0.9775
  317MOL0     H43743   8.771   7.020   3.676  2.0816 -0.1874  2.1717
  317MOL0     H43744   8.957   7.110   3.749  2.6951  2.9867 -0.1309
  317MOL0     H43745   9.069   6.979   3.813  0.0237 -0.1917 -1.0892
  317MOL0     H43746   9.100   7.069   3.665  0.6349 -1.4483 -0.6539
  318MOL0     O43747   5.718   6.790   4.990  0.1922  0.0589  0.1621
  318MOL0     C43748   5.733   6.911   5.003 -0.1579  0.4300 -0.4622
  318MOL0     O43749   5.861   6.963   5.023 -0.0334 -0.0629 -0.6261
  318MOL0     C43750   5.977   6.894   4.997  1.7870 -0.0739  1.3505
  318MOL0     C43751   6.086   6.920   5.079  0.3205  0.3448  1.1825
  318MOL0     C43752   6.208   6.857   5.044  0.1532  1.1637  0.6560
  318MOL0     C43753   6.213   6.774   4.932  0.3477 -0.5051 -0.6521
  318MOL0     O43754   6.334   6.718   4.899 -0.1419  0.1812 -0.3140
  318MOL0     C43755   6.377   6.742   4.765  0.2745 -0.0733 -0.5469
  318MOL0     C43756   6.523   6.705   4.726 -0.8834  0.5814  0.0380
  318MOL0     C43757   6.635   6.784   4.796 -0.1932 -0.1906 -0.0207
  318MOL0     C43758   6.779   6.716   4.786  0.1198  1.1264 -0.2320
  318MOL0     C43759   6.900   6.779   4.849 -0.4207  0.2008 -0.2306
  318MOL0     C43760   6.952   6.917   4.782 -0.0248  0.2842  0.1602
  318MOL0     C43761   6.998   6.911   4.641 -0.6568  0.4297 -0.5544
  318MOL0     C43762   7.070   7.037   4.594 -0.6596  0.3922 -0.4405
  318MOL0     N43763   7.193   7.077   4.674  0.1933 -0.1196  0.4771
  318MOL0     C43764   7.198   7.175   4.768 -0.3584  0.4111  0.5477
  318MOL0     C43765   7.331   7.203   4.784  0.9565  0.2632 -0.1508
  318MOL0     C43766   7.384   7.315   4.876 -0.5461  0.7236  0.9639
  318MOL0     C43767   7.530   7.317   4.917 -0.5894  0.3149  0.5563
  318MOL0     C43768   7.635   7.334   4.814 -0.2802 -0.2388  1.1202
  318MOL0     C43769   7.774   7.323   4.857 -0.4734 -0.2203 -0.3839
  318MOL0     O43770   7.793   7.407   4.974  0.3101 -0.2023 -0.4606
  318MOL0     C43771   7.908   7.406   5.045  0.0619  0.7105  0.0540
  318MOL0     C43772   8.024   7.330   5.019 -0.7895 -0.1061 -0.6822
  318MOL0     C43773   8.139   7.349   5.099  0.7470 -1.0580 -0.1475
  318MOL0     C43774   8.252   7.270   5.063 -0.4768 -0.5762  0.3112
  318MOL0     C43775   8.138   7.440   5.207 -0.6808  0.1880  0.8393
  318MOL0     C43776   8.256   7.472   5.295 -0.1939  0.1739 -0.6940
  318MOL0     O43777   8.380   7.492   5.240 -0.1020 -1.2366 -0.4149
  318MOL0     C43778   8.485   7.535   5.315 -0.6308 -0.5566  0.1908
  318MOL0     C43779   8.573   7.439   5.358 -0.5226  0.6097 -0.3339
  318MOL0     C43780   8.676   7.470   5.449  0.5278  0.0094 -0.1791
  318MOL0     C43781   8.707   7.605   5.469 -0.7373  0.2966 -0.3000
  318MOL0     O43782   8.827   7.634   5.547  0.0355 -0.0259 -0.4436
  318MOL0     C43783   8.864   7.777   5.574  0.2409 -0.5097  0.1013
  318MOL0     C43784   8.986   7.773   5.662  0.6099 -0.5514  0.6935
  318MOL0     C43785   9.102   7.691   5.599  0.7147 -0.4367  0.3328
  318MOL0     C43786   9.213   7.694   5.702 -0.7875  0.2402 -0.2113
  318MOL0     C43787   9.345   7.627   5.659  0.9435 -0.2367 -0.4664
  318MOL0     C43788   9.447   7.631   5.774 -0.2148 -0.1114  0.5108
  318MOL0     C43789   9.475   7.769   5.833  0.2365 -0.5132  0.4211
  318MOL0     C43790   9.592   7.755   5.933  0.6089  0.1537 -0.5212
  318MOL0    Cl43791   9.574   7.891   6.050 -0.2043 -0.4931 -0.2298
  318MOL0     C43792   8.624   7.702   5.421 -0.7025 -0.3722 -1.3266
  318MOL0     C43793   8.512   7.673   5.348  0.3237  0.1640 -0.5887
  318MOL0     O43794   8.231   7.482   5.415 -0.1747 -0.0475 -0.0010
  318MOL0     C43795   8.018   7.512   5.223 -0.5633 -0.3683 -0.5516
  318MOL0     C43796   7.906   7.491   5.150  0.6373  0.2693 -0.2529
  318MOL0     N43797   7.399   7.115   4.707 -1.0863 -0.8642 -0.4147
  318MOL0     N43798   7.314   7.036   4.646 -0.9165 -0.1353 -0.6309
  318MOL0     C43799   6.098   6.757   4.851  0.1340  0.1283 -0.0312
  318MOL0     C43800   5.976   6.813   4.887 -0.6362 -0.3313 -0.1274
  318MOL0     C43801   5.628   7.010   5.043  0.0449  0.8758 -0.1742
  318MOL0     C43802   5.659   7.142   5.041 -0.3505 -0.5568 -0.3257
  318MOL0     C43803   5.567   7.241   5.060 -0.6145 -0.0217  0.1273
  318MOL0     C43804   5.438   7.217   5.099 -1.4374 -0.4443 -1.2851
  318MOL0     O43805   5.361   7.327   5.116 -0.6897  0.0003 -0.6732
  318MOL0     C43806   5.225   7.304   5.170  0.0602  0.8153  0.1865
  318MOL0     C43807   5.132   7.244   5.064 -0.1831  0.2620  0.5848
  318MOL0     C43808   4.987   7.262   5.113  0.0261 -0.5655 -0.8415
  318MOL0     C43809   4.876   7.214   5.016  0.5675 -0.4259 -0.9252
  318MOL0     C43810   4.749   7.202   5.094 -0.8673  0.3456 -0.4231
  318MOL0     C43811   4.636   7.194   5.134 -0.3400  0.1480 -0.6698
  318MOL0     C43812   5.406   7.078   5.112  0.3787 -0.1186  1.2222
  318MOL0     C43813   5.502   6.969   5.081  0.5373 -0.3166 -0.6330
  318MOL0     C43814   5.444   6.832   5.104 -0.0820 -0.5720 -0.0755
  318MOL0     H43815   6.070   6.989   5.161  1.4165 -2.7307  4.2465
  318MOL0     H43816   6.292   6.867   5.112  0.7221 -3.4739  0.9342
  318MOL0     H43817   6.358   6.846   4.736  1.9887 -0.0861 -1.8336
  318MOL0     H43818   6.310   6.679   4.705  0.4832 -3.2314  2.2245
  318MOL0     H43819   6.522   6.596   4.736  0.1672  0.4976 -0.5854
  318MOL0     H43820   6.541   6.723   4.620  0.2087 -0.8324 -0.0417
  318MOL0     H43821   6.658   6.876   4.742  1.5255 -1.3228 -1.3643
  318MOL0     H43822   6.603   6.811   4.897 -0.5758  1.1569 -0.4833
  318MOL0     H43823   6.766   6.613   4.822 -1.4656  1.5653  0.5102
  318MOL0     H43824   6.801   6.709   4.679 -0.5020 -0.7783 -0.2877
  318MOL0     H43825   6.972   6.697   4.860 -1.2408 -0.7919 -1.8381
  318MOL0     H43826   6.862   6.816   4.945 -1.8172  2.0191 -1.4182
  318MOL0     H43827   6.861   6.977   4.781 -1.7179 -2.1142 -0.3542
  318MOL0     H43828   7.025   6.961   4.850 -1.1177  2.8360 -0.2312
  318MOL0     H43829   6.910   6.890   4.580 -1.0747  1.6578 -0.4162
  318MOL0     H43830   7.065   6.825   4.638  0.4305  0.9153  3.8210
  318MOL0     H43831   7.085   7.019   4.487 -1.5029  0.5614 -0.5945
  318MOL0     H43832   6.995   7.117   4.589 -0.2824  0.7346 -0.7155
  318MOL0     H43833   7.105   7.219   4.805 -1.7625 -1.6036 -0.3747
  318MOL0     H43834   7.323   7.302   4.966  0.7112 -3.0398  1.4183
  318MOL0     H43835   7.349   7.405   4.823 -1.3716 -0.6557 -0.9361
  318MOL0     H43836   7.541   7.397   4.991  0.0381  0.6159  0.1491
  318MOL0     H43837   7.555   7.223   4.968  1.4754  0.1699 -0.5925
  318MOL0     H43838   7.617   7.258   4.737 -0.1487 -0.0281  0.8799
  318MOL0     H43839   7.628   7.426   4.757  2.0893  0.5755  2.0193
  318MOL0     H43840   7.784   7.217   4.883 -1.1993  0.0153  0.9323
  318MOL0     H43841   7.844   7.355   4.778  1.3946 -0.3723  1.1309
  318MOL0     H43842   8.036   7.258   4.939 -1.5726 -2.1445  0.9334
  318MOL0     H43843   8.241   7.163   5.043  1.2264 -1.0768  1.7924
  318MOL0     H43844   8.337   7.275   5.132 -0.7663  1.6713  0.6016
  318MOL0     H43845   8.291   7.316   4.972  2.3075  0.1240  1.7610
  318MOL0     H43846   8.565   7.333   5.335  1.5759  0.7407 -2.0331
  318MOL0     H43847   8.714   7.391   5.513 -1.8894  0.5050  2.0400
  318MOL0     H43848   8.886   7.816   5.474  0.4757 -2.3183 -0.5799
  318MOL0     H43849   8.785   7.838   5.617 -0.7415 -1.1776 -0.7135
  318MOL0     H43850   9.025   7.875   5.659  2.8850 -1.3844 -0.0744
  318MOL0     H43851   8.955   7.752   5.765 -2.5762  1.8422  0.3751
  318MOL0     H43852   9.124   7.715   5.495 -0.9433 -1.0100 -0.1773
  318MOL0     H43853   9.075   7.585   5.596  1.4534 -0.7852  2.9686
  318MOL0     H43854   9.183   7.638   5.791  0.3477 -3.6132 -2.0488
  318MOL0     H43855   9.238   7.799   5.722 -0.6948 -0.2084  2.3282
  318MOL0     H43856   9.333   7.521   5.632  1.5109 -0.1617 -1.0470
  318MOL0     H43857   9.376   7.674   5.565  1.6673  0.2284 -0.0100
  318MOL0     H43858   9.541   7.596   5.732  0.0532  1.7872 -0.5836
  318MOL0     H43859   9.423   7.559   5.853 -2.6966  0.0982  0.0500
  318MOL0     H43860   9.379   7.808   5.869  0.1820  0.3223 -0.5516
  318MOL0     H43861   9.512   7.830   5.749  0.8593 -4.9416 -2.8610
  318MOL0     H43862   9.693   7.750   5.893 -0.0902 -0.5600 -2.2995
  318MOL0     H43863   9.573   7.666   5.994 -0.3234  0.6339 -0.0806
  318MOL0     H43864   8.631   7.808   5.440 -2.0451 -0.2116 -1.6500
  318MOL0     H43865   8.435   7.749   5.337 -0.8591 -0.5474  1.9087
  318MOL0     H43866   8.017   7.588   5.300 -1.3012 -1.6497  0.7442
  318MOL0     H43867   7.816   7.550   5.160 -0.1096 -0.7224 -0.9489
  318MOL0     H43868   6.114   6.712   4.754  2.2453  3.2342 -1.3046
  318MOL0     H43869   5.889   6.823   4.822 -1.7273  2.0312  1.5546
  318MOL0     H43870   5.756   7.181   5.011  2.2692 -4.6191  1.8831
  318MOL0     H43871   5.593   7.345   5.041 -0.1246 -0.0748  0.5037
  318MOL0     H43872   5.218   7.239   5.257 -0.4268  0.4100 -0.1497
  318MOL0     H43873   5.194   7.398   5.218  0.7010  0.5419  1.1584
  318MOL0     H43874   5.147   7.138   5.043  1.3001  0.6196 -0.3621
  318MOL0     H43875   5.148   7.299   4.971 -0.3765  1.8674  1.4645
  318MOL0     H43876   4.987   7.206   5.207  2.8619 -2.9604 -2.1098
  318MOL0     H43877   4.967   7.369   5.129 -1.0888 -0.5927 -1.9489
  318MOL0     H43878   4.899   7.119   4.968 -0.3552  0.7318 -3.9688
  318MOL0     H43879   4.849   7.287   4.939 -0.1868  1.3664  0.9440
  318MOL0     H43880   4.535   7.175   5.164  0.1157 -2.8543 -0.6631
  318MOL0     H43881   5.310   7.050   5.156 -1.2676  3.4231  0.2037
  318MOL0     H43882   5.335   6.828   5.112  0.0599 -1.2095  2.4415
  318MOL0     H43883   5.472   6.765   5.023 -0.4041 -1.4079  0.4942
  318MOL0     H43884   5.480   6.788   5.198 -1.8935  0.1728  1.0187
  319MOL0     O43885   0.428  10.424  10.547 -0.7593 -0.3402 -0.8817
  319MOL0     C43886   0.425  10.308  10.600 -0.0953  0.6509 -0.1549
  319MOL0     O43887   0.533  10.247  10.649  0.1460  0.1456 -0.2323
  319MOL0     C43888   0.656  10.310  10.630 -0.0379  0.0134 -0.8037
  319MOL0     C43889   0.732  10.332  10.746 -0.2139 -0.2511  0.2427
  319MOL0     C43890   0.853  10.391  10.728 -0.5295  0.7997  0.0936
  319MOL0     C43891   0.907  10.434  10.607 -0.4190  0.4475  0.5005
  319MOL0     O43892   1.039  10.483  10.589  0.7557  0.5290 -0.0698
  319MOL0     C43893   1.113  10.533  10.706 -0.1205 -0.4847  1.7910
  319MOL0     C43894   1.241  10.597  10.655 -0.5911 -0.1227 -1.1711
  319MOL0     C43895   1.336  10.636  10.775  0.0937  0.1286  0.1291
  319MOL0     C43896   1.466  10.705  10.736  0.2728  0.3211  0.0170
  319MOL0     C43897   1.550  10.726  10.869 -0.7288 -0.1285  1.2012
  319MOL0     C43898   1.692  10.662  10.851  0.1756  0.2755  0.1911
  319MOL0     C43899   1.787  10.679  10.971 -0.0860 -0.8922 -0.6845
  319MOL0     C43900   1.825  10.819  10.994 -0.2344 -0.6232 -1.3415
  319MOL0     N43901   1.938  10.832  11.098  0.2541  1.0358 -0.3065
  319MOL0     C43902   1.939  10.782  11.230  0.2696  0.2817 -0.8372
  319MOL0     C43903   2.071  10.811  11.262 -0.2456  0.2684 -0.4420
  319MOL0     C43904   2.132  10.770  11.393  0.1662  0.0950 -0.3152
  319MOL0     C43905   2.271  10.708  11.375  0.5509  1.0031 -0.2800
  319MOL0     C43906   2.268  10.578  11.298 -0.2878  0.7930  0.6412
  319MOL0     C43907   2.400  10.534  11.228  0.5313 -0.3023  0.3006
  319MOL0     O43908   2.486  10.488  11.333  0.0419 -0.0482 -0.0200
  319MOL0     C43909   2.618  10.471  11.289  0.8996 -0.4850 -0.1800
  319MOL0     C43910   2.638  10.383  11.180  0.5048  1.3251  0.5536
  319MOL0     C43911   2.772  10.370  11.123 -0.7319  0.5293 -0.4636
  319MOL0     C43912   2.789  10.260  11.017  0.4587 -0.5097  1.1029
  319MOL0     C43913   2.882  10.433  11.189  0.7285  0.0911 -0.8048
  319MOL0     C43914   3.031  10.411  11.149  0.0274  0.0515  0.3393
  319MOL0     O43915   3.122  10.432  11.250 -0.3189  0.3454 -0.4230
  319MOL0     C43916   3.252  10.390  11.224  0.0945 -0.3623  0.1397
  319MOL0     C43917   3.322  10.449  11.123  0.2396  0.1966 -0.5778
  319MOL0     C43918   3.456  10.407  11.103  0.5523 -0.2197  0.5008
  319MOL0     C43919   3.523  10.308  11.173  0.7556 -0.2062  0.3813
  319MOL0     O43920   3.651  10.287  11.146 -1.0369  0.2567  0.1865
  319MOL0     C43921   3.715  10.158  11.164  0.4945 -0.0012  0.4624
  319MOL0     C43922   3.857  10.149  11.112 -0.4533 -0.9533  0.4464
  319MOL0     C43923   3.954  10.243  11.201 -0.1714  0.2886 -0.0809
  319MOL0     C43924   4.107  10.214  11.169  0.7301 -1.1360 -0.5358
  319MOL0     C43925   4.188  10.332  11.226  1.3312  0.5010 -0.2384
  319MOL0     C43926   4.340  10.321  11.197 -0.0472  0.4670  0.0129
  319MOL0     C43927   4.416  10.434  11.271  0.5303  0.2887 -0.4836
  319MOL0     C43928   4.564  10.453  11.233 -0.3188 -0.1017  0.3704
  319MOL0    Cl43929   4.640  10.295  11.240  0.1558  0.5724 -0.2486
  319MOL0     C43930   3.445  10.241  11.267 -0.7351 -0.6309  0.7615
  319MOL0     C43931   3.313  10.285  11.296  0.5952  0.8063 -1.2231
  319MOL0     O43932   3.047  10.358  11.033 -0.3687 -0.1360 -0.0786
  319MOL0     C43933   2.859  10.526  11.298  0.2884 -0.3564 -0.1752
  319MOL0     C43934   2.725  10.538  11.343 -0.4168 -1.0076 -0.3342
  319MOL0     N43935   2.136  10.866  11.158  0.6791 -0.7931 -0.5362
  319MOL0     N43936   2.057  10.880  11.056  0.4971 -0.0658 -1.2444
  319MOL0     C43937   0.832  10.397  10.492  0.0072  0.8922  0.1773
  319MOL0     C43938   0.704  10.343  10.508  0.5763  0.1505  0.1417
  319MOL0     C43939   0.296  10.231  10.610  0.4259 -0.3589 -0.1301
  319MOL0     C43940   0.305  10.098  10.665  0.6548  0.1392 -0.2932
  319MOL0     C43941   0.189  10.026  10.690  0.2182 -0.2080  0.2148
  319MOL0     C43942   0.058  10.076  10.653  0.1382  0.2436 -0.1210
  319MOL0     O43943  -0.063  10.012  10.690  0.3967 -0.2181 -0.0813
  319MOL0     C43944  -0.063   9.884  10.748  0.8594 -0.5364  0.0805
  319MOL0     C43945  -0.207   9.836  10.749 -1.3100  0.1604  0.9330
  319MOL0     C43946  -0.216   9.690  10.798  0.5327  0.5425 -0.6335
  319MOL0     C43947  -0.223   9.585  10.690  0.8001  0.3610 -0.6121
  319MOL0     C43948  -0.148   9.597  10.560 -1.0466 -0.1289 -0.1311
  319MOL0     C43949  -0.122   9.614  10.446  0.0344 -0.0703  0.3568
  319MOL0     C43950   0.051  10.205  10.594 -1.3584 -0.0875  0.9450
  319MOL0     C43951   0.168  10.282  10.563  1.2122  0.5317 -0.6846
  319MOL0     C43952   0.153  10.401  10.479 -0.5728  0.1299  0.2394
  319MOL0     H43953   0.690  10.282  10.832  0.9675  0.9109  1.5475
  319MOL0     H43954   0.916  10.401  10.816  0.0846 -0.2563 -0.2080
  319MOL0     H43955   1.136  10.447  10.770 -0.7030 -2.7609 -0.8550
  319MOL0     H43956   1.055  10.609  10.758 -1.8990 -0.2796 -0.3490
  319MOL0     H43957   1.297  10.526  10.593  2.2479  1.7834 -1.0020
  319MOL0     H43958   1.225  10.684  10.592 -0.6056  0.5314 -0.2845
  319MOL0     H43959   1.273  10.698  10.839  1.1999  0.7468  0.6572
  319MOL0     H43960   1.363  10.547  10.833 -0.7735  1.0025  1.9576
  319MOL0     H43961   1.513  10.638  10.663 -0.0029 -1.0081  1.0341
  319MOL0     H43962   1.450  10.806  10.697  2.7306  0.8324  0.1471
  319MOL0     H43963   1.498  10.689  10.958 -1.8606 -3.2267 -0.5905
  319MOL0     H43964   1.566  10.834  10.878 -0.0604 -0.2592  1.5790
  319MOL0     H43965   1.681  10.558  10.819 -0.2272  0.4568 -0.2704
  319MOL0     H43966   1.735  10.716  10.766 -0.5559  2.3738  1.0686
  319MOL0     H43967   1.883  10.631  10.949  2.1392  1.9893  1.7259
  319MOL0     H43968   1.739  10.634  11.058 -1.6065  2.6476  0.4917
  319MOL0     H43969   1.846  10.878  10.904 -0.1460 -0.4865 -1.2322
  319MOL0     H43970   1.732  10.864  11.032  1.3177  1.0787  0.7433
  319MOL0     H43971   1.857  10.729  11.277 -0.4050  1.8721 -0.1738
  319MOL0     H43972   2.068  10.691  11.433  0.0269 -1.3014 -3.0735
  319MOL0     H43973   2.137  10.855  11.463 -2.0287  0.3633 -0.4230
  319MOL0     H43974   2.341  10.774  11.322 -0.0485  2.4067  0.6265
  319MOL0     H43975   2.313  10.684  11.473  3.1089 -1.8210 -1.8789
  319MOL0     H43976   2.236  10.493  11.359 -0.4610 -0.9189 -1.6923
  319MOL0     H43977   2.193  10.574  11.218 -0.0429  1.5354  0.3733
  319MOL0     H43978   2.378  10.446  11.166  1.4224  0.1180 -0.6282
  319MOL0     H43979   2.447  10.606  11.161  0.0206 -2.0898 -2.1216
  319MOL0     H43980   2.555  10.326  11.138  1.9243 -0.5360  0.1364
  319MOL0     H43981   2.829  10.287  10.919  0.4560 -2.2017  0.6009
  319MOL0     H43982   2.690  10.222  10.988  0.8659 -1.7768  1.3371
  319MOL0     H43983   2.849  10.179  11.058 -0.0287 -0.4737  1.9169
  319MOL0     H43984   3.293  10.534  11.061  1.7516  0.6966 -0.6351
  319MOL0     H43985   3.513  10.462  11.029 -1.2820  1.5347  0.3014
  319MOL0     H43986   3.722  10.134  11.271 -1.4754  1.4516  0.9844
  319MOL0     H43987   3.642  10.087  11.123 -0.0162  0.6411  0.2546
  319MOL0     H43988   3.886  10.044  11.111 -0.8097 -1.1437 -3.2024
  319MOL0     H43989   3.866  10.172  11.006  1.6523  0.3343  0.8531
  319MOL0     H43990   3.923  10.240  11.306 -1.6938  2.6699 -0.3712
  319MOL0     H43991   3.930  10.344  11.165 -1.7312 -0.6628 -1.9237
  319MOL0     H43992   4.138  10.194  11.066 -0.1375 -2.9164 -0.5060
  319MOL0     H43993   4.136  10.124  11.224  0.8384 -0.5407  0.3924
  319MOL0     H43994   4.156  10.421  11.171 -0.4606 -1.5987 -2.8903
  319MOL0     H43995   4.171  10.332  11.334 -0.3422 -2.5868 -0.3966
  319MOL0     H43996   4.362  10.331  11.091  1.3537  1.7225  0.3766
  319MOL0     H43997   4.377  10.226  11.239 -1.0453  1.1296  2.6072
  319MOL0     H43998   4.417  10.394  11.373  3.0684 -2.4704 -1.4425
  319MOL0     H43999   4.359  10.527  11.262 -1.3115 -0.3631  2.6056
  319MOL0     H44000   4.597  10.531  11.302  0.1275 -0.4895  0.5984
  319MOL0     H44001   4.569  10.503  11.135  0.8662  0.2908  0.6152
  319MOL0     H44002   3.489  10.157  11.318  0.0982  0.7488  2.4180
  319MOL0     H44003   3.251  10.239  11.372  0.4359  1.3526 -1.0146
  319MOL0     H44004   2.931  10.568  11.367 -1.2826 -0.0857  1.3983
  319MOL0     H44005   2.707  10.595  11.434  0.2078 -0.9360 -0.2545
  319MOL0     H44006   0.873  10.433  10.398 -0.7493 -1.9860 -1.3823
  319MOL0     H44007   0.644  10.317  10.422  0.8118  0.8159 -0.2367
  319MOL0     H44008   0.399  10.064  10.707  1.0295  1.7602  0.2273
  319MOL0     H44009   0.210   9.929  10.734  0.3524 -0.6335 -0.7583
  319MOL0     H44010   0.003   9.822  10.686  1.5685  1.2379 -1.0196
  319MOL0     H44011  -0.047   9.888  10.856 -2.4820  2.9430  0.6670
  319MOL0     H44012  -0.254   9.834  10.650 -1.6296  0.5493  1.0773
  319MOL0     H44013  -0.272   9.892  10.816 -0.6917  0.4863  1.2724
  319MOL0     H44014  -0.125   9.677  10.858 -0.6053  1.4763  1.3797
  319MOL0     H44015  -0.291   9.673  10.875  1.1290  0.2286 -0.1078
  319MOL0     H44016  -0.330   9.580  10.670  0.5248  2.8240  0.0300
  319MOL0     H44017  -0.198   9.496  10.749 -2.1316 -1.7545 -2.3294
  319MOL0     H44018  -0.093   9.627  10.344  0.8931  0.1709  0.6177
  319MOL0     H44019  -0.043  10.241  10.555 -0.8294 -1.3924 -1.8242
  319MOL0     H44020   0.219  10.393  10.393 -2.5507  0.1144 -1.3425
  319MOL0     H44021   0.053  10.399  10.437 -0.0622 -0.3725 -0.9760
  319MOL0     H44022   0.173  10.485  10.547  0.3039 -0.4251  0.7007
  320MOL0     O44023  10.436   1.559   3.810  0.0346  0.4481  0.4295
  320MOL0     C44024  10.461   1.496   3.918  0.2287  0.0783 -0.4871
  320MOL0     O44025  10.568   1.525   4.007  0.3023 -0.3303 -0.2657
  320MOL0     C44026  10.653   1.626   3.969  0.1950  0.3342  0.7874
  320MOL0     C44027  10.617   1.760   3.968 -0.2779 -0.6244 -0.0157
  320MOL0     C44028  10.707   1.869   3.942  0.4114 -0.5299 -0.3001
  320MOL0     C44029  10.838   1.837   3.913 -0.8612  0.7915  0.2551
  320MOL0     O44030  10.936   1.935   3.888 -0.5173  0.2703 -0.1761
  320MOL0     C44031  10.916   2.065   3.947 -0.1700  0.1622  0.8043
  320MOL0     C44032  11.019   2.155   3.904 -0.2686 -0.3331  0.0739
  320MOL0     C44033  11.046   2.158   3.749 -0.2196 -0.4001  0.4495
  320MOL0     C44034  11.145   2.276   3.717  0.2335  0.0057  0.6129
  320MOL0     C44035  11.224   2.258   3.583 -0.0088  0.9385  0.6255
  320MOL0     C44036  11.314   2.375   3.554 -0.5591 -0.4603 -0.0102
  320MOL0     C44037  11.438   2.329   3.479 -0.6913  0.0621 -0.3283
  320MOL0     C44038  11.389   2.301   3.332  0.0831  0.2600  0.6764
  320MOL0     N44039  11.506   2.272   3.245  0.1229  0.4930  0.8422
  320MOL0     C44040  11.486   2.234   3.112  0.3835  0.0933  0.2450
  320MOL0     C44041  11.611   2.243   3.059  0.5192 -0.1103 -0.0721
  320MOL0     C44042  11.640   2.211   2.913 -0.6267 -0.1790  0.1510
  320MOL0     C44043  11.791   2.175   2.890 -0.3777  0.0193  0.0403
  320MOL0     C44044  11.883   2.298   2.853 -0.0150 -0.8170 -0.2178
  320MOL0     C44045  12.023   2.254   2.807  0.6371  0.6118 -0.1755
  320MOL0     O44046  12.100   2.187   2.908  0.1645 -0.9087 -0.3457
  320MOL0     C44047  12.238   2.178   2.889 -0.4960  0.2644  0.1926
  320MOL0     C44048  12.300   2.161   2.770 -0.7251  0.1805 -0.4627
  320MOL0     C44049  12.434   2.132   2.759 -0.5350  1.0303 -0.2413
  320MOL0     C44050  12.483   2.108   2.618 -0.1876 -0.2020 -0.4290
  320MOL0     C44051  12.513   2.127   2.879  0.1996 -0.2983 -0.0971
  320MOL0     C44052  12.659   2.087   2.868  1.0337  0.7386  0.4599
  320MOL0     O44053  12.700   2.014   2.973  0.1433  0.5275  0.4476
  320MOL0     C44054  12.838   2.003   2.979  0.2933  0.3564  0.3892
  320MOL0     C44055  12.917   2.093   3.053 -0.2091 -0.2296  0.2546
  320MOL0     C44056  13.060   2.085   3.043  1.2207 -0.2124  0.4449
  320MOL0     C44057  13.123   1.976   2.980 -1.1546 -0.7032 -0.1428
  320MOL0     O44058  13.264   2.000   2.969  0.2173  0.1756  0.2708
  320MOL0     C44059  13.337   2.012   2.849  0.9231  0.0607  0.6240
  320MOL0     C44060  13.484   2.036   2.871 -0.4177 -0.4641 -0.2075
  320MOL0     C44061  13.553   1.926   2.956  0.5586 -0.4621  0.0470
  320MOL0     C44062  13.689   1.910   2.895 -0.1054  0.6916  0.2966
  320MOL0     C44063  13.787   1.863   2.998  0.2380  0.5065  1.1423
  320MOL0     C44064  13.844   1.975   3.091 -0.2918 -0.4274 -0.4317
  320MOL0     C44065  13.944   1.924   3.191  0.4002 -0.7214  0.1222
  320MOL0     C44066  14.005   2.030   3.279  0.3835 -0.0740  0.1812
  320MOL0    Cl44067  14.124   2.122   3.177 -0.7715  0.2812 -0.3550
  320MOL0     C44068  13.041   1.874   2.924 -0.7559  0.1958  0.4167
  320MOL0     C44069  12.901   1.891   2.921  0.4044 -0.2264 -1.2097
  320MOL0     O44070  12.724   2.128   2.772  0.2782  0.1993  0.2973
  320MOL0     C44071  12.450   2.162   2.998  0.6223 -0.6998  0.1190
  320MOL0     C44072  12.313   2.176   3.010  1.2394  1.1637  0.2332
  320MOL0     N44073  11.698   2.281   3.162  0.1390 -0.4211 -0.2165
  320MOL0     N44074  11.636   2.294   3.271 -0.5548 -0.2273 -0.4342
  320MOL0     C44075  10.876   1.696   3.922 -0.8758  0.7668  0.1191
  320MOL0     C44076  10.790   1.594   3.953  0.7419 -1.0747  0.7300
  320MOL0     C44077  10.381   1.380   3.963 -0.8554  0.1530  0.0265
  320MOL0     C44078  10.435   1.296   4.063 -0.8474  0.2260  0.4617
  320MOL0     C44079  10.363   1.187   4.111 -0.1897 -1.0601 -0.4586
  320MOL0     C44080  10.243   1.143   4.055 -0.8862 -0.1334 -0.4276
  320MOL0     O44081  10.196   1.021   4.103  0.0951  0.1870  0.7785
  320MOL0     C44082  10.076   0.973   4.036  0.9939  0.1537 -0.0079
  320MOL0     C44083  10.031   0.842   4.086 -0.3279 -0.1597 -0.4639
  320MOL0     C44084  10.102   0.718   4.037 -0.8163 -0.7749 -0.6992
  320MOL0     C44085  10.089   0.592   4.126  0.0524  0.0846 -0.3362
  320MOL0     C44086  10.101   0.475   4.048 -0.5764  0.2874  0.1223
  320MOL0     C44087  10.117   0.389   3.962 -0.0831 -0.1127  0.4709
  320MOL0     C44088  10.185   1.227   3.958  0.8950  0.0108  0.2164
  320MOL0     C44089  10.252   1.343   3.913  0.5321 -0.3776  0.1554
  320MOL0     C44090  10.170   1.435   3.824 -0.5488  0.0003 -1.1791
  320MOL0     H44091  10.520   1.793   4.004 -0.6244 -1.6328  0.0116
  320MOL0     H44092  10.670   1.971   3.940 -2.6668 -1.5067  1.0284
  320MOL0     H44093  10.922   2.062   4.056  1.0483  0.9930  0.7898
  320MOL0     H44094  10.823   2.111   3.913  0.2147 -0.6733 -1.6037
  320MOL0     H44095  10.994   2.258   3.932 -1.6316 -0.0085 -2.0486
  320MOL0     H44096  11.103   2.127   3.968 -0.2455  0.0714  0.2290
  320MOL0     H44097  11.101   2.070   3.714  1.2342 -0.2574  2.2253
  320MOL0     H44098  10.960   2.172   3.683  0.9846  1.3075 -0.8369
  320MOL0     H44099  11.091   2.371   3.712  0.5478  0.1875  0.7277
  320MOL0     H44100  11.212   2.277   3.803  1.2998  5.0892  0.0070
  320MOL0     H44101  11.155   2.258   3.498  0.1372 -0.3175  0.4953
  320MOL0     H44102  11.286   2.170   3.603 -2.1292 -1.2165 -1.5737
  320MOL0     H44103  11.255   2.452   3.503  0.4954 -0.0039 -0.5759
  320MOL0     H44104  11.340   2.415   3.652  1.0272 -0.7982 -0.2646
  320MOL0     H44105  11.497   2.255   3.535  2.1266  3.0065  0.9544
  320MOL0     H44106  11.502   2.418   3.485 -0.9211  0.1481  2.2970
  320MOL0     H44107  11.315   2.221   3.329  0.5004 -0.2035  1.9535
  320MOL0     H44108  11.336   2.388   3.293 -0.7923 -1.4524 -2.2355
  320MOL0     H44109  11.404   2.198   3.052 -0.0622  1.4603  0.0072
  320MOL0     H44110  11.596   2.284   2.845 -2.9364 -0.0356  1.7057
  320MOL0     H44111  11.591   2.119   2.880  3.1825 -1.9555 -1.2195
  320MOL0     H44112  11.831   2.139   2.985  3.4013  1.3370 -0.8530
  320MOL0     H44113  11.802   2.092   2.820  0.5980 -0.4168  0.6986
  320MOL0     H44114  11.840   2.343   2.764 -0.3092  1.7100  1.1206
  320MOL0     H44115  11.886   2.372   2.933  0.8666  0.2790 -1.2295
  320MOL0     H44116  12.020   2.186   2.721 -2.4793 -1.6745  1.5502
  320MOL0     H44117  12.069   2.350   2.782 -0.9003  0.8868 -2.1677
  320MOL0     H44118  12.246   2.170   2.676 -2.7853 -1.4765  0.4998
  320MOL0     H44119  12.571   2.042   2.616 -0.2223 -0.2909  0.5336
  320MOL0     H44120  12.515   2.204   2.576  1.1313 -0.1761  0.5643
  320MOL0     H44121  12.402   2.063   2.560 -1.2628  2.1925 -0.9042
  320MOL0     H44122  12.873   2.171   3.114  1.1348  1.2010 -0.5229
  320MOL0     H44123  13.109   2.170   3.089  0.2969  0.2214  0.6709
  320MOL0     H44124  13.315   1.921   2.794 -4.4180 -0.2902  2.7499
  320MOL0     H44125  13.296   2.097   2.794  0.1947 -0.5191  0.2657
  320MOL0     H44126  13.529   2.036   2.771 -0.8606 -2.9009 -0.4639
  320MOL0     H44127  13.513   2.135   2.907 -1.0606  0.1625 -1.3380
  320MOL0     H44128  13.494   1.834   2.948 -0.2233  0.0200  0.1336
  320MOL0     H44129  13.550   1.944   3.064  1.8281 -3.9532  0.8043
  320MOL0     H44130  13.723   2.007   2.856  0.0142  0.2658 -0.6861
  320MOL0     H44131  13.692   1.836   2.816  2.2764 -1.9224  2.6002
  320MOL0     H44132  13.737   1.787   3.058 -3.3035  0.9129 -1.0181
  320MOL0     H44133  13.869   1.810   2.949 -1.4297  0.7636 -2.2046
  320MOL0     H44134  13.760   2.019   3.145  0.6608  1.6718 -0.5257
  320MOL0     H44135  13.888   2.056   3.032 -1.2081  0.1460 -0.3491
  320MOL0     H44136  14.024   1.876   3.134  0.3167 -2.4461  1.3556
  320MOL0     H44137  13.897   1.849   3.255 -1.3554  0.9595  0.9040
  320MOL0     H44138  14.068   1.977   3.352  1.0310 -2.5152 -2.0028
  320MOL0     H44139  13.918   2.085   3.317 -1.7749 -1.2211 -2.6998
  320MOL0     H44140  13.065   1.787   2.864 -2.5668  1.9564 -3.2545
  320MOL0     H44141  12.846   1.808   2.877 -2.3331  0.9682 -0.2848
  320MOL0     H44142  12.509   2.158   3.089 -1.5757 -1.2564  1.5903
  320MOL0     H44143  12.261   2.200   3.102 -2.1367 -0.0808 -1.1991
  320MOL0     H44144  10.978   1.672   3.892 -0.0509 -2.2013  4.4782
  320MOL0     H44145  10.826   1.492   3.946 -0.5188 -1.7031  2.6196
  320MOL0     H44146  10.532   1.320   4.106  0.8435 -3.0499 -1.1161
  320MOL0     H44147  10.400   1.122   4.190 -0.9890  0.6502  1.4218
  320MOL0     H44148   9.986   1.034   4.048 -0.1140 -1.6061  0.9827
  320MOL0     H44149  10.094   0.974   3.928  0.6975  4.0807 -0.1527
  320MOL0     H44150   9.925   0.833   4.061 -0.7431 -1.9418  1.6532
  320MOL0     H44151  10.047   0.845   4.194 -1.1610  1.8974 -0.3560
  320MOL0     H44152  10.065   0.691   3.938 -0.7044  0.8738 -1.2239
  320MOL0     H44153  10.208   0.741   4.022 -1.5516  2.6888 -1.4666
  320MOL0     H44154   9.997   0.595   4.185 -0.2378 -2.4699 -0.5755
  320MOL0     H44155  10.164   0.584   4.204 -0.0519  0.1105 -0.2323
  320MOL0     H44156  10.119   0.307   3.893 -2.2825 -0.3647  0.6398
  320MOL0     H44157  10.084   1.211   3.921  0.5965 -0.9372  1.3686
  320MOL0     H44158  10.171   1.540   3.856 -1.3588 -0.6486  1.1689
  320MOL0     H44159  10.198   1.418   3.719  1.2678 -2.1435 -0.4168
  320MOL0     H44160  10.064   1.420   3.845 -0.5860  2.5201  0.9006
  321MOL0     O44161   7.498   7.773   9.376  0.4187 -0.1363  0.4922
  321MOL0     C44162   7.399   7.702   9.414 -0.3707  0.2293  0.0903
  321MOL0     O44163   7.404   7.566   9.424 -0.2541 -0.1181 -0.2152
  321MOL0     C44164   7.527   7.507   9.438  0.7721 -0.1832  0.5687
  321MOL0     C44165   7.584   7.474   9.557 -1.1204 -0.2982  0.1027
  321MOL0     C44166   7.707   7.402   9.560 -0.3216 -1.0818  0.3856
  321MOL0     C44167   7.786   7.382   9.443 -0.5082  0.0871 -0.1198
  321MOL0     O44168   7.909   7.318   9.440 -0.0119 -0.2123 -0.8231
  321MOL0     C44169   8.015   7.401   9.495  0.0159 -0.7574 -0.8056
  321MOL0     C44170   8.114   7.459   9.386 -0.1017  0.1035 -0.3560
  321MOL0     C44171   8.165   7.342   9.290 -0.3931  0.0400 -0.2681
  321MOL0     C44172   8.313   7.342   9.257 -0.7943 -0.2435  0.0134
  321MOL0     C44173   8.357   7.244   9.143  0.3850 -0.2368  0.3982
  321MOL0     C44174   8.507   7.221   9.150 -0.3523 -0.9093 -0.8086
  321MOL0     C44175   8.554   7.142   9.034 -1.4373  0.1688 -0.0728
  321MOL0     C44176   8.622   7.209   8.917 -0.1906 -0.4172  0.4217
  321MOL0     N44177   8.754   7.267   8.953  0.3794 -0.5103 -0.0021
  321MOL0     C44178   8.779   7.406   8.977  0.2140  0.4495  0.2282
  321MOL0     C44179   8.915   7.411   8.987  0.7672  0.0611  0.1291
  321MOL0     C44180   8.997   7.526   9.008  0.0461 -0.9057 -0.9322
  321MOL0     C44181   9.088   7.552   8.892 -0.4085  0.2174  0.2439
  321MOL0     C44182   9.007   7.593   8.769 -0.1428 -0.0447  0.6750
  321MOL0     C44183   9.099   7.645   8.661  1.0383 -0.7111  0.4321
  321MOL0     O44184   9.217   7.555   8.655  0.3121 -0.2197 -0.9239
  321MOL0     C44185   9.307   7.591   8.566  0.4842  0.6963 -0.9974
  321MOL0     C44186   9.319   7.711   8.489  0.6533 -0.0378 -0.0902
  321MOL0     C44187   9.422   7.733   8.395 -0.4589  0.3268 -0.0863
  321MOL0     C44188   9.420   7.861   8.310 -0.3163 -0.6883 -1.2812
  321MOL0     C44189   9.525   7.637   8.384 -0.0132 -0.2611  0.2554
  321MOL0     C44190   9.652   7.653   8.309 -0.4599 -0.7116  0.2203
  321MOL0     O44191   9.706   7.775   8.309  0.2319 -0.4893  0.3770
  321MOL0     C44192   9.790   7.808   8.204 -0.3216 -0.5123 -0.1748
  321MOL0     C44193   9.741   7.873   8.085 -0.2798 -0.3133  0.7622
  321MOL0     C44194   9.832   7.892   7.985  0.3401 -1.0115  0.5018
  321MOL0     C44195   9.967   7.855   7.992 -0.4644  0.9438 -0.8015
  321MOL0     O44196  10.049   7.869   7.885 -0.9486  0.2794 -0.2654
  321MOL0     C44197  10.178   7.792   7.893 -0.4193 -0.5777  0.7992
  321MOL0     C44198  10.243   7.773   7.751 -0.1614  0.4363  0.1906
  321MOL0     C44199  10.293   7.901   7.703 -0.5540  0.8073  0.0132
  321MOL0     C44200  10.335   7.879   7.552  0.0748  0.4967 -0.3347
  321MOL0     C44201  10.387   8.003   7.490 -0.3779 -0.3818 -0.4641
  321MOL0     C44202  10.354   8.031   7.337 -0.0492 -0.3119  0.0787
  321MOL0     C44203  10.442   8.134   7.282 -0.6981 -0.2064 -0.0730
  321MOL0     C44204  10.409   8.156   7.129  0.2093 -0.0663 -0.1073
  321MOL0    Cl44205  10.526   8.281   7.085  0.5877  0.0435  0.0031
  321MOL0     C44206  10.011   7.816   8.121  0.2279  0.9195 -0.1702
  321MOL0     C44207   9.923   7.782   8.221 -0.3352  0.5765  0.1350
  321MOL0     O44208   9.689   7.557   8.241 -0.5239  0.3323  0.0084
  321MOL0     C44209   9.508   7.511   8.446  1.0467 -0.3240  0.4687
  321MOL0     C44210   9.404   7.495   8.546  0.1026  0.6995  0.8495
  321MOL0     N44211   8.963   7.282   8.964 -0.3888  0.9085  1.0509
  321MOL0     N44212   8.873   7.191   8.940  0.5007 -0.6990 -0.6114
  321MOL0     C44213   7.725   7.405   9.321  0.5084  0.3195  0.0317
  321MOL0     C44214   7.605   7.474   9.318 -0.0848 -0.1409 -0.0488
  321MOL0     C44215   7.264   7.768   9.419  0.2894 -0.0063  0.1596
  321MOL0     C44216   7.159   7.710   9.341  0.6376  0.2670 -0.1834
  321MOL0     C44217   7.026   7.759   9.343 -0.1963 -0.3428 -0.3532
  321MOL0     C44218   6.998   7.867   9.432  0.0277  0.5225  0.7481
  321MOL0     O44219   6.870   7.916   9.435 -0.0278 -0.1328 -0.2590
  321MOL0     C44220   6.756   7.821   9.426 -0.0797  0.2216 -0.8326
  321MOL0     C44221   6.640   7.889   9.500 -0.0971 -0.8075  0.0004
  321MOL0     C44222   6.675   7.929   9.641 -0.3548  0.0114 -0.1999
  321MOL0     C44223   6.554   7.978   9.717  0.2054 -0.7988  0.0034
  321MOL0     C44224   6.570   7.999   9.865 -0.1018  0.2654 -0.0879
  321MOL0     C44225   6.565   8.008   9.986  0.4236 -0.1095 -0.3580
  321MOL0     C44226   7.105   7.931   9.492 -0.2070 -0.0592 -0.7175
  321MOL0     C44227   7.238   7.875   9.495 -0.7120 -0.3141 -0.2772
  321MOL0     C44228   7.341   7.938   9.582  0.0644 -0.3776 -0.0329
  321MOL0     H44229   7.531   7.483   9.652  1.8596 -2.6977  2.2095
  321MOL0     H44230   7.752   7.372   9.654  1.0206  2.8320  1.1962
  321MOL0     H44231   8.076   7.328   9.549 -1.1402 -1.4985 -0.4657
  321MOL0     H44232   7.977   7.477   9.563 -0.6085 -0.8214 -1.0791
  321MOL0     H44233   8.077   7.549   9.337 -0.7306 -0.7447 -1.4788
  321MOL0     H44234   8.207   7.487   9.437 -0.6286  1.2144  0.0251
  321MOL0     H44235   8.139   7.246   9.335 -0.2299  0.1521  0.0626
  321MOL0     H44236   8.101   7.348   9.201  1.0824  0.9826 -1.3208
  321MOL0     H44237   8.338   7.447   9.242 -3.2370  0.5008  0.7879
  321MOL0     H44238   8.371   7.309   9.344  1.1220  1.4235 -0.5424
  321MOL0     H44239   8.315   7.273   9.046  0.1901 -1.6920  0.0268
  321MOL0     H44240   8.316   7.148   9.175 -0.3981  0.8840  3.0824
  321MOL0     H44241   8.564   7.311   9.174 -1.0347 -0.9724  1.1475
  321MOL0     H44242   8.523   7.154   9.234  1.2679 -0.1188 -0.4444
  321MOL0     H44243   8.473   7.080   8.997  0.1303  0.2554 -4.0678
  321MOL0     H44244   8.626   7.067   9.068 -3.6058 -2.1727 -0.3750
  321MOL0     H44245   8.648   7.129   8.848 -1.9423  0.7331 -1.6753
  321MOL0     H44246   8.556   7.280   8.868  0.0390 -1.4150 -1.4003
  321MOL0     H44247   8.727   7.501   8.983  3.0224  2.0859  0.3800
  321MOL0     H44248   9.057   7.512   9.099 -0.5512  2.9108  0.1970
  321MOL0     H44249   8.937   7.612   9.038 -1.8942 -1.9229 -1.6865
  321MOL0     H44250   9.154   7.638   8.908 -0.1452  0.7009 -2.8112
  321MOL0     H44251   9.156   7.467   8.883  0.8954  1.2636 -0.2196
  321MOL0     H44252   8.952   7.511   8.723  1.6157 -0.4884 -0.7730
  321MOL0     H44253   8.938   7.674   8.796 -1.7204 -1.3168  0.6054
  321MOL0     H44254   9.048   7.654   8.565  0.7284 -0.3286  0.6295
  321MOL0     H44255   9.122   7.747   8.693  0.3881  0.5450 -2.7379
  321MOL0     H44256   9.237   7.782   8.497  0.0243 -0.7241 -0.3794
  321MOL0     H44257   9.404   7.818   8.211 -0.6302 -2.6790 -0.4257
  321MOL0     H44258   9.507   7.926   8.318 -1.4695  0.6838  2.2289
  321MOL0     H44259   9.330   7.921   8.328 -0.3517 -1.4244  1.6230
  321MOL0     H44260   9.640   7.906   8.061  0.2203  3.1653  2.7272
  321MOL0     H44261   9.798   7.938   7.893 -0.8818 -0.4492  1.2170
  321MOL0     H44262  10.257   7.834   7.956 -0.7990  0.2783  0.7183
  321MOL0     H44263  10.163   7.690   7.928  0.4863 -1.5869 -1.5406
  321MOL0     H44264  10.335   7.714   7.749  0.9671  2.1309 -2.0981
  321MOL0     H44265  10.160   7.734   7.691  1.4938 -2.0428 -0.6457
  321MOL0     H44266  10.380   7.943   7.754  0.6399 -2.3968  0.8965
  321MOL0     H44267  10.216   7.977   7.718 -0.7892  0.6982 -0.5980
  321MOL0     H44268  10.243   7.848   7.502 -1.2416  1.6416  1.2612
  321MOL0     H44269  10.411   7.802   7.539 -0.8329 -0.0312 -3.4732
  321MOL0     H44270  10.342   8.090   7.539 -2.2157 -1.6299  0.1512
  321MOL0     H44271  10.492   8.008   7.521 -0.2989 -1.0886 -0.6189
  321MOL0     H44272  10.253   8.069   7.316  0.2642  0.5572  0.1012
  321MOL0     H44273  10.367   7.937   7.284  1.8852 -0.9220  1.5206
  321MOL0     H44274  10.540   8.089   7.299  0.3541  2.7404  2.6612
  321MOL0     H44275  10.433   8.227   7.339  2.7558 -0.4468  1.0714
  321MOL0     H44276  10.310   8.199   7.111 -0.1755 -0.1474  1.6373
  321MOL0     H44277  10.417   8.064   7.069 -1.4219  0.1900 -0.7732
  321MOL0     H44278  10.114   7.790   8.143 -0.6097 -2.0406  0.6210
  321MOL0     H44279   9.955   7.743   8.317  1.2199  0.7480 -0.2831
  321MOL0     H44280   9.576   7.427   8.440  0.2162 -1.0344  0.8493
  321MOL0     H44281   9.398   7.398   8.594 -0.1865 -0.1204 -0.7452
  321MOL0     H44282   7.774   7.391   9.226  0.7181  1.4646 -0.0409
  321MOL0     H44283   7.555   7.490   9.223  0.7586  0.4210 -0.4089
  321MOL0     H44284   7.189   7.627   9.279 -0.3074 -1.9501  2.1663
  321MOL0     H44285   6.946   7.708   9.291 -0.4868 -1.9658  1.5419
  321MOL0     H44286   6.735   7.806   9.320  1.9772 -2.8993 -0.9381
  321MOL0     H44287   6.776   7.724   9.473 -0.0272  0.8092  0.4042
  321MOL0     H44288   6.543   7.839   9.501 -1.8984  2.3999 -0.4850
  321MOL0     H44289   6.617   7.983   9.449  1.4238 -0.7739 -0.6930
  321MOL0     H44290   6.711   7.839   9.693  0.3616  0.2118 -0.3452
  321MOL0     H44291   6.755   8.004   9.646  0.8592 -1.2170 -0.4873
  321MOL0     H44292   6.466   7.916   9.695 -1.0904  0.4150  1.5335
  321MOL0     H44293   6.535   8.083   9.691  1.4045 -0.8125 -1.0677
  321MOL0     H44294   6.571   8.027  10.091 -0.6998  1.9455 -0.6107
  321MOL0     H44295   7.085   8.024   9.544  0.3637  1.4164 -2.9888
  321MOL0     H44296   7.293   8.026   9.625 -3.4994 -1.5974 -1.1475
  321MOL0     H44297   7.374   7.862   9.653 -0.6445 -1.5529 -0.9203
  321MOL0     H44298   7.432   7.970   9.530 -1.4641  2.5724 -1.1014
  322MOL0     O44299   2.052   3.216   0.945  0.5149  0.0123  0.2889
  322MOL0     C44300   2.153   3.268   0.900 -0.3343  0.9339  0.7496
  322MOL0     O44301   2.260   3.201   0.832 -0.2545 -0.8668  0.1672
  322MOL0     C44302   2.271   3.063   0.848  0.1568  0.8159  1.2581
  322MOL0     C44303   2.163   2.971   0.820 -0.5748 -0.2561  0.4645
  322MOL0     C44304   2.185   2.832   0.823  0.3942  0.1880 -1.2385
  322MOL0     C44305   2.320   2.786   0.845  0.3131 -0.1989  0.3102
  322MOL0     O44306   2.333   2.652   0.828  0.0805  0.4293  0.2021
  322MOL0     C44307   2.466   2.601   0.838  0.1522 -0.3302 -0.2491
  322MOL0     C44308   2.476   2.449   0.834  0.0332  0.2697 -0.5501
  322MOL0     C44309   2.615   2.390   0.823  0.5483  0.1888  0.3648
  322MOL0     C44310   2.677   2.411   0.686  0.6491 -0.0007  0.3658
  322MOL0     C44311   2.830   2.381   0.700 -0.2485  0.2838  0.0104
  322MOL0     C44312   2.903   2.363   0.569  0.1326  0.3829 -0.5882
  322MOL0     C44313   3.050   2.311   0.576 -0.0676 -0.9057  0.0664
  322MOL0     C44314   3.138   2.404   0.650 -0.3062  0.3488 -0.0569
  322MOL0     N44315   3.282   2.370   0.634 -0.1037  0.1247  0.0918
  322MOL0     C44316   3.333   2.284   0.725 -0.2800 -0.3431 -0.0905
  322MOL0     C44317   3.455   2.265   0.677 -0.2740  0.3561 -0.4693
  322MOL0     C44318   3.558   2.164   0.730  0.3076  0.0381 -0.3037
  322MOL0     C44319   3.705   2.204   0.724 -0.1537  0.9526 -0.5807
  322MOL0     C44320   3.750   2.295   0.831 -0.1791 -0.4677  0.1537
  322MOL0     C44321   3.893   2.326   0.817 -0.0517  0.2661  0.3019
  322MOL0     O44322   3.966   2.207   0.819 -0.4167 -0.1340  0.9438
  322MOL0     C44323   4.102   2.220   0.816 -0.0190 -0.4281 -0.0612
  322MOL0     C44324   4.183   2.107   0.853  0.0057 -0.2610 -0.0583
  322MOL0     C44325   4.324   2.111   0.863  0.1493 -0.1892  0.4342
  322MOL0     C44326   4.407   1.990   0.902 -0.7805 -0.1964  0.2193
  322MOL0     C44327   4.387   2.237   0.818 -0.7114  0.1792 -0.4883
  322MOL0     C44328   4.538   2.253   0.802  0.2346  0.1396 -0.3806
  322MOL0     O44329   4.625   2.164   0.852  0.1758 -0.1938 -0.4142
  322MOL0     C44330   4.760   2.187   0.864  1.0306 -0.1957  0.3037
  322MOL0     C44331   4.849   2.183   0.754  0.2393  0.1901 -0.6934
  322MOL0     C44332   4.982   2.219   0.788 -0.0757  0.4271  0.2054
  322MOL0     C44333   5.041   2.248   0.907  0.1885 -0.2124 -0.5267
  322MOL0     O44334   5.175   2.275   0.926  0.1303 -0.1242  0.6151
  322MOL0     C44335   5.272   2.222   0.833 -0.8095 -0.1776  0.2103
  322MOL0     C44336   5.406   2.221   0.912  0.0475  0.4199 -0.1317
  322MOL0     C44337   5.407   2.173   1.050 -0.3986 -0.5821 -1.4013
  322MOL0     C44338   5.548   2.136   1.093  0.4229  0.5998 -0.5376
  322MOL0     C44339   5.628   2.259   1.129 -0.6329  0.3247 -0.6136
  322MOL0     C44340   5.772   2.229   1.163  0.2138  0.3224 -0.1507
  322MOL0     C44341   5.770   2.161   1.307 -0.2045 -0.0176  0.3674
  322MOL0     C44342   5.914   2.166   1.364 -0.3168 -0.5548 -0.2275
  322MOL0    Cl44343   6.039   2.130   1.251 -0.0723  0.1855 -0.3785
  322MOL0     C44344   4.951   2.239   1.019 -0.9829  0.0095  0.2259
  322MOL0     C44345   4.816   2.212   0.994 -0.0861 -0.4448  0.1499
  322MOL0     O44346   4.573   2.360   0.745  0.3432  0.0393  0.1206
  322MOL0     C44347   4.304   2.347   0.782 -0.0120  0.2928 -0.1524
  322MOL0     C44348   4.169   2.340   0.791  0.2089 -0.5032 -0.9099
  322MOL0     N44349   3.475   2.335   0.560  0.8024  0.2018 -0.8818
  322MOL0     N44350   3.371   2.404   0.541  0.2288  0.0930  0.4783
  322MOL0     C44351   2.423   2.879   0.864 -0.4348 -0.7365 -0.6141
  322MOL0     C44352   2.397   3.009   0.872 -0.7683 -0.0988 -0.0337
  322MOL0     C44353   2.167   3.413   0.904  0.1930  0.0943 -0.4800
  322MOL0     C44354   2.076   3.491   0.837  0.8619 -0.0912 -0.1664
  322MOL0     C44355   2.076   3.631   0.839  0.6799 -0.1013 -0.0752
  322MOL0     C44356   2.182   3.695   0.891 -0.6439 -0.0204  0.7123
  322MOL0     O44357   2.200   3.830   0.902 -0.5287  0.5393  0.1781
  322MOL0     C44358   2.106   3.920   0.844  0.0269 -0.3605  0.3805
  322MOL0     C44359   2.168   4.051   0.792 -0.2817 -0.8127  0.3373
  322MOL0     C44360   2.252   4.119   0.903 -0.2598  0.2362  0.6111
  322MOL0     C44361   2.368   4.207   0.852  0.5156  0.2134 -0.5409
  322MOL0     C44362   2.312   4.323   0.790 -0.6761 -0.5382  0.1686
  322MOL0     C44363   2.268   4.434   0.763 -0.3119  0.8491  0.7514
  322MOL0     C44364   2.294   3.618   0.943 -0.0649 -0.0084 -0.3283
  322MOL0     C44365   2.281   3.480   0.960 -0.0325  0.5327 -0.2971
  322MOL0     C44366   2.401   3.405   1.022  0.6960 -0.1302 -0.9569
  322MOL0     H44367   2.066   3.009   0.788  0.4487  2.1166 -0.0426
  322MOL0     H44368   2.104   2.762   0.811  0.6303 -0.5681  1.0497
  322MOL0     H44369   2.515   2.633   0.931  0.1427 -0.3859 -0.2250
  322MOL0     H44370   2.536   2.636   0.762 -1.5537  1.6238 -1.0347
  322MOL0     H44371   2.433   2.424   0.932  0.1939 -0.5312 -0.6727
  322MOL0     H44372   2.411   2.406   0.757 -0.4736  1.9572 -1.1035
  322MOL0     H44373   2.675   2.429   0.906 -0.6230 -1.9312  2.3485
  322MOL0     H44374   2.605   2.285   0.852 -1.1198  0.4381  0.8145
  322MOL0     H44375   2.637   2.364   0.596  3.1818  0.5906 -1.1763
  322MOL0     H44376   2.670   2.517   0.659  0.5253 -0.3975 -1.2707
  322MOL0     H44377   2.846   2.284   0.749 -0.1450 -0.6073 -1.7102
  322MOL0     H44378   2.879   2.455   0.763  1.3836 -1.7175  1.2449
  322MOL0     H44379   2.852   2.281   0.518 -0.8839 -0.6368  1.9319
  322MOL0     H44380   2.898   2.457   0.513  0.5336  1.2587  0.7942
  322MOL0     H44381   3.105   2.309   0.481  1.8146  1.3564  1.0188
  322MOL0     H44382   3.055   2.213   0.624 -2.0394 -2.2600 -2.2535
  322MOL0     H44383   3.116   2.505   0.613 -0.5737  0.2037 -0.2995
  322MOL0     H44384   3.121   2.410   0.758  2.6874 -0.8244  0.5797
  322MOL0     H44385   3.278   2.243   0.809 -0.4101  0.0578  0.0239
  322MOL0     H44386   3.536   2.075   0.671  0.6368 -1.4686  1.7460
  322MOL0     H44387   3.537   2.134   0.833 -0.1368 -3.5379 -1.3009
  322MOL0     H44388   3.774   2.119   0.723 -0.0058  1.0826 -1.4875
  322MOL0     H44389   3.728   2.260   0.633 -2.3139  3.7280  0.4188
  322MOL0     H44390   3.685   2.383   0.833  0.8980  0.4361 -1.6868
  322MOL0     H44391   3.742   2.243   0.927  1.2219  2.6349  2.1352
  322MOL0     H44392   3.920   2.391   0.733 -0.1586  0.8822  0.7382
  322MOL0     H44393   3.923   2.381   0.907  1.4979  0.3973 -0.2709
  322MOL0     H44394   4.134   2.012   0.875  0.5666 -0.7037 -0.6922
  322MOL0     H44395   4.459   2.024   0.992 -0.2753 -2.7526  0.9677
  322MOL0     H44396   4.473   1.971   0.817 -0.1907  0.5975  0.4815
  322MOL0     H44397   4.344   1.904   0.928 -2.3727 -0.8071 -4.6274
  322MOL0     H44398   4.812   2.142   0.661 -1.8038  0.7755 -0.1911
  322MOL0     H44399   5.047   2.214   0.701 -1.0730  1.0677 -0.6049
  322MOL0     H44400   5.235   2.127   0.792  2.5958 -1.7795  0.5399
  322MOL0     H44401   5.286   2.292   0.750  0.0185  2.3187  2.3325
  322MOL0     H44402   5.476   2.163   0.851 -0.8929 -0.6436 -0.2368
  322MOL0     H44403   5.442   2.324   0.910  2.2361 -0.2637  0.6616
  322MOL0     H44404   5.335   2.091   1.054 -1.9493  0.7774 -0.2644
  322MOL0     H44405   5.366   2.248   1.117  1.5087 -0.3049 -0.4670
  322MOL0     H44406   5.589   2.075   1.012 -0.6171 -2.1473  0.8517
  322MOL0     H44407   5.539   2.064   1.175  0.1582  1.9120  0.6115
  322MOL0     H44408   5.625   2.318   1.037  0.8223 -1.9963 -2.2812
  322MOL0     H44409   5.586   2.318   1.210  1.4916  2.6692 -1.0873
  322MOL0     H44410   5.832   2.318   1.145 -0.1713  0.4186 -0.9727
  322MOL0     H44411   5.806   2.152   1.094  1.7334  1.1917 -0.4111
  322MOL0     H44412   5.735   2.058   1.296 -1.0933  0.2780  0.4054
  322MOL0     H44413   5.704   2.217   1.373  0.7495  1.3411  0.2227
  322MOL0     H44414   5.923   2.101   1.451  0.7424 -0.0730  0.0435
  322MOL0     H44415   5.953   2.265   1.391  0.0636 -1.2457  1.8953
  322MOL0     H44416   5.001   2.261   1.112 -0.1380  2.4843 -0.7421
  322MOL0     H44417   4.746   2.220   1.077 -0.6400  1.1496 -0.4239
  322MOL0     H44418   4.348   2.444   0.758  2.3852 -0.7043 -0.0580
  322MOL0     H44419   4.126   2.438   0.770  0.3043  0.2289  1.9128
  322MOL0     H44420   2.523   2.842   0.883 -0.2562  0.9716  2.4977
  322MOL0     H44421   2.483   3.072   0.889 -0.9695 -0.2658  1.8138
  322MOL0     H44422   1.995   3.448   0.779 -0.6433  0.7791  1.2123
  322MOL0     H44423   1.993   3.684   0.793  1.5233  1.2076 -0.1576
  322MOL0     H44424   2.045   3.876   0.764 -0.1250  0.2473  0.1576
  322MOL0     H44425   2.039   3.955   0.923  1.5336  0.3746  1.3833
  322MOL0     H44426   2.085   4.110   0.753  1.4516  1.1540 -0.5863
  322MOL0     H44427   2.231   4.034   0.703  1.1175 -2.1053  1.5112
  322MOL0     H44428   2.194   4.175   0.977 -1.6804 -0.9284  0.4417
  322MOL0     H44429   2.298   4.038   0.959  1.5781  0.6246 -0.2598
  322MOL0     H44430   2.434   4.155   0.783 -1.6638 -1.2339 -1.6578
  322MOL0     H44431   2.427   4.228   0.942 -3.0552 -0.9209  2.3195
  322MOL0     H44432   2.238   4.536   0.747  0.6310  1.0653  0.2507
  322MOL0     H44433   2.387   3.654   0.984  1.3142 -3.1938 -0.3286
  322MOL0     H44434   2.456   3.472   1.089  1.4731 -2.7892  1.2552
  322MOL0     H44435   2.352   3.329   1.083 -2.4858  0.6215 -2.3624
  322MOL0     H44436   2.462   3.343   0.955 -0.1216 -2.2423  0.1534
  323MOL0     O44437   0.217  10.640   5.812 -0.0598  0.2091  0.1327
  323MOL0     C44438   0.239  10.524   5.776  0.3292 -0.0998  1.2751
  323MOL0     O44439   0.325  10.475   5.681  0.1622 -1.0357  0.1928
  323MOL0     C44440   0.419  10.558   5.621  0.8142 -0.1325 -0.0306
  323MOL0     C44441   0.554  10.540   5.653 -0.5420 -0.3072 -0.2476
  323MOL0     C44442   0.646  10.609   5.572  0.1253 -0.1054  0.4802
  323MOL0     C44443   0.605  10.690   5.461  0.3083  0.5053 -0.2522
  323MOL0     O44444   0.695  10.759   5.379  0.0428  0.4813  0.2731
  323MOL0     C44445   0.753  10.663   5.282 -0.1752 -0.4293 -0.2383
  323MOL0     C44446   0.900  10.688   5.258 -0.6712  0.4498 -1.0608
  323MOL0     C44447   0.983  10.657   5.374  0.6860  0.3295 -1.2119
  323MOL0     C44448   1.133  10.686   5.355  0.0340 -0.6485  0.4560
  323MOL0     C44449   1.214  10.629   5.462 -0.3074  0.5695  0.0698
  323MOL0     C44450   1.350  10.686   5.482  0.1604 -0.4317  0.1886
  323MOL0     C44451   1.444  10.688   5.362  0.6678  0.2414 -0.5885
  323MOL0     C44452   1.474  10.542   5.307  0.3575  0.2751 -0.4041
  323MOL0     N44453   1.537  10.438   5.397  0.5695 -0.0667  0.3409
  323MOL0     C44454   1.641  10.464   5.479  0.0735 -0.0589  0.5222
  323MOL0     C44455   1.656  10.353   5.559  0.2646 -0.2017 -0.7982
  323MOL0     C44456   1.765  10.320   5.660  0.2887 -0.2523  0.2448
  323MOL0     C44457   1.714  10.256   5.788  0.6202 -0.1880  0.2322
  323MOL0     C44458   1.806  10.265   5.913  0.1793  0.5527  0.0503
  323MOL0     C44459   1.785  10.164   6.025  0.4202 -0.7523 -0.1522
  323MOL0     O44460   1.857  10.199   6.143  0.0998  0.3247 -0.4206
  323MOL0     C44461   1.978  10.139   6.166  0.1817  0.2871 -0.5522
  323MOL0     C44462   2.055  10.074   6.079 -0.8769 -0.0969  0.4886
  323MOL0     C44463   2.176  10.020   6.114  0.6445  0.5572 -0.5195
  323MOL0     C44464   2.253   9.959   5.994  0.7919 -1.8227  0.1138
  323MOL0     C44465   2.222  10.027   6.251  0.6597 -0.7201  0.2984
  323MOL0     C44466   2.340   9.953   6.295 -0.4491 -0.5234 -0.1870
  323MOL0     O44467   2.361   9.959   6.434  0.4775  0.1820  0.0106
  323MOL0     C44468   2.464   9.894   6.491 -0.2797  0.2060 -0.0979
  323MOL0     C44469   2.502   9.761   6.481 -0.1741  0.2367  1.1389
  323MOL0     C44470   2.619   9.719   6.543 -0.0462 -0.5999 -0.7375
  323MOL0     C44471   2.682   9.790   6.643  0.5448 -0.8826  0.3953
  323MOL0     O44472   2.788   9.752   6.720  0.1139 -0.0045 -0.0193
  323MOL0     C44473   2.858   9.639   6.673  0.0948  1.0248 -0.1291
  323MOL0     C44474   2.970   9.611   6.768  0.8644  0.3040  0.0835
  323MOL0     C44475   3.019   9.474   6.727  0.2906  0.4109  0.9146
  323MOL0     C44476   3.101   9.421   6.840 -0.3761  0.3283 -0.4169
  323MOL0     C44477   3.190   9.294   6.798  0.8358 -0.1455 -0.4155
  323MOL0     C44478   3.261   9.228   6.920  0.4838 -0.0213 -0.6903
  323MOL0     C44479   3.166   9.165   7.029 -0.3027 -0.1415  1.3392
  323MOL0     C44480   3.076   9.054   6.983 -0.5706  0.9048  0.2214
  323MOL0    Cl44481   3.025   8.965   7.125  0.4232 -0.3914  0.2906
  323MOL0     C44482   2.641   9.920   6.651  1.2996 -0.3752  0.5748
  323MOL0     C44483   2.532   9.976   6.581  0.0738 -0.1963  0.8212
  323MOL0     O44484   2.403   9.878   6.218  0.3740 -0.4599 -0.6944
  323MOL0     C44485   2.132  10.095   6.343 -0.3732  0.6933 -0.0916
  323MOL0     C44486   2.014  10.148   6.295 -0.9802 -0.1571 -0.4995
  323MOL0     N44487   1.548  10.277   5.529  0.2349  0.2225  0.3007
  323MOL0     N44488   1.474  10.322   5.427 -0.3700 -1.0546 -0.8017
  323MOL0     C44489   0.471  10.691   5.423  0.5633  0.6025  0.6449
  323MOL0     C44490   0.374  10.629   5.504 -0.2926 -0.3650 -0.0510
  323MOL0     C44491   0.147  10.426   5.831  0.2527  0.0593  0.2550
  323MOL0     C44492   0.015  10.459   5.824  0.1133 -0.1160 -0.1676
  323MOL0     C44493  -0.075  10.363   5.876  0.0680  0.4547  0.8036
  323MOL0     C44494  -0.040  10.235   5.914  0.4598 -0.5951  0.7353
  323MOL0     O44495  -0.142  10.159   5.953  0.3652  0.2772 -0.6352
  323MOL0     C44496  -0.114  10.029   6.012  0.3224 -0.3795  0.0669
  323MOL0     C44497  -0.194   9.922   5.936 -0.3485 -0.0602 -0.2946
  323MOL0     C44498  -0.154   9.906   5.792  0.5508  0.8903  0.3577
  323MOL0     C44499  -0.194   9.772   5.722  0.4866  0.2800  0.0625
  323MOL0     C44500  -0.343   9.785   5.719 -0.4984  0.3006  0.1997
  323MOL0     C44501  -0.460   9.802   5.726  0.3439 -0.1920  0.1778
  323MOL0     C44502   0.100  10.215   5.911 -0.0620 -0.2802 -0.8505
  323MOL0     C44503   0.199  10.307   5.882 -0.9133  1.1641 -0.4783
  323MOL0     C44504   0.343  10.259   5.886 -0.8533 -0.0445  0.8405
  323MOL0     H44505   0.578  10.474   5.735  2.0078  0.5716 -0.2027
  323MOL0     H44506   0.753  10.604   5.592 -0.3290 -1.9244  2.9441
  323MOL0     H44507   0.693  10.659   5.191 -0.5424  0.0886 -0.0201
  323MOL0     H44508   0.741  10.558   5.312  2.3438 -0.7207 -0.0178
  323MOL0     H44509   0.937  10.624   5.177  1.5280  1.2921 -0.8149
  323MOL0     H44510   0.931  10.786   5.220  1.8852  0.2498  0.2444
  323MOL0     H44511   0.941  10.709   5.461  0.9038  0.5604 -1.2441
  323MOL0     H44512   0.967  10.552   5.399 -0.9139  0.5475 -1.1868
  323MOL0     H44513   1.163  10.648   5.257  0.4350 -0.2933  0.4387
  323MOL0     H44514   1.146  10.794   5.345 -2.0332 -0.5246 -1.4719
  323MOL0     H44515   1.235  10.522   5.449  2.3752  1.1784 -1.3802
  323MOL0     H44516   1.163  10.640   5.558  0.0920 -0.5265  0.4172
  323MOL0     H44517   1.352  10.788   5.522  0.9434 -0.6673  0.7860
  323MOL0     H44518   1.402  10.625   5.557 -1.8163  0.3142  2.2898
  323MOL0     H44519   1.534  10.744   5.390  0.8664 -0.8670  1.0772
  323MOL0     H44520   1.383  10.730   5.281  0.3345 -0.9772 -0.9944
  323MOL0     H44521   1.377  10.502   5.276  0.4657  1.5411 -2.5949
  323MOL0     H44522   1.526  10.543   5.211  1.2743 -4.2912 -0.1912
  323MOL0     H44523   1.702  10.553   5.477  0.1679 -0.1436 -1.4236
  323MOL0     H44524   1.804  10.420   5.680  0.0533 -0.3354  1.1835
  323MOL0     H44525   1.829  10.262   5.593  0.5408 -1.4349  1.4753
  323MOL0     H44526   1.620  10.306   5.812  1.6792  1.7156  0.6712
  323MOL0     H44527   1.705  10.149   5.766  3.2605 -0.5632  0.5738
  323MOL0     H44528   1.910  10.268   5.878  0.1250  3.9496 -0.1192
  323MOL0     H44529   1.793  10.365   5.955 -1.8082  2.0886 -3.6931
  323MOL0     H44530   1.679  10.152   6.050  0.5214 -0.8415  0.2390
  323MOL0     H44531   1.812  10.064   5.993  0.2645 -1.3234  1.4128
  323MOL0     H44532   2.023  10.062   5.976  0.2290 -2.6729  0.3703
  323MOL0     H44533   2.225   9.853   5.996  0.2675 -1.6832  1.1876
  323MOL0     H44534   2.361   9.964   6.009  0.5066 -2.4561  2.8373
  323MOL0     H44535   2.219  10.012   5.904 -1.1180 -2.8266  0.1813
  323MOL0     H44536   2.444   9.699   6.413  1.6080 -0.5934  0.3160
  323MOL0     H44537   2.666   9.624   6.522  0.9805 -0.2024 -0.2916
  323MOL0     H44538   2.789   9.555   6.667  2.7187 -1.4964  2.2598
  323MOL0     H44539   2.902   9.655   6.574 -1.3798 -1.4996 -1.2788
  323MOL0     H44540   3.047   9.688   6.759 -2.1700  4.0120  2.6009
  323MOL0     H44541   2.932   9.610   6.871 -1.3504  3.6057 -0.5582
  323MOL0     H44542   3.068   9.475   6.629 -1.9805 -1.4631 -0.3539
  323MOL0     H44543   2.936   9.403   6.714  0.1377  1.0280 -2.5507
  323MOL0     H44544   3.039   9.389   6.923  1.5693 -0.2916  0.8783
  323MOL0     H44545   3.171   9.495   6.881  0.4627 -0.3567 -0.5781
  323MOL0     H44546   3.118   9.220   6.763  1.5547 -1.1672  0.1935
  323MOL0     H44547   3.259   9.320   6.718  3.0777  1.3055  1.8184
  323MOL0     H44548   3.331   9.294   6.970 -0.2251 -1.4043  2.3734
  323MOL0     H44549   3.325   9.149   6.880 -2.6863 -2.5100 -1.2607
  323MOL0     H44550   3.106   9.238   7.084 -2.0642  1.2037 -2.0673
  323MOL0     H44551   3.239   9.121   7.097  1.7598  0.9255 -0.0932
  323MOL0     H44552   3.136   8.982   6.927 -0.4885  1.9344 -1.0613
  323MOL0     H44553   2.991   9.084   6.921  0.4935 -1.6574 -2.7216
  323MOL0     H44554   2.695   9.975   6.727  2.2528 -0.2039 -0.2028
  323MOL0     H44555   2.500  10.079   6.595  2.7856  0.5869  1.8185
  323MOL0     H44556   2.149  10.109   6.449  1.9677 -0.3799 -0.2568
  323MOL0     H44557   1.947  10.196   6.364  0.8204 -0.8455  1.8542
  323MOL0     H44558   0.447  10.741   5.330  2.5190  3.4529  1.5583
  323MOL0     H44559   0.269  10.621   5.476 -0.2298 -1.7731  0.0417
  323MOL0     H44560  -0.025  10.559   5.805  0.8300  1.0078  3.3705
  323MOL0     H44561  -0.181  10.372   5.895 -0.2686 -2.0203  0.5326
  323MOL0     H44562  -0.009   9.997   6.012 -0.5797 -3.7390  0.5298
  323MOL0     H44563  -0.140  10.030   6.119 -1.5867 -1.1330 -0.3604
  323MOL0     H44564  -0.302   9.937   5.948 -0.0113  1.7664  0.6925
  323MOL0     H44565  -0.185   9.818   5.971 -1.0773  0.5676  1.8770
  323MOL0     H44566  -0.192   9.991   5.735 -0.0677 -0.3596 -1.2102
  323MOL0     H44567  -0.046   9.916   5.783  0.4496  3.2946  1.1796
  323MOL0     H44568  -0.163   9.680   5.773  1.9259  1.5286  1.6048
  323MOL0     H44569  -0.156   9.777   5.620 -1.2046  0.2736 -0.5865
  323MOL0     H44570  -0.566   9.814   5.726  0.5742  2.3065 -0.3775
  323MOL0     H44571   0.137  10.115   5.931 -0.8251 -0.5087 -0.4997
  323MOL0     H44572   0.417  10.339   5.894 -2.2947  1.3030  1.2808
  323MOL0     H44573   0.349  10.200   5.978 -1.6158 -3.5363 -1.1840
  323MOL0     H44574   0.364  10.191   5.804  0.9127  0.8589  0.5048
  324MOL0     O44575   5.794   1.884   5.491 -0.1938  0.1630 -0.0541
  324MOL0     C44576   5.743   1.970   5.420  0.9132 -0.0355  0.5664
  324MOL0     O44577   5.799   2.090   5.383 -0.0098 -0.3731  0.2191
  324MOL0     C44578   5.919   2.139   5.446  0.3766  1.1001 -0.3182
  324MOL0     C44579   5.923   2.239   5.540 -0.0576 -0.1169 -0.0714
  324MOL0     C44580   6.045   2.278   5.612 -0.5526 -0.4785  0.2304
  324MOL0     C44581   6.164   2.209   5.591  0.7373  1.0104  1.1479
  324MOL0     O44582   6.279   2.239   5.652 -0.0914 -0.6824  0.1762
  324MOL0     C44583   6.304   2.374   5.665  1.3475  0.2564 -0.2157
  324MOL0     C44584   6.443   2.388   5.723 -0.0317 -0.4831  0.3487
  324MOL0     C44585   6.558   2.330   5.629 -0.1554 -0.2815 -0.3356
  324MOL0     C44586   6.696   2.344   5.692  0.3145 -0.3251 -0.5074
  324MOL0     C44587   6.803   2.373   5.591 -0.7858  0.6261 -0.1317
  324MOL0     C44588   6.952   2.345   5.625 -0.3205  0.5820 -0.5304
  324MOL0     C44589   7.072   2.398   5.539 -0.9980 -0.1013 -0.1232
  324MOL0     C44590   7.050   2.368   5.391 -0.0793  0.0886  0.1228
  324MOL0     N44591   7.162   2.413   5.311  0.0761  0.8977 -0.1489
  324MOL0     C44592   7.299   2.424   5.339 -0.4101  0.4478  0.5086
  324MOL0     C44593   7.350   2.478   5.225  0.2405 -0.3826 -0.3440
  324MOL0     C44594   7.487   2.524   5.194 -0.7872 -0.2942  0.0915
  324MOL0     C44595   7.530   2.669   5.218 -0.9325  0.6645  0.4773
  324MOL0     C44596   7.666   2.710   5.148 -0.7413  0.1356  0.0738
  324MOL0     C44597   7.789   2.661   5.221 -0.0609 -0.1391 -0.1217
  324MOL0     O44598   7.810   2.525   5.236 -0.1549  0.0822  0.5406
  324MOL0     C44599   7.909   2.486   5.321 -0.1204 -0.4998  0.1130
  324MOL0     C44600   7.867   2.423   5.437 -0.0318 -0.5302 -0.0504
  324MOL0     C44601   7.955   2.363   5.527  1.4705  0.0788  0.3696
  324MOL0     C44602   7.883   2.293   5.637 -1.0295 -0.6904  0.2397
  324MOL0     C44603   8.092   2.376   5.501  0.7623  0.3783 -0.1577
  324MOL0     C44604   8.196   2.323   5.592  0.1505 -0.1345  0.3392
  324MOL0     O44605   8.311   2.279   5.544 -0.3796  1.0993 -0.3924
  324MOL0     C44606   8.422   2.245   5.619  0.7395  0.2911 -0.4134
  324MOL0     C44607   8.438   2.109   5.644 -0.0752  0.2363  0.7056
  324MOL0     C44608   8.547   2.065   5.716 -0.8291  0.0748 -0.1842
  324MOL0     C44609   8.644   2.153   5.767 -0.2314  0.2954  0.9379
  324MOL0     O44610   8.758   2.102   5.818 -0.4329 -0.3658 -0.2506
  324MOL0     C44611   8.777   2.124   5.962 -0.3850 -0.7840  0.0967
  324MOL0     C44612   8.920   2.127   5.999  0.0256 -0.0966  0.1868
  324MOL0     C44613   8.921   2.168   6.147  0.0592  0.5829 -0.1625
  324MOL0     C44614   9.047   2.136   6.220 -0.4956 -0.2757 -0.1147
  324MOL0     C44615   9.041   2.175   6.368  0.6017 -0.1103 -0.2364
  324MOL0     C44616   9.175   2.145   6.434 -0.0027 -0.4651 -0.4582
  324MOL0     C44617   9.180   2.185   6.584 -0.6692 -0.1163 -0.2073
  324MOL0     C44618   9.108   2.309   6.640 -0.6018  0.5183  0.3420
  324MOL0    Cl44619   9.171   2.468   6.615  0.0393  0.4946  0.4218
  324MOL0     C44620   8.625   2.296   5.757  0.0886 -0.3518 -0.4652
  324MOL0     C44621   8.517   2.336   5.674 -1.0381  0.2673  0.2050
  324MOL0     O44622   8.170   2.326   5.716 -0.2784  0.2211  0.1107
  324MOL0     C44623   8.138   2.425   5.379  0.1692 -0.0612 -0.5259
  324MOL0     C44624   8.046   2.493   5.294  0.0312  0.3432 -0.1365
  324MOL0     N44625   7.252   2.480   5.138  0.1667 -0.9399  0.3119
  324MOL0     N44626   7.143   2.426   5.181 -0.8723 -0.4172  0.4548
  324MOL0     C44627   6.164   2.111   5.492 -0.1197  0.1237  0.8282
  324MOL0     C44628   6.040   2.075   5.419 -0.0740  0.2282 -1.1543
  324MOL0     C44629   5.598   1.943   5.365 -0.9007 -0.5921  0.0335
  324MOL0     C44630   5.563   2.004   5.239  0.6604 -0.0150 -0.6771
  324MOL0     C44631   5.427   2.003   5.191 -0.5844 -0.1841  0.3678
  324MOL0     C44632   5.332   1.930   5.266 -0.7242  0.7928  0.2642
  324MOL0     O44633   5.207   1.935   5.208 -0.4870  0.4976 -0.1620
  324MOL0     C44634   5.107   1.833   5.242  0.0616 -0.0269 -1.1224
  324MOL0     C44635   5.044   1.763   5.117 -0.6913  0.4035  0.0552
  324MOL0     C44636   4.995   1.866   5.003 -0.4142  1.3460 -0.5593
  324MOL0     C44637   4.874   1.954   5.045  1.4254 -0.7829 -0.7266
  324MOL0     C44638   4.743   1.873   5.050  0.5430  0.4704 -0.6564
  324MOL0     C44639   4.637   1.816   5.071 -1.2012  0.0972 -0.2249
  324MOL0     C44640   5.371   1.869   5.384  0.1834  0.4297 -0.0881
  324MOL0     C44641   5.496   1.871   5.431 -0.1928  0.8451  0.0832
  324MOL0     C44642   5.526   1.793   5.559  0.1962 -0.9262 -0.1057
  324MOL0     H44643   5.827   2.286   5.558  0.6231  0.3529  2.7805
  324MOL0     H44644   6.029   2.363   5.677 -1.4864 -0.7477  0.3641
  324MOL0     H44645   6.232   2.429   5.726  1.1157  0.8875 -1.0428
  324MOL0     H44646   6.311   2.424   5.569  0.4019 -1.2428 -1.1156
  324MOL0     H44647   6.472   2.493   5.732  0.1575 -0.5920  1.0308
  324MOL0     H44648   6.442   2.335   5.819 -0.5376  1.9032  1.7449
  324MOL0     H44649   6.528   2.225   5.620  0.8006 -0.7540  1.3377
  324MOL0     H44650   6.554   2.380   5.532 -3.6720  3.4762  1.4492
  324MOL0     H44651   6.693   2.433   5.757 -0.0117  0.7976 -2.0135
  324MOL0     H44652   6.717   2.255   5.752  0.2763 -0.9407 -1.3848
  324MOL0     H44653   6.794   2.480   5.570 -1.1063  1.0500  2.0138
  324MOL0     H44654   6.771   2.323   5.498 -2.1478 -0.3794  0.8335
  324MOL0     H44655   6.965   2.362   5.732 -0.1017 -0.7485 -0.3206
  324MOL0     H44656   6.962   2.236   5.614 -1.6545  0.1926  1.5072
  324MOL0     H44657   7.163   2.343   5.565 -1.8949 -1.3363  0.5089
  324MOL0     H44658   7.095   2.505   5.539 -2.2906  0.2851 -3.3983
  324MOL0     H44659   7.028   2.261   5.385 -2.6628 -0.0791  5.7120
  324MOL0     H44660   6.967   2.431   5.357 -0.0038 -0.1263 -0.4772
  324MOL0     H44661   7.363   2.407   5.425  2.5722 -0.0915 -1.6386
  324MOL0     H44662   7.503   2.513   5.086  0.4710 -0.7130  0.3154
  324MOL0     H44663   7.549   2.452   5.247 -0.5117 -1.0298 -1.1721
  324MOL0     H44664   7.451   2.743   5.199 -0.7340  0.5632 -0.7859
  324MOL0     H44665   7.536   2.672   5.327 -1.7604 -1.0022  0.5999
  324MOL0     H44666   7.662   2.673   5.045  0.5874 -2.1982  0.7914
  324MOL0     H44667   7.674   2.819   5.151 -3.7750  0.4329  0.2570
  324MOL0     H44668   7.868   2.711   5.165 -2.2349  0.2084 -3.1403
  324MOL0     H44669   7.789   2.698   5.324 -1.7231 -0.5829  0.0591
  324MOL0     H44670   7.763   2.405   5.459  0.8939 -1.2520  4.9595
  324MOL0     H44671   7.942   2.211   5.679 -0.4967 -0.9418 -0.9785
  324MOL0     H44672   7.802   2.242   5.585 -0.0924  1.6775 -4.0181
  324MOL0     H44673   7.850   2.362   5.715  1.3153 -1.5276  2.1000
  324MOL0     H44674   8.369   2.031   5.614  0.6636  0.3858 -1.5576
  324MOL0     H44675   8.569   1.960   5.732  0.4776 -0.2237 -3.1165
  324MOL0     H44676   8.724   2.213   5.997  0.5097  0.3698 -1.3384
  324MOL0     H44677   8.742   2.036   6.015  0.7430 -1.5342 -0.3598
  324MOL0     H44678   8.954   2.024   5.985  0.1257  0.3381 -4.2369
  324MOL0     H44679   8.964   2.195   5.925 -1.1240 -0.0206 -0.4536
  324MOL0     H44680   8.842   2.119   6.204  0.1216 -0.6374 -1.1108
  324MOL0     H44681   8.893   2.274   6.151 -2.7649 -0.1254  0.6027
  324MOL0     H44682   9.112   2.209   6.170 -0.5433 -0.7065 -0.8163
  324MOL0     H44683   9.077   2.033   6.201  1.6539  0.1919  0.4185
  324MOL0     H44684   9.012   2.280   6.379 -1.5381 -0.7474  0.7261
  324MOL0     H44685   8.969   2.113   6.422  1.7498 -0.2709  1.1791
  324MOL0     H44686   9.255   2.197   6.380  1.2940 -1.7064  0.2107
  324MOL0     H44687   9.198   2.038   6.435  1.3202 -0.2358 -2.0012
  324MOL0     H44688   9.281   2.176   6.625 -0.2455 -0.6379 -1.3381
  324MOL0     H44689   9.115   2.102   6.613  0.7842 -1.5639 -0.9470
  324MOL0     H44690   9.100   2.292   6.748 -3.5408 -1.3236 -0.0338
  324MOL0     H44691   9.013   2.310   6.585  0.0809  2.2915 -0.8740
  324MOL0     H44692   8.694   2.375   5.788 -0.5685 -0.5603  1.7221
  324MOL0     H44693   8.505   2.440   5.645  0.4764  0.0895 -1.2035
  324MOL0     H44694   8.244   2.428   5.355  0.1621 -0.6109 -0.6436
  324MOL0     H44695   8.074   2.533   5.197 -1.7549  0.3934 -0.6698
  324MOL0     H44696   6.253   2.054   5.468  0.7203  1.4220  0.7258
  324MOL0     H44697   6.035   1.995   5.346  0.9047  0.0579 -1.0422
  324MOL0     H44698   5.637   2.041   5.169 -1.4666  1.5907 -2.2134
  324MOL0     H44699   5.397   2.057   5.102 -0.4212  1.3898  1.2279
  324MOL0     H44700   5.139   1.741   5.291 -0.1411  0.8665  0.7994
  324MOL0     H44701   5.030   1.888   5.298  1.6186  1.5517 -0.4224
  324MOL0     H44702   4.962   1.697   5.146  0.5874 -0.2962  2.3485
  324MOL0     H44703   5.125   1.703   5.074  0.7233  2.9332 -1.0542
  324MOL0     H44704   5.083   1.926   4.978  0.5516  0.1678 -0.0410
  324MOL0     H44705   4.971   1.814   4.910  1.6057 -2.7459  0.9672
  324MOL0     H44706   4.852   2.029   4.969  1.4225  0.3708  0.3884
  324MOL0     H44707   4.898   2.013   5.134 -0.7762  2.0976 -1.8971
  324MOL0     H44708   4.541   1.771   5.087 -0.6836 -1.3452 -1.0140
  324MOL0     H44709   5.309   1.797   5.437 -0.7500  0.3922 -1.2055
  324MOL0     H44710   5.558   1.689   5.546  0.2467 -1.0548  0.9751
  324MOL0     H44711   5.599   1.848   5.619 -0.5574 -0.5662  0.4969
  324MOL0     H44712   5.434   1.789   5.618  0.7152 -1.6536  0.6639
  325MOL0     O44713   1.265   6.296   2.255 -0.1792  0.2206  0.6378
  325MOL0     C44714   1.213   6.398   2.288 -0.5717  0.5195  0.4889
  325MOL0     O44715   1.276   6.519   2.285 -0.1129  0.5799  0.6489
  325MOL0     C44716   1.407   6.527   2.269 -0.7532  0.3012 -0.5802
  325MOL0     C44717   1.468   6.583   2.162 -0.2340  0.2177 -0.2572
  325MOL0     C44718   1.603   6.622   2.159  0.0541  0.9275  0.5927
  325MOL0     C44719   1.686   6.581   2.258  0.6959 -0.0681 -0.1534
  325MOL0     O44720   1.811   6.627   2.249 -0.3911  0.0266  0.6531
  325MOL0     C44721   1.845   6.752   2.312  0.8543  0.6371  0.4031
  325MOL0     C44722   1.992   6.774   2.322 -0.0467 -0.2342 -0.6930
  325MOL0     C44723   2.058   6.801   2.188 -0.5118  0.6295 -0.2494
  325MOL0     C44724   2.203   6.843   2.201  0.1510 -0.1021  0.7059
  325MOL0     C44725   2.255   6.847   2.058  1.2862 -0.3538  0.1831
  325MOL0     C44726   2.410   6.872   2.067 -1.0381  0.4538 -0.5132
  325MOL0     C44727   2.487   6.871   1.934 -0.4078  0.1719 -0.9075
  325MOL0     C44728   2.435   6.760   1.844 -0.4667 -0.1295  0.5551
  325MOL0     N44729   2.504   6.739   1.709  0.0623  0.7408 -0.8377
  325MOL0     C44730   2.629   6.773   1.681  0.4306 -0.5260 -0.2194
  325MOL0     C44731   2.631   6.763   1.542 -0.1622  0.0114  0.4909
  325MOL0     C44732   2.742   6.817   1.459 -0.3948  0.2997  0.5138
  325MOL0     C44733   2.707   6.911   1.339 -0.0207 -0.1836 -0.1973
  325MOL0     C44734   2.631   7.040   1.352  0.4289 -0.3448  0.2132
  325MOL0     C44735   2.709   7.131   1.453  0.0450 -0.1465  0.4628
  325MOL0     O44736   2.632   7.239   1.496 -0.2744 -0.0988 -0.4160
  325MOL0     C44737   2.514   7.224   1.560  0.3221 -0.1793  0.2015
  325MOL0     C44738   2.449   7.348   1.584 -0.3114  0.0695 -0.8203
  325MOL0     C44739   2.337   7.347   1.659  0.4533  0.4469 -0.5303
  325MOL0     C44740   2.274   7.478   1.675  0.0676 -0.1232  0.6103
  325MOL0     C44741   2.285   7.232   1.721  0.1175  0.8324  0.5455
  325MOL0     C44742   2.161   7.234   1.806  0.9165  0.0150  0.0260
  325MOL0     O44743   2.037   7.238   1.753  0.0170  0.2368  0.4493
  325MOL0     C44744   1.927   7.204   1.823 -0.4567 -0.5245  0.2002
  325MOL0     C44745   1.847   7.300   1.878  0.2812  0.1114 -0.4675
  325MOL0     C44746   1.733   7.264   1.961  0.6449 -0.5395 -0.5635
  325MOL0     C44747   1.712   7.134   1.995  0.5284  0.6316  0.6694
  325MOL0     O44748   1.604   7.081   2.068 -0.2326  0.4711 -0.3669
  325MOL0     C44749   1.525   7.167   2.140  0.3094  0.5528  0.1115
  325MOL0     C44750   1.412   7.081   2.203 -0.2093 -0.8272  0.1357
  325MOL0     C44751   1.322   7.017   2.103 -0.6206  0.1153 -0.6106
  325MOL0     C44752   1.215   6.927   2.172 -0.5867  0.1526  0.0354
  325MOL0     C44753   1.116   6.865   2.063 -0.6427 -0.8547 -0.9370
  325MOL0     C44754   1.018   6.764   2.111 -0.1248  0.8460 -0.3712
  325MOL0     C44755   0.881   6.762   2.032 -0.4378  0.2693 -0.8290
  325MOL0     C44756   0.768   6.692   2.107 -0.2132  0.1933  0.0714
  325MOL0    Cl44757   0.729   6.765   2.265  0.1736  0.0687 -0.0521
  325MOL0     C44758   1.802   7.038   1.949 -0.1376  0.2762  0.2974
  325MOL0     C44759   1.908   7.075   1.859 -0.4858 -0.5290  0.3245
  325MOL0     O44760   2.190   7.210   1.922  0.7210  0.4884 -0.7457
  325MOL0     C44761   2.348   7.113   1.696 -0.2092  0.4767  0.4903
  325MOL0     C44762   2.457   7.111   1.616 -0.1322 -1.4551  0.3023
  325MOL0     N44763   2.515   6.714   1.486  0.3285  0.2459 -0.1907
  325MOL0     N44764   2.438   6.708   1.597 -0.2610  0.9504  0.4515
  325MOL0     C44765   1.625   6.511   2.367 -0.0290 -0.0423  0.3321
  325MOL0     C44766   1.486   6.488   2.375  1.0589  0.1732 -0.4555
  325MOL0     C44767   1.078   6.384   2.323 -1.1108  0.2659 -0.9420
  325MOL0     C44768   1.008   6.271   2.266 -0.1051 -0.3363 -0.6973
  325MOL0     C44769   0.877   6.239   2.294  0.4879 -0.2679  0.8456
  325MOL0     C44770   0.802   6.330   2.374  0.1043  0.3639 -0.3688
  325MOL0     O44771   0.671   6.289   2.404 -0.3892 -0.1622 -0.0609
  325MOL0     C44772   0.631   6.318   2.541 -0.6286 -0.6953  0.2464
  325MOL0     C44773   0.492   6.258   2.561  0.6206 -0.1192 -0.7486
  325MOL0     C44774   0.451   6.266   2.706  0.3071  0.3410 -0.0039
  325MOL0     C44775   0.292   6.244   2.714 -0.3432 -0.6320 -0.2808
  325MOL0     C44776   0.196   6.345   2.662 -0.4193 -0.3993 -0.2225
  325MOL0     C44777   0.127   6.437   2.621 -0.9290  0.3688 -0.3180
  325MOL0     C44778   0.865   6.437   2.430 -0.4828  0.2955  0.5660
  325MOL0     C44779   0.998   6.470   2.398  0.0493 -0.7035 -0.9431
  325MOL0     C44780   1.040   6.602   2.467  0.0910  0.1384  0.7725
  325MOL0     H44781   1.395   6.609   2.085 -1.6396 -1.7565  0.3520
  325MOL0     H44782   1.650   6.682   2.081 -0.2740 -2.1025 -2.1694
  325MOL0     H44783   1.808   6.755   2.415  2.6140 -1.0008  1.1682
  325MOL0     H44784   1.812   6.834   2.249  5.2526  0.9928 -1.7937
  325MOL0     H44785   1.996   6.866   2.381  0.1785  0.4102 -1.6906
  325MOL0     H44786   2.049   6.707   2.387  1.9725  1.2730 -0.8054
  325MOL0     H44787   2.063   6.711   2.126  3.2217  1.6786 -1.7558
  325MOL0     H44788   1.995   6.876   2.139 -1.6196  2.4130  3.5162
  325MOL0     H44789   2.216   6.941   2.247  4.0828 -0.0136 -0.2228
  325MOL0     H44790   2.244   6.760   2.260 -1.9473 -0.9745  1.0373
  325MOL0     H44791   2.197   6.920   2.000 -0.5281 -1.0786  1.0194
  325MOL0     H44792   2.234   6.749   2.014 -3.9196  0.3854  0.3652
  325MOL0     H44793   2.421   6.976   2.101  1.6572 -0.6108  2.3644
  325MOL0     H44794   2.457   6.802   2.137 -2.6046  0.5694  0.7127
  325MOL0     H44795   2.591   6.849   1.957 -0.7125  0.3349  0.7258
  325MOL0     H44796   2.484   6.974   1.898  3.0218  0.6786 -0.0438
  325MOL0     H44797   2.452   6.667   1.898  1.3744 -1.4507 -2.0418
  325MOL0     H44798   2.328   6.780   1.828 -0.8108 -0.5859  2.1739
  325MOL0     H44799   2.703   6.819   1.746 -0.5025  0.0870  0.4300
  325MOL0     H44800   2.791   6.726   1.424  1.2624  1.3195  0.0885
  325MOL0     H44801   2.816   6.867   1.523  0.9139 -2.6322  1.4259
  325MOL0     H44802   2.802   6.927   1.287  0.4363 -2.1288 -0.0304
  325MOL0     H44803   2.642   6.846   1.280 -0.3142 -2.7327  2.6540
  325MOL0     H44804   2.624   7.088   1.254  3.0212 -1.2833 -0.5402
  325MOL0     H44805   2.533   7.016   1.395  1.9063 -1.2543  3.3884
  325MOL0     H44806   2.728   7.070   1.542 -0.1422 -1.8450 -0.6169
  325MOL0     H44807   2.802   7.162   1.405  0.8133 -1.6695  0.9373
  325MOL0     H44808   2.494   7.440   1.548 -1.3455  0.3423 -1.4611
  325MOL0     H44809   2.314   7.547   1.600 -1.2356 -0.3460 -0.3247
  325MOL0     H44810   2.294   7.510   1.777  3.6183 -1.5410  0.5129
  325MOL0     H44811   2.167   7.468   1.656  0.3615 -1.3312 -0.5892
  325MOL0     H44812   1.880   7.398   1.845  1.0627 -0.4809 -1.5009
  325MOL0     H44813   1.665   7.338   2.002 -0.2885 -1.8535  0.3514
  325MOL0     H44814   1.576   7.214   2.225 -0.6280  1.6468  0.0991
  325MOL0     H44815   1.493   7.252   2.079  0.4554 -0.3541 -1.2839
  325MOL0     H44816   1.448   7.003   2.270  0.9936 -0.2925  0.1488
  325MOL0     H44817   1.349   7.147   2.264  0.2570 -0.0710 -0.1722
  325MOL0     H44818   1.392   6.953   2.049  1.0875 -0.0051  1.6182
  325MOL0     H44819   1.283   7.092   2.033  0.1227  0.7696 -0.3395
  325MOL0     H44820   1.157   6.973   2.252  2.6227  0.9499  2.0935
  325MOL0     H44821   1.258   6.837   2.218  0.0206 -0.7601 -2.1558
  325MOL0     H44822   1.064   6.944   2.008  0.0124  1.1601  1.1878
  325MOL0     H44823   1.184   6.815   1.993  0.0360 -2.6420  0.9176
  325MOL0     H44824   0.997   6.776   2.217  2.0964 -1.3990  0.4200
  325MOL0     H44825   1.065   6.666   2.097  0.3418  1.1535 -0.9876
  325MOL0     H44826   0.885   6.710   1.936  0.3150  1.2622 -1.3556
  325MOL0     H44827   0.842   6.864   2.019 -2.0313 -0.1329  0.5414
  325MOL0     H44828   0.791   6.587   2.130  0.9336  1.1752  4.2484
  325MOL0     H44829   0.683   6.680   2.039 -0.2131 -1.2302  0.2915
  325MOL0     H44830   1.787   6.936   1.984 -0.2747 -0.3909 -1.5869
  325MOL0     H44831   1.978   6.999   1.827 -1.7554 -1.5146 -0.2261
  325MOL0     H44832   2.322   7.015   1.736  1.7082  0.2744  1.3407
  325MOL0     H44833   2.509   7.016   1.605 -0.7225 -1.5695 -1.9656
  325MOL0     H44834   1.681   6.498   2.460 -0.1165 -0.3275  0.3464
  325MOL0     H44835   1.436   6.460   2.467  0.2659  1.5370 -0.4557
  325MOL0     H44836   1.055   6.211   2.189 -1.4237 -0.7030 -1.2479
  325MOL0     H44837   0.830   6.147   2.261  0.2444  0.5290 -1.1471
  325MOL0     H44838   0.705   6.267   2.603  0.7436  1.8122  0.8145
  325MOL0     H44839   0.637   6.423   2.571 -0.6103  0.1807 -2.4915
  325MOL0     H44840   0.490   6.156   2.524  1.8850 -0.7370  0.7411
  325MOL0     H44841   0.423   6.323   2.507 -2.8803 -1.3368  1.9018
  325MOL0     H44842   0.495   6.182   2.760 -1.6560  0.4336  1.8956
  325MOL0     H44843   0.484   6.357   2.757 -1.4941  1.0680 -0.0286
  325MOL0     H44844   0.265   6.224   2.819  1.4741  0.7021  0.4968
  325MOL0     H44845   0.257   6.163   2.650 -4.0133  4.3494 -5.6140
  325MOL0     H44846   0.067   6.518   2.584 -2.8192 -0.5357  0.6001
  325MOL0     H44847   0.806   6.499   2.496  2.8108  2.5710  1.6046
  325MOL0     H44848   1.084   6.578   2.564  2.4118  5.5594  1.4300
  325MOL0     H44849   1.107   6.657   2.400  1.3039 -1.3369  0.7155
  325MOL0     H44850   0.945   6.655   2.483  0.4009 -0.1391  4.2686
  326MOL0     O44851   3.005   6.976   9.277 -0.3077  0.0421  1.1245
  326MOL0     C44852   3.036   6.899   9.187  0.0881 -0.4852  0.2549
  326MOL0     O44853   2.981   6.899   9.059 -0.1004  0.1087 -0.8642
  326MOL0     C44854   2.857   6.952   9.047 -0.0249 -0.1260 -0.0550
  326MOL0     C44855   2.740   6.870   9.040  0.4274 -0.6093 -0.0221
  326MOL0     C44856   2.612   6.930   9.030 -0.1242 -0.6637 -0.8892
  326MOL0     C44857   2.594   7.066   9.050 -0.2992 -0.3151 -0.1965
  326MOL0     O44858   2.469   7.115   9.056 -0.4466 -0.2067  0.2669
  326MOL0     C44859   2.448   7.185   9.181 -0.2575 -0.2088  0.2959
  326MOL0     C44860   2.304   7.193   9.204  0.5009  0.0461 -0.1649
  326MOL0     C44861   2.246   7.055   9.206  0.9723 -0.5270  0.9774
  326MOL0     C44862   2.288   6.967   9.326 -0.5174 -0.7101  0.0616
  326MOL0     C44863   2.240   6.817   9.329  0.6465 -0.9994  0.6434
  326MOL0     C44864   2.247   6.741   9.194  0.6680 -0.9308  0.9401
  326MOL0     C44865   2.183   6.610   9.216 -0.7377 -0.2130 -0.2511
  326MOL0     C44866   2.241   6.511   9.317  0.5601  0.6123  0.2765
  326MOL0     N44867   2.219   6.369   9.277 -0.7398  0.6656 -0.0280
  326MOL0     C44868   2.116   6.280   9.295 -0.0061  0.8537  0.0817
  326MOL0     C44869   2.157   6.169   9.231  0.2081 -0.3026 -0.7241
  326MOL0     C44870   2.092   6.032   9.222 -0.8310 -0.8415  0.2761
  326MOL0     C44871   2.009   6.010   9.095  0.9711 -1.1102 -0.5105
  326MOL0     C44872   2.097   5.987   8.971  0.7301 -0.1724 -0.2955
  326MOL0     C44873   2.177   5.848   8.967  1.1108 -0.4409  0.3535
  326MOL0     O44874   2.226   5.817   8.839  0.3634 -0.0836  0.5950
  326MOL0     C44875   2.337   5.881   8.786  0.6228 -0.1952  0.0293
  326MOL0     C44876   2.415   5.978   8.850  0.0427  0.5478  0.7732
  326MOL0     C44877   2.523   6.048   8.791  0.3681  0.5653 -0.5797
  326MOL0     C44878   2.593   6.155   8.882 -0.3185  0.5481 -0.4211
  326MOL0     C44879   2.545   6.031   8.656 -0.3078  0.0456 -0.2589
  326MOL0     C44880   2.655   6.102   8.578  0.6860 -0.3332  0.5253
  326MOL0     O44881   2.720   6.032   8.493  0.6437  0.5678 -0.5905
  326MOL0     C44882   2.854   6.033   8.504 -1.1965  0.0256 -0.1570
  326MOL0     C44883   2.934   6.084   8.613  0.6153 -0.6919 -0.3270
  326MOL0     C44884   3.070   6.089   8.612  0.5607 -0.2968 -0.0838
  326MOL0     C44885   3.146   6.034   8.503  0.5328 -0.4410 -0.6582
  326MOL0     O44886   3.285   6.044   8.516 -0.5156  0.4297  0.0199
  326MOL0     C44887   3.369   5.970   8.431  0.2510  0.9232  0.5552
  326MOL0     C44888   3.519   5.993   8.472  0.3789  0.3291  0.5799
  326MOL0     C44889   3.577   6.124   8.419 -0.8468  0.2015 -0.4312
  326MOL0     C44890   3.733   6.129   8.438 -0.0064  0.0511 -0.4962
  326MOL0     C44891   3.786   6.267   8.386 -0.6784  0.4881  1.1634
  326MOL0     C44892   3.929   6.287   8.435  0.0214 -0.2086  0.1030
  326MOL0     C44893   4.034   6.181   8.399  0.9750  0.1158  0.1618
  326MOL0     C44894   4.173   6.203   8.443 -0.4396 -0.2817 -0.2136
  326MOL0    Cl44895   4.235   6.362   8.372  0.4338  0.4845 -0.1819
  326MOL0     C44896   3.075   5.985   8.397  0.7945  0.4267  0.2184
  326MOL0     C44897   2.929   5.980   8.399 -0.5329 -0.8370  0.4605
  326MOL0     O44898   2.674   6.219   8.597  0.0356 -0.6668 -0.6829
  326MOL0     C44899   2.480   5.924   8.593 -1.0511  0.4568 -0.5035
  326MOL0     C44900   2.378   5.857   8.656 -0.0453  0.4015 -0.6165
  326MOL0     N44901   2.273   6.197   9.164 -0.1783  0.0621  0.1518
  326MOL0     N44902   2.311   6.314   9.193 -1.0470  0.0627  0.7954
  326MOL0     C44903   2.708   7.149   9.063 -0.3022  0.0122 -0.0590
  326MOL0     C44904   2.837   7.090   9.062 -0.4272 -0.0170 -0.0683
  326MOL0     C44905   3.147   6.804   9.211  0.8068  0.0610 -0.1763
  326MOL0     C44906   3.256   6.849   9.287 -0.6591  0.0009  0.0563
  326MOL0     C44907   3.374   6.770   9.291  0.0724  0.3621 -0.1728
  326MOL0     C44908   3.387   6.643   9.239  0.1286 -0.4683  0.2287
  326MOL0     O44909   3.506   6.565   9.259  0.1367 -0.5611  0.5958
  326MOL0     C44910   3.508   6.436   9.188  0.2165 -0.4992  0.1520
  326MOL0     C44911   3.635   6.358   9.202  0.6903  0.3895  0.8205
  326MOL0     C44912   3.752   6.455   9.198  0.1166  0.4007  0.8035
  326MOL0     C44913   3.874   6.378   9.162  0.0457  0.2772 -0.3261
  326MOL0     C44914   3.997   6.453   9.174  0.1277 -0.6661  0.6528
  326MOL0     C44915   4.095   6.523   9.178  0.7004 -0.0990  0.9443
  326MOL0     C44916   3.271   6.601   9.158 -1.2315  0.0412  0.1347
  326MOL0     C44917   3.156   6.680   9.146 -0.3553  0.7912 -0.5861
  326MOL0     C44918   3.045   6.618   9.067 -0.2025  0.1406 -0.3733
  326MOL0     H44919   2.748   6.765   9.012  0.7635 -0.2734 -1.2318
  326MOL0     H44920   2.523   6.870   9.015  0.1239 -0.9659 -1.1547
  326MOL0     H44921   2.497   7.283   9.190  0.3577 -0.4195 -0.6557
  326MOL0     H44922   2.496   7.136   9.266 -0.7573  0.2668  0.8684
  326MOL0     H44923   2.279   7.239   9.300  1.1344 -1.4346  0.7290
  326MOL0     H44924   2.258   7.257   9.128 -2.7963 -1.3224  0.5105
  326MOL0     H44925   2.137   7.063   9.202  1.0853  1.0127 -1.2158
  326MOL0     H44926   2.267   7.001   9.113 -1.5400 -0.4722  0.2844
  326MOL0     H44927   2.396   6.954   9.315 -0.3792  1.6972 -2.8067
  326MOL0     H44928   2.262   7.009   9.424  2.4625 -0.6783  0.9234
  326MOL0     H44929   2.138   6.835   9.365  1.2141  2.2184  0.9982
  326MOL0     H44930   2.299   6.766   9.405  0.1968  0.6637  2.1693
  326MOL0     H44931   2.186   6.786   9.115  0.6826  0.2535  1.5746
  326MOL0     H44932   2.351   6.729   9.162  1.0755  2.5524  0.5852
  326MOL0     H44933   2.186   6.560   9.119 -0.1509 -1.8297  0.5775
  326MOL0     H44934   2.082   6.640   9.248 -0.4939  2.1253 -1.4074
  326MOL0     H44935   2.348   6.520   9.338  0.6179  1.5203 -0.3514
  326MOL0     H44936   2.190   6.523   9.413 -1.1524  0.2962 -0.5626
  326MOL0     H44937   2.038   6.294   9.369  3.0793 -2.0741  4.3687
  326MOL0     H44938   2.024   6.028   9.307 -0.8216  0.6471  0.3709
  326MOL0     H44939   2.173   5.959   9.228  1.2083  1.3991  2.5953
  326MOL0     H44940   1.937   5.929   9.112 -3.8974  2.9488  0.8298
  326MOL0     H44941   1.956   6.104   9.074 -1.5420 -2.5136 -0.8967
  326MOL0     H44942   2.039   5.995   8.879 -0.6077  0.1932  0.5354
  326MOL0     H44943   2.169   6.069   8.964 -0.4531  0.8062 -1.4293
  326MOL0     H44944   2.254   5.853   9.045  1.5729 -0.9255 -0.0683
  326MOL0     H44945   2.099   5.777   8.996 -0.3325  0.0687 -2.0467
  326MOL0     H44946   2.413   6.002   8.955  2.6172  4.4844  0.1375
  326MOL0     H44947   2.576   6.250   8.831 -5.7197 -0.9233 -1.9861
  326MOL0     H44948   2.702   6.144   8.892  0.1952  3.3194 -1.8613
  326MOL0     H44949   2.555   6.170   8.983  0.8433 -0.6197  0.2243
  326MOL0     H44950   2.895   6.116   8.709  0.7707 -0.2494 -0.4121
  326MOL0     H44951   3.128   6.119   8.698 -1.0220 -0.2148  1.0124
  326MOL0     H44952   3.345   5.864   8.440  0.7075  0.6042 -1.5724
  326MOL0     H44953   3.355   6.017   8.333  0.6831  0.1336  0.0998
  326MOL0     H44954   3.523   5.989   8.581 -1.8848 -0.6164  0.6852
  326MOL0     H44955   3.578   5.911   8.430  1.6938  0.1368  2.6986
  326MOL0     H44956   3.528   6.203   8.477 -0.9037  1.0568 -1.5930
  326MOL0     H44957   3.559   6.139   8.312 -0.0175  0.2224 -0.5743
  326MOL0     H44958   3.773   6.039   8.391 -1.0197 -1.0077  0.6061
  326MOL0     H44959   3.752   6.128   8.546  0.4981 -0.3363 -0.5853
  326MOL0     H44960   3.783   6.260   8.277  1.3383 -1.3285  1.1716
  326MOL0     H44961   3.730   6.358   8.409  0.6916  1.5352  0.5077
  326MOL0     H44962   3.920   6.287   8.544 -0.7617  0.2380  0.0458
  326MOL0     H44963   3.965   6.386   8.406  2.6630 -1.3043 -0.7413
  326MOL0     H44964   4.044   6.151   8.294  3.8943 -3.3456  1.2488
  326MOL0     H44965   3.996   6.088   8.442  1.8189 -1.4079 -2.2117
  326MOL0     H44966   4.224   6.109   8.419 -2.3934 -0.8450 -2.5436
  326MOL0     H44967   4.175   6.215   8.552 -0.1267 -0.8722 -0.1530
  326MOL0     H44968   3.128   5.948   8.310  1.9000 -0.4206  1.2319
  326MOL0     H44969   2.872   5.930   8.321 -0.7496 -1.9467  1.2974
  326MOL0     H44970   2.512   5.907   8.490 -2.4032  0.7104 -0.9788
  326MOL0     H44971   2.322   5.780   8.604 -2.5257  1.7107 -0.0499
  326MOL0     H44972   2.704   7.253   9.093  3.2643  0.3348 -0.3259
  326MOL0     H44973   2.922   7.156   9.079  0.7635 -1.8192  1.5325
  326MOL0     H44974   3.262   6.950   9.327 -1.5875 -0.8822  2.5970
  326MOL0     H44975   3.460   6.816   9.339 -0.2579  0.4179  0.3824
  326MOL0     H44976   3.418   6.389   9.231  1.0827 -0.1943  2.4355
  326MOL0     H44977   3.495   6.456   9.082  0.1803  0.4164  0.3214
  326MOL0     H44978   3.638   6.278   9.127  1.1301  0.7239  0.4733
  326MOL0     H44979   3.640   6.303   9.296 -0.0012  1.2681  1.3861
  326MOL0     H44980   3.735   6.525   9.115  0.1502  0.0289  0.4799
  326MOL0     H44981   3.773   6.508   9.291  4.7391 -1.8978  1.3458
  326MOL0     H44982   3.858   6.339   9.061  0.7537 -2.7917  0.6295
  326MOL0     H44983   3.876   6.290   9.226 -4.1515  2.4295  3.3379
  326MOL0     H44984   4.175   6.588   9.151  0.4999 -1.3534 -3.5955
  326MOL0     H44985   3.264   6.500   9.119  0.5446 -0.1131  0.1597
  326MOL0     H44986   2.944   6.655   9.087 -1.1325 -2.1811 -0.4330
  326MOL0     H44987   3.064   6.631   8.960  1.2428  0.4277 -0.0985
  326MOL0     H44988   3.027   6.513   9.092  5.1083 -0.8759  0.3560
  327MOL0     O44989   3.157  11.120   5.789  0.7142 -0.6585  0.1444
  327MOL0     C44990   3.225  11.027   5.840  0.0504  0.0364  0.4008
  327MOL0     O44991   3.262  11.019   5.973  0.5374 -0.2179 -0.1615
  327MOL0     C44992   3.244  11.125   6.058  0.5985 -0.4169 -0.0310
  327MOL0     C44993   3.353  11.185   6.119  0.0944  0.9226  0.3921
  327MOL0     C44994   3.334  11.297   6.200 -0.2007 -0.3170  0.3135
  327MOL0     C44995   3.211  11.357   6.226 -0.8755  0.4155 -0.0490
  327MOL0     O44996   3.207  11.463   6.314  0.2746 -0.2671  0.7685
  327MOL0     C44997   3.118  11.573   6.271  0.0331  0.3512 -0.1566
  327MOL0     C44998   3.191  11.707   6.282  0.4925 -0.1520 -0.4628
  327MOL0     C44999   3.330  11.719   6.212  0.6857  0.1460  0.3045
  327MOL0     C45000   3.427  11.798   6.305 -0.2259  0.1667  0.2863
  327MOL0     C45001   3.504  11.906   6.222  0.5402  1.1414 -0.9785
  327MOL0     C45002   3.585  12.002   6.307 -0.2562  0.4698 -0.3256
  327MOL0     C45003   3.731  11.943   6.327 -0.4916  0.1184 -0.6550
  327MOL0     C45004   3.815  12.021   6.421 -0.3158 -0.5822 -0.0834
  327MOL0     N45005   3.959  11.999   6.424  0.0961  0.0312  0.6954
  327MOL0     C45006   4.031  11.884   6.398  0.0288  0.3892 -0.1792
  327MOL0     C45007   4.158  11.912   6.437  0.0654 -0.7356 -0.2760
  327MOL0     C45008   4.255  11.795   6.454 -0.1102  0.5085  0.5425
  327MOL0     C45009   4.391  11.856   6.484  0.2317 -0.0855 -0.2846
  327MOL0     C45010   4.407  11.846   6.632  0.2636  0.5143 -0.3826
  327MOL0     C45011   4.556  11.862   6.671  0.3587 -0.1880  0.2193
  327MOL0     O45012   4.646  11.759   6.623 -0.9257  0.2943  0.4638
  327MOL0     C45013   4.781  11.780   6.650 -0.0652 -0.5678  0.3937
  327MOL0     C45014   4.865  11.673   6.626 -0.2362 -0.5788  0.8434
  327MOL0     C45015   5.006  11.674   6.635  0.1792  0.3233 -0.0728
  327MOL0     C45016   5.072  11.540   6.615 -0.0293  0.3999  0.6995
  327MOL0     C45017   5.072  11.798   6.668  0.5019  0.4784 -0.6187
  327MOL0     C45018   5.217  11.813   6.669  0.5595  0.1268  0.2057
  327MOL0     O45019   5.287  11.700   6.694  0.0377 -0.8418 -0.8456
  327MOL0     C45020   5.420  11.696   6.731 -0.6507 -0.1021 -0.1234
  327MOL0     C45021   5.516  11.718   6.636 -0.2505 -0.0916 -0.7668
  327MOL0     C45022   5.650  11.700   6.672  0.6731 -1.0540  0.8104
  327MOL0     C45023   5.692  11.652   6.796 -0.3805 -0.0262 -1.0115
  327MOL0     O45024   5.831  11.638   6.817 -0.1284  0.1054 -0.2584
  327MOL0     C45025   5.869  11.546   6.921 -0.0476 -0.5699  0.6995
  327MOL0     C45026   6.009  11.492   6.879  0.1279 -0.2608  0.0770
  327MOL0     C45027   6.056  11.364   6.956 -0.3882  0.0738  0.0994
  327MOL0     C45028   6.193  11.302   6.924  0.4663  0.0164  0.1761
  327MOL0     C45029   6.243  11.198   7.026 -0.5590  0.5440 -0.0546
  327MOL0     C45030   6.347  11.257   7.127  0.2257  0.1554 -0.3953
  327MOL0     C45031   6.398  11.144   7.207  0.5218 -0.2373 -0.1531
  327MOL0     C45032   6.491  11.188   7.324  0.6863 -0.8301  0.4877
  327MOL0    Cl45033   6.407  11.306   7.424  0.3990  0.4784  0.0740
  327MOL0     C45034   5.593  11.635   6.896  0.4209  0.1595  0.5503
  327MOL0     C45035   5.458  11.652   6.863  0.2557  0.1284  0.4055
  327MOL0     O45036   5.267  11.916   6.637  0.0731  0.2772 -0.6243
  327MOL0     C45037   4.983  11.905   6.704 -0.6738  0.4478 -0.1789
  327MOL0     C45038   4.846  11.894   6.695  0.0721  0.0377 -0.1163
  327MOL0     N45039   4.162  12.040   6.494  0.1608  0.7578 -0.1918
  327MOL0     N45040   4.047  12.091   6.472 -0.4940 -0.0723  0.1522
  327MOL0     C45041   3.099  11.303   6.164 -0.7400  0.2888  0.6802
  327MOL0     C45042   3.112  11.176   6.096 -0.5818 -0.7507  0.3950
  327MOL0     C45043   3.259  10.924   5.736 -0.0886 -0.8190  0.1254
  327MOL0     C45044   3.314  10.799   5.783  0.8217  0.0316  0.2614
  327MOL0     C45045   3.355  10.708   5.686 -0.4802  0.1092  0.7109
  327MOL0     C45046   3.372  10.739   5.549 -0.0631  0.8880 -0.0060
  327MOL0     O45047   3.445  10.652   5.467  0.2867 -0.0798 -0.5243
  327MOL0     C45048   3.451  10.670   5.320  0.0094  0.1307 -0.0718
  327MOL0     C45049   3.513  10.543   5.264  0.3222 -0.6800  0.6930
  327MOL0     C45050   3.422  10.419   5.255 -0.2039 -0.0963  0.1645
  327MOL0     C45051   3.489  10.295   5.201  0.1478  0.4025  0.1697
  327MOL0     C45052   3.508  10.309   5.052  0.6471 -0.1477 -0.2141
  327MOL0     C45053   3.515  10.326   4.933 -0.2716 -0.4173 -0.0403
  327MOL0     C45054   3.324  10.859   5.501 -0.7334 -0.5833 -1.0812
  327MOL0     C45055   3.273  10.955   5.593  1.6672 -0.0273 -0.8626
  327MOL0     C45056   3.233  11.090   5.529 -0.0380  1.0911  1.1885
  327MOL0     H45057   3.442  11.124   6.103  0.1080  0.9250  0.4562
  327MOL0     H45058   3.424  11.345   6.235  1.4413  0.1544 -3.9180
  327MOL0     H45059   3.026  11.585   6.328 -1.0514 -1.3421 -1.4447
  327MOL0     H45060   3.094  11.558   6.165  3.6740  0.8697 -1.2048
  327MOL0     H45061   3.138  11.795   6.244  1.9504  0.3213 -1.4854
  327MOL0     H45062   3.200  11.716   6.391 -2.5017 -0.4321 -0.1220
  327MOL0     H45063   3.372  11.621   6.188  0.1250 -0.0930  0.2875
  327MOL0     H45064   3.311  11.779   6.122  2.8267  0.8440  0.2558
  327MOL0     H45065   3.369  11.847   6.383  0.2105  2.4861 -0.7722
  327MOL0     H45066   3.505  11.732   6.344 -0.0908 -0.1096 -0.4353
  327MOL0     H45067   3.425  11.960   6.169  0.2334  2.9358  1.1565
  327MOL0     H45068   3.567  11.848   6.154  0.3358  0.0040 -0.2221
  327MOL0     H45069   3.589  12.099   6.258 -0.4215 -0.1775 -1.6761
  327MOL0     H45070   3.532  12.003   6.402  1.8805  1.0231  0.9226
  327MOL0     H45071   3.772  11.934   6.226 -1.5123 -2.4243 -0.9078
  327MOL0     H45072   3.717  11.844   6.372 -0.0318  1.0832  1.7699
  327MOL0     H45073   3.789  12.128   6.424  0.1115 -0.4938  0.6878
  327MOL0     H45074   3.774  11.984   6.515 -2.6243  2.2587  0.2088
  327MOL0     H45075   3.994  11.785   6.372 -1.2104  0.1517  2.1680
  327MOL0     H45076   4.274  11.754   6.354  0.5078  2.5533 -0.2364
  327MOL0     H45077   4.216  11.718   6.522 -1.4280  1.7113  1.2101
  327MOL0     H45078   4.466  11.790   6.438  0.4892 -1.2899  1.7385
  327MOL0     H45079   4.401  11.959   6.449  0.5797 -0.8229 -2.5413
  327MOL0     H45080   4.357  11.933   6.675  0.3173  0.9463 -1.1712
  327MOL0     H45081   4.364  11.759   6.683 -1.1502  1.3860 -0.0277
  327MOL0     H45082   4.579  11.964   6.637 -0.2031 -0.8939 -2.5262
  327MOL0     H45083   4.565  11.873   6.779  0.1555  0.6786  0.1567
  327MOL0     H45084   4.827  11.573   6.611 -0.2855 -0.2795 -1.3130
  327MOL0     H45085   5.006  11.470   6.562 -0.6192  1.8732 -0.5734
  327MOL0     H45086   5.114  11.503   6.709  1.3954 -1.3363 -0.5506
  327MOL0     H45087   5.154  11.546   6.543 -1.8716 -1.7252 -1.7980
  327MOL0     H45088   5.475  11.765   6.547 -1.0056 -0.6092 -0.6969
  327MOL0     H45089   5.721  11.723   6.593 -2.3045  0.6784 -1.6308
  327MOL0     H45090   5.878  11.599   7.016  1.3722 -1.6031  1.1725
  327MOL0     H45091   5.803  11.459   6.932  1.3875 -1.5229  2.1461
  327MOL0     H45092   5.994  11.475   6.772  1.6265 -1.1717 -0.0188
  327MOL0     H45093   6.086  11.567   6.893  0.5920 -1.2440  3.8650
  327MOL0     H45094   5.980  11.285   6.948  1.4990 -1.7326 -1.0813
  327MOL0     H45095   6.051  11.397   7.060  0.7077  0.6181 -0.0145
  327MOL0     H45096   6.259  11.390   6.929 -0.9742  1.0769  1.3156
  327MOL0     H45097   6.192  11.265   6.821 -0.8948  0.2487  0.0873
  327MOL0     H45098   6.159  11.154   7.080  0.4802 -3.4478 -1.3408
  327MOL0     H45099   6.292  11.116   6.971 -2.3473 -0.6264  0.0250
  327MOL0     H45100   6.295  11.330   7.190 -1.0939 -1.8370  0.9547
  327MOL0     H45101   6.433  11.309   7.083  0.8690 -0.9180 -0.4287
  327MOL0     H45102   6.451  11.068   7.149  0.9394  0.0222 -0.1168
  327MOL0     H45103   6.308  11.094   7.245  0.3661  1.5571  1.9850
  327MOL0     H45104   6.585  11.223   7.281 -0.4230 -1.1257 -2.3356
  327MOL0     H45105   6.509  11.107   7.396  1.6790  0.0511  1.2508
  327MOL0     H45106   5.617  11.590   6.992 -0.3117  1.1379  1.2117
  327MOL0     H45107   5.377  11.633   6.932  0.9512 -2.1318  0.7048
  327MOL0     H45108   5.021  11.998   6.745  0.1429 -1.6346  4.4598
  327MOL0     H45109   4.786  11.982   6.716 -0.5041 -0.0052 -1.4460
  327MOL0     H45110   3.002  11.351   6.172 -0.8620  0.2707 -0.5610
  327MOL0     H45111   3.025  11.132   6.049 -1.0124 -0.5175  0.9699
  327MOL0     H45112   3.309  10.766   5.886 -3.2165 -1.3614 -0.1843
  327MOL0     H45113   3.386  10.611   5.726 -2.3605 -0.3150  1.2510
  327MOL0     H45114   3.347  10.681   5.288 -0.6093 -1.9086  1.0481
  327MOL0     H45115   3.518  10.750   5.287  0.7196  0.4719  2.0215
  327MOL0     H45116   3.608  10.523   5.314  0.3148  2.1453  1.9838
  327MOL0     H45117   3.531  10.578   5.162  0.2031  0.1831  0.9580
  327MOL0     H45118   3.393  10.399   5.359  1.3509  2.5158  1.2086
  327MOL0     H45119   3.333  10.456   5.202 -0.5377 -0.1398  0.6894
  327MOL0     H45120   3.430  10.207   5.226 -0.3567  0.3715 -1.0509
  327MOL0     H45121   3.584  10.282   5.254  0.4207  0.9676 -0.1596
  327MOL0     H45122   3.515  10.347   4.828  1.6968  1.8936  0.3135
  327MOL0     H45123   3.334  10.881   5.395  1.2731  0.7756 -0.6708
  327MOL0     H45124   3.261  11.172   5.596 -1.8851  1.7875  1.1826
  327MOL0     H45125   3.280  11.108   5.432 -2.0307  0.6953  0.0911
  327MOL0     H45126   3.125  11.099   5.511  0.1690 -1.1770 -1.9288
  328MOL0     O45127   6.910   5.080   5.445 -0.1760 -0.4772  0.6072
  328MOL0     C45128   6.842   4.994   5.383  0.1201  0.5845 -0.4623
  328MOL0     O45129   6.857   4.858   5.403 -0.6175  0.3304 -0.0991
  328MOL0     C45130   6.933   4.812   5.512 -0.5088 -0.2151  0.2035
  328MOL0     C45131   6.865   4.757   5.612 -0.0921 -0.3168 -0.1252
  328MOL0     C45132   6.935   4.705   5.728  0.1402 -0.0527  0.2416
  328MOL0     C45133   7.069   4.725   5.749  0.0421 -0.9470  0.1601
  328MOL0     O45134   7.120   4.693   5.872 -0.5586 -0.3447  0.3563
  328MOL0     C45135   7.216   4.586   5.866  0.4763 -0.6240  0.7920
  328MOL0     C45136   7.269   4.547   6.007  0.2641  0.2227 -0.6030
  328MOL0     C45137   7.382   4.650   6.046  0.1287  0.7483 -0.2208
  328MOL0     C45138   7.458   4.584   6.169  0.0002 -0.0325  1.2018
  328MOL0     C45139   7.599   4.651   6.177  0.0059 -0.1720  0.5272
  328MOL0     C45140   7.666   4.614   6.314 -0.2446  0.5099 -0.0226
  328MOL0     C45141   7.789   4.698   6.324 -0.0195 -0.0223 -0.4352
  328MOL0     C45142   7.904   4.636   6.239 -0.5449  0.0298  0.0165
  328MOL0     N45143   8.025   4.724   6.244 -0.6188  0.7974 -0.5787
  328MOL0     C45144   8.148   4.684   6.282  0.0664 -0.2541  0.3807
  328MOL0     C45145   8.230   4.794   6.268 -0.2176  0.0955 -1.0505
  328MOL0     C45146   8.381   4.796   6.292 -0.2340  0.0235  0.2047
  328MOL0     C45147   8.468   4.757   6.165  0.6742 -0.2357  0.6439
  328MOL0     C45148   8.614   4.800   6.178 -0.1451  0.0665 -0.8272
  328MOL0     C45149   8.684   4.812   6.043 -0.4892  0.6439  0.1733
  328MOL0     O45150   8.710   4.679   5.991  0.1372  0.4402  1.0261
  328MOL0     C45151   8.840   4.641   6.009  0.2601  0.2333 -0.0772
  328MOL0     C45152   8.896   4.571   6.121  0.1937 -0.1984 -0.3867
  328MOL0     C45153   9.027   4.523   6.124 -0.7030  0.1623  0.9768
  328MOL0     C45154   9.075   4.446   6.248 -0.4691  0.1349  0.7371
  328MOL0     C45155   9.108   4.540   6.005  0.0964 -0.3493  1.2695
  328MOL0     C45156   9.252   4.497   6.000 -0.4895  0.3461  0.7591
  328MOL0     O45157   9.309   4.494   5.871 -0.1002 -0.0702  0.7096
  328MOL0     C45158   9.435   4.443   5.860  0.3673 -0.3133  0.3660
  328MOL0     C45159   9.446   4.298   5.852  0.4351  0.0979 -0.5942
  328MOL0     C45160   9.571   4.239   5.828 -0.5454 -0.0379  0.5928
  328MOL0     C45161   9.692   4.318   5.818 -0.3486  0.6296  0.0322
  328MOL0     O45162   9.817   4.264   5.803 -0.1701 -0.2947  0.0320
  328MOL0     C45163   9.854   4.163   5.894 -1.2320  0.4391  0.7421
  328MOL0     C45164  10.010   4.159   5.904  0.0098  0.1075 -0.4789
  328MOL0     C45165  10.071   4.299   5.934  0.0624 -0.1487 -0.3411
  328MOL0     C45166  10.212   4.279   5.991 -0.4657 -0.2058 -0.0592
  328MOL0     C45167  10.318   4.380   5.946 -0.8251 -0.3211 -0.9849
  328MOL0     C45168  10.276   4.531   5.948  0.3570 -0.2345  0.9044
  328MOL0     C45169  10.407   4.609   5.929  0.4953  0.4901 -0.0630
  328MOL0     C45170  10.375   4.757   5.918 -0.1974 -0.4799  0.6030
  328MOL0    Cl45171  10.531   4.846   5.923  0.1833 -0.2138  0.1946
  328MOL0     C45172   9.683   4.456   5.839  0.3375  0.0030 -0.1750
  328MOL0     C45173   9.551   4.519   5.846 -0.2494 -0.1949  0.3448
  328MOL0     O45174   9.315   4.466   6.102  0.0984  0.2558 -0.4355
  328MOL0     C45175   9.059   4.613   5.900 -0.3640  0.6009  0.4602
  328MOL0     C45176   8.924   4.655   5.901 -1.0291  0.7416  0.1877
  328MOL0     N45177   8.149   4.899   6.238  0.4416  0.1752 -0.3361
  328MOL0     N45178   8.027   4.855   6.236  0.3335 -0.0302  0.4392
  328MOL0     C45179   7.131   4.809   5.656 -0.3252  0.6308 -0.3135
  328MOL0     C45180   7.068   4.846   5.538  0.0466 -0.1055  0.7517
  328MOL0     C45181   6.748   5.029   5.265  0.4465  0.3925  1.2226
  328MOL0     C45182   6.673   4.922   5.210  0.7083  0.1965  0.8036
  328MOL0     C45183   6.577   4.942   5.119 -0.3464  0.2981  0.2278
  328MOL0     C45184   6.560   5.067   5.060  0.4799 -0.0500  0.4483
  328MOL0     O45185   6.467   5.086   4.954  0.5393 -0.2379  0.2530
  328MOL0     C45186   6.494   5.176   4.847 -0.7430  0.1642 -0.5961
  328MOL0     C45187   6.397   5.162   4.734 -0.3126 -0.5342  0.5753
  328MOL0     C45188   6.413   5.269   4.618 -0.0317  0.4621  0.0865
  328MOL0     C45189   6.502   5.208   4.505 -0.0227 -0.5184  0.4459
  328MOL0     C45190   6.640   5.164   4.536 -0.6632 -0.0987  0.2259
  328MOL0     C45191   6.751   5.120   4.561 -0.7686 -0.8564  0.1101
  328MOL0     C45192   6.636   5.182   5.103 -0.2695 -0.0120 -0.4148
  328MOL0     C45193   6.731   5.155   5.206 -0.4401 -0.1492  0.1955
  328MOL0     C45194   6.811   5.268   5.257  0.3611  0.4678  0.4308
  328MOL0     H45195   6.760   4.738   5.594 -0.6253  3.4688 -2.0757
  328MOL0     H45196   6.881   4.662   5.812  0.6120  1.1853  1.2079
  328MOL0     H45197   7.297   4.624   5.803  0.0242 -2.8335 -1.2624
  328MOL0     H45198   7.165   4.494   5.837 -2.7194  0.8658  1.2382
  328MOL0     H45199   7.194   4.532   6.084  0.0347  1.2258 -0.6207
  328MOL0     H45200   7.323   4.453   5.996  0.6737  0.2928  0.7369
  328MOL0     H45201   7.446   4.668   5.959  0.0917  1.0516 -0.1860
  328MOL0     H45202   7.344   4.746   6.080 -2.2546 -0.1395 -0.2062
  328MOL0     H45203   7.391   4.602   6.254  0.4399 -0.4923  1.6513
  328MOL0     H45204   7.466   4.476   6.155  2.1491 -0.1552  2.8475
  328MOL0     H45205   7.576   4.757   6.173 -1.4029 -0.4987 -1.9544
  328MOL0     H45206   7.656   4.622   6.088  0.5647  0.1531  0.7739
  328MOL0     H45207   7.603   4.639   6.399 -1.8922 -2.6519 -0.1885
  328MOL0     H45208   7.701   4.511   6.320  1.1312  0.9410 -0.2667
  328MOL0     H45209   7.819   4.700   6.429 -1.3552  1.5644 -0.0391
  328MOL0     H45210   7.762   4.798   6.288 -1.8319 -0.6823 -1.0496
  328MOL0     H45211   7.926   4.542   6.290 -0.9090 -0.5826 -0.9288
  328MOL0     H45212   7.876   4.614   6.135  1.3810  0.6004 -0.6529
  328MOL0     H45213   8.186   4.582   6.291  1.7537  0.4630  2.0010
  328MOL0     H45214   8.398   4.716   6.365 -0.4586 -1.3354 -1.1705
  328MOL0     H45215   8.408   4.897   6.324  0.2600 -0.0601  0.0594
  328MOL0     H45216   8.469   4.648   6.155  1.6984 -0.1018 -1.1499
  328MOL0     H45217   8.425   4.806   6.077  0.4529  0.6531  1.2318
  328MOL0     H45218   8.628   4.904   6.210  1.6431 -1.1652  3.0095
  328MOL0     H45219   8.661   4.732   6.250  0.2584  1.0611 -0.1204
  328MOL0     H45220   8.619   4.862   5.971  1.4166  1.3760 -1.1303
  328MOL0     H45221   8.773   4.874   6.048  1.0660 -0.8452 -4.0305
  328MOL0     H45222   8.832   4.540   6.203 -1.9159  1.7055 -1.2140
  328MOL0     H45223   8.984   4.418   6.302 -0.5008 -1.9217 -0.3081
  328MOL0     H45224   9.152   4.498   6.306  1.2195 -0.7910 -0.6045
  328MOL0     H45225   9.129   4.357   6.215  0.9919  0.9511  0.8484
  328MOL0     H45226   9.367   4.223   5.840  1.3108 -0.8023 -0.8950
  328MOL0     H45227   9.559   4.132   5.812  1.6256  0.0354 -2.4432
  328MOL0     H45228   9.803   4.189   5.987 -1.2956  1.0762  0.5325
  328MOL0     H45229   9.811   4.066   5.869 -0.9143 -0.3124  2.8628
  328MOL0     H45230  10.022   4.088   5.987 -1.5787  0.3687  0.0089
  328MOL0     H45231  10.044   4.113   5.811  0.7560  0.7500 -0.5265
  328MOL0     H45232   9.993   4.349   5.993 -1.9984  1.6474 -4.2355
  328MOL0     H45233  10.074   4.351   5.838 -1.5814  1.3812  0.3835
  328MOL0     H45234  10.259   4.186   5.956  2.1426  1.4435 -1.2949
  328MOL0     H45235  10.204   4.276   6.100 -1.5743 -3.0357 -0.1329
  328MOL0     H45236  10.401   4.364   6.015 -0.5195 -0.2514 -1.3273
  328MOL0     H45237  10.373   4.357   5.854  0.8976 -0.8336  0.1226
  328MOL0     H45238  10.235   4.568   6.043  0.8998 -0.8767  1.3954
  328MOL0     H45239  10.209   4.556   5.865 -0.3461 -1.2905  1.1399
  328MOL0     H45240  10.452   4.563   5.841 -1.4611  1.5728 -1.7170
  328MOL0     H45241  10.476   4.593   6.012  0.6971  2.1152  0.1236
  328MOL0     H45242  10.311   4.789   6.002 -0.7527 -1.5552  0.6067
  328MOL0     H45243  10.318   4.778   5.827  2.6131 -0.3991 -1.2479
  328MOL0     H45244   9.779   4.504   5.855  0.9764 -1.0198 -0.8093
  328MOL0     H45245   9.560   4.627   5.843  2.3686 -0.3435 -0.1136
  328MOL0     H45246   9.124   4.640   5.818  2.5517 -2.1581  1.6618
  328MOL0     H45247   8.884   4.715   5.820 -2.5225 -0.8666 -0.3413
  328MOL0     H45248   7.236   4.838   5.649 -0.0518 -0.2375 -0.0379
  328MOL0     H45249   7.122   4.904   5.464 -0.8377  1.8627  1.5896
  328MOL0     H45250   6.686   4.819   5.242  0.7063 -0.1466 -0.2788
  328MOL0     H45251   6.517   4.864   5.072 -0.6017  1.8016 -2.1529
  328MOL0     H45252   6.485   5.273   4.898 -4.3584 -0.9678  1.3039
  328MOL0     H45253   6.597   5.155   4.820 -0.8124 -2.5018  0.9507
  328MOL0     H45254   6.296   5.186   4.770 -0.0398  0.8020  0.4948
  328MOL0     H45255   6.390   5.061   4.691 -0.3841  0.1459 -1.1059
  328MOL0     H45256   6.311   5.298   4.590 -1.2976  1.1374  4.5892
  328MOL0     H45257   6.462   5.353   4.668  2.9388 -1.7840  1.1799
  328MOL0     H45258   6.494   5.283   4.425 -0.7492 -1.2710 -0.2050
  328MOL0     H45259   6.455   5.117   4.466  0.0714 -0.1458 -0.5676
  328MOL0     H45260   6.846   5.075   4.581 -0.4645 -1.6354 -2.7600
  328MOL0     H45261   6.623   5.282   5.063 -0.8894  0.2685  0.4534
  328MOL0     H45262   6.802   5.284   5.365 -0.3304 -1.5052  0.6962
  328MOL0     H45263   6.916   5.247   5.237  0.1185  0.5365 -1.1009
  328MOL0     H45264   6.793   5.361   5.201  0.6766 -0.9087 -2.0949
  329MOL0     O45265   8.111   6.068   6.047  0.3698 -0.4190  0.3421
  329MOL0     C45266   8.175   6.074   5.941 -0.0415  0.1776  0.3853
  329MOL0     O45267   8.128   6.036   5.817  0.6739 -0.2194 -0.1441
  329MOL0     C45268   7.995   5.987   5.785  0.2178 -0.5015  0.2771
  329MOL0     C45269   7.959   6.010   5.649  0.2753  0.1996 -0.4901
  329MOL0     C45270   7.832   5.961   5.613 -0.0033  0.1747  0.0468
  329MOL0     C45271   7.734   5.906   5.704 -0.0883  0.6965 -0.5788
  329MOL0     O45272   7.609   5.863   5.674  0.2873  1.1024 -0.0964
  329MOL0     C45273   7.553   5.868   5.539 -0.3149  0.1703 -1.1585
  329MOL0     C45274   7.404   5.889   5.547  0.9953  0.0294  1.0799
  329MOL0     C45275   7.359   6.005   5.625  0.6264  0.4486 -0.2777
  329MOL0     C45276   7.199   6.008   5.628  0.1681  0.1624 -0.1222
  329MOL0     C45277   7.139   6.115   5.726  0.4800 -0.8622 -0.5016
  329MOL0     C45278   7.000   6.173   5.685 -0.1496 -0.8896 -1.2349
  329MOL0     C45279   6.998   6.218   5.537 -0.2024 -1.1801  0.1554
  329MOL0     C45280   6.858   6.250   5.487  0.5884  0.5667  0.7242
  329MOL0     N45281   6.865   6.285   5.345  0.0691  0.4487 -0.1113
  329MOL0     C45282   6.768   6.238   5.256  0.0362 -0.3574 -0.1358
  329MOL0     C45283   6.783   6.314   5.145 -0.6529  0.4982  0.4242
  329MOL0     C45284   6.700   6.317   5.019 -0.1645  0.4315 -0.3127
  329MOL0     C45285   6.752   6.225   4.921  0.2489  0.8507  0.7629
  329MOL0     C45286   6.886   6.278   4.861  0.6490  0.5083  0.1502
  329MOL0     C45287   6.929   6.186   4.739 -0.0266  0.1220  0.1106
  329MOL0     O45288   6.917   6.048   4.768 -0.4040 -0.3167  0.3658
  329MOL0     C45289   7.026   5.996   4.830 -0.0781 -0.8259 -0.2686
  329MOL0     C45290   7.025   5.966   4.963 -0.5794  0.1919  0.2834
  329MOL0     C45291   7.136   5.919   5.042 -0.0098  0.5831 -0.1352
  329MOL0     C45292   7.115   5.895   5.188 -0.0354  0.1594 -0.3577
  329MOL0     C45293   7.256   5.897   4.972 -0.3103 -0.5961  0.7058
  329MOL0     C45294   7.388   5.888   5.030  0.1821 -0.9482 -1.3240
  329MOL0     O45295   7.498   5.893   4.940 -0.2694 -0.7906 -1.0518
  329MOL0     C45296   7.624   5.888   4.998  0.3264  0.3698 -0.9019
  329MOL0     C45297   7.665   5.961   5.106  0.4639 -0.4015 -0.6115
  329MOL0     C45298   7.793   5.950   5.168  0.6885  0.9138  0.0356
  329MOL0     C45299   7.881   5.865   5.109  0.3521  0.1033 -0.9181
  329MOL0     O45300   8.014   5.856   5.150  0.5501 -0.1304  0.0404
  329MOL0     C45301   8.083   5.980   5.177 -0.8119 -0.9980  0.6054
  329MOL0     C45302   8.236   5.955   5.190  0.2369 -0.2290 -0.5757
  329MOL0     C45303   8.288   5.877   5.066  0.2553  0.0643 -0.0897
  329MOL0     C45304   8.435   5.868   5.065 -0.1243 -0.4850 -0.4450
  329MOL0     C45305   8.494   5.764   5.164 -1.3742 -0.1175 -0.6982
  329MOL0     C45306   8.643   5.746   5.111 -0.4581  0.7312  0.4914
  329MOL0     C45307   8.720   5.635   5.189 -0.4657  0.0890 -0.4726
  329MOL0     C45308   8.863   5.637   5.129 -0.1869 -0.5892 -0.3625
  329MOL0    Cl45309   8.984   5.549   5.229  0.0588 -0.2741 -0.4924
  329MOL0     C45310   7.842   5.791   5.002  0.6566  0.0500 -0.0547
  329MOL0     C45311   7.710   5.799   4.950  0.3812  0.2290 -0.2050
  329MOL0     O45312   7.394   5.865   5.153  0.1597 -0.0521 -0.1792
  329MOL0     C45313   7.248   5.925   4.829 -0.5917  0.3381  0.0245
  329MOL0     C45314   7.137   5.971   4.763  1.0055  0.0229  0.3020
  329MOL0     N45315   6.886   6.409   5.154  0.5382  0.6618 -0.4222
  329MOL0     N45316   6.927   6.396   5.279  0.0242  0.3668  0.2645
  329MOL0     C45317   7.777   5.886   5.829  0.5375  0.0975 -1.0263
  329MOL0     C45318   7.903   5.928   5.873  0.3466  0.2631  0.0252
  329MOL0     C45319   8.297   6.127   5.956  0.0084  0.5704 -0.4756
  329MOL0     C45320   8.381   6.088   6.056  0.2951 -0.7132  0.2223
  329MOL0     C45321   8.506   6.138   6.067  0.2755  0.3233 -0.1642
  329MOL0     C45322   8.558   6.246   5.996 -0.2660 -0.2029  0.2817
  329MOL0     O45323   8.681   6.295   6.014  0.0432  0.3324 -0.5206
  329MOL0     C45324   8.782   6.231   6.105  0.0772 -0.2616  0.0193
  329MOL0     C45325   8.923   6.279   6.073 -0.1031 -0.2631  0.7632
  329MOL0     C45326   9.019   6.215   6.172  0.0343  0.2397  0.4746
  329MOL0     C45327   9.151   6.276   6.161  0.4451 -0.3033  0.3019
  329MOL0     C45328   9.252   6.230   6.259  0.5930  1.1042  0.8074
  329MOL0     C45329   9.327   6.211   6.347 -0.4104  0.5474 -0.1697
  329MOL0     C45330   8.482   6.292   5.893  0.6274 -0.1719 -1.1806
  329MOL0     C45331   8.354   6.229   5.873  0.4758 -0.7534 -0.1076
  329MOL0     C45332   8.293   6.266   5.739  0.7778 -0.2560 -0.3198
  329MOL0     H45333   8.029   6.056   5.580 -1.1306  4.3220  0.5399
  329MOL0     H45334   7.808   5.957   5.508  1.4864 -0.6888 -0.3011
  329MOL0     H45335   7.586   5.785   5.476  0.2926  0.0830 -0.7307
  329MOL0     H45336   7.604   5.951   5.489  0.7771  0.7373  0.7832
  329MOL0     H45337   7.367   5.893   5.444  2.4793 -1.2671  0.4563
  329MOL0     H45338   7.368   5.796   5.591  1.1904 -0.7230 -0.2945
  329MOL0     H45339   7.394   6.003   5.729  0.3366 -1.1827 -0.1850
  329MOL0     H45340   7.404   6.090   5.571  1.8253 -1.6736 -2.8649
  329MOL0     H45341   7.162   6.022   5.525 -2.2723 -1.7540  0.4004
  329MOL0     H45342   7.160   5.909   5.655  0.8214 -0.4606 -1.3498
  329MOL0     H45343   7.208   6.200   5.738 -0.4924 -0.1925  0.6123
  329MOL0     H45344   7.125   6.083   5.830 -1.8463  2.9554  0.5722
  329MOL0     H45345   6.934   6.085   5.690 -0.7681 -0.7162 -4.2255
  329MOL0     H45346   6.972   6.256   5.749 -1.6360  0.2235 -3.2316
  329MOL0     H45347   7.030   6.144   5.463  1.1983 -0.8525  0.3998
  329MOL0     H45348   7.069   6.300   5.518 -1.7745  0.2505  0.1358
  329MOL0     H45349   6.793   6.165   5.505 -1.9679  2.4999  1.1645
  329MOL0     H45350   6.816   6.341   5.532 -0.9294  0.8533 -1.1388
  329MOL0     H45351   6.682   6.174   5.265  0.5239 -1.5257 -2.9422
  329MOL0     H45352   6.708   6.416   4.972  3.2507  0.0718 -0.6940
  329MOL0     H45353   6.598   6.296   5.052  0.4307  1.3268  2.3068
  329MOL0     H45354   6.782   6.133   4.971  2.0512  1.3098  0.5928
  329MOL0     H45355   6.674   6.214   4.845  0.0481  2.3347  0.7188
  329MOL0     H45356   6.880   6.382   4.829  1.9254  0.3840 -0.5729
  329MOL0     H45357   6.966   6.264   4.935 -0.3922 -0.7510  1.0780
  329MOL0     H45358   6.851   6.203   4.664 -0.3041 -1.2363  0.0738
  329MOL0     H45359   7.029   6.206   4.700  0.0125 -0.2710  0.0134
  329MOL0     H45360   6.933   5.973   5.019 -0.2500 -0.1148  0.8730
  329MOL0     H45361   7.008   5.902   5.211 -0.9613  2.1020 -4.3535
  329MOL0     H45362   7.177   5.971   5.238  1.8610 -2.0324  0.8192
  329MOL0     H45363   7.142   5.792   5.211  0.2341  0.6173  1.5407
  329MOL0     H45364   7.601   6.029   5.161  1.9784 -0.4911  1.3638
  329MOL0     H45365   7.822   6.001   5.259  2.7555  1.4670 -0.8674
  329MOL0     H45366   8.073   6.054   5.097 -1.1961 -1.4347  0.2377
  329MOL0     H45367   8.049   6.027   5.269 -1.3218 -0.2862  0.0718
  329MOL0     H45368   8.292   6.048   5.204 -0.6812  0.5715 -1.9812
  329MOL0     H45369   8.250   5.890   5.277 -1.5165  1.1565  0.8503
  329MOL0     H45370   8.249   5.933   4.980 -3.5422 -0.4240  1.1357
  329MOL0     H45371   8.253   5.773   5.071  1.6187 -0.4725 -0.9768
  329MOL0     H45372   8.474   5.964   5.101 -2.9963 -0.0073  1.6740
  329MOL0     H45373   8.459   5.853   4.959  0.1344 -0.8023 -0.3442
  329MOL0     H45374   8.493   5.798   5.267 -4.5367  1.3880 -1.1167
  329MOL0     H45375   8.444   5.669   5.142  1.0283 -1.3096 -1.3645
  329MOL0     H45376   8.694   5.841   5.130 -2.5442  2.2507 -1.0160
  329MOL0     H45377   8.644   5.725   5.003 -0.0632 -0.6862  0.7421
  329MOL0     H45378   8.683   5.536   5.160  1.7060 -0.7901 -0.4045
  329MOL0     H45379   8.721   5.645   5.298 -1.2300 -0.4663 -0.4042
  329MOL0     H45380   8.887   5.740   5.103  2.2626 -0.8543  0.5252
  329MOL0     H45381   8.856   5.578   5.037 -1.5628  2.2711 -2.2542
  329MOL0     H45382   7.907   5.723   4.948 -1.1633 -0.4585 -1.7321
  329MOL0     H45383   7.674   5.733   4.872  1.0441 -3.0937  2.0935
  329MOL0     H45384   7.333   5.936   4.763 -2.6676  1.1908 -2.6652
  329MOL0     H45385   7.141   5.999   4.658 -1.7401  4.2296  1.0915
  329MOL0     H45386   7.706   5.833   5.891  0.2395  1.4325 -0.1866
  329MOL0     H45387   7.931   5.917   5.977 -0.3196 -1.7384  0.0349
  329MOL0     H45388   8.345   6.004   6.115 -2.7446  0.3213  0.0551
  329MOL0     H45389   8.575   6.102   6.143  1.9084  2.9907 -0.2813
  329MOL0     H45390   8.757   6.254   6.209 -0.1217 -0.6274  0.0514
  329MOL0     H45391   8.772   6.123   6.097 -0.7248 -0.1340 -0.9950
  329MOL0     H45392   8.920   6.388   6.080 -2.1609 -0.2677  0.4102
  329MOL0     H45393   8.942   6.252   5.968 -2.5042  0.7480 -0.0021
  329MOL0     H45394   8.978   6.235   6.271 -0.3946  2.1825 -0.0571
  329MOL0     H45395   9.014   6.107   6.157 -1.5907  0.2253  0.9905
  329MOL0     H45396   9.136   6.383   6.176  1.2066 -0.0708 -0.5021
  329MOL0     H45397   9.200   6.258   6.064 -1.5766 -0.6413 -0.7114
  329MOL0     H45398   9.368   6.195   6.445  1.2528  2.0133 -0.5690
  329MOL0     H45399   8.513   6.379   5.835  1.6727  0.6042  0.4673
  329MOL0     H45400   8.340   6.357   5.700  1.6586 -1.4506 -2.1557
  329MOL0     H45401   8.309   6.187   5.666  0.0235 -0.3329 -0.4088
  329MOL0     H45402   8.184   6.272   5.745  0.7146 -1.8650  0.4986
  330MOL0     O45403   7.138   8.611   1.468 -0.0096 -0.1944  0.2754
  330MOL0     C45404   7.137   8.684   1.567  0.3354 -0.1809 -0.1149
  330MOL0     O45405   7.198   8.652   1.680  0.0767  0.1881 -0.2248
  330MOL0     C45406   7.258   8.528   1.698 -0.6233 -0.9840 -0.3041
  330MOL0     C45407   7.199   8.400   1.682  1.3647  0.0719 -0.3527
  330MOL0     C45408   7.253   8.282   1.726 -0.2107 -0.8138 -0.2395
  330MOL0     C45409   7.389   8.279   1.775 -0.6129 -0.1950 -0.2776
  330MOL0     O45410   7.434   8.163   1.836 -0.0266  0.3768  0.4689
  330MOL0     C45411   7.582   8.146   1.832 -0.7359 -0.1686 -0.1688
  330MOL0     C45412   7.608   7.999   1.856  0.5142  0.7202 -0.3865
  330MOL0     C45413   7.740   7.974   1.922 -0.4697  0.1376  0.0135
  330MOL0     C45414   7.720   7.972   2.074  0.8986  0.0420 -0.0474
  330MOL0     C45415   7.852   8.005   2.152  0.1075  0.4630  0.3395
  330MOL0     C45416   7.963   7.902   2.140  0.2583  0.0847 -0.3402
  330MOL0     C45417   8.074   7.925   2.240 -0.8187  0.0993 -0.3155
  330MOL0     C45418   8.034   7.902   2.381 -0.1893  0.5360 -0.3141
  330MOL0     N45419   8.150   7.905   2.471  0.4247 -0.0550 -0.0874
  330MOL0     C45420   8.147   7.882   2.604 -0.2965  0.7009  0.4712
  330MOL0     C45421   8.269   7.914   2.648  0.2173  0.7212  0.3330
  330MOL0     C45422   8.332   7.883   2.778 -0.7221  0.5419 -0.3126
  330MOL0     C45423   8.486   7.891   2.775  0.1680  1.1735  0.1602
  330MOL0     C45424   8.524   7.845   2.912 -0.5867 -0.2912  0.0982
  330MOL0     C45425   8.672   7.876   2.938  0.3328  0.0380  0.8913
  330MOL0     O45426   8.694   8.018   2.947 -0.0967 -0.4200 -0.6223
  330MOL0     C45427   8.810   8.055   2.896 -0.6730  0.6898  0.5832
  330MOL0     C45428   8.836   8.039   2.763  0.6001 -0.4952 -0.0083
  330MOL0     C45429   8.950   8.084   2.711 -0.6968 -0.1031 -0.8118
  330MOL0     C45430   8.952   8.111   2.563 -0.0435 -1.5164  0.4010
  330MOL0     C45431   9.057   8.130   2.787 -0.1547  0.0045 -0.8982
  330MOL0     C45432   9.195   8.159   2.731  0.4824  0.4681  0.1524
  330MOL0     O45433   9.223   8.139   2.602 -0.0974 -0.5476 -0.1143
  330MOL0     C45434   9.347   8.157   2.540  0.4692  0.3180 -0.5060
  330MOL0     C45435   9.463   8.215   2.595 -0.4466 -0.8434  0.9707
  330MOL0     C45436   9.578   8.245   2.511  0.3117 -1.2354 -1.1167
  330MOL0     C45437   9.578   8.194   2.385 -0.5214  0.4541 -0.5571
  330MOL0     O45438   9.690   8.217   2.308 -0.2000  0.0584  0.2298
  330MOL0     C45439   9.817   8.191   2.365 -0.1904 -1.5548  0.6724
  330MOL0     C45440   9.926   8.207   2.258  0.1494  0.4025  0.2637
  330MOL0     C45441  10.061   8.176   2.317  0.5100 -0.0604  0.7944
  330MOL0     C45442  10.151   8.131   2.198  0.8002 -0.0998  0.4936
  330MOL0     C45443  10.297   8.091   2.221  0.0831 -0.1487 -1.0138
  330MOL0     C45444  10.308   7.950   2.286 -0.0643 -0.0927 -0.7639
  330MOL0     C45445  10.449   7.920   2.334  0.3595  0.3877 -0.7306
  330MOL0     C45446  10.458   7.832   2.457  0.2073 -0.6591 -0.0304
  330MOL0    Cl45447  10.380   7.911   2.598 -0.0728 -0.1053 -0.2751
  330MOL0     C45448   9.479   8.119   2.337 -0.1030  0.5862  0.7094
  330MOL0     C45449   9.360   8.107   2.411  0.7012  0.4956 -0.3686
  330MOL0     O45450   9.271   8.205   2.815  0.6931 -0.2273  0.0005
  330MOL0     C45451   9.044   8.123   2.931  0.3387  0.0867 -0.0716
  330MOL0     C45452   8.918   8.092   2.978  0.0462 -0.4809 -0.7478
  330MOL0     N45453   8.341   7.961   2.535 -0.9466  0.6860 -0.2466
  330MOL0     N45454   8.271   7.949   2.427  0.7309  0.5009 -0.0916
  330MOL0     C45455   7.458   8.405   1.782 -0.3424  0.1579  0.0353
  330MOL0     C45456   7.392   8.521   1.749 -0.3238 -0.4375  0.0216
  330MOL0     C45457   7.060   8.809   1.580 -1.0097  0.2250 -0.0765
  330MOL0     C45458   7.059   8.882   1.701 -0.5131  0.7804  0.6266
  330MOL0     C45459   6.995   9.004   1.710  0.3216  0.3274 -0.6040
  330MOL0     C45460   6.934   9.060   1.601 -0.0799  0.9273 -0.3836
  330MOL0     O45461   6.874   9.182   1.619  0.2581 -0.3916  0.4202
  330MOL0     C45462   6.883   9.292   1.523 -0.2422  0.0322  0.4491
  330MOL0     C45463   6.987   9.390   1.580  0.1355  0.1475  0.4569
  330MOL0     C45464   7.040   9.489   1.475 -0.2884 -1.0569  1.6074
  330MOL0     C45465   7.175   9.543   1.526 -0.1086 -0.5032  0.1416
  330MOL0     C45466   7.227   9.665   1.459 -0.3207  0.6499 -0.7504
  330MOL0     C45467   7.277   9.745   1.391  0.2562 -1.0622 -0.0409
  330MOL0     C45468   6.931   8.995   1.482 -0.3437  0.5467  0.6433
  330MOL0     C45469   6.990   8.870   1.465 -0.3105  1.0881  0.2453
  330MOL0     C45470   6.972   8.801   1.336 -0.3845 -0.1176 -0.1180
  330MOL0     H45471   7.097   8.396   1.643  1.4469  0.2328 -0.5831
  330MOL0     H45472   7.201   8.187   1.729 -0.3080 -0.7309  2.0329
  330MOL0     H45473   7.623   8.212   1.909 -0.1548 -1.7008  0.8827
  330MOL0     H45474   7.626   8.175   1.736 -1.2951  0.6328 -0.1905
  330MOL0     H45475   7.532   7.942   1.911  0.0585 -0.3277 -1.9997
  330MOL0     H45476   7.609   7.953   1.756  1.3843  0.5118 -0.2902
  330MOL0     H45477   7.790   7.886   1.882  1.5200  1.4765 -0.5614
  330MOL0     H45478   7.802   8.063   1.907  0.9787 -0.5259  1.6836
  330MOL0     H45479   7.641   8.045   2.098  0.9257 -0.2281  0.8981
  330MOL0     H45480   7.683   7.877   2.112  0.0599  0.1046 -0.6865
  330MOL0     H45481   7.829   8.028   2.256  1.8030 -4.6572  2.1290
  330MOL0     H45482   7.894   8.092   2.101 -0.5564 -0.6807 -2.3634
  330MOL0     H45483   7.929   7.799   2.156  0.5970 -0.6972 -3.9585
  330MOL0     H45484   7.999   7.912   2.037 -1.1308  3.2214 -0.6080
  330MOL0     H45485   8.112   8.027   2.246 -1.1098  0.1626  0.5645
  330MOL0     H45486   8.160   7.858   2.228 -0.5272 -0.3074  2.9309
  330MOL0     H45487   7.958   7.968   2.422  0.6609  0.0441  2.2608
  330MOL0     H45488   7.991   7.801   2.383 -1.2820  0.8978 -2.7104
  330MOL0     H45489   8.079   7.833   2.673  2.1323 -0.1799  2.3832
  330MOL0     H45490   8.305   7.783   2.814  2.7414 -0.3510  0.1106
  330MOL0     H45491   8.295   7.948   2.859 -0.6160  0.9585 -0.5938
  330MOL0     H45492   8.528   7.820   2.703 -1.1411  1.7405 -1.2332
  330MOL0     H45493   8.518   7.993   2.750 -0.2453  1.4393  0.6969
  330MOL0     H45494   8.470   7.897   2.991 -0.3974  0.5273 -0.2932
  330MOL0     H45495   8.507   7.738   2.926  2.4772 -0.8375  0.3114
  330MOL0     H45496   8.692   7.822   3.031 -0.9902 -1.4586  0.3473
  330MOL0     H45497   8.720   7.829   2.853 -2.4757 -1.8539  0.2152
  330MOL0     H45498   8.755   8.007   2.698  0.1072  1.0212 -0.1950
  330MOL0     H45499   8.855   8.111   2.514  0.5336  1.7435 -0.9915
  330MOL0     H45500   9.024   8.045   2.512  1.6529  0.8900 -0.4903
  330MOL0     H45501   8.980   8.215   2.547 -0.8601 -1.4035 -0.3215
  330MOL0     H45502   9.456   8.246   2.699  1.2780  1.5173  0.4653
  330MOL0     H45503   9.657   8.302   2.559  0.0484 -1.9767  0.2403
  330MOL0     H45504   9.841   8.257   2.448  1.7236 -1.3305  0.0047
  330MOL0     H45505   9.811   8.087   2.398  0.2514 -1.3724  1.3469
  330MOL0     H45506   9.917   8.147   2.167  3.9140 -1.6530  1.0538
  330MOL0     H45507   9.930   8.309   2.219  0.1205 -0.1240 -1.1524
  330MOL0     H45508  10.058   8.083   2.375  3.1353 -1.2669 -0.8173
  330MOL0     H45509  10.094   8.263   2.375 -1.7889  0.7555  0.9607
  330MOL0     H45510  10.149   8.216   2.129 -1.7461 -0.4915 -0.0076
  330MOL0     H45511  10.108   8.055   2.133  1.8669  1.6750 -2.4866
  330MOL0     H45512  10.344   8.087   2.122  0.2140 -2.8710 -0.9129
  330MOL0     H45513  10.350   8.169   2.277  2.5861 -0.7426 -2.4080
  330MOL0     H45514  10.276   7.875   2.212 -3.4234  1.1116 -0.7346
  330MOL0     H45515  10.244   7.940   2.374  1.8577 -0.7740  0.6042
  330MOL0     H45516  10.492   8.020   2.346 -0.6234  1.2476 -3.6425
  330MOL0     H45517  10.512   7.882   2.253 -0.7436 -1.3925 -0.7945
  330MOL0     H45518  10.567   7.829   2.474  0.4612 -0.2531 -1.4867
  330MOL0     H45519  10.408   7.741   2.423 -2.1717 -0.0654  1.6241
  330MOL0     H45520   9.486   8.092   2.232 -0.5177  0.7159  0.6464
  330MOL0     H45521   9.276   8.049   2.374  2.0672 -1.1936 -0.9328
  330MOL0     H45522   9.132   8.138   2.994 -0.9759 -0.0193  1.8633
  330MOL0     H45523   8.895   8.102   3.083  0.5414  0.3428 -0.7102
  330MOL0     H45524   7.558   8.400   1.824 -1.2845 -1.0356  2.3154
  330MOL0     H45525   7.464   8.598   1.773 -0.1520 -0.6725  0.2684
  330MOL0     H45526   7.116   8.854   1.789 -1.9194  0.0593  1.3413
  330MOL0     H45527   7.000   9.054   1.806 -2.3801  1.0548 -0.7280
  330MOL0     H45528   6.921   9.255   1.427  0.8339  0.8834  0.5168
  330MOL0     H45529   6.783   9.329   1.502  0.2878  1.8573  0.9912
  330MOL0     H45530   7.071   9.322   1.598 -1.0283 -1.2219  0.8776
  330MOL0     H45531   6.946   9.433   1.672  1.5918 -2.0337  2.2301
  330MOL0     H45532   7.053   9.429   1.384 -1.2563 -0.8055  1.2889
  330MOL0     H45533   6.976   9.572   1.443  1.5358 -1.0723 -2.8274
  330MOL0     H45534   7.250   9.465   1.512  0.3376 -0.2743  1.1089
  330MOL0     H45535   7.168   9.564   1.634  0.1510 -1.3849  0.3338
  330MOL0     H45536   7.323   9.799   1.310  0.0260  1.9004  1.6720
  330MOL0     H45537   6.883   9.033   1.392 -0.5140 -0.6299  0.2213
  330MOL0     H45538   6.940   8.866   1.253 -0.0762 -0.7389 -0.7349
  330MOL0     H45539   7.066   8.760   1.300  1.2225  1.6339  1.8443
  330MOL0     H45540   6.896   8.722   1.338 -0.3525 -0.4112 -3.8323
  331MOL0     O45541   9.369   4.687   4.641  0.3468  0.0092  0.2193
  331MOL0     C45542   9.315   4.582   4.658 -0.1981 -0.0964 -0.3082
  331MOL0     O45543   9.379   4.477   4.710 -0.0121  0.1380  0.3653
  331MOL0     C45544   9.512   4.474   4.722 -0.2148 -0.3744 -0.4994
  331MOL0     C45545   9.602   4.524   4.620 -0.1681 -0.0005 -0.0818
  331MOL0     C45546   9.743   4.517   4.641 -0.1012 -0.0612 -0.0809
  331MOL0     C45547   9.793   4.473   4.766 -0.2795 -0.4844  0.5886
  331MOL0     O45548   9.925   4.482   4.812 -0.2073  0.0910 -0.2951
  331MOL0     C45549  10.021   4.558   4.722  0.9920 -0.6090  0.2420
  331MOL0     C45550  10.140   4.577   4.818 -0.5931 -0.1307 -0.6135
  331MOL0     C45551  10.269   4.614   4.730  0.0667  0.3396 -0.5505
  331MOL0     C45552  10.405   4.604   4.812  2.0826  0.6253  0.8745
  331MOL0     C45553  10.521   4.679   4.736 -0.2903 -0.8421  0.5921
  331MOL0     C45554  10.661   4.623   4.771 -0.0522  0.0310  0.0784
  331MOL0     C45555  10.782   4.680   4.694 -1.3166  0.4445  0.1511
  331MOL0     C45556  10.801   4.832   4.718  0.2720 -0.0507  0.2012
  331MOL0     N45557  10.934   4.861   4.662  0.0924  0.2295  0.7592
  331MOL0     C45558  11.045   4.906   4.728 -0.3778 -0.0900 -0.3865
  331MOL0     C45559  11.132   4.938   4.631  0.7859  0.0184  0.2905
  331MOL0     C45560  11.256   5.007   4.634 -0.3674 -0.5995 -1.1607
  331MOL0     C45561  11.368   4.911   4.688 -0.2269 -0.2810 -0.0431
  331MOL0     C45562  11.422   4.810   4.580  0.7326 -0.7799  0.3361
  331MOL0     C45563  11.569   4.845   4.538  0.4748  0.2867 -1.4688
  331MOL0     O45564  11.607   4.744   4.452 -0.4358  0.8904  0.1093
  331MOL0     C45565  11.734   4.747   4.397 -0.2474  0.0862  0.0560
  331MOL0     C45566  11.832   4.850   4.414  0.0981 -0.5595  0.0464
  331MOL0     C45567  11.957   4.841   4.355 -0.0262 -0.1855  0.2424
  331MOL0     C45568  12.025   4.976   4.362  0.4524 -0.5367 -0.1061
  331MOL0     C45569  11.998   4.734   4.280  0.7107  0.1566  0.1773
  331MOL0     C45570  12.140   4.720   4.223  0.4327 -1.2829 -1.2051
  331MOL0     O45571  12.164   4.647   4.114  0.7930  0.4527 -0.3025
  331MOL0     C45572  12.300   4.623   4.075  1.0767  0.4212  0.7551
  331MOL0     C45573  12.357   4.500   4.101 -0.2565 -0.3193 -0.4657
  331MOL0     C45574  12.499   4.483   4.077  0.7609  0.1130  0.2332
  331MOL0     C45575  12.571   4.593   4.013  0.5059 -0.3912  0.0358
  331MOL0     O45576  12.707   4.582   3.998 -0.0858  0.6030  0.0843
  331MOL0     C45577  12.780   4.471   4.061  0.5669  0.0009 -0.7655
  331MOL0     C45578  12.938   4.496   4.059 -0.2280 -0.1088  0.6047
  331MOL0     C45579  13.019   4.372   4.083  0.7190 -0.1532 -0.7413
  331MOL0     C45580  13.159   4.416   4.102  0.1478 -0.1806 -0.8655
  331MOL0     C45581  13.252   4.303   4.080 -0.0769 -0.4219 -0.7121
  331MOL0     C45582  13.401   4.349   4.058 -0.1402 -0.6198 -0.0449
  331MOL0     C45583  13.486   4.225   4.040 -0.1776 -0.1753 -0.3690
  331MOL0     C45584  13.573   4.192   4.156 -0.5513  0.5519  0.3347
  331MOL0    Cl45585  13.477   4.139   4.299 -0.0133 -0.4621 -0.3735
  331MOL0     C45586  12.506   4.718   3.987  0.7114 -1.3201 -0.2955
  331MOL0     C45587  12.369   4.733   4.015 -0.2858  0.5136 -1.0058
  331MOL0     O45588  12.224   4.780   4.297  0.4787  0.3247  0.0966
  331MOL0     C45589  11.902   4.630   4.261 -0.0939 -0.6725 -0.5687
  331MOL0     C45590  11.770   4.642   4.306 -0.2236  0.0802 -0.3341
  331MOL0     N45591  11.082   4.891   4.513  0.3101  0.2940 -0.4218
  331MOL0     N45592  10.962   4.857   4.529 -0.3926  0.8370 -0.1084
  331MOL0     C45593   9.693   4.431   4.866  0.0531  0.8736 -0.6580
  331MOL0     C45594   9.559   4.432   4.846  0.5828 -1.3969  0.3369
  331MOL0     C45595   9.174   4.558   4.601  0.5419  0.9584  0.7373
  331MOL0     C45596   9.114   4.426   4.623 -0.1076 -0.0309  0.4706
  331MOL0     C45597   8.992   4.396   4.569  0.1503 -0.6678  0.0331
  331MOL0     C45598   8.927   4.486   4.481  0.2592 -0.5308  0.0992
  331MOL0     O45599   8.810   4.447   4.418 -0.8796 -0.7259  0.4724
  331MOL0     C45600   8.725   4.348   4.477  0.5176  0.0558  0.4989
  331MOL0     C45601   8.578   4.360   4.421 -0.6579 -0.2255  0.3691
  331MOL0     C45602   8.497   4.226   4.449  0.1930  0.1710  0.4517
  331MOL0     C45603   8.354   4.255   4.404  0.6284  0.0874  0.0953
  331MOL0     C45604   8.270   4.144   4.424  0.6332 -0.1771 -0.0398
  331MOL0     C45605   8.212   4.037   4.447  0.0890 -0.5004  0.8500
  331MOL0     C45606   8.980   4.614   4.464  0.3002  1.0638  0.5011
  331MOL0     C45607   9.101   4.652   4.525 -0.8566 -0.0856  0.7892
  331MOL0     C45608   9.138   4.798   4.521  0.6928  0.2826 -0.4152
  331MOL0     H45609   9.559   4.554   4.525 -2.4445 -0.3715  0.7495
  331MOL0     H45610   9.794   4.562   4.557  0.1100 -1.1937 -0.5887
  331MOL0     H45611   9.997   4.654   4.675  0.4114 -0.9591 -0.1816
  331MOL0     H45612  10.042   4.488   4.641 -4.2776 -1.2674 -0.8656
  331MOL0     H45613  10.124   4.658   4.890 -2.3290 -2.3329  1.6132
  331MOL0     H45614  10.154   4.485   4.874 -1.9529  0.3293  0.5322
  331MOL0     H45615  10.269   4.558   4.636 -1.9232  1.6952 -1.4452
  331MOL0     H45616  10.249   4.718   4.702 -1.1018  0.2471 -0.1384
  331MOL0     H45617  10.392   4.660   4.905 -0.3318 -0.1009  1.0257
  331MOL0     H45618  10.436   4.501   4.831  1.2463 -0.0005 -0.9045
  331MOL0     H45619  10.525   4.786   4.757  2.6661 -0.9113  0.7765
  331MOL0     H45620  10.500   4.666   4.630 -1.9802 -0.4223  0.8430
  331MOL0     H45621  10.677   4.646   4.877 -0.5015 -2.1806  0.6820
  331MOL0     H45622  10.649   4.515   4.760  0.8054 -0.2580  1.6700
  331MOL0     H45623  10.764   4.672   4.586  0.9146  0.2577 -0.2490
  331MOL0     H45624  10.882   4.641   4.717  0.5033  3.8068 -1.2641
  331MOL0     H45625  10.731   4.895   4.663  2.5477 -0.3302 -3.2906
  331MOL0     H45626  10.805   4.854   4.825  1.3886 -0.1869  0.1958
  331MOL0     H45627  11.049   4.930   4.834  0.1274  0.5609 -0.5496
  331MOL0     H45628  11.242   5.088   4.706 -2.5500  0.6418 -2.8489
  331MOL0     H45629  11.276   5.046   4.533 -0.3746  0.1733 -0.8674
  331MOL0     H45630  11.445   4.972   4.735 -0.1590  1.0226 -1.7679
  331MOL0     H45631  11.340   4.858   4.779 -0.6120 -0.2348 -0.1320
  331MOL0     H45632  11.411   4.711   4.625 -0.0861 -0.2499  1.3471
  331MOL0     H45633  11.356   4.810   4.493 -0.1571 -2.0391  0.9807
  331MOL0     H45634  11.582   4.944   4.492  0.5571  0.8017 -0.3644
  331MOL0     H45635  11.632   4.838   4.626 -0.3371  0.4814 -0.8639
  331MOL0     H45636  11.802   4.942   4.464 -0.3245  0.0390 -1.2796
  331MOL0     H45637  12.088   4.971   4.451  1.2575 -0.6770 -0.6797
  331MOL0     H45638  11.954   5.059   4.364 -1.4859 -2.1299  0.1768
  331MOL0     H45639  12.089   4.992   4.275 -0.1536 -2.5681 -0.9676
  331MOL0     H45640  12.300   4.419   4.147  0.3214 -1.7506 -2.1447
  331MOL0     H45641  12.545   4.387   4.100  1.0338  0.2756  0.3732
  331MOL0     H45642  12.745   4.461   4.164  0.8667 -0.3275 -0.6930
  331MOL0     H45643  12.753   4.374   4.019 -2.0136  0.1035  0.4420
  331MOL0     H45644  12.970   4.545   3.967 -3.1273  0.8101 -0.0232
  331MOL0     H45645  12.957   4.566   4.141  1.3295 -2.4893  2.4236
  331MOL0     H45646  12.999   4.315   3.992 -0.3557 -3.4067  1.3793
  331MOL0     H45647  12.988   4.318   4.173  3.4114  0.8284  0.9224
  331MOL0     H45648  13.171   4.456   4.203 -0.5769 -3.5851  0.7088
  331MOL0     H45649  13.187   4.497   4.035 -2.4988 -0.4731 -2.4382
  331MOL0     H45650  13.255   4.238   4.167  3.1484  0.0421 -0.3417
  331MOL0     H45651  13.207   4.250   3.995  0.3487  0.3100 -1.4163
  331MOL0     H45652  13.439   4.405   4.144  0.2407 -1.4660  0.3429
  331MOL0     H45653  13.412   4.413   3.970  2.4880  0.0701  0.7026
  331MOL0     H45654  13.550   4.233   3.951  1.9231 -0.9826  1.0055
  331MOL0     H45655  13.420   4.137   4.033 -3.2652  2.0006 -0.5340
  331MOL0     H45656  13.630   4.283   4.175 -0.0900 -0.0846  2.2030
  331MOL0     H45657  13.640   4.108   4.134 -0.3924  0.3458  1.5634
  331MOL0     H45658  12.572   4.793   3.944  1.0990 -2.4066 -1.6634
  331MOL0     H45659  12.313   4.825   3.997  0.7410  1.9406  2.2822
  331MOL0     H45660  11.928   4.545   4.198 -1.1850 -1.1845 -0.3676
  331MOL0     H45661  11.708   4.554   4.294  0.5689 -0.9818  2.5060
  331MOL0     H45662   9.718   4.402   4.967 -1.2680 -1.5512 -0.9559
  331MOL0     H45663   9.489   4.397   4.921  0.5776  2.6650  2.5346
  331MOL0     H45664   9.165   4.346   4.676 -2.4373 -2.4024 -0.6511
  331MOL0     H45665   8.947   4.300   4.590  2.0802 -0.9656  3.4559
  331MOL0     H45666   8.761   4.247   4.455 -1.5588 -0.6700  0.2858
  331MOL0     H45667   8.710   4.352   4.586 -2.7501 -1.1142  0.1817
  331MOL0     H45668   8.593   4.389   4.317  0.6012  2.6679  1.2513
  331MOL0     H45669   8.520   4.444   4.462  0.4412  1.6378 -1.6772
  331MOL0     H45670   8.539   4.147   4.386  0.1241 -1.2467  2.0902
  331MOL0     H45671   8.505   4.203   4.556  0.7639  1.3835  0.6817
  331MOL0     H45672   8.353   4.290   4.300 -1.0072 -2.4905 -0.8381
  331MOL0     H45673   8.319   4.339   4.465 -2.4379 -0.4188 -0.7639
  331MOL0     H45674   8.154   3.956   4.485  1.1241 -1.6894 -0.0249
  331MOL0     H45675   8.909   4.683   4.422 -1.6629 -0.4649  1.1508
  331MOL0     H45676   9.057   4.849   4.469 -0.7749 -0.2257  1.2728
  331MOL0     H45677   9.145   4.841   4.621 -0.3228 -1.3465  0.3842
  331MOL0     H45678   9.239   4.819   4.484  1.7456  1.9364  2.9772
  332MOL0     O45679   5.471   7.399   6.147  0.9346 -0.1581  0.6015
  332MOL0     C45680   5.418   7.505   6.112  0.0861  0.0112 -0.3625
  332MOL0     O45681   5.482   7.615   6.061 -0.1152  0.1690 -0.2026
  332MOL0     C45682   5.602   7.601   6.001  0.2681  0.1025 -0.2380
  332MOL0     C45683   5.725   7.667   6.051  0.6241 -0.1100 -0.2119
  332MOL0     C45684   5.853   7.650   5.993 -0.7441 -0.1471 -0.9751
  332MOL0     C45685   5.862   7.559   5.888 -0.2135 -0.6252 -1.3095
  332MOL0     O45686   5.981   7.535   5.822 -0.0751 -0.0539  0.5266
  332MOL0     C45687   6.095   7.504   5.912  0.1388 -0.5756 -0.3373
  332MOL0     C45688   6.215   7.547   5.839 -0.0143 -0.4949 -0.1572
  332MOL0     C45689   6.337   7.550   5.937 -0.6122 -0.6986  0.0294
  332MOL0     C45690   6.471   7.565   5.865  0.5285  0.5111 -0.9762
  332MOL0     C45691   6.573   7.627   5.951 -0.5126 -1.7101 -1.2150
  332MOL0     C45692   6.645   7.522   6.039 -0.1622 -0.2704 -0.3284
  332MOL0     C45693   6.774   7.476   5.968  0.2931  0.2088  0.0797
  332MOL0     C45694   6.811   7.344   6.025 -0.3966 -0.1553  0.0117
  332MOL0     N45695   6.836   7.333   6.167 -0.0651 -0.6832  0.0197
  332MOL0     C45696   6.927   7.421   6.225  0.5602  0.1489 -0.3619
  332MOL0     C45697   6.890   7.423   6.359  0.4734 -0.7208  0.2690
  332MOL0     C45698   6.949   7.503   6.470 -0.7035  0.3493 -0.4305
  332MOL0     C45699   7.044   7.419   6.557 -0.6400  0.1652  0.2993
  332MOL0     C45700   7.089   7.480   6.687  0.0345 -0.4622  0.6146
  332MOL0     C45701   7.200   7.408   6.761 -0.4255  0.6033  0.4028
  332MOL0     O45702   7.257   7.502   6.846 -0.2168 -0.3353 -1.0354
  332MOL0     C45703   7.385   7.477   6.901  0.3529  0.6580  0.0559
  332MOL0     C45704   7.424   7.376   6.987  0.0029  0.9769  1.0879
  332MOL0     C45705   7.554   7.379   7.041 -0.6425  0.1688  0.8435
  332MOL0     C45706   7.588   7.272   7.138  0.7773  0.4288  0.8493
  332MOL0     C45707   7.648   7.481   7.013  0.6737 -0.2305  0.2868
  332MOL0     C45708   7.790   7.496   7.057  0.5672 -0.1582 -1.6074
  332MOL0     O45709   7.867   7.595   6.992  0.0939 -0.8083  0.0502
  332MOL0     C45710   8.006   7.590   6.991  0.1306 -0.0196  0.5479
  332MOL0     C45711   8.079   7.645   7.097 -0.1888 -0.8173 -0.8957
  332MOL0     C45712   8.216   7.666   7.072 -0.6280 -0.2081 -0.3852
  332MOL0     C45713   8.278   7.638   6.956 -0.1328  0.3077 -0.0252
  332MOL0     O45714   8.416   7.666   6.948 -0.4307  0.0941 -0.1055
  332MOL0     C45715   8.514   7.569   6.910 -0.1504 -0.2469 -0.1891
  332MOL0     C45716   8.651   7.640   6.913  0.0235 -1.4942  0.4633
  332MOL0     C45717   8.777   7.558   6.914 -0.3237  0.1337  0.5271
  332MOL0     C45718   8.891   7.646   6.913 -0.8729 -0.0018  0.3078
  332MOL0     C45719   9.030   7.584   6.888  1.2166 -0.4976  0.4706
  332MOL0     C45720   9.082   7.534   7.021 -1.0922  0.4021  0.3259
  332MOL0     C45721   9.234   7.551   7.028 -0.3763 -1.2033 -0.5092
  332MOL0     C45722   9.311   7.490   6.907 -0.2039  0.8386  0.0230
  332MOL0    Cl45723   9.291   7.312   6.904 -0.6473 -0.1101  0.3170
  332MOL0     C45724   8.210   7.569   6.857 -0.3053  0.2940 -0.0290
  332MOL0     C45725   8.074   7.549   6.875 -0.4545  0.4435 -0.3346
  332MOL0     O45726   7.831   7.432   7.155  0.0142  0.6072  0.9020
  332MOL0     C45727   7.604   7.578   6.923  0.4716  0.4832 -0.1487
  332MOL0     C45728   7.478   7.575   6.871  0.2599 -0.5552  0.4045
  332MOL0     N45729   6.775   7.356   6.368  0.8895  0.0050 -0.3500
  332MOL0     N45730   6.748   7.290   6.257 -0.0099 -0.0292 -1.2488
  332MOL0     C45731   5.746   7.500   5.840 -0.4681  0.1953 -0.4047
  332MOL0     C45732   5.619   7.512   5.895 -0.5657 -0.7959 -0.1214
  332MOL0     C45733   5.270   7.525   6.108 -0.7665  0.2947  0.4894
  332MOL0     C45734   5.185   7.415   6.139  0.0456  0.2251 -0.0536
  332MOL0     C45735   5.045   7.411   6.119  0.9477  0.3911 -0.8207
  332MOL0     C45736   4.976   7.529   6.083 -0.1240  0.3829 -0.3488
  332MOL0     O45737   4.839   7.531   6.080 -0.3202  0.0114 -0.4697
  332MOL0     C45738   4.786   7.657   6.134  0.8578  0.4446  0.4344
  332MOL0     C45739   4.685   7.613   6.241 -0.0429  0.3883 -0.1977
  332MOL0     C45740   4.543   7.586   6.177 -0.9029 -0.7064 -0.7600
  332MOL0     C45741   4.535   7.436   6.125  0.0791 -0.6705  0.8755
  332MOL0     C45742   4.398   7.387   6.128  0.2992  0.4599  0.0881
  332MOL0     C45743   4.279   7.353   6.137 -0.7720 -0.7304  0.3396
  332MOL0     C45744   5.059   7.636   6.068 -0.4012 -0.0942 -0.6445
  332MOL0     C45745   5.201   7.644   6.071  0.0824  0.4996 -0.3971
  332MOL0     C45746   5.258   7.785   6.044 -0.0749 -0.4088 -1.0527
  332MOL0     H45747   5.711   7.748   6.123  1.2838  0.0156 -0.2190
  332MOL0     H45748   5.929   7.723   6.019 -2.5129  1.0712  1.1000
  332MOL0     H45749   6.098   7.395   5.920 -0.3437 -0.7764 -2.3890
  332MOL0     H45750   6.082   7.553   6.008  0.4165  0.2632 -0.7193
  332MOL0     H45751   6.229   7.486   5.749  0.3707  1.9846 -1.8705
  332MOL0     H45752   6.192   7.643   5.792 -2.7446 -0.2939  1.3980
  332MOL0     H45753   6.326   7.633   6.007  0.3255  0.4560 -1.1522
  332MOL0     H45754   6.344   7.452   5.986  0.4227 -1.3864 -1.4311
  332MOL0     H45755   6.505   7.471   5.821 -1.3039  0.5454 -2.5584
  332MOL0     H45756   6.453   7.637   5.785  2.7329 -0.0522 -2.0551
  332MOL0     H45757   6.530   7.706   6.013  2.2179 -1.9657  1.1971
  332MOL0     H45758   6.646   7.684   5.893  0.0937 -3.4996 -2.3060
  332MOL0     H45759   6.677   7.568   6.133  3.1989  1.7415 -2.2748
  332MOL0     H45760   6.575   7.441   6.061 -0.9837  0.4271 -0.3165
  332MOL0     H45761   6.852   7.550   5.985 -1.7836  2.2615  1.3604
  332MOL0     H45762   6.760   7.454   5.862 -3.8726 -0.7942  0.6670
  332MOL0     H45763   6.729   7.275   6.004 -0.1662 -0.7312  0.9515
  332MOL0     H45764   6.906   7.311   5.984  0.8312  4.8841 -1.8945
  332MOL0     H45765   7.009   7.475   6.179 -0.6916  1.9292 -0.5613
  332MOL0     H45766   6.871   7.544   6.535  1.1816  0.9895  1.5655
  332MOL0     H45767   6.998   7.594   6.434 -0.9248 -0.0861 -1.8773
  332MOL0     H45768   6.999   7.320   6.571 -2.3699  1.1929  2.4129
  332MOL0     H45769   7.135   7.420   6.495  0.0732 -1.5722  1.2277
  332MOL0     H45770   7.133   7.578   6.664 -0.5040 -0.3802 -0.1029
  332MOL0     H45771   7.007   7.504   6.756 -0.4295 -0.7924  0.1818
  332MOL0     H45772   7.168   7.326   6.825  0.3917  0.0639  0.1368
  332MOL0     H45773   7.278   7.381   6.690  1.9348  1.4744  2.4911
  332MOL0     H45774   7.345   7.302   6.999  0.2952  0.1151 -1.4895
  332MOL0     H45775   7.490   7.242   7.178  1.2415 -0.2159  1.5488
  332MOL0     H45776   7.645   7.303   7.226 -1.1910  0.8478  2.0437
  332MOL0     H45777   7.643   7.184   7.103  0.7399  0.8076 -0.1893
  332MOL0     H45778   8.036   7.704   7.177  2.0840  2.8606 -2.1171
  332MOL0     H45779   8.257   7.727   7.152  1.4601 -1.4024 -0.4829
  332MOL0     H45780   8.505   7.490   6.986 -0.1895 -1.4284 -1.3834
  332MOL0     H45781   8.487   7.531   6.811 -2.9440 -0.7217  0.6731
  332MOL0     H45782   8.650   7.708   6.828 -1.5940  1.3749  2.5994
  332MOL0     H45783   8.659   7.703   7.002 -0.0293  1.4493 -1.4833
  332MOL0     H45784   8.786   7.498   6.823  2.9534  0.3679  0.5661
  332MOL0     H45785   8.783   7.496   7.005  0.8565 -0.9666 -0.2733
  332MOL0     H45786   8.892   7.691   7.013  0.5814 -0.5585  0.5628
  332MOL0     H45787   8.863   7.724   6.841 -0.2693  0.6345  0.7415
  332MOL0     H45788   9.028   7.510   6.808  0.8659 -0.0534  0.0657
  332MOL0     H45789   9.100   7.660   6.853  0.3209  1.4601  2.6924
  332MOL0     H45790   9.060   7.427   7.029 -2.4521  0.4708 -1.7288
  332MOL0     H45791   9.042   7.583   7.110 -2.3541 -1.8579  1.1139
  332MOL0     H45792   9.270   7.499   7.117 -0.1514 -2.2517 -1.1860
  332MOL0     H45793   9.252   7.658   7.042 -3.2191 -0.4382 -1.8835
  332MOL0     H45794   9.419   7.507   6.904  0.2214 -1.2190  1.4993
  332MOL0     H45795   9.273   7.538   6.817 -0.2944  0.4654 -0.1407
  332MOL0     H45796   8.253   7.551   6.759  1.0227  3.1826 -0.0871
  332MOL0     H45797   8.006   7.498   6.807  0.0376  0.5000 -0.8761
  332MOL0     H45798   7.652   7.673   6.903 -0.1311  1.5267  2.8597
  332MOL0     H45799   7.439   7.665   6.825 -3.4064  0.2037  4.3477
  332MOL0     H45800   5.770   7.427   5.763 -1.4239 -0.1081 -0.4373
  332MOL0     H45801   5.536   7.453   5.858  0.4965 -1.6297 -1.2601
  332MOL0     H45802   5.231   7.322   6.171  1.4515  1.2159  0.9263
  332MOL0     H45803   4.975   7.330   6.133  2.3762 -0.6734  0.4643
  332MOL0     H45804   4.849   7.718   6.198 -3.0305  0.7235  4.4495
  332MOL0     H45805   4.744   7.716   6.052  2.6175 -0.0824 -0.9263
  332MOL0     H45806   4.670   7.691   6.316 -0.5078  0.1675 -0.0579
  332MOL0     H45807   4.717   7.529   6.302 -1.8211  0.1703  0.5069
  332MOL0     H45808   4.468   7.601   6.255  2.5525  0.0998  2.7254
  332MOL0     H45809   4.534   7.657   6.095  1.7433 -2.7660 -3.0355
  332MOL0     H45810   4.599   7.383   6.196  1.3167  0.6459  0.7762
  332MOL0     H45811   4.576   7.430   6.024 -2.1916  2.0262 -0.3411
  332MOL0     H45812   4.178   7.338   6.170 -1.8697 -0.4703 -2.5763
  332MOL0     H45813   5.006   7.727   6.042 -0.0271  0.3154 -0.0212
  332MOL0     H45814   5.176   7.855   6.027 -0.3819 -0.3084  0.6316
  332MOL0     H45815   5.324   7.808   6.128  0.6687 -1.8614 -1.2025
  332MOL0     H45816   5.304   7.801   5.946  0.0453 -1.2679 -1.1421
  333MOL0     O45817   5.063   1.066   9.048  0.0808  0.0568 -0.9276
  333MOL0     C45818   4.999   0.996   9.127 -0.2995  0.1552 -0.0010
  333MOL0     O45819   5.046   0.914   9.219 -0.0516 -0.2102  0.1095
  333MOL0     C45820   5.182   0.914   9.241 -0.2552  0.3062  0.6585
  333MOL0     C45821   5.268   0.828   9.184  0.7393 -0.0136 -0.7816
  333MOL0     C45822   5.407   0.824   9.218  0.5676 -0.5990  1.0329
  333MOL0     C45823   5.458   0.922   9.303  0.0971  0.6436 -0.7017
  333MOL0     O45824   5.587   0.914   9.334  0.0165  0.5679  0.1849
  333MOL0     C45825   5.674   1.022   9.302 -0.3037  0.6962  0.2070
  333MOL0     C45826   5.822   0.987   9.286 -0.5623  0.5891  0.0825
  333MOL0     C45827   5.905   1.109   9.233  0.5978 -0.0589  0.1223
  333MOL0     C45828   5.886   1.236   9.323  0.4272  0.2615 -0.4089
  333MOL0     C45829   5.961   1.357   9.260  0.3513  0.1831 -0.0348
  333MOL0     C45830   6.108   1.346   9.288 -0.4612 -0.1178 -0.4094
  333MOL0     C45831   6.201   1.451   9.212 -0.2508  0.6607  0.1552
  333MOL0     C45832   6.345   1.414   9.262  0.7034 -0.4147  0.2053
  333MOL0     N45833   6.396   1.287   9.220  0.3359  0.2501 -0.2648
  333MOL0     C45834   6.422   1.179   9.305  0.0452 -0.4934  0.2182
  333MOL0     C45835   6.469   1.077   9.225 -0.2494 -0.3138 -0.8187
  333MOL0     C45836   6.498   0.935   9.256 -0.7057 -0.4190 -0.5691
  333MOL0     C45837   6.621   0.926   9.348  0.2833 -0.9482 -0.6860
  333MOL0     C45838   6.696   0.796   9.344 -0.4354 -0.6102 -0.8842
  333MOL0     C45839   6.600   0.676   9.366 -0.5158 -0.2066 -0.6015
  333MOL0     O45840   6.658   0.585   9.462  0.7854  0.0981  0.4382
  333MOL0     C45841   6.767   0.520   9.417 -0.9384 -0.1974  0.2410
  333MOL0     C45842   6.778   0.463   9.293 -0.3711 -0.0838  0.6210
  333MOL0     C45843   6.905   0.409   9.252 -0.4245 -0.6006 -0.2606
  333MOL0     C45844   6.917   0.359   9.109 -0.1311 -0.4717  0.1299
  333MOL0     C45845   7.008   0.403   9.342  0.1418  0.6255 -0.5650
  333MOL0     C45846   7.140   0.329   9.318  0.3431  0.8404 -0.2979
  333MOL0     O45847   7.240   0.357   9.401  0.7773 -0.0590 -0.5330
  333MOL0     C45848   7.334   0.255   9.429  0.4945  0.2583 -0.1714
  333MOL0     C45849   7.328   0.119   9.396  0.6649  0.2264  0.6022
  333MOL0     C45850   7.433   0.032   9.418 -0.3010 -0.4083  0.0182
  333MOL0     C45851   7.548   0.088   9.476 -0.3513  0.2614 -1.2291
  333MOL0     O45852   7.649  -0.008   9.491 -0.5372 -0.1111 -0.4218
  333MOL0     C45853   7.782   0.042   9.458  0.5396 -0.3781 -0.2138
  333MOL0     C45854   7.888  -0.080   9.431 -0.5645  1.0542  0.1114
  333MOL0     C45855   7.924  -0.167   9.558 -0.1713 -0.2462 -0.0639
  333MOL0     C45856   8.012  -0.285   9.518  0.1159  0.0758  0.4854
  333MOL0     C45857   8.018  -0.378   9.652  0.7315  0.4195 -0.3190
  333MOL0     C45858   8.109  -0.500   9.628 -0.0266 -0.0530 -0.1538
  333MOL0     C45859   8.249  -0.473   9.575  0.3826 -0.8330  0.4076
  333MOL0     C45860   8.345  -0.586   9.604 -0.2301 -0.2157 -0.0342
  333MOL0    Cl45861   8.356  -0.618   9.783  0.0932  0.2086 -0.2147
  333MOL0     C45862   7.557   0.225   9.524  0.2065 -0.1669 -0.2887
  333MOL0     C45863   7.448   0.312   9.490 -0.7601  0.1442 -0.0108
  333MOL0     O45864   7.140   0.234   9.242  0.5527 -0.1726  0.5293
  333MOL0     C45865   6.995   0.466   9.463  0.0427 -0.1069 -0.1318
  333MOL0     C45866   6.874   0.519   9.503 -0.6554 -0.2215 -0.6767
  333MOL0     N45867   6.472   1.127   9.097 -0.8630  1.0182  0.1526
  333MOL0     N45868   6.442   1.257   9.096  0.2304  0.3509  0.4796
  333MOL0     C45869   5.369   1.005   9.367  0.2387  0.2433 -0.1491
  333MOL0     C45870   5.235   1.001   9.334  0.6582 -0.2549  0.2000
  333MOL0     C45871   4.856   0.979   9.106 -1.4172  0.2844 -0.5926
  333MOL0     C45872   4.812   0.872   9.032  0.1370  0.5800  0.5243
  333MOL0     C45873   4.672   0.848   9.020  0.1021  0.1690 -0.2446
  333MOL0     C45874   4.575   0.941   9.080 -0.0309  0.3156  0.0422
  333MOL0     O45875   4.437   0.917   9.053 -0.6438  0.7321 -0.6183
  333MOL0     C45876   4.343   1.011   9.089  0.2168 -0.2508 -0.8286
  333MOL0     C45877   4.194   0.955   9.079 -0.2201  0.1254 -0.1721
  333MOL0     C45878   4.165   0.871   8.959 -0.2878 -0.9167 -0.7183
  333MOL0     C45879   4.025   0.810   8.958 -0.1097 -0.6322  0.2505
  333MOL0     C45880   3.918   0.906   8.948 -0.7281  0.2809 -0.1944
  333MOL0     C45881   3.851   1.002   8.947  0.3054  0.1124 -0.3397
  333MOL0     C45882   4.627   1.060   9.136 -0.3115  1.2853  0.0489
  333MOL0     C45883   4.768   1.077   9.153 -0.5889  0.1849 -0.1511
  333MOL0     C45884   4.811   1.211   9.224  0.4576  0.1815 -0.5161
  333MOL0     H45885   5.230   0.753   9.115 -0.6514 -0.1342  0.0772
  333MOL0     H45886   5.476   0.752   9.173  0.9669  1.2083 -1.4758
  333MOL0     H45887   5.673   1.080   9.395 -1.9690  1.4045 -0.2070
  333MOL0     H45888   5.634   1.081   9.219 -2.1142 -1.1668 -0.3218
  333MOL0     H45889   5.871   0.939   9.372 -2.3109 -2.8152 -0.6356
  333MOL0     H45890   5.832   0.900   9.220  0.7528  1.0984 -0.4211
  333MOL0     H45891   6.007   1.072   9.220 -0.0691 -2.0300  0.1959
  333MOL0     H45892   5.868   1.143   9.136  2.6174  2.6393  0.1884
  333MOL0     H45893   5.781   1.265   9.324  0.4947  0.5468 -0.9263
  333MOL0     H45894   5.919   1.216   9.425 -1.9144 -0.8796  0.1860
  333MOL0     H45895   5.921   1.443   9.315  0.9032  0.0761  0.5407
  333MOL0     H45896   5.933   1.373   9.155 -2.9268 -1.7315  0.4112
  333MOL0     H45897   6.125   1.357   9.395  0.2105 -0.2515 -0.4958
  333MOL0     H45898   6.139   1.242   9.273 -1.0668 -0.6015  1.4976
  333MOL0     H45899   6.178   1.553   9.244 -3.1372  0.3669 -0.7028
  333MOL0     H45900   6.196   1.440   9.104 -4.1708  0.5897  0.2115
  333MOL0     H45901   6.419   1.487   9.229  0.1299  0.4809  0.8553
  333MOL0     H45902   6.341   1.413   9.372  0.3679  1.2019  0.2261
  333MOL0     H45903   6.417   1.199   9.411  0.5840  3.9643 -0.4181
  333MOL0     H45904   6.523   0.879   9.166  1.2956  0.8418 -0.8546
  333MOL0     H45905   6.410   0.892   9.305 -2.0471  0.3585 -2.1552
  333MOL0     H45906   6.689   0.998   9.304 -0.3879  0.6546  0.7928
  333MOL0     H45907   6.603   0.956   9.452 -0.0933 -0.9160 -0.7590
  333MOL0     H45908   6.751   0.770   9.253 -3.7081 -0.5349 -3.0362
  333MOL0     H45909   6.770   0.795   9.425  0.9172 -1.3055 -2.0714
  333MOL0     H45910   6.516   0.715   9.425 -1.0608  0.7930 -1.9631
  333MOL0     H45911   6.572   0.623   9.275 -1.7527 -2.4019  0.9588
  333MOL0     H45912   6.696   0.449   9.224  0.1337 -0.8854  0.1639
  333MOL0     H45913   7.006   0.403   9.062 -2.0040  0.7180 -2.5373
  333MOL0     H45914   6.835   0.394   9.046  0.1293  0.7656  0.4400
  333MOL0     H45915   6.921   0.252   9.086  0.9197  0.1462 -3.0612
  333MOL0     H45916   7.233   0.072   9.372 -0.9423  2.9821  1.0284
  333MOL0     H45917   7.436  -0.072   9.389  0.9811 -0.1333 -0.9048
  333MOL0     H45918   7.790   0.108   9.371 -1.4302 -2.0183 -1.7328
  333MOL0     H45919   7.819   0.090   9.549  2.1039 -0.6061 -0.6981
  333MOL0     H45920   7.849  -0.152   9.358 -2.9952  0.0109  2.2591
  333MOL0     H45921   7.978  -0.034   9.389  0.8486 -1.5456  0.0249
  333MOL0     H45922   7.833  -0.205   9.606  0.1185 -1.7778 -0.6689
  333MOL0     H45923   7.964  -0.105   9.639 -5.3890 -2.2314  4.6838
  333MOL0     H45924   8.108  -0.255   9.475  0.1501 -0.9196 -0.1601
  333MOL0     H45925   7.959  -0.339   9.438  0.2365 -2.5729  2.0856
  333MOL0     H45926   8.068  -0.325   9.734 -1.1626  0.6614  0.7367
  333MOL0     H45927   7.921  -0.411   9.689  1.7770 -1.7618  0.6452
  333MOL0     H45928   8.070  -0.584   9.570 -0.7373 -0.0998  0.3753
  333MOL0     H45929   8.120  -0.542   9.728 -0.0245  3.1976  1.3404
  333MOL0     H45930   8.295  -0.388   9.626  2.9368 -1.6415 -0.3638
  333MOL0     H45931   8.258  -0.455   9.467  0.1275  0.2472  0.5623
  333MOL0     H45932   8.446  -0.568   9.566 -0.3812 -0.2402 -0.4547
  333MOL0     H45933   8.306  -0.676   9.556 -2.0114  1.1369 -1.2358
  333MOL0     H45934   7.636   0.258   9.591  0.4163 -1.3177  0.0606
  333MOL0     H45935   7.436   0.418   9.509  0.1637  0.3497 -0.5264
  333MOL0     H45936   7.076   0.477   9.534  0.5044  1.1259 -0.8348
  333MOL0     H45937   6.874   0.565   9.601  2.1463  1.3429 -1.3204
  333MOL0     H45938   5.414   1.073   9.439 -1.4951  0.4515  0.7829
  333MOL0     H45939   5.180   1.077   9.388 -0.7013 -0.2110 -1.1914
  333MOL0     H45940   4.884   0.801   8.992 -0.3199  1.7212 -2.6321
  333MOL0     H45941   4.643   0.768   8.953  1.4688  0.0649 -0.7301
  333MOL0     H45942   4.355   1.037   9.195  2.0085 -0.9208 -0.8368
  333MOL0     H45943   4.369   1.103   9.038  2.7837  0.0393  0.8033
  333MOL0     H45944   4.130   1.042   9.097  0.2991  0.3390  0.6774
  333MOL0     H45945   4.194   0.890   9.166  0.2056  0.4212  0.0559
  333MOL0     H45946   4.188   0.943   8.880  2.2442  0.8904  1.4921
  333MOL0     H45947   4.238   0.790   8.963  0.5905 -0.2021  4.8174
  333MOL0     H45948   4.020   0.759   9.055  1.2057  0.7102  1.0769
  333MOL0     H45949   4.009   0.744   8.873 -0.2147  0.4785 -0.6114
  333MOL0     H45950   3.781   1.079   8.923  1.0167  0.4014 -1.5927
  333MOL0     H45951   4.559   1.133   9.177  0.3893  2.1463 -0.3009
  333MOL0     H45952   4.889   1.243   9.155  0.2619 -0.3544 -0.9961
  333MOL0     H45953   4.725   1.277   9.211 -2.6764 -3.5581 -0.7116
  333MOL0     H45954   4.860   1.212   9.322  2.4821  0.6827 -1.4784
  334MOL0     O45955   0.727  11.243  10.465  0.4093 -0.1584  0.4603
  334MOL0     C45956   0.687  11.267  10.576 -0.0240 -0.1947 -0.2212
  334MOL0     O45957   0.762  11.314  10.677  0.2102 -0.1119  0.6395
  334MOL0     C45958   0.893  11.373  10.654 -0.0542  0.8997  0.3269
  334MOL0     C45959   0.919  11.462  10.552 -0.3872  0.2567  0.4551
  334MOL0     C45960   1.045  11.518  10.530  0.5599  0.5520  0.5886
  334MOL0     C45961   1.149  11.485  10.617 -0.5087 -0.6132 -0.0876
  334MOL0     O45962   1.272  11.538  10.617  0.2028 -0.0201  0.0885
  334MOL0     C45963   1.278  11.662  10.539 -0.5497  0.0196  0.5950
  334MOL0     C45964   1.432  11.699  10.526  0.7553  0.0841 -1.0011
  334MOL0     C45965   1.509  11.604  10.448  0.0582  0.4782  0.1713
  334MOL0     C45966   1.667  11.620  10.470  0.4001  0.5415 -0.4240
  334MOL0     C45967   1.706  11.605  10.621  0.4569 -0.5661  0.4852
  334MOL0     C45968   1.854  11.580  10.641 -0.0889  0.5647  0.2903
  334MOL0     C45969   1.959  11.666  10.557 -0.3725 -0.9213 -0.9097
  334MOL0     C45970   2.103  11.642  10.614  1.1074  0.4702  0.3534
  334MOL0     N45971   2.153  11.503  10.592 -0.4015  0.0039 -0.4014
  334MOL0     C45972   2.272  11.448  10.640 -0.7808 -0.2062  1.6214
  334MOL0     C45973   2.284  11.328  10.580 -1.9691  0.5305  0.2574
  334MOL0     C45974   2.390  11.224  10.593  0.2331 -0.3750 -0.0396
  334MOL0     C45975   2.449  11.215  10.735 -0.0807  0.0289 -0.0657
  334MOL0     C45976   2.359  11.172  10.834  0.5920  0.1184 -0.1951
  334MOL0     C45977   2.424  11.080  10.942  0.1711  0.6484  0.1561
  334MOL0     O45978   2.542  11.138  10.997 -0.1222 -0.7103  0.7640
  334MOL0     C45979   2.601  11.096  11.108  0.5492  0.4223  0.1408
  334MOL0     C45980   2.676  11.191  11.171 -0.3938  0.7253  0.7826
  334MOL0     C45981   2.750  11.153  11.288 -0.3466  0.2990  0.2317
  334MOL0     C45982   2.832  11.267  11.345  0.2822  0.2279  1.0672
  334MOL0     C45983   2.744  11.027  11.334  0.0024 -0.4880 -0.2661
  334MOL0     C45984   2.824  10.983  11.456 -0.1833  0.2076  0.5914
  334MOL0     O45985   2.908  11.066  11.515  0.1212 -0.2707  0.0285
  334MOL0     C45986   2.984  11.015  11.619 -0.5240  0.4209  0.1491
  334MOL0     C45987   2.948  11.068  11.749  0.8028  0.8896 -0.6539
  334MOL0     C45988   3.025  11.017  11.858 -1.5543  1.0725  0.8715
  334MOL0     C45989   3.129  10.918  11.838  0.7622 -0.1082 -0.1136
  334MOL0     O45990   3.197  10.870  11.942 -0.1682 -0.5136 -0.0206
  334MOL0     C45991   3.267  10.962  12.037 -0.5884 -0.0617 -0.4081
  334MOL0     C45992   3.416  10.971  12.001  0.5149 -0.4010  0.2448
  334MOL0     C45993   3.493  10.838  12.000 -0.9512  0.4448  0.2302
  334MOL0     C45994   3.641  10.854  11.967  0.2344  0.6589 -0.2889
  334MOL0     C45995   3.731  10.737  11.998  0.5412  0.7663 -0.1619
  334MOL0     C45996   3.876  10.767  11.964  0.7044 -0.0575 -0.2534
  334MOL0     C45997   3.943  10.622  11.956  0.4265  0.2310 -0.5021
  334MOL0     C45998   4.077  10.623  12.037  0.1344  0.3566  0.0177
  334MOL0    Cl45999   4.176  10.755  11.983 -0.2455  0.3120 -0.2909
  334MOL0     C46000   3.148  10.861  11.709  0.3806 -0.3229 -0.1121
  334MOL0     C46001   3.082  10.913  11.604 -0.0648  0.3486 -0.0975
  334MOL0     O46002   2.814  10.862  11.484 -0.4662 -0.3121 -0.4937
  334MOL0     C46003   2.662  10.933  11.270  0.9328 -0.4462  0.4093
  334MOL0     C46004   2.583  10.968  11.164 -0.0209 -0.4165  0.6407
  334MOL0     N46005   2.172  11.316  10.498  0.2209 -0.7499 -0.0622
  334MOL0     N46006   2.093  11.417  10.505 -0.1128  0.3212 -0.2395
  334MOL0     C46007   1.117  11.396  10.725  0.1922  0.1446  0.0366
  334MOL0     C46008   0.994  11.336  10.742 -0.0819  0.0322 -0.8058
  334MOL0     C46009   0.547  11.236  10.600  0.2382 -0.6846 -0.2781
  334MOL0     C46010   0.477  11.310  10.704  0.6031  0.6155  0.5405
  334MOL0     C46011   0.341  11.288  10.732 -0.6136 -0.5239 -0.3576
  334MOL0     C46012   0.279  11.193  10.649  0.0353 -0.7140 -0.1015
  334MOL0     O46013   0.145  11.173  10.677 -0.4781  0.4134  0.5599
  334MOL0     C46014   0.058  11.164  10.559  0.6497 -0.2764 -0.3605
  334MOL0     C46015  -0.023  11.036  10.567  1.0018  0.3189 -0.8736
  334MOL0     C46016  -0.168  11.063  10.582 -0.2866 -0.5257  0.0079
  334MOL0     C46017  -0.253  10.932  10.599 -0.6226 -0.5501 -0.1615
  334MOL0     C46018  -0.389  10.970  10.587  0.6430  0.2234 -0.3302
  334MOL0     C46019  -0.503  11.001  10.584  0.6071 -0.6578  0.1566
  334MOL0     C46020   0.349  11.122  10.553  0.8220 -0.7642  0.3494
  334MOL0     C46021   0.477  11.133  10.534  0.1002 -0.4368  0.2410
  334MOL0     C46022   0.515  11.043  10.420 -0.2499 -0.6745  0.3029
  334MOL0     H46023   0.837  11.482  10.483  0.1557 -2.7056 -1.1933
  334MOL0     H46024   1.054  11.583  10.444  3.1519  2.2392  1.9917
  334MOL0     H46025   1.237  11.747  10.592 -1.9121  1.1536 -2.0633
  334MOL0     H46026   1.233  11.669  10.439 -1.2358 -1.1537  0.7962
  334MOL0     H46027   1.434  11.802  10.488  2.8096  0.6204  0.3896
  334MOL0     H46028   1.472  11.699  10.627  2.6133  0.4328 -1.6947
  334MOL0     H46029   1.476  11.504  10.476 -0.3677  0.5807  0.0360
  334MOL0     H46030   1.492  11.611  10.340  0.3482 -1.0085  0.0034
  334MOL0     H46031   1.708  11.540  10.408 -2.0921  0.0589 -1.5711
  334MOL0     H46032   1.682  11.722  10.431 -2.5429  0.7095 -1.3432
  334MOL0     H46033   1.652  11.520  10.664 -1.2308  0.2025 -0.0191
  334MOL0     H46034   1.684  11.701  10.669  1.0018 -0.4514  0.5171
  334MOL0     H46035   1.870  11.576  10.749  3.0954  1.0608 -0.0662
  334MOL0     H46036   1.873  11.476  10.611  1.6952  0.4290  1.7217
  334MOL0     H46037   1.947  11.774  10.570  4.1451 -0.2366 -0.8213
  334MOL0     H46038   1.942  11.645  10.451 -3.1411  1.6905 -1.1351
  334MOL0     H46039   2.163  11.717  10.560  1.1931  0.8271  0.9374
  334MOL0     H46040   2.104  11.667  10.720 -1.1836  0.2450  0.4832
  334MOL0     H46041   2.341  11.499  10.706 -0.0688  1.2997 -0.2213
  334MOL0     H46042   2.465  11.251  10.518 -0.7905  2.3349 -0.2043
  334MOL0     H46043   2.346  11.129  10.563  1.0522 -1.4374  1.9191
  334MOL0     H46044   2.536  11.149  10.734  0.2544  0.3729  1.7701
  334MOL0     H46045   2.481  11.312  10.776 -3.4175  0.1009  2.8721
  334MOL0     H46046   2.311  11.256  10.886  1.1122  1.9079 -2.4140
  334MOL0     H46047   2.278  11.123  10.779  1.6576 -0.2203 -1.5161
  334MOL0     H46048   2.349  11.071  11.021  0.1567 -1.6428 -0.0578
  334MOL0     H46049   2.447  10.978  10.910 -1.0165  0.4543 -0.1565
  334MOL0     H46050   2.694  11.288  11.127 -1.9255  0.1188 -1.3104
  334MOL0     H46051   2.812  11.353  11.280 -2.5154 -0.3614  0.9920
  334MOL0     H46052   2.939  11.250  11.356  0.4484 -1.7727 -2.2391
  334MOL0     H46053   2.793  11.297  11.443  0.4348  3.1457  0.3121
  334MOL0     H46054   2.868  11.136  11.773 -0.3594 -0.4968 -0.4670
  334MOL0     H46055   3.006  11.051  11.959 -0.1503  4.4576  0.1405
  334MOL0     H46056   3.224  11.063  12.035  0.1298  0.2375 -1.1038
  334MOL0     H46057   3.256  10.921  12.139  2.1749  2.4278  1.0250
  334MOL0     H46058   3.432  11.021  11.905  1.3829  0.5198  0.8455
  334MOL0     H46059   3.456  11.045  12.071  0.1762  0.9741 -0.9487
  334MOL0     H46060   3.450  10.757  11.940  2.2088 -1.6369  0.5260
  334MOL0     H46061   3.493  10.802  12.103 -0.4898  1.3206  0.5387
  334MOL0     H46062   3.674  10.945  12.019 -0.3814  3.5938 -4.4463
  334MOL0     H46063   3.641  10.867  11.858  0.8772 -1.2040 -0.5417
  334MOL0     H46064   3.717  10.719  12.105 -1.2052  0.7956 -0.3458
  334MOL0     H46065   3.697  10.648  11.945 -1.1305  0.7896  0.7713
  334MOL0     H46066   3.921  10.832  12.040  1.7211  0.8752 -1.6103
  334MOL0     H46067   3.892  10.825  11.873 -0.1240  0.6998  0.0711
  334MOL0     H46068   3.968  10.605  11.851  2.9143  0.2056  0.0344
  334MOL0     H46069   3.872  10.549  11.997 -0.6149  1.6854  0.3967
  334MOL0     H46070   4.136  10.534  12.014  0.7307  0.9222 -0.6922
  334MOL0     H46071   4.055  10.627  12.144  0.2633  0.9189  0.0246
  334MOL0     H46072   3.233  10.795  11.693  0.2145 -0.0401 -2.6677
  334MOL0     H46073   3.102  10.878  11.504 -1.2760  2.0805 -0.9948
  334MOL0     H46074   2.653  10.831  11.307  0.9046  0.6590  3.8799
  334MOL0     H46075   2.524  10.891  11.117  0.4761  0.6852 -1.9768
  334MOL0     H46076   1.190  11.399  10.805 -1.4610 -0.5839  1.6309
  334MOL0     H46077   0.973  11.277  10.831 -4.8719 -0.7356 -2.1223
  334MOL0     H46078   0.529  11.384  10.765 -0.0356  0.1931  1.6238
  334MOL0     H46079   0.291  11.331  10.818  0.3034 -0.9773  0.4264
  334MOL0     H46080  -0.011  11.248  10.558 -0.3077 -1.0382 -1.2767
  334MOL0     H46081   0.113  11.174  10.465  1.7196 -0.3148  0.2434
  334MOL0     H46082   0.010  10.990  10.661 -0.6839  1.3012  0.2438
  334MOL0     H46083  -0.008  10.967  10.483  0.2808 -1.9853  0.8061
  334MOL0     H46084  -0.184  11.130  10.667  0.5052  0.8303 -0.8723
  334MOL0     H46085  -0.189  11.114  10.487  4.4052  1.7486 -0.0537
  334MOL0     H46086  -0.242  10.886  10.698  0.9914 -2.8842 -1.3293
  334MOL0     H46087  -0.230  10.860  10.520 -1.3660  0.1542 -1.0306
  334MOL0     H46088  -0.602  11.039  10.569  0.0960 -1.6382  0.8663
  334MOL0     H46089   0.284  11.057  10.495 -1.3567  2.1531 -0.7405
  334MOL0     H46090   0.458  10.949  10.417  0.5756 -1.1571 -1.0909
  334MOL0     H46091   0.493  11.095  10.326 -0.2424 -1.5672 -0.2043
  334MOL0     H46092   0.621  11.016  10.427 -0.2379 -0.8321 -0.4421
  335MOL0     O46093  10.445   4.404  10.587  0.0939  0.0843  0.4514
  335MOL0     C46094  10.349   4.377  10.660 -0.8222 -0.5579 -0.7212
  335MOL0     O46095  10.351   4.291  10.774 -0.0353  0.1218  0.6461
  335MOL0     C46096  10.474   4.235  10.809 -0.1552  0.2445  0.9787
  335MOL0     C46097  10.518   4.258  10.940 -0.5606  0.0482  0.4622
  335MOL0     C46098  10.643   4.204  10.983  0.4953  0.1682  0.1739
  335MOL0     C46099  10.730   4.136  10.897  0.7188  0.0015  0.1150
  335MOL0     O46100  10.849   4.080  10.943  0.0335 -0.2759  0.3077
  335MOL0     C46101  10.946   4.017  10.855  0.2529 -0.9260 -0.4339
  335MOL0     C46102  11.061   3.980  10.946 -0.0460  0.1325  0.5367
  335MOL0     C46103  11.140   4.104  10.968 -0.7404  0.5182 -0.7129
  335MOL0     C46104  11.287   4.073  11.008  0.5696  0.5446  0.1617
  335MOL0     C46105  11.339   4.211  11.077  0.6757 -0.1656  0.1200
  335MOL0     C46106  11.484   4.199  11.111 -0.3683 -0.0083 -0.0941
  335MOL0     C46107  11.554   4.314  11.202 -0.0942 -0.0129 -0.2067
  335MOL0     C46108  11.704   4.284  11.240 -0.0408 -0.4523  0.3587
  335MOL0     N46109  11.794   4.328  11.140  0.3406 -0.5495  1.0337
  335MOL0     C46110  11.873   4.438  11.157 -0.5989 -0.6800 -0.3199
  335MOL0     C46111  11.947   4.440  11.036  0.8719  0.0373 -1.6584
  335MOL0     C46112  12.067   4.521  11.005  0.3690 -0.3550 -0.0014
  335MOL0     C46113  12.187   4.512  11.097 -0.0338  0.4249 -0.2508
  335MOL0     C46114  12.173   4.620  11.204 -0.8255 -0.2209  0.3385
  335MOL0     C46115  12.287   4.603  11.305 -0.0272  0.3020  0.3019
  335MOL0     O46116  12.411   4.638  11.244 -0.1127  0.1509  0.2931
  335MOL0     C46117  12.532   4.600  11.295  0.9276 -0.4091 -0.4374
  335MOL0     C46118  12.556   4.554  11.426 -0.1394  0.1712  0.5309
  335MOL0     C46119  12.684   4.516  11.471 -0.5016  0.8971 -0.1439
  335MOL0     C46120  12.696   4.474  11.621 -0.1997  0.5864  0.1096
  335MOL0     C46121  12.794   4.530  11.384 -1.7657  0.1687  0.1439
  335MOL0     C46122  12.941   4.501  11.428  0.0874 -0.1845  0.3352
  335MOL0     O46123  13.036   4.500  11.331 -0.4333 -0.4828 -0.0507
  335MOL0     C46124  13.141   4.413  11.345  0.0308 -1.4225  0.3385
  335MOL0     C46125  13.120   4.280  11.349 -0.4967 -0.2821 -0.0575
  335MOL0     C46126  13.229   4.192  11.351 -0.0316  0.1654 -0.5746
  335MOL0     C46127  13.361   4.234  11.352 -0.6946 -0.6850  0.2381
  335MOL0     O46128  13.466   4.142  11.346  0.7850 -0.4663  0.5884
  335MOL0     C46129  13.579   4.179  11.427  1.0665 -0.1984  0.4570
  335MOL0     C46130  13.667   4.050  11.469 -0.1175 -0.3728  0.7994
  335MOL0     C46131  13.793   4.102  11.548 -0.0252 -0.2023  0.5820
  335MOL0     C46132  13.902   4.004  11.557  0.9099  0.1727 -0.3146
  335MOL0     C46133  13.993   4.041  11.679  0.0554  0.1865  0.3340
  335MOL0     C46134  14.105   3.936  11.693  0.8634 -0.1208 -0.3157
  335MOL0     C46135  14.167   3.966  11.832 -0.5001  0.4504 -0.0817
  335MOL0     C46136  14.239   3.843  11.890  0.3535 -0.2885  0.3066
  335MOL0    Cl46137  14.390   3.835  11.796  0.1607  0.3823 -0.1465
  335MOL0     C46138  13.378   4.378  11.345  0.1508  0.1398 -0.8806
  335MOL0     C46139  13.269   4.463  11.343 -0.7253  0.5991  0.0547
  335MOL0     O46140  12.963   4.478  11.544 -0.1586  0.0440 -0.2030
  335MOL0     C46141  12.770   4.583  11.258 -0.2898  0.3323  0.5541
  335MOL0     C46142  12.645   4.618  11.209  0.7740 -1.0049 -0.5164
  335MOL0     N46143  11.906   4.325  10.967  0.3206  0.1800  0.8905
  335MOL0     N46144  11.816   4.262  11.022  0.2931 -0.7073 -0.8144
  335MOL0     C46145  10.681   4.111  10.770 -0.3963 -0.1996 -0.4956
  335MOL0     C46146  10.558   4.159  10.724 -0.0127 -0.2169  0.3188
  335MOL0     C46147  10.224   4.454  10.633  0.2452  0.7194  0.3962
  335MOL0     C46148  10.181   4.535  10.738 -0.1513  0.3668  0.5165
  335MOL0     C46149  10.062   4.608  10.720  0.2563 -0.3477  0.6335
  335MOL0     C46150   9.991   4.601  10.609 -0.0014  0.4068  0.2495
  335MOL0     O46151   9.873   4.681  10.615  0.3657 -0.0757 -0.8027
  335MOL0     C46152   9.796   4.675  10.498  0.4492 -0.1300  0.8619
  335MOL0     C46153   9.656   4.716  10.531 -0.0854  0.9274  0.3335
  335MOL0     C46154   9.597   4.599  10.602  0.0986 -0.7443 -0.3946
  335MOL0     C46155   9.446   4.621  10.619 -0.4428 -0.1597 -0.2032
  335MOL0     C46156   9.405   4.698  10.733  0.6451  0.3355  0.9053
  335MOL0     C46157   9.352   4.738  10.831  0.5723 -0.6008 -1.0572
  335MOL0     C46158  10.038   4.535  10.489 -0.1359 -0.5173  0.3391
  335MOL0     C46159  10.153   4.459  10.503 -0.5935 -0.4449 -0.1938
  335MOL0     C46160  10.209   4.382  10.384  0.4142  0.1262 -0.6797
  335MOL0     H46161  10.460   4.314  11.012 -0.4076  3.0285 -1.5727
  335MOL0     H46162  10.689   4.215  11.081  0.6696 -1.3251  0.2852
  335MOL0     H46163  10.979   4.077  10.769 -0.9808 -0.3704 -0.5390
  335MOL0     H46164  10.894   3.927  10.822  0.0639  0.1660 -3.4555
  335MOL0     H46165  11.037   3.931  11.041 -1.6324 -0.3368 -0.0852
  335MOL0     H46166  11.123   3.908  10.891  0.0561  0.5197  0.1422
  335MOL0     H46167  11.139   4.174  10.884 -1.2900  0.6586 -0.5898
  335MOL0     H46168  11.098   4.158  11.053  0.1569  0.4925 -0.2447
  335MOL0     H46169  11.289   3.987  11.075  0.7298 -0.9324 -1.6737
  335MOL0     H46170  11.338   4.045  10.915  0.2152 -0.3250  0.2214
  335MOL0     H46171  11.295   4.234  11.174  0.6751 -0.4374  0.1822
  335MOL0     H46172  11.317   4.297  11.013  4.7680  0.0637 -1.2621
  335MOL0     H46173  11.503   4.107  11.166  1.5914  1.6801  2.2879
  335MOL0     H46174  11.542   4.188  11.019 -2.2930 -1.2296 -1.2294
  335MOL0     H46175  11.500   4.341  11.293  3.0847  1.4534  1.3997
  335MOL0     H46176  11.561   4.397  11.131  0.4260  0.2546  0.1626
  335MOL0     H46177  11.734   4.339  11.330  0.3654 -1.6050  0.9423
  335MOL0     H46178  11.727   4.178  11.252  1.4544 -0.4796 -2.0364
  335MOL0     H46179  11.877   4.501  11.246  3.2446  0.2018 -0.9727
  335MOL0     H46180  12.029   4.623  10.996 -0.2236 -0.4486  1.1911
  335MOL0     H46181  12.092   4.492  10.902 -0.2442 -1.7300  0.2122
  335MOL0     H46182  12.205   4.411  11.135  1.5216  0.2884 -1.2483
  335MOL0     H46183  12.277   4.540  11.040 -0.0955  1.9150  0.3428
  335MOL0     H46184  12.195   4.717  11.157  0.1941 -1.1611 -1.2420
  335MOL0     H46185  12.078   4.619  11.258 -0.3054  2.3904  1.4620
  335MOL0     H46186  12.272   4.670  11.391 -1.1114 -0.4961  0.7627
  335MOL0     H46187  12.283   4.502  11.346 -1.9863  1.7674  4.2433
  335MOL0     H46188  12.465   4.543  11.484 -1.0251  1.9487 -0.4223
  335MOL0     H46189  12.750   4.555  11.672  1.8445  0.7875 -2.1792
  335MOL0     H46190  12.752   4.379  11.625 -1.3936 -0.2470 -1.8023
  335MOL0     H46191  12.600   4.454  11.669  0.5869 -1.4653  0.9978
  335MOL0     H46192  13.021   4.238  11.362 -1.0828  0.7423 -0.9751
  335MOL0     H46193  13.203   4.087  11.356 -0.4316  0.2723 -0.3755
  335MOL0     H46194  13.635   4.254  11.370 -3.3060  3.0575 -0.0592
  335MOL0     H46195  13.532   4.226  11.513 -1.6092 -2.5311  0.4148
  335MOL0     H46196  13.591   3.994  11.524 -1.9428  0.1867 -1.0271
  335MOL0     H46197  13.693   3.986  11.385 -2.7337 -0.2388 -0.2149
  335MOL0     H46198  13.762   4.133  11.649 -2.4292  1.9822 -0.7053
  335MOL0     H46199  13.826   4.196  11.502 -2.3273  0.6914  0.6316
  335MOL0     H46200  13.961   4.003  11.465  1.0552 -0.8069 -0.2180
  335MOL0     H46201  13.871   3.900  11.574 -1.3773  1.1335  2.3051
  335MOL0     H46202  14.028   4.143  11.660 -1.4421  0.4361 -1.3604
  335MOL0     H46203  13.938   4.050  11.773  2.2936 -1.0607  1.8454
  335MOL0     H46204  14.173   3.949  11.608  0.5224 -0.6225 -0.6707
  335MOL0     H46205  14.061   3.837  11.703  1.8168 -0.3530  2.6832
  335MOL0     H46206  14.086   3.991  11.900 -0.5134 -1.8205  0.8371
  335MOL0     H46207  14.237   4.050  11.829 -1.7419  1.5375  0.5449
  335MOL0     H46208  14.182   3.750  11.904  0.4992 -0.1220  2.3576
  335MOL0     H46209  14.270   3.875  11.990  0.2557 -2.4111  1.0678
  335MOL0     H46210  13.476   4.425  11.334  1.6520 -2.9087 -1.8099
  335MOL0     H46211  13.290   4.570  11.339  2.7389  0.1372  1.7753
  335MOL0     H46212  12.851   4.603  11.189 -1.1586  4.1547  0.3868
  335MOL0     H46213  12.631   4.639  11.104  2.4313 -4.0314 -1.4662
  335MOL0     H46214  10.743   4.040  10.716  3.7056  1.0772  2.0652
  335MOL0     H46215  10.524   4.146  10.622 -1.8573  1.5918  0.6560
  335MOL0     H46216  10.223   4.545  10.838 -1.8232 -0.3623  1.3358
  335MOL0     H46217  10.024   4.662  10.806 -1.0989  0.8455 -0.6638
  335MOL0     H46218   9.837   4.750  10.429 -1.0628  2.5154  2.6565
  335MOL0     H46219   9.789   4.575  10.454  1.8671 -0.1845  0.6953
  335MOL0     H46220   9.597   4.738  10.443  0.6740 -0.9555 -0.7187
  335MOL0     H46221   9.668   4.804  10.595  2.4788  0.4854  0.5638
  335MOL0     H46222   9.609   4.505  10.549 -1.9038 -2.0061  1.2391
  335MOL0     H46223   9.635   4.587  10.704  0.6737 -1.6323 -0.7100
  335MOL0     H46224   9.400   4.522  10.623  0.0230 -0.5174 -2.5194
  335MOL0     H46225   9.417   4.674  10.528 -1.9102 -1.7872 -0.7465
  335MOL0     H46226   9.295   4.765  10.917  2.1982  2.7920 -0.8906
  335MOL0     H46227   9.985   4.551  10.395 -3.0227 -0.6965  1.8200
  335MOL0     H46228  10.263   4.288  10.399 -1.4770 -1.6311 -3.8119
  335MOL0     H46229  10.125   4.356  10.318 -0.5536 -1.0953  0.9508
  335MOL0     H46230  10.274   4.450  10.330 -0.7084  1.9878  0.1994
  336MOL0     O46231   9.659   3.726   7.967  0.0175 -0.8526  0.0412
  336MOL0     C46232   9.570   3.643   7.976  0.2807 -0.8160 -0.4787
  336MOL0     O46233   9.589   3.501   7.974  0.1107 -0.1508 -0.4831
  336MOL0     C46234   9.718   3.451   7.977  0.3571 -0.1601  0.9202
  336MOL0     C46235   9.819   3.506   8.059  0.6660 -0.1060  0.1809
  336MOL0     C46236   9.949   3.458   8.055  0.4096  0.0402 -0.7857
  336MOL0     C46237   9.991   3.365   7.955 -0.0086 -0.1712 -0.0035
  336MOL0     O46238  10.123   3.344   7.940 -0.0137  0.9010  0.2269
  336MOL0     C46239  10.169   3.209   7.898 -0.4551 -0.5770  0.1427
  336MOL0     C46240  10.294   3.197   7.984 -0.5057  0.0987  0.7162
  336MOL0     C46241  10.353   3.055   7.977  0.3204 -0.6437  0.1580
  336MOL0     C46242  10.399   3.017   7.828  0.8718  0.0806  0.4835
  336MOL0     C46243  10.442   2.869   7.820 -0.0298 -0.1013  0.2030
  336MOL0     C46244  10.536   2.843   7.704 -0.9382  0.1781 -0.4337
  336MOL0     C46245  10.558   2.692   7.688  0.8429  0.5127  0.2125
  336MOL0     C46246  10.655   2.658   7.573 -0.2448 -0.1157 -0.7725
  336MOL0     N46247  10.696   2.515   7.565 -0.6406  0.0728  0.1464
  336MOL0     C46248  10.767   2.453   7.663  0.2253 -0.2896  0.1817
  336MOL0     C46249  10.801   2.339   7.598  0.6423  0.3368  0.2907
  336MOL0     C46250  10.889   2.223   7.639  0.4350 -1.0253 -0.3584
  336MOL0     C46251  11.036   2.274   7.665  0.0570 -0.3573  0.4358
  336MOL0     C46252  11.120   2.183   7.762  0.2954 -0.2486 -0.4547
  336MOL0     C46253  11.266   2.209   7.753 -0.2392  0.8184  0.2146
  336MOL0     O46254  11.315   2.148   7.867  1.2377  0.1664 -0.4651
  336MOL0     C46255  11.452   2.138   7.880  0.1005 -0.3344  0.5324
  336MOL0     C46256  11.502   2.101   8.008 -0.3413  1.3092  0.2362
  336MOL0     C46257  11.638   2.116   8.055  0.3920  0.2498  0.0851
  336MOL0     C46258  11.654   2.093   8.203  0.0080  0.0092 -0.6737
  336MOL0     C46259  11.725   2.172   7.961 -1.4287 -0.2948 -0.4302
  336MOL0     C46260  11.876   2.187   7.998 -0.1633 -0.0837  0.3227
  336MOL0     O46261  11.937   2.107   8.093  0.5187  0.4945 -0.7361
  336MOL0     C46262  12.074   2.118   8.119 -0.4066  0.9580 -0.1296
  336MOL0     C46263  12.163   2.010   8.100  0.0090 -0.6952  0.0281
  336MOL0     C46264  12.293   2.018   8.146  0.6355 -0.7703 -0.4841
  336MOL0     C46265  12.339   2.141   8.197 -0.1605  0.7934 -1.0962
  336MOL0     O46266  12.467   2.161   8.232  0.0947 -0.0997  0.4498
  336MOL0     C46267  12.494   2.219   8.347 -0.0726  0.3226 -1.0148
  336MOL0     C46268  12.428   2.156   8.476  0.6148  0.9760  0.2441
  336MOL0     C46269  12.487   2.220   8.596 -0.0855 -0.1164 -0.6909
  336MOL0     C46270  12.430   2.358   8.631 -0.2344 -0.4445 -0.1810
  336MOL0     C46271  12.502   2.401   8.765  0.2873  0.3850  0.8799
  336MOL0     C46272  12.655   2.412   8.748 -0.3438  0.7491 -0.0823
  336MOL0     C46273  12.711   2.475   8.875 -0.7675  0.4114 -0.1787
  336MOL0     C46274  12.865   2.488   8.886 -0.0703  0.2798  0.2638
  336MOL0    Cl46275  12.923   2.609   8.771 -0.0986 -0.7024 -0.1954
  336MOL0     C46276  12.259   2.250   8.201  0.1800  0.1425 -0.8933
  336MOL0     C46277  12.126   2.242   8.167  0.3461  0.2691 -0.2875
  336MOL0     O46278  11.940   2.262   7.917  0.0442  0.8861 -0.8626
  336MOL0     C46279  11.685   2.193   7.826  0.5413  0.2532 -0.2543
  336MOL0     C46280  11.549   2.186   7.786  0.6080  0.6646 -0.1307
  336MOL0     N46281  10.726   2.329   7.478  0.0491 -0.4874 -0.4028
  336MOL0     N46282  10.673   2.439   7.451 -0.2126  0.7713  0.0808
  336MOL0     C46283   9.898   3.316   7.861  0.1517  0.6723 -1.0831
  336MOL0     C46284   9.764   3.360   7.884 -0.8224 -0.4206  0.6046
  336MOL0     C46285   9.420   3.696   7.998 -0.8878  0.4684 -0.4752
  336MOL0     C46286   9.328   3.598   7.989  0.3680 -0.5444 -0.3883
  336MOL0     C46287   9.191   3.624   7.977 -0.7730 -0.8774 -0.2656
  336MOL0     C46288   9.149   3.752   7.986  1.3047 -0.2435 -0.3796
  336MOL0     O46289   9.011   3.762   7.963 -0.1693  0.3818  0.7254
  336MOL0     C46290   8.939   3.879   8.013 -0.1817 -0.8083  0.5928
  336MOL0     C46291   8.795   3.857   8.048  0.1336  0.7511  0.6196
  336MOL0     C46292   8.729   3.794   7.923  1.6498  0.1385 -0.1856
  336MOL0     C46293   8.601   3.717   7.958 -0.3336 -0.5302  0.2820
  336MOL0     C46294   8.490   3.791   8.016 -0.5856 -0.4000 -0.5552
  336MOL0     C46295   8.394   3.845   8.073 -0.6275 -0.0829  0.3391
  336MOL0     C46296   9.239   3.856   7.992 -0.0793 -0.5942 -0.2472
  336MOL0     C46297   9.379   3.832   8.004  0.0363 -0.4885 -0.3142
  336MOL0     C46298   9.477   3.950   8.018  0.4314  0.4082 -0.7593
  336MOL0     H46299   9.787   3.575   8.136 -0.5727  0.5040 -0.8347
  336MOL0     H46300  10.016   3.508   8.125 -0.7912 -0.3445  0.6941
  336MOL0     H46301  10.187   3.192   7.792 -0.7907 -1.3730  0.2088
  336MOL0     H46302  10.102   3.134   7.942 -1.9849  1.5065  1.5668
  336MOL0     H46303  10.366   3.274   7.954 -0.1853  1.0027  3.4950
  336MOL0     H46304  10.255   3.214   8.085 -3.4871  1.6420 -0.5892
  336MOL0     H46305  10.436   3.058   8.050 -0.7736  0.2133  1.4199
  336MOL0     H46306  10.282   2.980   8.012  2.2843 -1.2870  3.2719
  336MOL0     H46307  10.315   3.031   7.759 -0.6668  3.3260  2.7316
  336MOL0     H46308  10.479   3.079   7.787 -0.5358 -0.0560 -2.7481
  336MOL0     H46309  10.354   2.804   7.815 -0.1673 -0.0532  1.5808
  336MOL0     H46310  10.488   2.839   7.914 -0.5297  1.7046  1.0558
  336MOL0     H46311  10.503   2.890   7.611  0.5881 -0.3281 -1.2629
  336MOL0     H46312  10.632   2.886   7.733 -1.2044 -0.1725  1.0343
  336MOL0     H46313  10.468   2.629   7.694  0.9019  0.3926 -0.0999
  336MOL0     H46314  10.620   2.665   7.773 -0.2501 -0.4603  0.7288
  336MOL0     H46315  10.612   2.694   7.479 -2.1239 -0.7710 -0.2069
  336MOL0     H46316  10.741   2.724   7.583 -0.5327  0.4539 -1.9266
  336MOL0     H46317  10.798   2.499   7.757 -0.2805 -1.0120  0.7161
  336MOL0     H46318  10.884   2.138   7.571 -2.2264 -1.7636  0.6396
  336MOL0     H46319  10.842   2.191   7.732 -1.9910  0.1647 -1.0997
  336MOL0     H46320  11.098   2.291   7.576 -1.5786  0.5914 -0.5710
  336MOL0     H46321  11.028   2.366   7.723  2.3939  0.0530  0.1993
  336MOL0     H46322  11.087   2.212   7.862 -0.1170 -2.3923  0.0730
  336MOL0     H46323  11.093   2.077   7.753  3.9218 -1.6900  2.7718
  336MOL0     H46324  11.293   2.165   7.656 -2.4403 -0.9165  0.2955
  336MOL0     H46325  11.287   2.316   7.759  0.3822  0.7043  0.0816
  336MOL0     H46326  11.426   2.081   8.083  1.9945 -2.5986  1.9051
  336MOL0     H46327  11.743   2.040   8.238  0.2481  2.0624  2.1839
  336MOL0     H46328  11.569   2.034   8.238  0.9784  0.7998  3.6287
  336MOL0     H46329  11.645   2.185   8.262 -0.7534 -0.3287 -0.2566
  336MOL0     H46330  12.131   1.914   8.059 -1.5676 -0.7412  1.2664
  336MOL0     H46331  12.361   1.934   8.132  0.7731 -0.6672 -0.4446
  336MOL0     H46332  12.602   2.206   8.359 -0.2981 -1.1697 -0.3887
  336MOL0     H46333  12.471   2.326   8.346 -0.4784  0.2300 -2.2934
  336MOL0     H46334  12.320   2.166   8.491  0.3273 -3.9502  4.1489
  336MOL0     H46335  12.446   2.049   8.492  0.6263  0.9182 -0.1566
  336MOL0     H46336  12.593   2.232   8.572 -0.2221  0.2620 -1.1315
  336MOL0     H46337  12.480   2.150   8.680  3.5220  1.6275  1.3040
  336MOL0     H46338  12.322   2.364   8.639 -0.7541 -2.7265 -3.4577
  336MOL0     H46339  12.450   2.420   8.543 -3.1761 -0.0980 -0.6857
  336MOL0     H46340  12.472   2.504   8.787  0.8060  0.6791  0.2509
  336MOL0     H46341  12.480   2.328   8.842  3.6141  0.4772  2.0717
  336MOL0     H46342  12.697   2.470   8.665  0.4389  0.4689  0.1046
  336MOL0     H46343  12.703   2.314   8.747  0.4625  1.0341  2.3719
  336MOL0     H46344  12.696   2.407   8.959  1.9067 -0.1817 -0.1015
  336MOL0     H46345  12.665   2.574   8.885  0.9094  1.1456  0.7263
  336MOL0     H46346  12.917   2.393   8.869  1.5522  0.7597  2.2288
  336MOL0     H46347  12.896   2.524   8.984 -0.0351 -2.5028  1.3723
  336MOL0     H46348  12.291   2.345   8.243 -1.4027  1.2492 -2.0930
  336MOL0     H46349  12.066   2.333   8.165 -0.1154 -0.0357 -1.6226
  336MOL0     H46350  11.754   2.227   7.750 -0.6731  0.1609 -1.4565
  336MOL0     H46351  11.523   2.196   7.681 -1.1187 -1.2174  0.0488
  336MOL0     H46352   9.920   3.243   7.784 -3.2982  2.0355 -3.5785
  336MOL0     H46353   9.689   3.344   7.806 -1.1033 -0.9202  0.9733
  336MOL0     H46354   9.357   3.494   7.976 -1.1285 -0.9870 -0.2975
  336MOL0     H46355   9.125   3.541   7.956 -0.2676 -1.0614 -1.1641
  336MOL0     H46356   8.979   3.927   8.104 -0.0361  0.0912  0.0695
  336MOL0     H46357   8.936   3.959   7.938 -1.7125 -2.0432 -0.7274
  336MOL0     H46358   8.751   3.954   8.073 -3.4658 -1.1130  2.0827
  336MOL0     H46359   8.789   3.804   8.143 -1.0524  3.8860  2.4517
  336MOL0     H46360   8.694   3.876   7.859  3.2310  0.0668 -1.1892
  336MOL0     H46361   8.784   3.711   7.877 -1.2981 -2.6049  0.8551
  336MOL0     H46362   8.633   3.640   8.028  1.7950 -0.3456 -0.4121
  336MOL0     H46363   8.565   3.667   7.867 -0.8656  0.5155 -0.0973
  336MOL0     H46364   8.312   3.889   8.125 -0.2289  1.1507 -0.0441
  336MOL0     H46365   9.192   3.953   7.979  0.0360 -0.5173 -0.0885
  336MOL0     H46366   9.424   4.044   8.038 -0.5366 -0.2364 -0.1658
  336MOL0     H46367   9.540   3.932   8.105 -0.7488 -1.1299 -0.1721
  336MOL0     H46368   9.538   3.964   7.928 -1.0108  1.0128 -1.6785
  337MOL0     O46369   7.023   6.478   3.730 -0.4653 -0.1415  0.4007
  337MOL0     C46370   6.961   6.579   3.695  0.1721  0.4100 -0.7973
  337MOL0     O46371   6.993   6.707   3.738  0.1784  0.2921  0.2719
  337MOL0     C46372   7.071   6.721   3.842 -0.2855 -0.8945 -0.0430
  337MOL0     C46373   7.211   6.749   3.833 -0.3069 -0.1414 -0.4111
  337MOL0     C46374   7.286   6.769   3.941  0.6968  0.0298 -0.1054
  337MOL0     C46375   7.236   6.775   4.072 -0.4691 -0.4122 -0.5472
  337MOL0     O46376   7.331   6.799   4.175  0.1394 -0.0451 -0.2966
  337MOL0     C46377   7.303   6.803   4.313  0.3558 -0.0875  0.1908
  337MOL0     C46378   7.402   6.738   4.406  0.3627  0.0380  0.9556
  337MOL0     C46379   7.528   6.833   4.430 -0.4435 -0.4267 -0.0564
  337MOL0     C46380   7.618   6.771   4.537  0.1452  0.2425 -0.3271
  337MOL0     C46381   7.695   6.649   4.481 -0.8512  0.3863 -0.7292
  337MOL0     C46382   7.785   6.581   4.590  0.1519  0.8995 -0.2270
  337MOL0     C46383   7.936   6.628   4.577 -0.4041  0.3741 -0.3790
  337MOL0     C46384   8.001   6.574   4.449 -0.1491  0.0735  0.0181
  337MOL0     N46385   8.140   6.602   4.443 -0.4298  0.8449  0.2391
  337MOL0     C46386   8.238   6.532   4.512 -0.2581  0.2522  1.0504
  337MOL0     C46387   8.346   6.617   4.505  0.5497  0.7563  0.7727
  337MOL0     C46388   8.477   6.593   4.575  0.3329  0.6139 -0.7495
  337MOL0     C46389   8.466   6.652   4.723  0.5989  0.0121  0.1396
  337MOL0     C46390   8.594   6.737   4.758  0.4240 -0.3598 -0.4895
  337MOL0     C46391   8.727   6.663   4.773  0.0623 -0.2909 -1.0489
  337MOL0     O46392   8.707   6.530   4.837 -0.0199 -0.0348 -0.0043
  337MOL0     C46393   8.804   6.495   4.927 -0.0934  0.5030 -0.4937
  337MOL0     C46394   8.797   6.532   5.068 -0.5330 -0.4262 -0.5014
  337MOL0     C46395   8.906   6.498   5.157  0.4225 -0.6501  0.2261
  337MOL0     C46396   8.899   6.555   5.303  0.4266 -0.3985  0.3736
  337MOL0     C46397   9.006   6.415   5.105  0.2591 -0.1975 -0.4160
  337MOL0     C46398   9.111   6.354   5.194  0.2737  0.0761  0.0222
  337MOL0     O46399   9.227   6.313   5.122  0.5683  0.3836  0.4533
  337MOL0     C46400   9.344   6.274   5.190  0.6603 -0.2660  0.1781
  337MOL0     C46401   9.472   6.310   5.143  0.8987 -0.0064  0.1812
  337MOL0     C46402   9.587   6.260   5.214  0.0352 -0.6205  0.0203
  337MOL0     C46403   9.591   6.174   5.320  0.0423 -0.0886  0.6743
  337MOL0     O46404   9.713   6.131   5.374  0.3461  0.5649  0.1830
  337MOL0     C46405   9.721   6.004   5.440 -0.8559 -0.2989 -0.0756
  337MOL0     C46406   9.696   6.007   5.586  0.2831  0.1179 -0.8660
  337MOL0     C46407   9.793   6.098   5.660  0.1827 -0.1409 -1.2341
  337MOL0     C46408   9.760   6.081   5.810 -0.2282  0.1817 -0.4523
  337MOL0     C46409   9.847   6.189   5.877 -0.1324  0.5608 -0.2700
  337MOL0     C46410   9.854   6.183   6.032  0.2072  0.8148 -0.4085
  337MOL0     C46411   9.919   6.312   6.077 -0.0643  0.3586  0.1837
  337MOL0     C46412   9.910   6.337   6.228  1.2191 -0.3549 -0.3814
  337MOL0    Cl46413   9.742   6.350   6.280 -0.6574  0.4315 -0.6117
  337MOL0     C46414   9.458   6.131   5.367  0.6199 -0.0454 -0.2095
  337MOL0     C46415   9.340   6.186   5.301 -0.7174 -0.3047  0.1682
  337MOL0     O46416   9.097   6.354   5.318 -0.6365  0.2570  0.3121
  337MOL0     C46417   8.999   6.357   4.973  0.1643 -0.7661 -0.0861
  337MOL0     C46418   8.898   6.412   4.883  0.5826 -0.3626 -0.8958
  337MOL0     N46419   8.312   6.729   4.443  0.5650  0.0898  0.5276
  337MOL0     N46420   8.184   6.723   4.409 -1.1329 -0.1582  0.3874
  337MOL0     C46421   7.096   6.764   4.094 -0.8114 -0.0587  0.2270
  337MOL0     C46422   7.020   6.731   3.973 -0.2216 -0.2581 -0.0818
  337MOL0     C46423   6.869   6.573   3.582  0.7584  0.1018  0.0625
  337MOL0     C46424   6.889   6.473   3.480 -0.0158 -0.0618  0.7325
  337MOL0     C46425   6.801   6.456   3.373  0.3858 -0.6715 -0.4075
  337MOL0     C46426   6.689   6.542   3.363  0.5192 -0.6566  0.8321
  337MOL0     O46427   6.603   6.552   3.261  0.4046  0.7740 -0.0047
  337MOL0     C46428   6.609   6.437   3.180  0.1110 -0.9248 -0.3709
  337MOL0     C46429   6.508   6.444   3.071 -0.5800 -1.2262  1.0916
  337MOL0     C46430   6.551   6.552   2.979  0.0053 -0.0116  0.1128
  337MOL0     C46431   6.468   6.681   3.003 -1.2690  1.0108  0.0120
  337MOL0     C46432   6.510   6.786   2.915 -0.2041 -0.1061  0.0278
  337MOL0     C46433   6.556   6.861   2.834  1.4110 -0.4073 -0.4002
  337MOL0     C46434   6.669   6.637   3.466 -0.3230  0.8467 -0.3160
  337MOL0     C46435   6.754   6.650   3.576  0.3037 -1.0214  1.3807
  337MOL0     C46436   6.723   6.762   3.665  0.4197 -0.0571 -0.8380
  337MOL0     H46437   7.251   6.758   3.733 -0.8393 -0.0429 -0.6203
  337MOL0     H46438   7.392   6.775   3.921  0.9039  1.3544  1.2009
  337MOL0     H46439   7.212   6.744   4.331 -0.8713  1.9683  1.1374
  337MOL0     H46440   7.291   6.909   4.339  0.5934  0.1343 -0.5826
  337MOL0     H46441   7.362   6.701   4.501  1.7866  1.1003  2.0081
  337MOL0     H46442   7.451   6.656   4.352  2.7909  1.1704  1.2911
  337MOL0     H46443   7.579   6.853   4.335 -2.2314 -0.1293 -1.0192
  337MOL0     H46444   7.508   6.937   4.460  2.5895  0.2241  0.0313
  337MOL0     H46445   7.690   6.848   4.567  1.1914 -0.8365 -0.0076
  337MOL0     H46446   7.549   6.750   4.619 -1.6713  1.3811 -1.4844
  337MOL0     H46447   7.752   6.695   4.399  0.1196  1.1597  0.3492
  337MOL0     H46448   7.632   6.570   4.439  4.4234 -3.2216 -2.8160
  337MOL0     H46449   7.734   6.596   4.685  1.3748  3.0984  0.1562
  337MOL0     H46450   7.784   6.473   4.574 -0.6740  0.7018  1.0520
  337MOL0     H46451   7.998   6.593   4.660  1.3888  0.1460 -1.7482
  337MOL0     H46452   7.936   6.737   4.582  0.6345  0.3231  1.0845
  337MOL0     H46453   7.984   6.466   4.440 -2.6740  0.5920 -4.2633
  337MOL0     H46454   7.954   6.623   4.363 -2.2961  1.1340  1.7201
  337MOL0     H46455   8.246   6.432   4.554 -0.3741 -2.4967 -4.5946
  337MOL0     H46456   8.550   6.646   4.514  1.2883 -0.8362 -0.9288
  337MOL0     H46457   8.511   6.489   4.582  0.6656  0.5522 -2.7575
  337MOL0     H46458   8.377   6.714   4.738  2.3002  2.2079  1.8340
  337MOL0     H46459   8.456   6.563   4.786  1.1268  1.1724  1.9260
  337MOL0     H46460   8.609   6.822   4.691 -2.3609  1.7072  1.2691
  337MOL0     H46461   8.575   6.776   4.859 -1.4103 -0.7274 -0.6577
  337MOL0     H46462   8.785   6.654   4.680  3.1581 -0.8238  0.7883
  337MOL0     H46463   8.792   6.725   4.836 -1.7656 -0.0263  0.6522
  337MOL0     H46464   8.720   6.593   5.112  1.0841  0.4013  1.2904
  337MOL0     H46465   8.998   6.582   5.340  0.7289  0.0617 -0.7386
  337MOL0     H46466   8.844   6.486   5.368  0.4201 -0.2945  0.4796
  337MOL0     H46467   8.829   6.639   5.299 -1.5071 -1.8853  1.1623
  337MOL0     H46468   9.479   6.375   5.056 -0.1981 -0.5926 -0.3697
  337MOL0     H46469   9.677   6.310   5.180 -0.9306  0.8747 -0.4377
  337MOL0     H46470   9.663   5.928   5.388 -0.8065  0.2237 -0.9056
  337MOL0     H46471   9.824   5.968   5.448 -0.8729  0.0443  4.0488
  337MOL0     H46472   9.597   6.046   5.609  1.0536  2.5686 -1.3433
  337MOL0     H46473   9.702   5.909   5.632 -3.0238  1.3007  2.5089
  337MOL0     H46474   9.766   6.202   5.640 -4.1177 -1.0484 -1.0335
  337MOL0     H46475   9.896   6.084   5.626  1.6280 -1.1560  2.8875
  337MOL0     H46476   9.789   5.982   5.849 -3.0619  0.4281  2.7081
  337MOL0     H46477   9.654   6.089   5.833 -0.0825 -2.5797  1.8024
  337MOL0     H46478   9.944   6.161   5.836 -0.3259 -0.5472 -0.0116
  337MOL0     H46479   9.812   6.286   5.841  1.4917  1.2702 -0.0353
  337MOL0     H46480   9.913   6.098   6.067  3.2000  2.1406 -1.9039
  337MOL0     H46481   9.755   6.169   6.077 -0.4425 -1.2019 -2.2759
  337MOL0     H46482   9.890   6.402   6.022  2.0303  0.2603 -1.2301
  337MOL0     H46483  10.026   6.302   6.055 -0.0320  2.4853 -0.9201
  337MOL0     H46484   9.977   6.421   6.245  0.5981 -0.0282  0.5234
  337MOL0     H46485   9.950   6.254   6.287 -1.5334 -0.0616  2.1211
  337MOL0     H46486   9.453   6.049   5.437  3.9800 -2.9068 -2.9296
  337MOL0     H46487   9.244   6.148   5.334 -1.0430 -0.3721 -0.8436
  337MOL0     H46488   9.070   6.279   4.948  1.9745  0.5497  0.6929
  337MOL0     H46489   8.901   6.368   4.784  1.9133 -3.6112  0.4360
  337MOL0     H46490   7.049   6.770   4.192  1.1059  1.9551  1.1032
  337MOL0     H46491   6.913   6.715   3.982 -0.9533  3.4511 -0.4919
  337MOL0     H46492   6.964   6.395   3.484 -0.0814 -0.1304  0.6426
  337MOL0     H46493   6.825   6.381   3.299 -1.1268 -2.0969  0.4831
  337MOL0     H46494   6.710   6.423   3.139  1.0858  1.8275  0.8478
  337MOL0     H46495   6.590   6.347   3.240 -1.4319  0.4827  1.3518
  337MOL0     H46496   6.409   6.450   3.118 -0.4551 -2.6231  1.5838
  337MOL0     H46497   6.511   6.345   3.025  1.0909 -0.6249 -0.1655
  337MOL0     H46498   6.660   6.559   2.975 -0.1266  2.0078 -1.3650
  337MOL0     H46499   6.524   6.519   2.878 -2.0865 -0.6420  0.8172
  337MOL0     H46500   6.467   6.720   3.105 -1.1199  0.7055  0.1334
  337MOL0     H46501   6.366   6.647   2.979 -0.8380  0.5268 -1.2186
  337MOL0     H46502   6.607   6.934   2.774  0.4039 -1.5723 -2.7944
  337MOL0     H46503   6.585   6.702   3.445  0.2378  2.4944  2.1041
  337MOL0     H46504   6.627   6.813   3.672  2.7002  4.4586  3.7824
  337MOL0     H46505   6.745   6.722   3.765  2.8460 -2.0573 -2.0649
  337MOL0     H46506   6.785   6.847   3.639 -1.4363  1.8811  0.6690
  338MOL0     O46507   7.102   8.243   3.045 -0.0916 -0.0651  0.4808
  338MOL0     C46508   7.025   8.249   3.140  0.1344  0.2554 -0.8463
  338MOL0     O46509   7.067   8.272   3.272 -0.1436 -0.0963  0.3781
  338MOL0     C46510   7.187   8.309   3.308  0.0196 -1.0706  0.2367
  338MOL0     C46511   7.295   8.360   3.229  0.9424 -0.3114 -0.2277
  338MOL0     C46512   7.423   8.387   3.281 -0.1595  0.0538 -0.2316
  338MOL0     C46513   7.451   8.349   3.419  0.6932 -0.6383 -0.5300
  338MOL0     O46514   7.575   8.363   3.475  0.3841  0.2027  0.7533
  338MOL0     C46515   7.666   8.466   3.426  0.6695 -0.0571 -0.5093
  338MOL0     C46516   7.762   8.500   3.541  0.4948  0.4685 -0.3178
  338MOL0     C46517   7.877   8.590   3.485 -0.2212 -0.5547  0.1797
  338MOL0     C46518   7.966   8.646   3.596 -0.1037  0.2825  1.6176
  338MOL0     C46519   8.079   8.724   3.523  0.2455  0.1169  1.2003
  338MOL0     C46520   8.173   8.780   3.634  0.1469  0.1177  0.6222
  338MOL0     C46521   8.291   8.857   3.575 -0.5663 -0.5156 -0.5779
  338MOL0     C46522   8.379   8.776   3.475 -0.8518 -0.2512  0.1299
  338MOL0     N46523   8.500   8.853   3.452  0.9574  0.7231  0.7844
  338MOL0     C46524   8.619   8.848   3.527  0.7302  0.4783 -0.0252
  338MOL0     C46525   8.706   8.934   3.462 -0.7421 -0.0947 -0.1244
  338MOL0     C46526   8.847   8.961   3.498  0.1567  0.7710 -0.9559
  338MOL0     C46527   8.842   9.099   3.583  0.6429  0.2152 -0.2993
  338MOL0     C46528   8.927   9.204   3.507 -0.7657 -0.5695  0.3104
  338MOL0     C46529   9.081   9.179   3.525  0.1397  0.0942 -0.1013
  338MOL0     O46530   9.120   9.177   3.666  0.5045  0.7516 -0.5579
  338MOL0     C46531   9.252   9.169   3.698 -0.3977  0.7758  0.4609
  338MOL0     C46532   9.291   9.149   3.832  0.1720  0.2300 -0.0276
  338MOL0     C46533   9.425   9.139   3.874  0.1244  1.4596 -0.1852
  338MOL0     C46534   9.456   9.141   4.019  0.0381 -0.9509 -0.2194
  338MOL0     C46535   9.523   9.129   3.766 -0.9477  0.3302  0.1867
  338MOL0     C46536   9.670   9.120   3.795  0.0744  0.5263  0.1175
  338MOL0     O46537   9.756   9.159   3.695 -0.3233 -0.2381 -0.3873
  338MOL0     C46538   9.891   9.149   3.712  0.4231 -0.5460  0.5627
  338MOL0     C46539   9.955   9.040   3.674 -0.1945  0.0348 -0.4494
  338MOL0     C46540  10.086   9.015   3.714  0.0113  0.7670  0.2261
  338MOL0     C46541  10.157   9.118   3.784  0.1209  0.0547 -1.0936
  338MOL0     O46542  10.285   9.117   3.827  0.1212  0.4351 -0.2957
  338MOL0     C46543  10.353   8.993   3.825 -0.0714 -0.5240 -0.7656
  338MOL0     C46544  10.473   8.990   3.920 -0.5882  0.7030 -1.2937
  338MOL0     C46545  10.598   9.054   3.860  0.4486  0.0756 -0.2448
  338MOL0     C46546  10.712   9.020   3.951 -0.1187  0.4487 -0.0201
  338MOL0     C46547  10.852   9.082   3.920  0.3045  1.0584  0.3103
  338MOL0     C46548  10.953   9.046   4.031 -0.1113  0.1174 -0.5094
  338MOL0     C46549  11.071   9.134   4.015  0.5344  0.0335 -0.0918
  338MOL0     C46550  11.184   9.089   4.113 -0.4242  0.5136  0.8185
  338MOL0    Cl46551  11.278   8.963   4.032  0.0234 -0.1975 -0.2331
  338MOL0     C46552  10.095   9.239   3.807 -0.7319 -0.1073 -0.0486
  338MOL0     C46553   9.963   9.249   3.787  0.1560 -0.5241 -0.1860
  338MOL0     O46554   9.700   9.053   3.893 -0.2263  0.1789  0.3220
  338MOL0     C46555   9.488   9.137   3.635 -0.1209  1.4135  0.9129
  338MOL0     C46556   9.354   9.150   3.601  0.2070 -0.4814 -0.2415
  338MOL0     N46557   8.648   8.984   3.347  0.4486 -0.3517 -0.1488
  338MOL0     N46558   8.526   8.934   3.345  0.0326 -0.2399  0.3799
  338MOL0     C46559   7.352   8.289   3.495 -0.0596  0.3436  0.6063
  338MOL0     C46560   7.225   8.262   3.439  0.0393 -0.0819 -0.0025
  338MOL0     C46561   6.886   8.234   3.109 -0.0920 -0.1068  0.0091
  338MOL0     C46562   6.842   8.261   2.981 -0.9814 -0.0240  0.6091
  338MOL0     C46563   6.702   8.253   2.947 -0.3870  0.3391 -0.0187
  338MOL0     C46564   6.616   8.212   3.052  0.6800 -0.1630  0.3884
  338MOL0     O46565   6.484   8.188   3.032 -0.5347  0.3288  0.0062
  338MOL0     C46566   6.412   8.275   2.938  0.7600  1.0944  0.7607
  338MOL0     C46567   6.285   8.340   3.003  0.2847  0.3102 -0.0968
  338MOL0     C46568   6.314   8.464   3.087 -0.0761 -0.0710 -0.1791
  338MOL0     C46569   6.376   8.575   2.999 -0.0435 -0.2202  0.6776
  338MOL0     C46570   6.298   8.601   2.881 -0.0302  0.6745  0.0356
  338MOL0     C46571   6.238   8.619   2.780  0.0698 -1.1807  0.0666
  338MOL0     C46572   6.655   8.189   3.178  0.2950 -0.4176  0.0438
  338MOL0     C46573   6.788   8.213   3.211 -0.0498 -1.0189 -0.8686
  338MOL0     C46574   6.831   8.179   3.356 -0.2212  0.3488 -0.1542
  338MOL0     H46575   7.272   8.381   3.125 -1.8569 -1.0321  0.1505
  338MOL0     H46576   7.504   8.424   3.218  0.0963 -0.8850 -0.4725
  338MOL0     H46577   7.613   8.556   3.393 -0.3183 -0.1869  0.6465
  338MOL0     H46578   7.720   8.418   3.344  0.2369  0.0023 -0.8344
  338MOL0     H46579   7.709   8.562   3.613  0.4056  1.0133 -0.8465
  338MOL0     H46580   7.809   8.409   3.580 -1.6809 -1.0349 -0.9797
  338MOL0     H46581   7.942   8.533   3.419 -0.6944  1.8269 -2.5525
  338MOL0     H46582   7.830   8.671   3.428  1.0799  0.5503  0.6235
  338MOL0     H46583   7.903   8.711   3.657  0.9397  0.8353  2.1223
  338MOL0     H46584   7.996   8.561   3.658  3.4823  2.1146  2.6723
  338MOL0     H46585   8.031   8.801   3.463 -0.3449 -1.3099 -0.2374
  338MOL0     H46586   8.130   8.656   3.455  1.6754  1.7752  0.5489
  338MOL0     H46587   8.116   8.852   3.693 -2.3094 -1.3959  0.2129
  338MOL0     H46588   8.206   8.698   3.699  0.3578 -1.5327 -1.4772
  338MOL0     H46589   8.356   8.879   3.659  0.1233 -1.9221 -0.7145
  338MOL0     H46590   8.254   8.953   3.537  0.0909  0.1807  0.4670
  338MOL0     H46591   8.408   8.683   3.525  0.3531  0.3234  0.5273
  338MOL0     H46592   8.325   8.750   3.383  0.0495  4.3229 -1.9371
  338MOL0     H46593   8.648   8.800   3.619 -0.6151  0.9544  0.6647
  338MOL0     H46594   8.899   8.976   3.403  0.6041 -0.9682 -1.0145
  338MOL0     H46595   8.894   8.888   3.564  1.3040  1.3454 -1.1065
  338MOL0     H46596   8.738   9.132   3.593  0.4147 -0.8787  1.3247
  338MOL0     H46597   8.870   9.076   3.686 -1.1586  1.9722  0.6444
  338MOL0     H46598   8.897   9.206   3.401 -0.3862  0.9769  0.2042
  338MOL0     H46599   8.910   9.306   3.542  0.3014 -0.7302  1.3326
  338MOL0     H46600   9.103   9.080   3.484 -2.3344 -0.0901 -1.1643
  338MOL0     H46601   9.132   9.254   3.464  1.1249  1.5207  2.3228
  338MOL0     H46602   9.211   9.152   3.906 -1.6269 -2.2382 -1.7013
  338MOL0     H46603   9.493   9.048   4.064 -0.4013  0.0794  2.4480
  338MOL0     H46604   9.376   9.179   4.082 -0.2569 -2.0932  0.1221
  338MOL0     H46605   9.537   9.211   4.043 -0.4536 -1.1904  2.3672
  338MOL0     H46606   9.900   8.965   3.618 -0.6017  0.5632 -0.7745
  338MOL0     H46607  10.122   8.919   3.678 -3.4322 -1.6321  2.4812
  338MOL0     H46608  10.283   8.918   3.864 -0.9081  1.0046  0.8134
  338MOL0     H46609  10.387   8.973   3.723 -0.3636 -1.7548 -0.6398
  338MOL0     H46610  10.455   9.046   4.013 -0.0088 -3.5381  1.6637
  338MOL0     H46611  10.482   8.885   3.950 -0.2499  1.0927  0.0655
  338MOL0     H46612  10.593   9.164   3.860  2.4092  0.2955  2.8248
  338MOL0     H46613  10.618   9.013   3.761 -0.2786 -3.4651  0.9362
  338MOL0     H46614  10.711   8.911   3.956 -3.6761  0.4107  0.7502
  338MOL0     H46615  10.697   9.036   4.059 -1.6106 -1.7659  0.1708
  338MOL0     H46616  10.878   9.048   3.819  2.6132 -1.9896  1.7703
  338MOL0     H46617  10.837   9.190   3.912  1.0756  1.3045  1.7551
  338MOL0     H46618  10.983   8.941   4.036 -0.7011  0.0071  3.2279
  338MOL0     H46619  10.920   9.073   4.132 -0.7206 -0.6143 -0.5057
  338MOL0     H46620  11.040   9.235   4.042 -0.8928 -0.0672 -1.2598
  338MOL0     H46621  11.107   9.118   3.913  2.9828 -2.1577  0.9868
  338MOL0     H46622  11.145   9.057   4.209 -0.6721  0.2611  0.6335
  338MOL0     H46623  11.253   9.173   4.128  1.0371 -0.2964 -0.8705
  338MOL0     H46624  10.162   9.321   3.832 -0.6904  0.4683 -1.8561
  338MOL0     H46625   9.908   9.334   3.827  0.3810 -0.3379 -0.2663
  338MOL0     H46626   9.568   9.141   3.563 -1.3013 -0.8418 -0.6401
  338MOL0     H46627   9.346   9.165   3.494  2.2414 -1.5503 -0.5956
  338MOL0     H46628   7.382   8.267   3.597 -0.7038 -1.6850  0.4150
  338MOL0     H46629   7.149   8.212   3.499 -1.2557  0.9082 -0.7500
  338MOL0     H46630   6.917   8.288   2.908 -1.5294 -0.4904 -0.1478
  338MOL0     H46631   6.663   8.272   2.847 -1.9308 -1.1574  0.2644
  338MOL0     H46632   6.472   8.344   2.877  2.2203  1.0098  2.0423
  338MOL0     H46633   6.363   8.205   2.871 -1.1305 -0.0043  3.1483
  338MOL0     H46634   6.249   8.261   3.070 -3.8374  1.7027 -0.3989
  338MOL0     H46635   6.211   8.357   2.924 -2.0398  0.0021  1.8818
  338MOL0     H46636   6.226   8.506   3.136 -0.6787  0.4362 -1.6471
  338MOL0     H46637   6.389   8.440   3.163 -0.4285  0.5608  0.3782
  338MOL0     H46638   6.475   8.550   2.959  0.9429  4.0186 -0.0283
  338MOL0     H46639   6.382   8.668   3.055  0.4507  0.6156 -0.7001
  338MOL0     H46640   6.184   8.633   2.688  0.8376  2.6410  0.0650
  338MOL0     H46641   6.576   8.162   3.247  0.6001 -0.6950  0.2913
  338MOL0     H46642   6.743   8.147   3.414  1.2871 -1.6266  1.1759
  338MOL0     H46643   6.906   8.100   3.365 -0.2575  0.5538  3.1485
  338MOL0     H46644   6.867   8.270   3.404  1.2641  0.1151 -0.7908
  339MOL0     O46645   6.473   1.295   9.755  0.0988  0.1278 -1.1399
  339MOL0     C46646   6.567   1.220   9.754 -1.1651  0.1160 -0.5898
  339MOL0     O46647   6.600   1.133   9.852 -0.1927  0.1956 -0.1359
  339MOL0     C46648   6.535   1.108   9.970  0.9936 -0.3376  0.7482
  339MOL0     C46649   6.462   1.205  10.049  0.0274  0.2927  0.3988
  339MOL0     C46650   6.412   1.176  10.178 -0.1632  1.2746  0.2988
  339MOL0     C46651   6.417   1.047  10.219 -1.3337  0.0204 -0.9124
  339MOL0     O46652   6.372   1.013  10.338  0.8336 -0.4093  0.0808
  339MOL0     C46653   6.440   0.938  10.437  0.3530 -0.1457  0.7317
  339MOL0     C46654   6.502   1.033  10.538 -0.3995 -0.5960  0.3234
  339MOL0     C46655   6.608   1.123  10.473  0.2946 -0.0029 -0.0380
  339MOL0     C46656   6.681   1.210  10.578 -0.4505 -0.3010 -0.1542
  339MOL0     C46657   6.778   1.305  10.519 -0.4975 -0.7818 -0.1322
  339MOL0     C46658   6.834   1.399  10.634  0.1283 -0.4407 -0.0757
  339MOL0     C46659   6.959   1.470  10.597  0.5053 -0.3333  0.0403
  339MOL0     C46660   6.948   1.566  10.474 -0.1149  0.5585  0.1104
  339MOL0     N46661   7.040   1.680  10.498  0.5330 -0.2851 -0.7600
  339MOL0     C46662   7.175   1.680  10.472  0.6942  0.2204  0.1830
  339MOL0     C46663   7.220   1.806  10.491  0.6385 -0.7042  0.3464
  339MOL0     C46664   7.346   1.876  10.455 -0.0769  0.4938  0.3934
  339MOL0     C46665   7.473   1.815  10.524 -1.0800 -0.0098 -0.3365
  339MOL0     C46666   7.456   1.789  10.676  0.3334  0.5501  0.2079
  339MOL0     C46667   7.588   1.753  10.752 -0.3043 -0.1095 -0.6199
  339MOL0     O46668   7.686   1.839  10.700 -0.3059  0.6212  0.7628
  339MOL0     C46669   7.812   1.841  10.740 -0.0683  0.0206  1.4605
  339MOL0     C46670   7.903   1.932  10.679  0.1382  0.4133 -0.2334
  339MOL0     C46671   8.036   1.937  10.722 -0.2357 -0.2093  0.9817
  339MOL0     C46672   8.132   2.032  10.658 -0.7770 -0.5899 -0.1828
  339MOL0     C46673   8.084   1.862  10.834  0.0117 -0.0505 -0.4580
  339MOL0     C46674   8.225   1.858  10.886 -0.1957 -0.4082  0.3336
  339MOL0     O46675   8.244   1.826  11.012  0.3447  0.6806 -0.0789
  339MOL0     C46676   8.371   1.817  11.055  0.1475  0.0344 -0.0258
  339MOL0     C46677   8.435   1.697  11.077  0.3903  0.6322  0.0878
  339MOL0     C46678   8.565   1.694  11.127 -1.1419  0.1134  0.5910
  339MOL0     C46679   8.645   1.803  11.147  0.6825  0.2015  0.0029
  339MOL0     O46680   8.777   1.795  11.184 -0.9096  0.9938 -0.0529
  339MOL0     C46681   8.857   1.822  11.070 -0.4460  0.2284 -0.1479
  339MOL0     C46682   8.988   1.753  11.103  0.5946  0.1893 -0.2206
  339MOL0     C46683   9.093   1.835  11.175  0.2034  0.1734 -0.4119
  339MOL0     C46684   9.216   1.754  11.231  0.9497 -0.8476  0.2527
  339MOL0     C46685   9.317   1.845  11.304 -0.2063 -0.0992  0.6129
  339MOL0     C46686   9.449   1.770  11.313 -0.2249  0.3703 -0.6015
  339MOL0     C46687   9.566   1.854  11.382  0.2908 -1.3905 -0.5909
  339MOL0     C46688   9.683   1.771  11.419 -0.2027 -0.5066 -1.0639
  339MOL0    Cl46689   9.771   1.683  11.285  0.0288 -0.4019 -0.2957
  339MOL0     C46690   8.585   1.923  11.120  0.1826 -1.1270  0.0478
  339MOL0     C46691   8.453   1.934  11.078 -0.2437  0.8528 -0.5769
  339MOL0     O46692   8.315   1.863  10.801 -0.1971 -0.9225  0.5124
  339MOL0     C46693   7.991   1.783  10.908  0.2720  0.0507 -0.3300
  339MOL0     C46694   7.860   1.766  10.852  0.6537 -0.0318 -0.1865
  339MOL0     N46695   7.107   1.882  10.528 -1.0454  0.0003 -0.6040
  339MOL0     N46696   7.005   1.804  10.537 -0.2782  0.3012  0.1764
  339MOL0     C46697   6.481   0.947  10.136  0.2674 -0.0996  0.7230
  339MOL0     C46698   6.531   0.980  10.010 -0.6294 -0.3394 -0.1542
  339MOL0     C46699   6.658   1.229   9.638  0.0003 -1.3832  0.0667
  339MOL0     C46700   6.638   1.327   9.540 -0.5417  0.2634  0.4531
  339MOL0     C46701   6.725   1.336   9.432  0.2888 -0.1146 -0.0300
  339MOL0     C46702   6.827   1.249   9.412  0.3765 -0.5882 -0.1286
  339MOL0     O46703   6.911   1.255   9.308 -0.2127 -0.1140 -0.2130
  339MOL0     C46704   6.868   1.303   9.186 -0.4700 -0.2157  0.4714
  339MOL0     C46705   6.987   1.296   9.090 -0.1100  0.0635  0.8458
  339MOL0     C46706   6.970   1.379   8.964 -0.6007 -0.5846  0.5516
  339MOL0     C46707   7.078   1.360   8.863 -1.2224 -0.2595  0.5815
  339MOL0     C46708   7.056   1.448   8.747  0.2786 -0.0110  0.6701
  339MOL0     C46709   7.037   1.517   8.648  0.1164  0.5361  0.0112
  339MOL0     C46710   6.840   1.143   9.504  0.5222 -0.1541  0.4154
  339MOL0     C46711   6.759   1.138   9.617  0.1873  0.9637  0.4434
  339MOL0     C46712   6.789   1.015   9.697  0.9984  0.1855 -0.8038
  339MOL0     H46713   6.451   1.307  10.013 -0.4612  0.0692 -0.0992
  339MOL0     H46714   6.370   1.255  10.240 -1.0602 -0.0461  1.4413
  339MOL0     H46715   6.523   0.889  10.385  1.6604  0.4121  2.2018
  339MOL0     H46716   6.372   0.867  10.485  1.0150 -0.8848  0.6027
  339MOL0     H46717   6.422   1.100  10.569 -1.3806 -1.7245  0.3248
  339MOL0     H46718   6.548   0.975  10.618  1.6846 -0.1468 -0.4779
  339MOL0     H46719   6.685   1.070  10.416  1.2152  0.1343  1.0292
  339MOL0     H46720   6.560   1.200  10.412  1.1734  0.2824 -0.3939
  339MOL0     H46721   6.611   1.263  10.643  0.9107  1.4335 -0.0511
  339MOL0     H46722   6.732   1.144  10.648 -0.2625 -0.8416 -0.7876
  339MOL0     H46723   6.735   1.368  10.442  0.0869 -0.5109 -0.2437
  339MOL0     H46724   6.859   1.256  10.464 -1.7286 -1.1502 -1.6686
  339MOL0     H46725   6.754   1.470  10.661 -0.4663 -1.0122 -0.3127
  339MOL0     H46726   6.855   1.333  10.719  0.5391 -0.5689 -0.2754
  339MOL0     H46727   7.037   1.400  10.568  0.4386  0.0946 -1.2469
  339MOL0     H46728   6.988   1.527  10.686  4.2236  0.8891 -1.7191
  339MOL0     H46729   6.958   1.519  10.375 -1.2542 -1.8785  1.0856
  339MOL0     H46730   6.847   1.607  10.484  0.4263  2.8568 -2.3783
  339MOL0     H46731   7.236   1.597  10.439 -1.3562 -1.0015 -0.7407
  339MOL0     H46732   7.331   1.984  10.468  0.3876  0.8406 -1.5420
  339MOL0     H46733   7.369   1.875  10.348  3.1846  0.3716  0.9812
  339MOL0     H46734   7.507   1.729  10.465  0.6451 -0.3118  1.0108
  339MOL0     H46735   7.538   1.901  10.509  0.0954 -0.7950  0.0704
  339MOL0     H46736   7.406   1.878  10.716 -2.1386 -0.1291 -1.1733
  339MOL0     H46737   7.389   1.707  10.702  0.8605  0.8587  2.8374
  339MOL0     H46738   7.578   1.771  10.860 -1.1605  2.4933 -1.0640
  339MOL0     H46739   7.610   1.647  10.737 -0.5123 -0.3142  0.4633
  339MOL0     H46740   7.861   1.983  10.593 -3.1119  1.3552  1.7219
  339MOL0     H46741   8.174   2.090  10.741 -3.4317  1.9286 -0.4200
  339MOL0     H46742   8.081   2.116  10.609  2.6815  1.8984  0.1174
  339MOL0     H46743   8.211   1.996  10.592 -0.7411 -1.3693  0.2772
  339MOL0     H46744   8.383   1.605  11.052 -2.1787  1.5179  1.7517
  339MOL0     H46745   8.610   1.595  11.131 -2.1430 -0.4171 -0.6388
  339MOL0     H46746   8.821   1.777  10.977  1.6541 -1.2898 -0.3058
  339MOL0     H46747   8.865   1.931  11.058  2.4919 -0.0589 -1.8537
  339MOL0     H46748   8.964   1.663  11.160  1.2317 -0.1863 -0.5397
  339MOL0     H46749   9.033   1.712  11.013 -0.5215 -0.6289 -0.4308
  339MOL0     H46750   9.059   1.901  11.255 -1.0272 -2.7129  1.6293
  339MOL0     H46751   9.133   1.897  11.095 -1.9831  0.9159 -1.0018
  339MOL0     H46752   9.260   1.712  11.140  1.7576 -1.6880  1.0121
  339MOL0     H46753   9.186   1.670  11.294 -0.9197 -1.8503 -1.8215
  339MOL0     H46754   9.333   1.935  11.244 -0.1918 -0.8500 -0.5610
  339MOL0     H46755   9.281   1.869  11.404  1.5652  3.2837  0.5558
  339MOL0     H46756   9.479   1.748  11.210 -1.0511 -3.8053 -0.1124
  339MOL0     H46757   9.432   1.679  11.371 -2.0195  0.2099 -1.3032
  339MOL0     H46758   9.520   1.901  11.469 -1.5631 -0.5804 -1.9441
  339MOL0     H46759   9.596   1.941  11.323  0.3926 -1.8163 -1.1769
  339MOL0     H46760   9.643   1.695  11.486 -2.1126  1.7026  0.4604
  339MOL0     H46761   9.754   1.835  11.474 -0.9555  2.1214 -2.9515
  339MOL0     H46762   8.647   2.010  11.137  0.4593 -0.9680 -1.5551
  339MOL0     H46763   8.417   2.034  11.055  1.6528  1.5093 -0.8740
  339MOL0     H46764   8.020   1.737  11.002  1.3382  1.3347 -0.0031
  339MOL0     H46765   7.803   1.696  10.912  2.1862 -1.6110 -0.5161
  339MOL0     H46766   6.471   0.843  10.166  0.4919 -0.8751 -1.6949
  339MOL0     H46767   6.580   0.905   9.949 -0.0977 -0.9182  0.9618
  339MOL0     H46768   6.559   1.397   9.564 -0.0919  0.8854  0.1370
  339MOL0     H46769   6.712   1.419   9.364 -3.2847 -1.5446 -1.3435
  339MOL0     H46770   6.787   1.238   9.149 -1.1488  0.7285  0.2688
  339MOL0     H46771   6.836   1.407   9.198  1.5302  0.7222 -1.6857
  339MOL0     H46772   6.996   1.189   9.071 -1.8923  0.0709 -0.2725
  339MOL0     H46773   7.070   1.327   9.154 -0.1392  1.6039  0.1767
  339MOL0     H46774   6.874   1.346   8.922 -1.4877 -0.7249  2.5659
  339MOL0     H46775   6.974   1.486   8.989  0.6168 -0.2880 -0.7938
  339MOL0     H46776   7.085   1.261   8.818 -1.6494 -0.2377  0.4646
  339MOL0     H46777   7.174   1.386   8.910 -0.9097  0.2049 -0.2972
  339MOL0     H46778   7.000   1.576   8.567  3.4302  3.2393  0.2810
  339MOL0     H46779   6.911   1.064   9.486 -1.0171 -1.7426  0.9574
  339MOL0     H46780   6.874   1.035   9.763 -1.3289  1.9610  1.8955
  339MOL0     H46781   6.705   0.974   9.752 -0.0089  3.6010  0.4887
  339MOL0     H46782   6.819   0.932   9.633 -0.9301 -1.1990  0.0110
  340MOL0     O46783   3.505   5.496   3.819  0.5027  0.0768  0.0843
  340MOL0     C46784   3.490   5.598   3.876  0.1876  0.0247 -0.0002
  340MOL0     O46785   3.590   5.654   3.955  0.2607 -0.7963  0.3999
  340MOL0     C46786   3.707   5.595   3.990 -0.7626 -0.0085 -0.2720
  340MOL0     C46787   3.776   5.494   3.923 -0.0929 -0.1282  0.0225
  340MOL0     C46788   3.899   5.438   3.973  1.4033  0.2199  0.6488
  340MOL0     C46789   3.960   5.498   4.086  0.2981  0.1272  0.1921
  340MOL0     O46790   4.065   5.435   4.143 -0.5296 -0.2261 -0.3310
  340MOL0     C46791   4.133   5.466   4.264 -0.3522 -1.0820 -0.7865
  340MOL0     C46792   4.204   5.341   4.315  0.4191  0.0532 -0.0751
  340MOL0     C46793   4.116   5.229   4.377 -0.5167  0.3449 -0.1114
  340MOL0     C46794   4.195   5.114   4.414 -0.0018  0.4003  0.2774
  340MOL0     C46795   4.120   4.996   4.467  0.5540  0.3821  0.9294
  340MOL0     C46796   4.217   4.873   4.496  0.0741  0.3540  0.2612
  340MOL0     C46797   4.141   4.747   4.496  0.6256 -0.0359  0.2394
  340MOL0     C46798   4.068   4.709   4.627 -0.1289 -0.4753 -0.1762
  340MOL0     N46799   4.155   4.693   4.740 -0.2426 -0.5070  0.6216
  340MOL0     C46800   4.144   4.764   4.853  0.1110 -0.3838  0.6577
  340MOL0     C46801   4.257   4.760   4.924 -0.4926  0.2696  0.5245
  340MOL0     C46802   4.290   4.822   5.055 -0.7667  0.4427  0.9142
  340MOL0     C46803   4.251   4.977   5.053  0.5740 -0.1607 -0.3209
  340MOL0     C46804   4.297   5.055   4.933 -0.0386 -0.1761  0.6249
  340MOL0     C46805   4.442   5.044   4.876 -0.1158 -0.2344 -0.4196
  340MOL0     O46806   4.537   5.051   4.986  0.6736  0.1518 -0.2216
  340MOL0     C46807   4.671   5.051   4.963  0.8395  0.6640 -0.9942
  340MOL0     C46808   4.750   5.079   5.066 -0.7284 -0.4217 -0.2094
  340MOL0     C46809   4.892   5.077   5.067  0.1171  0.1076 -0.9708
  340MOL0     C46810   4.973   5.118   5.195  0.5286 -0.1164  0.0794
  340MOL0     C46811   4.954   5.045   4.942  0.4791  0.2613 -0.6186
  340MOL0     C46812   5.099   5.048   4.930  0.9010 -0.2833  0.2001
  340MOL0     O46813   5.180   4.974   5.027  0.3036  0.1516  1.4088
  340MOL0     C46814   5.312   4.960   5.003 -0.3622  0.0552  0.1615
  340MOL0     C46815   5.370   4.833   5.029 -0.0054 -1.1647  0.1360
  340MOL0     C46816   5.512   4.811   5.026 -0.6911  0.1133 -0.0080
  340MOL0     C46817   5.594   4.919   5.005 -0.5440 -0.4391  0.0249
  340MOL0     O46818   5.724   4.887   5.030 -0.3006  0.0372 -0.1879
  340MOL0     C46819   5.823   4.916   4.925 -0.0072 -0.2431 -0.2710
  340MOL0     C46820   5.970   4.912   4.978  0.3939  0.7006 -0.0048
  340MOL0     C46821   5.987   4.788   5.071 -0.4959  0.0516 -0.2121
  340MOL0     C46822   6.131   4.762   5.109 -0.5238  0.8663 -0.4353
  340MOL0     C46823   6.154   4.674   5.225  0.2591 -0.1260  0.6209
  340MOL0     C46824   6.293   4.600   5.222  0.2080 -0.7279 -0.2775
  340MOL0     C46825   6.298   4.502   5.344 -0.2596 -0.2041  0.1938
  340MOL0     C46826   6.444   4.456   5.387  0.8837 -0.6683  0.5699
  340MOL0    Cl46827   6.523   4.602   5.448  0.0380 -0.4117  0.2613
  340MOL0     C46828   5.540   5.051   4.978  0.1993  0.2288 -0.4471
  340MOL0     C46829   5.399   5.065   4.973 -0.1739  0.4100 -0.1186
  340MOL0     O46830   5.139   5.097   4.823 -0.2416 -0.2186  0.2459
  340MOL0     C46831   4.871   5.029   4.832 -0.2326 -0.4353  0.7184
  340MOL0     C46832   4.735   5.028   4.838  0.4387  0.6376  0.8250
  340MOL0     N46833   4.344   4.684   4.851  0.0548 -0.1595 -0.8467
  340MOL0     N46834   4.280   4.648   4.744  0.1666  0.3384 -0.9385
  340MOL0     C46835   3.892   5.609   4.155 -0.3226  0.8831 -0.6045
  340MOL0     C46836   3.767   5.656   4.109 -0.3267 -0.0718 -0.3350
  340MOL0     C46837   3.354   5.664   3.864 -0.2149  0.5821 -1.3206
  340MOL0     C46838   3.322   5.751   3.977  0.6019 -0.4922  0.5847
  340MOL0     C46839   3.198   5.822   3.981  0.4303  1.1187 -0.3278
  340MOL0     C46840   3.098   5.799   3.885  0.3900 -0.2601 -0.2640
  340MOL0     O46841   2.982   5.864   3.911  0.4089 -0.3247  0.3484
  340MOL0     C46842   2.874   5.847   3.826 -0.0927  0.0595 -0.1302
  340MOL0     C46843   2.742   5.864   3.906  0.2136  0.2428 -0.4228
  340MOL0     C46844   2.625   5.832   3.804  0.6129 -0.3811 -0.0656
  340MOL0     C46845   2.482   5.869   3.859 -0.0505  0.1259 -0.1056
  340MOL0     C46846   2.449   6.007   3.841 -0.5569 -0.4082  1.3748
  340MOL0     C46847   2.440   6.128   3.817  0.8285 -0.2335  0.6725
  340MOL0     C46848   3.128   5.711   3.779  0.6942 -0.6180 -1.4079
  340MOL0     C46849   3.248   5.640   3.770 -0.2791  0.2398  0.0874
  340MOL0     C46850   3.277   5.560   3.644 -0.6350  0.2872  0.1602
  340MOL0     H46851   3.715   5.465   3.839 -1.5465  2.4064  0.1211
  340MOL0     H46852   3.928   5.344   3.927 -0.0795  0.1409 -0.1666
  340MOL0     H46853   4.070   5.493   4.350 -0.1512  0.7907 -1.1852
  340MOL0     H46854   4.205   5.548   4.252 -1.7729  0.0370 -2.0783
  340MOL0     H46855   4.256   5.302   4.227 -0.5154 -3.5964  0.8439
  340MOL0     H46856   4.278   5.378   4.386 -0.3166 -1.0201  1.3034
  340MOL0     H46857   4.059   5.264   4.464 -0.2719  0.5901 -0.0479
  340MOL0     H46858   4.053   5.186   4.299 -1.1663  0.2551  0.4481
  340MOL0     H46859   4.264   5.082   4.335 -0.4340  0.6258 -0.2045
  340MOL0     H46860   4.267   5.145   4.490  0.2791 -1.0180  0.6172
  340MOL0     H46861   4.048   4.980   4.386  1.8139  0.1252 -0.1582
  340MOL0     H46862   4.068   5.016   4.562  2.3799 -0.0213  2.0488
  340MOL0     H46863   4.293   4.873   4.417  2.0197  0.1500  2.0608
  340MOL0     H46864   4.273   4.878   4.589 -2.8041 -3.3600  2.4852
  340MOL0     H46865   4.202   4.658   4.479 -2.3967 -2.8489  2.6513
  340MOL0     H46866   4.078   4.739   4.407  0.5974 -2.7655  0.4157
  340MOL0     H46867   3.996   4.786   4.655 -0.3240 -0.6461 -0.2058
  340MOL0     H46868   4.014   4.614   4.615 -0.3559 -0.2863 -0.6663
  340MOL0     H46869   4.060   4.830   4.869  0.2948  0.7766 -2.5287
  340MOL0     H46870   4.395   4.809   5.085 -0.9437  3.0623  3.0469
  340MOL0     H46871   4.234   4.771   5.134  0.7585 -1.3353  0.9346
  340MOL0     H46872   4.143   4.988   5.057  0.6796  0.7471  0.3493
  340MOL0     H46873   4.304   5.020   5.139  0.6490 -1.3690  0.2684
  340MOL0     H46874   4.224   5.042   4.853 -2.9448  4.2735  2.1614
  340MOL0     H46875   4.273   5.160   4.955 -1.7411 -0.6993  1.4399
  340MOL0     H46876   4.462   4.947   4.828  1.6647 -0.1436  0.0695
  340MOL0     H46877   4.449   5.124   4.802 -1.9484  0.3186 -0.0471
  340MOL0     H46878   4.698   5.103   5.158  0.8096  2.7266 -0.0488
  340MOL0     H46879   5.009   5.027   5.244  0.5185 -1.0475 -1.5519
  340MOL0     H46880   4.915   5.182   5.262 -0.3767  2.2684 -2.7304
  340MOL0     H46881   5.065   5.170   5.167  0.8617 -0.2746  0.8681
  340MOL0     H46882   5.308   4.750   5.061 -0.3119 -1.8118 -1.9657
  340MOL0     H46883   5.549   4.711   5.046 -3.2384 -0.5928  1.6466
  340MOL0     H46884   5.800   4.839   4.851 -1.7867  1.0053 -1.0704
  340MOL0     H46885   5.807   5.014   4.879 -3.3384 -0.3009  0.5001
  340MOL0     H46886   6.032   4.896   4.890  2.1649  2.1958  0.8977
  340MOL0     H46887   5.988   5.005   5.032  1.8062  1.4418 -1.6700
  340MOL0     H46888   5.941   4.699   5.027 -0.6245 -0.9262  1.7769
  340MOL0     H46889   5.944   4.813   5.169  0.4677 -1.5884  0.6849
  340MOL0     H46890   6.186   4.851   5.140  1.9448 -1.2033  1.6066
  340MOL0     H46891   6.176   4.720   5.018 -2.9465  1.1616 -1.8720
  340MOL0     H46892   6.133   4.731   5.316  0.2046 -0.3365  0.7383
  340MOL0     H46893   6.078   4.597   5.214  0.9219 -0.7688  0.4487
  340MOL0     H46894   6.376   4.670   5.208  0.0161 -0.5982 -0.8323
  340MOL0     H46895   6.293   4.547   5.126  0.5005  0.7348 -1.1248
  340MOL0     H46896   6.246   4.407   5.328 -0.0796 -0.1825 -0.5619
  340MOL0     H46897   6.260   4.556   5.431  2.5271  0.5672  1.0306
  340MOL0     H46898   6.504   4.417   5.304  1.2804 -0.0621  0.5605
  340MOL0     H46899   6.439   4.377   5.461 -2.8311 -0.2564  0.9541
  340MOL0     H46900   5.608   5.133   4.962 -0.7219  0.8163 -1.4449
  340MOL0     H46901   5.360   5.163   4.948  1.2017  0.8439 -0.6721
  340MOL0     H46902   4.916   5.003   4.736  2.1719  1.7478  1.1534
  340MOL0     H46903   4.677   4.998   4.752  1.2291  3.7826 -0.9342
  340MOL0     H46904   3.940   5.656   4.240  0.1103  0.4651 -0.6115
  340MOL0     H46905   3.722   5.746   4.151 -0.4889 -0.3339  0.0558
  340MOL0     H46906   3.405   5.771   4.044  3.3103  0.1368 -2.7148
  340MOL0     H46907   3.180   5.892   4.062 -1.1777 -0.9665  1.2498
  340MOL0     H46908   2.872   5.923   3.747 -0.1864 -1.6565 -1.8320
  340MOL0     H46909   2.866   5.747   3.784  0.0215 -0.5195  1.1874
  340MOL0     H46910   2.739   5.967   3.941 -0.3090 -0.6513  2.3940
  340MOL0     H46911   2.731   5.797   3.992 -0.9760  0.0102 -0.7299
  340MOL0     H46912   2.635   5.895   3.715  1.9665  4.7096  3.2444
  340MOL0     H46913   2.615   5.727   3.774  0.3915  0.4195 -3.1548
  340MOL0     H46914   2.478   5.841   3.965  1.4325 -1.0459 -0.3292
  340MOL0     H46915   2.412   5.802   3.808  0.9242 -3.2768  2.6162
  340MOL0     H46916   2.419   6.229   3.789  0.6321  0.1085  1.9816
  340MOL0     H46917   3.060   5.694   3.697  0.5871 -0.1985 -1.4074
  340MOL0     H46918   3.328   5.466   3.667 -2.0146 -1.4413 -3.2629
  340MOL0     H46919   3.189   5.541   3.583  0.9957 -0.8843 -1.9525
  340MOL0     H46920   3.349   5.607   3.576 -0.1492  0.9861  1.1223
  341MOL0     O46921   6.995   5.051  11.052 -0.4136 -0.3322  0.5588
  341MOL0     C46922   6.983   5.037  11.173 -0.4589  0.2557 -0.4137
  341MOL0     O46923   7.087   5.029  11.265 -0.6550  0.1467  0.7730
  341MOL0     C46924   7.206   4.967  11.227  0.3707  0.1105  0.2587
  341MOL0     C46925   7.316   5.011  11.299  0.1382 -0.4889  0.4002
  341MOL0     C46926   7.438   4.958  11.263 -0.0619 -0.1988  0.5469
  341MOL0     C46927   7.455   4.863  11.157  0.1609  0.3640 -0.7011
  341MOL0     O46928   7.579   4.811  11.117  0.1976 -0.7930  0.0429
  341MOL0     C46929   7.695   4.872  11.163 -0.1567 -0.0846 -0.6916
  341MOL0     C46930   7.807   4.842  11.064  0.0423  0.6693  0.4236
  341MOL0     C46931   7.945   4.881  11.125 -0.5360  0.1803 -0.1703
  341MOL0     C46932   8.058   4.834  11.031 -0.7632  0.0184  0.3758
  341MOL0     C46933   8.184   4.904  11.050  0.4153 -0.6318  0.4906
  341MOL0     C46934   8.292   4.854  10.959 -0.2920  0.5119  0.2127
  341MOL0     C46935   8.419   4.939  10.975 -0.2115  0.0706  0.6881
  341MOL0     C46936   8.546   4.859  10.911  0.0337 -0.0406  0.6920
  341MOL0     N46937   8.676   4.881  10.979 -0.0226  0.8432  0.4743
  341MOL0     C46938   8.709   4.835  11.108  0.6132 -1.1747 -0.2278
  341MOL0     C46939   8.836   4.830  11.118 -0.2960  0.4081 -0.2013
  341MOL0     C46940   8.924   4.811  11.237 -0.2584  0.4899 -0.1748
  341MOL0     C46941   9.029   4.698  11.239 -0.7760  0.3964  0.2946
  341MOL0     C46942   9.094   4.671  11.381 -0.1638 -0.4317  0.3833
  341MOL0     C46943   9.142   4.521  11.387 -0.6845 -0.0094  0.3656
  341MOL0     O46944   9.159   4.487  11.526 -0.2617  0.0286  0.0954
  341MOL0     C46945   9.295   4.458  11.564  1.1037 -1.1406  0.6758
  341MOL0     C46946   9.320   4.341  11.638  0.0015  0.6065 -0.1668
  341MOL0     C46947   9.452   4.304  11.674  0.0516  0.4988 -0.6136
  341MOL0     C46948   9.465   4.168  11.745  0.5597 -0.5407 -0.8736
  341MOL0     C46949   9.563   4.390  11.654  0.3318  0.3403  0.6610
  341MOL0     C46950   9.700   4.367  11.694 -0.4425 -0.8204 -0.2054
  341MOL0     O46951   9.792   4.460  11.659  0.3353 -0.2123 -0.1963
  341MOL0     C46952   9.919   4.435  11.706 -0.2817  0.3101 -0.0394
  341MOL0     C46953   9.956   4.478  11.833 -1.2295 -0.3230 -0.6402
  341MOL0     C46954  10.092   4.461  11.878 -0.5501  0.0184 -0.5279
  341MOL0     C46955  10.187   4.401  11.797  1.0994  0.3002  0.1543
  341MOL0     O46956  10.314   4.384  11.842 -0.1136  0.5527  0.0836
  341MOL0     C46957  10.420   4.341  11.762 -0.4426  0.0139  0.6313
  341MOL0     C46958  10.550   4.349  11.834 -0.4588  0.6365 -0.0344
  341MOL0     C46959  10.667   4.280  11.757 -0.1089  0.3003  0.2836
  341MOL0     C46960  10.796   4.275  11.841  0.1705 -0.1886  0.7846
  341MOL0     C46961  10.913   4.273  11.753 -0.2087 -0.3607 -0.2343
  341MOL0     C46962  11.044   4.284  11.830 -1.5105 -0.3502  0.7085
  341MOL0     C46963  11.157   4.226  11.738 -0.2801 -0.4832  0.4540
  341MOL0     C46964  11.287   4.220  11.817  0.3873 -0.1463 -0.5690
  341MOL0    Cl46965  11.437   4.164  11.727  0.0573  0.2644 -0.0452
  341MOL0     C46966  10.156   4.370  11.663  0.0423 -0.4344 -0.6326
  341MOL0     C46967  10.023   4.380  11.622  0.2513 -0.7616  0.0806
  341MOL0     O46968   9.721   4.254  11.731 -0.1151 -0.0943  0.7584
  341MOL0     C46969   9.525   4.518  11.585 -0.3389  0.8138 -0.1908
  341MOL0     C46970   9.400   4.547  11.542 -0.9917 -0.3186 -0.3794
  341MOL0     N46971   8.883   4.869  11.000 -0.0700  0.0087  0.4674
  341MOL0     N46972   8.786   4.908  10.919  0.2493  0.0049 -0.0436
  341MOL0     C46973   7.339   4.817  11.087  0.5500 -0.3097  0.0478
  341MOL0     C46974   7.215   4.867  11.122  0.3857 -0.1926 -0.4354
  341MOL0     C46975   6.849   5.018  11.224  0.8475  0.1755  0.2409
  341MOL0     C46976   6.742   4.980  11.131  0.0153  0.8886  0.6892
  341MOL0     C46977   6.609   4.958  11.170 -0.2018  0.1483 -0.2544
  341MOL0     C46978   6.578   4.978  11.305  0.4675 -0.3978  0.3338
  341MOL0     O46979   6.448   4.974  11.355 -0.2602  0.2685 -0.4840
  341MOL0     C46980   6.418   4.854  11.429  0.3457  0.8725  0.0316
  341MOL0     C46981   6.388   4.731  11.339 -0.2430  0.2769  0.0474
  341MOL0     C46982   6.290   4.766  11.218 -0.2924  0.3494 -0.5156
  341MOL0     C46983   6.149   4.831  11.235 -0.7021  0.4495 -0.0442
  341MOL0     C46984   6.072   4.725  11.298  0.7821 -0.5788  0.1881
  341MOL0     C46985   6.011   4.652  11.364 -0.3153  0.8882 -0.6685
  341MOL0     C46986   6.684   5.004  11.395 -0.2468  0.6734 -0.6026
  341MOL0     C46987   6.821   5.023  11.359 -0.0653  0.0218  0.2378
  341MOL0     C46988   6.924   5.045  11.475  0.1343 -0.3108  0.0001
  341MOL0     H46989   7.310   5.093  11.370 -1.0695  0.0990 -0.3421
  341MOL0     H46990   7.523   5.000  11.317 -0.0993  0.4209  0.1330
  341MOL0     H46991   7.719   4.814  11.253  0.7637  0.2961 -0.6782
  341MOL0     H46992   7.683   4.978  11.186  0.4910 -0.6251  2.6895
  341MOL0     H46993   7.810   4.735  11.042 -0.3097  1.1334 -2.1430
  341MOL0     H46994   7.793   4.897  10.970  0.7340  1.5953  0.8411
  341MOL0     H46995   7.946   4.990  11.126 -1.8812  0.3788 -3.8283
  341MOL0     H46996   7.965   4.830  11.220  0.1520 -0.2589 -0.5463
  341MOL0     H46997   8.075   4.727  11.051  0.9019 -0.4744 -2.9320
  341MOL0     H46998   8.026   4.845  10.927 -2.0551 -1.0096  0.6418
  341MOL0     H46999   8.207   4.895  11.157  0.0718  0.1853  0.6369
  341MOL0     H47000   8.177   5.010  11.024  1.5035 -1.4255 -3.6737
  341MOL0     H47001   8.296   4.748  10.982 -0.2180  0.4357 -0.1471
  341MOL0     H47002   8.264   4.866  10.854 -1.3249  2.2548  0.6361
  341MOL0     H47003   8.431   4.947  11.083 -0.2144  2.3008  0.5779
  341MOL0     H47004   8.426   5.038  10.928 -1.4011  1.1115  2.5899
  341MOL0     H47005   8.527   4.751  10.907 -1.8937  0.2826 -1.5551
  341MOL0     H47006   8.560   4.893  10.808  1.4762  1.5149  1.3587
  341MOL0     H47007   8.629   4.812  11.177  1.1491  0.6674  1.0662
  341MOL0     H47008   8.866   4.802  11.329  1.2767  0.7174  0.8515
  341MOL0     H47009   8.981   4.904  11.246  1.1108 -0.2707 -0.6039
  341MOL0     H47010   8.971   4.611  11.207 -0.8089  0.4408  0.2341
  341MOL0     H47011   9.111   4.723  11.170 -2.4545  1.4256 -1.4049
  341MOL0     H47012   9.181   4.734  11.400  0.0676  0.0097 -1.8793
  341MOL0     H47013   9.024   4.687  11.463  0.8266 -2.0450  1.6072
  341MOL0     H47014   9.066   4.451  11.351 -2.1074  0.2006  2.7186
  341MOL0     H47015   9.231   4.513  11.324 -1.4326 -3.6857 -0.4743
  341MOL0     H47016   9.242   4.266  11.649  2.1290 -2.4615 -3.7339
  341MOL0     H47017   9.447   4.165  11.852 -4.1477  0.9217 -1.3837
  341MOL0     H47018   9.556   4.120  11.710  1.6299  2.0104 -1.8854
  341MOL0     H47019   9.382   4.111  11.702  0.3974  0.0406 -1.3528
  341MOL0     H47020   9.883   4.523  11.899  0.8066  1.2767  0.6503
  341MOL0     H47021  10.117   4.502  11.975 -2.7841 -0.7626  0.4489
  341MOL0     H47022  10.395   4.238  11.737 -1.0443  0.6486 -1.7506
  341MOL0     H47023  10.420   4.403  11.671  0.0420 -0.6758  0.1559
  341MOL0     H47024  10.591   4.447  11.858  2.9981 -0.5315 -0.6279
  341MOL0     H47025  10.542   4.297  11.930 -1.5744  2.8676  1.1664
  341MOL0     H47026  10.679   4.344  11.669  1.0573 -1.3111 -0.7811
  341MOL0     H47027  10.638   4.181  11.721 -0.5837  0.6587 -0.3391
  341MOL0     H47028  10.787   4.190  11.909  0.8287  0.0562  1.1858
  341MOL0     H47029  10.801   4.364  11.904 -2.8989 -1.0707  2.4849
  341MOL0     H47030  10.916   4.177  11.699  0.9194  0.6312 -2.0228
  341MOL0     H47031  10.905   4.354  11.681 -0.8826 -1.0397 -0.9485
  341MOL0     H47032  11.036   4.234  11.927 -0.4772  1.7065  1.9446
  341MOL0     H47033  11.077   4.387  11.850 -1.2760 -0.2826  0.0114
  341MOL0     H47034  11.187   4.291  11.655  1.1605 -2.0672 -0.3380
  341MOL0     H47035  11.125   4.132  11.691  2.4142  0.1483 -3.1146
  341MOL0     H47036  11.282   4.139  11.891  1.1613 -0.2929 -0.6718
  341MOL0     H47037  11.318   4.311  11.869  2.4340 -0.7759 -0.6081
  341MOL0     H47038  10.223   4.324  11.590  1.4189 -0.7329  0.7673
  341MOL0     H47039   9.993   4.360  11.520  0.0618 -3.0638  0.5182
  341MOL0     H47040   9.601   4.594  11.570  0.7896  1.0135  4.9466
  341MOL0     H47041   9.387   4.637  11.483  2.4077 -0.2825 -1.2652
  341MOL0     H47042   7.355   4.748  11.005 -3.1133 -0.0181 -1.0782
  341MOL0     H47043   7.130   4.847  11.058  1.5976 -0.1698 -2.1420
  341MOL0     H47044   6.765   4.955  11.028 -2.0729 -2.1167  0.8091
  341MOL0     H47045   6.533   4.922  11.101  1.0082 -4.2049  0.3530
  341MOL0     H47046   6.505   4.823  11.489  2.3063  2.1741 -1.9510
  341MOL0     H47047   6.328   4.874  11.488  1.2977  0.7290  1.6024
  341MOL0     H47048   6.353   4.650  11.403  1.3865  1.2401  2.3081
  341MOL0     H47049   6.482   4.692  11.298 -1.4136 -0.6697 -1.8958
  341MOL0     H47050   6.347   4.828  11.149  3.5619 -1.3951  0.7654
  341MOL0     H47051   6.278   4.678  11.154  1.7262 -0.0938 -0.3682
  341MOL0     H47052   6.111   4.856  11.135  2.7862 -0.7031 -1.8610
  341MOL0     H47053   6.153   4.921  11.296 -0.5613 -0.5254  1.4237
  341MOL0     H47054   5.956   4.587  11.429  0.5341  2.2715  1.5445
  341MOL0     H47055   6.660   5.015  11.500  1.0384  1.6967 -0.3826
  341MOL0     H47056   6.992   4.959  11.477  0.1705 -0.2806  0.1153
  341MOL0     H47057   6.974   5.142  11.469 -0.1868 -0.0923  0.6963
  341MOL0     H47058   6.870   5.050  11.570 -2.7862 -1.6296 -1.4658
  342MOL0     O47059   9.772   9.618  10.231 -0.1196 -0.4970 -0.4434
  342MOL0     C47060   9.758   9.585  10.114  0.0723 -0.1755  0.1548
  342MOL0     O47061   9.740   9.457  10.084  0.1303 -0.1596  0.5201
  342MOL0     C47062   9.708   9.373  10.188  0.1043 -1.2479 -0.3598
  342MOL0     C47063   9.575   9.368  10.241 -0.4096  0.4792 -0.0077
  342MOL0     C47064   9.548   9.300  10.365  0.4884  1.1119  0.1400
  342MOL0     C47065   9.652   9.231  10.435  0.3363  0.3808  0.1950
  342MOL0     O47066   9.618   9.161  10.550  0.1703 -0.2827  0.5349
  342MOL0     C47067   9.533   9.221  10.640 -0.1005 -0.0964 -0.1966
  342MOL0     C47068   9.531   9.148  10.777  0.6752  0.0029 -0.6908
  342MOL0     C47069   9.386   9.176  10.836  0.2776  0.7553 -0.9986
  342MOL0     C47070   9.383   9.145  10.985  0.3477  0.8505  0.3327
  342MOL0     C47071   9.258   9.208  11.045 -0.0050  0.1552 -0.1051
  342MOL0     C47072   9.264   9.197  11.189  0.3287 -0.0699  0.3851
  342MOL0     C47073   9.326   9.320  11.266  0.0460 -0.2171  0.2093
  342MOL0     C47074   9.228   9.437  11.295 -0.0681  0.2884  0.4559
  342MOL0     N47075   9.270   9.528  11.400  0.0728  0.0409 -0.9798
  342MOL0     C47076   9.191   9.589  11.487  0.7452 -0.1615 -0.2105
  342MOL0     C47077   9.266   9.674  11.557 -0.6222  0.5624 -0.4616
  342MOL0     C47078   9.199   9.758  11.670 -0.3172 -0.3303  0.0071
  342MOL0     C47079   9.105   9.681  11.766  0.1338  0.5878  0.1026
  342MOL0     C47080   9.128   9.718  11.912  0.3277  0.3799  0.0234
  342MOL0     C47081   9.113   9.860  11.949 -0.4604 -0.4322 -0.2173
  342MOL0     O47082   9.115   9.893  12.089  0.2063 -0.0858  0.3888
  342MOL0     C47083   9.237   9.921  12.147 -0.3542  0.1078 -0.1568
  342MOL0     C47084   9.329   9.818  12.181  0.7257 -0.8512  0.1182
  342MOL0     C47085   9.437   9.856  12.267 -0.5000  0.6054 -0.3735
  342MOL0     C47086   9.526   9.748  12.323  0.4356 -0.5675 -0.8132
  342MOL0     C47087   9.462   9.994  12.298  0.4384  0.4896 -0.2600
  342MOL0     C47088   9.581  10.048  12.380  0.0536 -0.0842  0.3252
  342MOL0     O47089   9.584  10.178  12.422 -1.2049 -0.2419  0.3533
  342MOL0     C47090   9.703  10.242  12.458 -0.0450 -0.6713 -0.7936
  342MOL0     C47091   9.786  10.202  12.561  0.5188 -0.0445 -0.1377
  342MOL0     C47092   9.904  10.269  12.579 -0.3360 -0.1684  0.2838
  342MOL0     C47093   9.943  10.375  12.485 -0.0764  0.4344 -0.4226
  342MOL0     O47094  10.057  10.446  12.497 -0.7049 -0.3771  0.0886
  342MOL0     C47095  10.159  10.383  12.581 -0.8175  0.7239  0.5113
  342MOL0     C47096  10.303  10.439  12.572 -0.0854  0.1114  0.3113
  342MOL0     C47097  10.299  10.576  12.643 -0.5511 -0.7762 -0.8396
  342MOL0     C47098  10.440  10.642  12.629  0.4637  0.0676 -0.0925
  342MOL0     C47099  10.460  10.746  12.728  0.4409  0.8268  0.1202
  342MOL0     C47100  10.545  10.864  12.670  0.9034 -0.9190 -0.0288
  342MOL0     C47101  10.599  10.970  12.753  0.1015  0.1233  0.2774
  342MOL0     C47102  10.685  11.061  12.663 -0.2711 -0.9620 -0.3423
  342MOL0    Cl47103  10.755  11.192  12.754 -0.0129  0.3279 -0.0449
  342MOL0     C47104   9.855  10.421  12.385 -0.0419 -0.6253  0.2130
  342MOL0     C47105   9.733  10.350  12.379 -0.2878  0.1462  0.5579
  342MOL0     O47106   9.686   9.981  12.381  0.1868 -0.4915 -1.5198
  342MOL0     C47107   9.362  10.092  12.259 -0.3308 -0.0566  0.6592
  342MOL0     C47108   9.253  10.055  12.187 -0.6448 -0.9604 -0.1658
  342MOL0     N47109   9.393   9.667  11.502  1.1101 -0.6473 -0.1863
  342MOL0     N47110   9.395   9.579  11.403  0.4949  0.3591 -0.5689
  342MOL0     C47111   9.780   9.237  10.375 -0.0331  0.5691 -0.1438
  342MOL0     C47112   9.801   9.311  10.264  0.1395 -0.2614  0.3773
  342MOL0     C47113   9.756   9.682  10.002 -0.0156 -0.2060  0.2500
  342MOL0     C47114   9.761   9.628   9.872  0.0925  0.1590  0.7856
  342MOL0     C47115   9.765   9.713   9.756 -0.5128 -0.2289 -0.5197
  342MOL0     C47116   9.759   9.851   9.777 -0.2772 -0.2991  0.4850
  342MOL0     O47117   9.761   9.932   9.664 -0.2995 -0.2531 -0.6839
  342MOL0     C47118   9.806  10.069   9.681  0.8041  1.1368 -0.3110
  342MOL0     C47119   9.875  10.109   9.560  0.0660 -0.4014 -0.0504
  342MOL0     C47120   9.798  10.091   9.431  0.5812  0.3784 -0.6696
  342MOL0     C47121   9.673  10.177   9.417 -0.4265  0.3732 -0.2052
  342MOL0     C47122   9.595  10.145   9.300 -0.5383  0.0588  0.1322
  342MOL0     C47123   9.550  10.110   9.188 -0.1155  0.1774 -0.1157
  342MOL0     C47124   9.731   9.899   9.905 -0.0190  0.7246  1.2169
  342MOL0     C47125   9.735   9.813  10.013  0.0038 -0.5778 -0.4648
  342MOL0     C47126   9.723   9.887  10.146  0.3381  0.4634 -0.3485
  342MOL0     H47127   9.495   9.422  10.190 -2.3339 -4.5025 -2.9801
  342MOL0     H47128   9.445   9.307  10.398  0.4549 -0.9485  0.6361
  342MOL0     H47129   9.433   9.222  10.597 -0.2969  0.3920  0.2596
  342MOL0     H47130   9.572   9.323  10.654 -2.3269  0.7897 -0.1019
  342MOL0     H47131   9.551   9.042  10.761  0.2811  0.0343 -1.4159
  342MOL0     H47132   9.614   9.186  10.838  0.3684  0.5434 -0.6018
  342MOL0     H47133   9.362   9.282  10.825 -0.1319  0.8118  0.2420
  342MOL0     H47134   9.317   9.113  10.780  1.2849 -1.9342  0.5804
  342MOL0     H47135   9.389   9.037  11.001  0.6482  0.2719 -2.8669
  342MOL0     H47136   9.475   9.179  11.034  1.1194 -0.1342 -0.3862
  342MOL0     H47137   9.167   9.154  11.018  0.6429 -1.6875  1.2177
  342MOL0     H47138   9.243   9.312  11.014  2.7060  0.8532  0.6369
  342MOL0     H47139   9.159   9.201  11.218 -0.6526 -3.2929 -2.1755
  342MOL0     H47140   9.310   9.111  11.239  0.8325 -0.2006 -0.2943
  342MOL0     H47141   9.415   9.344  11.208  1.3696 -2.8394  0.9999
  342MOL0     H47142   9.371   9.297  11.363  0.8114 -0.2427 -0.1475
  342MOL0     H47143   9.215   9.500  11.207  0.9969 -2.3198 -1.7152
  342MOL0     H47144   9.129   9.397  11.317 -0.4588  1.5682  1.1621
  342MOL0     H47145   9.084   9.576  11.497  0.5781  2.1337  1.9711
  342MOL0     H47146   9.151   9.843  11.620  1.1676  2.2557  2.6329
  342MOL0     H47147   9.281   9.808  11.723  0.0433  0.0875 -0.9242
  342MOL0     H47148   8.998   9.695  11.747 -0.4758 -0.3901  2.4100
  342MOL0     H47149   9.126   9.576  11.743  2.1982  1.0000 -0.0592
  342MOL0     H47150   9.063   9.658  11.976 -0.9947  0.0730 -1.5403
  342MOL0     H47151   9.229   9.692  11.944  0.4374 -1.5399 -1.6808
  342MOL0     H47152   9.187   9.918  11.894  0.9864 -1.3478  0.6990
  342MOL0     H47153   9.017   9.894  11.910 -0.4019 -1.8697 -1.7347
  342MOL0     H47154   9.297   9.715  12.168  0.4408 -1.2640  3.2983
  342MOL0     H47155   9.470   9.656  12.302 -1.4437  0.4298 -0.3573
  342MOL0     H47156   9.526   9.751  12.432 -0.8143 -0.7711 -0.7934
  342MOL0     H47157   9.626   9.744  12.278  1.2799  0.3504  0.9121
  342MOL0     H47158   9.758  10.123  12.629 -1.4701  1.4094  0.8459
  342MOL0     H47159   9.978  10.227  12.647 -0.8054  1.2870  1.7615
  342MOL0     H47160  10.136  10.380  12.688  0.1018  0.6333  0.7156
  342MOL0     H47161  10.163  10.276  12.559 -1.2380  1.0354 -1.2656
  342MOL0     H47162  10.378  10.370  12.613 -4.0942 -4.9385  0.1052
  342MOL0     H47163  10.334  10.441  12.468  3.5744 -1.1592  1.2134
  342MOL0     H47164  10.268  10.574  12.748  2.4209  0.7378  0.1986
  342MOL0     H47165  10.225  10.629  12.583  1.5246  1.1142 -1.9040
  342MOL0     H47166  10.428  10.697  12.535 -3.8968  1.3505  0.9460
  342MOL0     H47167  10.518  10.566  12.628  0.3971 -0.0026 -1.1180
  342MOL0     H47168  10.360  10.786  12.745 -1.0355 -1.5489 -2.1464
  342MOL0     H47169  10.498  10.704  12.822 -2.3307 -2.0539  0.1166
  342MOL0     H47170  10.482  10.906  12.591  0.7518 -0.4093  0.3607
  342MOL0     H47171  10.636  10.822  12.626  1.4838  0.6692 -0.4247
  342MOL0     H47172  10.666  10.936  12.833 -0.4467 -0.0874  0.6517
  342MOL0     H47173  10.516  11.027  12.796 -0.2305 -0.1575  0.0151
  342MOL0     H47174  10.628  11.116  12.587  0.3991  1.3833  0.7573
  342MOL0     H47175  10.765  11.002  12.618 -1.5896 -0.7419 -3.2083
  342MOL0     H47176   9.886  10.504  12.322  0.4009 -0.7505  0.2691
  342MOL0     H47177   9.664  10.362  12.296 -0.9740 -2.8509  0.5768
  342MOL0     H47178   9.390  10.190  12.298  1.9075 -0.9433  1.4442
  342MOL0     H47179   9.174  10.125  12.163  3.1301  1.9348 -7.2200
  342MOL0     H47180   9.866   9.186  10.416 -0.4443 -0.9608 -1.1083
  342MOL0     H47181   9.899   9.333  10.223 -0.5003  1.2449 -0.4234
  342MOL0     H47182   9.753   9.522   9.849 -0.3476  0.3669 -0.0922
  342MOL0     H47183   9.781   9.660   9.663 -1.6690 -0.6636 -0.4836
  342MOL0     H47184   9.723  10.139   9.698 -0.5633 -0.5856  0.3489
  342MOL0     H47185   9.878  10.075   9.763 -1.5081  1.2852  1.8502
  342MOL0     H47186   9.969  10.056   9.544  1.6205  2.2307 -0.2022
  342MOL0     H47187   9.894  10.216   9.574  2.7264 -0.4883 -2.1982
  342MOL0     H47188   9.855  10.114   9.341  0.4045  1.9249 -0.4080
  342MOL0     H47189   9.769   9.986   9.426 -0.5781  0.6619 -0.3549
  342MOL0     H47190   9.710  10.280   9.425  2.5831 -0.7161  1.3450
  342MOL0     H47191   9.606  10.166   9.502  0.7340 -1.0284  0.5718
  342MOL0     H47192   9.512  10.087   9.090 -0.9856  2.8206 -0.4931
  342MOL0     H47193   9.718  10.005   9.921 -2.3066  0.7472 -0.2933
  342MOL0     H47194   9.825   9.889  10.188  0.8650 -2.3130 -1.2884
  342MOL0     H47195   9.679   9.986  10.139 -0.6021  0.1157  0.5040
  342MOL0     H47196   9.657   9.834  10.215  3.3852 -0.5607  2.0654
  343MOL0     O47197   9.000   4.081   2.350  0.4043  0.4976  0.2588
  343MOL0     C47198   8.908   4.159   2.339  0.8599  0.0106 -1.2118
  343MOL0     O47199   8.918   4.284   2.388  0.4400 -0.7163  0.3685
  343MOL0     C47200   9.042   4.341   2.396  0.5028  0.0225  0.7802
  343MOL0     C47201   9.139   4.334   2.295 -0.9631  0.0834  0.8489
  343MOL0     C47202   9.270   4.382   2.317 -0.4311  0.1321  0.7154
  343MOL0     C47203   9.294   4.447   2.434 -0.8843 -0.8526  0.8061
  343MOL0     O47204   9.417   4.493   2.472 -0.1772 -0.3910 -0.1942
  343MOL0     C47205   9.523   4.517   2.375  0.2929  0.6767 -0.2574
  343MOL0     C47206   9.626   4.606   2.438 -1.3770 -0.7481 -0.6965
  343MOL0     C47207   9.712   4.657   2.327  0.6535  0.0284 -0.5696
  343MOL0     C47208   9.833   4.723   2.393  0.0584  0.2941 -0.0805
  343MOL0     C47209   9.910   4.799   2.291 -0.4028 -0.5206  0.4125
  343MOL0     C47210  10.037   4.855   2.363 -0.1620  0.3778 -0.3641
  343MOL0     C47211  10.109   4.951   2.270  0.0398 -0.2723  0.0172
  343MOL0     C47212  10.231   5.017   2.336  0.4105  0.3524  0.2260
  343MOL0     N47213  10.312   4.919   2.415 -0.0727 -1.1468 -0.0934
  343MOL0     C47214  10.427   4.853   2.383 -0.0464  0.0550  0.4938
  343MOL0     C47215  10.486   4.811   2.495 -0.2860  0.5795  1.7695
  343MOL0     C47216  10.632   4.765   2.495  0.2226  0.4209 -0.2223
  343MOL0     C47217  10.711   4.895   2.507 -0.2575  0.0912  1.3563
  343MOL0     C47218  10.866   4.873   2.515 -0.3093  0.0553  0.3757
  343MOL0     C47219  10.934   5.007   2.527  1.2753 -0.5216  0.2475
  343MOL0     O47220  11.078   4.993   2.537 -0.4988 -0.2837 -0.0238
  343MOL0     C47221  11.162   5.095   2.483  0.4184  0.6446  0.0873
  343MOL0     C47222  11.117   5.218   2.440  1.1798 -0.1960 -0.6241
  343MOL0     C47223  11.195   5.322   2.402  0.1650  0.4700  0.2381
  343MOL0     C47224  11.129   5.453   2.374  0.1405 -0.1977  0.1596
  343MOL0     C47225  11.335   5.299   2.392 -0.1628 -0.2399 -0.4128
  343MOL0     C47226  11.432   5.397   2.325  0.7836  0.1626 -0.4349
  343MOL0     O47227  11.559   5.395   2.376 -0.6484  0.4105 -0.2648
  343MOL0     C47228  11.653   5.464   2.321  0.1972  0.2046 -0.1013
  343MOL0     C47229  11.736   5.537   2.406 -0.2093 -0.2773  0.4276
  343MOL0     C47230  11.849   5.604   2.347  0.7982 -0.1544  0.0628
  343MOL0     C47231  11.882   5.584   2.214  0.0317 -1.0591  0.1741
  343MOL0     O47232  11.999   5.627   2.150  0.3158 -0.0327 -0.4157
  343MOL0     C47233  12.049   5.753   2.179 -0.2517  0.3441  0.0474
  343MOL0     C47234  11.975   5.872   2.111  0.7955 -1.0744  0.4893
  343MOL0     C47235  11.838   5.910   2.176 -0.1254  0.1980 -0.3030
  343MOL0     C47236  11.832   6.038   2.266  0.1694  0.2871 -0.0315
  343MOL0     C47237  11.694   6.072   2.315  1.0210 -0.0028  0.2160
  343MOL0     C47238  11.645   5.973   2.416 -0.0531  0.3612  0.3701
  343MOL0     C47239  11.497   6.001   2.447 -0.4309  0.1921 -0.1742
  343MOL0     C47240  11.462   5.902   2.549  0.6507  0.8725 -0.3561
  343MOL0    Cl47241  11.277   5.922   2.565  0.0912 -0.2148  0.1826
  343MOL0     C47242  11.798   5.517   2.130  0.1216  0.4826  0.2102
  343MOL0     C47243  11.690   5.445   2.192 -0.3729 -0.7147  0.2949
  343MOL0     O47244  11.397   5.482   2.247 -0.1230 -0.0636  0.2949
  343MOL0     C47245  11.387   5.184   2.440  0.2077  0.0577  0.5811
  343MOL0     C47246  11.307   5.078   2.479  0.1305  0.4482 -0.7747
  343MOL0     N47247  10.406   4.843   2.602  0.0770  0.3592  0.3873
  343MOL0     N47248  10.319   4.912   2.551  0.0459  1.7490  0.3914
  343MOL0     C47249   9.201   4.454   2.531  0.9637  0.6430 -0.5512
  343MOL0     C47250   9.072   4.409   2.513  0.7367  0.2233  0.8138
  343MOL0     C47251   8.769   4.110   2.313 -0.5782 -0.0784  0.6078
  343MOL0     C47252   8.660   4.156   2.392  0.5297 -0.3047 -0.4173
  343MOL0     C47253   8.539   4.098   2.381 -0.1947 -0.0336  0.1919
  343MOL0     C47254   8.505   4.015   2.270  0.5238 -0.1627  0.4866
  343MOL0     O47255   8.369   3.976   2.271 -0.4333  0.2113  0.0867
  343MOL0     C47256   8.327   3.870   2.168  0.4190 -0.4160  0.0974
  343MOL0     C47257   8.321   3.913   2.020  0.4311 -0.3126  0.4404
  343MOL0     C47258   8.249   3.818   1.926 -0.0618 -0.7013 -0.2933
  343MOL0     C47259   8.169   3.902   1.819 -0.1116  0.2735  0.7334
  343MOL0     C47260   8.061   3.977   1.877  0.4474  0.7181 -0.7531
  343MOL0     C47261   7.955   4.023   1.914  0.1074 -0.6970 -0.0335
  343MOL0     C47262   8.611   3.975   2.192  0.4338  0.6790 -0.2804
  343MOL0     C47263   8.741   4.020   2.208 -0.9047  0.1023 -0.0110
  343MOL0     C47264   8.852   3.973   2.115  0.3082 -0.9274 -0.0518
  343MOL0     H47265   9.122   4.281   2.202 -0.0847 -1.5280  1.5827
  343MOL0     H47266   9.349   4.366   2.244  0.1350  0.0262  1.3431
  343MOL0     H47267   9.479   4.568   2.289 -0.2701 -1.3747 -1.2335
  343MOL0     H47268   9.576   4.431   2.333 -0.2103 -0.0722  0.6028
  343MOL0     H47269   9.576   4.688   2.491  0.0883 -0.6699  0.6438
  343MOL0     H47270   9.688   4.552   2.511 -2.6494 -0.0748  0.9581
  343MOL0     H47271   9.741   4.581   2.255 -1.0468  0.9734 -2.3692
  343MOL0     H47272   9.644   4.711   2.260 -2.4069 -0.9490  1.4956
  343MOL0     H47273   9.808   4.803   2.464  1.9061  1.1803 -0.3757
  343MOL0     H47274   9.907   4.653   2.434  0.0818  1.9021  2.9032
  343MOL0     H47275   9.850   4.880   2.247  1.2416  1.5760  1.8501
  343MOL0     H47276   9.931   4.726   2.213 -1.1897 -2.4480  1.9389
  343MOL0     H47277  10.009   4.901   2.458 -1.1727 -1.7410  0.4387
  343MOL0     H47278  10.097   4.766   2.384 -1.0773 -0.2975 -0.5488
  343MOL0     H47279  10.047   5.036   2.238  2.3881  1.3108 -0.6060
  343MOL0     H47280  10.138   4.892   2.183 -0.1841  1.0938 -1.0310
  343MOL0     H47281  10.294   5.065   2.260  2.3584 -2.2903  0.0535
  343MOL0     H47282  10.197   5.101   2.398 -1.2641 -0.4430  0.4327
  343MOL0     H47283  10.466   4.856   2.282 -1.9606  1.6164 -0.2597
  343MOL0     H47284  10.653   4.713   2.401 -1.6963  0.5966 -0.7981
  343MOL0     H47285  10.649   4.709   2.587  0.8170  2.6987  1.1161
  343MOL0     H47286  10.689   4.959   2.421  0.0110 -1.0997  0.3693
  343MOL0     H47287  10.671   4.954   2.590 -3.7326  0.5170 -0.4430
  343MOL0     H47288  10.891   4.817   2.605 -2.9522  1.6375  2.2303
  343MOL0     H47289  10.903   4.813   2.431  0.3765 -2.1720  2.1686
  343MOL0     H47290  10.901   5.072   2.445 -1.8316 -0.9893  1.0043
  343MOL0     H47291  10.887   5.060   2.610 -2.9984  0.1090 -2.2561
  343MOL0     H47292  11.010   5.236   2.445  1.4408  1.8009 -1.3174
  343MOL0     H47293  11.143   5.482   2.270 -2.3536  1.3538  0.1970
  343MOL0     H47294  11.171   5.525   2.445 -1.4082 -0.9396  1.9285
  343MOL0     H47295  11.021   5.462   2.386 -0.0833 -1.0236 -1.0637
  343MOL0     H47296  11.708   5.541   2.511 -2.0003  0.2329 -0.0317
  343MOL0     H47297  11.919   5.653   2.414  1.0290 -1.8092  1.0892
  343MOL0     H47298  12.049   5.770   2.287 -1.6900  0.8800 -0.0045
  343MOL0     H47299  12.151   5.746   2.141 -1.1570  2.0195 -3.0927
  343MOL0     H47300  12.039   5.960   2.107 -1.8233  1.0359  1.4234
  343MOL0     H47301  11.954   5.846   2.007 -0.0222  1.5873 -0.1101
  343MOL0     H47302  11.810   5.827   2.241  1.6810 -1.1566 -1.1841
  343MOL0     H47303  11.760   5.916   2.100  1.7115 -0.8160 -2.3825
  343MOL0     H47304  11.869   6.122   2.207 -0.2941  0.7362  0.3046
  343MOL0     H47305  11.903   6.028   2.349  0.1647  2.8348  0.3443
  343MOL0     H47306  11.684   6.177   2.344  0.7354  0.1962 -0.5692
  343MOL0     H47307  11.628   6.068   2.227  1.6819  1.0570 -0.3491
  343MOL0     H47308  11.714   5.970   2.500 -2.9049  0.4424  2.8621
  343MOL0     H47309  11.660   5.872   2.378  4.7641  0.9135  0.1800
  343MOL0     H47310  11.443   5.990   2.352  1.0058 -1.6964 -0.8457
  343MOL0     H47311  11.484   6.102   2.485 -1.4681 -0.2483  0.6788
  343MOL0     H47312  11.518   5.912   2.643 -1.9495 -1.1774  1.5939
  343MOL0     H47313  11.498   5.804   2.515 -1.0802  1.2491 -3.7221
  343MOL0     H47314  11.822   5.505   2.025 -0.5432 -0.2868  0.1350
  343MOL0     H47315  11.639   5.383   2.118  1.4113  1.7056 -3.2101
  343MOL0     H47316  11.495   5.172   2.437  0.5554  2.6266 -1.1477
  343MOL0     H47317  11.354   4.982   2.501 -0.6218 -0.5989 -3.2770
  343MOL0     H47318   9.223   4.498   2.628 -2.8489  3.6219 -0.8149
  343MOL0     H47319   8.982   4.420   2.573 -0.8525  1.4973 -1.6078
  343MOL0     H47320   8.686   4.218   2.476  0.3437 -1.3203  0.4074
  343MOL0     H47321   8.461   4.116   2.456  0.1876  3.0366 -0.0347
  343MOL0     H47322   8.401   3.789   2.169  0.3134 -0.5108  0.5245
  343MOL0     H47323   8.228   3.828   2.188  1.0139 -2.4198 -0.8778
  343MOL0     H47324   8.423   3.925   1.983 -0.4583  0.2882 -2.0554
  343MOL0     H47325   8.283   4.016   2.024  0.5317 -0.2630  0.1561
  343MOL0     H47326   8.332   3.766   1.878  0.9393  1.7564 -1.4167
  343MOL0     H47327   8.190   3.748   1.985  3.3229 -2.4532  1.3280
  343MOL0     H47328   8.140   3.836   1.737 -0.6003  0.9601  0.3458
  343MOL0     H47329   8.251   3.964   1.781 -0.0353  0.7176  1.5959
  343MOL0     H47330   7.858   4.056   1.945  0.1722  1.1573 -1.5824
  343MOL0     H47331   8.594   3.908   2.108  0.9891 -1.2749  1.0990
  343MOL0     H47332   8.898   4.058   2.065 -1.0455 -1.1410 -1.7748
  343MOL0     H47333   8.938   3.925   2.163 -0.1707 -1.3607  0.3977
  343MOL0     H47334   8.819   3.900   2.041  0.6560  0.7584 -1.9320
  344MOL0     O47335   1.819   0.759   7.102 -0.5400 -0.2714 -0.4008
  344MOL0     C47336   1.808   0.838   7.193  1.0069 -0.3925 -1.2220
  344MOL0     O47337   1.910   0.894   7.271  0.4822 -0.5166 -1.2756
  344MOL0     C47338   2.032   0.865   7.231  0.5327 -0.3086  0.1753
  344MOL0     C47339   2.109   0.953   7.146  0.1844 -0.5981  0.5740
  344MOL0     C47340   2.247   0.930   7.131 -0.1119 -0.4827  0.5203
  344MOL0     C47341   2.309   0.821   7.191  1.0854  0.9470 -0.7946
  344MOL0     O47342   2.432   0.774   7.166 -0.4367 -0.1309 -0.0943
  344MOL0     C47343   2.510   0.843   7.062 -0.7844 -0.8056 -0.5148
  344MOL0     C47344   2.660   0.800   7.071 -0.1494 -0.2218  0.0192
  344MOL0     C47345   2.742   0.863   6.953  0.0660 -0.5259  0.0570
  344MOL0     C47346   2.883   0.817   6.948 -1.3580 -0.8334  1.1308
  344MOL0     C47347   2.942   0.905   6.833  0.1101 -0.0736  0.0360
  344MOL0     C47348   2.915   0.841   6.697  0.2173  0.0940  0.2486
  344MOL0     C47349   2.876   0.939   6.586 -0.1079  0.0702 -0.3910
  344MOL0     C47350   2.769   0.886   6.503 -0.2503 -0.5328 -0.1266
  344MOL0     N47351   2.636   0.914   6.550  0.4060  0.7159 -0.1552
  344MOL0     C47352   2.515   0.897   6.486 -0.6222  0.5946  0.5160
  344MOL0     C47353   2.424   0.956   6.567  1.2809  0.2118  0.5696
  344MOL0     C47354   2.276   0.940   6.552  0.7120 -0.3113  0.3902
  344MOL0     C47355   2.209   1.038   6.451  0.2113  0.2841  0.6375
  344MOL0     C47356   2.174   1.183   6.506 -0.4677 -0.2931 -0.3479
  344MOL0     C47357   2.034   1.243   6.463  0.5850 -0.5215 -1.1536
  344MOL0     O47358   2.021   1.235   6.325 -0.3380  0.2576  0.1767
  344MOL0     C47359   1.948   1.336   6.273 -0.3604 -0.1457 -0.4469
  344MOL0     C47360   2.030   1.426   6.215 -0.2426  0.6136  0.9191
  344MOL0     C47361   1.979   1.545   6.171  0.5727 -0.0128 -1.0155
  344MOL0     C47362   2.077   1.661   6.132  0.9476  0.3388  0.1089
  344MOL0     C47363   1.840   1.567   6.158 -0.2420 -0.1749  0.6099
  344MOL0     C47364   1.785   1.682   6.098 -0.5270 -0.7981  0.7718
  344MOL0     O47365   1.828   1.709   5.972 -0.3104  0.4687  0.4609
  344MOL0     C47366   1.754   1.799   5.903  0.4118 -0.3763 -0.1871
  344MOL0     C47367   1.817   1.900   5.823  0.6125  0.7474  0.2222
  344MOL0     C47368   1.754   1.987   5.728  0.5675 -0.3320 -0.7299
  344MOL0     C47369   1.620   1.978   5.712 -0.0069 -0.2789  0.5429
  344MOL0     O47370   1.550   2.045   5.619 -0.2907  0.7901  0.9128
  344MOL0     C47371   1.618   2.094   5.500  0.2870 -0.0635 -0.8058
  344MOL0     C47372   1.522   2.176   5.408 -0.9585 -1.0338  0.9465
  344MOL0     C47373   1.443   2.290   5.473  0.2197 -1.1290  0.2627
  344MOL0     C47374   1.384   2.376   5.361 -0.3114 -0.4250  0.8023
  344MOL0     C47375   1.303   2.485   5.436  0.5788 -0.8296 -0.0087
  344MOL0     C47376   1.199   2.563   5.348 -0.4125 -0.3246 -0.4516
  344MOL0     C47377   1.114   2.675   5.417  0.3435  0.1377  0.1296
  344MOL0     C47378   1.207   2.791   5.449 -0.2534 -0.0428 -0.1323
  344MOL0    Cl47379   1.264   2.877   5.295  0.4461 -0.2730  0.3172
  344MOL0     C47380   1.556   1.872   5.778  0.0311 -0.4515  0.4585
  344MOL0     C47381   1.615   1.793   5.875  1.3277  0.5987  1.0186
  344MOL0     O47382   1.695   1.738   6.155  0.1594  0.2536 -0.7109
  344MOL0     C47383   1.763   1.466   6.209 -0.0520  0.5659 -0.8635
  344MOL0     C47384   1.814   1.352   6.269 -0.5210  0.2302 -0.5436
  344MOL0     N47385   2.479   1.006   6.683  0.0503  0.2088  0.0795
  344MOL0     N47386   2.603   0.973   6.666 -1.6236 -0.0308  0.2446
  344MOL0     C47387   2.233   0.721   7.259 -0.2787  0.6313 -0.6222
  344MOL0     C47388   2.094   0.748   7.277  0.3814  0.1409  0.6091
  344MOL0     C47389   1.663   0.886   7.207 -0.4789  0.4552  0.1226
  344MOL0     C47390   1.568   0.835   7.112  0.5401  0.3134 -1.7498
  344MOL0     C47391   1.435   0.875   7.110  0.1668  0.1429  0.2452
  344MOL0     C47392   1.387   0.964   7.212 -0.3946  0.7127  0.7963
  344MOL0     O47393   1.259   1.014   7.190 -0.9119  0.7529 -0.1692
  344MOL0     C47394   1.245   1.153   7.183 -0.4358  0.0523  0.2589
  344MOL0     C47395   1.195   1.221   7.310  0.9495 -0.7340 -0.1356
  344MOL0     C47396   1.033   1.238   7.298 -0.5504  0.0017 -0.4658
  344MOL0     C47397   0.974   1.270   7.441 -0.7863 -0.6269 -0.4222
  344MOL0     C47398   0.824   1.252   7.456 -0.0843 -0.6436 -0.7333
  344MOL0     C47399   0.708   1.251   7.475  0.6003 -0.2515  0.4060
  344MOL0     C47400   1.471   1.013   7.299  0.2740  0.0084  1.0545
  344MOL0     C47401   1.607   0.974   7.298  0.5107  0.1575 -0.1554
  344MOL0     C47402   1.694   1.008   7.421  0.5053 -0.2292 -0.1601
  344MOL0     H47403   2.058   1.039   7.103  1.4838 -0.3972 -0.6518
  344MOL0     H47404   2.294   0.990   7.054 -1.1646  1.4699  1.3160
  344MOL0     H47405   2.513   0.951   7.078  0.1918 -0.7562 -0.9970
  344MOL0     H47406   2.463   0.808   6.970 -1.1658  1.0787 -1.0882
  344MOL0     H47407   2.699   0.827   7.169  0.4869 -0.4434 -0.1671
  344MOL0     H47408   2.657   0.691   7.068 -1.6075 -0.1942 -1.7621
  344MOL0     H47409   2.679   0.840   6.867  0.4721  0.8820 -0.6426
  344MOL0     H47410   2.738   0.972   6.965  0.5647 -0.0597 -3.0818
  344MOL0     H47411   2.926   0.836   7.047 -0.3031  0.0736  0.5189
  344MOL0     H47412   2.893   0.709   6.933 -1.3492 -0.7573  0.5492
  344MOL0     H47413   3.050   0.906   6.848 -0.1548  0.7055  2.1239
  344MOL0     H47414   2.909   1.009   6.836  0.1319  0.0585 -2.1423
  344MOL0     H47415   3.002   0.784   6.662  1.4609  2.2414 -0.3250
  344MOL0     H47416   2.833   0.769   6.711  0.5890 -0.7035 -1.3907
  344MOL0     H47417   2.963   0.970   6.526  0.4521  0.1643  0.4561
  344MOL0     H47418   2.848   1.031   6.638  2.0917  0.3807  0.3572
  344MOL0     H47419   2.773   0.936   6.406 -0.1569  2.1106  1.1528
  344MOL0     H47420   2.790   0.780   6.483  1.1069  0.3205 -4.1656
  344MOL0     H47421   2.508   0.859   6.384  2.6440  4.0007 -1.2404
  344MOL0     H47422   2.227   0.936   6.650  0.1398 -3.4645  0.1008
  344MOL0     H47423   2.259   0.842   6.506 -1.6806 -0.3360  1.1882
  344MOL0     H47424   2.274   1.057   6.365 -1.7160  0.9664 -0.7372
  344MOL0     H47425   2.117   0.997   6.409 -0.0175  1.9583 -0.5964
  344MOL0     H47426   2.183   1.187   6.615 -1.0441 -0.8916 -0.2704
  344MOL0     H47427   2.248   1.249   6.461 -1.1859  0.2472 -0.7529
  344MOL0     H47428   1.950   1.185   6.503  1.1534 -0.2022  0.5882
  344MOL0     H47429   2.025   1.346   6.501  0.7092 -1.4439  1.6358
  344MOL0     H47430   2.134   1.399   6.200 -0.9312 -0.3740 -3.0781
  344MOL0     H47431   2.051   1.759   6.173 -0.6231 -0.5756  1.4470
  344MOL0     H47432   2.101   1.665   6.026  0.0018  0.6050 -0.1087
  344MOL0     H47433   2.175   1.640   6.176  1.1829 -1.1617 -1.0564
  344MOL0     H47434   1.925   1.912   5.826  0.8091 -0.6097 -0.7110
  344MOL0     H47435   1.823   2.052   5.675  1.0386  0.0036  0.2547
  344MOL0     H47436   1.689   2.170   5.535 -0.9758  0.3354  1.0280
  344MOL0     H47437   1.669   2.013   5.446  0.1874  0.9178 -2.4262
  344MOL0     H47438   1.587   2.207   5.326  0.8391  1.7677  3.2370
  344MOL0     H47439   1.449   2.111   5.359 -0.6313  0.2958 -1.4144
  344MOL0     H47440   1.511   2.347   5.537  3.2395 -0.7961 -2.9461
  344MOL0     H47441   1.361   2.248   5.532 -0.0397 -1.4047 -0.2950
  344MOL0     H47442   1.323   2.307   5.302  0.7001 -0.3138 -0.4211
  344MOL0     H47443   1.461   2.406   5.289 -0.9541  0.1695  0.3503
  344MOL0     H47444   1.247   2.429   5.511  1.4982 -1.5336  0.1754
  344MOL0     H47445   1.369   2.554   5.488  1.4566 -1.9827  0.4455
  344MOL0     H47446   1.132   2.485   5.313 -2.2868  0.7314  0.6218
  344MOL0     H47447   1.253   2.610   5.265 -1.5429  1.4153 -0.2614
  344MOL0     H47448   1.073   2.643   5.513 -3.4047  1.3943 -0.8975
  344MOL0     H47449   1.026   2.703   5.358 -1.7414  0.4770  3.1724
  344MOL0     H47450   1.288   2.759   5.515  0.1712  0.5523 -0.3556
  344MOL0     H47451   1.154   2.862   5.513 -0.4351  0.2454 -0.5958
  344MOL0     H47452   1.449   1.868   5.761 -0.4580  4.1287  1.2143
  344MOL0     H47453   1.559   1.720   5.932  1.7708 -2.0775 -1.7695
  344MOL0     H47454   1.656   1.488   6.217 -0.4821 -1.5474 -0.2806
  344MOL0     H47455   1.752   1.277   6.316 -0.2222  0.2572 -0.1065
  344MOL0     H47456   2.266   0.632   7.312 -0.3403  1.1728  0.3468
  344MOL0     H47457   2.037   0.680   7.339  0.4539  0.2153  0.7586
  344MOL0     H47458   1.606   0.762   7.041  1.7446  0.8247 -1.6617
  344MOL0     H47459   1.368   0.840   7.032  1.1237  2.0576 -1.5347
  344MOL0     H47460   1.346   1.191   7.167 -0.5456  0.9652  1.5594
  344MOL0     H47461   1.182   1.180   7.097  2.2162 -0.1413 -1.8876
  344MOL0     H47462   1.245   1.317   7.326 -0.5941 -0.3067  3.0282
  344MOL0     H47463   1.227   1.155   7.392 -1.1034 -1.9316 -0.2389
  344MOL0     H47464   1.001   1.323   7.237 -1.9664 -0.9006 -1.0439
  344MOL0     H47465   0.995   1.141   7.264  2.7334 -0.4662 -3.2910
  344MOL0     H47466   0.995   1.377   7.451 -2.2728 -0.2766 -0.8417
  344MOL0     H47467   1.042   1.209   7.501  0.5574  0.3408 -0.9075
  344MOL0     H47468   0.601   1.256   7.474  0.5896 -0.1610 -1.2419
  344MOL0     H47469   1.436   1.080   7.377 -0.9610  0.4062  0.1941
  344MOL0     H47470   1.744   0.927   7.475  0.8933 -0.3344 -0.6662
  344MOL0     H47471   1.775   1.076   7.392  1.2382 -0.2436  1.6866
  344MOL0     H47472   1.630   1.063   7.491 -0.0550 -2.4645  1.1779
  345MOL0     O47473   4.482   8.546   6.404  0.3117 -0.0127 -0.5116
  345MOL0     C47474   4.591   8.497   6.427  1.1159 -0.0595  0.2350
  345MOL0     O47475   4.676   8.450   6.334 -0.3295  0.5974 -0.8765
  345MOL0     C47476   4.641   8.468   6.206 -0.3582 -0.5543  0.1884
  345MOL0     C47477   4.615   8.589   6.145  0.6925  0.4989  0.8329
  345MOL0     C47478   4.574   8.611   6.016  0.6423  0.9512  0.3379
  345MOL0     C47479   4.554   8.500   5.929 -0.2009 -1.2207 -0.6013
  345MOL0     O47480   4.501   8.509   5.799 -0.6456 -0.3104 -0.0154
  345MOL0     C47481   4.439   8.628   5.764  0.1391 -0.2918  0.0937
  345MOL0     C47482   4.412   8.632   5.612  0.0824 -0.7460 -0.0895
  345MOL0     C47483   4.531   8.618   5.527 -0.2488  0.1419  0.0708
  345MOL0     C47484   4.590   8.753   5.483 -0.5634 -0.3902 -0.1420
  345MOL0     C47485   4.707   8.732   5.381 -0.6375  0.1612  0.6259
  345MOL0     C47486   4.749   8.875   5.332 -0.5194  0.2346 -0.2279
  345MOL0     C47487   4.874   8.883   5.240 -0.2185 -0.7988 -0.9349
  345MOL0     C47488   4.880   8.803   5.116  0.7451  0.0635 -0.2817
  345MOL0     N47489   4.995   8.830   5.035  0.5661  0.2594  0.5017
  345MOL0     C47490   5.134   8.803   5.054  0.4414 -0.5213  0.5754
  345MOL0     C47491   5.209   8.876   4.975  0.8990 -0.6975  0.4353
  345MOL0     C47492   5.354   8.893   4.970 -1.1985  0.1206 -1.6858
  345MOL0     C47493   5.408   8.777   4.882  0.5128  0.4225  0.1755
  345MOL0     C47494   5.549   8.812   4.837  0.2396  0.6576 -0.0380
  345MOL0     C47495   5.652   8.851   4.951 -0.1219  0.0442  0.0017
  345MOL0     O47496   5.774   8.797   4.922  1.0431 -0.0228  1.2889
  345MOL0     C47497   5.867   8.789   5.017 -0.2643  0.9019 -0.4157
  345MOL0     C47498   5.858   8.820   5.150  1.2449  0.7150 -0.0862
  345MOL0     C47499   5.965   8.812   5.238  0.1390 -0.6506  0.1463
  345MOL0     C47500   5.950   8.878   5.372  0.7816  0.0206 -0.5716
  345MOL0     C47501   6.086   8.767   5.189 -0.5577  0.1835 -0.1721
  345MOL0     C47502   6.213   8.762   5.283 -0.5225  0.2449  0.0232
  345MOL0     O47503   6.286   8.651   5.275 -0.2870 -0.0512 -0.2745
  345MOL0     C47504   6.406   8.632   5.335  0.4365  0.1304  0.4329
  345MOL0     C47505   6.443   8.503   5.375  0.7748  0.1855 -0.0072
  345MOL0     C47506   6.577   8.482   5.418  0.9689 -0.0294  0.6396
  345MOL0     C47507   6.671   8.580   5.399 -0.4196 -0.6701 -0.3682
  345MOL0     O47508   6.810   8.565   5.425  1.3121  0.5083 -0.1810
  345MOL0     C47509   6.828   8.509   5.558 -0.6435  0.6811 -0.2750
  345MOL0     C47510   6.956   8.571   5.616 -0.6687 -0.4745 -1.2982
  345MOL0     C47511   7.077   8.526   5.548  0.0415  0.3529  1.0045
  345MOL0     C47512   7.214   8.549   5.623 -0.9038  0.3771  0.6862
  345MOL0     C47513   7.347   8.524   5.544  0.6628 -0.0890  0.1378
  345MOL0     C47514   7.458   8.522   5.656 -0.1674 -0.3476  1.1851
  345MOL0     C47515   7.470   8.388   5.739  0.6073 -0.3949  0.6680
  345MOL0     C47516   7.569   8.402   5.856  0.2776 -0.1701 -0.8154
  345MOL0    Cl47517   7.741   8.395   5.782  0.0010 -0.1427 -0.1818
  345MOL0     C47518   6.635   8.697   5.342  0.1402  0.2295  0.6173
  345MOL0     C47519   6.505   8.733   5.319  0.6213 -0.2446  0.4615
  345MOL0     O47520   6.240   8.862   5.357 -0.0184  0.4678  0.3477
  345MOL0     C47521   6.102   8.732   5.052  0.4611  0.2865 -0.3564
  345MOL0     C47522   5.990   8.729   4.972  1.0046  0.3758 -0.5316
  345MOL0     N47523   5.112   8.933   4.891 -0.1465  0.4454 -0.4694
  345MOL0     N47524   4.992   8.921   4.937 -0.5516  0.3844  0.1545
  345MOL0     C47525   4.576   8.375   5.987 -0.4688 -0.6060 -0.6518
  345MOL0     C47526   4.608   8.361   6.126  0.1575  0.4574  0.9716
  345MOL0     C47527   4.628   8.479   6.566 -0.6448 -0.2247 -0.4190
  345MOL0     C47528   4.635   8.597   6.649 -0.4104  0.1138  0.5513
  345MOL0     C47529   4.705   8.602   6.765 -0.1383  0.6951 -0.0422
  345MOL0     C47530   4.768   8.486   6.812  0.8650  0.2395 -0.7357
  345MOL0     O47531   4.831   8.510   6.936  0.0470 -0.2416 -0.1195
  345MOL0     C47532   4.952   8.443   6.971 -0.0244  1.1827  0.0405
  345MOL0     C47533   4.988   8.469   7.116 -0.5347 -0.4441  0.4174
  345MOL0     C47534   5.016   8.628   7.124  0.4190 -0.5603 -0.4588
  345MOL0     C47535   5.042   8.677   7.268 -0.4667  0.0037 -0.7413
  345MOL0     C47536   5.178   8.675   7.306  0.1780  0.3684  0.6991
  345MOL0     C47537   5.295   8.663   7.334 -0.3221 -0.2541 -0.8375
  345MOL0     C47538   4.762   8.369   6.740 -0.6921 -0.0131 -0.2177
  345MOL0     C47539   4.684   8.365   6.618 -1.5068  0.8167  0.2877
  345MOL0     C47540   4.676   8.226   6.547 -0.8311  0.0514  0.1619
  345MOL0     H47541   4.632   8.668   6.218 -0.7492  1.4765  0.1599
  345MOL0     H47542   4.553   8.712   5.982 -2.9152  0.4971  0.7377
  345MOL0     H47543   4.499   8.717   5.784 -0.8961  0.4238  0.0914
  345MOL0     H47544   4.346   8.634   5.822  0.3608 -0.1251  0.4348
  345MOL0     H47545   4.348   8.546   5.591 -1.0359 -0.8555  3.1596
  345MOL0     H47546   4.349   8.715   5.579  0.2285 -1.1409 -1.4247
  345MOL0     H47547   4.608   8.567   5.585 -1.8875 -0.2224  2.0281
  345MOL0     H47548   4.507   8.562   5.436  0.3428 -4.0214  2.2321
  345MOL0     H47549   4.515   8.815   5.433 -2.1323 -0.5062  1.9373
  345MOL0     H47550   4.618   8.808   5.573  0.4072 -1.5042  0.2606
  345MOL0     H47551   4.681   8.683   5.286 -2.0296  2.3620 -0.2238
  345MOL0     H47552   4.793   8.685   5.430 -0.3874  0.4611  0.4770
  345MOL0     H47553   4.668   8.910   5.268  1.6230  3.3800 -1.4210
  345MOL0     H47554   4.759   8.946   5.415 -0.0401  2.7320 -2.3128
  345MOL0     H47555   4.959   8.865   5.306 -0.5808  0.0488 -0.2179
  345MOL0     H47556   4.871   8.987   5.208 -1.4902 -0.5648 -0.1161
  345MOL0     H47557   4.877   8.697   5.143 -3.1420  0.1644  0.2857
  345MOL0     H47558   4.792   8.824   5.054  1.2530  0.4983 -0.8594
  345MOL0     H47559   5.174   8.741   5.133  2.4696  0.0078  0.0221
  345MOL0     H47560   5.390   8.876   5.072 -2.0916  1.6706 -1.0661
  345MOL0     H47561   5.400   8.990   4.947  2.4764 -1.1571 -0.4124
  345MOL0     H47562   5.407   8.679   4.931 -0.9445  1.1575  1.7038
  345MOL0     H47563   5.335   8.771   4.800 -1.3664 -3.7690  1.8942
  345MOL0     H47564   5.583   8.721   4.785 -1.2951  0.6623 -1.1046
  345MOL0     H47565   5.543   8.896   4.768  0.4054  2.3245  1.8907
  345MOL0     H47566   5.652   8.960   4.957 -1.0008  0.1807 -1.8737
  345MOL0     H47567   5.618   8.809   5.046 -2.3104  2.5824  0.4427
  345MOL0     H47568   5.763   8.858   5.187  0.2648 -2.1143  0.5637
  345MOL0     H47569   5.964   8.986   5.367  0.8765  0.0380  0.0013
  345MOL0     H47570   6.019   8.845   5.450 -0.3986 -1.8005 -0.2284
  345MOL0     H47571   5.853   8.850   5.413  1.0135 -3.4228 -2.0254
  345MOL0     H47572   6.362   8.430   5.383  0.9172  0.1086  0.8351
  345MOL0     H47573   6.606   8.383   5.451  2.8812  0.1365 -0.4423
  345MOL0     H47574   6.747   8.540   5.624 -0.1901 -0.4994  0.8867
  345MOL0     H47575   6.832   8.400   5.549 -0.8891  0.7774 -1.6545
  345MOL0     H47576   6.942   8.679   5.611 -1.8966 -0.5943 -0.9267
  345MOL0     H47577   6.957   8.540   5.721 -0.3500  0.4645 -1.0198
  345MOL0     H47578   7.098   8.564   5.447  4.9444 -3.0700  0.3248
  345MOL0     H47579   7.083   8.417   5.532  3.3681  0.3311  1.5885
  345MOL0     H47580   7.225   8.487   5.712  2.1191  2.4335  1.9371
  345MOL0     H47581   7.214   8.654   5.655 -3.4998  0.1086  1.7554
  345MOL0     H47582   7.338   8.426   5.496 -1.1610  0.9445 -1.7775
  345MOL0     H47583   7.368   8.603   5.471 -3.4624  2.4909  1.3987
  345MOL0     H47584   7.449   8.614   5.715  3.3733  1.3518 -0.6024
  345MOL0     H47585   7.555   8.529   5.607 -0.9579 -0.7083 -0.4812
  345MOL0     H47586   7.507   8.305   5.679  0.3196  0.8192 -1.2620
  345MOL0     H47587   7.372   8.349   5.766 -0.2105  0.3833 -1.0714
  345MOL0     H47588   7.554   8.318   5.926 -2.6858  0.5615 -0.4339
  345MOL0     H47589   7.550   8.501   5.898  0.1248  0.7218 -2.8875
  345MOL0     H47590   6.712   8.774   5.337 -0.5445  0.8764 -0.2218
  345MOL0     H47591   6.487   8.833   5.280  0.2305 -0.5376 -0.1300
  345MOL0     H47592   6.194   8.684   5.020  1.0485  0.5125  0.9206
  345MOL0     H47593   5.997   8.709   4.866  0.9864 -2.8286 -0.0317
  345MOL0     H47594   4.557   8.281   5.935  0.9009 -2.0854  1.3471
  345MOL0     H47595   4.602   8.264   6.175  0.3491 -1.0092 -1.6857
  345MOL0     H47596   4.591   8.690   6.614  0.2793 -0.0072 -0.7139
  345MOL0     H47597   4.700   8.695   6.821  1.9957  1.1531 -0.5480
  345MOL0     H47598   4.940   8.335   6.970  2.0803  0.8901 -1.3450
  345MOL0     H47599   5.021   8.467   6.890 -0.4360  0.4293 -0.5415
  345MOL0     H47600   5.074   8.408   7.146  1.9460 -0.4576 -5.3048
  345MOL0     H47601   4.897   8.450   7.172 -1.8231 -0.5515 -1.5969
  345MOL0     H47602   5.106   8.652   7.066  0.7771 -0.2189  0.2134
  345MOL0     H47603   4.928   8.676   7.082  0.1480  0.6620  1.3665
  345MOL0     H47604   4.988   8.621   7.345 -0.0181  0.0340 -0.4034
  345MOL0     H47605   5.015   8.783   7.276  1.8688  0.7736 -2.1262
  345MOL0     H47606   5.395   8.660   7.371 -0.2197  2.6676 -0.6044
  345MOL0     H47607   4.829   8.291   6.776  0.8440  2.2067  2.0597
  345MOL0     H47608   4.689   8.139   6.612  2.3293 -0.5055 -1.0695
  345MOL0     H47609   4.573   8.217   6.510 -0.5613 -1.6072 -0.2465
  345MOL0     H47610   4.749   8.215   6.467 -1.1420 -1.4097  0.0513
  346MOL0     O47611   1.087   4.584   9.079 -0.7206 -0.2172 -0.3586
  346MOL0     C47612   1.134   4.702   9.079 -0.0328  0.0335 -0.0075
  346MOL0     O47613   1.251   4.743   9.037 -0.9828 -0.2227 -0.0933
  346MOL0     C47614   1.353   4.656   8.994 -0.5414  0.0345  0.0795
  346MOL0     C47615   1.356   4.518   8.997 -0.0469 -0.1096  0.9266
  346MOL0     C47616   1.468   4.439   8.961 -0.6813 -0.0915  0.4440
  346MOL0     C47617   1.587   4.509   8.915  0.8079 -0.7003 -0.9890
  346MOL0     O47618   1.694   4.425   8.886  0.7627 -0.4598  0.1717
  346MOL0     C47619   1.826   4.477   8.875 -0.0267 -0.6114  0.5129
  346MOL0     C47620   1.920   4.354   8.886  0.2247  0.2412  0.3209
  346MOL0     C47621   1.947   4.318   9.033 -0.0454 -0.2151 -0.7635
  346MOL0     C47622   2.050   4.212   9.051 -0.0382 -0.2458  0.0337
  346MOL0     C47623   2.092   4.199   9.192 -0.3370 -0.6784  0.4805
  346MOL0     C47624   2.184   4.086   9.215 -0.6958  0.4335  0.1362
  346MOL0     C47625   2.325   4.123   9.174 -0.2053  0.4992 -0.1162
  346MOL0     C47626   2.418   4.006   9.140  0.1454 -0.3354 -0.4238
  346MOL0     N47627   2.532   4.033   9.052 -0.3387 -0.7053 -0.2728
  346MOL0     C47628   2.638   4.112   9.084  0.0889  0.1867  0.7989
  346MOL0     C47629   2.724   4.101   8.974  0.2347  0.0028 -0.6552
  346MOL0     C47630   2.857   4.167   8.956 -0.3753 -0.2317 -0.2922
  346MOL0     C47631   2.859   4.299   9.040  0.0766  1.0685  0.0896
  346MOL0     C47632   2.995   4.358   9.054 -0.7225  0.3039  0.9909
  346MOL0     C47633   2.983   4.496   9.139  0.2345  0.1990 -0.0510
  346MOL0     O47634   3.110   4.551   9.166  0.1980  0.2926  0.1808
  346MOL0     C47635   3.215   4.478   9.197 -0.1324  0.0490  0.1166
  346MOL0     C47636   3.216   4.382   9.301 -0.2010 -1.1328 -0.2732
  346MOL0     C47637   3.337   4.321   9.334 -0.4049 -0.4433 -0.4031
  346MOL0     C47638   3.333   4.237   9.464 -0.3396  0.1369 -1.0598
  346MOL0     C47639   3.455   4.338   9.248  1.4662  0.5960  0.0648
  346MOL0     C47640   3.593   4.273   9.275  0.7099 -0.7682 -0.6443
  346MOL0     O47641   3.695   4.334   9.227 -1.0699  0.3967  1.0401
  346MOL0     C47642   3.816   4.271   9.232  0.1921 -0.5925  0.7229
  346MOL0     C47643   3.837   4.132   9.207  0.0842 -0.7303 -0.9543
  346MOL0     C47644   3.963   4.076   9.216  0.9058  0.3280 -0.1318
  346MOL0     C47645   4.085   4.151   9.232  0.4507  0.1047  0.3531
  346MOL0     O47646   4.205   4.083   9.240 -0.7817 -0.1066  0.3129
  346MOL0     C47647   4.325   4.147   9.199  0.2752 -0.4030 -0.4322
  346MOL0     C47648   4.444   4.048   9.216 -0.0453  0.5174 -0.5069
  346MOL0     C47649   4.567   4.097   9.123  0.6929  0.6632 -0.1486
  346MOL0     C47650   4.691   4.026   9.159  0.4277 -0.8195 -0.4995
  346MOL0     C47651   4.812   4.067   9.076  0.8005 -0.0555 -1.2666
  346MOL0     C47652   4.941   3.985   9.112  0.3524 -0.3242 -0.5398
  346MOL0     C47653   5.054   4.027   9.024  0.1090  0.1407 -0.5389
  346MOL0     C47654   5.174   3.937   9.046  0.2105 -0.8193  0.7098
  346MOL0    Cl47655   5.256   3.990   9.191  0.0291  0.0190  0.0189
  346MOL0     C47656   4.064   4.283   9.251 -0.3044  0.1080  0.1125
  346MOL0     C47657   3.940   4.348   9.247 -0.0569  0.2886  0.2837
  346MOL0     O47658   3.595   4.173   9.351 -0.7198 -0.3760 -0.5773
  346MOL0     C47659   3.447   4.426   9.141  0.3345  0.0812 -0.1772
  346MOL0     C47660   3.319   4.489   9.110 -0.2884 -0.2607 -0.3871
  346MOL0     N47661   2.662   4.020   8.880  0.4249  0.2050 -0.0835
  346MOL0     N47662   2.551   3.981   8.933 -0.4124 -0.6731  0.3245
  346MOL0     C47663   1.582   4.650   8.907  0.2746  0.8515 -0.3984
  346MOL0     C47664   1.466   4.716   8.948  0.1515 -0.3783  0.6895
  346MOL0     C47665   1.039   4.812   9.113  0.5498 -0.6523  0.3944
  346MOL0     C47666   1.085   4.950   9.095  0.1716  0.2439  0.3121
  346MOL0     C47667   1.009   5.055   9.136 -0.4337 -0.9211 -0.5170
  346MOL0     C47668   0.883   5.031   9.174  0.7847  0.0861  0.3962
  346MOL0     O47669   0.804   5.142   9.201  0.0881 -0.0847  0.4688
  346MOL0     C47670   0.663   5.152   9.169 -0.4213  0.5733 -0.9715
  346MOL0     C47671   0.619   5.303   9.178 -0.5656 -0.0492 -0.4173
  346MOL0     C47672   0.464   5.304   9.204 -0.2094 -0.6048 -0.1633
  346MOL0     C47673   0.384   5.248   9.081  0.4297  0.3561 -0.4433
  346MOL0     C47674   0.381   5.345   8.972 -0.2469 -0.1889 -0.2375
  346MOL0     C47675   0.361   5.416   8.877  0.1333  0.1074  0.3107
  346MOL0     C47676   0.830   4.905   9.195 -0.2061  0.6574  0.3433
  346MOL0     C47677   0.903   4.793   9.171 -0.7513 -0.1475  0.5960
  346MOL0     C47678   0.839   4.657   9.195 -0.2152  0.0189  0.6011
  346MOL0     H47679   1.272   4.451   9.014  1.4952 -2.7347 -0.9410
  346MOL0     H47680   1.467   4.331   8.946  0.2900 -0.1522  0.7781
  346MOL0     H47681   1.852   4.544   8.957  1.9134 -0.4670 -0.1672
  346MOL0     H47682   1.842   4.525   8.778 -0.4584 -0.2314  0.6257
  346MOL0     H47683   1.881   4.270   8.828 -0.0116  0.8551 -0.4199
  346MOL0     H47684   2.017   4.384   8.847 -0.5280  0.1558 -1.7260
  346MOL0     H47685   1.970   4.406   9.094 -2.3144 -1.7727  2.6473
  346MOL0     H47686   1.860   4.272   9.082  2.0284 -2.7740  0.7572
  346MOL0     H47687   2.014   4.116   9.014  1.6294 -0.6298 -0.6869
  346MOL0     H47688   2.134   4.243   8.988  2.2602  0.5290  3.2483
  346MOL0     H47689   2.004   4.186   9.256 -0.2853 -0.3450  0.6198
  346MOL0     H47690   2.145   4.283   9.238  0.0018 -1.0393  0.7637
  346MOL0     H47691   2.188   4.055   9.320  0.0616  3.6611  1.1760
  346MOL0     H47692   2.151   4.004   9.150  0.0978 -0.5260  0.9123
  346MOL0     H47693   2.367   4.185   9.254  1.3620 -1.9848  1.1157
  346MOL0     H47694   2.326   4.187   9.085 -2.9752  2.2219  0.9543
  346MOL0     H47695   2.451   3.940   9.221  2.2008 -0.3159 -1.2017
  346MOL0     H47696   2.356   3.939   9.080 -2.0325 -1.9107  3.1722
  346MOL0     H47697   2.645   4.170   9.176  0.8613  0.1493  0.7651
  346MOL0     H47698   2.865   4.183   8.849 -3.3390  2.0605 -0.2871
  346MOL0     H47699   2.938   4.102   8.993 -0.2211 -0.9655 -1.8596
  346MOL0     H47700   2.801   4.376   8.988 -0.6369  1.1160  0.9428
  346MOL0     H47701   2.810   4.287   9.137 -1.4078 -1.3369 -0.8618
  346MOL0     H47702   3.065   4.286   9.096 -1.2911 -0.9507 -0.1422
  346MOL0     H47703   3.036   4.379   8.955 -0.6959 -0.0069  0.9352
  346MOL0     H47704   2.915   4.564   9.087 -2.4622 -1.6648  0.8110
  346MOL0     H47705   2.942   4.481   9.239  0.2302  3.9011  0.6332
  346MOL0     H47706   3.132   4.377   9.370  1.1804 -0.7109  1.4890
  346MOL0     H47707   3.409   4.262   9.538 -0.4192  0.2963 -1.0334
  346MOL0     H47708   3.364   4.135   9.440  2.2993  0.6720 -0.2207
  346MOL0     H47709   3.233   4.234   9.509 -0.7313  0.6846 -1.8633
  346MOL0     H47710   3.759   4.061   9.182  0.1377 -2.6357  3.2939
  346MOL0     H47711   3.969   3.967   9.211 -2.8142 -0.2415  3.3255
  346MOL0     H47712   4.310   4.185   9.097  2.7422 -2.4633 -1.6864
  346MOL0     H47713   4.351   4.235   9.258  2.0998 -1.0145 -0.2653
  346MOL0     H47714   4.466   4.056   9.323 -2.3050 -0.5675  0.1174
  346MOL0     H47715   4.440   3.941   9.191  2.8102  0.5121 -1.2191
  346MOL0     H47716   4.586   4.204   9.133 -0.9675  0.9721 -0.0310
  346MOL0     H47717   4.560   4.077   9.016  0.5739  3.1380 -0.6578
  346MOL0     H47718   4.669   3.919   9.164 -0.2831 -0.6452  0.2839
  346MOL0     H47719   4.714   4.052   9.262 -2.0404 -1.6536  0.3503
  346MOL0     H47720   4.793   4.043   8.971 -0.5634 -1.7381 -0.6783
  346MOL0     H47721   4.828   4.173   9.096  0.0590 -0.1905  0.2058
  346MOL0     H47722   4.922   3.878   9.106  0.9202 -0.6310  2.0575
  346MOL0     H47723   4.983   3.986   9.213  1.4439 -1.4220 -0.9641
  346MOL0     H47724   5.078   4.130   9.053  0.9206  0.0580 -0.8821
  346MOL0     H47725   5.029   4.017   8.919  1.1888 -3.0473 -0.5854
  346MOL0     H47726   5.241   3.952   8.960 -2.1508  0.9650 -0.9641
  346MOL0     H47727   5.144   3.833   9.040 -1.7992 -0.2358 -0.0073
  346MOL0     H47728   4.157   4.335   9.273  1.5141 -2.7475 -0.2883
  346MOL0     H47729   3.932   4.455   9.265 -1.2193  0.6040 -1.7711
  346MOL0     H47730   3.537   4.436   9.082 -0.1168 -0.3795 -0.9656
  346MOL0     H47731   3.315   4.555   9.024  0.2136  3.0270  1.9227
  346MOL0     H47732   1.663   4.702   8.858  0.6375  0.5160 -0.1579
  346MOL0     H47733   1.451   4.823   8.939 -2.1077 -0.7292 -0.2216
  346MOL0     H47734   1.185   4.969   9.057  0.5624 -2.5351 -0.2504
  346MOL0     H47735   1.044   5.158   9.141 -2.4577 -0.2243  2.6215
  346MOL0     H47736   0.635   5.116   9.070 -3.1695 -2.6052  0.7357
  346MOL0     H47737   0.604   5.090   9.238 -2.3696  1.7089 -1.5231
  346MOL0     H47738   0.633   5.364   9.089 -2.4625 -0.2254 -0.8973
  346MOL0     H47739   0.683   5.342   9.257  0.8933 -1.4767 -0.8343
  346MOL0     H47740   0.442   5.233   9.283  1.0781  0.6088  1.3593
  346MOL0     H47741   0.423   5.401   9.234  3.5948  0.8801  0.9028
  346MOL0     H47742   0.284   5.232   9.121  0.8444  0.2710  0.5879
  346MOL0     H47743   0.431   5.156   9.046 -0.1140 -0.0659 -0.0632
  346MOL0     H47744   0.348   5.490   8.800 -2.4706 -1.6396 -1.1047
  346MOL0     H47745   0.729   4.897   9.235 -1.4155  3.2940 -1.8505
  346MOL0     H47746   0.890   4.602   9.274 -1.8319  0.2085  1.8395
  346MOL0     H47747   0.735   4.680   9.220 -0.7079  1.6484 -2.4330
  346MOL0     H47748   0.829   4.599   9.103 -0.7236 -0.6956  1.0892
  347MOL0     O47749   8.381   2.521   1.171 -0.2729 -0.3792  0.6133
  347MOL0     C47750   8.337   2.490   1.281 -0.8296 -0.1994 -0.7156
  347MOL0     O47751   8.417   2.458   1.386 -0.6388  0.0351  0.0828
  347MOL0     C47752   8.550   2.433   1.368 -0.8975 -0.0266 -0.5819
  347MOL0     C47753   8.653   2.518   1.425  0.0298  0.4775  0.5918
  347MOL0     C47754   8.787   2.480   1.416  0.4921 -0.6592  0.4335
  347MOL0     C47755   8.836   2.374   1.335  0.7413 -0.1233 -1.1243
  347MOL0     O47756   8.969   2.360   1.321 -0.0193  0.8752  0.4709
  347MOL0     C47757   9.020   2.275   1.212  0.4532 -0.2463  0.0018
  347MOL0     C47758   9.173   2.267   1.212 -0.1479  0.1029 -1.2569
  347MOL0     C47759   9.243   2.398   1.216 -0.2691 -0.0446 -0.0449
  347MOL0     C47760   9.395   2.375   1.198  0.3308  0.3747 -0.8317
  347MOL0     C47761   9.476   2.498   1.245 -0.0047  0.0549 -0.2867
  347MOL0     C47762   9.484   2.610   1.143 -0.4209 -0.2247 -0.0360
  347MOL0     C47763   9.542   2.741   1.212  0.8230  0.1350 -0.6405
  347MOL0     C47764   9.563   2.867   1.126 -0.3771 -0.9234 -0.3373
  347MOL0     N47765   9.644   2.974   1.208  0.2878  0.8071  0.2298
  347MOL0     C47766   9.643   3.105   1.164  0.9347  0.1423 -0.9969
  347MOL0     C47767   9.735   3.162   1.246 -0.0155  0.1182  0.0272
  347MOL0     C47768   9.755   3.307   1.246  0.1458  0.4267 -0.8234
  347MOL0     C47769   9.908   3.338   1.228 -0.0037  0.6349 -0.2738
  347MOL0     C47770   9.968   3.277   1.098 -0.2286 -0.3082 -0.3910
  347MOL0     C47771  10.055   3.147   1.107 -0.3465 -0.0374 -0.1767
  347MOL0     O47772  10.147   3.134   0.997  0.7276 -0.4110 -0.5430
  347MOL0     C47773  10.265   3.200   1.004 -0.0398 -0.4959  0.0904
  347MOL0     C47774  10.348   3.169   0.896 -0.2056  0.6972  0.5133
  347MOL0     C47775  10.478   3.234   0.889  0.4456  0.3264  0.3368
  347MOL0     C47776  10.570   3.192   0.767  0.3610 -0.4275  0.2278
  347MOL0     C47777  10.510   3.338   0.979  0.7289  0.5200  0.5789
  347MOL0     C47778  10.650   3.400   0.978 -0.2547  0.4799  0.7266
  347MOL0     O47779  10.752   3.322   0.940  0.1155 -0.1066  0.0732
  347MOL0     C47780  10.872   3.385   0.898  0.6061 -0.6762 -0.9742
  347MOL0     C47781  10.979   3.367   0.989 -0.2311  0.1088  0.2997
  347MOL0     C47782  11.088   3.448   0.962  0.2819  0.3550 -0.4029
  347MOL0     C47783  11.104   3.519   0.842 -0.1428 -0.0104 -0.2644
  347MOL0     O47784  11.217   3.597   0.805 -0.2288 -0.5372  0.2410
  347MOL0     C47785  11.323   3.604   0.911  0.4278  0.0700 -0.1128
  347MOL0     C47786  11.431   3.706   0.872  0.7730 -0.5662 -0.4229
  347MOL0     C47787  11.568   3.673   0.934  0.5847  0.1034  0.8895
  347MOL0     C47788  11.671   3.754   0.855 -0.1336 -0.4987  0.1531
  347MOL0     C47789  11.817   3.713   0.879 -0.3475 -0.4614  0.3281
  347MOL0     C47790  11.909   3.778   0.781  1.0503 -0.0725 -0.6155
  347MOL0     C47791  12.053   3.759   0.822  0.5040  0.1554  0.1972
  347MOL0     C47792  12.137   3.724   0.708  0.4298 -0.6544 -0.6699
  347MOL0    Cl47793  12.302   3.700   0.776  0.0624 -0.0782 -0.3679
  347MOL0     C47794  11.002   3.502   0.740  0.9486 -0.0889 -0.7469
  347MOL0     C47795  10.882   3.436   0.770  0.0032  0.1998  0.1316
  347MOL0     O47796  10.659   3.519   0.997 -0.8116  0.2443  0.2891
  347MOL0     C47797  10.424   3.365   1.082  0.6048  0.7319 -0.5794
  347MOL0     C47798  10.305   3.295   1.099  0.2186 -0.3405  0.1002
  347MOL0     N47799   9.791   3.067   1.335  0.4838 -0.4988  0.0460
  347MOL0     N47800   9.737   2.957   1.308  1.1782 -0.0915 -0.4523
  347MOL0     C47801   8.739   2.300   1.275  0.3846  0.4826 -0.2490
  347MOL0     C47802   8.599   2.319   1.295  0.0584 -0.9619 -0.5705
  347MOL0     C47803   8.191   2.497   1.311 -0.0753  0.6079 -0.3893
  347MOL0     C47804   8.145   2.451   1.441 -0.0958 -0.0737  1.1901
  347MOL0     C47805   8.006   2.449   1.475 -0.7359  0.3025 -0.1691
  347MOL0     C47806   7.908   2.500   1.387  0.3324 -0.0844  0.2385
  347MOL0     O47807   7.771   2.523   1.413 -0.7965 -0.1514  0.2492
  347MOL0     C47808   7.726   2.489   1.545 -0.0967 -0.3201 -0.8298
  347MOL0     C47809   7.573   2.535   1.559  0.1691 -0.0098  0.5999
  347MOL0     C47810   7.470   2.489   1.455  0.3640  0.1854  0.0179
  347MOL0     C47811   7.425   2.342   1.462  0.3963 -0.0081  0.1420
  347MOL0     C47812   7.345   2.311   1.582 -0.2970  0.1102  0.0903
  347MOL0     C47813   7.277   2.276   1.676  0.4064 -0.4998  0.5583
  347MOL0     C47814   7.956   2.548   1.263 -0.3612  0.3212  0.1562
  347MOL0     C47815   8.087   2.545   1.223 -0.0614  0.1227 -0.4554
  347MOL0     C47816   8.112   2.594   1.088  0.6800 -0.2997 -0.1401
  347MOL0     H47817   8.628   2.612   1.474  1.3516  2.8155 -2.8169
  347MOL0     H47818   8.871   2.539   1.452 -0.1690  0.3019  0.4351
  347MOL0     H47819   8.978   2.319   1.122  0.0535  0.3448  0.4653
  347MOL0     H47820   8.966   2.180   1.219 -0.3025  0.2399  1.1856
  347MOL0     H47821   9.215   2.197   1.284 -0.7771  1.2908  0.3133
  347MOL0     H47822   9.191   2.215   1.118 -3.8327  1.4041 -2.8947
  347MOL0     H47823   9.208   2.457   1.130 -1.1123  0.1024  0.3933
  347MOL0     H47824   9.224   2.450   1.310  2.6244 -1.8443  1.6652
  347MOL0     H47825   9.409   2.292   1.267 -3.1006  0.7165  0.4547
  347MOL0     H47826   9.418   2.359   1.092 -1.1211 -1.5616 -0.8971
  347MOL0     H47827   9.576   2.456   1.256 -0.0050  0.4610  1.6712
  347MOL0     H47828   9.426   2.521   1.340  0.7890 -2.3729  0.8106
  347MOL0     H47829   9.557   2.580   1.068 -0.8397  1.8637 -1.3286
  347MOL0     H47830   9.390   2.637   1.094  0.8259  0.5569 -2.0841
  347MOL0     H47831   9.643   2.719   1.248  0.1390  0.1037  1.3510
  347MOL0     H47832   9.477   2.763   1.297  0.2716  2.2505 -1.5433
  347MOL0     H47833   9.615   2.851   1.031  2.9160  1.4789  0.8764
  347MOL0     H47834   9.470   2.919   1.102 -1.4378 -1.6690  1.9178
  347MOL0     H47835   9.580   3.143   1.084  0.1222  0.4855 -0.2091
  347MOL0     H47836   9.720   3.331   1.346  2.3317  3.0049 -0.5681
  347MOL0     H47837   9.692   3.363   1.176 -3.0181 -0.3576  1.1960
  347MOL0     H47838   9.901   3.447   1.229 -2.6200  0.5813 -1.9501
  347MOL0     H47839   9.975   3.315   1.311  0.6321 -1.4718 -1.2853
  347MOL0     H47840   9.897   3.265   1.016  0.5426  3.2898 -1.8081
  347MOL0     H47841  10.026   3.363   1.062 -0.6874  1.0924  2.0083
  347MOL0     H47842  10.117   3.144   1.197  3.6510  3.1909 -2.4758
  347MOL0     H47843   9.993   3.058   1.092  1.2103 -1.2944  0.5535
  347MOL0     H47844  10.319   3.104   0.814  1.2547  1.4335 -0.6417
  347MOL0     H47845  10.620   3.275   0.717  2.2215 -2.5991 -1.6771
  347MOL0     H47846  10.509   3.143   0.691  0.2514 -1.5702  1.0286
  347MOL0     H47847  10.649   3.126   0.802 -0.3833 -1.3842  0.1513
  347MOL0     H47848  10.972   3.327   1.090  0.1406  3.5187  1.8376
  347MOL0     H47849  11.167   3.446   1.036  2.4745 -0.8351 -2.6123
  347MOL0     H47850  11.281   3.630   1.008 -2.2222  1.1708 -1.4625
  347MOL0     H47851  11.378   3.510   0.913  0.2856 -0.0050  1.1650
  347MOL0     H47852  11.433   3.718   0.763 -2.4396  0.9392 -0.4085
  347MOL0     H47853  11.397   3.794   0.926  2.2160 -1.8271  2.8333
  347MOL0     H47854  11.585   3.565   0.920  3.1545  0.4635  0.7234
  347MOL0     H47855  11.582   3.696   1.040 -0.1843 -4.0721  2.1037
  347MOL0     H47856  11.655   3.857   0.887  0.9104 -0.9707  2.4079
  347MOL0     H47857  11.650   3.746   0.748  1.5003 -0.1508 -0.2237
  347MOL0     H47858  11.850   3.739   0.980 -1.6702 -0.0909  0.6862
  347MOL0     H47859  11.820   3.604   0.888 -5.0193 -0.8858 -0.8399
  347MOL0     H47860  11.887   3.885   0.773  0.4577 -0.2066 -0.8637
  347MOL0     H47861  11.899   3.734   0.681 -0.5278  2.6082 -1.7451
  347MOL0     H47862  12.051   3.676   0.894 -1.9804 -0.7557 -0.8266
  347MOL0     H47863  12.091   3.845   0.878 -0.7919  1.1609 -0.4267
  347MOL0     H47864  12.147   3.800   0.630 -1.7782  0.9023  0.4417
  347MOL0     H47865  12.122   3.626   0.663  1.9100 -0.1924 -2.2738
  347MOL0     H47866  11.018   3.550   0.644 -0.2660 -0.3495 -1.0934
  347MOL0     H47867  10.812   3.416   0.689  1.4817 -2.1686 -0.6820
  347MOL0     H47868  10.458   3.427   1.164 -0.2426 -0.1848  0.4899
  347MOL0     H47869  10.256   3.313   1.194 -0.3049 -1.4686  0.0632
  347MOL0     H47870   8.765   2.210   1.219 -0.6419  0.1551 -0.2336
  347MOL0     H47871   8.522   2.265   1.240 -1.1242  1.3731 -1.3480
  347MOL0     H47872   8.212   2.402   1.511 -0.6475 -4.3125 -0.9446
  347MOL0     H47873   7.975   2.422   1.576 -0.0513 -1.2708 -0.3566
  347MOL0     H47874   7.741   2.381   1.559  0.8180  0.1032  2.1781
  347MOL0     H47875   7.790   2.551   1.608  0.6681 -1.8701 -0.0378
  347MOL0     H47876   7.578   2.644   1.554  2.3264 -0.0363  1.2633
  347MOL0     H47877   7.538   2.505   1.659  0.2436  3.4131  1.7824
  347MOL0     H47878   7.379   2.547   1.471 -1.2723 -2.7780  2.6027
  347MOL0     H47879   7.506   2.513   1.354  0.0152  0.4478 -0.0481
  347MOL0     H47880   7.509   2.272   1.458 -0.3456 -1.2176  3.0047
  347MOL0     H47881   7.362   2.321   1.376  0.1301 -2.2364  0.8134
  347MOL0     H47882   7.219   2.240   1.758 -1.7904  0.6309 -0.4240
  347MOL0     H47883   7.881   2.593   1.199  0.5722 -0.2683 -1.4148
  347MOL0     H47884   8.020   2.592   1.028 -1.0158 -0.7833  2.3503
  347MOL0     H47885   8.167   2.689   1.090  2.2802 -1.1477 -1.1681
  347MOL0     H47886   8.171   2.517   1.037  1.7388 -0.4540  1.2582
  348MOL0     O47887   1.760   0.970   6.480  0.0149 -0.4829  0.4470
  348MOL0     C47888   1.796   0.969   6.598 -0.0304 -0.7842 -1.0513
  348MOL0     O47889   1.747   1.056   6.696 -0.2360 -0.7287  0.2866
  348MOL0     C47890   1.658   1.149   6.647  0.3036  0.4019 -0.2803
  348MOL0     C47891   1.702   1.282   6.626 -0.6349  0.9372 -0.2657
  348MOL0     C47892   1.610   1.382   6.574 -0.2180  0.5569 -0.2880
  348MOL0     C47893   1.473   1.346   6.554  0.2878  0.1247  0.8948
  348MOL0     O47894   1.382   1.437   6.515 -0.7911 -0.0184  0.1425
  348MOL0     C47895   1.437   1.563   6.463  1.0423  0.0487  0.7337
  348MOL0     C47896   1.329   1.645   6.389  0.1495 -0.0727  0.0133
  348MOL0     C47897   1.404   1.765   6.317 -0.4424  0.0929  1.0233
  348MOL0     C47898   1.330   1.792   6.182 -0.8837  0.2478 -0.3215
  348MOL0     C47899   1.350   1.925   6.114 -0.2087  0.5338  0.1424
  348MOL0     C47900   1.220   1.994   6.099 -0.0482 -0.2127 -0.2440
  348MOL0     C47901   1.237   2.127   6.017 -0.2609  0.1210  0.3694
  348MOL0     C47902   1.315   2.247   6.074 -0.0519  0.5556  0.0251
  348MOL0     N47903   1.327   2.348   5.970  0.1072  0.2951  0.0559
  348MOL0     C47904   1.449   2.389   5.910  0.0420 -0.7553 -0.1398
  348MOL0     C47905   1.411   2.502   5.843  0.7605 -0.2213 -0.3538
  348MOL0     C47906   1.503   2.595   5.765 -0.4298  0.6887 -0.8544
  348MOL0     C47907   1.524   2.724   5.839 -0.6060 -0.2615 -0.2025
  348MOL0     C47908   1.589   2.836   5.749  0.2897  0.1438  0.7923
  348MOL0     C47909   1.596   2.975   5.829  0.3331 -0.3258 -0.0233
  348MOL0     O47910   1.678   2.956   5.942 -0.0375  0.2815 -0.2995
  348MOL0     C47911   1.818   2.947   5.915  0.3301  1.0059  0.3353
  348MOL0     C47912   1.888   2.923   6.034 -0.1107  0.4998 -0.0946
  348MOL0     C47913   2.023   2.913   6.041 -0.5508  0.1535 -0.1226
  348MOL0     C47914   2.077   2.907   6.182  0.2543  0.0701  0.5240
  348MOL0     C47915   2.099   2.928   5.916 -0.3428  0.3592 -0.1917
  348MOL0     C47916   2.244   2.919   5.905 -0.4090 -0.4810 -0.4223
  348MOL0     O47917   2.310   2.971   5.795  0.2523 -0.7133 -0.5814
  348MOL0     C47918   2.448   2.966   5.800 -0.6571  0.4396 -0.3695
  348MOL0     C47919   2.526   3.075   5.843 -1.1519  0.2305 -0.4170
  348MOL0     C47920   2.669   3.060   5.856 -0.0344 -0.0004  0.2268
  348MOL0     C47921   2.733   2.941   5.811 -0.4389 -0.2976  0.2904
  348MOL0     O47922   2.869   2.943   5.834 -0.4414 -0.0854  0.1195
  348MOL0     C47923   2.934   2.833   5.884  0.0922 -0.2069  0.0871
  348MOL0     C47924   3.070   2.876   5.938 -0.5623  1.0165 -0.2629
  348MOL0     C47925   3.142   2.755   5.996 -0.0457 -0.1238 -1.1728
  348MOL0     C47926   3.293   2.772   6.009  0.4549 -0.5353 -1.2771
  348MOL0     C47927   3.366   2.763   5.883 -0.5544  0.2710  0.1734
  348MOL0     C47928   3.517   2.761   5.902 -0.2155 -0.7484  0.5223
  348MOL0     C47929   3.560   2.903   5.947  0.0176  0.4691 -0.0401
  348MOL0     C47930   3.715   2.917   5.925  0.1972 -0.5525  0.6469
  348MOL0    Cl47931   3.791   2.796   6.039  0.1716 -0.1509  0.0057
  348MOL0     C47932   2.655   2.830   5.769 -0.2587 -0.5998  0.1825
  348MOL0     C47933   2.517   2.855   5.755  0.3060  0.0279 -0.0371
  348MOL0     O47934   2.300   2.854   5.995  0.3415  0.3557  0.3475
  348MOL0     C47935   2.029   2.956   5.803  0.6126  0.1146  0.4299
  348MOL0     C47936   1.892   2.968   5.798  0.0302 -0.0397  0.3830
  348MOL0     N47937   1.281   2.534   5.863 -0.4650 -0.4249 -0.6692
  348MOL0     N47938   1.230   2.439   5.938 -0.4296  0.0568 -0.4638
  348MOL0     C47939   1.430   1.218   6.583 -0.6205 -0.6722  0.0426
  348MOL0     C47940   1.521   1.122   6.631 -0.5241  0.0487 -0.3714
  348MOL0     C47941   1.894   0.867   6.643  0.6375  0.0613  0.3168
  348MOL0     C47942   1.923   0.861   6.781  0.2373  1.3287 -0.1119
  348MOL0     C47943   2.007   0.760   6.836 -0.1093  0.4674  0.3494
  348MOL0     C47944   2.070   0.670   6.747  1.1854  0.4345  0.0279
  348MOL0     O47945   2.163   0.570   6.783  0.0089 -0.0518  0.2762
  348MOL0     C47946   2.206   0.543   6.917 -0.2026  0.1471 -0.8092
  348MOL0     C47947   2.272   0.401   6.909  0.3694 -0.1908  0.2326
  348MOL0     C47948   2.382   0.370   7.013  0.2187  0.6471  0.8431
  348MOL0     C47949   2.439   0.229   6.993 -0.0751 -0.1365 -0.6176
  348MOL0     C47950   2.561   0.220   7.070 -0.6991  0.1429 -0.2386
  348MOL0     C47951   2.656   0.207   7.141  0.3217 -0.4209 -0.0482
  348MOL0     C47952   2.042   0.675   6.613 -1.0870 -1.0397 -0.2738
  348MOL0     C47953   1.950   0.766   6.555 -1.3209 -0.2374  0.3343
  348MOL0     C47954   1.920   0.746   6.409 -0.3599  0.7598 -0.2172
  348MOL0     H47955   1.804   1.310   6.651 -0.4005 -1.5705  2.0353
  348MOL0     H47956   1.646   1.484   6.567 -0.1544  0.9701  3.7162
  348MOL0     H47957   1.515   1.539   6.391 -0.9748 -1.8860 -0.9468
  348MOL0     H47958   1.466   1.622   6.551  0.5192 -0.8110  1.4967
  348MOL0     H47959   1.292   1.578   6.310  0.8385  0.1207 -0.4880
  348MOL0     H47960   1.254   1.676   6.461  0.4718  0.4368  0.1337
  348MOL0     H47961   1.413   1.853   6.380  0.4811  0.8124 -0.0769
  348MOL0     H47962   1.507   1.739   6.289 -0.4863  1.0343 -0.0864
  348MOL0     H47963   1.359   1.712   6.114  0.2095  0.2373  0.1349
  348MOL0     H47964   1.223   1.779   6.201 -1.0198 -0.3398 -1.4062
  348MOL0     H47965   1.407   1.907   6.022 -1.0401  2.1391 -0.7239
  348MOL0     H47966   1.403   1.996   6.178 -0.4565  2.1163 -1.3317
  348MOL0     H47967   1.133   1.941   6.060 -0.4047  0.8089 -0.8723
  348MOL0     H47968   1.188   2.029   6.198 -2.2338 -0.3893 -0.8319
  348MOL0     H47969   1.141   2.174   5.994 -0.3005 -0.7238 -1.3508
  348MOL0     H47970   1.278   2.102   5.919  1.3098  1.1189  0.7373
  348MOL0     H47971   1.247   2.287   6.150 -0.3993  1.6046 -0.8158
  348MOL0     H47972   1.415   2.226   6.112 -0.2420  0.6910  0.6049
  348MOL0     H47973   1.548   2.348   5.925 -0.0086 -0.6656  0.4469
  348MOL0     H47974   1.463   2.618   5.666  0.4334 -0.1235 -1.4164
  348MOL0     H47975   1.600   2.546   5.750 -0.7819 -0.9658  1.7200
  348MOL0     H47976   1.423   2.752   5.871 -0.3420 -0.8431  1.2252
  348MOL0     H47977   1.590   2.707   5.925 -0.9605 -1.4108 -0.1442
  348MOL0     H47978   1.684   2.821   5.697  0.9314  3.0492  0.9358
  348MOL0     H47979   1.519   2.853   5.666  0.0961 -0.8102  0.7558
  348MOL0     H47980   1.635   3.058   5.770  1.9072  1.5684  3.4209
  348MOL0     H47981   1.494   3.004   5.855  0.7673  0.5705  0.7150
  348MOL0     H47982   1.826   2.922   6.123  2.3266 -0.8347  1.7183
  348MOL0     H47983   2.133   2.814   6.192 -0.4722 -0.8177 -2.5914
  348MOL0     H47984   1.996   2.901   6.256 -0.3159  0.2709 -0.0768
  348MOL0     H47985   2.141   2.996   6.182 -0.8283  1.0203 -3.2341
  348MOL0     H47986   2.484   3.166   5.886 -1.0306 -0.0191  0.2373
  348MOL0     H47987   2.720   3.139   5.911 -0.4546  2.0346 -2.1474
  348MOL0     H47988   2.875   2.790   5.965  1.9893 -3.1348  0.0799
  348MOL0     H47989   2.929   2.750   5.813 -1.9451 -0.4195  0.3987
  348MOL0     H47990   3.139   2.933   5.875  1.0914  1.7779  2.1136
  348MOL0     H47991   3.042   2.946   6.017 -2.1412  1.2157 -0.9576
  348MOL0     H47992   3.123   2.670   5.930 -0.3725 -0.5044 -0.6040
  348MOL0     H47993   3.106   2.733   6.098  2.2335 -3.4973 -0.9368
  348MOL0     H47994   3.339   2.703   6.080 -1.8212 -1.4076 -0.5400
  348MOL0     H47995   3.312   2.870   6.053 -2.3607  0.7119 -2.5630
  348MOL0     H47996   3.333   2.678   5.822  1.3793 -0.6352  0.3046
  348MOL0     H47997   3.351   2.851   5.821  1.2653  1.7960  1.7648
  348MOL0     H47998   3.553   2.733   5.803 -2.2273 -0.1455 -0.4306
  348MOL0     H47999   3.538   2.687   5.980  2.3846 -1.1039 -0.4059
  348MOL0     H48000   3.546   2.919   6.054  1.5415  0.9709  0.1129
  348MOL0     H48001   3.509   2.980   5.888 -3.3425 -1.8727 -0.4303
  348MOL0     H48002   3.753   3.018   5.944 -0.9624  0.0746 -0.1976
  348MOL0     H48003   3.750   2.898   5.823  1.7350  1.9984  0.6068
  348MOL0     H48004   2.696   2.732   5.747 -1.6837 -1.0749 -0.4971
  348MOL0     H48005   2.455   2.768   5.735 -1.2148  1.0494  0.0084
  348MOL0     H48006   2.081   2.973   5.710  1.5550  0.2313  0.9679
  348MOL0     H48007   1.848   2.990   5.701  0.5830 -4.3233 -1.0628
  348MOL0     H48008   1.328   1.191   6.558 -0.8243  1.3299 -1.4968
  348MOL0     H48009   1.492   1.018   6.642  0.2796 -0.1857 -0.3971
  348MOL0     H48010   1.869   0.921   6.854 -1.4087  0.1127 -0.2777
  348MOL0     H48011   2.021   0.747   6.942 -0.8831  1.6144  0.6211
  348MOL0     H48012   2.283   0.604   6.965 -0.1608  0.4189 -1.2130
  348MOL0     H48013   2.123   0.543   6.987 -0.3419  0.8369 -0.9652
  348MOL0     H48014   2.319   0.386   6.811 -1.3107 -0.7121 -0.5378
  348MOL0     H48015   2.209   0.312   6.904  2.6625 -1.8308 -1.3113
  348MOL0     H48016   2.457   0.449   6.999 -0.3848  1.1179  0.1946
  348MOL0     H48017   2.326   0.372   7.107 -0.6413  1.4303  0.3325
  348MOL0     H48018   2.453   0.209   6.887 -1.8614 -0.3509 -0.8444
  348MOL0     H48019   2.365   0.160   7.036 -2.0194 -0.4866 -4.1593
  348MOL0     H48020   2.747   0.222   7.195  0.4967  1.3858 -0.7616
  348MOL0     H48021   2.087   0.605   6.543  0.4559  0.7828 -1.1749
  348MOL0     H48022   1.947   0.839   6.359  3.9465 -0.1334  0.0381
  348MOL0     H48023   1.974   0.661   6.365 -0.3405  1.2602 -1.1829
  348MOL0     H48024   1.812   0.729   6.407 -0.3675  0.6956 -3.2775
  349MOL0     O48025   6.129   4.345   7.873 -0.5295 -0.2834  0.2480
  349MOL0     C48026   6.018   4.385   7.910 -0.3610 -0.2284 -0.0611
  349MOL0     O48027   6.003   4.441   8.031 -0.3600 -0.2092  0.8982
  349MOL0     C48028   6.110   4.435   8.120  0.1709  0.2387 -0.6217
  349MOL0     C48029   6.088   4.353   8.223  0.0126  0.0631 -0.6963
  349MOL0     C48030   6.175   4.327   8.327  0.6736 -0.1202 -0.3918
  349MOL0     C48031   6.292   4.398   8.331 -1.1416 -0.7142 -0.6368
  349MOL0     O48032   6.367   4.368   8.439 -0.8690  0.1249 -0.1361
  349MOL0     C48033   6.453   4.468   8.489 -0.0135 -0.2290 -0.4044
  349MOL0     C48034   6.530   4.386   8.598 -0.0903  0.3838  0.0869
  349MOL0     C48035   6.433   4.318   8.701  0.5420  0.0715 -0.3536
  349MOL0     C48036   6.511   4.276   8.823  0.0937 -0.1632  0.2151
  349MOL0     C48037   6.419   4.203   8.924 -0.1044  1.0584 -0.5773
  349MOL0     C48038   6.499   4.147   9.052 -0.3073 -0.0589  0.1598
  349MOL0     C48039   6.469   4.008   9.094 -1.0549  0.4952  0.1655
  349MOL0     C48040   6.326   3.977   9.143 -0.4905  0.1524 -0.4846
  349MOL0     N48041   6.320   4.007   9.294  0.4729  0.0329  0.0389
  349MOL0     C48042   6.314   4.136   9.341 -0.1649 -0.3897  0.4515
  349MOL0     C48043   6.340   4.118   9.471 -0.2686  0.5924 -0.5223
  349MOL0     C48044   6.359   4.225   9.567 -0.1952  0.7530 -0.8676
  349MOL0     C48045   6.468   4.323   9.523  0.0256  0.1314 -0.6517
  349MOL0     C48046   6.596   4.258   9.466  0.2545  0.1504 -1.1277
  349MOL0     C48047   6.690   4.360   9.422  0.0823  0.2274  0.2258
  349MOL0     O48048   6.643   4.411   9.300 -0.0428  0.6369  0.1275
  349MOL0     C48049   6.684   4.534   9.253  0.3851  0.0680  0.1951
  349MOL0     C48050   6.635   4.571   9.127  0.7585  0.2562 -0.3762
  349MOL0     C48051   6.656   4.689   9.059 -0.5990 -0.4879 -0.6966
  349MOL0     C48052   6.595   4.711   8.928 -0.4692  0.2539 -0.9712
  349MOL0     C48053   6.737   4.781   9.131  0.1556  0.1666  0.1935
  349MOL0     C48054   6.767   4.911   9.076  1.3082 -0.5217 -0.0930
  349MOL0     O48055   6.876   4.973   9.133 -0.3611  0.1264  0.4443
  349MOL0     C48056   6.918   5.089   9.075 -0.0364  0.0239 -0.2868
  349MOL0     C48057   7.029   5.080   8.996  0.0718  0.4680  0.1813
  349MOL0     C48058   7.072   5.196   8.927  0.6928 -0.2382  0.1499
  349MOL0     C48059   7.008   5.316   8.941  0.8237  0.0488  0.9448
  349MOL0     O48060   7.026   5.414   8.848 -0.1576 -0.0169  0.4901
  349MOL0     C48061   7.037   5.547   8.887 -0.5082  0.3473 -0.0402
  349MOL0     C48062   7.071   5.637   8.761  0.1091  0.7737  0.1182
  349MOL0     C48063   7.208   5.614   8.700  0.5295 -0.3060  0.3059
  349MOL0     C48064   7.229   5.703   8.578  0.1669  0.1058 -0.8013
  349MOL0     C48065   7.215   5.636   8.439  0.2181 -1.0207  0.5926
  349MOL0     C48066   7.076   5.578   8.427  0.2944 -0.0589 -0.0283
  349MOL0     C48067   7.061   5.510   8.285  0.3500 -0.0618 -0.4609
  349MOL0     C48068   6.916   5.460   8.283 -0.0024 -0.1625 -0.6109
  349MOL0    Cl48069   6.878   5.364   8.131  0.4185  0.5595 -0.0971
  349MOL0     C48070   6.896   5.317   9.027 -0.2376 -0.1479 -0.0010
  349MOL0     C48071   6.852   5.210   9.101 -0.3673 -0.9025  0.3869
  349MOL0     O48072   6.697   4.962   8.995  0.5267 -0.1421 -0.0669
  349MOL0     C48073   6.783   4.748   9.259 -0.2274  0.3929 -0.1308
  349MOL0     C48074   6.771   4.623   9.326 -0.1248 -0.8378  0.2024
  349MOL0     N48075   6.349   3.984   9.503  0.5622  0.7453 -0.7382
  349MOL0     N48076   6.329   3.920   9.390 -1.1492 -0.0222 -0.2275
  349MOL0     C48077   6.321   4.477   8.219  0.2326 -0.3995 -0.1267
  349MOL0     C48078   6.234   4.492   8.115  0.4914  0.4196  0.6436
  349MOL0     C48079   5.901   4.379   7.820  0.6266  0.5608  0.4266
  349MOL0     C48080   5.784   4.448   7.850  0.9865 -0.4232 -0.2653
  349MOL0     C48081   5.675   4.462   7.763 -0.1417 -0.1743 -0.7066
  349MOL0     C48082   5.678   4.398   7.642 -0.0280 -0.6774 -0.1582
  349MOL0     O48083   5.555   4.396   7.586  0.0928  0.2850  0.3908
  349MOL0     C48084   5.529   4.347   7.448 -0.2914  0.3993 -0.0275
  349MOL0     C48085   5.488   4.202   7.441 -0.3121  0.2143  0.5630
  349MOL0     C48086   5.344   4.177   7.488 -0.5031  0.4314 -0.1032
  349MOL0     C48087   5.236   4.222   7.390 -0.8571  0.3207  0.4846
  349MOL0     C48088   5.124   4.278   7.456  0.3652  0.9286  0.1728
  349MOL0     C48089   5.026   4.313   7.515  0.0574  0.5016 -0.0064
  349MOL0     C48090   5.795   4.333   7.606 -0.2050  0.1706 -0.8850
  349MOL0     C48091   5.903   4.316   7.691 -0.5877 -0.3066 -0.1931
  349MOL0     C48092   6.029   4.261   7.627 -0.0675  0.3308  0.6119
  349MOL0     H48093   6.002   4.288   8.239  0.6252 -0.3077  1.4441
  349MOL0     H48094   6.154   4.252   8.403  2.0082 -1.8505 -1.6221
  349MOL0     H48095   6.385   4.541   8.532  0.8426 -0.1311  0.8592
  349MOL0     H48096   6.518   4.508   8.410  0.4716 -1.0604 -0.4410
  349MOL0     H48097   6.594   4.319   8.540 -2.6583 -1.1231 -1.2215
  349MOL0     H48098   6.586   4.463   8.651 -1.9451 -0.5694  3.7648
  349MOL0     H48099   6.357   4.391   8.730  0.9801  0.0031  1.0374
  349MOL0     H48100   6.378   4.233   8.658  2.5294 -2.2467  1.3503
  349MOL0     H48101   6.589   4.206   8.793 -1.6370 -2.3407  0.5354
  349MOL0     H48102   6.554   4.365   8.870  0.7545 -0.2049 -0.2984
  349MOL0     H48103   6.372   4.115   8.879 -1.2137  0.7123  1.1546
  349MOL0     H48104   6.335   4.265   8.958 -0.9956 -1.0684  1.4101
  349MOL0     H48105   6.604   4.143   9.021  0.2540 -1.5468  2.0613
  349MOL0     H48106   6.485   4.218   9.134 -0.7627 -1.2208  1.1169
  349MOL0     H48107   6.539   3.969   9.168 -1.7535  0.5025  0.8442
  349MOL0     H48108   6.479   3.953   9.000 -2.9684  3.4679 -1.9287
  349MOL0     H48109   6.251   4.039   9.094 -1.6034  0.6453  1.6989
  349MOL0     H48110   6.314   3.869   9.136 -0.2606  0.0294  0.7461
  349MOL0     H48111   6.292   4.227   9.286  1.3237  0.1707  0.7357
  349MOL0     H48112   6.377   4.172   9.661 -2.5576  2.2861  0.5458
  349MOL0     H48113   6.267   4.281   9.586  0.6704  2.3871 -1.3428
  349MOL0     H48114   6.423   4.386   9.445  2.0826  2.2985 -0.2207
  349MOL0     H48115   6.496   4.392   9.603  2.3211 -0.1302 -1.1411
  349MOL0     H48116   6.639   4.206   9.553 -1.1913  0.9000  0.0796
  349MOL0     H48117   6.574   4.181   9.391 -1.9164 -0.3105 -0.1089
  349MOL0     H48118   6.698   4.446   9.490 -2.5031  2.3291 -1.8870
  349MOL0     H48119   6.791   4.328   9.397  1.1619  3.2037  0.3800
  349MOL0     H48120   6.576   4.493   9.080  2.2919  1.2532 -4.4359
  349MOL0     H48121   6.669   4.735   8.850  2.5639  0.5162  1.7749
  349MOL0     H48122   6.520   4.789   8.944  0.3368  0.7417  0.5918
  349MOL0     H48123   6.529   4.629   8.900 -0.2064  0.2669 -1.6706
  349MOL0     H48124   7.078   4.985   8.979  0.0191  0.6917 -1.3476
  349MOL0     H48125   7.153   5.174   8.859 -0.8506 -2.0324 -1.2031
  349MOL0     H48126   6.942   5.590   8.920 -0.8553  0.6562 -1.3692
  349MOL0     H48127   7.111   5.559   8.967 -0.9895  3.0236  0.1243
  349MOL0     H48128   6.988   5.630   8.690 -0.1950 -2.4630  0.6749
  349MOL0     H48129   7.082   5.737   8.804 -0.7036  0.2825  1.5521
  349MOL0     H48130   7.209   5.507   8.674  0.9879 -0.0759 -0.7004
  349MOL0     H48131   7.287   5.629   8.773  1.1028 -0.1804 -0.3276
  349MOL0     H48132   7.331   5.744   8.582  0.3461 -0.3314 -0.8197
  349MOL0     H48133   7.178   5.800   8.577  1.1826  0.6825  0.4518
  349MOL0     H48134   7.227   5.703   8.354 -2.5692 -2.8746 -1.4267
  349MOL0     H48135   7.288   5.554   8.434  1.0454 -0.5152  2.9263
  349MOL0     H48136   7.003   5.658   8.438  1.6306  1.2918 -0.5670
  349MOL0     H48137   7.052   5.503   8.502 -1.2998  0.3710 -0.0692
  349MOL0     H48138   7.123   5.421   8.291  1.3565  0.5986 -0.7378
  349MOL0     H48139   7.087   5.570   8.197  0.7379  0.4707  0.0124
  349MOL0     H48140   6.842   5.540   8.297  0.8627  0.3440  1.5004
  349MOL0     H48141   6.898   5.402   8.374 -1.2034  1.2183  0.0907
  349MOL0     H48142   6.836   5.406   9.043  1.2720  0.7985  0.6705
  349MOL0     H48143   6.768   5.222   9.169 -0.7428  1.3303 -0.4060
  349MOL0     H48144   6.830   4.827   9.317  1.3214 -0.0104 -0.7831
  349MOL0     H48145   6.837   4.596   9.408  1.8589 -0.1668 -1.1023
  349MOL0     H48146   6.421   4.517   8.206  0.4954 -0.6311  1.0746
  349MOL0     H48147   6.273   4.548   8.030 -1.0835 -1.7967 -1.6874
  349MOL0     H48148   5.774   4.515   7.935  1.0294 -1.0208  0.2198
  349MOL0     H48149   5.580   4.505   7.794  0.8606  1.5207  0.1743
  349MOL0     H48150   5.455   4.405   7.391  1.9585  1.9069 -1.5895
  349MOL0     H48151   5.621   4.357   7.390 -0.4827 -0.4619 -0.4990
  349MOL0     H48152   5.550   4.136   7.504 -1.3280 -3.2972 -1.8121
  349MOL0     H48153   5.501   4.164   7.339 -0.0868  0.0378  0.6559
  349MOL0     H48154   5.325   4.071   7.504 -3.9766  0.8957 -0.3531
  349MOL0     H48155   5.332   4.227   7.585 -1.2787  1.1360 -0.5484
  349MOL0     H48156   5.197   4.131   7.344  2.7023 -1.4451  0.6160
  349MOL0     H48157   5.268   4.293   7.314 -2.1530  0.3807 -0.0251
  349MOL0     H48158   4.931   4.344   7.555  0.5685  1.5584  0.4401
  349MOL0     H48159   5.799   4.294   7.504  0.6810 -1.5116 -0.2493
  349MOL0     H48160   6.065   4.182   7.693  1.0932  1.3920  1.3052
  349MOL0     H48161   6.021   4.218   7.527  4.4463  1.4970 -0.4942
  349MOL0     H48162   6.110   4.333   7.612 -0.2831  0.4482 -0.0039
  350MOL0     O48163   0.180  11.002  10.280 -0.0496  0.1879  0.7384
  350MOL0     C48164   0.120  10.913  10.218  0.6387 -0.1244 -0.1920
  350MOL0     O48165   0.180  10.795  10.181  0.1473  0.2893  1.1093
  350MOL0     C48166   0.313  10.782  10.189 -0.1518  0.1112 -0.0412
  350MOL0     C48167   0.352  10.670  10.265  0.2775 -0.1736 -0.4459
  350MOL0     C48168   0.491  10.633  10.265  0.2207  0.4660  0.7505
  350MOL0     C48169   0.578  10.714  10.207  0.3236  0.0912  0.0814
  350MOL0     O48170   0.704  10.674  10.241 -0.8535  0.0753  0.0371
  350MOL0     C48171   0.814  10.758  10.203 -0.3135  0.0733  0.9750
  350MOL0     C48172   0.947  10.692  10.257  0.2978 -0.3521  0.2466
  350MOL0     C48173   1.077  10.722  10.182 -0.6423 -0.3222 -0.0847
  350MOL0     C48174   1.106  10.874  10.188  0.4183 -0.1597 -0.1041
  350MOL0     C48175   1.233  10.904  10.108 -0.0477 -0.2844  0.1234
  350MOL0     C48176   1.355  10.918  10.203 -0.7372  1.4592 -0.2995
  350MOL0     C48177   1.419  10.780  10.249  0.2133  0.1172 -0.6980
  350MOL0     C48178   1.564  10.784  10.286 -0.2967 -0.1335 -0.2119
  350MOL0     N48179   1.661  10.803  10.179 -0.2435 -0.0024  0.5726
  350MOL0     C48180   1.771  10.724  10.155  0.4965  0.1497 -0.0647
  350MOL0     C48181   1.845  10.803  10.077 -0.2739 -0.3768  0.0361
  350MOL0     C48182   1.975  10.753  10.014 -0.1064 -0.0577 -0.0244
  350MOL0     C48183   2.094  10.831  10.065 -0.1128  1.4693 -0.3285
  350MOL0     C48184   2.127  10.788  10.215 -0.5433 -0.2950  0.1262
  350MOL0     C48185   2.256  10.866  10.249 -1.1304 -0.8258 -0.6474
  350MOL0     O48186   2.321  10.820  10.369 -0.1765 -0.3949  0.4201
  350MOL0     C48187   2.435  10.884  10.407 -0.6677 -0.1523  0.3081
  350MOL0     C48188   2.503  10.986  10.334 -0.6095  0.2254  0.4780
  350MOL0     C48189   2.629  11.042  10.363 -0.1417  0.7286 -1.1093
  350MOL0     C48190   2.683  11.153  10.283  0.8583 -0.3985 -0.1737
  350MOL0     C48191   2.695  10.986  10.473  0.0176 -0.0575  1.0162
  350MOL0     C48192   2.833  11.028  10.506 -0.0052  0.6397  0.5301
  350MOL0     O48193   2.913  11.083  10.412 -0.9204  0.1969 -0.3161
  350MOL0     C48194   3.041  11.127  10.427  0.2855 -0.1533  0.8616
  350MOL0     C48195   3.101  11.168  10.540 -0.3233 -0.4572 -0.0616
  350MOL0     C48196   3.231  11.228  10.537  0.0826 -0.7952 -0.1108
  350MOL0     C48197   3.304  11.243  10.425 -0.2497 -0.2036 -0.3114
  350MOL0     O48198   3.429  11.296  10.428 -0.0545  0.0177  1.0649
  350MOL0     C48199   3.518  11.246  10.327  0.0381  0.2884 -0.3933
  350MOL0     C48200   3.658  11.310  10.360 -0.0515 -0.0139 -0.0856
  350MOL0     C48201   3.664  11.463  10.324  0.2499  0.0342  0.0833
  350MOL0     C48202   3.784  11.539  10.384 -0.4480  0.0144  0.1883
  350MOL0     C48203   3.744  11.696  10.383  0.5750  0.7369  0.2095
  350MOL0     C48204   3.854  11.788  10.450 -0.3567 -0.1459  0.4422
  350MOL0     C48205   3.827  11.940  10.439 -0.0792 -0.4919 -0.2188
  350MOL0     C48206   3.958  12.024  10.450 -0.0189  0.1782  0.3085
  350MOL0    Cl48207   4.010  12.050  10.278 -0.0664  0.2271 -0.6600
  350MOL0     C48208   3.240  11.193  10.305 -0.1303  0.2990  0.1641
  350MOL0     C48209   3.109  11.143  10.311  0.0408  0.3076  0.7961
  350MOL0     O48210   2.875  10.979  10.615  0.3161  0.0275  0.0273
  350MOL0     C48211   2.621  10.901  10.562 -0.6670 -0.0539 -0.4843
  350MOL0     C48212   2.501  10.841  10.524  0.4838 -0.6876 -0.9590
  350MOL0     N48213   1.783  10.925  10.052 -0.0058 -0.6094  0.1740
  350MOL0     N48214   1.676  10.921  10.115 -0.0590  0.6805 -0.3514
  350MOL0     C48215   0.537  10.824  10.128  0.1452  1.0930  0.6167
  350MOL0     C48216   0.402  10.853  10.119  0.4516  0.2633 -0.6944
  350MOL0     C48217  -0.028  10.932  10.201  0.0016 -0.1237  0.2919
  350MOL0     C48218  -0.071  11.072  10.199  0.0566  0.1708 -1.1552
  350MOL0     C48219  -0.205  11.096  10.170  0.2825 -0.4074 -0.5778
  350MOL0     C48220  -0.291  10.996  10.163 -0.2862 -1.1560 -0.1504
  350MOL0     O48221  -0.424  11.028  10.143 -0.0517 -0.0710  0.4876
  350MOL0     C48222  -0.526  10.975  10.224 -0.0093  0.3715  0.4802
  350MOL0     C48223  -0.649  11.063  10.253 -0.9663  0.0037  1.0231
  350MOL0     C48224  -0.612  11.205  10.310  0.4247 -0.4125 -0.3715
  350MOL0     C48225  -0.739  11.272  10.369 -0.2051 -0.3312 -0.1354
  350MOL0     C48226  -0.834  11.303  10.263  0.0537  0.5867  0.9880
  350MOL0     C48227  -0.914  11.313  10.169  0.4695  0.2766 -0.2003
  350MOL0     C48228  -0.252  10.865  10.158 -0.8886  0.1101 -0.3883
  350MOL0     C48229  -0.115  10.830  10.177  0.6143 -0.4974 -0.6969
  350MOL0     C48230  -0.087  10.683  10.190  0.2948  0.9878  0.6360
  350MOL0     H48231   0.275  10.619  10.322 -0.2993  2.1324  1.0090
  350MOL0     H48232   0.516  10.539  10.314  1.8448  0.1659 -0.5795
  350MOL0     H48233   0.802  10.857  10.249  1.8363  1.7479 -1.7519
  350MOL0     H48234   0.816  10.773  10.095 -1.3317 -1.2067  0.7626
  350MOL0     H48235   0.955  10.734  10.358 -2.2821  0.1141  0.3280
  350MOL0     H48236   0.936  10.583  10.266  0.3667 -0.5342 -1.5478
  350MOL0     H48237   1.154  10.669  10.239  0.2542 -0.4512 -1.3605
  350MOL0     H48238   1.099  10.685  10.082  0.5089 -1.4783  0.5755
  350MOL0     H48239   1.024  10.932  10.145  0.6634  0.8941  0.8126
  350MOL0     H48240   1.120  10.889  10.295 -0.9959  0.6272 -0.0076
  350MOL0     H48241   1.219  10.994  10.047  0.4889 -2.1174 -2.9497
  350MOL0     H48242   1.253  10.823  10.037 -2.7581 -2.7471  1.9606
  350MOL0     H48243   1.428  10.979  10.148  0.7236  0.4265  0.4342
  350MOL0     H48244   1.320  10.973  10.291  1.0909 -0.2398  1.5971
  350MOL0     H48245   1.411  10.706  10.168  1.2391 -1.8772  0.9260
  350MOL0     H48246   1.362  10.736  10.331  0.8977  1.2290  0.4017
  350MOL0     H48247   1.572  10.865  10.359 -4.3601 -0.0462  0.3760
  350MOL0     H48248   1.604  10.699  10.341  1.1764  1.1615  0.7802
  350MOL0     H48249   1.785  10.619  10.179  3.4206  0.0478 -1.7088
  350MOL0     H48250   1.973  10.769   9.905 -0.2148 -2.4155 -0.4232
  350MOL0     H48251   1.978  10.644  10.029 -0.0900 -0.5201 -2.7031
  350MOL0     H48252   2.183  10.805  10.007  0.9078  2.4793  0.7226
  350MOL0     H48253   2.090  10.941  10.063  0.0271  1.5744  2.1422
  350MOL0     H48254   2.056  10.829  10.287 -0.6620  0.9424 -0.6692
  350MOL0     H48255   2.141  10.680  10.229  0.4503 -0.1538  0.2921
  350MOL0     H48256   2.327  10.855  10.167 -2.8775 -0.9537 -2.2232
  350MOL0     H48257   2.221  10.969  10.256 -2.5010 -1.2483 -0.8907
  350MOL0     H48258   2.466  11.031  10.242 -2.0293 -1.8973 -0.0663
  350MOL0     H48259   2.762  11.099  10.230  3.5690 -0.0363  3.1193
  350MOL0     H48260   2.725  11.242  10.331 -0.7359  1.2666 -1.7324
  350MOL0     H48261   2.610  11.191  10.211  1.5902  2.8672  0.6734
  350MOL0     H48262   3.043  11.159  10.631  2.2003  3.6702  2.3116
  350MOL0     H48263   3.284  11.259  10.627  4.4757  0.0694 -2.6978
  350MOL0     H48264   3.529  11.137  10.324  1.8638  0.2880  2.4302
  350MOL0     H48265   3.477  11.283  10.233 -0.5933 -1.1348 -0.6986
  350MOL0     H48266   3.686  11.296  10.465  2.3456 -0.5848 -0.7274
  350MOL0     H48267   3.729  11.252  10.300 -0.3471  0.1802 -0.6240
  350MOL0     H48268   3.571  11.501  10.367  0.9376 -0.5786  2.2294
  350MOL0     H48269   3.673  11.472  10.215  1.0484 -2.6539 -0.1627
  350MOL0     H48270   3.863  11.525  10.310 -0.9366  0.3525 -0.4035
  350MOL0     H48271   3.802  11.502  10.486 -1.0254  1.4993  0.8664
  350MOL0     H48272   3.726  11.733  10.282  1.1194 -1.1589 -0.6281
  350MOL0     H48273   3.650  11.717  10.436  0.0278 -1.9327  0.4441
  350MOL0     H48274   3.958  11.769  10.419 -0.7724  0.1743 -1.2988
  350MOL0     H48275   3.868  11.747  10.550  2.4851  0.3744  0.3484
  350MOL0     H48276   3.759  11.962  10.522  2.6016  2.0192  1.4981
  350MOL0     H48277   3.780  11.970  10.345  0.4157 -1.0547 -0.6562
  350MOL0     H48278   4.035  11.980  10.514  0.9638 -0.1976 -1.0676
  350MOL0     H48279   3.942  12.126  10.484  0.4770  0.4718 -0.3239
  350MOL0     H48280   3.287  11.204  10.207  0.8124 -0.4513  0.5115
  350MOL0     H48281   3.063  11.109  10.219  1.8803 -2.6160  0.8313
  350MOL0     H48282   2.661  10.875  10.660 -2.7919  0.6077  0.6214
  350MOL0     H48283   2.456  10.759  10.579  3.6831 -0.9053  1.5812
  350MOL0     H48284   0.614  10.885  10.081  1.8013 -0.9466  0.5122
  350MOL0     H48285   0.366  10.929  10.051 -2.5770 -1.5336 -1.2812
  350MOL0     H48286  -0.003  11.156  10.208  0.7474 -0.2448 -2.2635
  350MOL0     H48287  -0.236  11.200  10.176  0.4857 -0.3615 -0.2090
  350MOL0     H48288  -0.561  10.888  10.168  0.2538 -0.9700  2.2821
  350MOL0     H48289  -0.493  10.930  10.318  2.0468 -0.4861 -0.5999
  350MOL0     H48290  -0.716  11.010  10.323 -0.0100  0.7777  2.5746
  350MOL0     H48291  -0.709  11.075  10.162 -0.1366  2.3563  0.7074
  350MOL0     H48292  -0.538  11.186  10.388 -2.2903 -0.7665  2.3081
  350MOL0     H48293  -0.573  11.266  10.227 -0.2684  0.1287 -0.3166
  350MOL0     H48294  -0.714  11.368  10.416 -0.0958 -0.4386  0.0284
  350MOL0     H48295  -0.791  11.207  10.440  0.5578 -1.1736 -0.3404
  350MOL0     H48296  -0.989  11.299  10.093 -0.7647 -2.3427  1.3879
  350MOL0     H48297  -0.322  10.787  10.129 -1.3906  0.8612 -1.2491
  350MOL0     H48298  -0.044  10.664  10.091  2.4731 -0.4892  1.7565
  350MOL0     H48299  -0.013  10.652  10.265 -1.3063 -1.6534  1.2651
  350MOL0     H48300  -0.173  10.621  10.217  0.4011 -1.1072 -3.1893
  351MOL0     O48301   5.409   0.933   2.678  0.7123 -0.1224 -0.1714
  351MOL0     C48302   5.330   0.850   2.635 -0.9576 -0.5333  0.6720
  351MOL0     O48303   5.371   0.754   2.558 -0.1018 -0.5093  0.2262
  351MOL0     C48304   5.505   0.711   2.556  0.5213  0.4249 -1.1080
  351MOL0     C48305   5.561   0.699   2.432 -0.5008  0.3432 -0.3930
  351MOL0     C48306   5.693   0.655   2.427  0.7553 -0.0956  0.2129
  351MOL0     C48307   5.765   0.621   2.541  0.3358  0.4779  0.6651
  351MOL0     O48308   5.903   0.585   2.561 -0.0762 -0.1243  0.0803
  351MOL0     C48309   5.946   0.474   2.488  0.2168 -0.3539 -1.0684
  351MOL0     C48310   6.099   0.478   2.497  0.1726  0.3491 -0.1060
  351MOL0     C48311   6.155   0.460   2.641  0.3263  0.5827  0.2826
  351MOL0     C48312   6.310   0.454   2.650  0.1246  0.7817 -0.2721
  351MOL0     C48313   6.353   0.395   2.783  1.3271  0.4724  1.1544
  351MOL0     C48314   6.483   0.445   2.816 -0.3990  0.4193 -0.1354
  351MOL0     C48315   6.550   0.363   2.931 -0.1354 -1.0533 -0.4712
  351MOL0     C48316   6.550   0.431   3.072 -0.0275  0.1633 -0.3985
  351MOL0     N48317   6.604   0.568   3.064 -0.6172 -0.0079 -0.2814
  351MOL0     C48318   6.722   0.607   3.007 -0.4292  0.1940 -0.5292
  351MOL0     C48319   6.728   0.741   3.002  0.0208  0.5469 -0.0154
  351MOL0     C48320   6.839   0.849   2.967  0.2019 -0.5444  0.9143
  351MOL0     C48321   6.811   0.946   2.856  1.2696  0.0131  0.2867
  351MOL0     C48322   6.920   1.027   2.797  1.1636  0.7570 -0.5481
  351MOL0     C48323   7.014   1.094   2.892 -0.1850  1.0450  0.6094
  351MOL0     O48324   7.131   1.017   2.927  0.0100  0.8227  0.0768
  351MOL0     C48325   7.246   1.058   2.864  0.1429 -0.0994 -0.0015
  351MOL0     C48326   7.284   0.996   2.742  0.3767  0.4793  0.0431
  351MOL0     C48327   7.397   1.039   2.668 -0.1141 -0.3047 -0.3774
  351MOL0     C48328   7.422   0.974   2.534  0.7386 -0.0812  0.5707
  351MOL0     C48329   7.483   1.132   2.729 -0.0140 -0.1503 -0.1635
  351MOL0     C48330   7.603   1.185   2.667  0.6332  0.3020  0.5408
  351MOL0     O48331   7.683   1.251   2.745  0.0740 -0.5661  0.5046
  351MOL0     C48332   7.795   1.315   2.697  0.5741  0.1142  0.1039
  351MOL0     C48333   7.857   1.382   2.805  0.0749  0.7030  0.3427
  351MOL0     C48334   7.978   1.438   2.780  0.0106  0.0962 -0.0658
  351MOL0     C48335   8.038   1.446   2.654 -0.5293  0.4444 -0.9298
  351MOL0     O48336   8.158   1.521   2.639  0.1346  0.4511 -0.1259
  351MOL0     C48337   8.173   1.600   2.513 -0.6797 -0.8206  0.0025
  351MOL0     C48338   8.287   1.701   2.542 -0.7214  0.1886  0.3935
  351MOL0     C48339   8.421   1.636   2.581  0.0232 -0.4360 -0.1475
  351MOL0     C48340   8.520   1.625   2.460  0.1025  0.1558 -0.5381
  351MOL0     C48341   8.655   1.568   2.511  0.3802 -0.1798 -0.2461
  351MOL0     C48342   8.759   1.573   2.399 -0.3793 -0.6311 -0.2449
  351MOL0     C48343   8.891   1.503   2.428 -0.4009  0.3582 -0.1079
  351MOL0     C48344   8.978   1.567   2.538 -0.1351 -0.1965  0.0656
  351MOL0    Cl48345   8.948   1.505   2.704  0.0307  0.0401 -0.1506
  351MOL0     C48346   7.975   1.377   2.547 -0.1973 -0.0657 -0.3736
  351MOL0     C48347   7.862   1.305   2.578  0.4356 -1.0054 -0.4310
  351MOL0     O48348   7.615   1.174   2.547 -0.1299  0.5548 -0.6057
  351MOL0     C48349   7.445   1.190   2.853 -0.3088 -0.0589 -0.6419
  351MOL0     C48350   7.327   1.153   2.920 -0.6002  0.3204 -1.1433
  351MOL0     N48351   6.605   0.785   3.052 -0.2327 -0.4190 -0.4897
  351MOL0     N48352   6.538   0.684   3.085 -1.0902  0.6349 -0.9446
  351MOL0     C48353   5.700   0.636   2.667  1.2415 -0.6000  0.2012
  351MOL0     C48354   5.575   0.685   2.674 -0.0313 -0.7340  0.0964
  351MOL0     C48355   5.189   0.860   2.656 -0.0873 -0.6504 -0.0215
  351MOL0     C48356   5.102   0.821   2.556 -0.2299 -0.1907 -0.2049
  351MOL0     C48357   4.967   0.816   2.562 -0.6231 -0.4776 -0.1880
  351MOL0     C48358   4.908   0.857   2.680  0.6613  0.2282 -0.3732
  351MOL0     O48359   4.771   0.844   2.711 -0.3222  0.1765  0.1404
  351MOL0     C48360   4.677   0.812   2.603 -0.4423 -0.2260  0.4035
  351MOL0     C48361   4.536   0.843   2.650  0.5038 -0.0798  0.0453
  351MOL0     C48362   4.501   0.778   2.782 -0.7916  0.0663 -0.0575
  351MOL0     C48363   4.372   0.837   2.847 -0.3308 -0.0703  0.2560
  351MOL0     C48364   4.263   0.822   2.754 -0.4941 -0.7742 -1.0373
  351MOL0     C48365   4.182   0.830   2.668 -0.4055 -0.0935 -0.0877
  351MOL0     C48366   4.988   0.915   2.771 -0.2379  0.1038 -0.2523
  351MOL0     C48367   5.131   0.909   2.776  0.4449  0.9003  0.7386
  351MOL0     C48368   5.210   0.960   2.894 -0.1432 -0.5975 -0.0503
  351MOL0     H48369   5.499   0.719   2.346  0.6419  0.5231 -1.2053
  351MOL0     H48370   5.744   0.648   2.332  0.7701 -0.2871  0.2347
  351MOL0     H48371   5.920   0.485   2.382  1.2545  0.9735 -1.2052
  351MOL0     H48372   5.900   0.388   2.538 -0.6655  0.3700 -0.5930
  351MOL0     H48373   6.152   0.402   2.438  0.6828 -1.1841  2.1944
  351MOL0     H48374   6.130   0.574   2.457 -0.6074  1.0401  0.8864
  351MOL0     H48375   6.111   0.534   2.709 -1.3851  0.8426 -1.0334
  351MOL0     H48376   6.121   0.364   2.679  0.1632 -0.3086 -1.9738
  351MOL0     H48377   6.349   0.400   2.564  0.0493 -0.5596  0.5054
  351MOL0     H48378   6.347   0.557   2.648 -1.5183  1.3920 -1.3099
  351MOL0     H48379   6.362   0.287   2.776  1.5278  0.5945 -2.0610
  351MOL0     H48380   6.279   0.423   2.858  0.9508 -2.7108  2.0751
  351MOL0     H48381   6.548   0.439   2.728  0.2718 -0.2916  0.3965
  351MOL0     H48382   6.469   0.551   2.837 -4.6249  0.1133 -0.5177
  351MOL0     H48383   6.654   0.341   2.904  0.2326 -1.4760  1.1865
  351MOL0     H48384   6.506   0.263   2.935 -0.3036 -1.0560 -1.9373
  351MOL0     H48385   6.449   0.433   3.115  0.6520  1.1063  1.2365
  351MOL0     H48386   6.619   0.374   3.135 -0.4171 -0.0493 -0.1564
  351MOL0     H48387   6.795   0.536   2.968  1.5052  1.4096  0.7114
  351MOL0     H48388   6.933   0.798   2.942  0.4386  1.1151 -2.0201
  351MOL0     H48389   6.864   0.917   3.049  6.0234 -0.3413 -0.5621
  351MOL0     H48390   6.765   0.887   2.776 -0.5845 -0.0387  1.3457
  351MOL0     H48391   6.740   1.018   2.897  1.9528 -0.5413  2.5689
  351MOL0     H48392   6.992   0.981   2.729  0.4683 -0.9917 -0.1558
  351MOL0     H48393   6.883   1.102   2.727  0.2764  0.2082 -0.6807
  351MOL0     H48394   7.043   1.185   2.839  0.8197 -0.4428 -1.5061
  351MOL0     H48395   6.958   1.114   2.984  0.0160  1.8844  0.5573
  351MOL0     H48396   7.212   0.923   2.706  1.0671 -0.4212  0.4263
  351MOL0     H48397   7.377   1.045   2.464  0.5083  0.3610  1.1512
  351MOL0     H48398   7.377   0.875   2.522  1.1387 -0.0791 -1.1414
  351MOL0     H48399   7.528   0.959   2.512  0.8865  0.6324  0.7695
  351MOL0     H48400   7.809   1.369   2.901 -1.3245 -2.2460 -0.6658
  351MOL0     H48401   8.025   1.484   2.867  0.3636 -0.4004  0.0116
  351MOL0     H48402   8.204   1.533   2.432  1.9755 -1.1039  1.1352
  351MOL0     H48403   8.082   1.654   2.485 -0.3570  0.6338  1.5853
  351MOL0     H48404   8.309   1.755   2.449  1.7358 -0.5176  0.4775
  351MOL0     H48405   8.258   1.772   2.620  1.4855  0.5765  0.9178
  351MOL0     H48406   8.406   1.538   2.628  1.0247 -0.3596  0.3494
  351MOL0     H48407   8.455   1.694   2.667 -1.0519 -0.0837  0.0591
  351MOL0     H48408   8.539   1.720   2.408 -0.6793  0.6135 -0.0140
  351MOL0     H48409   8.469   1.554   2.394 -2.8305  2.4482 -1.0024
  351MOL0     H48410   8.693   1.629   2.593 -1.9384 -0.5526  1.2086
  351MOL0     H48411   8.636   1.464   2.542  1.2289 -1.3193 -3.1780
  351MOL0     H48412   8.775   1.678   2.372 -2.2870  0.1115  1.2797
  351MOL0     H48413   8.714   1.524   2.312 -0.8687 -1.2033  0.3215
  351MOL0     H48414   8.955   1.490   2.340 -2.0615 -1.6685 -1.0923
  351MOL0     H48415   8.879   1.396   2.450  1.8348 -0.6615 -3.1215
  351MOL0     H48416   8.960   1.675   2.527 -1.1936 -0.5432 -1.9188
  351MOL0     H48417   9.086   1.551   2.529  0.3327  0.8865  2.5870
  351MOL0     H48418   8.026   1.377   2.451  2.8514  1.5244  1.1156
  351MOL0     H48419   7.816   1.255   2.493 -1.9386  1.4668 -0.7497
  351MOL0     H48420   7.496   1.276   2.895 -2.1224  2.3986 -3.0743
  351MOL0     H48421   7.300   1.206   3.011 -0.0651  0.5387 -1.1125
  351MOL0     H48422   5.769   0.625   2.751  3.7838 -1.3418 -1.8419
  351MOL0     H48423   5.535   0.704   2.773 -0.1501 -0.4974  0.0034
  351MOL0     H48424   5.130   0.784   2.457 -0.3018 -0.4693 -0.1223
  351MOL0     H48425   4.920   0.773   2.474  2.0194 -3.0456 -0.4973
  351MOL0     H48426   4.706   0.865   2.512  0.1846  1.3808  1.4870
  351MOL0     H48427   4.673   0.705   2.579 -5.8799 -0.0476 -0.6591
  351MOL0     H48428   4.475   0.802   2.569 -0.6704  0.8922  0.4015
  351MOL0     H48429   4.519   0.950   2.660  0.9821 -0.0054  0.0604
  351MOL0     H48430   4.507   0.669   2.773  0.6798  0.1610 -0.3662
  351MOL0     H48431   4.579   0.805   2.853 -1.7432  3.9374 -0.2597
  351MOL0     H48432   4.376   0.941   2.882 -1.7128 -0.2583  1.0997
  351MOL0     H48433   4.346   0.783   2.939 -3.0444 -2.2216 -1.6057
  351MOL0     H48434   4.096   0.840   2.604 -0.7031 -0.2173  0.2860
  351MOL0     H48435   4.937   0.946   2.861 -3.1664  0.6866 -1.9694
  351MOL0     H48436   5.302   0.902   2.900  0.2629 -0.1806 -1.6979
  351MOL0     H48437   5.236   1.066   2.883 -0.3293 -0.5220  0.2245
  351MOL0     H48438   5.143   0.954   2.981 -1.3759  1.5027 -0.7625
  352MOL0     O48439  10.187   5.453   4.469  0.1650 -0.1395  0.6714
  352MOL0     C48440  10.156   5.376   4.378  0.9236 -0.4912 -0.0295
  352MOL0     O48441  10.244   5.313   4.307  0.3611 -0.1694  0.3485
  352MOL0     C48442  10.368   5.376   4.275  0.0575  0.6981 -0.5655
  352MOL0     C48443  10.469   5.295   4.204 -0.4031  0.2307 -0.4213
  352MOL0     C48444  10.602   5.345   4.174  1.1696 -0.3218 -0.6059
  352MOL0     C48445  10.633   5.476   4.210  0.4718  0.5260 -0.6797
  352MOL0     O48446  10.754   5.514   4.184  0.6865  0.2509 -0.2285
  352MOL0     C48447  10.771   5.641   4.130 -0.6093  0.4706 -0.0964
  352MOL0     C48448  10.884   5.640   4.023  0.6914  0.1548  0.1034
  352MOL0     C48449  11.020   5.629   4.081 -0.5868 -0.8335  0.8778
  352MOL0     C48450  11.128   5.626   3.969  0.1768 -0.2159  0.8166
  352MOL0     C48451  11.264   5.591   4.033  0.9712  0.2439  0.0950
  352MOL0     C48452  11.372   5.562   3.924  0.0690 -0.5148 -0.6166
  352MOL0     C48453  11.318   5.445   3.836 -0.2927 -0.0484 -0.5818
  352MOL0     C48454  11.436   5.404   3.755 -0.0523  0.8267  0.1211
  352MOL0     N48455  11.405   5.288   3.662  0.1882 -0.2472 -1.4529
  352MOL0     C48456  11.303   5.281   3.569  0.9299 -0.3175 -0.0131
  352MOL0     C48457  11.328   5.169   3.496  0.1092 -0.1208  0.1328
  352MOL0     C48458  11.247   5.113   3.376 -0.7255 -0.7942 -0.5663
  352MOL0     C48459  11.346   5.065   3.256  0.4013 -0.2260  0.4742
  352MOL0     C48460  11.389   5.178   3.163 -0.9069  0.3327  0.5289
  352MOL0     C48461  11.317   5.193   3.035  0.8579 -0.0155  1.5131
  352MOL0     O48462  11.381   5.096   2.952  0.3709 -0.3164  0.4523
  352MOL0     C48463  11.494   5.124   2.872 -0.4427 -0.1714  0.6297
  352MOL0     C48464  11.528   5.035   2.769  0.2472 -0.2132 -0.2270
  352MOL0     C48465  11.633   5.053   2.678  0.0822  0.2718  0.1828
  352MOL0     C48466  11.642   4.961   2.562  0.1440  0.3206  0.0271
  352MOL0     C48467  11.708   5.171   2.703 -0.0778  0.6192  0.1497
  352MOL0     C48468  11.832   5.204   2.622  0.1192 -0.2964  0.3488
  352MOL0     O48469  11.892   5.325   2.644  0.1001 -0.1600 -0.0028
  352MOL0     C48470  12.010   5.363   2.577  0.1903  0.2477 -1.0555
  352MOL0     C48471  12.035   5.351   2.434  0.3609 -0.4127 -0.2544
  352MOL0     C48472  12.154   5.392   2.379 -0.1555 -0.3191 -0.0229
  352MOL0     C48473  12.263   5.436   2.450 -0.0265 -0.0472  0.1815
  352MOL0     O48474  12.372   5.491   2.395 -0.7928 -0.3566  0.0631
  352MOL0     C48475  12.407   5.454   2.261 -0.4379 -0.1335 -0.4347
  352MOL0     C48476  12.557   5.450   2.237  0.5637 -0.1325  0.5232
  352MOL0     C48477  12.593   5.406   2.088 -0.5186  0.6889 -1.0026
  352MOL0     C48478  12.587   5.254   2.061  0.0938  0.3989 -1.2978
  352MOL0     C48479  12.600   5.219   1.918 -1.0301  0.4978 -0.3433
  352MOL0     C48480  12.751   5.221   1.882 -0.2024 -0.3147 -0.0214
  352MOL0     C48481  12.776   5.176   1.737 -0.1527  0.2841 -0.9077
  352MOL0     C48482  12.929   5.194   1.703 -0.3105 -0.3835  0.0083
  352MOL0    Cl48483  13.026   5.076   1.803  0.6962 -0.1588  0.4622
  352MOL0     C48484  12.239   5.457   2.588  0.2357  0.1096 -0.5462
  352MOL0     C48485  12.116   5.414   2.651 -0.2223 -0.5838  0.6468
  352MOL0     O48486  11.878   5.121   2.542 -0.4063 -1.1857 -0.1097
  352MOL0     C48487  11.680   5.264   2.805 -0.7056 -0.5424 -0.0297
  352MOL0     C48488  11.581   5.240   2.894 -0.1087 -0.4333 -0.4069
  352MOL0     N48489  11.437   5.106   3.554  0.1494  0.0650  0.4465
  352MOL0     N48490  11.478   5.175   3.656 -0.7301  0.1804 -0.3089
  352MOL0     C48491  10.534   5.556   4.272 -0.2200  0.1708 -0.5326
  352MOL0     C48492  10.408   5.505   4.302 -0.3606  0.1086 -0.3298
  352MOL0     C48493  10.013   5.328   4.374 -0.5138  0.1832 -0.0759
  352MOL0     C48494   9.917   5.375   4.473 -0.4797  0.9973 -0.3034
  352MOL0     C48495   9.783   5.323   4.478  0.0469  0.6082  0.3320
  352MOL0     C48496   9.742   5.239   4.376 -0.0288  0.0789  0.3880
  352MOL0     O48497   9.614   5.195   4.362 -0.1778  0.6430 -0.6003
  352MOL0     C48498   9.591   5.079   4.441  0.5353 -0.0683 -0.0833
  352MOL0     C48499   9.545   4.976   4.335 -0.8202 -0.4994  0.3198
  352MOL0     C48500   9.416   5.015   4.251  0.2611 -0.5039 -0.6681
  352MOL0     C48501   9.356   4.877   4.210  0.5585  0.4321  1.1421
  352MOL0     C48502   9.205   4.891   4.187  0.7738 -0.0922 -0.8262
  352MOL0     C48503   9.083   4.907   4.167  0.5715 -0.2367 -0.6982
  352MOL0     C48504   9.829   5.206   4.269  0.5459 -0.2886 -0.5332
  352MOL0     C48505   9.962   5.246   4.264 -0.5965 -0.3026  0.3888
  352MOL0     C48506  10.044   5.224   4.134  0.3977  0.0899 -1.3386
  352MOL0     H48507  10.433   5.194   4.185  1.7372 -0.7350  0.3254
  352MOL0     H48508  10.678   5.301   4.109  0.2127  0.5749 -2.4171
  352MOL0     H48509  10.794   5.719   4.203  0.5005  2.3585 -2.3166
  352MOL0     H48510  10.677   5.667   4.081 -1.0784  0.8979  1.0150
  352MOL0     H48511  10.876   5.553   3.957  0.0279 -1.1663  1.8684
  352MOL0     H48512  10.861   5.729   3.963  0.3686 -1.3211 -2.0886
  352MOL0     H48513  11.041   5.709   4.152 -0.8878 -0.5447  0.6454
  352MOL0     H48514  11.028   5.537   4.139 -0.9785  0.7193  3.5272
  352MOL0     H48515  11.100   5.548   3.898  0.6593  0.9248 -0.6782
  352MOL0     H48516  11.117   5.717   3.910 -2.2432  0.8985  2.8090
  352MOL0     H48517  11.246   5.503   4.095 -0.3161  0.9882  0.8486
  352MOL0     H48518  11.289   5.666   4.109 -0.5306 -1.4929  2.4668
  352MOL0     H48519  11.405   5.646   3.863  3.2974 -1.4845 -0.3726
  352MOL0     H48520  11.459   5.530   3.983 -1.0060  0.4323  1.6210
  352MOL0     H48521  11.240   5.484   3.770 -0.0985  1.2755 -0.0748
  352MOL0     H48522  11.282   5.356   3.888  2.3345 -0.4083  0.7994
  352MOL0     H48523  11.465   5.490   3.694  0.7088 -0.1391 -0.9532
  352MOL0     H48524  11.517   5.373   3.823 -0.2296  1.6507  0.7211
  352MOL0     H48525  11.232   5.362   3.555  1.4474  0.2013  0.3030
  352MOL0     H48526  11.189   5.201   3.347  0.0747 -0.6419 -1.7870
  352MOL0     H48527  11.182   5.028   3.395 -1.1492 -0.9565 -2.5690
  352MOL0     H48528  11.428   5.001   3.289  1.6989  1.1214  0.0065
  352MOL0     H48529  11.278   5.005   3.196  0.2381 -0.4103  0.8378
  352MOL0     H48530  11.364   5.267   3.221 -2.8874  0.7196 -0.8157
  352MOL0     H48531  11.497   5.172   3.152 -0.6667  0.7484  2.3440
  352MOL0     H48532  11.209   5.176   3.045  0.9431  0.4035  3.6435
  352MOL0     H48533  11.327   5.295   2.998  2.0973  0.0625  2.0205
  352MOL0     H48534  11.471   4.945   2.748  2.1228 -1.0341 -2.0391
  352MOL0     H48535  11.728   4.895   2.575  1.7644  2.3616  0.0243
  352MOL0     H48536  11.641   5.014   2.467  0.7425  0.5672  0.1545
  352MOL0     H48537  11.554   4.895   2.556 -0.1167  0.7667 -1.4939
  352MOL0     H48538  11.952   5.319   2.372  0.2945 -0.4397 -0.1520
  352MOL0     H48539  12.168   5.409   2.273  1.4467  2.0489  0.4963
  352MOL0     H48540  12.390   5.348   2.244 -1.0486 -0.3381  1.2911
  352MOL0     H48541  12.347   5.517   2.194  0.7416 -0.1980 -1.6041
  352MOL0     H48542  12.589   5.552   2.261  0.9008 -0.3215  0.8680
  352MOL0     H48543  12.615   5.381   2.298  4.0373 -1.5558 -3.8567
  352MOL0     H48544  12.694   5.445   2.074  0.5621 -1.1853  1.0415
  352MOL0     H48545  12.534   5.470   2.021  0.4122  2.9890  0.2702
  352MOL0     H48546  12.487   5.225   2.094  0.0863 -0.7365 -2.2803
  352MOL0     H48547  12.663   5.209   2.126 -0.5420  0.8494 -0.2087
  352MOL0     H48548  12.568   5.115   1.904  0.6570 -0.3027  1.3607
  352MOL0     H48549  12.534   5.282   1.857 -1.3919  0.5941  0.1438
  352MOL0     H48550  12.809   5.160   1.952 -0.4300 -0.9985 -0.4159
  352MOL0     H48551  12.778   5.327   1.884 -1.7251  0.1149 -0.7139
  352MOL0     H48552  12.708   5.229   1.671 -0.1627  1.0568 -0.2954
  352MOL0     H48553  12.754   5.069   1.726  0.9819 -0.2798  1.4530
  352MOL0     H48554  12.964   5.296   1.717  0.7234 -0.8622  1.0852
  352MOL0     H48555  12.932   5.171   1.596  0.7594  2.9112 -0.7903
  352MOL0     H48556  12.314   5.494   2.656  0.9775 -1.8257 -0.2706
  352MOL0     H48557  12.121   5.422   2.759  2.0757  0.8271  0.5111
  352MOL0     H48558  11.744   5.348   2.829  1.8736 -2.9578  2.1176
  352MOL0     H48559  11.573   5.305   2.981  1.0176  0.0002 -0.5987
  352MOL0     H48560  10.549   5.657   4.310 -1.6654  0.6980 -1.2792
  352MOL0     H48561  10.350   5.579   4.356 -0.0745  1.0625 -1.3186
  352MOL0     H48562   9.934   5.448   4.551 -3.7709  0.0966  1.4194
  352MOL0     H48563   9.707   5.354   4.549 -1.6291 -2.5229  0.0785
  352MOL0     H48564   9.680   5.045   4.495  1.9043 -0.4123 -2.4126
  352MOL0     H48565   9.507   5.095   4.510  0.2150 -0.7436 -0.3122
  352MOL0     H48566   9.534   4.880   4.386 -0.9229 -1.9516 -2.2406
  352MOL0     H48567   9.628   4.956   4.267 -0.7373 -0.4098  0.3952
  352MOL0     H48568   9.350   5.077   4.312  2.1504  2.8412 -1.7126
  352MOL0     H48569   9.435   5.073   4.160 -0.5900 -0.1544 -0.6310
  352MOL0     H48570   9.366   4.808   4.294 -0.8526  0.2130  1.1501
  352MOL0     H48571   9.403   4.841   4.118 -1.6687  1.0936 -0.3401
  352MOL0     H48572   8.979   4.928   4.152  0.7136  1.0122 -0.0858
  352MOL0     H48573   9.788   5.154   4.183 -0.1138 -0.1410 -0.3122
  352MOL0     H48574   9.988   5.174   4.055 -4.3151  0.6819  1.2890
  352MOL0     H48575  10.089   5.317   4.098 -0.7213  0.6208 -1.4142
  352MOL0     H48576  10.125   5.156   4.162 -0.1141 -0.7916 -1.9539
  353MOL0     O48577   8.294  10.639   2.670  0.1811 -0.4191  0.3831
  353MOL0     C48578   8.281  10.536   2.608  0.3279  0.4181  0.6212
  353MOL0     O48579   8.324  10.510   2.478  0.4809 -0.4185 -0.0175
  353MOL0     C48580   8.418  10.574   2.410  0.7904  0.2254 -0.4974
  353MOL0     C48581   8.431  10.713   2.414 -0.3810  0.4101 -0.1078
  353MOL0     C48582   8.518  10.783   2.324  0.8174  0.3587  0.2963
  353MOL0     C48583   8.595  10.709   2.234  0.0936 -0.3174 -1.0333
  353MOL0     O48584   8.667  10.774   2.144  0.1195 -0.0804  0.4038
  353MOL0     C48585   8.774  10.863   2.178  0.4133 -0.7729 -0.3018
  353MOL0     C48586   8.820  10.926   2.043  0.4647  0.0752  0.1957
  353MOL0     C48587   8.715  11.018   1.979 -0.3381  0.2776 -0.3101
  353MOL0     C48588   8.770  11.087   1.850  1.0055  0.2940 -0.0544
  353MOL0     C48589   8.858  11.206   1.878  0.2879 -0.1473  0.2451
  353MOL0     C48590   8.778  11.325   1.912  0.2997 -0.2253  0.1850
  353MOL0     C48591   8.855  11.450   1.946 -0.1710 -0.4296 -0.2063
  353MOL0     C48592   8.920  11.435   2.094  0.0992  0.1163  0.2057
  353MOL0     N48593   8.974  11.565   2.143 -0.2928  0.0672  0.2057
  353MOL0     C48594   9.101  11.568   2.193 -0.6940 -0.4277 -0.7451
  353MOL0     C48595   9.137  11.704   2.187  0.0168  0.5688  0.5592
  353MOL0     C48596   9.273  11.752   2.221 -0.0167  0.8885  0.2581
  353MOL0     C48597   9.385  11.709   2.134 -0.9669  0.2400 -0.8064
  353MOL0     C48598   9.368  11.766   1.992 -0.2638 -0.9227  0.1005
  353MOL0     C48599   9.336  11.915   1.973 -0.2112  0.4382  0.0653
  353MOL0     O48600   9.417  11.998   2.068  0.2894 -0.8375  0.7091
  353MOL0     C48601   9.529  12.055   2.027 -0.9400  0.1974  0.3986
  353MOL0     C48602   9.601  12.140   2.114 -0.3192  0.2719  1.1049
  353MOL0     C48603   9.726  12.194   2.088 -0.1379 -0.0236 -0.0362
  353MOL0     C48604   9.800  12.268   2.194 -0.2566 -0.3339 -0.3492
  353MOL0     C48605   9.788  12.167   1.957 -0.0941  0.3982 -0.1424
  353MOL0     C48606   9.920  12.219   1.913  0.5919 -0.2073 -1.0575
  353MOL0     O48607  10.009  12.125   1.878  0.0637  0.2090 -0.2939
  353MOL0     C48608  10.140  12.152   1.888  0.1897 -1.6162 -0.1466
  353MOL0     C48609  10.193  12.220   1.993 -0.1995 -0.3175 -0.2930
  353MOL0     C48610  10.330  12.245   2.003 -0.4614  0.8624 -0.6150
  353MOL0     C48611  10.413  12.208   1.891  0.2224 -0.4281  0.4755
  353MOL0     O48612  10.552  12.228   1.885  0.2996  0.3889  0.1074
  353MOL0     C48613  10.617  12.294   1.992  0.7376  0.8786 -0.8314
  353MOL0     C48614  10.768  12.324   1.978 -0.1001 -0.0272 -0.3435
  353MOL0     C48615  10.853  12.199   1.969 -0.5408  0.6362 -0.1075
  353MOL0     C48616  10.996  12.233   1.930 -0.3389 -0.1429  0.0695
  353MOL0     C48617  11.083  12.116   1.931 -0.3481  0.0535 -0.5744
  353MOL0     C48618  11.223  12.136   1.867  0.1110 -0.6090  0.2006
  353MOL0     C48619  11.323  12.219   1.933 -0.9060  0.3734 -0.2248
  353MOL0     C48620  11.470  12.215   1.863 -0.1225 -0.1832 -0.0674
  353MOL0    Cl48621  11.575  12.293   1.974  0.5961 -0.5350  0.0103
  353MOL0     C48622  10.360  12.129   1.782  0.6807 -0.2087  0.3264
  353MOL0     C48623  10.223  12.099   1.788 -0.3936  0.4953  0.3658
  353MOL0     O48624   9.935  12.343   1.919  0.0398  0.8433 -0.0978
  353MOL0     C48625   9.721  12.076   1.871 -0.3542  0.1512  0.6080
  353MOL0     C48626   9.593  12.023   1.906  0.2410 -0.1638 -0.0664
  353MOL0     N48627   9.023  11.769   2.142  0.2721 -0.6446  0.0501
  353MOL0     N48628   8.930  11.688   2.111 -0.5824  0.0869  0.0682
  353MOL0     C48629   8.583  10.572   2.231 -0.2620  0.2354 -0.2140
  353MOL0     C48630   8.500  10.508   2.321  0.4521 -0.2866  0.0381
  353MOL0     C48631   8.181  10.432   2.659 -0.6602  0.3915 -0.2605
  353MOL0     C48632   8.091  10.473   2.767 -1.1603 -0.5880  0.6046
  353MOL0     C48633   7.980  10.397   2.800  0.1310 -0.1310  0.0299
  353MOL0     C48634   7.955  10.275   2.745  0.2422  0.4404 -0.7787
  353MOL0     O48635   7.843  10.207   2.796 -0.1462  0.0793 -0.3377
  353MOL0     C48636   7.815  10.084   2.735  0.4814 -0.1306  0.3778
  353MOL0     C48637   7.724  10.009   2.821 -0.6631 -0.4578 -0.4694
  353MOL0     C48638   7.580  10.060   2.847  0.6842 -0.8885 -0.6109
  353MOL0     C48639   7.491   9.956   2.906 -0.0641  0.8309  0.4354
  353MOL0     C48640   7.361  10.020   2.927 -0.7196  0.1425  0.3384
  353MOL0     C48641   7.260  10.077   2.957  0.1491 -0.3117 -0.4865
  353MOL0     C48642   8.039  10.239   2.638  0.5545 -0.3408 -0.3292
  353MOL0     C48643   8.151  10.309   2.603  0.0155 -0.4476  0.4420
  353MOL0     C48644   8.246  10.238   2.501 -0.5067  0.5904 -0.1978
  353MOL0     H48645   8.371  10.771   2.482 -0.2425 -0.4748  0.7833
  353MOL0     H48646   8.528  10.891   2.328  1.8291  0.2565  1.1756
  353MOL0     H48647   8.858  10.804   2.216 -1.2782 -2.3123  1.2027
  353MOL0     H48648   8.750  10.941   2.250  0.6105  0.7424 -1.8156
  353MOL0     H48649   8.913  10.982   2.058  1.2919 -1.0229 -0.6858
  353MOL0     H48650   8.853  10.849   1.972  2.5425  0.5650  0.5641
  353MOL0     H48651   8.625  10.958   1.967 -0.7769  0.6470  1.0303
  353MOL0     H48652   8.687  11.095   2.051 -0.5086 -0.2297  0.1690
  353MOL0     H48653   8.822  11.017   1.785 -1.4911  0.2865 -2.2005
  353MOL0     H48654   8.691  11.132   1.789  1.2573 -1.5646 -1.8463
  353MOL0     H48655   8.924  11.232   1.795 -1.0205  4.4682  0.3472
  353MOL0     H48656   8.917  11.189   1.969 -0.9346 -3.5475  0.5587
  353MOL0     H48657   8.715  11.350   1.826 -0.0769  1.1988  0.8425
  353MOL0     H48658   8.708  11.305   1.994 -2.3695  0.8148 -1.6629
  353MOL0     H48659   8.778  11.527   1.940 -0.9294 -1.1397  0.2435
  353MOL0     H48660   8.923  11.484   1.866 -2.6044  2.6124 -1.1712
  353MOL0     H48661   8.847  11.401   2.168 -0.1285 -0.0147 -0.0781
  353MOL0     H48662   8.995  11.356   2.080 -0.6494 -0.3786 -1.1432
  353MOL0     H48663   9.171  11.492   2.225  1.0141  1.2328 -0.3269
  353MOL0     H48664   9.283  11.714   2.323 -3.9100 -2.4512 -0.3630
  353MOL0     H48665   9.267  11.861   2.228 -2.7724  0.7346  1.5432
  353MOL0     H48666   9.482  11.739   2.175 -1.4096  2.1285 -1.0630
  353MOL0     H48667   9.381  11.600   2.137 -3.4011  0.1962 -2.6792
  353MOL0     H48668   9.464  11.754   1.940 -1.0140 -2.6585 -0.9785
  353MOL0     H48669   9.299  11.713   1.926  0.0080 -0.9442 -0.1705
  353MOL0     H48670   9.336  11.956   1.871 -0.4291 -1.2198 -0.6379
  353MOL0     H48671   9.231  11.922   2.002  0.4923  0.0805  3.0163
  353MOL0     H48672   9.555  12.166   2.209 -0.8792  1.0993  0.6186
  353MOL0     H48673   9.759  12.236   2.290  1.5133 -2.2160 -0.1688
  353MOL0     H48674   9.782  12.374   2.173 -2.7698 -1.0941 -2.5300
  353MOL0     H48675   9.908  12.253   2.187  0.0500 -0.1414  2.5854
  353MOL0     H48676  10.133  12.251   2.078 -1.7508 -0.4085 -1.3017
  353MOL0     H48677  10.363  12.304   2.088  1.0751 -0.5863 -0.1563
  353MOL0     H48678  10.559  12.382   2.020  2.0765  1.6721 -0.4235
  353MOL0     H48679  10.618  12.219   2.073  1.8829  1.0281 -0.6816
  353MOL0     H48680  10.791  12.387   1.892  0.1949 -2.3165 -2.0408
  353MOL0     H48681  10.798  12.371   2.072 -1.1889  0.1097 -0.0500
  353MOL0     H48682  10.813  12.145   1.882  1.1409  0.2004 -0.6376
  353MOL0     H48683  10.851  12.135   2.058  3.0029  1.2774  0.5829
  353MOL0     H48684  11.038  12.314   1.992  0.3473 -0.0625 -0.4871
  353MOL0     H48685  10.991  12.279   1.831  0.3682  1.8062  0.8856
  353MOL0     H48686  11.095  12.077   2.032  1.6734 -0.2083 -0.8892
  353MOL0     H48687  11.035  12.038   1.872  1.8835 -0.5031 -1.7629
  353MOL0     H48688  11.204  12.184   1.771  0.5006  0.4842  0.6493
  353MOL0     H48689  11.263  12.037   1.847  1.9165 -0.0911  1.0371
  353MOL0     H48690  11.333  12.168   2.030  1.5244 -1.7783 -1.4831
  353MOL0     H48691  11.295  12.324   1.935  2.2291  1.3199 -0.7168
  353MOL0     H48692  11.465  12.260   1.764 -1.5988 -1.0995 -0.4367
  353MOL0     H48693  11.502  12.111   1.860 -0.7144 -0.5001  2.3917
  353MOL0     H48694  10.416  12.094   1.696  2.1714  0.5005  0.9692
  353MOL0     H48695  10.182  12.030   1.715 -1.3071  0.1803  1.1591
  353MOL0     H48696   9.780  12.062   1.781 -0.0933  1.7986  0.4980
  353MOL0     H48697   9.544  11.951   1.840 -1.3090 -2.5635  3.3580
  353MOL0     H48698   8.620  10.506   2.152 -1.9781 -0.1938 -0.7047
  353MOL0     H48699   8.490  10.400   2.320  0.3552 -0.2868  0.6671
  353MOL0     H48700   8.104  10.570   2.815  1.6815 -0.3905 -0.3418
  353MOL0     H48701   7.921  10.438   2.881  1.7770  2.6581 -0.0697
  353MOL0     H48702   7.765  10.098   2.639  3.0174  0.6560 -0.8880
  353MOL0     H48703   7.902  10.019   2.721  1.0332  0.3415  1.4616
  353MOL0     H48704   7.787   9.998   2.910 -1.9506 -1.0010  0.4141
  353MOL0     H48705   7.719   9.906   2.785 -1.2076 -0.3631 -0.6869
  353MOL0     H48706   7.581  10.139   2.924 -2.9833 -1.6500  0.4233
  353MOL0     H48707   7.548  10.098   2.750  0.7954 -1.4226 -0.8581
  353MOL0     H48708   7.534   9.923   3.001 -0.4006  1.0513  0.6661
  353MOL0     H48709   7.482   9.869   2.842  0.2742  0.4746  0.8670
  353MOL0     H48710   7.180  10.147   2.971  0.1791 -0.2572 -0.5823
  353MOL0     H48711   8.024  10.140   2.596  0.3144 -0.5271  0.1834
  353MOL0     H48712   8.349  10.244   2.538 -1.1019  0.4621  1.5588
  353MOL0     H48713   8.220  10.133   2.486  1.4688 -0.0364  0.3316
  353MOL0     H48714   8.248  10.300   2.411  1.2411  1.8790  0.6549
  354MOL0     O48715   7.400   2.085   9.079 -0.6180 -0.1389 -0.6308
  354MOL0     C48716   7.338   2.030   8.992  0.3065  0.5925  0.5906
  354MOL0     O48717   7.385   1.990   8.869  0.1883  0.2648 -0.2342
  354MOL0     C48718   7.478   2.073   8.802 -0.1196  0.2665  0.4780
  354MOL0     C48719   7.497   2.210   8.821  0.3452 -0.1739 -0.1573
  354MOL0     C48720   7.612   2.278   8.762  0.1096 -0.2915  0.7636
  354MOL0     C48721   7.685   2.217   8.662  0.5038  0.0374 -0.2230
  354MOL0     O48722   7.796   2.271   8.598 -0.6313  0.1646 -0.7363
  354MOL0     C48723   7.930   2.232   8.643 -0.4944 -0.0774 -0.4889
  354MOL0     C48724   8.032   2.243   8.523  0.1174 -0.1887  0.0418
  354MOL0     C48725   8.167   2.181   8.565 -0.3651  0.1067 -0.3937
  354MOL0     C48726   8.223   2.264   8.684  0.3829  0.0015  1.2441
  354MOL0     C48727   8.370   2.219   8.715  1.1157 -0.3701 -0.2682
  354MOL0     C48728   8.360   2.089   8.784  0.3377  0.5670 -0.0817
  354MOL0     C48729   8.500   2.035   8.833  0.8092  0.3962  0.1062
  354MOL0     C48730   8.492   1.892   8.881 -0.8962  0.1231 -0.9754
  354MOL0     N48731   8.623   1.858   8.941  0.0321 -0.1665  0.1043
  354MOL0     C48732   8.659   1.874   9.071 -0.6244 -0.3911 -0.0523
  354MOL0     C48733   8.792   1.850   9.074 -0.0337 -0.7308 -0.5795
  354MOL0     C48734   8.871   1.852   9.206 -0.3582 -0.1078 -0.0831
  354MOL0     C48735   9.018   1.909   9.205  0.4944  0.4733  0.1644
  354MOL0     C48736   9.022   2.054   9.155 -0.1555 -0.3223 -0.2196
  354MOL0     C48737   9.148   2.125   9.199  0.0677  0.0983  0.5091
  354MOL0     O48738   9.259   2.054   9.142 -0.8663  0.3686 -0.2815
  354MOL0     C48739   9.388   2.078   9.182 -0.1277  0.3802 -0.6897
  354MOL0     C48740   9.429   2.188   9.264 -0.7000 -0.2223  0.1586
  354MOL0     C48741   9.566   2.206   9.294 -0.1465  0.7133  0.5673
  354MOL0     C48742   9.597   2.330   9.380  0.0455 -0.2161 -0.4214
  354MOL0     C48743   9.666   2.121   9.241 -0.0767  0.1658  0.7358
  354MOL0     C48744   9.806   2.133   9.271 -0.5613 -0.3795 -0.3464
  354MOL0     O48745   9.886   2.026   9.235 -0.4299  0.4350 -0.1923
  354MOL0     C48746  10.023   2.022   9.233  0.7336 -0.0986  0.2806
  354MOL0     C48747  10.081   1.937   9.135  0.5726 -0.2623 -0.3090
  354MOL0     C48748  10.216   1.900   9.145  0.0929 -0.1350 -0.3751
  354MOL0     C48749  10.296   1.949   9.249 -0.2802  0.4459 -0.1540
  354MOL0     O48750  10.426   1.912   9.244  0.2584 -0.5058 -0.4933
  354MOL0     C48751  10.522   2.019   9.252 -0.2964  0.0307  0.3484
  354MOL0     C48752  10.626   2.026   9.141  0.1597 -0.1606 -0.0122
  354MOL0     C48753  10.702   1.900   9.126 -0.4391 -0.8742 -0.2658
  354MOL0     C48754  10.806   1.906   9.010 -0.0259  0.9720  0.2639
  354MOL0     C48755  10.885   1.772   9.015  1.0496 -0.2780  0.4582
  354MOL0     C48756  10.962   1.728   8.886  0.0263  0.0201 -0.1251
  354MOL0     C48757  11.070   1.831   8.839  0.9960 -0.1826 -0.6408
  354MOL0     C48758  11.159   1.781   8.720  0.5697  0.3399  0.2424
  354MOL0    Cl48759  11.044   1.730   8.592 -0.0412  0.2267 -0.1336
  354MOL0     C48760  10.239   2.033   9.345  0.0634 -0.2663  0.0457
  354MOL0     C48761  10.101   2.065   9.339  0.9797 -0.1452 -0.0297
  354MOL0     O48762   9.853   2.246   9.310 -0.3513 -0.1108  0.0968
  354MOL0     C48763   9.627   2.023   9.152 -0.1682  0.4474 -0.3595
  354MOL0     C48764   9.487   2.000   9.128 -0.4344  0.5111  0.9936
  354MOL0     N48765   8.835   1.807   8.953 -0.8145  0.4775 -0.7193
  354MOL0     N48766   8.730   1.814   8.869  0.0370  0.2156 -0.4697
  354MOL0     C48767   7.656   2.085   8.632  0.1942  0.6959 -0.0727
  354MOL0     C48768   7.556   2.012   8.703 -0.1133 -0.5540 -0.6583
  354MOL0     C48769   7.208   1.972   9.017  0.1082 -0.6311 -0.1924
  354MOL0     C48770   7.153   1.891   8.925  0.4231  0.1484  0.1021
  354MOL0     C48771   7.033   1.825   8.943  0.1560  0.2136  0.0555
  354MOL0     C48772   6.951   1.852   9.055  0.0617  0.2485  1.0656
  354MOL0     O48773   6.824   1.802   9.064 -0.2550  0.3551 -0.4570
  354MOL0     C48774   6.778   1.711   8.963  0.3304 -0.3678 -0.3285
  354MOL0     C48775   6.640   1.662   8.989  0.7533  0.3090 -0.2485
  354MOL0     C48776   6.593   1.547   8.898  0.4468  0.2236  0.2688
  354MOL0     C48777   6.609   1.593   8.749  0.7542 -0.4709  0.3867
  354MOL0     C48778   6.534   1.506   8.656  0.6538  0.3128 -0.1615
  354MOL0     C48779   6.481   1.416   8.594  0.0815 -0.4197  0.0035
  354MOL0     C48780   6.997   1.946   9.140  0.3475 -0.5645  0.8305
  354MOL0     C48781   7.121   2.015   9.128  0.1383  0.3894  0.5739
  354MOL0     C48782   7.151   2.122   9.239 -0.2658  0.1089  0.2916
  354MOL0     H48783   7.435   2.268   8.888 -0.4948 -1.4194  0.1678
  354MOL0     H48784   7.628   2.384   8.780  0.3746  0.5628 -3.4447
  354MOL0     H48785   7.937   2.134   8.690  0.7314 -0.7326 -1.9548
  354MOL0     H48786   7.959   2.305   8.720  0.3659  0.0378 -0.9121
  354MOL0     H48787   7.990   2.196   8.434 -0.9871  0.3374  0.2624
  354MOL0     H48788   8.051   2.350   8.507 -0.4500 -0.0470  0.2608
  354MOL0     H48789   8.164   2.074   8.588  0.8287 -0.7140 -3.5344
  354MOL0     H48790   8.231   2.174   8.476 -0.4647 -1.5474 -0.3693
  354MOL0     H48791   8.232   2.370   8.659  1.4573 -0.1253  1.0028
  354MOL0     H48792   8.162   2.247   8.773 -1.4923 -1.8812 -0.3188
  354MOL0     H48793   8.412   2.294   8.783  1.1537 -0.2605 -0.4132
  354MOL0     H48794   8.429   2.211   8.624 -1.5005  0.9236 -2.2081
  354MOL0     H48795   8.285   2.096   8.864 -1.1034  1.8128 -1.4839
  354MOL0     H48796   8.314   2.026   8.708 -3.5414  3.4780 -0.4397
  354MOL0     H48797   8.531   2.095   8.919 -0.2497 -0.1222  0.8733
  354MOL0     H48798   8.580   2.047   8.759  1.5465  2.4229  1.1384
  354MOL0     H48799   8.412   1.884   8.955 -2.3649 -0.5713 -2.5697
  354MOL0     H48800   8.470   1.823   8.798 -2.4436 -0.3612 -0.2069
  354MOL0     H48801   8.603   1.912   9.156 -1.1621  2.0411 -1.4092
  354MOL0     H48802   8.878   1.749   9.242 -0.5710  0.8072  2.9025
  354MOL0     H48803   8.829   1.907   9.291 -0.1268 -3.4826  2.4495
  354MOL0     H48804   9.059   1.907   9.306  0.1314  0.5397  0.3113
  354MOL0     H48805   9.087   1.842   9.152 -0.5696 -0.0483 -0.5933
  354MOL0     H48806   9.010   2.053   9.047 -1.7544  0.5043 -0.0792
  354MOL0     H48807   8.925   2.097   9.183 -0.1150 -0.5724  0.3170
  354MOL0     H48808   9.159   2.222   9.149 -1.8412  0.4160  0.6403
  354MOL0     H48809   9.161   2.144   9.306 -0.5264 -0.6795  0.7278
  354MOL0     H48810   9.351   2.252   9.303 -0.1532  0.6955 -0.2233
  354MOL0     H48811   9.513   2.322   9.450  1.3412 -0.5436  1.1768
  354MOL0     H48812   9.589   2.423   9.324  0.6761  0.4996  0.6387
  354MOL0     H48813   9.689   2.332   9.439 -0.4987  2.8638  0.5342
  354MOL0     H48814  10.020   1.893   9.056 -0.5035  2.2922 -1.0005
  354MOL0     H48815  10.258   1.838   9.066  0.6330  2.0301 -1.8999
  354MOL0     H48816  10.474   2.117   9.264 -1.5251 -0.4305 -0.5276
  354MOL0     H48817  10.576   2.002   9.346 -1.4683  2.3849  1.5509
  354MOL0     H48818  10.572   2.050   9.049 -0.8157 -0.3531  0.4957
  354MOL0     H48819  10.700   2.105   9.164  0.3457 -1.0803  2.9939
  354MOL0     H48820  10.632   1.817   9.113 -1.9945 -0.3253  3.4439
  354MOL0     H48821  10.759   1.877   9.217  1.8854  1.4783 -1.0251
  354MOL0     H48822  10.868   1.996   9.008  0.0435  0.9202 -0.6449
  354MOL0     H48823  10.759   1.908   8.911 -0.8978  2.7017  0.6809
  354MOL0     H48824  10.958   1.779   9.096 -0.9025  2.9304  2.1330
  354MOL0     H48825  10.810   1.697   9.041 -1.2427  1.1499 -1.5853
  354MOL0     H48826  10.883   1.717   8.810 -0.2607  0.6117  0.0758
  354MOL0     H48827  11.002   1.629   8.906 -3.2264 -0.7666  3.8903
  354MOL0     H48828  11.142   1.856   8.918  1.6374 -0.1836 -1.2092
  354MOL0     H48829  11.017   1.922   8.812 -0.6234 -0.5839  1.0034
  354MOL0     H48830  11.222   1.696   8.747  1.1568  0.2763 -1.2528
  354MOL0     H48831  11.222   1.865   8.693  2.9811 -1.1012  1.0590
  354MOL0     H48832  10.296   2.071   9.429  3.3563  0.1751 -2.1729
  354MOL0     H48833  10.053   2.126   9.415  3.4711  3.2168 -0.9013
  354MOL0     H48834   9.700   1.959   9.105 -1.0163 -0.8964  0.0923
  354MOL0     H48835   9.459   1.918   9.063 -0.4639  1.1210  0.2309
  354MOL0     H48836   7.715   2.030   8.560  1.5422 -1.1004  2.2570
  354MOL0     H48837   7.542   1.905   8.694  4.1358 -1.4994  1.5150
  354MOL0     H48838   7.209   1.876   8.833 -0.5804  3.2494 -1.1431
  354MOL0     H48839   7.002   1.761   8.861 -1.5983  0.7581  0.2619
  354MOL0     H48840   6.776   1.755   8.863  1.4624 -0.2624 -0.3219
  354MOL0     H48841   6.849   1.627   8.967 -0.3540 -0.8960  2.5947
  354MOL0     H48842   6.573   1.744   8.964  3.2696  1.8747 -2.4085
  354MOL0     H48843   6.631   1.627   9.092  2.1710  1.5307  0.3279
  354MOL0     H48844   6.655   1.459   8.919  0.4832  0.5026  1.4182
  354MOL0     H48845   6.490   1.519   8.923  0.1742  0.9527 -0.0323
  354MOL0     H48846   6.714   1.593   8.719  0.4258 -1.7693 -0.8891
  354MOL0     H48847   6.555   1.688   8.744  1.8520  0.0917 -1.7741
  354MOL0     H48848   6.434   1.345   8.529 -0.5678  0.8580 -0.9622
  354MOL0     H48849   6.930   1.955   9.225 -0.1370 -3.3608  0.8361
  354MOL0     H48850   7.077   2.103   9.318 -1.7184 -2.4538 -1.5422
  354MOL0     H48851   7.252   2.107   9.279 -0.3855  0.7108  0.8283
  354MOL0     H48852   7.141   2.225   9.203  1.1606  1.0460  2.3541
  355MOL0     O48853  10.480  10.653  11.301  0.0231 -0.3551  0.5231
  355MOL0     C48854  10.432  10.544  11.322  0.4418  0.2736 -0.4488
  355MOL0     O48855  10.417  10.447  11.228 -0.1121  1.0534  0.1492
  355MOL0     C48856  10.497  10.438  11.117 -0.0037 -0.5026  0.4844
  355MOL0     C48857  10.453  10.355  11.018 -0.5400 -0.3727 -0.4328
  355MOL0     C48858  10.525  10.321  10.911  0.0892  0.8276  1.2625
  355MOL0     C48859  10.657  10.366  10.897 -0.1505 -0.4876 -0.2879
  355MOL0     O48860  10.736  10.337  10.794 -0.0109  0.1525 -0.6952
  355MOL0     C48861  10.681  10.273  10.681 -0.4703 -0.0055  0.3386
  355MOL0     C48862  10.776  10.279  10.566  0.2564 -0.1811 -0.5404
  355MOL0     C48863  10.895  10.189  10.599  0.4675  0.3694  0.2513
  355MOL0     C48864  10.985  10.197  10.477  0.3114  0.3227  0.1330
  355MOL0     C48865  11.071  10.072  10.465  0.5013  0.0103 -0.2112
  355MOL0     C48866  11.159  10.096  10.345  0.8375  0.2396 -0.0198
  355MOL0     C48867  11.244   9.972  10.316  0.2087  0.3266  0.1820
  355MOL0     C48868  11.296   9.997  10.175 -0.3046  0.8084  0.5992
  355MOL0     N48869  11.387   9.890  10.132 -0.6404  0.5727 -0.3597
  355MOL0     C48870  11.524   9.906  10.141 -0.5575  0.3000  0.4892
  355MOL0     C48871  11.572   9.775  10.106  0.3459 -0.4213 -0.0567
  355MOL0     C48872  11.715   9.742  10.096 -0.0163  1.0873 -0.3369
  355MOL0     C48873  11.751   9.675   9.963 -0.5052 -0.5666  0.8576
  355MOL0     C48874  11.869   9.578   9.970  0.6805  0.4835 -1.1524
  355MOL0     C48875  11.991   9.637  10.033  0.6005 -0.2852 -0.1819
  355MOL0     O48876  12.094   9.542  10.047  0.1017  0.1234 -0.1193
  355MOL0     C48877  12.208   9.572  10.119 -0.6848 -1.0008  0.0423
  355MOL0     C48878  12.311   9.480  10.111 -0.8524  0.3197 -0.5543
  355MOL0     C48879  12.433   9.494  10.173  0.1830  0.3561 -0.1222
  355MOL0     C48880  12.529   9.381  10.166  0.7901 -0.4894  1.0129
  355MOL0     C48881  12.458   9.614  10.249  0.7175  0.0598  0.2196
  355MOL0     C48882  12.590   9.664  10.303 -0.1708  0.2059 -0.6338
  355MOL0     O48883  12.704   9.591  10.274  1.3207 -0.7032 -0.2721
  355MOL0     C48884  12.828   9.627  10.301 -0.4470  0.1473  0.0895
  355MOL0     C48885  12.927   9.604  10.207 -0.3995  1.0619 -0.3350
  355MOL0     C48886  13.059   9.627  10.232 -0.3721  1.0393  0.7102
  355MOL0     C48887  13.104   9.682  10.351  0.2098 -0.6715 -0.3208
  355MOL0     O48888  13.240   9.712  10.367  0.3011  0.3179 -0.7576
  355MOL0     C48889  13.298   9.734  10.493 -0.0355  0.1662  1.2040
  355MOL0     C48890  13.328   9.891  10.509  0.4407  0.6857  0.2700
  355MOL0     C48891  13.412   9.912  10.649 -0.3325  0.3321  0.3982
  355MOL0     C48892  13.467  10.055  10.670  0.5005  0.5652 -0.1857
  355MOL0     C48893  13.555  10.069  10.794 -0.2577  0.7620  0.4838
  355MOL0     C48894  13.696   9.989  10.781 -0.1555  0.4182  1.0754
  355MOL0     C48895  13.788  10.018  10.903  0.4105  0.5954 -0.4995
  355MOL0     C48896  13.817  10.159  10.942  0.2339  0.6862  0.3548
  355MOL0    Cl48897  13.878  10.245  10.801  0.4332 -0.1839 -0.3544
  355MOL0     C48898  13.010   9.711  10.450 -0.0920  0.5423  0.1208
  355MOL0     C48899  12.871   9.692  10.424 -0.4707 -0.5569 -0.4536
  355MOL0     O48900  12.590   9.773  10.362 -0.0583  0.2523 -0.0545
  355MOL0     C48901  12.345   9.706  10.252 -0.0004 -1.1142  0.6289
  355MOL0     C48902  12.220   9.674  10.207  0.5072  0.1093  0.4176
  355MOL0     N48903  11.466   9.695  10.074  0.2651  1.1048  0.4577
  355MOL0     N48904  11.354   9.765  10.105  0.4643  0.6780 -0.1821
  355MOL0     C48905  10.703  10.452  10.995  0.1618 -0.1592 -1.1251
  355MOL0     C48906  10.625  10.492  11.103 -0.3504 -0.3010  1.0161
  355MOL0     C48907  10.357  10.510  11.446 -0.0109 -0.0058  0.0886
  355MOL0     C48908  10.232  10.449  11.435 -0.4069  0.4040  0.4689
  355MOL0     C48909  10.151  10.424  11.544 -0.1636 -0.2958 -0.0609
  355MOL0     C48910  10.208  10.438  11.671  0.7751  0.0135  0.4688
  355MOL0     O48911  10.132  10.410  11.790 -0.7153  0.3060  0.4068
  355MOL0     C48912  10.019  10.317  11.803 -0.7192 -0.6450  0.1389
  355MOL0     C48913   9.889  10.395  11.780  1.1150  0.6859  0.0371
  355MOL0     C48914   9.881  10.537  11.844 -0.9720 -0.2799 -0.0795
  355MOL0     C48915   9.742  10.593  11.840  0.9399 -0.1451  0.4135
  355MOL0     C48916   9.656  10.580  11.707  0.2021 -0.8910  1.3385
  355MOL0     C48917   9.575  10.591  11.612  0.3755  0.6706  0.3254
  355MOL0     C48918  10.342  10.477  11.687 -0.1869  0.7147 -0.8521
  355MOL0     C48919  10.414  10.522  11.573  0.6773  0.0408  0.2923
  355MOL0     C48920  10.553  10.582  11.580 -0.5470  0.3022 -0.3356
  355MOL0     H48921  10.353  10.313  11.026 -0.1156 -1.0696  2.1289
  355MOL0     H48922  10.495  10.255  10.830  2.0086  1.2953  0.1129
  355MOL0     H48923  10.596  10.335  10.650  0.4815  1.9492  1.4556
  355MOL0     H48924  10.641  10.175  10.710  0.6126 -0.1105  1.6066
  355MOL0     H48925  10.723  10.245  10.476 -0.3730  0.3269 -0.3728
  355MOL0     H48926  10.797  10.383  10.542 -1.4364  0.6267  1.2086
  355MOL0     H48927  10.946  10.214  10.692 -2.0128  1.7317  1.3692
  355MOL0     H48928  10.859  10.087  10.612 -1.5970  1.0546  0.4212
  355MOL0     H48929  10.927  10.203  10.384  1.3355  0.5830 -0.4958
  355MOL0     H48930  11.042  10.289  10.489  0.0539  0.2450  2.5491
  355MOL0     H48931  10.999   9.991  10.452  0.4600  0.2469 -1.6927
  355MOL0     H48932  11.124  10.047  10.557 -1.5036 -3.6053  0.1608
  355MOL0     H48933  11.098  10.111  10.255  1.1909 -2.2770 -0.7376
  355MOL0     H48934  11.223  10.184  10.359  0.7954  0.0104  1.7709
  355MOL0     H48935  11.194   9.875  10.326 -1.3659  1.1291  0.3089
  355MOL0     H48936  11.322   9.982  10.392  1.1732  0.9708 -0.8548
  355MOL0     H48937  11.221   9.994  10.096  1.6415 -2.1777 -1.3468
  355MOL0     H48938  11.339  10.097  10.188 -0.3331  0.6420  2.2564
  355MOL0     H48939  11.578   9.990  10.185  1.2042 -0.6850  0.3200
  355MOL0     H48940  11.742   9.672  10.176  2.6264  2.0361 -0.2864
  355MOL0     H48941  11.777   9.831  10.112  1.2236  0.1842  0.1312
  355MOL0     H48942  11.667   9.623   9.916 -1.4767  1.0707  0.7223
  355MOL0     H48943  11.782   9.746   9.886 -1.9107 -2.4041 -1.5642
  355MOL0     H48944  11.828   9.491  10.023 -2.2737  1.4626 -1.6572
  355MOL0     H48945  11.889   9.542   9.869  0.0108 -0.7884 -0.8542
  355MOL0     H48946  12.024   9.721   9.972 -1.0335  1.2343  0.9624
  355MOL0     H48947  11.965   9.684  10.128 -1.8398  0.6655 -1.2584
  355MOL0     H48948  12.291   9.381  10.071  1.0483 -1.6092  2.8496
  355MOL0     H48949  12.587   9.382  10.073  2.3586  2.2840  1.8887
  355MOL0     H48950  12.464   9.295  10.185 -2.2651  1.7649  1.4571
  355MOL0     H48951  12.591   9.375  10.256  1.1681  0.6812  0.8541
  355MOL0     H48952  12.895   9.547  10.121  1.4330 -0.6748  0.0588
  355MOL0     H48953  13.122   9.614  10.145  0.6066  0.0283  1.5314
  355MOL0     H48954  13.243   9.688  10.576 -1.7229 -2.2528 -1.0962
  355MOL0     H48955  13.391   9.676  10.485  0.8859  1.5829  1.1872
  355MOL0     H48956  13.380   9.924  10.419 -2.5464 -0.1654 -1.9103
  355MOL0     H48957  13.238   9.953  10.518  2.2717  3.7199 -0.8586
  355MOL0     H48958  13.496   9.841  10.648 -0.7088 -0.1286 -0.7211
  355MOL0     H48959  13.345   9.898  10.734 -1.4701  0.9592 -0.3717
  355MOL0     H48960  13.384  10.126  10.683 -2.1626 -2.6096  1.8405
  355MOL0     H48961  13.517  10.078  10.576  0.0331 -1.7630 -1.0705
  355MOL0     H48962  13.586  10.174  10.801  0.0348  0.6411  1.0381
  355MOL0     H48963  13.507  10.036  10.886  1.3651  0.2219  1.1651
  355MOL0     H48964  13.739  10.015  10.684 -0.0172 -1.1016  0.7028
  355MOL0     H48965  13.683   9.880  10.777 -1.0902  0.4861  1.8572
  355MOL0     H48966  13.879   9.962  10.883 -0.5294 -1.4587  0.6479
  355MOL0     H48967  13.741   9.965  10.987  1.4401  1.3194  0.5707
  355MOL0     H48968  13.893  10.162  11.020  2.0728 -2.2330 -1.1371
  355MOL0     H48969  13.727  10.212  10.975  0.2619  2.2120 -1.7804
  355MOL0     H48970  13.048   9.766  10.535 -1.9835  2.6272 -0.2665
  355MOL0     H48971  12.794   9.728  10.492 -0.4328  0.7276 -1.0556
  355MOL0     H48972  12.349   9.801  10.304 -1.3103 -0.3977 -0.5272
  355MOL0     H48973  12.152   9.755  10.233  2.5717  1.9390  0.5074
  355MOL0     H48974  10.808  10.480  10.998  0.4408 -1.1924 -0.7385
  355MOL0     H48975  10.669  10.552  11.182  2.7235  0.4461 -1.0632
  355MOL0     H48976  10.180  10.436  11.341 -1.4024  0.2800  1.0179
  355MOL0     H48977  10.049  10.390  11.532  0.6886 -2.1598 -3.1281
  355MOL0     H48978  10.025  10.228  11.740 -0.4144 -0.8206  0.4113
  355MOL0     H48979  10.026  10.277  11.905  3.3536  2.3130  1.3299
  355MOL0     H48980   9.802  10.336  11.811  0.7737  1.0432 -0.2362
  355MOL0     H48981   9.877  10.412  11.673  1.7645 -1.8037 -0.4811
  355MOL0     H48982   9.911  10.547  11.949 -0.1674  0.0467 -0.3315
  355MOL0     H48983   9.941  10.608  11.787 -0.6541 -1.1951 -0.9161
  355MOL0     H48984   9.749  10.696  11.875 -0.5018 -0.5949  2.2269
  355MOL0     H48985   9.679  10.558  11.923 -0.5002  1.1956 -0.0891
  355MOL0     H48986   9.505  10.589  11.531 -0.4468 -0.6539  1.0389
  355MOL0     H48987  10.395  10.468  11.782 -0.1409  1.0965 -0.8385
  355MOL0     H48988  10.610  10.558  11.670  0.7433  1.7800 -0.7262
  355MOL0     H48989  10.612  10.565  11.489  0.0473 -3.5934  0.6175
  355MOL0     H48990  10.533  10.689  11.588 -0.2911  0.1889  3.0161
  356MOL0     O48991   8.245   8.224   6.845 -1.0847 -0.7781  0.1852
  356MOL0     C48992   8.202   8.111   6.822 -0.3426 -0.9701 -0.0619
  356MOL0     O48993   8.250   7.995   6.887 -0.1793 -0.0288  1.1123
  356MOL0     C48994   8.318   8.030   7.006 -0.1008  0.2736 -0.2760
  356MOL0     C48995   8.242   8.080   7.116 -0.2294  0.3343 -1.0352
  356MOL0     C48996   8.301   8.100   7.240  0.2563 -0.5695 -0.8157
  356MOL0     C48997   8.441   8.066   7.265 -0.6135 -0.2226  0.3414
  356MOL0     O48998   8.518   8.094   7.377 -0.2705  0.1959  0.1751
  356MOL0     C48999   8.474   8.156   7.500  0.7656  0.0309 -0.1339
  356MOL0     C49000   8.540   8.093   7.621  0.2445 -0.4639 -0.4261
  356MOL0     C49001   8.685   8.107   7.634  0.2534  0.2871 -0.3478
  356MOL0     C49002   8.765   7.971   7.597 -0.9492 -0.1107 -0.3274
  356MOL0     C49003   8.903   7.998   7.530  0.1307 -0.1944 -0.3853
  356MOL0     C49004   8.998   7.885   7.561  0.7549 -0.1144 -0.2471
  356MOL0     C49005   8.955   7.750   7.506  0.1090 -0.4645 -0.2599
  356MOL0     C49006   9.041   7.637   7.563 -0.8353  0.2518 -0.5367
  356MOL0     N49007   9.179   7.635   7.519  0.0249  0.7796 -0.5537
  356MOL0     C49008   9.221   7.656   7.390  0.2822 -0.6480  0.8535
  356MOL0     C49009   9.358   7.647   7.396  0.5664 -0.9317  0.3962
  356MOL0     C49010   9.449   7.702   7.291 -0.5502 -0.8597  0.2426
  356MOL0     C49011   9.572   7.619   7.274  0.3518 -0.0337  0.2942
  356MOL0     C49012   9.537   7.510   7.172 -0.2578 -0.5451  0.4331
  356MOL0     C49013   9.656   7.421   7.143 -0.9344  1.1986 -0.3563
  356MOL0     O49014   9.712   7.464   7.015 -0.1499 -0.0941 -0.9897
  356MOL0     C49015   9.833   7.404   6.976 -0.4439  0.8338  0.0277
  356MOL0     C49016   9.914   7.311   7.041 -0.5251  0.3183 -0.5557
  356MOL0     C49017  10.042   7.269   7.005  0.1833  0.0489 -0.7793
  356MOL0     C49018  10.116   7.167   7.088  0.3189  0.5504  0.4634
  356MOL0     C49019  10.101   7.336   6.896 -0.3413 -0.2296 -0.7597
  356MOL0     C49020  10.247   7.322   6.856 -0.7495  0.9335  0.2499
  356MOL0     O49021  10.305   7.422   6.784 -0.6804  0.1896 -0.0044
  356MOL0     C49022  10.367   7.375   6.671 -0.6390  0.0834  0.1980
  356MOL0     C49023  10.454   7.457   6.597  0.1908 -0.1155 -0.0475
  356MOL0     C49024  10.520   7.424   6.473 -0.0465 -0.1707 -0.5309
  356MOL0     C49025  10.488   7.301   6.410  0.3519 -0.8174  0.2691
  356MOL0     O49026  10.544   7.262   6.289 -0.1915 -0.0197  0.4551
  356MOL0     C49027  10.593   7.357   6.201 -0.6295  0.4745  0.4532
  356MOL0     C49028  10.627   7.311   6.064  0.0930  0.2186 -0.1915
  356MOL0     C49029  10.684   7.421   5.988  0.8795 -0.4849  1.1095
  356MOL0     C49030  10.759   7.385   5.857  0.4030  0.1304  0.5364
  356MOL0     C49031  10.847   7.496   5.794 -0.1593  0.6863 -0.3924
  356MOL0     C49032  10.805   7.641   5.809  0.4256 -0.1361  0.5596
  356MOL0     C49033  10.687   7.697   5.731  0.1815 -0.6086  0.0380
  356MOL0     C49034  10.701   7.690   5.580 -0.5799  0.5669  0.1900
  356MOL0    Cl49035  10.556   7.765   5.521 -0.0575  0.6097 -0.2299
  356MOL0     C49036  10.390   7.226   6.472 -0.0484  0.3839 -0.1893
  356MOL0     C49037  10.333   7.253   6.601  0.2802 -0.9832 -0.0478
  356MOL0     O49038  10.311   7.219   6.890 -0.3114  0.4690  0.7353
  356MOL0     C49039  10.030   7.438   6.831 -0.3825 -0.2227 -0.0430
  356MOL0     C49040   9.896   7.474   6.871  0.4930  0.2533 -0.0072
  356MOL0     N49041   9.396   7.628   7.526 -0.0108  0.4455 -0.4561
  356MOL0     N49042   9.289   7.611   7.595 -0.7123  0.3878 -0.8653
  356MOL0     C49043   8.513   8.016   7.156 -0.1863 -0.6386  0.0549
  356MOL0     C49044   8.450   7.989   7.033  0.5668 -0.2440 -0.6471
  356MOL0     C49045   8.086   8.103   6.726 -0.0323  0.5691  1.4271
  356MOL0     C49046   8.075   8.208   6.631 -1.3030  0.2929  0.2343
  356MOL0     C49047   7.970   8.224   6.540 -0.7279 -0.0261 -0.1474
  356MOL0     C49048   7.869   8.122   6.544 -1.2329  0.0995 -0.3808
  356MOL0     O49049   7.762   8.104   6.455  0.1524 -0.2536  0.3061
  356MOL0     C49050   7.776   8.188   6.336  0.7187  0.5918 -0.8127
  356MOL0     C49051   7.657   8.174   6.244 -0.1385 -0.0616 -0.1577
  356MOL0     C49052   7.524   8.160   6.331  0.2493  0.6656 -0.6542
  356MOL0     C49053   7.411   8.124   6.240  0.6200 -0.1188 -0.7311
  356MOL0     C49054   7.355   8.244   6.171 -0.1056  0.6738 -0.3032
  356MOL0     C49055   7.322   8.330   6.094  0.4116 -0.2845  0.2726
  356MOL0     C49056   7.891   8.014   6.636  0.4133  0.2772  0.0542
  356MOL0     C49057   7.993   8.001   6.725  0.4692 -0.4134 -0.2234
  356MOL0     C49058   8.007   7.878   6.817 -0.4344 -0.2127 -0.3433
  356MOL0     H49059   8.141   8.113   7.095 -1.9148 -1.7546  2.7565
  356MOL0     H49060   8.248   8.147   7.322  0.5251 -3.2191  0.9863
  356MOL0     H49061   8.366   8.144   7.509  0.9748 -1.9735  0.0866
  356MOL0     H49062   8.504   8.261   7.505 -0.1068  0.2731  0.1233
  356MOL0     H49063   8.490   8.135   7.709  0.7506  1.1167 -0.8459
  356MOL0     H49064   8.518   7.986   7.614  0.4219 -0.5510  0.2465
  356MOL0     H49065   8.706   8.181   7.556  0.1216 -0.5577 -1.1924
  356MOL0     H49066   8.726   8.154   7.724  1.3014  1.0521 -1.2088
  356MOL0     H49067   8.775   7.905   7.683  0.4977 -1.3102 -1.3682
  356MOL0     H49068   8.698   7.916   7.531 -1.4584 -0.0010  0.0900
  356MOL0     H49069   8.940   8.092   7.574  1.1182 -0.3740 -0.8023
  356MOL0     H49070   8.903   8.023   7.424  2.4863  2.4904  0.1009
  356MOL0     H49071   9.094   7.922   7.526  1.3595  2.9424  3.9285
  356MOL0     H49072   9.019   7.888   7.668 -2.0209  3.6478  0.4168
  356MOL0     H49073   8.967   7.740   7.398 -0.4832 -1.4678 -0.2499
  356MOL0     H49074   8.854   7.719   7.535 -0.1061  0.3742 -0.0793
  356MOL0     H49075   9.054   7.642   7.671  4.8889 -0.2925 -0.8909
  356MOL0     H49076   9.003   7.539   7.534 -0.5157  0.4592 -1.7213
  356MOL0     H49077   9.168   7.675   7.297  3.0055 -1.7170 -1.0558
  356MOL0     H49078   9.478   7.804   7.317 -1.0676 -0.9946  1.4221
  356MOL0     H49079   9.396   7.711   7.196 -0.3297  1.0717  0.2809
  356MOL0     H49080   9.641   7.692   7.230  1.4673 -0.6775  0.9251
  356MOL0     H49081   9.608   7.580   7.370 -1.5568 -1.8334  0.3456
  356MOL0     H49082   9.449   7.450   7.198 -0.3382 -0.5361  0.1875
  356MOL0     H49083   9.506   7.564   7.082 -1.9767  0.7839  1.7573
  356MOL0     H49084   9.730   7.434   7.222  1.0924 -0.7903 -1.7756
  356MOL0     H49085   9.628   7.316   7.129  1.1892  0.7686 -1.9797
  356MOL0     H49086   9.879   7.275   7.138  3.0088 -0.0844  0.7350
  356MOL0     H49087  10.142   7.078   7.030 -1.6577 -0.7085  1.4012
  356MOL0     H49088  10.064   7.139   7.179 -0.8343  0.9639 -0.0542
  356MOL0     H49089  10.213   7.209   7.116  1.1520 -1.0960  0.2015
  356MOL0     H49090  10.472   7.552   6.647  0.2057 -1.0463  1.8171
  356MOL0     H49091  10.571   7.507   6.426 -1.4399  2.5888  2.4251
  356MOL0     H49092  10.516   7.435   6.193 -2.4005 -1.0236  1.8617
  356MOL0     H49093  10.681   7.410   6.239  0.0956  0.0579 -0.5873
  356MOL0     H49094  10.703   7.233   6.075  1.2097  1.4395  1.2515
  356MOL0     H49095  10.545   7.259   6.013 -0.2336 -0.2473  0.7927
  356MOL0     H49096  10.752   7.475   6.055  1.9883  0.3306 -0.6054
  356MOL0     H49097  10.605   7.491   5.960  1.0493 -0.3957  0.8586
  356MOL0     H49098  10.694   7.347   5.778  1.0991 -2.4740  1.1344
  356MOL0     H49099  10.831   7.308   5.886 -1.5170 -2.1557 -0.4170
  356MOL0     H49100  10.936   7.503   5.857 -2.5960  2.8383  3.1000
  356MOL0     H49101  10.860   7.469   5.689 -1.7946 -1.3430 -0.1509
  356MOL0     H49102  10.896   7.699   5.792  1.7800 -2.8756 -2.5005
  356MOL0     H49103  10.782   7.662   5.914 -2.6481  1.8762 -0.3649
  356MOL0     H49104  10.678   7.800   5.768 -3.0679 -1.6108  2.4654
  356MOL0     H49105  10.591   7.656   5.762 -0.1968 -0.3805 -0.8053
  356MOL0     H49106  10.712   7.582   5.563  1.4171  0.4845  1.6446
  356MOL0     H49107  10.795   7.733   5.542  0.1628 -1.1725 -0.0539
  356MOL0     H49108  10.355   7.133   6.427 -2.0314  2.4473 -3.2511
  356MOL0     H49109  10.259   7.181   6.633  0.3450 -0.8072  0.5170
  356MOL0     H49110  10.072   7.483   6.742  2.5444  0.1476  1.4048
  356MOL0     H49111   9.834   7.554   6.829 -0.1850 -0.6626 -0.8088
  356MOL0     H49112   8.620   8.010   7.171 -0.5479 -2.3210  2.6767
  356MOL0     H49113   8.498   7.950   6.944  0.1322 -0.8985 -0.6052
  356MOL0     H49114   8.142   8.293   6.635 -3.8592  2.4408  2.2785
  356MOL0     H49115   7.985   8.308   6.472  3.0676 -0.2149  0.2295
  356MOL0     H49116   7.762   8.288   6.378 -0.9005  0.7747 -1.7201
  356MOL0     H49117   7.872   8.184   6.284  1.2953 -0.0813  0.2844
  356MOL0     H49118   7.667   8.085   6.181  1.9386 -0.6753  0.9299
  356MOL0     H49119   7.647   8.263   6.181 -2.7946  0.2009  0.5226
  356MOL0     H49120   7.530   8.075   6.399 -2.8068 -0.0526 -1.1348
  356MOL0     H49121   7.504   8.253   6.385 -0.8876 -2.0401  4.1569
  356MOL0     H49122   7.325   8.088   6.296 -0.0324 -0.0982 -1.6984
  356MOL0     H49123   7.437   8.054   6.160 -2.2774  0.5584 -2.3923
  356MOL0     H49124   7.311   8.419   6.036  3.4734  0.2588  0.3603
  356MOL0     H49125   7.825   7.928   6.626  3.8412 -2.8185  1.5467
  356MOL0     H49126   8.083   7.809   6.779 -2.5694 -4.0318  1.7059
  356MOL0     H49127   8.017   7.892   6.925 -2.5400 -1.0857  0.0085
  356MOL0     H49128   7.907   7.834   6.813 -1.8945  2.7230  0.8282
  357MOL0     O49129   3.581   4.499   3.801  0.1218  0.8779 -0.4308
  357MOL0     C49130   3.537   4.580   3.720 -0.1349 -0.1526  0.2829
  357MOL0     O49131   3.616   4.679   3.673 -0.5895  0.1701 -0.7553
  357MOL0     C49132   3.738   4.696   3.737 -0.3487  0.2350  0.2567
  357MOL0     C49133   3.745   4.778   3.850 -0.4195  1.1790  0.6072
  357MOL0     C49134   3.870   4.780   3.923 -0.1639  0.0558  0.3693
  357MOL0     C49135   3.988   4.730   3.863  0.6629  0.1396  0.2599
  357MOL0     O49136   4.113   4.750   3.916 -0.1816 -0.4389  0.0003
  357MOL0     C49137   4.107   4.827   4.037 -0.0543 -0.1348  0.2202
  357MOL0     C49138   4.247   4.855   4.094 -0.1534 -0.2066 -0.2049
  357MOL0     C49139   4.333   4.937   3.999 -0.1631 -0.5803 -0.4726
  357MOL0     C49140   4.474   4.946   4.058  0.0214 -0.2741  0.2231
  357MOL0     C49141   4.571   4.970   3.947 -0.4907  0.1111 -0.8354
  357MOL0     C49142   4.707   5.043   4.003  0.3574  0.3949  1.1894
  357MOL0     C49143   4.782   4.959   4.100 -0.2101  0.1750 -1.3094
  357MOL0     C49144   4.793   4.813   4.055  0.2070  0.3319 -0.4249
  357MOL0     N49145   4.902   4.753   4.141  1.1111 -0.0489 -0.4232
  357MOL0     C49146   5.033   4.745   4.110 -1.1040  0.0486  0.4338
  357MOL0     C49147   5.096   4.694   4.220  0.5045  0.2014  0.1826
  357MOL0     C49148   5.238   4.651   4.212  0.6267  0.7823  0.1260
  357MOL0     C49149   5.240   4.511   4.143 -0.2676 -0.9420 -0.3939
  357MOL0     C49150   5.387   4.485   4.102 -0.6972 -0.3819  0.9105
  357MOL0     C49151   5.475   4.441   4.220 -0.0334  0.1886 -0.3855
  357MOL0     O49152   5.500   4.546   4.314  1.0355 -0.8302  0.5721
  357MOL0     C49153   5.603   4.544   4.399  0.3945 -0.2162  0.7711
  357MOL0     C49154   5.693   4.438   4.415  0.1996  0.3501  0.1200
  357MOL0     C49155   5.811   4.448   4.492 -0.0172  0.7800  0.6795
  357MOL0     C49156   5.898   4.331   4.507 -0.5150  0.3318 -0.5580
  357MOL0     C49157   5.841   4.571   4.557 -1.2967  0.9566  0.8294
  357MOL0     C49158   5.955   4.594   4.638  0.0510  0.6192 -0.2722
  357MOL0     O49159   6.073   4.534   4.610 -0.2476  0.0217  0.5061
  357MOL0     C49160   6.180   4.559   4.696  0.6998 -0.0898 -0.0161
  357MOL0     C49161   6.242   4.450   4.759  1.1574 -0.0328  0.7089
  357MOL0     C49162   6.349   4.464   4.849 -0.3717  0.4364 -0.3270
  357MOL0     C49163   6.395   4.596   4.870  0.2375 -0.0288 -0.1660
  357MOL0     O49164   6.492   4.632   4.965  0.8219 -0.3276  0.8722
  357MOL0     C49165   6.577   4.532   5.012  0.4053 -0.2569 -0.3432
  357MOL0     C49166   6.693   4.582   5.100  0.0925  0.9713  0.1900
  357MOL0     C49167   6.818   4.506   5.102 -0.2877 -0.3642 -1.1433
  357MOL0     C49168   6.930   4.580   5.171  0.4979  0.1855 -0.2814
  357MOL0     C49169   7.035   4.494   5.233 -0.2174 -1.1049  0.6589
  357MOL0     C49170   7.141   4.565   5.319  0.1925 -0.4443 -0.6475
  357MOL0     C49171   7.257   4.471   5.355 -0.0121 -0.8076 -0.3485
  357MOL0     C49172   7.223   4.391   5.469  0.4338 -0.9509 -0.1492
  357MOL0    Cl49173   7.365   4.295   5.509  0.2074 -0.1661  0.1220
  357MOL0     C49174   6.335   4.709   4.804 -0.0340  0.3309 -1.6807
  357MOL0     C49175   6.232   4.685   4.719 -0.1100  0.0961  1.2123
  357MOL0     O49176   5.929   4.664   4.732  0.5994 -0.9904  0.0048
  357MOL0     C49177   5.745   4.679   4.546 -0.7541  0.9127  0.2791
  357MOL0     C49178   5.628   4.659   4.467  0.3472  0.0055 -0.5641
  357MOL0     N49179   4.994   4.657   4.311  0.2779 -0.4752 -0.4110
  357MOL0     N49180   4.883   4.697   4.263  0.2542  0.4616  0.1019
  357MOL0     C49181   3.978   4.654   3.745  0.1468 -0.1327  0.4060
  357MOL0     C49182   3.856   4.640   3.682 -0.1668 -0.6315 -0.1966
  357MOL0     C49183   3.399   4.573   3.663  0.2719 -0.0489  0.8618
  357MOL0     C49184   3.358   4.658   3.554 -0.8186 -0.2316 -0.4276
  357MOL0     C49185   3.227   4.663   3.512 -0.3438 -0.6720 -0.7107
  357MOL0     C49186   3.143   4.568   3.554  0.4792  0.1797  0.0863
  357MOL0     O49187   3.028   4.537   3.487 -0.6112  0.1494  0.0092
  357MOL0     C49188   3.040   4.538   3.343  0.0700 -0.1300  0.1473
  357MOL0     C49189   2.903   4.504   3.281 -0.4338 -0.3998  0.2719
  357MOL0     C49190   2.904   4.524   3.132 -0.4974 -0.4738 -0.5063
  357MOL0     C49191   2.767   4.490   3.060  0.3455  1.0488  0.3945
  357MOL0     C49192   2.731   4.350   3.062 -0.1242 -0.1027  0.2426
  357MOL0     C49193   2.679   4.240   3.061 -0.1476  0.0907 -0.6393
  357MOL0     C49194   3.183   4.479   3.652  0.3389 -0.1571 -0.9101
  357MOL0     C49195   3.305   4.478   3.715  0.1095  0.0905  0.0232
  357MOL0     C49196   3.328   4.365   3.819 -0.2977  0.1671  0.7942
  357MOL0     H49197   3.658   4.828   3.891 -5.4007 -3.6741 -2.5888
  357MOL0     H49198   3.864   4.836   4.015  3.1921  2.1157 -0.4686
  357MOL0     H49199   4.060   4.777   4.123 -1.4682  1.3846  0.3699
  357MOL0     H49200   4.055   4.922   4.024 -4.5683 -2.3451  0.1827
  357MOL0     H49201   4.227   4.900   4.192 -0.4620 -0.5218 -0.1175
  357MOL0     H49202   4.304   4.763   4.109 -2.0133 -1.7156 -1.8214
  357MOL0     H49203   4.346   4.913   3.893  1.6418  2.0015 -0.9129
  357MOL0     H49204   4.294   5.039   4.002  0.3937 -0.3791  1.2346
  357MOL0     H49205   4.490   5.030   4.126  1.7962  0.3220 -0.8568
  357MOL0     H49206   4.496   4.860   4.122 -0.1315 -1.1803 -0.9031
  357MOL0     H49207   4.520   5.030   3.870 -4.5588 -0.1316  1.3754
  357MOL0     H49208   4.599   4.873   3.904 -1.8544 -0.3385 -0.7747
  357MOL0     H49209   4.770   5.060   3.915 -0.9274  0.1027  0.1788
  357MOL0     H49210   4.690   5.146   4.036  0.9358  1.6113 -1.9232
  357MOL0     H49211   4.739   4.971   4.200  0.8481  1.4542 -0.9695
  357MOL0     H49212   4.887   4.989   4.110 -0.4741  0.1838  3.2709
  357MOL0     H49213   4.700   4.757   4.069 -0.0696  1.1402  1.1680
  357MOL0     H49214   4.824   4.804   3.950 -2.6754  0.2632 -1.3582
  357MOL0     H49215   5.083   4.782   4.021  0.9829 -0.4579  1.3223
  357MOL0     H49216   5.278   4.630   4.312  2.5265 -5.8646 -1.4758
  357MOL0     H49217   5.284   4.726   4.148 -0.6294  1.3333 -0.1550
  357MOL0     H49218   5.212   4.427   4.208  0.6857 -0.4068  0.7498
  357MOL0     H49219   5.172   4.509   4.057 -1.0660  1.0585  0.1554
  357MOL0     H49220   5.392   4.402   4.032 -1.1362 -0.9324  1.5186
  357MOL0     H49221   5.428   4.572   4.050 -1.4400  1.0095  2.5211
  357MOL0     H49222   5.417   4.367   4.274 -2.5159  0.9726 -1.8332
  357MOL0     H49223   5.568   4.403   4.177  2.3078  1.0889  3.3677
  357MOL0     H49224   5.677   4.341   4.367  2.2033  0.6570 -1.2860
  357MOL0     H49225   5.931   4.326   4.611 -1.0113 -1.3866 -0.4483
  357MOL0     H49226   5.985   4.342   4.441  0.6200 -1.1292  0.6307
  357MOL0     H49227   5.843   4.239   4.486 -2.4035  1.0596  0.9017
  357MOL0     H49228   6.215   4.346   4.745  1.4399  0.1185 -1.2745
  357MOL0     H49229   6.405   4.379   4.886  0.6632 -0.0512 -2.7850
  357MOL0     H49230   6.510   4.465   5.067  0.3291 -1.1376 -1.4819
  357MOL0     H49231   6.617   4.464   4.936 -0.7145  0.3845 -1.5199
  357MOL0     H49232   6.724   4.682   5.068  3.4189  0.3409  1.0558
  357MOL0     H49233   6.648   4.583   5.200 -1.8696 -1.1162 -0.6048
  357MOL0     H49234   6.856   4.468   5.006  3.8768  0.9212 -0.1956
  357MOL0     H49235   6.804   4.420   5.168  2.4170 -0.4297 -0.5652
  357MOL0     H49236   6.891   4.645   5.249  0.3120  1.1852 -1.1849
  357MOL0     H49237   6.987   4.642   5.101  0.6110  1.0681  0.5697
  357MOL0     H49238   6.982   4.424   5.299  3.7372 -4.0835  1.0821
  357MOL0     H49239   7.084   4.424   5.164 -0.2536  0.1383 -0.6788
  357MOL0     H49240   7.093   4.607   5.407 -1.7581  1.0031 -2.3154
  357MOL0     H49241   7.184   4.655   5.275  0.5143  0.8775  2.1381
  357MOL0     H49242   7.345   4.532   5.378 -0.8834 -0.3922  2.2428
  357MOL0     H49243   7.277   4.411   5.266 -0.3692  0.4624 -1.3166
  357MOL0     H49244   7.137   4.326   5.450  0.2878 -1.3889  1.7762
  357MOL0     H49245   7.208   4.463   5.550  0.1142  1.6531 -2.3780
  357MOL0     H49246   6.372   4.808   4.828  2.1008 -0.9881  1.0259
  357MOL0     H49247   6.182   4.767   4.668  2.3382  0.1740 -1.2934
  357MOL0     H49248   5.754   4.772   4.602 -0.7976  2.4925 -2.1842
  357MOL0     H49249   5.560   4.742   4.450  1.0773  0.8355  0.4575
  357MOL0     H49250   4.069   4.610   3.706 -0.2850 -1.2588  0.6272
  357MOL0     H49251   3.835   4.598   3.585 -0.3708  3.3129 -2.0687
  357MOL0     H49252   3.436   4.716   3.506 -0.0050 -1.0007 -0.0681
  357MOL0     H49253   3.202   4.736   3.436  1.2517  2.1133  1.2433
  357MOL0     H49254   3.097   4.622   3.303  2.3854 -0.6975  2.0269
  357MOL0     H49255   3.108   4.459   3.310 -0.8889 -0.5536 -0.8719
  357MOL0     H49256   2.830   4.571   3.328  1.6699  0.8111  2.0196
  357MOL0     H49257   2.888   4.399   3.305  3.6282 -1.5304 -1.3615
  357MOL0     H49258   2.926   4.630   3.115 -1.2638 -0.4149 -1.2107
  357MOL0     H49259   2.987   4.468   3.088  1.3266 -1.6184  3.7859
  357MOL0     H49260   2.764   4.527   2.957 -0.5130  1.5398  0.5868
  357MOL0     H49261   2.683   4.547   3.099  0.2514  1.9055 -0.9787
  357MOL0     H49262   2.621   4.151   3.053  0.5970 -0.6420  1.4480
  357MOL0     H49263   3.107   4.409   3.687 -1.8423  1.6772 -1.6923
  357MOL0     H49264   3.393   4.289   3.774 -1.1491  0.6190 -1.3666
  357MOL0     H49265   3.394   4.399   3.899  1.7887  2.4760 -1.7271
  357MOL0     H49266   3.229   4.332   3.853 -1.0814  1.2479 -0.3206
  358MOL0     O49267   4.311   5.497   6.893 -0.4910 -0.6179 -0.4266
  358MOL0     C49268   4.260   5.472   7.004  0.3925 -0.5269  0.3980
  358MOL0     O49269   4.325   5.450   7.121 -0.1439  0.3145 -0.2885
  358MOL0     C49270   4.456   5.498   7.130 -0.0366  0.1837 -0.0621
  358MOL0     C49271   4.562   5.402   7.143  0.1044 -0.2927 -0.1206
  358MOL0     C49272   4.694   5.435   7.160 -0.0402  0.1541  0.0572
  358MOL0     C49273   4.725   5.573   7.166 -0.2536  1.0628 -0.3867
  358MOL0     O49274   4.851   5.622   7.183  0.1185 -0.3082 -0.3604
  358MOL0     C49275   4.948   5.532   7.236 -0.7641 -0.6859  1.3446
  358MOL0     C49276   5.073   5.613   7.284  0.0146 -0.4580  0.3056
  358MOL0     C49277   5.202   5.532   7.325  0.0421  0.2875  0.2654
  358MOL0     C49278   5.201   5.467   7.461  0.5329  0.4602  0.0093
  358MOL0     C49279   5.287   5.331   7.456 -1.1614  0.0485 -0.3208
  358MOL0     C49280   5.346   5.295   7.596  0.3465 -0.0004  0.0235
  358MOL0     C49281   5.374   5.149   7.603  0.1332 -0.4929  0.3406
  358MOL0     C49282   5.416   5.101   7.744 -0.2846  0.2577  0.1494
  358MOL0     N49283   5.418   4.948   7.742 -0.1450  0.0775  0.2680
  358MOL0     C49284   5.303   4.876   7.730 -0.1118 -0.2414  0.0891
  358MOL0     C49285   5.345   4.748   7.742  1.3325 -0.5375  0.2104
  358MOL0     C49286   5.251   4.631   7.710  0.8594  0.4619  0.6638
  358MOL0     C49287   5.211   4.557   7.832 -0.2950 -0.0428 -0.2770
  358MOL0     C49288   5.126   4.438   7.794  0.0028 -0.5636  0.5286
  358MOL0     C49289   5.064   4.378   7.915  1.1026 -0.8279  0.2495
  358MOL0     O49290   4.964   4.274   7.881  0.7266  0.0900 -0.1611
  358MOL0     C49291   5.006   4.154   7.837 -0.4401  0.4193  0.4340
  358MOL0     C49292   4.921   4.082   7.757  0.2050  0.2608 -0.0566
  358MOL0     C49293   4.960   3.967   7.693 -0.2979  0.2309  0.4222
  358MOL0     C49294   4.855   3.900   7.611  0.8019  0.5317 -0.3511
  358MOL0     C49295   5.095   3.922   7.706  0.3361 -0.5705 -0.2417
  358MOL0     C49296   5.140   3.800   7.638 -0.4003 -0.2113  0.3729
  358MOL0     O49297   5.229   3.735   7.724  0.3564  0.0430 -0.2875
  358MOL0     C49298   5.314   3.632   7.683  0.9923  0.1030  0.5799
  358MOL0     C49299   5.257   3.504   7.643  0.7696  0.2027 -0.2113
  358MOL0     C49300   5.337   3.393   7.624  0.2871  0.0744  0.5364
  358MOL0     C49301   5.476   3.406   7.622  0.5862 -0.3616 -0.4258
  358MOL0     O49302   5.563   3.303   7.621  0.5435  0.8031  0.4477
  358MOL0     C49303   5.513   3.172   7.658  0.2134 -0.4945 -0.4223
  358MOL0     C49304   5.587   3.126   7.781 -1.4473 -0.3246 -0.0151
  358MOL0     C49305   5.746   3.127   7.768 -0.4532  0.7479  0.9054
  358MOL0     C49306   5.811   3.040   7.875 -0.0132  1.2545 -0.7007
  358MOL0     C49307   5.960   3.045   7.879 -0.3416 -0.2798  0.0397
  358MOL0     C49308   6.008   2.952   7.984  0.9374 -0.1435 -0.4665
  358MOL0     C49309   6.152   2.913   7.942  0.2925 -1.0480 -0.0087
  358MOL0     C49310   6.215   2.808   8.031 -0.3839 -0.2672 -0.1104
  358MOL0    Cl49311   6.224   2.885   8.192  0.6015 -0.5549  0.0331
  358MOL0     C49312   5.530   3.535   7.649 -0.7407  0.9072 -0.0652
  358MOL0     C49313   5.451   3.643   7.682  0.0279 -0.4732 -0.8355
  358MOL0     O49314   5.101   3.763   7.525 -0.3295  0.3966  0.0987
  358MOL0     C49315   5.174   3.996   7.786  0.3297  0.5985  0.0505
  358MOL0     C49316   5.135   4.106   7.851  0.0599 -0.9403 -1.0524
  358MOL0     N49317   5.481   4.751   7.764 -0.0303  0.7293 -0.2581
  358MOL0     N49318   5.530   4.869   7.764 -0.3649  0.2275  0.5798
  358MOL0     C49319   4.626   5.663   7.150  0.1131  0.3285  0.3105
  358MOL0     C49320   4.492   5.630   7.133  0.0139  0.3405 -0.2756
  358MOL0     C49321   4.116   5.469   7.010  0.4166 -0.8180 -0.1756
  358MOL0     C49322   4.058   5.420   7.123  0.0477 -0.2797  0.3801
  358MOL0     C49323   3.915   5.409   7.139  0.6844 -0.1122 -0.1169
  358MOL0     C49324   3.829   5.469   7.051 -0.3490  0.8950  0.2260
  358MOL0     O49325   3.691   5.485   7.057  0.6230 -0.0800  0.4536
  358MOL0     C49326   3.613   5.416   7.154  0.3215 -0.1084  0.5752
  358MOL0     C49327   3.566   5.272   7.114  0.1488 -0.4599 -0.4810
  358MOL0     C49328   3.517   5.258   6.973 -0.3464 -0.1980  0.6984
  358MOL0     C49329   3.416   5.146   6.938  0.8290 -0.6413  0.3964
  358MOL0     C49330   3.277   5.185   6.965 -0.1065  0.6070 -0.4719
  358MOL0     C49331   3.166   5.218   6.990  0.3538  0.3829 -0.0510
  358MOL0     C49332   3.887   5.519   6.934  0.6445  0.7224 -0.3280
  358MOL0     C49333   4.022   5.517   6.910 -0.8549 -1.2663 -0.1383
  358MOL0     C49334   4.067   5.580   6.786 -0.3854 -0.2876 -0.2993
  358MOL0     H49335   4.535   5.297   7.139  0.0556 -0.4398  2.3454
  358MOL0     H49336   4.768   5.358   7.176 -0.2587  0.2380  1.7079
  358MOL0     H49337   4.982   5.460   7.161 -0.4271  1.4965 -0.6825
  358MOL0     H49338   4.897   5.480   7.318  0.9766 -1.4590  2.0071
  358MOL0     H49339   5.113   5.685   7.213  1.4582  0.4585  1.9587
  358MOL0     H49340   5.039   5.666   7.374  0.1433  0.1013  0.0302
  358MOL0     H49341   5.213   5.454   7.249 -0.8796 -1.3468  1.7322
  358MOL0     H49342   5.285   5.603   7.318 -0.0773  0.5519  1.3958
  358MOL0     H49343   5.251   5.525   7.539 -2.6085 -0.1497  2.6756
  358MOL0     H49344   5.103   5.462   7.509  0.6923  2.5138  0.6439
  358MOL0     H49345   5.377   5.342   7.395  0.0950 -1.2154  1.2053
  358MOL0     H49346   5.224   5.249   7.419  0.2858 -1.3512  0.1821
  358MOL0     H49347   5.430   5.359   7.624 -0.3918  1.5140 -1.0870
  358MOL0     H49348   5.267   5.323   7.667 -0.5574  1.2775 -1.4225
  358MOL0     H49349   5.449   5.126   7.527  0.2841  0.7499  0.0878
  358MOL0     H49350   5.281   5.097   7.581  0.2489 -0.2859 -0.6576
  358MOL0     H49351   5.515   5.134   7.776  0.0795  0.1559 -0.8362
  358MOL0     H49352   5.356   5.136   7.828 -0.5447  1.0830 -0.3613
  358MOL0     H49353   5.207   4.916   7.700  0.6220  0.0247 -2.1462
  358MOL0     H49354   5.293   4.566   7.634  0.7147 -1.4339  2.1266
  358MOL0     H49355   5.165   4.682   7.665 -0.8286 -2.2481  0.5869
  358MOL0     H49356   5.304   4.511   7.866 -0.9130 -0.8343  0.3862
  358MOL0     H49357   5.166   4.624   7.906 -1.5819 -2.4357  1.2517
  358MOL0     H49358   5.048   4.472   7.725 -1.6116 -0.9287  2.0889
  358MOL0     H49359   5.185   4.370   7.733  1.1401  1.0546 -0.2382
  358MOL0     H49360   5.137   4.344   7.990  0.9884 -2.4890 -0.3486
  358MOL0     H49361   4.996   4.453   7.957 -2.2891 -2.1876 -2.3285
  358MOL0     H49362   4.826   4.134   7.747  0.5941  1.5628  2.3351
  358MOL0     H49363   4.864   3.793   7.630  1.0267  0.6382  0.1795
  358MOL0     H49364   4.876   3.907   7.504 -0.8927 -0.7966 -0.8045
  358MOL0     H49365   4.752   3.923   7.640  0.7117 -0.1309 -0.1263
  358MOL0     H49366   5.150   3.488   7.652  0.8846 -3.2704 -2.9876
  358MOL0     H49367   5.282   3.303   7.599  1.3650 -0.9775  1.8411
  358MOL0     H49368   5.407   3.169   7.684  0.5603 -1.6763  1.0240
  358MOL0     H49369   5.536   3.106   7.573 -2.1084  0.4804 -1.8928
  358MOL0     H49370   5.581   3.187   7.872  2.2855 -0.5274  0.5444
  358MOL0     H49371   5.556   3.024   7.802 -2.9938  0.6891  3.1647
  358MOL0     H49372   5.773   3.232   7.785 -0.9149  0.9785  0.2558
  358MOL0     H49373   5.763   3.089   7.667 -4.5547 -1.0333  0.6816
  358MOL0     H49374   5.786   2.934   7.869  4.6502 -0.2076  0.8487
  358MOL0     H49375   5.776   3.056   7.977  0.7252 -2.6244  0.3084
  358MOL0     H49376   5.990   3.011   7.779 -1.3676 -3.4982  0.7145
  358MOL0     H49377   6.001   3.146   7.894 -0.8682 -0.3841  2.6815
  358MOL0     H49378   5.947   2.861   7.977 -2.2776  1.7983  0.4616
  358MOL0     H49379   5.995   2.984   8.088 -1.6368  1.3248 -1.1623
  358MOL0     H49380   6.213   3.004   7.942 -0.5757 -0.4574 -0.0164
  358MOL0     H49381   6.146   2.881   7.837 -1.9232 -1.5528  0.2256
  358MOL0     H49382   6.317   2.782   8.000 -0.6170  0.1875 -1.2885
  358MOL0     H49383   6.156   2.716   8.033 -3.6435  1.6974  1.0513
  358MOL0     H49384   5.638   3.546   7.652 -0.7453  1.0735 -0.4984
  358MOL0     H49385   5.500   3.729   7.726 -0.2788 -1.7461  2.3228
  358MOL0     H49386   5.274   3.970   7.817  0.0622 -0.3426  0.1374
  358MOL0     H49387   5.213   4.158   7.906 -3.3150  2.1053  1.2816
  358MOL0     H49388   4.670   5.762   7.147  1.4780 -0.2630  0.1114
  358MOL0     H49389   4.415   5.705   7.116 -0.6904 -0.4893 -0.8412
  358MOL0     H49390   4.118   5.367   7.196 -1.3076 -1.7564  0.4817
  358MOL0     H49391   3.879   5.363   7.230  0.5217  2.5319  1.2558
  358MOL0     H49392   3.657   5.404   7.254  0.9233  0.2425  0.3567
  358MOL0     H49393   3.526   5.476   7.179 -0.9222 -1.9552  0.8840
  358MOL0     H49394   3.479   5.242   7.174  0.9521  0.1737  1.0558
  358MOL0     H49395   3.649   5.203   7.128 -1.2284 -2.0171  0.3161
  358MOL0     H49396   3.467   5.352   6.949  0.9893  0.2597 -0.4985
  358MOL0     H49397   3.602   5.243   6.904 -0.8796 -1.5465  0.2964
  358MOL0     H49398   3.452   5.062   6.998  1.9425 -0.7018 -0.3229
  358MOL0     H49399   3.426   5.123   6.832  0.2928  5.0487 -1.2217
  358MOL0     H49400   3.063   5.241   7.012  0.4160  0.5112  0.1068
  358MOL0     H49401   3.809   5.553   6.867 -0.6612 -0.9039  0.2996
  358MOL0     H49402   4.119   5.514   6.716  2.2444  0.7334  0.5700
  358MOL0     H49403   3.981   5.636   6.748 -0.8710 -0.5129  0.4695
  358MOL0     H49404   4.147   5.653   6.805  0.1759 -0.5736 -1.4266
  359MOL0     O49405  11.225   4.091   9.911  0.0650 -0.3385 -0.6457
  359MOL0     C49406  11.246   4.154  10.020  0.3032  1.1602 -0.5608
  359MOL0     O49407  11.372   4.167  10.084 -0.0504  0.1611 -0.6109
  359MOL0     C49408  11.484   4.140  10.008  0.8841 -0.2024  0.0870
  359MOL0     C49409  11.501   4.219   9.897  0.2365  0.0468  0.7835
  359MOL0     C49410  11.610   4.207   9.812 -0.6111 -0.2186 -0.2363
  359MOL0     C49411  11.706   4.117   9.843  0.7140  0.0358  0.2828
  359MOL0     O49412  11.810   4.108   9.749 -0.0386  0.3009 -0.1405
  359MOL0     C49413  11.914   4.015   9.781 -0.1226 -0.6683 -1.2889
  359MOL0     C49414  12.023   4.038   9.681  0.4327 -0.0866  0.2197
  359MOL0     C49415  12.074   4.177   9.661  0.2292  0.2722 -0.5032
  359MOL0     C49416  12.150   4.235   9.784 -0.8985  0.0237  0.4576
  359MOL0     C49417  12.287   4.173   9.805  0.9208 -0.3362 -0.1968
  359MOL0     C49418  12.384   4.172   9.690 -1.0992 -0.2228  0.6907
  359MOL0     C49419  12.525   4.116   9.729  0.0036 -0.6390  0.0089
  359MOL0     C49420  12.635   4.141   9.622  1.3407 -0.0777  0.4353
  359MOL0     N49421  12.749   4.077   9.692 -0.6011 -0.7335  0.0670
  359MOL0     C49422  12.865   4.146   9.723  0.0099  0.5397  0.3502
  359MOL0     C49423  12.962   4.048   9.722  0.9423 -0.6995  0.2460
  359MOL0     C49424  13.104   4.084   9.776  0.0858  0.9199  0.1174
  359MOL0     C49425  13.213   4.080   9.677  0.8554 -0.2748  0.7451
  359MOL0     C49426  13.317   4.196   9.695  0.8211 -0.1201 -0.6704
  359MOL0     C49427  13.379   4.192   9.838 -1.2355 -0.5936 -0.7260
  359MOL0     O49428  13.459   4.080   9.879 -0.1251 -0.1047 -0.4597
  359MOL0     C49429  13.592   4.072   9.826  0.0170 -0.5021 -0.8254
  359MOL0     C49430  13.647   4.158   9.732 -1.1011 -0.6641 -0.0693
  359MOL0     C49431  13.773   4.134   9.678 -0.6365  0.1221  1.0629
  359MOL0     C49432  13.827   4.230   9.575  0.2383  0.3401 -0.3958
  359MOL0     C49433  13.847   4.022   9.717 -0.7617  0.3554  0.4711
  359MOL0     C49434  13.982   3.983   9.659 -0.6869  0.1469 -0.5913
  359MOL0     O49435  14.017   4.026   9.540  0.6216  0.3532  0.0208
  359MOL0     C49436  14.143   4.027   9.499  0.4518  0.2583  0.2080
  359MOL0     C49437  14.265   4.065   9.570  0.1607  0.9081  0.4866
  359MOL0     C49438  14.385   4.083   9.497 -0.2489 -0.5724  0.8614
  359MOL0     C49439  14.396   4.040   9.363  0.0366 -0.0962  0.2370
  359MOL0     O49440  14.522   4.058   9.305 -0.3082 -0.3377 -0.1054
  359MOL0     C49441  14.580   3.935   9.267  0.3596  0.6933 -0.2452
  359MOL0     C49442  14.726   3.938   9.223  0.1602 -0.8431 -0.0381
  359MOL0     C49443  14.757   4.034   9.101  1.2834  0.2845 -0.5084
  359MOL0     C49444  14.886   3.973   9.044  0.2849 -0.8100  0.4564
  359MOL0     C49445  14.934   4.066   8.927  0.3218  0.4041  0.3411
  359MOL0     C49446  14.849   4.057   8.797  0.4408  0.3254  0.2757
  359MOL0     C49447  14.895   4.141   8.676  0.2009 -0.1812  0.2745
  359MOL0     C49448  14.906   4.298   8.705 -0.8049 -0.1624  0.4587
  359MOL0    Cl49449  14.750   4.351   8.746 -0.0861  0.5860  0.2531
  359MOL0     C49450  14.281   3.994   9.298  0.2685 -0.2910  0.8088
  359MOL0     C49451  14.159   3.988   9.371  0.8164 -0.2052  0.1985
  359MOL0     O49452  14.051   3.907   9.731  0.4212  0.1350 -0.6051
  359MOL0     C49453  13.800   3.949   9.822 -0.0391  0.3568  0.0176
  359MOL0     C49454  13.671   3.970   9.878  0.7954 -0.8210 -0.9055
  359MOL0     N49455  12.902   3.929   9.697 -0.1498 -0.2033 -0.1453
  359MOL0     N49456  12.778   3.945   9.671 -0.1630 -0.3287 -0.0007
  359MOL0     C49457  11.686   4.032   9.954  0.4210  0.4752 -0.6269
  359MOL0     C49458  11.576   4.044  10.039  0.1796  0.8515  0.3306
  359MOL0     C49459  11.130   4.201  10.100  0.2271 -0.3387 -0.6883
  359MOL0     C49460  11.158   4.261  10.228  0.4729  0.1180  0.3500
  359MOL0     C49461  11.063   4.296  10.313  0.6310 -0.4946  0.0889
  359MOL0     C49462  10.928   4.294  10.285 -0.3955 -0.0934  0.0202
  359MOL0     O49463  10.826   4.327  10.370 -0.1976 -0.5360  0.5891
  359MOL0     C49464  10.828   4.468  10.413 -0.0079  0.0883 -0.5806
  359MOL0     C49465  10.781   4.488  10.557 -0.4313  0.3094  0.3268
  359MOL0     C49466  10.889   4.440  10.650  0.6463 -0.4836 -0.0873
  359MOL0     C49467  10.873   4.518  10.780 -0.5227  0.8470 -0.5143
  359MOL0     C49468  10.957   4.466  10.888  0.2251  0.3107 -0.2409
  359MOL0     C49469  11.024   4.422  10.976 -0.0033 -0.0993 -0.7771
  359MOL0     C49470  10.905   4.264  10.147 -0.0357 -0.2495  0.6506
  359MOL0     C49471  10.995   4.210  10.063 -0.9223  0.3853  0.4140
  359MOL0     C49472  10.947   4.193   9.924  0.1075  1.0225  0.1930
  359MOL0     H49473  11.430   4.300   9.883  0.1503 -0.3821 -1.7386
  359MOL0     H49474  11.636   4.276   9.733 -0.3589  0.6596  0.5896
  359MOL0     H49475  11.883   3.911   9.792 -1.1976 -0.1836  0.7606
  359MOL0     H49476  11.955   4.045   9.878  0.0739  1.5822 -1.9901
  359MOL0     H49477  12.109   3.977   9.709 -0.9645 -2.2869 -0.0406
  359MOL0     H49478  11.995   3.995   9.584 -1.7256 -0.0233  0.7533
  359MOL0     H49479  12.144   4.175   9.577  2.6503 -2.7815  1.3499
  359MOL0     H49480  11.994   4.242   9.625 -0.7608 -0.5618  0.1203
  359MOL0     H49481  12.173   4.342   9.788 -1.1165  0.0314  1.8493
  359MOL0     H49482  12.098   4.218   9.879  0.4413  1.4811  1.5067
  359MOL0     H49483  12.272   4.069   9.837  3.5079 -0.8349 -0.3942
  359MOL0     H49484  12.332   4.232   9.886  0.9097  1.0473 -1.1680
  359MOL0     H49485  12.340   4.107   9.614 -2.8981  1.8909 -0.1801
  359MOL0     H49486  12.386   4.272   9.646 -3.6002  0.3751  1.7517
  359MOL0     H49487  12.522   4.008   9.750 -1.9266 -1.0175 -1.9303
  359MOL0     H49488  12.560   4.168   9.819  0.8597 -1.6643  0.3014
  359MOL0     H49489  12.605   4.077   9.539 -1.4147  0.5296  0.8754
  359MOL0     H49490  12.647   4.243   9.585  2.8440 -0.3317  0.1769
  359MOL0     H49491  12.883   4.247   9.758  1.6536  1.6926 -3.2243
  359MOL0     H49492  13.136   4.015   9.854  3.3727 -0.3240 -2.1218
  359MOL0     H49493  13.086   4.184   9.816 -2.0715  1.0027 -0.8644
  359MOL0     H49494  13.258   3.984   9.703 -2.1672 -1.4990  1.9908
  359MOL0     H49495  13.161   4.081   9.580  2.1998 -0.2191  0.0102
  359MOL0     H49496  13.387   4.173   9.614  0.7939 -1.8488 -0.2490
  359MOL0     H49497  13.266   4.291   9.678  0.3451 -0.6914 -2.6172
  359MOL0     H49498  13.444   4.280   9.844 -1.2551 -0.5058 -1.5993
  359MOL0     H49499  13.300   4.207   9.912 -0.5927 -1.4731  0.1553
  359MOL0     H49500  13.586   4.241   9.699  0.1853  1.2855  2.1456
  359MOL0     H49501  13.818   4.181   9.478 -1.0030 -0.4818  0.1087
  359MOL0     H49502  13.932   4.258   9.591  0.4068  0.4818 -1.6720
  359MOL0     H49503  13.759   4.315   9.587 -0.1298 -0.2526  2.3592
  359MOL0     H49504  14.266   4.090   9.675 -0.0145  1.9416  0.2563
  359MOL0     H49505  14.471   4.132   9.541 -1.1764  1.3475  0.6555
  359MOL0     H49506  14.574   3.863   9.349  2.4014 -0.9579 -1.4579
  359MOL0     H49507  14.523   3.899   9.180 -0.1371  1.5522 -0.2814
  359MOL0     H49508  14.791   3.968   9.306  0.4365  0.3385 -0.6698
  359MOL0     H49509  14.746   3.835   9.195  1.3863 -0.2618 -1.3828
  359MOL0     H49510  14.763   4.135   9.142 -0.3469 -0.1245  0.8433
  359MOL0     H49511  14.679   4.022   9.026  0.2410 -4.1450  0.9795
  359MOL0     H49512  14.868   3.870   9.011 -0.5787 -0.6594  0.4438
  359MOL0     H49513  14.968   3.974   9.117  1.1743 -2.4477 -0.4414
  359MOL0     H49514  14.942   4.172   8.954 -2.3153  0.5697  0.6837
  359MOL0     H49515  15.032   4.025   8.901  0.6671 -0.7955  3.1858
  359MOL0     H49516  14.744   4.078   8.821 -0.1881 -1.6407 -0.4839
  359MOL0     H49517  14.848   3.954   8.759  2.1879  1.1470 -2.2724
  359MOL0     H49518  14.823   4.130   8.595  0.3261 -1.7314  0.3351
  359MOL0     H49519  14.980   4.091   8.629 -0.9975 -1.2028 -0.8895
  359MOL0     H49520  14.951   4.344   8.617  2.6759 -4.0910 -0.1040
  359MOL0     H49521  14.985   4.316   8.779 -0.0572  2.0017 -0.7800
  359MOL0     H49522  14.274   3.965   9.193  0.0211 -0.4450  0.8672
  359MOL0     H49523  14.070   3.947   9.324  1.3550 -1.2226  0.0397
  359MOL0     H49524  13.857   3.864   9.859 -2.7836 -0.4347  2.8520
  359MOL0     H49525  13.629   3.915   9.961 -2.2105  4.1995  1.3306
  359MOL0     H49526  11.764   3.967   9.995 -0.8332  0.5303  2.0959
  359MOL0     H49527  11.562   3.984  10.129  2.9540  0.1663  0.3816
  359MOL0     H49528  11.259   4.275  10.263  0.8562  3.7043 -1.6543
  359MOL0     H49529  11.103   4.319  10.411  0.2885 -0.9897  0.3506
  359MOL0     H49530  10.925   4.516  10.397  0.8305 -1.2732  0.2050
  359MOL0     H49531  10.744   4.514  10.361 -0.9722 -0.6184  0.3070
  359MOL0     H49532  10.692   4.428  10.575 -0.5261  0.3926  0.1320
  359MOL0     H49533  10.767   4.594  10.583  0.4561  0.8350 -1.2212
  359MOL0     H49534  10.873   4.334  10.672 -0.8620 -0.0071  1.3223
  359MOL0     H49535  10.991   4.446  10.610  1.2038  1.8560  1.4748
  359MOL0     H49536  10.768   4.508  10.809 -0.6743  2.3856 -0.4712
  359MOL0     H49537  10.890   4.626  10.770  0.6338  0.7606  0.2993
  359MOL0     H49538  11.093   4.378  11.045  2.8487 -1.9082 -4.4547
  359MOL0     H49539  10.803   4.281  10.111  0.7004  1.1843 -0.9174
  359MOL0     H49540  10.929   4.087   9.900  2.2852  0.5697  0.4008
  359MOL0     H49541  10.858   4.250   9.897 -0.0938  0.6604  0.0712
  359MOL0     H49542  11.030   4.223   9.860  1.8944 -1.6343  1.0661
  360MOL0     O49543   8.195   0.034   0.304  0.2978 -0.5757 -0.7655
  360MOL0     C49544   8.154   0.147   0.268 -0.7516 -0.5444 -0.6555
  360MOL0     O49545   8.223   0.244   0.204 -0.0069 -0.9487  0.8418
  360MOL0     C49546   8.359   0.229   0.193 -0.3648  0.1439  0.0075
  360MOL0     C49547   8.417   0.178   0.073  0.5447  0.6614 -0.0141
  360MOL0     C49548   8.553   0.163   0.068  0.4493  0.3434  0.2891
  360MOL0     C49549   8.631   0.192   0.178 -0.0396 -1.1990 -0.4973
  360MOL0     O49550   8.772   0.181   0.182 -0.2384  0.2055 -0.0175
  360MOL0     C49551   8.822   0.050   0.231 -1.9264 -0.0615  0.4086
  360MOL0     C49552   8.968   0.078   0.278  0.3797  0.7000  0.0691
  360MOL0     C49553   9.061   0.150   0.186  0.4262 -0.3422 -0.1580
  360MOL0     C49554   9.166   0.230   0.266 -0.1896 -0.4383 -0.5594
  360MOL0     C49555   9.246   0.318   0.170  0.3326  0.2389 -0.4008
  360MOL0     C49556   9.371   0.360   0.250 -0.4863  0.8830 -0.0254
  360MOL0     C49557   9.450   0.437   0.160 -0.8053  1.1025  0.8989
  360MOL0     C49558   9.587   0.495   0.209  0.0470 -0.0908 -1.6121
  360MOL0     N49559   9.626   0.599   0.119 -0.7543 -0.3538  1.0994
  360MOL0     C49560   9.687   0.593  -0.003  0.2330  0.5013 -0.7802
  360MOL0     C49561   9.723   0.716  -0.021 -0.1317  0.3381 -0.3778
  360MOL0     C49562   9.811   0.755  -0.136 -0.7502  0.1951  0.4359
  360MOL0     C49563   9.961   0.741  -0.088 -0.4657  0.5480  0.7289
  360MOL0     C49564   9.999   0.601  -0.070 -0.7879  0.6527  0.0216
  360MOL0     C49565  10.152   0.574  -0.049 -0.1837 -0.3477 -0.6572
  360MOL0     O49566  10.209   0.637   0.061 -0.3858  0.2700 -0.6695
  360MOL0     C49567  10.335   0.606   0.109  0.2600  0.0395 -0.6019
  360MOL0     C49568  10.362   0.615   0.243 -0.0599  0.1372 -0.1649
  360MOL0     C49569  10.473   0.553   0.307 -0.1018  0.4390  0.5397
  360MOL0     C49570  10.473   0.563   0.457 -0.4409  0.3865  0.2358
  360MOL0     C49571  10.575   0.506   0.226 -0.5150 -0.1565  0.1319
  360MOL0     C49572  10.699   0.457   0.280  0.2496 -0.2552  0.1646
  360MOL0     O49573  10.810   0.493   0.214 -0.0398 -0.2208  0.0859
  360MOL0     C49574  10.944   0.458   0.251  0.0202  0.2835 -0.1106
  360MOL0     C49575  10.985   0.373   0.359 -0.4806  0.2134 -0.0700
  360MOL0     C49576  11.119   0.336   0.384  0.2986 -0.6381  0.4337
  360MOL0     C49577  11.220   0.385   0.300 -0.1435 -0.6837  0.1714
  360MOL0     O49578  11.353   0.344   0.318 -0.0975  0.9759 -0.3629
  360MOL0     C49579  11.422   0.318   0.194  0.4651  0.2058  0.3116
  360MOL0     C49580  11.512   0.198   0.200  0.1275  0.0413  0.1709
  360MOL0     C49581  11.431   0.063   0.222  1.0140 -0.9526  0.4694
  360MOL0     C49582  11.335   0.021   0.107  0.2318  1.2411  0.2934
  360MOL0     C49583  11.292  -0.129   0.117  0.3703 -0.0122  0.1179
  360MOL0     C49584  11.172  -0.167   0.027  0.6287 -0.0216 -0.0020
  360MOL0     C49585  11.210  -0.154  -0.129  0.5846 -0.2179  0.7163
  360MOL0     C49586  11.129  -0.262  -0.217 -0.3625 -0.7323 -0.2586
  360MOL0    Cl49587  10.954  -0.230  -0.195 -0.1078  0.1024 -0.1521
  360MOL0     C49588  11.185   0.467   0.191  0.1929  0.3354  0.3277
  360MOL0     C49589  11.052   0.503   0.165  0.7781 -0.0726  0.4123
  360MOL0     O49590  10.694   0.378   0.366  0.1020 -0.4761 -0.2836
  360MOL0     C49591  10.554   0.490   0.084 -0.0346 -0.6991 -0.5597
  360MOL0     C49592  10.436   0.542   0.032  0.2667  0.2032 -0.5216
  360MOL0     N49593   9.682   0.797   0.082  0.1699  0.4025 -0.0051
  360MOL0     N49594   9.631   0.724   0.177  0.3806 -0.3159 -0.4567
  360MOL0     C49595   8.575   0.255   0.288 -0.2163  0.1115  0.3297
  360MOL0     C49596   8.440   0.270   0.301  0.1395  0.6152 -0.4150
  360MOL0     C49597   8.017   0.174   0.302  0.4780 -0.0728  0.7203
  360MOL0     C49598   7.966   0.128   0.424 -0.0674  0.0836 -0.2354
  360MOL0     C49599   7.845   0.178   0.471  0.2718  0.2748  0.2697
  360MOL0     C49600   7.762   0.253   0.391  0.3735 -0.9456  0.8303
  360MOL0     O49601   7.635   0.309   0.431  0.3284  0.4301 -0.0858
  360MOL0     C49602   7.598   0.277   0.565 -1.0473  1.3835 -0.1874
  360MOL0     C49603   7.454   0.329   0.591 -0.0585  0.8887  0.4359
  360MOL0     C49604   7.387   0.232   0.701 -0.3567  0.2229  0.3641
  360MOL0     C49605   7.254   0.285   0.732  0.1248 -0.3436  0.8301
  360MOL0     C49606   7.263   0.399   0.824 -1.2913 -0.4565 -0.0750
  360MOL0     C49607   7.281   0.494   0.894 -0.3180 -0.4145 -0.2147
  360MOL0     C49608   7.805   0.287   0.260 -0.0090  1.3767  0.2402
  360MOL0     C49609   7.940   0.269   0.222  0.7326 -0.1536 -0.1774
  360MOL0     C49610   7.987   0.333   0.093 -0.2809  0.2055  0.7794
  360MOL0     H49611   8.359   0.141  -0.011  1.4725  3.7429 -2.2201
  360MOL0     H49612   8.595   0.125  -0.025  1.3608  2.6820 -0.3154
  360MOL0     H49613   8.830  -0.013   0.142 -4.2275  0.9130 -0.5725
  360MOL0     H49614   8.761   0.001   0.307 -3.2609 -0.1004 -0.6315
  360MOL0     H49615   8.969   0.123   0.377 -1.0818  3.2675 -0.9797
  360MOL0     H49616   9.017  -0.020   0.283 -0.8206  0.0297 -0.8301
  360MOL0     H49617   9.097   0.082   0.109 -1.3806 -0.0382 -1.3466
  360MOL0     H49618   9.001   0.221   0.128 -1.0691 -0.7767  0.7835
  360MOL0     H49619   9.126   0.288   0.349 -0.7075 -2.4095  0.6243
  360MOL0     H49620   9.230   0.156   0.314  0.7641  1.4179  1.2195
  360MOL0     H49621   9.181   0.397   0.133 -2.9210 -0.7266  2.6556
  360MOL0     H49622   9.275   0.247   0.091 -0.0711  1.6067 -1.8176
  360MOL0     H49623   9.343   0.416   0.340 -1.8071 -0.0432  0.1806
  360MOL0     H49624   9.416   0.265   0.281 -0.1135  1.6892  2.1041
  360MOL0     H49625   9.393   0.528   0.140  0.7410  1.9704  0.3291
  360MOL0     H49626   9.462   0.392   0.061  0.9925 -0.2190  1.6590
  360MOL0     H49627   9.572   0.525   0.313  1.8641 -0.4899 -1.1960
  360MOL0     H49628   9.666   0.419   0.206  1.4416  1.1787  0.5159
  360MOL0     H49629   9.702   0.504  -0.063  1.7992 -1.2125  1.9868
  360MOL0     H49630   9.803   0.861  -0.163  4.6856  0.4274 -1.4627
  360MOL0     H49631   9.796   0.692  -0.224  2.4117 -1.9334  1.2582
  360MOL0     H49632  10.019   0.780  -0.172 -3.8635  1.2676 -1.4954
  360MOL0     H49633   9.966   0.789   0.010 -3.6622 -1.4030  1.9873
  360MOL0     H49634   9.942   0.573   0.019 -3.3527  0.2638 -1.6501
  360MOL0     H49635   9.965   0.530  -0.146 -4.3320 -0.6761  2.5688
  360MOL0     H49636  10.160   0.465  -0.038  0.5407 -0.0887  1.9802
  360MOL0     H49637  10.215   0.597  -0.136 -0.3681 -3.1207 -1.6223
  360MOL0     H49638  10.287   0.659   0.307 -0.0318  1.1309 -0.7873
  360MOL0     H49639  10.439   0.662   0.489  3.3203  1.6823  0.7402
  360MOL0     H49640  10.573   0.547   0.498 -0.8165 -1.8022  0.4200
  360MOL0     H49641  10.403   0.489   0.498 -1.1373 -0.9189 -2.9814
  360MOL0     H49642  10.913   0.332   0.429 -0.0071  0.2806  0.4609
  360MOL0     H49643  11.151   0.280   0.471 -1.5322  1.4009  2.5677
  360MOL0     H49644  11.359   0.292   0.108  2.3817 -2.4890 -0.4127
  360MOL0     H49645  11.486   0.403   0.167  1.9106 -1.0569 -0.4316
  360MOL0     H49646  11.566   0.194   0.105  0.5189 -1.1290  0.4180
  360MOL0     H49647  11.581   0.203   0.284  0.3373 -0.3497  0.0272
  360MOL0     H49648  11.374   0.065   0.316 -0.4911 -3.6036 -0.2940
  360MOL0     H49649  11.508  -0.014   0.233  2.0874  0.1786  1.1494
  360MOL0     H49650  11.376   0.054   0.011 -0.2892  3.5177  0.8084
  360MOL0     H49651  11.234   0.064   0.108 -1.7955 -2.8925 -1.5864
  360MOL0     H49652  11.379  -0.195   0.102  0.2337 -0.4889  1.3277
  360MOL0     H49653  11.257  -0.144   0.220 -4.4607 -0.5152 -1.3482
  360MOL0     H49654  11.087  -0.106   0.059  2.7238  2.6955  0.7805
  360MOL0     H49655  11.155  -0.274   0.043  1.4814 -0.4058 -1.5609
  360MOL0     H49656  11.315  -0.179  -0.149  0.0040 -0.2360 -2.9541
  360MOL0     H49657  11.187  -0.050  -0.152 -2.1154 -0.1949  2.9786
  360MOL0     H49658  11.150  -0.363  -0.179  0.0073 -0.8342 -0.7264
  360MOL0     H49659  11.159  -0.257  -0.322  0.2524  0.0661 -0.0516
  360MOL0     H49660  11.258   0.510   0.122  0.1269 -2.4522 -1.6396
  360MOL0     H49661  11.022   0.570   0.085 -0.1143 -1.1655 -0.2043
  360MOL0     H49662  10.633   0.442   0.026  0.9241  0.9418 -0.6620
  360MOL0     H49663  10.419   0.529  -0.075 -1.0483 -0.9798 -0.2066
  360MOL0     H49664   8.643   0.291   0.364 -0.2740  1.2708 -0.1541
  360MOL0     H49665   8.406   0.308   0.397 -1.5097 -0.4485 -0.5440
  360MOL0     H49666   8.022   0.055   0.482  1.4037 -0.4214 -2.1842
  360MOL0     H49667   7.811   0.139   0.567  3.6160 -0.8311  1.1311
  360MOL0     H49668   7.608   0.169   0.579  1.1398  1.2958 -1.8417
  360MOL0     H49669   7.659   0.321   0.645 -1.0011 -0.1839  0.6810
  360MOL0     H49670   7.400   0.312   0.497  0.1340 -1.2369  0.6527
  360MOL0     H49671   7.446   0.434   0.621  2.5275  1.0359  0.8423
  360MOL0     H49672   7.372   0.134   0.654 -3.1597 -0.0927  1.7419
  360MOL0     H49673   7.442   0.223   0.795 -3.2059 -0.4147  2.0785
  360MOL0     H49674   7.194   0.206   0.778 -1.4487 -0.0224 -0.5956
  360MOL0     H49675   7.210   0.325   0.640  1.8702  0.5185  0.3208
  360MOL0     H49676   7.303   0.585   0.946 -0.5538 -1.2585  1.4441
  360MOL0     H49677   7.729   0.344   0.207 -2.2862 -0.5430  1.2596
  360MOL0     H49678   7.898   0.358   0.034  1.4631  0.7617 -1.7797
  360MOL0     H49679   8.038   0.428   0.104 -1.0366  0.6341  0.6452
  360MOL0     H49680   8.046   0.259   0.037 -0.4764 -0.7867  1.8506
  361MOL0     O49681   1.197   1.689   8.853 -0.7165 -0.0887 -0.9537
  361MOL0     C49682   1.090   1.706   8.909  0.0079 -0.3892 -0.5431
  361MOL0     O49683   1.075   1.735   9.046 -0.0199  0.0975  0.1365
  361MOL0     C49684   1.170   1.690   9.130  0.1185  0.0380  0.0856
  361MOL0     C49685   1.291   1.766   9.146  0.2114  0.4246 -0.6992
  361MOL0     C49686   1.381   1.721   9.240 -0.4151 -0.3886  0.5759
  361MOL0     C49687   1.355   1.613   9.324 -0.0966  0.5534  0.4991
  361MOL0     O49688   1.456   1.577   9.415 -0.3242  0.2186  0.2362
  361MOL0     C49689   1.588   1.569   9.361 -0.0937 -0.2436 -0.2089
  361MOL0     C49690   1.695   1.526   9.454 -0.0923  0.7842  0.1790
  361MOL0     C49691   1.814   1.623   9.462 -0.0800 -0.8066 -0.2322
  361MOL0     C49692   1.773   1.748   9.538 -1.0280  0.5678  0.1117
  361MOL0     C49693   1.893   1.853   9.558  0.0346  0.1042  0.1628
  361MOL0     C49694   1.996   1.863   9.439  0.6091  0.8659  0.1356
  361MOL0     C49695   2.120   1.941   9.470  0.5828  0.1432  0.0697
  361MOL0     C49696   2.212   1.893   9.581 -1.1942  0.2895  0.7818
  361MOL0     N49697   2.345   1.905   9.526 -0.1919  0.5530 -0.5763
  361MOL0     C49698   2.429   1.798   9.503 -0.5204 -0.4036 -0.2325
  361MOL0     C49699   2.537   1.860   9.444  0.0229 -0.1248 -0.1681
  361MOL0     C49700   2.645   1.782   9.390  0.2385 -0.5854  0.3968
  361MOL0     C49701   2.785   1.814   9.454  0.6392 -0.0730  0.5231
  361MOL0     C49702   2.906   1.725   9.415 -0.4216 -0.5807  0.7364
  361MOL0     C49703   3.040   1.752   9.476  0.4612  0.0018  0.3075
  361MOL0     O49704   3.060   1.899   9.475  0.1265  0.1064  0.7107
  361MOL0     C49705   3.186   1.962   9.508 -0.4453  1.2804  0.5568
  361MOL0     C49706   3.306   1.891   9.529  0.4334  0.3743 -1.0065
  361MOL0     C49707   3.420   1.958   9.578  0.2686 -0.4769  0.0648
  361MOL0     C49708   3.538   1.871   9.608 -0.1176 -0.0675 -0.5393
  361MOL0     C49709   3.426   2.097   9.582  0.3811  0.2269  0.2617
  361MOL0     C49710   3.537   2.177   9.650  0.2210  0.7168 -0.1924
  361MOL0     O49711   3.665   2.122   9.635 -0.4498 -0.5451  0.0677
  361MOL0     C49712   3.784   2.182   9.659  0.0765 -0.9092  0.4911
  361MOL0     C49713   3.892   2.096   9.663 -0.3286 -0.6302 -0.2619
  361MOL0     C49714   4.015   2.148   9.707 -0.2758  0.5331 -0.2602
  361MOL0     C49715   4.037   2.285   9.742  0.9480 -0.2112  0.7808
  361MOL0     O49716   4.162   2.341   9.764  0.5103  0.0619 -0.3477
  361MOL0     C49717   4.264   2.258   9.820  0.6996 -0.2901  0.2218
  361MOL0     C49718   4.376   2.348   9.878 -0.1830  1.2889  0.7636
  361MOL0     C49719   4.445   2.434   9.768 -0.4312  0.3893 -0.4611
  361MOL0     C49720   4.549   2.533   9.819  0.6178  0.6114  0.4060
  361MOL0     C49721   4.617   2.620   9.713  0.8794  0.2736  0.5947
  361MOL0     C49722   4.748   2.683   9.751  0.2229  0.4725  0.7298
  361MOL0     C49723   4.809   2.752   9.624 -0.3760  0.7125 -0.0321
  361MOL0     C49724   4.956   2.799   9.640 -0.1182 -0.2472  0.2466
  361MOL0    Cl49725   4.933   2.961   9.720  0.0526 -0.0193  0.2792
  361MOL0     C49726   3.921   2.364   9.742  0.3667 -0.3122 -0.4272
  361MOL0     C49727   3.798   2.324   9.702  0.2640  0.6202  0.1187
  361MOL0     O49728   3.508   2.290   9.694  0.9042 -0.2040 -0.2372
  361MOL0     C49729   3.312   2.164   9.544 -0.6113 -0.3083  0.7584
  361MOL0     C49730   3.194   2.095   9.512  0.1229  0.1892  0.3167
  361MOL0     N49731   2.519   1.989   9.430 -0.1403 -0.3015  0.0821
  361MOL0     N49732   2.403   2.023   9.474 -0.0204 -0.1404 -0.0377
  361MOL0     C49733   1.236   1.539   9.303 -0.4338  0.4713 -0.3043
  361MOL0     C49734   1.142   1.582   9.209  0.0537 -0.0700  0.6394
  361MOL0     C49735   0.978   1.694   8.825  0.3383 -0.2122  0.3828
  361MOL0     C49736   1.000   1.726   8.687  0.1729  0.3619  0.1091
  361MOL0     C49737   0.901   1.723   8.591 -0.2580 -0.4821 -0.1943
  361MOL0     C49738   0.768   1.691   8.629  0.3648 -0.1857  1.0254
  361MOL0     O49739   0.674   1.688   8.535  0.0762 -0.2937  0.5775
  361MOL0     C49740   0.594   1.806   8.520 -0.9375  0.1853 -0.0263
  361MOL0     C49741   0.456   1.787   8.581 -0.0914 -0.7059  0.0396
  361MOL0     C49742   0.374   1.914   8.572  0.1946  0.2312 -0.1311
  361MOL0     C49743   0.231   1.891   8.627 -0.1819  0.3345 -0.2705
  361MOL0     C49744   0.152   1.810   8.538  0.0638  0.2006 -0.3073
  361MOL0     C49745   0.075   1.745   8.468  0.5334  0.3118  0.3381
  361MOL0     C49746   0.745   1.682   8.763 -0.4695  0.7313 -0.3831
  361MOL0     C49747   0.841   1.676   8.864  0.2020 -0.5214  0.0532
  361MOL0     C49748   0.803   1.643   9.003  0.0237  0.9240  0.2071
  361MOL0     H49749   1.303   1.850   9.077  0.1514  0.8887 -0.1542
  361MOL0     H49750   1.468   1.782   9.259  1.9131 -3.4395  0.4166
  361MOL0     H49751   1.624   1.670   9.338  2.8575 -1.3646 -0.9681
  361MOL0     H49752   1.591   1.516   9.266 -0.1388  0.8432 -0.8365
  361MOL0     H49753   1.652   1.504   9.552 -0.2811 -2.9919 -0.5928
  361MOL0     H49754   1.739   1.434   9.413  0.1673  2.2368 -3.0659
  361MOL0     H49755   1.891   1.571   9.520 -1.9909 -1.4498  1.9146
  361MOL0     H49756   1.847   1.649   9.361 -0.4846 -0.4121 -0.2653
  361MOL0     H49757   1.690   1.804   9.496  0.7056  1.3844 -2.4965
  361MOL0     H49758   1.737   1.711   9.635 -1.0957 -2.4504 -0.9486
  361MOL0     H49759   1.942   1.818   9.650 -0.2140  1.1615  0.7235
  361MOL0     H49760   1.859   1.954   9.584  2.4108  1.1250 -0.3385
  361MOL0     H49761   2.035   1.766   9.408  0.0275  0.2081  1.3911
  361MOL0     H49762   1.939   1.898   9.352  1.5789  0.7864 -0.5538
  361MOL0     H49763   2.077   2.038   9.496 -2.2114 -1.4236  1.7255
  361MOL0     H49764   2.177   1.949   9.376  0.3912  1.1581  0.0266
  361MOL0     H49765   2.202   1.958   9.668 -4.6539  0.4836  0.3886
  361MOL0     H49766   2.187   1.790   9.608 -0.0907 -0.5144 -1.0063
  361MOL0     H49767   2.396   1.695   9.495  0.1646 -0.5859 -0.8306
  361MOL0     H49768   2.631   1.803   9.284  1.6611  0.8548  0.4617
  361MOL0     H49769   2.622   1.677   9.414  0.3425 -0.6469  0.2267
  361MOL0     H49770   2.813   1.915   9.424 -0.7387  0.4192  0.8449
  361MOL0     H49771   2.775   1.820   9.563 -2.7015 -2.6799  0.5408
  361MOL0     H49772   2.874   1.620   9.425 -1.1225 -0.9593 -3.5118
  361MOL0     H49773   2.911   1.740   9.307 -2.6034  0.5590  0.7511
  361MOL0     H49774   3.037   1.706   9.575 -1.2983 -2.3054 -0.7126
  361MOL0     H49775   3.117   1.704   9.415  0.8219 -1.8394  2.1390
  361MOL0     H49776   3.307   1.783   9.533  0.2432  0.4154  1.9553
  361MOL0     H49777   3.559   1.855   9.714  1.9053  0.1804 -0.8617
  361MOL0     H49778   3.634   1.903   9.566 -0.6919  0.2803 -1.6350
  361MOL0     H49779   3.519   1.771   9.568 -1.7195 -0.3423  0.7605
  361MOL0     H49780   3.898   1.991   9.636 -2.7022 -1.2670  1.3141
  361MOL0     H49781   4.102   2.084   9.702 -0.5443  0.2570 -2.5738
  361MOL0     H49782   4.218   2.193   9.896  3.6081  0.1758  2.5812
  361MOL0     H49783   4.295   2.200   9.733 -2.3190  0.7024 -1.6811
  361MOL0     H49784   4.331   2.409   9.957 -0.1477  0.3635  1.5148
  361MOL0     H49785   4.454   2.279   9.910 -1.1071 -0.6618 -0.9761
  361MOL0     H49786   4.385   2.500   9.705  0.0478 -0.9371 -2.4037
  361MOL0     H49787   4.494   2.367   9.696 -1.0387 -2.8389  1.9193
  361MOL0     H49788   4.628   2.481   9.874  2.4391  0.3614 -2.2761
  361MOL0     H49789   4.491   2.594   9.889  1.6923  0.0043  1.8692
  361MOL0     H49790   4.620   2.558   9.623 -2.6217 -0.2296  0.6677
  361MOL0     H49791   4.541   2.691   9.680 -2.8095 -3.4864  0.1007
  361MOL0     H49792   4.812   2.610   9.802 -1.3846 -2.0212 -0.6319
  361MOL0     H49793   4.743   2.758   9.831  1.9193  0.6857  0.6864
  361MOL0     H49794   4.740   2.830   9.590  0.3216  2.1879  1.7689
  361MOL0     H49795   4.812   2.680   9.541 -1.1798 -0.3769  0.8481
  361MOL0     H49796   5.008   2.798   9.544  1.1428 -2.0596  0.9111
  361MOL0     H49797   5.012   2.730   9.704 -1.0476 -1.2529  0.0014
  361MOL0     H49798   3.928   2.463   9.786  1.3710  0.5916 -2.4805
  361MOL0     H49799   3.717   2.395   9.699 -1.2650 -0.8918  2.3828
  361MOL0     H49800   3.293   2.270   9.534 -2.1022 -0.5066  1.1089
  361MOL0     H49801   3.103   2.153   9.498  0.3604  0.4599 -0.1125
  361MOL0     H49802   1.230   1.445   9.357  0.6601  1.2563  1.2513
  361MOL0     H49803   1.052   1.526   9.188  1.2461 -1.7117 -0.4337
  361MOL0     H49804   1.101   1.731   8.649  0.2472  0.0906  0.2708
  361MOL0     H49805   0.920   1.722   8.485  0.2493 -1.2202 -0.0994
  361MOL0     H49806   0.645   1.886   8.573 -0.1742 -0.1807 -0.1947
  361MOL0     H49807   0.583   1.822   8.412  0.9573 -0.1183 -0.3094
  361MOL0     H49808   0.466   1.754   8.685  0.7805  0.9867  0.5396
  361MOL0     H49809   0.392   1.714   8.531 -1.5991 -0.6675  1.8193
  361MOL0     H49810   0.438   1.986   8.625  1.2521 -1.0611  0.4123
  361MOL0     H49811   0.367   1.953   8.470 -3.3795  0.6315  0.1546
  361MOL0     H49812   0.175   1.985   8.639 -1.9695 -0.4558 -1.8283
  361MOL0     H49813   0.245   1.851   8.728 -0.4206  1.0483  0.0541
  361MOL0     H49814   0.003   1.687   8.414  1.0556 -3.7424  3.4926
  361MOL0     H49815   0.645   1.659   8.798  1.1198 -2.7876  2.5261
  361MOL0     H49816   0.699   1.609   9.006 -0.2121  1.4906 -1.0454
  361MOL0     H49817   0.871   1.569   9.046 -0.6057  1.5838  2.4880
  361MOL0     H49818   0.813   1.732   9.066  1.4491  1.0204 -0.1250
  362MOL0     O49819  10.348   2.714   1.834 -0.0268 -0.3988 -0.1973
  362MOL0     C49820  10.293   2.736   1.724 -0.0838  0.3581 -0.1254
  362MOL0     O49821  10.348   2.729   1.600  0.4291  0.4182 -0.0303
  362MOL0     C49822  10.482   2.703   1.589  0.6781 -0.6502  0.3882
  362MOL0     C49823  10.567   2.622   1.669  0.9463  0.5416 -0.1856
  362MOL0     C49824  10.699   2.591   1.631 -0.0325 -0.4145  0.0328
  362MOL0     C49825  10.753   2.642   1.514 -0.0335  1.4522 -0.6693
  362MOL0     O49826  10.879   2.599   1.482 -0.6724  0.2457  0.3508
  362MOL0     C49827  10.945   2.664   1.379 -0.0127  0.3410 -0.0118
  362MOL0     C49828  11.055   2.581   1.324  0.1363  0.8645  0.2346
  362MOL0     C49829  11.129   2.649   1.206 -0.0213 -0.1382 -0.2483
  362MOL0     C49830  11.141   2.563   1.086  0.0750 -0.7059  0.1380
  362MOL0     C49831  11.192   2.629   0.966  0.0362 -0.5302  0.4937
  362MOL0     C49832  11.194   2.538   0.839 -0.0647 -0.9048  0.1118
  362MOL0     C49833  11.276   2.408   0.853 -0.2698  0.0936  0.0853
  362MOL0     C49834  11.251   2.323   0.724 -0.1982 -0.2311  0.7898
  362MOL0     N49835  11.365   2.334   0.626  0.1315 -0.7438  0.2466
  362MOL0     C49836  11.427   2.449   0.582  0.2448 -0.9682 -0.5662
  362MOL0     C49837  11.534   2.404   0.511 -0.0188 -0.6900 -0.3326
  362MOL0     C49838  11.618   2.484   0.421 -0.3763 -0.1017  0.5222
  362MOL0     C49839  11.761   2.493   0.469  0.3671 -1.1020  0.5180
  362MOL0     C49840  11.847   2.558   0.351  0.6787  0.2895  0.4786
  362MOL0     C49841  11.999   2.534   0.359  0.3355  0.4815  0.2095
  362MOL0     O49842  12.042   2.557   0.497  0.1098 -0.0347  0.2171
  362MOL0     C49843  12.178   2.557   0.510  0.2640 -0.5552 -0.7198
  362MOL0     C49844  12.243   2.460   0.587 -0.4363 -0.1191  0.1967
  362MOL0     C49845  12.379   2.463   0.619  0.1864  0.0580  1.1757
  362MOL0     C49846  12.458   2.358   0.700  0.2255  0.2858 -0.3281
  362MOL0     C49847  12.458   2.565   0.555 -0.2411  0.3858  0.3900
  362MOL0     C49848  12.602   2.579   0.563 -0.1566  0.1236 -0.0367
  362MOL0     O49849  12.648   2.700   0.597  0.5482 -1.0677 -0.0137
  362MOL0     C49850  12.779   2.729   0.575 -0.2398  0.0109  0.3638
  362MOL0     C49851  12.816   2.803   0.468 -0.2399  0.9456  0.1219
  362MOL0     C49852  12.946   2.857   0.457  0.1281  1.1666 -0.1526
  362MOL0     C49853  13.036   2.854   0.570  0.3624  0.3668  0.3962
  362MOL0     O49854  13.157   2.920   0.557  1.3307 -0.1566 -0.1191
  362MOL0     C49855  13.135   3.053   0.511 -0.0190  0.0171 -0.0141
  362MOL0     C49856  13.260   3.126   0.560 -0.7561  0.5161  0.9342
  362MOL0     C49857  13.263   3.261   0.506 -0.0694 -0.4677  0.4591
  362MOL0     C49858  13.407   3.322   0.499  0.1519  0.1874  0.6057
  362MOL0     C49859  13.406   3.472   0.461  0.5724  0.1593  0.4412
  362MOL0     C49860  13.549   3.524   0.460  1.2607  0.5127  0.6509
  362MOL0     C49861  13.563   3.671   0.444  0.1963  0.8751 -0.0984
  362MOL0     C49862  13.703   3.736   0.431  0.0900  0.7571  0.2559
  362MOL0    Cl49863  13.794   3.730   0.587 -0.0969 -0.3244 -0.1900
  362MOL0     C49864  12.998   2.781   0.677 -0.0038 -0.2343  0.7271
  362MOL0     C49865  12.873   2.715   0.684  0.2077  0.5131 -0.3559
  362MOL0     O49866  12.671   2.481   0.541 -0.2302  0.0013 -0.9392
  362MOL0     C49867  12.400   2.661   0.478  0.4612 -0.5430 -0.9552
  362MOL0     C49868  12.258   2.657   0.457  0.3036 -0.0049 -0.5295
  362MOL0     N49869  11.539   2.265   0.526 -0.0271  0.0923 -0.4892
  362MOL0     N49870  11.441   2.222   0.588  0.9185  0.0625 -0.0906
  362MOL0     C49871  10.679   2.737   1.441 -0.7309 -0.2073 -0.0388
  362MOL0     C49872  10.547   2.768   1.481  0.2499 -0.9931 -0.4689
  362MOL0     C49873  10.145   2.778   1.722 -0.4328  0.7616 -0.9677
  362MOL0     C49874  10.083   2.800   1.840 -0.4202 -0.1475  0.3818
  362MOL0     C49875   9.955   2.843   1.851 -0.4121 -0.5528  0.0890
  362MOL0     C49876   9.877   2.864   1.735  0.0739  0.6178  0.5939
  362MOL0     O49877   9.753   2.922   1.730 -1.5313 -0.3612 -0.2052
  362MOL0     C49878   9.648   2.844   1.677 -0.5165 -0.8492 -0.4660
  362MOL0     C49879   9.533   2.944   1.678  0.5557  0.5156  0.1899
  362MOL0     C49880   9.554   3.068   1.583 -0.1766  0.5580  0.0007
  362MOL0     C49881   9.436   3.166   1.588 -0.6072  0.2828 -0.4684
  362MOL0     C49882   9.459   3.277   1.506 -0.3238 -0.5889  0.1784
  362MOL0     C49883   9.492   3.381   1.445 -0.0755  0.1577  0.1164
  362MOL0     C49884   9.937   2.837   1.615  0.4457  0.4876  0.0914
  362MOL0     C49885  10.072   2.788   1.601 -0.2481  0.4090 -0.4919
  362MOL0     C49886  10.110   2.738   1.461 -0.0547  0.1941 -0.4261
  362MOL0     H49887  10.523   2.568   1.752  0.6890 -0.0637 -0.7097
  362MOL0     H49888  10.749   2.523   1.699 -2.0465 -2.0909 -0.0418
  362MOL0     H49889  10.989   2.754   1.424  0.4096 -0.9546  2.3608
  362MOL0     H49890  10.882   2.691   1.293  0.7762  1.1340 -0.3622
  362MOL0     H49891  11.116   2.547   1.408  0.2165 -1.6569 -0.7569
  362MOL0     H49892  11.008   2.484   1.307  0.1230  0.8123  0.5673
  362MOL0     H49893  11.078   2.740   1.176  1.3654  0.5177 -0.6972
  362MOL0     H49894  11.231   2.682   1.229 -0.3745  2.3719 -1.9855
  362MOL0     H49895  11.209   2.482   1.114 -2.9329 -3.8872 -1.0058
  362MOL0     H49896  11.050   2.508   1.061 -0.4239 -1.2054  2.7392
  362MOL0     H49897  11.292   2.671   0.978 -0.7605  2.4693 -2.0170
  362MOL0     H49898  11.122   2.713   0.955  1.8727  1.1165  0.7721
  362MOL0     H49899  11.093   2.509   0.811 -1.1129  0.3646  2.3399
  362MOL0     H49900  11.222   2.596   0.750 -0.2727 -0.7556  0.1422
  362MOL0     H49901  11.249   2.356   0.945 -0.8026  1.7006  0.8693
  362MOL0     H49902  11.384   2.426   0.863 -0.3231 -0.8941  3.4048
  362MOL0     H49903  11.233   2.220   0.755 -0.8489  0.0909  1.5095
  362MOL0     H49904  11.159   2.355   0.673  0.5543 -1.4099 -1.4588
  362MOL0     H49905  11.381   2.547   0.593 -0.5768 -1.2218 -1.5139
  362MOL0     H49906  11.579   2.585   0.408 -0.8518 -0.4302 -0.7902
  362MOL0     H49907  11.608   2.441   0.321 -0.4279  1.6265 -0.2439
  362MOL0     H49908  11.759   2.568   0.548  0.0680  2.3792 -2.5075
  362MOL0     H49909  11.806   2.403   0.513  1.3437 -1.6519 -1.4941
  362MOL0     H49910  11.811   2.509   0.261 -3.3073  1.6195  1.1130
  362MOL0     H49911  11.812   2.662   0.343 -0.0956  0.1096  1.3039
  362MOL0     H49912  12.011   2.436   0.313 -4.3776  0.9442 -2.6564
  362MOL0     H49913  12.052   2.600   0.289 -1.1503  0.4218 -1.0291
  362MOL0     H49914  12.179   2.392   0.642 -2.8325  2.5885  1.0276
  362MOL0     H49915  12.546   2.393   0.756  1.1457  0.8844 -2.0799
  362MOL0     H49916  12.487   2.278   0.631 -0.7096 -2.7552  2.5239
  362MOL0     H49917  12.394   2.312   0.776 -0.2218  1.2676 -0.1000
  362MOL0     H49918  12.740   2.821   0.393  0.4203 -1.8410 -1.3754
  362MOL0     H49919  12.963   2.896   0.356 -1.7396 -1.1661 -1.4653
  362MOL0     H49920  13.129   3.048   0.402  0.9330 -0.8035 -0.0496
  362MOL0     H49921  13.044   3.104   0.544 -0.9256 -1.1920 -0.5915
  362MOL0     H49922  13.282   3.122   0.667 -1.9463 -0.3550  1.1625
  362MOL0     H49923  13.353   3.080   0.524 -0.8790  0.0439  1.2094
  362MOL0     H49924  13.193   3.318   0.568 -0.1976 -0.2549  0.1214
  362MOL0     H49925  13.224   3.264   0.404  1.1373 -1.0971 -0.0387
  362MOL0     H49926  13.464   3.267   0.424  0.7247  1.7309 -0.1325
  362MOL0     H49927  13.470   3.300   0.586  1.0926  0.7882  0.0905
  362MOL0     H49928  13.357   3.505   0.369  3.1904  0.2429 -1.0295
  362MOL0     H49929  13.363   3.516   0.551  1.7550 -2.3535  2.3659
  362MOL0     H49930  13.605   3.481   0.377  2.8018  1.0076  1.3943
  362MOL0     H49931  13.595   3.491   0.554 -0.4681 -2.0239  0.7061
  362MOL0     H49932  13.504   3.719   0.523 -1.0858 -0.9116  0.0848
  362MOL0     H49933  13.508   3.686   0.351  0.6926 -0.6815 -0.6649
  362MOL0     H49934  13.701   3.842   0.402  1.9352  0.8467  0.3932
  362MOL0     H49935  13.761   3.677   0.360  2.5360  2.5950  0.5932
  362MOL0     H49936  13.059   2.776   0.767 -3.1856 -1.4432  2.9985
  362MOL0     H49937  12.841   2.658   0.771 -0.1773  0.7020 -0.3737
  362MOL0     H49938  12.464   2.737   0.436  0.2967 -0.3941 -0.9356
  362MOL0     H49939  12.207   2.741   0.409 -0.0997  1.5076  2.3127
  362MOL0     H49940  10.715   2.786   1.351  1.5498  0.4612  1.1530
  362MOL0     H49941  10.498   2.850   1.429 -0.5009 -0.3589  1.1678
  362MOL0     H49942  10.129   2.789   1.938 -2.2415 -2.2113  1.0808
  362MOL0     H49943   9.917   2.862   1.951 -2.7670 -0.8120 -0.6860
  362MOL0     H49944   9.652   2.815   1.572 -0.3101 -1.9811 -0.1518
  362MOL0     H49945   9.630   2.759   1.743 -2.6810 -2.2091 -2.6564
  362MOL0     H49946   9.517   2.982   1.779  2.2647  2.6432 -0.2603
  362MOL0     H49947   9.450   2.882   1.644  0.2637  0.2579  1.3327
  362MOL0     H49948   9.649   3.121   1.594  0.3261  1.0661 -4.6505
  362MOL0     H49949   9.550   3.023   1.483 -0.4016  1.5362 -0.4359
  362MOL0     H49950   9.421   3.195   1.692  2.6132  1.3479 -0.1817
  362MOL0     H49951   9.344   3.116   1.557 -2.0307  2.2649  0.3514
  362MOL0     H49952   9.503   3.477   1.399 -5.0064  1.9329  1.9462
  362MOL0     H49953   9.880   2.847   1.524  1.3939  1.0742 -0.4476
  362MOL0     H49954  10.176   2.804   1.405 -0.1918  1.7601  1.1974
  362MOL0     H49955  10.154   2.638   1.468 -2.8998 -1.1674 -0.5994
  362MOL0     H49956  10.025   2.725   1.392 -0.9845  1.3002  0.4713
  363MOL0     O49957   1.181   1.653   5.250  0.7143 -0.2177 -0.1281
  363MOL0     C49958   1.211   1.537   5.281  0.8168 -0.0557 -0.6790
  363MOL0     O49959   1.196   1.423   5.209  0.0634 -0.0699  0.1350
  363MOL0     C49960   1.149   1.440   5.081 -0.3898 -0.6188  0.1756
  363MOL0     C49961   1.036   1.389   5.036  0.1743 -0.5496  0.4749
  363MOL0     C49962   0.990   1.410   4.908  0.1882  0.9503  0.5669
  363MOL0     C49963   1.053   1.496   4.825 -0.5447 -0.0737  0.0690
  363MOL0     O49964   0.994   1.517   4.702  0.3355 -0.1861 -0.2898
  363MOL0     C49965   1.062   1.610   4.617  0.2897 -0.0864 -0.4148
  363MOL0     C49966   0.983   1.609   4.488  0.0317  0.3100  0.3276
  363MOL0     C49967   1.027   1.707   4.377  0.2537 -0.0171  0.3584
  363MOL0     C49968   1.155   1.664   4.305 -0.5182 -0.1151  0.1036
  363MOL0     C49969   1.128   1.556   4.197 -0.0183 -0.1251  0.2874
  363MOL0     C49970   1.267   1.499   4.157 -1.0735  0.4329  0.4357
  363MOL0     C49971   1.348   1.591   4.068  0.0590 -0.3105  0.4769
  363MOL0     C49972   1.415   1.705   4.144 -0.1054  0.0737 -0.4364
  363MOL0     N49973   1.550   1.723   4.094 -0.7173  0.2061 -0.0396
  363MOL0     C49974   1.578   1.817   4.000  0.3715  0.4665  0.1071
  363MOL0     C49975   1.713   1.822   3.991 -0.1477  0.0974 -0.1855
  363MOL0     C49976   1.800   1.899   3.902 -0.3291 -0.1887  0.7061
  363MOL0     C49977   1.891   1.812   3.823 -0.6268  0.0530  0.4530
  363MOL0     C49978   2.041   1.857   3.812  0.8965  1.0135 -0.5804
  363MOL0     C49979   2.097   1.895   3.953  0.3360  0.7947  0.0337
  363MOL0     O49980   2.240   1.889   3.941 -1.1314 -0.4552 -0.2110
  363MOL0     C49981   2.314   1.893   4.055 -0.0248 -0.4163 -0.4209
  363MOL0     C49982   2.264   1.890   4.188  0.5906  0.4599 -0.1710
  363MOL0     C49983   2.347   1.895   4.298 -0.5478 -1.2986 -0.1094
  363MOL0     C49984   2.272   1.876   4.426  0.0253 -0.9845  0.1426
  363MOL0     C49985   2.490   1.902   4.281  0.8231 -0.3504 -0.4110
  363MOL0     C49986   2.588   1.921   4.388  0.1127  0.9838 -1.0568
  363MOL0     O49987   2.722   1.949   4.357  0.1445  0.2389  0.4911
  363MOL0     C49988   2.826   1.901   4.429  0.9463 -0.1279  0.4675
  363MOL0     C49989   2.838   1.923   4.565 -0.5296 -0.0484 -0.7009
  363MOL0     C49990   2.952   1.874   4.626 -1.0035 -0.2536 -0.1561
  363MOL0     C49991   3.050   1.796   4.566 -0.6647 -0.0816  0.1423
  363MOL0     O49992   3.158   1.728   4.623  0.4241  0.2243 -0.2213
  363MOL0     C49993   3.210   1.790   4.740  0.2129  0.7744  0.7280
  363MOL0     C49994   3.332   1.714   4.766 -0.7321 -0.0192 -0.1573
  363MOL0     C49995   3.453   1.780   4.680  1.0120 -0.1598 -0.4480
  363MOL0     C49996   3.581   1.710   4.729 -0.4773 -1.0787  0.0565
  363MOL0     C49997   3.631   1.760   4.869  0.4696 -0.0485 -0.0327
  363MOL0     C49998   3.765   1.686   4.888 -0.0329  0.2010 -0.6620
  363MOL0     C49999   3.812   1.687   5.037 -0.6523 -0.5015 -0.7017
  363MOL0     C50000   3.963   1.699   5.053  0.2473 -0.2476  0.1930
  363MOL0    Cl50001   4.041   1.538   5.042 -0.1819 -0.0268 -0.0162
  363MOL0     C50002   3.036   1.778   4.427  0.2943  0.6583  0.5516
  363MOL0     C50003   2.919   1.828   4.358 -0.0026  0.3756 -0.1644
  363MOL0     O50004   2.551   1.893   4.498 -0.5822  0.0012  0.3303
  363MOL0     C50005   2.531   1.901   4.152 -0.9670 -0.0839  0.2145
  363MOL0     C50006   2.445   1.891   4.046 -1.1538  0.0731 -0.1248
  363MOL0     N50007   1.762   1.729   4.084 -0.0984 -0.1633  0.1041
  363MOL0     N50008   1.664   1.679   4.149  1.0280  1.2742  1.2358
  363MOL0     C50009   1.176   1.548   4.868 -0.3507  0.5068 -0.9014
  363MOL0     C50010   1.218   1.528   4.996  0.5893 -0.5720 -0.4050
  363MOL0     C50011   1.269   1.527   5.405 -0.3366 -0.1187  0.0539
  363MOL0     C50012   1.258   1.398   5.467  0.0804  0.2918  0.2837
  363MOL0     C50013   1.302   1.387   5.600 -0.4003 -0.6698 -0.5674
  363MOL0     C50014   1.372   1.490   5.669  0.6164 -0.2864  0.7195
  363MOL0     O50015   1.427   1.480   5.792  0.3625  0.9784  0.0321
  363MOL0     C50016   1.416   1.353   5.876  0.7821 -0.6168  0.6463
  363MOL0     C50017   1.493   1.380   6.000 -0.3855  0.5198 -0.0367
  363MOL0     C50018   1.438   1.317   6.126  0.3357 -0.3441 -0.5725
  363MOL0     C50019   1.444   1.163   6.142 -0.2437  0.5254  0.1182
  363MOL0     C50020   1.376   1.083   6.027  0.0955 -0.6879  0.6130
  363MOL0     C50021   1.307   1.033   5.942  0.5613  0.2968 -0.4150
  363MOL0     C50022   1.378   1.610   5.608 -0.0302 -0.2146  0.4944
  363MOL0     C50023   1.331   1.637   5.476  0.4759 -0.2146 -0.1040
  363MOL0     C50024   1.371   1.767   5.414  0.2062 -0.2763 -0.3635
  363MOL0     H50025   0.987   1.336   5.117  0.2378 -1.9789 -0.3857
  363MOL0     H50026   0.907   1.357   4.862  1.5844  1.0726 -2.2992
  363MOL0     H50027   1.168   1.587   4.599 -0.1103 -4.0611  1.2172
  363MOL0     H50028   1.047   1.710   4.658 -0.9261 -0.4985  0.2105
  363MOL0     H50029   0.984   1.510   4.442 -0.7963  0.5289 -0.1708
  363MOL0     H50030   0.878   1.631   4.511  0.0005 -0.0103  0.5074
  363MOL0     H50031   0.945   1.717   4.305 -0.9669 -0.8900  1.5856
  363MOL0     H50032   1.058   1.801   4.423 -0.6197  2.2106 -3.2320
  363MOL0     H50033   1.198   1.756   4.266  0.5615  0.5045  2.5685
  363MOL0     H50034   1.227   1.622   4.376 -0.7755  0.3495  0.6447
  363MOL0     H50035   1.081   1.606   4.112  0.6566  1.4045  0.7699
  363MOL0     H50036   1.065   1.476   4.235 -0.7193  0.0722 -0.4289
  363MOL0     H50037   1.324   1.469   4.245  1.1325  3.0503  0.0145
  363MOL0     H50038   1.241   1.413   4.095  1.1800 -1.2418  1.6507
  363MOL0     H50039   1.287   1.632   3.987 -0.6885 -1.6104  0.3522
  363MOL0     H50040   1.423   1.525   4.024  0.1752 -1.0092  1.6730
  363MOL0     H50041   1.359   1.799   4.147  0.5517  0.5038 -1.2830
  363MOL0     H50042   1.417   1.680   4.251 -0.8736  0.4468 -0.3251
  363MOL0     H50043   1.496   1.862   3.945 -0.2071 -1.6092 -0.8219
  363MOL0     H50044   1.863   1.952   3.974  0.5996  1.2159 -1.0607
  363MOL0     H50045   1.746   1.973   3.843  1.2969 -0.0400 -0.6705
  363MOL0     H50046   1.894   1.706   3.849 -0.0669 -0.3927 -1.2481
  363MOL0     H50047   1.844   1.813   3.724 -1.4025  2.7322  0.7875
  363MOL0     H50048   2.097   1.773   3.771  1.4578  1.6024 -1.0463
  363MOL0     H50049   2.058   1.935   3.737  1.7336 -0.6287 -2.1645
  363MOL0     H50050   2.066   1.996   3.982  2.9057  1.6376  0.1017
  363MOL0     H50051   2.061   1.830   4.033 -1.0659  0.4384 -0.8544
  363MOL0     H50052   2.158   1.873   4.204  0.9443 -0.3608  1.6838
  363MOL0     H50053   2.200   1.796   4.408 -0.6408  0.0309 -2.0555
  363MOL0     H50054   2.213   1.967   4.441 -0.6472 -1.5455  1.0618
  363MOL0     H50055   2.332   1.850   4.513  0.2985 -0.1647  0.2048
  363MOL0     H50056   2.759   1.970   4.623  1.0901 -0.5704  2.0532
  363MOL0     H50057   2.966   1.881   4.734  2.1042 -3.0612 -0.2203
  363MOL0     H50058   3.228   1.897   4.724  2.1588  0.1629 -1.9826
  363MOL0     H50059   3.136   1.781   4.820  1.1510  1.5943  1.7230
  363MOL0     H50060   3.359   1.714   4.872  1.3099 -0.8844 -0.6257
  363MOL0     H50061   3.309   1.609   4.742 -2.0168  0.4602 -1.1371
  363MOL0     H50062   3.460   1.888   4.698 -1.1097 -0.0885  0.2197
  363MOL0     H50063   3.433   1.763   4.574 -1.1603 -1.0186  0.0527
  363MOL0     H50064   3.652   1.739   4.652 -1.0227 -0.9888 -0.4252
  363MOL0     H50065   3.582   1.601   4.719  1.0258 -0.9956 -0.9151
  363MOL0     H50066   3.656   1.866   4.861  2.0743 -0.4952 -1.5620
  363MOL0     H50067   3.560   1.737   4.949 -0.6174 -1.6581 -1.3974
  363MOL0     H50068   3.844   1.727   4.824 -0.0365  1.4682  0.1266
  363MOL0     H50069   3.743   1.580   4.873 -0.7177 -0.1733  2.4802
  363MOL0     H50070   3.779   1.600   5.095  0.5279  0.0057  0.7933
  363MOL0     H50071   3.763   1.771   5.087  0.2370 -1.2043  1.4707
  363MOL0     H50072   3.967   1.721   5.160  3.2909  0.5012  0.0262
  363MOL0     H50073   4.013   1.777   4.994  0.4972 -0.7240 -0.2382
  363MOL0     H50074   3.100   1.708   4.375 -1.0519  0.0088 -0.2815
  363MOL0     H50075   2.895   1.808   4.254  0.9222 -0.7915 -0.1667
  363MOL0     H50076   2.635   1.906   4.121 -1.2252 -1.7476 -1.0183
  363MOL0     H50077   2.476   1.876   3.943 -2.1602 -1.3915 -0.2299
  363MOL0     H50078   1.244   1.608   4.808  1.0638  0.3847  0.5135
  363MOL0     H50079   1.307   1.583   5.026  0.4476 -1.1937  1.2940
  363MOL0     H50080   1.201   1.322   5.415 -0.1447  1.6430 -1.5490
  363MOL0     H50081   1.276   1.289   5.637 -1.7584 -0.7905 -1.7646
  363MOL0     H50082   1.313   1.332   5.905 -0.0404 -0.0023 -1.5892
  363MOL0     H50083   1.445   1.258   5.830 -3.4892 -1.5762 -0.4863
  363MOL0     H50084   1.508   1.485   6.028  0.5794  0.3614  0.1066
  363MOL0     H50085   1.596   1.346   5.985  0.2586  2.6073 -0.8127
  363MOL0     H50086   1.491   1.367   6.208 -0.4182  0.8065 -0.7609
  363MOL0     H50087   1.332   1.344   6.127  0.4695  0.1937  0.2359
  363MOL0     H50088   1.394   1.134   6.235 -0.3820 -1.4943 -0.5498
  363MOL0     H50089   1.548   1.131   6.141 -0.4905 -0.3207  0.4669
  363MOL0     H50090   1.255   0.979   5.865  0.4475 -0.2280  0.0205
  363MOL0     H50091   1.431   1.678   5.673 -1.7200  3.1641 -1.3977
  363MOL0     H50092   1.288   1.838   5.409  1.0891  0.8502  0.3046
  363MOL0     H50093   1.451   1.813   5.473 -1.8172  3.6093 -0.2680
  363MOL0     H50094   1.407   1.761   5.311  1.4317  3.6902 -0.3324
  364MOL0     O50095   8.106   4.428   7.400  0.5883 -0.3949 -0.5908
  364MOL0     C50096   8.079   4.366   7.300  0.8233  0.9782  0.3475
  364MOL0     O50097   8.150   4.373   7.190 -0.6546 -0.8062  0.0658
  364MOL0     C50098   8.271   4.442   7.192  0.3558  0.4227 -0.2718
  364MOL0     C50099   8.367   4.417   7.289 -0.6206 -0.1152 -1.1072
  364MOL0     C50100   8.489   4.489   7.304 -0.2812  0.4982  0.8809
  364MOL0     C50101   8.516   4.580   7.198  0.0261  0.4889  0.4868
  364MOL0     O50102   8.638   4.641   7.207 -0.0327  0.2765 -0.0882
  364MOL0     C50103   8.660   4.736   7.106 -0.7546  0.2975  0.2997
  364MOL0     C50104   8.781   4.822   7.142  1.1515 -0.9136  0.4793
  364MOL0     C50105   8.898   4.731   7.144  0.0414  0.0480 -0.5266
  364MOL0     C50106   9.022   4.806   7.174 -0.6593 -0.3186  0.2846
  364MOL0     C50107   9.130   4.708   7.219 -0.0728 -0.4952 -0.2408
  364MOL0     C50108   9.269   4.767   7.202 -0.3566  0.3556 -0.5151
  364MOL0     C50109   9.373   4.673   7.263  0.7890 -0.2683  0.8754
  364MOL0     C50110   9.510   4.746   7.237 -0.2092  0.2138 -0.3645
  364MOL0     N50111   9.627   4.665   7.287  0.1258 -0.6725 -0.5981
  364MOL0     C50112   9.726   4.615   7.203  0.3904 -0.3442 -0.3043
  364MOL0     C50113   9.810   4.561   7.290  0.2590 -0.4895 -0.5284
  364MOL0     C50114   9.934   4.479   7.247  0.4044 -0.0133 -0.0401
  364MOL0     C50115  10.069   4.555   7.246  0.3166 -1.0111 -0.3885
  364MOL0     C50116  10.185   4.460   7.265  0.7949  0.0774  0.0475
  364MOL0     C50117  10.326   4.521   7.277 -0.2561 -0.1974 -0.2750
  364MOL0     O50118  10.384   4.566   7.153 -0.3079 -0.2494  0.5746
  364MOL0     C50119  10.512   4.621   7.158 -0.3128  0.2675 -0.7323
  364MOL0     C50120  10.550   4.711   7.256 -0.4303 -0.3405 -0.7019
  364MOL0     C50121  10.681   4.759   7.265 -0.7460 -0.2670 -0.1595
  364MOL0     C50122  10.727   4.852   7.386 -0.4837 -0.3981  0.0977
  364MOL0     C50123  10.779   4.715   7.160 -0.8206  0.2505  0.4501
  364MOL0     C50124  10.929   4.751   7.157 -0.1158 -0.8005  0.8736
  364MOL0     O50125  11.006   4.694   7.061 -1.0991  0.2878 -0.0084
  364MOL0     C50126  11.137   4.695   7.089 -0.2041 -0.2878  0.2211
  364MOL0     C50127  11.221   4.796   7.042 -0.1713 -0.1632  0.1431
  364MOL0     C50128  11.358   4.796   7.059 -0.8710 -0.4518 -0.3814
  364MOL0     C50129  11.426   4.691   7.121  0.0259  0.0898  0.5175
  364MOL0     O50130  11.565   4.676   7.122  0.4466  0.3127 -0.2492
  364MOL0     C50131  11.659   4.770   7.058  0.7666  0.1763 -0.4490
  364MOL0     C50132  11.800   4.717   7.082 -0.2180 -0.8076  0.4682
  364MOL0     C50133  11.844   4.592   7.008  0.2773 -0.1804  0.5480
  364MOL0     C50134  11.988   4.555   7.048  0.0056  0.8440 -0.4040
  364MOL0     C50135  12.039   4.419   7.008  0.6784  0.9079  0.5958
  364MOL0     C50136  12.190   4.403   7.005 -0.2684  0.3103  0.1626
  364MOL0     C50137  12.237   4.267   6.947 -0.4834  0.3092 -0.0456
  364MOL0     C50138  12.195   4.148   7.037  0.0872  0.2334  1.0977
  364MOL0    Cl50139  12.309   4.143   7.177  0.2492 -0.0458  0.0439
  364MOL0     C50140  11.343   4.591   7.175 -0.2392  0.5718 -0.6612
  364MOL0     C50141  11.205   4.594   7.160  0.4818  0.3493  0.4122
  364MOL0     O50142  10.972   4.833   7.239  0.0668 -0.4275 -0.8992
  364MOL0     C50143  10.736   4.629   7.055 -0.0904 -0.0645 -0.3196
  364MOL0     C50144  10.602   4.588   7.058 -0.6671  0.6778 -0.9824
  364MOL0     N50145   9.780   4.580   7.423  0.2316 -0.5709  0.3464
  364MOL0     N50146   9.673   4.656   7.412 -0.0043  0.2771 -0.4831
  364MOL0     C50147   8.426   4.595   7.091 -0.8079 -0.2540 -0.3104
  364MOL0     C50148   8.302   4.528   7.087 -0.8425  0.8791  0.7108
  364MOL0     C50149   7.945   4.311   7.294  0.1696 -0.2533  0.4593
  364MOL0     C50150   7.861   4.355   7.193  0.1633  0.5569 -0.1583
  364MOL0     C50151   7.735   4.292   7.175  0.3330 -0.3990  0.1215
  364MOL0     C50152   7.693   4.199   7.267  0.0235  0.1467  0.6590
  364MOL0     O50153   7.567   4.142   7.248 -0.2491  0.6648  0.0708
  364MOL0     C50154   7.500   4.080   7.360 -0.3368 -0.2122 -0.0004
  364MOL0     C50155   7.356   4.101   7.342  0.3179 -0.9453 -0.0417
  364MOL0     C50156   7.329   4.244   7.400  0.8498  0.0743 -0.1774
  364MOL0     C50157   7.173   4.240   7.437  0.4105  0.4388  0.9660
  364MOL0     C50158   7.122   4.365   7.486 -0.0855  0.4116  0.1220
  364MOL0     C50159   7.063   4.463   7.524 -0.0390  0.4214 -0.4417
  364MOL0     C50160   7.776   4.161   7.370 -0.5225  0.3657  0.7640
  364MOL0     C50161   7.901   4.217   7.391  0.3671 -1.1971 -0.4320
  364MOL0     C50162   7.973   4.167   7.512  0.2301  0.1563  0.3848
  364MOL0     H50163   8.343   4.342   7.363 -0.5090 -0.1783 -1.1343
  364MOL0     H50164   8.565   4.478   7.381  1.9098 -3.8554 -1.4998
  364MOL0     H50165   8.577   4.807   7.106 -0.7369  0.4323 -2.5953
  364MOL0     H50166   8.669   4.691   7.007 -0.8497 -1.6918  1.1507
  364MOL0     H50167   8.792   4.904   7.070 -0.5855  0.1428  1.3443
  364MOL0     H50168   8.757   4.877   7.234  1.7630  2.2121 -1.0819
  364MOL0     H50169   8.885   4.675   7.237 -2.2822  1.4358  0.0692
  364MOL0     H50170   8.915   4.668   7.057  2.7085  0.3244 -0.2938
  364MOL0     H50171   9.057   4.863   7.088 -1.8453  0.9274  0.6040
  364MOL0     H50172   9.009   4.882   7.251 -1.7166  3.7171 -3.5262
  364MOL0     H50173   9.124   4.621   7.152  1.8499 -2.0527  1.4562
  364MOL0     H50174   9.121   4.679   7.325 -0.7390 -0.3126 -0.2445
  364MOL0     H50175   9.299   4.778   7.097  1.6948  0.8742  0.0870
  364MOL0     H50176   9.270   4.864   7.253 -1.3743  1.5521 -2.6283
  364MOL0     H50177   9.358   4.575   7.217 -4.3986  1.5006 -2.0161
  364MOL0     H50178   9.365   4.657   7.371 -3.1542  1.8575  1.0811
  364MOL0     H50179   9.524   4.773   7.131  3.4791  3.1698  0.6518
  364MOL0     H50180   9.522   4.838   7.295  2.1374 -1.9053  2.8284
  364MOL0     H50181   9.730   4.609   7.095  1.9158  1.5519 -0.4083
  364MOL0     H50182   9.914   4.436   7.148  1.2819  0.4364 -0.4223
  364MOL0     H50183   9.935   4.400   7.322 -1.1046 -0.1254 -0.0900
  364MOL0     H50184  10.075   4.609   7.151 -0.1384 -1.6933 -0.8090
  364MOL0     H50185  10.073   4.630   7.326 -2.3945 -1.2056  0.0147
  364MOL0     H50186  10.160   4.394   7.348 -2.5140  1.8587  0.6513
  364MOL0     H50187  10.190   4.402   7.172 -0.8603 -0.4379  0.2583
  364MOL0     H50188  10.327   4.600   7.352 -0.0035  1.9428 -2.4026
  364MOL0     H50189  10.382   4.430   7.300  0.3018  0.3625  0.5840
  364MOL0     H50190  10.483   4.747   7.334 -1.0160  0.8179 -1.7078
  364MOL0     H50191  10.795   4.785   7.441  0.4602  0.5946  0.1614
  364MOL0     H50192  10.648   4.898   7.445  1.2889  1.1108  1.4078
  364MOL0     H50193  10.783   4.934   7.341  0.1277  0.6708  2.6726
  364MOL0     H50194  11.169   4.884   7.005 -4.2881 -3.0101 -1.5055
  364MOL0     H50195  11.411   4.881   7.016 -0.1846  0.0287  1.2933
  364MOL0     H50196  11.628   4.782   6.954 -2.3725  1.6632  0.5432
  364MOL0     H50197  11.650   4.866   7.109  1.6965 -0.6849  1.4158
  364MOL0     H50198  11.864   4.805   7.066 -0.2183 -0.1687  3.4424
  364MOL0     H50199  11.813   4.708   7.190 -0.9017  1.5316  0.7964
  364MOL0     H50200  11.842   4.614   6.901  1.6705  1.8756  0.8851
  364MOL0     H50201  11.777   4.509   7.032 -2.8922  1.8319 -0.7641
  364MOL0     H50202  12.013   4.573   7.152 -1.1879  0.4834 -0.0397
  364MOL0     H50203  12.044   4.627   6.987  1.2832 -0.2514 -0.5727
  364MOL0     H50204  11.997   4.350   7.081  0.2102  0.4089 -0.1401
  364MOL0     H50205  11.999   4.393   6.910  2.1282 -1.2435  0.5030
  364MOL0     H50206  12.222   4.404   7.110 -4.7104  0.5705  1.7269
  364MOL0     H50207  12.245   4.475   6.944  1.6109 -2.2056 -1.3178
  364MOL0     H50208  12.346   4.273   6.938 -0.5337  3.7954  0.5256
  364MOL0     H50209  12.194   4.269   6.846 -2.7410 -0.9450  0.7958
  364MOL0     H50210  12.192   4.062   6.970  0.4004  1.2001 -0.2124
  364MOL0     H50211  12.091   4.148   7.071 -0.4342 -0.8686 -0.3781
  364MOL0     H50212  11.385   4.511   7.234 -1.6476 -0.5915 -1.1691
  364MOL0     H50213  11.151   4.512   7.208  2.5191 -2.3725 -1.6750
  364MOL0     H50214  10.803   4.592   6.979  0.1353  0.7368 -0.5198
  364MOL0     H50215  10.562   4.515   6.988 -3.6883 -0.4113  1.6153
  364MOL0     H50216   8.455   4.663   7.011  0.2039  1.9989  1.8765
  364MOL0     H50217   8.238   4.536   7.000  0.5332  1.0152 -0.3267
  364MOL0     H50218   7.901   4.419   7.115  2.5411 -2.8385 -2.0013
  364MOL0     H50219   7.671   4.314   7.090 -3.5481 -0.1724  2.8025
  364MOL0     H50220   7.524   3.973   7.366  2.7200  0.4038  0.6333
  364MOL0     H50221   7.536   4.119   7.456 -0.8697 -0.6579  0.3833
  364MOL0     H50222   7.300   4.023   7.395 -0.2602  0.3379  1.3015
  364MOL0     H50223   7.329   4.106   7.236 -5.2755 -0.8075  1.0853
  364MOL0     H50224   7.379   4.269   7.494  0.4068  1.2426 -0.2361
  364MOL0     H50225   7.350   4.316   7.320  3.6776  1.3290  1.5565
  364MOL0     H50226   7.165   4.168   7.518  1.3469  0.3765  1.0172
  364MOL0     H50227   7.113   4.211   7.351  1.3996  0.8645  0.1005
  364MOL0     H50228   7.010   4.545   7.568 -3.0375 -1.8221  0.4413
  364MOL0     H50229   7.747   4.090   7.447  3.2690 -0.7210  1.3661
  364MOL0     H50230   8.073   4.136   7.482 -0.2160 -0.9682  0.0133
  364MOL0     H50231   7.986   4.250   7.582 -2.2128  1.3464 -0.4622
  364MOL0     H50232   7.920   4.084   7.558  0.4625 -0.2218 -0.0232
  365MOL0     O50233   8.971   9.645  11.256 -0.5840 -0.4256  0.0343
  365MOL0     C50234   8.865   9.594  11.283  0.2551  0.0497 -0.4218
  365MOL0     O50235   8.774   9.630  11.388 -0.1157  0.1818 -0.2380
  365MOL0     C50236   8.801   9.746  11.452  0.4828 -0.6786 -0.2981
  365MOL0     C50237   8.768   9.743  11.585  0.1776 -0.1363 -0.4239
  365MOL0     C50238   8.775   9.855  11.671  0.9212 -0.1989 -0.0500
  365MOL0     C50239   8.823   9.975  11.621  0.6958 -0.5858 -0.3431
  365MOL0     O50240   8.854  10.077  11.697 -0.0893 -0.8772  0.4698
  365MOL0     C50241   8.786  10.100  11.817  0.5508  0.0012  0.3000
  365MOL0     C50242   8.745  10.248  11.841  0.1007 -0.4014 -0.1451
  365MOL0     C50243   8.864  10.343  11.852 -0.3643 -0.1019 -0.7518
  365MOL0     C50244   8.950  10.326  11.983 -0.0241 -0.4454  0.3754
  365MOL0     C50245   9.059  10.428  11.989  0.1936  0.0689  0.7930
  365MOL0     C50246   9.136  10.423  12.119 -0.4197 -0.0435  0.4539
  365MOL0     C50247   9.243  10.535  12.128  0.6024  0.0805  0.2657
  365MOL0     C50248   9.340  10.514  12.243 -0.8700  0.0851  0.4409
  365MOL0     N50249   9.453  10.605  12.228  0.3013 -0.3067 -0.8571
  365MOL0     C50250   9.460  10.738  12.276  0.5573  0.0666 -0.4248
  365MOL0     C50251   9.576  10.784  12.219  0.3882 -0.0508  0.3212
  365MOL0     C50252   9.631  10.916  12.216 -0.1934 -0.5033 -1.0404
  365MOL0     C50253   9.635  10.998  12.087 -0.6133  0.7262  0.5210
  365MOL0     C50254   9.494  11.055  12.059  0.2849 -0.2794  0.0471
  365MOL0     C50255   9.507  11.193  11.983 -0.2635  0.0763 -0.1024
  365MOL0     O50256   9.383  11.219  11.918  0.1608  0.3241 -0.4226
  365MOL0     C50257   9.359  11.151  11.798 -1.0665 -0.5821 -0.8280
  365MOL0     C50258   9.229  11.165  11.737 -0.1717 -0.0642  0.5588
  365MOL0     C50259   9.200  11.098  11.614 -0.5568  0.5064  0.3595
  365MOL0     C50260   9.070  11.127  11.550  0.1155  0.9277 -0.7526
  365MOL0     C50261   9.288  11.004  11.561  0.4770  0.2423  0.2582
  365MOL0     C50262   9.265  10.931  11.431 -0.6535 -0.7068 -0.6759
  365MOL0     O50263   9.340  10.827  11.402  0.0469 -0.0874 -0.2289
  365MOL0     C50264   9.341  10.798  11.271  0.0020  0.1613 -0.3400
  365MOL0     C50265   9.455  10.835  11.201 -0.0138 -0.0936 -0.1488
  365MOL0     C50266   9.488  10.788  11.081  0.0847  0.0194  0.0823
  365MOL0     C50267   9.395  10.700  11.023 -0.0064 -0.1772 -0.2106
  365MOL0     O50268   9.429  10.670  10.896 -0.0660 -0.0755  0.8582
  365MOL0     C50269   9.368  10.559  10.827 -0.0421 -0.4605 -0.7109
  365MOL0     C50270   9.235  10.602  10.758  0.1964  0.3419 -0.2556
  365MOL0     C50271   9.265  10.686  10.629 -0.4985  0.5358  0.0443
  365MOL0     C50272   9.325  10.593  10.512  0.1349  0.5600 -0.7048
  365MOL0     C50273   9.324  10.673  10.381 -0.1298 -0.9905 -0.1973
  365MOL0     C50274   9.391  10.601  10.270  0.2688 -0.3406 -0.1199
  365MOL0     C50275   9.352  10.665  10.134  0.4101  0.0035  0.1419
  365MOL0     C50276   9.421  10.602  10.013  0.3755  0.1608  0.2939
  365MOL0    Cl50277   9.406  10.426  10.015 -0.2167  0.0715 -0.4098
  365MOL0     C50278   9.282  10.649  11.096  0.0217 -0.4451 -0.4302
  365MOL0     C50279   9.253  10.704  11.217 -1.0062  0.7974  0.0298
  365MOL0     O50280   9.192  10.987  11.348 -0.6737  0.0443 -0.2993
  365MOL0     C50281   9.411  10.985  11.629 -0.0359 -0.7523  0.4087
  365MOL0     C50282   9.446  11.055  11.749 -0.8000 -0.6067 -0.5220
  365MOL0     N50283   9.642  10.683  12.156 -0.0079  0.1008 -0.9128
  365MOL0     N50284   9.568  10.580  12.158 -0.3281  0.0236  0.7398
  365MOL0     C50285   8.858   9.984  11.492  0.3946 -0.1326  0.4076
  365MOL0     C50286   8.857   9.867  11.407  0.2939 -0.1966 -0.0881
  365MOL0     C50287   8.830   9.468  11.204  0.5975 -0.4192  0.1278
  365MOL0     C50288   8.758   9.368  11.276  0.2310  0.6147 -0.4239
  365MOL0     C50289   8.712   9.253  11.212  0.5576 -0.2199 -0.2414
  365MOL0     C50290   8.731   9.236  11.075  0.5028 -0.2297 -0.3181
  365MOL0     O50291   8.690   9.120  11.012  0.4974  0.5277 -0.2847
  365MOL0     C50292   8.774   9.046  10.926 -0.0301  0.2507 -0.0690
  365MOL0     C50293   8.698   8.919  10.890  0.3375 -0.6855 -0.1540
  365MOL0     C50294   8.786   8.797  10.852  0.2878 -0.8305 -0.3436
  365MOL0     C50295   8.706   8.670  10.838 -0.7743 -0.0458  0.9718
  365MOL0     C50296   8.784   8.564  10.778  0.1827  0.9225  0.0996
  365MOL0     C50297   8.856   8.480  10.727 -0.1028  0.2014 -0.6209
  365MOL0     C50298   8.801   9.332  11.007 -0.0585  0.2385  1.2404
  365MOL0     C50299   8.852   9.447  11.071 -0.1087  0.3101 -0.4757
  365MOL0     C50300   8.936   9.549  10.985  0.3718  0.9004  0.0566
  365MOL0     H50301   8.742   9.644  11.620  2.6619 -1.2706 -1.5500
  365MOL0     H50302   8.743   9.850  11.774 -3.9530  0.0965 -1.3074
  365MOL0     H50303   8.848  10.068  11.901  0.6681  0.4223  0.3767
  365MOL0     H50304   8.688  10.052  11.813 -0.7697  2.5488 -0.0058
  365MOL0     H50305   8.687  10.275  11.752  0.1014  2.1504  0.5495
  365MOL0     H50306   8.682  10.256  11.930 -1.5033  1.0052 -1.3428
  365MOL0     H50307   8.924  10.331  11.761  0.3763  0.8158 -0.3991
  365MOL0     H50308   8.830  10.447  11.850 -1.1337 -0.3328 -0.0260
  365MOL0     H50309   8.883  10.336  12.069 -0.4044 -1.8029  0.2602
  365MOL0     H50310   8.989  10.225  11.999 -1.8190 -1.0676  1.0399
  365MOL0     H50311   9.009  10.525  11.984  1.0105  0.6741  3.0779
  365MOL0     H50312   9.126  10.418  11.903 -0.6446 -2.7003  0.3680
  365MOL0     H50313   9.067  10.442  12.202  0.7018  0.7986  1.2207
  365MOL0     H50314   9.189  10.329  12.135 -3.2727 -1.5720  1.6803
  365MOL0     H50315   9.195  10.627  12.162 -0.7533 -1.3292  2.4043
  365MOL0     H50316   9.297  10.552  12.035  0.6144  0.9170  0.4191
  365MOL0     H50317   9.299  10.531  12.343 -0.3143 -1.8319  1.0324
  365MOL0     H50318   9.388  10.418  12.221  1.9382  1.4424  0.1966
  365MOL0     H50319   9.383  10.784  12.337  1.5580 -1.7054  2.4143
  365MOL0     H50320   9.733  10.916  12.257 -0.5182 -1.4595 -0.1751
  365MOL0     H50321   9.569  10.981  12.279 -1.3514  0.6758 -3.3055
  365MOL0     H50322   9.699  11.085  12.106 -0.4114  1.3151 -2.4292
  365MOL0     H50323   9.682  10.953  11.999  1.3251  0.9672  1.3763
  365MOL0     H50324   9.429  10.983  12.008 -2.3451 -0.5753  3.4390
  365MOL0     H50325   9.445  11.080  12.153  2.8422 -2.5039  2.1209
  365MOL0     H50326   9.517  11.271  12.059 -3.6301 -1.2236  1.9039
  365MOL0     H50327   9.592  11.188  11.915 -1.9523 -1.1645 -2.2355
  365MOL0     H50328   9.163  11.242  11.777  0.0919  0.4008  0.1139
  365MOL0     H50329   9.001  11.177  11.619  0.7425  1.6209 -0.6160
  365MOL0     H50330   9.019  11.035  11.520  1.2397  0.7890 -2.3246
  365MOL0     H50331   9.101  11.198  11.473  3.8280 -0.4098 -0.6941
  365MOL0     H50332   9.530  10.902  11.242  1.3712 -1.9375  0.4208
  365MOL0     H50333   9.575  10.827  11.029  1.6474 -0.8786  1.9136
  365MOL0     H50334   9.442  10.527  10.753 -0.7116 -0.5212 -1.3590
  365MOL0     H50335   9.346  10.476  10.895 -1.6854 -0.2688 -0.9776
  365MOL0     H50336   9.185  10.509  10.729 -0.0769 -0.2442  1.9053
  365MOL0     H50337   9.180  10.663  10.830 -1.8499 -2.2547  0.5479
  365MOL0     H50338   9.346  10.754  10.656  2.9319 -2.9498 -0.5725
  365MOL0     H50339   9.172  10.737  10.601  0.1656  2.2157  0.7766
  365MOL0     H50340   9.261  10.507  10.490 -2.7287  2.5635 -0.7145
  365MOL0     H50341   9.424  10.555  10.537  1.0818  1.7339 -2.4373
  365MOL0     H50342   9.223  10.700  10.349 -0.0731 -1.8871 -1.1734
  365MOL0     H50343   9.370  10.771  10.393  2.3809 -2.2741  1.3634
  365MOL0     H50344   9.356  10.497  10.269 -0.6861 -0.0984  2.2722
  365MOL0     H50345   9.500  10.600  10.283 -0.0376 -1.8510  3.5698
  365MOL0     H50346   9.374  10.772  10.129  0.7706 -0.1036 -0.6436
  365MOL0     H50347   9.243  10.657  10.128  0.1457  2.3518  0.6564
  365MOL0     H50348   9.526  10.629  10.002  0.7183 -1.5301 -0.8026
  365MOL0     H50349   9.381  10.647   9.921  0.8638 -1.0949 -0.5541
  365MOL0     H50350   9.207  10.588  11.045 -2.4329  3.2649 -1.6382
  365MOL0     H50351   9.161  10.670  11.265 -0.6794  1.5891  1.2456
  365MOL0     H50352   9.477  10.912  11.584  0.3590 -1.0104  1.3935
  365MOL0     H50353   9.546  11.031  11.782 -0.1331  0.5523 -1.6140
  365MOL0     H50354   8.893  10.081  11.458  1.5038 -0.3196  0.9937
  365MOL0     H50355   8.887   9.866  11.302 -0.4171  0.7488 -0.3061
  365MOL0     H50356   8.740   9.374  11.383  0.4811 -0.9279 -0.2718
  365MOL0     H50357   8.666   9.174  11.270 -2.6680 -0.7490 -3.2346
  365MOL0     H50358   8.810   9.094  10.835  0.5823  0.2145  0.1464
  365MOL0     H50359   8.864   9.021  10.985  0.3542 -0.8183 -1.0668
  365MOL0     H50360   8.629   8.953  10.812  2.3396  1.9977 -0.9216
  365MOL0     H50361   8.640   8.883  10.975 -0.1237 -0.1344 -0.2376
  365MOL0     H50362   8.836   8.819  10.757 -0.5050  0.8141 -0.4143
  365MOL0     H50363   8.866   8.782  10.924 -0.9747 -2.0080  0.8743
  365MOL0     H50364   8.621   8.695  10.775  0.3452 -1.8313 -1.4207
  365MOL0     H50365   8.682   8.630  10.938 -1.2938 -2.0256  0.1108
  365MOL0     H50366   8.921   8.409  10.680  1.4758  0.0316  1.6576
  365MOL0     H50367   8.807   9.310  10.901 -0.0746 -1.1691  1.5204
  365MOL0     H50368   8.923   9.540  10.876  1.6810  2.9254 -0.3256
  365MOL0     H50369   8.916   9.652  11.016 -1.5124  0.0624  1.8067
  365MOL0     H50370   9.044   9.536  10.998  0.6818  0.9538 -2.0017
  366MOL0     O50371   4.175   9.250   9.465 -0.0840  0.2523  1.1828
  366MOL0     C50372   4.183   9.154   9.390  0.2868  0.2549  0.1651
  366MOL0     O50373   4.296   9.118   9.315 -0.4067  0.2789  0.3144
  366MOL0     C50374   4.402   9.208   9.326  0.1679  0.6183 -0.4638
  366MOL0     C50375   4.439   9.282   9.215 -0.2869 -0.0214  0.1617
  366MOL0     C50376   4.559   9.358   9.220 -0.2990  0.4364 -0.0633
  366MOL0     C50377   4.639   9.361   9.340  0.5007 -0.3065 -0.0143
  366MOL0     O50378   4.756   9.437   9.344 -0.0355  0.0879 -0.3110
  366MOL0     C50379   4.804   9.515   9.230 -0.3175 -0.4583 -1.1012
  366MOL0     C50380   4.919   9.593   9.286  0.5399  0.8076  0.4596
  366MOL0     C50381   5.045   9.507   9.298  0.3333  0.5773  0.7770
  366MOL0     C50382   5.170   9.589   9.327  0.3253 -0.3071 -0.5972
  366MOL0     C50383   5.298   9.503   9.347 -0.4748 -0.0991  0.2764
  366MOL0     C50384   5.430   9.589   9.373  0.8260  0.4013 -0.0258
  366MOL0     C50385   5.454   9.684   9.254 -0.5472 -0.5852 -0.0399
  366MOL0     C50386   5.604   9.731   9.242  0.6421  0.1873 -0.5095
  366MOL0     N50387   5.644   9.834   9.341  0.0907  0.3026 -0.0946
  366MOL0     C50388   5.687   9.814   9.469  1.3028 -0.6282  0.1887
  366MOL0     C50389   5.730   9.940   9.511 -0.5650  0.1370 -0.4280
  366MOL0     C50390   5.809   9.969   9.646 -0.4895  0.6652  0.6301
  366MOL0     C50391   5.853   9.843   9.720 -0.9425 -0.0103 -1.0922
  366MOL0     C50392   5.890   9.876   9.860 -0.0459 -0.7114 -0.6888
  366MOL0     C50393   6.016   9.968   9.881 -0.5329 -0.7871 -0.2719
  366MOL0     O50394   6.135   9.894   9.907  0.1696 -0.2821  1.0553
  366MOL0     C50395   6.208   9.834   9.804 -0.2521 -0.5467  0.1860
  366MOL0     C50396   6.304   9.731   9.838  0.6585  0.6222 -0.3003
  366MOL0     C50397   6.370   9.648   9.744  0.5265 -0.8235 -0.0170
  366MOL0     C50398   6.470   9.552   9.803 -0.2860 -0.0752 -0.5510
  366MOL0     C50399   6.364   9.697   9.612 -0.8615  0.0159 -0.4984
  366MOL0     C50400   6.439   9.641   9.498  0.4991  0.7880  1.0698
  366MOL0     O50401   6.471   9.722   9.396 -0.0242 -0.6740  0.2395
  366MOL0     C50402   6.528   9.679   9.282  0.9893 -0.4752  0.5030
  366MOL0     C50403   6.669   9.650   9.285  0.4623  0.2422  0.6369
  366MOL0     C50404   6.740   9.611   9.174  0.2120  0.3478  0.6019
  366MOL0     C50405   6.673   9.598   9.043  0.3615 -0.3562 -1.2109
  366MOL0     O50406   6.717   9.531   8.936  0.2136 -0.1813 -0.4582
  366MOL0     C50407   6.785   9.410   8.964  0.0709  0.3632 -0.1022
  366MOL0     C50408   6.829   9.341   8.839 -0.1153 -0.1012 -0.4279
  366MOL0     C50409   6.948   9.434   8.783  1.4891 -0.0756 -0.0632
  366MOL0     C50410   7.007   9.355   8.665 -0.4831  0.3121 -0.0043
  366MOL0     C50411   7.158   9.370   8.652 -0.1135  0.3944 -0.5579
  366MOL0     C50412   7.194   9.506   8.603  0.3723 -0.0939 -0.5860
  366MOL0     C50413   7.352   9.530   8.605 -0.2188  0.0651  0.1572
  366MOL0     C50414   7.371   9.670   8.549 -0.7344  0.0937  0.6114
  366MOL0    Cl50415   7.554   9.696   8.543 -0.3302  0.1205 -0.1350
  366MOL0     C50416   6.536   9.649   9.037 -0.6035  0.4169 -0.2415
  366MOL0     C50417   6.467   9.684   9.157  0.6866  0.8151  0.3674
  366MOL0     O50418   6.470   9.521   9.507 -0.4352 -0.5997 -0.1156
  366MOL0     C50419   6.277   9.806   9.572  0.0919  0.8413 -0.7479
  366MOL0     C50420   6.199   9.868   9.670 -0.0350  0.1368 -0.2319
  366MOL0     N50421   5.704  10.034   9.418 -0.1588  0.2698 -0.4286
  366MOL0     N50422   5.657   9.967   9.319 -0.0609  0.1237  0.2090
  366MOL0     C50423   4.608   9.280   9.445 -0.3017  0.8920 -0.3164
  366MOL0     C50424   4.486   9.207   9.442 -0.0658  0.6261 -0.8672
  366MOL0     C50425   4.050   9.087   9.361 -0.1393 -0.7159  1.2041
  366MOL0     C50426   3.936   9.161   9.392  0.0493 -0.4934  0.5975
  366MOL0     C50427   3.815   9.110   9.342  0.4796  0.3410 -0.2807
  366MOL0     C50428   3.795   8.977   9.290 -0.0491 -0.5799  0.7815
  366MOL0     O50429   3.687   8.921   9.237  0.8997  0.3486  0.3829
  366MOL0     C50430   3.572   9.005   9.228  0.1697 -0.2058  0.7232
  366MOL0     C50431   3.461   8.935   9.164  0.6032 -0.6163  0.1059
  366MOL0     C50432   3.421   8.821   9.262  0.6046 -0.1171 -0.0972
  366MOL0     C50433   3.281   8.754   9.232 -0.3553 -0.6193 -0.6034
  366MOL0     C50434   3.287   8.662   9.118  0.1857 -0.3555 -0.3077
  366MOL0     C50435   3.283   8.583   9.028 -0.0289 -0.6031 -0.5858
  366MOL0     C50436   3.913   8.909   9.276  0.2023  0.8776  0.0203
  366MOL0     C50437   4.040   8.958   9.307 -0.4782  0.3806  0.0969
  366MOL0     C50438   4.151   8.862   9.286  0.4347  0.3646 -0.1879
  366MOL0     H50439   4.380   9.286   9.124  2.2090  1.5798 -1.5180
  366MOL0     H50440   4.588   9.414   9.131  1.6879 -1.5281 -0.7332
  366MOL0     H50441   4.725   9.585   9.200 -0.7899 -0.0164  1.0107
  366MOL0     H50442   4.820   9.459   9.137 -0.0236 -0.6492 -0.9348
  366MOL0     H50443   4.937   9.662   9.203 -1.6070  0.6411 -0.2197
  366MOL0     H50444   4.902   9.649   9.379  1.4716  0.4917  0.8332
  366MOL0     H50445   5.025   9.429   9.371 -0.4447 -0.9882 -1.0121
  366MOL0     H50446   5.073   9.454   9.207  0.8009  1.8973  0.1142
  366MOL0     H50447   5.187   9.660   9.245 -2.5818  1.5235  0.2008
  366MOL0     H50448   5.157   9.648   9.419  2.5543 -0.1338 -0.3454
  366MOL0     H50449   5.310   9.436   9.261 -0.8946  0.6447 -0.3808
  366MOL0     H50450   5.284   9.425   9.422 -1.4131 -3.8593 -3.3982
  366MOL0     H50451   5.412   9.646   9.464 -0.4162 -1.0134  0.6523
  366MOL0     H50452   5.520   9.529   9.389  1.5577  1.7514  1.1958
  366MOL0     H50453   5.392   9.774   9.257  2.5094  1.6952 -0.9940
  366MOL0     H50454   5.426   9.641   9.157 -1.0566  2.1601 -1.1896
  366MOL0     H50455   5.664   9.640   9.253  0.3661  0.0053 -0.5080
  366MOL0     H50456   5.619   9.752   9.135 -0.0942 -2.1639 -1.1328
  366MOL0     H50457   5.690   9.717   9.517 -0.9419 -0.0430  1.7321
  366MOL0     H50458   5.751  10.034   9.712  0.8942  0.9430  1.6170
  366MOL0     H50459   5.891  10.032   9.610  0.4423 -0.8247  0.0667
  366MOL0     H50460   5.776   9.765   9.717 -0.3889 -0.6115 -0.2738
  366MOL0     H50461   5.941   9.796   9.676 -0.6660  0.0632 -0.6245
  366MOL0     H50462   5.809   9.932   9.908  1.6244  0.5073  0.8539
  366MOL0     H50463   5.910   9.782   9.913  2.7020 -0.9373 -1.9554
  366MOL0     H50464   6.038  10.039   9.800 -1.9854  1.7776  1.4294
  366MOL0     H50465   5.998  10.036   9.965 -0.0091  1.3333 -1.7764
  366MOL0     H50466   6.328   9.718   9.943  0.6722  1.5514 -0.1760
  366MOL0     H50467   6.430   9.453   9.781 -1.9003  0.7839 -1.6568
  366MOL0     H50468   6.494   9.564   9.909 -0.6296 -0.6542 -0.4051
  366MOL0     H50469   6.564   9.563   9.748 -1.0636  1.7020 -1.6213
  366MOL0     H50470   6.718   9.657   9.381 -0.0543 -2.8207  1.2239
  366MOL0     H50471   6.843   9.578   9.188  0.5744  0.1943 -1.9247
  366MOL0     H50472   6.872   9.422   9.030 -1.3367  2.2529  1.5525
  366MOL0     H50473   6.715   9.343   9.013 -1.2273  0.8198 -1.2622
  366MOL0     H50474   6.857   9.240   8.871 -1.4529 -0.6229 -0.8248
  366MOL0     H50475   6.748   9.326   8.767 -0.5860 -1.9632  0.4311
  366MOL0     H50476   7.014   9.461   8.865  0.0836 -1.3120  1.5479
  366MOL0     H50477   6.903   9.526   8.743 -0.0744 -0.5651  0.4852
  366MOL0     H50478   6.971   9.397   8.571  0.3179  2.3965  0.5509
  366MOL0     H50479   6.977   9.250   8.659 -1.6325  0.5424  1.1658
  366MOL0     H50480   7.196   9.347   8.752 -0.6092 -1.5800 -0.7699
  366MOL0     H50481   7.197   9.295   8.583  0.4513 -0.9045  1.0935
  366MOL0     H50482   7.141   9.585   8.658 -1.5749 -2.6011  1.3612
  366MOL0     H50483   7.152   9.517   8.503  0.9845  0.8927 -0.7518
  366MOL0     H50484   7.406   9.454   8.548 -1.7135  1.8111 -3.9407
  366MOL0     H50485   7.394   9.523   8.706  1.0047 -2.0837 -0.4293
  366MOL0     H50486   7.328   9.746   8.615 -1.5547  0.8671 -0.7590
  366MOL0     H50487   7.340   9.691   8.446  0.5905 -2.3936 -0.3705
  366MOL0     H50488   6.496   9.654   8.937 -1.3721 -3.4325 -0.2819
  366MOL0     H50489   6.363   9.716   9.156 -0.0172 -1.2750 -0.0703
  366MOL0     H50490   6.258   9.837   9.470  1.8281 -0.9067 -1.6462
  366MOL0     H50491   6.129   9.943   9.633 -0.0085 -0.7413 -2.2304
  366MOL0     H50492   4.668   9.276   9.535 -1.0340 -2.5053  0.1718
  366MOL0     H50493   4.449   9.151   9.527 -1.5702  1.3876 -0.9807
  366MOL0     H50494   3.923   9.260   9.435 -1.9469  0.6147 -2.2807
  366MOL0     H50495   3.730   9.174   9.362 -0.6497 -0.5250 -2.0064
  366MOL0     H50496   3.541   9.036   9.328 -0.7263  0.2018  0.3305
  366MOL0     H50497   3.609   9.082   9.159 -0.2720  0.5656  1.3344
  366MOL0     H50498   3.486   8.904   9.062 -0.3116  1.8288 -0.9471
  366MOL0     H50499   3.379   9.007   9.149  0.6695 -0.3758  0.8791
  366MOL0     H50500   3.503   8.749   9.261  0.0655 -0.7387 -1.3349
  366MOL0     H50501   3.408   8.859   9.364  0.5369  2.1735 -0.9101
  366MOL0     H50502   3.207   8.831   9.209 -1.9122 -0.9919  2.5461
  366MOL0     H50503   3.242   8.694   9.315 -2.3215 -1.1232 -1.8344
  366MOL0     H50504   3.266   8.533   8.935  1.2167  0.3479 -1.3697
  366MOL0     H50505   3.912   8.807   9.237 -2.0354  0.0494  1.9886
  366MOL0     H50506   4.106   8.763   9.272  0.2676  0.6779 -2.3013
  366MOL0     H50507   4.209   8.881   9.195 -2.8916  2.8994 -1.9817
  366MOL0     H50508   4.221   8.868   9.370  1.3242  2.0355 -0.9996
  367MOL0     O50509   6.437   4.468   0.982 -0.1239  0.2068 -0.1693
  367MOL0     C50510   6.413   4.586   0.974 -0.0467 -1.0474 -0.3545
  367MOL0     O50511   6.495   4.693   0.930  0.0864  0.5691 -0.3771
  367MOL0     C50512   6.615   4.657   0.871  0.0981 -0.2002  0.2313
  367MOL0     C50513   6.705   4.764   0.858 -0.5042 -0.7234 -0.5948
  367MOL0     C50514   6.836   4.738   0.806 -0.0632 -0.7111 -0.1870
  367MOL0     C50515   6.867   4.614   0.755  0.9707 -0.0257 -0.1835
  367MOL0     O50516   6.996   4.587   0.708  0.3406 -0.3806  0.1999
  367MOL0     C50517   7.073   4.505   0.793  0.4210 -0.6370 -0.4251
  367MOL0     C50518   7.223   4.504   0.745  0.9595 -0.2218  0.7913
  367MOL0     C50519   7.246   4.430   0.615 -0.2790  0.9933  0.0022
  367MOL0     C50520   7.392   4.441   0.575  0.1919 -0.0835 -0.5818
  367MOL0     C50521   7.408   4.367   0.442  0.1862  0.1990  1.3591
  367MOL0     C50522   7.553   4.386   0.389  0.6244  0.2403  0.3413
  367MOL0     C50523   7.657   4.304   0.450  0.3653 -0.8838 -0.3020
  367MOL0     C50524   7.789   4.356   0.416 -0.4954  0.2951  0.1531
  367MOL0     N50525   7.892   4.261   0.448 -0.3960  0.7447  1.1585
  367MOL0     C50526   7.973   4.261   0.558 -0.0223  0.2006  0.5380
  367MOL0     C50527   8.089   4.197   0.522  0.8043 -0.3460 -0.3795
  367MOL0     C50528   8.209   4.179   0.616 -0.5643 -1.2419  1.2232
  367MOL0     C50529   8.308   4.064   0.563 -0.1712 -0.0941  0.2354
  367MOL0     C50530   8.388   4.117   0.442 -0.1377  0.0229 -0.5620
  367MOL0     C50531   8.525   4.049   0.433 -0.6837  0.0436 -0.1685
  367MOL0     O50532   8.504   3.912   0.436 -0.0400 -0.2654  0.1298
  367MOL0     C50533   8.613   3.826   0.426 -0.3140 -0.4725  0.3591
  367MOL0     C50534   8.593   3.706   0.488  0.0450  0.3399  0.1928
  367MOL0     C50535   8.695   3.613   0.504  0.6762 -0.5460 -0.9451
  367MOL0     C50536   8.652   3.481   0.572 -0.2653 -0.0926 -1.0331
  367MOL0     C50537   8.825   3.637   0.452 -0.2563 -0.2008  0.2586
  367MOL0     C50538   8.945   3.547   0.441  0.4591  1.1253 -0.1218
  367MOL0     O50539   9.040   3.581   0.349 -0.1373  0.4052  0.3177
  367MOL0     C50540   9.155   3.508   0.345 -1.1788  0.3746  0.3454
  367MOL0     C50541   9.229   3.495   0.460  0.8750 -0.1626  0.0655
  367MOL0     C50542   9.352   3.428   0.477 -0.7533  0.4914 -0.1873
  367MOL0     C50543   9.392   3.359   0.358  0.1501 -0.2926 -0.7410
  367MOL0     O50544   9.505   3.281   0.349 -0.1404  0.0838  0.5398
  367MOL0     C50545   9.614   3.326   0.432 -0.2625  1.3050  0.1450
  367MOL0     C50546   9.743   3.245   0.422  0.3177 -0.1950 -0.4028
  367MOL0     C50547   9.792   3.246   0.277  0.4499  0.1517 -0.5568
  367MOL0     C50548   9.873   3.117   0.270 -0.3717  0.0562  0.2172
  367MOL0     C50549   9.976   3.132   0.149 -0.1622 -0.4311 -0.4719
  367MOL0     C50550   9.928   3.099   0.012 -0.7417 -0.2383  0.9543
  367MOL0     C50551   9.879   3.225  -0.055  0.1531  0.1394 -0.3051
  367MOL0     C50552   9.856   3.209  -0.207  0.0620  0.0783 -0.6280
  367MOL0    Cl50553   9.758   3.345  -0.299  0.1697  0.3658  0.3342
  367MOL0     C50554   9.318   3.370   0.242  0.8529  0.5992 -0.2097
  367MOL0     C50555   9.194   3.442   0.234 -0.6646 -0.1397 -0.0459
  367MOL0     O50556   8.942   3.446   0.511  0.0892  0.3698  0.5225
  367MOL0     C50557   8.840   3.758   0.388 -0.0809  0.3690  0.0043
  367MOL0     C50558   8.735   3.852   0.377 -0.1857  0.3745  0.3007
  367MOL0     N50559   8.070   4.148   0.392  0.2479 -0.0172 -0.2189
  367MOL0     N50560   7.956   4.183   0.352 -0.2030  0.9351 -0.4323
  367MOL0     C50561   6.773   4.512   0.750 -0.7819 -0.7119 -0.0538
  367MOL0     C50562   6.647   4.535   0.804 -0.6390  0.5271 -1.2644
  367MOL0     C50563   6.277   4.638   1.007  0.5583 -0.6360  0.1358
  367MOL0     C50564   6.218   4.757   0.944 -0.8492  0.2389 -0.1967
  367MOL0     C50565   6.080   4.787   0.971 -0.0272 -0.7363  0.8989
  367MOL0     C50566   6.003   4.714   1.061  0.9516  0.1127  0.1513
  367MOL0     O50567   5.874   4.737   1.087  0.2262  0.1169  0.7679
  367MOL0     C50568   5.793   4.846   1.029 -0.5446 -0.5881  0.6505
  367MOL0     C50569   5.659   4.861   1.100  0.5060 -0.3379  0.1494
  367MOL0     C50570   5.552   4.779   1.022  0.3338 -0.2136  1.5917
  367MOL0     C50571   5.411   4.795   1.078 -0.9476  0.5011 -0.5745
  367MOL0     C50572   5.309   4.828   0.975 -0.5256  0.1555  0.5171
  367MOL0     C50573   5.216   4.851   0.903 -0.0398 -0.3781  0.4487
  367MOL0     C50574   6.064   4.605   1.131  0.3653 -0.2564  0.2789
  367MOL0     C50575   6.202   4.568   1.107  0.7794 -0.5289  1.1465
  367MOL0     C50576   6.247   4.444   1.187  1.0085 -0.1517  0.2917
  367MOL0     H50577   6.695   4.863   0.901 -0.8361 -0.7864 -0.5257
  367MOL0     H50578   6.914   4.813   0.800 -1.1831  0.6702  1.4986
  367MOL0     H50579   7.030   4.406   0.810  0.2010 -0.4511  0.1506
  367MOL0     H50580   7.074   4.551   0.893  0.7274  1.3272 -1.2777
  367MOL0     H50581   7.251   4.609   0.741 -0.7638  0.2093 -1.2467
  367MOL0     H50582   7.284   4.456   0.823  0.1470  0.7557  2.0738
  367MOL0     H50583   7.223   4.323   0.622  1.8208 -0.0001 -4.6158
  367MOL0     H50584   7.185   4.468   0.533 -0.4499  0.8543  0.0631
  367MOL0     H50585   7.420   4.545   0.556  0.2914 -0.2418 -1.3366
  367MOL0     H50586   7.448   4.393   0.656 -1.1389  0.5392  0.7585
  367MOL0     H50587   7.339   4.412   0.370  4.0552  2.4207 -1.3295
  367MOL0     H50588   7.393   4.260   0.455 -1.0953  0.6098  4.0495
  367MOL0     H50589   7.552   4.354   0.285  1.6035 -2.6719  1.1298
  367MOL0     H50590   7.580   4.491   0.406  1.7086 -0.1539  1.1793
  367MOL0     H50591   7.645   4.205   0.404 -1.6007 -1.1376  0.6909
  367MOL0     H50592   7.640   4.287   0.556 -1.3643 -2.0445 -0.7363
  367MOL0     H50593   7.806   4.373   0.309  2.6754  0.5450  0.5852
  367MOL0     H50594   7.818   4.446   0.470  2.3867 -0.5405  0.1706
  367MOL0     H50595   7.940   4.308   0.651 -2.4195 -1.8604  0.8191
  367MOL0     H50596   8.167   4.150   0.713 -0.2976  0.1364  1.7673
  367MOL0     H50597   8.259   4.276   0.615 -2.2051 -0.1731 -3.4793
  367MOL0     H50598   8.376   4.029   0.641  0.6613 -0.5665 -0.6738
  367MOL0     H50599   8.256   3.972   0.536  2.6094 -2.8004  3.2125
  367MOL0     H50600   8.337   4.102   0.347 -0.9334 -0.6403 -0.0418
  367MOL0     H50601   8.393   4.227   0.445 -0.0890  0.0057  1.0985
  367MOL0     H50602   8.572   4.071   0.336  3.2120  0.7703  1.7018
  367MOL0     H50603   8.595   4.068   0.515  2.2362 -2.4704 -1.8538
  367MOL0     H50604   8.498   3.683   0.534 -0.3187 -1.4668 -1.3426
  367MOL0     H50605   8.701   3.463   0.668 -2.2713 -0.1176  0.0503
  367MOL0     H50606   8.689   3.395   0.516  1.1429 -1.2765  1.5524
  367MOL0     H50607   8.545   3.466   0.589 -0.0783 -2.3918 -1.6056
  367MOL0     H50608   9.185   3.554   0.538 -1.2427  2.2013 -2.6958
  367MOL0     H50609   9.398   3.420   0.574  0.7980 -0.7360 -0.9826
  367MOL0     H50610   9.634   3.432   0.413 -1.4366  1.6199  0.5333
  367MOL0     H50611   9.586   3.315   0.537  1.4389  2.9355  0.8299
  367MOL0     H50612   9.818   3.290   0.488 -1.8968  1.5473  1.0798
  367MOL0     H50613   9.728   3.142   0.456  1.0598  0.1165  0.9310
  367MOL0     H50614   9.846   3.339   0.256 -0.5014  1.1538  1.2850
  367MOL0     H50615   9.708   3.238   0.207 -0.4514 -0.6027  0.5827
  367MOL0     H50616   9.810   3.028   0.259 -1.1491  0.4859  1.0103
  367MOL0     H50617   9.940   3.095   0.354  2.0690  0.0599 -1.6226
  367MOL0     H50618  10.025   3.230   0.146 -1.6908  0.3716 -3.9344
  367MOL0     H50619  10.045   3.051   0.174  0.0938  0.1505  0.8157
  367MOL0     H50620   9.850   3.023   0.016 -2.1798  1.1184 -0.1128
  367MOL0     H50621  10.020   3.079  -0.043  0.3982  3.1413  1.3988
  367MOL0     H50622   9.956   3.298  -0.030  2.3018 -2.1880  0.2457
  367MOL0     H50623   9.783   3.259  -0.013 -0.4000  0.8165 -2.0485
  367MOL0     H50624   9.813   3.109  -0.220 -1.2240  0.6902 -1.2727
  367MOL0     H50625   9.955   3.196  -0.252 -0.6698 -1.3188 -1.9798
  367MOL0     H50626   9.359   3.306   0.164  1.1576  2.3339 -1.5509
  367MOL0     H50627   9.125   3.435   0.150 -1.3692 -0.0607  0.5154
  367MOL0     H50628   8.926   3.788   0.329 -2.4034 -1.6730 -5.0259
  367MOL0     H50629   8.755   3.950   0.335  2.7330 -0.7815 -1.2520
  367MOL0     H50630   6.807   4.415   0.715  0.6744 -0.7455  1.3425
  367MOL0     H50631   6.573   4.456   0.805 -1.1595  0.9730 -2.3469
  367MOL0     H50632   6.269   4.802   0.859 -0.6619 -0.4892 -0.4830
  367MOL0     H50633   6.040   4.860   0.902  0.2092  0.0569  1.5873
  367MOL0     H50634   5.844   4.939   1.056 -1.9761  1.0375 -1.7742
  367MOL0     H50635   5.790   4.843   0.919 -0.2585  2.6823  0.4529
  367MOL0     H50636   5.642   4.969   1.108 -0.5269 -0.4589 -0.2856
  367MOL0     H50637   5.661   4.831   1.205 -2.9637  2.7989  1.3735
  367MOL0     H50638   5.555   4.802   0.915 -1.1589 -0.8156  1.3853
  367MOL0     H50639   5.568   4.671   1.031 -0.3375 -0.7479 -1.9559
  367MOL0     H50640   5.418   4.862   1.164 -1.6783 -0.3235  0.1405
  367MOL0     H50641   5.379   4.706   1.133 -1.5557  3.6619  4.7691
  367MOL0     H50642   5.144   4.880   0.829  0.0452  1.6379  1.0920
  367MOL0     H50643   6.004   4.551   1.203  0.7685  0.8593  1.5014
  367MOL0     H50644   6.178   4.425   1.271  0.5046 -0.1077 -0.1069
  367MOL0     H50645   6.256   4.355   1.124 -1.9180  2.8722 -5.1562
  367MOL0     H50646   6.347   4.460   1.228  0.6495  1.6169  0.5426
  368MOL0     O50647   0.911   3.571  10.654 -0.0306 -0.2469 -0.9787
  368MOL0     C50648   0.843   3.498  10.726  0.1453 -0.5347 -0.0821
  368MOL0     O50649   0.710   3.473  10.700  0.2154 -0.5068  0.4405
  368MOL0     C50650   0.664   3.514  10.578  0.2762 -0.4976 -0.2485
  368MOL0     C50651   0.590   3.632  10.560  0.6991 -0.5001 -0.5970
  368MOL0     C50652   0.540   3.673  10.432  2.1322 -1.4878  0.8535
  368MOL0     C50653   0.568   3.595  10.320 -0.3424 -1.2672 -0.8948
  368MOL0     O50654   0.535   3.635  10.193 -0.1796  0.0730 -0.2905
  368MOL0     C50655   0.562   3.772  10.162 -0.2253  0.7543  0.2013
  368MOL0     C50656   0.643   3.770  10.030  0.4063  0.2961 -0.2194
  368MOL0     C50657   0.773   3.699  10.031 -1.1578  0.3084 -0.2597
  368MOL0     C50658   0.877   3.736  10.141 -0.1074  0.2672 -0.3306
  368MOL0     C50659   1.011   3.652  10.132  0.1370  0.0180  0.1885
  368MOL0     C50660   1.051   3.611  10.276 -0.6684 -0.1382  1.4092
  368MOL0     C50661   1.187   3.544  10.267 -0.1397  0.1690  0.3057
  368MOL0     C50662   1.215   3.476  10.402  0.1988  0.2457 -0.9079
  368MOL0     N50663   1.343   3.406  10.398 -0.2684  1.0518 -0.0842
  368MOL0     C50664   1.464   3.450  10.342  0.7473 -0.8438 -0.2818
  368MOL0     C50665   1.557   3.352  10.369  0.6708  0.1611 -0.4269
  368MOL0     C50666   1.700   3.360  10.334 -0.7488  0.4008  0.3145
  368MOL0     C50667   1.791   3.252  10.406  0.9074  0.6490 -2.0140
  368MOL0     C50668   1.945   3.284  10.388  0.1969  0.0317 -0.3115
  368MOL0     C50669   2.038   3.187  10.455  0.3122  0.2800  0.2316
  368MOL0     O50670   2.007   3.173  10.599 -0.2814  0.7424  0.7159
  368MOL0     C50671   2.066   3.067  10.669  0.6914  0.0360  0.9227
  368MOL0     C50672   2.139   2.964  10.602 -0.5948  0.0553 -0.4106
  368MOL0     C50673   2.191   2.863  10.682  0.3181  0.2800  0.1799
  368MOL0     C50674   2.284   2.772  10.605  1.1372  0.1488 -0.5356
  368MOL0     C50675   2.175   2.860  10.823  0.4279 -0.0405  0.7345
  368MOL0     C50676   2.225   2.754  10.912  0.0068  0.0233  0.4235
  368MOL0     O50677   2.214   2.776  11.041 -0.3441 -0.0996 -0.1954
  368MOL0     C50678   2.280   2.693  11.136  0.1922  0.2475  1.0151
  368MOL0     C50679   2.411   2.648  11.131  0.3929  0.1912  1.1528
  368MOL0     C50680   2.458   2.574  11.241  0.3218  0.1095 -0.6699
  368MOL0     C50681   2.381   2.548  11.354  1.0180  0.5587 -0.9604
  368MOL0     O50682   2.437   2.486  11.470  0.7645  0.6660 -0.1126
  368MOL0     C50683   2.352   2.408  11.551 -0.3542 -0.3389 -0.0460
  368MOL0     C50684   2.455   2.297  11.600 -0.1289 -0.5736  0.1084
  368MOL0     C50685   2.396   2.185  11.668  0.6174 -0.1744 -0.3041
  368MOL0     C50686   2.509   2.112  11.725 -0.2955  0.8722 -0.4904
  368MOL0     C50687   2.466   2.017  11.828 -0.6165  0.2987 -0.3117
  368MOL0     C50688   2.578   1.929  11.885  0.6001  0.0786 -1.1535
  368MOL0     C50689   2.654   2.000  11.994 -0.3822  0.4977  0.0276
  368MOL0     C50690   2.754   1.905  12.066  0.2235  0.0484  1.3560
  368MOL0    Cl50691   2.892   1.980  12.147 -0.5198  0.3610 -0.1897
  368MOL0     C50692   2.243   2.588  11.349  0.2585 -0.4328 -0.6379
  368MOL0     C50693   2.202   2.661  11.242  0.1043 -0.3712  0.3101
  368MOL0     O50694   2.276   2.655  10.864 -0.2192  0.8559 -1.0386
  368MOL0     C50695   2.094   2.955  10.877 -0.4299 -0.8028 -0.1649
  368MOL0     C50696   2.045   3.059  10.802 -0.3380 -0.0334  0.4299
  368MOL0     N50697   1.482   3.257  10.444 -0.6184 -0.2096 -0.0308
  368MOL0     N50698   1.362   3.287  10.462  0.5275  0.1603  0.4108
  368MOL0     C50699   0.647   3.482  10.341  0.2500  0.1803  0.3262
  368MOL0     C50700   0.694   3.443  10.467  0.1027  0.2945 -0.4553
  368MOL0     C50701   0.885   3.467  10.863  0.1439  0.4039 -0.6887
  368MOL0     C50702   0.792   3.433  10.960 -0.1329  0.8839 -0.3245
  368MOL0     C50703   0.831   3.393  11.089  0.4259  0.1001  0.0915
  368MOL0     C50704   0.966   3.377  11.123 -1.2543  0.2930  0.7502
  368MOL0     O50705   0.984   3.310  11.242  0.2099  0.7169 -0.6387
  368MOL0     C50706   1.100   3.324  11.321  0.0113  0.0451  0.4773
  368MOL0     C50707   1.057   3.312  11.463 -0.5188 -0.8299  0.4014
  368MOL0     C50708   0.952   3.407  11.510  0.0319  0.6205  0.4597
  368MOL0     C50709   0.999   3.542  11.549  0.2759  0.2518  0.5027
  368MOL0     C50710   0.880   3.616  11.592 -0.4015 -0.6859  0.1284
  368MOL0     C50711   0.784   3.675  11.647 -0.6166 -0.2823 -0.4163
  368MOL0     C50712   1.071   3.429  11.036  0.7213 -0.6790 -0.4451
  368MOL0     C50713   1.023   3.468  10.908 -0.0484 -0.8057  0.2017
  368MOL0     C50714   1.137   3.509  10.818 -0.2102  0.2999 -0.7582
  368MOL0     H50715   0.585   3.706  10.640  0.3609  0.8924 -1.8692
  368MOL0     H50716   0.479   3.763  10.422  2.2001 -1.5455 -0.1098
  368MOL0     H50717   0.612   3.825  10.244 -0.4034  0.0785  0.7532
  368MOL0     H50718   0.465   3.822  10.146 -0.1380  0.7821 -0.2638
  368MOL0     H50719   0.580   3.718   9.957  3.1831 -1.5786 -1.4540
  368MOL0     H50720   0.660   3.870   9.989  3.9289 -1.1314 -2.7292
  368MOL0     H50721   0.755   3.592  10.016 -1.5417  0.7836 -4.1051
  368MOL0     H50722   0.815   3.723   9.933 -0.7917 -0.6454 -0.3546
  368MOL0     H50723   0.905   3.841  10.130 -0.6733  0.8073  2.5407
  368MOL0     H50724   0.831   3.710  10.237  1.7277 -3.6853 -0.3188
  368MOL0     H50725   1.085   3.721  10.090  1.4132 -0.0833  2.1774
  368MOL0     H50726   0.999   3.565  10.066 -0.7486  0.4434 -0.2333
  368MOL0     H50727   1.059   3.693  10.347 -1.7383  1.6641 -0.4459
  368MOL0     H50728   0.981   3.536  10.314 -1.7145  1.1579  2.1499
  368MOL0     H50729   1.264   3.618  10.245  2.3799 -2.7920 -1.6341
  368MOL0     H50730   1.202   3.470  10.189  2.2788 -1.3841  2.1038
  368MOL0     H50731   1.223   3.548  10.484  1.6532 -0.9451  0.0631
  368MOL0     H50732   1.135   3.404  10.422 -0.0523  0.6286 -0.5195
  368MOL0     H50733   1.497   3.539  10.290  3.2481 -1.7432 -0.3385
  368MOL0     H50734   1.730   3.460  10.365 -2.1137  0.8632  0.2315
  368MOL0     H50735   1.712   3.348  10.226  0.0752 -0.9437  0.5277
  368MOL0     H50736   1.769   3.267  10.512 -0.1108 -0.6257 -2.0290
  368MOL0     H50737   1.758   3.153  10.375 -2.5727  1.4705 -1.3355
  368MOL0     H50738   1.952   3.287  10.279 -0.4919 -0.4241 -0.3786
  368MOL0     H50739   1.975   3.383  10.420 -2.2369  0.0576  2.2750
  368MOL0     H50740   2.018   3.092  10.404  1.9642  1.0143 -1.9694
  368MOL0     H50741   2.143   3.214  10.443 -0.0307  2.3825  1.4921
  368MOL0     H50742   2.163   2.958  10.496  2.5425 -2.7416  0.3253
  368MOL0     H50743   2.292   2.773  10.495  1.4113 -0.5146 -0.5319
  368MOL0     H50744   2.234   2.678  10.629  1.5797  0.0935  0.2013
  368MOL0     H50745   2.388   2.771  10.640  0.3616 -0.7471  1.9159
  368MOL0     H50746   2.470   2.678  11.045 -1.1665  0.4947  0.1398
  368MOL0     H50747   2.562   2.542  11.236  0.0128 -1.1898  0.5807
  368MOL0     H50748   2.325   2.461  11.642  0.4639 -1.1408  0.6827
  368MOL0     H50749   2.271   2.359  11.495  0.5193  0.0216 -1.6888
  368MOL0     H50750   2.511   2.253  11.518  2.9068  1.3810  0.9684
  368MOL0     H50751   2.535   2.344  11.658 -1.9034  1.0385  1.3945
  368MOL0     H50752   2.341   2.121  11.597 -0.2225  2.5781 -2.3240
  368MOL0     H50753   2.315   2.218  11.735  1.0361 -3.0390  1.8022
  368MOL0     H50754   2.587   2.179  11.763 -0.1604  1.0865 -1.1242
  368MOL0     H50755   2.558   2.058  11.644 -0.3231  1.6631 -1.0447
  368MOL0     H50756   2.423   2.075  11.910  0.4653  0.1872  0.3563
  368MOL0     H50757   2.393   1.951  11.780  1.9414 -0.1447 -4.0021
  368MOL0     H50758   2.646   1.895  11.807  2.3162  2.5782 -0.8692
  368MOL0     H50759   2.522   1.844  11.926  1.1450 -0.1633 -0.8965
  368MOL0     H50760   2.587   2.044  12.068 -0.9091 -0.1933 -0.0308
  368MOL0     H50761   2.716   2.080  11.953  2.4776 -1.7856 -0.5071
  368MOL0     H50762   2.796   1.832  11.996 -1.8939 -0.6688  0.7560
  368MOL0     H50763   2.699   1.853  12.145 -2.4677 -1.2078 -1.1568
  368MOL0     H50764   2.179   2.568  11.434 -0.3846  1.1854 -0.6884
  368MOL0     H50765   2.101   2.701  11.247  0.4526  0.3816  1.8249
  368MOL0     H50766   2.072   2.956  10.984  1.3419  3.0419  0.3598
  368MOL0     H50767   1.985   3.139  10.844  0.0212  0.7910 -0.5879
  368MOL0     H50768   0.676   3.420  10.256 -0.0876 -1.6475  1.4979
  368MOL0     H50769   0.763   3.360  10.481  1.1965  1.2711  0.1461
  368MOL0     H50770   0.685   3.428  10.943 -0.1461 -0.2638  0.0348
  368MOL0     H50771   0.760   3.360  11.165 -0.2118  1.6596  0.2262
  368MOL0     H50772   1.171   3.244  11.297 -1.7469 -0.9085 -2.0772
  368MOL0     H50773   1.146   3.421  11.303  0.7059 -0.4064 -0.2516
  368MOL0     H50774   1.145   3.311  11.528 -1.1792 -1.1269  1.2984
  368MOL0     H50775   1.012   3.213  11.474  0.0392 -1.4583 -2.2014
  368MOL0     H50776   0.873   3.394  11.436  1.2070  0.5421 -0.8185
  368MOL0     H50777   0.910   3.369  11.604  2.4524  1.2047  1.8865
  368MOL0     H50778   1.045   3.602  11.470 -0.0377  4.3728  3.1365
  368MOL0     H50779   1.070   3.512  11.626 -1.7592 -4.7919  0.8006
  368MOL0     H50780   0.708   3.724  11.703 -0.0041 -2.5269  2.6622
  368MOL0     H50781   1.173   3.427  11.074  0.7946  3.2740 -0.0116
  368MOL0     H50782   1.141   3.450  10.726  1.4604  0.9000 -1.0927
  368MOL0     H50783   1.111   3.610  10.784 -2.0668 -0.1136 -0.7094
  368MOL0     H50784   1.235   3.498  10.864 -0.4714  1.2286  0.0596
  369MOL0     O50785   7.078   8.054   6.126  0.5981 -0.6221 -0.4200
  369MOL0     C50786   7.007   7.981   6.055 -0.4079 -1.0244 -0.5001
  369MOL0     O50787   7.017   7.844   6.052 -0.2153  0.1813 -0.4236
  369MOL0     C50788   7.106   7.783   6.137 -0.1029 -0.0376  0.0378
  369MOL0     C50789   7.179   7.675   6.076 -0.0643  0.5099 -0.2982
  369MOL0     C50790   7.266   7.598   6.151  0.1243  0.7355  0.0112
  369MOL0     C50791   7.305   7.634   6.286  0.7028  0.1994 -0.5650
  369MOL0     O50792   7.402   7.556   6.348  0.5208 -0.2880 -0.5510
  369MOL0     C50793   7.431   7.577   6.482  0.9841 -0.0510 -0.3413
  369MOL0     C50794   7.563   7.509   6.520 -0.2557  0.8127 -0.2730
  369MOL0     C50795   7.561   7.356   6.501  0.3855  0.2349  1.1255
  369MOL0     C50796   7.701   7.296   6.499 -0.0613  0.1926  0.3350
  369MOL0     C50797   7.770   7.296   6.636 -0.3785 -0.4286 -0.0765
  369MOL0     C50798   7.904   7.216   6.642 -0.1463 -0.0207  0.4526
  369MOL0     C50799   8.030   7.299   6.585  0.3792 -0.3334 -0.0469
  369MOL0     C50800   8.137   7.195   6.561  0.3606 -1.0601 -0.5565
  369MOL0     N50801   8.263   7.249   6.494 -0.3803 -0.3347 -0.1568
  369MOL0     C50802   8.367   7.288   6.571  0.7825  0.2385 -0.3630
  369MOL0     C50803   8.452   7.339   6.483 -0.3438  0.4032  1.3345
  369MOL0     C50804   8.592   7.383   6.527  0.7915 -1.8648 -0.5521
  369MOL0     C50805   8.603   7.530   6.505  0.5724  0.3004 -0.3758
  369MOL0     C50806   8.629   7.577   6.365  0.0004  0.1540  0.8377
  369MOL0     C50807   8.770   7.571   6.310 -0.4511 -0.2279  0.4139
  369MOL0     O50808   8.868   7.627   6.399 -0.2401 -0.2700 -0.9351
  369MOL0     C50809   9.007   7.613   6.383 -0.0749 -0.2934 -0.6778
  369MOL0     C50810   9.063   7.557   6.269  0.5115 -0.5305 -0.3974
  369MOL0     C50811   9.198   7.550   6.255  0.1658 -0.0295  0.2063
  369MOL0     C50812   9.240   7.489   6.121 -0.1025  0.3029  0.2066
  369MOL0     C50813   9.288   7.607   6.351  0.1678 -0.5202  1.0352
  369MOL0     C50814   9.435   7.609   6.336 -0.0460  0.0786 -0.0788
  369MOL0     O50815   9.503   7.654   6.448 -0.7004 -0.1993  0.2471
  369MOL0     C50816   9.644   7.651   6.439  0.3532 -0.7201 -0.3444
  369MOL0     C50817   9.707   7.564   6.521 -0.4844  0.4370 -0.3565
  369MOL0     C50818   9.852   7.563   6.532  0.7735  0.6843  0.1534
  369MOL0     C50819   9.927   7.650   6.448 -0.0192 -0.1963  0.0266
  369MOL0     O50820  10.058   7.668   6.455 -0.4274 -0.3837 -0.2341
  369MOL0     C50821  10.143   7.556   6.441  0.0996  0.8586  0.2924
  369MOL0     C50822  10.147   7.514   6.296 -0.3145 -0.0722 -0.1665
  369MOL0     C50823  10.175   7.636   6.206 -1.2988  0.1358  0.2112
  369MOL0     C50824  10.204   7.598   6.069 -0.0699 -0.2806 -1.1028
  369MOL0     C50825  10.238   7.722   5.977  0.0183  0.4395 -0.5890
  369MOL0     C50826  10.232   7.677   5.827 -0.1181  0.1489  1.0121
  369MOL0     C50827  10.254   7.798   5.735 -0.2045  0.2610  0.0801
  369MOL0     C50828  10.159   7.921   5.768  0.4073  0.2160 -0.0786
  369MOL0    Cl50829   9.991   7.872   5.754  0.0523 -0.1225  0.4142
  369MOL0     C50830   9.856   7.745   6.374  0.3791 -0.2748 -0.3777
  369MOL0     C50831   9.714   7.748   6.367 -0.6492  0.4397  0.2710
  369MOL0     O50832   9.489   7.584   6.226  0.5356 -0.0346  0.1000
  369MOL0     C50833   9.230   7.663   6.464  0.0576 -0.0434 -0.2289
  369MOL0     C50834   9.092   7.672   6.479  0.0571  0.3846 -0.2566
  369MOL0     N50835   8.400   7.328   6.354  0.9141 -0.7319  0.7767
  369MOL0     N50836   8.272   7.283   6.364 -0.4810  0.1315  0.3094
  369MOL0     C50837   7.231   7.746   6.339 -0.5232  0.3485 -0.3192
  369MOL0     C50838   7.128   7.815   6.274 -0.9621 -0.0530  0.3659
  369MOL0     C50839   6.901   8.046   5.970 -0.2820  0.2853 -0.8880
  369MOL0     C50840   6.799   7.970   5.918  0.1310  0.4164 -0.2192
  369MOL0     C50841   6.701   8.012   5.831 -0.1505  0.3253  0.2800
  369MOL0     C50842   6.699   8.147   5.797 -0.6362 -0.2628  0.1557
  369MOL0     O50843   6.605   8.202   5.711 -0.8256  0.6217  0.2883
  369MOL0     C50844   6.461   8.165   5.739 -0.0194  0.9308  1.0912
  369MOL0     C50845   6.406   8.199   5.880 -0.0514 -0.0346  0.8089
  369MOL0     C50846   6.253   8.168   5.893  0.4005 -0.0517  0.1018
  369MOL0     C50847   6.193   8.224   6.019  0.5150 -0.2083 -0.2133
  369MOL0     C50848   6.049   8.183   6.024  0.5054  0.4898  0.2490
  369MOL0     C50849   5.940   8.129   6.032 -0.0475  0.1778  1.0007
  369MOL0     C50850   6.793   8.232   5.850  0.1181 -0.5446  0.1310
  369MOL0     C50851   6.893   8.189   5.941  0.2842  0.5183  0.0042
  369MOL0     C50852   6.991   8.289   5.994 -0.2025  0.2364 -0.2480
  369MOL0     H50853   7.170   7.647   5.972  0.4966  3.2373 -1.1700
  369MOL0     H50854   7.329   7.526   6.099 -0.8113  0.3168 -0.5598
  369MOL0     H50855   7.353   7.525   6.539  0.1147 -1.9928 -3.1330
  369MOL0     H50856   7.440   7.683   6.508 -0.0346 -0.4091  1.7327
  369MOL0     H50857   7.634   7.558   6.453 -0.3730  2.3068  0.6446
  369MOL0     H50858   7.579   7.526   6.627 -3.5327 -1.9472  0.8210
  369MOL0     H50859   7.509   7.309   6.585  1.6715 -0.8486  1.3477
  369MOL0     H50860   7.516   7.325   6.407 -0.6644 -0.4270  1.8333
  369MOL0     H50861   7.682   7.191   6.474 -1.7951  0.7916 -1.1157
  369MOL0     H50862   7.762   7.340   6.419 -0.5491  1.8080  0.8251
  369MOL0     H50863   7.706   7.234   6.700 -0.0166  0.2780  1.0043
  369MOL0     H50864   7.781   7.401   6.665 -0.6305 -0.9037  1.9020
  369MOL0     H50865   7.920   7.174   6.742 -1.3704  2.3867  1.7406
  369MOL0     H50866   7.883   7.126   6.584 -1.6322 -1.1173  2.5665
  369MOL0     H50867   8.075   7.364   6.661 -1.7596  2.0387 -0.6276
  369MOL0     H50868   7.989   7.354   6.499 -1.5658 -1.6330 -0.0213
  369MOL0     H50869   8.162   7.148   6.657 -0.7021  1.0417  0.8240
  369MOL0     H50870   8.098   7.120   6.492 -3.1195 -1.2605  1.3535
  369MOL0     H50871   8.390   7.274   6.677  0.0033 -1.6453 -0.4015
  369MOL0     H50872   8.658   7.338   6.453  1.1353 -0.0669 -1.3903
  369MOL0     H50873   8.609   7.342   6.627 -3.2364 -3.9306 -0.5070
  369MOL0     H50874   8.510   7.574   6.542  1.4762  1.7504  0.2664
  369MOL0     H50875   8.685   7.557   6.572 -3.1242 -0.4748  5.1128
  369MOL0     H50876   8.558   7.528   6.297 -0.3050  0.1615  1.1451
  369MOL0     H50877   8.604   7.683   6.374  3.2227  0.9437  1.4447
  369MOL0     H50878   8.789   7.471   6.270 -1.9015 -0.5177  0.4217
  369MOL0     H50879   8.763   7.637   6.223  0.4434  0.1467  0.6117
  369MOL0     H50880   8.992   7.514   6.200 -1.6795  2.2051 -0.0461
  369MOL0     H50881   9.171   7.412   6.086  2.0592 -0.6596 -2.2922
  369MOL0     H50882   9.338   7.441   6.132 -0.0139  0.9387  2.5594
  369MOL0     H50883   9.254   7.565   6.043 -0.4421 -1.6897 -1.9138
  369MOL0     H50884   9.650   7.490   6.576 -0.2280  0.4465 -0.0748
  369MOL0     H50885   9.907   7.488   6.588 -0.2670  0.6432  1.1506
  369MOL0     H50886  10.245   7.579   6.473 -0.1614  1.1691  0.9201
  369MOL0     H50887  10.123   7.472   6.509 -2.1387 -0.1973 -1.5340
  369MOL0     H50888  10.227   7.442   6.280 -0.8177 -0.2203 -2.2915
  369MOL0     H50889  10.063   7.458   6.254 -1.3431  1.4819 -0.2895
  369MOL0     H50890  10.267   7.681   6.245 -1.6117 -1.5268  3.1236
  369MOL0     H50891  10.087   7.698   6.189  0.2879  1.4487 -5.3275
  369MOL0     H50892  10.111   7.553   6.033 -0.4326 -0.4647  0.0254
  369MOL0     H50893  10.284   7.523   6.065  0.1176 -0.0702 -1.3151
  369MOL0     H50894  10.178   7.806   6.013  1.3240  1.0378  0.3032
  369MOL0     H50895  10.340   7.759   5.988  0.2914 -0.2395 -0.7552
  369MOL0     H50896  10.135   7.630   5.814 -1.2791  2.6672 -0.2742
  369MOL0     H50897  10.315   7.608   5.811  1.7739  1.9663  2.2819
  369MOL0     H50898  10.257   7.783   5.627  2.6043  1.7340 -0.1412
  369MOL0     H50899  10.353   7.839   5.757 -0.5397  0.8119  0.6013
  369MOL0     H50900  10.181   8.000   5.696  0.2712 -1.4894 -2.0758
  369MOL0     H50901  10.160   7.958   5.871 -0.1656  0.1901 -0.0559
  369MOL0     H50902   9.916   7.821   6.324  0.0104  0.4257  0.2262
  369MOL0     H50903   9.651   7.817   6.312 -1.3643 -0.4302 -0.0353
  369MOL0     H50904   9.291   7.705   6.543 -1.2053 -0.6209  1.0816
  369MOL0     H50905   9.048   7.708   6.571 -0.9469  0.5140 -0.7721
  369MOL0     H50906   7.250   7.778   6.441 -0.6699 -0.6071  0.0184
  369MOL0     H50907   7.077   7.890   6.333 -0.8533 -0.3951  0.9033
  369MOL0     H50908   6.786   7.863   5.931  1.6952 -0.2541 -3.1464
  369MOL0     H50909   6.625   7.940   5.804 -1.3577  0.5284  2.8482
  369MOL0     H50910   6.401   8.215   5.663 -0.5861 -3.4898 -1.7028
  369MOL0     H50911   6.444   8.058   5.720  0.0645  1.2418 -0.9133
  369MOL0     H50912   6.411   8.308   5.884 -0.7892  0.2347 -2.5883
  369MOL0     H50913   6.465   8.149   5.958 -0.1780  1.5935  2.0133
  369MOL0     H50914   6.197   8.209   5.809 -1.6112 -1.8799  0.4706
  369MOL0     H50915   6.235   8.060   5.887 -3.0392  0.3749  0.6696
  369MOL0     H50916   6.203   8.333   6.026 -1.4092 -0.0244  0.1756
  369MOL0     H50917   6.247   8.181   6.103  1.5788 -0.2433 -0.8947
  369MOL0     H50918   5.844   8.085   6.050 -1.1736  1.2535 -1.7802
  369MOL0     H50919   6.783   8.333   5.812 -2.9276 -1.7440 -2.7279
  369MOL0     H50920   6.975   8.389   5.953  0.6061  0.2992 -0.4263
  369MOL0     H50921   6.979   8.291   6.103 -1.6151 -0.6926 -0.3577
  369MOL0     H50922   7.090   8.259   5.959 -0.8090  1.0483 -2.9064
  370MOL0     O50923   4.926   8.971   9.658  0.0433  0.1739  0.5945
  370MOL0     C50924   4.839   8.943   9.573 -0.9321  0.0440  0.3074
  370MOL0     O50925   4.868   8.931   9.439  0.4022  0.0114  0.5762
  370MOL0     C50926   4.995   8.969   9.401 -0.9239 -0.0816 -0.2141
  370MOL0     C50927   5.018   9.101   9.368  0.1718  0.4909 -0.5769
  370MOL0     C50928   5.144   9.136   9.316  0.5711  0.1039 -0.0179
  370MOL0     C50929   5.247   9.036   9.303 -0.3667 -0.3047 -0.6578
  370MOL0     O50930   5.371   9.089   9.279 -0.0604  0.5867  0.0912
  370MOL0     C50931   5.431   9.151   9.394  0.0449 -0.1182  0.3262
  370MOL0     C50932   5.570   9.212   9.354  0.0066 -0.2772  0.0990
  370MOL0     C50933   5.573   9.272   9.213  0.0140 -0.5176 -0.5069
  370MOL0     C50934   5.705   9.339   9.184 -0.2481  0.2471  0.1275
  370MOL0     C50935   5.714   9.388   9.037 -0.1115  0.4418 -0.0351
  370MOL0     C50936   5.775   9.281   8.955  0.2646  0.6792 -0.0699
  370MOL0     C50937   5.793   9.337   8.809  0.7317  1.4066 -0.5621
  370MOL0     C50938   5.849   9.231   8.718  0.1974  0.1447 -0.2779
  370MOL0     N50939   6.000   9.209   8.738  0.1066  0.4566  0.1950
  370MOL0     C50940   6.066   9.088   8.711 -0.5009  0.3633  0.0419
  370MOL0     C50941   6.196   9.110   8.696  0.6006  0.0045 -0.8933
  370MOL0     C50942   6.300   9.014   8.665 -0.0886 -0.0674 -0.5433
  370MOL0     C50943   6.418   9.020   8.760 -0.9491 -0.1854 -0.3021
  370MOL0     C50944   6.546   8.947   8.701 -0.3116 -1.1758  0.0509
  370MOL0     C50945   6.668   8.978   8.799  0.4976 -0.1209  0.0592
  370MOL0     O50946   6.773   8.890   8.771  0.7370  0.0197  0.0869
  370MOL0     C50947   6.896   8.919   8.827 -0.4763 -0.1149  0.3710
  370MOL0     C50948   7.010   8.891   8.749  0.5324 -0.2416  0.1442
  370MOL0     C50949   7.134   8.928   8.795  0.9963 -0.2733 -0.6186
  370MOL0     C50950   7.256   8.903   8.708 -0.8311  0.1971 -0.6922
  370MOL0     C50951   7.151   8.992   8.917  0.4569 -0.6425 -0.4466
  370MOL0     C50952   7.285   9.048   8.965 -0.1969  0.3474 -0.9308
  370MOL0     O50953   7.352   9.124   8.868  0.6007  0.2345  0.2452
  370MOL0     C50954   7.487   9.148   8.877 -0.9666  0.0906 -0.0056
  370MOL0     C50955   7.574   9.087   8.965 -1.0088  0.2836 -0.8717
  370MOL0     C50956   7.712   9.113   8.966 -0.4722 -0.0653 -0.1905
  370MOL0     C50957   7.768   9.185   8.865  0.1304  1.0008 -0.4575
  370MOL0     O50958   7.903   9.200   8.831  0.2010  0.6883 -0.4882
  370MOL0     C50959   7.996   9.113   8.895 -0.9837  0.6908 -1.0375
  370MOL0     C50960   8.150   9.137   8.861 -0.0328  0.4063  0.4112
  370MOL0     C50961   8.191   9.085   8.725 -0.0963  0.0322 -0.2432
  370MOL0     C50962   8.340   9.112   8.705  0.4709 -0.4677  0.3109
  370MOL0     C50963   8.381   9.088   8.556 -0.3047  0.6187 -0.5560
  370MOL0     C50964   8.537   9.083   8.534 -0.2806 -0.5064 -0.5964
  370MOL0     C50965   8.608   9.220   8.572  0.0378 -0.8200 -0.2838
  370MOL0     C50966   8.671   9.288   8.455  0.2638  0.0086 -0.4005
  370MOL0    Cl50967   8.546   9.347   8.344 -0.0598  0.4370 -0.2100
  370MOL0     C50968   7.686   9.227   8.762 -0.4932  0.8512  0.4031
  370MOL0     C50969   7.547   9.219   8.768  0.1628 -0.2558 -0.6919
  370MOL0     O50970   7.308   9.048   9.083  0.1515  0.7261  0.0864
  370MOL0     C50971   7.038   9.009   8.998  0.1738 -0.2793 -0.4746
  370MOL0     C50972   6.912   8.978   8.950  0.2645 -0.0151  0.6486
  370MOL0     N50973   6.215   9.250   8.717  0.3838  0.0653 -0.5197
  370MOL0     N50974   6.099   9.307   8.739  0.4408 -0.2024 -0.3909
  370MOL0     C50975   5.225   8.907   9.352 -0.4445 -0.9493 -0.8544
  370MOL0     C50976   5.103   8.875   9.402  0.4060  0.4417  0.8400
  370MOL0     C50977   4.697   8.920   9.604  0.0765  0.6662 -0.0841
  370MOL0     C50978   4.615   8.859   9.508  0.8947  0.1791  0.2685
  370MOL0     C50979   4.476   8.842   9.528  0.8019  0.1489  0.7457
  370MOL0     C50980   4.415   8.875   9.646  0.3870 -0.7607 -0.3550
  370MOL0     O50981   4.279   8.847   9.661 -0.1913 -0.3050 -0.3817
  370MOL0     C50982   4.222   8.879   9.786  0.1069 -0.2244 -0.1122
  370MOL0     C50983   4.072   8.854   9.797 -0.4940 -0.1816 -0.1620
  370MOL0     C50984   3.991   8.873   9.671 -0.2647  0.5450 -1.2018
  370MOL0     C50985   3.865   8.795   9.643 -0.2789 -0.6419 -0.3225
  370MOL0     C50986   3.748   8.818   9.737 -0.0956 -0.2207  0.4553
  370MOL0     C50987   3.661   8.819   9.826 -0.5528  0.1517 -0.2457
  370MOL0     C50988   4.497   8.939   9.739  0.2205  0.5242  0.1304
  370MOL0     C50989   4.633   8.970   9.718  0.8742 -0.0952 -0.7220
  370MOL0     C50990   4.702   9.034   9.837  0.6231 -0.2037 -0.2315
  370MOL0     H50991   4.939   9.174   9.385  0.3403  0.4352  0.4486
  370MOL0     H50992   5.157   9.240   9.289  0.0887  1.6819  4.8216
  370MOL0     H50993   5.453   9.079   9.473 -0.4294  0.4603  1.0050
  370MOL0     H50994   5.369   9.229   9.440  1.3310 -0.0499  2.0555
  370MOL0     H50995   5.596   9.282   9.434 -3.0369 -0.0854  1.0574
  370MOL0     H50996   5.632   9.123   9.343 -2.3138 -1.7054 -2.7108
  370MOL0     H50997   5.551   9.205   9.129 -1.4514  1.2231 -1.5937
  370MOL0     H50998   5.496   9.349   9.207  0.2431 -0.1892  0.5653
  370MOL0     H50999   5.704   9.427   9.249 -0.1375  0.5724 -0.3051
  370MOL0     H51000   5.788   9.275   9.214 -0.5557  0.7938  2.2626
  370MOL0     H51001   5.780   9.475   9.026  0.2532 -0.1422 -3.5145
  370MOL0     H51002   5.619   9.410   8.988  1.1944  0.8010 -2.5787
  370MOL0     H51003   5.874   9.259   8.995 -1.2493 -2.1164  2.7172
  370MOL0     H51004   5.721   9.185   8.950 -0.1731  1.0101 -2.4956
  370MOL0     H51005   5.850   9.430   8.810 -1.6479  2.9545  0.8447
  370MOL0     H51006   5.691   9.366   8.783  0.3915  2.8964  2.0541
  370MOL0     H51007   5.797   9.135   8.725  0.8004 -0.1423  0.5434
  370MOL0     H51008   5.837   9.269   8.617  1.1183 -0.6739 -0.7137
  370MOL0     H51009   6.029   8.986   8.704  0.2137  0.1320 -0.3884
  370MOL0     H51010   6.342   9.051   8.571  3.9293  2.7133  1.9784
  370MOL0     H51011   6.257   8.914   8.657 -0.5234 -0.1309  1.9088
  370MOL0     H51012   6.444   9.124   8.783  1.5563 -1.4230  3.4688
  370MOL0     H51013   6.389   8.974   8.855  1.2106  2.5543  1.8579
  370MOL0     H51014   6.530   8.839   8.691  0.9056 -1.3117 -0.5898
  370MOL0     H51015   6.564   8.986   8.601  2.0049  0.3846  0.9989
  370MOL0     H51016   6.698   9.083   8.797  1.1820 -0.3132 -0.3706
  370MOL0     H51017   6.639   8.952   8.901 -1.9389 -2.8713 -1.1903
  370MOL0     H51018   7.000   8.852   8.648 -0.2859 -2.7004  1.1063
  370MOL0     H51019   7.335   8.861   8.771 -1.3416 -0.5986 -0.5608
  370MOL0     H51020   7.300   8.992   8.662  0.3921  1.1741  2.1031
  370MOL0     H51021   7.230   8.838   8.624  2.4091  0.2438 -1.8455
  370MOL0     H51022   7.549   9.041   9.060 -0.4248 -1.0613 -1.3540
  370MOL0     H51023   7.775   9.066   9.042 -0.8344 -2.1878 -1.1194
  370MOL0     H51024   7.982   9.139   9.000 -0.2564 -1.0913 -0.4638
  370MOL0     H51025   7.981   9.005   8.881 -0.9242  0.3425  1.2304
  370MOL0     H51026   8.169   9.245   8.860 -1.5773  0.7330  1.8019
  370MOL0     H51027   8.214   9.099   8.940  0.7901  2.0153  0.5721
  370MOL0     H51028   8.136   9.133   8.644  0.2005  0.6995 -0.0552
  370MOL0     H51029   8.186   8.976   8.719  3.4556 -0.4218  2.1196
  370MOL0     H51030   8.404   9.046   8.763 -0.1125 -1.4184 -0.1006
  370MOL0     H51031   8.354   9.220   8.719 -0.6719  0.1922 -2.7086
  370MOL0     H51032   8.336   8.992   8.529  1.3231 -0.7217  1.2515
  370MOL0     H51033   8.347   9.172   8.494  1.4886  1.1705 -0.8540
  370MOL0     H51034   8.567   9.055   8.433 -0.0103 -1.7788 -0.1875
  370MOL0     H51035   8.578   9.015   8.610  0.2126 -0.3186 -0.6880
  370MOL0     H51036   8.682   9.201   8.651 -0.3442 -0.8473  0.0705
  370MOL0     H51037   8.535   9.288   8.617  1.6864  1.1546 -0.4762
  370MOL0     H51038   8.742   9.218   8.412  0.4501 -0.7699  1.1147
  370MOL0     H51039   8.728   9.375   8.490 -0.0050 -0.0606  0.2155
  370MOL0     H51040   7.720   9.273   8.670 -3.5242  2.1424 -0.2216
  370MOL0     H51041   7.495   9.272   8.689  0.9519  3.8227  1.2770
  370MOL0     H51042   7.056   9.054   9.095 -0.7894  0.1390 -0.4873
  370MOL0     H51043   6.832   9.015   9.014 -1.6806  0.8465 -2.1262
  370MOL0     H51044   5.306   8.837   9.368 -0.1886 -0.3169  0.6982
  370MOL0     H51045   5.086   8.774   9.437  2.1224 -0.0634  0.3123
  370MOL0     H51046   4.648   8.826   9.410 -1.8857  1.2213 -1.1297
  370MOL0     H51047   4.414   8.798   9.449  1.6367  2.7335 -1.5054
  370MOL0     H51048   4.279   8.827   9.864  1.2104  0.3919 -0.4819
  370MOL0     H51049   4.237   8.986   9.801  0.6225 -0.3311  0.1735
  370MOL0     H51050   4.028   8.914   9.877 -2.1763 -1.8538  0.2384
  370MOL0     H51051   4.070   8.746   9.811  2.0343 -0.1261  1.0634
  370MOL0     H51052   3.976   8.981   9.665  0.2457  0.9326  2.6168
  370MOL0     H51053   4.052   8.837   9.587 -1.7435 -1.4726 -1.4979
  370MOL0     H51054   3.897   8.690   9.640  1.5359 -0.1135 -0.3306
  370MOL0     H51055   3.849   8.830   9.540  0.6515 -0.3116 -0.3609
  370MOL0     H51056   3.603   8.826   9.916  2.5059  0.0935  1.8494
  370MOL0     H51057   4.449   8.965   9.833  1.6740 -1.8854  1.6318
  370MOL0     H51058   4.632   9.063   9.916 -0.6705 -2.2717 -0.5419
  370MOL0     H51059   4.778   8.966   9.876  1.3048 -0.8439 -2.5327
  370MOL0     H51060   4.753   9.125   9.804  1.8210 -0.8441 -0.1778
  371MOL0     O51061   7.357   3.404   1.672  0.5299  0.2733  0.2276
  371MOL0     C51062   7.392   3.434   1.559  0.8788 -0.3115  0.2170
  371MOL0     O51063   7.311   3.432   1.441  0.4041  0.4500 -0.4889
  371MOL0     C51064   7.189   3.363   1.464  0.1772  0.0767 -0.4164
  371MOL0     C51065   7.176   3.232   1.509 -0.4872 -0.1202  0.2399
  371MOL0     C51066   7.048   3.176   1.528  0.5281 -0.2158  0.2180
  371MOL0     C51067   6.925   3.244   1.497 -0.3920 -0.4546  0.8250
  371MOL0     O51068   6.793   3.201   1.499 -0.7932 -0.4362 -0.3832
  371MOL0     C51069   6.771   3.062   1.500 -0.1127 -0.2998  0.0551
  371MOL0     C51070   6.775   2.993   1.631 -0.2729  0.2253 -0.4666
  371MOL0     C51071   6.766   2.833   1.603  0.9253  0.0205 -0.3483
  371MOL0     C51072   6.785   2.755   1.736  0.3805 -0.7623  0.2989
  371MOL0     C51073   6.927   2.714   1.756  0.5927 -0.8907 -0.6934
  371MOL0     C51074   6.935   2.650   1.889 -0.7062 -1.0544 -0.1863
  371MOL0     C51075   7.076   2.594   1.896 -0.0888  0.4147 -0.1566
  371MOL0     C51076   7.107   2.519   2.026  0.9841 -1.0135 -0.6160
  371MOL0     N51077   7.238   2.437   2.034  0.4622 -1.3976  0.3643
  371MOL0     C51078   7.361   2.475   1.982 -0.4339 -0.0262 -0.8101
  371MOL0     C51079   7.436   2.369   1.971  0.2965 -0.1841  0.5601
  371MOL0     C51080   7.578   2.353   1.928  0.7303  0.1232  0.0877
  371MOL0     C51081   7.591   2.242   1.819  0.5216  0.7694 -0.8539
  371MOL0     C51082   7.742   2.214   1.826 -0.9995  0.4083 -0.3981
  371MOL0     C51083   7.768   2.100   1.720  0.0077  0.4630  0.5095
  371MOL0     O51084   7.907   2.071   1.688 -0.0780  0.9684 -0.1188
  371MOL0     C51085   7.976   2.036   1.799  0.4154  0.1916  0.2555
  371MOL0     C51086   7.939   1.929   1.879  0.0934 -0.8721 -0.3584
  371MOL0     C51087   8.011   1.909   1.996  0.5377  0.8960  0.6469
  371MOL0     C51088   7.961   1.797   2.078 -0.0726  0.3412 -0.2357
  371MOL0     C51089   8.135   1.970   2.027  0.9443 -0.3091 -0.0081
  371MOL0     C51090   8.231   1.952   2.141 -0.2301 -0.5138 -0.4656
  371MOL0     O51091   8.343   2.027   2.135  0.6442  0.0317 -0.0698
  371MOL0     C51092   8.445   2.007   2.221  0.5514 -0.3348 -1.1917
  371MOL0     C51093   8.425   2.039   2.360 -0.0191  0.0835  0.2642
  371MOL0     C51094   8.523   2.025   2.454 -0.1999 -0.3231  0.8817
  371MOL0     C51095   8.646   1.981   2.413  0.5446  0.9619 -0.3881
  371MOL0     O51096   8.765   1.979   2.489  0.0814  0.1270  0.1717
  371MOL0     C51097   8.775   2.066   2.608 -0.1280 -1.1964  0.3098
  371MOL0     C51098   8.916   2.083   2.656  0.0200 -0.3812  0.5468
  371MOL0     C51099   8.964   1.946   2.714  0.5940 -0.4935 -0.2090
  371MOL0     C51100   9.101   1.961   2.775  0.5196  0.1672 -0.1817
  371MOL0     C51101   9.147   1.831   2.846  0.0976 -0.1384 -0.0578
  371MOL0     C51102   9.243   1.752   2.752  0.4179 -0.8010  0.2647
  371MOL0     C51103   9.390   1.810   2.739  0.9911  1.3127 -0.2035
  371MOL0     C51104   9.490   1.702   2.795 -1.0646 -0.0839  0.0991
  371MOL0    Cl51105   9.455   1.674   2.969 -0.1844 -0.4496 -0.3645
  371MOL0     C51106   8.667   1.938   2.284 -0.2116 -0.3185  0.5903
  371MOL0     C51107   8.564   1.950   2.188 -0.6188 -0.1669 -0.1082
  371MOL0     O51108   8.211   1.862   2.222 -0.0505  0.4856 -1.2076
  371MOL0     C51109   8.164   2.082   1.950 -0.4277  0.6002  0.2276
  371MOL0     C51110   8.090   2.117   1.841  0.4779 -0.1571  0.6996
  371MOL0     N51111   7.363   2.260   2.021  0.1467 -0.1210 -0.4705
  371MOL0     N51112   7.246   2.300   2.051  0.4413 -0.7990 -0.1265
  371MOL0     C51113   6.946   3.372   1.442 -0.0215  0.3128 -0.1662
  371MOL0     C51114   7.076   3.430   1.417  0.2052  0.2984 -0.1215
  371MOL0     C51115   7.533   3.460   1.537 -0.1948  0.2058 -0.2805
  371MOL0     C51116   7.574   3.584   1.471 -0.5980  0.4297 -0.0143
  371MOL0     C51117   7.703   3.621   1.462 -0.0973  1.3006 -0.2424
  371MOL0     C51118   7.808   3.536   1.510  0.1412 -1.1667 -0.0727
  371MOL0     O51119   7.943   3.559   1.493  1.0134 -0.2496 -0.0518
  371MOL0     C51120   7.992   3.686   1.442  0.6288  0.1518  0.0540
  371MOL0     C51121   8.148   3.694   1.429 -0.3338 -0.5904 -0.4466
  371MOL0     C51122   8.206   3.586   1.339  0.3559 -0.4049  0.8128
  371MOL0     C51123   8.263   3.470   1.413  0.0120  0.0036  0.3777
  371MOL0     C51124   8.378   3.500   1.486 -0.3450  0.3392 -0.8668
  371MOL0     C51125   8.480   3.516   1.547  0.1051 -0.0637  0.5383
  371MOL0     C51126   7.768   3.417   1.562 -0.4557 -0.5579  0.4585
  371MOL0     C51127   7.636   3.376   1.584  0.1668  0.5235  0.1303
  371MOL0     C51128   7.611   3.236   1.646  0.1091 -0.9734  0.1284
  371MOL0     H51129   7.258   3.167   1.537  0.7247  1.1656 -0.2458
  371MOL0     H51130   7.036   3.074   1.560  1.8484 -1.1731 -2.0470
  371MOL0     H51131   6.836   3.015   1.426 -1.1370 -1.4690 -0.1315
  371MOL0     H51132   6.666   3.048   1.473 -1.5044  2.5921  3.2008
  371MOL0     H51133   6.871   3.009   1.682 -0.0392 -0.5208 -0.6517
  371MOL0     H51134   6.687   3.024   1.688 -0.8097 -0.7368 -0.7505
  371MOL0     H51135   6.667   2.810   1.562 -0.1340  0.3067  1.9001
  371MOL0     H51136   6.842   2.803   1.530  2.0041  0.3720  0.5981
  371MOL0     H51137   6.738   2.813   1.816 -3.9278 -0.7610 -1.9180
  371MOL0     H51138   6.731   2.660   1.730  2.0869 -2.0471  3.0730
  371MOL0     H51139   6.980   2.810   1.755 -0.7063 -0.0500  1.7281
  371MOL0     H51140   6.961   2.641   1.682  1.4712 -2.2637  0.9875
  371MOL0     H51141   6.921   2.724   1.968  2.0726  1.3282 -1.7044
  371MOL0     H51142   6.857   2.573   1.897 -0.9780 -0.9472 -1.4891
  371MOL0     H51143   7.152   2.673   1.892  1.1615 -0.7949 -1.3489
  371MOL0     H51144   7.093   2.519   1.818  0.6230  0.1599  0.2308
  371MOL0     H51145   7.106   2.601   2.098 -0.4159  1.1665 -2.9612
  371MOL0     H51146   7.023   2.459   2.065  1.1801 -0.2403  1.0842
  371MOL0     H51147   7.395   2.572   1.946  0.8476  0.5553  1.6959
  371MOL0     H51148   7.636   2.337   2.020 -2.1224  2.6065  2.5362
  371MOL0     H51149   7.609   2.450   1.888  1.0947 -0.2486 -0.5397
  371MOL0     H51150   7.532   2.153   1.841  1.2120  0.6083  0.5046
  371MOL0     H51151   7.559   2.280   1.722 -2.5756 -2.3913 -1.2283
  371MOL0     H51152   7.801   2.303   1.804  2.2289 -1.2098  1.0653
  371MOL0     H51153   7.773   2.202   1.931  1.2033 -0.7764 -1.1214
  371MOL0     H51154   7.703   2.015   1.743 -1.2982  0.8161 -1.5842
  371MOL0     H51155   7.732   2.132   1.622 -2.2292 -1.5963  0.5592
  371MOL0     H51156   7.854   1.869   1.849 -0.6969  1.0825 -2.2749
  371MOL0     H51157   8.017   1.704   2.070  2.2227  1.7976 -2.3592
  371MOL0     H51158   7.857   1.780   2.048 -0.0155  2.0007 -1.4863
  371MOL0     H51159   7.970   1.824   2.184  3.9586 -2.3018  0.2928
  371MOL0     H51160   8.329   2.079   2.392 -0.7827 -0.8789 -0.7504
  371MOL0     H51161   8.513   2.050   2.559  0.8668 -1.0228  1.1628
  371MOL0     H51162   8.733   2.164   2.587 -2.5266 -1.8095  1.7986
  371MOL0     H51163   8.714   2.020   2.687  0.2581 -2.7931 -0.2773
  371MOL0     H51164   8.978   2.102   2.569 -0.9403  0.5779  0.0372
  371MOL0     H51165   8.918   2.163   2.730 -0.2141  0.5438 -0.4292
  371MOL0     H51166   8.953   1.866   2.640  1.2931 -1.4858  0.7374
  371MOL0     H51167   8.899   1.912   2.795  2.0528 -1.1229  0.7245
  371MOL0     H51168   9.092   2.037   2.853 -1.7090  1.0937 -1.2515
  371MOL0     H51169   9.173   1.988   2.698  2.5287 -2.8225  0.4830
  371MOL0     H51170   9.210   1.865   2.929  1.7281 -0.9938 -0.8895
  371MOL0     H51171   9.068   1.764   2.880  1.4601 -1.3034  0.9340
  371MOL0     H51172   9.197   1.752   2.653  0.4516 -0.1183  0.2428
  371MOL0     H51173   9.257   1.650   2.789  1.4756 -0.3119  1.2938
  371MOL0     H51174   9.395   1.899   2.803 -1.7797 -2.3267  6.0226
  371MOL0     H51175   9.404   1.839   2.634 -0.1450 -2.3085 -1.5023
  371MOL0     H51176   9.594   1.734   2.780 -0.6220 -1.5281 -0.0849
  371MOL0     H51177   9.482   1.606   2.743  3.7900 -1.1147  0.7818
  371MOL0     H51178   8.765   1.911   2.245 -0.2931 -0.4116  0.4484
  371MOL0     H51179   8.596   1.926   2.088 -1.6987  0.7000 -0.6818
  371MOL0     H51180   8.244   2.151   1.977  1.0364 -1.1635  0.5974
  371MOL0     H51181   8.107   2.192   1.765 -5.1084  0.3565 -0.4663
  371MOL0     H51182   6.862   3.436   1.418  0.6297  0.1732 -3.2272
  371MOL0     H51183   7.076   3.529   1.373  1.6230  1.3234  2.0246
  371MOL0     H51184   7.498   3.651   1.431 -0.0206 -0.8976 -3.6984
  371MOL0     H51185   7.730   3.719   1.425 -2.3741  1.4996 -1.5524
  371MOL0     H51186   7.944   3.708   1.346 -1.0174 -2.4992  0.1890
  371MOL0     H51187   7.969   3.761   1.517  2.1840  0.5724  0.1612
  371MOL0     H51188   8.197   3.693   1.527 -0.5658  2.0782 -0.2414
  371MOL0     H51189   8.182   3.788   1.385  1.3824 -1.6337 -1.4877
  371MOL0     H51190   8.132   3.563   1.263  0.2079 -0.6008  1.0171
  371MOL0     H51191   8.285   3.635   1.281 -1.0805 -0.0174 -0.8963
  371MOL0     H51192   8.284   3.397   1.334  1.3157  1.9294 -1.1643
  371MOL0     H51193   8.193   3.440   1.491  3.4271  0.2530  3.8399
  371MOL0     H51194   8.578   3.529   1.586  0.8876 -1.0694 -0.9932
  371MOL0     H51195   7.848   3.358   1.604 -0.2958  0.1066  1.1113
  371MOL0     H51196   7.702   3.176   1.652  1.8678  1.5161  0.0061
  371MOL0     H51197   7.580   3.239   1.751  0.9248 -0.0532  0.3614
  371MOL0     H51198   7.530   3.186   1.593 -3.8478  4.6488 -0.1214
  372MOL0     O51199   0.715   9.769   1.439 -0.6389  0.1972 -0.3901
  372MOL0     C51200   0.737   9.648   1.468  0.5563  0.3830 -0.1252
  372MOL0     O51201   0.639   9.557   1.495  0.6736  0.4569  0.1167
  372MOL0     C51202   0.504   9.568   1.479  0.3609  0.2533  0.3964
  372MOL0     C51203   0.436   9.684   1.434  0.3414 -0.5499  0.5420
  372MOL0     C51204   0.297   9.674   1.405  0.8145 -0.3606 -0.6005
  372MOL0     C51205   0.227   9.554   1.417 -0.7683 -0.2761 -0.2723
  372MOL0     O51206   0.100   9.557   1.371  0.4643  0.2203 -0.4914
  372MOL0     C51207   0.027   9.433   1.349 -0.3509 -1.0360 -0.3811
  372MOL0     C51208  -0.111   9.460   1.293 -0.1422  0.4606 -0.1917
  372MOL0     C51209  -0.093   9.554   1.178  0.1764  0.2031 -0.3212
  372MOL0     C51210  -0.212   9.547   1.086  1.0718 -1.1151 -0.1348
  372MOL0     C51211  -0.351   9.600   1.148  1.0894  0.4937  0.0140
  372MOL0     C51212  -0.476   9.570   1.054  0.1475  0.2140  0.6014
  372MOL0     C51213  -0.601   9.602   1.117 -0.7136  0.3508 -0.0757
  372MOL0     C51214  -0.729   9.572   1.030 -0.1623 -0.5503 -0.7090
  372MOL0     N51215  -0.843   9.567   1.121  0.6947 -0.0341  0.3929
  372MOL0     C51216  -0.965   9.611   1.082  0.1048 -0.9504  0.5185
  372MOL0     C51217  -1.058   9.558   1.170 -0.8122  0.0940 -0.3852
  372MOL0     C51218  -1.205   9.584   1.177  0.7986  0.1630  0.7087
  372MOL0     C51219  -1.261   9.640   1.304 -0.3513  0.6325 -0.0432
  372MOL0     C51220  -1.414   9.630   1.297  0.0176  0.1752  0.4212
  372MOL0     C51221  -1.464   9.672   1.434  0.3876  0.1249 -0.7031
  372MOL0     O51222  -1.603   9.635   1.449 -0.2894  0.5445  0.8884
  372MOL0     C51223  -1.715   9.712   1.404 -0.2965  0.7749  1.1517
  372MOL0     C51224  -1.837   9.668   1.451 -1.3984  0.0769 -0.3063
  372MOL0     C51225  -1.952   9.740   1.426 -0.3858  0.0595 -0.1971
  372MOL0     C51226  -2.078   9.701   1.513 -0.6680 -0.2602 -0.6664
  372MOL0     C51227  -1.954   9.849   1.333  0.3730 -0.4202 -0.6266
  372MOL0     C51228  -2.078   9.924   1.295  0.1203 -0.4035 -0.3561
  372MOL0     O51229  -2.056  10.024   1.219  0.7268 -0.4266  0.6018
  372MOL0     C51230  -2.144  10.114   1.173 -0.4380 -0.5297  1.2656
  372MOL0     C51231  -2.098  10.247   1.187 -0.7402  0.7492  0.6760
  372MOL0     C51232  -2.182  10.350   1.134 -0.2015  0.0521  0.2976
  372MOL0     C51233  -2.314  10.325   1.088 -0.5991  0.8690 -0.8386
  372MOL0     O51234  -2.390  10.423   1.049 -0.0932 -0.0603 -0.2546
  372MOL0     C51235  -2.533  10.394   1.060  0.1209  0.1530 -0.2689
  372MOL0     C51236  -2.580  10.353   1.198  0.1032 -0.6924  0.3122
  372MOL0     C51237  -2.733  10.339   1.192  0.0748  0.6689 -0.2295
  372MOL0     C51238  -2.783  10.307   1.329 -0.1723 -0.5068 -0.1656
  372MOL0     C51239  -2.945  10.290   1.322 -1.4297 -0.0804  0.4865
  372MOL0     C51240  -2.998  10.284   1.462  0.1974  0.6095  0.2034
  372MOL0     C51241  -3.146  10.264   1.449 -0.8727  0.2284 -0.0648
  372MOL0     C51242  -3.209  10.281   1.585  0.1346  0.8671  1.2823
  372MOL0    Cl51243  -3.376  10.245   1.554  0.2031  0.3133  0.0979
  372MOL0     C51244  -2.344  10.184   1.072  0.9773 -0.1439 -0.1890
  372MOL0     C51245  -2.271  10.075   1.117  0.0100 -0.8424 -0.3715
  372MOL0     O51246  -2.187   9.895   1.343  0.5815 -0.2124 -0.3673
  372MOL0     C51247  -1.827   9.886   1.284 -0.4886  0.6425  0.3401
  372MOL0     C51248  -1.709   9.825   1.319 -0.1610  0.3218 -1.1897
  372MOL0     N51249  -0.982   9.477   1.256 -0.3065 -0.4720 -0.2700
  372MOL0     N51250  -0.855   9.486   1.226 -0.1819  0.4950 -0.1619
  372MOL0     C51251   0.292   9.446   1.476  0.2549  0.0651 -0.3251
  372MOL0     C51252   0.424   9.461   1.518 -0.1914  0.1951 -0.6682
  372MOL0     C51253   0.876   9.595   1.490  0.5889 -0.1716  0.1378
  372MOL0     C51254   0.904   9.497   1.579  0.5619  1.3209 -0.4088
  372MOL0     C51255   1.032   9.449   1.602 -0.6277  1.2149 -0.1512
  372MOL0     C51256   1.140   9.503   1.535 -0.5740  0.3974 -0.3262
  372MOL0     O51257   1.278   9.478   1.555  0.2782  0.3404 -0.0650
  372MOL0     C51258   1.316   9.397   1.667 -0.3092 -0.7614  0.8249
  372MOL0     C51259   1.466   9.387   1.660 -0.0613 -0.1229 -0.2039
  372MOL0     C51260   1.530   9.330   1.784  0.3507 -0.5928 -0.1094
  372MOL0     C51261   1.687   9.314   1.785  0.2356  0.3501 -1.3500
  372MOL0     C51262   1.745   9.304   1.922  0.6288 -0.2127  0.2418
  372MOL0     C51263   1.785   9.304   2.035  0.3803 -0.0319  0.9134
  372MOL0     C51264   1.112   9.600   1.441  0.1013  0.2867  0.8405
  372MOL0     C51265   0.981   9.638   1.408  0.3272  0.1771 -0.0717
  372MOL0     C51266   0.967   9.746   1.294  0.8078 -0.4834  0.2088
  372MOL0     H51267   0.481   9.782   1.425 -1.9111  0.4006 -1.3478
  372MOL0     H51268   0.233   9.748   1.359  2.5328  1.6546  0.0839
  372MOL0     H51269   0.010   9.382   1.444 -2.5919 -0.6314 -0.5175
  372MOL0     H51270   0.086   9.370   1.281  3.1112  1.5338 -0.0309
  372MOL0     H51271  -0.154   9.363   1.267  0.1608  0.5343 -0.9919
  372MOL0     H51272  -0.170   9.513   1.369  0.9564  0.7149  0.5109
  372MOL0     H51273  -0.084   9.654   1.220  0.8589 -0.7873  2.0528
  372MOL0     H51274   0.001   9.518   1.135  0.1114 -1.1681  0.6241
  372MOL0     H51275  -0.186   9.614   1.004 -0.2695  0.5025  0.7014
  372MOL0     H51276  -0.224   9.449   1.038 -2.0442 -1.1900  0.5725
  372MOL0     H51277  -0.350   9.710   1.152  1.1739  0.4798  3.4089
  372MOL0     H51278  -0.374   9.566   1.249  0.8565  2.3762  0.6418
  372MOL0     H51279  -0.471   9.639   0.969 -0.4347  0.4794  0.7764
  372MOL0     H51280  -0.479   9.465   1.024  0.7465  0.7760 -1.6491
  372MOL0     H51281  -0.601   9.709   1.139  1.4336  0.8891 -2.1709
  372MOL0     H51282  -0.607   9.540   1.206 -0.4137 -1.8353 -1.5060
  372MOL0     H51283  -0.741   9.654   0.959  0.2649 -0.1617 -0.3408
  372MOL0     H51284  -0.722   9.470   0.990  1.8602 -0.9066  0.4009
  372MOL0     H51285  -0.994   9.681   1.004 -2.2707  0.0610  2.1987
  372MOL0     H51286  -1.258   9.492   1.152 -3.2404  2.3058  0.6071
  372MOL0     H51287  -1.226   9.656   1.097  0.0723 -0.8649 -0.0432
  372MOL0     H51288  -1.238   9.568   1.384 -0.9234  1.8513  1.2584
  372MOL0     H51289  -1.209   9.733   1.330  3.0030 -0.4603 -2.1871
  372MOL0     H51290  -1.460   9.702   1.228 -2.2445 -0.0936  1.5278
  372MOL0     H51291  -1.455   9.532   1.271  0.0834 -0.0616  1.1683
  372MOL0     H51292  -1.416   9.602   1.503  0.6976  1.2247  0.2111
  372MOL0     H51293  -1.444   9.774   1.467 -0.0219 -0.9733  3.5649
  372MOL0     H51294  -1.841   9.586   1.521 -0.5143  0.1116 -0.2021
  372MOL0     H51295  -2.170   9.681   1.459 -1.9154 -0.0700  1.2810
  372MOL0     H51296  -2.104   9.789   1.573 -0.8384  0.6422 -2.0197
  372MOL0     H51297  -2.067   9.611   1.574  0.7114  0.7479  0.6644
  372MOL0     H51298  -2.006  10.269   1.239  0.7007  2.7777 -2.4232
  372MOL0     H51299  -2.158  10.456   1.135  1.3888 -0.2625 -0.9104
  372MOL0     H51300  -2.594  10.481   1.033  0.1424  0.0456 -0.6694
  372MOL0     H51301  -2.557  10.319   0.984 -5.6647  1.4793 -0.1724
  372MOL0     H51302  -2.537  10.256   1.224  0.0703 -0.9700 -0.6473
  372MOL0     H51303  -2.550  10.435   1.263 -0.4297 -3.7859  4.9510
  372MOL0     H51304  -2.758  10.258   1.123 -0.4524  1.3965 -0.9151
  372MOL0     H51305  -2.783  10.428   1.153  1.7453  0.8176 -2.2405
  372MOL0     H51306  -2.746  10.379   1.402 -1.3060 -0.1031  0.0327
  372MOL0     H51307  -2.743  10.210   1.358  1.4590  0.0958 -0.3308
  372MOL0     H51308  -2.986  10.373   1.265 -2.3225 -0.0522  1.1539
  372MOL0     H51309  -2.949  10.193   1.273 -0.0581 -0.3781  0.8959
  372MOL0     H51310  -2.979  10.380   1.511 -1.9815  0.1014  2.2773
  372MOL0     H51311  -2.935  10.209   1.511  1.0194  2.2157  1.7237
  372MOL0     H51312  -3.172  10.166   1.408  2.3891 -0.7852  0.0069
  372MOL0     H51313  -3.195  10.338   1.385 -3.9587  1.7154  3.6128
  372MOL0     H51314  -3.192  10.384   1.618  0.0743  1.4492 -0.4132
  372MOL0     H51315  -3.172  10.212   1.661 -4.5662 -2.7062  0.7975
  372MOL0     H51316  -2.442  10.150   1.041  1.8556 -2.0595 -0.9827
  372MOL0     H51317  -2.292   9.969   1.118  1.7727 -1.2256 -0.1712
  372MOL0     H51318  -1.824   9.966   1.211 -1.5003  2.0902  1.7981
  372MOL0     H51319  -1.616   9.869   1.285  0.3386  0.3049  0.0897
  372MOL0     H51320   0.242   9.354   1.502  0.3254  0.2508  0.5005
  372MOL0     H51321   0.471   9.375   1.566 -0.7932  0.7005  0.8639
  372MOL0     H51322   0.825   9.451   1.637 -1.3828 -1.3919 -4.7007
  372MOL0     H51323   1.059   9.364   1.663  2.8401  2.7022  0.6471
  372MOL0     H51324   1.275   9.445   1.756 -3.1449  0.0857 -0.8400
  372MOL0     H51325   1.274   9.297   1.652  0.6801 -0.9788 -0.8532
  372MOL0     H51326   1.515   9.485   1.657  2.3906 -1.2438  0.6012
  372MOL0     H51327   1.511   9.337   1.574  0.4898 -1.4908  0.8388
  372MOL0     H51328   1.494   9.386   1.871  3.6067  2.6765 -0.6573
  372MOL0     H51329   1.489   9.229   1.799 -1.3971  0.1306  0.3031
  372MOL0     H51330   1.731   9.404   1.741 -1.1164  0.5472 -2.3551
  372MOL0     H51331   1.719   9.230   1.722  1.1623 -1.0599  0.8600
  372MOL0     H51332   1.828   9.295   2.133  0.0329 -3.3439  0.8706
  372MOL0     H51333   1.192   9.637   1.378 -0.6091 -3.6160 -2.8500
  372MOL0     H51334   0.892   9.708   1.225  2.0025 -2.3963 -0.0905
  372MOL0     H51335   0.933   9.846   1.324 -1.3513 -1.2056  0.3562
  372MOL0     H51336   1.061   9.752   1.239 -0.1860 -0.5180 -1.5495
  373MOL0     O51337   1.267   2.712   0.977  0.0834  0.2345 -0.4336
  373MOL0     C51338   1.232   2.620   1.047 -1.0920  0.2019  0.3988
  373MOL0     O51339   1.314   2.554   1.135 -0.1884 -0.6342  0.1170
  373MOL0     C51340   1.439   2.598   1.152 -0.3882  0.6992 -0.6806
  373MOL0     C51341   1.532   2.603   1.050 -0.8404  0.6413 -0.5088
  373MOL0     C51342   1.661   2.658   1.061  0.2407  0.5684 -1.0403
  373MOL0     C51343   1.692   2.719   1.183 -0.6957 -0.2703 -0.4120
  373MOL0     O51344   1.826   2.756   1.209  0.1141  0.0020 -0.1085
  373MOL0     C51345   1.884   2.860   1.131  0.9879  0.4484 -0.5395
  373MOL0     C51346   1.873   3.005   1.195 -0.2209  0.2999  0.1560
  373MOL0     C51347   1.965   3.019   1.319 -0.3253  0.6234 -0.0213
  373MOL0     C51348   2.114   2.995   1.294  0.8076 -0.1060 -0.0197
  373MOL0     C51349   2.185   3.000   1.437 -0.4953 -0.0282 -0.2141
  373MOL0     C51350   2.329   2.971   1.434  0.5600  0.3832  0.1108
  373MOL0     C51351   2.409   3.065   1.342 -0.4236  0.3571  0.3155
  373MOL0     C51352   2.409   3.209   1.394  0.2391 -0.1603  0.1133
  373MOL0     N51353   2.532   3.271   1.345 -0.2163  0.3322  0.4118
  373MOL0     C51354   2.573   3.388   1.407  0.3419 -0.3540 -0.1946
  373MOL0     C51355   2.673   3.435   1.332  0.7949  0.1878  0.2976
  373MOL0     C51356   2.752   3.562   1.359  0.3732 -0.1397  0.7525
  373MOL0     C51357   2.756   3.660   1.243 -0.5818  0.9051 -0.3195
  373MOL0     C51358   2.830   3.611   1.116  0.5723 -0.5089  1.0683
  373MOL0     C51359   2.872   3.722   1.025 -0.0121  0.1362  0.7184
  373MOL0     O51360   2.949   3.655   0.921 -0.7169 -0.2854 -0.1426
  373MOL0     C51361   3.031   3.732   0.839  0.6969 -0.0417 -0.2875
  373MOL0     C51362   3.135   3.674   0.775  0.0207  0.2985 -0.1874
  373MOL0     C51363   3.226   3.740   0.688  0.2425 -0.4173 -0.4032
  373MOL0     C51364   3.328   3.668   0.612 -0.6396  0.5884  0.8647
  373MOL0     C51365   3.202   3.883   0.669  0.0056 -1.1235 -0.2362
  373MOL0     C51366   3.262   3.966   0.561 -0.6263  0.3070  1.0665
  373MOL0     O51367   3.279   3.907   0.434  0.4965 -0.3169  0.1302
  373MOL0     C51368   3.315   3.991   0.332 -1.1389 -0.1281  0.0546
  373MOL0     C51369   3.431   4.070   0.326  0.2074 -0.2530  1.3774
  373MOL0     C51370   3.458   4.139   0.207 -0.2239 -0.0442 -0.2180
  373MOL0     C51371   3.371   4.123   0.089  0.2452  0.4859 -0.6291
  373MOL0     O51372   3.412   4.181  -0.024 -0.0675 -0.3183  0.0965
  373MOL0     C51373   3.315   4.228  -0.111 -0.1006 -0.4448 -0.1621
  373MOL0     C51374   3.380   4.319  -0.216 -0.1676 -0.4241  0.4799
  373MOL0     C51375   3.261   4.380  -0.291 -0.3088  0.3051 -0.7175
  373MOL0     C51376   3.182   4.302  -0.385 -0.1483 -0.2302  0.4017
  373MOL0     C51377   3.127   4.402  -0.490  0.2743 -0.0153 -0.5950
  373MOL0     C51378   3.044   4.349  -0.611 -0.5431 -0.2633  0.1180
  373MOL0     C51379   2.952   4.458  -0.662 -1.0337 -1.0818  0.1156
  373MOL0     C51380   2.854   4.414  -0.768 -0.4668  0.4610 -0.9566
  373MOL0    Cl51381   2.738   4.304  -0.689  0.1433 -0.3014 -0.1971
  373MOL0     C51382   3.259   4.045   0.099 -0.3192 -0.2703 -0.2692
  373MOL0     C51383   3.226   3.988   0.222 -0.4106  0.4950 -0.0622
  373MOL0     O51384   3.288   4.084   0.587  0.2447  0.2532  0.5175
  373MOL0     C51385   3.099   3.948   0.744  0.2462  0.4134 -0.1248
  373MOL0     C51386   3.024   3.878   0.833  0.2111 -0.2180 -0.2276
  373MOL0     N51387   2.684   3.347   1.217 -0.1579  0.1721  0.1514
  373MOL0     N51388   2.603   3.253   1.231  0.6972 -0.9187  0.1929
  373MOL0     C51389   1.601   2.719   1.293  0.6157 -0.9915  0.0761
  373MOL0     C51390   1.469   2.659   1.276 -0.8456  0.5730  0.1217
  373MOL0     C51391   1.089   2.576   1.032 -0.7202 -0.0048  0.1381
  373MOL0     C51392   1.007   2.657   0.942  0.3240 -0.6422  1.1404
  373MOL0     C51393   0.872   2.629   0.924  1.2276 -1.1271 -0.2207
  373MOL0     C51394   0.812   2.515   0.966  0.1259 -0.1900 -0.3453
  373MOL0     O51395   0.690   2.476   0.934 -0.2969  0.1018  0.7934
  373MOL0     C51396   0.602   2.552   0.852  0.3341 -0.2309 -0.2039
  373MOL0     C51397   0.463   2.482   0.851  0.3249 -0.3263 -0.5860
  373MOL0     C51398   0.402   2.463   0.991  0.1371  0.4787 -0.2078
  373MOL0     C51399   0.255   2.417   0.953 -0.1883 -0.5417 -0.1290
  373MOL0     C51400   0.168   2.383   1.065  0.0142 -0.4072  0.1001
  373MOL0     C51401   0.097   2.346   1.151  0.2394 -0.4798 -0.1789
  373MOL0     C51402   0.892   2.434   1.054 -0.3646  0.6000 -0.0984
  373MOL0     C51403   1.021   2.469   1.095  0.5185 -0.1518 -0.3707
  373MOL0     C51404   1.084   2.375   1.195  0.5179 -0.1229 -0.2556
  373MOL0     H51405   1.506   2.562   0.953  0.6783 -0.1680 -0.6105
  373MOL0     H51406   1.733   2.648   0.981  0.0636  0.3672 -1.1764
  373MOL0     H51407   1.836   2.864   1.033  0.5073  0.6997 -0.2983
  373MOL0     H51408   1.992   2.847   1.117  0.6847 -0.3976 -2.4303
  373MOL0     H51409   1.909   3.078   1.122 -0.9287  1.0304  0.5266
  373MOL0     H51410   1.768   3.026   1.218  0.0143  2.1329 -0.3674
  373MOL0     H51411   1.947   3.123   1.348 -0.1626  0.4411  0.7577
  373MOL0     H51412   1.940   2.956   1.405  3.4393 -0.4008  0.5186
  373MOL0     H51413   2.132   2.903   1.239 -2.3163  0.5470 -2.3400
  373MOL0     H51414   2.153   3.078   1.235 -0.7250  1.0485  0.5190
  373MOL0     H51415   2.142   2.926   1.506  1.2024 -1.9533 -1.1147
  373MOL0     H51416   2.162   3.092   1.492 -2.1797 -1.2378  1.2514
  373MOL0     H51417   2.360   2.979   1.538  0.4526 -0.9444  0.2663
  373MOL0     H51418   2.346   2.866   1.405  0.9875  0.0626  1.4616
  373MOL0     H51419   2.374   3.065   1.238  1.6288 -2.2435 -0.4964
  373MOL0     H51420   2.511   3.025   1.340 -1.6600 -3.1157  0.2606
  373MOL0     H51421   2.319   3.259   1.357  1.0712  3.9574  2.9909
  373MOL0     H51422   2.422   3.205   1.502  3.4629  0.3744 -0.1664
  373MOL0     H51423   2.538   3.440   1.496  1.3565 -0.6054  0.3711
  373MOL0     H51424   2.846   3.526   1.402  0.7908  0.7204  0.5697
  373MOL0     H51425   2.718   3.609   1.451 -0.4378 -0.0032  0.3915
  373MOL0     H51426   2.653   3.681   1.213  0.2325  2.9117 -1.9508
  373MOL0     H51427   2.803   3.749   1.285  0.9484 -0.4366  0.9844
  373MOL0     H51428   2.919   3.552   1.141  0.1109 -1.6648  0.0947
  373MOL0     H51429   2.765   3.540   1.064 -0.8760  0.0656  2.0294
  373MOL0     H51430   2.795   3.778   0.971  1.5481  1.2080 -0.4853
  373MOL0     H51431   2.932   3.797   1.078 -2.5022  1.3651  1.9497
  373MOL0     H51432   3.156   3.568   0.784 -2.8903 -0.7419 -3.5045
  373MOL0     H51433   3.283   3.614   0.529 -1.7476  1.1278  1.0939
  373MOL0     H51434   3.372   3.594   0.680  1.0440  0.1373 -0.6571
  373MOL0     H51435   3.412   3.723   0.568  1.0586 -2.6840 -0.3078
  373MOL0     H51436   3.496   4.073   0.413  0.7155  0.8338  0.9913
  373MOL0     H51437   3.552   4.192   0.203  0.1484 -0.4461  1.8638
  373MOL0     H51438   3.275   4.142  -0.165  1.3817 -0.1417 -1.8467
  373MOL0     H51439   3.235   4.280  -0.058 -0.0648 -0.5861  0.0326
  373MOL0     H51440   3.434   4.392  -0.154 -1.0237 -2.6397  4.1625
  373MOL0     H51441   3.451   4.273  -0.286  0.7602  1.8499 -0.1645
  373MOL0     H51442   3.310   4.464  -0.341 -1.4257  0.7007 -1.1959
  373MOL0     H51443   3.197   4.425  -0.215  1.8070 -1.5011  2.3426
  373MOL0     H51444   3.091   4.253  -0.350 -2.2827  1.2537 -2.5862
  373MOL0     H51445   3.232   4.216  -0.430 -2.1460 -0.5780 -1.3077
  373MOL0     H51446   3.072   4.475  -0.431  3.5410  2.0333  0.1737
  373MOL0     H51447   3.208   4.454  -0.542 -1.6110  0.8773 -2.7857
  373MOL0     H51448   2.987   4.260  -0.580 -0.0045 -0.4593  0.5525
  373MOL0     H51449   3.114   4.325  -0.691  1.0938  0.2726  1.3479
  373MOL0     H51450   3.019   4.536  -0.697  0.4580 -1.2624  2.3529
  373MOL0     H51451   2.898   4.504  -0.578 -1.1662  1.2657 -1.1774
  373MOL0     H51452   2.897   4.358  -0.851  1.5900  0.9380 -0.2690
  373MOL0     H51453   2.798   4.497  -0.812  1.3534  1.1866 -2.0171
  373MOL0     H51454   3.190   4.021   0.019 -0.0451 -2.7753  0.1545
  373MOL0     H51455   3.137   3.927   0.230 -0.5814  0.6137 -0.9619
  373MOL0     H51456   3.081   4.054   0.728 -0.5366  0.0786 -1.6875
  373MOL0     H51457   2.941   3.928   0.883 -0.9252 -1.1682 -1.1192
  373MOL0     H51458   1.619   2.769   1.387 -2.1667 -0.6735  0.5380
  373MOL0     H51459   1.396   2.664   1.357 -0.7337  1.3205  0.1889
  373MOL0     H51460   1.038   2.754   0.903 -0.3826 -1.4439 -1.6065
  373MOL0     H51461   0.818   2.705   0.869  1.2124 -0.7546  0.3085
  373MOL0     H51462   0.605   2.649   0.903  4.9602 -0.9170  1.3761
  373MOL0     H51463   0.639   2.559   0.750 -1.6475  0.9198 -0.8883
  373MOL0     H51464   0.483   2.383   0.810  3.1118 -1.0205  2.0488
  373MOL0     H51465   0.402   2.540   0.782 -0.1427 -0.5943 -0.4024
  373MOL0     H51466   0.451   2.394   1.060  0.9022  0.0130 -1.1981
  373MOL0     H51467   0.397   2.557   1.047 -0.8580 -0.2791  1.0084
  373MOL0     H51468   0.262   2.341   0.875  4.1318  1.6107 -2.1805
  373MOL0     H51469   0.200   2.497   0.902 -2.4546 -3.3384 -2.4162
  373MOL0     H51470   0.023   2.319   1.224 -2.5596  3.7731 -1.0563
  373MOL0     H51471   0.864   2.335   1.090  4.7532 -1.8493 -1.8315
  373MOL0     H51472   1.116   2.442   1.275  1.1107 -1.0296  0.2811
  373MOL0     H51473   1.014   2.302   1.236  1.4611 -1.8881 -1.5931
  373MOL0     H51474   1.165   2.314   1.154  0.4810 -0.4059  0.0930
  374MOL0     O51475   6.116   4.793   2.253  0.0013 -0.3687  0.2728
  374MOL0     C51476   6.085   4.818   2.133 -0.4680 -0.3712 -0.1304
  374MOL0     O51477   6.161   4.772   2.028  0.3688 -0.0325  0.5050
  374MOL0     C51478   6.274   4.701   2.041 -0.5932 -0.0731  0.4255
  374MOL0     C51479   6.395   4.776   2.056 -0.2066  0.2487 -0.1836
  374MOL0     C51480   6.516   4.711   2.082  0.1938  0.0490 -0.0405
  374MOL0     C51481   6.518   4.570   2.112 -0.2146  0.6776  0.9592
  374MOL0     O51482   6.640   4.510   2.119 -0.3435  0.3926  0.8187
  374MOL0     C51483   6.659   4.418   2.230  0.4295  0.3172  0.2391
  374MOL0     C51484   6.776   4.312   2.210  0.6042  0.3031 -0.2385
  374MOL0     C51485   6.798   4.243   2.351 -0.3621 -0.1494 -0.1887
  374MOL0     C51486   6.823   4.103   2.329  0.0948  0.5581  0.3344
  374MOL0     C51487   6.878   4.026   2.446 -0.7892  0.2524  1.0034
  374MOL0     C51488   7.021   4.054   2.464  0.1788 -0.3692  0.4741
  374MOL0     C51489   7.094   3.975   2.582  0.2792 -0.7598  0.2563
  374MOL0     C51490   7.036   3.836   2.602 -0.4349 -0.4356  0.3417
  374MOL0     N51491   7.102   3.760   2.703 -0.0691 -0.7063  0.4954
  374MOL0     C51492   7.209   3.672   2.683 -0.7016  0.4008 -0.6203
  374MOL0     C51493   7.218   3.608   2.808  0.2027  0.1235  0.2007
  374MOL0     C51494   7.317   3.502   2.845  0.1471  0.6760  0.6501
  374MOL0     C51495   7.401   3.444   2.727 -0.3487 -0.2769 -0.1070
  374MOL0     C51496   7.499   3.345   2.774  0.1098 -0.0813 -0.1886
  374MOL0     C51497   7.603   3.395   2.867  0.3519 -0.5996 -0.3307
  374MOL0     O51498   7.644   3.521   2.841 -0.1643 -0.3006 -0.4011
  374MOL0     C51499   7.737   3.576   2.929 -0.6312 -0.6117  0.2695
  374MOL0     C51500   7.800   3.691   2.877  0.1149 -0.7271  0.4174
  374MOL0     C51501   7.906   3.753   2.933 -0.7356  0.3445  0.1234
  374MOL0     C51502   7.961   3.874   2.855 -0.3513 -0.9557  0.1112
  374MOL0     C51503   7.960   3.696   3.056  0.2020 -0.0306  0.1274
  374MOL0     C51504   8.068   3.763   3.131  0.1577 -0.2627 -0.7241
  374MOL0     O51505   8.101   3.704   3.248  0.1853  0.0789 -0.0314
  374MOL0     C51506   8.173   3.765   3.350  0.0295  0.2823 -0.1590
  374MOL0     C51507   8.239   3.891   3.346  0.9198  0.3672 -0.5778
  374MOL0     C51508   8.302   3.946   3.460 -0.3700 -0.5411 -0.3615
  374MOL0     C51509   8.316   3.856   3.578 -0.8030 -0.9610 -0.1647
  374MOL0     O51510   8.397   3.895   3.680  0.7178  0.3436 -0.0101
  374MOL0     C51511   8.335   3.876   3.811  0.0868 -0.1961 -0.3770
  374MOL0     C51512   8.384   3.988   3.905 -0.3608 -0.2489 -0.5251
  374MOL0     C51513   8.540   3.974   3.923  0.4987  0.1776  0.2554
  374MOL0     C51514   8.592   4.096   4.004  0.0230 -0.6557  0.6129
  374MOL0     C51515   8.724   4.083   4.073 -0.6823 -0.4442  0.3336
  374MOL0     C51516   8.776   4.207   4.136  0.6878  0.1604  0.7043
  374MOL0     C51517   8.825   4.307   4.033  0.1926  0.1820 -0.2126
  374MOL0     C51518   8.873   4.442   4.094 -0.1379  0.1672 -0.2707
  374MOL0    Cl51519   8.922   4.558   3.956 -0.0983  0.2345 -0.2015
  374MOL0     C51520   8.245   3.738   3.579 -0.1430  0.2224  0.3487
  374MOL0     C51521   8.170   3.694   3.468 -0.3492 -0.3919 -0.6286
  374MOL0     O51522   8.128   3.852   3.079 -0.1086  0.3277 -0.0725
  374MOL0     C51523   7.887   3.583   3.109 -0.6716 -0.4375 -0.6907
  374MOL0     C51524   7.784   3.525   3.047  0.2537  0.5443 -0.4530
  374MOL0     N51525   7.130   3.661   2.897  0.1517  0.4721 -0.6549
  374MOL0     N51526   7.062   3.760   2.834 -0.4011  0.2047  0.1541
  374MOL0     C51527   6.399   4.500   2.077 -0.3725 -0.4866 -0.0810
  374MOL0     C51528   6.283   4.560   2.048 -0.3224  0.7648  0.6713
  374MOL0     C51529   5.988   4.929   2.105  0.2438 -0.0851  0.1683
  374MOL0     C51530   5.890   4.916   2.005 -0.3168 -0.0039 -0.6813
  374MOL0     C51531   5.804   5.019   1.979  0.0158  0.1938 -0.1451
  374MOL0     C51532   5.802   5.136   2.057  0.7015 -0.3020  0.5307
  374MOL0     O51533   5.710   5.242   2.024 -0.0296 -0.4386 -0.7215
  374MOL0     C51534   5.679   5.349   2.124 -0.3947 -0.2020 -0.6698
  374MOL0     C51535   5.559   5.430   2.074 -0.1619  0.3603  0.2292
  374MOL0     C51536   5.430   5.343   2.091 -0.4358 -0.3604 -0.4939
  374MOL0     C51537   5.298   5.415   2.066 -0.8853  0.2453 -0.2300
  374MOL0     C51538   5.190   5.313   2.069  0.0696  0.0733 -1.1203
  374MOL0     C51539   5.100   5.236   2.080 -0.0792  0.9884 -0.3590
  374MOL0     C51540   5.903   5.161   2.146 -1.0348 -0.0678  0.0327
  374MOL0     C51541   5.999   5.056   2.174 -0.1738 -0.4129  0.6331
  374MOL0     C51542   6.113   5.078   2.275  0.1361 -0.3378  0.5336
  374MOL0     H51543   6.379   4.884   2.051  2.1823  0.7920  1.8869
  374MOL0     H51544   6.610   4.765   2.087 -1.7870  3.7518  0.1837
  374MOL0     H51545   6.568   4.361   2.249  0.8409 -1.9812 -3.7307
  374MOL0     H51546   6.692   4.479   2.315  1.8320 -0.9845  0.6681
  374MOL0     H51547   6.733   4.240   2.139  0.1851  0.3795 -0.0638
  374MOL0     H51548   6.866   4.361   2.173  1.3243  0.0082  1.0667
  374MOL0     H51549   6.892   4.287   2.386  0.3227 -1.3604 -0.4669
  374MOL0     H51550   6.716   4.262   2.421 -0.3785  0.8724 -0.4648
  374MOL0     H51551   6.722   4.070   2.302  0.8426 -0.9700 -0.7226
  374MOL0     H51552   6.887   4.095   2.241 -2.2732  1.8275 -1.6065
  374MOL0     H51553   6.870   3.922   2.413 -2.2392  1.1644 -1.8538
  374MOL0     H51554   6.826   4.044   2.540  2.2299  2.1796  2.4764
  374MOL0     H51555   7.072   4.044   2.368  0.5309  1.8375  0.3865
  374MOL0     H51556   7.033   4.155   2.503 -0.8866 -0.5211  1.2298
  374MOL0     H51557   7.110   4.036   2.671  2.0054 -1.1683  0.2691
  374MOL0     H51558   7.199   3.953   2.557  0.7127 -2.3061  2.9945
  374MOL0     H51559   6.929   3.835   2.627 -1.7117 -0.1448 -4.1330
  374MOL0     H51560   7.054   3.776   2.512 -0.0713  0.6246 -0.3091
  374MOL0     H51561   7.269   3.653   2.594  0.0203 -1.5436  0.2143
  374MOL0     H51562   7.258   3.420   2.887  2.7217 -0.7440  1.6893
  374MOL0     H51563   7.388   3.534   2.922  3.1351 -2.7691 -0.4193
  374MOL0     H51564   7.344   3.403   2.643  0.4534  2.4343 -2.1677
  374MOL0     H51565   7.456   3.529   2.683  2.0597 -0.4889  2.2803
  374MOL0     H51566   7.451   3.257   2.818  1.2592  0.2492  1.8600
  374MOL0     H51567   7.548   3.299   2.688  0.6678  0.2994 -0.0853
  374MOL0     H51568   7.564   3.397   2.969 -1.8311 -0.0921 -1.1087
  374MOL0     H51569   7.686   3.324   2.866  0.9760  0.0579  1.4877
  374MOL0     H51570   7.770   3.739   2.784  0.1800 -0.6969  0.4117
  374MOL0     H51571   7.968   3.969   2.909  0.4144 -0.4501 -0.8439
  374MOL0     H51572   7.908   3.896   2.762  0.5667  2.2632  0.2319
  374MOL0     H51573   8.066   3.852   2.833  0.5729  2.1463  0.9315
  374MOL0     H51574   8.252   3.952   3.258 -1.4417  2.4196  0.3794
  374MOL0     H51575   8.365   4.035   3.463  1.9815 -2.1072 -0.4688
  374MOL0     H51576   8.230   3.905   3.802  1.2821  4.5962 -2.0902
  374MOL0     H51577   8.345   3.778   3.860  1.8170  0.3667  0.5023
  374MOL0     H51578   8.359   4.084   3.859  0.7473  0.6625  0.6907
  374MOL0     H51579   8.345   3.989   4.007  0.6680  0.9357 -0.1246
  374MOL0     H51580   8.597   3.957   3.831  2.3443  0.7668  1.2510
  374MOL0     H51581   8.561   3.881   3.975  0.8922  0.2991  0.3104
  374MOL0     H51582   8.519   4.117   4.082 -0.2732  2.1970 -0.3295
  374MOL0     H51583   8.594   4.183   3.938  3.5148 -1.5708 -0.7093
  374MOL0     H51584   8.732   3.999   4.143 -0.7130  0.3205  1.2742
  374MOL0     H51585   8.794   4.058   3.992 -0.0837 -1.5374  1.1486
  374MOL0     H51586   8.865   4.186   4.196  0.0292 -2.1194  0.9718
  374MOL0     H51587   8.705   4.250   4.207  0.1434 -3.0628  2.2910
  374MOL0     H51588   8.742   4.342   3.971  0.9294  1.9781 -0.2497
  374MOL0     H51589   8.905   4.261   3.976  1.3471  1.5278  0.2654
  374MOL0     H51590   8.959   4.432   4.160  0.2018 -3.0988 -1.0486
  374MOL0     H51591   8.791   4.482   4.155  1.4339  1.7353  0.8948
  374MOL0     H51592   8.235   3.693   3.678  1.6972  2.8270  1.8398
  374MOL0     H51593   8.112   3.603   3.480  2.9163 -2.5665  0.0172
  374MOL0     H51594   7.934   3.544   3.199  0.8419  1.8225 -0.4051
  374MOL0     H51595   7.746   3.435   3.095 -0.6750  1.1310 -0.0598
  374MOL0     H51596   6.402   4.392   2.069  0.8405 -0.7667  2.9787
  374MOL0     H51597   6.196   4.509   2.009  0.7051  1.5868 -3.0065
  374MOL0     H51598   5.889   4.826   1.945 -0.6095  1.0763 -2.3799
  374MOL0     H51599   5.736   5.018   1.895 -1.1701  1.4804  0.7568
  374MOL0     H51600   5.653   5.310   2.223 -0.7204  2.2056  0.2583
  374MOL0     H51601   5.762   5.419   2.136  1.1302 -1.6892 -2.0221
  374MOL0     H51602   5.562   5.457   1.968  2.6173  2.6017  0.7598
  374MOL0     H51603   5.558   5.525   2.128  0.3254  0.2408  0.4561
  374MOL0     H51604   5.435   5.248   2.037  1.7810 -0.0438 -0.9578
  374MOL0     H51605   5.428   5.323   2.199  1.4260  0.7099 -0.2171
  374MOL0     H51606   5.292   5.471   1.972 -0.6802  0.9461  0.1688
  374MOL0     H51607   5.271   5.480   2.149 -1.7297  0.1237 -0.3960
  374MOL0     H51608   5.020   5.165   2.083 -0.7100  1.7239  0.6637
  374MOL0     H51609   5.924   5.256   2.194 -1.4867 -0.1090  0.3225
  374MOL0     H51610   6.205   5.055   2.220 -0.2404 -0.2066 -0.1679
  374MOL0     H51611   6.123   5.186   2.289  2.3119 -0.2860 -0.9188
  374MOL0     H51612   6.099   5.010   2.359 -0.3713 -0.9720 -0.0539
  375MOL0     O51613   5.784   8.685  10.184  0.1992 -0.4846 -0.1650
  375MOL0     C51614   5.693   8.667  10.261  1.4260 -0.2733 -0.3516
  375MOL0     O51615   5.698   8.610  10.379 -0.4303 -0.3924 -0.3434
  375MOL0     C51616   5.829   8.563  10.415  0.0512 -0.8012  0.2636
  375MOL0     C51617   5.896   8.610  10.525  0.4084 -0.0484 -0.3525
  375MOL0     C51618   6.030   8.558  10.555  0.2535  0.2607 -0.9520
  375MOL0     C51619   6.094   8.463  10.472 -0.6179  0.1794 -0.9687
  375MOL0     O51620   6.220   8.416  10.497 -0.3153  0.0726  0.4416
  375MOL0     C51621   6.289   8.449  10.616 -1.1052 -0.3232 -0.7681
  375MOL0     C51622   6.430   8.400  10.604 -0.1525  0.4262  0.1967
  375MOL0     C51623   6.509   8.449  10.724 -0.3170 -0.7021 -0.1667
  375MOL0     C51624   6.642   8.359  10.750  0.2369  0.3076 -1.0575
  375MOL0     C51625   6.755   8.409  10.660  0.3563  1.1151 -0.1746
  375MOL0     C51626   6.896   8.414  10.726 -0.2490  0.4078 -0.1482
  375MOL0     C51627   6.944   8.278  10.776 -0.5314 -0.9041 -0.1036
  375MOL0     C51628   7.101   8.288  10.804  0.3128  0.6651 -0.0274
  375MOL0     N51629   7.146   8.157  10.850 -0.0601  0.7080  0.1289
  375MOL0     C51630   7.144   8.037  10.785  0.7314  0.4189  0.3606
  375MOL0     C51631   7.195   7.956  10.880 -0.4706  0.0475 -0.1970
  375MOL0     C51632   7.226   7.809  10.854  0.1851  0.7423  0.6349
  375MOL0     C51633   7.374   7.781  10.799  1.1820  0.0167  0.1260
  375MOL0     C51634   7.492   7.841  10.876  0.4975  0.1142  0.3955
  375MOL0     C51635   7.541   7.747  10.988  1.2573 -1.1256  0.4799
  375MOL0     O51636   7.652   7.805  11.060  0.4068 -0.4816  0.3004
  375MOL0     C51637   7.780   7.798  11.010  0.1857  0.5033  0.7999
  375MOL0     C51638   7.867   7.888  11.072  0.9389  0.2867 -0.1104
  375MOL0     C51639   7.998   7.899  11.043  0.2917 -0.1306  1.1896
  375MOL0     C51640   8.072   8.002  11.123 -0.0692  0.6166 -0.1992
  375MOL0     C51641   8.043   7.836  10.925  0.1960 -0.5364 -0.1229
  375MOL0     C51642   8.191   7.827  10.875  1.4503  0.5669 -1.2606
  375MOL0     O51643   8.214   7.759  10.751 -0.5083 -0.7044 -0.2302
  375MOL0     C51644   8.327   7.709  10.726 -1.0317 -0.0000  0.6439
  375MOL0     C51645   8.439   7.789  10.730 -1.3991 -0.3727  1.2138
  375MOL0     C51646   8.570   7.739  10.697 -0.3748 -0.0001 -0.4210
  375MOL0     C51647   8.581   7.610  10.654 -0.8907 -0.3612  0.1582
  375MOL0     O51648   8.715   7.573  10.624 -0.1686 -0.1703 -0.2958
  375MOL0     C51649   8.722   7.459  10.535  0.8697 -0.1550 -0.4660
  375MOL0     C51650   8.764   7.342  10.616  0.5866  0.5262  0.5867
  375MOL0     C51651   8.912   7.334  10.648  0.1127  0.7245 -0.2589
  375MOL0     C51652   8.949   7.192  10.699 -0.0290 -0.9414 -0.0316
  375MOL0     C51653   9.086   7.186  10.758 -0.0785  0.1097  0.1795
  375MOL0     C51654   9.079   7.230  10.902 -0.4343  0.8465 -0.0664
  375MOL0     C51655   9.224   7.213  10.964  0.1501  0.1525  0.6829
  375MOL0     C51656   9.274   7.348  11.021  0.6474  0.0567 -0.4547
  375MOL0    Cl51657   9.429   7.328  11.099  0.1696  0.0313  0.0665
  375MOL0     C51658   8.471   7.522  10.658  1.1995 -0.3750 -0.0962
  375MOL0     C51659   8.337   7.577  10.686  0.7065 -0.0195  0.5127
  375MOL0     O51660   8.278   7.846  10.955  0.4875 -0.4164 -0.9610
  375MOL0     C51661   7.949   7.768  10.836 -0.2990  0.5200 -0.8210
  375MOL0     C51662   7.825   7.736  10.890  0.6762  0.3934  0.5943
  375MOL0     N51663   7.232   8.014  10.998  0.3864  0.2074 -0.4596
  375MOL0     N51664   7.191   8.135  10.980  0.3795 -0.4534  0.7707
  375MOL0     C51665   6.027   8.427  10.359  0.2536 -0.4429 -0.1896
  375MOL0     C51666   5.898   8.472  10.327  0.6843  0.5114 -0.7652
  375MOL0     C51667   5.558   8.700  10.207  0.2386 -0.9229  0.8603
  375MOL0     C51668   5.464   8.750  10.299 -1.0208 -0.9094 -0.0458
  375MOL0     C51669   5.337   8.775  10.270  0.2171  0.6168  0.3346
  375MOL0     C51670   5.292   8.759  10.145 -0.4519 -0.4895  0.2026
  375MOL0     O51671   5.156   8.785  10.126 -0.0461 -0.7106  0.3119
  375MOL0     C51672   5.142   8.913  10.059  0.5833 -1.4727  0.1219
  375MOL0     C51673   4.989   8.932  10.031 -0.2289  0.3524 -0.2254
  375MOL0     C51674   4.895   8.877  10.138 -0.4697 -0.3045 -1.2807
  375MOL0     C51675   4.943   8.954  10.274 -0.7771  0.0720  0.2108
  375MOL0     C51676   4.836   8.991  10.364  0.2523 -0.3575  1.0692
  375MOL0     C51677   4.731   9.020  10.417 -0.2960 -0.0520  0.3312
  375MOL0     C51678   5.378   8.713  10.043 -0.5937 -0.6165 -0.6295
  375MOL0     C51679   5.513   8.680  10.066  0.0202 -0.1821  0.3459
  375MOL0     C51680   5.602   8.619   9.958  0.1975  1.0249  0.0059
  375MOL0     H51681   5.845   8.677  10.593 -1.1945 -1.4650 -0.0940
  375MOL0     H51682   6.084   8.608  10.635 -1.2012 -0.4256  0.5156
  375MOL0     H51683   6.242   8.414  10.709  1.0234  1.2004  1.0087
  375MOL0     H51684   6.296   8.558  10.623  0.7634 -0.5040  1.5297
  375MOL0     H51685   6.436   8.291  10.596  1.9735  0.3309  1.9502
  375MOL0     H51686   6.471   8.450  10.516  1.0206  0.8331  0.9359
  375MOL0     H51687   6.535   8.555  10.720 -0.5118 -0.5732  1.2209
  375MOL0     H51688   6.444   8.440  10.812 -2.3079  0.2360 -1.4493
  375MOL0     H51689   6.672   8.373  10.854  0.8274  0.8397 -1.2952
  375MOL0     H51690   6.629   8.251  10.751 -1.6425  0.4532  1.7928
  375MOL0     H51691   6.733   8.513  10.636 -2.3649  0.9343  1.1631
  375MOL0     H51692   6.759   8.345  10.571 -0.2507  1.4747 -0.4673
  375MOL0     H51693   6.965   8.442  10.646 -0.0602 -2.8995 -1.3112
  375MOL0     H51694   6.893   8.478  10.815 -3.4648 -2.0595  1.7329
  375MOL0     H51695   6.924   8.200  10.703 -0.5838 -1.5192  0.5628
  375MOL0     H51696   6.895   8.254  10.871 -0.8809  1.2764  0.3432
  375MOL0     H51697   7.157   8.306  10.711 -0.5343 -2.1652 -1.2018
  375MOL0     H51698   7.127   8.369  10.873  0.5377 -1.5747  2.6939
  375MOL0     H51699   7.115   8.008  10.685  2.4790 -0.7206  0.1458
  375MOL0     H51700   7.159   7.765  10.780  0.0210  0.6098  0.8612
  375MOL0     H51701   7.219   7.760  10.951 -0.1308  0.3924  0.4336
  375MOL0     H51702   7.398   7.675  10.788  3.1787  0.0477  3.0399
  375MOL0     H51703   7.370   7.826  10.699  2.0711  0.7077  0.3899
  375MOL0     H51704   7.578   7.839  10.807  2.0079 -0.5837  2.2037
  375MOL0     H51705   7.486   7.944  10.910 -2.6884  0.4900 -0.9480
  375MOL0     H51706   7.458   7.715  11.052  1.1093  0.1103  0.9362
  375MOL0     H51707   7.570   7.651  10.945 -0.0101 -1.8716  1.2240
  375MOL0     H51708   7.832   7.938  11.161  1.3814 -3.3789  2.3525
  375MOL0     H51709   8.007   8.089  11.135 -1.2217  0.1503 -2.5569
  375MOL0     H51710   8.167   8.027  11.074 -0.8090  0.7196 -1.6141
  375MOL0     H51711   8.107   7.952  11.214  0.2455 -1.7688 -1.5486
  375MOL0     H51712   8.435   7.893  10.762 -0.5904  0.5769 -1.4666
  375MOL0     H51713   8.654   7.808  10.699 -0.8097  0.5863 -1.4250
  375MOL0     H51714   8.627   7.441  10.484  0.2353  1.3561  0.1424
  375MOL0     H51715   8.786   7.472  10.446  2.2151  1.8626  0.7119
  375MOL0     H51716   8.699   7.329  10.703  0.0212  0.6336  0.1862
  375MOL0     H51717   8.739   7.254  10.556  2.8494 -0.3719  0.8821
  375MOL0     H51718   8.930   7.405  10.730 -3.2842 -0.7230  1.9750
  375MOL0     H51719   8.969   7.357  10.558  2.0112 -2.2551  0.0467
  375MOL0     H51720   8.942   7.118  10.618 -0.4424 -1.1191  0.1643
  375MOL0     H51721   8.870   7.158  10.766  0.3776 -1.7186  0.0586
  375MOL0     H51722   9.118   7.082  10.764 -1.0716 -0.1681  0.7434
  375MOL0     H51723   9.156   7.247  10.699 -1.9105  1.1048 -1.0506
  375MOL0     H51724   9.005   7.188  10.971  2.2976 -2.5365  1.0444
  375MOL0     H51725   9.063   7.338  10.908  1.4576  1.1554 -0.1610
  375MOL0     H51726   9.294   7.184  10.884  0.7510 -1.9238  1.8785
  375MOL0     H51727   9.225   7.131  11.037  1.0028 -0.6243 -0.1630
  375MOL0     H51728   9.203   7.379  11.098 -0.8029 -0.0526 -1.6888
  375MOL0     H51729   9.290   7.433  10.953  1.3771 -0.2721 -0.6960
  375MOL0     H51730   8.468   7.415  10.640 -1.6076 -0.7263  1.7363
  375MOL0     H51731   8.250   7.513  10.676  0.4007  0.4468  0.1326
  375MOL0     H51732   7.982   7.720  10.744  2.7540 -1.9542  1.3684
  375MOL0     H51733   7.769   7.657  10.841  0.3684  0.4138  0.9094
  375MOL0     H51734   6.071   8.363  10.283  1.5207  1.9649 -1.6071
  375MOL0     H51735   5.846   8.424  10.245  1.4926  1.3872 -1.8049
  375MOL0     H51736   5.492   8.778  10.400  1.7587 -0.0814 -0.9547
  375MOL0     H51737   5.257   8.808  10.335 -4.0474 -1.0448 -3.4840
  375MOL0     H51738   5.175   8.994  10.124 -0.8701 -1.2728  0.6224
  375MOL0     H51739   5.193   8.915   9.962 -2.1059 -0.1568 -1.3526
  375MOL0     H51740   4.967   8.871   9.943 -0.1840 -0.2633  0.1895
  375MOL0     H51741   4.976   9.040  10.021  1.1686  0.7110  1.3607
  375MOL0     H51742   4.790   8.890  10.111 -0.3124  2.0692 -1.0246
  375MOL0     H51743   4.905   8.770  10.159 -0.8528  0.1749  1.6832
  375MOL0     H51744   5.009   9.040  10.263  3.1644 -2.4609  1.9584
  375MOL0     H51745   5.007   8.887  10.332 -0.8561 -0.4458 -0.2821
  375MOL0     H51746   4.642   9.030  10.475  0.0372  1.3242  0.6649
  375MOL0     H51747   5.333   8.710   9.944  1.1463  0.6565 -1.5303
  375MOL0     H51748   5.664   8.540  10.001  0.7108  1.4974  0.1363
  375MOL0     H51749   5.548   8.590   9.867  0.2374  1.9010 -0.3033
  375MOL0     H51750   5.675   8.693   9.924  2.1612 -0.7005  0.2709
  376MOL0     O51751   0.511  10.731   0.204  0.4915  0.1776  0.1743
  376MOL0     C51752   0.626  10.713   0.157  0.5249 -0.0591 -0.2798
  376MOL0     O51753   0.720  10.624   0.204  0.4858  0.0431 -0.0076
  376MOL0     C51754   0.697  10.582   0.329  0.2158  0.1975  0.1729
  376MOL0     C51755   0.598  10.493   0.354 -0.0519 -0.1544 -0.0977
  376MOL0     C51756   0.577  10.452   0.488 -0.5644 -0.2560  0.2079
  376MOL0     C51757   0.647  10.503   0.596 -0.6098  1.6159 -0.3853
  376MOL0     O51758   0.617  10.451   0.721  0.5071  0.0193 -0.1304
  376MOL0     C51759   0.683  10.507   0.836 -0.7057 -0.1902 -0.4420
  376MOL0     C51760   0.641  10.444   0.966 -0.6260  0.1526 -0.3653
  376MOL0     C51761   0.696  10.307   0.986  0.3238  0.2959  0.0726
  376MOL0     C51762   0.667  10.257   1.127  0.1554  0.1933 -0.4559
  376MOL0     C51763   0.683  10.108   1.151 -0.5093  0.1181  0.5880
  376MOL0     C51764   0.573  10.019   1.093 -0.4947 -0.5551  1.1122
  376MOL0     C51765   0.596   9.872   1.140  0.1933 -0.6680  0.3471
  376MOL0     C51766   0.544   9.760   1.050 -0.3411 -0.0461  0.0149
  376MOL0     N51767   0.406   9.772   1.013  0.1005 -0.1524 -0.1612
  376MOL0     C51768   0.305   9.847   1.069  0.5061  0.0823  0.3937
  376MOL0     C51769   0.196   9.833   0.995  0.1462  0.0525  0.0948
  376MOL0     C51770   0.056   9.895   1.011  0.3198  0.1038  0.6529
  376MOL0     C51771   0.057  10.040   0.992  0.1459 -0.8250  0.2469
  376MOL0     C51772  -0.087  10.090   0.986  0.1343  0.4769 -0.4281
  376MOL0     C51773  -0.103  10.241   0.960  0.4043  0.3317 -0.6453
  376MOL0     O51774  -0.241  10.278   1.005  0.1366  0.2929  0.6237
  376MOL0     C51775  -0.294  10.399   0.967 -0.3058 -0.2662 -0.2391
  376MOL0     C51776  -0.427  10.423   1.006 -0.6866  0.1382  0.1740
  376MOL0     C51777  -0.497  10.538   0.975 -0.3331 -0.7937  1.6048
  376MOL0     C51778  -0.641  10.556   1.021 -0.1693  0.1111 -0.5154
  376MOL0     C51779  -0.433  10.636   0.902 -0.2591 -0.7828 -0.2008
  376MOL0     C51780  -0.484  10.769   0.868  0.4256 -1.3384 -0.1761
  376MOL0     O51781  -0.562  10.837   0.955 -0.3340  0.1292  0.3614
  376MOL0     C51782  -0.624  10.955   0.921  0.3460 -1.4302 -0.2333
  376MOL0     C51783  -0.549  11.072   0.892 -0.6981 -0.7486  0.8533
  376MOL0     C51784  -0.601  11.194   0.857  0.2806 -0.5484  0.8678
  376MOL0     C51785  -0.740  11.206   0.854  0.1853 -0.0656 -1.2148
  376MOL0     O51786  -0.812  11.317   0.842  0.0328 -0.0874  0.4237
  376MOL0     C51787  -0.754  11.424   0.767 -1.0809  0.2080 -0.7475
  376MOL0     C51788  -0.847  11.487   0.662  0.6432 -0.2504  0.1903
  376MOL0     C51789  -0.957  11.579   0.720  0.4390  0.0138 -0.9101
  376MOL0     C51790  -1.063  11.606   0.612  0.5008  0.9076  0.0890
  376MOL0     C51791  -1.151  11.726   0.654 -0.1498 -0.3080  0.7189
  376MOL0     C51792  -1.257  11.764   0.547 -0.5858  0.5926 -0.2160
  376MOL0     C51793  -1.342  11.886   0.580 -0.0376  0.0675 -0.1360
  376MOL0     C51794  -1.467  11.890   0.502  0.1394 -0.4200 -1.1016
  376MOL0    Cl51795  -1.435  11.929   0.332  0.3410 -0.8491 -0.0366
  376MOL0     C51796  -0.816  11.093   0.879 -0.1904 -0.1203 -0.1354
  376MOL0     C51797  -0.762  10.966   0.910  0.1947  0.5634  0.4211
  376MOL0     O51798  -0.445  10.812   0.763  0.0317  0.6063  0.2515
  376MOL0     C51799  -0.301  10.610   0.866  0.6429 -0.5466 -0.0324
  376MOL0     C51800  -0.226  10.495   0.897 -0.6785 -0.1965 -0.5862
  376MOL0     N51801   0.233   9.748   0.887  0.0105 -0.6261  0.1854
  376MOL0     N51802   0.360   9.709   0.901  0.3710  0.0517 -0.6688
  376MOL0     C51803   0.745  10.598   0.562 -0.8966  0.0104  0.2387
  376MOL0     C51804   0.782  10.626   0.428 -0.3355 -0.0749  0.1321
  376MOL0     C51805   0.673  10.823   0.075 -0.2969 -0.3352 -0.4962
  376MOL0     C51806   0.799  10.885   0.096 -0.7848 -0.2288 -0.5554
  376MOL0     C51807   0.841  10.999   0.030 -0.3119 -0.3968  0.2715
  376MOL0     C51808   0.768  11.056  -0.072 -0.3742  0.5313  0.6377
  376MOL0     O51809   0.818  11.166  -0.136  0.1462 -0.2462 -0.4902
  376MOL0     C51810   0.732  11.240  -0.229 -0.6807 -0.5860 -0.4083
  376MOL0     C51811   0.819  11.339  -0.312 -0.9981  0.8368  0.8292
  376MOL0     C51812   0.739  11.402  -0.419  1.3721 -0.6342 -0.2062
  376MOL0     C51813   0.662  11.525  -0.351 -0.4465  1.1348 -0.3009
  376MOL0     C51814   0.554  11.563  -0.442  1.2793  0.0876 -0.8376
  376MOL0     C51815   0.458  11.581  -0.510  0.5977  0.5767 -0.2083
  376MOL0     C51816   0.643  10.995  -0.097  0.7636 -0.4478 -0.6982
  376MOL0     C51817   0.598  10.878  -0.027  1.0677 -0.0740  1.0128
  376MOL0     C51818   0.464  10.814  -0.065  0.6843  0.4685 -0.0127
  376MOL0     H51819   0.534  10.457   0.274 -0.4351  0.4622 -0.0841
  376MOL0     H51820   0.489  10.394   0.513 -1.6521  1.7854  1.4067
  376MOL0     H51821   0.653  10.612   0.836  0.6167  0.2104 -0.5585
  376MOL0     H51822   0.791  10.501   0.820 -0.4809 -0.5878  1.1329
  376MOL0     H51823   0.686  10.497   1.050 -0.9722 -0.4581  0.2229
  376MOL0     H51824   0.534  10.461   0.983 -0.6881  0.0508 -0.6478
  376MOL0     H51825   0.649  10.236   0.917  2.5034 -0.8193 -0.3328
  376MOL0     H51826   0.803  10.310   0.966  1.2472 -2.5122  3.5912
  376MOL0     H51827   0.744  10.303   1.190  1.2030 -2.0513  0.0052
  376MOL0     H51828   0.563  10.283   1.146 -0.0940  1.0534 -2.6476
  376MOL0     H51829   0.685  10.081   1.258 -2.3430 -4.2426 -0.2605
  376MOL0     H51830   0.781  10.073   1.115 -0.4747 -0.7772  1.4815
  376MOL0     H51831   0.476  10.056   1.128  0.2378  1.7262  0.8851
  376MOL0     H51832   0.579  10.023   0.984  3.7530 -1.2010  1.1892
  376MOL0     H51833   0.550   9.871   1.240 -0.8368  2.1112 -0.0025
  376MOL0     H51834   0.701   9.853   1.167  0.6160  3.2659  2.3009
  376MOL0     H51835   0.607   9.750   0.962  1.3115  0.7929  1.0560
  376MOL0     H51836   0.545   9.671   1.114  0.8321 -0.4266 -0.5143
  376MOL0     H51837   0.309   9.912   1.156  1.7951 -1.1955  1.3317
  376MOL0     H51838   0.028   9.865   1.113 -1.1535 -0.1036  0.2186
  376MOL0     H51839  -0.019   9.850   0.945  0.7073  2.2224 -1.3621
  376MOL0     H51840   0.106  10.087   1.077  0.8032  1.0983 -1.1399
  376MOL0     H51841   0.110  10.056   0.898 -0.4478 -0.7969 -0.0897
  376MOL0     H51842  -0.153  10.033   0.920  0.3625 -0.8035  0.4175
  376MOL0     H51843  -0.119  10.069   1.089 -2.2738  1.6941 -0.8510
  376MOL0     H51844  -0.029  10.289   1.024 -0.9062  2.7406 -0.7999
  376MOL0     H51845  -0.080  10.260   0.854  1.2919  3.5165  0.0211
  376MOL0     H51846  -0.481  10.346   1.059  0.4675 -0.4230  0.5550
  376MOL0     H51847  -0.645  10.598   1.122  1.1369  0.5710 -0.6432
  376MOL0     H51848  -0.680  10.454   1.021  0.2991 -0.0757  0.1948
  376MOL0     H51849  -0.709  10.608   0.953  0.2430  1.5298  0.1180
  376MOL0     H51850  -0.444  11.056   0.913 -0.1746  2.0177  0.7750
  376MOL0     H51851  -0.537  11.276   0.827 -1.7765  1.7425  2.3500
  376MOL0     H51852  -0.717  11.502   0.834 -0.3654  1.1521 -2.1654
  376MOL0     H51853  -0.664  11.392   0.713 -2.3267 -1.3861 -1.9910
  376MOL0     H51854  -0.785  11.549   0.596  1.0049 -0.9167 -0.1101
  376MOL0     H51855  -0.897  11.414   0.597  1.0964  0.9176 -1.5301
  376MOL0     H51856  -0.917  11.675   0.755  3.0139 -1.5782  0.8053
  376MOL0     H51857  -1.011  11.532   0.803 -2.0759  0.8483 -1.9505
  376MOL0     H51858  -1.134  11.523   0.606  0.7688  0.2250  4.0594
  376MOL0     H51859  -1.022  11.626   0.512  2.8548  2.0629  1.2132
  376MOL0     H51860  -1.208  11.696   0.743 -2.1465  1.4402  0.0994
  376MOL0     H51861  -1.083  11.808   0.680 -0.1228 -0.4498  1.1102
  376MOL0     H51862  -1.319  11.678   0.519 -0.1829  1.4847 -4.5278
  376MOL0     H51863  -1.207  11.789   0.453 -0.4127  1.0050 -0.0189
  376MOL0     H51864  -1.273  11.970   0.570  2.6371 -1.7176  1.8970
  376MOL0     H51865  -1.375  11.883   0.684  1.4120  0.5216  0.3663
  376MOL0     H51866  -1.549  11.949   0.543  1.2277  0.2980  0.1529
  376MOL0     H51867  -1.509  11.789   0.504 -2.0839  0.4516 -0.9830
  376MOL0     H51868  -0.923  11.111   0.886  0.2653  2.7379  0.3658
  376MOL0     H51869  -0.825  10.880   0.932 -1.8709  2.1260  0.9190
  376MOL0     H51870  -0.233  10.686   0.828  1.4114 -1.4013 -0.4146
  376MOL0     H51871  -0.124  10.493   0.860 -0.8328  1.9552 -1.2733
  376MOL0     H51872   0.818  10.638   0.632 -1.8429  0.9878  0.6938
  376MOL0     H51873   0.863  10.693   0.401 -1.3735  0.8161 -0.8796
  376MOL0     H51874   0.863  10.849   0.175  0.8743 -0.0296 -1.7690
  376MOL0     H51875   0.937  11.043   0.053 -1.0767  0.8003  1.2870
  376MOL0     H51876   0.687  11.176  -0.305  1.3081 -0.2530 -1.9699
  376MOL0     H51877   0.645  11.284  -0.180  0.3447  0.4744  0.5052
  376MOL0     H51878   0.895  11.278  -0.363 -1.7019  0.2668  0.4463
  376MOL0     H51879   0.868  11.411  -0.246 -0.0217 -0.4033  1.5123
  376MOL0     H51880   0.797  11.445  -0.502  0.1038  1.1337 -0.2208
  376MOL0     H51881   0.671  11.331  -0.466  1.7096 -1.3176  0.3208
  376MOL0     H51882   0.719  11.618  -0.345  0.1042  0.9738 -2.2954
  376MOL0     H51883   0.625  11.507  -0.250  0.0683  2.4002  0.1416
  376MOL0     H51884   0.369  11.590  -0.569  1.3190  0.1078 -1.4102
  376MOL0     H51885   0.575  11.043  -0.165  1.0353  1.7031  0.4678
  376MOL0     H51886   0.386  10.843   0.006  1.8410  2.3756  0.5478
  376MOL0     H51887   0.437  10.853  -0.164  2.6115  0.7760 -0.4491
  376MOL0     H51888   0.470  10.705  -0.074  0.1154  0.5294 -1.6090
  377MOL0     O51889   8.478   6.040   9.662  0.8447  0.5641 -0.1116
  377MOL0     C51890   8.525   5.973   9.569 -0.0218 -0.1554  0.7929
  377MOL0     O51891   8.641   5.905   9.576  0.0305  0.4665 -0.7650
  377MOL0     C51892   8.716   5.894   9.688 -0.4135  0.8761  0.0688
  377MOL0     C51893   8.843   5.842   9.666  0.7675 -0.2383  0.2737
  377MOL0     C51894   8.935   5.835   9.770  0.7906  0.0327 -0.7444
  377MOL0     C51895   8.892   5.863   9.900 -0.3959 -0.8113 -0.6761
  377MOL0     O51896   8.990   5.867   9.996  0.9792 -0.3030  0.0808
  377MOL0     C51897   8.972   5.787  10.116  0.3859  0.4252 -0.1629
  377MOL0     C51898   9.053   5.657  10.096  0.2733 -0.1296 -0.2829
  377MOL0     C51899   9.153   5.645  10.209  0.0787 -0.2898 -0.9598
  377MOL0     C51900   9.255   5.533  10.189 -0.7757 -0.5532  0.7214
  377MOL0     C51901   9.391   5.577  10.133 -0.2880  0.2752  0.1102
  377MOL0     C51902   9.448   5.443  10.075  0.4885 -0.4745 -0.0321
  377MOL0     C51903   9.592   5.468  10.025  0.5252 -0.2464 -1.3271
  377MOL0     C51904   9.698   5.483  10.131  1.0025 -0.3639 -0.5555
  377MOL0     N51905   9.700   5.370  10.230  0.3996 -0.0957 -0.7715
  377MOL0     C51906   9.656   5.386  10.361  0.3186  0.5212  0.2429
  377MOL0     C51907   9.684   5.261  10.409  0.6737  0.0403 -0.4877
  377MOL0     C51908   9.643   5.208  10.548  0.0759  0.2611  0.3677
  377MOL0     C51909   9.754   5.119  10.603 -0.4409 -0.6437  1.3389
  377MOL0     C51910   9.879   5.194  10.648  0.3450 -0.1573  0.5725
  377MOL0     C51911   9.986   5.118  10.716 -0.9347 -0.2689  0.7945
  377MOL0     O51912  10.086   5.213  10.763 -0.4778  0.6262 -0.1393
  377MOL0     C51913  10.217   5.187  10.742 -0.1227  0.5378  0.1429
  377MOL0     C51914  10.293   5.289  10.687 -0.2841 -0.3563  0.1400
  377MOL0     C51915  10.425   5.273  10.650 -0.7826  0.0964 -0.4161
  377MOL0     C51916  10.486   5.393  10.588 -0.0582  0.7280  0.3739
  377MOL0     C51917  10.492   5.144  10.669 -0.0543 -0.0114  0.0615
  377MOL0     C51918  10.628   5.115  10.620  0.2770 -0.5732 -0.8562
  377MOL0     O51919  10.668   4.992  10.587  0.6753 -0.2867 -0.2508
  377MOL0     C51920  10.796   4.972  10.537 -0.3313 -0.0354 -0.4022
  377MOL0     C51921  10.872   4.885  10.617  0.0295  0.1212 -0.5732
  377MOL0     C51922  11.000   4.842  10.576 -0.0504 -0.5346 -0.5648
  377MOL0     C51923  11.052   4.899  10.458  0.3913  0.3243  0.4750
  377MOL0     O51924  11.180   4.862  10.418  0.0173 -0.2004  0.0768
  377MOL0     C51925  11.226   4.726  10.433  0.2578  0.4338 -0.6320
  377MOL0     C51926  11.371   4.720  10.382  0.0923  0.1531 -0.2911
  377MOL0     C51927  11.439   4.582  10.383  0.9186 -0.4106  0.7503
  377MOL0     C51928  11.555   4.563  10.300 -0.4085  0.5117  0.0962
  377MOL0     C51929  11.573   4.413  10.267 -0.2844  0.3293 -0.2442
  377MOL0     C51930  11.589   4.326  10.389 -0.6857  0.8136 -0.5654
  377MOL0     C51931  11.648   4.184  10.366  0.0883 -0.4117  0.0216
  377MOL0     C51932  11.792   4.201  10.326  0.4240  0.2367 -0.2390
  377MOL0    Cl51933  11.867   4.041  10.322  0.4934 -0.0735  0.1739
  377MOL0     C51934  10.976   4.997  10.393 -0.2763 -0.2421  0.1047
  377MOL0     C51935  10.842   5.023  10.421 -1.1069 -0.1366 -0.6140
  377MOL0     O51936  10.701   5.211  10.645 -0.5453 -0.6336  0.8559
  377MOL0     C51937  10.410   5.040  10.723  0.3563  0.1716  0.5133
  377MOL0     C51938  10.274   5.060  10.762  0.1631 -0.0413  0.2530
  377MOL0     N51939   9.746   5.186  10.308 -0.0297  0.5648 -0.5407
  377MOL0     N51940   9.745   5.251  10.199  0.2079 -0.5909 -0.5789
  377MOL0     C51941   8.762   5.903   9.930 -0.2096 -0.0690 -0.2363
  377MOL0     C51942   8.675   5.918   9.821  0.1536 -0.4810 -0.7140
  377MOL0     C51943   8.456   5.974   9.440 -0.4474  0.1422  0.3397
  377MOL0     C51944   8.502   5.892   9.344 -0.3498 -0.4645  0.2230
  377MOL0     C51945   8.438   5.884   9.220  0.5017  0.2554  0.3140
  377MOL0     C51946   8.318   5.941   9.197 -0.4603  0.5709 -0.6831
  377MOL0     O51947   8.259   5.887   9.085  0.0530  0.0626  0.1165
  377MOL0     C51948   8.141   5.944   9.036  1.2106 -0.3967  0.1158
  377MOL0     C51949   8.097   5.880   8.910 -0.1712  0.0976  0.0603
  377MOL0     C51950   8.193   5.915   8.797  0.1565  0.2822 -0.9200
  377MOL0     C51951   8.165   5.831   8.667  0.2176  0.0761  0.5214
  377MOL0     C51952   8.048   5.894   8.606 -0.3447  0.0477  0.2163
  377MOL0     C51953   7.952   5.929   8.538  1.4897  0.1165 -0.7432
  377MOL0     C51954   8.265   6.030   9.290  0.0362 -0.1111 -0.3790
  377MOL0     C51955   8.335   6.052   9.412 -0.3590 -0.6870 -1.3543
  377MOL0     C51956   8.272   6.159   9.497  0.4893 -0.3057 -0.9639
  377MOL0     H51957   8.873   5.830   9.562  1.0932  0.8851  0.2143
  377MOL0     H51958   9.042   5.822   9.757  0.9984  0.8646  0.0171
  377MOL0     H51959   8.867   5.769  10.140  0.7623 -1.1651  0.4730
  377MOL0     H51960   9.009   5.841  10.204 -0.3637 -0.9174  1.0268
  377MOL0     H51961   8.988   5.570  10.111 -1.6698  1.3732  0.5329
  377MOL0     H51962   9.104   5.663  10.000 -1.0530  3.2133 -0.9358
  377MOL0     H51963   9.207   5.740  10.210  0.9070 -0.7576 -1.1250
  377MOL0     H51964   9.098   5.638  10.304  1.7647  0.5100  0.1329
  377MOL0     H51965   9.280   5.488  10.285  2.9196  0.2827  0.3187
  377MOL0     H51966   9.198   5.461  10.129 -0.7626  0.1620 -0.1780
  377MOL0     H51967   9.459   5.618  10.207 -0.4650  2.5081 -0.8794
  377MOL0     H51968   9.369   5.652  10.056 -0.1847 -0.7820 -0.9734
  377MOL0     H51969   9.430   5.363  10.147 -1.6169 -0.7605 -0.7923
  377MOL0     H51970   9.395   5.426   9.981  2.8014 -2.4578 -1.0910
  377MOL0     H51971   9.594   5.548   9.951  4.0260 -0.6172 -1.8211
  377MOL0     H51972   9.609   5.375   9.969  0.0486  0.2075 -2.2365
  377MOL0     H51973   9.798   5.483  10.087  3.1680  1.1961  3.7629
  377MOL0     H51974   9.689   5.579  10.184  2.8699 -2.2853  3.6692
  377MOL0     H51975   9.604   5.466  10.413 -1.0199 -1.1928  1.7054
  377MOL0     H51976   9.556   5.143  10.535 -0.9355  1.0601  2.5634
  377MOL0     H51977   9.615   5.283  10.623 -0.7692  2.2397 -1.8136
  377MOL0     H51978   9.719   5.078  10.699 -0.6085 -3.3859  0.2042
  377MOL0     H51979   9.770   5.026  10.547  1.7596 -0.5905  1.7943
  377MOL0     H51980   9.922   5.243  10.560 -3.4537  2.8090  0.1002
  377MOL0     H51981   9.851   5.271  10.720  0.4439 -1.2403  1.7881
  377MOL0     H51982   9.941   5.061  10.798  2.9189 -2.9949  1.2794
  377MOL0     H51983  10.020   5.043  10.644 -2.6223 -0.0376 -0.3058
  377MOL0     H51984  10.247   5.386  10.671 -1.5818 -0.1352  4.0919
  377MOL0     H51985  10.553   5.361  10.509 -1.7444 -0.1147 -0.7789
  377MOL0     H51986  10.551   5.442  10.662  0.2771  0.4212  0.2844
  377MOL0     H51987  10.409   5.463  10.552  0.6032  0.7663 -1.0107
  377MOL0     H51988  10.829   4.854  10.712 -0.1153 -0.3464 -0.7909
  377MOL0     H51989  11.049   4.773  10.643  0.3423  0.3090  0.0386
  377MOL0     H51990  11.222   4.703  10.540 -2.0056  0.5622 -0.6425
  377MOL0     H51991  11.162   4.648  10.390  1.0496 -0.6260  0.0663
  377MOL0     H51992  11.366   4.765  10.282  3.0084 -0.9065 -1.0216
  377MOL0     H51993  11.434   4.790  10.437 -0.3024 -0.4806  1.0045
  377MOL0     H51994  11.367   4.508  10.350  2.0227 -0.7865 -0.9445
  377MOL0     H51995  11.466   4.552  10.485 -1.2163  0.0892  1.5119
  377MOL0     H51996  11.641   4.597  10.359 -0.2680  0.2881  0.0174
  377MOL0     H51997  11.553   4.617  10.205 -2.1200  1.6858  0.7415
  377MOL0     H51998  11.489   4.368  10.214 -0.6223  1.4979 -0.7303
  377MOL0     H51999  11.662   4.406  10.203 -0.2612  0.8021 -0.2707
  377MOL0     H52000  11.492   4.325  10.440 -1.5673  0.9523 -2.1614
  377MOL0     H52001  11.652   4.378  10.462  0.1328 -1.4369  0.4160
  377MOL0     H52002  11.596   4.119  10.294 -1.3766 -0.7747  1.3532
  377MOL0     H52003  11.643   4.139  10.465 -0.4575 -1.2888 -0.3891
  377MOL0     H52004  11.850   4.251  10.404  2.9511 -3.8897  0.8808
  377MOL0     H52005  11.804   4.244  10.226  0.1800  0.9271  0.0218
  377MOL0     H52006  11.021   5.049  10.309 -0.2740  2.0141  1.4501
  377MOL0     H52007  10.779   5.083  10.357 -2.9961  0.8450  1.9934
  377MOL0     H52008  10.446   4.938  10.730 -0.1763 -0.1264 -0.7400
  377MOL0     H52009  10.214   4.979  10.801 -0.4462 -0.5166 -1.5391
  377MOL0     H52010   8.733   5.927  10.031 -1.3963 -1.6047 -0.1770
  377MOL0     H52011   8.572   5.938   9.846 -0.5880 -2.0837 -2.2111
  377MOL0     H52012   8.590   5.830   9.362 -0.1825 -0.3328 -0.1182
  377MOL0     H52013   8.477   5.818   9.144 -0.8363  2.4602 -2.4643
  377MOL0     H52014   8.056   5.945   9.104  0.2682 -2.7946 -0.9034
  377MOL0     H52015   8.157   6.051   9.015  4.7816 -0.6030  1.1346
  377MOL0     H52016   8.000   5.925   8.887 -0.5490 -1.3798 -1.4546
  377MOL0     H52017   8.075   5.773   8.918  1.0412 -0.1156  0.7376
  377MOL0     H52018   8.173   6.020   8.773 -0.2351 -0.0123 -1.9067
  377MOL0     H52019   8.298   5.923   8.827  0.2064  3.0170 -1.4959
  377MOL0     H52020   8.161   5.722   8.676  3.2966 -0.4086 -2.0615
  377MOL0     H52021   8.238   5.833   8.586 -1.0563  0.1552 -0.6704
  377MOL0     H52022   7.861   5.958   8.491 -0.3901  1.8683  3.4412
  377MOL0     H52023   8.163   6.062   9.272 -0.5360 -1.2802  0.6303
  377MOL0     H52024   8.207   6.229   9.442  0.3873  2.0729  1.9184
  377MOL0     H52025   8.206   6.113   9.570 -0.4029  1.3097 -0.6949
  377MOL0     H52026   8.339   6.223   9.554  1.5614  0.2709 -2.7910
  378MOL0     O52027  10.449   7.316   4.414  0.3389 -0.2909 -0.4762
  378MOL0     C52028  10.413   7.201   4.441 -0.5743 -0.4931  0.0513
  378MOL0     O52029  10.500   7.092   4.435 -0.1528  0.4145  0.3284
  378MOL0     C52030  10.617   7.102   4.364 -0.7643  0.0325  0.1637
  378MOL0     C52031  10.627   7.120   4.226 -0.5077  0.1309 -0.1443
  378MOL0     C52032  10.757   7.120   4.161 -0.6032  0.4761 -0.3691
  378MOL0     C52033  10.871   7.112   4.236  0.0969 -0.0274 -0.2069
  378MOL0     O52034  10.986   7.101   4.173  0.0398 -0.7525 -0.5262
  378MOL0     C52035  11.079   7.197   4.218 -0.5417  0.0731 -0.6149
  378MOL0     C52036  11.184   7.205   4.108 -0.7218 -0.7962 -1.0233
  378MOL0     C52037  11.295   7.308   4.121 -0.0034 -0.1367 -0.0323
  378MOL0     C52038  11.378   7.326   4.000 -0.7065  0.0404  0.0830
  378MOL0     C52039  11.489   7.427   4.009 -0.3063 -0.2428 -0.3956
  378MOL0     C52040  11.573   7.403   3.888 -0.0496  0.0643 -0.0346
  378MOL0     C52041  11.716   7.456   3.899 -0.1700 -0.3945 -0.3266
  378MOL0     C52042  11.791   7.432   3.763  0.1428  0.4840  0.1771
  378MOL0     N52043  11.906   7.521   3.733 -0.3103 -0.6545 -0.5684
  378MOL0     C52044  12.025   7.491   3.673 -0.6497 -0.8594 -0.3024
  378MOL0     C52045  12.093   7.611   3.668  0.5461  0.0611 -0.0034
  378MOL0     C52046  12.230   7.617   3.592  0.4777 -0.2433  0.4337
  378MOL0     C52047  12.336   7.669   3.689 -0.3876 -0.3233  0.3933
  378MOL0     C52048  12.468   7.724   3.612  0.3159  0.0111  0.6011
  378MOL0     C52049  12.574   7.770   3.714  0.0524 -0.3688 -0.2680
  378MOL0     O52050  12.700   7.789   3.651 -0.1051  0.3599  0.5186
  378MOL0     C52051  12.819   7.764   3.717  0.3501 -0.0529 -0.3159
  378MOL0     C52052  12.933   7.766   3.640  1.3195  0.2553 -0.2315
  378MOL0     C52053  13.058   7.730   3.677 -0.2133  0.2511 -0.6127
  378MOL0     C52054  13.162   7.736   3.574 -0.4027  0.3986  0.4483
  378MOL0     C52055  13.079   7.704   3.815 -0.8068  0.2764 -0.3323
  378MOL0     C52056  13.202   7.647   3.867 -0.8058 -1.1667  0.6591
  378MOL0     O52057  13.213   7.637   4.001 -0.3704 -0.0524  0.6376
  378MOL0     C52058  13.328   7.576   4.056  1.0071 -0.8157 -0.1370
  378MOL0     C52059  13.427   7.644   4.125  0.5907 -0.1100 -0.3123
  378MOL0     C52060  13.541   7.584   4.183  0.8932 -0.0493 -0.6027
  378MOL0     C52061  13.551   7.449   4.181  0.0647 -0.3627 -0.0097
  378MOL0     O52062  13.654   7.384   4.248  0.1391 -0.0004  1.0484
  378MOL0     C52063  13.681   7.243   4.239  0.1527 -0.0722  0.3173
  378MOL0     C52064  13.808   7.201   4.305  0.2805  0.3277  0.3165
  378MOL0     C52065  13.889   7.121   4.194 -0.1157  1.3893  0.6545
  378MOL0     C52066  14.026   7.092   4.235 -0.5394  0.6160 -0.7454
  378MOL0     C52067  14.118   7.033   4.132  0.4016 -0.9630  0.4033
  378MOL0     C52068  14.261   7.011   4.177 -0.7512 -0.4362  0.3213
  378MOL0     C52069  14.344   7.135   4.206 -0.2137 -0.0754 -0.1704
  378MOL0     C52070  14.495   7.109   4.214 -1.1470  1.2272 -0.3550
  378MOL0    Cl52071  14.533   6.981   4.342  0.3236 -0.0823  0.1068
  378MOL0     C52072  13.451   7.376   4.113 -0.9305 -0.8138  0.7392
  378MOL0     C52073  13.341   7.442   4.051  0.0036 -0.6703 -0.1080
  378MOL0     O52074  13.292   7.609   3.789 -0.2329  0.1162  0.0837
  378MOL0     C52075  12.962   7.698   3.895 -0.7317 -0.7592  0.2129
  378MOL0     C52076  12.837   7.735   3.849 -0.0731 -0.2051 -0.0942
  378MOL0     N52077  12.017   7.712   3.730 -0.3142  1.1819 -0.3099
  378MOL0     N52078  11.902   7.654   3.758 -0.3530 -0.3882  0.3036
  378MOL0     C52079  10.864   7.092   4.374 -1.0829  0.1174 -0.3051
  378MOL0     C52080  10.738   7.085   4.431  0.0000 -1.0760  0.6219
  378MOL0     C52081  10.278   7.177   4.477 -0.7992 -0.2952 -0.6712
  378MOL0     C52082  10.223   7.056   4.432 -0.5004  0.1224  0.0964
  378MOL0     C52083  10.088   7.020   4.457 -0.4825 -0.0837 -0.3674
  378MOL0     C52084  10.002   7.109   4.520  0.5202 -0.0056  0.3621
  378MOL0     O52085   9.871   7.064   4.537  0.2656 -0.1692  0.2487
  378MOL0     C52086   9.772   7.152   4.592  0.0318  1.0348  0.1982
  378MOL0     C52087   9.727   7.260   4.496  0.1852  0.6304  1.1864
  378MOL0     C52088   9.646   7.202   4.380 -0.4620 -0.5578  0.1137
  378MOL0     C52089   9.498   7.163   4.405  0.4283 -0.1576 -0.1467
  378MOL0     C52090   9.428   7.289   4.439 -0.8760 -0.1684 -0.6696
  378MOL0     C52091   9.379   7.384   4.487 -0.0722 -0.4912  0.4858
  378MOL0     C52092  10.050   7.227   4.576  0.0015 -0.1881 -0.2320
  378MOL0     C52093  10.183   7.265   4.550 -0.4580  0.5869  0.4095
  378MOL0     C52094  10.221   7.392   4.609  0.6096 -0.2360  0.2470
  378MOL0     H52095  10.537   7.133   4.167 -0.3933  0.5821 -0.2235
  378MOL0     H52096  10.763   7.133   4.053 -1.1633  2.4378 -0.2087
  378MOL0     H52097  11.131   7.163   4.308  3.6923  3.8694 -1.3108
  378MOL0     H52098  11.037   7.297   4.232 -1.6227 -0.2369 -1.4711
  378MOL0     H52099  11.222   7.104   4.089  1.0929 -0.7493  1.7065
  378MOL0     H52100  11.125   7.233   4.021 -0.0956  1.2115 -0.8430
  378MOL0     H52101  11.264   7.409   4.149  1.0081  0.5162 -1.1955
  378MOL0     H52102  11.363   7.267   4.197 -0.0094 -0.6554 -0.3016
  378MOL0     H52103  11.414   7.230   3.961  0.9513  1.0801 -1.0623
  378MOL0     H52104  11.307   7.359   3.924 -1.9015  0.5595  1.3830
  378MOL0     H52105  11.548   7.411   4.099 -2.4590  2.4167  1.6380
  378MOL0     H52106  11.431   7.519   4.013 -0.9878 -0.7024  1.3427
  378MOL0     H52107  11.580   7.294   3.877  2.2243  0.2030 -0.3475
  378MOL0     H52108  11.513   7.443   3.806 -2.6015 -0.9235  1.2241
  378MOL0     H52109  11.773   7.403   3.977  0.4776 -0.0173 -0.5396
  378MOL0     H52110  11.708   7.565   3.905  0.1717 -0.3716 -0.2683
  378MOL0     H52111  11.831   7.331   3.753  2.2327  1.2774 -0.0959
  378MOL0     H52112  11.715   7.454   3.688  2.0140  1.6598 -1.5088
  378MOL0     H52113  12.057   7.398   3.627 -3.2202 -1.5079 -0.9893
  378MOL0     H52114  12.215   7.688   3.510  0.0770  1.0633  1.5990
  378MOL0     H52115  12.262   7.517   3.562  1.3444  0.7378 -2.1833
  378MOL0     H52116  12.288   7.747   3.748  0.5278  0.3042  0.3347
  378MOL0     H52117  12.355   7.586   3.758 -2.0101  1.0387  2.6150
  378MOL0     H52118  12.519   7.638   3.569  2.2081  1.6355 -0.5928
  378MOL0     H52119  12.445   7.799   3.537  3.0228  3.9334  3.2727
  378MOL0     H52120  12.544   7.867   3.756  2.6238  0.4111  0.0017
  378MOL0     H52121  12.573   7.704   3.801  0.9576  0.7952  0.6787
  378MOL0     H52122  12.920   7.796   3.536  0.1703 -0.5122 -0.3302
  378MOL0     H52123  13.264   7.765   3.603 -0.8312  0.8989  1.5107
  378MOL0     H52124  13.132   7.815   3.504  1.8553  2.0733  1.2421
  378MOL0     H52125  13.166   7.639   3.523 -0.6577  0.5531  0.1270
  378MOL0     H52126  13.401   7.749   4.133 -1.8907 -0.5929 -1.1436
  378MOL0     H52127  13.611   7.641   4.243  0.4054  0.1205 -0.1834
  378MOL0     H52128  13.596   7.189   4.282 -1.1993 -0.9592 -3.1266
  378MOL0     H52129  13.680   7.222   4.132  1.3134  2.4745 -0.2696
  378MOL0     H52130  13.858   7.292   4.340 -1.3938  1.4768 -0.1584
  378MOL0     H52131  13.790   7.142   4.395  0.3271 -1.4919 -0.7988
  378MOL0     H52132  13.884   7.172   4.097 -0.0590 -1.6222 -1.0398
  378MOL0     H52133  13.842   7.024   4.177  1.7539  1.0922 -4.2886
  378MOL0     H52134  14.031   7.009   4.306  3.3314  0.0551 -1.4970
  378MOL0     H52135  14.074   7.178   4.283 -1.7367  1.0426 -0.2638
  378MOL0     H52136  14.086   6.935   4.095  3.3020 -1.6140 -0.7406
  378MOL0     H52137  14.117   7.099   4.045 -1.3000 -0.9639  0.4015
  378MOL0     H52138  14.315   6.980   4.087  1.3034 -0.8189  1.6218
  378MOL0     H52139  14.267   6.929   4.249  2.7009  0.4229  1.1944
  378MOL0     H52140  14.320   7.160   4.310 -0.1503 -0.5009 -0.0515
  378MOL0     H52141  14.323   7.223   4.145  3.2322  1.6067  0.8568
  378MOL0     H52142  14.540   7.203   4.246 -1.8053  1.2889  0.4206
  378MOL0     H52143  14.536   7.067   4.122  0.0579  1.9073 -0.1402
  378MOL0     H52144  13.462   7.268   4.108 -3.1213 -1.0844  0.8270
  378MOL0     H52145  13.268   7.386   3.993 -0.1227 -0.4147 -0.1955
  378MOL0     H52146  12.973   7.661   3.996  1.7747 -0.7059  0.0316
  378MOL0     H52147  12.749   7.722   3.911 -0.8583 -2.3802 -1.5323
  378MOL0     H52148  10.954   7.076   4.433 -0.2861  0.8971 -1.2729
  378MOL0     H52149  10.729   7.064   4.538  0.6764  0.8941  1.1131
  378MOL0     H52150  10.276   6.991   4.364 -0.3902  1.4386 -1.1279
  378MOL0     H52151  10.047   6.928   4.417  2.9242 -1.0770 -1.9427
  378MOL0     H52152   9.686   7.087   4.605  2.1145 -1.5858  1.8071
  378MOL0     H52153   9.797   7.173   4.697 -0.8225 -1.2367  0.9012
  378MOL0     H52154   9.816   7.312   4.458 -0.0202  0.2937  0.2131
  378MOL0     H52155   9.659   7.332   4.542 -0.8929 -0.7216  1.7634
  378MOL0     H52156   9.640   7.282   4.306 -1.9025  2.3359  3.0794
  378MOL0     H52157   9.695   7.110   4.347  2.4748  1.0076 -0.2569
  378MOL0     H52158   9.481   7.087   4.481 -0.4243  0.0322 -0.1399
  378MOL0     H52159   9.452   7.133   4.310 -1.0870 -0.2489  0.5951
  378MOL0     H52160   9.341   7.461   4.550  1.9561  1.0924 -0.1528
  378MOL0     H52161   9.978   7.280   4.638  0.1854 -0.8184  0.5329
  378MOL0     H52162  10.330   7.396   4.619  0.5350  1.3256  0.7056
  378MOL0     H52163  10.194   7.484   4.557  0.4803 -0.0368  0.6609
  378MOL0     H52164  10.180   7.397   4.711  2.2927 -4.4341  1.3503
  379MOL0     O52165   8.791   9.377   2.461  0.1140 -0.2029 -0.4901
  379MOL0     C52166   8.685   9.358   2.520  0.6401  0.4748 -0.6867
  379MOL0     O52167   8.653   9.406   2.651 -0.5642 -0.4633  0.8284
  379MOL0     C52168   8.752   9.479   2.710  0.0247 -0.1974  1.1548
  379MOL0     C52169   8.732   9.613   2.740  1.0579 -0.6469 -0.8860
  379MOL0     C52170   8.827   9.689   2.810 -0.1680  0.1176  0.0922
  379MOL0     C52171   8.946   9.634   2.849  0.3066  0.4213  0.0122
  379MOL0     O52172   9.023   9.726   2.906 -0.6837 -0.3909 -0.1780
  379MOL0     C52173   9.161   9.718   2.882 -0.3149  0.1884  0.5279
  379MOL0     C52174   9.195   9.788   2.746  0.4699  0.7891 -0.1131
  379MOL0     C52175   9.220   9.700   2.632 -0.0913  0.2228  0.7253
  379MOL0     C52176   9.336   9.607   2.654  0.1321 -0.1667 -0.3629
  379MOL0     C52177   9.362   9.530   2.531 -0.7751  0.0595  0.2621
  379MOL0     C52178   9.406   9.606   2.408  0.5487  0.1989 -0.4812
  379MOL0     C52179   9.476   9.516   2.309 -0.6648  0.4669 -0.1140
  379MOL0     C52180   9.394   9.396   2.252 -0.3678 -0.8438  0.6483
  379MOL0     N52181   9.454   9.355   2.119  0.1281  0.4619 -0.3868
  379MOL0     C52182   9.573   9.282   2.098 -0.2271 -0.1463 -0.0804
  379MOL0     C52183   9.590   9.283   1.966 -0.5603  0.1451  0.1696
  379MOL0     C52184   9.695   9.200   1.905  0.2574 -0.3392  0.7706
  379MOL0     C52185   9.831   9.273   1.897  0.0895  0.5245  0.0826
  379MOL0     C52186   9.832   9.402   1.807  0.0310 -0.2720 -0.2604
  379MOL0     C52187   9.976   9.447   1.794  0.2046 -0.2497 -0.0908
  379MOL0     O52188  10.035   9.391   1.667  0.2412 -0.6100 -0.2377
  379MOL0     C52189  10.173   9.391   1.656  0.5668 -0.4369 -0.2294
  379MOL0     C52190  10.254   9.460   1.745  0.4613  0.1913 -0.0594
  379MOL0     C52191  10.391   9.448   1.740  0.1065  1.1520 -0.9589
  379MOL0     C52192  10.467   9.533   1.843  0.1642 -0.0082  0.0420
  379MOL0     C52193  10.455   9.361   1.647  0.8715  0.0873  0.2231
  379MOL0     C52194  10.602   9.325   1.643  0.1015  0.2868 -0.2632
  379MOL0     O52195  10.646   9.250   1.539  0.1969  0.1198 -0.1002
  379MOL0     C52196  10.781   9.243   1.521  0.6167 -0.5143 -0.8093
  379MOL0     C52197  10.863   9.354   1.525 -0.4604  0.4361 -0.3131
  379MOL0     C52198  10.998   9.337   1.518  0.0308  0.1568 -0.0486
  379MOL0     C52199  11.061   9.210   1.514  0.5190 -0.1289  0.6798
  379MOL0     O52200  11.193   9.215   1.531  0.4155  0.2580  0.1980
  379MOL0     C52201  11.263   9.109   1.590 -0.7858  1.0193 -0.8202
  379MOL0     C52202  11.414   9.146   1.601  0.2768 -0.0556  0.1994
  379MOL0     C52203  11.476   9.041   1.689 -0.5959  0.3061  1.1065
  379MOL0     C52204  11.620   9.073   1.690  0.4888  1.1711  0.8970
  379MOL0     C52205  11.696   9.010   1.566  0.7429 -0.6134 -0.5195
  379MOL0     C52206  11.843   9.046   1.559 -0.0936  0.5146 -0.7294
  379MOL0     C52207  11.917   8.990   1.675  0.4650  0.3535  0.2292
  379MOL0     C52208  12.064   9.000   1.661  0.3868  0.5808 -0.0023
  379MOL0    Cl52209  12.114   9.170   1.690  0.0264  0.3113  0.2370
  379MOL0     C52210  10.982   9.103   1.493  0.5180 -0.6982 -0.2109
  379MOL0     C52211  10.836   9.117   1.509 -0.2997 -0.9591 -0.0754
  379MOL0     O52212  10.675   9.375   1.737  0.1580 -0.1629  0.6533
  379MOL0     C52213  10.369   9.300   1.555  0.4165 -0.0910 -0.5851
  379MOL0     C52214  10.228   9.320   1.551 -0.4611  0.0635  0.0103
  379MOL0     N52215   9.479   9.347   1.907 -0.0292  1.2456 -0.0407
  379MOL0     N52216   9.403   9.389   1.995 -0.3714 -0.6852  0.1056
  379MOL0     C52217   8.969   9.496   2.837  0.2043 -0.1545 -0.7957
  379MOL0     C52218   8.874   9.418   2.759  0.4617 -0.0794 -0.1042
  379MOL0     C52219   8.567   9.290   2.449  0.7422 -0.5776 -0.4988
  379MOL0     C52220   8.578   9.299   2.309  0.1073 -0.2955  0.0836
  379MOL0     C52221   8.462   9.258   2.226  0.6499  0.9699 -0.4437
  379MOL0     C52222   8.349   9.202   2.278  0.7203 -0.4082  0.2172
  379MOL0     O52223   8.251   9.173   2.185 -0.1534  0.2334 -0.3121
  379MOL0     C52224   8.121   9.139   2.244 -0.5692  0.3502  0.5279
  379MOL0     C52225   8.017   9.100   2.143 -0.3464 -0.1694  0.6753
  379MOL0     C52226   7.876   9.068   2.187  0.0012 -0.6030  0.2339
  379MOL0     C52227   7.876   8.951   2.283 -0.4438  0.1602 -0.1167
  379MOL0     C52228   7.742   8.955   2.345  0.6323  0.5021  0.6928
  379MOL0     C52229   7.632   8.955   2.400 -0.9849 -0.1073 -0.4950
  379MOL0     C52230   8.355   9.181   2.420 -1.0103 -0.2275 -0.1295
  379MOL0     C52231   8.463   9.224   2.510  0.7294  0.5818 -0.5512
  379MOL0     C52232   8.443   9.211   2.666  0.4615 -0.8026  0.0036
  379MOL0     H52233   8.640   9.665   2.715  2.9963  3.1757 -0.8736
  379MOL0     H52234   8.799   9.791   2.834 -0.3419 -0.2259  1.4821
  379MOL0     H52235   9.211   9.621   2.893  1.4682  1.1312  0.9775
  379MOL0     H52236   9.214   9.780   2.955  1.7694  0.5169 -1.1621
  379MOL0     H52237   9.120   9.858   2.708  1.0704  1.9067  0.6836
  379MOL0     H52238   9.288   9.839   2.772  1.2672 -1.4346  1.8192
  379MOL0     H52239   9.126   9.650   2.605  0.7139 -0.9072 -0.0894
  379MOL0     H52240   9.246   9.764   2.547 -2.2264 -1.6505 -1.4884
  379MOL0     H52241   9.428   9.652   2.692  1.9524 -2.2940 -1.9529
  379MOL0     H52242   9.302   9.534   2.728 -0.9165  0.0643 -0.5960
  379MOL0     H52243   9.274   9.469   2.514 -1.9475  1.4794  0.9933
  379MOL0     H52244   9.445   9.467   2.564  0.0440  0.9256 -0.0559
  379MOL0     H52245   9.320   9.656   2.362 -0.3044 -0.8232 -0.0403
  379MOL0     H52246   9.475   9.683   2.443  0.4268  0.0907  0.0016
  379MOL0     H52247   9.563   9.471   2.357  1.4856  0.5138 -3.5931
  379MOL0     H52248   9.502   9.583   2.226 -0.9855  0.6929 -0.0303
  379MOL0     H52249   9.398   9.313   2.323 -1.6714 -1.1987  0.3341
  379MOL0     H52250   9.291   9.434   2.247 -0.1950 -0.4586 -0.2507
  379MOL0     H52251   9.655   9.266   2.167 -1.1397  2.5658  1.8223
  379MOL0     H52252   9.652   9.179   1.807 -1.6935  2.1664  0.9995
  379MOL0     H52253   9.695   9.108   1.964 -1.5552 -0.8497  0.0332
  379MOL0     H52254   9.865   9.288   1.999  0.5220 -0.3253  0.0761
  379MOL0     H52255   9.894   9.194   1.854 -0.9240 -1.6443  2.3246
  379MOL0     H52256   9.775   9.394   1.714  1.3077  1.9240 -1.2994
  379MOL0     H52257   9.778   9.485   1.854 -0.5241 -0.7296 -0.0672
  379MOL0     H52258   9.960   9.553   1.775 -0.7581 -0.4580 -0.4715
  379MOL0     H52259  10.036   9.439   1.885  0.9829 -2.1803 -0.7140
  379MOL0     H52260  10.219   9.528   1.822 -1.2723 -0.1961 -0.4688
  379MOL0     H52261  10.513   9.467   1.917 -1.2001  1.9503  2.8258
  379MOL0     H52262  10.394   9.592   1.900  0.5110 -1.0707  1.6499
  379MOL0     H52263  10.537   9.603   1.797  1.2720 -1.1128 -0.0031
  379MOL0     H52264  10.819   9.452   1.532 -1.0907  0.0768  0.9755
  379MOL0     H52265  11.060   9.426   1.527  2.9229 -1.8315  1.8230
  379MOL0     H52266  11.231   9.070   1.687  0.8874 -1.7417 -1.2605
  379MOL0     H52267  11.248   9.016   1.536 -0.5590 -1.3793  2.8970
  379MOL0     H52268  11.452   9.149   1.498  2.4396  2.2406  0.9736
  379MOL0     H52269  11.408   9.244   1.649 -3.3094  0.6960 -1.4448
  379MOL0     H52270  11.481   8.939   1.649 -2.4145  1.6461 -3.0639
  379MOL0     H52271  11.429   9.051   1.787 -0.2696  1.6278  1.1381
  379MOL0     H52272  11.671   9.016   1.768 -2.4954 -2.0354  0.7388
  379MOL0     H52273  11.637   9.181   1.701  0.5802  1.3433 -0.6945
  379MOL0     H52274  11.681   8.903   1.550  1.3521 -0.9864  1.1918
  379MOL0     H52275  11.662   9.048   1.470 -2.5380  0.2276  0.8316
  379MOL0     H52276  11.861   9.154   1.557  0.0983  0.7127  3.2452
  379MOL0     H52277  11.874   9.003   1.463  0.8142 -1.3336  0.3378
  379MOL0     H52278  11.883   8.887   1.688 -3.6395  1.5616  0.6854
  379MOL0     H52279  11.888   9.030   1.773  1.2752 -1.6442  1.3402
  379MOL0     H52280  12.086   8.971   1.558 -1.7208  0.5089 -0.4735
  379MOL0     H52281  12.113   8.923   1.721  0.8451  0.1441 -0.9244
  379MOL0     H52282  11.036   9.010   1.474  1.2545 -0.3024 -0.0817
  379MOL0     H52283  10.780   9.024   1.517 -0.1874 -0.8748  2.0491
  379MOL0     H52284  10.416   9.229   1.487 -2.0900 -1.1477 -1.2955
  379MOL0     H52285  10.161   9.250   1.502 -2.0765 -0.0116  2.1526
  379MOL0     H52286   9.059   9.447   2.872  0.0121  0.6475  0.8925
  379MOL0     H52287   8.905   9.315   2.750  3.0331  0.6864 -1.1213
  379MOL0     H52288   8.657   9.347   2.253  1.0698 -2.5373 -0.5905
  379MOL0     H52289   8.470   9.258   2.118  0.0476 -0.2124 -0.5068
  379MOL0     H52290   8.136   9.051   2.306  1.1206 -2.0085 -2.9412
  379MOL0     H52291   8.075   9.214   2.309  3.8030  1.5213  2.6956
  379MOL0     H52292   8.050   9.013   2.085 -4.2156 -0.1394 -1.9088
  379MOL0     H52293   8.016   9.181   2.069  2.8106  0.2885  0.9655
  379MOL0     H52294   7.819   9.150   2.231  0.1497 -0.8468  0.9039
  379MOL0     H52295   7.821   9.039   2.098 -0.3113 -0.3655  0.3496
  379MOL0     H52296   7.950   8.954   2.363 -1.3443  0.6134  0.7092
  379MOL0     H52297   7.881   8.857   2.227 -1.8400 -0.3924  0.6246
  379MOL0     H52298   7.538   8.960   2.451 -1.2249  1.3653 -1.0148
  379MOL0     H52299   8.281   9.118   2.469 -0.2385  1.5276  3.5992
  379MOL0     H52300   8.534   9.220   2.726  1.3622 -1.1118 -1.2649
  379MOL0     H52301   8.386   9.301   2.690 -2.7574 -2.9218  0.9053
  379MOL0     H52302   8.385   9.122   2.688  1.7244 -1.4312  0.9508
  380MOL0     O52303   4.757   6.140   3.492  0.3685  0.1459  0.4680
  380MOL0     C52304   4.705   6.034   3.455 -0.1721  0.6513 -0.8543
  380MOL0     O52305   4.676   5.938   3.537 -0.0644 -0.4564  0.3836
  380MOL0     C52306   4.685   5.930   3.674 -0.2766  0.7257 -0.5753
  380MOL0     C52307   4.763   6.019   3.755  0.3986  0.8234  0.8642
  380MOL0     C52308   4.764   6.010   3.895 -0.9173  0.5716  0.5482
  380MOL0     C52309   4.700   5.905   3.953 -0.3205  0.0905 -0.3218
  380MOL0     O52310   4.715   5.888   4.092  0.3369 -0.2778 -0.2058
  380MOL0     C52311   4.627   5.963   4.177  0.1395 -0.2138  0.6808
  380MOL0     C52312   4.677   5.942   4.324 -0.4020  0.0975  0.2033
  380MOL0     C52313   4.602   6.026   4.431 -0.3362 -0.0923 -0.3081
  380MOL0     C52314   4.657   6.016   4.572 -0.6895  0.1424 -0.6823
  380MOL0     C52315   4.594   6.120   4.663  0.5207 -0.5736  0.8850
  380MOL0     C52316   4.622   6.103   4.820  0.1470  0.5328  0.6579
  380MOL0     C52317   4.547   6.180   4.921 -0.4118  0.1361 -0.0791
  380MOL0     C52318   4.399   6.141   4.931  0.3886  0.1919 -0.2519
  380MOL0     N52319   4.315   6.209   5.030 -0.1781 -0.6376 -0.2538
  380MOL0     C52320   4.207   6.286   5.007  0.2602 -0.0050 -0.0546
  380MOL0     C52321   4.176   6.344   5.127  0.2602 -0.1195 -0.2741
  380MOL0     C52322   4.064   6.441   5.148  0.1581 -0.6505 -0.6257
  380MOL0     C52323   3.994   6.432   5.298 -1.3399 -0.4950  0.9786
  380MOL0     C52324   3.885   6.330   5.307 -0.2284  0.3112  0.3521
  380MOL0     C52325   3.746   6.376   5.262  0.6117 -0.1238  0.1330
  380MOL0     O52326   3.688   6.434   5.384  0.0620  0.5829 -0.5115
  380MOL0     C52327   3.551   6.434   5.406  0.3103 -0.3592  0.3391
  380MOL0     C52328   3.456   6.441   5.304 -0.9818  0.9596 -0.3471
  380MOL0     C52329   3.322   6.443   5.327 -0.1712 -0.7731  0.3150
  380MOL0     C52330   3.230   6.448   5.206  0.5905 -0.6903  0.1044
  380MOL0     C52331   3.278   6.428   5.459  0.6918 -0.1873 -0.4105
  380MOL0     C52332   3.134   6.403   5.485 -0.4325  0.5667 -0.0327
  380MOL0     O52333   3.060   6.496   5.551 -0.3022  0.8834  0.1496
  380MOL0     C52334   2.920   6.477   5.555  0.1747  0.0337 -0.1125
  380MOL0     C52335   2.870   6.483   5.691  0.8942  0.2111 -0.6630
  380MOL0     C52336   2.731   6.457   5.707 -0.0701 -0.4156  0.0648
  380MOL0     C52337   2.637   6.433   5.602 -0.9077  1.3773 -0.7148
  380MOL0     O52338   2.502   6.404   5.635 -0.6382  0.1283  0.0451
  380MOL0     C52339   2.401   6.376   5.542 -0.2850  0.1992 -1.1015
  380MOL0     C52340   2.272   6.395   5.618  0.8189  0.1304  0.7026
  380MOL0     C52341   2.233   6.265   5.701  0.1090 -0.9915  1.4540
  380MOL0     C52342   2.086   6.270   5.738 -1.1691  0.5181 -0.3759
  380MOL0     C52343   2.050   6.141   5.812  0.0661  0.0414  0.4445
  380MOL0     C52344   2.109   6.150   5.958 -0.4332 -0.8427 -0.6890
  380MOL0     C52345   2.067   6.020   6.037  0.6365  0.3819 -0.1999
  380MOL0     C52346   2.093   6.021   6.189  0.2855  0.5883 -0.0725
  380MOL0    Cl52347   2.268   6.060   6.205 -0.0698  0.5676 -0.0882
  380MOL0     C52348   2.693   6.436   5.472 -0.5030  0.0271  0.7227
  380MOL0     C52349   2.827   6.462   5.446 -0.8153 -0.0216 -0.9630
  380MOL0     O52350   3.095   6.302   5.437  0.1544 -0.3740  0.3964
  380MOL0     C52351   3.369   6.408   5.562 -0.0663 -0.2307  0.9862
  380MOL0     C52352   3.510   6.425   5.536  0.1527  0.0055 -0.0220
  380MOL0     N52353   4.266   6.307   5.221 -0.3876 -0.6449  0.7594
  380MOL0     N52354   4.343   6.223   5.164 -0.5937  0.4887 -0.7273
  380MOL0     C52355   4.629   5.811   3.874 -0.5409 -0.0808  0.2266
  380MOL0     C52356   4.623   5.816   3.732  0.2598 -0.1982 -0.1692
  380MOL0     C52357   4.690   6.014   3.308  0.2138  0.5078 -0.1367
  380MOL0     C52358   4.691   5.879   3.263 -0.3278 -0.1892  0.2350
  380MOL0     C52359   4.686   5.851   3.123 -0.0021 -0.5273  0.2239
  380MOL0     C52360   4.657   5.952   3.034  0.2718 -0.3846  0.0714
  380MOL0     O52361   4.660   5.918   2.909 -0.1442 -0.3655  0.0405
  380MOL0     C52362   4.596   6.009   2.822 -0.0849 -0.2242  0.6089
  380MOL0     C52363   4.587   5.951   2.681 -0.1967  0.5340  0.4238
  380MOL0     C52364   4.721   5.960   2.600 -0.0841 -1.0139 -0.5975
  380MOL0     C52365   4.708   5.913   2.451 -0.2039 -0.5577 -0.4323
  380MOL0     C52366   4.633   6.022   2.391 -0.4938 -1.0345  0.0933
  380MOL0     C52367   4.559   6.107   2.341 -0.5608 -0.4210 -0.0306
  380MOL0     C52368   4.638   6.082   3.093 -0.1937 -0.7962  0.8431
  380MOL0     C52369   4.657   6.116   3.216  0.1573  0.5543 -0.4220
  380MOL0     C52370   4.627   6.259   3.261 -0.8894 -0.1289 -0.4071
  380MOL0     H52371   4.820   6.102   3.714 -0.4171  0.6807 -0.6285
  380MOL0     H52372   4.814   6.085   3.955 -2.2346  2.2025 -0.3125
  380MOL0     H52373   4.521   5.939   4.166 -0.1181  1.4960 -0.9695
  380MOL0     H52374   4.625   6.065   4.137 -1.7189 -0.2742  0.5132
  380MOL0     H52375   4.668   5.835   4.343  0.0864  0.0418  0.1075
  380MOL0     H52376   4.782   5.972   4.322 -0.5911  0.7067 -0.9757
  380MOL0     H52377   4.594   6.131   4.402 -2.8852  0.4745  1.9756
  380MOL0     H52378   4.498   5.992   4.437 -0.5920  0.3009 -2.0554
  380MOL0     H52379   4.641   5.914   4.608 -1.0359  0.4447  0.0392
  380MOL0     H52380   4.761   6.050   4.574 -1.3011  2.1423  1.6316
  380MOL0     H52381   4.490   6.130   4.632 -0.2241 -5.5594  0.8494
  380MOL0     H52382   4.644   6.214   4.640 -1.0869  0.5556  1.7899
  380MOL0     H52383   4.605   5.997   4.840  0.7476 -0.2321 -2.3837
  380MOL0     H52384   4.727   6.124   4.843  0.9699 -1.0703 -1.3713
  380MOL0     H52385   4.557   6.285   4.893 -0.3257  0.3899  0.8554
  380MOL0     H52386   4.596   6.162   5.017  1.9862 -0.2160 -1.2906
  380MOL0     H52387   4.349   6.145   4.833 -3.6057 -1.8261  1.4610
  380MOL0     H52388   4.389   6.034   4.951 -1.8448  0.2589 -0.6665
  380MOL0     H52389   4.161   6.294   4.909  0.5800 -1.3210 -0.3365
  380MOL0     H52390   3.996   6.414   5.067  2.7602 -1.1195 -2.8063
  380MOL0     H52391   4.096   6.542   5.119  0.2976 -0.9653 -1.6168
  380MOL0     H52392   4.072   6.409   5.371  1.0776  0.9047 -1.0060
  380MOL0     H52393   3.953   6.530   5.327  0.4799  0.7121 -0.3536
  380MOL0     H52394   3.911   6.246   5.242  1.1639 -0.6233  2.0229
  380MOL0     H52395   3.884   6.280   5.404  0.9700 -1.1654 -0.3565
  380MOL0     H52396   3.738   6.450   5.182 -0.6344 -1.2994 -0.8867
  380MOL0     H52397   3.687   6.290   5.229  3.0592 -2.3816  1.3453
  380MOL0     H52398   3.482   6.439   5.199  0.6652 -3.2421 -0.0519
  380MOL0     H52399   3.292   6.485   5.123  2.3351  1.6524  2.3023
  380MOL0     H52400   3.139   6.508   5.216  1.6087  1.2389 -1.3893
  380MOL0     H52401   3.197   6.347   5.178 -0.0286 -0.5721  0.3953
  380MOL0     H52402   2.924   6.500   5.784 -0.9609 -0.7946  0.6601
  380MOL0     H52403   2.703   6.456   5.812 -1.6972 -1.3009 -0.3290
  380MOL0     H52404   2.387   6.439   5.454 -0.5403  0.8236 -0.6190
  380MOL0     H52405   2.416   6.275   5.505 -0.3796 -0.5840  0.8464
  380MOL0     H52406   2.287   6.474   5.693 -2.7200 -1.2907  3.1982
  380MOL0     H52407   2.202   6.416   5.537  2.1612 -1.9524 -1.1021
  380MOL0     H52408   2.300   6.260   5.787  3.2206 -2.0514 -0.8290
  380MOL0     H52409   2.248   6.182   5.631  2.0245  0.9990 -0.6656
  380MOL0     H52410   2.027   6.280   5.647 -1.6072 -0.6697 -0.2363
  380MOL0     H52411   2.065   6.356   5.802  0.9169 -0.2436  1.4676
  380MOL0     H52412   1.942   6.129   5.806  0.2596 -3.9818  1.3914
  380MOL0     H52413   2.104   6.065   5.755 -0.1427  0.2782 -0.0711
  380MOL0     H52414   2.084   6.248   5.999  3.2181  0.5131 -1.3507
  380MOL0     H52415   2.217   6.149   5.970 -0.4379  3.3871  1.2126
  380MOL0     H52416   2.134   5.942   5.999  1.4407  0.5638  0.7951
  380MOL0     H52417   1.963   5.991   6.021  0.7859 -0.2081 -0.1150
  380MOL0     H52418   2.077   5.932   6.250 -1.7468  2.6725  2.7086
  380MOL0     H52419   2.034   6.101   6.234  0.4241  0.9902 -0.5938
  380MOL0     H52420   2.642   6.407   5.380  1.3414 -1.2444  0.0331
  380MOL0     H52421   2.872   6.443   5.349 -0.4204  1.8785 -1.1987
  380MOL0     H52422   3.341   6.385   5.665 -1.9438 -0.3958  0.4766
  380MOL0     H52423   3.593   6.429   5.606  1.4463 -1.8101 -1.3502
  380MOL0     H52424   4.573   5.732   3.923 -1.5847  0.6786  0.2782
  380MOL0     H52425   4.565   5.749   3.669  1.0321 -1.7017  0.6658
  380MOL0     H52426   4.700   5.793   3.329 -0.1158 -0.0747  0.3578
  380MOL0     H52427   4.693   5.750   3.085 -0.8044 -0.7008  0.5279
  380MOL0     H52428   4.493   6.018   2.857 -0.6584  0.9992 -1.2348
  380MOL0     H52429   4.644   6.105   2.841  0.7991 -1.0896  3.2368
  380MOL0     H52430   4.526   6.013   2.616  0.6820 -0.0816 -1.0282
  380MOL0     H52431   4.560   5.845   2.677  4.7286 -1.0900  1.7600
  380MOL0     H52432   4.750   6.065   2.591 -2.0354 -0.3640  0.2073
  380MOL0     H52433   4.806   5.908   2.646 -0.4075  0.9954  2.5885
  380MOL0     H52434   4.657   5.816   2.452 -0.2724 -0.5187 -0.1212
  380MOL0     H52435   4.806   5.917   2.402 -0.0819  2.3156 -0.1638
  380MOL0     H52436   4.506   6.194   2.310  0.8013  0.2649 -0.5394
  380MOL0     H52437   4.605   6.171   3.039  0.3396  0.7668  2.9298
  380MOL0     H52438   4.555   6.304   3.192 -0.9242  1.0400  0.3651
  380MOL0     H52439   4.577   6.272   3.358  2.2660  0.1689  1.3130
  380MOL0     H52440   4.718   6.320   3.263 -1.3577  0.5777  0.3569
  381MOL0     O52441   2.179   1.532   5.457  0.6351 -0.3894  0.2346
  381MOL0     C52442   2.213   1.606   5.361 -1.1803 -0.4270 -0.7636
  381MOL0     O52443   2.327   1.591   5.295  0.4782  0.7443  0.3409
  381MOL0     C52444   2.449   1.554   5.353  0.6793  0.1184  0.6547
  381MOL0     C52445   2.546   1.492   5.272  0.2527  0.0134  0.9921
  381MOL0     C52446   2.660   1.444   5.328 -0.3942 -0.1466 -0.3551
  381MOL0     C52447   2.689   1.459   5.470 -0.6730  0.1458 -0.3437
  381MOL0     O52448   2.801   1.397   5.529 -0.2018 -0.2411  0.2210
  381MOL0     C52449   2.919   1.362   5.458  0.5193 -0.0644  0.2934
  381MOL0     C52450   3.032   1.321   5.557 -0.6043  0.2479 -0.0210
  381MOL0     C52451   3.151   1.277   5.467  0.2801 -0.1731  0.3822
  381MOL0     C52452   3.266   1.245   5.554  0.7415 -0.4119  1.2137
  381MOL0     C52453   3.370   1.166   5.457  0.6050 -0.2900 -0.0262
  381MOL0     C52454   3.405   1.224   5.312  0.0966  0.0849 -1.0773
  381MOL0     C52455   3.546   1.196   5.267 -0.4782  0.0006  0.8723
  381MOL0     C52456   3.653   1.293   5.318  0.2364  0.7717 -0.3805
  381MOL0     N52457   3.666   1.278   5.464  0.0156  0.3727 -0.8883
  381MOL0     C52458   3.649   1.380   5.554 -0.4557  0.6884 -0.2034
  381MOL0     C52459   3.692   1.342   5.681  0.6407 -0.5052  0.3777
  381MOL0     C52460   3.692   1.413   5.806 -0.1444 -0.1692  0.1074
  381MOL0     C52461   3.845   1.444   5.851  0.3464  0.2413 -0.2787
  381MOL0     C52462   3.847   1.455   6.006  0.4732  0.5196 -0.6634
  381MOL0     C52463   3.989   1.452   6.054  1.0738  0.0041  0.0168
  381MOL0     O52464   3.992   1.447   6.203  0.0752  0.2459 -0.4895
  381MOL0     C52465   4.121   1.453   6.249 -0.2797 -0.2771 -0.9706
  381MOL0     C52466   4.137   1.441   6.394  0.6285  0.1400  0.4011
  381MOL0     C52467   4.252   1.451   6.462 -0.6694  0.3726 -0.1138
  381MOL0     C52468   4.249   1.453   6.611 -0.6276  0.6263 -1.1265
  381MOL0     C52469   4.375   1.460   6.393 -0.7311 -0.0739  0.4153
  381MOL0     C52470   4.513   1.478   6.453  0.7756 -0.0910 -0.2533
  381MOL0     O52471   4.539   1.451   6.587 -0.2610 -0.0937  0.9506
  381MOL0     C52472   4.650   1.467   6.666 -0.4477  0.2237  0.6339
  381MOL0     C52473   4.634   1.451   6.808 -0.6868  0.6397 -0.2602
  381MOL0     C52474   4.746   1.464   6.892  0.1212  0.4912 -0.3764
  381MOL0     C52475   4.866   1.497   6.838 -0.1850 -1.2996  1.0123
  381MOL0     O52476   4.987   1.485   6.907  0.5514 -0.8259 -0.3472
  381MOL0     C52477   5.013   1.589   7.006  0.4126 -0.2631 -0.1214
  381MOL0     C52478   5.125   1.556   7.111  0.3543 -0.1073 -0.1774
  381MOL0     C52479   5.144   1.685   7.196 -0.3891 -0.3681  0.6043
  381MOL0     C52480   5.036   1.704   7.307 -0.5567  0.3149  1.2002
  381MOL0     C52481   5.059   1.833   7.387 -1.0342  0.1151 -0.4475
  381MOL0     C52482   4.960   1.837   7.501  0.8526  0.1748  0.2785
  381MOL0     C52483   4.974   1.958   7.592  0.4225 -0.0976 -0.1435
  381MOL0     C52484   4.844   1.986   7.666 -0.0746  0.7304  0.4550
  381MOL0    Cl52485   4.722   2.045   7.554 -0.0817  0.0681 -0.6355
  381MOL0     C52486   4.883   1.522   6.703  0.1814 -0.4015  1.0418
  381MOL0     C52487   4.781   1.508   6.614  0.0108  0.2286  0.2575
  381MOL0     O52488   4.595   1.527   6.375 -0.1750  0.5486 -0.1065
  381MOL0     C52489   4.364   1.460   6.253  0.1359  0.6333  0.2423
  381MOL0     C52490   4.244   1.442   6.184  0.5532 -0.2179  0.3493
  381MOL0     N52491   3.727   1.209   5.658  0.1452  0.0392  0.1854
  381MOL0     N52492   3.716   1.174   5.531  0.7395 -0.0752 -0.0016
  381MOL0     C52493   2.599   1.528   5.544 -0.6547  0.0319  0.0618
  381MOL0     C52494   2.481   1.576   5.484  0.5063  0.7097 -0.0748
  381MOL0     C52495   2.096   1.701   5.326  0.9270  0.9249  1.5717
  381MOL0     C52496   1.983   1.693   5.408  0.5536 -0.1149  0.4924
  381MOL0     C52497   1.861   1.751   5.369  0.9114  0.3945  0.5740
  381MOL0     C52498   1.854   1.818   5.251 -0.0238 -0.3971  0.0181
  381MOL0     O52499   1.738   1.885   5.223  0.1549 -0.5925  0.4147
  381MOL0     C52500   1.673   1.837   5.102 -0.4954  0.2976 -0.1705
  381MOL0     C52501   1.592   1.944   5.030  0.8295 -0.2488 -0.5902
  381MOL0     C52502   1.689   2.059   5.017 -0.0840 -0.4374  0.6147
  381MOL0     C52503   1.627   2.164   4.922 -0.2467  0.7125  0.0648
  381MOL0     C52504   1.518   2.239   4.976 -0.7278 -0.0350 -0.2474
  381MOL0     C52505   1.423   2.296   5.024 -0.0908 -0.1129 -0.3823
  381MOL0     C52506   1.973   1.852   5.176 -0.0828  0.4778 -0.1795
  381MOL0     C52507   2.093   1.785   5.203  0.2919 -0.1317  0.0723
  381MOL0     C52508   2.206   1.796   5.103 -0.6991  0.0144  1.1109
  381MOL0     H52509   2.530   1.470   5.168  1.8304 -2.2482  1.1637
  381MOL0     H52510   2.731   1.382   5.275 -0.4782 -3.0001  2.5757
  381MOL0     H52511   2.960   1.444   5.399 -0.8839 -1.1640 -2.3962
  381MOL0     H52512   2.894   1.269   5.406 -1.3216 -0.3184  1.5165
  381MOL0     H52513   3.049   1.412   5.615  0.7020 -0.0605  0.1206
  381MOL0     H52514   3.016   1.237   5.626 -0.2652  0.6372  0.5413
  381MOL0     H52515   3.134   1.188   5.406  0.9465 -1.3322  1.8183
  381MOL0     H52516   3.175   1.359   5.398  1.1095 -1.1326 -0.5126
  381MOL0     H52517   3.305   1.339   5.593  1.0725  0.3192 -0.7482
  381MOL0     H52518   3.235   1.182   5.638 -0.6574 -2.7866 -0.9092
  381MOL0     H52519   3.320   1.072   5.430  2.9126 -0.8615 -2.8313
  381MOL0     H52520   3.455   1.127   5.514  0.6085 -1.3859 -0.7429
  381MOL0     H52521   3.332   1.169   5.251 -1.1810 -0.7758  1.1187
  381MOL0     H52522   3.381   1.330   5.298  1.3497  0.4620 -0.5392
  381MOL0     H52523   3.538   1.194   5.158  1.4616 -0.0129  0.6848
  381MOL0     H52524   3.576   1.094   5.294 -0.2781 -0.1524  0.0947
  381MOL0     H52525   3.752   1.277   5.275  1.1348 -0.6703  1.9853
  381MOL0     H52526   3.622   1.394   5.289  1.1927  0.6820 -1.8032
  381MOL0     H52527   3.597   1.470   5.522 -0.5374  0.0618 -1.9705
  381MOL0     H52528   3.641   1.354   5.883 -0.1188 -0.2419  0.0693
  381MOL0     H52529   3.638   1.508   5.801 -2.6003 -1.1991  3.4427
  381MOL0     H52530   3.906   1.358   5.824  0.8548  0.6217 -0.3485
  381MOL0     H52531   3.891   1.533   5.808  1.0895  1.1103  2.1397
  381MOL0     H52532   3.800   1.545   6.044  2.6826  0.6939  2.0147
  381MOL0     H52533   3.793   1.371   6.049  0.0688  0.0391 -2.0392
  381MOL0     H52534   4.041   1.372   6.002  1.2308 -0.6947  1.1998
  381MOL0     H52535   4.040   1.545   6.029  2.6192 -1.3210 -2.0366
  381MOL0     H52536   4.043   1.440   6.447 -0.5988  0.5708 -1.6671
  381MOL0     H52537   4.309   1.538   6.647  0.5245 -0.1519 -1.1445
  381MOL0     H52538   4.295   1.363   6.652 -1.4839  1.2389  1.3394
  381MOL0     H52539   4.148   1.454   6.652  0.4300  0.5485  1.6814
  381MOL0     H52540   4.538   1.413   6.841  0.5218 -0.1029  2.6324
  381MOL0     H52541   4.734   1.453   7.000  0.6400  3.4505  0.0728
  381MOL0     H52542   5.040   1.676   6.946 -3.2607  0.9090 -0.2968
  381MOL0     H52543   4.924   1.616   7.063  1.8108 -0.6983  2.4661
  381MOL0     H52544   5.080   1.487   7.183 -0.4007  1.8500  1.3406
  381MOL0     H52545   5.225   1.528   7.076  0.4374  0.0436 -0.0631
  381MOL0     H52546   5.125   1.773   7.134 -0.8827 -0.2872  0.8686
  381MOL0     H52547   5.245   1.687   7.239 -0.9425  2.5433  2.0272
  381MOL0     H52548   5.050   1.624   7.379  0.3485  1.1147  1.9377
  381MOL0     H52549   4.938   1.699   7.259 -0.2887  2.5161  0.3078
  381MOL0     H52550   5.154   1.828   7.440 -1.2260 -1.5780 -0.2141
  381MOL0     H52551   5.043   1.927   7.333 -1.3882  0.8582  0.8968
  381MOL0     H52552   4.969   1.746   7.561  1.3856 -0.2169 -0.3840
  381MOL0     H52553   4.857   1.831   7.464 -0.3865 -2.8981  3.6014
  381MOL0     H52554   4.995   2.054   7.544 -0.6880  2.5627  4.1275
  381MOL0     H52555   5.056   1.948   7.664 -0.1773 -1.2020  0.4021
  381MOL0     H52556   4.857   2.051   7.752  0.4358 -0.4696  1.3210
  381MOL0     H52557   4.816   1.897   7.723  0.2472  0.1104 -0.3358
  381MOL0     H52558   4.979   1.550   6.660  0.2819 -1.9422  0.2045
  381MOL0     H52559   4.805   1.526   6.510  3.3049 -2.8337  0.3137
  381MOL0     H52560   4.458   1.469   6.198  0.2886  0.8041  0.5236
  381MOL0     H52561   4.245   1.440   6.075  1.4110  0.6888  0.3297
  381MOL0     H52562   2.617   1.552   5.648 -0.0303  1.5308 -0.3526
  381MOL0     H52563   2.418   1.636   5.548 -3.8173 -0.6052 -2.7177
  381MOL0     H52564   1.989   1.648   5.507 -0.2257 -2.4038 -0.4247
  381MOL0     H52565   1.780   1.757   5.441  1.4269 -0.4031  1.2481
  381MOL0     H52566   1.741   1.781   5.038 -1.1345 -1.2181  0.4260
  381MOL0     H52567   1.599   1.762   5.133  1.0091 -1.3185 -0.3819
  381MOL0     H52568   1.514   1.986   5.095  0.9799 -0.4704 -0.2644
  381MOL0     H52569   1.556   1.896   4.939  1.9955  2.7685 -2.8356
  381MOL0     H52570   1.706   2.109   5.113 -2.8484  2.8455 -0.4108
  381MOL0     H52571   1.780   2.025   4.965 -0.7841 -3.1869  1.0567
  381MOL0     H52572   1.580   2.118   4.834 -0.3163  0.7608  0.0772
  381MOL0     H52573   1.710   2.233   4.901  0.6356  0.6252  2.9104
  381MOL0     H52574   1.342   2.358   5.058  0.9272  0.5114  0.9952
  381MOL0     H52575   1.966   1.904   5.080 -1.0660 -3.2583 -2.3343
  381MOL0     H52576   2.179   1.867   5.025 -1.2175  0.0422  1.3134
  381MOL0     H52577   2.301   1.833   5.143 -0.2338  0.2639 -0.1713
  381MOL0     H52578   2.228   1.697   5.062  1.2620  1.1243 -0.7416
  382MOL0     O52579   2.138   5.208   1.511  0.2582 -0.1127  0.1343
  382MOL0     C52580   2.208   5.153   1.584  0.0325 -0.2126 -0.0609
  382MOL0     O52581   2.344   5.157   1.571 -0.2262  0.4087 -0.5582
  382MOL0     C52582   2.411   5.234   1.474 -0.3590  0.5242  0.1367
  382MOL0     C52583   2.510   5.166   1.401  0.6522 -0.4671 -0.3207
  382MOL0     C52584   2.585   5.237   1.308  1.2583 -1.0963 -0.0868
  382MOL0     C52585   2.559   5.382   1.285 -0.5418  0.3067 -0.6726
  382MOL0     O52586   2.647   5.437   1.205  0.0468 -0.1734 -0.1537
  382MOL0     C52587   2.652   5.580   1.174  0.3317 -0.0846  0.8089
  382MOL0     C52588   2.773   5.608   1.093 -0.1971 -0.2275 -0.2379
  382MOL0     C52589   2.912   5.557   1.154  0.1104 -0.5302  0.4173
  382MOL0     C52590   3.031   5.607   1.076  0.6175  0.0020 -0.7922
  382MOL0     C52591   3.164   5.547   1.126 -0.2907 -0.5759  0.5653
  382MOL0     C52592   3.293   5.590   1.057 -0.4040 -0.1130 -0.2481
  382MOL0     C52593   3.428   5.514   1.106  0.4574 -0.6760 -0.6273
  382MOL0     C52594   3.553   5.561   1.034 -0.4025 -0.0940 -0.5246
  382MOL0     N52595   3.673   5.485   1.078 -0.0209 -0.2370 -0.0200
  382MOL0     C52596   3.674   5.349   1.089  0.6594  0.0406  0.3107
  382MOL0     C52597   3.802   5.329   1.143 -0.2027  0.4247 -0.1047
  382MOL0     C52598   3.852   5.197   1.174 -0.1200 -0.0512 -0.8856
  382MOL0     C52599   3.886   5.192   1.324  0.2746 -0.0421  0.3013
  382MOL0     C52600   4.025   5.236   1.350  0.1908  0.4036  0.6023
  382MOL0     C52601   4.067   5.227   1.501 -0.0803  0.3197 -0.3752
  382MOL0     O52602   4.062   5.092   1.542 -0.5000  0.3437  0.7961
  382MOL0     C52603   4.177   5.010   1.537  0.8164  0.3379  0.3520
  382MOL0     C52604   4.308   5.060   1.496 -0.3519 -0.0865 -0.9576
  382MOL0     C52605   4.419   4.971   1.494  0.1392 -0.6287 -0.0233
  382MOL0     C52606   4.551   5.028   1.438  0.5104 -0.3669  1.0767
  382MOL0     C52607   4.405   4.837   1.530  0.1882  0.0802 -0.7514
  382MOL0     C52608   4.513   4.731   1.513  0.2621 -0.2836  0.2898
  382MOL0     O52609   4.508   4.624   1.596 -0.3947  0.0416  0.0551
  382MOL0     C52610   4.589   4.516   1.583 -0.5706  0.3345 -0.0236
  382MOL0     C52611   4.719   4.526   1.610 -0.8688  0.8692 -0.7100
  382MOL0     C52612   4.793   4.410   1.616 -0.4689 -0.1896 -0.2631
  382MOL0     C52613   4.732   4.280   1.608 -0.1291 -0.0286  0.3986
  382MOL0     O52614   4.823   4.174   1.617 -0.5232  0.6760  0.4258
  382MOL0     C52615   4.771   4.039   1.601  0.3479 -0.2082  0.0573
  382MOL0     C52616   4.895   3.945   1.590 -0.1361 -0.7781 -0.3387
  382MOL0     C52617   4.989   3.952   1.705  0.1706 -0.9573 -0.7178
  382MOL0     C52618   5.126   3.901   1.661 -0.0645  0.1867  0.5774
  382MOL0     C52619   5.222   3.889   1.771 -0.6300  0.2684 -0.2141
  382MOL0     C52620   5.359   3.901   1.718 -0.2820  0.1801 -0.2545
  382MOL0     C52621   5.460   3.845   1.819 -0.7762  0.0862 -0.1242
  382MOL0     C52622   5.449   3.882   1.967 -0.1639  0.5115 -0.3527
  382MOL0    Cl52623   5.454   4.058   1.979  0.5166 -0.3168  0.1712
  382MOL0     C52624   4.595   4.277   1.583 -0.2739  0.1244 -0.8980
  382MOL0     C52625   4.519   4.394   1.569 -0.6723  0.5280  1.9496
  382MOL0     O52626   4.593   4.740   1.422 -0.5362  0.1063 -0.1924
  382MOL0     C52627   4.276   4.780   1.559 -0.5347 -0.0205  0.0262
  382MOL0     C52628   4.167   4.875   1.575  0.5053  0.0539  0.6850
  382MOL0     N52629   3.868   5.448   1.146  0.4094  0.0562 -0.3691
  382MOL0     N52630   3.788   5.542   1.115  0.3583 -0.5111  0.3468
  382MOL0     C52631   2.455   5.443   1.359 -0.3426  0.2046 -0.2706
  382MOL0     C52632   2.390   5.372   1.456  0.8833 -0.0746  0.2926
  382MOL0     C52633   2.146   5.101   1.705 -0.4078  0.5818 -0.1238
  382MOL0     C52634   2.223   5.007   1.777 -0.8132  0.2841 -0.0188
  382MOL0     C52635   2.175   4.937   1.891  0.2635  0.2717  1.0795
  382MOL0     C52636   2.042   4.948   1.929 -0.0515  0.6318 -0.2688
  382MOL0     O52637   2.010   4.865   2.028  0.4705 -1.2885 -0.2252
  382MOL0     C52638   1.881   4.877   2.089  0.3803 -0.4128  0.2592
  382MOL0     C52639   1.841   4.755   2.167 -0.0511 -0.0511  0.1991
  382MOL0     C52640   1.930   4.725   2.292  1.1435  0.8693  0.2933
  382MOL0     C52641   1.883   4.588   2.357  0.0435 -0.0129  0.3943
  382MOL0     C52642   1.758   4.608   2.434 -0.2066 -0.1953  0.4895
  382MOL0     C52643   1.656   4.642   2.486  0.5699 -0.3712  0.7862
  382MOL0     C52644   1.962   5.043   1.865 -0.7829  0.3591 -0.4955
  382MOL0     C52645   2.012   5.125   1.753  0.1728  0.5730  0.2495
  382MOL0     C52646   1.919   5.219   1.691  0.1747 -1.1430 -0.1184
  382MOL0     H52647   2.529   5.060   1.416  1.2070  0.0218  3.5311
  382MOL0     H52648   2.664   5.180   1.260  2.4705 -0.4187  1.0271
  382MOL0     H52649   2.660   5.639   1.266  1.8585 -0.8394  1.2010
  382MOL0     H52650   2.567   5.620   1.117  0.7080 -0.0543  0.2557
  382MOL0     H52651   2.752   5.553   1.001  2.0123 -1.1886 -0.2277
  382MOL0     H52652   2.789   5.716   1.079 -0.8324 -0.1261 -0.2190
  382MOL0     H52653   2.929   5.602   1.253  3.4803  0.8014 -0.6319
  382MOL0     H52654   2.927   5.448   1.159 -0.3064 -1.2024 -5.9047
  382MOL0     H52655   3.019   5.579   0.970 -1.3650  1.9596 -1.1581
  382MOL0     H52656   3.043   5.715   1.080  1.6853 -0.0383 -2.0865
  382MOL0     H52657   3.156   5.438   1.119 -2.6200 -0.4089 -0.3722
  382MOL0     H52658   3.162   5.574   1.232  2.0286 -0.0939  0.5397
  382MOL0     H52659   3.286   5.564   0.951 -2.5965  2.0988 -0.7339
  382MOL0     H52660   3.311   5.697   1.051  1.8937 -0.4630 -0.6632
  382MOL0     H52661   3.411   5.407   1.091  0.4688 -1.4110  3.6429
  382MOL0     H52662   3.449   5.531   1.211 -0.5389 -0.1279 -0.4999
  382MOL0     H52663   3.548   5.538   0.927 -1.4486  3.1257 -1.2838
  382MOL0     H52664   3.581   5.666   1.051 -1.3622 -0.3522  3.8544
  382MOL0     H52665   3.593   5.278   1.070 -0.4745  1.4688 -0.3680
  382MOL0     H52666   3.947   5.189   1.120  1.1828 -1.0182  1.4152
  382MOL0     H52667   3.778   5.121   1.145  0.1371 -0.9056  0.5761
  382MOL0     H52668   3.813   5.263   1.362  0.6370  0.6112 -0.1945
  382MOL0     H52669   3.873   5.093   1.369 -1.2508  0.5783  1.2776
  382MOL0     H52670   4.103   5.177   1.300  1.4313  1.4455  1.2306
  382MOL0     H52671   4.043   5.337   1.311  0.3975 -1.4399 -5.0310
  382MOL0     H52672   4.164   5.276   1.514  1.6444 -2.1476 -2.6587
  382MOL0     H52673   3.991   5.279   1.558 -2.1970 -3.9342  1.1263
  382MOL0     H52674   4.326   5.161   1.461  1.1418  0.0785  0.2181
  382MOL0     H52675   4.565   5.136   1.452  2.1790 -0.6503  1.7871
  382MOL0     H52676   4.557   4.988   1.337 -1.4631 -2.7244  1.8092
  382MOL0     H52677   4.631   4.989   1.500  0.7796  1.0589  1.6708
  382MOL0     H52678   4.760   4.625   1.624  3.5883 -0.6937 -1.0420
  382MOL0     H52679   4.900   4.419   1.629 -0.4029  0.0958 -0.9566
  382MOL0     H52680   4.708   4.013   1.687 -3.5801  1.6440 -1.9893
  382MOL0     H52681   4.716   4.028   1.507  1.6576  0.7728 -0.8524
  382MOL0     H52682   4.856   3.843   1.588 -0.5489 -0.6238 -0.2461
  382MOL0     H52683   4.935   3.965   1.490 -1.5367  0.5693 -0.6591
  382MOL0     H52684   4.958   3.891   1.791 -1.1251  0.1781 -0.3455
  382MOL0     H52685   5.007   4.057   1.729 -1.0086 -1.3344  2.2536
  382MOL0     H52686   5.162   3.971   1.586 -1.2652 -0.6802 -0.8635
  382MOL0     H52687   5.105   3.803   1.618 -1.4703  1.1791 -1.1585
  382MOL0     H52688   5.197   3.972   1.838 -3.2923 -0.4785 -0.1582
  382MOL0     H52689   5.205   3.794   1.823 -1.2574  0.6651  0.3026
  382MOL0     H52690   5.385   4.007   1.709 -0.5026  0.4136  1.6015
  382MOL0     H52691   5.360   3.857   1.618 -0.2986  1.9602 -1.0775
  382MOL0     H52692   5.560   3.877   1.787 -1.0315  1.2818  0.2320
  382MOL0     H52693   5.461   3.736   1.811 -0.7213 -0.0283  1.2546
  382MOL0     H52694   5.533   3.832   2.016  0.1856  0.4432 -1.0123
  382MOL0     H52695   5.358   3.840   2.012  0.7740  0.0329  1.1604
  382MOL0     H52696   4.545   4.182   1.565  0.2900 -0.2644 -0.4454
  382MOL0     H52697   4.414   4.399   1.544 -0.1838  4.0805  0.0065
  382MOL0     H52698   4.278   4.672   1.567  1.2518 -0.1082 -0.9919
  382MOL0     H52699   4.067   4.845   1.605 -0.5139  2.3060 -0.2494
  382MOL0     H52700   2.426   5.547   1.371  0.6426  0.2500  2.3303
  382MOL0     H52701   2.316   5.424   1.517  1.4584 -1.2356  2.0508
  382MOL0     H52702   2.328   4.994   1.750 -0.2827  2.8734  0.4622
  382MOL0     H52703   2.229   4.858   1.943 -1.1883 -1.2177  0.4564
  382MOL0     H52704   1.878   4.962   2.157  1.5265 -0.2466  0.1186
  382MOL0     H52705   1.817   4.876   2.000  3.2957 -2.5287 -2.0259
  382MOL0     H52706   1.842   4.665   2.105  2.2904  0.5622 -0.7806
  382MOL0     H52707   1.741   4.778   2.205  0.6690  2.9255  0.6054
  382MOL0     H52708   2.037   4.720   2.268  1.5725  2.2943  1.7796
  382MOL0     H52709   1.916   4.798   2.372  0.9281 -0.0704  1.1412
  382MOL0     H52710   1.971   4.539   2.402 -0.9193 -1.4924  0.7468
  382MOL0     H52711   1.862   4.517   2.276  2.2896 -1.4593  0.9651
  382MOL0     H52712   1.555   4.658   2.518  0.8008  0.1839  1.2536
  382MOL0     H52713   1.863   5.066   1.904 -0.5656 -0.5258  0.6227
  382MOL0     H52714   1.967   5.314   1.665  1.6651 -1.3276  1.7515
  382MOL0     H52715   1.870   5.170   1.606  0.1691 -0.9791 -0.2117
  382MOL0     H52716   1.833   5.259   1.745  0.1260  1.1178 -1.6874
  383MOL0     O52717   1.458   6.137   7.218  0.2810 -0.5597 -0.2195
  383MOL0     C52718   1.446   6.182   7.333 -0.8120 -1.0239 -0.7739
  383MOL0     O52719   1.540   6.218   7.421 -0.7963 -0.2803  1.1461
  383MOL0     C52720   1.665   6.192   7.389  0.3656 -0.2405 -0.5129
  383MOL0     C52721   1.711   6.061   7.363 -0.0251 -0.0748  0.1603
  383MOL0     C52722   1.843   6.041   7.319 -0.2801 -0.0534  0.0073
  383MOL0     C52723   1.934   6.151   7.320 -0.6906  0.6090  0.0933
  383MOL0     O52724   2.067   6.140   7.287 -0.0790 -0.3518 -0.1040
  383MOL0     C52725   2.129   6.008   7.285  0.9466 -0.4605 -0.8727
  383MOL0     C52726   2.274   6.020   7.325 -0.0426 -0.2971  0.7720
  383MOL0     C52727   2.349   6.119   7.226 -0.0390 -0.1481 -0.2170
  383MOL0     C52728   2.495   6.132   7.274 -0.0683  0.1899 -0.4564
  383MOL0     C52729   2.583   6.212   7.189 -0.2430 -0.2015  0.5156
  383MOL0     C52730   2.591   6.368   7.205 -0.3991 -0.6000  0.5588
  383MOL0     C52731   2.698   6.433   7.112  0.5413  0.7998 -1.2487
  383MOL0     C52732   2.666   6.422   6.965  0.2272 -0.2942 -0.3989
  383MOL0     N52733   2.782   6.471   6.889  0.9078  0.3969  0.4479
  383MOL0     C52734   2.771   6.500   6.749 -0.8376 -0.8229 -1.4574
  383MOL0     C52735   2.895   6.527   6.711  0.1903 -0.2767  0.1200
  383MOL0     C52736   2.941   6.564   6.574 -0.6306 -0.5885  0.1049
  383MOL0     C52737   2.913   6.457   6.462 -0.8303 -1.1558  0.3777
  383MOL0     C52738   2.978   6.321   6.480  0.6465  0.7287  0.0505
  383MOL0     C52739   3.126   6.333   6.487  0.3650  0.4688 -0.3626
  383MOL0     O52740   3.180   6.209   6.469  0.3875  0.4014 -0.4588
  383MOL0     C52741   3.316   6.189   6.466  0.5344 -0.3527  0.1276
  383MOL0     C52742   3.418   6.278   6.497 -0.5174  0.0254 -0.3007
  383MOL0     C52743   3.560   6.256   6.478 -0.2288  0.0834 -0.5576
  383MOL0     C52744   3.663   6.352   6.520  0.1856 -0.8236  0.2325
  383MOL0     C52745   3.589   6.127   6.430 -0.3343  0.2639  0.2260
  383MOL0     C52746   3.733   6.100   6.409  0.0551 -0.2925 -0.1573
  383MOL0     O52747   3.800   6.042   6.519  0.8896 -0.4854 -0.1845
  383MOL0     C52748   3.921   5.995   6.510 -0.0321  0.6223  0.2272
  383MOL0     C52749   4.007   6.035   6.609  0.9826  0.0297  0.3074
  383MOL0     C52750   4.139   5.983   6.615  0.0232  0.0098 -0.5233
  383MOL0     C52751   4.183   5.890   6.525 -0.3478 -1.1450  0.5300
  383MOL0     O52752   4.318   5.859   6.519  0.5802  0.7726 -0.4919
  383MOL0     C52753   4.355   5.722   6.543 -0.3353 -0.1043  0.2435
  383MOL0     C52754   4.466   5.726   6.647  0.2207 -0.8395 -0.6216
  383MOL0     C52755   4.598   5.772   6.586  0.4862  0.2283  0.1849
  383MOL0     C52756   4.714   5.777   6.687 -0.5664  0.4365 -0.3919
  383MOL0     C52757   4.849   5.784   6.624  0.0691  0.0027 -0.2955
  383MOL0     C52758   4.891   5.646   6.566  0.1336  1.2148 -0.1128
  383MOL0     C52759   5.021   5.638   6.471 -0.0732 -0.7164 -0.1607
  383MOL0     C52760   4.995   5.701   6.335  0.0709  0.1379 -0.1318
  383MOL0    Cl52761   5.147   5.712   6.243 -0.4617 -0.4440  0.2468
  383MOL0     C52762   4.092   5.844   6.424 -0.8862 -0.5791 -0.0807
  383MOL0     C52763   3.960   5.897   6.414 -0.4160 -0.5870 -0.4926
  383MOL0     O52764   3.777   6.114   6.296  0.5338  0.1619  0.1845
  383MOL0     C52765   3.493   6.029   6.391  0.6225 -0.3201 -0.2873
  383MOL0     C52766   3.352   6.072   6.412 -0.0653  1.0790  0.9411
  383MOL0     N52767   2.984   6.503   6.820  0.0313 -0.1096  0.2920
  383MOL0     N52768   2.909   6.482   6.923 -0.1713 -0.1411  0.3603
  383MOL0     C52769   1.885   6.275   7.341  0.1186 -0.6173  0.8132
  383MOL0     C52770   1.757   6.296   7.382  0.3123 -0.1337 -1.1091
  383MOL0     C52771   1.305   6.193   7.378 -0.9114 -0.3129  0.1861
  383MOL0     C52772   1.216   6.261   7.298  0.1141  0.5762 -0.6352
  383MOL0     C52773   1.078   6.267   7.325  0.0236 -0.3551 -0.0130
  383MOL0     C52774   1.033   6.208   7.437  0.0429 -0.9681 -0.4020
  383MOL0     O52775   0.897   6.197   7.470 -0.6761 -0.7651 -0.1696
  383MOL0     C52776   0.814   6.303   7.435 -0.2525  0.2697 -0.3552
  383MOL0     C52777   0.683   6.283   7.494  0.4020 -0.1607  0.2574
  383MOL0     C52778   0.590   6.403   7.449 -0.4823  0.4254 -0.3219
  383MOL0     C52779   0.447   6.377   7.453  0.0480  0.6651 -0.7741
  383MOL0     C52780   0.377   6.490   7.384  0.1334  0.6262  1.0255
  383MOL0     C52781   0.313   6.568   7.315  0.6348  0.0294  0.3512
  383MOL0     C52782   1.119   6.158   7.530  0.1610 -0.1920  0.1795
  383MOL0     C52783   1.256   6.140   7.500 -0.2319  0.8405  0.8748
  383MOL0     C52784   1.335   6.066   7.604 -0.2479 -0.9988 -0.3208
  383MOL0     H52785   1.655   5.970   7.378  1.0925 -0.6232  1.2352
  383MOL0     H52786   1.885   5.947   7.285 -1.4917  0.0117 -1.7783
  383MOL0     H52787   2.118   5.959   7.188  2.2305 -0.1037 -1.2145
  383MOL0     H52788   2.088   5.938   7.359  1.8940  1.6655  1.8600
  383MOL0     H52789   2.281   6.053   7.429 -0.4091  1.9344  0.1406
  383MOL0     H52790   2.305   5.915   7.313  0.2027 -0.1516  0.0446
  383MOL0     H52791   2.356   6.083   7.123  0.5090  3.8987 -1.8171
  383MOL0     H52792   2.305   6.220   7.225  0.7746  0.2651  1.4031
  383MOL0     H52793   2.480   6.187   7.367 -1.6975 -0.9273 -0.0031
  383MOL0     H52794   2.546   6.037   7.296  1.0881  0.7483 -0.6437
  383MOL0     H52795   2.550   6.195   7.087 -1.9622  1.0355  0.8220
  383MOL0     H52796   2.682   6.166   7.197  0.0504  0.1036 -1.0644
  383MOL0     H52797   2.498   6.416   7.173 -0.6146 -0.7107  1.0213
  383MOL0     H52798   2.615   6.400   7.306  0.2068 -2.2521  0.9760
  383MOL0     H52799   2.795   6.385   7.128  0.7339 -0.1111 -4.3701
  383MOL0     H52800   2.723   6.533   7.148  0.4747  1.6021 -3.3240
  383MOL0     H52801   2.655   6.319   6.929 -2.2744  0.4924 -2.2250
  383MOL0     H52802   2.572   6.474   6.943  1.4769  2.9243  1.3411
  383MOL0     H52803   2.681   6.501   6.688 -3.0306  2.9509  1.3953
  383MOL0     H52804   3.049   6.581   6.560 -0.2258 -2.2781  0.9935
  383MOL0     H52805   2.906   6.663   6.543  2.2063  0.1188 -1.2095
  383MOL0     H52806   2.806   6.447   6.442 -0.7894 -0.0785 -0.4989
  383MOL0     H52807   2.947   6.505   6.369 -3.0588 -0.7849 -0.3149
  383MOL0     H52808   2.947   6.277   6.575  3.6292 -3.0757 -0.5397
  383MOL0     H52809   2.952   6.249   6.401 -0.4476 -0.9834  1.8921
  383MOL0     H52810   3.157   6.397   6.403 -0.1958  1.6808  0.3206
  383MOL0     H52811   3.152   6.374   6.585 -2.8845  0.4802  0.6234
  383MOL0     H52812   3.393   6.372   6.545  0.3851  0.5673 -0.8589
  383MOL0     H52813   3.729   6.387   6.440 -2.3580  1.2034 -1.1542
  383MOL0     H52814   3.717   6.313   6.606  2.0241 -0.8598 -0.8745
  383MOL0     H52815   3.616   6.447   6.545 -0.8196 -0.7962 -1.5307
  383MOL0     H52816   3.957   6.099   6.681  1.4343  0.1433  0.5249
  383MOL0     H52817   4.206   6.027   6.688 -2.2163 -1.8087  2.8969
  383MOL0     H52818   4.265   5.664   6.566 -1.7792  2.4361  1.3060
  383MOL0     H52819   4.405   5.677   6.456  2.5302  1.5688  0.8879
  383MOL0     H52820   4.440   5.790   6.732  2.5666 -0.7981  0.1373
  383MOL0     H52821   4.476   5.624   6.685 -0.0921 -0.3393  0.8828
  383MOL0     H52822   4.594   5.869   6.535  0.2517 -0.5367 -1.3118
  383MOL0     H52823   4.627   5.704   6.505 -0.8863 -0.8562  0.5727
  383MOL0     H52824   4.716   5.683   6.744 -0.9061  0.7234  0.1044
  383MOL0     H52825   4.705   5.858   6.760 -1.5541 -0.6345  0.7252
  383MOL0     H52826   4.852   5.860   6.546  1.9358 -1.4535 -1.7289
  383MOL0     H52827   4.921   5.819   6.699  0.3960 -1.6918  0.2118
  383MOL0     H52828   4.808   5.593   6.520  1.5840 -0.7910 -0.5212
  383MOL0     H52829   4.906   5.584   6.655 -0.6381  0.9651 -0.1497
  383MOL0     H52830   5.058   5.537   6.450  0.4367 -0.5075 -0.2927
  383MOL0     H52831   5.107   5.689   6.515 -1.8770 -0.7130  3.8482
  383MOL0     H52832   4.944   5.797   6.350 -1.7103 -0.7613 -0.3102
  383MOL0     H52833   4.923   5.643   6.278  0.5069 -1.4022  0.8406
  383MOL0     H52834   4.139   5.774   6.355 -2.9837 -0.7519 -1.4163
  383MOL0     H52835   3.898   5.855   6.335  2.1997  0.0906 -3.0454
  383MOL0     H52836   3.529   5.934   6.352 -0.6459  0.1800 -2.8581
  383MOL0     H52837   3.264   6.009   6.404  0.1856 -0.1695  5.1552
  383MOL0     H52838   1.960   6.353   7.333 -0.3248 -0.2198  0.5000
  383MOL0     H52839   1.713   6.389   7.418  0.8553 -1.4428  3.5636
  383MOL0     H52840   1.249   6.309   7.207 -0.5208  1.2616 -0.5050
  383MOL0     H52841   1.007   6.306   7.252 -2.6232 -1.0168  2.0289
  383MOL0     H52842   0.856   6.396   7.473  0.3023 -0.5575  1.1279
  383MOL0     H52843   0.809   6.315   7.326 -0.1473  0.5793 -0.3270
  383MOL0     H52844   0.690   6.266   7.602 -2.5051 -0.0561  0.5243
  383MOL0     H52845   0.655   6.184   7.455  2.9214 -0.5362 -0.8254
  383MOL0     H52846   0.594   6.490   7.515 -1.8484 -0.5439  1.1273
  383MOL0     H52847   0.615   6.427   7.345  3.8325 -1.3524  0.0916
  383MOL0     H52848   0.409   6.363   7.555 -1.1053  2.4291 -0.9139
  383MOL0     H52849   0.430   6.280   7.406  2.0152 -0.1692  0.1241
  383MOL0     H52850   0.243   6.622   7.254 -0.6165  0.2746  1.9292
  383MOL0     H52851   1.084   6.111   7.621 -3.8432 -0.9479 -1.5570
  383MOL0     H52852   1.272   5.984   7.640  1.4267 -1.0418  2.8604
  383MOL0     H52853   1.426   6.011   7.576 -0.4660 -0.9831 -1.0861
  383MOL0     H52854   1.351   6.132   7.689 -1.0588 -1.2270  0.0217
  384MOL0     O52855   1.790   1.133   4.646  0.8405  0.3626  1.0769
  384MOL0     C52856   1.808   1.152   4.526 -0.9694 -0.0726 -0.1689
  384MOL0     O52857   1.932   1.152   4.461 -0.1745  0.5152 -0.7035
  384MOL0     C52858   2.039   1.104   4.527 -0.2307 -0.1102 -0.7948
  384MOL0     C52859   2.146   1.192   4.547 -0.2999  1.0290  0.9682
  384MOL0     C52860   2.260   1.151   4.615  0.3122  0.3062  0.5461
  384MOL0     C52861   2.265   1.019   4.676  0.9977 -0.5327  0.0671
  384MOL0     O52862   2.385   0.988   4.739 -0.0905  0.6348  0.4132
  384MOL0     C52863   2.379   0.887   4.839  0.0202  0.2868 -0.3966
  384MOL0     C52864   2.396   0.749   4.783  0.0749  0.3469  0.2202
  384MOL0     C52865   2.538   0.693   4.784  0.4726 -0.2871 -0.2740
  384MOL0     C52866   2.638   0.788   4.717 -0.4547 -0.1952 -0.2718
  384MOL0     C52867   2.785   0.734   4.706  0.1794  1.1808  0.6505
  384MOL0     C52868   2.875   0.840   4.669 -0.2745 -0.2264  0.2954
  384MOL0     C52869   2.998   0.782   4.602  0.0827 -0.7283 -0.3396
  384MOL0     C52870   3.097   0.737   4.712 -0.3817 -0.2150  0.0897
  384MOL0     N52871   3.242   0.750   4.678 -0.2323 -0.4568 -0.4540
  384MOL0     C52872   3.300   0.869   4.692 -0.4448  0.1755  1.2346
  384MOL0     C52873   3.430   0.852   4.658  0.3612 -0.2664  1.0950
  384MOL0     C52874   3.544   0.952   4.637  0.2730  0.0729  0.3141
  384MOL0     C52875   3.640   0.901   4.522 -0.6985  0.0941 -0.0734
  384MOL0     C52876   3.764   0.995   4.523 -0.7820 -1.2909  0.1833
  384MOL0     C52877   3.888   0.934   4.462 -0.4156  0.6216  0.3657
  384MOL0     O52878   3.984   1.032   4.445  0.1077 -0.3721 -0.0011
  384MOL0     C52879   4.092   1.001   4.368  0.6896 -0.1224  0.8867
  384MOL0     C52880   4.157   0.883   4.377 -0.1054  0.3542 -0.3716
  384MOL0     C52881   4.272   0.849   4.305  0.6549 -0.0878  0.7700
  384MOL0     C52882   4.318   0.708   4.323 -0.4226 -1.2019 -0.5018
  384MOL0     C52883   4.318   0.939   4.208 -0.0310 -0.6425  0.4244
  384MOL0     C52884   4.423   0.916   4.111  0.1955  0.5947 -0.5542
  384MOL0     O52885   4.389   0.976   3.985  0.4671  0.4128  0.3100
  384MOL0     C52886   4.470   0.991   3.879 -0.1837  0.4038 -0.2464
  384MOL0     C52887   4.419   1.014   3.751 -0.0585  0.2831  0.0060
  384MOL0     C52888   4.497   1.029   3.628 -0.0333 -0.4645 -0.2403
  384MOL0     C52889   4.632   1.014   3.632 -0.2988 -0.5542  0.1431
  384MOL0     O52890   4.717   1.017   3.523  0.0081 -0.9974  0.0116
  384MOL0     C52891   4.675   1.059   3.396  0.4707 -0.2489 -0.3080
  384MOL0     C52892   4.802   1.040   3.310  0.6497  0.2544 -0.2785
  384MOL0     C52893   4.785   1.042   3.154  0.6324  1.6546  0.0775
  384MOL0     C52894   4.681   0.939   3.112 -0.5415  0.0646  0.6406
  384MOL0     C52895   4.712   0.799   3.168 -0.2819  0.0508  0.6649
  384MOL0     C52896   4.849   0.750   3.118 -0.6465 -0.2059  0.7865
  384MOL0     C52897   4.891   0.612   3.164  1.0699  0.5510 -0.2287
  384MOL0     C52898   5.009   0.566   3.070  0.1693  0.2212  0.8399
  384MOL0    Cl52899   5.149   0.670   3.091 -0.3436  0.0012 -0.3742
  384MOL0     C52900   4.687   0.995   3.764 -0.5159 -0.0305  0.1022
  384MOL0     C52901   4.611   0.983   3.886 -1.1447 -0.7822 -0.2355
  384MOL0     O52902   4.533   0.857   4.135  0.1795 -0.3079  0.2150
  384MOL0     C52903   4.254   1.069   4.204  0.6975  0.5722  0.7456
  384MOL0     C52904   4.142   1.097   4.283  0.1452 -0.6262  0.1530
  384MOL0     N52905   3.432   0.723   4.620 -0.2198 -0.0383 -0.7984
  384MOL0     N52906   3.331   0.658   4.636  0.3146 -0.7721 -0.1061
  384MOL0     C52907   2.154   0.939   4.667  0.4674  0.0538 -0.4149
  384MOL0     C52908   2.048   0.977   4.591  0.2919  0.1474  1.0002
  384MOL0     C52909   1.690   1.167   4.435 -0.0531  0.1966 -0.3625
  384MOL0     C52910   1.588   1.070   4.450  0.0789  1.0357  1.1423
  384MOL0     C52911   1.481   1.071   4.370  0.3898 -0.3041  0.0568
  384MOL0     C52912   1.468   1.167   4.272  0.7936  1.1808 -0.6096
  384MOL0     O52913   1.360   1.175   4.178  0.4793  0.2363 -0.1977
  384MOL0     C52914   1.255   1.070   4.189  0.0177 -0.4622 -0.9367
  384MOL0     C52915   1.138   1.116   4.095  0.5558  0.9636 -0.8930
  384MOL0     C52916   1.198   1.141   3.948 -0.1759  0.4871 -0.1093
  384MOL0     C52917   1.098   1.076   3.845  0.3699 -0.5799 -0.7587
  384MOL0     C52918   1.119   1.109   3.705 -0.9220 -0.8358 -0.2859
  384MOL0     C52919   1.137   1.144   3.594 -0.1654  0.3833  0.6778
  384MOL0     C52920   1.563   1.259   4.253  0.3445 -0.4638 -0.3747
  384MOL0     C52921   1.678   1.256   4.328 -0.2786 -0.0196  0.1069
  384MOL0     C52922   1.783   1.345   4.273  0.0214 -0.6310  0.5617
  384MOL0     H52923   2.141   1.289   4.499 -0.1637  0.3438 -0.4607
  384MOL0     H52924   2.334   1.226   4.640  0.5136 -0.3947  2.2373
  384MOL0     H52925   2.286   0.882   4.896 -0.6898  0.0190 -1.5468
  384MOL0     H52926   2.444   0.927   4.918  1.1510  0.5843 -1.4383
  384MOL0     H52927   2.342   0.674   4.842  0.6879 -0.1108  0.2023
  384MOL0     H52928   2.351   0.747   4.683 -2.2500 -2.0480  1.1962
  384MOL0     H52929   2.565   0.667   4.887  0.5026 -2.1734 -0.7256
  384MOL0     H52930   2.546   0.598   4.730 -1.5048 -0.0881 -0.9911
  384MOL0     H52931   2.599   0.820   4.620 -0.1783  3.8369  0.7426
  384MOL0     H52932   2.643   0.879   4.777  1.5276 -0.8958  0.7256
  384MOL0     H52933   2.777   0.646   4.641 -3.1690  1.0849  1.0468
  384MOL0     H52934   2.833   0.703   4.799  2.9056  1.4268 -0.5841
  384MOL0     H52935   2.832   0.906   4.593 -1.5669  1.7206  2.5684
  384MOL0     H52936   2.897   0.906   4.753 -0.2895 -0.5848  0.5827
  384MOL0     H52937   3.051   0.856   4.541  1.1881 -2.8722 -2.1808
  384MOL0     H52938   2.971   0.695   4.541 -0.4788 -2.3766  2.1427
  384MOL0     H52939   3.068   0.811   4.788 -1.6605 -2.7195  2.1760
  384MOL0     H52940   3.071   0.637   4.748  0.5251  0.6575  3.5389
  384MOL0     H52941   3.248   0.961   4.715 -0.6495  1.7531 -4.2383
  384MOL0     H52942   3.597   0.966   4.732 -3.3414  2.3264  2.1949
  384MOL0     H52943   3.506   1.054   4.624 -1.2839 -0.7977 -3.1748
  384MOL0     H52944   3.658   0.794   4.540 -3.0260 -0.0852  1.6719
  384MOL0     H52945   3.582   0.917   4.431  0.3797  0.7573 -0.6638
  384MOL0     H52946   3.739   1.087   4.470  2.1833 -1.4900 -1.8568
  384MOL0     H52947   3.785   1.023   4.627 -4.8800 -0.0324  0.8590
  384MOL0     H52948   3.924   0.855   4.530 -1.9667 -0.4482  0.0125
  384MOL0     H52949   3.870   0.880   4.368  3.1899 -0.0591 -0.0623
  384MOL0     H52950   4.123   0.804   4.443 -0.7933 -0.6294 -1.8330
  384MOL0     H52951   4.377   0.670   4.239 -0.9216 -3.0426 -0.0823
  384MOL0     H52952   4.230   0.642   4.326 -1.0638 -0.3284  1.4315
  384MOL0     H52953   4.381   0.692   4.411  2.7381 -0.0880 -2.4019
  384MOL0     H52954   4.311   1.010   3.738  0.2365 -1.4741 -2.7113
  384MOL0     H52955   4.451   1.040   3.530 -3.6109  0.2239  1.3674
  384MOL0     H52956   4.601   0.993   3.350 -1.4354  0.3796  1.7086
  384MOL0     H52957   4.639   1.161   3.406  1.1504 -0.0168 -0.1877
  384MOL0     H52958   4.871   1.122   3.330 -1.1722  1.4101  1.6876
  384MOL0     H52959   4.849   0.946   3.338  0.2193  0.3773  0.9305
  384MOL0     H52960   4.877   1.026   3.097  0.9679  1.3185  0.7048
  384MOL0     H52961   4.750   1.144   3.134 -0.7987  1.4230  1.2193
  384MOL0     H52962   4.678   0.941   3.003  1.4320  2.3895  0.5367
  384MOL0     H52963   4.581   0.969   3.144 -0.1446  2.5519 -0.2363
  384MOL0     H52964   4.701   0.795   3.276  1.2407 -0.8368  0.8227
  384MOL0     H52965   4.635   0.730   3.131 -0.4310  0.6960 -0.2713
  384MOL0     H52966   4.928   0.818   3.153 -0.5925  1.1398 -1.7240
  384MOL0     H52967   4.837   0.752   3.009 -0.0531  1.1112  0.7207
  384MOL0     H52968   4.808   0.541   3.152  0.6094  0.2848  3.4041
  384MOL0     H52969   4.925   0.615   3.268  1.9819  0.0871 -0.4987
  384MOL0     H52970   4.982   0.577   2.964  0.0271 -2.9557  0.4601
  384MOL0     H52971   5.034   0.460   3.077  1.0172  0.2751 -0.7733
  384MOL0     H52972   4.793   0.996   3.786 -0.4073 -3.5779  0.2961
  384MOL0     H52973   4.669   0.959   3.974 -0.6424 -0.3718 -0.4535
  384MOL0     H52974   4.282   1.143   4.130  1.5518  0.7074  1.1863
  384MOL0     H52975   4.080   1.185   4.274 -0.6592 -1.2431 -0.3984
  384MOL0     H52976   2.142   0.851   4.730 -1.2077  0.3136 -0.3147
  384MOL0     H52977   1.974   0.900   4.575 -2.2997  3.1188 -3.5463
  384MOL0     H52978   1.595   0.988   4.520  1.6899 -0.8030 -1.0009
  384MOL0     H52979   1.399   1.005   4.396 -1.6820  2.0632 -0.0450
  384MOL0     H52980   1.297   0.974   4.157  0.0579 -1.7674  2.6388
  384MOL0     H52981   1.219   1.055   4.291  1.2504  0.2453 -0.3831
  384MOL0     H52982   1.084   1.202   4.134 -0.3520 -0.0745  0.1734
  384MOL0     H52983   1.066   1.035   4.100 -0.4226  1.7970 -1.1553
  384MOL0     H52984   1.224   1.244   3.923  2.0499 -0.4572 -2.0269
  384MOL0     H52985   1.292   1.088   3.931 -0.6559 -0.2355 -0.5352
  384MOL0     H52986   0.995   1.111   3.857  0.7139  0.1906  0.0514
  384MOL0     H52987   1.100   0.968   3.860  0.1371 -0.5155 -0.2375
  384MOL0     H52988   1.152   1.178   3.494  3.0878  0.0247  0.9259
  384MOL0     H52989   1.550   1.331   4.174  0.1251  0.4362  0.4593
  384MOL0     H52990   1.782   1.449   4.307 -0.0887 -0.0664 -1.0553
  384MOL0     H52991   1.884   1.316   4.301  0.7170  0.2864 -0.8586
  384MOL0     H52992   1.785   1.346   4.163 -1.2888  0.0602  0.5231
  385MOL0     O52993   6.536  10.552   8.304  0.1835  0.6922  0.1489
  385MOL0     C52994   6.623  10.637   8.326 -0.0330  1.2409 -0.7652
  385MOL0     O52995   6.719  10.617   8.419 -1.3228 -0.1593 -0.4211
  385MOL0     C52996   6.729  10.497   8.481  0.3840  0.7700  0.0947
  385MOL0     C52997   6.724  10.376   8.404  0.2532  0.4942  0.2510
  385MOL0     C52998   6.736  10.256   8.481  0.2066 -0.7088  0.6468
  385MOL0     C52999   6.747  10.250   8.619 -0.5484  0.2155  0.2331
  385MOL0     O53000   6.760  10.126   8.681  0.0488  0.3289 -0.5067
  385MOL0     C53001   6.757  10.126   8.822 -0.1521  0.4593 -0.4935
  385MOL0     C53002   6.795   9.985   8.868  0.1762  0.6348  0.3449
  385MOL0     C53003   6.948   9.952   8.846 -0.0174 -0.2012  0.0897
  385MOL0     C53004   6.985   9.815   8.906  0.0477 -0.1454 -0.0515
  385MOL0     C53005   7.134   9.787   8.912 -0.3667  0.7703 -0.2465
  385MOL0     C53006   7.205   9.848   9.035  0.7595 -0.8073 -0.4030
  385MOL0     C53007   7.356   9.814   9.016 -0.2299  0.4504 -0.2092
  385MOL0     C53008   7.430   9.912   8.942 -0.0549 -0.4727 -0.2800
  385MOL0     N53009   7.568   9.872   8.957  0.2377  0.7692  0.0602
  385MOL0     C53010   7.626   9.769   8.880  0.3021 -0.2451  0.6113
  385MOL0     C53011   7.758   9.773   8.909 -0.5966  0.3281  0.1848
  385MOL0     C53012   7.867   9.696   8.846  0.8188 -0.7269  0.1074
  385MOL0     C53013   7.845   9.546   8.870  0.5723 -0.3010 -0.8467
  385MOL0     C53014   7.867   9.503   9.009  0.3144 -0.4346 -0.8433
  385MOL0     C53015   7.743   9.520   9.112 -1.0656 -0.6865 -0.5679
  385MOL0     O53016   7.622   9.453   9.076 -0.1647  0.1984 -0.3761
  385MOL0     C53017   7.506   9.474   9.157 -0.9443 -0.0076  0.2190
  385MOL0     C53018   7.389   9.416   9.118 -0.1508 -0.6799  0.4878
  385MOL0     C53019   7.268   9.446   9.178  0.4681 -0.2657 -0.2237
  385MOL0     C53020   7.147   9.381   9.114  0.9248 -0.3495  0.9298
  385MOL0     C53021   7.262   9.525   9.296 -0.7142  0.0434  0.6035
  385MOL0     C53022   7.135   9.571   9.367 -0.3935 -0.5335  0.2359
  385MOL0     O53023   7.132   9.704   9.407 -0.2172 -1.0025 -0.8742
  385MOL0     C53024   7.052   9.746   9.514  0.2214 -0.3937 -0.2643
  385MOL0     C53025   6.958   9.850   9.503 -0.8832  0.1366  0.2557
  385MOL0     C53026   6.873   9.879   9.607  0.2425  0.2016  0.1136
  385MOL0     C53027   6.884   9.811   9.732  0.2452  0.6108  0.3709
  385MOL0     O53028   6.804   9.842   9.838 -0.2125  0.4388 -0.1595
  385MOL0     C53029   6.795   9.748   9.942  0.5278 -0.4085 -0.2841
  385MOL0     C53030   6.673   9.790  10.028 -0.2470  0.0624  0.8567
  385MOL0     C53031   6.651   9.675  10.128  0.0247  0.4914  0.8349
  385MOL0     C53032   6.527   9.701  10.214 -0.1519 -0.5346 -0.1964
  385MOL0     C53033   6.525   9.602  10.336  0.2832  0.2543 -0.1047
  385MOL0     C53034   6.392   9.625  10.412  0.4700 -0.4421 -0.7744
  385MOL0     C53035   6.357   9.513  10.516  0.4510  0.2240 -0.4282
  385MOL0     C53036   6.445   9.508  10.645  0.1575  0.2656  1.3644
  385MOL0    Cl53037   6.432   9.653  10.744 -0.1111 -0.1823 -0.5080
  385MOL0     C53038   6.984   9.710   9.746  0.3319  0.0502 -0.0461
  385MOL0     C53039   7.067   9.689   9.643 -0.3000  0.2996  0.0044
  385MOL0     O53040   7.031   9.506   9.352 -0.0704 -0.5563 -0.2804
  385MOL0     C53041   7.386   9.574   9.342  0.3335  0.4379 -0.2326
  385MOL0     C53042   7.511   9.548   9.281  0.2325  0.6330  0.2020
  385MOL0     N53043   7.782   9.876   8.998 -0.1605 -0.3989 -0.4326
  385MOL0     N53044   7.667   9.929   9.024 -0.7575 -0.6428  0.2615
  385MOL0     C53045   6.739  10.378   8.686  0.0774 -0.5125  0.9237
  385MOL0     C53046   6.730  10.497   8.617  0.5267 -0.1271  0.0432
  385MOL0     C53047   6.604  10.777   8.273 -0.1682 -1.1263  0.1512
  385MOL0     C53048   6.501  10.803   8.173 -0.0922  1.0257 -0.5042
  385MOL0     C53049   6.472  10.928   8.124  0.5719  0.4977 -0.0037
  385MOL0     C53050   6.548  11.036   8.169  0.9831  0.4521 -0.2530
  385MOL0     O53051   6.522  11.162   8.110 -0.7564 -0.0492  0.5608
  385MOL0     C53052   6.555  11.282   8.175 -0.3778  1.0546 -0.9691
  385MOL0     C53053   6.449  11.390   8.133 -0.0224  0.1584  0.3757
  385MOL0     C53054   6.315  11.375   8.223 -0.2355  0.4425 -0.0402
  385MOL0     C53055   6.197  11.471   8.161 -0.6344  0.6590 -0.0293
  385MOL0     C53056   6.066  11.472   8.232  0.3561  0.4268  0.8461
  385MOL0     C53057   5.947  11.459   8.269 -0.6400  0.6691  0.4587
  385MOL0     C53058   6.656  11.011   8.259  0.7198 -0.2610 -0.1951
  385MOL0     C53059   6.682  10.890   8.312  0.0890 -0.6572 -0.3800
  385MOL0     C53060   6.796  10.884   8.421 -0.2351  0.0013  0.8464
  385MOL0     H53061   6.719  10.377   8.296  2.0448 -0.9762  0.1067
  385MOL0     H53062   6.725  10.171   8.415 -0.9261  0.7025 -1.0673
  385MOL0     H53063   6.658  10.152   8.861  0.3659  0.5017  0.8468
  385MOL0     H53064   6.833  10.193   8.863 -0.9764  1.1124 -0.0060
  385MOL0     H53065   6.757   9.972   8.970 -1.4260 -1.5182 -0.4494
  385MOL0     H53066   6.732   9.910   8.819 -2.8059  2.3248  1.2946
  385MOL0     H53067   6.968   9.971   8.740 -0.2145  1.8568  0.3890
  385MOL0     H53068   7.015  10.019   8.900 -0.0385 -1.7928  2.2169
  385MOL0     H53069   6.944   9.795   9.006  3.4419 -2.1167  1.1102
  385MOL0     H53070   6.949   9.738   8.837  0.5679  1.2852 -1.9957
  385MOL0     H53071   7.185   9.825   8.822  0.0314  0.0381 -0.3457
  385MOL0     H53072   7.146   9.678   8.911 -2.3554  0.4534 -3.4799
  385MOL0     H53073   7.184   9.955   9.041  1.4280 -0.6604 -0.5932
  385MOL0     H53074   7.166   9.791   9.120  0.5125  1.4877  1.1078
  385MOL0     H53075   7.369   9.715   8.972  2.6745  1.0568 -0.9171
  385MOL0     H53076   7.384   9.813   9.122 -5.6206  0.6386  1.5629
  385MOL0     H53077   7.407   9.927   8.836 -0.5322  4.1531  0.2669
  385MOL0     H53078   7.420  10.012   8.986  3.2753  0.7870 -2.0146
  385MOL0     H53079   7.571   9.705   8.813 -1.3962  0.8948  0.8415
  385MOL0     H53080   7.960   9.745   8.873 -0.3527  2.3187 -0.9065
  385MOL0     H53081   7.861   9.694   8.736  1.3450 -3.0070  0.0730
  385MOL0     H53082   7.755   9.508   8.821  0.2889 -0.6562 -0.0776
  385MOL0     H53083   7.930   9.499   8.820  0.0230 -2.8868  0.4606
  385MOL0     H53084   7.888   9.397   8.990  2.4346  0.0517 -1.3519
  385MOL0     H53085   7.961   9.537   9.051 -0.1163  0.6932 -0.7554
  385MOL0     H53086   7.785   9.486   9.207  2.2490 -0.0062 -1.6425
  385MOL0     H53087   7.728   9.626   9.134 -1.7369 -1.0029  0.5643
  385MOL0     H53088   7.403   9.351   9.032  0.9805  0.4783 -0.2466
  385MOL0     H53089   7.069   9.457   9.109 -1.3236 -2.5171  0.9628
  385MOL0     H53090   7.113   9.303   9.183 -1.4494  1.1446  1.5643
  385MOL0     H53091   7.168   9.342   9.014 -1.1811  1.2448 -0.2061
  385MOL0     H53092   6.957   9.905   9.410  0.0878 -2.8668 -1.6723
  385MOL0     H53093   6.792   9.949   9.588  0.3344  1.0530  2.5057
  385MOL0     H53094   6.759   9.654   9.901 -1.9361  1.2786 -2.3042
  385MOL0     H53095   6.887   9.745  10.002 -0.6364 -0.3121  1.5914
  385MOL0     H53096   6.700   9.884  10.078 -0.6961 -0.2302  1.6777
  385MOL0     H53097   6.584   9.808   9.967 -1.2369 -1.3955  1.8073
  385MOL0     H53098   6.742   9.661  10.188  1.6073 -1.0219 -1.7357
  385MOL0     H53099   6.644   9.575  10.085 -0.6260  0.8746  0.0203
  385MOL0     H53100   6.442   9.694  10.145 -1.3519 -1.8730  1.3254
  385MOL0     H53101   6.526   9.804  10.251 -0.4240 -0.3182 -0.7883
  385MOL0     H53102   6.528   9.498  10.302  2.9769 -0.4304  1.8114
  385MOL0     H53103   6.614   9.613  10.398  0.5847 -0.2233 -0.4406
  385MOL0     H53104   6.315   9.623  10.335  1.5186 -0.2236 -1.8714
  385MOL0     H53105   6.398   9.727  10.451 -2.1744 -0.8365  0.8561
  385MOL0     H53106   6.370   9.419  10.462  2.4870 -0.7384  1.5675
  385MOL0     H53107   6.251   9.522  10.540  0.7037 -0.2021  0.9051
  385MOL0     H53108   6.546   9.499  10.604 -1.5756 -1.2487 -3.1869
  385MOL0     H53109   6.421   9.425  10.712 -0.5322  2.2596  3.7717
  385MOL0     H53110   6.982   9.644   9.832 -0.5246 -0.9832 -0.8246
  385MOL0     H53111   7.141   9.610   9.650  0.9222  1.3682 -0.4245
  385MOL0     H53112   7.391   9.621   9.440  0.1637  1.7830 -0.8431
  385MOL0     H53113   7.601   9.593   9.322  0.6243 -0.4952  0.6120
  385MOL0     H53114   6.751  10.378   8.794 -0.2702 -3.8936  1.0519
  385MOL0     H53115   6.715  10.594   8.664  1.6307 -0.0179  0.2072
  385MOL0     H53116   6.436  10.720   8.147 -3.9430  2.7838  2.4745
  385MOL0     H53117   6.395  10.932   8.048 -1.7415 -1.2595  2.0576
  385MOL0     H53118   6.564  11.267   8.283 -2.1594  0.1593 -0.8932
  385MOL0     H53119   6.650  11.307   8.128 -1.0804 -0.7488 -3.5532
  385MOL0     H53120   6.421  11.386   8.027  1.2115  3.4048 -0.2102
  385MOL0     H53121   6.486  11.490   8.157 -2.1335  1.1299 -0.2289
  385MOL0     H53122   6.281  11.272   8.237  3.8354 -0.8965  1.3733
  385MOL0     H53123   6.359  11.411   8.316 -0.7708  1.0779 -0.0209
  385MOL0     H53124   6.198  11.439   8.056  1.2298 -0.6005  0.3160
  385MOL0     H53125   6.227  11.576   8.162  3.0185 -0.2283  1.6964
  385MOL0     H53126   5.841  11.461   8.277 -0.9995  2.4768 -2.9229
  385MOL0     H53127   6.720  11.096   8.280  1.1883 -0.5078 -0.5964
  385MOL0     H53128   6.755  10.855   8.518  1.8494 -0.1043  1.7376
  385MOL0     H53129   6.881  10.821   8.392  0.1774  1.5845 -1.6438
  385MOL0     H53130   6.838  10.982   8.444  1.3209 -0.7094  1.1267
  386MOL0     O53131  10.555   6.602  10.546 -0.6170 -0.2972 -0.4344
  386MOL0     C53132  10.501   6.602  10.434 -0.2288  0.5148  0.3093
  386MOL0     O53133  10.570   6.572  10.314 -0.3206 -0.3527 -0.4020
  386MOL0     C53134  10.700   6.544  10.320  0.2462  0.5708  0.2333
  386MOL0     C53135  10.805   6.639  10.347 -0.4955  0.6820 -0.2866
  386MOL0     C53136  10.945   6.604  10.332  0.1811 -0.3251 -0.2291
  386MOL0     C53137  10.969   6.468  10.300  0.3954  0.6329  0.2262
  386MOL0     O53138  11.100   6.420  10.283 -0.5716 -0.5730 -0.6858
  386MOL0     C53139  11.155   6.362  10.406  0.2145 -0.7756 -0.0396
  386MOL0     C53140  11.257   6.252  10.380  0.2078  0.2537 -0.1790
  386MOL0     C53141  11.338   6.282  10.256  0.2294 -0.1375 -0.5114
  386MOL0     C53142  11.458   6.192  10.236  0.1488 -0.5400 -0.3905
  386MOL0     C53143  11.556   6.234  10.128 -0.4600  0.0839 -0.7344
  386MOL0     C53144  11.673   6.321  10.185 -0.2597 -0.1632 -0.4465
  386MOL0     C53145  11.762   6.353  10.061  0.4150 -0.2990  0.1527
  386MOL0     C53146  11.717   6.477   9.978 -0.0138 -0.2123 -0.3376
  386MOL0     N53147  11.809   6.505   9.864 -0.1587  0.0481 -0.5736
  386MOL0     C53148  11.946   6.491   9.866 -0.3176  0.1405 -0.0680
  386MOL0     C53149  11.991   6.521   9.740 -0.4609 -0.7037 -0.2285
  386MOL0     C53150  12.131   6.554   9.691  0.3462 -1.0670 -0.6846
  386MOL0     C53151  12.210   6.641   9.794  0.2900 -0.2310 -1.1803
  386MOL0     C53152  12.339   6.718   9.752 -0.0912  0.3215 -0.4686
  386MOL0     C53153  12.431   6.631   9.675  0.2954  0.8283  0.8358
  386MOL0     O53154  12.436   6.495   9.724 -0.7155  0.0561  0.1186
  386MOL0     C53155  12.563   6.453   9.733 -0.1011  0.1391 -0.5591
  386MOL0     C53156  12.636   6.434   9.622 -1.3303 -0.5541  0.1155
  386MOL0     C53157  12.764   6.373   9.629 -0.2861  0.8112 -0.4528
  386MOL0     C53158  12.841   6.331   9.503 -0.0347 -0.2139 -0.5925
  386MOL0     C53159  12.823   6.350   9.756 -0.0984 -0.9092  0.0088
  386MOL0     C53160  12.964   6.312   9.781 -0.0125 -0.7368  0.8072
  386MOL0     O53161  12.992   6.195   9.847  0.0133 -0.1786 -0.1390
  386MOL0     C53162  13.124   6.157   9.824  0.0446  0.2261  0.6604
  386MOL0     C53163  13.168   6.098   9.701 -0.4478 -0.1773  0.0052
  386MOL0     C53164  13.298   6.054   9.687  0.4407  0.1947 -0.3526
  386MOL0     C53165  13.392   6.069   9.793  0.4804 -0.2004  0.2350
  386MOL0     O53166  13.515   6.023   9.770 -0.9600 -0.4408  0.6924
  386MOL0     C53167  13.598   6.013   9.883  0.4721 -0.5388 -0.7751
  386MOL0     C53168  13.725   5.939   9.849 -1.1300 -0.1127 -0.5165
  386MOL0     C53169  13.827   5.961   9.960 -0.7201 -0.6669 -1.2374
  386MOL0     C53170  13.957   5.919   9.903 -1.2303 -0.3634 -0.5083
  386MOL0     C53171  14.058   5.864  10.009 -0.0610 -0.3982 -0.1630
  386MOL0     C53172  14.190   5.818   9.942  0.6552  0.2783 -0.0715
  386MOL0     C53173  14.303   5.798  10.046  0.0305  0.0965 -0.6698
  386MOL0     C53174  14.421   5.722   9.989 -0.0571  0.0187  0.8891
  386MOL0    Cl53175  14.370   5.566   9.920  0.6026  0.2109 -0.2502
  386MOL0     C53176  13.348   6.137   9.904 -0.3594  0.3429 -0.2407
  386MOL0     C53177  13.216   6.181   9.925 -0.0887  0.0088 -0.5752
  386MOL0     O53178  13.047   6.398   9.743  0.3033 -0.4539  0.0598
  386MOL0     C53179  12.739   6.353   9.864 -0.2436 -1.1002 -0.0231
  386MOL0     C53180  12.611   6.393   9.851 -0.1742  0.3933  0.1787
  386MOL0     N53181  11.878   6.535   9.661 -0.6839  0.5310  0.2237
  386MOL0     N53182  11.773   6.523   9.730  0.6107 -0.3062  0.2160
  386MOL0     C53183  10.864   6.385  10.270  0.1092 -0.2254  1.1432
  386MOL0     C53184  10.727   6.418  10.278 -0.1396  1.4748 -0.5414
  386MOL0     C53185  10.360   6.636  10.421 -0.1714 -0.5072 -0.2627
  386MOL0     C53186  10.295   6.578  10.312 -0.1530  0.1739 -0.1630
  386MOL0     C53187  10.153   6.583  10.290 -0.3346 -0.1873 -0.1034
  386MOL0     C53188  10.073   6.651  10.374 -0.2497 -0.7899 -0.1642
  386MOL0     O53189   9.936   6.668  10.370  0.3402 -0.0573 -0.1057
  386MOL0     C53190   9.862   6.596  10.267  0.5070  0.8838  0.6967
  386MOL0     C53191   9.714   6.636  10.306  0.0477  0.2705 -0.4897
  386MOL0     C53192   9.672   6.757  10.225 -0.6014 -0.5517  0.0052
  386MOL0     C53193   9.522   6.792  10.248  0.5814  0.3046 -0.9709
  386MOL0     C53194   9.476   6.887  10.143 -0.0421 -0.3635  0.7716
  386MOL0     C53195   9.446   6.949  10.043  0.0434 -0.5659  0.6398
  386MOL0     C53196  10.141   6.727  10.472  0.0873 -0.1289 -0.4762
  386MOL0     C53197  10.274   6.717  10.497  0.9906 -0.7100 -0.3983
  386MOL0     C53198  10.338   6.807  10.604  0.2875 -0.3273 -0.0820
  386MOL0     H53199  10.786   6.745  10.360  0.8262  1.1070 -1.4821
  386MOL0     H53200  11.027   6.673  10.347 -2.0754  2.6512 -0.3836
  386MOL0     H53201  11.083   6.323  10.479  0.7300 -3.7249 -0.9372
  386MOL0     H53202  11.203   6.451  10.446 -0.7928  0.3561 -1.2525
  386MOL0     H53203  11.308   6.234  10.475  0.7756 -1.1624 -0.7102
  386MOL0     H53204  11.203   6.158  10.360  0.9240 -0.7548  2.2368
  386MOL0     H53205  11.277   6.271  10.165 -3.8117 -1.1884  2.0707
  386MOL0     H53206  11.384   6.379  10.276  0.6225 -0.2127 -1.0219
  386MOL0     H53207  11.496   6.170  10.336  0.3483 -1.1669 -0.5977
  386MOL0     H53208  11.427   6.089  10.214  3.0060 -1.7139  0.6165
  386MOL0     H53209  11.497   6.296  10.059 -0.8716  3.5039  2.3921
  386MOL0     H53210  11.603   6.145  10.085  2.7582 -0.2585  3.0215
  386MOL0     H53211  11.650   6.418  10.230 -0.4822  0.8884 -2.6542
  386MOL0     H53212  11.737   6.256  10.244  0.4910 -0.1738 -1.2511
  386MOL0     H53213  11.779   6.265   9.998 -0.2338  1.3219 -2.4353
  386MOL0     H53214  11.861   6.386  10.093  1.0961 -0.9676 -1.1978
  386MOL0     H53215  11.621   6.448   9.935 -1.0830 -0.5104  2.1178
  386MOL0     H53216  11.701   6.568  10.036 -0.2239 -1.6407  1.9710
  386MOL0     H53217  12.010   6.470   9.951  0.9648 -0.6449 -1.1919
  386MOL0     H53218  12.126   6.611   9.598 -0.2257  0.9027  0.4959
  386MOL0     H53219  12.185   6.460   9.678 -0.4518 -1.8574  1.3007
  386MOL0     H53220  12.143   6.716   9.837  0.7299 -0.3243 -0.3115
  386MOL0     H53221  12.236   6.568   9.871 -0.6812  2.5403  2.0449
  386MOL0     H53222  12.312   6.805   9.691  1.6654 -0.2986 -2.2318
  386MOL0     H53223  12.395   6.749   9.841  1.2773 -0.8237 -0.8942
  386MOL0     H53224  12.396   6.615   9.572 -0.3573  1.0739  1.0097
  386MOL0     H53225  12.524   6.683   9.653  1.3395 -1.3149 -0.1671
  386MOL0     H53226  12.585   6.455   9.529 -2.0463  2.2436  1.0261
  386MOL0     H53227  12.939   6.380   9.498  1.0366 -2.0669  0.9331
  386MOL0     H53228  12.782   6.361   9.416  0.1370 -2.6729 -1.6386
  386MOL0     H53229  12.840   6.223   9.492 -3.0015 -0.3107 -0.0851
  386MOL0     H53230  13.101   6.085   9.617  0.6943  1.2301 -1.1861
  386MOL0     H53231  13.333   6.008   9.595  1.1744 -1.4950  0.7178
  386MOL0     H53232  13.618   6.112   9.924  0.0706 -1.0004  0.5649
  386MOL0     H53233  13.542   5.962   9.962  0.9109  0.9831  0.5679
  386MOL0     H53234  13.712   5.831   9.835  2.3298 -0.6164 -0.8249
  386MOL0     H53235  13.760   5.971   9.751 -2.9036  0.8583 -0.8571
  386MOL0     H53236  13.806   5.896  10.046  1.5126 -0.0492 -0.1578
  386MOL0     H53237  13.828   6.066   9.991  0.9130 -0.5158 -1.7207
  386MOL0     H53238  13.989   6.006   9.845 -0.1754  0.0464  0.6368
  386MOL0     H53239  13.943   5.831   9.840  2.2411 -0.9418 -0.6992
  386MOL0     H53240  14.083   5.946  10.078 -2.3253  0.2386 -0.0228
  386MOL0     H53241  14.018   5.781  10.067 -0.4623 -0.3479 -0.3710
  386MOL0     H53242  14.221   5.891   9.867  2.0108  0.5271  0.7090
  386MOL0     H53243  14.156   5.721   9.905  0.1439  0.1972  0.5834
  386MOL0     H53244  14.257   5.748  10.132  1.1534  1.7663  0.9681
  386MOL0     H53245  14.327   5.887  10.104 -1.8061 -0.4801  1.1160
  386MOL0     H53246  14.505   5.711  10.057 -0.8007 -1.5813  1.6321
  386MOL0     H53247  14.457   5.774   9.901 -0.0850  1.7387  1.8641
  386MOL0     H53248  13.408   6.153   9.993 -1.0076  0.4795  0.1745
  386MOL0     H53249  13.188   6.236  10.015  0.3613 -0.6519 -0.0208
  386MOL0     H53250  12.773   6.322   9.962  3.0398 -0.4711 -0.8539
  386MOL0     H53251  12.541   6.400   9.935 -2.0673  0.2805 -1.3162
  386MOL0     H53252  10.892   6.295  10.216  1.5567 -1.4692  3.8030
  386MOL0     H53253  10.647   6.355  10.241  2.4500 -1.8749 -0.9005
  386MOL0     H53254  10.347   6.523  10.234 -1.6385  3.1704 -3.4906
  386MOL0     H53255  10.102   6.520  10.218  0.9302 -0.9365 -0.3759
  386MOL0     H53256   9.892   6.622  10.165  0.3416  1.5739  0.8190
  386MOL0     H53257   9.876   6.492  10.295  1.4772  0.6206 -0.6632
  386MOL0     H53258   9.699   6.649  10.413  2.8826  1.9412 -0.1963
  386MOL0     H53259   9.642   6.556  10.283 -2.1453  0.9738  3.1684
  386MOL0     H53260   9.735   6.845  10.246  0.7947 -1.5057 -0.0611
  386MOL0     H53261   9.675   6.727  10.120 -1.9723  0.6964 -0.4411
  386MOL0     H53262   9.503   6.837  10.346  1.4062 -0.7073 -0.3302
  386MOL0     H53263   9.454   6.707  10.236  1.8201 -1.2588  2.1479
  386MOL0     H53264   9.410   6.994   9.953 -3.0594 -3.4370  0.2540
  386MOL0     H53265  10.089   6.801  10.533 -0.8594 -0.0334 -1.3660
  386MOL0     H53266  10.288   6.904  10.615 -0.2947 -0.4294 -1.5738
  386MOL0     H53267  10.339   6.761  10.703 -3.2461 -0.4912  0.0271
  386MOL0     H53268  10.436   6.838  10.567 -0.4126  0.6268 -1.2032
  387MOL0     O53269   5.742   8.333   6.883 -0.8721  0.1152  0.6994
  387MOL0     C53270   5.679   8.251   6.822  0.2998 -0.0551  0.2738
  387MOL0     O53271   5.710   8.199   6.700  0.6234 -0.1777 -0.0386
  387MOL0     C53272   5.826   8.217   6.643  0.4937  0.1214 -0.6045
  387MOL0     C53273   5.832   8.270   6.511 -0.1025  0.1383 -0.4182
  387MOL0     C53274   5.955   8.294   6.448 -0.7018  0.2757 -0.1301
  387MOL0     C53275   6.077   8.255   6.514  0.7530  0.1164 -0.1853
  387MOL0     O53276   6.209   8.277   6.475  0.6577  0.2622 -0.0836
  387MOL0     C53277   6.235   8.355   6.356 -0.5713  0.3587 -0.4574
  387MOL0     C53278   6.390   8.357   6.352 -0.2371 -0.2396 -0.6212
  387MOL0     C53279   6.437   8.388   6.209  0.4409  0.1273 -0.4487
  387MOL0     C53280   6.585   8.444   6.193 -0.0955 -0.4327 -0.4993
  387MOL0     C53281   6.618   8.463   6.040 -0.2196 -0.4242  0.0562
  387MOL0     C53282   6.513   8.565   5.977 -0.5679  0.2455 -0.3052
  387MOL0     C53283   6.554   8.587   5.833  0.6058  0.4126  0.4163
  387MOL0     C53284   6.449   8.677   5.755  0.2404  0.4967 -0.0682
  387MOL0     N53285   6.318   8.615   5.734 -0.5819  0.3808 -1.0561
  387MOL0     C53286   6.238   8.644   5.626 -1.1468  0.8842 -1.1294
  387MOL0     C53287   6.153   8.534   5.608  0.6058 -0.7383 -0.1664
  387MOL0     C53288   6.056   8.524   5.495 -0.2219  0.6071 -0.2787
  387MOL0     C53289   5.949   8.421   5.522 -0.1990  0.3702  0.3239
  387MOL0     C53290   5.864   8.458   5.648 -0.3001 -0.3880 -0.7240
  387MOL0     C53291   5.829   8.605   5.661 -0.6428  0.1675 -0.0440
  387MOL0     O53292   5.762   8.658   5.540 -0.2011 -0.9114  0.6114
  387MOL0     C53293   5.630   8.623   5.516  0.4048  0.0661  0.4960
  387MOL0     C53294   5.586   8.625   5.384 -0.2144 -0.1309 -0.8194
  387MOL0     C53295   5.456   8.567   5.342  0.3359 -0.3755 -0.0435
  387MOL0     C53296   5.419   8.564   5.197 -0.1532  0.2976 -0.3578
  387MOL0     C53297   5.367   8.520   5.440  0.2605 -0.4648  0.4664
  387MOL0     C53298   5.225   8.472   5.427  0.4747  0.9797 -0.2110
  387MOL0     O53299   5.185   8.380   5.518  0.2352  0.8098  0.9654
  387MOL0     C53300   5.049   8.340   5.506 -0.3680 -1.1359 -0.0157
  387MOL0     C53301   4.999   8.257   5.405  0.4896 -1.0833 -0.0669
  387MOL0     C53302   4.864   8.223   5.398  0.3690 -0.3783  0.3109
  387MOL0     C53303   4.774   8.263   5.498  0.1018  0.5527  0.3897
  387MOL0     O53304   4.642   8.220   5.481 -0.2150  0.2879  0.1913
  387MOL0     C53305   4.558   8.221   5.591  0.0134  0.0340  0.1157
  387MOL0     C53306   4.432   8.149   5.551 -0.2822  0.4952 -0.2987
  387MOL0     C53307   4.355   8.227   5.440  0.1025  0.3030  0.2046
  387MOL0     C53308   4.216   8.152   5.417  0.2456 -0.6930 -0.2563
  387MOL0     C53309   4.137   8.234   5.324 -0.2589 -0.4501 -0.5651
  387MOL0     C53310   3.989   8.193   5.345 -0.0154 -0.6140 -0.4635
  387MOL0     C53311   3.899   8.252   5.245  1.4169 -0.0404  0.1244
  387MOL0     C53312   3.758   8.199   5.266  0.1590  0.4121  0.0998
  387MOL0    Cl53313   3.639   8.278   5.162  0.1706 -0.0448 -0.0513
  387MOL0     C53314   4.823   8.344   5.598 -0.6313 -0.9639  0.0821
  387MOL0     C53315   4.960   8.389   5.603 -0.3293  0.4529  0.1279
  387MOL0     O53316   5.150   8.525   5.344  0.5815  0.1566 -0.2912
  387MOL0     C53317   5.415   8.525   5.573 -0.0094 -0.0013 -0.3094
  387MOL0     C53318   5.541   8.575   5.607  1.7847 -0.2640 -0.3607
  387MOL0     N53319   6.161   8.463   5.724  0.0803 -0.0056  0.4233
  387MOL0     N53320   6.259   8.515   5.801 -0.3910  0.4043  0.4737
  387MOL0     C53321   6.068   8.198   6.637 -0.1218  0.3733  0.2127
  387MOL0     C53322   5.947   8.188   6.709  0.6883 -0.8368  0.2745
  387MOL0     C53323   5.554   8.203   6.891  0.4910 -0.0771  0.2738
  387MOL0     C53324   5.509   8.291   6.991 -0.0941  1.1233 -0.3534
  387MOL0     C53325   5.399   8.265   7.070  0.1588  0.0457 -0.3481
  387MOL0     C53326   5.322   8.154   7.045  0.2747 -0.5430 -0.1545
  387MOL0     O53327   5.202   8.142   7.111 -0.0098  1.2936 -0.3270
  387MOL0     C53328   5.184   8.014   7.181  0.0810 -0.0134  0.4675
  387MOL0     C53329   5.210   8.052   7.334  0.3826  0.2318 -0.3084
  387MOL0     C53330   5.125   8.168   7.382  0.7602 -0.4766  0.0079
  387MOL0     C53331   5.108   8.184   7.526  0.4416  0.3043 -0.1610
  387MOL0     C53332   5.020   8.086   7.588 -0.2080  0.3164  0.6197
  387MOL0     C53333   4.957   7.993   7.622 -0.0722  0.0222 -0.2075
  387MOL0     C53334   5.355   8.068   6.939 -0.4617  0.2059 -0.0305
  387MOL0     C53335   5.468   8.095   6.860  0.2995 -0.2543  0.1551
  387MOL0     C53336   5.498   8.006   6.743  0.1965  0.5295  0.4729
  387MOL0     H53337   5.736   8.289   6.464  0.4230 -0.7704 -1.9121
  387MOL0     H53338   5.948   8.335   6.348  0.1960 -1.2007 -0.8173
  387MOL0     H53339   6.178   8.448   6.357 -1.0813  0.0764 -1.3717
  387MOL0     H53340   6.203   8.301   6.266  0.8045  0.6722 -1.1665
  387MOL0     H53341   6.430   8.429   6.423  2.0874  2.3458 -4.2709
  387MOL0     H53342   6.424   8.257   6.382  1.0101 -0.0862 -1.4844
  387MOL0     H53343   6.427   8.293   6.155 -0.5902 -0.2753  0.4032
  387MOL0     H53344   6.366   8.464   6.173 -1.8814 -0.6971  2.0133
  387MOL0     H53345   6.586   8.540   6.244 -1.1479 -0.6990  0.0628
  387MOL0     H53346   6.651   8.374   6.245 -1.4342 -1.3503  0.0505
  387MOL0     H53347   6.599   8.370   5.986 -1.0670  0.6536 -1.5996
  387MOL0     H53348   6.718   8.506   6.029  0.6000 -1.9364  1.2823
  387MOL0     H53349   6.407   8.540   5.983 -1.4116  3.6324  1.9621
  387MOL0     H53350   6.535   8.659   6.029  2.2597 -1.3842  1.7866
  387MOL0     H53351   6.564   8.491   5.782 -1.0450  0.8403 -0.7759
  387MOL0     H53352   6.653   8.634   5.844 -0.0767  2.4852 -1.7034
  387MOL0     H53353   6.441   8.775   5.804 -0.9768  1.2821 -1.7228
  387MOL0     H53354   6.475   8.697   5.651 -3.9939  0.6452 -1.2416
  387MOL0     H53355   6.248   8.732   5.563  0.5010  1.9956  0.5674
  387MOL0     H53356   6.114   8.488   5.410 -2.1096 -2.0037 -0.5976
  387MOL0     H53357   6.010   8.616   5.456  0.9741  1.8490  1.1078
  387MOL0     H53358   5.885   8.388   5.440  3.2286 -1.9074 -1.7253
  387MOL0     H53359   6.013   8.333   5.534  1.0373  1.1108 -0.5016
  387MOL0     H53360   5.771   8.399   5.650 -0.8379  0.0902 -4.3628
  387MOL0     H53361   5.910   8.429   5.743 -0.7724  0.4678 -0.2284
  387MOL0     H53362   5.772   8.617   5.754  1.2667  0.8213  1.0996
  387MOL0     H53363   5.912   8.674   5.674 -1.2612  0.9106  0.0417
  387MOL0     H53364   5.646   8.662   5.301  0.4223 -1.7002 -1.0862
  387MOL0     H53365   5.365   8.471   5.180  1.4192 -0.6503 -0.3366
  387MOL0     H53366   5.508   8.557   5.133  1.0730  0.3774  1.2581
  387MOL0     H53367   5.353   8.649   5.176 -0.7335  0.0562  0.4581
  387MOL0     H53368   5.071   8.224   5.331 -0.8844 -0.8401 -1.5780
  387MOL0     H53369   4.830   8.158   5.318  0.7861 -2.4611  1.7234
  387MOL0     H53370   4.605   8.158   5.667  0.4727  1.3328  0.9312
  387MOL0     H53371   4.543   8.322   5.631 -0.7953  2.6203 -5.7122
  387MOL0     H53372   4.452   8.045   5.526  0.3196  0.7040 -0.7018
  387MOL0     H53373   4.371   8.142   5.642  0.0231  0.2882 -0.1114
  387MOL0     H53374   4.427   8.240   5.358 -2.0196  2.6065 -1.4532
  387MOL0     H53375   4.328   8.329   5.469 -1.0707 -0.3484  1.5312
  387MOL0     H53376   4.160   8.131   5.508  1.5150  1.8460  1.2145
  387MOL0     H53377   4.240   8.056   5.371  4.2439 -0.3108  0.6820
  387MOL0     H53378   4.148   8.341   5.339 -2.8708 -0.1902  0.0150
  387MOL0     H53379   4.174   8.210   5.224  2.5825  1.1672 -0.0097
  387MOL0     H53380   3.951   8.212   5.446  0.1639 -1.2017 -0.2807
  387MOL0     H53381   3.991   8.085   5.330  1.7623 -0.6327 -0.3578
  387MOL0     H53382   3.937   8.237   5.143  0.5121  1.6103 -0.4996
  387MOL0     H53383   3.888   8.360   5.259 -0.5005  0.3276 -3.1465
  387MOL0     H53384   3.725   8.207   5.370 -0.3592 -0.6120  0.0283
  387MOL0     H53385   3.752   8.090   5.264 -0.3719  0.4420 -0.2346
  387MOL0     H53386   4.749   8.387   5.665  0.4890  1.4255 -0.0711
  387MOL0     H53387   4.996   8.466   5.670  2.3391  1.0120 -1.7645
  387MOL0     H53388   5.362   8.488   5.659 -0.1308  1.1518  0.1336
  387MOL0     H53389   5.581   8.575   5.708  3.6847 -0.0463 -1.0727
  387MOL0     H53390   6.166   8.173   6.679  0.7683 -0.8144 -2.3647
  387MOL0     H53391   5.948   8.156   6.812  0.5720 -0.1169  0.5073
  387MOL0     H53392   5.557   8.386   7.016 -2.1840  2.0733  0.2946
  387MOL0     H53393   5.364   8.329   7.150  2.3125  0.1940  0.5369
  387MOL0     H53394   5.085   7.969   7.171  0.5690 -1.0110 -0.0588
  387MOL0     H53395   5.251   7.932   7.153  0.6169  0.6603 -0.2598
  387MOL0     H53396   5.312   8.089   7.350 -0.2709  2.5469 -1.1939
  387MOL0     H53397   5.189   7.967   7.401  1.6509 -0.3593 -0.6241
  387MOL0     H53398   5.153   8.259   7.327  0.8942 -2.0709 -2.7887
  387MOL0     H53399   5.026   8.149   7.339  1.3487 -1.4387 -1.0100
  387MOL0     H53400   5.067   8.282   7.554 -1.5309 -0.6217  0.3630
  387MOL0     H53401   5.211   8.175   7.563  0.7374 -1.3571 -1.3022
  387MOL0     H53402   4.907   7.906   7.659  2.2149 -0.4350  2.1294
  387MOL0     H53403   5.286   7.988   6.913  0.2209  0.4563 -3.0216
  387MOL0     H53404   5.488   8.062   6.650  2.9918  3.7650  1.9069
  387MOL0     H53405   5.602   7.972   6.749  0.3460  0.6485 -1.1367
  387MOL0     H53406   5.439   7.914   6.741  1.2084 -0.1213 -0.4644
  388MOL0     O53407   4.420   6.527   1.080  0.1133  0.4723 -0.4181
  388MOL0     C53408   4.368   6.448   1.001 -0.5681 -0.1321 -0.3364
  388MOL0     O53409   4.432   6.338   0.948 -0.0341  0.5935  0.1255
  388MOL0     C53410   4.559   6.307   0.996 -0.2109  0.0427 -0.2009
  388MOL0     C53411   4.672   6.320   0.911  0.2779  0.0047  0.4144
  388MOL0     C53412   4.790   6.257   0.949 -0.6630  0.2806 -0.6749
  388MOL0     C53413   4.795   6.181   1.069 -0.6807 -0.1558 -0.1578
  388MOL0     O53414   4.913   6.109   1.091  0.2732  0.4175 -0.1113
  388MOL0     C53415   4.935   6.015   0.985  0.0729  0.3359 -0.4102
  388MOL0     C53416   5.077   5.970   0.981  0.4883  0.1786 -0.0081
  388MOL0     C53417   5.186   6.078   0.958  0.1092  0.5015 -0.3232
  388MOL0     C53418   5.312   5.996   0.940  0.2012 -0.7011 -0.2273
  388MOL0     C53419   5.436   6.089   0.960 -0.1346 -0.4132 -0.1810
  388MOL0     C53420   5.499   6.088   1.100  0.0247 -0.0028  0.2613
  388MOL0     C53421   5.572   6.222   1.124 -0.1171 -0.5048 -0.7100
  388MOL0     C53422   5.642   6.234   1.260  1.0322  0.9058  0.0843
  388MOL0     N53423   5.734   6.120   1.284 -0.1616 -0.7127  0.6761
  388MOL0     C53424   5.863   6.116   1.241  0.1674 -0.0080 -0.8527
  388MOL0     C53425   5.921   6.015   1.309  0.0585  1.0977  0.0285
  388MOL0     C53426   6.059   5.968   1.278 -1.1663 -1.1175  0.6737
  388MOL0     C53427   6.172   6.078   1.288  0.1678  0.6320 -0.5690
  388MOL0     C53428   6.203   6.124   1.434  0.3819  0.3570 -0.5152
  388MOL0     C53429   6.327   6.217   1.453 -0.7629 -1.1148 -0.1571
  388MOL0     O53430   6.449   6.156   1.415 -0.4107 -0.8644 -0.2869
  388MOL0     C53431   6.548   6.240   1.362  0.3046 -0.1326 -0.2020
  388MOL0     C53432   6.649   6.174   1.288  0.4981 -0.0231  0.4017
  388MOL0     C53433   6.755   6.249   1.238  0.1973  0.4147  1.2666
  388MOL0     C53434   6.860   6.166   1.164 -0.3720 -0.0220 -0.4306
  388MOL0     C53435   6.757   6.389   1.253 -0.7493 -0.2942  0.0970
  388MOL0     C53436   6.862   6.483   1.197 -0.2459 -0.4104  0.3216
  388MOL0     O53437   6.860   6.610   1.234  0.2959 -0.8144  0.2502
  388MOL0     C53438   6.957   6.697   1.196 -0.9398 -0.1022 -0.1874
  388MOL0     C53439   7.084   6.689   1.257 -0.9263 -1.4677 -0.1086
  388MOL0     C53440   7.193   6.760   1.212 -0.0739  0.0826  0.2445
  388MOL0     C53441   7.179   6.837   1.105 -0.5344 -0.0371 -0.3142
  388MOL0     O53442   7.274   6.921   1.050 -0.4684  0.2568  0.4409
  388MOL0     C53443   7.410   6.897   1.076  0.0381  0.1795 -0.8333
  388MOL0     C53444   7.506   6.970   0.984  1.1890  0.3380  0.1758
  388MOL0     C53445   7.651   6.947   1.021  0.7419  0.3590 -0.0598
  388MOL0     C53446   7.737   6.997   0.903  0.7181 -0.5204  0.7202
  388MOL0     C53447   7.877   6.947   0.943  0.0356  0.2825 -0.1206
  388MOL0     C53448   7.984   7.024   0.868 -0.3435  0.7740 -0.3534
  388MOL0     C53449   8.115   6.964   0.913  0.6075  0.0091 -0.5176
  388MOL0     C53450   8.230   7.024   0.839  0.1542  0.3688 -0.7271
  388MOL0    Cl53451   8.259   7.204   0.869  0.3617  0.1595 -0.0172
  388MOL0     C53452   7.057   6.855   1.045  0.0840 -0.4746 -0.5910
  388MOL0     C53453   6.945   6.788   1.088  0.0789 -0.2719 -0.1162
  388MOL0     O53454   6.955   6.435   1.136  0.1594 -0.0886  0.2144
  388MOL0     C53455   6.659   6.453   1.331  0.1565  0.2902 -0.7743
  388MOL0     C53456   6.552   6.375   1.385 -0.3351 -0.1378 -0.0459
  388MOL0     N53457   5.825   5.955   1.382  0.0653 -0.4955  1.5454
  388MOL0     N53458   5.714   6.015   1.371  0.1166  0.1534 -0.1104
  388MOL0     C53459   4.692   6.179   1.166 -0.4436  0.9828  0.0190
  388MOL0     C53460   4.574   6.241   1.120  0.0219 -0.0635 -0.2293
  388MOL0     C53461   4.228   6.480   0.976  0.6958  0.5122  0.4039
  388MOL0     C53462   4.168   6.595   1.046 -0.7486 -0.4045 -0.1991
  388MOL0     C53463   4.039   6.641   1.021 -0.7091  0.3326  0.3088
  388MOL0     C53464   3.959   6.557   0.939  0.7373  0.1423 -1.1682
  388MOL0     O53465   3.818   6.566   0.937  0.3538  0.2519 -1.0644
  388MOL0     C53466   3.761   6.667   1.022  0.3927 -0.2230 -1.0658
  388MOL0     C53467   3.612   6.684   1.005 -0.4868 -0.3629  0.2373
  388MOL0     C53468   3.526   6.601   1.101 -0.1247 -1.0418  0.0957
  388MOL0     C53469   3.374   6.625   1.077  0.0904  1.2039 -0.4811
  388MOL0     C53470   3.342   6.559   0.949 -0.5601  0.5389 -0.0969
  388MOL0     C53471   3.291   6.497   0.852  0.4339 -0.5405  0.6228
  388MOL0     C53472   4.014   6.450   0.873  0.3134  0.2864  0.7343
  388MOL0     C53473   4.143   6.407   0.889  0.6016  0.9317 -0.5917
  388MOL0     C53474   4.188   6.284   0.816 -0.3297 -0.2704  1.2804
  388MOL0     H53475   4.667   6.363   0.811 -0.1810 -2.3924 -0.6744
  388MOL0     H53476   4.883   6.261   0.892 -1.3341  1.2954 -1.7484
  388MOL0     H53477   4.914   6.056   0.886  1.2026 -0.1230 -0.8548
  388MOL0     H53478   4.891   5.920   1.015  0.3067  0.6991  1.1479
  388MOL0     H53479   5.092   5.924   1.079 -0.5768  0.4409  0.2846
  388MOL0     H53480   5.094   5.897   0.901  1.5260  1.1352 -0.6996
  388MOL0     H53481   5.175   6.140   0.868 -1.0231 -0.9175 -1.2042
  388MOL0     H53482   5.183   6.128   1.056  0.0804 -0.1299  0.0025
  388MOL0     H53483   5.313   5.920   1.019  0.8132  1.4034  1.9196
  388MOL0     H53484   5.313   5.948   0.842  1.8250  0.1167 -0.6421
  388MOL0     H53485   5.417   6.190   0.924 -0.6599 -1.1864 -2.2350
  388MOL0     H53486   5.511   6.047   0.892  0.9195 -1.8450  1.7809
  388MOL0     H53487   5.424   6.086   1.179 -1.0943  3.3129 -0.5610
  388MOL0     H53488   5.576   6.010   1.094  1.5224  1.5338 -2.1960
  388MOL0     H53489   5.501   6.305   1.121 -2.4351 -2.1982  1.7805
  388MOL0     H53490   5.647   6.236   1.047  1.5103 -1.2994  0.6632
  388MOL0     H53491   5.688   6.333   1.264 -0.9905  1.9994 -1.5679
  388MOL0     H53492   5.561   6.232   1.333 -0.5090 -0.0112 -1.5732
  388MOL0     H53493   5.910   6.192   1.180  0.5286 -0.9752 -1.8096
  388MOL0     H53494   6.060   5.907   1.187  1.8475 -2.9721  1.7584
  388MOL0     H53495   6.091   5.892   1.351 -2.5698 -2.7576 -0.3233
  388MOL0     H53496   6.262   6.043   1.235  0.9477 -0.0406  1.1323
  388MOL0     H53497   6.134   6.169   1.240 -0.2391  1.4168  1.1929
  388MOL0     H53498   6.107   6.165   1.469  1.2856  3.2085 -1.0630
  388MOL0     H53499   6.225   6.032   1.488  3.0504  1.5098  0.5566
  388MOL0     H53500   6.315   6.304   1.387 -1.2631 -0.9467  0.1459
  388MOL0     H53501   6.326   6.257   1.555 -0.8160 -4.1782  1.1505
  388MOL0     H53502   6.645   6.067   1.272  0.9904  0.1663 -1.2358
  388MOL0     H53503   6.961   6.205   1.184  0.6093 -3.6808  2.7648
  388MOL0     H53504   6.835   6.171   1.057 -0.4795  0.0909 -0.4010
  388MOL0     H53505   6.852   6.060   1.188  0.1820 -0.3800 -1.7334
  388MOL0     H53506   7.090   6.635   1.351  0.4091 -1.3665 -0.1085
  388MOL0     H53507   7.295   6.756   1.247  0.5897  2.8437 -1.0829
  388MOL0     H53508   7.437   6.932   1.176 -1.9002  1.2973 -0.6524
  388MOL0     H53509   7.428   6.789   1.066 -1.7397 -0.2849  0.4473
  388MOL0     H53510   7.489   6.931   0.883  2.2447  1.4110 -0.4373
  388MOL0     H53511   7.479   7.076   0.982  2.0030  0.5899  1.2357
  388MOL0     H53512   7.664   6.841   1.045  2.3288  0.2147 -1.3953
  388MOL0     H53513   7.685   7.009   1.104  1.7073 -2.0540  1.4541
  388MOL0     H53514   7.733   7.107   0.902  0.2491 -0.5280  1.3284
  388MOL0     H53515   7.707   6.955   0.807 -3.1107  2.7269  0.2302
  388MOL0     H53516   7.889   6.969   1.049  0.8452  0.6477 -0.2814
  388MOL0     H53517   7.886   6.842   0.916  1.0220  1.0173 -3.0843
  388MOL0     H53518   7.980   7.128   0.901 -1.5038 -0.4214  3.9355
  388MOL0     H53519   7.966   7.004   0.762  2.6138 -1.8800 -0.4962
  388MOL0     H53520   8.109   6.859   0.882  1.9558 -0.7180  1.4823
  388MOL0     H53521   8.119   6.975   1.022 -1.7400  3.1138 -0.6028
  388MOL0     H53522   8.219   6.995   0.735  0.0991 -0.8786 -0.3938
  388MOL0     H53523   8.317   6.966   0.874 -0.2754  0.4499  0.5532
  388MOL0     H53524   7.063   6.917   0.956  1.3498 -1.4568 -1.2256
  388MOL0     H53525   6.846   6.803   1.048  0.3173  1.9239 -0.0090
  388MOL0     H53526   6.654   6.559   1.349 -0.1104  0.2175 -0.4026
  388MOL0     H53527   6.482   6.414   1.459  1.7825 -1.9346  3.1520
  388MOL0     H53528   4.704   6.117   1.254  1.3889 -0.8527 -1.4270
  388MOL0     H53529   4.484   6.223   1.178  0.6368 -2.6072  0.0272
  388MOL0     H53530   4.230   6.649   1.118  0.0450 -0.5007 -0.7909
  388MOL0     H53531   3.996   6.719   1.082 -0.7019  1.4651 -1.0679
  388MOL0     H53532   3.793   6.635   1.122  1.6463 -0.4804 -1.5259
  388MOL0     H53533   3.813   6.758   0.991 -0.2720  0.3103 -0.6504
  388MOL0     H53534   3.581   6.650   0.906  1.1735 -1.6407  0.1065
  388MOL0     H53535   3.589   6.791   1.014 -1.3472 -0.6928  2.3250
  388MOL0     H53536   3.555   6.495   1.106  0.5013 -0.8497  0.8454
  388MOL0     H53537   3.561   6.628   1.201 -0.6939 -0.9379  0.2691
  388MOL0     H53538   3.355   6.732   1.075  0.9789  1.3670 -1.1084
  388MOL0     H53539   3.312   6.573   1.150  1.5675  0.5033  0.3173
  388MOL0     H53540   3.257   6.437   0.771 -1.7234 -0.4546  1.4163
  388MOL0     H53541   3.951   6.396   0.803  4.1238  0.6098 -3.4781
  388MOL0     H53542   4.218   6.206   0.886 -0.1492 -2.4067 -1.0359
  388MOL0     H53543   4.104   6.239   0.763 -0.2238  1.8079 -0.8294
  388MOL0     H53544   4.274   6.307   0.752 -0.1175 -0.0571  1.6400
  389MOL0     O53545  10.029   1.789   3.705  0.7201 -0.1669  0.2301
  389MOL0     C53546   9.997   1.792   3.587 -0.1546  0.9197 -0.0598
  389MOL0     O53547  10.076   1.817   3.484 -0.8173  0.0044  0.4718
  389MOL0     C53548  10.216   1.842   3.489  0.1275 -0.4798  0.0382
  389MOL0     C53549  10.303   1.796   3.591  1.6030 -0.4511  1.1453
  389MOL0     C53550  10.445   1.820   3.586  0.5331 -0.5012  0.3273
  389MOL0     C53551  10.497   1.903   3.483 -0.3677  0.0115  0.6289
  389MOL0     O53552  10.630   1.932   3.471  0.1781 -0.4749  0.2893
  389MOL0     C53553  10.724   1.855   3.549 -0.6616  0.0622  0.2328
  389MOL0     C53554  10.871   1.884   3.541 -0.1700 -0.0540 -1.0477
  389MOL0     C53555  10.921   1.920   3.402  0.5346  0.1649 -0.3177
  389MOL0     C53556  11.067   1.924   3.399 -0.1488  0.5785  0.4184
  389MOL0     C53557  11.113   1.907   3.256 -0.5078  0.1838 -0.0880
  389MOL0     C53558  11.067   2.025   3.160 -0.2917  0.0608  0.1414
  389MOL0     C53559  11.135   2.012   3.011 -0.1497 -0.6405  0.3502
  389MOL0     C53560  11.102   2.151   2.945  0.0278  0.1623  0.0011
  389MOL0     N53561  11.167   2.147   2.810  0.6333  0.0644  0.5420
  389MOL0     C53562  11.126   2.071   2.704  0.8053 -1.0944  0.2716
  389MOL0     C53563  11.211   2.098   2.599  0.1069  0.5435  1.1362
  389MOL0     C53564  11.228   2.026   2.458  0.2385 -0.4955  0.0240
  389MOL0     C53565  11.328   1.916   2.445  0.4176 -0.3414  0.0215
  389MOL0     C53566  11.470   1.957   2.500  0.1690 -0.2056 -1.4663
  389MOL0     C53567  11.582   1.926   2.402 -0.4511 -0.3651  0.9054
  389MOL0     O53568  11.709   1.941   2.463 -0.2352  0.6860  0.3295
  389MOL0     C53569  11.828   1.913   2.395 -0.0669 -0.2321  0.5878
  389MOL0     C53570  11.845   1.878   2.258 -0.0536 -0.5704 -0.2334
  389MOL0     C53571  11.966   1.873   2.189  0.0003  0.8229 -0.1641
  389MOL0     C53572  11.968   1.826   2.045  0.9232  0.1477  0.2453
  389MOL0     C53573  12.080   1.912   2.268  0.2138 -0.2994  0.1055
  389MOL0     C53574  12.209   1.923   2.205 -0.8121 -0.0969  0.6183
  389MOL0     O53575  12.210   1.969   2.076  0.2294  0.5091  0.5446
  389MOL0     C53576  12.333   1.965   2.005 -0.3250  0.4422  0.1594
  389MOL0     C53577  12.381   1.835   1.958  0.0903 -0.0419  0.8445
  389MOL0     C53578  12.514   1.820   1.897  0.4649  0.2622 -0.6107
  389MOL0     C53579  12.574   1.939   1.854 -0.3422  0.6240 -0.2752
  389MOL0     O53580  12.696   1.916   1.793 -0.4486  0.1715 -0.8006
  389MOL0     C53581  12.750   2.028   1.711  0.2817 -0.3931  0.6636
  389MOL0     C53582  12.663   2.065   1.589 -0.1130 -0.1303  0.0001
  389MOL0     C53583  12.633   1.946   1.490 -0.6737  0.1088  0.0806
  389MOL0     C53584  12.528   1.996   1.387 -1.5150  0.2347  0.4469
  389MOL0     C53585  12.397   1.950   1.424  0.3630 -0.8254  0.9469
  389MOL0     C53586  12.338   1.996   1.561  0.2960  0.1678  0.5568
  389MOL0     C53587  12.189   1.967   1.571 -0.2001 -0.5577 -0.2709
  389MOL0     C53588  12.133   2.011   1.703 -0.4910  0.5591 -0.3083
  389MOL0    Cl53589  11.964   1.945   1.725 -0.1185 -0.0228  0.0856
  389MOL0     C53590  12.519   2.070   1.882 -0.6650  0.0904 -0.0669
  389MOL0     C53591  12.404   2.075   1.963  0.0337 -0.6127  0.2884
  389MOL0     O53592  12.307   1.886   2.273  0.3793  0.2842  0.1455
  389MOL0     C53593  12.070   1.945   2.404  0.0504  0.0399  0.0427
  389MOL0     C53594  11.945   1.942   2.466 -0.7416 -0.4027  1.4095
  389MOL0     N53595  11.305   2.177   2.649 -0.7282 -1.0555 -0.2624
  389MOL0     N53596  11.274   2.216   2.771 -0.4481 -0.1722  0.2135
  389MOL0     C53597  10.413   1.950   3.376  0.1632 -0.2545 -0.7026
  389MOL0     C53598  10.275   1.916   3.380 -0.3590 -1.2361  0.6578
  389MOL0     C53599   9.852   1.778   3.547  0.5914  0.3248  0.2885
  389MOL0     C53600   9.817   1.824   3.414  0.6879  0.2174 -0.0404
  389MOL0     C53601   9.690   1.815   3.375  0.4865 -0.2797 -0.0880
  389MOL0     C53602   9.581   1.787   3.458 -0.5499 -0.3243 -0.3590
  389MOL0     O53603   9.447   1.769   3.426 -0.2410 -0.7774 -0.6857
  389MOL0     C53604   9.414   1.800   3.292 -0.2178  0.7013  0.2244
  389MOL0     C53605   9.266   1.777   3.268  0.8122  0.5184  0.3493
  389MOL0     C53606   9.229   1.635   3.321 -1.3067 -0.9918  0.2187
  389MOL0     C53607   9.100   1.573   3.262  0.1512 -0.0382 -0.2618
  389MOL0     C53608   9.119   1.540   3.122  0.2219 -0.2428 -0.3938
  389MOL0     C53609   9.130   1.488   3.012  0.0826  0.0795 -0.6573
  389MOL0     C53610   9.615   1.753   3.590  0.4812 -0.6362 -0.5568
  389MOL0     C53611   9.750   1.734   3.632 -0.2837 -0.9591  0.7084
  389MOL0     C53612   9.780   1.665   3.763 -0.8653  0.1471  0.2612
  389MOL0     H53613  10.269   1.737   3.675 -0.8571 -0.5365  0.1581
  389MOL0     H53614  10.503   1.777   3.667 -1.8646 -2.0800  1.3306
  389MOL0     H53615  10.713   1.755   3.504  0.8352 -0.0222 -0.0084
  389MOL0     H53616  10.689   1.845   3.652 -1.9450  0.3214 -0.1650
  389MOL0     H53617  10.885   1.972   3.604  0.7253 -0.0609 -1.2205
  389MOL0     H53618  10.924   1.800   3.586 -2.4565 -1.3551 -0.6327
  389MOL0     H53619  10.877   1.843   3.339 -0.2294  0.1232  0.2552
  389MOL0     H53620  10.885   2.019   3.373 -1.0527 -0.3779 -0.2771
  389MOL0     H53621  11.106   2.020   3.435 -1.7342  1.0824  0.9104
  389MOL0     H53622  11.110   1.849   3.466 -2.2330  0.2294  1.4412
  389MOL0     H53623  11.071   1.809   3.231 -1.5011  0.6701 -0.4062
  389MOL0     H53624  11.220   1.888   3.251 -0.1395  1.6782  1.4100
  389MOL0     H53625  10.958   2.028   3.146 -0.1307  0.0672 -1.1711
  389MOL0     H53626  11.098   2.115   3.214  0.3072 -2.1922  3.9233
  389MOL0     H53627  11.089   1.929   2.957 -0.5526 -0.4504  0.3992
  389MOL0     H53628  11.242   1.995   3.029  0.0384  2.2945  2.9143
  389MOL0     H53629  10.994   2.164   2.937  0.1577  3.2813  1.6929
  389MOL0     H53630  11.152   2.226   3.006 -0.2276 -0.9538  1.6406
  389MOL0     H53631  11.040   2.006   2.700 -0.8960  1.0801 -0.3547
  389MOL0     H53632  11.267   2.098   2.385  0.8089 -0.4470  0.3763
  389MOL0     H53633  11.128   1.995   2.426  0.4832 -1.3172  0.0468
  389MOL0     H53634  11.285   1.830   2.498  1.1943 -0.5197  0.3739
  389MOL0     H53635  11.334   1.870   2.346 -2.0278 -2.6058  0.8097
  389MOL0     H53636  11.472   2.062   2.529  3.1142 -0.5805  0.0345
  389MOL0     H53637  11.488   1.894   2.588  1.5057  2.0957  0.0058
  389MOL0     H53638  11.564   1.829   2.353 -3.3615  1.3338 -1.7620
  389MOL0     H53639  11.576   2.004   2.326  0.5243  0.6216  1.7987
  389MOL0     H53640  11.754   1.862   2.201 -0.2790 -1.0992  0.2572
  389MOL0     H53641  11.897   1.745   2.027 -0.6805  1.2916  1.2490
  389MOL0     H53642  12.065   1.784   2.015  0.1131 -2.0209  0.4457
  389MOL0     H53643  11.956   1.912   1.980  1.7133  0.4908  0.5373
  389MOL0     H53644  12.316   1.749   1.972  0.3980 -0.8445 -2.1624
  389MOL0     H53645  12.544   1.716   1.891  1.3236  0.4973 -0.4480
  389MOL0     H53646  12.772   2.124   1.757 -3.8694  2.4003 -2.4475
  389MOL0     H53647  12.848   1.993   1.677 -0.3222  1.2762 -3.3642
  389MOL0     H53648  12.571   2.111   1.625  0.2219 -0.0327  0.7439
  389MOL0     H53649  12.715   2.141   1.530 -0.3533 -0.3868 -0.5464
  389MOL0     H53650  12.598   1.857   1.544 -1.0222 -0.1346 -0.5452
  389MOL0     H53651  12.722   1.928   1.429 -0.1602 -0.4781  0.9694
  389MOL0     H53652  12.554   1.963   1.286 -0.0185  0.4527  0.7414
  389MOL0     H53653  12.530   2.105   1.384 -1.9530  0.2391  0.2740
  389MOL0     H53654  12.328   1.991   1.349 -0.4084  0.2436  2.2019
  389MOL0     H53655  12.388   1.842   1.410 -3.2107 -0.8836  2.4878
  389MOL0     H53656  12.354   2.104   1.567 -1.8129  0.4482  2.9164
  389MOL0     H53657  12.387   1.945   1.645  1.5278 -0.9018 -0.7600
  389MOL0     H53658  12.167   1.861   1.557  1.4902 -0.6989 -2.5291
  389MOL0     H53659  12.129   2.023   1.497 -1.6532 -2.3112 -0.4887
  389MOL0     H53660  12.142   2.120   1.711  0.4797  0.4860 -0.3910
  389MOL0     H53661  12.199   1.972   1.781 -0.6169  0.5840 -0.1885
  389MOL0     H53662  12.572   2.158   1.849 -0.4925 -0.3859 -1.0811
  389MOL0     H53663  12.360   2.168   2.000 -0.0847 -0.0026 -1.3042
  389MOL0     H53664  12.159   1.947   2.467  1.5492  0.8025 -1.9835
  389MOL0     H53665  11.944   1.965   2.572  2.8678  1.0626  1.2780
  389MOL0     H53666  10.461   2.002   3.293  1.2751 -1.3565 -0.7788
  389MOL0     H53667  10.219   1.958   3.297 -1.5756  1.2121  2.5984
  389MOL0     H53668   9.890   1.861   3.344  0.8991 -1.3722 -0.7166
  389MOL0     H53669   9.679   1.832   3.268  2.2612 -2.2589 -0.6652
  389MOL0     H53670   9.433   1.906   3.275 -2.5253  0.8529 -1.9995
  389MOL0     H53671   9.467   1.730   3.227  0.2767 -1.9859  3.2380
  389MOL0     H53672   9.251   1.791   3.160 -1.7681  0.5006  0.6435
  389MOL0     H53673   9.204   1.847   3.325 -1.1243 -0.7874 -0.0262
  389MOL0     H53674   9.316   1.570   3.306  0.7681  1.5705  0.3357
  389MOL0     H53675   9.211   1.644   3.428  1.1740 -0.6666  0.6690
  389MOL0     H53676   9.004   1.626   3.272  0.5601  0.6932 -0.1348
  389MOL0     H53677   9.090   1.482   3.321 -0.4277  0.1577 -0.0502
  389MOL0     H53678   9.130   1.447   2.913 -0.3554  1.7215 -1.3663
  389MOL0     H53679   9.544   1.734   3.670  0.4614 -1.9014 -0.8546
  389MOL0     H53680   9.861   1.594   3.744 -1.3810 -0.1673 -0.8827
  389MOL0     H53681   9.804   1.728   3.848 -0.4959 -1.8778  1.7182
  389MOL0     H53682   9.694   1.612   3.805 -0.3101 -0.3847  0.7449
  390MOL0     O53683   9.487   5.439   8.135 -0.0468  0.7469 -0.1478
  390MOL0     C53684   9.479   5.480   8.247 -0.1302 -0.0109 -0.1231
  390MOL0     O53685   9.587   5.472   8.339  0.8981  0.1730 -0.0738
  390MOL0     C53686   9.716   5.461   8.293  0.5108 -0.4082 -1.2231
  390MOL0     C53687   9.753   5.522   8.176  0.5996 -0.1660 -0.0177
  390MOL0     C53688   9.892   5.515   8.138 -1.3451  0.4772  0.3954
  390MOL0     C53689   9.984   5.452   8.218  0.3426 -0.2904 -0.2229
  390MOL0     O53690  10.112   5.454   8.173 -0.4089 -0.1420  0.3471
  390MOL0     C53691  10.223   5.405   8.251 -0.2584 -0.0434  0.2500
  390MOL0     C53692  10.311   5.518   8.308 -0.0876 -0.2797  0.7025
  390MOL0     C53693  10.402   5.474   8.418  0.2945 -0.3911  1.1043
  390MOL0     C53694  10.467   5.591   8.483  1.2867  0.5169  0.8480
  390MOL0     C53695  10.577   5.539   8.582 -0.3913 -1.0090 -0.2703
  390MOL0     C53696  10.610   5.659   8.669  1.1507  0.2193  0.0808
  390MOL0     C53697  10.722   5.627   8.775  0.0128 -0.9141 -0.2544
  390MOL0     C53698  10.855   5.603   8.711  0.1397 -0.4745 -0.2311
  390MOL0     N53699  10.964   5.592   8.808 -0.2461 -0.1829 -0.3173
  390MOL0     C53700  10.988   5.491   8.897  1.0487  0.2835  0.5610
  390MOL0     C53701  11.080   5.532   8.988  0.0370 -0.2674  0.8510
  390MOL0     C53702  11.138   5.487   9.115 -0.1550  0.4882  0.2547
  390MOL0     C53703  11.227   5.363   9.098 -0.3706 -0.4048 -0.1586
  390MOL0     C53704  11.259   5.302   9.227  0.0341 -1.1625 -0.4864
  390MOL0     C53705  11.379   5.205   9.208 -0.2154  0.6403 -0.3562
  390MOL0     O53706  11.401   5.117   9.320 -0.4925 -0.6460 -0.5777
  390MOL0     C53707  11.506   5.034   9.327  0.2147  0.4005  0.2035
  390MOL0     C53708  11.563   4.959   9.220  0.3155 -0.5933  0.8669
  390MOL0     C53709  11.672   4.867   9.246  0.1162  0.7825 -0.5103
  390MOL0     C53710  11.739   4.826   9.116  0.2767  0.2194 -0.7503
  390MOL0     C53711  11.732   4.845   9.374  0.8296 -0.3031  0.6391
  390MOL0     C53712  11.859   4.772   9.407 -0.4218  0.0056 -0.2097
  390MOL0     O53713  11.886   4.755   9.537 -0.1014 -0.2101  0.4821
  390MOL0     C53714  12.005   4.715   9.590 -0.7869  0.6325 -0.3121
  390MOL0     C53715  12.042   4.779   9.711 -0.4827  0.3195  0.9874
  390MOL0     C53716  12.164   4.758   9.764 -0.5997 -0.2314 -0.0655
  390MOL0     C53717  12.253   4.665   9.717  0.5170 -0.0389 -0.7201
  390MOL0     O53718  12.365   4.642   9.792  0.6473  0.0861  0.0852
  390MOL0     C53719  12.485   4.593   9.730 -0.5178 -0.3171  1.5103
  390MOL0     C53720  12.527   4.706   9.636  0.1765  1.0914 -0.6380
  390MOL0     C53721  12.649   4.681   9.546 -0.3106  0.2389 -0.0536
  390MOL0     C53722  12.621   4.571   9.436 -0.0457  1.3129  0.8949
  390MOL0     C53723  12.745   4.545   9.340  0.2639 -0.0244 -0.3059
  390MOL0     C53724  12.871   4.510   9.426  1.0063  0.3353  0.3559
  390MOL0     C53725  12.974   4.434   9.330  0.4676 -0.0141  0.0857
  390MOL0     C53726  13.079   4.349   9.391 -0.2556  0.6301 -0.0904
  390MOL0    Cl53727  13.171   4.435   9.520  0.1782  0.1293  0.6187
  390MOL0     C53728  12.216   4.598   9.602 -0.1851 -0.7090  0.7127
  390MOL0     C53729  12.095   4.621   9.538 -0.6952  0.9102 -0.7124
  390MOL0     O53730  11.930   4.730   9.312 -0.0365  0.8013 -0.4904
  390MOL0     C53731  11.669   4.920   9.482 -0.2010  0.4367 -0.5759
  390MOL0     C53732  11.551   5.001   9.458  0.8100 -0.9691  1.0189
  390MOL0     N53733  11.121   5.653   8.943 -0.5172 -0.8482  0.3268
  390MOL0     N53734  11.050   5.691   8.844 -0.2684  0.5571  0.1723
  390MOL0     C53735   9.943   5.401   8.350 -0.0805  0.6057  0.4960
  390MOL0     C53736   9.809   5.406   8.378  0.1825 -0.8812  0.2956
  390MOL0     C53737   9.350   5.527   8.315  0.0694  0.1310  0.4689
  390MOL0     C53738   9.332   5.485   8.447  0.2515 -0.0878 -0.1462
  390MOL0     C53739   9.222   5.526   8.527 -0.0482  0.1967  0.1408
  390MOL0     C53740   9.121   5.600   8.456  0.3448 -0.6342 -0.6645
  390MOL0     O53741   9.017   5.643   8.532  0.0615 -0.0318 -0.8190
  390MOL0     C53742   8.929   5.746   8.481  0.2233 -0.3501 -0.5982
  390MOL0     C53743   8.803   5.780   8.579  0.3176 -0.5105  0.0635
  390MOL0     C53744   8.734   5.659   8.633 -0.8837  0.2561  0.5683
  390MOL0     C53745   8.607   5.690   8.715  0.1012 -0.3695  0.2215
  390MOL0     C53746   8.625   5.788   8.822 -0.2239 -0.2617 -0.3231
  390MOL0     C53747   8.642   5.871   8.914 -1.3354  0.7197  0.1222
  390MOL0     C53748   9.130   5.642   8.322 -0.2815  0.3457 -0.2794
  390MOL0     C53749   9.251   5.608   8.249  0.1881 -0.4262  0.0053
  390MOL0     C53750   9.267   5.663   8.109  0.1896 -0.1760 -0.2958
  390MOL0     H53751   9.688   5.575   8.108  1.3925  0.5075 -0.2674
  390MOL0     H53752   9.929   5.551   8.043 -1.1940  0.9221  0.6208
  390MOL0     H53753  10.300   5.368   8.184  0.5518  3.2767 -0.8854
  390MOL0     H53754  10.196   5.334   8.330 -1.5894 -0.8410 -0.8840
  390MOL0     H53755  10.369   5.565   8.229  0.9022 -2.4764  0.0525
  390MOL0     H53756  10.246   5.591   8.357  0.4708  0.5084  0.3012
  390MOL0     H53757  10.335   5.424   8.489 -0.1937 -0.8324  0.3518
  390MOL0     H53758  10.469   5.402   8.370 -1.1103 -1.6707  0.9768
  390MOL0     H53759  10.518   5.656   8.411 -0.2543  0.9747  0.1477
  390MOL0     H53760  10.387   5.644   8.534 -0.2999 -0.0110 -0.9987
  390MOL0     H53761  10.667   5.517   8.523 -0.1179  1.4883 -0.8869
  390MOL0     H53762  10.538   5.455   8.639 -4.3572  1.4677  1.0161
  390MOL0     H53763  10.636   5.743   8.604  0.1547  0.7662  0.3754
  390MOL0     H53764  10.515   5.688   8.714  1.4101  1.5978 -0.2382
  390MOL0     H53765  10.686   5.553   8.847 -0.4961 -0.1552  0.2827
  390MOL0     H53766  10.745   5.712   8.840 -0.3247 -0.1551 -1.1017
  390MOL0     H53767  10.849   5.506   8.659 -0.9833 -0.6206  0.1501
  390MOL0     H53768  10.882   5.679   8.637  1.7421  0.6787  1.4552
  390MOL0     H53769  10.933   5.398   8.895  1.6655 -0.0761 -0.2359
  390MOL0     H53770  11.061   5.456   9.186  0.7724  0.5721  1.3248
  390MOL0     H53771  11.193   5.569   9.162  2.5773 -0.4120 -1.1044
  390MOL0     H53772  11.185   5.290   9.028  2.6234 -0.6003 -1.9127
  390MOL0     H53773  11.322   5.396   9.055  0.2687 -1.1924  0.6112
  390MOL0     H53774  11.286   5.370   9.308 -1.3546 -1.1877  0.0244
  390MOL0     H53775  11.170   5.243   9.252 -1.5265  0.4491 -1.9872
  390MOL0     H53776  11.361   5.133   9.128  0.6056 -1.0729  0.9580
  390MOL0     H53777  11.471   5.259   9.182  0.2641  0.1322  0.2781
  390MOL0     H53778  11.515   4.974   9.124 -0.4060 -1.3257  1.1009
  390MOL0     H53779  11.839   4.866   9.097 -0.3486  1.9513 -0.5310
  390MOL0     H53780  11.680   4.856   9.029 -0.0349 -1.0541 -0.9991
  390MOL0     H53781  11.756   4.718   9.114 -1.0642 -0.0682  1.2230
  390MOL0     H53782  11.984   4.859   9.756  1.3225  1.9953  0.4688
  390MOL0     H53783  12.178   4.829   9.845 -4.5702  0.9551 -0.1800
  390MOL0     H53784  12.554   4.571   9.812  0.4437  1.8475  1.3573
  390MOL0     H53785  12.483   4.502   9.670 -4.1302  0.3973  0.3110
  390MOL0     H53786  12.453   4.726   9.558  0.4971 -2.5342 -2.0801
  390MOL0     H53787  12.554   4.786   9.705  1.7244  1.0574 -1.1761
  390MOL0     H53788  12.730   4.655   9.615 -1.6683  1.7851  2.2472
  390MOL0     H53789  12.671   4.774   9.493  0.9113  0.8834  1.4889
  390MOL0     H53790  12.536   4.611   9.380 -1.2302 -0.2170  1.5022
  390MOL0     H53791  12.578   4.476   9.469  0.4405  0.2000 -1.4780
  390MOL0     H53792  12.716   4.466   9.270 -2.3034  2.2252 -2.0401
  390MOL0     H53793  12.774   4.631   9.279  1.3696  0.6913  1.1690
  390MOL0     H53794  12.842   4.431   9.496  1.7491 -0.5507 -0.3024
  390MOL0     H53795  12.922   4.597   9.466  0.8471  0.2551  0.7329
  390MOL0     H53796  13.012   4.508   9.259  0.5897 -0.9417 -0.8355
  390MOL0     H53797  12.921   4.372   9.257 -3.9945 -1.0587  3.7235
  390MOL0     H53798  13.139   4.314   9.306 -0.0586  2.3490 -0.6984
  390MOL0     H53799  13.036   4.256   9.430  2.5917 -0.7224  0.0394
  390MOL0     H53800  12.277   4.519   9.559 -0.3214  0.8521 -2.6416
  390MOL0     H53801  12.072   4.554   9.456 -1.2556 -2.2316  1.8445
  390MOL0     H53802  11.713   4.910   9.581  1.3083 -1.8547 -1.3913
  390MOL0     H53803  11.494   5.039   9.542  1.6215 -2.1951  2.1613
  390MOL0     H53804  10.013   5.342   8.408  0.9119 -0.4686 -1.6810
  390MOL0     H53805   9.776   5.365   8.473 -1.4512  0.0903  0.1875
  390MOL0     H53806   9.412   5.425   8.489  0.6132  0.8315  0.5116
  390MOL0     H53807   9.200   5.514   8.633  1.5582 -1.1983  0.3570
  390MOL0     H53808   8.989   5.835   8.464  1.5503 -1.5340 -2.4480
  390MOL0     H53809   8.889   5.715   8.384 -0.0980 -0.2881 -0.4885
  390MOL0     H53810   8.734   5.853   8.536  1.9800  0.0623 -1.8526
  390MOL0     H53811   8.852   5.836   8.658 -1.5210 -1.7732  2.2026
  390MOL0     H53812   8.712   5.586   8.555 -1.1878  0.7660  0.1774
  390MOL0     H53813   8.797   5.614   8.710 -0.8637  1.7487  1.4682
  390MOL0     H53814   8.552   5.601   8.747  0.6297  0.5225  3.9810
  390MOL0     H53815   8.540   5.738   8.643 -1.3227 -0.4794  1.4299
  390MOL0     H53816   8.659   5.951   8.983  2.4426  1.2118 -1.1456
  390MOL0     H53817   9.063   5.716   8.278 -0.2028  0.7656  0.2836
  390MOL0     H53818   9.371   5.694   8.095 -0.7584  2.4345 -2.3614
  390MOL0     H53819   9.249   5.589   8.030 -1.6973  0.8061 -0.8522
  390MOL0     H53820   9.211   5.752   8.079  1.3332  1.3653  1.8848
  391MOL0     O53821   5.938   2.752   1.633 -0.0541  0.1258 -0.0843
  391MOL0     C53822   5.849   2.669   1.654  1.1458 -0.5685 -0.4212
  391MOL0     O53823   5.867   2.562   1.737 -0.1534  0.9199  0.3237
  391MOL0     C53824   5.991   2.531   1.785  0.0143 -0.2860  0.8539
  391MOL0     C53825   6.007   2.528   1.920 -0.0801 -0.1205  0.7574
  391MOL0     C53826   6.133   2.474   1.969  0.2118  0.8973  0.8405
  391MOL0     C53827   6.237   2.433   1.880  0.2012  0.0890  0.1017
  391MOL0     O53828   6.353   2.381   1.917  0.0527 -0.2976 -0.3126
  391MOL0     C53829   6.415   2.422   2.032  0.3989  0.2011 -0.9690
  391MOL0     C53830   6.563   2.467   1.997 -0.6391 -0.4190 -0.2957
  391MOL0     C53831   6.652   2.468   2.122  0.2469  0.5201 -0.6144
  391MOL0     C53832   6.636   2.597   2.202  0.0153 -0.5560  0.1240
  391MOL0     C53833   6.716   2.604   2.331  0.2627  0.5811 -1.0511
  391MOL0     C53834   6.709   2.741   2.394 -0.5607 -0.3017 -0.3520
  391MOL0     C53835   6.741   2.864   2.305  0.3299  0.6825  0.2004
  391MOL0     C53836   6.885   2.867   2.257 -0.5467  0.2230 -0.5767
  391MOL0     N53837   6.906   2.977   2.163 -0.9042 -0.0493 -0.1796
  391MOL0     C53838   7.004   3.066   2.176  0.2410 -0.7823  0.5873
  391MOL0     C53839   7.015   3.129   2.055 -0.5089  0.1902 -0.0263
  391MOL0     C53840   7.134   3.223   2.016 -0.6299  0.1268 -0.3351
  391MOL0     C53841   7.265   3.161   1.970  0.4240 -0.0923  0.3877
  391MOL0     C53842   7.238   3.057   1.867 -0.2640  0.4071  0.4637
  391MOL0     C53843   7.360   2.980   1.818  0.6966 -0.7946 -0.3375
  391MOL0     O53844   7.434   2.903   1.919 -0.6387 -0.1039  0.2191
  391MOL0     C53845   7.562   2.857   1.889 -0.4991 -0.7930 -0.1813
  391MOL0     C53846   7.619   2.791   1.998 -0.0255  0.5297  0.9397
  391MOL0     C53847   7.746   2.749   1.984 -0.5630  0.6862  0.6747
  391MOL0     C53848   7.805   2.689   2.108  0.4166  0.8920  0.0303
  391MOL0     C53849   7.819   2.765   1.864 -0.2949  0.0716 -0.4367
  391MOL0     C53850   7.955   2.715   1.857 -0.5900 -0.0461  0.0923
  391MOL0     O53851   8.045   2.762   1.942  0.6850  0.0598 -0.1786
  391MOL0     C53852   8.181   2.764   1.925  0.7682 -1.0787 -0.5065
  391MOL0     C53853   8.256   2.721   1.814 -0.0724  1.2594  0.5427
  391MOL0     C53854   8.395   2.719   1.822 -0.0203 -0.1818 -0.4988
  391MOL0     C53855   8.456   2.775   1.931 -0.6594  0.1220  0.7753
  391MOL0     O53856   8.590   2.783   1.921 -0.3933  0.5810 -0.7672
  391MOL0     C53857   8.659   2.879   2.005  0.2242  0.0500  0.5139
  391MOL0     C53858   8.635   3.016   1.948  0.3890 -0.1665 -0.9911
  391MOL0     C53859   8.766   3.082   1.898 -0.1050  0.9359 -0.1718
  391MOL0     C53860   8.724   3.225   1.848 -0.2716  0.0517 -0.0921
  391MOL0     C53861   8.786   3.265   1.712  0.1771  1.3850 -0.1809
  391MOL0     C53862   8.935   3.274   1.718 -0.0778  1.0134  0.0716
  391MOL0     C53863   8.988   3.373   1.610 -0.1679  0.2920 -0.5394
  391MOL0     C53864   9.142   3.372   1.600 -0.0675 -0.1153 -0.2679
  391MOL0    Cl53865   9.226   3.379   1.757 -0.1450  0.2114 -0.1689
  391MOL0     C53866   8.378   2.831   2.032 -0.3406  0.5246  0.4144
  391MOL0     C53867   8.247   2.830   2.032 -0.0725  0.0020  0.0070
  391MOL0     O53868   7.970   2.632   1.767  0.7532  0.0550  0.8622
  391MOL0     C53869   7.755   2.820   1.752  0.3605  0.5853 -0.8802
  391MOL0     C53870   7.627   2.871   1.767 -0.6079 -0.4909 -0.1696
  391MOL0     N53871   6.920   3.075   1.976  0.1105  0.1760  0.4839
  391MOL0     N53872   6.853   2.986   2.038  0.2637  0.3042 -0.8083
  391MOL0     C53873   6.199   2.415   1.743 -0.2526  0.1269 -0.4732
  391MOL0     C53874   6.077   2.467   1.695  0.2815  0.4089  0.6775
  391MOL0     C53875   5.740   2.663   1.557  0.0420 -0.5761 -0.2757
  391MOL0     C53876   5.690   2.536   1.526  0.2305  0.7468 -1.3893
  391MOL0     C53877   5.575   2.515   1.444 -0.5589 -1.3928  0.7705
  391MOL0     C53878   5.513   2.622   1.391 -0.3531  0.4052  0.3433
  391MOL0     O53879   5.400   2.590   1.310 -0.0426  0.2141 -0.1428
  391MOL0     C53880   5.283   2.671   1.327 -0.9006  1.0203 -0.6303
  391MOL0     C53881   5.235   2.666   1.471  0.3085  0.3298  0.6974
  391MOL0     C53882   5.229   2.519   1.526  0.3788 -0.3186 -1.5252
  391MOL0     C53883   5.102   2.490   1.603  0.3083 -0.0164 -0.0964
  391MOL0     C53884   5.096   2.557   1.738 -0.5153 -0.2215  0.4185
  391MOL0     C53885   5.057   2.611   1.840 -0.0873 -0.0679  0.6989
  391MOL0     C53886   5.566   2.750   1.420 -0.5110  0.6165  0.4919
  391MOL0     C53887   5.672   2.773   1.508  0.5238  0.0061 -0.7042
  391MOL0     C53888   5.708   2.918   1.532 -1.1728  0.9921 -0.3619
  391MOL0     H53889   5.928   2.536   1.994 -0.5626 -0.0193  0.2310
  391MOL0     H53890   6.138   2.462   2.077  0.5536  0.7490  0.8068
  391MOL0     H53891   6.418   2.340   2.104 -2.7872 -0.0130 -0.9588
  391MOL0     H53892   6.366   2.506   2.083  1.0534 -0.8964  1.6129
  391MOL0     H53893   6.604   2.411   1.912 -1.0358  0.6109 -1.2003
  391MOL0     H53894   6.549   2.573   1.973  0.2106 -0.3415 -0.4912
  391MOL0     H53895   6.631   2.383   2.188 -0.2245  1.1796  0.1019
  391MOL0     H53896   6.761   2.457   2.112  0.7836  0.7600  3.4444
  391MOL0     H53897   6.661   2.679   2.133 -2.3224  0.6002  0.5361
  391MOL0     H53898   6.529   2.600   2.228 -0.5402  0.0959 -1.9959
  391MOL0     H53899   6.817   2.569   2.309 -0.5702 -3.1569  0.3046
  391MOL0     H53900   6.679   2.530   2.403  0.4791  0.7554 -0.7587
  391MOL0     H53901   6.604   2.754   2.425 -1.5552 -0.7578 -3.1996
  391MOL0     H53902   6.775   2.755   2.480  1.8204  0.5991 -2.2098
  391MOL0     H53903   6.741   2.956   2.363 -1.7230  0.9980 -0.2115
  391MOL0     H53904   6.670   2.870   2.221  0.5265  0.8139  0.0446
  391MOL0     H53905   6.938   2.882   2.352 -3.0349  2.4137  0.6204
  391MOL0     H53906   6.911   2.773   2.208 -3.0451 -0.6080 -0.4672
  391MOL0     H53907   7.059   3.084   2.268 -0.8229 -0.1067  1.1072
  391MOL0     H53908   7.157   3.278   2.108 -3.7524  1.5436 -0.2732
  391MOL0     H53909   7.101   3.292   1.937  0.7732  1.1732 -0.0443
  391MOL0     H53910   7.333   3.242   1.943 -0.2568  0.2964 -0.1892
  391MOL0     H53911   7.308   3.111   2.058  4.1212  0.9847 -0.6100
  391MOL0     H53912   7.174   2.977   1.906  2.5810 -2.0628  0.4338
  391MOL0     H53913   7.187   3.105   1.783  0.5210  3.4361  1.5969
  391MOL0     H53914   7.323   2.914   1.739  1.0703 -1.8355  0.3215
  391MOL0     H53915   7.435   3.044   1.772  0.4712 -2.2015 -2.8713
  391MOL0     H53916   7.575   2.785   2.097  0.2622 -0.3687  1.0299
  391MOL0     H53917   7.867   2.765   2.158  1.4194 -1.0219  1.8320
  391MOL0     H53918   7.868   2.606   2.077 -1.0630  0.5397 -2.2779
  391MOL0     H53919   7.732   2.646   2.177 -0.2548  0.9836 -0.6181
  391MOL0     H53920   8.201   2.681   1.729  0.3620  0.9813  0.3897
  391MOL0     H53921   8.454   2.672   1.743  0.4546  0.3927 -0.4935
  391MOL0     H53922   8.625   2.868   2.108 -0.6882  1.7739  0.4248
  391MOL0     H53923   8.764   2.852   1.992  0.2449 -0.1262  1.0456
  391MOL0     H53924   8.556   3.003   1.873 -2.0099  2.1066  0.9409
  391MOL0     H53925   8.591   3.075   2.030 -0.0142  1.2884 -2.2158
  391MOL0     H53926   8.803   3.018   1.817  0.1500 -0.9690  1.3795
  391MOL0     H53927   8.846   3.086   1.972  0.8343 -3.1241 -0.7655
  391MOL0     H53928   8.765   3.299   1.918  1.9125  0.3118 -1.5622
  391MOL0     H53929   8.615   3.230   1.848 -0.2474  1.3333  1.1257
  391MOL0     H53930   8.750   3.184   1.648  0.1656  1.0886  0.2000
  391MOL0     H53931   8.745   3.360   1.677  0.6116  1.8688  0.5928
  391MOL0     H53932   8.975   3.173   1.707 -3.2280 -0.7320  2.8639
  391MOL0     H53933   8.965   3.314   1.815  1.4934  0.4327 -0.1487
  391MOL0     H53934   8.975   3.475   1.647 -1.6331  0.7976 -2.2668
  391MOL0     H53935   8.933   3.367   1.515 -3.4294 -1.1578  1.2731
  391MOL0     H53936   9.180   3.452   1.535 -2.6865  0.6443 -0.9805
  391MOL0     H53937   9.179   3.280   1.552  1.7105 -0.5812  1.8485
  391MOL0     H53938   8.431   2.875   2.116  0.7630 -0.1532  0.0879
  391MOL0     H53939   8.198   2.865   2.122  0.9092 -1.8990  1.3356
  391MOL0     H53940   7.807   2.839   1.658 -1.5771 -1.6365 -2.5175
  391MOL0     H53941   7.575   2.906   1.678  1.3550 -0.0107 -1.1804
  391MOL0     H53942   6.265   2.364   1.673 -0.2323  0.6691 -0.8570
  391MOL0     H53943   6.042   2.463   1.592  1.5614  2.9935  0.0642
  391MOL0     H53944   5.724   2.448   1.581 -1.2737  1.0678  0.1408
  391MOL0     H53945   5.530   2.419   1.419 -3.2601  0.3173 -1.6212
  391MOL0     H53946   5.297   2.766   1.273  3.4808 -0.4962 -2.6333
  391MOL0     H53947   5.199   2.624   1.275 -1.3779  1.1044  0.0420
  391MOL0     H53948   5.138   2.716   1.472  0.4385  0.6164 -0.0663
  391MOL0     H53949   5.300   2.721   1.540 -0.6306 -1.8747  3.5305
  391MOL0     H53950   5.258   2.442   1.454  2.1298 -0.9124 -0.2613
  391MOL0     H53951   5.317   2.513   1.591  0.5796 -0.6262 -1.8186
  391MOL0     H53952   5.110   2.387   1.637  1.4585  0.8627  2.6485
  391MOL0     H53953   5.017   2.526   1.545  0.1103  0.6293  0.5740
  391MOL0     H53954   5.013   2.669   1.918  0.5437 -1.3451  2.0648
  391MOL0     H53955   5.507   2.830   1.376  1.0067  1.8579  0.6493
  391MOL0     H53956   5.814   2.929   1.508 -0.3038 -2.3840  1.3874
  391MOL0     H53957   5.645   2.984   1.471  0.8334  1.0877 -2.4882
  391MOL0     H53958   5.692   2.932   1.640 -1.4888 -3.0199  0.2497
  392MOL0     O53959   1.976   0.257   6.823  0.2522  0.0227 -0.6116
  392MOL0     C53960   1.894   0.168   6.833 -0.1690  1.1283 -0.5082
  392MOL0     O53961   1.925   0.036   6.881  0.1016  0.0817 -0.3835
  392MOL0     C53962   2.048  -0.012   6.905 -0.8007 -0.0571  0.2076
  392MOL0     C53963   2.082  -0.062   7.030 -0.0474  0.3623  0.5551
  392MOL0     C53964   2.204  -0.125   7.045 -0.6654  0.1209 -0.1287
  392MOL0     C53965   2.300  -0.128   6.942 -0.3720 -0.0370  0.4618
  392MOL0     O53966   2.418  -0.195   6.957  0.8339  0.2721 -0.6026
  392MOL0     C53967   2.533  -0.117   6.946 -0.0851 -0.6764  0.1437
  392MOL0     C53968   2.649  -0.215   6.986 -0.2856  0.1103 -0.3165
  392MOL0     C53969   2.794  -0.159   6.992  0.0128 -0.9417  1.4889
  392MOL0     C53970   2.893  -0.268   7.032 -0.4502  0.4540 -0.5472
  392MOL0     C53971   3.036  -0.212   7.046 -0.9950  0.6482 -0.0928
  392MOL0     C53972   3.128  -0.244   6.922 -0.0345 -0.0649  0.1103
  392MOL0     C53973   3.271  -0.224   6.966 -0.0483  0.5219  0.2639
  392MOL0     C53974   3.327  -0.370   7.007 -0.1983  0.2567 -0.4221
  392MOL0     N53975   3.474  -0.359   7.030  0.1326 -0.0971  1.1158
  392MOL0     C53976   3.558  -0.306   6.939 -0.0025 -0.8280  0.4393
  392MOL0     C53977   3.681  -0.323   6.996 -0.4598  0.0933 -0.1156
  392MOL0     C53978   3.816  -0.279   6.950 -0.7912  0.5878  0.2213
  392MOL0     C53979   3.901  -0.400   6.893  0.5694 -0.4570 -0.8234
  392MOL0     C53980   3.963  -0.485   7.009 -0.2357  0.7862 -0.3671
  392MOL0     C53981   4.008  -0.407   7.134 -0.4392  0.6077 -0.2561
  392MOL0     O53982   4.094  -0.301   7.101 -0.4936  0.3605  0.1331
  392MOL0     C53983   4.219  -0.305   7.152 -0.7742 -0.0461  0.0924
  392MOL0     C53984   4.254  -0.207   7.243  0.0586  0.3000 -0.5235
  392MOL0     C53985   4.371  -0.225   7.316 -1.1168 -0.3258 -0.6532
  392MOL0     C53986   4.394  -0.124   7.428  0.0282  0.1444  0.2011
  392MOL0     C53987   4.471  -0.321   7.278  0.8510 -0.4313 -0.1534
  392MOL0     C53988   4.605  -0.329   7.341  0.2020 -0.3968  0.5848
  392MOL0     O53989   4.675  -0.207   7.371  0.1903  0.6500  0.2767
  392MOL0     C53990   4.791  -0.211   7.448  0.4546  0.2609 -0.2463
  392MOL0     C53991   4.903  -0.137   7.410  0.0594 -0.4681  0.4703
  392MOL0     C53992   5.021  -0.150   7.483  0.5105 -0.1645  0.5689
  392MOL0     C53993   5.034  -0.243   7.581 -0.9592  0.0545  0.0892
  392MOL0     O53994   5.156  -0.279   7.626  0.2026  0.4088 -0.1652
  392MOL0     C53995   5.245  -0.173   7.653 -0.2189 -0.3144 -0.5328
  392MOL0     C53996   5.364  -0.215   7.745  0.4161  0.2490 -0.5510
  392MOL0     C53997   5.446  -0.333   7.680  0.4170 -0.6894 -0.3203
  392MOL0     C53998   5.531  -0.275   7.565  0.3499  0.2206 -0.9505
  392MOL0     C53999   5.607  -0.391   7.494 -0.1133 -0.2635 -0.4800
  392MOL0     C54000   5.731  -0.338   7.421  0.3693 -0.0088  0.4022
  392MOL0     C54001   5.781  -0.429   7.323 -1.4229  0.1065 -0.4867
  392MOL0     C54002   5.906  -0.388   7.263 -0.5725  0.6208  0.5416
  392MOL0    Cl54003   5.896  -0.224   7.196 -0.0064  0.0775 -0.1686
  392MOL0     C54004   4.919  -0.313   7.631  0.0469 -0.1453  0.2073
  392MOL0     C54005   4.797  -0.292   7.576  0.1236  0.1572 -0.0650
  392MOL0     O54006   4.636  -0.438   7.379 -0.6250 -0.0037 -0.4927
  392MOL0     C54007   4.434  -0.413   7.175 -0.4688  1.3296 -0.8827
  392MOL0     C54008   4.306  -0.411   7.119  0.6215 -0.7209  0.4235
  392MOL0     N54009   3.676  -0.386   7.108 -0.0341 -0.1046 -0.4254
  392MOL0     N54010   3.548  -0.415   7.128 -0.2377  0.4350  0.2247
  392MOL0     C54011   2.271  -0.074   6.819  0.8413  0.3117  0.0263
  392MOL0     C54012   2.147  -0.012   6.807  0.4247 -0.2316 -0.1754
  392MOL0     C54013   1.750   0.199   6.808 -1.0343 -0.0815 -0.0732
  392MOL0     C54014   1.660   0.113   6.873  0.1526 -0.0962  0.0536
  392MOL0     C54015   1.528   0.150   6.872 -0.7878  0.6085 -0.2062
  392MOL0     C54016   1.481   0.265   6.812  0.7226  0.1437  0.0727
  392MOL0     O54017   1.350   0.306   6.796  0.7485  0.1056  0.0167
  392MOL0     C54018   1.249   0.259   6.881  0.5359 -0.4069 -0.1669
  392MOL0     C54019   1.124   0.356   6.873 -0.6486  0.2425  0.0909
  392MOL0     C54020   1.019   0.336   6.983 -0.6569 -0.2401 -0.0030
  392MOL0     C54021   0.915   0.447   6.983  0.4101 -0.4686  0.2554
  392MOL0     C54022   0.856   0.459   6.852 -0.5393  0.4382  0.5658
  392MOL0     C54023   0.808   0.467   6.739 -0.3579  0.3822 -0.5445
  392MOL0     C54024   1.571   0.343   6.739  0.0873  0.1476 -0.2015
  392MOL0     C54025   1.702   0.306   6.733 -1.0465 -0.4361 -0.2240
  392MOL0     C54026   1.796   0.391   6.653 -0.9233 -0.1313 -0.0178
  392MOL0     H54027   2.006  -0.079   7.106 -1.6824  2.5689 -0.4661
  392MOL0     H54028   2.234  -0.176   7.136  1.8160 -0.9868 -1.4579
  392MOL0     H54029   2.530  -0.043   7.027 -1.3896 -1.4305  0.8180
  392MOL0     H54030   2.537  -0.062   6.852  2.3214  1.4705  1.3797
  392MOL0     H54031   2.628  -0.248   7.088  1.9104 -3.6369 -0.8969
  392MOL0     H54032   2.654  -0.305   6.924  1.5579 -1.6511  2.2168
  392MOL0     H54033   2.812  -0.116   6.893 -1.8847 -0.0342  1.4825
  392MOL0     H54034   2.810  -0.075   7.060  3.0624  0.2763 -0.5131
  392MOL0     H54035   2.870  -0.306   7.132 -2.1242  0.8429 -0.7548
  392MOL0     H54036   2.894  -0.352   6.961  2.6103  1.2654 -1.5937
  392MOL0     H54037   3.084  -0.267   7.127 -1.5281 -1.4342 -1.1214
  392MOL0     H54038   3.036  -0.104   7.063 -1.5878  0.4314  1.3519
  392MOL0     H54039   3.108  -0.348   6.895 -0.8377  0.0867  0.0900
  392MOL0     H54040   3.106  -0.178   6.838 -0.0997  0.0326  0.2030
  392MOL0     H54041   3.276  -0.157   7.052  1.6989  0.4958  0.2256
  392MOL0     H54042   3.331  -0.180   6.886 -0.8512  2.1119  0.5121
  392MOL0     H54043   3.277  -0.402   7.098 -0.3413  0.0228 -0.5839
  392MOL0     H54044   3.314  -0.454   6.938  0.0968 -2.6257  2.7487
  392MOL0     H54045   3.527  -0.262   6.845 -0.4273  0.2046  1.0454
  392MOL0     H54046   3.873  -0.225   7.027 -1.3372  2.4988 -0.6572
  392MOL0     H54047   3.802  -0.217   6.861  2.3188  0.1610 -0.7193
  392MOL0     H54048   3.829  -0.455   6.832  1.3122 -0.5078 -1.6755
  392MOL0     H54049   3.985  -0.359   6.836  1.4721 -1.4950 -0.2793
  392MOL0     H54050   3.895  -0.560   7.050  1.2713 -1.1683 -1.2719
  392MOL0     H54051   4.046  -0.541   6.966 -0.9940  1.0004 -2.1917
  392MOL0     H54052   3.923  -0.371   7.193 -0.5604  0.6360 -0.4488
  392MOL0     H54053   4.063  -0.475   7.200  0.1253  0.0412 -1.2849
  392MOL0     H54054   4.192  -0.119   7.257 -0.7522 -0.3939  0.3853
  392MOL0     H54055   4.461  -0.055   7.376  1.6376 -1.6338 -0.1653
  392MOL0     H54056   4.443  -0.167   7.515  0.7302  1.0892  0.2919
  392MOL0     H54057   4.304  -0.074   7.466  1.0144  1.0997  1.3395
  392MOL0     H54058   4.885  -0.065   7.330  1.9795  1.5871  1.7573
  392MOL0     H54059   5.105  -0.093   7.445  1.2931 -1.1210  0.8470
  392MOL0     H54060   5.289  -0.124   7.565  1.4774  0.8625  0.9137
  392MOL0     H54061   5.190  -0.096   7.707 -1.8216 -0.8477 -1.3369
  392MOL0     H54062   5.421  -0.123   7.754 -0.8116  1.1278 -1.3959
  392MOL0     H54063   5.326  -0.255   7.839  0.3750 -2.5530 -1.6564
  392MOL0     H54064   5.385  -0.421   7.655  1.7390 -1.4975 -0.8453
  392MOL0     H54065   5.516  -0.365   7.757  1.1552  2.0004  0.2253
  392MOL0     H54066   5.598  -0.195   7.597 -1.2608  0.8787  1.0289
  392MOL0     H54067   5.460  -0.226   7.499 -3.1436 -0.9615  1.6163
  392MOL0     H54068   5.642  -0.461   7.571 -0.2349 -1.1360 -1.2063
  392MOL0     H54069   5.544  -0.449   7.427 -2.8234  1.1586  0.6894
  392MOL0     H54070   5.807  -0.313   7.495  4.0197 -3.2169 -1.8719
  392MOL0     H54071   5.707  -0.237   7.386  0.1116  0.2221  1.2359
  392MOL0     H54072   5.699  -0.428   7.251 -2.7207 -1.4489  0.8611
  392MOL0     H54073   5.808  -0.524   7.371  0.3820  1.1422  0.6259
  392MOL0     H54074   5.943  -0.456   7.186  3.3914  2.5704  0.4772
  392MOL0     H54075   5.988  -0.382   7.336  2.2064 -0.4471 -2.2969
  392MOL0     H54076   4.941  -0.387   7.706 -1.2228 -4.5262 -3.2984
  392MOL0     H54077   4.710  -0.347   7.608 -0.5667  0.8671 -0.6892
  392MOL0     H54078   4.499  -0.496   7.148  1.3987  1.8359  1.6326
  392MOL0     H54079   4.285  -0.492   7.050  0.2177 -0.2694  0.0128
  392MOL0     H54080   2.343  -0.064   6.738 -1.6868  0.6990 -2.3429
  392MOL0     H54081   2.128   0.054   6.723  2.6014  2.6761  1.4429
  392MOL0     H54082   1.683   0.036   6.946 -0.9161  1.5462  2.2471
  392MOL0     H54083   1.463   0.090   6.935 -2.0502 -0.8109 -2.6872
  392MOL0     H54084   1.208   0.164   6.844  0.5160  0.4809 -2.6098
  392MOL0     H54085   1.284   0.250   6.984  0.7083 -1.6683 -0.3128
  392MOL0     H54086   1.080   0.342   6.774 -0.9132 -0.8798  0.3509
  392MOL0     H54087   1.165   0.458   6.875 -0.7829  0.3035  2.2000
  392MOL0     H54088   0.968   0.240   6.966 -0.1981 -0.3550 -0.7539
  392MOL0     H54089   1.081   0.327   7.072  0.2767  3.4006 -0.1559
  392MOL0     H54090   0.958   0.545   7.004 -3.0983  1.1971  0.3994
  392MOL0     H54091   0.829   0.421   7.046  0.9310 -1.7680  0.4723
  392MOL0     H54092   0.773   0.481   6.638  0.6415  1.0868 -0.8104
  392MOL0     H54093   1.538   0.434   6.690  1.5135  0.9815  0.3432
  392MOL0     H54094   1.736   0.442   6.577 -2.8665 -1.6881  0.3815
  392MOL0     H54095   1.846   0.461   6.721  0.9818 -1.9440  0.5669
  392MOL0     H54096   1.869   0.335   6.594  0.6279  2.6988 -0.9646
  393MOL0     O54097  10.837   7.083   2.240  0.5238  0.5553  0.2893
  393MOL0     C54098  10.769   6.985   2.235 -0.1737  0.8951 -0.3914
  393MOL0     O54099  10.775   6.887   2.140  0.0031 -0.1715  0.0688
  393MOL0     C54100  10.903   6.847   2.108  0.2265  0.3968  0.2595
  393MOL0     C54101  11.000   6.814   2.208 -1.2141  0.0858 -0.0025
  393MOL0     C54102  11.127   6.785   2.168  0.6106 -0.3339 -0.2025
  393MOL0     C54103  11.165   6.785   2.024 -0.5788 -0.1354  0.5976
  393MOL0     O54104  11.304   6.780   1.979  0.6242 -0.4014  0.2759
  393MOL0     C54105  11.398   6.727   2.067 -0.4653 -0.0913 -0.6248
  393MOL0     C54106  11.528   6.714   1.985 -0.3152  0.0332  0.0445
  393MOL0     C54107  11.637   6.810   2.040  0.3212  0.1254 -1.0380
  393MOL0     C54108  11.757   6.840   1.954 -0.1958 -0.4506 -0.6780
  393MOL0     C54109  11.861   6.925   2.029  0.0227 -0.0486 -0.3315
  393MOL0     C54110  11.971   6.991   1.936 -0.7620  0.0317 -0.0133
  393MOL0     C54111  11.901   7.075   1.820 -0.1089  0.1576  0.5029
  393MOL0     C54112  12.007   7.144   1.734  0.1025 -0.2314 -0.3769
  393MOL0     N54113  12.084   7.244   1.811 -0.1697 -0.2827 -1.0663
  393MOL0     C54114  12.218   7.230   1.849 -0.6217  0.0077  0.8735
  393MOL0     C54115  12.246   7.343   1.913 -0.2132  0.1618  0.4384
  393MOL0     C54116  12.376   7.379   1.968 -0.8148 -0.8425  0.3208
  393MOL0     C54117  12.498   7.356   1.878  0.1441 -0.1009 -0.2887
  393MOL0     C54118  12.623   7.377   1.956 -0.1655 -0.1332 -0.2128
  393MOL0     C54119  12.744   7.357   1.864  0.1872 -0.3736 -0.5594
  393MOL0     O54120  12.729   7.379   1.720 -0.0570 -0.5177 -0.6864
  393MOL0     C54121  12.829   7.349   1.628  0.0370 -0.7365 -0.2627
  393MOL0     C54122  12.816   7.419   1.506 -0.1824 -0.0374  0.2545
  393MOL0     C54123  12.927   7.418   1.414  0.7240  0.1906 -0.4151
  393MOL0     C54124  12.893   7.497   1.288  1.0361  0.8388  0.0053
  393MOL0     C54125  13.052   7.348   1.446  0.2278 -0.7431 -0.5798
  393MOL0     C54126  13.175   7.345   1.356 -0.0680  0.1092 -0.4762
  393MOL0     O54127  13.283   7.270   1.404 -0.0626  0.2429  0.3358
  393MOL0     C54128  13.395   7.241   1.322  0.4126  0.1924 -0.1031
  393MOL0     C54129  13.400   7.227   1.187 -0.1887  0.3830 -0.3279
  393MOL0     C54130  13.510   7.184   1.125 -0.1225 -0.4282 -0.1359
  393MOL0     C54131  13.635   7.158   1.191 -0.6021 -0.3602  0.1347
  393MOL0     O54132  13.763   7.129   1.131 -0.0569 -0.5255  0.1666
  393MOL0     C54133  13.760   7.117   0.988  0.0007  0.1587  1.6532
  393MOL0     C54134  13.892   7.074   0.934  0.4233  0.3532  0.0047
  393MOL0     C54135  13.927   6.937   0.983  0.3281 -0.2193  0.0657
  393MOL0     C54136  14.058   6.880   0.927 -0.2827  0.3188 -0.1689
  393MOL0     C54137  14.069   6.726   0.961 -0.3114  0.0810 -0.4825
  393MOL0     C54138  14.207   6.680   0.927  0.1596 -0.0145 -0.1628
  393MOL0     C54139  14.288   6.730   0.806  0.7443 -0.2985 -0.0004
  393MOL0     C54140  14.421   6.652   0.792 -0.8164 -0.8068  0.2465
  393MOL0    Cl54141  14.530   6.731   0.670  0.1320  0.0724 -0.2897
  393MOL0     C54142  13.631   7.163   1.328  1.1272  0.2150 -0.6167
  393MOL0     C54143  13.508   7.206   1.395 -0.6604 -0.5633  0.1040
  393MOL0     O54144  13.184   7.423   1.264 -0.0629  0.1035  0.5131
  393MOL0     C54145  13.044   7.271   1.558 -0.4346  0.0676 -0.0319
  393MOL0     C54146  12.939   7.272   1.646  0.6320  0.0922  0.4759
  393MOL0     N54147  12.139   7.432   1.895  0.8314 -0.4543  0.2448
  393MOL0     N54148  12.037   7.368   1.831  0.6272  0.4329  0.4274
  393MOL0     C54149  11.064   6.790   1.931  1.0983  0.7562 -0.3464
  393MOL0     C54150  10.938   6.831   1.974  0.3930  0.0905  0.3299
  393MOL0     C54151  10.650   6.985   2.330 -0.2081  0.2644  1.1046
  393MOL0     C54152  10.658   7.042   2.453 -0.7879  0.8195 -0.5759
  393MOL0     C54153  10.537   7.051   2.531 -1.3695 -0.6629 -0.2872
  393MOL0     C54154  10.420   6.993   2.482  0.1521 -0.7234  0.2637
  393MOL0     O54155  10.301   6.994   2.547  0.0391  0.2455 -0.6894
  393MOL0     C54156  10.303   7.016   2.686 -0.7869 -0.0156 -0.5124
  393MOL0     C54157  10.169   6.966   2.752  0.4821 -0.0039 -0.5312
  393MOL0     C54158  10.168   6.979   2.904  0.4515 -0.9202  0.4077
  393MOL0     C54159  10.035   6.935   2.961 -0.6063 -0.1885  0.2429
  393MOL0     C54160   9.932   7.039   2.931  0.5352 -1.5048  0.6447
  393MOL0     C54161   9.844   7.118   2.901  0.5904 -1.0427  0.3580
  393MOL0     C54162  10.418   6.944   2.355 -0.0149 -0.6560  0.5792
  393MOL0     C54163  10.527   6.954   2.272  0.1907  0.3803  0.4900
  393MOL0     C54164  10.504   6.922   2.130  0.2049 -0.0084  0.0268
  393MOL0     H54165  10.959   6.830   2.307 -3.0548  1.4893 -0.9200
  393MOL0     H54166  11.200   6.787   2.248 -1.0033 -1.6590  1.4083
  393MOL0     H54167  11.378   6.623   2.094  3.4767 -1.2577 -1.5660
  393MOL0     H54168  11.409   6.802   2.146  0.0679  0.8410 -1.5450
  393MOL0     H54169  11.559   6.609   1.988 -2.4192 -0.6568 -0.7674
  393MOL0     H54170  11.503   6.741   1.882  1.5073 -0.4617 -0.5691
  393MOL0     H54171  11.593   6.905   2.072  0.2701 -0.5952  1.2079
  393MOL0     H54172  11.667   6.758   2.131 -2.9585 -2.2210 -1.1467
  393MOL0     H54173  11.799   6.747   1.915 -1.3087 -0.1592 -2.6968
  393MOL0     H54174  11.719   6.895   1.868  0.7625  3.3819  1.1351
  393MOL0     H54175  11.899   6.856   2.103 -0.0627 -1.3316 -1.4440
  393MOL0     H54176  11.802   7.006   2.075 -0.8982 -0.2528 -1.0987
  393MOL0     H54177  12.031   7.059   1.997 -1.2722  0.1431  0.3793
  393MOL0     H54178  12.035   6.915   1.891  1.0183 -0.3483  2.8983
  393MOL0     H54179  11.840   7.155   1.863  1.3664  2.3258 -1.1878
  393MOL0     H54180  11.839   7.015   1.752 -0.7118  0.2312  0.9784
  393MOL0     H54181  12.073   7.061   1.703  0.1964  0.0865 -1.0502
  393MOL0     H54182  11.959   7.188   1.645  1.2936  0.2307 -0.8098
  393MOL0     H54183  12.285   7.148   1.824  0.6081  1.8278 -2.4494
  393MOL0     H54184  12.383   7.324   2.062 -0.5536 -2.5383 -0.6667
  393MOL0     H54185  12.373   7.483   2.003 -1.3081 -0.1958 -1.5311
  393MOL0     H54186  12.499   7.252   1.845 -1.3335 -0.3924  0.4933
  393MOL0     H54187  12.505   7.418   1.788  2.9645 -1.8799 -1.4290
  393MOL0     H54188  12.625   7.483   1.986 -0.2307 -0.3156  0.4402
  393MOL0     H54189  12.635   7.312   2.043 -1.5954  3.0388  2.5923
  393MOL0     H54190  12.836   7.401   1.903  1.5046 -3.5375  0.2280
  393MOL0     H54191  12.766   7.250   1.873  0.8975 -0.0799  1.7973
  393MOL0     H54192  12.724   7.472   1.484 -1.6098 -1.3145  2.6029
  393MOL0     H54193  12.787   7.484   1.264  1.0644 -0.6752  0.6055
  393MOL0     H54194  12.950   7.466   1.200  0.3956  2.4578 -1.0389
  393MOL0     H54195  12.917   7.604   1.287  0.6590  0.9261 -0.0180
  393MOL0     H54196  13.318   7.263   1.126 -0.4151 -1.7648 -1.3762
  393MOL0     H54197  13.492   7.194   1.019  0.8954  2.0508 -0.1602
  393MOL0     H54198  13.682   7.045   0.962 -0.7923  1.7985 -0.8047
  393MOL0     H54199  13.733   7.215   0.949 -2.0401 -0.6614  0.8238
  393MOL0     H54200  13.899   7.074   0.825  0.3837 -2.9230 -0.0825
  393MOL0     H54201  13.964   7.140   0.984  1.4088 -0.8318  0.1874
  393MOL0     H54202  13.851   6.865   0.950  1.5299  0.3480 -4.5600
  393MOL0     H54203  13.919   6.938   1.092 -3.8745  1.2832 -0.0542
  393MOL0     H54204  14.147   6.933   0.962  3.3155 -3.3776 -2.7106
  393MOL0     H54205  14.074   6.892   0.820  0.7214  0.7525  0.0242
  393MOL0     H54206  14.048   6.707   1.067 -0.2087  0.2773 -0.4264
  393MOL0     H54207  14.004   6.659   0.905  0.7335 -1.4503  0.0815
  393MOL0     H54208  14.202   6.570   0.923  0.2778  0.0188 -2.6103
  393MOL0     H54209  14.274   6.704   1.010  1.9282  1.0184 -1.8256
  393MOL0     H54210  14.320   6.834   0.815 -1.1603  0.2619  0.7404
  393MOL0     H54211  14.229   6.725   0.714  0.7586  3.2539 -0.3363
  393MOL0     H54212  14.407   6.548   0.762 -0.6715 -0.3372 -1.5619
  393MOL0     H54213  14.462   6.662   0.893 -0.8564  1.2272  0.0957
  393MOL0     H54214  13.725   7.152   1.382  0.5361 -2.7612 -0.0186
  393MOL0     H54215  13.494   7.225   1.501 -1.0521 -2.0817  0.3371
  393MOL0     H54216  13.125   7.205   1.586 -0.7033 -1.7002 -2.9932
  393MOL0     H54217  12.947   7.209   1.734  1.5237  2.0877  1.8981
  393MOL0     H54218  11.096   6.783   1.827 -2.9636 -1.8847 -1.6500
  393MOL0     H54219  10.854   6.859   1.912 -1.0681  1.3246  2.7333
  393MOL0     H54220  10.750   7.086   2.492 -1.3243 -0.5125  2.4792
  393MOL0     H54221  10.549   7.098   2.628  1.3720  0.1874 -0.9382
  393MOL0     H54222  10.383   6.963   2.738 -0.4833  1.4154  0.5642
  393MOL0     H54223  10.308   7.125   2.700  1.6479  0.1626 -2.2446
  393MOL0     H54224  10.171   6.860   2.724  0.0694  0.2712 -1.6675
  393MOL0     H54225  10.085   7.016   2.704 -0.3152 -2.2703 -1.6685
  393MOL0     H54226  10.251   6.917   2.939  0.7109 -2.6175 -2.7639
  393MOL0     H54227  10.195   7.082   2.930  0.7280 -0.8979  0.0377
  393MOL0     H54228  10.043   6.926   3.070  0.9324 -0.2086  0.1512
  393MOL0     H54229  10.009   6.842   2.908  1.6256 -0.3672 -0.6537
  393MOL0     H54230   9.775   7.199   2.892 -1.0850 -2.4618 -0.1679
  393MOL0     H54231  10.331   6.891   2.318  1.5365 -3.9389  1.3521
  393MOL0     H54232  10.551   6.825   2.112  1.2470  0.0774  1.9785
  393MOL0     H54233  10.396   6.921   2.110  0.1143  2.3537  0.1133
  393MOL0     H54234  10.563   6.988   2.066  2.1313 -1.2299  0.4650
  394MOL0     O54235   7.862  10.208   4.827 -0.2755  0.2438 -0.8271
  394MOL0     C54236   7.801  10.196   4.934 -0.9595 -0.7506 -0.0583
  394MOL0     O54237   7.853  10.154   5.055 -0.2111 -0.4727  0.6081
  394MOL0     C54238   7.984  10.131   5.072  0.0562 -0.7075  0.0430
  394MOL0     C54239   8.081  10.231   5.063 -0.2915 -0.3679 -0.0824
  394MOL0     C54240   8.220  10.213   5.098  0.8825 -0.7137 -0.2860
  394MOL0     C54241   8.254  10.083   5.140 -0.2938  0.1761  0.3655
  394MOL0     O54242   8.392  10.064   5.174  0.2387  0.4107  0.4647
  394MOL0     C54243   8.433   9.931   5.220 -0.2221 -0.0073 -0.1516
  394MOL0     C54244   8.579   9.926   5.260 -0.7586  0.0417  0.0173
  394MOL0     C54245   8.604   9.955   5.406 -0.2174  0.3813 -0.4340
  394MOL0     C54246   8.744   9.916   5.453 -0.8792 -1.0681 -0.1894
  394MOL0     C54247   8.836  10.042   5.462 -0.2674 -0.8501 -0.3420
  394MOL0     C54248   8.938  10.036   5.578 -0.0319 -0.0316 -0.2135
  394MOL0     C54249   9.022  10.168   5.586  0.0894 -0.6008  0.2389
  394MOL0     C54250   9.107  10.193   5.463 -0.6768 -0.6155  0.2960
  394MOL0     N54251   9.217  10.293   5.475 -0.3243  0.1574  0.2717
  394MOL0     C54252   9.212  10.413   5.547 -0.3747  0.1515 -0.5639
  394MOL0     C54253   9.338  10.458   5.538  0.6668 -1.1591  0.2621
  394MOL0     C54254   9.376  10.592   5.596 -0.3386  0.1074  1.0129
  394MOL0     C54255   9.423  10.583   5.739  0.0935 -0.3440  0.9841
  394MOL0     C54256   9.511  10.698   5.784  0.1224 -1.1755 -0.4505
  394MOL0     C54257   9.551  10.704   5.930 -0.3243  0.4026  0.2573
  394MOL0     O54258   9.624  10.598   5.986 -0.0225 -0.1642  0.7175
  394MOL0     C54259   9.655  10.602   6.119 -0.3911 -0.0250 -0.0890
  394MOL0     C54260   9.594  10.679   6.222  0.5985 -0.4364  0.3833
  394MOL0     C54261   9.640  10.678   6.357 -0.4014  0.2483 -0.2651
  394MOL0     C54262   9.554  10.745   6.459  0.2556  0.0796 -0.6012
  394MOL0     C54263   9.761  10.608   6.388  0.0202 -0.4718 -0.1964
  394MOL0     C54264   9.823  10.601   6.523  0.5688 -0.0207  0.4386
  394MOL0     O54265   9.912  10.507   6.541 -0.7779  0.0215 -0.5223
  394MOL0     C54266  10.005  10.530   6.641 -0.2327 -0.3291 -0.5193
  394MOL0     C54267  10.095  10.643   6.630 -0.0189  0.3931 -0.0763
  394MOL0     C54268  10.212  10.636   6.711  0.0237 -0.0180 -0.1512
  394MOL0     C54269  10.231  10.531   6.804  0.0079 -0.4698  0.2470
  394MOL0     O54270  10.356  10.509   6.863  0.6492 -0.2913 -0.4925
  394MOL0     C54271  10.473  10.523   6.783 -0.1597 -0.8113  0.2910
  394MOL0     C54272  10.581  10.436   6.847 -0.3914 -0.0389  1.0138
  394MOL0     C54273  10.724  10.483   6.819 -0.1157 -0.1187 -0.2520
  394MOL0     C54274  10.822  10.420   6.917  0.1268 -0.0185  1.0935
  394MOL0     C54275  10.959  10.492   6.895  0.0423 -0.2532  0.3375
  394MOL0     C54276  11.060  10.480   7.012  0.0423 -0.2474  0.0494
  394MOL0     C54277  11.196  10.533   6.973  0.5778  0.0720 -0.0615
  394MOL0     C54278  11.274  10.443   6.885 -0.0330  1.2150  0.3453
  394MOL0    Cl54279  11.428  10.525   6.823 -0.1966  0.1457  0.3231
  394MOL0     C54280  10.132  10.430   6.816 -1.5507 -0.3960 -0.8803
  394MOL0     C54281  10.030  10.428   6.727  0.2163 -0.5555 -0.5454
  394MOL0     O54282   9.805  10.695   6.594 -0.4103  0.3345 -1.1311
  394MOL0     C54283   9.827  10.549   6.282 -0.4968  0.9632 -0.2886
  394MOL0     C54284   9.778  10.544   6.151  0.2124 -0.1973  0.5946
  394MOL0     N54285   9.420  10.375   5.466  0.1505  0.2244 -0.1700
  394MOL0     N54286   9.347  10.275   5.424 -0.0184  0.6236 -0.1283
  394MOL0     C54287   8.151   9.980   5.160  0.4260  0.7711 -0.1844
  394MOL0     C54288   8.021  10.004   5.123  0.2577 -0.1961 -0.5554
  394MOL0     C54289   7.656  10.215   4.927 -0.5016 -0.2005 -0.3543
  394MOL0     C54290   7.584  10.134   5.017  0.6693 -0.0911  0.3533
  394MOL0     C54291   7.441  10.147   5.021 -0.1480  0.3407  0.3088
  394MOL0     C54292   7.378  10.242   4.943 -0.0328  0.0153 -0.3289
  394MOL0     O54293   7.242  10.260   4.972  0.5311  0.0561  0.5702
  394MOL0     C54294   7.168  10.378   4.927  0.5650  0.3717 -0.6390
  394MOL0     C54295   7.025  10.390   4.983  0.3185  0.0768 -0.5091
  394MOL0     C54296   6.920  10.319   4.896 -0.4439  0.2006 -0.0193
  394MOL0     C54297   6.923  10.161   4.892  0.3031  0.5073 -0.3677
  394MOL0     C54298   6.796  10.107   4.839  0.0675 -0.4906  0.1355
  394MOL0     C54299   6.701  10.047   4.800  0.2113 -0.5048  1.1127
  394MOL0     C54300   7.442  10.320   4.856 -0.5586  0.5341 -0.0347
  394MOL0     C54301   7.582  10.302   4.840 -0.5480  0.6386 -0.1677
  394MOL0     C54302   7.647  10.369   4.720  0.0792 -0.7230 -0.1429
  394MOL0     H54303   8.044  10.328   5.034  2.1913  0.3054 -1.2866
  394MOL0     H54304   8.294  10.292   5.097 -1.0622  1.2212  0.4603
  394MOL0     H54305   8.428   9.853   5.144 -0.1905  0.8798 -1.0950
  394MOL0     H54306   8.368   9.907   5.305  1.0589 -0.3917  0.7483
  394MOL0     H54307   8.603   9.819   5.260 -1.0293 -0.0438  1.7186
  394MOL0     H54308   8.633   9.994   5.194 -1.6883 -1.2145 -2.1458
  394MOL0     H54309   8.570  10.059   5.417 -5.8532 -1.1817 -0.2149
  394MOL0     H54310   8.537   9.888   5.459 -0.2359  0.7155 -0.0288
  394MOL0     H54311   8.724   9.864   5.548 -1.6088 -0.8868 -0.2394
  394MOL0     H54312   8.791   9.845   5.385  0.0227 -0.3428 -0.3463
  394MOL0     H54313   8.777  10.133   5.479  2.1230  0.3852  2.3289
  394MOL0     H54314   8.889  10.055   5.367 -1.1903  0.0718 -0.7478
  394MOL0     H54315   8.898  10.015   5.678 -0.0177  1.0690  0.0370
  394MOL0     H54316   8.998   9.951   5.544  0.9391  1.3846 -2.2282
  394MOL0     H54317   9.093  10.178   5.668 -0.2879 -0.8080  0.5921
  394MOL0     H54318   8.951  10.250   5.598 -0.3577 -0.5371 -2.3360
  394MOL0     H54319   9.156  10.098   5.437  0.2915  0.4310 -2.0191
  394MOL0     H54320   9.034  10.227   5.388 -1.1661 -1.1337  0.5298
  394MOL0     H54321   9.139  10.471   5.603 -0.4480 -1.3242  0.9353
  394MOL0     H54322   9.284  10.650   5.599  0.4801  1.4703  0.7926
  394MOL0     H54323   9.452  10.629   5.526  0.5129 -4.2832 -0.6835
  394MOL0     H54324   9.335  10.576   5.804 -0.6965  1.4642  0.1542
  394MOL0     H54325   9.482  10.492   5.753 -1.7358 -1.7450  0.0128
  394MOL0     H54326   9.596  10.687   5.716  2.2390  4.3123  0.7489
  394MOL0     H54327   9.462  10.793   5.762  0.8887 -0.6756 -0.0822
  394MOL0     H54328   9.589  10.802   5.961  1.9486  0.0063 -1.0734
  394MOL0     H54329   9.450  10.708   5.972 -0.0487  0.9857  0.8771
  394MOL0     H54330   9.502  10.730   6.193 -2.7517 -4.7274  2.2779
  394MOL0     H54331   9.455  10.761   6.416 -0.1249 -0.9225 -0.1392
  394MOL0     H54332   9.602  10.840   6.483  4.0011 -1.7950  0.0931
  394MOL0     H54333   9.522  10.694   6.551 -1.4987  3.6356  0.9324
  394MOL0     H54334  10.077  10.719   6.555  1.8853 -0.4831 -1.5010
  394MOL0     H54335  10.290  10.707   6.685  0.1816  0.0291  0.4426
  394MOL0     H54336  10.446  10.503   6.679 -0.5012  2.1821 -0.2976
  394MOL0     H54337  10.506  10.627   6.780 -0.5185 -0.6695  0.9448
  394MOL0     H54338  10.560  10.445   6.953  0.3601 -0.5191  1.2134
  394MOL0     H54339  10.567  10.334   6.810 -1.6418  0.7149 -0.7560
  394MOL0     H54340  10.717  10.591   6.834 -1.9011 -0.1024 -0.9761
  394MOL0     H54341  10.761  10.472   6.716  1.3429 -0.1215  0.2510
  394MOL0     H54342  10.836  10.314   6.896 -1.3760  0.0030 -0.2385
  394MOL0     H54343  10.778  10.443   7.015 -2.2674  2.0430 -0.3350
  394MOL0     H54344  11.002  10.455   6.801  0.5329  2.6046 -0.6477
  394MOL0     H54345  10.955  10.595   6.859  1.7321 -0.2861 -0.0451
  394MOL0     H54346  11.075  10.380   7.055 -2.0602 -0.0886  1.2800
  394MOL0     H54347  11.026  10.533   7.101  1.2466 -2.1889  1.7535
  394MOL0     H54348  11.255  10.548   7.064 -0.4109  0.7671  0.4849
  394MOL0     H54349  11.177  10.631   6.929 -1.2080 -0.7331 -1.2016
  394MOL0     H54350  11.212  10.410   6.801  0.3135 -0.4001  0.6999
  394MOL0     H54351  11.294  10.348   6.936 -1.2780 -1.0431 -3.0273
  394MOL0     H54352  10.153  10.338   6.869 -1.8017 -0.9415 -1.7034
  394MOL0     H54353   9.958  10.348   6.724 -2.1238  1.4470 -0.8531
  394MOL0     H54354   9.918  10.495   6.307 -3.7026 -3.8702  2.5464
  394MOL0     H54355   9.848  10.500   6.081  1.0328  3.0928 -0.8217
  394MOL0     H54356   8.177   9.881   5.196 -1.6353  1.1120  2.5973
  394MOL0     H54357   7.948   9.924   5.129  2.6121 -2.3917  2.9974
  394MOL0     H54358   7.629  10.061   5.083  1.6805 -0.4429 -0.7016
  394MOL0     H54359   7.374  10.084   5.080  1.6128 -1.7038  0.2593
  394MOL0     H54360   7.217  10.469   4.962 -0.4279  0.7059 -0.0884
  394MOL0     H54361   7.164  10.381   4.817  1.8465 -0.1269 -0.7192
  394MOL0     H54362   6.998  10.496   4.994  2.8224  0.5806  2.1726
  394MOL0     H54363   7.020  10.346   5.083 -2.3185  2.5755  0.6196
  394MOL0     H54364   6.829  10.363   4.939 -1.1329 -0.6196 -0.5957
  394MOL0     H54365   6.931  10.361   4.795  0.1937 -1.8495 -0.8670
  394MOL0     H54366   6.941  10.123   4.993 -0.5378  0.3134 -0.2856
  394MOL0     H54367   7.006  10.138   4.824  2.4396  0.3881  2.0845
  394MOL0     H54368   6.625   9.989   4.752  1.7621 -2.5456  1.0201
  394MOL0     H54369   7.375  10.371   4.787  0.1591  0.2743 -0.9481
  394MOL0     H54370   7.701  10.288   4.671  1.7264 -0.0722  0.4998
  394MOL0     H54371   7.577  10.420   4.653 -0.0367  1.0354  1.2303
  394MOL0     H54372   7.713  10.446   4.762  1.5417 -1.7836 -0.4365
  395MOL0     O54373   9.866   2.185   9.632 -0.5975 -0.1351 -0.7556
  395MOL0     C54374   9.877   2.299   9.668  0.8382  0.2081  0.0787
  395MOL0     O54375   9.997   2.368   9.687 -0.0974 -0.5855 -1.1147
  395MOL0     C54376  10.110   2.293   9.670  0.0064  0.1441 -0.0743
  395MOL0     C54377  10.199   2.338   9.579  0.1081 -0.1608  0.4299
  395MOL0     C54378  10.320   2.273   9.573  0.4576 -0.6320  0.7596
  395MOL0     C54379  10.361   2.172   9.657  0.0064  1.1782 -0.6519
  395MOL0     O54380  10.474   2.101   9.628 -0.0203 -0.1759 -0.0102
  395MOL0     C54381  10.530   2.021   9.729  0.3863  0.3560  0.4313
  395MOL0     C54382  10.659   1.941   9.681 -0.3655  0.4298  0.4433
  395MOL0     C54383  10.784   2.037   9.671  0.0864  0.5062  0.7091
  395MOL0     C54384  10.786   2.126   9.543  0.3573  1.0339  0.7966
  395MOL0     C54385  10.908   2.217   9.536 -0.9255  0.8178 -0.5749
  395MOL0     C54386  11.035   2.138   9.506 -0.4325 -0.6743  0.3154
  395MOL0     C54387  11.164   2.224   9.513  0.2314  0.1715  0.1547
  395MOL0     C54388  11.289   2.154   9.466 -0.0375 -0.3866 -0.5573
  395MOL0     N54389  11.406   2.242   9.480  0.3828 -0.2433 -0.7811
  395MOL0     C54390  11.470   2.317   9.385  0.6138  0.1571  0.3110
  395MOL0     C54391  11.586   2.365   9.449  0.7807 -0.4029  1.2439
  395MOL0     C54392  11.705   2.430   9.389  0.4936 -0.4516  0.9874
  395MOL0     C54393  11.731   2.562   9.469 -0.8982  0.0059  0.1468
  395MOL0     C54394  11.780   2.677   9.379 -0.4847 -0.7313  0.5273
  395MOL0     C54395  11.916   2.639   9.316 -0.4671  0.8157 -1.0903
  395MOL0     O54396  12.007   2.613   9.416 -1.0808  0.2724  0.3741
  395MOL0     C54397  12.133   2.594   9.372  0.4896  0.0909 -0.5140
  395MOL0     C54398  12.220   2.699   9.381 -0.4383 -0.2733 -0.3294
  395MOL0     C54399  12.353   2.687   9.346 -0.6321 -0.3846 -0.0934
  395MOL0     C54400  12.428   2.814   9.367 -0.1875  1.2127  0.1650
  395MOL0     C54401  12.409   2.566   9.291 -1.2565  0.0641 -0.6169
  395MOL0     C54402  12.558   2.546   9.265  0.1155 -0.2207 -1.0418
  395MOL0     O54403  12.637   2.654   9.263 -0.7854 -0.2216  0.1271
  395MOL0     C54404  12.773   2.646   9.242 -0.6489 -0.0879 -0.2224
  395MOL0     C54405  12.860   2.538   9.283  0.2315 -0.2681  1.0608
  395MOL0     C54406  12.997   2.543   9.258  0.0097 -1.3578 -0.5598
  395MOL0     C54407  13.055   2.664   9.218  0.1891 -0.5467  0.2709
  395MOL0     O54408  13.184   2.701   9.208 -0.7403 -0.4220 -0.0416
  395MOL0     C54409  13.288   2.597   9.216 -0.2575 -0.4725 -0.1477
  395MOL0     C54410  13.421   2.660   9.198 -0.1602 -0.0218 -0.1851
  395MOL0     C54411  13.537   2.565   9.235  0.2550 -0.2615  0.0242
  395MOL0     C54412  13.677   2.623   9.233  0.1022 -0.6558 -1.2033
  395MOL0     C54413  13.806   2.537   9.246  1.4307  0.2550  0.2527
  395MOL0     C54414  13.816   2.480   9.391  0.1371 -0.4515 -0.4146
  395MOL0     C54415  13.940   2.389   9.391 -0.6419  0.6822  0.3295
  395MOL0     C54416  13.970   2.329   9.527 -0.1254  0.0144 -0.6183
  395MOL0    Cl54417  13.999   2.450   9.648 -0.1143  0.1585  0.1098
  395MOL0     C54418  12.967   2.769   9.180 -0.1876  1.4649 -0.9662
  395MOL0     C54419  12.831   2.773   9.206  0.2095  0.2441 -0.4275
  395MOL0     O54420  12.589   2.424   9.256 -0.1960  0.1933  0.8081
  395MOL0     C54421  12.311   2.461   9.275 -0.6756  0.3316 -1.1134
  395MOL0     C54422  12.180   2.476   9.315 -0.2286 -0.5697 -0.2261
  395MOL0     N54423  11.592   2.310   9.582  0.8331 -0.1817  0.3626
  395MOL0     N54424  11.478   2.240   9.595 -0.0541 -0.2690 -0.6865
  395MOL0     C54425  10.273   2.139   9.763  0.4479  0.4969 -0.4468
  395MOL0     C54426  10.152   2.208   9.776 -0.2122  0.9435 -0.3743
  395MOL0     C54427   9.746   2.368   9.703 -1.2374  0.3803  0.0547
  395MOL0     C54428   9.640   2.285   9.759 -0.7858 -0.2695  0.5877
  395MOL0     C54429   9.514   2.343   9.800  0.3430 -0.7028  0.4102
  395MOL0     C54430   9.499   2.482   9.793  0.2416 -0.4533 -0.3503
  395MOL0     O54431   9.392   2.556   9.839  0.0430  0.1128 -0.1139
  395MOL0     C54432   9.340   2.513   9.964  0.1323  0.8311  0.0780
  395MOL0     C54433   9.324   2.645  10.032  1.0372 -0.3246  0.0627
  395MOL0     C54434   9.286   2.616  10.174 -0.0473  0.2258  0.6525
  395MOL0     C54435   9.289   2.740  10.264 -0.5257  0.9640  0.4516
  395MOL0     C54436   9.219   2.854  10.208  0.6977  0.1499 -0.4615
  395MOL0     C54437   9.188   2.966  10.165 -0.5911 -0.0552 -0.2084
  395MOL0     C54438   9.600   2.562   9.734  1.0991  0.7387  0.1337
  395MOL0     C54439   9.727   2.509   9.696  0.7998 -0.3207 -0.4641
  395MOL0     C54440   9.835   2.600   9.646 -0.3044  0.4566 -0.6227
  395MOL0     H54441  10.160   2.413   9.511 -2.1881 -1.8942 -0.3068
  395MOL0     H54442  10.385   2.300   9.491  0.6136 -1.8752  0.4555
  395MOL0     H54443  10.462   1.937   9.745  0.2318  0.2854 -0.5095
  395MOL0     H54444  10.562   2.067   9.823  3.4731 -0.2691 -0.1852
  395MOL0     H54445  10.682   1.866   9.757 -1.2986 -1.6390 -1.2073
  395MOL0     H54446  10.637   1.879   9.594  0.7507 -0.4702  0.7770
  395MOL0     H54447  10.784   2.103   9.758 -0.6504  0.3684  0.8257
  395MOL0     H54448  10.877   1.981   9.679 -0.6058 -0.5137  2.1823
  395MOL0     H54449  10.779   2.060   9.456  0.4942  0.8635  0.9135
  395MOL0     H54450  10.708   2.202   9.550  1.5942  2.3156  1.3308
  395MOL0     H54451  10.937   2.260   9.632  2.9399 -0.3595 -1.0318
  395MOL0     H54452  10.902   2.291   9.457  4.2395  1.6003 -0.5686
  395MOL0     H54453  11.031   2.056   9.579  0.4012 -0.2173  0.8936
  395MOL0     H54454  11.036   2.098   9.405  2.5129 -0.1365  0.0323
  395MOL0     H54455  11.174   2.266   9.613  0.0767 -0.0845  0.2789
  395MOL0     H54456  11.142   2.316   9.459  1.9573  1.1341  1.0297
  395MOL0     H54457  11.307   2.068   9.531  2.2460  0.8581  0.5921
  395MOL0     H54458  11.283   2.110   9.366 -0.1307 -0.8845 -0.3316
  395MOL0     H54459  11.439   2.345   9.285  0.3320 -0.8560  0.1056
  395MOL0     H54460  11.676   2.446   9.285 -0.6298  1.0928  1.5078
  395MOL0     H54461  11.790   2.362   9.377  0.3418 -1.0396  2.8901
  395MOL0     H54462  11.646   2.595   9.529 -0.0612  1.3733  0.6371
  395MOL0     H54463  11.808   2.541   9.544 -0.0409  0.7782 -0.4862
  395MOL0     H54464  11.708   2.709   9.303 -0.1914  1.1064  0.9650
  395MOL0     H54465  11.794   2.764   9.444 -1.0522  0.7815 -1.2985
  395MOL0     H54466  11.901   2.548   9.257  1.6195 -1.1487  1.2410
  395MOL0     H54467  11.951   2.723   9.256 -2.3310  1.0930 -1.8722
  395MOL0     H54468  12.186   2.794   9.423 -0.3028 -0.7202  0.8240
  395MOL0     H54469  12.364   2.897   9.398  1.8245  2.2021  1.8299
  395MOL0     H54470  12.486   2.837   9.277 -0.1006 -0.4149 -0.2290
  395MOL0     H54471  12.499   2.806   9.450  1.8065 -0.1974 -1.5649
  395MOL0     H54472  12.829   2.439   9.314  2.2787 -0.2481  3.5728
  395MOL0     H54473  13.057   2.454   9.281  0.1685 -0.9500  0.6921
  395MOL0     H54474  13.279   2.570   9.322  0.2925  3.7107  1.1203
  395MOL0     H54475  13.268   2.514   9.147  0.5264 -1.0856  0.3415
  395MOL0     H54476  13.438   2.710   9.102  2.8118  1.3663  0.9590
  395MOL0     H54477  13.411   2.750   9.259 -4.9094  1.0639 -2.0578
  395MOL0     H54478  13.543   2.481   9.166  2.4368 -1.2939  1.3877
  395MOL0     H54479  13.516   2.512   9.328  3.6080 -4.9640 -1.5033
  395MOL0     H54480  13.680   2.702   9.309 -0.3461  0.2094 -2.0719
  395MOL0     H54481  13.682   2.681   9.141 -3.9294 -1.2313 -1.9701
  395MOL0     H54482  13.792   2.457   9.173 -0.7146 -0.6685  1.5868
  395MOL0     H54483  13.899   2.591   9.225  2.9894 -2.7519 -1.2534
  395MOL0     H54484  13.739   2.409   9.424  0.4573 -0.0605  1.2577
  395MOL0     H54485  13.831   2.555   9.469  2.1442 -1.5872  0.3793
  395MOL0     H54486  14.029   2.439   9.351  0.1165  0.9027  2.2224
  395MOL0     H54487  13.922   2.306   9.321 -4.0537  0.3062  1.4683
  395MOL0     H54488  14.052   2.258   9.518 -0.8616 -0.9055 -0.2737
  395MOL0     H54489  13.880   2.277   9.560  1.0213 -1.1731  0.7839
  395MOL0     H54490  13.010   2.864   9.148 -1.0946  2.8182  1.5019
  395MOL0     H54491  12.772   2.862   9.189 -1.8439 -0.9021  0.3281
  395MOL0     H54492  12.327   2.362   9.233  0.6130 -0.4928  1.1510
  395MOL0     H54493  12.104   2.399   9.307  1.5178 -2.3366 -0.5938
  395MOL0     H54494  10.278   2.056   9.833  1.6954  0.8105 -0.1310
  395MOL0     H54495  10.086   2.191   9.861  1.8927  1.7799  1.5227
  395MOL0     H54496   9.651   2.177   9.759  0.3642 -0.1882 -1.3942
  395MOL0     H54497   9.432   2.286   9.844 -0.6997 -0.3888 -1.0589
  395MOL0     H54498   9.245   2.463   9.942  0.2159  0.4173  0.6294
  395MOL0     H54499   9.400   2.443  10.023  0.3474  2.2787  1.6507
  395MOL0     H54500   9.252   2.715   9.988  1.4048  1.6402  2.3567
  395MOL0     H54501   9.419   2.699  10.022  0.8761 -0.3315 -1.7042
  395MOL0     H54502   9.187   2.569  10.180  0.0960 -0.3075 -0.9199
  395MOL0     H54503   9.356   2.548  10.224 -0.7527  0.5894  2.2004
  395MOL0     H54504   9.392   2.770  10.287 -0.1551 -0.5163  0.8660
  395MOL0     H54505   9.239   2.711  10.357  0.7602  1.8958  1.4807
  395MOL0     H54506   9.162   3.063  10.127 -2.4502 -0.6737 -0.6193
  395MOL0     H54507   9.579   2.668   9.724  1.3404  0.6194 -2.1459
  395MOL0     H54508   9.890   2.640   9.731  2.4339 -1.8624 -1.1641
  395MOL0     H54509   9.900   2.554   9.571 -1.9522  0.7725 -2.3349
  395MOL0     H54510   9.776   2.678   9.595 -1.0585  0.3484  0.0596
  396MOL0     O54511   1.458   9.634  11.149 -0.3173 -0.1008 -0.1212
  396MOL0     C54512   1.414   9.630  11.033  1.0494 -0.3786  0.1770
  396MOL0     O54513   1.491   9.605  10.926 -0.1084  0.1200  0.0318
  396MOL0     C54514   1.625   9.634  10.944  0.1994  0.5875 -0.5857
  396MOL0     C54515   1.667   9.749  10.998  0.1587 -0.2410  0.3853
  396MOL0     C54516   1.805   9.771  11.007 -0.4097  0.2979 -0.1571
  396MOL0     C54517   1.898   9.687  10.954  0.0506  0.2057  0.0523
  396MOL0     O54518   2.028   9.714  10.973  0.0329 -0.3350 -0.4223
  396MOL0     C54519   2.096   9.654  11.078 -0.0185  0.5800  0.7950
  396MOL0     C54520   2.173   9.538  11.018  0.2895  0.1175 -0.7364
  396MOL0     C54521   2.287   9.569  10.919  0.7517  0.1159  0.0802
  396MOL0     C54522   2.409   9.598  11.010 -0.6736 -0.0853 -0.1619
  396MOL0     C54523   2.535   9.635  10.931 -0.5175 -0.3105  0.2424
  396MOL0     C54524   2.646   9.663  11.039  0.4022  0.2077  0.0128
  396MOL0     C54525   2.781   9.672  10.965  0.3848  0.0802 -0.0986
  396MOL0     C54526   2.905   9.689  11.064 -0.1348 -0.4817  0.9347
  396MOL0     N54527   2.928   9.570  11.149 -0.5505 -0.0313  0.1081
  396MOL0     C54528   2.933   9.572  11.288  0.5720 -0.3209  0.8940
  396MOL0     C54529   2.993   9.461  11.323  0.7362  0.6772 -0.3287
  396MOL0     C54530   3.012   9.428  11.470  0.5306 -0.3298 -0.1788
  396MOL0     C54531   3.076   9.295  11.498 -0.0548  0.7256  0.3022
  396MOL0     C54532   3.229   9.305  11.474  0.7293 -0.1020 -0.7805
  396MOL0     C54533   3.301   9.188  11.532  0.2524  0.0536 -0.3099
  396MOL0     O54534   3.426   9.165  11.471 -0.5281  0.2298  0.3578
  396MOL0     C54535   3.507   9.270  11.487  0.7212 -0.0595 -1.1869
  396MOL0     C54536   3.561   9.342  11.380 -0.2646  0.2235  0.2873
  396MOL0     C54537   3.653   9.444  11.403 -0.3826  0.1834  0.8433
  396MOL0     C54538   3.707   9.502  11.278  0.1455 -0.2928  0.2196
  396MOL0     C54539   3.697   9.481  11.531  0.5880  0.7282  0.0521
  396MOL0     C54540   3.801   9.587  11.546 -0.3356 -0.0214  0.1987
  396MOL0     O54541   3.794   9.702  11.474  0.0274 -0.6390  0.0808
  396MOL0     C54542   3.894   9.790  11.487 -1.0118  0.2300  0.1403
  396MOL0     C54543   3.898   9.876  11.601  0.7271 -0.3866  0.2040
  396MOL0     C54544   4.011   9.957  11.630  0.0757 -0.1423  0.6746
  396MOL0     C54545   4.118   9.949  11.538 -0.0969 -0.5669 -0.1068
  396MOL0     O54546   4.224  10.035  11.569  0.0618  0.9447  0.4651
  396MOL0     C54547   4.350  10.002  11.502 -0.4579 -0.2771  0.6582
  396MOL0     C54548   4.444  10.110  11.532 -0.4875  0.4275 -0.6513
  396MOL0     C54549   4.473  10.140  11.682  0.2035 -0.5351  0.6447
  396MOL0     C54550   4.577  10.040  11.743 -0.3415 -0.0698  0.0297
  396MOL0     C54551   4.566  10.025  11.899 -0.8671  0.1919 -0.1463
  396MOL0     C54552   4.623   9.894  11.955  0.0378 -0.7779 -0.2077
  396MOL0     C54553   4.583   9.878  12.102  0.3404  0.9033  0.2518
  396MOL0     C54554   4.677   9.951  12.207 -0.0131 -0.1770 -0.8164
  396MOL0    Cl54555   4.833   9.868  12.217 -0.1056  0.3021  0.1023
  396MOL0     C54556   4.104   9.870  11.415  0.2089 -0.3478  0.0800
  396MOL0     C54557   3.991   9.789  11.393 -0.7410  0.8242 -0.0985
  396MOL0     O54558   3.875   9.576  11.642 -0.4474  0.0104 -0.1949
  396MOL0     C54559   3.653   9.407  11.636  0.3724 -0.2874 -0.5971
  396MOL0     C54560   3.561   9.304  11.619  1.7980  0.6552 -0.4031
  396MOL0     N54561   3.040   9.390  11.211 -0.4584 -0.1794 -0.3033
  396MOL0     N54562   3.000   9.461  11.112 -0.1274  0.7387  0.6556
  396MOL0     C54563   1.852   9.576  10.890 -0.2656 -0.1586  0.6067
  396MOL0     C54564   1.714   9.544  10.880  0.6280  0.5367 -0.5404
  396MOL0     C54565   1.270   9.626  11.013 -0.8625 -0.0890 -0.7744
  396MOL0     C54566   1.228   9.578  10.884 -0.3207 -0.3412 -1.6653
  396MOL0     C54567   1.102   9.597  10.840 -0.6590 -0.2831  0.7401
  396MOL0     C54568   1.012   9.670  10.920 -0.2605  0.0094  0.4925
  396MOL0     O54569   0.881   9.696  10.880  0.0898  0.1056  0.4643
  396MOL0     C54570   0.808   9.582  10.829  0.1854 -0.3239 -0.5078
  396MOL0     C54571   0.726   9.527  10.944 -0.1018 -0.3554  0.4011
  396MOL0     C54572   0.659   9.391  10.910 -0.1186 -0.4204  0.4542
  396MOL0     C54573   0.620   9.316  11.040  0.1355 -0.5489  0.1622
  396MOL0     C54574   0.718   9.210  11.082  0.5193  0.8067 -0.0551
  396MOL0     C54575   0.800   9.120  11.107  0.2032  0.1645  0.9803
  396MOL0     C54576   1.052   9.714  11.050  0.1838 -0.4308  0.0467
  396MOL0     C54577   1.181   9.689  11.098  0.3079  1.0069 -0.4665
  396MOL0     C54578   1.209   9.730  11.235 -0.4446 -0.2358 -0.1092
  396MOL0     H54579   1.595   9.823  11.031  1.1993  0.2091  1.7501
  396MOL0     H54580   1.842   9.866  11.045  0.1953  1.1061 -2.5431
  396MOL0     H54581   2.022   9.622  11.152 -0.9576 -3.3551 -1.5807
  396MOL0     H54582   2.163   9.731  11.118 -0.4361  0.9121  0.8600
  396MOL0     H54583   2.204   9.469  11.097  1.4242  1.4888  0.0564
  396MOL0     H54584   2.109   9.473  10.958  0.3558  0.4788 -1.2039
  396MOL0     H54585   2.297   9.489  10.844  0.6400  1.4794 -1.4380
  396MOL0     H54586   2.264   9.660  10.864 -1.8245  0.5263  1.6581
  396MOL0     H54587   2.381   9.677  11.081  1.3310 -0.5755  1.2739
  396MOL0     H54588   2.434   9.511  11.071  1.1975  0.2795 -0.3280
  396MOL0     H54589   2.515   9.721  10.867  0.7133 -0.4007 -0.2984
  396MOL0     H54590   2.563   9.552  10.865 -0.7662  0.0031 -0.2593
  396MOL0     H54591   2.620   9.753  11.095 -1.9793 -0.3232 -0.1369
  396MOL0     H54592   2.644   9.580  11.111  0.7818 -0.7785 -1.0622
  396MOL0     H54593   2.773   9.762  10.905 -0.6539 -0.2962 -0.5471
  396MOL0     H54594   2.801   9.584  10.903  0.7846 -2.6792  3.5702
  396MOL0     H54595   2.995   9.710  11.005  0.6195  0.2515  2.3140
  396MOL0     H54596   2.880   9.776  11.125 -0.0928 -0.3538  0.7702
  396MOL0     H54597   2.879   9.646  11.346  0.5184 -0.0979  0.5605
  396MOL0     H54598   2.911   9.432  11.511  1.0872  2.7961  1.2191
  396MOL0     H54599   3.053   9.517  11.519  0.1217  0.2542 -0.8802
  396MOL0     H54600   3.053   9.254  11.597 -3.0938 -0.0203 -0.5959
  396MOL0     H54601   3.037   9.224  11.425 -0.1002 -2.5675  3.2656
  396MOL0     H54602   3.250   9.317  11.367 -1.6508 -2.1115 -1.5709
  396MOL0     H54603   3.263   9.391  11.532 -0.3924  0.2802 -0.6690
  396MOL0     H54604   3.307   9.212  11.638 -1.2642  0.6913 -0.3513
  396MOL0     H54605   3.239   9.098  11.536  1.2427 -0.6183  0.2513
  396MOL0     H54606   3.517   9.332  11.281  2.2512 -0.6616 -0.8165
  396MOL0     H54607   3.809   9.462  11.265 -0.6655 -3.1587  1.7488
  396MOL0     H54608   3.695   9.610  11.278  0.2222 -0.2826  0.8574
  396MOL0     H54609   3.641   9.478  11.194  0.7084 -3.6872  0.5758
  396MOL0     H54610   3.817   9.879  11.672 -0.3564  2.5918 -1.0057
  396MOL0     H54611   4.013  10.028  11.712  1.7831 -0.7220  1.1809
  396MOL0     H54612   4.385   9.902  11.528  1.1654  0.5137  1.6082
  396MOL0     H54613   4.345  10.010  11.393 -0.9083  1.4034  0.7701
  396MOL0     H54614   4.539  10.081  11.487  0.3272 -2.6786  2.6140
  396MOL0     H54615   4.405  10.202  11.489 -0.3552  1.7441  1.8650
  396MOL0     H54616   4.382  10.143  11.743  0.9727  0.4359  1.8086
  396MOL0     H54617   4.505  10.245  11.674 -2.7647  0.4658  0.8176
  396MOL0     H54618   4.682  10.058  11.719 -0.5586 -1.9288 -2.7420
  396MOL0     H54619   4.544   9.944  11.702 -0.0698 -0.4920  0.7827
  396MOL0     H54620   4.606  10.122  11.930 -2.9648  0.8212  0.7968
  396MOL0     H54621   4.463  10.026  11.937 -1.4655 -1.3748 -1.6119
  396MOL0     H54622   4.731   9.886  11.938 -0.4848 -2.9564 -3.5502
  396MOL0     H54623   4.588   9.807  11.899  0.4377 -1.8174  1.1040
  396MOL0     H54624   4.585   9.772  12.129 -0.2378  0.2919 -1.9147
  396MOL0     H54625   4.480   9.912  12.110 -0.0503 -0.1841 -0.0293
  396MOL0     H54626   4.633   9.928  12.305  0.3257 -2.2466 -1.1121
  396MOL0     H54627   4.692  10.058  12.189 -1.7647  0.6185  1.7663
  396MOL0     H54628   4.162   9.877  11.323 -1.1394 -1.7063 -0.9176
  396MOL0     H54629   3.988   9.725  11.305  1.8964 -0.1074  0.3855
  396MOL0     H54630   3.679   9.434  11.738 -1.5310 -2.0853  0.4562
  396MOL0     H54631   3.527   9.253  11.708  0.1374 -1.1593 -1.9894
  396MOL0     H54632   1.931   9.512  10.850  1.0341  0.8332  1.5286
  396MOL0     H54633   1.677   9.454  10.832 -0.2570  1.3811 -1.5037
  396MOL0     H54634   1.294   9.538  10.808  0.5420 -1.9464 -0.1564
  396MOL0     H54635   1.078   9.576  10.736  1.1355 -3.9898  0.9092
  396MOL0     H54636   0.737   9.625  10.757 -1.8767 -1.1290  0.9495
  396MOL0     H54637   0.877   9.506  10.790  0.3290 -1.0159  1.0410
  396MOL0     H54638   0.643   9.596  10.959 -0.4044 -0.7757  0.6620
  396MOL0     H54639   0.791   9.512  11.030  1.2603  2.6782  0.0489
  396MOL0     H54640   0.563   9.415  10.864  0.8289  2.0502 -0.4324
  396MOL0     H54641   0.724   9.335  10.842  2.6948  0.6127  2.0686
  396MOL0     H54642   0.523   9.274  11.013 -0.6477  1.4471 -0.2574
  396MOL0     H54643   0.594   9.385  11.120  2.5347  0.4102  0.2122
  396MOL0     H54644   0.881   9.051  11.115  0.7001  0.5729 -0.3874
  396MOL0     H54645   0.980   9.775  11.102 -2.6045  0.0835 -3.9322
  396MOL0     H54646   1.276   9.816  11.224 -0.5751 -0.4264 -3.5992
  396MOL0     H54647   1.129   9.772  11.296 -0.2980 -1.0393  0.6565
  396MOL0     H54648   1.257   9.646  11.287 -0.7737 -0.0040  0.5813
  397MOL0     O54649   1.126   7.118   6.697  0.2545 -0.8614 -0.5849
  397MOL0     C54650   1.105   7.170   6.810  0.3239 -1.0425 -0.3662
  397MOL0     O54651   1.186   7.167   6.921 -0.2120  0.6574 -0.1665
  397MOL0     C54652   1.277   7.069   6.929 -0.2047  0.1726  0.3215
  397MOL0     C54653   1.413   7.097   6.960 -0.2895 -0.4304 -0.5817
  397MOL0     C54654   1.507   7.002   6.990  0.7371  0.7609  0.4006
  397MOL0     C54655   1.472   6.865   6.981  0.8481  0.1679 -0.5571
  397MOL0     O54656   1.564   6.764   7.017  0.2945  0.3788  0.2096
  397MOL0     C54657   1.523   6.622   7.032  0.2620  1.1976 -0.4000
  397MOL0     C54658   1.643   6.543   7.095 -0.2222 -0.8947  1.3174
  397MOL0     C54659   1.759   6.523   6.993  0.4409 -0.0943 -0.3060
  397MOL0     C54660   1.890   6.450   7.049 -0.5484  0.2226 -0.7030
  397MOL0     C54661   1.981   6.437   6.935  0.6027 -0.3475  0.6327
  397MOL0     C54662   2.114   6.358   6.968 -0.6420 -0.6173 -0.0767
  397MOL0     C54663   2.193   6.345   6.843 -0.4705  0.5337  0.0060
  397MOL0     C54664   2.278   6.226   6.860  0.5465  0.5541 -0.0094
  397MOL0     N54665   2.370   6.219   6.747 -0.4812  0.0743 -0.2366
  397MOL0     C54666   2.374   6.109   6.657  0.1616 -1.0681  0.8772
  397MOL0     C54667   2.482   6.123   6.576 -1.0870  0.0850  0.7874
  397MOL0     C54668   2.549   6.036   6.475  0.0693  0.7569 -0.1069
  397MOL0     C54669   2.703   6.028   6.491 -0.8077  0.2324 -0.0688
  397MOL0     C54670   2.758   5.917   6.406 -0.1314 -0.0232 -0.1818
  397MOL0     C54671   2.903   5.873   6.416  0.1291  0.2897 -0.1082
  397MOL0     O54672   2.923   5.785   6.303  0.0790 -0.2233  0.2416
  397MOL0     C54673   3.052   5.765   6.269 -0.5807  0.2186 -0.4848
  397MOL0     C54674   3.077   5.755   6.137 -0.0294  0.0932 -0.1539
  397MOL0     C54675   3.210   5.742   6.079  0.0482 -0.0310  0.0668
  397MOL0     C54676   3.226   5.751   5.930  0.4394 -0.1961  0.3129
  397MOL0     C54677   3.321   5.726   6.167 -0.1638 -0.8091  0.5010
  397MOL0     C54678   3.466   5.708   6.127 -0.5205 -0.1656 -0.8758
  397MOL0     O54679   3.561   5.690   6.231  0.4410 -0.1902 -0.0675
  397MOL0     C54680   3.695   5.661   6.204  0.2662  0.1124  0.1412
  397MOL0     C54681   3.762   5.602   6.318  0.9506  0.3587  0.4097
  397MOL0     C54682   3.897   5.569   6.296 -0.2925  0.5602 -0.8734
  397MOL0     C54683   3.967   5.580   6.171 -0.1948  0.2085 -0.4710
  397MOL0     O54684   4.095   5.546   6.154  0.1050 -0.1376 -0.0386
  397MOL0     C54685   4.168   5.480   6.264  0.6507  0.1916 -0.5773
  397MOL0     C54686   4.309   5.463   6.207 -0.6407  0.0780  0.2026
  397MOL0     C54687   4.399   5.397   6.308 -0.1694  0.1288  0.0788
  397MOL0     C54688   4.537   5.359   6.252  0.1934  0.6237  0.3789
  397MOL0     C54689   4.629   5.308   6.373  0.1627 -0.4282  0.9260
  397MOL0     C54690   4.773   5.317   6.318 -0.3192  0.8699 -0.5055
  397MOL0     C54691   4.883   5.273   6.417  0.4484 -0.7941 -0.5328
  397MOL0     C54692   5.016   5.242   6.343 -0.2692  0.1302  0.9094
  397MOL0    Cl54693   5.053   5.374   6.229  0.1729  0.0928 -0.1335
  397MOL0     C54694   3.900   5.632   6.067 -0.7536 -0.5013  0.0304
  397MOL0     C54695   3.765   5.667   6.082  0.0771 -0.3584  0.1419
  397MOL0     O54696   3.486   5.693   6.008  0.0941  0.0456  0.6664
  397MOL0     C54697   3.292   5.720   6.300 -0.2895  0.0734 -0.3122
  397MOL0     C54698   3.160   5.737   6.352 -0.0584  0.5600 -0.2563
  397MOL0     N54699   2.539   6.240   6.628 -0.1227  1.0002  0.3754
  397MOL0     N54700   2.479   6.299   6.720  0.1474  0.0028 -0.1042
  397MOL0     C54701   1.332   6.830   6.944  0.4548 -0.2660  1.3689
  397MOL0     C54702   1.239   6.933   6.909  0.0403 -0.4408 -0.5791
  397MOL0     C54703   0.980   7.255   6.828  0.3409  0.9789  0.6391
  397MOL0     C54704   0.961   7.310   6.955  0.1815  0.2053 -0.1768
  397MOL0     C54705   0.846   7.383   6.988  0.2650  0.1623 -0.2363
  397MOL0     C54706   0.740   7.403   6.899 -1.1248  0.8286 -0.1677
  397MOL0     O54707   0.642   7.494   6.935 -0.3848  0.3898 -0.3169
  397MOL0     C54708   0.554   7.542   6.831  0.2101  0.6586  0.3077
  397MOL0     C54709   0.614   7.619   6.711  0.3458 -0.5736 -0.7093
  397MOL0     C54710   0.531   7.603   6.585 -0.0093  0.4681 -0.4322
  397MOL0     C54711   0.541   7.476   6.495 -0.3843  1.1325 -0.6754
  397MOL0     C54712   0.665   7.461   6.416 -0.2788 -0.8082 -0.3307
  397MOL0     C54713   0.772   7.449   6.359  0.7760 -0.0568 -0.0345
  397MOL0     C54714   0.754   7.336   6.778  0.3458  1.3392 -0.7978
  397MOL0     C54715   0.866   7.255   6.742  0.2367  0.1092  0.6326
  397MOL0     C54716   0.862   7.192   6.606  0.0948 -0.8138 -0.3402
  397MOL0     H54717   1.440   7.201   6.977  1.7192 -0.7082 -1.8053
  397MOL0     H54718   1.602   7.037   7.027  1.3066 -0.1066 -0.2054
  397MOL0     H54719   1.483   6.584   6.938 -2.1091  0.2478  0.8888
  397MOL0     H54720   1.443   6.611   7.107  0.4775  0.8918 -0.2081
  397MOL0     H54721   1.687   6.601   7.176 -0.2355  2.5829 -0.9743
  397MOL0     H54722   1.620   6.439   7.119  1.2005 -2.5098 -3.2274
  397MOL0     H54723   1.722   6.465   6.908 -2.5443 -1.7151  1.9493
  397MOL0     H54724   1.794   6.621   6.957 -1.1105  0.2900 -0.8118
  397MOL0     H54725   1.922   6.506   7.137 -5.9703  1.9783  0.5525
  397MOL0     H54726   1.872   6.346   7.079 -3.7123 -0.0181 -2.9816
  397MOL0     H54727   2.007   6.537   6.900  0.0738 -0.1639  0.7475
  397MOL0     H54728   1.924   6.378   6.862  0.3392 -0.1613  0.6854
  397MOL0     H54729   2.161   6.409   7.052 -0.0534 -0.1631 -0.6725
  397MOL0     H54730   2.087   6.258   7.005  0.5487 -0.7109  0.6086
  397MOL0     H54731   2.251   6.437   6.830 -0.5203  0.6387  0.5101
  397MOL0     H54732   2.130   6.338   6.754 -0.6945  3.9158 -0.2345
  397MOL0     H54733   2.355   6.241   6.936  1.7622  3.0807 -1.6108
  397MOL0     H54734   2.215   6.138   6.875 -2.0333  2.1518 -0.8321
  397MOL0     H54735   2.301   6.030   6.643  0.4659 -1.4593  1.4662
  397MOL0     H54736   2.527   6.087   6.381 -1.3331  3.6031  1.6323
  397MOL0     H54737   2.499   5.939   6.485 -0.0633  0.9349  1.0724
  397MOL0     H54738   2.746   6.124   6.459  0.7000 -0.1054  0.8608
  397MOL0     H54739   2.731   6.005   6.594  0.7708  1.0478 -0.2871
  397MOL0     H54740   2.706   5.825   6.433  1.0188 -0.8085 -0.5474
  397MOL0     H54741   2.740   5.941   6.301 -1.5449  0.1340  0.0813
  397MOL0     H54742   2.977   5.954   6.416  1.3919 -0.8156 -1.0943
  397MOL0     H54743   2.908   5.820   6.511 -2.3816  2.2972  1.2283
  397MOL0     H54744   2.993   5.754   6.068 -0.9667  2.9555  0.8060
  397MOL0     H54745   3.290   5.678   5.879  0.8411  0.1144  0.3657
  397MOL0     H54746   3.271   5.850   5.912 -1.0133  0.2040 -1.3972
  397MOL0     H54747   3.133   5.758   5.873  0.4577  0.7958  0.3893
  397MOL0     H54748   3.707   5.575   6.407 -1.9857  0.2294 -1.2917
  397MOL0     H54749   3.946   5.527   6.384  0.0761 -0.4284 -1.5381
  397MOL0     H54750   4.179   5.537   6.357 -0.4473  0.9034 -0.8619
  397MOL0     H54751   4.118   5.385   6.284  0.8859 -0.4120 -2.6888
  397MOL0     H54752   4.295   5.398   6.120 -1.5977 -0.4959  0.7696
  397MOL0     H54753   4.350   5.561   6.179 -1.8081  0.3990 -0.4459
  397MOL0     H54754   4.352   5.308   6.350  0.6046 -0.5922 -0.5511
  397MOL0     H54755   4.418   5.473   6.384  0.4009  3.4147 -3.0507
  397MOL0     H54756   4.570   5.451   6.203 -0.4973 -0.0608 -1.4508
  397MOL0     H54757   4.522   5.280   6.179 -0.7363  1.9181 -0.8808
  397MOL0     H54758   4.605   5.355   6.469 -0.0876 -1.7665  1.5527
  397MOL0     H54759   4.594   5.205   6.390  0.9498 -0.8965 -0.2133
  397MOL0     H54760   4.801   5.414   6.278  0.8287  0.8392  0.1914
  397MOL0     H54761   4.782   5.243   6.238  0.7120  1.2307 -0.7314
  397MOL0     H54762   4.854   5.189   6.481 -2.2423 -0.7300 -1.5698
  397MOL0     H54763   4.893   5.358   6.485 -3.0153 -1.1992  0.6594
  397MOL0     H54764   5.005   5.144   6.295 -5.0741  0.8177  0.1126
  397MOL0     H54765   5.096   5.237   6.418  0.3934 -0.2534  0.1832
  397MOL0     H54766   3.936   5.649   5.966 -2.7211  2.3693 -0.3174
  397MOL0     H54767   3.717   5.722   6.002 -1.1940  1.1327  1.8544
  397MOL0     H54768   3.362   5.694   6.379 -3.1074  0.2671  2.4466
  397MOL0     H54769   3.137   5.724   6.457  1.6599  3.4668  0.6085
  397MOL0     H54770   1.297   6.727   6.942  1.2048 -0.5988 -2.6075
  397MOL0     H54771   1.139   6.894   6.896 -0.6681  0.3752  1.8421
  397MOL0     H54772   1.047   7.313   7.021 -0.7518 -0.5452  1.1173
  397MOL0     H54773   0.846   7.421   7.090  1.1515  0.6734 -0.4185
  397MOL0     H54774   0.513   7.448   6.794  2.2736  0.9783 -3.2092
  397MOL0     H54775   0.473   7.592   6.884 -0.5996 -1.5736  1.2935
  397MOL0     H54776   0.719   7.590   6.697  0.0678 -1.6479 -0.6130
  397MOL0     H54777   0.601   7.722   6.746 -3.7004 -2.1596  3.4966
  397MOL0     H54778   0.425   7.613   6.611  0.0695 -1.1985  0.6298
  397MOL0     H54779   0.558   7.686   6.518  0.1970 -2.1785 -3.9104
  397MOL0     H54780   0.459   7.494   6.425 -0.6708 -2.9714 -1.6560
  397MOL0     H54781   0.512   7.387   6.552 -2.9696  3.1163  1.3926
  397MOL0     H54782   0.858   7.431   6.297 -2.4629 -0.3196 -5.0433
  397MOL0     H54783   0.681   7.343   6.698  0.1104  0.8809 -0.6276
  397MOL0     H54784   0.905   7.091   6.612  1.3146 -0.2784  0.2521
  397MOL0     H54785   0.758   7.175   6.576 -0.3838  1.1330  0.0633
  397MOL0     H54786   0.925   7.249   6.537  0.4739 -1.7432 -0.7826
  398MOL0     O54787   1.744   1.335   0.957 -0.1344  0.6930 -0.4082
  398MOL0     C54788   1.787   1.314   0.849  0.0185 -0.6323  0.2017
  398MOL0     O54789   1.920   1.327   0.825  0.8107  0.2944  0.6025
  398MOL0     C54790   2.016   1.311   0.923 -0.2073  0.2102  0.5816
  398MOL0     C54791   2.041   1.188   0.988  0.4974  1.2560 -0.0817
  398MOL0     C54792   2.133   1.177   1.093 -0.2583  0.0569  1.2492
  398MOL0     C54793   2.199   1.288   1.129 -0.8355 -0.2381  0.7555
  398MOL0     O54794   2.302   1.289   1.217 -0.0393  0.0108 -0.5192
  398MOL0     C54795   2.281   1.301   1.358 -1.3382  0.4895  1.1044
  398MOL0     C54796   2.420   1.334   1.430 -0.1714 -0.4317 -0.5113
  398MOL0     C54797   2.534   1.231   1.392  0.6437 -0.6322  0.4971
  398MOL0     C54798   2.502   1.085   1.430 -0.1054  0.4635  0.2861
  398MOL0     C54799   2.623   0.994   1.422 -0.4435  0.7840  0.0899
  398MOL0     C54800   2.601   0.857   1.476  0.0499  0.2028 -0.0116
  398MOL0     C54801   2.715   0.758   1.442  0.4458 -0.8305  0.7690
  398MOL0     C54802   2.703   0.633   1.519  1.2687  0.2157 -0.4197
  398MOL0     N54803   2.803   0.532   1.466  0.2498 -0.9933 -0.0742
  398MOL0     C54804   2.936   0.558   1.438 -0.9383  0.5583  0.5531
  398MOL0     C54805   2.996   0.440   1.390 -0.2590 -0.3647  0.0900
  398MOL0     C54806   3.129   0.431   1.332 -0.4351  0.1103 -0.0215
  398MOL0     C54807   3.176   0.290   1.351  0.2151 -0.0435 -0.2298
  398MOL0     C54808   3.308   0.283   1.288  0.5370 -0.0027  0.1802
  398MOL0     C54809   3.369   0.144   1.308  0.7287 -0.2209 -0.2392
  398MOL0     O54810   3.481   0.132   1.218  0.2705  0.5498  0.2915
  398MOL0     C54811   3.608   0.141   1.268 -0.5862  0.1524  0.3664
  398MOL0     C54812   3.712   0.111   1.177  0.7350  0.1828  0.5443
  398MOL0     C54813   3.845   0.129   1.212 -0.4257  0.1633  0.4249
  398MOL0     C54814   3.944   0.128   1.087 -0.0477 -0.4236  0.2908
  398MOL0     C54815   3.878   0.193   1.336 -0.1985 -0.1211  0.2344
  398MOL0     C54816   4.017   0.216   1.378 -0.2805 -0.1255  0.8202
  398MOL0     O54817   4.128   0.172   1.302  0.1999  0.3703  0.1659
  398MOL0     C54818   4.258   0.168   1.351  0.0435 -0.0339  0.1066
  398MOL0     C54819   4.285   0.150   1.485 -0.8303 -0.5035  0.3188
  398MOL0     C54820   4.420   0.160   1.527 -0.6385  0.1223 -0.6384
  398MOL0     C54821   4.529   0.169   1.433 -0.2977  0.3529 -0.1166
  398MOL0     O54822   4.665   0.180   1.474 -0.1052 -0.5842  0.8584
  398MOL0     C54823   4.762   0.242   1.391  0.4003 -0.0323  0.2541
  398MOL0     C54824   4.853   0.326   1.488 -0.0707 -0.4816 -0.1533
  398MOL0     C54825   5.003   0.326   1.444  0.1955  0.1524 -0.6861
  398MOL0     C54826   5.106   0.371   1.563  0.2285  0.1611 -0.2428
  398MOL0     C54827   5.249   0.385   1.505  0.3447  0.5524 -0.5366
  398MOL0     C54828   5.304   0.245   1.484 -0.3486  1.0763 -0.3186
  398MOL0     C54829   5.454   0.254   1.446  0.9872 -0.7022  0.0882
  398MOL0     C54830   5.480   0.285   1.292 -0.1350  0.2283  0.5915
  398MOL0    Cl54831   5.460   0.139   1.180 -0.3228  0.0760 -0.2149
  398MOL0     C54832   4.495   0.153   1.296 -0.6132 -0.5277 -1.0429
  398MOL0     C54833   4.359   0.160   1.257 -0.3458  0.0116  0.1029
  398MOL0     O54834   4.032   0.282   1.481  0.9281  0.7205 -0.1369
  398MOL0     C54835   3.775   0.223   1.431 -0.6257 -0.3667  0.7558
  398MOL0     C54836   3.646   0.200   1.391 -0.2812  0.0185 -0.0581
  398MOL0     N54837   2.888   0.348   1.405  0.4743  1.1893 -0.0953
  398MOL0     N54838   2.776   0.406   1.444 -0.1846  0.1441 -0.0149
  398MOL0     C54839   2.176   1.411   1.068 -0.0586 -0.0506 -0.2163
  398MOL0     C54840   2.089   1.422   0.960  0.1405  0.6333 -0.5146
  398MOL0     C54841   1.702   1.296   0.727 -0.0006 -0.2216 -0.1602
  398MOL0     C54842   1.749   1.210   0.628 -0.3008 -0.3392  0.8128
  398MOL0     C54843   1.659   1.168   0.529 -0.4927 -0.3371 -0.3280
  398MOL0     C54844   1.528   1.218   0.522 -0.4851 -0.5808  0.1099
  398MOL0     O54845   1.449   1.169   0.424  0.3496 -0.4382 -0.5019
  398MOL0     C54846   1.310   1.184   0.440 -0.1380 -0.4240  0.2487
  398MOL0     C54847   1.247   1.306   0.364  0.0529  0.0206 -0.5884
  398MOL0     C54848   1.268   1.311   0.214  0.1212  0.6979 -0.3582
  398MOL0     C54849   1.228   1.179   0.147  0.2270  1.1208 -0.2167
  398MOL0     C54850   1.087   1.142   0.163  0.1994 -0.1630 -0.1260
  398MOL0     C54851   0.969   1.114   0.162  0.3135 -0.2208 -0.0231
  398MOL0     C54852   1.485   1.302   0.624  0.2630  0.3429 -0.0418
  398MOL0     C54853   1.568   1.338   0.724  0.3101  0.0126 -0.6947
  398MOL0     C54854   1.511   1.443   0.811 -0.6120 -0.3709  0.4928
  398MOL0     H54855   1.994   1.098   0.950  1.4352  0.5136  0.4507
  398MOL0     H54856   2.161   1.075   1.119 -0.9267 -0.0945  1.3981
  398MOL0     H54857   2.249   1.200   1.386 -1.6741  0.1813 -0.2817
  398MOL0     H54858   2.201   1.374   1.366 -1.5746  0.6905 -1.8148
  398MOL0     H54859   2.445   1.438   1.407  1.4598 -0.5957  0.3391
  398MOL0     H54860   2.408   1.336   1.539  0.2618  1.3980 -0.4556
  398MOL0     H54861   2.568   1.242   1.289  1.4189 -0.2597  0.7848
  398MOL0     H54862   2.629   1.250   1.444  0.9286 -0.3372 -0.1222
  398MOL0     H54863   2.460   1.085   1.531  0.3830  1.8532  0.5052
  398MOL0     H54864   2.422   1.058   1.360  2.0023  0.4032 -2.2570
  398MOL0     H54865   2.703   1.038   1.483 -0.1432 -2.7615  2.5288
  398MOL0     H54866   2.656   0.997   1.318  0.2957 -2.0787  0.1673
  398MOL0     H54867   2.604   0.861   1.585 -2.2744 -2.1425  0.2652
  398MOL0     H54868   2.502   0.817   1.451 -1.3689  2.5023  1.5092
  398MOL0     H54869   2.813   0.804   1.457  2.2143 -3.2213 -2.1981
  398MOL0     H54870   2.707   0.737   1.335  2.9008 -1.8247  0.7188
  398MOL0     H54871   2.728   0.679   1.615  0.9425  0.4060 -0.4258
  398MOL0     H54872   2.608   0.584   1.540  1.2570  0.3935 -0.0472
  398MOL0     H54873   2.992   0.650   1.452  0.5693 -0.6090  3.0641
  398MOL0     H54874   3.194   0.500   1.387  2.0723 -0.7385 -1.7334
  398MOL0     H54875   3.128   0.480   1.234 -3.7205  1.8034  0.7170
  398MOL0     H54876   3.190   0.281   1.459  0.7759  0.0927 -0.2915
  398MOL0     H54877   3.106   0.223   1.300 -2.4854  2.6290 -0.3398
  398MOL0     H54878   3.307   0.306   1.181 -2.3081  0.6571  0.2893
  398MOL0     H54879   3.377   0.349   1.343  1.4614  0.7855 -1.8133
  398MOL0     H54880   3.384   0.113   1.411 -1.6428 -0.6213  0.0454
  398MOL0     H54881   3.290   0.080   1.266  0.0482 -0.5947  1.5552
  398MOL0     H54882   3.680   0.077   1.079 -0.3724 -2.2351  1.6491
  398MOL0     H54883   4.029   0.059   1.092 -1.0280 -1.8244 -1.0793
  398MOL0     H54884   3.986   0.227   1.072 -0.0668 -0.3410  0.7821
  398MOL0     H54885   3.900   0.100   0.990  1.4771 -1.4684 -0.1426
  398MOL0     H54886   4.208   0.153   1.562 -0.8009  2.9823  0.3466
  398MOL0     H54887   4.441   0.155   1.634 -0.9319 -1.8203 -0.6399
  398MOL0     H54888   4.812   0.167   1.329  1.1100  1.7561 -1.4577
  398MOL0     H54889   4.712   0.311   1.322  0.3285 -0.0333  0.3047
  398MOL0     H54890   4.813   0.427   1.486  0.8488 -0.0871  0.8986
  398MOL0     H54891   4.852   0.293   1.592  1.5532  1.8648  0.6689
  398MOL0     H54892   5.014   0.398   1.362  0.9031  0.7318 -0.1018
  398MOL0     H54893   5.022   0.224   1.410 -0.8063 -1.0449  2.0649
  398MOL0     H54894   5.095   0.300   1.646 -0.8451 -1.5223 -1.7529
  398MOL0     H54895   5.085   0.470   1.603  1.6051 -0.1637  1.4306
  398MOL0     H54896   5.244   0.432   1.407 -0.6855 -0.8599 -1.2017
  398MOL0     H54897   5.321   0.439   1.567  1.8415  0.1471 -1.8432
  398MOL0     H54898   5.252   0.198   1.401 -1.1706  1.7473 -0.2024
  398MOL0     H54899   5.299   0.189   1.578  2.8561  1.8009  0.4252
  398MOL0     H54900   5.505   0.158   1.457 -2.8292 -3.0668 -0.9361
  398MOL0     H54901   5.495   0.334   1.510 -0.2436  1.3302 -1.5206
  398MOL0     H54902   5.580   0.324   1.273 -0.2365 -0.1567 -0.9284
  398MOL0     H54903   5.414   0.369   1.269  2.0510  1.9356  0.3069
  398MOL0     H54904   4.575   0.148   1.223  0.2818 -0.0167 -0.1186
  398MOL0     H54905   4.338   0.173   1.151  3.1009  1.6981 -0.5132
  398MOL0     H54906   3.789   0.261   1.532 -4.1675  1.1761  0.8059
  398MOL0     H54907   3.577   0.231   1.469  0.6124 -1.5696  1.4185
  398MOL0     H54908   2.239   1.492   1.101  1.0685 -0.2729 -1.7199
  398MOL0     H54909   2.062   1.517   0.914 -3.3844  0.1603  0.2900
  398MOL0     H54910   1.850   1.172   0.627  0.8889  2.5327 -1.0304
  398MOL0     H54911   1.685   1.101   0.448  0.6402  0.2763 -0.5042
  398MOL0     H54912   1.269   1.096   0.390  0.4009  0.0620 -1.0887
  398MOL0     H54913   1.275   1.198   0.543 -2.6438 -2.2620 -0.2784
  398MOL0     H54914   1.289   1.397   0.409 -1.6785 -0.0279  1.2627
  398MOL0     H54915   1.139   1.293   0.373  0.1619 -1.8975 -1.5518
  398MOL0     H54916   1.214   1.393   0.164 -0.1141  0.0019 -1.2553
  398MOL0     H54917   1.370   1.344   0.192  0.5837 -1.1096 -1.0787
  398MOL0     H54918   1.293   1.096   0.175 -1.3034  0.0491  0.3477
  398MOL0     H54919   1.241   1.189   0.039 -3.3919 -1.6332 -1.1185
  398MOL0     H54920   0.862   1.106   0.160  0.1793 -2.4326  4.3234
  398MOL0     H54921   1.386   1.346   0.627  0.3405  0.7422 -2.1324
  398MOL0     H54922   1.433   1.501   0.761  1.1440  0.3161 -1.6107
  398MOL0     H54923   1.474   1.391   0.900 -0.8096 -1.3002 -0.1187
  398MOL0     H54924   1.588   1.519   0.828 -3.4306  3.2433 -1.3471
  399MOL0     O54925   2.749   3.897  10.661 -0.5205 -0.0889  0.0957
  399MOL0     C54926   2.703   3.957  10.564 -0.8835 -1.0835  0.2004
  399MOL0     O54927   2.778   4.013  10.462 -0.7071 -0.4230  0.1862
  399MOL0     C54928   2.916   4.008  10.464 -0.4978  0.3454 -0.0499
  399MOL0     C54929   2.990   4.000  10.583 -0.0391 -0.6316  0.0196
  399MOL0     C54930   3.133   3.998  10.570  0.0026 -0.3332  0.0061
  399MOL0     C54931   3.208   3.996  10.447  0.0701 -0.0404 -0.0162
  399MOL0     O54932   3.349   3.986  10.434  0.0422  0.2852 -0.0649
  399MOL0     C54933   3.428   3.946  10.556  0.0666 -0.0549 -0.3519
  399MOL0     C54934   3.570   3.913  10.496 -0.3567  0.5304 -0.3741
  399MOL0     C54935   3.643   4.042  10.485 -0.3176  0.1023 -0.5194
  399MOL0     C54936   3.783   4.037  10.418 -1.1979  0.3771 -0.0849
  399MOL0     C54937   3.875   4.153  10.444  0.1220  0.3246 -0.7082
  399MOL0     C54938   4.025   4.118  10.453 -0.6134  0.2213 -0.6760
  399MOL0     C54939   4.118   4.241  10.466  0.3919 -0.4304  0.2467
  399MOL0     C54940   4.261   4.204  10.488 -0.9869  0.3927  0.4940
  399MOL0     N54941   4.346   4.322  10.497  1.2136 -0.7035 -0.1735
  399MOL0     C54942   4.359   4.410  10.393 -0.6266 -0.3330  0.6357
  399MOL0     C54943   4.433   4.508  10.451  0.4839 -0.7620 -0.1645
  399MOL0     C54944   4.465   4.634  10.367 -0.0559 -0.3686  0.5068
  399MOL0     C54945   4.614   4.657  10.339  0.0446 -0.0252 -0.5794
  399MOL0     C54946   4.687   4.700  10.477 -0.2934 -0.1369  0.0345
  399MOL0     C54947   4.762   4.579  10.529  0.2389  0.1687 -0.4740
  399MOL0     O54948   4.858   4.526  10.435  0.4821  1.3134 -0.6905
  399MOL0     C54949   4.976   4.582  10.417  0.3720 -0.0366  0.3339
  399MOL0     C54950   5.023   4.679  10.502  0.2034  0.3334 -0.3773
  399MOL0     C54951   5.145   4.742  10.485  0.0447 -1.0311  0.1933
  399MOL0     C54952   5.175   4.860  10.574 -0.1119 -0.7772  0.3029
  399MOL0     C54953   5.238   4.695  10.380  0.0249 -0.1763 -0.2667
  399MOL0     C54954   5.372   4.754  10.356  1.0125 -0.2804 -0.7271
  399MOL0     O54955   5.407   4.871  10.406 -0.0257  0.2291 -0.3110
  399MOL0     C54956   5.510   4.942  10.349 -0.7996 -0.3538 -0.5343
  399MOL0     C54957   5.572   4.926  10.221  0.6127  0.0958 -0.3740
  399MOL0     C54958   5.664   5.027  10.172 -1.0869 -0.6955 -0.4200
  399MOL0     C54959   5.694   5.145  10.244  0.0419  0.2040 -0.1426
  399MOL0     O54960   5.777   5.247  10.206 -0.0968  0.2161  0.2098
  399MOL0     C54961   5.858   5.234  10.085  0.6462  0.3013  0.3449
  399MOL0     C54962   5.940   5.361  10.080 -0.3673  0.2509 -0.8173
  399MOL0     C54963   6.011   5.361   9.942  0.6152  1.4925 -0.7264
  399MOL0     C54964   6.104   5.482   9.922  0.1737 -0.1482 -0.2131
  399MOL0     C54965   6.146   5.499   9.771  0.1808 -0.3146 -0.2051
  399MOL0     C54966   6.231   5.620   9.746 -0.9644 -0.1769 -0.3207
  399MOL0     C54967   6.279   5.621   9.598 -0.3159 -0.0389  0.3591
  399MOL0     C54968   6.397   5.535   9.566  0.4131 -0.6886 -0.3347
  399MOL0    Cl54969   6.550   5.599   9.631  0.1420  0.2111 -0.0020
  399MOL0     C54970   5.638   5.157  10.372 -0.3042  0.4784  0.7909
  399MOL0     C54971   5.550   5.058  10.419 -0.6227  0.3595  0.4225
  399MOL0     O54972   5.450   4.679  10.298  0.8064 -0.0973 -0.3576
  399MOL0     C54973   5.190   4.594  10.308 -0.0030  0.6586 -0.6488
  399MOL0     C54974   5.064   4.541  10.322  0.1794 -0.2674  0.3433
  399MOL0     N54975   4.457   4.491  10.581  0.5052 -0.0581 -0.0603
  399MOL0     N54976   4.410   4.369  10.607  0.0817  0.2446 -0.0562
  399MOL0     C54977   3.131   4.024  10.337 -0.2660  0.3911 -0.3834
  399MOL0     C54978   2.990   4.028  10.342 -0.0556 -0.8017  0.2161
  399MOL0     C54979   2.559   3.980  10.540 -0.1429 -0.3744 -0.1367
  399MOL0     C54980   2.513   4.101  10.488  0.2594  0.5486  0.0417
  399MOL0     C54981   2.382   4.127  10.463 -0.0878 -0.0816 -0.5278
  399MOL0     C54982   2.282   4.023  10.496  0.4729  0.0285  0.5050
  399MOL0     O54983   2.144   4.041  10.486 -0.3627  0.4593  0.0776
  399MOL0     C54984   2.097   4.182  10.504 -0.3741 -0.3086  0.2805
  399MOL0     C54985   1.947   4.188  10.543 -0.4610 -0.3399  0.7405
  399MOL0     C54986   1.850   4.141  10.427  0.6373 -0.3170 -0.1383
  399MOL0     C54987   1.791   4.251  10.339  0.1481  0.2523 -0.6760
  399MOL0     C54988   1.723   4.208  10.218 -0.4645  0.3991 -0.0674
  399MOL0     C54989   1.664   4.169  10.123 -0.8093  0.8777  0.8869
  399MOL0     C54990   2.330   3.895  10.523  0.1482 -0.0227 -0.1748
  399MOL0     C54991   2.458   3.878  10.564  0.0674 -0.0684  0.3387
  399MOL0     C54992   2.503   3.740  10.620 -0.3411  0.4237 -0.0290
  399MOL0     H54993   2.963   4.012  10.688  2.7825  0.5465  0.6846
  399MOL0     H54994   3.191   4.012  10.660  1.8184  1.6559 -1.3505
  399MOL0     H54995   3.373   3.861  10.596 -2.0407  1.4744  0.2035
  399MOL0     H54996   3.432   4.026  10.631  1.7333 -2.1970  2.0260
  399MOL0     H54997   3.617   3.847  10.569 -1.3094  2.4625  2.1488
  399MOL0     H54998   3.558   3.857  10.403 -0.2644  0.9565 -0.6454
  399MOL0     H54999   3.592   4.117  10.424  0.0749  0.7569 -0.0506
  399MOL0     H55000   3.646   4.080  10.587 -2.1102  0.6233 -0.6296
  399MOL0     H55001   3.841   3.946  10.436  0.4112  1.4131  0.2044
  399MOL0     H55002   3.767   4.034  10.310  2.6838 -1.6538 -0.7835
  399MOL0     H55003   3.866   4.195  10.545 -0.6029 -1.9449  0.2218
  399MOL0     H55004   3.853   4.223  10.363 -2.5975 -2.2929 -2.4068
  399MOL0     H55005   4.041   4.045  10.533 -2.5085  1.7286  1.2122
  399MOL0     H55006   4.058   4.071  10.360  1.1894 -0.6955  0.3702
  399MOL0     H55007   4.077   4.310  10.541  0.8409  0.3240 -0.1858
  399MOL0     H55008   4.122   4.292  10.369  2.3044 -0.5796  0.2171
  399MOL0     H55009   4.271   4.165  10.590 -0.5209 -1.5675 -0.2507
  399MOL0     H55010   4.307   4.134  10.418  1.8844  2.5699  0.0373
  399MOL0     H55011   4.312   4.422  10.296  1.9555  1.7215 -0.4760
  399MOL0     H55012   4.424   4.719  10.421 -0.1544 -0.2838  0.3024
  399MOL0     H55013   4.413   4.620  10.271  0.6562 -0.2486  0.0900
  399MOL0     H55014   4.662   4.580  10.277 -0.5510  0.2146 -1.3514
  399MOL0     H55015   4.625   4.741  10.270  2.4086 -0.3244 -0.6602
  399MOL0     H55016   4.755   4.782  10.450 -1.1695  1.4321  2.3433
  399MOL0     H55017   4.618   4.739  10.552 -0.9394 -0.5319 -0.3529
  399MOL0     H55018   4.800   4.607  10.628  2.5015 -0.0564 -1.2261
  399MOL0     H55019   4.688   4.505  10.561 -1.0217  2.9086  3.9214
  399MOL0     H55020   4.971   4.706  10.594  0.0231 -0.1516 -0.3316
  399MOL0     H55021   5.269   4.835  10.624 -0.9053 -0.5025  2.0150
  399MOL0     H55022   5.100   4.877  10.652 -1.9289 -2.7507 -0.8872
  399MOL0     H55023   5.198   4.949  10.515  4.6963  0.3716  3.3223
  399MOL0     H55024   5.538   4.849  10.152  1.3585 -1.4519  0.9046
  399MOL0     H55025   5.703   5.021  10.071 -0.8038 -2.0913 -0.2451
  399MOL0     H55026   5.934   5.155  10.088 -0.8158 -1.1522  0.2052
  399MOL0     H55027   5.802   5.223   9.992  0.7744  2.0518  0.0354
  399MOL0     H55028   5.885   5.455  10.092  1.7496  1.2123  2.8128
  399MOL0     H55029   6.019   5.362  10.155  0.4112  1.3863 -1.6048
  399MOL0     H55030   5.934   5.363   9.864 -1.2720 -1.5285  0.8218
  399MOL0     H55031   6.065   5.266   9.938 -1.3240  0.1588  1.6900
  399MOL0     H55032   6.196   5.470   9.982 -1.2129 -1.4978  1.7795
  399MOL0     H55033   6.066   5.570   9.976  1.9065  0.8752 -0.5484
  399MOL0     H55034   6.199   5.406   9.747  0.2805 -0.2212 -0.3406
  399MOL0     H55035   6.066   5.494   9.696 -0.0028  1.0667 -0.1257
  399MOL0     H55036   6.307   5.624   9.825 -0.0504 -1.5599 -1.1008
  399MOL0     H55037   6.162   5.703   9.766 -1.0387 -0.7060  1.8858
  399MOL0     H55038   6.297   5.725   9.570 -0.6677 -0.1713 -0.3692
  399MOL0     H55039   6.196   5.585   9.537 -2.0891  0.7226  2.1714
  399MOL0     H55040   6.402   5.542   9.457 -2.4220  2.8700 -0.4167
  399MOL0     H55041   6.374   5.431   9.591 -2.4239  0.5735  3.1230
  399MOL0     H55042   5.665   5.244  10.431  0.8174 -0.0138  1.0396
  399MOL0     H55043   5.507   5.084  10.515 -0.2596  1.8012  0.2228
  399MOL0     H55044   5.246   4.541  10.230 -0.1395 -0.7345  0.1598
  399MOL0     H55045   5.029   4.469  10.249  3.4548 -0.6727 -1.0119
  399MOL0     H55046   3.187   4.032  10.245  4.9635 -0.5954  2.3143
  399MOL0     H55047   2.931   4.040  10.252 -1.8309 -1.1066  1.2924
  399MOL0     H55048   2.586   4.173  10.453  1.7797 -0.4209  1.1013
  399MOL0     H55049   2.354   4.223  10.421 -0.7250 -0.4986 -1.0733
  399MOL0     H55050   2.155   4.235  10.580 -2.5542  0.5984  1.3837
  399MOL0     H55051   2.101   4.241  10.413 -1.0609  1.3109  1.2561
  399MOL0     H55052   1.911   4.290  10.559 -1.3480 -0.2753 -1.3584
  399MOL0     H55053   1.940   4.136  10.639  2.2557 -0.8357  0.7755
  399MOL0     H55054   1.898   4.061  10.370  0.6585  0.4471 -1.2392
  399MOL0     H55055   1.764   4.093  10.474 -0.8151  1.7069 -0.5845
  399MOL0     H55056   1.875   4.315  10.312  1.0109 -1.1403 -1.4027
  399MOL0     H55057   1.725   4.315  10.399  2.9345  3.7263 -0.9695
  399MOL0     H55058   1.607   4.139  10.037  0.6686 -1.7328  0.7112
  399MOL0     H55059   2.260   3.817  10.551  2.1600 -1.2625  1.8470
  399MOL0     H55060   2.601   3.715  10.579 -0.2063  0.8560  0.0301
  399MOL0     H55061   2.507   3.752  10.729  1.0953 -3.4754  0.4965
  399MOL0     H55062   2.447   3.650  10.593  0.2029  0.0487  0.0836
  400MOL0     O55063   3.179   7.035   7.274 -0.0158 -0.4883 -0.2829
  400MOL0     C55064   3.159   6.987   7.162 -0.4012 -0.3442  0.8612
  400MOL0     O55065   3.260   6.965   7.066 -0.9081  0.3260  0.1303
  400MOL0     C55066   3.388   6.987   7.094  0.8651  0.2326 -0.8100
  400MOL0     C55067   3.459   6.949   7.210  1.0581  0.8657 -0.6759
  400MOL0     C55068   3.599   6.965   7.232 -0.5715 -0.0341 -1.0994
  400MOL0     C55069   3.675   7.023   7.129  0.3347  0.0866 -0.4221
  400MOL0     O55070   3.810   7.038   7.131 -0.1720 -0.0790  0.5630
  400MOL0     C55071   3.893   6.945   7.203 -0.8484 -0.9905 -0.5207
  400MOL0     C55072   4.039   6.977   7.166 -0.3617 -0.4886  0.2574
  400MOL0     C55073   4.138   6.983   7.286 -0.0530 -0.4607  0.0437
  400MOL0     C55074   4.280   7.005   7.245 -0.0837 -0.6618 -0.1588
  400MOL0     C55075   4.356   6.975   7.381  0.2874  0.3276  0.8523
  400MOL0     C55076   4.503   7.013   7.362 -0.0610 -0.6447  1.2728
  400MOL0     C55077   4.609   6.959   7.458  0.3372  0.0096  0.7274
  400MOL0     C55078   4.753   7.006   7.425 -0.2909 -0.4780 -0.1318
  400MOL0     N55079   4.864   6.943   7.499 -0.3607 -0.3178  0.1080
  400MOL0     C55080   4.902   6.811   7.492  0.4031  0.1515 -0.5928
  400MOL0     C55081   5.009   6.791   7.575  0.5882  0.1480  0.9767
  400MOL0     C55082   5.074   6.656   7.592 -0.1559 -0.7486  0.0405
  400MOL0     C55083   5.201   6.653   7.502 -0.7837  0.0258 -0.3061
  400MOL0     C55084   5.304   6.753   7.558 -0.2587  0.1193  0.3901
  400MOL0     C55085   5.436   6.754   7.473  0.6636 -1.0551  0.4259
  400MOL0     O55086   5.395   6.795   7.342  0.1164  0.7066 -0.1952
  400MOL0     C55087   5.483   6.833   7.238  0.0260 -0.5187  0.1553
  400MOL0     C55088   5.622   6.833   7.254 -0.0017 -0.7195  0.4972
  400MOL0     C55089   5.706   6.875   7.153 -0.3143 -0.2029 -0.2255
  400MOL0     C55090   5.856   6.878   7.189  0.2675  0.3634 -0.1258
  400MOL0     C55091   5.652   6.912   7.026 -1.0111  0.4865 -0.3053
  400MOL0     C55092   5.743   6.938   6.916  0.1122  0.4248  0.5358
  400MOL0     O55093   5.862   6.879   6.912 -0.1080  1.1527  0.5249
  400MOL0     C55094   5.964   6.911   6.820 -0.3127 -0.0484  0.0303
  400MOL0     C55095   6.055   6.805   6.800  0.7215  0.1005 -0.3660
  400MOL0     C55096   6.182   6.829   6.734  0.0407 -0.2030  0.3535
  400MOL0     C55097   6.224   6.954   6.687  0.1008  0.0226 -0.1228
  400MOL0     O55098   6.340   6.999   6.628  0.4639 -0.1130  0.1677
  400MOL0     C55099   6.423   6.895   6.586 -0.5165  0.0200  0.0456
  400MOL0     C55100   6.549   6.955   6.531  0.8705 -0.5202 -0.1832
  400MOL0     C55101   6.645   6.853   6.487  0.7845 -0.4446  0.6312
  400MOL0     C55102   6.778   6.917   6.444  0.2412 -0.2315  0.0535
  400MOL0     C55103   6.871   6.959   6.563 -0.9026 -0.1149  0.7184
  400MOL0     C55104   7.005   7.026   6.515  0.0278 -0.3018 -0.1949
  400MOL0     C55105   7.085   7.059   6.644  0.7004  0.0326  0.3887
  400MOL0     C55106   7.155   6.943   6.711  0.2761  0.9067 -0.7519
  400MOL0    Cl55107   7.227   7.020   6.844 -0.0834 -0.0748 -0.2889
  400MOL0     C55108   6.131   7.061   6.706 -0.4376  0.2017 -0.0785
  400MOL0     C55109   6.006   7.042   6.775  0.2864  0.7733  0.7714
  400MOL0     O55110   5.703   7.009   6.831  0.4484  0.7563  0.8665
  400MOL0     C55111   5.510   6.918   7.013  0.8764 -0.7481 -0.1702
  400MOL0     C55112   5.432   6.871   7.116 -0.1112  0.8853 -0.1426
  400MOL0     N55113   5.039   6.921   7.622  0.6678  0.4911  0.0187
  400MOL0     N55114   4.950   7.004   7.582  0.1620  0.2531  0.1599
  400MOL0     C55115   3.607   7.050   7.010  0.5221 -0.8091 -0.7394
  400MOL0     C55116   3.471   7.041   6.992  0.1727 -0.3190 -0.2937
  400MOL0     C55117   3.024   6.935   7.144  0.3615  0.7827 -0.4834
  400MOL0     C55118   2.922   6.966   7.244  0.0784  0.1833 -0.0437
  400MOL0     C55119   2.790   6.934   7.223  0.7898 -0.9295 -0.0634
  400MOL0     C55120   2.759   6.838   7.129  0.2958 -0.5376  0.2259
  400MOL0     O55121   2.635   6.793   7.097  0.1215 -0.0310 -0.6461
  400MOL0     C55122   2.517   6.859   7.157  0.2029 -0.5601  0.8728
  400MOL0     C55123   2.401   6.766   7.136 -0.1236  0.0200 -0.5055
  400MOL0     C55124   2.270   6.847   7.090  0.2607  0.2832 -0.2332
  400MOL0     C55125   2.159   6.758   7.138 -0.1203  0.0742 -0.4351
  400MOL0     C55126   2.036   6.803   7.080 -0.1673 -0.0272  0.9302
  400MOL0     C55127   1.941   6.836   7.017 -0.3004  0.1578 -0.0787
  400MOL0     C55128   2.851   6.790   7.044 -0.6936  0.4712  0.4888
  400MOL0     C55129   2.979   6.849   7.041 -0.9386  0.6010 -0.1830
  400MOL0     C55130   3.073   6.808   6.932  0.0698 -0.5828  0.4037
  400MOL0     H55131   3.389   6.902   7.278  0.4376  0.1486 -1.7829
  400MOL0     H55132   3.641   6.936   7.327 -2.8163 -0.1446 -0.0610
  400MOL0     H55133   3.866   6.841   7.183 -0.9498 -0.8082 -1.3512
  400MOL0     H55134   3.879   6.972   7.308 -0.0052 -1.4124 -0.2873
  400MOL0     H55135   4.077   6.899   7.099  0.9075 -1.2771  1.8372
  400MOL0     H55136   4.047   7.082   7.133  2.5783 -0.2016  1.5131
  400MOL0     H55137   4.113   7.063   7.356 -1.6560  0.2354 -1.2701
  400MOL0     H55138   4.121   6.890   7.342 -0.4872  1.8325  4.1486
  400MOL0     H55139   4.300   6.936   7.163 -1.6785  0.1685 -1.3041
  400MOL0     H55140   4.304   7.105   7.210  0.4819 -0.2191  1.4027
  400MOL0     H55141   4.341   6.867   7.396  0.0685  0.0622 -1.0425
  400MOL0     H55142   4.310   7.024   7.467 -1.3085  1.0465 -0.3620
  400MOL0     H55143   4.532   6.982   7.261  1.0413 -0.1651  1.4198
  400MOL0     H55144   4.511   7.121   7.347 -1.6098 -0.8157 -1.5904
  400MOL0     H55145   4.612   6.850   7.453  3.0302 -0.0952  2.4721
  400MOL0     H55146   4.585   7.007   7.554  3.1150  1.7548  0.6581
  400MOL0     H55147   4.773   6.973   7.322  0.0357  1.4704 -0.7238
  400MOL0     H55148   4.756   7.114   7.439  2.4054 -0.4550 -0.4148
  400MOL0     H55149   4.856   6.736   7.429  1.7565 -0.8149 -0.4674
  400MOL0     H55150   5.009   6.573   7.562 -1.7448  0.1855  0.7775
  400MOL0     H55151   5.109   6.635   7.693  1.9937 -0.3928 -0.5868
  400MOL0     H55152   5.243   6.552   7.498  0.7611  0.6907 -2.2755
  400MOL0     H55153   5.173   6.674   7.399 -0.6156 -0.3761 -0.4330
  400MOL0     H55154   5.270   6.856   7.545  2.0015  0.6513 -2.7321
  400MOL0     H55155   5.335   6.736   7.661 -0.0371  3.6903  1.0567
  400MOL0     H55156   5.518   6.811   7.516 -0.1798  2.0289 -1.7418
  400MOL0     H55157   5.477   6.653   7.468  2.2285 -0.3807 -1.0601
  400MOL0     H55158   5.666   6.807   7.350 -0.4942 -0.2999  0.8501
  400MOL0     H55159   5.876   6.903   7.294  1.3687 -2.0298  0.2937
  400MOL0     H55160   5.903   6.962   7.137  1.3606 -1.2178 -1.8222
  400MOL0     H55161   5.903   6.783   7.165 -0.7595 -0.1296 -0.2340
  400MOL0     H55162   6.031   6.705   6.834  0.6198 -0.8389 -2.9535
  400MOL0     H55163   6.247   6.743   6.729  1.5470  0.7919  1.7107
  400MOL0     H55164   6.455   6.841   6.676 -0.1778 -0.1866 -0.1981
  400MOL0     H55165   6.374   6.821   6.521 -1.5786  2.0258 -1.5459
  400MOL0     H55166   6.524   7.028   6.454 -0.6101 -1.5290 -0.7083
  400MOL0     H55167   6.606   7.009   6.606  1.8765  0.2969 -1.4975
  400MOL0     H55168   6.598   6.790   6.410 -0.4791  3.5191 -2.1521
  400MOL0     H55169   6.676   6.780   6.562 -1.4162 -2.4589 -0.2861
  400MOL0     H55170   6.753   6.997   6.374  1.8111 -0.9317 -1.3833
  400MOL0     H55171   6.838   6.844   6.388  2.9256  2.4496 -0.8109
  400MOL0     H55172   6.822   7.026   6.635 -0.2466  2.6139 -1.2192
  400MOL0     H55173   6.890   6.864   6.613 -0.0678  0.7015  2.0136
  400MOL0     H55174   6.980   7.122   6.469 -3.2269  1.0792  3.8261
  400MOL0     H55175   7.073   6.956   6.466 -0.1857 -1.7598  1.5122
  400MOL0     H55176   7.012   7.100   6.713  0.3243  2.1084 -1.1329
  400MOL0     H55177   7.165   7.132   6.627  0.0609  0.6290 -0.0910
  400MOL0     H55178   7.237   6.904   6.650  0.5734  1.6449 -0.8375
  400MOL0     H55179   7.082   6.868   6.744  0.7396 -0.5689 -2.8774
  400MOL0     H55180   6.164   7.163   6.689 -0.1244 -0.2837 -2.6768
  400MOL0     H55181   5.927   7.116   6.783  1.0202  1.4846  1.6707
  400MOL0     H55182   5.473   6.952   6.916  1.2166  4.2947  1.2244
  400MOL0     H55183   5.324   6.866   7.100 -0.1767 -1.6288  0.6483
  400MOL0     H55184   3.671   7.108   6.943  0.2173 -0.9525 -1.1545
  400MOL0     H55185   3.433   7.086   6.901  0.2974  1.7396  0.6022
  400MOL0     H55186   2.953   7.005   7.340 -1.5675 -1.8841  1.3922
  400MOL0     H55187   2.712   6.963   7.293  0.4331  1.5068 -1.3394
  400MOL0     H55188   2.533   6.864   7.266  2.2147  1.1581  0.5684
  400MOL0     H55189   2.504   6.960   7.117  0.9625 -1.4042 -1.6361
  400MOL0     H55190   2.382   6.715   7.231 -0.6964  0.8158 -0.1767
  400MOL0     H55191   2.433   6.703   7.053  0.7942  1.6971 -1.4788
  400MOL0     H55192   2.257   6.942   7.143 -0.4567 -0.3012  0.6740
  400MOL0     H55193   2.263   6.863   6.982 -1.0878 -2.5750 -0.6639
  400MOL0     H55194   2.151   6.781   7.245  2.2135 -0.9650  0.0275
  400MOL0     H55195   2.187   6.653   7.127 -0.3256  0.0459 -0.6993
  400MOL0     H55196   1.845   6.860   6.977 -0.2555  0.3622 -0.0674
  400MOL0     H55197   2.813   6.723   6.967 -1.5586 -1.0138  2.1558
  400MOL0     H55198   3.019   6.744   6.861 -0.2398 -1.4696  1.4139
  400MOL0     H55199   3.120   6.887   6.872 -0.8621 -0.7974 -0.6490
  400MOL0     H55200   3.142   6.734   6.972 -0.6313 -0.7368  1.3807
  401MOL0     O55201  10.096  10.999   2.103  0.0658  0.1912  0.3790
  401MOL0     C55202  10.093  11.109   2.051 -0.4103 -0.5151 -0.2473
  401MOL0     O55203  10.186  11.215   2.079  0.7051  0.0151 -0.1342
  401MOL0     C55204  10.297  11.195   2.163  0.3392 -0.5644  0.6784
  401MOL0     C55205  10.425  11.244   2.124 -0.1610  0.3976  0.1038
  401MOL0     C55206  10.530  11.254   2.223  0.3608 -0.0792 -0.7242
  401MOL0     C55207  10.513  11.199   2.354 -1.1222  1.2836  0.4474
  401MOL0     O55208  10.602  11.212   2.460 -0.7460  0.2735 -0.0383
  401MOL0     C55209  10.703  11.317   2.446  0.3905  0.6847  0.4669
  401MOL0     C55210  10.771  11.331   2.579  0.2932 -0.4492 -0.0694
  401MOL0     C55211  10.904  11.402   2.578 -0.1419  0.0753  0.1207
  401MOL0     C55212  10.981  11.397   2.713 -0.0013 -0.4948 -0.7564
  401MOL0     C55213  11.099  11.495   2.702 -0.4363 -0.3322  0.0835
  401MOL0     C55214  11.217  11.418   2.637 -0.4439 -0.3589 -0.3687
  401MOL0     C55215  11.354  11.498   2.633  0.4403 -0.0660  0.2491
  401MOL0     C55216  11.451  11.441   2.533  0.2212  0.2268  0.3146
  401MOL0     N55217  11.566  11.528   2.543  0.5935  0.2426  0.4555
  401MOL0     C55218  11.585  11.640   2.467 -0.0107 -0.0453  0.2822
  401MOL0     C55219  11.700  11.702   2.513 -0.2156  0.0709  0.3712
  401MOL0     C55220  11.771  11.824   2.454 -0.5767 -0.1179 -0.7731
  401MOL0     C55221  11.902  11.850   2.519  0.2594 -0.1331 -0.3925
  401MOL0     C55222  11.960  11.970   2.450  0.5742 -0.9340  0.6094
  401MOL0     C55223  12.071  12.037   2.541  0.0198  0.6248  0.1061
  401MOL0     O55224  12.159  11.941   2.609 -0.1176  0.0228 -0.0689
  401MOL0     C55225  12.276  11.901   2.557 -0.3436  1.4075  0.1264
  401MOL0     C55226  12.308  11.920   2.423 -0.4049  0.1385  0.3713
  401MOL0     C55227  12.434  11.887   2.368 -0.6644 -0.2445  0.1374
  401MOL0     C55228  12.462  11.901   2.223  0.9170  0.1639 -0.0262
  401MOL0     C55229  12.531  11.834   2.452 -0.2578  0.7992 -0.7182
  401MOL0     C55230  12.672  11.801   2.405  0.7825  0.7224 -0.2757
  401MOL0     O55231  12.782  11.843   2.473  0.1126  0.1726 -0.4273
  401MOL0     C55232  12.902  11.819   2.429 -0.3262 -0.8027  0.7461
  401MOL0     C55233  12.972  11.919   2.358  0.2561 -0.5563  0.1663
  401MOL0     C55234  13.103  11.898   2.308 -0.0216  0.4367  0.4122
  401MOL0     C55235  13.166  11.779   2.333  0.5697 -0.7874 -0.5271
  401MOL0     O55236  13.294  11.737   2.302 -0.1012 -0.1351 -0.4122
  401MOL0     C55237  13.395  11.829   2.255 -0.6114  0.2740 -0.4229
  401MOL0     C55238  13.529  11.758   2.279  0.1229 -0.2877 -1.2585
  401MOL0     C55239  13.576  11.739   2.422 -0.4565 -0.5912 -0.6860
  401MOL0     C55240  13.475  11.691   2.524  0.1264 -0.4101 -0.7292
  401MOL0     C55241  13.520  11.662   2.669 -0.3207  0.4348  0.1078
  401MOL0     C55242  13.627  11.767   2.724 -0.1170  0.7299 -0.4765
  401MOL0     C55243  13.558  11.896   2.769 -0.0976  0.3264  0.4541
  401MOL0     C55244  13.657  11.990   2.828  0.7096  0.2464  1.1031
  401MOL0    Cl55245  13.567  12.133   2.888 -0.3383  0.1373 -0.2486
  401MOL0     C55246  13.095  11.678   2.396  0.7470 -0.0345 -0.0234
  401MOL0     C55247  12.966  11.700   2.445  0.0934  1.0734 -0.4779
  401MOL0     O55248  12.680  11.732   2.302  0.2035  0.3736  0.0510
  401MOL0     C55249  12.499  11.812   2.595  0.0031  0.1680  0.4112
  401MOL0     C55250  12.371  11.852   2.644 -0.5970 -0.2097  0.4541
  401MOL0     N55251  11.740  11.628   2.622  0.3134  0.2396  0.7722
  401MOL0     N55252  11.669  11.524   2.629 -0.1906 -0.6037 -0.1714
  401MOL0     C55253  10.396  11.129   2.384 -0.2943 -0.0163 -0.0870
  401MOL0     C55254  10.288  11.139   2.289  0.3295  0.0460  0.0905
  401MOL0     C55255   9.989  11.131   1.952  0.2739 -0.8202 -0.1177
  401MOL0     C55256   9.878  11.043   1.950  0.3026 -0.4561  0.7459
  401MOL0     C55257   9.780  11.054   1.857  1.0315 -0.4446 -0.5337
  401MOL0     C55258   9.789  11.147   1.747 -0.0664  0.2237 -0.2326
  401MOL0     O55259   9.693  11.144   1.652 -0.4612  0.0797  0.3240
  401MOL0     C55260   9.587  11.049   1.656 -0.1906 -0.1706 -0.3411
  401MOL0     C55261   9.523  11.051   1.520 -0.1087 -0.4119  0.2635
  401MOL0     C55262   9.471  11.189   1.484 -0.4599 -0.5010 -0.2480
  401MOL0     C55263   9.357  11.241   1.564  0.5470  0.1476 -0.2408
  401MOL0     C55264   9.233  11.156   1.569  0.2526  0.2371  0.3690
  401MOL0     C55265   9.133  11.090   1.576 -0.5436  0.4284 -0.7912
  401MOL0     C55266   9.893  11.231   1.756 -0.7151 -0.3442  0.9325
  401MOL0     C55267   9.995  11.232   1.854  0.5918  0.5816  0.7478
  401MOL0     C55268  10.106  11.329   1.829  0.2775  0.3970  0.2276
  401MOL0     H55269  10.449  11.287   2.027  2.5415 -1.3141 -0.0768
  401MOL0     H55270  10.627  11.291   2.190  0.3644 -1.8939 -3.0199
  401MOL0     H55271  10.671  11.419   2.422  0.5283  1.1821  2.2324
  401MOL0     H55272  10.776  11.288   2.370  0.0829 -1.2268  0.8453
  401MOL0     H55273  10.696  11.373   2.646 -0.0836 -1.6112  0.2635
  401MOL0     H55274  10.791  11.229   2.615 -1.5783 -0.2190  1.7773
  401MOL0     H55275  10.963  11.340   2.510 -0.3575  1.1210 -1.0499
  401MOL0     H55276  10.907  11.500   2.530  0.2648 -0.3504 -0.7441
  401MOL0     H55277  10.917  11.432   2.795 -0.0419  2.6163 -1.9647
  401MOL0     H55278  11.000  11.291   2.733 -0.0641 -0.0017  2.6394
  401MOL0     H55279  11.129  11.543   2.795  0.3493  3.0384 -1.7296
  401MOL0     H55280  11.074  11.573   2.629 -1.3940 -0.3636  0.3631
  401MOL0     H55281  11.223  11.328   2.699  0.9578  0.6696  1.0600
  401MOL0     H55282  11.185  11.380   2.539  0.0056  0.2918 -0.7732
  401MOL0     H55283  11.387  11.490   2.737 -0.7841  0.1972  0.6754
  401MOL0     H55284  11.325  11.597   2.597  0.5037 -0.3781 -0.6959
  401MOL0     H55285  11.482  11.340   2.562  0.5669  0.4021  0.5629
  401MOL0     H55286  11.412  11.439   2.431  3.8262 -0.9747 -1.2080
  401MOL0     H55287  11.527  11.662   2.379  1.3641 -1.6880 -1.1155
  401MOL0     H55288  11.712  11.916   2.454 -1.1227 -0.4561  0.2723
  401MOL0     H55289  11.797  11.795   2.352  1.4439 -1.9264  0.1689
  401MOL0     H55290  11.884  11.855   2.626 -2.9878 -3.8650 -0.5634
  401MOL0     H55291  11.971  11.767   2.499  0.8839  0.2077  0.3172
  401MOL0     H55292  11.992  11.941   2.350 -2.1612 -1.6269 -0.1579
  401MOL0     H55293  11.874  12.036   2.436 -0.1160 -2.3329 -2.5102
  401MOL0     H55294  12.128  12.101   2.473 -2.0841 -0.0642 -2.4866
  401MOL0     H55295  12.023  12.108   2.609  1.8159  0.7926  1.2341
  401MOL0     H55296  12.233  11.963   2.358  0.9635  1.2769 -0.5100
  401MOL0     H55297  12.561  11.942   2.202  1.3773  0.9559  3.0981
  401MOL0     H55298  12.379  11.956   2.178 -0.5227 -0.2745  1.9466
  401MOL0     H55299  12.473  11.800   2.183 -0.4707  0.4138 -1.0851
  401MOL0     H55300  12.916  12.010   2.338  0.8860 -0.2963 -0.4542
  401MOL0     H55301  13.153  11.973   2.248 -1.5381  0.5090 -0.8035
  401MOL0     H55302  13.390  11.884   2.160  0.3073  1.6812  0.2970
  401MOL0     H55303  13.411  11.906   2.331 -0.6413 -1.3479  1.2922
  401MOL0     H55304  13.527  11.665   2.223 -1.6916 -0.3361 -1.1589
  401MOL0     H55305  13.603  11.823   2.231 -0.6263  0.5220 -1.3398
  401MOL0     H55306  13.615  11.837   2.452  0.9705 -0.9567 -1.2722
  401MOL0     H55307  13.655  11.664   2.429 -1.6759 -1.7626  3.9217
  401MOL0     H55308  13.424  11.600   2.493 -0.7042  0.1022 -0.8917
  401MOL0     H55309  13.403  11.772   2.535 -0.1948 -0.7627 -0.1596
  401MOL0     H55310  13.433  11.646   2.734 -0.3986  0.9665  0.1384
  401MOL0     H55311  13.570  11.565   2.662 -2.6215 -0.7424 -1.1332
  401MOL0     H55312  13.696  11.792   2.643 -2.3160  0.3842 -2.5566
  401MOL0     H55313  13.683  11.723   2.807 -2.8070  2.9625  2.7879
  401MOL0     H55314  13.489  11.868   2.848 -0.4478  1.0484  0.4109
  401MOL0     H55315  13.516  11.949   2.682  1.9759  0.8839 -0.2650
  401MOL0     H55316  13.737  12.028   2.764  1.2200 -2.5447 -0.0834
  401MOL0     H55317  13.704  11.934   2.910  0.0270  0.2821  1.5214
  401MOL0     H55318  13.144  11.583   2.417  0.4155  0.0585  1.2634
  401MOL0     H55319  12.915  11.616   2.492  0.4441  0.3080 -1.4226
  401MOL0     H55320  12.577  11.771   2.659 -1.1181 -2.0163  0.4604
  401MOL0     H55321  12.352  11.843   2.750 -0.5064 -0.8598  0.4167
  401MOL0     H55322  10.388  11.084   2.482 -0.8688 -0.0555 -0.1489
  401MOL0     H55323  10.186  11.107   2.307  0.6190 -1.1100 -0.2640
  401MOL0     H55324   9.875  10.959   2.019 -0.2100  0.4584  1.8681
  401MOL0     H55325   9.694  10.988   1.859 -1.8660  3.0380 -0.4876
  401MOL0     H55326   9.619  10.949   1.687  1.3126  0.7612  1.2168
  401MOL0     H55327   9.509  11.072   1.729  0.5356  0.6434  0.1858
  401MOL0     H55328   9.435  10.986   1.528 -0.6205  0.3287  0.7055
  401MOL0     H55329   9.593  11.020   1.442 -0.2876  2.9226 -1.3590
  401MOL0     H55330   9.544  11.271   1.481 -0.8047 -0.1735  0.3011
  401MOL0     H55331   9.439  11.173   1.381  0.7193  1.0452 -0.8991
  401MOL0     H55332   9.327  11.330   1.508  0.8815  0.7999  0.5947
  401MOL0     H55333   9.394  11.267   1.664  1.0082  3.4775 -1.1491
  401MOL0     H55334   9.037  11.045   1.568 -0.6777  0.2062  1.3966
  401MOL0     H55335   9.888  11.298   1.671  2.0869 -1.6638 -0.4003
  401MOL0     H55336  10.203  11.289   1.861  0.0814 -1.0368 -0.8937
  401MOL0     H55337  10.116  11.337   1.720 -1.6958  0.1110 -0.0162
  401MOL0     H55338  10.086  11.420   1.886 -0.6641 -0.9456  2.1641
  402MOL0     O55339  10.601   3.945   2.403  0.2935  0.1167 -0.2113
  402MOL0     C55340  10.612   3.942   2.526  0.2044  0.0381  0.1898
  402MOL0     O55341  10.697   4.026   2.592 -0.3515  0.0414  0.1581
  402MOL0     C55342  10.816   4.057   2.527  0.1526 -0.3234 -0.6065
  402MOL0     C55343  10.887   3.969   2.442  1.0377 -0.0571 -1.7916
  402MOL0     C55344  10.998   4.022   2.376  0.4729 -0.3969 -0.5230
  402MOL0     C55345  11.048   4.147   2.403 -0.0616 -0.0180  0.0277
  402MOL0     O55346  11.133   4.203   2.315 -0.0325 -0.4155  0.6096
  402MOL0     C55347  11.263   4.190   2.366  0.6124 -0.3862 -0.4033
  402MOL0     C55348  11.349   4.295   2.306 -0.5277  0.9296  0.8733
  402MOL0     C55349  11.475   4.309   2.387 -0.2061  0.0252 -0.9035
  402MOL0     C55350  11.574   4.189   2.391  0.2523 -0.5174  0.0495
  402MOL0     C55351  11.624   4.134   2.262 -0.2864  0.3494  0.7789
  402MOL0     C55352  11.690   4.250   2.181 -0.2077  0.4711 -0.5675
  402MOL0     C55353  11.805   4.185   2.102  0.0947 -0.6384 -0.5141
  402MOL0     C55354  11.852   4.275   1.996 -0.3144 -0.2804 -0.0102
  402MOL0     N55355  11.948   4.220   1.909 -0.1995  0.4384  0.0675
  402MOL0     C55356  12.083   4.250   1.904 -0.6463  0.4843 -0.3549
  402MOL0     C55357  12.144   4.168   1.818  1.6308 -0.3021  0.1293
  402MOL0     C55358  12.294   4.175   1.801  0.3205  0.2676 -0.6562
  402MOL0     C55359  12.321   4.223   1.653 -0.2792 -0.5354  0.2439
  402MOL0     C55360  12.282   4.368   1.627  0.1324  1.0098  0.2656
  402MOL0     C55361  12.287   4.401   1.478  0.3277  0.7465  0.1490
  402MOL0     O55362  12.277   4.538   1.456 -0.3613 -0.6107  0.4043
  402MOL0     C55363  12.384   4.624   1.460 -0.1139 -0.0724  0.0804
  402MOL0     C55364  12.354   4.758   1.478 -0.8347 -0.2201  1.0983
  402MOL0     C55365  12.460   4.860   1.472  0.0919 -0.3301  0.0124
  402MOL0     C55366  12.411   4.999   1.499 -0.0456 -0.2774 -0.2555
  402MOL0     C55367  12.592   4.820   1.435 -0.0226  0.4414  1.1299
  402MOL0     C55368  12.706   4.921   1.424  0.3722  0.3989  0.4688
  402MOL0     O55369  12.812   4.864   1.372 -0.7339  0.0132 -0.0541
  402MOL0     C55370  12.924   4.943   1.350  0.2650 -0.0841 -0.5218
  402MOL0     C55371  13.030   4.929   1.439  0.4114  1.0766  0.0039
  402MOL0     C55372  13.154   4.988   1.428  0.1132 -0.7438 -0.5368
  402MOL0     C55373  13.170   5.083   1.324  0.2982 -0.3726  0.0823
  402MOL0     O55374  13.295   5.143   1.313  0.5564  0.5382  1.2778
  402MOL0     C55375  13.336   5.169   1.181  0.6962 -0.4578  1.1707
  402MOL0     C55376  13.491   5.170   1.188  0.1207 -0.3423 -0.1280
  402MOL0     C55377  13.552   5.149   1.040  0.0400  0.0806  0.2218
  402MOL0     C55378  13.703   5.157   1.044 -0.0373  0.3386 -0.3430
  402MOL0     C55379  13.775   5.189   0.902  0.4330 -0.8625 -0.4149
  402MOL0     C55380  13.935   5.196   0.907 -0.6065  1.0633 -0.6974
  402MOL0     C55381  13.983   5.225   0.766  0.2878  0.6402  0.3768
  402MOL0     C55382  14.122   5.294   0.753 -0.5677  0.0183 -0.5144
  402MOL0    Cl55383  14.153   5.309   0.579 -0.3368  0.0251 -0.1819
  402MOL0     C55384  13.067   5.098   1.224  0.0255  0.5887 -0.4008
  402MOL0     C55385  12.941   5.035   1.241  0.1906 -0.6776  0.0553
  402MOL0     O55386  12.705   5.029   1.483  0.2738  0.6525 -0.1863
  402MOL0     C55387  12.621   4.678   1.434 -0.6096 -0.5283  0.2118
  402MOL0     C55388  12.518   4.587   1.446 -1.1577 -0.2234  0.0848
  402MOL0     N55389  12.036   4.088   1.762 -0.3760 -0.8059 -0.5546
  402MOL0     N55390  11.926   4.118   1.825 -0.0857  0.0534 -0.6511
  402MOL0     C55391  10.974   4.228   2.488 -0.0419 -0.0187 -0.8965
  402MOL0     C55392  10.864   4.182   2.552  0.0873  0.0367 -0.2791
  402MOL0     C55393  10.525   3.855   2.611 -0.0891 -0.2123  0.2426
  402MOL0     C55394  10.556   3.852   2.745  0.0768  0.4602 -0.3444
  402MOL0     C55395  10.463   3.794   2.837 -0.1150 -0.7167 -0.5254
  402MOL0     C55396  10.355   3.722   2.792 -0.1399 -0.3068  0.8912
  402MOL0     O55397  10.260   3.668   2.873 -0.2645  0.4920 -0.1016
  402MOL0     C55398  10.221   3.750   2.994  0.0139 -0.3288  0.9885
  402MOL0     C55399  10.124   3.858   2.953  0.2102  0.4842 -0.1371
  402MOL0     C55400  10.013   3.830   2.845 -0.2106 -0.3840  0.5594
  402MOL0     C55401   9.961   3.962   2.786  0.5191 -0.7687  0.2320
  402MOL0     C55402  10.035   4.001   2.665 -0.8661  0.5479  0.0458
  402MOL0     C55403  10.085   4.025   2.551 -0.7774  0.8624  0.5241
  402MOL0     C55404  10.332   3.719   2.655 -0.3821 -1.1517  0.5107
  402MOL0     C55405  10.408   3.797   2.559  0.2959  0.7758  0.0483
  402MOL0     C55406  10.358   3.798   2.418  0.3396  0.1226 -0.7380
  402MOL0     H55407  10.866   3.866   2.417 -0.6155 -0.1789 -0.1156
  402MOL0     H55408  11.048   3.960   2.302 -0.0846 -0.3158 -0.9803
  402MOL0     H55409  11.308   4.093   2.348  3.2940  1.0393 -2.0458
  402MOL0     H55410  11.262   4.222   2.471  1.4533  3.2835 -1.3550
  402MOL0     H55411  11.366   4.270   2.201 -0.0630  0.7855  0.9837
  402MOL0     H55412  11.297   4.391   2.303 -1.3316  0.5275 -2.8978
  402MOL0     H55413  11.520   4.393   2.332  2.7447 -0.8375  0.0053
  402MOL0     H55414  11.451   4.345   2.487  0.3792  0.9865 -1.0939
  402MOL0     H55415  11.653   4.210   2.463  0.0313 -0.7945  0.3791
  402MOL0     H55416  11.517   4.112   2.444 -0.1451 -1.6084 -1.8303
  402MOL0     H55417  11.537   4.093   2.209 -0.3937  3.8154 -2.1996
  402MOL0     H55418  11.701   4.061   2.287 -0.5608  0.2269  1.2819
  402MOL0     H55419  11.618   4.314   2.128 -0.6723  0.9234  0.5663
  402MOL0     H55420  11.735   4.320   2.252  3.0396 -0.0374 -1.9842
  402MOL0     H55421  11.752   4.097   2.063 -0.6420 -0.6468  0.4750
  402MOL0     H55422  11.880   4.155   2.176 -0.8410 -2.4307 -0.2323
  402MOL0     H55423  11.774   4.303   1.925  1.7914  0.9734 -1.9551
  402MOL0     H55424  11.884   4.366   2.049  0.7047  0.1608 -1.3470
  402MOL0     H55425  12.129   4.329   1.963 -1.6037  1.0865 -0.3882
  402MOL0     H55426  12.340   4.080   1.832  0.1136  0.7576  1.2727
  402MOL0     H55427  12.332   4.249   1.872  0.8746 -0.0151 -0.6486
  402MOL0     H55428  12.428   4.212   1.637  0.0716 -4.3523  3.6959
  402MOL0     H55429  12.262   4.158   1.588 -3.3367  1.5060  0.7421
  402MOL0     H55430  12.181   4.383   1.668  0.2310  1.5672  0.3148
  402MOL0     H55431  12.351   4.433   1.682  1.0266 -0.4910  0.9816
  402MOL0     H55432  12.374   4.359   1.426  1.3009  3.9525 -1.0633
  402MOL0     H55433  12.197   4.360   1.431  0.9734 -0.3317 -0.1798
  402MOL0     H55434  12.254   4.790   1.505 -2.1298 -1.7088 -1.5652
  402MOL0     H55435  12.305   5.022   1.485  0.1483  1.2442  0.5705
  402MOL0     H55436  12.466   5.070   1.437 -0.4525  2.8545  2.7108
  402MOL0     H55437  12.436   5.016   1.604  1.1206  0.1576 -0.5948
  402MOL0     H55438  13.009   4.863   1.522 -1.2473  1.4457 -0.0793
  402MOL0     H55439  13.232   4.966   1.499 -0.9504  1.2466  1.3739
  402MOL0     H55440  13.307   5.084   1.118 -2.4596  2.9979 -2.6360
  402MOL0     H55441  13.284   5.258   1.145  0.3937 -1.0375  0.1467
  402MOL0     H55442  13.536   5.259   1.233 -2.7975  1.3114 -0.1863
  402MOL0     H55443  13.524   5.082   1.242 -0.1591 -0.9910 -0.9845
  402MOL0     H55444  13.518   5.231   0.976  0.9719  0.8927  0.7519
  402MOL0     H55445  13.527   5.055   0.990  2.4182 -0.5343  0.0656
  402MOL0     H55446  13.743   5.066   1.089  0.7394  2.2497  3.1764
  402MOL0     H55447  13.730   5.230   1.121  0.4840 -1.3033  1.0892
  402MOL0     H55448  13.730   5.119   0.830  1.5870 -1.1205 -0.9020
  402MOL0     H55449  13.736   5.285   0.865 -0.1740 -1.2375 -0.7707
  402MOL0     H55450  13.976   5.100   0.942  1.2203  0.7103 -3.5077
  402MOL0     H55451  13.966   5.277   0.973 -1.4226  3.5257 -3.1626
  402MOL0     H55452  13.907   5.282   0.711  0.5331  1.9665  1.3510
  402MOL0     H55453  13.997   5.126   0.722  1.0925 -0.6699  3.3553
  402MOL0     H55454  14.198   5.228   0.796 -1.3035 -0.1397  0.5967
  402MOL0     H55455  14.124   5.390   0.805  1.0330  0.8178 -1.9932
  402MOL0     H55456  13.074   5.175   1.147  2.3058  2.0709  1.1575
  402MOL0     H55457  12.870   5.057   1.162  0.3653 -2.1059 -0.5278
  402MOL0     H55458  12.720   4.640   1.416 -0.8250 -0.7995 -0.4307
  402MOL0     H55459  12.557   4.487   1.432  0.2259  0.5173 -1.7448
  402MOL0     H55460  11.029   4.318   2.515  0.4281 -0.7841  0.8179
  402MOL0     H55461  10.815   4.247   2.623 -0.1269  0.1195 -0.5002
  402MOL0     H55462  10.649   3.896   2.777  0.7170 -0.9115 -0.2444
  402MOL0     H55463  10.480   3.803   2.944  0.2131 -0.4653 -0.5978
  402MOL0     H55464  10.174   3.674   3.057 -0.3259 -1.0558 -0.1181
  402MOL0     H55465  10.305   3.789   3.053  0.3744 -0.3355  0.4855
  402MOL0     H55466  10.180   3.949   2.932  0.1858  0.6814  0.6232
  402MOL0     H55467  10.061   3.874   3.042 -2.2778  1.7026 -1.9823
  402MOL0     H55468  10.040   3.757   2.768 -2.3298 -2.3926  1.6230
  402MOL0     H55469   9.938   3.781   2.907 -2.1116 -1.5086 -2.3791
  402MOL0     H55470   9.969   4.042   2.860 -1.7757  0.6709 -0.9613
  402MOL0     H55471   9.853   3.962   2.767  0.1174  0.8331  2.2167
  402MOL0     H55472  10.131   4.047   2.456  1.2749  0.3971  1.3665
  402MOL0     H55473  10.244   3.670   2.615 -0.0566 -0.1536 -1.5634
  402MOL0     H55474  10.422   3.737   2.354 -0.4804 -0.1568 -1.3221
  402MOL0     H55475  10.255   3.762   2.403  0.8227 -2.7534  1.8116
  402MOL0     H55476  10.349   3.904   2.390 -0.3211  0.2838  0.0417
  403MOL0     O55477  10.201   5.619   1.554  0.3986 -0.1936  0.0011
  403MOL0     C55478  10.211   5.496   1.530 -0.2651  0.4863  1.0778
  403MOL0     O55479  10.313   5.446   1.451 -0.3251 -0.3373  0.8528
  403MOL0     C55480  10.430   5.516   1.411 -0.1214 -0.3622  0.1999
  403MOL0     C55481  10.491   5.443   1.316  0.2603  0.7213  0.5114
  403MOL0     C55482  10.624   5.467   1.278  2.0179  0.2263  1.2422
  403MOL0     C55483  10.697   5.560   1.345  0.3698 -0.0532 -1.0620
  403MOL0     O55484  10.819   5.581   1.292 -0.1617  0.2261 -0.3358
  403MOL0     C55485  10.887   5.705   1.316  1.0556 -0.1194  0.1057
  403MOL0     C55486  11.034   5.691   1.298 -0.2103  0.5233  0.6724
  403MOL0     C55487  11.078   5.711   1.154  1.2646  0.5779 -0.6563
  403MOL0     C55488  11.009   5.606   1.056 -0.7968  0.1705 -0.8561
  403MOL0     C55489  11.047   5.638   0.910 -0.5072  0.3099  0.2095
  403MOL0     C55490  11.046   5.528   0.810  0.0650 -1.0669  1.4590
  403MOL0     C55491  11.082   5.551   0.666  0.0343 -0.1263 -0.2440
  403MOL0     C55492  11.226   5.605   0.646 -0.2196 -0.1201  0.8774
  403MOL0     N55493  11.324   5.506   0.614  0.1509 -0.3934  0.2284
  403MOL0     C55494  11.394   5.443   0.720  0.0896 -0.1532 -0.8914
  403MOL0     C55495  11.510   5.408   0.658  0.5366  0.1498 -0.6855
  403MOL0     C55496  11.630   5.345   0.721  0.6708  0.8443  0.3877
  403MOL0     C55497  11.754   5.440   0.731 -0.1407 -0.0455  0.6055
  403MOL0     C55498  11.731   5.567   0.812  0.1364 -0.2695  0.2364
  403MOL0     C55499  11.853   5.657   0.827 -0.2950  0.3505 -0.0030
  403MOL0     O55500  11.942   5.620   0.929 -0.4518  0.0638  0.0955
  403MOL0     C55501  12.051   5.709   0.953 -0.6625  0.1843  0.2298
  403MOL0     C55502  12.066   5.826   0.884  0.1424  0.2764 -0.3900
  403MOL0     C55503  12.190   5.899   0.881 -0.6720  0.9827 -0.5119
  403MOL0     C55504  12.196   6.037   0.817 -0.2577 -0.1151  0.5270
  403MOL0     C55505  12.300   5.849   0.947  0.1985  0.2748 -0.5647
  403MOL0     C55506  12.437   5.895   0.945  0.0112 -0.0053  0.2791
  403MOL0     O55507  12.499   5.888   0.823 -0.5358 -0.8086  0.3761
  403MOL0     C55508  12.630   5.943   0.813 -0.3766  0.0323  0.0023
  403MOL0     C55509  12.642   6.062   0.749 -0.7280 -0.7596 -0.0275
  403MOL0     C55510  12.766   6.132   0.740  1.0317  0.0396 -0.3183
  403MOL0     C55511  12.881   6.072   0.787 -0.5431  0.2564 -0.0445
  403MOL0     O55512  13.006   6.131   0.772  0.0260 -0.2316  0.9558
  403MOL0     C55513  13.118   6.083   0.846  0.1217  0.2847 -0.1883
  403MOL0     C55514  13.114   6.137   0.987 -0.2061 -0.6230 -0.2220
  403MOL0     C55515  13.096   6.288   1.005  0.2695  0.3188  0.7164
  403MOL0     C55516  13.115   6.327   1.152  0.3106  0.1910  0.3466
  403MOL0     C55517  13.100   6.479   1.175  0.1050 -0.3492  0.3597
  403MOL0     C55518  12.949   6.532   1.172  0.0624 -0.4706 -0.2989
  403MOL0     C55519  12.922   6.670   1.240 -0.4818  0.8079  0.2181
  403MOL0     C55520  12.778   6.713   1.210  0.0104 -1.3245  0.3577
  403MOL0    Cl55521  12.651   6.631   1.294  0.5247 -0.0428 -0.2057
  403MOL0     C55522  12.868   5.935   0.831 -0.5431  0.1999  0.2793
  403MOL0     C55523  12.742   5.872   0.852 -0.7051 -0.0383  0.5013
  403MOL0     O55524  12.494   5.917   1.052  0.3877  0.1039  0.3946
  403MOL0     C55525  12.288   5.725   1.012  0.0732 -0.7831  0.5852
  403MOL0     C55526  12.163   5.657   1.027 -0.0428  0.3425  0.4491
  403MOL0     N55527  11.511   5.455   0.525  0.1483  0.9020 -0.4465
  403MOL0     N55528  11.401   5.515   0.499 -0.5741 -0.2476 -0.8545
  403MOL0     C55529  10.636   5.645   1.440  0.1915  0.9844 -0.0248
  403MOL0     C55530  10.505   5.623   1.483 -0.5414 -0.2690  0.3410
  403MOL0     C55531  10.098   5.403   1.578  0.6370  0.2716 -0.2181
  403MOL0     C55532  10.075   5.276   1.515  0.2801  0.4294 -0.9817
  403MOL0     C55533   9.964   5.195   1.544 -0.2867  0.0960 -0.2988
  403MOL0     C55534   9.871   5.241   1.638  0.7694 -0.6568 -0.2621
  403MOL0     O55535   9.756   5.164   1.650  0.2720  0.1162  0.4470
  403MOL0     C55536   9.634   5.205   1.705 -0.4575  0.3781 -0.4916
  403MOL0     C55537   9.599   5.136   1.836 -0.7292  0.1063 -0.0749
  403MOL0     C55538   9.718   5.130   1.942 -0.5215 -0.5468  0.6804
  403MOL0     C55539   9.686   5.054   2.072 -0.0401  0.3517  0.0727
  403MOL0     C55540   9.544   5.044   2.123 -0.6980  0.5278  0.3736
  403MOL0     C55541   9.442   5.007   2.171 -0.9941  0.3130  0.6190
  403MOL0     C55542   9.894   5.358   1.713 -0.7271 -0.1428 -0.5620
  403MOL0     C55543  10.004   5.446   1.677  0.6044  1.0528 -0.4995
  403MOL0     C55544  10.011   5.572   1.757 -0.2034 -0.1006  0.4982
  403MOL0     H55545  10.447   5.358   1.265  0.6414  0.1514  1.1147
  403MOL0     H55546  10.667   5.411   1.195 -1.4051  0.1311 -0.6417
  403MOL0     H55547  10.876   5.763   1.409  0.8771 -0.2696  0.1809
  403MOL0     H55548  10.843   5.777   1.246  0.7941  0.6154  0.9919
  403MOL0     H55549  11.099   5.758   1.355  1.6228  0.9949 -1.8085
  403MOL0     H55550  11.070   5.589   1.315  2.0431  0.6431 -2.5216
  403MOL0     H55551  11.055   5.813   1.121  0.4034  0.6388  0.0629
  403MOL0     H55552  11.186   5.698   1.147  1.4091  1.9786 -1.2742
  403MOL0     H55553  11.031   5.502   1.084  1.4813  1.3921  2.4489
  403MOL0     H55554  10.900   5.621   1.057 -0.9088 -0.2829  1.8468
  403MOL0     H55555  11.146   5.685   0.909 -1.6612  2.9709 -1.5050
  403MOL0     H55556  10.981   5.722   0.888 -3.1694 -0.9594  2.6160
  403MOL0     H55557  11.111   5.448   0.848 -1.5493 -2.5206  1.2609
  403MOL0     H55558  10.943   5.491   0.807 -1.4813  2.8071 -1.7001
  403MOL0     H55559  11.018   5.619   0.611  1.3075 -0.4533 -2.2376
  403MOL0     H55560  11.074   5.457   0.611  0.2497  0.5703 -1.5032
  403MOL0     H55561  11.219   5.678   0.565 -2.7386  2.4729  3.1847
  403MOL0     H55562  11.267   5.654   0.735 -0.3824  1.8242 -0.0782
  403MOL0     H55563  11.367   5.421   0.823 -0.1032 -0.3390 -0.9809
  403MOL0     H55564  11.666   5.260   0.663  0.2309  0.8183  0.1533
  403MOL0     H55565  11.596   5.310   0.819  0.9777 -1.2587 -0.2142
  403MOL0     H55566  11.838   5.379   0.765 -1.3741 -1.9468  0.4257
  403MOL0     H55567  11.781   5.472   0.630  1.7831  1.7608  1.6313
  403MOL0     H55568  11.661   5.622   0.748 -1.6981 -2.7368 -0.0171
  403MOL0     H55569  11.680   5.541   0.905 -1.2750  0.8509 -0.2046
  403MOL0     H55570  11.901   5.658   0.729  3.0653 -1.5614  1.4343
  403MOL0     H55571  11.803   5.750   0.855 -0.2632 -0.4056  2.8631
  403MOL0     H55572  11.987   5.860   0.818 -2.0997  1.2390  2.5815
  403MOL0     H55573  12.284   6.091   0.852  1.0152 -3.4679  3.1127
  403MOL0     H55574  12.110   6.097   0.848 -0.7170 -1.2659  1.5663
  403MOL0     H55575  12.198   6.035   0.708  1.6629 -0.8248  0.5447
  403MOL0     H55576  12.557   6.113   0.706  0.3039 -2.1096 -4.0855
  403MOL0     H55577  12.763   6.227   0.688 -0.2790  0.5275  0.5959
  403MOL0     H55578  13.136   5.977   0.865 -0.6123  0.8158  4.6286
  403MOL0     H55579  13.202   6.135   0.799 -0.6227 -0.5701 -2.6427
  403MOL0     H55580  13.028   6.088   1.033  0.0895 -3.1196 -2.0984
  403MOL0     H55581  13.205   6.103   1.038 -0.8535 -0.5977  0.9786
  403MOL0     H55582  12.995   6.314   0.970  0.4650  1.9733  1.2781
  403MOL0     H55583  13.167   6.352   0.952 -1.2236  1.6841  0.2698
  403MOL0     H55584  13.218   6.299   1.174  1.4027  1.5437 -2.5552
  403MOL0     H55585  13.054   6.264   1.217 -0.9813 -3.2865 -3.7692
  403MOL0     H55586  13.140   6.511   1.271  1.8624  3.4681 -1.4428
  403MOL0     H55587  13.159   6.528   1.097  1.4171 -2.1520  0.1556
  403MOL0     H55588  12.902   6.453   1.232 -0.7966  1.3616  1.5764
  403MOL0     H55589  12.911   6.535   1.070  0.5266  1.4254 -0.4447
  403MOL0     H55590  12.987   6.743   1.190 -2.7783  3.4541  0.8035
  403MOL0     H55591  12.937   6.658   1.348 -2.0042 -0.4099  0.3400
  403MOL0     H55592  12.753   6.715   1.103 -1.9882 -1.5388  0.7725
  403MOL0     H55593  12.772   6.818   1.239 -1.8960 -1.5606  0.9998
  403MOL0     H55594  12.956   5.873   0.843 -0.5531  0.1935  0.3213
  403MOL0     H55595  12.727   5.769   0.886 -0.3912 -0.4500 -0.5761
  403MOL0     H55596  12.375   5.683   1.061  1.5924  3.8289  2.4165
  403MOL0     H55597  12.159   5.559   1.074 -0.0030 -1.2915 -2.6668
  403MOL0     H55598  10.696   5.726   1.480  1.4960  0.1101 -0.1448
  403MOL0     H55599  10.454   5.681   1.560 -0.8994 -2.3434  1.7312
  403MOL0     H55600  10.139   5.243   1.434  0.7268  0.0091 -0.4627
  403MOL0     H55601   9.942   5.111   1.478  0.3017 -0.6160  0.3863
  403MOL0     H55602   9.639   5.309   1.738  0.5529  0.1897 -0.0105
  403MOL0     H55603   9.550   5.175   1.642 -1.1215 -0.4781  0.7526
  403MOL0     H55604   9.568   5.032   1.820  1.1633 -0.6478  0.8801
  403MOL0     H55605   9.512   5.189   1.876 -0.5328 -1.0594  2.0717
  403MOL0     H55606   9.801   5.081   1.890 -1.9943 -0.9957 -1.3588
  403MOL0     H55607   9.750   5.230   1.973 -0.1083 -0.0387 -1.2381
  403MOL0     H55608   9.757   5.077   2.152 -0.1573  0.3196  0.1856
  403MOL0     H55609   9.691   4.947   2.050  0.0972  0.1646  0.9689
  403MOL0     H55610   9.358   4.966   2.224 -3.7393 -0.5179 -3.7887
  403MOL0     H55611   9.833   5.390   1.796  1.9344  0.0653  1.4284
  403MOL0     H55612  10.004   5.665   1.701  1.4047 -0.3311 -0.1253
  403MOL0     H55613   9.945   5.576   1.845 -0.3509  2.3650  0.3362
  403MOL0     H55614  10.112   5.569   1.798 -0.4647  1.8986  1.3845
  404MOL0     O55615   4.333   2.502   4.784 -0.3182 -0.0129  1.0957
  404MOL0     C55616   4.262   2.421   4.719 -1.1396 -0.4583  0.6332
  404MOL0     O55617   4.312   2.304   4.671 -0.1382  0.1882  0.4624
  404MOL0     C55618   4.446   2.272   4.656 -0.2902 -0.7422 -0.2099
  404MOL0     C55619   4.547   2.365   4.652 -0.7156  0.1909 -1.0164
  404MOL0     C55620   4.682   2.322   4.630 -0.3112 -0.3043 -0.6331
  404MOL0     C55621   4.703   2.184   4.608 -0.1951  0.2220  0.1592
  404MOL0     O55622   4.829   2.125   4.604 -0.3497  0.1063  0.4810
  404MOL0     C55623   4.945   2.213   4.602 -0.7514  0.1364  0.8081
  404MOL0     C55624   5.065   2.133   4.583 -0.1574 -0.5609  0.6219
  404MOL0     C55625   5.106   2.059   4.711 -0.5151 -0.0437 -0.7918
  404MOL0     C55626   5.215   1.966   4.664  0.8760  0.7395 -0.7713
  404MOL0     C55627   5.271   1.880   4.780 -0.2051  0.1074 -1.2259
  404MOL0     C55628   5.386   1.788   4.729 -0.2098 -0.7969 -0.7835
  404MOL0     C55629   5.349   1.684   4.620 -0.6508  0.9511  1.0098
  404MOL0     C55630   5.480   1.605   4.588  0.1837 -0.5712  0.4596
  404MOL0     N55631   5.438   1.514   4.472 -0.1030 -0.3113  0.7521
  404MOL0     C55632   5.457   1.554   4.341  0.7704 -0.4522 -0.0261
  404MOL0     C55633   5.433   1.434   4.276  0.0229 -0.2397  0.0978
  404MOL0     C55634   5.427   1.422   4.128 -0.0389  0.8832  0.3433
  404MOL0     C55635   5.285   1.430   4.071  1.3906 -0.8289  0.3121
  404MOL0     C55636   5.278   1.366   3.929  0.0559  0.7034 -0.3963
  404MOL0     C55637   5.140   1.340   3.892  0.9209  1.1746 -0.1504
  404MOL0     O55638   5.081   1.464   3.845 -0.1640  0.3433  0.2976
  404MOL0     C55639   4.956   1.490   3.875 -0.6307 -0.3023  0.2191
  404MOL0     C55640   4.864   1.450   3.782  0.2831 -0.3223  0.0033
  404MOL0     C55641   4.728   1.488   3.792 -0.0919 -0.0101 -1.0522
  404MOL0     C55642   4.645   1.424   3.693 -0.2533 -0.3251 -0.0549
  404MOL0     C55643   4.690   1.562   3.893 -0.5334  0.0831 -0.1965
  404MOL0     C55644   4.553   1.583   3.926  0.3021  0.4098  0.3065
  404MOL0     O55645   4.472   1.472   3.941  0.2449  0.6229  0.1498
  404MOL0     C55646   4.338   1.489   3.982 -0.3473  0.6059 -0.1728
  404MOL0     C55647   4.245   1.418   3.908  0.1804  0.3314  0.4392
  404MOL0     C55648   4.108   1.414   3.940  0.5406  0.4352  0.5284
  404MOL0     C55649   4.062   1.492   4.049  0.0444 -0.2518  0.8363
  404MOL0     O55650   3.928   1.500   4.072  0.8519  0.6872  0.2679
  404MOL0     C55651   3.878   1.636   4.066 -0.3425  0.1741 -0.1445
  404MOL0     C55652   3.726   1.626   4.088  0.3092  0.2601 -0.2427
  404MOL0     C55653   3.665   1.753   4.127  0.1567 -0.5184 -0.3764
  404MOL0     C55654   3.675   1.862   4.016 -0.5267 -0.5883 -0.5914
  404MOL0     C55655   3.808   1.949   4.031 -0.1399 -0.0116  0.3407
  404MOL0     C55656   3.810   2.049   3.922  0.1486 -0.2992  0.5229
  404MOL0     C55657   3.919   2.142   3.926  0.0445  0.1068 -0.1823
  404MOL0     C55658   3.937   2.227   3.803  0.9889  0.6797 -0.4279
  404MOL0    Cl55659   3.789   2.310   3.743 -0.0481 -0.0556  0.1642
  404MOL0     C55660   4.149   1.548   4.135 -0.2189 -0.2296  0.7004
  404MOL0     C55661   4.288   1.555   4.105 -0.0645  0.0642 -0.0292
  404MOL0     O55662   4.513   1.699   3.949 -0.8302  0.1358  0.6418
  404MOL0     C55663   4.788   1.612   3.983 -0.3634  0.0118 -0.5749
  404MOL0     C55664   4.920   1.582   3.980 -0.0219  0.2879 -0.3192
  404MOL0     N55665   5.416   1.335   4.366  0.4532 -0.1364  0.1492
  404MOL0     N55666   5.423   1.378   4.484 -0.0375  0.8793  0.0652
  404MOL0     C55667   4.602   2.092   4.637 -0.4645  0.2389  0.6767
  404MOL0     C55668   4.470   2.134   4.652  0.7296  0.6362  0.7416
  404MOL0     C55669   4.124   2.456   4.700 -0.5946  0.9902  0.1447
  404MOL0     C55670   4.063   2.543   4.791  0.5671 -0.0521 -0.0932
  404MOL0     C55671   3.924   2.565   4.775  0.0511 -0.5127  0.7060
  404MOL0     C55672   3.843   2.492   4.694 -0.2827 -0.9930 -0.0382
  404MOL0     O55673   3.712   2.515   4.689  0.3695 -0.1767  0.1774
  404MOL0     C55674   3.648   2.617   4.759 -0.9718 -0.4410 -0.3327
  404MOL0     C55675   3.501   2.620   4.728  0.2643 -0.0027  0.3772
  404MOL0     C55676   3.482   2.686   4.589 -0.3737 -0.2680  0.4184
  404MOL0     C55677   3.336   2.688   4.551 -0.6666 -0.3873 -0.7766
  404MOL0     C55678   3.302   2.557   4.502  0.7300 -0.1236  0.4103
  404MOL0     C55679   3.285   2.452   4.447 -0.0436  0.5109 -0.0149
  404MOL0     C55680   3.912   2.408   4.602  0.8298  0.3046  0.2031
  404MOL0     C55681   4.054   2.393   4.591  0.8832 -0.2700  0.0491
  404MOL0     C55682   4.096   2.306   4.475 -0.0089 -0.0768 -0.1163
  404MOL0     H55683   4.531   2.472   4.656 -1.6333  0.0437 -0.4087
  404MOL0     H55684   4.771   2.384   4.628 -0.3483 -0.2117  0.1223
  404MOL0     H55685   4.955   2.268   4.696 -0.1404  0.9622  0.2803
  404MOL0     H55686   4.939   2.284   4.519  0.2384 -1.3587 -0.6184
  404MOL0     H55687   5.045   2.060   4.504  1.5034  0.3497 -0.7180
  404MOL0     H55688   5.153   2.192   4.554 -0.7098 -0.8370 -1.8558
  404MOL0     H55689   5.146   2.123   4.790 -2.5068  1.3809 -0.8660
  404MOL0     H55690   5.031   1.988   4.747  0.2455 -1.4813 -1.9194
  404MOL0     H55691   5.168   1.905   4.587  0.2549 -0.2756  0.3887
  404MOL0     H55692   5.296   2.030   4.626  0.9294  1.2028  0.0873
  404MOL0     H55693   5.195   1.816   4.827  0.8026 -0.1446  0.1100
  404MOL0     H55694   5.305   1.939   4.866  0.4512  2.7657 -3.2107
  404MOL0     H55695   5.475   1.846   4.703 -0.0918 -0.7986 -0.3857
  404MOL0     H55696   5.421   1.743   4.822  3.1915  0.8064 -1.1219
  404MOL0     H55697   5.306   1.736   4.534 -0.5297 -0.3369  0.1398
  404MOL0     H55698   5.270   1.619   4.658  0.7359 -1.3275  0.2287
  404MOL0     H55699   5.567   1.667   4.569  0.8977 -1.6325  0.1850
  404MOL0     H55700   5.513   1.548   4.675 -0.2994 -0.7528  0.5273
  404MOL0     H55701   5.479   1.656   4.310  5.5125 -1.6343 -1.3920
  404MOL0     H55702   5.450   1.315   4.115  0.6648  1.0717 -0.0087
  404MOL0     H55703   5.501   1.490   4.085 -0.2382  1.3694  0.7621
  404MOL0     H55704   5.214   1.374   4.132  1.3632 -0.8894  0.2244
  404MOL0     H55705   5.250   1.534   4.063  0.2206 -1.2986 -1.1422
  404MOL0     H55706   5.325   1.436   3.859  0.1164  1.9420  0.8603
  404MOL0     H55707   5.346   1.280   3.928 -2.6231 -1.5941 -1.6014
  404MOL0     H55708   5.153   1.263   3.815 -2.3963 -1.8667  2.0300
  404MOL0     H55709   5.083   1.286   3.968 -1.2565  1.1288 -1.7214
  404MOL0     H55710   4.892   1.379   3.706 -1.4818  1.0436 -2.0423
  404MOL0     H55711   4.692   1.437   3.595 -1.8841  0.2683 -0.8005
  404MOL0     H55712   4.545   1.464   3.675  0.2721  0.6652 -0.8454
  404MOL0     H55713   4.634   1.317   3.717  0.1985 -1.2890 -3.5218
  404MOL0     H55714   4.268   1.356   3.822 -0.9373 -1.0289  1.0903
  404MOL0     H55715   4.037   1.353   3.886  1.1001 -1.1250  1.4862
  404MOL0     H55716   3.924   1.695   4.146 -0.3053 -3.1582  2.5224
  404MOL0     H55717   3.896   1.675   3.966  1.0063 -0.5823 -0.2294
  404MOL0     H55718   3.687   1.580   3.996 -2.4177 -1.7180  1.7642
  404MOL0     H55719   3.706   1.561   4.173 -1.4045 -0.0889 -0.8778
  404MOL0     H55720   3.705   1.786   4.224  1.7435  1.5264 -1.6468
  404MOL0     H55721   3.559   1.735   4.150  0.1059  1.3096  1.0637
  404MOL0     H55722   3.597   1.938   4.025  0.7669  0.7096  0.0940
  404MOL0     H55723   3.665   1.820   3.916  1.4699  0.2839 -1.2185
  404MOL0     H55724   3.808   2.002   4.127 -0.8192 -0.6183  0.6806
  404MOL0     H55725   3.899   1.888   4.030  1.4344  2.1106  2.1581
  404MOL0     H55726   3.718   2.107   3.922 -0.1350 -0.6683 -1.7950
  404MOL0     H55727   3.812   1.993   3.828  1.5164 -0.0090  0.3488
  404MOL0     H55728   4.014   2.089   3.935 -1.1574 -2.1419  0.2995
  404MOL0     H55729   3.903   2.211   4.009  0.3949  1.1997 -1.0093
  404MOL0     H55730   3.973   2.159   3.726 -2.0867 -0.2597 -1.1587
  404MOL0     H55731   4.014   2.302   3.828  1.6772  1.4435 -4.2545
  404MOL0     H55732   4.109   1.623   4.203  0.1938  0.3182  0.3460
  404MOL0     H55733   4.354   1.608   4.172 -0.9598  1.2510 -0.0497
  404MOL0     H55734   4.766   1.682   4.063 -3.7745 -1.0379 -0.4421
  404MOL0     H55735   4.993   1.613   4.054 -1.9963  0.5715  1.6060
  404MOL0     H55736   4.637   1.989   4.635  0.9956  0.7340 -0.6343
  404MOL0     H55737   4.396   2.057   4.670 -0.9196  2.1317  0.5637
  404MOL0     H55738   4.115   2.588   4.874  1.2582 -1.9400  0.5489
  404MOL0     H55739   3.876   2.632   4.846 -1.0089 -1.2223  0.6687
  404MOL0     H55740   3.665   2.602   4.866  0.4532  0.8882 -0.3410
  404MOL0     H55741   3.694   2.714   4.737  1.6942 -1.3672  0.7860
  404MOL0     H55742   3.460   2.692   4.800  2.4682  0.4061  1.3319
  404MOL0     H55743   3.443   2.528   4.738 -1.0458  0.5462 -1.5538
  404MOL0     H55744   3.533   2.783   4.595 -0.1009 -0.4775  1.8431
  404MOL0     H55745   3.535   2.630   4.512  0.4065  2.7828 -1.4079
  404MOL0     H55746   3.334   2.771   4.480  5.0890 -1.0926 -2.2565
  404MOL0     H55747   3.274   2.712   4.638  1.0561  0.5474  0.2744
  404MOL0     H55748   3.250   2.357   4.413  2.9119 -0.7375  0.1033
  404MOL0     H55749   3.844   2.367   4.529 -0.4577 -1.6016  2.3534
  404MOL0     H55750   4.119   2.200   4.494  3.3562  0.4835 -0.4808
  404MOL0     H55751   4.025   2.331   4.396 -3.3420 -2.1400  1.9679
  404MOL0     H55752   4.190   2.342   4.431 -0.0979  0.5387  0.1902
  405MOL0     O55753   3.124   7.811  10.714  0.1953  0.2983  0.0912
  405MOL0     C55754   3.104   7.896  10.797 -0.3129 -0.1873  0.2024
  405MOL0     O55755   3.174   8.012  10.804  0.0174  0.5709 -0.6860
  405MOL0     C55756   3.234   8.068  10.687  0.4028 -0.0831  0.7266
  405MOL0     C55757   3.168   8.062  10.560 -0.8461  0.2478 -0.4282
  405MOL0     C55758   3.242   8.115  10.456  0.3253 -0.0224  0.5515
  405MOL0     C55759   3.361   8.182  10.470  0.2077 -0.4479 -0.4691
  405MOL0     O55760   3.416   8.231  10.352 -0.6636  0.4737  0.6112
  405MOL0     C55761   3.523   8.334  10.341  0.2939  0.0783  1.0281
  405MOL0     C55762   3.451   8.456  10.295 -0.2024  0.9056 -0.4423
  405MOL0     C55763   3.535   8.584  10.307  0.2204 -0.3067  0.4680
  405MOL0     C55764   3.447   8.708  10.290 -0.0163 -0.2919 -0.1944
  405MOL0     C55765   3.530   8.826  10.230 -0.4254 -0.1908  0.8575
  405MOL0     C55766   3.438   8.956  10.213  0.1521 -0.0215 -0.5307
  405MOL0     C55767   3.375   9.001  10.353  0.4405 -0.5907 -0.0940
  405MOL0     C55768   3.322   9.144  10.336  0.4560 -0.1357 -0.1380
  405MOL0     N55769   3.189   9.120  10.278  0.2831 -0.1231  0.0477
  405MOL0     C55770   3.077   9.114  10.357  0.1170  0.3315  0.0760
  405MOL0     C55771   2.977   9.074  10.269  0.0352  0.1634  0.3980
  405MOL0     C55772   2.843   9.049  10.317 -0.0934  0.1648  0.6748
  405MOL0     C55773   2.740   9.136  10.248  0.3995 -0.1234  0.1283
  405MOL0     C55774   2.765   9.288  10.285  0.3711 -0.4415  0.1210
  405MOL0     C55775   2.650   9.378  10.249 -0.8586 -0.1602  0.2628
  405MOL0     O55776   2.625   9.359  10.104 -0.4189 -0.7495  0.1694
  405MOL0     C55777   2.518   9.422  10.053 -0.4000  0.8902  0.1482
  405MOL0     C55778   2.461   9.363   9.938  0.2239  0.0607 -0.7398
  405MOL0     C55779   2.349   9.419   9.884  0.1443 -0.2586  0.6902
  405MOL0     C55780   2.313   9.371   9.745  0.5092 -0.3419  0.1350
  405MOL0     C55781   2.284   9.531   9.950  0.6281  0.4536 -0.4571
  405MOL0     C55782   2.156   9.587   9.901 -0.1860  0.4634  0.3580
  405MOL0     O55783   2.077   9.499   9.832  0.3094 -0.0843  0.0151
  405MOL0     C55784   1.970   9.558   9.760 -1.3183 -0.9681  0.5212
  405MOL0     C55785   1.988   9.598   9.625  1.0353 -0.0271 -0.5609
  405MOL0     C55786   1.881   9.660   9.555  0.1640 -0.9945 -0.5197
  405MOL0     C55787   1.759   9.694   9.615 -0.7180 -0.2175  0.5558
  405MOL0     O55788   1.645   9.755   9.548 -0.3611  0.6434 -0.2143
  405MOL0     C55789   1.638   9.788   9.411 -0.0068  0.5904  0.7130
  405MOL0     C55790   1.561   9.912   9.402  0.7974 -0.3402  0.7529
  405MOL0     C55791   1.405   9.897   9.413 -0.0412  0.2678 -0.2646
  405MOL0     C55792   1.326  10.023   9.437  0.0491 -0.3579  0.6054
  405MOL0     C55793   1.179   9.991   9.464  0.8416  0.1244  1.4954
  405MOL0     C55794   1.084  10.086   9.393 -0.2763  0.0610  1.0382
  405MOL0     C55795   0.938  10.044   9.424  0.1099 -0.2279 -0.2651
  405MOL0     C55796   0.849  10.167   9.482  0.4300  0.1328 -0.5704
  405MOL0    Cl55797   0.698  10.184   9.394 -0.1062  0.0119 -0.2806
  405MOL0     C55798   1.745   9.658   9.750 -0.8182  0.4738  0.6657
  405MOL0     C55799   1.847   9.592   9.823  0.5066 -0.2777 -0.0913
  405MOL0     O55800   2.137   9.706   9.922 -0.1092  0.4988  0.1271
  405MOL0     C55801   2.343   9.582  10.066 -0.0738 -0.0499 -0.5056
  405MOL0     C55802   2.459   9.530  10.113 -0.1170  0.1639  0.2653
  405MOL0     N55803   3.037   9.071  10.142  0.2306 -0.9284  0.6760
  405MOL0     N55804   3.159   9.096  10.148 -0.0996 -0.0118 -0.5880
  405MOL0     C55805   3.423   8.191  10.597  0.2893 -1.2103 -0.5128
  405MOL0     C55806   3.356   8.135  10.710 -0.4413 -0.4578  0.1664
  405MOL0     C55807   3.027   7.856  10.913  0.7219 -0.2895  0.8424
  405MOL0     C55808   3.062   7.908  11.043  0.5524  0.5872  0.6845
  405MOL0     C55809   2.972   7.893  11.146 -0.5504 -0.2507 -1.0642
  405MOL0     C55810   2.847   7.829  11.134  0.0947  0.2166 -0.6100
  405MOL0     O55811   2.772   7.832  11.252  0.0947 -0.0427  0.5135
  405MOL0     C55812   2.673   7.721  11.267  0.2507 -0.6841 -0.0360
  405MOL0     C55813   2.616   7.694  11.405 -0.2906 -0.1868  0.6209
  405MOL0     C55814   2.489   7.603  11.385 -0.1421  0.7050  0.1709
  405MOL0     C55815   2.365   7.684  11.329 -0.0656 -0.2488 -0.1017
  405MOL0     C55816   2.262   7.591  11.287 -0.6874 -0.7484 -0.0364
  405MOL0     C55817   2.171   7.517  11.252  0.0341  0.3795 -0.3653
  405MOL0     C55818   2.813   7.776  11.009  0.0137  0.5057  0.3576
  405MOL0     C55819   2.898   7.788  10.891 -0.2430 -0.1369 -0.5622
  405MOL0     C55820   2.839   7.750  10.756  0.2085 -0.6920  0.4605
  405MOL0     H55821   3.066   8.027  10.549 -0.0438 -2.8103  0.9409
  405MOL0     H55822   3.210   8.092  10.355  0.9047  1.0971  0.0805
  405MOL0     H55823   3.605   8.309  10.273 -0.0779 -0.1817  0.6756
  405MOL0     H55824   3.574   8.344  10.437  2.5844 -1.9208  0.1226
  405MOL0     H55825   3.427   8.447  10.189  0.1733  1.3144 -0.5665
  405MOL0     H55826   3.355   8.468  10.346 -0.5338  1.5446 -1.2002
  405MOL0     H55827   3.585   8.601  10.403 -2.0099 -1.4832  1.9314
  405MOL0     H55828   3.614   8.592  10.232 -0.2148  0.4357  0.0754
  405MOL0     H55829   3.365   8.696  10.218 -1.4253 -1.1225  1.4649
  405MOL0     H55830   3.399   8.731  10.386  2.9549 -0.2579  1.3915
  405MOL0     H55831   3.577   8.797  10.135 -0.5271 -2.2301  1.3923
  405MOL0     H55832   3.615   8.857  10.292 -0.4219 -0.2880  0.9014
  405MOL0     H55833   3.488   9.045  10.175  1.9619 -1.3732 -1.4803
  405MOL0     H55834   3.353   8.933  10.148  0.2565 -1.9327 -0.0747
  405MOL0     H55835   3.462   9.007  10.419  1.4528  0.5947 -1.4609
  405MOL0     H55836   3.300   8.940  10.403  0.3970  0.8750  1.7704
  405MOL0     H55837   3.313   9.186  10.436  0.3810  2.5117 -1.1941
  405MOL0     H55838   3.381   9.217  10.279 -1.6000  2.4916  0.9145
  405MOL0     H55839   3.063   9.126  10.463 -0.7458 -0.3078  0.0466
  405MOL0     H55840   2.831   9.063  10.425 -3.2987  1.7360  0.2540
  405MOL0     H55841   2.803   8.953  10.283 -1.5536  1.4821 -1.5656
  405MOL0     H55842   2.730   9.115  10.141 -2.9002 -0.7620  0.4330
  405MOL0     H55843   2.647   9.112  10.301 -0.8230  1.7231 -1.0568
  405MOL0     H55844   2.785   9.302  10.392 -2.1976  1.6984  0.4042
  405MOL0     H55845   2.850   9.325  10.226 -0.6837  0.3227 -0.9557
  405MOL0     H55846   2.560   9.356  10.306 -0.6965  0.9868  1.0072
  405MOL0     H55847   2.690   9.475  10.283  1.9871 -2.4525  4.3056
  405MOL0     H55848   2.515   9.276   9.901  4.4934  2.3269 -0.5054
  405MOL0     H55849   2.276   9.453   9.683  0.4478 -0.1315  0.4484
  405MOL0     H55850   2.233   9.297   9.748  0.4472 -0.2491  0.7499
  405MOL0     H55851   2.406   9.336   9.698 -0.0375 -1.1998 -0.3227
  405MOL0     H55852   2.086   9.582   9.581  2.2982 -1.9337  2.6226
  405MOL0     H55853   1.911   9.677   9.452  0.1020  0.1343 -0.3703
  405MOL0     H55854   1.738   9.820   9.381  0.2195  0.8302  1.6794
  405MOL0     H55855   1.605   9.703   9.351 -0.8715  0.5388  1.2401
  405MOL0     H55856   1.601   9.983   9.475  0.9924 -0.9905  1.2822
  405MOL0     H55857   1.574   9.961   9.305 -2.4099  2.4214  1.5045
  405MOL0     H55858   1.393   9.840   9.505  0.7895  2.7201  1.4576
  405MOL0     H55859   1.366   9.848   9.323 -1.1359  1.4918 -0.4904
  405MOL0     H55860   1.327  10.094   9.354  0.0384 -1.7397 -0.6106
  405MOL0     H55861   1.363  10.074   9.526 -0.1838  3.2241 -1.1701
  405MOL0     H55862   1.145   9.891   9.436 -2.2932  1.7096 -0.9509
  405MOL0     H55863   1.167  10.000   9.573  3.3455 -2.3999  2.1095
  405MOL0     H55864   1.100  10.096   9.285 -3.1056  4.0741  0.7595
  405MOL0     H55865   1.104  10.189   9.425 -0.4991 -0.3559  2.5662
  405MOL0     H55866   0.930   9.956   9.489 -0.2123 -0.4929 -0.6604
  405MOL0     H55867   0.906   9.999   9.330 -0.8775 -0.3366  0.1142
  405MOL0     H55868   0.912  10.256   9.489  0.7608 -0.2459  2.4766
  405MOL0     H55869   0.806  10.141   9.579 -0.5870 -2.5602 -1.6443
  405MOL0     H55870   1.653   9.680   9.802 -1.7952 -0.2987 -0.6786
  405MOL0     H55871   1.828   9.559   9.925  1.3380  0.9765  0.5063
  405MOL0     H55872   2.290   9.663  10.116  2.0735  0.1220  1.6436
  405MOL0     H55873   2.484   9.565  10.213  1.1543 -1.4316  0.5416
  405MOL0     H55874   3.520   8.238  10.609 -0.8148  0.5550  2.5964
  405MOL0     H55875   3.399   8.133  10.810 -1.2079 -0.5152  0.5066
  405MOL0     H55876   3.156   7.962  11.051  0.7396  0.5160 -0.8478
  405MOL0     H55877   3.007   7.926  11.243 -0.6320 -3.1974  0.0456
  405MOL0     H55878   2.598   7.730  11.188  0.7432  0.3277 -0.4088
  405MOL0     H55879   2.732   7.630  11.249  0.0840 -1.3087  2.2840
  405MOL0     H55880   2.573   7.780  11.456 -0.1900  0.6785 -0.7012
  405MOL0     H55881   2.691   7.651  11.472  1.1963 -0.8915 -1.3712
  405MOL0     H55882   2.507   7.518  11.318 -3.0697 -1.1254  1.4864
  405MOL0     H55883   2.458   7.558  11.479  1.0206 -0.9256 -0.1876
  405MOL0     H55884   2.399   7.747  11.247  1.5598 -1.7601 -0.6661
  405MOL0     H55885   2.322   7.742  11.411  1.6053 -0.4544  0.9679
  405MOL0     H55886   2.083   7.458  11.233 -0.9032  1.3002  0.9990
  405MOL0     H55887   2.714   7.734  10.998 -1.0236  3.0506 -0.5767
  405MOL0     H55888   2.862   7.821  10.676 -0.1875 -0.3107  0.6820
  405MOL0     H55889   2.859   7.643  10.742  1.0355 -0.4447 -0.3221
  405MOL0     H55890   2.730   7.751  10.763  0.2395 -0.7871  1.0275
  406MOL0     O55891   7.763  10.118   2.103 -0.0005 -0.3067  0.1785
  406MOL0     C55892   7.864  10.150   2.165 -0.1419 -0.4094  0.0351
  406MOL0     O55893   7.895  10.107   2.293  0.1538 -0.2389 -0.0088
  406MOL0     C55894   7.804  10.012   2.342  0.6339 -0.1826 -0.3843
  406MOL0     C55895   7.859   9.888   2.379 -0.1277 -0.8408  0.2671
  406MOL0     C55896   7.774   9.808   2.445 -0.7105 -0.6128  0.4260
  406MOL0     C55897   7.641   9.832   2.477 -0.1995 -1.2132 -0.1609
  406MOL0     O55898   7.569   9.751   2.565 -0.4011 -0.0841  0.1494
  406MOL0     C55899   7.438   9.718   2.517 -0.0553  0.4061 -0.3418
  406MOL0     C55900   7.355   9.667   2.637  0.0292  1.1169  0.9366
  406MOL0     C55901   7.254   9.562   2.595 -0.2394  0.0474 -0.1138
  406MOL0     C55902   7.171   9.516   2.719  0.4856  0.4023 -0.2505
  406MOL0     C55903   7.081   9.391   2.678 -0.0927 -1.0239 -0.2704
  406MOL0     C55904   6.974   9.332   2.775  0.6763  0.2000  0.0097
  406MOL0     C55905   7.019   9.346   2.924  0.3041 -0.0587  0.2651
  406MOL0     C55906   7.127   9.251   2.969 -0.0918  0.0013 -0.5356
  406MOL0     N55907   7.158   9.254   3.119 -0.4573 -0.7747  0.3848
  406MOL0     C55908   7.070   9.269   3.222  0.4732  0.0141  0.6352
  406MOL0     C55909   7.154   9.269   3.331 -0.4454  0.0962 -0.5857
  406MOL0     C55910   7.112   9.287   3.475  1.4159 -0.5650  0.3296
  406MOL0     C55911   7.212   9.349   3.576  0.0704  0.5235  0.5832
  406MOL0     C55912   7.231   9.496   3.567 -0.0238  0.4007 -0.8470
  406MOL0     C55913   7.286   9.562   3.704 -0.2353 -0.0236  0.2230
  406MOL0     O55914   7.292   9.709   3.700  0.2970 -0.0582 -0.0898
  406MOL0     C55915   7.396   9.772   3.633 -0.4593  0.0520 -0.1805
  406MOL0     C55916   7.380   9.906   3.602 -0.5492 -0.0455 -0.2441
  406MOL0     C55917   7.469   9.966   3.513 -0.3544 -0.2803 -0.2175
  406MOL0     C55918   7.434  10.100   3.469  0.3495  0.1736  0.8198
  406MOL0     C55919   7.586   9.898   3.465  0.1843  0.1160  1.0321
  406MOL0     C55920   7.697   9.955   3.376  0.1839  0.2024 -0.9309
  406MOL0     O55921   7.778   9.862   3.316 -0.6479  0.2150 -0.5162
  406MOL0     C55922   7.897   9.896   3.246  0.0800 -0.1658  0.3924
  406MOL0     C55923   8.010   9.810   3.244 -0.0184 -0.1850 -0.2870
  406MOL0     C55924   8.122   9.837   3.158  0.3278 -0.2217  0.5002
  406MOL0     C55925   8.121   9.953   3.074 -0.0498  0.3998  0.5649
  406MOL0     O55926   8.216   9.990   2.984 -0.3555  0.1643 -0.2633
  406MOL0     C55927   8.331   9.908   2.971 -0.5115 -0.0558 -0.0124
  406MOL0     C55928   8.411   9.954   2.845 -0.0034  0.3270 -0.8441
  406MOL0     C55929   8.327   9.945   2.722  0.4512 -0.0836  0.0025
  406MOL0     C55930   8.281   9.798   2.698 -0.6425  0.1263  0.2847
  406MOL0     C55931   8.273   9.770   2.541 -0.6521 -0.9713  0.1511
  406MOL0     C55932   8.163   9.672   2.511  0.3783 -0.1335  0.4263
  406MOL0     C55933   8.161   9.542   2.590 -0.1065 -0.1459  0.9046
  406MOL0     C55934   8.112   9.421   2.517  0.8972  0.3273  0.0142
  406MOL0    Cl55935   8.098   9.280   2.622 -0.4340 -0.1767  0.0026
  406MOL0     C55936   8.014  10.042   3.083 -0.5590  0.1449 -0.5164
  406MOL0     C55937   7.897  10.012   3.160  0.1900  1.6147  0.5585
  406MOL0     O55938   7.719  10.074   3.372 -0.3184 -0.0871 -0.2300
  406MOL0     C55939   7.610   9.772   3.520  0.4350 -0.1848  0.5528
  406MOL0     C55940   7.516   9.701   3.599 -0.2707  0.4410 -0.3779
  406MOL0     N55941   7.283   9.276   3.284 -0.1048  0.0755  0.0807
  406MOL0     N55942   7.289   9.264   3.159 -0.0211  0.2773  0.7429
  406MOL0     C55943   7.581   9.956   2.429  0.2205 -0.6495 -0.2652
  406MOL0     C55944   7.668  10.049   2.364  0.4731 -0.1206 -0.0455
  406MOL0     C55945   7.933  10.279   2.122 -0.8029  0.1928 -0.7128
  406MOL0     C55946   8.011  10.357   2.210 -0.1928  1.1416 -0.4377
  406MOL0     C55947   8.068  10.475   2.173  0.0123  0.8054 -0.2928
  406MOL0     C55948   8.074  10.518   2.040 -0.1431  0.4757  0.2787
  406MOL0     O55949   8.145  10.633   2.017 -0.2521 -0.6802  0.6057
  406MOL0     C55950   8.155  10.706   1.895  0.6403  1.1084 -0.1651
  406MOL0     C55951   8.196  10.850   1.929  0.2800  0.3519 -0.1449
  406MOL0     C55952   8.323  10.856   2.011 -0.4211  0.4290 -0.0384
  406MOL0     C55953   8.352  11.001   2.068 -0.5284  0.4959 -0.0143
  406MOL0     C55954   8.377  11.091   1.949  1.0919 -0.3473 -0.1107
  406MOL0     C55955   8.384  11.160   1.848  0.1910  0.2961 -0.3466
  406MOL0     C55956   8.012  10.433   1.947  0.0422  0.3172  0.2029
  406MOL0     C55957   7.934  10.321   1.984 -0.4810 -0.5666 -0.2347
  406MOL0     C55958   7.873  10.257   1.869 -0.1209  0.4635  0.4169
  406MOL0     H55959   7.967   9.877   2.376  0.7762  4.3529  2.4850
  406MOL0     H55960   7.812   9.714   2.483  1.2349 -1.5639 -3.3459
  406MOL0     H55961   7.449   9.632   2.450  1.6419  0.3562 -0.0323
  406MOL0     H55962   7.381   9.792   2.459 -1.0134 -0.0699 -0.0180
  406MOL0     H55963   7.429   9.628   2.707  1.0310  0.9455 -0.1760
  406MOL0     H55964   7.298   9.748   2.684 -1.8412 -1.3383  3.2674
  406MOL0     H55965   7.187   9.616   2.528  0.3415  2.0248  0.8370
  406MOL0     H55966   7.305   9.483   2.540 -0.9970  0.6010 -1.6492
  406MOL0     H55967   7.243   9.495   2.799  1.6378 -0.1441 -1.3797
  406MOL0     H55968   7.113   9.604   2.746  1.5583  0.5197  1.9139
  406MOL0     H55969   7.138   9.307   2.638  1.9816 -0.1228  0.6491
  406MOL0     H55970   7.028   9.430   2.590 -2.1758  2.7006  2.3243
  406MOL0     H55971   6.871   9.367   2.768 -0.1160 -1.4995  2.0079
  406MOL0     H55972   6.956   9.226   2.753  0.8329 -0.1562  1.4570
  406MOL0     H55973   6.931   9.324   2.986  0.0264  0.9269  0.2409
  406MOL0     H55974   7.048   9.450   2.943  0.4428  0.0393 -0.4531
  406MOL0     H55975   7.087   9.150   2.959 -1.1846  0.2503  0.8953
  406MOL0     H55976   7.220   9.260   2.912  1.2795  0.7299  1.6926
  406MOL0     H55977   6.964   9.291   3.215  0.5650  0.2717 -0.0614
  406MOL0     H55978   7.087   9.187   3.510 -0.0015 -0.5930 -0.6765
  406MOL0     H55979   7.019   9.344   3.472  0.7350 -1.6860 -0.9893
  406MOL0     H55980   7.178   9.319   3.675 -3.0239 -0.4845 -0.6537
  406MOL0     H55981   7.304   9.291   3.567 -0.3667 -0.1110  0.1192
  406MOL0     H55982   7.308   9.520   3.493 -0.4164 -0.8065 -1.6771
  406MOL0     H55983   7.133   9.537   3.539  0.6966  1.6382 -1.6960
  406MOL0     H55984   7.222   9.522   3.784  0.1050 -0.5117  0.2500
  406MOL0     H55985   7.384   9.518   3.726  0.2912  2.2188  3.1052
  406MOL0     H55986   7.299   9.963   3.645 -1.2011  0.2073 -1.7616
  406MOL0     H55987   7.363  10.155   3.531 -1.2388  0.0112 -0.7661
  406MOL0     H55988   7.385  10.101   3.371  2.7236  0.7487 -0.4288
  406MOL0     H55989   7.514  10.174   3.467  0.5975  0.0895 -3.5261
  406MOL0     H55990   8.006   9.721   3.305 -1.2285  1.7540  2.6915
  406MOL0     H55991   8.210   9.774   3.154 -0.3780 -1.1970 -2.5083
  406MOL0     H55992   8.399   9.921   3.055 -1.0018  1.2647  0.2117
  406MOL0     H55993   8.314   9.801   2.955  0.3820 -0.1288 -0.5064
  406MOL0     H55994   8.434  10.061   2.849  1.1527  0.1573 -2.3867
  406MOL0     H55995   8.502   9.894   2.841  2.5212  3.5215  2.1790
  406MOL0     H55996   8.385   9.979   2.636 -0.6958 -1.0629 -1.2000
  406MOL0     H55997   8.236  10.006   2.732  0.8546  0.4977  0.1764
  406MOL0     H55998   8.196   9.765   2.757 -1.1783 -0.3561 -0.7267
  406MOL0     H55999   8.357   9.728   2.731  0.1657  1.2143  0.8106
  406MOL0     H56000   8.234   9.861   2.494 -2.6361 -1.9106 -0.1197
  406MOL0     H56001   8.370   9.737   2.503 -1.0700 -0.5193 -1.3810
  406MOL0     H56002   8.164   9.639   2.407 -2.8275  1.8512 -0.3841
  406MOL0     H56003   8.072   9.732   2.525  1.1446  1.0525  0.4278
  406MOL0     H56004   8.098   9.559   2.679 -1.7032 -1.2027  0.0174
  406MOL0     H56005   8.257   9.513   2.633  0.0012 -0.5192  0.4094
  406MOL0     H56006   8.175   9.396   2.431 -0.5948 -3.2710 -0.2316
  406MOL0     H56007   8.014   9.449   2.478  0.6022 -2.2283 -1.3207
  406MOL0     H56008   8.012  10.140   3.037 -0.1350  0.6558  0.5242
  406MOL0     H56009   7.815  10.083   3.154  1.7366  3.4720  0.4266
  406MOL0     H56010   7.701   9.718   3.496 -0.7655 -1.2544 -1.9416
  406MOL0     H56011   7.541   9.601   3.633 -0.9248 -0.0077 -1.1768
  406MOL0     H56012   7.481   9.989   2.455  0.6483 -1.5538  2.9908
  406MOL0     H56013   7.626  10.143   2.330 -0.0150  0.0195  0.8975
  406MOL0     H56014   8.023  10.343   2.317 -1.0767 -2.5269 -0.6933
  406MOL0     H56015   8.111  10.521   2.261  0.2416  0.4102 -0.1991
  406MOL0     H56016   8.218  10.668   1.814  1.8094 -0.5565  1.4267
  406MOL0     H56017   8.052  10.702   1.860  0.6809 -2.7288 -0.2821
  406MOL0     H56018   8.118  10.905   1.981 -0.1312  1.8030 -2.2047
  406MOL0     H56019   8.201  10.903   1.833  1.4381 -0.3652 -0.5103
  406MOL0     H56020   8.321  10.783   2.092  0.7056 -0.9290 -1.1818
  406MOL0     H56021   8.406  10.834   1.944 -0.8411  4.2339 -2.0951
  406MOL0     H56022   8.438  11.020   2.133 -0.3250  0.6407 -0.3201
  406MOL0     H56023   8.264  11.024   2.128 -2.2867 -1.9606 -1.4621
  406MOL0     H56024   8.405  11.237   1.778 -0.8037  0.9107  0.0075
  406MOL0     H56025   8.011  10.466   1.843 -3.6230  1.5633  0.5149
  406MOL0     H56026   7.893  10.305   1.773  0.2602 -1.9478 -0.7777
  406MOL0     H56027   7.888  10.149   1.862 -2.3875  0.2089 -3.2086
  406MOL0     H56028   7.766  10.271   1.888  0.3489  4.4072  1.0394
  407MOL0     O56029   8.714   8.645   1.463  0.3708  0.7430 -0.2118
  407MOL0     C56030   8.698   8.596   1.350  0.3156  0.1705  0.1737
  407MOL0     O56031   8.799   8.528   1.286 -0.5310  0.1309  0.1993
  407MOL0     C56032   8.914   8.506   1.359  1.2356 -0.4653  0.1144
  407MOL0     C56033   9.004   8.610   1.393  0.1346 -1.0509 -1.2169
  407MOL0     C56034   9.127   8.578   1.449  0.0402  0.4606 -0.6965
  407MOL0     C56035   9.174   8.448   1.485  0.2263  0.0498  0.1820
  407MOL0     O56036   9.292   8.419   1.551  0.3552  0.5249 -0.6854
  407MOL0     C56037   9.400   8.513   1.555  0.2310  0.3266 -0.2270
  407MOL0     C56038   9.529   8.432   1.555  0.0953 -0.8704 -0.1529
  407MOL0     C56039   9.658   8.521   1.552 -0.4764  0.4404 -0.4816
  407MOL0     C56040   9.774   8.441   1.613  0.6159  0.0916 -0.0062
  407MOL0     C56041   9.903   8.527   1.618 -0.7656  0.9951 -0.5357
  407MOL0     C56042   9.967   8.549   1.487 -0.4338  0.1785 -1.1346
  407MOL0     C56043  10.110   8.602   1.506  0.3247 -0.1311 -0.8038
  407MOL0     C56044  10.206   8.595   1.384 -0.7665  0.6518 -0.0728
  407MOL0     N56045  10.337   8.658   1.426  0.5765  0.5498 -0.3381
  407MOL0     C56046  10.358   8.788   1.417 -0.3394 -0.0959 -0.3167
  407MOL0     C56047  10.457   8.798   1.507  0.5820 -0.1131  0.2617
  407MOL0     C56048  10.511   8.926   1.556  0.3934 -0.8112 -0.4047
  407MOL0     C56049  10.412   8.999   1.648  0.0530  1.4508 -0.4220
  407MOL0     C56050  10.352   8.890   1.749 -0.8859  0.0492 -0.2582
  407MOL0     C56051  10.273   8.944   1.868 -0.1221 -0.1681  0.3612
  407MOL0     O56052  10.336   9.058   1.920 -0.6404 -0.0929 -1.3002
  407MOL0     C56053  10.251   9.117   2.022 -0.1975 -0.3042 -0.6618
  407MOL0     C56054  10.294   9.242   2.073 -0.3096  0.6516  0.3275
  407MOL0     C56055  10.201   9.322   2.146 -0.4913 -0.0403 -0.5658
  407MOL0     C56056  10.252   9.459   2.192  0.9834 -0.1998 -0.1552
  407MOL0     C56057  10.085   9.269   2.197 -0.6691  0.2126  0.1117
  407MOL0     C56058   9.984   9.335   2.284  0.0929 -0.1319  1.0292
  407MOL0     O56059  10.028   9.355   2.414  0.5802 -0.1370 -0.4163
  407MOL0     C56060   9.931   9.416   2.494  0.3408 -0.4416 -0.1568
  407MOL0     C56061   9.814   9.349   2.536 -0.2200  0.2931 -0.2068
  407MOL0     C56062   9.732   9.421   2.620 -0.6914  0.4397  0.3346
  407MOL0     C56063   9.766   9.551   2.670  0.1424 -0.4606  0.4841
  407MOL0     O56064   9.677   9.622   2.738 -0.3979  0.0251 -0.2533
  407MOL0     C56065   9.708   9.648   2.874 -0.1518 -0.2521  0.9042
  407MOL0     C56066   9.648   9.775   2.933  0.9835 -0.2901 -0.0285
  407MOL0     C56067   9.672   9.769   3.083  0.1401  0.8875  0.6816
  407MOL0     C56068   9.665   9.902   3.150 -0.1394 -0.0834 -0.1366
  407MOL0     C56069   9.671   9.888   3.306 -0.2461  0.3410 -0.4998
  407MOL0     C56070   9.543   9.825   3.371  0.3639  0.2119  0.6821
  407MOL0     C56071   9.411   9.901   3.335  0.1433  0.1179  0.3971
  407MOL0     C56072   9.416  10.049   3.371  0.2948 -0.1661  0.2782
  407MOL0    Cl56073   9.398  10.073   3.538  0.1602 -0.1265 -0.3211
  407MOL0     C56074   9.875   9.617   2.630  0.1314  0.3626  0.1334
  407MOL0     C56075   9.968   9.547   2.544  0.7857  0.3028  0.1528
  407MOL0     O56076   9.866   9.347   2.244  0.0394  0.0296 -0.4073
  407MOL0     C56077  10.063   9.138   2.170 -0.3122 -0.4326 -0.4748
  407MOL0     C56078  10.140   9.054   2.088 -0.2386  0.0304  0.0692
  407MOL0     N56079  10.504   8.678   1.553  0.0130  0.2873  0.1007
  407MOL0     N56080  10.424   8.595   1.507 -0.0105 -0.4491  0.0865
  407MOL0     C56081   9.078   8.344   1.462 -0.2707  0.1679 -0.6392
  407MOL0     C56082   8.955   8.374   1.394  0.6224  0.0403 -0.4060
  407MOL0     C56083   8.564   8.616   1.287 -0.3311 -0.1133  0.3301
  407MOL0     C56084   8.499   8.738   1.293  0.4468  0.1507  0.4815
  407MOL0     C56085   8.401   8.773   1.213  0.5575 -0.7836  0.7607
  407MOL0     C56086   8.334   8.674   1.139 -0.6974  0.2040 -0.5187
  407MOL0     O56087   8.227   8.689   1.046  0.2195 -0.4952 -0.7588
  407MOL0     C56088   8.161   8.818   1.046 -0.3782  0.3257 -0.3057
  407MOL0     C56089   8.080   8.856   1.163 -0.3867  0.1748  0.9648
  407MOL0     C56090   7.973   8.760   1.209 -0.3150 -0.7448 -0.4090
  407MOL0     C56091   7.841   8.749   1.125 -0.1936 -0.4484 -0.5156
  407MOL0     C56092   7.775   8.879   1.107 -0.2725  0.0116 -0.1898
  407MOL0     C56093   7.706   8.979   1.119 -0.3451 -0.0231 -0.6459
  407MOL0     C56094   8.390   8.544   1.141  0.0423  0.3993 -0.9141
  407MOL0     C56095   8.504   8.519   1.204 -0.7155  1.0600 -0.0873
  407MOL0     C56096   8.554   8.376   1.197 -1.1855 -0.2424  0.7336
  407MOL0     H56097   8.977   8.715   1.386  0.1868 -1.0192 -0.9502
  407MOL0     H56098   9.181   8.667   1.477 -2.3460  1.6941  0.2587
  407MOL0     H56099   9.397   8.581   1.641 -0.2845  1.3947 -1.0633
  407MOL0     H56100   9.404   8.564   1.458 -1.7731 -0.0582 -0.5572
  407MOL0     H56101   9.523   8.357   1.635 -0.9076 -1.2689 -0.5817
  407MOL0     H56102   9.534   8.382   1.458  1.3806  1.8507 -1.6110
  407MOL0     H56103   9.674   8.547   1.448 -1.7801 -0.6831 -1.0021
  407MOL0     H56104   9.635   8.611   1.610  1.1775  0.6687 -0.1394
  407MOL0     H56105   9.739   8.398   1.707 -1.7470  0.2574 -0.7543
  407MOL0     H56106   9.784   8.360   1.539 -2.4919  0.3658 -0.8553
  407MOL0     H56107   9.968   8.485   1.695 -0.6092  2.3996  0.1423
  407MOL0     H56108   9.874   8.626   1.656 -3.6660  0.0662 -0.0282
  407MOL0     H56109   9.971   8.452   1.437  1.5198 -1.0373  1.1474
  407MOL0     H56110   9.908   8.614   1.423 -4.1844 -2.8969 -1.1217
  407MOL0     H56111  10.153   8.550   1.592  0.6152 -0.6795 -1.2704
  407MOL0     H56112  10.095   8.700   1.552  1.2022 -0.8240  1.0526
  407MOL0     H56113  10.220   8.490   1.355  1.8110  0.3888  1.8644
  407MOL0     H56114  10.158   8.642   1.297 -4.0243 -1.1951  0.5563
  407MOL0     H56115  10.308   8.872   1.369 -0.8421  0.7696  1.6437
  407MOL0     H56116  10.542   8.995   1.477 -3.0405  2.4867  0.8260
  407MOL0     H56117  10.599   8.908   1.619  1.0613  0.1056 -1.0488
  407MOL0     H56118  10.452   9.078   1.711  1.4213  1.8806 -1.7717
  407MOL0     H56119  10.337   9.050   1.587  0.3392 -0.6407 -2.7204
  407MOL0     H56120  10.293   8.817   1.692  0.5519 -1.2497 -0.1430
  407MOL0     H56121  10.431   8.832   1.797 -1.9933  0.3691  2.1493
  407MOL0     H56122  10.169   8.957   1.837 -0.0908 -0.1932  0.2458
  407MOL0     H56123  10.282   8.863   1.941  1.0639 -0.6333 -0.2753
  407MOL0     H56124  10.383   9.292   2.035  0.2782 -0.7045 -0.1521
  407MOL0     H56125  10.287   9.444   2.294  0.6029 -1.6603 -0.2120
  407MOL0     H56126  10.169   9.528   2.179 -1.5715 -2.5697  2.2907
  407MOL0     H56127  10.338   9.495   2.133 -1.0143  2.7084 -1.5046
  407MOL0     H56128   9.786   9.249   2.505 -1.3012  0.2613  0.8153
  407MOL0     H56129   9.631   9.387   2.642 -0.6777  0.6842  0.7730
  407MOL0     H56130   9.655   9.573   2.934 -0.3152  0.4724  1.6895
  407MOL0     H56131   9.816   9.638   2.885  0.0138 -0.1574 -0.4635
  407MOL0     H56132   9.692   9.862   2.885 -1.8994 -0.5090 -3.4395
  407MOL0     H56133   9.542   9.777   2.908  1.1516 -3.0442 -1.3627
  407MOL0     H56134   9.771   9.728   3.106 -0.4451  0.0243  1.7716
  407MOL0     H56135   9.621   9.685   3.131  3.8259 -1.3543  1.0523
  407MOL0     H56136   9.579   9.961   3.117 -1.8247 -1.3241  1.8114
  407MOL0     H56137   9.751   9.956   3.109 -0.8723  2.1530  1.0712
  407MOL0     H56138   9.759   9.833   3.342 -1.0594  0.1085  1.2501
  407MOL0     H56139   9.687   9.988   3.346 -0.2078  1.1964 -2.5455
  407MOL0     H56140   9.553   9.826   3.480  1.9677 -2.1010  0.6204
  407MOL0     H56141   9.531   9.720   3.343 -0.3292  0.6350 -0.7090
  407MOL0     H56142   9.335   9.864   3.405 -0.5524  1.4528  0.3819
  407MOL0     H56143   9.388   9.883   3.229  1.4383  0.8196 -0.0193
  407MOL0     H56144   9.338  10.107   3.319 -1.0874 -3.2444 -1.3151
  407MOL0     H56145   9.509  10.102   3.348 -0.2911  0.2714 -1.2585
  407MOL0     H56146   9.899   9.715   2.668 -1.2784  1.1969 -1.0470
  407MOL0     H56147  10.056   9.606   2.521  0.6112  0.2886 -0.5634
  407MOL0     H56148   9.976   9.090   2.213  0.1537 -1.2444 -0.4255
  407MOL0     H56149  10.120   8.949   2.069  4.0077 -0.8970 -0.3478
  407MOL0     H56150   9.093   8.245   1.505  0.5485  1.8824  3.4969
  407MOL0     H56151   8.883   8.295   1.377  0.3760 -0.1237  1.2178
  407MOL0     H56152   8.543   8.804   1.368 -0.3566 -3.0973  4.1817
  407MOL0     H56153   8.377   8.878   1.227 -0.0119 -0.9361  0.9725
  407MOL0     H56154   8.244   8.889   1.040 -1.3835  1.5696  0.1318
  407MOL0     H56155   8.104   8.834   0.954  1.0307  3.7708 -0.7193
  407MOL0     H56156   8.031   8.950   1.139 -1.0475 -0.0938  1.2429
  407MOL0     H56157   8.144   8.878   1.249 -0.3876 -1.2081  1.3436
  407MOL0     H56158   8.028   8.665   1.217  1.7756  0.5565  2.9166
  407MOL0     H56159   7.943   8.793   1.309  2.7076 -0.7792  0.6294
  407MOL0     H56160   7.762   8.684   1.163 -2.1571  1.6586 -0.7732
  407MOL0     H56161   7.862   8.704   1.028 -2.8203  0.8074 -1.7782
  407MOL0     H56162   7.649   9.069   1.133  0.4358  0.5136 -0.8061
  407MOL0     H56163   8.345   8.467   1.079  2.4380 -0.3293 -1.8744
  407MOL0     H56164   8.599   8.360   1.099 -0.0216  0.3151  1.1596
  407MOL0     H56165   8.633   8.354   1.269 -0.9649 -0.0398  0.5541
  407MOL0     H56166   8.480   8.303   1.231  1.0326 -2.7788  0.3668
  408MOL0     O56167   6.448   9.058   3.663  0.8674 -0.0560  0.0545
  408MOL0     C56168   6.471   9.143   3.575  0.4113 -0.0256 -0.7601
  408MOL0     O56169   6.590   9.198   3.548  0.0891 -0.2316 -0.0855
  408MOL0     C56170   6.705   9.169   3.615 -0.0016 -0.5861 -0.7732
  408MOL0     C56171   6.778   9.041   3.598 -0.2283 -0.6397  0.0807
  408MOL0     C56172   6.903   9.033   3.664 -0.5811 -0.8782  0.1288
  408MOL0     C56173   6.953   9.135   3.755 -0.3375  0.5393  0.8884
  408MOL0     O56174   7.089   9.137   3.802  0.8726 -0.9711 -0.2426
  408MOL0     C56175   7.143   9.008   3.816  0.5172 -0.3546  0.5301
  408MOL0     C56176   7.269   8.995   3.901  0.3657  0.6630 -0.2293
  408MOL0     C56177   7.390   9.065   3.831  0.2177  0.2192  0.1754
  408MOL0     C56178   7.509   9.099   3.935  0.5365  0.3020  1.1603
  408MOL0     C56179   7.626   9.174   3.870  0.4698  0.0671  0.9026
  408MOL0     C56180   7.723   9.238   3.975 -0.2383  0.3621  0.5225
  408MOL0     C56181   7.805   9.127   4.044  0.5579  0.4820 -0.3323
  408MOL0     C56182   7.919   9.179   4.124  0.2705 -0.1821  0.2394
  408MOL0     N56183   8.019   9.241   4.044 -0.1563  0.6464  0.6325
  408MOL0     C56184   8.103   9.185   3.947 -0.1218 -0.3961  0.0137
  408MOL0     C56185   8.155   9.296   3.888 -0.5678  0.2831  0.0231
  408MOL0     C56186   8.254   9.287   3.772  0.3675  0.4195  0.3463
  408MOL0     C56187   8.390   9.350   3.807 -0.0114 -0.2321  0.0045
  408MOL0     C56188   8.473   9.327   3.685 -0.0533 -0.1422  1.2044
  408MOL0     C56189   8.595   9.427   3.669  1.0376  0.6215  0.0097
  408MOL0     O56190   8.715   9.384   3.738  0.1903  0.4726  0.1538
  408MOL0     C56191   8.827   9.463   3.731 -1.1141  0.2495 -1.1479
  408MOL0     C56192   8.844   9.581   3.654  0.0336 -0.4639  1.4182
  408MOL0     C56193   8.964   9.650   3.636  0.4844 -0.3098 -0.1217
  408MOL0     C56194   8.964   9.773   3.544  1.2349  0.1164  0.8492
  408MOL0     C56195   9.076   9.592   3.695 -0.1678 -0.0745  0.2831
  408MOL0     C56196   9.210   9.655   3.701 -0.6232  0.2078 -0.4980
  408MOL0     O56197   9.321   9.572   3.732 -0.7694 -0.5059  0.2954
  408MOL0     C56198   9.449   9.615   3.746 -0.1106  0.1926  0.1689
  408MOL0     C56199   9.534   9.518   3.783  0.1959  0.4829  0.1056
  408MOL0     C56200   9.675   9.534   3.801  0.9929  0.2182 -0.0550
  408MOL0     C56201   9.729   9.658   3.764 -0.3149 -0.2942  0.1083
  408MOL0     O56202   9.860   9.680   3.764 -0.2384 -0.4696  0.5112
  408MOL0     C56203   9.899   9.774   3.869 -0.7043 -0.6385  0.4758
  408MOL0     C56204  10.045   9.790   3.877 -0.4572 -0.6336 -0.5881
  408MOL0     C56205  10.113   9.663   3.937 -0.2552  0.5289  0.5005
  408MOL0     C56206  10.261   9.695   3.969  0.5886  0.1776  0.2914
  408MOL0     C56207  10.338   9.574   4.024  0.1189  0.3134 -0.5729
  408MOL0     C56208  10.486   9.607   4.023 -0.8238 -0.2232  0.1264
  408MOL0     C56209  10.555   9.470   4.067 -0.6449  0.3668  0.2847
  408MOL0     C56210  10.708   9.478   4.050  0.2813 -0.2533 -0.5963
  408MOL0    Cl56211  10.758   9.610   4.167 -0.3270 -0.2878 -0.4739
  408MOL0     C56212   9.646   9.757   3.722 -0.5189  0.2210  0.4477
  408MOL0     C56213   9.500   9.744   3.730 -0.0598  0.3336 -0.5803
  408MOL0     O56214   9.218   9.770   3.659  0.3731 -0.3950  0.1999
  408MOL0     C56215   9.064   9.471   3.769  0.5361  0.6530 -0.5528
  408MOL0     C56216   8.941   9.404   3.790 -1.3046  0.0839  0.0445
  408MOL0     N56217   8.125   9.405   3.965  0.4216 -0.2363 -0.0189
  408MOL0     N56218   8.050   9.371   4.060 -0.0501 -0.2370  0.6431
  408MOL0     C56219   6.879   9.247   3.774  0.3658 -0.7899  0.5127
  408MOL0     C56220   6.761   9.269   3.697 -0.5984  0.0685 -0.1542
  408MOL0     C56221   6.360   9.216   3.515  0.1873 -0.2174 -0.4856
  408MOL0     C56222   6.352   9.234   3.382 -0.1757 -0.9102  0.2912
  408MOL0     C56223   6.233   9.293   3.331  0.2518 -0.2967 -0.2715
  408MOL0     C56224   6.128   9.320   3.414  0.5496 -0.2248 -1.5505
  408MOL0     O56225   6.010   9.371   3.361  0.0786  0.1570  0.7085
  408MOL0     C56226   5.931   9.463   3.444  0.2424  0.0071  0.5880
  408MOL0     C56227   5.819   9.539   3.373  0.1903  0.5324  0.3441
  408MOL0     C56228   5.868   9.618   3.256 -0.3944  0.4833 -0.2053
  408MOL0     C56229   5.760   9.656   3.160  0.4266  0.0996  0.4604
  408MOL0     C56230   5.814   9.754   3.072  0.7040  0.2266 -0.3124
  408MOL0     C56231   5.854   9.837   2.998  0.7545 -0.1465 -1.2566
  408MOL0     C56232   6.140   9.296   3.547 -0.7148  0.1525  0.1337
  408MOL0     C56233   6.257   9.254   3.601  0.1268  0.1889 -0.2139
  408MOL0     C56234   6.259   9.256   3.758  0.3637 -0.8016  0.6706
  408MOL0     H56235   6.731   8.966   3.536 -1.4471 -1.1819  1.5914
  408MOL0     H56236   6.964   8.945   3.646  0.7664  0.1143 -0.3795
  408MOL0     H56237   7.178   8.975   3.718 -0.4524  0.1828 -0.0084
  408MOL0     H56238   7.073   8.933   3.854 -1.7446 -0.0272 -2.6089
  408MOL0     H56239   7.246   9.048   3.994 -1.9264  1.3601 -1.1282
  408MOL0     H56240   7.289   8.889   3.916 -2.0854  0.2015  0.0487
  408MOL0     H56241   7.428   8.999   3.752 -0.1332 -1.5492  1.4284
  408MOL0     H56242   7.350   9.160   3.792 -3.1833 -0.6787  1.1271
  408MOL0     H56243   7.474   9.155   4.022 -1.8720  0.4804  0.1490
  408MOL0     H56244   7.546   9.004   3.975 -1.5217 -0.3221  1.6711
  408MOL0     H56245   7.581   9.260   3.818 -1.6858 -1.9248 -0.7645
  408MOL0     H56246   7.685   9.116   3.797  1.2086  1.6029  0.2277
  408MOL0     H56247   7.790   9.307   3.922  0.1069 -0.8126 -0.6273
  408MOL0     H56248   7.663   9.296   4.046  0.8561  2.3712 -0.1262
  408MOL0     H56249   7.842   9.060   3.967  1.7325  0.0747  0.5617
  408MOL0     H56250   7.740   9.069   4.110  0.1643  0.6288 -0.5877
  408MOL0     H56251   7.877   9.249   4.197 -2.8465 -0.6553 -0.9348
  408MOL0     H56252   7.966   9.102   4.185  0.7789 -1.6895 -1.9238
  408MOL0     H56253   8.130   9.081   3.933  0.3948  0.0060 -2.4310
  408MOL0     H56254   8.205   9.335   3.688 -1.3364 -1.0016  0.4795
  408MOL0     H56255   8.272   9.183   3.744 -0.9510  0.8044 -2.1804
  408MOL0     H56256   8.385   9.459   3.818  0.3677 -0.3283  1.2790
  408MOL0     H56257   8.435   9.303   3.895 -1.2913  0.4786  1.0756
  408MOL0     H56258   8.506   9.223   3.673 -2.7155 -0.9992  0.7634
  408MOL0     H56259   8.408   9.353   3.601  0.3271 -0.9292  0.6477
  408MOL0     H56260   8.610   9.423   3.560 -0.7719  1.8614 -0.3280
  408MOL0     H56261   8.562   9.529   3.689  1.8458  1.1014 -1.0114
  408MOL0     H56262   8.755   9.633   3.620  0.8822  0.3627  0.3878
  408MOL0     H56263   8.863   9.780   3.503  1.3686 -1.9672  0.0506
  408MOL0     H56264   9.032   9.754   3.460  0.9837  0.2338  0.6198
  408MOL0     H56265   8.998   9.861   3.599  3.1147  0.3897 -0.6178
  408MOL0     H56266   9.493   9.420   3.805 -0.6477  0.2135 -2.3865
  408MOL0     H56267   9.741   9.452   3.830 -2.2679 -2.6385  0.0147
  408MOL0     H56268   9.863   9.874   3.846 -0.6943 -1.3257 -3.2485
  408MOL0     H56269   9.860   9.747   3.968  0.9650  0.0030  1.3403
  408MOL0     H56270  10.093   9.802   3.780  1.3345  0.6172  0.3819
  408MOL0     H56271  10.059   9.885   3.930  2.9880  0.0481 -2.4235
  408MOL0     H56272  10.102   9.575   3.874  0.8520 -0.4878  1.6608
  408MOL0     H56273  10.051   9.644   4.025 -1.3986 -0.7457 -0.5365
  408MOL0     H56274  10.265   9.775   4.043  0.2647 -0.0694  0.5774
  408MOL0     H56275  10.305   9.729   3.875  1.0710  2.6520  1.3344
  408MOL0     H56276  10.306   9.545   4.125  2.1843 -1.5332 -0.3612
  408MOL0     H56277  10.318   9.484   3.966 -0.1311 -0.1214  0.1708
  408MOL0     H56278  10.509   9.697   4.080  0.7296  0.1734 -1.0464
  408MOL0     H56279  10.522   9.624   3.921  0.7934  3.7344  1.1880
  408MOL0     H56280  10.519   9.384   4.011  2.4381 -0.1315 -1.1221
  408MOL0     H56281  10.537   9.449   4.173 -0.1495 -3.5591 -0.2702
  408MOL0     H56282  10.733   9.509   3.948 -2.5665  0.6745 -1.1230
  408MOL0     H56283  10.757   9.385   4.080  0.6719  0.1373 -0.0049
  408MOL0     H56284   9.691   9.841   3.670  0.5042  0.5224  1.7837
  408MOL0     H56285   9.431   9.827   3.717 -3.2115 -1.6609  1.6928
  408MOL0     H56286   9.148   9.428   3.822 -1.4138 -2.2287  0.4586
  408MOL0     H56287   8.942   9.313   3.848  2.4688  0.0968  0.2605
  408MOL0     H56288   6.916   9.325   3.840 -1.8541  0.8118 -0.0325
  408MOL0     H56289   6.708   9.363   3.711  1.2348  1.3700 -1.4971
  408MOL0     H56290   6.436   9.202   3.322 -0.0896 -0.5320  0.2047
  408MOL0     H56291   6.236   9.330   3.229 -0.7179  1.0320  0.1651
  408MOL0     H56292   5.882   9.405   3.523 -1.2336  1.1351  0.5338
  408MOL0     H56293   6.004   9.536   3.481  1.2593 -1.1226  0.8832
  408MOL0     H56294   5.780   9.611   3.445 -0.1417  1.9918 -1.2180
  408MOL0     H56295   5.736   9.469   3.354 -1.2574  1.8960  1.4271
  408MOL0     H56296   5.920   9.705   3.295 -0.9964  0.4101  0.7986
  408MOL0     H56297   5.946   9.567   3.198 -0.9857  0.3614 -0.9211
  408MOL0     H56298   5.671   9.704   3.202 -1.1383 -2.8540  0.7554
  408MOL0     H56299   5.727   9.570   3.102  1.7820 -0.3762  0.3644
  408MOL0     H56300   5.895   9.924   2.951 -0.7855 -1.0172 -4.5111
  408MOL0     H56301   6.063   9.304   3.623  1.7673  0.3267  2.7780
  408MOL0     H56302   6.237   9.160   3.806  1.8139 -1.7205 -0.4170
  408MOL0     H56303   6.356   9.298   3.787  1.5871 -0.9818 -2.7552
  408MOL0     H56304   6.192   9.330   3.802  1.0661 -0.3654  1.0414
  409MOL0     O56305   8.187   0.137   8.129 -0.0633  0.1031 -0.6801
  409MOL0     C56306   8.161   0.034   8.067  0.9176 -0.0388  0.5302
  409MOL0     O56307   8.252  -0.036   7.991 -0.5674  0.3102 -0.8356
  409MOL0     C56308   8.377   0.012   7.985 -0.6900  0.9455  1.1253
  409MOL0     C56309   8.415   0.057   7.856 -0.6672  0.5366  0.4435
  409MOL0     C56310   8.550   0.092   7.848 -0.5868 -0.2381  0.2978
  409MOL0     C56311   8.642   0.090   7.953 -0.0538 -0.2177  0.7458
  409MOL0     O56312   8.770   0.144   7.923 -0.6774  0.2711 -0.0612
  409MOL0     C56313   8.818   0.266   7.993  0.3804  0.5546  0.4329
  409MOL0     C56314   8.972   0.271   7.975 -0.3281 -0.0276 -0.6436
  409MOL0     C56315   9.025   0.283   7.831 -0.1815 -0.1397  0.0186
  409MOL0     C56316   9.158   0.208   7.824  0.3281 -0.1173 -0.0737
  409MOL0     C56317   9.238   0.264   7.705 -0.6826 -0.5590  0.0881
  409MOL0     C56318   9.388   0.226   7.699 -0.1450 -0.1725  0.5808
  409MOL0     C56319   9.435   0.232   7.547 -0.6161 -0.4104  0.5633
  409MOL0     C56320   9.588   0.200   7.553 -0.4135 -0.9529 -0.2197
  409MOL0     N56321   9.644   0.172   7.417  0.1772 -0.0677 -0.8385
  409MOL0     C56322   9.681   0.047   7.374 -0.5338  0.3122  0.0016
  409MOL0     C56323   9.706   0.055   7.242  0.4551 -0.2207 -0.4844
  409MOL0     C56324   9.758  -0.055   7.155 -0.6446  0.0771 -0.6354
  409MOL0     C56325   9.655  -0.084   7.048  0.1872  0.3827  0.2277
  409MOL0     C56326   9.710  -0.205   6.966  0.6912 -0.1075  0.1454
  409MOL0     C56327   9.843  -0.189   6.894 -0.2229  0.2952  0.0314
  409MOL0     O56328   9.866  -0.061   6.872  0.2440 -1.5205 -0.1645
  409MOL0     C56329   9.998  -0.014   6.844  0.9942  0.2480  0.6631
  409MOL0     C56330  10.011   0.121   6.813 -0.2793 -0.7318  0.2190
  409MOL0     C56331  10.134   0.190   6.802 -0.2527  0.2425 -0.1501
  409MOL0     C56332  10.126   0.340   6.794 -0.7135  0.7180  0.8127
  409MOL0     C56333  10.252   0.107   6.785  0.3031  0.6531  0.4599
  409MOL0     C56334  10.386   0.160   6.754 -0.2056  0.5030 -0.5660
  409MOL0     O56335  10.497   0.077   6.777  0.1294 -0.2124 -0.0017
  409MOL0     C56336  10.628   0.136   6.773 -0.1895  0.5021 -0.6425
  409MOL0     C56337  10.663   0.269   6.803 -1.2153  0.2181  0.6175
  409MOL0     C56338  10.795   0.308   6.787  0.2407  0.1536  0.5508
  409MOL0     C56339  10.889   0.214   6.734 -0.5680  0.0321 -0.3001
  409MOL0     O56340  11.022   0.255   6.729 -0.2467 -0.1285  0.3355
  409MOL0     C56341  11.101   0.201   6.631 -0.3233 -0.6118 -0.2955
  409MOL0     C56342  11.215   0.301   6.591  0.2255  0.1344 -0.4943
  409MOL0     C56343  11.313   0.343   6.702 -0.1561  0.0658  0.2626
  409MOL0     C56344  11.432   0.408   6.630 -0.3360  0.6527 -0.0731
  409MOL0     C56345  11.539   0.419   6.740 -0.7412  0.4629  0.7051
  409MOL0     C56346  11.654   0.504   6.692 -0.5519 -0.1836  1.0127
  409MOL0     C56347  11.767   0.495   6.800  0.0214  0.3359 -0.8992
  409MOL0     C56348  11.869   0.609   6.774  0.4005 -0.0475  0.3969
  409MOL0    Cl56349  11.783   0.759   6.803 -0.3720 -0.0027  0.6210
  409MOL0     C56350  10.857   0.083   6.719  0.1271  0.2513  0.2929
  409MOL0     C56351  10.727   0.038   6.731  0.3882  0.1315 -0.4516
  409MOL0     O56352  10.391   0.262   6.683 -0.5823 -0.1610  0.3171
  409MOL0     C56353  10.239  -0.034   6.800  0.1332 -0.4593  0.1535
  409MOL0     C56354  10.115  -0.090   6.836 -1.2294  0.3271  0.3486
  409MOL0     N56355   9.672   0.190   7.206  0.1178  0.4505  0.4229
  409MOL0     N56356   9.645   0.256   7.307 -0.1863  0.3544 -0.2094
  409MOL0     C56357   8.602   0.055   8.083  0.5924 -0.0654 -0.1286
  409MOL0     C56358   8.464   0.014   8.098 -0.4365 -0.2255  0.5558
  409MOL0     C56359   8.023  -0.020   8.073  0.5700 -0.1045  0.2775
  409MOL0     C56360   8.007  -0.163   8.034 -0.0607 -0.9259 -0.3236
  409MOL0     C56361   7.881  -0.222   8.046 -0.0535  0.2104 -1.3251
  409MOL0     C56362   7.773  -0.163   8.105 -0.1006  0.1854 -0.5830
  409MOL0     O56363   7.668  -0.235   8.141 -0.6141  0.0191 -0.3663
  409MOL0     C56364   7.539  -0.179   8.154 -0.5099  0.2838 -0.0724
  409MOL0     C56365   7.446  -0.299   8.146  0.7150 -0.5043  0.5705
  409MOL0     C56366   7.456  -0.403   8.264 -0.7715  0.7359  0.3015
  409MOL0     C56367   7.410  -0.549   8.239 -0.2201 -1.6684 -0.2585
  409MOL0     C56368   7.476  -0.645   8.322  0.0281  0.0009  0.1131
  409MOL0     C56369   7.530  -0.723   8.405 -0.3682 -0.2076 -0.3289
  409MOL0     C56370   7.781  -0.028   8.134 -0.7527  0.0574  0.6407
  409MOL0     C56371   7.902   0.049   8.120 -0.9367 -0.8436  0.9725
  409MOL0     C56372   7.909   0.192   8.170 -0.2362 -0.1458 -0.4412
  409MOL0     H56373   8.337   0.062   7.781 -2.6049  0.5555  2.3970
  409MOL0     H56374   8.581   0.112   7.746 -1.8117 -0.5563 -0.1536
  409MOL0     H56375   8.789   0.272   8.098 -2.2991  1.0721 -0.2726
  409MOL0     H56376   8.771   0.351   7.943 -0.1245 -0.5051 -0.9499
  409MOL0     H56377   9.007   0.358   8.031  5.0186 -2.9160  1.1990
  409MOL0     H56378   9.006   0.182   8.028 -2.0013  0.7861  2.0043
  409MOL0     H56379   8.950   0.243   7.762 -0.4610  1.7973 -0.8807
  409MOL0     H56380   9.034   0.391   7.820  0.1966  0.2112  2.8944
  409MOL0     H56381   9.225   0.221   7.910  4.2270 -0.7147 -2.7377
  409MOL0     H56382   9.132   0.103   7.809 -0.7121  0.2892 -1.2350
  409MOL0     H56383   9.232   0.373   7.708  0.0537 -0.5380  1.2490
  409MOL0     H56384   9.185   0.228   7.616  1.1977  0.6402 -1.6175
  409MOL0     H56385   9.449   0.291   7.762 -0.6219 -0.5473  1.4538
  409MOL0     H56386   9.394   0.119   7.722 -0.2775 -0.6324 -1.4127
  409MOL0     H56387   9.420   0.331   7.503  2.6441 -0.4950 -1.0978
  409MOL0     H56388   9.386   0.157   7.485 -0.1917 -2.5066  2.6402
  409MOL0     H56389   9.638   0.284   7.603 -0.6398 -0.0980 -1.3943
  409MOL0     H56390   9.606   0.110   7.614 -0.5185 -0.6316  0.2940
  409MOL0     H56391   9.679  -0.040   7.439 -1.7759  1.0373  0.9899
  409MOL0     H56392   9.776  -0.147   7.211 -0.1447  0.3844 -0.2913
  409MOL0     H56393   9.854  -0.020   7.117 -0.5449 -0.0950 -0.5422
  409MOL0     H56394   9.559  -0.119   7.089 -0.4544 -1.6541 -2.6465
  409MOL0     H56395   9.638   0.001   6.981 -1.3874  0.7470  1.0372
  409MOL0     H56396   9.721  -0.280   7.045  1.9309 -0.6889 -0.5409
  409MOL0     H56397   9.635  -0.238   6.893 -1.5952  0.7901  1.9471
  409MOL0     H56398   9.924  -0.238   6.950  0.0143 -0.5521 -1.0226
  409MOL0     H56399   9.843  -0.241   6.798  0.3253 -1.0741  0.7389
  409MOL0     H56400   9.926   0.189   6.813  0.8509  0.7261  0.0928
  409MOL0     H56401  10.025   0.376   6.815 -0.8377 -0.2250  1.8688
  409MOL0     H56402  10.153   0.369   6.691  3.1707 -0.8471  1.2274
  409MOL0     H56403  10.201   0.389   6.857  1.0909 -1.6427  0.6101
  409MOL0     H56404  10.596   0.344   6.844 -1.3447  1.3549 -1.5207
  409MOL0     H56405  10.832   0.407   6.813  0.6057  0.1078  0.2181
  409MOL0     H56406  11.138   0.108   6.675  1.4716 -1.4262 -3.2159
  409MOL0     H56407  11.048   0.181   6.537  1.1999  2.7243 -2.0467
  409MOL0     H56408  11.263   0.254   6.505 -2.6783 -3.9012 -0.1793
  409MOL0     H56409  11.166   0.389   6.550  0.3302  0.0122 -0.8793
  409MOL0     H56410  11.337   0.266   6.776 -0.2348  1.0528  1.3507
  409MOL0     H56411  11.268   0.416   6.771 -1.0964 -1.1248  0.9425
  409MOL0     H56412  11.406   0.510   6.601 -0.1272  0.5532 -0.6385
  409MOL0     H56413  11.472   0.351   6.545  2.9206  0.7653  1.2460
  409MOL0     H56414  11.494   0.467   6.828 -1.0995 -0.2713  0.9355
  409MOL0     H56415  11.586   0.326   6.776  2.0794  1.8015  0.6855
  409MOL0     H56416  11.621   0.607   6.674  1.3820  1.0103  3.6505
  409MOL0     H56417  11.686   0.467   6.594  0.7413  3.0465  0.0610
  409MOL0     H56418  11.827   0.406   6.783 -1.6548 -1.2112  0.8247
  409MOL0     H56419  11.730   0.493   6.903  1.8779 -0.9450 -0.2023
  409MOL0     H56420  11.904   0.603   6.671 -0.2343  0.9188  0.1213
  409MOL0     H56421  11.960   0.600   6.834  1.7452  0.8981 -1.4266
  409MOL0     H56422  10.934   0.018   6.679  0.2884  1.6089 -1.8328
  409MOL0     H56423  10.693  -0.059   6.695  0.3512 -1.2263  2.8494
  409MOL0     H56424  10.335  -0.084   6.812  1.8768  2.1097 -1.8781
  409MOL0     H56425  10.122  -0.194   6.867  1.6009 -0.4881 -2.5197
  409MOL0     H56426   8.681   0.067   8.155  0.1306  0.3564  0.3149
  409MOL0     H56427   8.428  -0.015   8.196 -1.6451  1.3595  0.6319
  409MOL0     H56428   8.091  -0.222   7.999  2.7273  2.9660 -0.9332
  409MOL0     H56429   7.879  -0.329   8.030 -0.2385 -0.3091  1.5777
  409MOL0     H56430   7.524  -0.143   8.256  0.7339  0.4107  0.0779
  409MOL0     H56431   7.518  -0.113   8.070 -2.2734 -1.6201 -1.2194
  409MOL0     H56432   7.465  -0.354   8.053  1.7518 -0.1872  0.5833
  409MOL0     H56433   7.345  -0.257   8.141  2.1703  3.2452 -1.5915
  409MOL0     H56434   7.560  -0.419   8.294 -0.4797  0.3432 -0.8926
  409MOL0     H56435   7.389  -0.365   8.342  0.1900  3.5278 -0.1175
  409MOL0     H56436   7.416  -0.575   8.133 -1.2391 -1.1763 -0.4472
  409MOL0     H56437   7.303  -0.554   8.260 -0.2794 -0.2922 -0.0908
  409MOL0     H56438   7.581  -0.785   8.476  0.3334  0.0407 -0.6009
  409MOL0     H56439   7.698   0.025   8.180  0.3396  0.7437  1.8791
  409MOL0     H56440   7.813   0.244   8.162  0.7204  1.4850 -1.8941
  409MOL0     H56441   7.954   0.188   8.270  0.5471  1.7875 -0.6823
  409MOL0     H56442   7.977   0.254   8.112  1.2238 -0.7487  0.5477
  410MOL0     O56443   0.729   3.613   6.507 -0.0824  0.1614 -0.2618
  410MOL0     C56444   0.660   3.589   6.411 -0.2371  0.1318  0.4409
  410MOL0     O56445   0.710   3.564   6.282  0.3452  0.2555  0.0563
  410MOL0     C56446   0.832   3.600   6.255 -0.0244  0.9670 -0.5598
  410MOL0     C56447   0.947   3.520   6.281 -0.6915  0.0184  0.8335
  410MOL0     C56448   1.081   3.556   6.245  0.2422 -0.6961  0.3512
  410MOL0     C56449   1.108   3.679   6.174 -0.4453  0.2086  0.5586
  410MOL0     O56450   1.230   3.723   6.129  0.2763  0.4119 -0.0117
  410MOL0     C56451   1.340   3.636   6.133 -0.5583 -0.4982  0.2294
  410MOL0     C56452   1.452   3.722   6.092  0.3352 -0.5312  0.1268
  410MOL0     C56453   1.579   3.638   6.076 -0.1762 -0.1087  0.1816
  410MOL0     C56454   1.698   3.712   6.028 -0.3311  0.5401  0.2238
  410MOL0     C56455   1.835   3.660   6.087  0.1501 -0.5333  0.0654
  410MOL0     C56456   1.943   3.744   6.013  0.5525  0.1397  0.4632
  410MOL0     C56457   2.081   3.697   6.074  0.2555 -0.2651  0.0003
  410MOL0     C56458   2.185   3.787   6.016 -0.8914  0.7288 -0.3462
  410MOL0     N56459   2.322   3.747   6.056  0.2877 -0.9102 -0.9330
  410MOL0     C56460   2.441   3.795   6.012 -1.0041  0.6771 -0.2585
  410MOL0     C56461   2.532   3.747   6.105  0.4334 -0.5185  0.6059
  410MOL0     C56462   2.681   3.765   6.101 -0.2056 -0.7578  0.3389
  410MOL0     C56463   2.740   3.829   5.970  0.8943 -0.0761 -0.3785
  410MOL0     C56464   2.873   3.873   5.992 -0.4996  0.1438 -0.2892
  410MOL0     C56465   2.958   3.767   6.056  0.2451  0.7735 -0.0322
  410MOL0     O56466   3.093   3.815   6.075 -0.1611 -0.2129 -0.1092
  410MOL0     C56467   3.188   3.719   6.106 -0.6108 -0.4944  0.0939
  410MOL0     C56468   3.325   3.746   6.090 -0.0357 -0.9203  0.1862
  410MOL0     C56469   3.425   3.652   6.108  0.6101 -0.5714  0.1769
  410MOL0     C56470   3.566   3.693   6.079 -0.1726 -0.3698 -0.0885
  410MOL0     C56471   3.388   3.529   6.163  0.1117 -0.3567 -0.4647
  410MOL0     C56472   3.485   3.422   6.204 -0.4294 -0.4862 -0.0654
  410MOL0     O56473   3.440   3.314   6.266 -0.3788 -0.4743  0.2613
  410MOL0     C56474   3.542   3.227   6.306  0.4699 -0.5529 -0.4664
  410MOL0     C56475   3.622   3.144   6.224 -0.4655  0.7479  0.5618
  410MOL0     C56476   3.704   3.044   6.281 -0.6804  0.1259  0.5606
  410MOL0     C56477   3.707   3.023   6.424  0.1372 -1.3326  0.0952
  410MOL0     O56478   3.777   2.924   6.486 -0.3529  0.2855  0.5655
  410MOL0     C56479   3.895   2.871   6.433 -0.0647  0.0993  0.5246
  410MOL0     C56480   3.959   2.763   6.519  0.0648 -0.4349 -0.3534
  410MOL0     C56481   4.101   2.735   6.479 -0.6551  0.2760 -0.0300
  410MOL0     C56482   4.164   2.630   6.573  0.5094  0.1881  0.8392
  410MOL0     C56483   4.315   2.610   6.539 -0.3241 -0.4971  0.2652
  410MOL0     C56484   4.403   2.513   6.628 -0.7953 -0.3026 -0.4687
  410MOL0     C56485   4.335   2.380   6.652  0.0363 -0.2385  0.0236
  410MOL0     C56486   4.441   2.280   6.701  0.6429 -0.3075 -0.1375
  410MOL0    Cl56487   4.525   2.341   6.853 -0.0510 -0.5449 -0.0568
  410MOL0     C56488   3.625   3.100   6.501  0.1237 -0.0597  0.5477
  410MOL0     C56489   3.558   3.212   6.448 -0.7356  0.5803 -0.3591
  410MOL0     O56490   3.602   3.437   6.165  0.4736 -0.3413  1.3016
  410MOL0     C56491   3.257   3.501   6.189  0.4322 -0.2464 -0.0720
  410MOL0     C56492   3.155   3.595   6.153  0.5113 -0.4011 -1.1320
  410MOL0     N56493   2.474   3.670   6.196  0.2243  0.3450  0.5137
  410MOL0     N56494   2.348   3.664   6.171  0.0648 -0.2908  0.7201
  410MOL0     C56495   0.992   3.760   6.163  0.1795  0.2314  0.8294
  410MOL0     C56496   0.859   3.732   6.206 -0.0604  0.7994  0.2165
  410MOL0     C56497   0.511   3.590   6.421 -0.6675 -0.5205 -0.2178
  410MOL0     C56498   0.439   3.559   6.302  0.8350  0.8222  0.2745
  410MOL0     C56499   0.298   3.557   6.306 -1.1658  0.6078  1.2204
  410MOL0     C56500   0.221   3.572   6.422 -0.7088  0.0271 -0.5509
  410MOL0     O56501   0.084   3.556   6.413 -0.3828  0.1690 -0.5453
  410MOL0     C56502   0.025   3.558   6.541  0.0009 -0.1097 -0.9317
  410MOL0     C56503  -0.127   3.520   6.538  0.0529  0.6632 -0.4339
  410MOL0     C56504  -0.213   3.611   6.458 -0.0726 -0.1249 -0.9960
  410MOL0     C56505  -0.363   3.564   6.480  0.5124  0.5523  0.5153
  410MOL0     C56506  -0.444   3.688   6.457 -0.3565 -0.0982  0.0146
  410MOL0     C56507  -0.519   3.785   6.457 -0.2653 -1.2289  0.6528
  410MOL0     C56508   0.302   3.612   6.535 -0.0802  0.0785  0.7904
  410MOL0     C56509   0.443   3.631   6.537  0.7179 -0.1716  0.1943
  410MOL0     C56510   0.497   3.686   6.673 -0.0371  0.1053 -0.3234
  410MOL0     H56511   0.926   3.419   6.316 -2.0204  0.5798  1.7825
  410MOL0     H56512   1.163   3.487   6.259  0.7898  0.2323  1.8682
  410MOL0     H56513   1.327   3.547   6.070 -1.2827 -0.6382  0.5624
  410MOL0     H56514   1.364   3.601   6.234 -0.6707  0.9587  0.7882
  410MOL0     H56515   1.421   3.761   5.994 -0.1428  1.2592  0.9496
  410MOL0     H56516   1.461   3.801   6.168  2.3399  0.5181 -1.1185
  410MOL0     H56517   1.590   3.591   6.175 -1.9413  0.0328  0.4848
  410MOL0     H56518   1.567   3.558   6.002  1.1369  0.1648 -0.3409
  410MOL0     H56519   1.709   3.700   5.920  0.9739 -0.5959  0.4633
  410MOL0     H56520   1.688   3.821   6.041 -2.8444  0.4896 -0.7629
  410MOL0     H56521   1.858   3.553   6.083 -1.1540 -0.8119 -0.3167
  410MOL0     H56522   1.832   3.683   6.194  4.4414 -0.2617  0.3208
  410MOL0     H56523   1.930   3.725   5.906 -1.6294 -0.5495  0.8047
  410MOL0     H56524   1.936   3.853   6.019  1.3742  0.2445 -0.1506
  410MOL0     H56525   2.100   3.592   6.048  0.0207 -0.2341 -0.2983
  410MOL0     H56526   2.071   3.709   6.183 -0.5268  1.4065 -0.2347
  410MOL0     H56527   2.182   3.795   5.907  2.9845 -0.2365 -0.6751
  410MOL0     H56528   2.170   3.885   6.063 -3.2895 -1.1127  3.1543
  410MOL0     H56529   2.455   3.869   5.934  0.9928  1.9606  1.2156
  410MOL0     H56530   2.727   3.668   6.118 -1.1654 -1.0512  1.4415
  410MOL0     H56531   2.714   3.819   6.190  1.6775 -1.3257  0.0262
  410MOL0     H56532   2.748   3.748   5.897  1.1426 -0.6886  0.3136
  410MOL0     H56533   2.671   3.905   5.932 -1.4656 -2.6066 -1.4809
  410MOL0     H56534   2.916   3.909   5.898  0.7468  2.3249  1.0436
  410MOL0     H56535   2.860   3.961   6.055 -4.2120 -0.9581  0.7717
  410MOL0     H56536   2.919   3.758   6.158 -2.4809  2.4584 -0.8272
  410MOL0     H56537   2.944   3.679   5.993 -1.0414  1.2605 -0.4454
  410MOL0     H56538   3.351   3.842   6.047 -0.3175 -0.5751  0.7648
  410MOL0     H56539   3.612   3.628   6.005  0.4691 -2.9985  2.4158
  410MOL0     H56540   3.619   3.680   6.174 -0.0733  1.5376  0.1644
  410MOL0     H56541   3.572   3.798   6.051 -0.2882  0.3242  2.2154
  410MOL0     H56542   3.618   3.144   6.116  1.2155  0.1527  0.4652
  410MOL0     H56543   3.760   2.979   6.214 -0.7401  0.4303  0.2121
  410MOL0     H56544   3.883   2.838   6.329 -1.0809  0.0270  0.6543
  410MOL0     H56545   3.972   2.949   6.439 -0.6875  0.6662  1.5348
  410MOL0     H56546   3.962   2.788   6.625  0.3162  1.2003 -0.7218
  410MOL0     H56547   3.901   2.671   6.504 -1.6909  0.8547 -2.1190
  410MOL0     H56548   4.163   2.826   6.485  2.5372 -1.6505 -1.1414
  410MOL0     H56549   4.092   2.701   6.376  0.6946  0.8697 -0.3615
  410MOL0     H56550   4.122   2.531   6.553 -1.5546  1.6504 -3.2407
  410MOL0     H56551   4.140   2.657   6.676  0.0393 -1.9411  1.3297
  410MOL0     H56552   4.324   2.579   6.434 -2.0833 -1.5136  0.3803
  410MOL0     H56553   4.359   2.710   6.545  0.6543 -0.7102 -2.1991
  410MOL0     H56554   4.421   2.565   6.722 -0.5267 -1.0603 -0.0897
  410MOL0     H56555   4.502   2.499   6.585  0.4661  1.8274  1.5436
  410MOL0     H56556   4.300   2.343   6.555  1.7636 -1.3391 -0.2146
  410MOL0     H56557   4.253   2.387   6.724  0.4981 -1.8401  0.7470
  410MOL0     H56558   4.517   2.257   6.626 -0.9818 -4.2381 -0.8377
  410MOL0     H56559   4.388   2.184   6.704 -0.5198  0.3484  1.6679
  410MOL0     H56560   3.638   3.076   6.606  2.4871 -0.2602  0.2597
  410MOL0     H56561   3.526   3.292   6.515 -0.6108  0.7499 -0.5019
  410MOL0     H56562   3.213   3.410   6.228 -4.0200  1.1939 -1.1886
  410MOL0     H56563   3.051   3.567   6.169  0.1530  1.2098 -0.4417
  410MOL0     H56564   1.005   3.851   6.106 -0.4541 -0.2609 -0.1406
  410MOL0     H56565   0.772   3.796   6.198 -1.9586 -1.3428  2.2626
  410MOL0     H56566   0.489   3.540   6.208 -3.1306  1.1566 -2.1464
  410MOL0     H56567   0.239   3.524   6.221  0.3041 -4.9976  1.9868
  410MOL0     H56568   0.077   3.483   6.601  1.1543  1.1504 -0.2929
  410MOL0     H56569   0.045   3.651   6.594  2.0632 -2.6013  3.2133
  410MOL0     H56570  -0.162   3.524   6.642 -3.3048 -3.8839 -1.1137
  410MOL0     H56571  -0.146   3.420   6.498  1.2360  0.6285 -0.9614
  410MOL0     H56572  -0.200   3.715   6.491  1.2556 -0.4900 -0.3085
  410MOL0     H56573  -0.184   3.615   6.353  2.9301  1.3319 -0.2313
  410MOL0     H56574  -0.375   3.524   6.581 -0.7839  0.3815  0.3125
  410MOL0     H56575  -0.391   3.483   6.412  0.5713 -0.9303  2.1884
  410MOL0     H56576  -0.574   3.877   6.460 -0.3937 -1.1433 -2.3051
  410MOL0     H56577   0.245   3.649   6.620 -0.2508 -0.2196  0.8070
  410MOL0     H56578   0.565   3.771   6.661  0.4322  0.1540  2.2199
  410MOL0     H56579   0.418   3.721   6.741  0.5369  0.4870  0.1562
  410MOL0     H56580   0.544   3.605   6.729 -1.1308  0.4396  1.1570
  411MOL0     O56581  10.132   7.076   2.220  0.2291  0.6120  0.7138
  411MOL0     C56582  10.040   7.145   2.174 -0.8065 -1.1720 -0.7766
  411MOL0     O56583  10.062   7.226   2.062 -0.0212  0.3390  0.1582
  411MOL0     C56584  10.183   7.222   2.006  0.6146 -0.7790  0.0024
  411MOL0     C56585  10.220   7.122   1.920  0.7920 -0.2505 -0.3965
  411MOL0     C56586  10.330   7.137   1.837 -0.3406 -0.1121 -0.0971
  411MOL0     C56587  10.411   7.252   1.842 -0.3504  0.9909  0.1371
  411MOL0     O56588  10.529   7.251   1.769 -0.3961 -0.2211 -0.6744
  411MOL0     C56589  10.635   7.212   1.855 -0.5953  0.5752 -0.0686
  411MOL0     C56590  10.772   7.261   1.809 -0.5253  0.8101 -0.9949
  411MOL0     C56591  10.881   7.208   1.906  0.0203  0.0938  0.1764
  411MOL0     C56592  11.019   7.240   1.850  0.2525  0.0730 -0.0578
  411MOL0     C56593  11.131   7.178   1.925 -1.5436  0.1095 -0.2679
  411MOL0     C56594  11.259   7.219   1.856 -0.1990 -0.3658 -0.7004
  411MOL0     C56595  11.379   7.165   1.936  0.0504 -0.2899 -0.4372
  411MOL0     C56596  11.393   7.241   2.069 -0.1214 -0.0454  0.4384
  411MOL0     N56597  11.530   7.237   2.139  0.6093 -0.5919  0.5470
  411MOL0     C56598  11.646   7.298   2.092  0.3258  0.9637 -0.5585
  411MOL0     C56599  11.742   7.255   2.176  0.0678  0.5283 -0.4386
  411MOL0     C56600  11.886   7.288   2.154  0.0390 -0.2519 -0.3306
  411MOL0     C56601  11.917   7.412   2.254  0.0778 -0.1369 -1.1049
  411MOL0     C56602  12.064   7.469   2.230  0.9145  0.0148 -0.8771
  411MOL0     C56603  12.082   7.579   2.338 -0.6025  0.8242 -0.0991
  411MOL0     O56604  12.192   7.656   2.304  0.3748  0.1928 -0.0026
  411MOL0     C56605  12.319   7.602   2.291  0.3867  0.1308 -0.5142
  411MOL0     C56606  12.362   7.478   2.331  0.0676  0.8040  0.6391
  411MOL0     C56607  12.494   7.452   2.334 -0.5336  0.7776  0.9880
  411MOL0     C56608  12.537   7.309   2.376  0.4532 -0.1800  0.8426
  411MOL0     C56609  12.588   7.540   2.268  0.4185 -0.1663  0.6927
  411MOL0     C56610  12.730   7.518   2.272  0.0480 -0.0816  0.6951
  411MOL0     O56611  12.811   7.629   2.278 -0.6185  0.5311  0.8541
  411MOL0     C56612  12.940   7.618   2.219  0.3075  0.1452  0.5303
  411MOL0     C56613  13.040   7.567   2.292  1.0950 -0.7524  0.0912
  411MOL0     C56614  13.173   7.537   2.230  0.3392 -0.1421 -1.4377
  411MOL0     C56615  13.193   7.573   2.100  0.0235 -0.3964  0.8797
  411MOL0     O56616  13.320   7.566   2.046  0.3813 -0.1915 -0.6656
  411MOL0     C56617  13.437   7.602   2.135  0.3609  0.6331  0.6109
  411MOL0     C56618  13.564   7.590   2.046 -0.4781  0.2672  0.3598
  411MOL0     C56619  13.690   7.606   2.119 -0.3153 -0.0144 -0.4291
  411MOL0     C56620  13.817   7.571   2.045 -0.1389  0.1259  0.7272
  411MOL0     C56621  13.953   7.596   2.107 -0.1255  0.0453  0.1604
  411MOL0     C56622  14.062   7.544   2.019 -0.3479  1.0455 -0.1293
  411MOL0     C56623  14.190   7.554   2.100 -0.5148 -0.9138  0.7565
  411MOL0     C56624  14.311   7.491   2.024  1.5226 -0.6472 -0.0534
  411MOL0    Cl56625  14.459   7.478   2.126 -0.5691  0.5136 -0.0209
  411MOL0     C56626  13.080   7.609   2.015 -0.0936 -0.4333 -0.8701
  411MOL0     C56627  12.956   7.635   2.079 -0.0797  0.0381  0.3207
  411MOL0     O56628  12.776   7.408   2.238  0.1218  0.1781  0.2071
  411MOL0     C56629  12.539   7.657   2.206 -0.5839 -0.2944  0.2958
  411MOL0     C56630  12.400   7.688   2.212  0.1296  0.4157 -0.0781
  411MOL0     N56631  11.693   7.177   2.280  0.2336  0.5054 -0.3150
  411MOL0     N56632  11.561   7.159   2.251 -0.7723 -0.1742 -0.5718
  411MOL0     C56633  10.367   7.350   1.923 -0.2769 -0.1746 -0.5005
  411MOL0     C56634  10.258   7.338   2.007 -0.4845  0.6742 -0.4487
  411MOL0     C56635   9.906   7.156   2.233  0.0213  0.1718  0.1243
  411MOL0     C56636   9.829   7.258   2.174 -0.2421  0.1736 -0.5574
  411MOL0     C56637   9.697   7.280   2.218 -0.3745 -0.3055  0.8200
  411MOL0     C56638   9.652   7.222   2.336  0.9571 -0.2933 -0.0380
  411MOL0     O56639   9.538   7.273   2.389  0.3693  0.2791 -0.7175
  411MOL0     C56640   9.494   7.243   2.519 -0.6762  0.4439 -0.7844
  411MOL0     C56641   9.445   7.102   2.553  0.0457 -0.5579 -0.1960
  411MOL0     C56642   9.412   7.094   2.707 -0.1579 -0.1101 -0.2127
  411MOL0     C56643   9.348   6.961   2.753 -1.0189  0.9094 -0.7157
  411MOL0     C56644   9.451   6.859   2.743  0.8449  0.6916 -0.4409
  411MOL0     C56645   9.546   6.791   2.729  0.0670  0.5376 -0.2922
  411MOL0     C56646   9.743   7.137   2.408 -0.1350  0.2355 -1.0497
  411MOL0     C56647   9.865   7.095   2.351 -0.5222 -0.8079  0.0672
  411MOL0     C56648   9.962   7.018   2.439  0.1298 -0.5498  0.5789
  411MOL0     H56649  10.166   7.028   1.908  2.3384 -1.0730 -1.1721
  411MOL0     H56650  10.362   7.052   1.778 -1.4041  0.9404 -2.3230
  411MOL0     H56651  10.638   7.104   1.872  1.9041  0.7613  1.0760
  411MOL0     H56652  10.620   7.261   1.952  3.3339 -0.2343  1.1411
  411MOL0     H56653  10.789   7.215   1.712 -0.4248 -1.7676  0.1588
  411MOL0     H56654  10.783   7.369   1.795 -1.6364  0.6077 -4.4072
  411MOL0     H56655  10.868   7.255   2.004  1.9386  1.3867 -0.1356
  411MOL0     H56656  10.877   7.099   1.909  0.8892 -0.0838 -2.6462
  411MOL0     H56657  11.030   7.214   1.744  2.2771  2.6585 -0.5815
  411MOL0     H56658  11.025   7.348   1.861  0.9414 -0.0437  0.9081
  411MOL0     H56659  11.120   7.069   1.927  1.1880 -0.2475  2.5268
  411MOL0     H56660  11.139   7.206   2.030  0.0478 -1.5970  0.1293
  411MOL0     H56661  11.248   7.170   1.759  0.0034 -0.1229 -0.8467
  411MOL0     H56662  11.273   7.323   1.824  0.6309 -1.2073 -3.3023
  411MOL0     H56663  11.471   7.173   1.878  0.7640 -1.3485  0.4993
  411MOL0     H56664  11.371   7.056   1.948 -0.8945 -0.1300  0.4887
  411MOL0     H56665  11.379   7.342   2.031  2.4896 -0.9614 -3.5476
  411MOL0     H56666  11.317   7.220   2.145 -0.7321 -0.8584 -0.3819
  411MOL0     H56667  11.658   7.360   2.004  0.6974  0.7921 -0.6327
  411MOL0     H56668  11.893   7.336   2.056  0.2288  0.7493  0.1620
  411MOL0     H56669  11.941   7.194   2.167  2.0184  0.7352 -1.0392
  411MOL0     H56670  11.846   7.494   2.242 -1.6059 -1.3871 -0.2697
  411MOL0     H56671  11.920   7.376   2.357 -0.1000  0.9049 -0.7311
  411MOL0     H56672  12.132   7.384   2.232 -0.3841 -1.0557 -0.3708
  411MOL0     H56673  12.060   7.514   2.130 -3.5898 -0.3567 -1.1095
  411MOL0     H56674  11.994   7.644   2.347 -1.3704 -0.0651 -0.8941
  411MOL0     H56675  12.087   7.530   2.435 -0.7812 -2.6104 -1.6682
  411MOL0     H56676  12.299   7.398   2.368 -0.4968  0.0466 -1.8022
  411MOL0     H56677  12.565   7.240   2.296  4.3223 -0.2879  2.1269
  411MOL0     H56678  12.447   7.262   2.417 -0.2552  0.4841  0.1012
  411MOL0     H56679  12.619   7.317   2.447  2.4412 -1.5623 -1.1719
  411MOL0     H56680  13.028   7.552   2.399 -0.7542  1.7802  0.3444
  411MOL0     H56681  13.247   7.483   2.288  0.0139  0.2013 -0.6841
  411MOL0     H56682  13.427   7.702   2.178 -0.6822 -0.1171  2.2338
  411MOL0     H56683  13.438   7.531   2.218 -1.0054  0.0841  0.1947
  411MOL0     H56684  13.564   7.493   1.997 -0.1695  0.6436 -0.4102
  411MOL0     H56685  13.557   7.667   1.969 -0.7340 -1.4235 -1.3739
  411MOL0     H56686  13.685   7.535   2.202 -2.8829 -1.3320 -1.5790
  411MOL0     H56687  13.692   7.703   2.169  1.5625 -0.4934  0.4920
  411MOL0     H56688  13.816   7.621   1.948 -0.3346  1.8483  1.5643
  411MOL0     H56689  13.812   7.464   2.024  0.8076  0.4714 -1.5511
  411MOL0     H56690  13.978   7.702   2.120 -1.9424  0.9571 -2.7414
  411MOL0     H56691  13.949   7.547   2.204 -0.8316 -0.9928 -0.3841
  411MOL0     H56692  14.069   7.602   1.927 -0.5096  2.3125  0.6386
  411MOL0     H56693  14.041   7.439   1.995 -0.6707  0.7620  1.2807
  411MOL0     H56694  14.177   7.513   2.201 -0.9739  2.3584  2.1645
  411MOL0     H56695  14.219   7.658   2.115 -2.0597 -0.3750  0.1723
  411MOL0     H56696  14.329   7.556   1.938  1.7328 -1.4914 -0.6634
  411MOL0     H56697  14.284   7.397   1.975  0.2143  0.4795 -1.6454
  411MOL0     H56698  13.088   7.628   1.908 -2.9344  0.4276 -0.9945
  411MOL0     H56699  12.875   7.665   2.012  0.5715 -1.2657 -1.1269
  411MOL0     H56700  12.593   7.723   2.139  1.6906 -1.9265  0.4167
  411MOL0     H56701  12.347   7.772   2.168 -0.3981 -1.1886 -2.7413
  411MOL0     H56702  10.438   7.432   1.935 -0.9352  0.1881  1.1369
  411MOL0     H56703  10.234   7.415   2.080  5.3418  2.3904  0.2170
  411MOL0     H56704   9.862   7.321   2.091  0.5373  1.0144  0.3604
  411MOL0     H56705   9.633   7.352   2.168  0.5142  0.8108  1.2498
  411MOL0     H56706   9.571   7.258   2.596  2.0933 -4.5918 -2.1778
  411MOL0     H56707   9.416   7.312   2.552 -2.8763 -1.5271 -1.6361
  411MOL0     H56708   9.524   7.029   2.534  1.3313  0.3071  1.5801
  411MOL0     H56709   9.352   7.082   2.500 -0.9646  2.4403  0.2572
  411MOL0     H56710   9.499   7.119   2.769  0.9619  0.2177 -1.8579
  411MOL0     H56711   9.332   7.166   2.725  0.4425  0.1206  1.8090
  411MOL0     H56712   9.267   6.930   2.687 -0.3255 -1.9912 -0.3267
  411MOL0     H56713   9.316   6.977   2.856 -0.0458  1.8903 -0.5427
  411MOL0     H56714   9.624   6.718   2.717 -0.1922 -0.0899  1.4932
  411MOL0     H56715   9.722   7.100   2.508 -1.2586  1.9103 -0.6091
  411MOL0     H56716  10.062   7.059   2.425 -0.5359  0.8673 -0.3123
  411MOL0     H56717   9.933   7.021   2.545 -0.3966  0.5582  0.4244
  411MOL0     H56718   9.959   6.914   2.408 -0.2728 -0.0666 -1.0930
  412MOL0     O56719   7.897   2.429   7.847 -0.7358 -0.1321  0.2352
  412MOL0     C56720   7.891   2.440   7.725  1.3951 -0.5231  0.5056
  412MOL0     O56721   8.000   2.434   7.640  0.8134 -0.2852  0.2773
  412MOL0     C56722   8.126   2.413   7.691  0.9736  1.0422 -0.9743
  412MOL0     C56723   8.209   2.521   7.704  0.4855 -0.7250  0.0624
  412MOL0     C56724   8.339   2.514   7.761  0.4346 -0.1434 -0.0247
  412MOL0     C56725   8.387   2.382   7.799  1.3501  0.0196  0.5114
  412MOL0     O56726   8.500   2.379   7.874  0.3325 -0.4037  0.5071
  412MOL0     C56727   8.547   2.253   7.918 -0.3733  0.1544  0.3662
  412MOL0     C56728   8.646   2.274   8.029 -0.4824 -0.1675 -0.7789
  412MOL0     C56729   8.756   2.357   7.966  0.5444  0.1409 -0.6452
  412MOL0     C56730   8.843   2.398   8.082 -1.1653  0.1360 -0.3123
  412MOL0     C56731   8.989   2.424   8.033  0.9230  0.0910  0.6007
  412MOL0     C56732   8.992   2.560   7.972  0.1738 -0.2980 -0.1062
  412MOL0     C56733   9.139   2.590   7.935  0.4592  0.0714 -0.0271
  412MOL0     C56734   9.164   2.738   7.905 -0.2732 -0.3736 -0.2804
  412MOL0     N56735   9.175   2.831   8.017 -0.8534  0.0780 -0.0266
  412MOL0     C56736   9.077   2.930   8.039 -0.7737  0.4571  0.7237
  412MOL0     C56737   9.125   2.992   8.150 -0.0229  0.2332  0.2736
  412MOL0     C56738   9.048   3.103   8.222 -0.5067 -0.2284 -1.3411
  412MOL0     C56739   9.098   3.244   8.219 -0.2863 -0.7997  0.5542
  412MOL0     C56740   9.056   3.332   8.339  1.0620  0.1748  0.0559
  412MOL0     C56741   8.907   3.309   8.380  0.3181  0.3606 -0.1595
  412MOL0     O56742   8.878   3.407   8.482  0.5838  0.6660  0.7459
  412MOL0     C56743   8.843   3.364   8.606  0.7343 -0.0892 -0.2746
  412MOL0     C56744   8.935   3.346   8.706 -0.1732 -0.5215 -0.6695
  412MOL0     C56745   8.901   3.288   8.830  0.3768 -0.4390  0.2122
  412MOL0     C56746   9.009   3.258   8.921 -0.1878 -0.5192  0.0050
  412MOL0     C56747   8.770   3.253   8.859  0.2844  0.0512 -0.1952
  412MOL0     C56748   8.728   3.181   8.972 -0.5503  0.4491 -0.3572
  412MOL0     O56749   8.762   3.057   8.991 -0.0911 -0.4708  0.2825
  412MOL0     C56750   8.720   2.972   9.096  0.4963  0.3357  0.5476
  412MOL0     C56751   8.805   2.869   9.128 -0.3300  0.4337 -0.3956
  412MOL0     C56752   8.780   2.781   9.238  0.7736  1.0643  0.3310
  412MOL0     C56753   8.670   2.786   9.319 -0.1281 -0.0686 -0.8768
  412MOL0     O56754   8.675   2.714   9.435  0.1710  0.6389 -0.2360
  412MOL0     C56755   8.665   2.567   9.418  0.4332 -0.1055  0.4772
  412MOL0     C56756   8.548   2.514   9.506  0.1407  0.1661 -0.2372
  412MOL0     C56757   8.565   2.548   9.647  1.5902  0.6751  1.0284
  412MOL0     C56758   8.685   2.477   9.714 -0.2602  0.3812 -0.7680
  412MOL0     C56759   8.688   2.528   9.863  0.3346  0.7283 -0.8432
  412MOL0     C56760   8.816   2.485   9.942 -0.3478 -0.0846  0.1263
  412MOL0     C56761   8.834   2.330   9.950 -1.0874  0.6581  0.8879
  412MOL0     C56762   8.884   2.283  10.093  1.0041  0.0956 -0.5188
  412MOL0    Cl56763   9.051   2.316  10.119 -0.0301  0.2386  0.3298
  412MOL0     C56764   8.579   2.886   9.283  0.0771 -0.5006 -0.4789
  412MOL0     C56765   8.606   2.982   9.175  0.0170 -0.7999 -0.3524
  412MOL0     O56766   8.655   3.239   9.049  0.0206 -1.0171  0.1018
  412MOL0     C56767   8.674   3.276   8.754  0.6259 -0.5732  0.5479
  412MOL0     C56768   8.708   3.334   8.632  0.0381 -0.5944  0.6542
  412MOL0     N56769   9.232   2.923   8.198  0.0853 -0.1913 -0.4912
  412MOL0     N56770   9.264   2.828   8.116 -0.9150  0.4212 -0.4954
  412MOL0     C56771   8.303   2.273   7.771  0.7366  0.1208  0.2504
  412MOL0     C56772   8.172   2.288   7.724  0.2085 -0.1628  0.1315
  412MOL0     C56773   7.754   2.433   7.653 -0.8917 -0.0999 -0.6566
  412MOL0     C56774   7.669   2.330   7.698 -1.0852  0.8571 -0.3639
  412MOL0     C56775   7.546   2.307   7.627 -0.9479  0.1086 -0.0804
  412MOL0     C56776   7.507   2.396   7.520 -0.4170  0.6946 -1.2096
  412MOL0     O56777   7.398   2.356   7.457  0.1451  0.0887 -0.2271
  412MOL0     C56778   7.363   2.420   7.336 -0.6274 -0.1284 -0.0703
  412MOL0     C56779   7.439   2.353   7.220 -0.3399 -0.2472 -0.5836
  412MOL0     C56780   7.435   2.207   7.234 -0.0569 -0.2292  0.3504
  412MOL0     C56781   7.492   2.129   7.105 -0.0986  0.4829 -0.4842
  412MOL0     C56782   7.605   2.197   7.049  0.1382  0.0322  0.1931
  412MOL0     C56783   7.693   2.266   6.997  0.7190  0.3713 -0.3666
  412MOL0     C56784   7.589   2.506   7.487 -0.6297  0.4570 -0.3172
  412MOL0     C56785   7.715   2.522   7.552  0.5574  0.2759  0.7976
  412MOL0     C56786   7.786   2.640   7.518  0.1678  0.5062  0.4813
  412MOL0     H56787   8.185   2.620   7.667  1.1127 -1.0786 -1.3497
  412MOL0     H56788   8.405   2.600   7.768 -0.2861  0.2983  2.7093
  412MOL0     H56789   8.588   2.191   7.838  0.1863  0.6852  0.2333
  412MOL0     H56790   8.469   2.196   7.969  1.5076  0.1928  3.5626
  412MOL0     H56791   8.601   2.315   8.119  2.6069 -1.4382  1.5204
  412MOL0     H56792   8.686   2.177   8.062 -0.1176  0.4655  0.7240
  412MOL0     H56793   8.815   2.293   7.900  0.1413  0.2009 -1.0638
  412MOL0     H56794   8.729   2.444   7.906  2.0030  0.3252 -1.0731
  412MOL0     H56795   8.808   2.482   8.143 -1.8403 -0.4890  0.1655
  412MOL0     H56796   8.861   2.316   8.152  0.6489  2.2151  1.8976
  412MOL0     H56797   9.025   2.344   7.967  3.0395 -1.2598  3.2050
  412MOL0     H56798   9.053   2.414   8.121  1.4101 -3.4871 -0.0190
  412MOL0     H56799   8.931   2.567   7.881  3.6132 -1.3715 -2.6882
  412MOL0     H56800   8.953   2.638   8.039  2.8227 -0.5191  1.8664
  412MOL0     H56801   9.168   2.531   7.847  2.7961  0.8018  0.2044
  412MOL0     H56802   9.214   2.552   8.005  1.0880 -0.0728 -0.7727
  412MOL0     H56803   9.263   2.752   7.860 -1.0470  4.0731 -1.0855
  412MOL0     H56804   9.096   2.781   7.832  1.9323  0.8687 -1.7254
  412MOL0     H56805   8.990   2.948   7.977  1.9504 -0.0509 -3.6976
  412MOL0     H56806   9.046   3.066   8.325  4.5617  1.4071 -0.3741
  412MOL0     H56807   8.944   3.086   8.194 -0.8250 -1.9344  0.6702
  412MOL0     H56808   9.206   3.259   8.204 -0.2184  1.4555  2.6511
  412MOL0     H56809   9.053   3.291   8.131  0.1349 -0.0439  0.7335
  412MOL0     H56810   9.113   3.326   8.432 -1.4591 -1.6829  1.5937
  412MOL0     H56811   9.066   3.431   8.292 -1.7092 -0.8554 -3.0781
  412MOL0     H56812   8.837   3.329   8.298 -1.2956  1.8068  1.4590
  412MOL0     H56813   8.890   3.214   8.431  3.1965  1.3235  2.9896
  412MOL0     H56814   9.033   3.386   8.683  0.3285 -2.4875 -2.3548
  412MOL0     H56815   8.980   3.301   9.018  0.7691  0.6545 -0.2000
  412MOL0     H56816   9.104   3.310   8.901  0.1735  0.3731  3.2841
  412MOL0     H56817   9.037   3.155   8.945  0.2992 -0.5579 -0.6942
  412MOL0     H56818   8.898   2.864   9.073  2.0247 -1.1338  3.2983
  412MOL0     H56819   8.859   2.710   9.260  2.1425  2.6887  0.9436
  412MOL0     H56820   8.649   2.532   9.316  0.6905  0.3054  0.2975
  412MOL0     H56821   8.760   2.528   9.458  1.5892  1.5194 -0.5810
  412MOL0     H56822   8.457   2.564   9.473  1.4095  2.3423 -0.7039
  412MOL0     H56823   8.525   2.408   9.496 -1.5615  0.5194 -0.3340
  412MOL0     H56824   8.467   2.522   9.689 -0.3934  0.0997 -3.3595
  412MOL0     H56825   8.566   2.657   9.643 -2.3321  0.8454 -0.2764
  412MOL0     H56826   8.780   2.508   9.668  0.2401  2.4283  1.4939
  412MOL0     H56827   8.672   2.369   9.705  2.8744 -0.3235  1.4144
  412MOL0     H56828   8.682   2.637   9.864  0.7027  0.7572 -1.3379
  412MOL0     H56829   8.599   2.503   9.922  0.6501  1.6280  0.0363
  412MOL0     H56830   8.815   2.521  10.046  1.3675 -0.8733  0.4535
  412MOL0     H56831   8.909   2.526   9.902 -0.4645  1.0458  0.9334
  412MOL0     H56832   8.910   2.301   9.877 -2.2820  1.1702 -0.6086
  412MOL0     H56833   8.740   2.281   9.922 -0.2775 -1.3605  1.5052
  412MOL0     H56834   8.877   2.173  10.089  2.1968 -0.0547  0.7157
  412MOL0     H56835   8.829   2.329  10.175 -0.0104  1.4767 -1.9363
  412MOL0     H56836   8.486   2.883   9.338  1.0841 -2.0941  1.2590
  412MOL0     H56837   8.538   3.064   9.154 -0.1123 -0.2830  1.8133
  412MOL0     H56838   8.570   3.248   8.771  0.5019  0.8755  2.6981
  412MOL0     H56839   8.643   3.359   8.549 -0.1528 -0.1262  0.9444
  412MOL0     H56840   8.334   2.171   7.789  2.2850  0.4243 -0.4760
  412MOL0     H56841   8.105   2.202   7.719  2.8179 -2.4056  1.2184
  412MOL0     H56842   7.706   2.271   7.781  0.6714  1.1669 -0.8804
  412MOL0     H56843   7.487   2.222   7.660  1.6089 -2.1149 -0.7764
  412MOL0     H56844   7.256   2.398   7.329 -0.5275 -0.3182 -1.2864
  412MOL0     H56845   7.375   2.528   7.335 -0.1126 -0.1664 -2.2263
  412MOL0     H56846   7.542   2.388   7.229 -0.9017  1.6230 -0.9991
  412MOL0     H56847   7.404   2.395   7.125 -1.0399  0.8333  0.1233
  412MOL0     H56848   7.488   2.165   7.320  0.5732  0.7256  0.4539
  412MOL0     H56849   7.331   2.174   7.236 -0.2793  0.2730 -1.1065
  412MOL0     H56850   7.421   2.106   7.025  0.4993  3.0125 -1.8404
  412MOL0     H56851   7.528   2.033   7.142  1.4775  2.0539  2.4459
  412MOL0     H56852   7.770   2.320   6.946  2.0352  0.4329  1.5711
  412MOL0     H56853   7.554   2.563   7.401  1.0775  1.6399 -0.2819
  412MOL0     H56854   7.720   2.727   7.525  0.8123  0.9645  0.9051
  412MOL0     H56855   7.870   2.656   7.585  2.1560  1.0175 -1.9944
  412MOL0     H56856   7.832   2.623   7.420  1.8503  0.4724  1.2469
  413MOL0     O56857   9.033   5.882   6.046  0.8046 -0.1439 -0.4191
  413MOL0     C56858   8.947   5.897   5.962  0.4965 -0.1152  0.4005
  413MOL0     O56859   8.954   5.973   5.839 -0.1822 -0.6656  0.1606
  413MOL0     C56860   9.075   6.033   5.796  0.0521  0.9300 -0.2077
  413MOL0     C56861   9.067   6.161   5.733 -0.3694  0.3839 -0.8731
  413MOL0     C56862   9.179   6.236   5.701 -0.5154 -0.4320  0.2724
  413MOL0     C56863   9.306   6.180   5.722  0.4557  0.0414  0.7576
  413MOL0     O56864   9.432   6.229   5.699  0.4835 -0.3057  0.1545
  413MOL0     C56865   9.437   6.347   5.628 -0.2162 -0.2846  0.1468
  413MOL0     C56866   9.399   6.480   5.712 -1.4143 -0.2408  0.6595
  413MOL0     C56867   9.471   6.482   5.851 -0.7112 -0.5094 -0.5486
  413MOL0     C56868   9.455   6.618   5.920 -0.0200  0.2669 -0.4624
  413MOL0     C56869   9.536   6.614   6.043  0.0550  0.5865  0.6501
  413MOL0     C56870   9.544   6.764   6.091  0.0650 -0.2881 -0.0629
  413MOL0     C56871   9.614   6.776   6.226  0.0375  0.2057  0.2400
  413MOL0     C56872   9.548   6.887   6.314 -0.5385 -0.3769 -0.1762
  413MOL0     N56873   9.422   6.841   6.375 -1.1299 -0.0864 -0.0208
  413MOL0     C56874   9.388   6.711   6.398 -0.1407 -0.3904 -0.3316
  413MOL0     C56875   9.264   6.731   6.456  0.2877  0.4212 -0.3376
  413MOL0     C56876   9.189   6.617   6.520  0.1636 -0.4490 -0.2943
  413MOL0     C56877   9.043   6.612   6.448  0.0756  0.7101  0.0808
  413MOL0     C56878   8.953   6.741   6.464 -0.8982 -0.4088 -0.7188
  413MOL0     C56879   8.954   6.798   6.606  0.6633 -1.2421 -0.7562
  413MOL0     O56880   8.869   6.724   6.689 -0.0265  0.0954 -0.2083
  413MOL0     C56881   8.738   6.747   6.713  0.2025  0.6835 -0.6877
  413MOL0     C56882   8.655   6.854   6.672 -0.1679 -0.3194 -0.4951
  413MOL0     C56883   8.513   6.861   6.685 -0.6909 -0.4453 -0.0121
  413MOL0     C56884   8.438   6.988   6.642  0.4059 -0.2655 -0.7274
  413MOL0     C56885   8.447   6.754   6.746  0.1590 -0.8500 -0.0116
  413MOL0     C56886   8.297   6.738   6.750 -0.2545 -0.7839  0.1119
  413MOL0     O56887   8.240   6.738   6.622  0.2367 -0.2758  0.1468
  413MOL0     C56888   8.120   6.685   6.616 -0.2672  0.3120  0.5448
  413MOL0     C56889   8.105   6.550   6.587  0.1025  0.2348  0.4790
  413MOL0     C56890   7.978   6.487   6.574  0.8029  0.9836 -0.4278
  413MOL0     C56891   7.864   6.573   6.578  0.2052 -0.2086 -0.3927
  413MOL0     O56892   7.732   6.527   6.568  0.2816  0.4778  0.4601
  413MOL0     C56893   7.701   6.390   6.529 -0.8409  0.2535 -0.1821
  413MOL0     C56894   7.558   6.376   6.502  0.2180  0.3051  0.3453
  413MOL0     C56895   7.509   6.459   6.382  0.4340  0.1838 -0.5733
  413MOL0     C56896   7.374   6.428   6.320  0.2960  0.1289 -0.8506
  413MOL0     C56897   7.257   6.494   6.398  0.3157 -0.5104  0.0284
  413MOL0     C56898   7.123   6.448   6.338  0.3598  0.2829 -0.3588
  413MOL0     C56899   7.003   6.548   6.357 -0.2460  0.3245  0.8563
  413MOL0     C56900   6.909   6.546   6.474 -0.6058  0.7696  0.4739
  413MOL0    Cl56901   7.016   6.603   6.617  0.1122 -0.0266 -0.0860
  413MOL0     C56902   7.876   6.706   6.606  0.2522 -0.1415  0.4872
  413MOL0     C56903   8.009   6.765   6.628  0.7031 -0.4569 -1.2910
  413MOL0     O56904   8.253   6.691   6.853  0.1038  0.3579  0.3370
  413MOL0     C56905   8.524   6.640   6.783 -0.1785 -0.6378  0.2614
  413MOL0     C56906   8.661   6.638   6.772  0.5305 -0.5485  0.1453
  413MOL0     N56907   9.240   6.869   6.481  0.5775  0.1098  0.3770
  413MOL0     N56908   9.336   6.930   6.427  0.4692 -0.4236  0.2857
  413MOL0     C56909   9.319   6.059   5.781  0.3962  0.5854  0.0845
  413MOL0     C56910   9.207   5.987   5.826  0.0336 -0.2178  0.7253
  413MOL0     C56911   8.828   5.815   5.973  0.2617  0.4230 -1.1162
  413MOL0     C56912   8.820   5.703   6.064  0.4334 -0.0516  0.3863
  413MOL0     C56913   8.702   5.647   6.095 -0.5266  0.3927  0.8686
  413MOL0     C56914   8.579   5.691   6.039  0.4200  0.3346 -0.5310
  413MOL0     O56915   8.454   5.637   6.083  0.7654 -0.2846  0.3739
  413MOL0     C56916   8.340   5.633   5.989 -0.1438  0.7422  0.2429
  413MOL0     C56917   8.210   5.645   6.068  0.1650 -0.2508  0.4357
  413MOL0     C56918   8.085   5.652   5.974  0.7488 -0.3832 -0.6805
  413MOL0     C56919   7.959   5.604   6.055 -0.3518 -0.2835  0.3861
  413MOL0     C56920   7.949   5.463   6.042 -1.2237  0.5366 -0.0618
  413MOL0     C56921   7.935   5.345   6.034 -0.2815 -0.1421 -0.7729
  413MOL0     C56922   8.589   5.807   5.971 -0.1572 -0.3741  0.0918
  413MOL0     C56923   8.707   5.861   5.918  0.1966 -0.2476 -0.8152
  413MOL0     C56924   8.681   5.990   5.839 -0.0228  0.5132  0.1859
  413MOL0     H56925   8.968   6.204   5.718 -0.4996  0.9632  1.3143
  413MOL0     H56926   9.164   6.336   5.661 -1.1529 -0.2078  1.0505
  413MOL0     H56927   9.385   6.349   5.531 -0.1686  1.3271  0.1319
  413MOL0     H56928   9.543   6.366   5.609 -0.8518  4.9116  0.3939
  413MOL0     H56929   9.425   6.568   5.652  0.3017 -1.8896 -1.1544
  413MOL0     H56930   9.292   6.477   5.735 -1.1978 -0.8891  1.6541
  413MOL0     H56931   9.422   6.408   5.916 -0.8006  0.6366  0.7372
  413MOL0     H56932   9.579   6.462   5.847 -0.2248  1.9722 -1.6572
  413MOL0     H56933   9.487   6.699   5.853  0.3133  1.6777  1.3341
  413MOL0     H56934   9.350   6.618   5.950  0.3558  1.2400  0.9111
  413MOL0     H56935   9.638   6.578   6.027  0.6840  1.4103  2.4279
  413MOL0     H56936   9.490   6.545   6.115  0.0535  0.5074  0.5734
  413MOL0     H56937   9.583   6.832   6.014 -2.0233  0.4927 -0.4938
  413MOL0     H56938   9.441   6.801   6.097 -0.1956 -1.1505  0.9112
  413MOL0     H56939   9.720   6.800   6.211  0.3551  0.9109  2.9713
  413MOL0     H56940   9.625   6.685   6.286  2.8004  0.5469  0.3893
  413MOL0     H56941   9.603   6.935   6.395 -1.7252  1.8528 -0.5882
  413MOL0     H56942   9.521   6.976   6.255  0.0599 -1.6295 -2.4873
  413MOL0     H56943   9.443   6.617   6.401  3.0552  1.2187 -2.7575
  413MOL0     H56944   9.191   6.631   6.628  4.1427 -1.2808 -0.1075
  413MOL0     H56945   9.247   6.526   6.500  0.8320 -0.3985  1.2855
  413MOL0     H56946   9.039   6.585   6.342 -2.3242  2.2386 -0.3060
  413MOL0     H56947   8.992   6.534   6.506  2.2521  0.0854  1.2333
  413MOL0     H56948   8.990   6.823   6.402  0.8710  0.7453  1.7332
  413MOL0     H56949   8.848   6.723   6.440 -1.3945  0.3413  0.7718
  413MOL0     H56950   9.056   6.794   6.645  0.6279 -3.8443 -0.7658
  413MOL0     H56951   8.928   6.904   6.598  1.4551 -1.0081 -0.2892
  413MOL0     H56952   8.699   6.929   6.607  1.1174  1.2021  1.9678
  413MOL0     H56953   8.500   7.061   6.590 -2.3390  2.0898 -0.9794
  413MOL0     H56954   8.404   7.035   6.735 -1.0748 -2.7298  0.0677
  413MOL0     H56955   8.352   6.968   6.577  1.2129  0.3829 -2.0406
  413MOL0     H56956   8.196   6.490   6.581 -0.4830 -0.5636 -1.1939
  413MOL0     H56957   7.979   6.383   6.545 -0.3818  1.5954 -2.9524
  413MOL0     H56958   7.750   6.367   6.434 -1.0827 -2.6336  0.3202
  413MOL0     H56959   7.738   6.317   6.601 -0.6703 -0.6472 -1.1546
  413MOL0     H56960   7.535   6.269   6.496  2.2140 -0.1579  0.3739
  413MOL0     H56961   7.507   6.416   6.590 -2.4054  0.9571 -1.3505
  413MOL0     H56962   7.582   6.450   6.301 -2.4606 -0.6659 -3.2969
  413MOL0     H56963   7.510   6.567   6.400  0.7371  0.5524 -2.5605
  413MOL0     H56964   7.358   6.320   6.314  0.3978  0.1419 -1.4021
  413MOL0     H56965   7.370   6.459   6.215  0.4626 -1.0897 -1.2299
  413MOL0     H56966   7.250   6.456   6.501 -0.9218  0.1135  0.1865
  413MOL0     H56967   7.273   6.601   6.416 -0.8252 -0.7864  3.4316
  413MOL0     H56968   7.088   6.354   6.382 -0.9213  0.4126 -1.0323
  413MOL0     H56969   7.132   6.427   6.231 -1.7102 -0.5100 -0.4347
  413MOL0     H56970   6.932   6.536   6.276 -1.8603  0.2329  2.2283
  413MOL0     H56971   7.051   6.645   6.339  2.2204 -1.1020 -0.8453
  413MOL0     H56972   6.874   6.448   6.510  2.2816 -0.0723  1.2437
  413MOL0     H56973   6.830   6.618   6.453 -2.0300 -0.6448  0.7838
  413MOL0     H56974   7.795   6.778   6.603  0.7849  0.4869 -2.9546
  413MOL0     H56975   8.008   6.869   6.657 -1.2158 -1.1427  1.4353
  413MOL0     H56976   8.491   6.556   6.844  2.1048 -0.2461  2.1668
  413MOL0     H56977   8.715   6.546   6.792  0.5803 -0.6913 -0.6003
  413MOL0     H56978   9.415   6.018   5.810  1.2538  3.0927  1.0312
  413MOL0     H56979   9.227   5.899   5.886 -1.2436 -1.4582 -0.5951
  413MOL0     H56980   8.914   5.661   6.097  0.1284  0.5983  2.1634
  413MOL0     H56981   8.695   5.553   6.151  0.4491  0.9476  1.9751
  413MOL0     H56982   8.352   5.701   5.905 -1.8171 -0.6606 -1.2372
  413MOL0     H56983   8.328   5.534   5.943 -1.2373  1.4723 -1.1203
  413MOL0     H56984   8.223   5.742   6.116  1.1392  0.4361 -1.1338
  413MOL0     H56985   8.203   5.567   6.144 -2.3436 -0.0696  0.4960
  413MOL0     H56986   8.068   5.758   5.952 -0.1578 -0.5141 -0.6299
  413MOL0     H56987   8.097   5.607   5.875 -2.3608  0.0943 -1.3817
  413MOL0     H56988   7.874   5.656   6.011 -0.6642 -1.9231 -1.0709
  413MOL0     H56989   7.970   5.625   6.161  0.7945 -1.4841  0.5327
  413MOL0     H56990   7.923   5.240   6.019  1.7658 -0.5755  0.3004
  413MOL0     H56991   8.497   5.848   5.931 -0.1976  1.0681  1.5589
  413MOL0     H56992   8.690   5.990   5.730  0.2122 -0.7484  0.1873
  413MOL0     H56993   8.575   6.016   5.830  0.1325  0.4493 -3.0764
  413MOL0     H56994   8.737   6.072   5.886 -0.5159  0.8142  0.2552
  414MOL0     O56995   4.273  10.502   8.451 -0.4434  0.2863 -0.2091
  414MOL0     C56996   4.259  10.577   8.360  0.0074 -0.5385 -0.5237
  414MOL0     O56997   4.290  10.713   8.365  0.9215  0.3689  0.5871
  414MOL0     C56998   4.352  10.768   8.467 -0.1334 -0.2704  0.3202
  414MOL0     C56999   4.448  10.707   8.544 -0.7395 -0.5620 -0.1850
  414MOL0     C57000   4.518  10.786   8.644  0.1789 -0.3654  0.5840
  414MOL0     C57001   4.486  10.919   8.661 -0.1728 -0.0041 -0.1919
  414MOL0     O57002   4.556  10.980   8.767 -0.3980 -0.3263 -0.1185
  414MOL0     C57003   4.528  11.120   8.788  0.7062  0.8872 -0.4444
  414MOL0     C57004   4.590  11.165   8.917 -0.2588 -0.1581 -0.7377
  414MOL0     C57005   4.746  11.136   8.931  0.5056  0.5258  0.0518
  414MOL0     C57006   4.835  11.205   8.820 -1.1928  0.9068 -0.3533
  414MOL0     C57007   4.986  11.192   8.828 -0.1449  0.3450  0.8398
  414MOL0     C57008   5.048  11.244   8.967  0.1815 -0.5662  0.1406
  414MOL0     C57009   5.200  11.270   8.964 -0.1955 -0.7070 -0.1986
  414MOL0     C57010   5.246  11.332   9.095  0.0382 -0.3700 -0.9205
  414MOL0     N57011   5.384  11.385   9.102  0.5533  0.0973 -0.2846
  414MOL0     C57012   5.502  11.308   9.078  0.3467 -0.5435  0.3217
  414MOL0     C57013   5.601  11.385   9.122  0.5399 -0.4168 -0.2696
  414MOL0     C57014   5.748  11.360   9.118 -0.2709 -0.3335 -0.1330
  414MOL0     C57015   5.812  11.415   8.999 -0.0787 -0.0083  0.4547
  414MOL0     C57016   5.810  11.564   8.965  0.2958 -0.8687  0.7305
  414MOL0     C57017   5.913  11.605   8.861 -0.3354  0.3761  0.2220
  414MOL0     O57018   6.047  11.571   8.895 -0.1085 -0.5642 -0.3688
  414MOL0     C57019   6.148  11.589   8.803  0.1601 -0.1116 -0.0811
  414MOL0     C57020   6.273  11.568   8.853 -0.7427 -0.1229 -0.6353
  414MOL0     C57021   6.387  11.602   8.781  0.0254  0.6340 -0.2591
  414MOL0     C57022   6.521  11.594   8.850 -0.3092  0.3258 -0.4489
  414MOL0     C57023   6.374  11.637   8.642  0.7066  0.1334 -0.1644
  414MOL0     C57024   6.489  11.681   8.561 -0.1102  0.1127 -0.3016
  414MOL0     O57025   6.533  11.807   8.583 -0.6080 -0.1337 -0.0747
  414MOL0     C57026   6.644  11.864   8.537  0.0769 -0.8120  0.3255
  414MOL0     C57027   6.628  11.985   8.466  0.2611 -0.2103 -0.4517
  414MOL0     C57028   6.747  12.046   8.408 -0.2080 -0.4523 -0.7786
  414MOL0     C57029   6.871  11.989   8.439  0.0875 -0.7594 -0.1956
  414MOL0     O57030   6.987  12.052   8.384 -0.1887  0.5622 -0.0313
  414MOL0     C57031   7.010  12.125   8.260 -0.0934  0.2677 -0.6694
  414MOL0     C57032   7.154  12.106   8.228  0.9529  0.2196 -0.4346
  414MOL0     C57033   7.245  12.107   8.347  0.0989  0.7427 -0.2653
  414MOL0     C57034   7.396  12.067   8.311  0.3335 -0.2108  0.6974
  414MOL0     C57035   7.476  12.057   8.447  0.0399  0.2129  0.1484
  414MOL0     C57036   7.630  12.077   8.423  0.3987 -0.3118  1.3757
  414MOL0     C57037   7.686  11.947   8.371  0.0481 -0.1829  0.3184
  414MOL0     C57038   7.833  11.967   8.338  0.2046 -0.9021  0.1041
  414MOL0    Cl57039   7.935  11.977   8.482  0.0994  0.2515 -0.3584
  414MOL0     C57040   6.880  11.870   8.508  0.4958 -0.4971  0.3713
  414MOL0     C57041   6.767  11.810   8.558 -0.6683  0.2735 -0.5138
  414MOL0     O57042   6.533  11.603   8.477  0.3848  0.2446 -0.1207
  414MOL0     C57043   6.251  11.633   8.587 -0.2282 -0.7950 -0.7904
  414MOL0     C57044   6.137  11.620   8.663  0.6365 -0.1227 -0.4190
  414MOL0     N57045   5.549  11.505   9.167  0.3857  0.7215  0.6440
  414MOL0     N57046   5.418  11.507   9.150 -0.0644 -0.8923 -0.1390
  414MOL0     C57047   4.396  10.983   8.570 -0.8247  0.2427  1.5139
  414MOL0     C57048   4.327  10.903   8.476 -0.1358 -0.4384 -0.6088
  414MOL0     C57049   4.200  10.529   8.226 -0.0151  0.2859 -0.1308
  414MOL0     C57050   4.202  10.618   8.113  0.2905 -0.5164 -0.6625
  414MOL0     C57051   4.141  10.594   7.997 -0.4728  0.5137 -0.1401
  414MOL0     C57052   4.077  10.471   7.981  0.1146 -0.8086 -0.0559
  414MOL0     O57053   4.001  10.466   7.865 -0.8224 -0.9841  0.0948
  414MOL0     C57054   3.970  10.335   7.819  0.2067  0.7216 -0.7664
  414MOL0     C57055   3.876  10.331   7.702 -0.6310  0.5403 -0.3960
  414MOL0     C57056   3.938  10.384   7.568  0.2899  0.3796  0.0935
  414MOL0     C57057   4.023  10.274   7.509  0.6820  0.9133 -0.0729
  414MOL0     C57058   3.943  10.164   7.449  0.6643  0.8155  0.3000
  414MOL0     C57059   3.890  10.057   7.400 -0.1674  0.3454 -1.4694
  414MOL0     C57060   4.086  10.372   8.086 -0.0663 -0.0289  0.4971
  414MOL0     C57061   4.141  10.406   8.209 -0.6204  0.4018 -1.4500
  414MOL0     C57062   4.139  10.298   8.308  0.7960  0.9502 -0.1034
  414MOL0     H57063   4.478  10.605   8.523 -1.1791 -0.4788 -1.2551
  414MOL0     H57064   4.582  10.740   8.719  0.1833  0.8310  1.3261
  414MOL0     H57065   4.420  11.138   8.793  0.7177  0.7136  2.9769
  414MOL0     H57066   4.574  11.174   8.706 -2.2404  0.6101 -2.4408
  414MOL0     H57067   4.579  11.273   8.929  0.0372 -0.3944  2.6762
  414MOL0     H57068   4.541  11.117   9.003  0.3482 -1.1969 -0.9412
  414MOL0     H57069   4.775  11.173   9.030  1.0365  0.5221 -0.1040
  414MOL0     H57070   4.779  11.031   8.933  4.0421  1.5371  0.7565
  414MOL0     H57071   4.800  11.181   8.719  2.5443 -2.5839 -1.0770
  414MOL0     H57072   4.805  11.308   8.842  0.1599  0.7826  2.5351
  414MOL0     H57073   5.021  11.254   8.745  0.7395 -2.2089 -0.8138
  414MOL0     H57074   5.024  11.091   8.811 -1.2850 -0.0389  0.4449
  414MOL0     H57075   4.993  11.332   8.999 -1.0664 -2.3148  3.1383
  414MOL0     H57076   5.017  11.168   9.038 -1.2116 -0.4692 -0.3447
  414MOL0     H57077   5.213  11.345   8.886  0.5004  0.2856  0.8378
  414MOL0     H57078   5.264  11.183   8.946  1.3397  0.4892 -0.7878
  414MOL0     H57079   5.174  11.413   9.109 -2.5454 -1.9784 -3.5672
  414MOL0     H57080   5.226  11.260   9.175  0.0120  0.8961  0.2377
  414MOL0     H57081   5.508  11.210   9.031 -2.1811 -0.2300 -0.8026
  414MOL0     H57082   5.771  11.253   9.116  1.5840  0.0397 -0.1958
  414MOL0     H57083   5.792  11.406   9.207 -0.8091  0.5228 -0.3074
  414MOL0     H57084   5.916  11.395   9.027  0.1955  0.7648  0.0041
  414MOL0     H57085   5.770  11.364   8.912  1.2438  2.5597 -1.8393
  414MOL0     H57086   5.711  11.576   8.921  0.0538 -2.9003  0.6513
  414MOL0     H57087   5.813  11.617   9.061 -2.8569 -0.2285  0.5684
  414MOL0     H57088   5.888  11.574   8.759  1.1581  1.9496 -0.6494
  414MOL0     H57089   5.918  11.714   8.859  0.3688  0.4713  3.0423
  414MOL0     H57090   6.287  11.546   8.959  0.9614  0.0234 -0.8048
  414MOL0     H57091   6.542  11.493   8.887  1.2603 -0.2259 -2.6022
  414MOL0     H57092   6.519  11.650   8.943 -1.5163 -0.8594  0.2738
  414MOL0     H57093   6.605  11.628   8.789  2.0486 -1.7479  1.4091
  414MOL0     H57094   6.527  12.020   8.444  0.4000  0.5591  0.0976
  414MOL0     H57095   6.724  12.136   8.352 -0.3667 -0.5141 -0.8138
  414MOL0     H57096   6.935  12.104   8.183 -1.1701 -3.4048  1.1425
  414MOL0     H57097   7.018  12.232   8.284  4.5879 -0.6182  3.3733
  414MOL0     H57098   7.174  12.004   8.194 -0.2131 -0.3224  0.4291
  414MOL0     H57099   7.180  12.168   8.142 -2.0763 -0.2124 -1.8182
  414MOL0     H57100   7.214  12.019   8.403  1.9356  0.5394  0.5245
  414MOL0     H57101   7.250  12.193   8.414 -0.4808  0.5472  0.0357
  414MOL0     H57102   7.431  12.150   8.250  0.3560 -1.3154 -0.8422
  414MOL0     H57103   7.400  11.973   8.254 -2.2260 -2.2989  3.6205
  414MOL0     H57104   7.443  12.139   8.511 -0.6206  0.9396 -1.0962
  414MOL0     H57105   7.450  11.961   8.494  1.3497 -0.1391  0.1754
  414MOL0     H57106   7.673  12.096   8.522 -1.8490 -2.5852  2.9199
  414MOL0     H57107   7.645  12.157   8.349 -0.2227 -2.3633 -1.1193
  414MOL0     H57108   7.636  11.921   8.277 -1.8829 -1.8030  1.7175
  414MOL0     H57109   7.664  11.870   8.445  0.9225 -0.9547 -0.1959
  414MOL0     H57110   7.850  12.052   8.272 -2.1816  0.7778  1.5230
  414MOL0     H57111   7.866  11.875   8.288 -0.2329 -1.4105  0.7390
  414MOL0     H57112   6.972  11.827   8.545 -0.9055 -2.9245  1.2418
  414MOL0     H57113   6.797  11.726   8.619 -1.1226  1.0944  0.8770
  414MOL0     H57114   6.231  11.659   8.484  1.4999 -1.6974 -1.3794
  414MOL0     H57115   6.037  11.628   8.619  0.5764  0.4421 -0.1813
  414MOL0     H57116   4.392  11.092   8.569 -0.3277  0.4364 -3.1118
  414MOL0     H57117   4.259  10.960   8.414  2.1776  2.3352 -0.7977
  414MOL0     H57118   4.245  10.717   8.126  2.9956 -1.7686  0.7940
  414MOL0     H57119   4.140  10.662   7.912 -0.5934 -1.9650 -2.2399
  414MOL0     H57120   4.066  10.284   7.803  1.0306  2.2972 -1.0798
  414MOL0     H57121   3.918  10.279   7.897  4.7084 -0.4498  1.7988
  414MOL0     H57122   3.794  10.399   7.727 -0.1224  1.1893 -0.4806
  414MOL0     H57123   3.837  10.230   7.687 -1.3869  1.2100 -3.7173
  414MOL0     H57124   3.858  10.413   7.499 -0.4433 -1.9130 -0.0737
  414MOL0     H57125   3.990  10.480   7.579 -1.7592  1.5390  0.3787
  414MOL0     H57126   4.089  10.230   7.583 -0.9842 -2.6205 -0.4448
  414MOL0     H57127   4.082  10.315   7.427  3.4105 -3.0482 -0.3698
  414MOL0     H57128   3.846   9.969   7.357  0.4281 -0.1553 -1.0737
  414MOL0     H57129   4.039  10.274   8.079  2.7782 -1.5228  1.0480
  414MOL0     H57130   4.241  10.276   8.341  0.2985  2.0682  2.5051
  414MOL0     H57131   4.084  10.321   8.400  0.5353  2.6404 -0.6313
  414MOL0     H57132   4.107  10.202   8.269  0.4020 -0.1275  2.6700
  415MOL0     O57133   6.765   6.391  10.920  0.0066 -0.2873  0.4946
  415MOL0     C57134   6.730   6.507  10.940  0.1480 -0.6413 -0.1436
  415MOL0     O57135   6.805   6.606  11.010  0.5864 -0.1190 -0.6950
  415MOL0     C57136   6.936   6.580  11.056 -0.9732  0.4733  0.0513
  415MOL0     C57137   7.032   6.509  10.987 -0.6199  0.3595 -0.4047
  415MOL0     C57138   7.163   6.482  11.049 -0.3841  0.3637 -0.0825
  415MOL0     C57139   7.191   6.545  11.173  0.2538 -0.0692 -0.5128
  415MOL0     O57140   7.323   6.546  11.223 -0.1954  1.1480 -0.0500
  415MOL0     C57141   7.369   6.639  11.312  0.0093 -1.9381  0.4813
  415MOL0     C57142   7.499   6.594  11.370  1.4802  0.1248 -0.1095
  415MOL0     C57143   7.610   6.613  11.267 -0.2481  0.3130 -0.1091
  415MOL0     C57144   7.740   6.538  11.321  0.6720  0.1652 -0.1450
  415MOL0     C57145   7.874   6.565  11.264  0.5398 -0.2191 -0.0986
  415MOL0     C57146   7.896   6.502  11.124  0.3396  0.1409  0.0142
  415MOL0     C57147   8.042   6.486  11.084 -0.4624 -0.2862 -0.1249
  415MOL0     C57148   8.047   6.439  10.931 -0.8004  0.2612 -0.2958
  415MOL0     N57149   8.161   6.345  10.903 -0.6594  0.0035  0.6902
  415MOL0     C57150   8.250   6.293  10.996  0.8867  0.4422 -0.5487
  415MOL0     C57151   8.328   6.211  10.933 -0.0933  0.1486 -1.3911
  415MOL0     C57152   8.441   6.124  10.990  0.1876 -0.4252 -0.2067
  415MOL0     C57153   8.576   6.176  10.931  0.6951  0.5928 -0.0208
  415MOL0     C57154   8.690   6.090  10.980 -0.2210  0.0431  0.1118
  415MOL0     C57155   8.827   6.142  10.937  0.7562  0.3729 -0.2284
  415MOL0     O57156   8.923   6.123  11.048  0.6301  0.0618 -0.0551
  415MOL0     C57157   9.054   6.142  11.017 -0.0186 -0.5845 -1.0447
  415MOL0     C57158   9.140   6.107  11.117  0.1175  0.3756 -1.0281
  415MOL0     C57159   9.280   6.119  11.095 -0.1673  0.8179 -0.5531
  415MOL0     C57160   9.377   6.061  11.199  0.3172  0.3987 -0.4415
  415MOL0     C57161   9.331   6.168  10.972  0.5382  0.1191 -0.2911
  415MOL0     C57162   9.472   6.195  10.936  0.6746  0.2474 -0.7715
  415MOL0     O57163   9.498   6.210  10.803  0.6220 -0.3051  0.4637
  415MOL0     C57164   9.620   6.259  10.758 -0.4675 -0.0951 -0.4210
  415MOL0     C57165   9.693   6.172  10.673  0.2332 -0.6868 -0.2308
  415MOL0     C57166   9.810   6.204  10.606 -0.8390 -0.3630  0.1109
  415MOL0     C57167   9.868   6.333  10.631  0.1862  0.1878  0.0658
  415MOL0     O57168   9.988   6.374  10.583 -0.2533  0.5848  0.4938
  415MOL0     C57169  10.085   6.268  10.570  0.1786 -0.1123 -1.0729
  415MOL0     C57170  10.222   6.314  10.596 -0.2191  0.4561 -0.9076
  415MOL0     C57171  10.328   6.207  10.580  0.0357 -0.2426 -0.3356
  415MOL0     C57172  10.468   6.260  10.587  0.1525  0.2265  0.1945
  415MOL0     C57173  10.557   6.142  10.535 -0.3827 -0.8049  0.0181
  415MOL0     C57174  10.705   6.164  10.523 -0.1546  0.0588 -0.9269
  415MOL0     C57175  10.763   6.050  10.440  0.8539  0.1417  0.9516
  415MOL0     C57176  10.918   6.060  10.430 -0.3836  0.0510 -0.0874
  415MOL0    Cl57177  10.995   5.900  10.404  0.2995  0.0094  0.0337
  415MOL0     C57178   9.796   6.416  10.710  0.1870 -0.2538  0.2618
  415MOL0     C57179   9.676   6.385  10.774 -0.2901 -0.6635 -0.6068
  415MOL0     O57180   9.555   6.212  11.025  0.5350  0.1687 -0.7422
  415MOL0     C57181   9.235   6.205  10.875 -0.3978 -0.3438  0.0634
  415MOL0     C57182   9.102   6.198  10.901  0.1528  0.3773  0.8285
  415MOL0     N57183   8.293   6.208  10.801 -0.5934 -0.1759  0.0951
  415MOL0     N57184   8.199   6.295  10.781 -0.3984  0.2176  0.1438
  415MOL0     C57185   7.089   6.637  11.225  0.0632 -0.0270  0.0681
  415MOL0     C57186   6.971   6.643  11.170  0.9275 -0.4692 -0.2101
  415MOL0     C57187   6.586   6.556  10.914  0.6468 -0.0327 -0.4223
  415MOL0     C57188   6.554   6.689  10.946  0.3915  1.4280 -0.0251
  415MOL0     C57189   6.422   6.728  10.929 -1.1024  0.2620 -0.7600
  415MOL0     C57190   6.329   6.661  10.857  0.1851 -0.6507  0.3881
  415MOL0     O57191   6.216   6.718  10.827 -0.0693  0.6361  0.6793
  415MOL0     C57192   6.101   6.666  10.899  0.3228 -0.1891  0.6839
  415MOL0     C57193   5.973   6.692  10.831  0.1183 -0.6189 -0.4309
  415MOL0     C57194   5.895   6.823  10.865 -0.1351 -0.5044 -0.8251
  415MOL0     C57195   5.979   6.949  10.857 -0.1808  0.3514  0.0602
  415MOL0     C57196   6.079   6.978  10.955  0.1823  0.5591 -0.5530
  415MOL0     C57197   6.163   7.000  11.034 -0.3830  0.2899 -0.6636
  415MOL0     C57198   6.364   6.540  10.802 -0.8849  0.0231  0.1152
  415MOL0     C57199   6.492   6.486  10.832  0.6085  0.1076  0.3111
  415MOL0     C57200   6.515   6.347  10.782 -0.1764  0.0235 -0.4975
  415MOL0     H57201   7.005   6.463  10.893  3.5782 -2.1202 -0.6490
  415MOL0     H57202   7.235   6.413  11.005 -1.6696 -1.3973  0.4421
  415MOL0     H57203   7.288   6.655  11.385 -0.3001 -3.7339  0.5768
  415MOL0     H57204   7.376   6.738  11.266  0.1690 -2.3429 -0.3748
  415MOL0     H57205   7.518   6.656  11.458  1.3148 -2.0657  1.5343
  415MOL0     H57206   7.486   6.489  11.399  1.1248 -0.2680 -1.5986
  415MOL0     H57207   7.586   6.574  11.168 -0.3878 -0.7669  0.3396
  415MOL0     H57208   7.631   6.720  11.275 -0.8453  0.3032  2.2523
  415MOL0     H57209   7.736   6.564  11.427  2.0717  2.3884 -0.5723
  415MOL0     H57210   7.729   6.429  11.311  1.8354 -0.0291  0.5169
  415MOL0     H57211   7.955   6.538  11.333 -1.0752  0.3966  2.1614
  415MOL0     H57212   7.882   6.673  11.244  0.5057 -0.3490 -0.8591
  415MOL0     H57213   7.855   6.402  11.110  1.9386 -0.3437 -1.5984
  415MOL0     H57214   7.851   6.572  11.053  0.2159  0.2589  0.2064
  415MOL0     H57215   8.079   6.411  11.155 -1.5647  0.3447  1.1627
  415MOL0     H57216   8.100   6.577  11.101  0.3341 -0.6822 -0.6453
  415MOL0     H57217   7.954   6.387  10.910 -1.4750  1.5658 -0.5998
  415MOL0     H57218   8.059   6.524  10.864  5.4351 -1.1288 -1.6466
  415MOL0     H57219   8.265   6.319  11.101 -0.1782 -0.0855 -0.2546
  415MOL0     H57220   8.422   6.024  10.951 -1.9200  0.2323 -1.0285
  415MOL0     H57221   8.435   6.125  11.099  2.2930  1.5176 -0.0397
  415MOL0     H57222   8.572   6.175  10.822 -0.5545 -3.2622 -0.1060
  415MOL0     H57223   8.594   6.278  10.966  0.2791  0.8261 -0.4871
  415MOL0     H57224   8.695   6.089  11.089  0.8583 -1.2761  0.0664
  415MOL0     H57225   8.689   5.992  10.931  0.7902 -0.9949  2.0532
  415MOL0     H57226   8.855   6.100  10.840  3.2977  1.0029  0.1393
  415MOL0     H57227   8.812   6.249  10.919 -1.8574  0.3249  1.1941
  415MOL0     H57228   9.100   6.058  11.204 -0.3399 -2.3914 -2.6884
  415MOL0     H57229   9.413   5.969  11.153 -0.6889  0.0989 -0.6628
  415MOL0     H57230   9.321   6.031  11.288  1.0193 -2.3972 -0.8489
  415MOL0     H57231   9.464   6.123  11.223  1.7325 -1.4941 -0.4772
  415MOL0     H57232   9.645   6.076  10.659 -0.4649 -0.5740  1.1943
  415MOL0     H57233   9.846   6.140  10.526 -0.8570 -0.8351  0.4786
  415MOL0     H57234  10.066   6.180  10.632  1.9857  0.2333  0.0560
  415MOL0     H57235  10.094   6.236  10.466  4.4630  1.1938 -1.3020
  415MOL0     H57236  10.233   6.375  10.506 -0.2413  0.4571 -0.9095
  415MOL0     H57237  10.237   6.382  10.680  1.3662 -1.2881  0.2844
  415MOL0     H57238  10.325   6.157  10.483 -1.9609 -0.0546 -0.4115
  415MOL0     H57239  10.324   6.135  10.663  0.1991 -0.1832 -0.2770
  415MOL0     H57240  10.508   6.287  10.685 -0.0132  2.8512 -0.3710
  415MOL0     H57241  10.482   6.347  10.522 -0.7248  0.4190  0.2455
  415MOL0     H57242  10.541   6.049  10.591 -2.2100 -1.1619 -1.0492
  415MOL0     H57243  10.522   6.112  10.436 -1.9867 -1.7485  0.8341
  415MOL0     H57244  10.750   6.151  10.622 -1.7780 -1.7271 -0.3532
  415MOL0     H57245  10.737   6.264  10.492  0.2608  0.5096  0.8027
  415MOL0     H57246  10.720   6.052  10.339 -0.3807 -2.7467  1.3136
  415MOL0     H57247  10.743   5.950  10.479  3.1542 -1.1330 -0.8326
  415MOL0     H57248  10.971   6.111  10.512  1.4008  1.1443 -1.8258
  415MOL0     H57249  10.934   6.117  10.338  4.4004  0.7249  0.8713
  415MOL0     H57250   9.830   6.518  10.728  0.7555 -0.4330  0.2168
  415MOL0     H57251   9.642   6.462  10.842  0.5258 -1.3650  0.6223
  415MOL0     H57252   9.266   6.233  10.775 -0.0294 -1.3856 -0.1325
  415MOL0     H57253   9.041   6.227  10.816  3.3314  0.9951 -1.4125
  415MOL0     H57254   7.101   6.695  11.316 -3.1735 -0.7612  1.1210
  415MOL0     H57255   6.906   6.712  11.222  1.1673 -0.7027  0.4192
  415MOL0     H57256   6.608   6.753  11.015  0.4769 -0.6409  1.9470
  415MOL0     H57257   6.407   6.830  10.964  1.1787 -0.9304  4.7156
  415MOL0     H57258   6.102   6.560  10.924 -3.9216 -0.8763 -1.1636
  415MOL0     H57259   6.087   6.704  11.000 -3.8103 -0.1942  0.2875
  415MOL0     H57260   5.908   6.604  10.835  0.7976 -1.4366 -3.8436
  415MOL0     H57261   5.991   6.682  10.723  0.6812 -0.7441 -0.3277
  415MOL0     H57262   5.811   6.834  10.797 -1.5489 -1.8935  0.6266
  415MOL0     H57263   5.836   6.806  10.956 -0.8581 -1.9445 -1.5393
  415MOL0     H57264   5.907   7.031  10.854 -0.1717  0.3617  0.1215
  415MOL0     H57265   6.030   6.941  10.761 -0.0769 -0.0537  0.1453
  415MOL0     H57266   6.225   7.033  11.115 -0.9288  1.4326 -0.6859
  415MOL0     H57267   6.285   6.489  10.748 -2.2368  0.2839  1.7533
  415MOL0     H57268   6.436   6.307  10.717  2.1246 -0.4457 -3.1755
  415MOL0     H57269   6.599   6.332  10.714  1.1641 -2.7083  1.5547
  415MOL0     H57270   6.520   6.285  10.872 -2.0608 -0.1509 -0.4579
  416MOL0     O57271   8.916   6.100   8.445 -0.0542  0.2275 -0.2685
  416MOL0     C57272   8.962   6.134   8.337  0.2835 -0.0693  0.3031
  416MOL0     O57273   9.097   6.111   8.290  0.8308 -0.2808 -0.1911
  416MOL0     C57274   9.196   6.045   8.352 -0.9757 -0.4197 -0.4837
  416MOL0     C57275   9.202   6.022   8.494 -0.5775 -0.4214  0.2505
  416MOL0     C57276   9.310   5.973   8.566 -0.0025  0.2562 -0.7075
  416MOL0     C57277   9.426   5.938   8.498  0.5130 -0.3146 -0.0803
  416MOL0     O57278   9.538   5.885   8.565  0.0190 -0.2324  0.3441
  416MOL0     C57279   9.661   5.870   8.492 -0.0437 -0.7373  0.3339
  416MOL0     C57280   9.759   5.792   8.568 -0.8958  0.0157 -0.4634
  416MOL0     C57281   9.862   5.739   8.475  0.3355 -1.1870 -0.9611
  416MOL0     C57282   9.944   5.862   8.423  0.5274  1.3960 -0.0177
  416MOL0     C57283  10.063   5.818   8.336 -0.5682 -0.6438 -0.1224
  416MOL0     C57284  10.132   5.931   8.266  0.3303  0.2275 -0.1353
  416MOL0     C57285  10.240   5.867   8.175  1.3493 -0.8792 -0.9843
  416MOL0     C57286  10.289   5.957   8.063  0.4383  0.7306  0.7520
  416MOL0     N57287  10.330   6.097   8.108  0.1618  0.1087  0.1873
  416MOL0     C57288  10.242   6.206   8.113  0.6805  0.5940 -0.0326
  416MOL0     C57289  10.320   6.320   8.119  1.2687 -0.4023  0.1347
  416MOL0     C57290  10.257   6.459   8.096  0.0070 -0.0810  0.4922
  416MOL0     C57291  10.244   6.509   7.953 -0.1806  0.4000 -0.3177
  416MOL0     C57292  10.184   6.646   7.947  0.8210 -0.5316 -0.3685
  416MOL0     C57293  10.149   6.694   7.807 -0.2617 -0.1195 -0.0249
  416MOL0     O57294  10.269   6.688   7.722  0.7846  0.3217  0.1631
  416MOL0     C57295  10.350   6.798   7.726 -0.2113 -0.2317  1.0817
  416MOL0     C57296  10.445   6.805   7.621 -1.0196  0.4694 -1.2280
  416MOL0     C57297  10.534   6.912   7.606  0.5158  0.4072  0.6625
  416MOL0     C57298  10.622   6.890   7.489  0.3981  0.2260  0.2330
  416MOL0     C57299  10.537   7.021   7.691  0.3779  0.3783  0.1261
  416MOL0     C57300  10.627   7.136   7.678  0.0053  0.6904 -0.3752
  416MOL0     O57301  10.598   7.241   7.756  0.2784 -0.2274 -0.7123
  416MOL0     C57302  10.627   7.364   7.697  0.6956  0.5165 -0.6923
  416MOL0     C57303  10.547   7.396   7.594 -0.1295 -0.0896  0.3677
  416MOL0     C57304  10.556   7.526   7.528 -1.1190  0.5711 -0.3148
  416MOL0     C57305  10.661   7.602   7.572 -0.3040  0.2602  1.1621
  416MOL0     O57306  10.711   7.723   7.519 -0.5767  0.9857  0.4240
  416MOL0     C57307  10.681   7.745   7.385  0.7913  0.7555  0.2390
  416MOL0     C57308  10.782   7.843   7.319  0.0215  0.2633 -0.4850
  416MOL0     C57309  10.796   7.961   7.411  0.4467 -0.6691 -0.9762
  416MOL0     C57310  10.893   8.056   7.331 -0.3088 -0.7509 -1.0267
  416MOL0     C57311  10.884   8.068   7.176  0.9620 -0.0649 -0.6188
  416MOL0     C57312  10.918   8.210   7.132 -0.6298  0.1931  0.9020
  416MOL0     C57313  10.911   8.224   6.982  0.8531  0.1960  0.6282
  416MOL0     C57314  10.940   8.367   6.937 -0.4064  0.5305  0.1847
  416MOL0    Cl57315  10.892   8.403   6.776  0.3746  0.3721  0.4822
  416MOL0     C57316  10.739   7.570   7.683  0.5994  0.1200 -1.3494
  416MOL0     C57317  10.727   7.448   7.746  0.1531 -0.6740 -0.2029
  416MOL0     O57318  10.709   7.134   7.592  0.3365  0.0201  0.4831
  416MOL0     C57319  10.435   7.017   7.789  0.5543 -0.2783 -0.0748
  416MOL0     C57320  10.352   6.909   7.815  0.7190  0.5821 -1.0308
  416MOL0     N57321  10.446   6.284   8.115  0.7723  0.3069  0.6352
  416MOL0     N57322  10.457   6.152   8.101 -0.2038 -0.0413 -0.0311
  416MOL0     C57323   9.420   5.957   8.352  0.3459  0.5317  0.6014
  416MOL0     C57324   9.312   6.013   8.286  0.4120  0.4238 -0.0833
  416MOL0     C57325   8.872   6.181   8.241  0.6418 -0.4526 -0.0970
  416MOL0     C57326   8.744   6.117   8.229  0.9136 -0.6866 -0.0186
  416MOL0     C57327   8.648   6.146   8.128 -0.8104 -0.2679  0.1784
  416MOL0     C57328   8.676   6.259   8.047 -0.7280  0.1950 -0.3293
  416MOL0     O57329   8.586   6.310   7.967  0.1423  0.0730  0.1306
  416MOL0     C57330   8.462   6.243   7.932  0.1429  0.3078  1.0014
  416MOL0     C57331   8.352   6.272   8.035  0.4002  1.1016  0.2469
  416MOL0     C57332   8.324   6.418   8.053  0.0841 -0.9589  0.3129
  416MOL0     C57333   8.240   6.459   8.180 -0.0918 -0.1718  0.3166
  416MOL0     C57334   8.315   6.424   8.299  0.5021  0.8348 -0.2590
  416MOL0     C57335   8.383   6.394   8.392 -0.0738 -0.4865 -0.5987
  416MOL0     C57336   8.795   6.322   8.061 -0.2923 -1.0895  0.3366
  416MOL0     C57337   8.898   6.287   8.153 -0.2088 -0.7221  0.6620
  416MOL0     C57338   9.024   6.379   8.145 -0.2318  1.2718 -0.4928
  416MOL0     H57339   9.122   6.051   8.562 -0.0928 -4.0709  2.6374
  416MOL0     H57340   9.290   5.966   8.672 -0.4578  2.7809 -0.5723
  416MOL0     H57341   9.704   5.968   8.470  0.7174 -0.3303  3.2290
  416MOL0     H57342   9.628   5.813   8.404 -1.7471  2.3802 -1.2065
  416MOL0     H57343   9.812   5.850   8.645 -1.3370 -2.5787  1.9865
  416MOL0     H57344   9.723   5.703   8.621 -0.3243  0.3250  0.4810
  416MOL0     H57345   9.933   5.677   8.529  1.2581  0.4299 -0.2370
  416MOL0     H57346   9.828   5.673   8.395 -0.4069 -1.2914 -0.5765
  416MOL0     H57347   9.874   5.916   8.358 -0.1106  0.9053  0.2439
  416MOL0     H57348   9.972   5.919   8.512  1.0148  2.2862 -0.7252
  416MOL0     H57349  10.028   5.743   8.264 -3.4476  2.8918 -2.8186
  416MOL0     H57350  10.134   5.772   8.405 -2.0497  1.1801  2.8254
  416MOL0     H57351  10.060   5.992   8.211 -0.3964 -0.0059  0.5416
  416MOL0     H57352  10.188   5.997   8.334  0.2983  1.0801 -0.9180
  416MOL0     H57353  10.189   5.783   8.125 -2.4512  0.2836  0.5644
  416MOL0     H57354  10.319   5.837   8.244 -2.5169 -0.2152  4.3318
  416MOL0     H57355  10.372   5.908   8.011 -1.3430  1.5058 -3.2089
  416MOL0     H57356  10.199   5.970   8.002 -1.8143 -1.4795  3.3509
  416MOL0     H57357  10.136   6.198   8.093  0.0442 -0.6111  3.3112
  416MOL0     H57358  10.303   6.528   8.167  3.3935 -0.4730 -1.1144
  416MOL0     H57359  10.151   6.445   8.120 -0.5765  1.0360 -1.2396
  416MOL0     H57360  10.344   6.505   7.908 -0.2475  2.9378 -0.7955
  416MOL0     H57361  10.175   6.441   7.902  1.9527 -0.3806 -2.3951
  416MOL0     H57362  10.100   6.674   8.011  1.0744 -0.0740 -0.2340
  416MOL0     H57363  10.271   6.704   7.980 -0.1041  0.5180  0.2891
  416MOL0     H57364  10.075   6.631   7.757 -1.3534  0.2615  1.0675
  416MOL0     H57365  10.097   6.790   7.809 -2.8319 -1.4605  1.5858
  416MOL0     H57366  10.466   6.722   7.554 -0.4952  0.4656 -1.0670
  416MOL0     H57367  10.725   6.914   7.516  0.7286 -2.3491  1.6329
  416MOL0     H57368  10.598   6.951   7.402 -1.3974 -1.7268 -0.7402
  416MOL0     H57369  10.630   6.785   7.459  1.6731  0.5530 -0.6374
  416MOL0     H57370  10.465   7.328   7.574  0.7169 -1.6193  1.8406
  416MOL0     H57371  10.493   7.556   7.445 -1.6051 -1.3930 -0.7014
  416MOL0     H57372  10.690   7.654   7.325  0.0685 -0.0595  1.3160
  416MOL0     H57373  10.581   7.788   7.390  0.8119  0.7134  1.1689
  416MOL0     H57374  10.877   7.790   7.309 -1.4047 -2.5028 -0.3364
  416MOL0     H57375  10.737   7.874   7.225 -3.0276 -2.2222 -0.0077
  416MOL0     H57376  10.832   7.937   7.511 -0.3619 -0.5703 -0.6547
  416MOL0     H57377  10.695   7.998   7.432 -0.1967 -1.8990 -1.7847
  416MOL0     H57378  10.994   8.019   7.352 -0.6681 -1.3860 -0.3215
  416MOL0     H57379  10.899   8.158   7.369 -3.8109 -0.1296 -1.7589
  416MOL0     H57380  10.947   7.997   7.123  1.2289  2.2847 -3.7072
  416MOL0     H57381  10.781   8.059   7.138  1.1800  1.2440 -1.6196
  416MOL0     H57382  11.018   8.234   7.169 -0.1928 -0.1778 -0.0218
  416MOL0     H57383  10.858   8.288   7.180 -2.5925  0.5074 -1.8678
  416MOL0     H57384  10.810   8.197   6.948  0.8232  0.0092  0.8619
  416MOL0     H57385  10.982   8.154   6.937  2.0424 -1.9859  5.3537
  416MOL0     H57386  11.047   8.381   6.951 -0.0720 -2.1855  0.8671
  416MOL0     H57387  10.901   8.444   7.005 -1.5314 -0.1236  0.3055
  416MOL0     H57388  10.819   7.636   7.713  1.2079 -1.1304 -0.1165
  416MOL0     H57389  10.795   7.401   7.816  0.0045 -2.8335 -1.4184
  416MOL0     H57390  10.422   7.104   7.853 -1.4032 -0.8036  0.3066
  416MOL0     H57391  10.272   6.909   7.889  0.3439 -0.2083 -1.4185
  416MOL0     H57392   9.507   5.938   8.289  0.3660  1.4768  0.3327
  416MOL0     H57393   9.322   6.025   8.179 -1.5362  0.2252 -0.3087
  416MOL0     H57394   8.728   6.028   8.288  1.8187  1.5834  3.9863
  416MOL0     H57395   8.549   6.100   8.132 -0.7308 -0.3830  1.0105
  416MOL0     H57396   8.425   6.287   7.839  0.8724 -0.1580  0.4794
  416MOL0     H57397   8.467   6.135   7.917  0.2893  0.5636 -1.2064
  416MOL0     H57398   8.382   6.221   8.127  1.1035 -2.6615 -1.8864
  416MOL0     H57399   8.256   6.233   8.002  0.7741 -1.6379  2.0783
  416MOL0     H57400   8.419   6.471   8.058  0.4588 -1.3442 -1.7614
  416MOL0     H57401   8.270   6.450   7.964  1.1249  0.3673  0.1388
  416MOL0     H57402   8.139   6.417   8.179 -0.7826  0.8996  4.5697
  416MOL0     H57403   8.216   6.566   8.182 -0.6026 -0.1935 -1.9659
  416MOL0     H57404   8.454   6.372   8.470  2.3188  1.4797 -2.0740
  416MOL0     H57405   8.822   6.400   7.990 -0.0243  0.9437  2.5682
  416MOL0     H57406   8.986   6.482   8.146 -0.1005  1.3689  2.2085
  416MOL0     H57407   9.089   6.370   8.232  0.7789 -0.5722 -1.3746
  416MOL0     H57408   9.086   6.365   8.056 -0.5417 -1.5152 -0.3372
  417MOL0     O57409   6.455   1.692   2.005  0.1335  0.6435 -0.2347
  417MOL0     C57410   6.544   1.642   2.073  0.3623 -0.8737  0.7468
  417MOL0     O57411   6.523   1.599   2.196  0.4741  0.0173  0.5527
  417MOL0     C57412   6.396   1.578   2.246  0.0264  0.4298 -0.5595
  417MOL0     C57413   6.372   1.614   2.379  0.3371 -0.0653  0.0258
  417MOL0     C57414   6.243   1.594   2.438 -0.1784  0.5334 -0.1962
  417MOL0     C57415   6.144   1.527   2.365  0.2305  0.1369  1.0679
  417MOL0     O57416   6.019   1.493   2.407  0.7405  0.1983 -0.1357
  417MOL0     C57417   5.998   1.474   2.549 -0.1192  0.1265 -0.5712
  417MOL0     C57418   6.094   1.385   2.629  0.1075 -0.7227  0.1697
  417MOL0     C57419   6.019   1.345   2.754  0.1877 -0.6874 -0.4386
  417MOL0     C57420   6.047   1.436   2.875 -0.6978 -0.4508 -0.2422
  417MOL0     C57421   5.966   1.388   2.994  0.8175  0.3638  0.4029
  417MOL0     C57422   5.967   1.487   3.111 -0.4788 -0.2759  0.4630
  417MOL0     C57423   5.852   1.472   3.208  0.1576 -0.0618  0.4381
  417MOL0     C57424   5.870   1.342   3.289  0.1823 -0.4345  0.0299
  417MOL0     N57425   5.967   1.358   3.401 -0.3574  0.1829  0.4287
  417MOL0     C57426   5.970   1.452   3.505  0.0513 -0.1673 -0.6698
  417MOL0     C57427   6.096   1.428   3.567  0.5236  0.4074  0.6649
  417MOL0     C57428   6.145   1.502   3.682 -0.6060 -0.2032 -0.5741
  417MOL0     C57429   6.246   1.601   3.634  0.6067  0.4166 -0.7219
  417MOL0     C57430   6.211   1.701   3.528  0.9166 -0.7529 -0.1304
  417MOL0     C57431   6.316   1.803   3.495 -0.5352 -0.5696  0.2415
  417MOL0     O57432   6.431   1.727   3.452  0.5363 -0.1537  0.4543
  417MOL0     C57433   6.446   1.713   3.308 -0.5798  0.4750 -1.2204
  417MOL0     C57434   6.357   1.750   3.206 -0.6115  0.1377 -0.4483
  417MOL0     C57435   6.393   1.724   3.072 -0.5781 -0.0314 -0.5246
  417MOL0     C57436   6.280   1.745   2.979  0.6831  0.0370  0.0287
  417MOL0     C57437   6.514   1.659   3.043  0.1846  0.8765 -0.3649
  417MOL0     C57438   6.554   1.614   2.906  0.0816 -1.1291 -0.0923
  417MOL0     O57439   6.665   1.550   2.903 -0.3212 -0.4978  1.2748
  417MOL0     C57440   6.720   1.539   2.771  0.1972  0.6841 -0.4046
  417MOL0     C57441   6.741   1.649   2.688  0.0381  0.4957 -0.5580
  417MOL0     C57442   6.823   1.633   2.573  0.6236 -1.0683 -0.4720
  417MOL0     C57443   6.880   1.509   2.540 -0.6284  0.7419  0.1298
  417MOL0     O57444   6.971   1.512   2.444 -0.2039  0.3822  0.3803
  417MOL0     C57445   7.037   1.391   2.397 -0.1819 -0.4042  0.9728
  417MOL0     C57446   7.129   1.326   2.502 -0.1816 -0.3146  0.2555
  417MOL0     C57447   7.230   1.429   2.558  0.2819  0.3628  0.1414
  417MOL0     C57448   7.319   1.499   2.456  0.1560 -0.0413 -0.7330
  417MOL0     C57449   7.401   1.406   2.365  0.6071 -0.2580  0.1462
  417MOL0     C57450   7.497   1.482   2.274 -0.3335  0.1531 -0.2392
  417MOL0     C57451   7.629   1.521   2.347 -0.0169  0.4142 -0.7288
  417MOL0     C57452   7.723   1.585   2.250 -0.2891 -0.1410  0.2196
  417MOL0    Cl57453   7.674   1.756   2.227  0.0378 -0.4510  0.0203
  417MOL0     C57454   6.829   1.397   2.611 -0.1583  0.0193 -0.0824
  417MOL0     C57455   6.757   1.410   2.730 -0.4251  0.2191 -0.2284
  417MOL0     O57456   6.477   1.630   2.809 -0.1377 -0.1104 -0.6163
  417MOL0     C57457   6.601   1.630   3.153 -0.1424  0.1031  0.4615
  417MOL0     C57458   6.568   1.654   3.282 -0.1768 -0.7940 -0.1609
  417MOL0     N57459   6.154   1.328   3.495 -0.0091  0.5048 -0.3103
  417MOL0     N57460   6.079   1.291   3.399  0.3166  0.7858  0.1448
  417MOL0     C57461   6.177   1.488   2.234  0.2707  0.6836  0.0341
  417MOL0     C57462   6.298   1.516   2.172  0.7190 -0.1257 -0.0997
  417MOL0     C57463   6.687   1.662   2.034 -0.0035  0.1249 -0.2923
  417MOL0     C57464   6.784   1.614   2.128 -0.1540 -0.1828 -0.5220
  417MOL0     C57465   6.916   1.613   2.092  0.1227 -0.8277 -0.4100
  417MOL0     C57466   6.964   1.657   1.966 -0.4290 -0.3858 -0.6168
  417MOL0     O57467   7.090   1.641   1.914 -0.8605 -0.4736 -0.4145
  417MOL0     C57468   7.200   1.647   2.006 -0.4177  0.0156 -0.0245
  417MOL0     C57469   7.211   1.781   2.080 -0.5527 -0.9780 -0.0308
  417MOL0     C57470   7.182   1.919   2.012 -0.4712 -0.6306  0.5670
  417MOL0     C57471   7.234   1.930   1.866 -0.5052  0.8993  0.0163
  417MOL0     C57472   7.376   1.885   1.851 -0.0997 -0.2692  0.7716
  417MOL0     C57473   7.485   1.832   1.852 -0.9713  0.3939 -0.6468
  417MOL0     C57474   6.868   1.694   1.871 -0.6352 -0.1261 -0.2471
  417MOL0     C57475   6.733   1.701   1.902 -0.3912  0.0493 -0.4056
  417MOL0     C57476   6.651   1.736   1.781 -0.4671 -0.9417 -0.2169
  417MOL0     H57477   6.443   1.663   2.445 -2.0442  0.5705  2.2706
  417MOL0     H57478   6.214   1.629   2.537 -1.4695  0.8494 -0.6701
  417MOL0     H57479   5.895   1.439   2.559  0.3756 -1.5224 -0.9168
  417MOL0     H57480   5.993   1.576   2.587 -1.5829  0.1132 -0.6807
  417MOL0     H57481   6.113   1.296   2.568  0.3296 -1.4484  1.2688
  417MOL0     H57482   6.190   1.430   2.656 -0.3281 -0.0797  0.6648
  417MOL0     H57483   5.912   1.338   2.736 -0.4193  1.2354  1.8768
  417MOL0     H57484   6.060   1.245   2.770  3.6663  0.4470 -1.1845
  417MOL0     H57485   6.155   1.442   2.892 -0.8941  0.1462  0.9015
  417MOL0     H57486   6.019   1.537   2.842  1.0572 -0.3357 -1.4751
  417MOL0     H57487   5.989   1.284   3.018 -4.9699 -1.7360 -1.5099
  417MOL0     H57488   5.863   1.381   2.960  0.8464  0.1074  0.3717
  417MOL0     H57489   6.064   1.478   3.161  0.4425  0.3060 -1.1507
  417MOL0     H57490   5.948   1.582   3.061 -2.8792 -1.8161 -1.7603
  417MOL0     H57491   5.761   1.473   3.148  0.6917  2.8325 -0.4913
  417MOL0     H57492   5.849   1.564   3.267 -0.1406  0.0190  0.2996
  417MOL0     H57493   5.770   1.324   3.327  0.5005  1.7743  2.1641
  417MOL0     H57494   5.904   1.259   3.226  2.8427  0.3094  0.3437
  417MOL0     H57495   5.896   1.530   3.522 -0.2571  0.2186 -3.3132
  417MOL0     H57496   6.192   1.441   3.759  3.5461 -1.3459 -3.6773
  417MOL0     H57497   6.058   1.557   3.718 -1.4998  0.2528 -3.1936
  417MOL0     H57498   6.259   1.666   3.721  0.7406  1.7380 -1.7106
  417MOL0     H57499   6.337   1.553   3.598  0.5196  0.5169 -1.0737
  417MOL0     H57500   6.180   1.642   3.442 -2.0701  0.2487  0.1464
  417MOL0     H57501   6.127   1.763   3.562  1.5922  1.5342 -2.3269
  417MOL0     H57502   6.285   1.882   3.427 -0.6404  0.1323  1.0951
  417MOL0     H57503   6.356   1.847   3.587 -0.3781 -2.8408  1.3424
  417MOL0     H57504   6.260   1.791   3.231 -1.0521 -1.6015  0.8720
  417MOL0     H57505   6.258   1.650   2.930 -1.2334  0.3661  0.1863
  417MOL0     H57506   6.291   1.824   2.905  0.5509 -1.7639 -2.0093
  417MOL0     H57507   6.188   1.774   3.031 -0.3420 -0.2917 -1.5608
  417MOL0     H57508   6.726   1.751   2.723  2.4594  0.9073 -0.5143
  417MOL0     H57509   6.854   1.712   2.506 -1.7528 -0.4451 -0.9140
  417MOL0     H57510   6.975   1.309   2.359  1.0928 -0.4003 -1.3042
  417MOL0     H57511   7.098   1.430   2.315  0.4876 -1.3139  1.0194
  417MOL0     H57512   7.066   1.278   2.579 -0.7274 -0.2672 -0.1551
  417MOL0     H57513   7.174   1.238   2.454 -0.1524 -0.3227  0.2976
  417MOL0     H57514   7.289   1.374   2.631  0.3959  2.7764  1.9973
  417MOL0     H57515   7.178   1.501   2.623  0.3013  2.4184 -1.9746
  417MOL0     H57516   7.393   1.560   2.508  0.9557 -0.2068 -1.6404
  417MOL0     H57517   7.258   1.568   2.396 -1.4984 -2.1482 -1.6090
  417MOL0     H57518   7.445   1.321   2.417  2.6470  2.2397  2.7784
  417MOL0     H57519   7.334   1.368   2.287 -0.0760 -0.2007  0.6967
  417MOL0     H57520   7.439   1.562   2.227  1.1793  2.6519  1.8384
  417MOL0     H57521   7.526   1.424   2.186 -3.1493 -2.0603  0.1584
  417MOL0     H57522   7.659   1.425   2.390 -1.8826 -1.0575 -2.5654
  417MOL0     H57523   7.602   1.585   2.432  2.2734  1.9514 -1.0740
  417MOL0     H57524   7.708   1.526   2.159 -3.4662  3.7659 -2.1541
  417MOL0     H57525   7.828   1.580   2.280 -0.6123  0.6926  1.5805
  417MOL0     H57526   6.862   1.297   2.581  1.2786  0.1451  0.9560
  417MOL0     H57527   6.747   1.317   2.784  1.3815  0.1587  0.0633
  417MOL0     H57528   6.697   1.582   3.138 -0.2503  0.3774 -1.3487
  417MOL0     H57529   6.627   1.626   3.368 -1.6808 -2.6062  0.3468
  417MOL0     H57530   6.094   1.447   2.178 -0.8157 -0.0054  2.0511
  417MOL0     H57531   6.316   1.493   2.067 -0.6773 -2.0188  0.0309
  417MOL0     H57532   6.748   1.566   2.219 -1.5115  0.1660 -0.8456
  417MOL0     H57533   6.982   1.571   2.167  0.2881  0.3273  0.1172
  417MOL0     H57534   7.194   1.561   2.073 -1.5782 -0.3860 -0.6198
  417MOL0     H57535   7.284   1.626   1.939 -2.6033  0.7127 -3.2029
  417MOL0     H57536   7.300   1.786   2.143  1.3891  2.2821 -2.6822
  417MOL0     H57537   7.137   1.792   2.160  0.5350  4.4881  0.6625
  417MOL0     H57538   7.073   1.926   2.010 -0.4275  0.1810  0.5158
  417MOL0     H57539   7.223   2.001   2.073 -0.9949  1.4630 -1.7385
  417MOL0     H57540   7.216   2.034   1.837 -2.4104  1.5643  3.1090
  417MOL0     H57541   7.178   1.856   1.808  1.0208  1.1219 -1.8531
  417MOL0     H57542   7.579   1.781   1.862  0.2049  2.3929 -0.9022
  417MOL0     H57543   6.904   1.727   1.773 -0.0980 -1.4631 -0.5258
  417MOL0     H57544   6.568   1.665   1.776 -0.7275 -0.6030 -0.6599
  417MOL0     H57545   6.609   1.835   1.799  4.3650  1.4561 -0.5284
  417MOL0     H57546   6.710   1.732   1.689 -0.2290  1.4957 -0.2320
  418MOL0     O57547   2.010   2.524   4.864  0.1494  0.0983  0.7357
  418MOL0     C57548   1.948   2.631   4.848  0.0635  0.3307  0.1418
  418MOL0     O57549   2.004   2.758   4.851  0.0025 -0.0810  0.1210
  418MOL0     C57550   2.136   2.769   4.887 -0.1425  0.5775  0.1403
  418MOL0     C57551   2.172   2.837   5.010  0.8650  0.8438  0.4194
  418MOL0     C57552   2.304   2.834   5.057  0.1165 -0.3684  0.2235
  418MOL0     C57553   2.405   2.756   4.999 -0.6010  0.4583  0.5715
  418MOL0     O57554   2.529   2.767   5.046  0.3129 -0.6380  0.0194
  418MOL0     C57555   2.622   2.663   5.027 -1.1352 -0.0116 -0.1536
  418MOL0     C57556   2.719   2.679   5.149 -0.1642 -0.4998  0.1243
  418MOL0     C57557   2.819   2.569   5.141 -0.0909  0.5406 -0.0630
  418MOL0     C57558   2.888   2.555   5.274 -0.8280 -0.0351 -0.0179
  418MOL0     C57559   3.014   2.471   5.261  0.0439 -0.1431  0.2410
  418MOL0     C57560   2.987   2.324   5.282 -0.0563 -0.0466 -0.2458
  418MOL0     C57561   3.110   2.227   5.274 -0.0498 -0.5919 -0.4213
  418MOL0     C57562   3.072   2.074   5.272  1.0681 -0.5091 -0.2031
  418MOL0     N57563   3.186   1.990   5.258 -0.0398  0.4519 -1.2214
  418MOL0     C57564   3.274   1.960   5.359 -1.1076 -0.8069  0.0659
  418MOL0     C57565   3.370   1.896   5.288 -0.3449  0.5509  0.4566
  418MOL0     C57566   3.488   1.824   5.352 -0.1900  0.0771  0.7314
  418MOL0     C57567   3.577   1.905   5.441 -0.2693  0.1745  0.1071
  418MOL0     C57568   3.679   1.987   5.353  0.0904 -0.3565 -0.2937
  418MOL0     C57569   3.827   1.979   5.401 -0.2058 -0.5632 -0.7415
  418MOL0     O57570   3.880   1.847   5.389 -0.0955 -0.9513  0.0805
  418MOL0     C57571   3.978   1.799   5.469 -0.1953 -0.1641  0.2115
  418MOL0     C57572   4.006   1.663   5.464 -1.0095 -0.1287  0.2859
  418MOL0     C57573   4.106   1.604   5.546  1.2660 -0.1112  0.0072
  418MOL0     C57574   4.115   1.452   5.552  0.0797 -0.2851  0.3910
  418MOL0     C57575   4.180   1.683   5.632  0.4180 -0.4331 -0.1626
  418MOL0     C57576   4.284   1.625   5.719  0.0144  0.5023  0.1422
  418MOL0     O57577   4.405   1.573   5.673  0.8492 -0.2260  0.0066
  418MOL0     C57578   4.486   1.522   5.769 -0.8974 -1.3520  0.4551
  418MOL0     C57579   4.590   1.602   5.818  0.2985  0.3592  0.6409
  418MOL0     C57580   4.677   1.545   5.911  0.2216  1.4513 -0.6205
  418MOL0     C57581   4.660   1.414   5.957  0.6468  0.3828 -0.0290
  418MOL0     O57582   4.732   1.350   6.053 -0.2180  0.7207 -0.1805
  418MOL0     C57583   4.807   1.434   6.139 -0.7143 -0.1337  0.8074
  418MOL0     C57584   4.870   1.351   6.252 -0.0048  0.4786 -0.3384
  418MOL0     C57585   4.986   1.264   6.201  0.2293  0.3996 -0.5541
  418MOL0     C57586   5.118   1.342   6.219 -0.0739  0.1069 -0.3365
  418MOL0     C57587   5.225   1.276   6.145 -0.5608  0.0764  0.0630
  418MOL0     C57588   5.345   1.364   6.162 -0.2110  0.2647 -0.6142
  418MOL0     C57589   5.455   1.287   6.083  0.5488  0.6244  0.2999
  418MOL0     C57590   5.584   1.364   6.090 -0.1648 -0.2649 -0.0975
  418MOL0    Cl57591   5.634   1.390   6.267 -0.2229 -0.2413 -0.3197
  418MOL0     C57592   4.559   1.336   5.906  0.1387 -0.0368  0.7064
  418MOL0     C57593   4.461   1.393   5.820  0.5830  0.2799 -0.3617
  418MOL0     O57594   4.257   1.646   5.836  0.0420 -0.4755 -0.7464
  418MOL0     C57595   4.164   1.819   5.628 -0.2581 -0.2783  0.0100
  418MOL0     C57596   4.060   1.877   5.551 -0.3661 -0.6785  0.2708
  418MOL0     N57597   3.339   1.873   5.164  0.3032  0.5622  0.6874
  418MOL0     N57598   3.223   1.926   5.145  0.4137  0.2930  0.0036
  418MOL0     C57599   2.376   2.697   4.881 -0.3110 -0.9987  0.5483
  418MOL0     C57600   2.247   2.702   4.821 -0.1737 -0.2551 -0.5967
  418MOL0     C57601   1.795   2.622   4.861 -0.0916 -0.2021  0.3496
  418MOL0     C57602   1.720   2.718   4.930  0.6351 -0.3515 -0.1263
  418MOL0     C57603   1.583   2.715   4.945 -0.6775 -0.2424  1.0441
  418MOL0     C57604   1.508   2.619   4.876 -0.1361  0.1244 -0.3992
  418MOL0     O57605   1.374   2.612   4.881  0.5272  0.1114 -0.2361
  418MOL0     C57606   1.304   2.726   4.924  0.0431 -0.1952 -1.1118
  418MOL0     C57607   1.145   2.719   4.910 -0.7074 -0.0256 -0.1460
  418MOL0     C57608   1.081   2.620   4.997 -0.4904  0.2630  0.4425
  418MOL0     C57609   0.935   2.642   5.015 -0.3776  0.6797  0.1224
  418MOL0     C57610   0.875   2.510   5.056  0.7255  0.1622  0.4500
  418MOL0     C57611   0.817   2.405   5.090 -0.6861  0.0911 -0.8460
  418MOL0     C57612   1.577   2.529   4.790 -0.1388  0.1791 -0.2779
  418MOL0     C57613   1.719   2.531   4.786 -0.6990  0.9846  0.4476
  418MOL0     C57614   1.792   2.444   4.683  0.6251 -0.4868  0.2374
  418MOL0     H57615   2.098   2.885   5.074 -2.7287 -0.4372 -2.4712
  418MOL0     H57616   2.331   2.895   5.143  0.6242 -0.9707  0.4995
  418MOL0     H57617   2.682   2.662   4.935 -0.3242 -1.4552  0.3545
  418MOL0     H57618   2.571   2.566   5.031  2.1749 -1.8699  0.2154
  418MOL0     H57619   2.762   2.779   5.143 -0.9396 -0.1470  0.3027
  418MOL0     H57620   2.658   2.661   5.238  0.9261 -1.0942  0.7659
  418MOL0     H57621   2.778   2.475   5.102 -0.5404  1.1352 -1.0848
  418MOL0     H57622   2.897   2.591   5.068 -1.0347  0.9904 -0.9683
  418MOL0     H57623   2.908   2.660   5.298 -0.4522 -0.0246 -0.3580
  418MOL0     H57624   2.822   2.520   5.353  1.6821 -1.0358  1.7837
  418MOL0     H57625   3.093   2.506   5.328 -0.3514 -0.6891  1.0187
  418MOL0     H57626   3.053   2.474   5.159  0.6563 -2.5549  0.3420
  418MOL0     H57627   2.935   2.314   5.378  3.3796 -1.9305  1.6126
  418MOL0     H57628   2.912   2.290   5.210 -1.1953  0.4213  0.6801
  418MOL0     H57629   3.176   2.247   5.359 -1.5772  0.7843  0.4945
  418MOL0     H57630   3.165   2.263   5.186  1.8461 -0.1637  0.8745
  418MOL0     H57631   3.018   2.040   5.361 -2.6409 -3.2989 -3.1847
  418MOL0     H57632   3.010   2.061   5.183  4.2539 -0.8558 -2.5500
  418MOL0     H57633   3.271   1.985   5.465 -0.9159  1.2321 -0.3722
  418MOL0     H57634   3.538   1.764   5.276 -0.3457  0.4518  0.3317
  418MOL0     H57635   3.454   1.748   5.423 -0.6492 -1.4787 -1.0686
  418MOL0     H57636   3.521   1.957   5.519 -2.1639 -0.3376 -0.8334
  418MOL0     H57637   3.636   1.826   5.488 -2.4352 -1.2360  0.5915
  418MOL0     H57638   3.685   1.949   5.251 -0.3924 -0.2812 -0.3555
  418MOL0     H57639   3.647   2.092   5.353 -2.4457 -1.0487  1.4648
  418MOL0     H57640   3.892   2.044   5.342 -1.2713 -0.1927 -1.5308
  418MOL0     H57641   3.833   2.009   5.506 -2.1324 -2.6084  0.0429
  418MOL0     H57642   3.956   1.601   5.390  0.3407  1.0213 -1.6819
  418MOL0     H57643   4.043   1.406   5.484 -1.2852 -1.8536  2.7645
  418MOL0     H57644   4.104   1.413   5.653 -1.8687  1.4170  0.8982
  418MOL0     H57645   4.212   1.418   5.515 -0.2018 -0.6407 -0.0362
  418MOL0     H57646   4.604   1.702   5.777  0.6806  0.1795  0.3219
  418MOL0     H57647   4.769   1.598   5.935 -0.2010  1.6551  0.6180
  418MOL0     H57648   4.891   1.475   6.081  0.3469 -2.4244  0.6356
  418MOL0     H57649   4.746   1.519   6.173 -0.2519  0.8941 -0.7872
  418MOL0     H57650   4.915   1.410   6.331  1.1589  1.0002 -1.3601
  418MOL0     H57651   4.792   1.285   6.291  0.1792  0.7431  0.4831
  418MOL0     H57652   4.971   1.245   6.094 -2.1217  0.7893 -0.3536
  418MOL0     H57653   4.996   1.171   6.258  0.1448 -0.1900 -1.4819
  418MOL0     H57654   5.140   1.353   6.326  0.4262 -0.1935 -0.4112
  418MOL0     H57655   5.113   1.446   6.183  1.3131  0.1203 -0.5283
  418MOL0     H57656   5.243   1.177   6.187  1.1747 -0.6187 -2.1439
  418MOL0     H57657   5.192   1.262   6.041 -0.8869 -2.3805  0.4376
  418MOL0     H57658   5.377   1.357   6.266 -0.0262 -3.4983 -0.7875
  418MOL0     H57659   5.341   1.470   6.137  0.3851  0.7622  1.3026
  418MOL0     H57660   5.426   1.256   5.983 -1.4113 -2.6542  1.7080
  418MOL0     H57661   5.473   1.195   6.139  1.7427  1.4438  1.3462
  418MOL0     H57662   5.559   1.461   6.045 -0.4897 -0.7259 -0.9541
  418MOL0     H57663   5.655   1.317   6.021 -1.0715 -2.4407  0.3756
  418MOL0     H57664   4.564   1.231   5.933 -0.0930 -0.7277 -1.7309
  418MOL0     H57665   4.392   1.331   5.764  1.6964 -0.0143 -1.4451
  418MOL0     H57666   4.230   1.879   5.689  1.8490 -1.8522 -0.5894
  418MOL0     H57667   4.032   1.981   5.562  0.7586 -0.4891  1.6041
  418MOL0     H57668   2.462   2.655   4.829 -1.2999 -2.0241 -0.3114
  418MOL0     H57669   2.216   2.635   4.741 -1.1918 -0.8620  0.2782
  418MOL0     H57670   1.761   2.802   4.985  0.2073  2.3072 -3.5172
  418MOL0     H57671   1.537   2.775   5.023 -0.3768 -0.4171  1.3571
  418MOL0     H57672   1.328   2.739   5.030 -2.9467  0.0885 -0.3723
  418MOL0     H57673   1.336   2.814   4.866  0.6720  1.2877  1.3156
  418MOL0     H57674   1.133   2.704   4.802  4.6866  2.7716 -1.4935
  418MOL0     H57675   1.116   2.819   4.943  1.8750  0.0615  2.1895
  418MOL0     H57676   1.094   2.528   4.939 -1.6127  1.7443 -2.3510
  418MOL0     H57677   1.130   2.610   5.094  1.9960 -1.6061 -0.8771
  418MOL0     H57678   0.885   2.673   4.923 -2.1321  2.6926  1.6550
  418MOL0     H57679   0.913   2.719   5.089  0.4988  1.5311 -0.4819
  418MOL0     H57680   0.777   2.314   5.129 -1.2496  0.6561 -0.0741
  418MOL0     H57681   1.520   2.464   4.724 -1.2183  1.0444 -0.2295
  418MOL0     H57682   1.823   2.351   4.731  1.6473 -0.3726 -0.1620
  418MOL0     H57683   1.731   2.435   4.593 -1.7535  0.6354  1.6306
  418MOL0     H57684   1.878   2.492   4.634 -0.2041  2.3106  1.3311
  419MOL0     O57685   0.948   9.120   7.379 -0.6510  0.5384 -1.1902
  419MOL0     C57686   1.046   9.173   7.430 -0.5036 -0.2537  0.2955
  419MOL0     O57687   1.094   9.304   7.402 -0.5745  0.8419 -0.2301
  419MOL0     C57688   1.033   9.368   7.301  0.3215 -0.0650 -0.0123
  419MOL0     C57689   0.972   9.494   7.318 -0.7989  0.6846 -0.0223
  419MOL0     C57690   0.917   9.561   7.205  1.4791  1.3132 -0.7123
  419MOL0     C57691   0.920   9.507   7.075  0.0145  0.2661 -0.9388
  419MOL0     O57692   0.869   9.578   6.971  0.0650  0.6569  0.6069
  419MOL0     C57693   0.761   9.504   6.900 -0.1177  0.5477  0.6693
  419MOL0     C57694   0.728   9.567   6.762  0.4463 -0.6042  0.0532
  419MOL0     C57695   0.850   9.578   6.659  0.0207  0.8956  0.0252
  419MOL0     C57696   0.821   9.481   6.540 -0.1263 -0.2721  0.2187
  419MOL0     C57697   0.934   9.475   6.439 -0.4085  0.2260 -0.6701
  419MOL0     C57698   0.884   9.405   6.313  0.1209 -0.2180 -0.6699
  419MOL0     C57699   0.990   9.382   6.212 -0.6203  0.1566  0.4694
  419MOL0     C57700   0.932   9.302   6.099  0.0915  0.0928 -0.6522
  419MOL0     N57701   1.041   9.246   6.011  0.1884  0.3930  0.5710
  419MOL0     C57702   1.056   9.116   5.965  0.6540 -0.8107 -0.1927
  419MOL0     C57703   1.173   9.102   5.907  1.0261  0.6811 -0.3012
  419MOL0     C57704   1.223   8.970   5.849  0.7069  0.3105  0.4979
  419MOL0     C57705   1.266   8.985   5.710 -0.4025 -0.1409 -0.0551
  419MOL0     C57706   1.290   8.858   5.624 -0.6910  0.2346 -0.6828
  419MOL0     C57707   1.415   8.781   5.655  0.4554  0.3620  0.5859
  419MOL0     O57708   1.457   8.691   5.548  0.1388  0.2607  0.1923
  419MOL0     C57709   1.567   8.620   5.559 -0.5036 -0.2310  0.7083
  419MOL0     C57710   1.676   8.652   5.481  0.4901  0.6501 -0.1406
  419MOL0     C57711   1.795   8.585   5.482 -0.7219 -0.5905 -1.0250
  419MOL0     C57712   1.898   8.623   5.379  0.2199 -0.2122 -1.6139
  419MOL0     C57713   1.819   8.485   5.583  0.5608 -0.9999 -0.2039
  419MOL0     C57714   1.951   8.414   5.593 -0.5541 -0.5372  0.0191
  419MOL0     O57715   1.971   8.334   5.704  0.2331  0.6367  0.9883
  419MOL0     C57716   2.082   8.252   5.722 -0.9689 -0.1778 -0.1335
  419MOL0     C57717   2.111   8.226   5.850  0.7242  0.0659 -0.3837
  419MOL0     C57718   2.223   8.150   5.895  0.4159  0.2999 -0.3435
  419MOL0     C57719   2.307   8.095   5.798 -0.2101 -0.2714 -0.0241
  419MOL0     O57720   2.416   8.020   5.839 -0.2989  0.4623  0.9009
  419MOL0     C57721   2.527   7.982   5.753  0.7796 -0.4164  0.6167
  419MOL0     C57722   2.631   7.948   5.853 -0.3334 -0.4145  0.5656
  419MOL0     C57723   2.610   7.816   5.929  0.0662  0.3667 -1.2023
  419MOL0     C57724   2.629   7.686   5.845 -0.3937 -0.4506 -0.8006
  419MOL0     C57725   2.603   7.563   5.929 -0.6159  0.4394 -0.4830
  419MOL0     C57726   2.691   7.449   5.874 -0.7340 -0.7802  0.1636
  419MOL0     C57727   2.687   7.330   5.965 -0.1875  0.2466 -0.3119
  419MOL0     C57728   2.755   7.205   5.901  0.3131  0.5249  0.4597
  419MOL0    Cl57729   2.928   7.234   5.881 -0.3997  0.2158 -0.5396
  419MOL0     C57730   2.282   8.121   5.660  0.3964  0.0704  1.1323
  419MOL0     C57731   2.173   8.197   5.625  0.3205  0.3753  0.5870
  419MOL0     O57732   2.041   8.435   5.513  0.5474 -0.3927  0.0577
  419MOL0     C57733   1.714   8.471   5.685 -0.1982 -0.2757 -0.0330
  419MOL0     C57734   1.592   8.534   5.664  0.4987  0.3671 -0.3864
  419MOL0     N57735   1.236   9.220   5.919 -0.2115 -0.4427  0.5487
  419MOL0     N57736   1.157   9.308   5.972  0.6225 -0.3069 -0.2030
  419MOL0     C57737   0.995   9.390   7.052 -0.7784  0.4546  0.3437
  419MOL0     C57738   1.042   9.322   7.166  0.2022 -0.6885 -0.1050
  419MOL0     C57739   1.126   9.102   7.536 -0.3206  0.3683 -0.0629
  419MOL0     C57740   1.255   9.141   7.566  0.1419 -0.7240 -0.7141
  419MOL0     C57741   1.321   9.099   7.672 -0.3306 -0.1245 -0.3191
  419MOL0     C57742   1.264   9.002   7.757 -0.5095 -1.2142 -1.2467
  419MOL0     O57743   1.326   8.976   7.875 -0.3968 -0.0178  1.0115
  419MOL0     C57744   1.265   8.885   7.967  0.0594  0.9231 -0.2258
  419MOL0     C57745   1.350   8.871   8.094 -0.3691  0.0442 -0.0929
  419MOL0     C57746   1.278   8.785   8.202 -0.5192 -0.0826  0.1003
  419MOL0     C57747   1.370   8.774   8.326 -0.4947 -0.3306  0.3196
  419MOL0     C57748   1.495   8.702   8.300 -0.6389 -0.3234 -1.6511
  419MOL0     C57749   1.590   8.628   8.288 -0.7429 -0.5605 -0.1087
  419MOL0     C57750   1.147   8.943   7.724  0.0867  0.3666  0.0760
  419MOL0     C57751   1.071   8.994   7.620  0.5774 -0.6403  0.4408
  419MOL0     C57752   0.938   8.938   7.601  0.9750  0.2256 -0.7268
  419MOL0     H57753   0.986   9.557   7.406  2.2423  0.1105  0.0181
  419MOL0     H57754   0.864   9.654   7.222  0.5609  0.6522  0.1597
  419MOL0     H57755   0.674   9.505   6.967  1.5446 -0.6976  3.0082
  419MOL0     H57756   0.783   9.398   6.883  2.2800  1.4499 -2.9993
  419MOL0     H57757   0.648   9.512   6.712 -0.3786 -0.2201  0.9288
  419MOL0     H57758   0.676   9.662   6.771  1.0519 -0.1722 -0.8077
  419MOL0     H57759   0.851   9.676   6.612  0.1985  1.4531  1.1740
  419MOL0     H57760   0.937   9.549   6.719 -2.0829 -0.6414  2.5053
  419MOL0     H57761   0.790   9.380   6.565  0.0734 -0.5615 -0.6580
  419MOL0     H57762   0.733   9.517   6.485  0.5799 -1.0190 -1.4864
  419MOL0     H57763   1.024   9.421   6.469  0.4667  1.0257 -1.7568
  419MOL0     H57764   0.974   9.576   6.422  0.1335  0.2412  0.5972
  419MOL0     H57765   0.833   9.312   6.339  0.6532 -0.4771 -0.5551
  419MOL0     H57766   0.809   9.472   6.270 -3.7216 -4.2570 -0.9756
  419MOL0     H57767   1.078   9.332   6.254  2.3294  2.8713 -1.9821
  419MOL0     H57768   1.025   9.475   6.168  0.3261  0.3618  1.6056
  419MOL0     H57769   0.878   9.219   6.145  2.9223 -2.2838 -1.3690
  419MOL0     H57770   0.866   9.367   6.040  0.0472 -0.4181 -1.1713
  419MOL0     H57771   0.974   9.044   5.967  0.2717 -0.3889 -0.6052
  419MOL0     H57772   1.136   8.904   5.843  0.5327  0.3569  2.1964
  419MOL0     H57773   1.305   8.929   5.909  0.8599 -2.0579 -1.2035
  419MOL0     H57774   1.184   9.038   5.664 -1.8878 -2.9500 -0.8899
  419MOL0     H57775   1.354   9.049   5.708 -0.3415 -0.0210  2.4748
  419MOL0     H57776   1.205   8.789   5.627 -1.6818  1.4384 -0.1615
  419MOL0     H57777   1.299   8.883   5.518  0.7939  3.8309  0.1512
  419MOL0     H57778   1.496   8.850   5.682  1.5789 -1.4364  2.1898
  419MOL0     H57779   1.405   8.719   5.745 -0.5997 -0.7917 -0.2905
  419MOL0     H57780   1.662   8.722   5.399  4.4905 -0.3092 -1.8988
  419MOL0     H57781   1.927   8.538   5.317 -0.9599 -3.5043  1.9594
  419MOL0     H57782   1.987   8.654   5.434 -0.2252 -0.6639 -0.6123
  419MOL0     H57783   1.869   8.708   5.317 -0.5587  1.8449  1.3803
  419MOL0     H57784   2.044   8.257   5.930  2.0457 -0.5782  1.0385
  419MOL0     H57785   2.242   8.124   5.999  0.9719 -0.0641 -0.5286
  419MOL0     H57786   2.503   7.910   5.673 -0.9321  0.4836  0.2719
  419MOL0     H57787   2.558   8.075   5.705 -1.8929 -0.4731 -1.5343
  419MOL0     H57788   2.735   7.953   5.818 -0.4278  0.9799  0.4360
  419MOL0     H57789   2.623   8.012   5.941  1.2877  0.0633  0.3969
  419MOL0     H57790   2.512   7.817   5.978  0.4769 -0.6545 -0.2975
  419MOL0     H57791   2.681   7.816   6.012 -0.1618 -0.7556 -0.9890
  419MOL0     H57792   2.738   7.684   5.836  0.0671 -1.4891  3.1102
  419MOL0     H57793   2.582   7.685   5.747  1.4279  2.0218 -1.8144
  419MOL0     H57794   2.640   7.576   6.031  6.0026  0.3966 -2.4204
  419MOL0     H57795   2.500   7.525   5.926  0.0612 -2.1213  2.7878
  419MOL0     H57796   2.797   7.474   5.871 -0.8733 -0.1864 -0.0206
  419MOL0     H57797   2.656   7.429   5.772 -0.9366  2.5382 -0.5330
  419MOL0     H57798   2.582   7.303   5.977 -0.4146  0.4635 -1.6387
  419MOL0     H57799   2.734   7.352   6.062  0.1505 -0.1748 -0.3741
  419MOL0     H57800   2.727   7.175   5.800  1.1379  2.3160 -0.3441
  419MOL0     H57801   2.727   7.116   5.959 -0.2080 -0.2260 -0.8866
  419MOL0     H57802   2.346   8.084   5.581 -1.3751 -0.3627 -0.1714
  419MOL0     H57803   2.141   8.206   5.522 -1.6515  0.3743  1.1596
  419MOL0     H57804   1.727   8.390   5.756  4.5386 -0.4720 -0.7914
  419MOL0     H57805   1.519   8.513   5.741  1.9201  0.0998  0.9479
  419MOL0     H57806   1.008   9.347   6.953 -0.0969  1.2108  0.0921
  419MOL0     H57807   1.106   9.235   7.155  1.3114  0.2193 -1.2347
  419MOL0     H57808   1.306   9.209   7.499  4.0378 -1.5825  1.0769
  419MOL0     H57809   1.422   9.133   7.695 -0.3233  0.2296 -0.8756
  419MOL0     H57810   1.165   8.925   7.983  0.3694  2.3723 -1.6231
  419MOL0     H57811   1.252   8.784   7.927 -1.4347  1.0725 -0.1701
  419MOL0     H57812   1.381   8.967   8.135 -0.3996  0.0801 -0.1538
  419MOL0     H57813   1.440   8.819   8.061 -1.0066 -0.7740 -0.5953
  419MOL0     H57814   1.185   8.829   8.239  0.4096  2.2955 -0.2729
  419MOL0     H57815   1.261   8.684   8.161  0.6900 -0.8252  1.3499
  419MOL0     H57816   1.322   8.716   8.405  1.1249  1.9050  3.1462
  419MOL0     H57817   1.384   8.870   8.376 -2.6321  0.1065  0.1727
  419MOL0     H57818   1.665   8.555   8.266 -1.6076 -2.3476  2.4304
  419MOL0     H57819   1.096   8.866   7.781 -1.4714  0.3992 -1.1930
  419MOL0     H57820   0.914   8.914   7.497 -0.2039 -1.2338 -0.1584
  419MOL0     H57821   0.934   8.837   7.644  1.0167  0.1992 -0.7836
  419MOL0     H57822   0.860   8.992   7.655  2.0424 -0.3149  1.5081
  420MOL0     O57823   4.791  10.163   1.733  0.2170  0.3596 -0.5366
  420MOL0     C57824   4.764  10.202   1.616 -0.4025  0.3114 -0.5319
  420MOL0     O57825   4.824  10.306   1.542  0.3040  0.0220 -0.5029
  420MOL0     C57826   4.914  10.395   1.607  0.1649 -0.5016  0.1056
  420MOL0     C57827   4.944  10.507   1.533  0.1037 -0.7913  0.0251
  420MOL0     C57828   5.037  10.604   1.575  0.0762 -0.8865  0.2755
  420MOL0     C57829   5.091  10.600   1.700 -0.3080  0.2532 -0.0990
  420MOL0     O57830   5.186  10.694   1.729 -0.3795 -0.1269 -0.3205
  420MOL0     C57831   5.320  10.650   1.739  0.4947  0.1640 -0.0542
  420MOL0     C57832   5.390  10.745   1.838  0.0171  0.1621  0.0610
  420MOL0     C57833   5.537  10.725   1.849 -0.3237  0.4102  0.9208
  420MOL0     C57834   5.606  10.817   1.746 -0.4732 -0.7647  0.0442
  420MOL0     C57835   5.756  10.779   1.721  0.6429 -0.0990  0.5318
  420MOL0     C57836   5.784  10.670   1.619  0.5745 -0.3074  0.4549
  420MOL0     C57837   5.929  10.626   1.630 -0.3191  0.2861 -0.2726
  420MOL0     C57838   5.987  10.618   1.497  0.2248 -0.5373 -0.3121
  420MOL0     N57839   6.129  10.571   1.493  0.5815 -0.3302 -0.1424
  420MOL0     C57840   6.220  10.611   1.586 -0.5898  0.5906 -0.6215
  420MOL0     C57841   6.335  10.557   1.534  0.0150  0.3998 -0.6479
  420MOL0     C57842   6.475  10.589   1.573 -0.4559  0.5589 -0.6430
  420MOL0     C57843   6.523  10.497   1.689 -0.3713  0.3081 -0.6509
  420MOL0     C57844   6.675  10.502   1.712 -0.2291  0.5509  0.9398
  420MOL0     C57845   6.746  10.631   1.680  0.1353  0.2127 -0.6575
  420MOL0     O57846   6.877  10.613   1.729 -0.3828  0.7894  0.0918
  420MOL0     C57847   6.936  10.726   1.778  0.0942 -0.6502  0.1101
  420MOL0     C57848   6.899  10.866   1.776  0.1354  0.0427  0.2798
  420MOL0     C57849   6.991  10.957   1.846  0.3942  1.0140 -0.0661
  420MOL0     C57850   6.951  11.105   1.864 -0.3625 -1.0261  0.0905
  420MOL0     C57851   7.110  10.909   1.907  0.1264 -1.2002  0.0589
  420MOL0     C57852   7.200  10.991   1.994 -0.7883  0.5555 -0.1640
  420MOL0     O57853   7.270  10.931   2.091  0.0133  0.2423 -0.6168
  420MOL0     C57854   7.384  10.985   2.141  0.1239 -0.5171  0.0178
  420MOL0     C57855   7.511  10.972   2.077  0.7510 -0.0831  0.4257
  420MOL0     C57856   7.628  11.043   2.116  0.7203  1.2611 -0.6754
  420MOL0     C57857   7.622  11.134   2.221  0.4006 -0.3851 -0.3477
  420MOL0     O57858   7.721  11.214   2.264 -1.1799  0.1669 -0.1701
  420MOL0     C57859   7.850  11.159   2.287 -0.2940 -0.7709 -0.1461
  420MOL0     C57860   7.945  11.243   2.368  0.4561  0.5738  0.1524
  420MOL0     C57861   7.896  11.278   2.507 -1.1813  0.3652 -0.3527
  420MOL0     C57862   7.984  11.372   2.587 -0.2293 -1.1328  0.1904
  420MOL0     C57863   7.949  11.369   2.744  0.2283 -0.5224  0.3146
  420MOL0     C57864   8.056  11.436   2.832 -0.8565 -0.9791  1.1129
  420MOL0     C57865   8.025  11.408   2.974  0.5493  0.4891 -1.0221
  420MOL0     C57866   8.104  11.503   3.066 -0.8680 -0.7380 -0.0752
  420MOL0    Cl57867   8.281  11.463   3.050  0.0776  0.3863 -0.0273
  420MOL0     C57868   7.496  11.153   2.273 -0.1071 -0.1213 -0.3030
  420MOL0     C57869   7.375  11.086   2.241  0.3482  0.8494 -0.0755
  420MOL0     O57870   7.207  11.113   1.974  0.4402 -1.2406 -0.5868
  420MOL0     C57871   7.143  10.774   1.891  0.2163 -0.1870 -0.5761
  420MOL0     C57872   7.061  10.683   1.829 -1.5701 -0.1381 -0.1706
  420MOL0     N57873   6.310  10.492   1.410  0.4076  0.6153 -0.5655
  420MOL0     N57874   6.181  10.492   1.401  0.6339  0.5057  0.2372
  420MOL0     C57875   5.070  10.480   1.774  0.4337 -1.8417 -0.2524
  420MOL0     C57876   4.986  10.381   1.727  0.3048  0.1011 -0.9140
  420MOL0     C57877   4.639  10.142   1.568  0.4032 -0.5772  0.6609
  420MOL0     C57878   4.616  10.004   1.581  0.1910 -0.3432 -0.4669
  420MOL0     C57879   4.493   9.951   1.552 -0.2351 -0.2670 -0.0438
  420MOL0     C57880   4.389  10.040   1.505 -0.4557  1.0977 -0.6596
  420MOL0     O57881   4.263   9.994   1.474 -0.8474 -0.4841  0.0859
  420MOL0     C57882   4.167  10.077   1.399  0.4649  0.4441 -0.2559
  420MOL0     C57883   4.027  10.002   1.394 -0.0335 -0.6234 -0.2448
  420MOL0     C57884   3.951  10.033   1.259  0.1735  0.6742 -0.1777
  420MOL0     C57885   3.810   9.977   1.253  0.0998 -0.2515 -0.0684
  420MOL0     C57886   3.748  10.002   1.126 -0.0790 -1.2971 -0.2678
  420MOL0     C57887   3.694  10.027   1.023 -0.5331 -0.2762 -0.2377
  420MOL0     C57888   4.417  10.178   1.491  0.4325 -0.1700  0.0414
  420MOL0     C57889   4.536  10.230   1.526 -0.2573 -0.0728 -0.0512
  420MOL0     C57890   4.564  10.378   1.502  0.2143  0.8017 -0.3942
  420MOL0     H57891   4.888  10.527   1.442  0.4509 -3.7179 -0.9296
  420MOL0     H57892   5.052  10.696   1.520  2.9714 -0.8611  0.9527
  420MOL0     H57893   5.365  10.659   1.640 -1.4707 -0.7441 -1.0861
  420MOL0     H57894   5.331  10.542   1.757 -0.4846 -0.0312 -0.5783
  420MOL0     H57895   5.368  10.849   1.815 -0.1440 -0.0343 -0.7227
  420MOL0     H57896   5.348  10.720   1.936  0.0466  1.6775  0.4762
  420MOL0     H57897   5.570  10.752   1.950 -2.4888  0.2464  1.7179
  420MOL0     H57898   5.558  10.618   1.835  0.0742 -0.0326  4.1598
  420MOL0     H57899   5.558  10.842   1.651  2.3248  2.1727 -0.7350
  420MOL0     H57900   5.604  10.917   1.790  0.9695 -0.1069 -1.3227
  420MOL0     H57901   5.806  10.752   1.815  0.5220 -0.2204  0.5622
  420MOL0     H57902   5.801  10.869   1.680 -1.6572  0.6566 -0.5149
  420MOL0     H57903   5.718  10.583   1.622  0.2866 -0.1024  0.0705
  420MOL0     H57904   5.763  10.715   1.522  1.7793  4.6011  2.1546
  420MOL0     H57905   5.942  10.532   1.684 -0.2999  0.0097 -0.7507
  420MOL0     H57906   5.990  10.699   1.684 -2.7487  0.8205  1.9387
  420MOL0     H57907   5.932  10.541   1.442 -0.0032 -2.3640  2.2965
  420MOL0     H57908   5.969  10.712   1.444 -2.3419  0.1661  1.5574
  420MOL0     H57909   6.220  10.673   1.674 -0.3014 -1.2674  0.7407
  420MOL0     H57910   6.467  10.694   1.602  1.2869  0.1186  1.6947
  420MOL0     H57911   6.540  10.565   1.488 -1.1041 -3.0543 -0.3105
  420MOL0     H57912   6.471  10.523   1.782 -1.8280 -2.5791 -0.5373
  420MOL0     H57913   6.488  10.396   1.665  1.6092 -0.0730 -2.1694
  420MOL0     H57914   6.693  10.470   1.815 -2.3288 -1.5670  0.7217
  420MOL0     H57915   6.713  10.422   1.648 -2.2920 -0.4117  0.8561
  420MOL0     H57916   6.751  10.642   1.572  0.6155 -1.8176 -0.8920
  420MOL0     H57917   6.693  10.704   1.742  2.0005  0.5660  0.6135
  420MOL0     H57918   6.804  10.906   1.742  0.0703 -1.6564 -1.6668
  420MOL0     H57919   6.847  11.115   1.830  0.1743 -0.0326 -1.3784
  420MOL0     H57920   7.000  11.169   1.790 -0.6379 -1.4828 -0.4959
  420MOL0     H57921   6.962  11.148   1.964 -4.2244  2.0728 -0.5606
  420MOL0     H57922   7.523  10.907   1.990 -5.4586 -0.4093 -0.6491
  420MOL0     H57923   7.721  11.024   2.063 -0.0980  1.1453 -2.1097
  420MOL0     H57924   7.828  11.070   2.346 -1.4899  2.2507  4.5428
  420MOL0     H57925   7.905  11.134   2.196 -0.6598 -0.9861 -0.3118
  420MOL0     H57926   8.038  11.186   2.369  0.2849  0.3008  0.4074
  420MOL0     H57927   7.955  11.335   2.309  0.7526  0.4764  0.0498
  420MOL0     H57928   7.892  11.186   2.567  0.4746  0.6142  0.1944
  420MOL0     H57929   7.794  11.317   2.500 -1.9982 -1.2112  1.5243
  420MOL0     H57930   7.963  11.472   2.548 -1.3636 -1.7182 -0.7627
  420MOL0     H57931   8.091  11.356   2.574  0.1069  0.5241  0.6135
  420MOL0     H57932   7.857  11.421   2.772  2.1853  2.2095  2.0703
  420MOL0     H57933   7.951  11.261   2.766  0.5284 -0.1786  2.1515
  420MOL0     H57934   8.042  11.543   2.810 -2.7269 -1.8794 -2.9518
  420MOL0     H57935   8.156  11.416   2.792 -0.9691  1.4107 -0.6017
  420MOL0     H57936   8.026  11.307   3.014 -1.3752  0.7613 -0.1239
  420MOL0     H57937   7.921  11.443   2.981 -0.3308 -2.0365 -0.7309
  420MOL0     H57938   8.069  11.492   3.169  0.7771 -1.0322  0.4797
  420MOL0     H57939   8.096  11.602   3.022  1.6286 -1.2766 -1.9721
  420MOL0     H57940   7.500  11.236   2.342  1.2954  1.6226 -2.3508
  420MOL0     H57941   7.278  11.110   2.284 -0.2512  1.3011 -1.6336
  420MOL0     H57942   7.233  10.736   1.940  0.7688  1.1218 -0.5319
  420MOL0     H57943   7.085  10.577   1.825 -4.5513 -0.9141  0.0199
  420MOL0     H57944   5.114  10.456   1.871 -0.9887 -3.0824  0.1086
  420MOL0     H57945   4.977  10.306   1.805  0.1334  2.0683  1.0708
  420MOL0     H57946   4.687   9.934   1.625 -2.4265 -2.4567  0.6579
  420MOL0     H57947   4.479   9.844   1.559 -1.8098 -0.0448  0.5684
  420MOL0     H57948   4.142  10.168   1.455 -1.1297 -0.5177  0.6354
  420MOL0     H57949   4.205  10.092   1.297  0.6669 -1.1266 -0.4370
  420MOL0     H57950   3.975  10.045   1.481  3.3656  2.4886  0.5147
  420MOL0     H57951   4.037   9.893   1.401  1.8087 -0.5704 -1.4434
  420MOL0     H57952   3.947  10.143   1.255 -1.2218  0.6330 -0.6623
  420MOL0     H57953   4.010   9.992   1.177 -0.1823 -1.6443  0.6512
  420MOL0     H57954   3.752  10.040   1.321 -0.3965  0.8830 -1.4913
  420MOL0     H57955   3.810   9.872   1.286 -1.1936  0.0521  0.9879
  420MOL0     H57956   3.639  10.055   0.936  1.7389 -1.2415 -2.1247
  420MOL0     H57957   4.351  10.257   1.457  1.5406  1.5479  1.6790
  420MOL0     H57958   4.613  10.397   1.406  0.3621  0.6953 -0.3401
  420MOL0     H57959   4.469  10.430   1.489 -0.4423 -0.4668 -0.8370
  420MOL0     H57960   4.621  10.420   1.585  2.3923 -0.3883 -1.2062
  421MOL0     O57961  10.014   4.603   8.872  0.1017  0.7442 -0.8529
  421MOL0     C57962   9.937   4.641   8.788 -0.1663 -0.3027  0.8095
  421MOL0     O57963   9.971   4.704   8.662  0.6338  0.2669  0.1628
  421MOL0     C57964  10.095   4.696   8.607 -0.5485  0.6179  0.7930
  421MOL0     C57965  10.214   4.699   8.679  0.2172  0.3422  0.5989
  421MOL0     C57966  10.338   4.677   8.617 -0.4462 -0.3544  0.2594
  421MOL0     C57967  10.350   4.677   8.475  0.3147  0.0125 -0.0127
  421MOL0     O57968  10.466   4.659   8.408 -0.4418 -0.8637  0.0890
  421MOL0     C57969  10.594   4.707   8.453  0.4838  0.3754  0.0299
  421MOL0     C57970  10.655   4.793   8.347 -0.2029  0.5271 -0.3720
  421MOL0     C57971  10.796   4.834   8.388 -0.2679 -0.1678 -0.5529
  421MOL0     C57972  10.837   4.968   8.324 -0.1303  0.4816 -0.4688
  421MOL0     C57973  10.967   5.006   8.388 -0.5719  0.2637  0.0060
  421MOL0     C57974  11.012   5.145   8.368 -0.1099  0.4784  0.3369
  421MOL0     C57975  10.998   5.171   8.220 -0.4801 -0.7717  0.5416
  421MOL0     C57976  11.047   5.306   8.182 -0.6199 -0.1422 -0.1862
  421MOL0     N57977  11.059   5.319   8.037 -0.3460 -0.5395 -0.1692
  421MOL0     C57978  10.970   5.280   7.946  0.2487 -0.7585  0.5921
  421MOL0     C57979  11.023   5.338   7.828  0.0344  0.1726 -0.3275
  421MOL0     C57980  10.956   5.343   7.697 -0.4104 -0.3166 -0.3347
  421MOL0     C57981  10.936   5.491   7.647 -0.5085  0.7245  0.3745
  421MOL0     C57982  10.840   5.501   7.533 -0.2699  0.1741  0.2861
  421MOL0     C57983  10.885   5.410   7.418  0.6112 -0.0201 -0.4472
  421MOL0     O57984  11.002   5.461   7.352 -0.5043  0.1317 -0.5792
  421MOL0     C57985  11.105   5.387   7.303 -0.3601  0.1190  0.3155
  421MOL0     C57986  11.118   5.247   7.325  0.0259 -0.9361 -0.0592
  421MOL0     C57987  11.230   5.179   7.280  0.9200  0.3989 -0.1268
  421MOL0     C57988  11.230   5.034   7.312 -0.9959  0.9325 -0.5759
  421MOL0     C57989  11.335   5.248   7.208  0.5763 -0.1299  0.1670
  421MOL0     C57990  11.464   5.178   7.170 -0.1286  0.0671 -0.5155
  421MOL0     O57991  11.549   5.252   7.090  0.8712  0.2700  0.3833
  421MOL0     C57992  11.666   5.207   7.050 -0.2976 -0.0349 -0.1537
  421MOL0     C57993  11.773   5.294   7.058  0.5138 -1.3076 -0.0509
  421MOL0     C57994  11.905   5.259   7.004  0.4531 -0.6808  0.0456
  421MOL0     C57995  11.925   5.146   6.933 -0.2228  0.3401 -0.3900
  421MOL0     O57996  12.035   5.121   6.867 -0.5092  0.4761 -1.0656
  421MOL0     C57997  12.101   4.987   6.888 -0.2231 -0.1293  0.0269
  421MOL0     C57998  12.167   4.981   7.030 -0.1772 -1.1315  0.3233
  421MOL0     C57999  12.269   5.099   7.045  0.0502 -0.1207 -0.1303
  421MOL0     C58000  12.389   5.045   7.116 -0.1600 -0.1689 -0.2898
  421MOL0     C58001  12.496   5.154   7.128  0.6235  0.0217 -0.5784
  421MOL0     C58002  12.634   5.099   7.167  0.3846  0.7939  0.1842
  421MOL0     C58003  12.733   5.219   7.184  1.1949  0.6664 -0.2448
  421MOL0     C58004  12.873   5.166   7.177 -0.0775  1.1057  1.0619
  421MOL0    Cl58005  12.992   5.302   7.174 -0.5604  0.1874  0.2684
  421MOL0     C58006  11.809   5.065   6.913  0.0543 -0.2130  0.0705
  421MOL0     C58007  11.687   5.092   6.976  0.5075 -0.0160  0.5533
  421MOL0     O58008  11.488   5.061   7.208 -0.0687 -0.3356 -1.1211
  421MOL0     C58009  11.323   5.390   7.188 -0.0851  0.2277 -1.1033
  421MOL0     C58010  11.209   5.458   7.234  0.0700  0.1266 -0.6859
  421MOL0     N58011  11.142   5.404   7.861  0.0395 -0.4684  0.4002
  421MOL0     N58012  11.162   5.397   7.989 -0.0833 -0.7680 -0.1338
  421MOL0     C58013  10.236   4.694   8.404 -0.7647  0.0225 -0.0779
  421MOL0     C58014  10.105   4.696   8.471 -0.4264  0.8934 -0.2101
  421MOL0     C58015   9.793   4.628   8.814  0.1416  0.9290  0.2864
  421MOL0     C58016   9.763   4.621   8.949 -0.6730 -0.8404 -0.8660
  421MOL0     C58017   9.640   4.601   8.994  0.2677  0.5437 -1.4115
  421MOL0     C58018   9.538   4.564   8.902 -0.3140  0.3812 -0.0960
  421MOL0     O58019   9.396   4.561   8.927 -0.8096 -0.3180 -0.0993
  421MOL0     C58020   9.352   4.632   9.045  0.3314  0.0493 -0.7131
  421MOL0     C58021   9.328   4.776   9.027 -0.5008  0.0889 -0.6718
  421MOL0     C58022   9.262   4.836   9.162  0.0211  0.2467 -0.3963
  421MOL0     C58023   9.227   4.980   9.143 -0.2338  0.3841 -0.4890
  421MOL0     C58024   9.157   5.041   9.252 -0.0461  0.1921  0.5595
  421MOL0     C58025   9.088   5.086   9.345  0.5837 -0.0928 -0.2627
  421MOL0     C58026   9.566   4.564   8.761  0.4112 -0.2950 -0.5045
  421MOL0     C58027   9.694   4.599   8.718 -0.3374 -1.0635 -0.2438
  421MOL0     C58028   9.711   4.604   8.567 -0.2918 -0.2386 -0.0851
  421MOL0     H58029  10.221   4.703   8.787  3.5978 -0.2192  0.5206
  421MOL0     H58030  10.427   4.668   8.679 -0.0795 -2.2493 -0.4437
  421MOL0     H58031  10.659   4.626   8.487 -0.3533 -0.8035 -1.0813
  421MOL0     H58032  10.581   4.772   8.541  0.2427 -1.1850  1.2023
  421MOL0     H58033  10.662   4.724   8.262  0.4660  1.6128 -1.2295
  421MOL0     H58034  10.594   4.880   8.322  2.5876  1.8967 -3.1697
  421MOL0     H58035  10.806   4.845   8.496 -2.8079  0.5826 -0.3386
  421MOL0     H58036  10.875   4.768   8.351  2.0683  3.8372 -3.4969
  421MOL0     H58037  10.858   4.956   8.218  2.6649  0.7359 -0.0149
  421MOL0     H58038  10.757   5.040   8.344 -1.8089 -1.4839  0.3736
  421MOL0     H58039  11.043   4.933   8.357  0.1189  0.3332  1.4415
  421MOL0     H58040  10.959   4.994   8.496 -2.7109 -0.9840 -0.2457
  421MOL0     H58041  10.955   5.215   8.429 -0.1248  1.5180 -0.8278
  421MOL0     H58042  11.118   5.141   8.396  1.0524 -0.3223 -3.5957
  421MOL0     H58043  10.893   5.167   8.191 -0.2264 -1.6647 -0.3360
  421MOL0     H58044  11.044   5.091   8.161  1.5741 -0.8592  2.1238
  421MOL0     H58045  10.975   5.381   8.217 -0.7154 -1.4021  2.5471
  421MOL0     H58046  11.131   5.336   8.244 -0.6369  2.3250 -1.2382
  421MOL0     H58047  10.870   5.239   7.952 -0.5898 -0.1242 -4.3893
  421MOL0     H58048  10.865   5.283   7.707  0.3380 -1.1422  2.5240
  421MOL0     H58049  11.021   5.299   7.620 -1.4866  1.4153 -2.3410
  421MOL0     H58050  10.910   5.553   7.734  2.1570  0.3516  1.5263
  421MOL0     H58051  11.035   5.531   7.622  0.0781 -0.9487 -0.0834
  421MOL0     H58052  10.741   5.470   7.566 -0.0174  0.9250  1.8615
  421MOL0     H58053  10.843   5.599   7.483  0.9466 -1.2679 -2.7442
  421MOL0     H58054  10.870   5.306   7.449  1.4765  0.1473  0.5744
  421MOL0     H58055  10.809   5.427   7.340  2.4271  1.1086 -2.0652
  421MOL0     H58056  11.034   5.210   7.382 -0.1140  2.5021  2.3019
  421MOL0     H58057  11.307   4.996   7.378 -1.5583 -1.7804 -1.3818
  421MOL0     H58058  11.234   4.981   7.216 -0.0089 -0.0534 -0.0053
  421MOL0     H58059  11.133   5.020   7.361 -1.7816  3.5908 -1.1815
  421MOL0     H58060  11.770   5.391   7.106 -1.5505 -1.0603 -0.5729
  421MOL0     H58061  11.997   5.313   7.023 -0.2001  0.5309 -0.1274
  421MOL0     H58062  12.027   4.908   6.874 -1.3278  1.1241 -1.4853
  421MOL0     H58063  12.170   4.979   6.804 -0.8987  1.7091 -0.7347
  421MOL0     H58064  12.089   4.995   7.106  0.3409 -0.1699  0.6908
  421MOL0     H58065  12.218   4.886   7.052  2.5061  0.5582  1.9769
  421MOL0     H58066  12.223   5.171   7.113 -1.9377 -2.7789  1.5233
  421MOL0     H58067  12.279   5.146   6.947 -0.2561  0.0221 -0.0956
  421MOL0     H58068  12.419   4.957   7.058 -2.3742 -1.2351  0.0758
  421MOL0     H58069  12.371   5.017   7.220  0.9958 -0.2224 -0.1026
  421MOL0     H58070  12.495   5.216   7.038 -3.6758 -0.1730 -0.8718
  421MOL0     H58071  12.462   5.227   7.202 -0.0935 -0.6725 -0.2035
  421MOL0     H58072  12.662   5.032   7.085  0.7989 -2.1461  2.5269
  421MOL0     H58073  12.629   5.036   7.257 -0.9093 -0.8988 -1.0054
  421MOL0     H58074  12.709   5.267   7.279 -0.0848  2.2063 -1.2982
  421MOL0     H58075  12.716   5.296   7.109  1.1902 -0.3194 -1.2858
  421MOL0     H58076  12.883   5.115   7.081 -0.0292  1.0737  1.0838
  421MOL0     H58077  12.895   5.099   7.261 -0.6446 -2.0045 -1.0840
  421MOL0     H58078  11.807   4.979   6.848  0.0102  0.3621 -0.7113
  421MOL0     H58079  11.618   5.009   6.968  0.9499 -0.5121  1.5948
  421MOL0     H58080  11.392   5.449   7.129 -0.3580  1.1352 -0.5413
  421MOL0     H58081  11.209   5.565   7.217 -1.9100  0.5588  1.4808
  421MOL0     H58082  10.249   4.701   8.297  2.2484  0.3616  0.2210
  421MOL0     H58083  10.012   4.713   8.417 -0.3301  1.4856 -0.2050
  421MOL0     H58084   9.838   4.660   9.018 -2.3785 -3.1296  2.5472
  421MOL0     H58085   9.623   4.602   9.101 -0.6921  1.9073 -1.5528
  421MOL0     H58086   9.254   4.590   9.069  2.4150 -3.2140  3.2565
  421MOL0     H58087   9.414   4.617   9.133 -1.0562  1.6740  0.6170
  421MOL0     H58088   9.269   4.788   8.936  0.8554 -1.5572 -1.8157
  421MOL0     H58089   9.425   4.824   9.018  1.5023 -2.8584  2.6363
  421MOL0     H58090   9.172   4.776   9.178 -0.9519  1.3198 -1.5784
  421MOL0     H58091   9.337   4.829   9.241 -0.1362 -1.2919 -0.3674
  421MOL0     H58092   9.180   4.995   9.045  3.4689 -0.7933 -2.6142
  421MOL0     H58093   9.320   5.036   9.134 -0.8666  1.2521 -2.1215
  421MOL0     H58094   9.029   5.113   9.430  2.0464 -0.8506  1.0470
  421MOL0     H58095   9.490   4.521   8.696  2.1239 -1.7840 -1.5975
  421MOL0     H58096   9.788   4.674   8.534  0.3266 -2.8677 -5.2120
  421MOL0     H58097   9.738   4.501   8.543  1.6641  0.3724 -0.7182
  421MOL0     H58098   9.620   4.634   8.514  1.2355 -0.0535 -2.8054
  422MOL0     O58099   2.545   3.789   3.812  0.8872 -0.2722  0.1767
  422MOL0     C58100   2.497   3.677   3.794 -0.2313 -0.2906  0.1416
  422MOL0     O58101   2.570   3.561   3.790 -0.3559 -0.5804  0.7867
  422MOL0     C58102   2.700   3.565   3.826 -0.4655 -0.0104  0.4125
  422MOL0     C58103   2.752   3.576   3.954  0.2240 -0.8049 -0.4583
  422MOL0     C58104   2.883   3.591   3.989  0.0851  0.3387 -0.1296
  422MOL0     C58105   2.978   3.599   3.879  0.1516  0.4148  0.0623
  422MOL0     O58106   3.105   3.634   3.913  0.5463  0.6969  0.3773
  422MOL0     C58107   3.205   3.548   3.857 -0.5537 -0.2514  0.4540
  422MOL0     C58108   3.344   3.592   3.917 -0.3650 -0.3673  0.6110
  422MOL0     C58109   3.439   3.470   3.898  0.8073  0.3157  0.1706
  422MOL0     C58110   3.586   3.487   3.941 -0.1629 -0.2448 -0.3657
  422MOL0     C58111   3.607   3.525   4.087  0.6722  0.4022  0.2714
  422MOL0     C58112   3.703   3.639   4.121 -0.0062  0.3029  0.1234
  422MOL0     C58113   3.849   3.604   4.071  0.3311  0.3057 -0.3746
  422MOL0     C58114   3.916   3.514   4.185 -0.8024  0.6080 -0.0851
  422MOL0     N58115   4.054   3.495   4.129 -0.6973 -0.8121  0.0932
  422MOL0     C58116   4.086   3.441   4.007 -0.2753  0.3204 -0.1921
  422MOL0     C58117   4.215   3.464   4.003 -0.3012  0.4280 -0.0096
  422MOL0     C58118   4.298   3.433   3.881 -0.5211  0.1510 -0.5155
  422MOL0     C58119   4.231   3.478   3.750  0.2522  0.6535  0.0212
  422MOL0     C58120   4.324   3.444   3.627  0.8830 -1.0254  0.3248
  422MOL0     C58121   4.447   3.545   3.623  0.2427 -0.1589  0.5766
  422MOL0     O58122   4.520   3.486   3.510 -0.2030  0.4540 -0.1923
  422MOL0     C58123   4.641   3.545   3.470  0.4226 -0.0197 -0.4106
  422MOL0     C58124   4.722   3.640   3.531 -0.8079 -0.0452 -0.6144
  422MOL0     C58125   4.850   3.672   3.482  0.0630  0.1204 -0.2601
  422MOL0     C58126   4.926   3.754   3.585  0.5726 -0.5039 -0.6034
  422MOL0     C58127   4.906   3.608   3.369 -0.2249 -0.4783 -0.1002
  422MOL0     C58128   5.034   3.646   3.325  0.4716  0.2983 -0.2538
  422MOL0     O58129   5.130   3.661   3.421 -0.5175 -0.2232 -0.2117
  422MOL0     C58130   5.255   3.714   3.387  0.4388  0.0230  0.6309
  422MOL0     C58131   5.265   3.831   3.315  0.5884 -0.3869  0.3578
  422MOL0     C58132   5.394   3.892   3.306 -0.0131 -0.0144 -0.2987
  422MOL0     C58133   5.510   3.839   3.363 -0.7043  0.4357 -0.3065
  422MOL0     O58134   5.636   3.892   3.352 -0.4967 -0.3639  0.1788
  422MOL0     C58135   5.745   3.795   3.339  0.1553 -0.3958 -0.1877
  422MOL0     C58136   5.878   3.872   3.321 -0.1577  0.1069  0.4706
  422MOL0     C58137   5.999   3.781   3.272  0.4511  0.3312  0.8033
  422MOL0     C58138   6.124   3.873   3.267 -0.8836 -0.5294  0.1520
  422MOL0     C58139   6.243   3.785   3.216 -0.3621 -0.1773 -1.0743
  422MOL0     C58140   6.373   3.852   3.262  0.8841  0.4647  0.2996
  422MOL0     C58141   6.488   3.759   3.215  0.0348  0.2962  0.4755
  422MOL0     C58142   6.623   3.827   3.248  1.1773 -0.7600 -0.4364
  422MOL0    Cl58143   6.641   3.879   3.426  0.3847 -0.1003  0.5486
  422MOL0     C58144   5.495   3.704   3.426 -0.2201 -0.0196  1.2965
  422MOL0     C58145   5.367   3.647   3.434 -0.1730  0.1512 -0.3271
  422MOL0     O58146   5.046   3.651   3.205  0.0761 -0.3560  0.5441
  422MOL0     C58147   4.822   3.520   3.298 -0.6006  0.2421  0.1572
  422MOL0     C58148   4.689   3.498   3.347  0.0515 -0.9255  0.2879
  422MOL0     N58149   4.267   3.536   4.115  0.0314 -0.0529  0.2403
  422MOL0     N58150   4.165   3.558   4.185 -0.3863  1.1850 -0.2191
  422MOL0     C58151   2.934   3.590   3.744  0.7329  0.4980 -0.4600
  422MOL0     C58152   2.795   3.577   3.714 -0.5275  0.0037  0.2209
  422MOL0     C58153   2.353   3.658   3.754 -0.5734  0.6900  0.0962
  422MOL0     C58154   2.318   3.558   3.667 -0.4486  0.7711  0.1473
  422MOL0     C58155   2.186   3.527   3.631  0.3171  0.3072  0.1189
  422MOL0     C58156   2.087   3.618   3.670 -0.5054 -0.1743  0.1233
  422MOL0     O58157   1.970   3.584   3.609 -0.4246  0.3677 -0.4325
  422MOL0     C58158   1.862   3.674   3.609  0.5649 -0.0881 -0.0477
  422MOL0     C58159   1.760   3.652   3.490  0.1955 -0.4285  0.0586
  422MOL0     C58160   1.814   3.683   3.350  0.4731  0.2377  0.1739
  422MOL0     C58161   1.690   3.678   3.259  0.1078  0.3960  0.4602
  422MOL0     C58162   1.717   3.636   3.126 -0.2506  0.2271 -0.4383
  422MOL0     C58163   1.737   3.628   3.009 -0.2582  0.0780 -0.2802
  422MOL0     C58164   2.115   3.723   3.759  0.4655  0.4815  0.1520
  422MOL0     C58165   2.245   3.742   3.797 -0.0780 -0.7654  0.0382
  422MOL0     C58166   2.273   3.873   3.875  0.2048 -0.2783 -0.0729
  422MOL0     H58167   2.687   3.570   4.041 -2.5043 -1.9530 -2.4257
  422MOL0     H58168   2.905   3.617   4.092  2.0409 -0.0381 -0.4124
  422MOL0     H58169   3.194   3.567   3.750 -3.1443 -0.6673  0.5628
  422MOL0     H58170   3.187   3.441   3.875 -2.6452  0.0138  0.1758
  422MOL0     H58171   3.399   3.674   3.870 -0.7743 -0.3158  0.2163
  422MOL0     H58172   3.341   3.620   4.023 -0.1353 -0.3766  0.6200
  422MOL0     H58173   3.397   3.384   3.951 -1.5632  2.4709  2.0056
  422MOL0     H58174   3.441   3.447   3.791 -0.3399 -0.1624  0.2439
  422MOL0     H58175   3.647   3.400   3.917 -0.6240 -1.0383  1.2151
  422MOL0     H58176   3.628   3.565   3.876  2.2795 -0.3960  0.9329
  422MOL0     H58177   3.628   3.432   4.141 -3.8080 -0.5683  0.7706
  422MOL0     H58178   3.510   3.559   4.125 -0.6386 -0.9585 -1.7035
  422MOL0     H58179   3.664   3.727   4.068 -0.2559 -0.0972 -0.3643
  422MOL0     H58180   3.698   3.664   4.227  1.6243  0.0341  0.2894
  422MOL0     H58181   3.903   3.697   4.052  0.1875  0.3163 -0.7352
  422MOL0     H58182   3.847   3.556   3.973  1.3105  2.9129 -1.7672
  422MOL0     H58183   3.914   3.557   4.285  0.1872  1.7258 -0.5265
  422MOL0     H58184   3.872   3.414   4.183  2.3310 -0.9311 -2.8779
  422MOL0     H58185   4.030   3.392   3.928  2.7023 -0.3745 -1.9798
  422MOL0     H58186   4.319   3.327   3.871 -1.2408 -0.1980  1.2528
  422MOL0     H58187   4.395   3.482   3.896 -0.6493  0.2958 -0.1284
  422MOL0     H58188   4.146   3.412   3.735  1.2236 -1.8690  4.0217
  422MOL0     H58189   4.197   3.582   3.744  0.1055  0.5767 -0.4918
  422MOL0     H58190   4.355   3.339   3.630 -0.3486 -1.3924  0.8307
  422MOL0     H58191   4.269   3.456   3.533 -0.5313 -0.8284  1.1410
  422MOL0     H58192   4.414   3.646   3.598 -2.7525 -0.7375  1.7253
  422MOL0     H58193   4.505   3.556   3.715 -0.1963  2.3640  0.6339
  422MOL0     H58194   4.671   3.685   3.616 -0.5171  1.7925 -1.3661
  422MOL0     H58195   4.863   3.789   3.667  0.5421 -1.8195 -0.0419
  422MOL0     H58196   4.968   3.848   3.548  0.3391 -0.9688 -2.1041
  422MOL0     H58197   5.005   3.692   3.627  2.1305  1.1018 -1.0367
  422MOL0     H58198   5.173   3.873   3.275  1.3014  0.2799 -0.6211
  422MOL0     H58199   5.391   3.986   3.253  3.5930  0.6305  0.3438
  422MOL0     H58200   5.758   3.734   3.429  1.7964  1.5040  0.9474
  422MOL0     H58201   5.724   3.730   3.254  0.8033 -0.0731 -0.6019
  422MOL0     H58202   5.857   3.943   3.240 -0.4124 -0.3312  0.1464
  422MOL0     H58203   5.906   3.929   3.410  0.3481  1.7943 -0.7003
  422MOL0     H58204   5.968   3.752   3.171  0.1235  3.3500 -0.0818
  422MOL0     H58205   6.002   3.702   3.347  0.2926 -0.5861 -0.1326
  422MOL0     H58206   6.140   3.917   3.366 -0.9166  0.4444 -0.2710
  422MOL0     H58207   6.117   3.956   3.196 -0.7588 -1.0223 -0.4399
  422MOL0     H58208   6.229   3.679   3.239 -0.2186 -0.1544 -0.8809
  422MOL0     H58209   6.246   3.768   3.108  1.0082  1.3228 -1.3130
  422MOL0     H58210   6.375   3.856   3.372  0.7628 -1.0143  0.3766
  422MOL0     H58211   6.371   3.955   3.225 -1.7465  1.2817  2.3503
  422MOL0     H58212   6.494   3.742   3.107  3.4099  1.4343  0.3544
  422MOL0     H58213   6.492   3.664   3.270  1.8860  1.0116  1.6789
  422MOL0     H58214   6.640   3.912   3.181 -0.4009  0.1452  0.2664
  422MOL0     H58215   6.703   3.752   3.246  2.3445  0.3824  0.9638
  422MOL0     H58216   5.570   3.638   3.468 -0.4755 -0.3668  1.2093
  422MOL0     H58217   5.351   3.548   3.475 -0.5507  0.3200 -0.0564
  422MOL0     H58218   4.859   3.467   3.211  0.5603  1.3893 -0.0869
  422MOL0     H58219   4.620   3.426   3.303  0.2918 -0.6406 -0.5786
  422MOL0     H58220   2.994   3.587   3.654  0.4746 -2.0393 -0.6285
  422MOL0     H58221   2.757   3.575   3.612  0.1130  0.7397 -0.0404
  422MOL0     H58222   2.396   3.510   3.608 -0.5077  1.5244 -0.5563
  422MOL0     H58223   2.156   3.457   3.555 -3.4258  1.1874  0.5494
  422MOL0     H58224   1.809   3.663   3.704  2.0212  2.9695  1.2541
  422MOL0     H58225   1.903   3.775   3.612  1.2996 -0.3786 -0.0681
  422MOL0     H58226   1.672   3.714   3.507  0.0932  0.2066 -2.3963
  422MOL0     H58227   1.730   3.547   3.479 -2.6168  0.4179 -1.1582
  422MOL0     H58228   1.844   3.788   3.344 -5.0027  2.0271 -1.7768
  422MOL0     H58229   1.895   3.612   3.330 -0.2683 -0.4090 -0.5957
  422MOL0     H58230   1.641   3.776   3.257 -1.3655 -0.3273 -1.1572
  422MOL0     H58231   1.613   3.611   3.299 -0.2889  0.1039 -0.7755
  422MOL0     H58232   1.762   3.639   2.905  2.6970 -0.2729  0.2937
  422MOL0     H58233   2.028   3.778   3.793  0.3068  0.2921  0.0513
  422MOL0     H58234   2.363   3.860   3.936 -0.6048 -0.0502  1.2143
  422MOL0     H58235   2.280   3.957   3.804 -3.5255 -1.2681 -1.9072
  422MOL0     H58236   2.192   3.891   3.946  1.9506 -0.6418  2.1023
  423MOL0     O58237   8.643   0.357   7.732 -0.5661  0.4371  0.4722
  423MOL0     C58238   8.582   0.458   7.707  0.2448 -0.9376 -0.6976
  423MOL0     O58239   8.638   0.579   7.685  0.1809  0.5612 -0.0472
  423MOL0     C58240   8.771   0.598   7.637  0.1985 -0.0622  0.2903
  423MOL0     C58241   8.798   0.597   7.501 -0.3588 -0.3367  0.0228
  423MOL0     C58242   8.930   0.623   7.459  0.5508  0.3010 -1.0052
  423MOL0     C58243   9.030   0.647   7.553  0.0959 -0.1475 -0.3331
  423MOL0     O58244   9.157   0.668   7.497 -0.2839 -0.4788 -0.8177
  423MOL0     C58245   9.258   0.732   7.578  0.0895 -0.1534  0.1476
  423MOL0     C58246   9.390   0.769   7.506  0.6281  1.4174  0.7867
  423MOL0     C58247   9.482   0.647   7.484  0.0790 -0.4739 -0.3374
  423MOL0     C58248   9.590   0.674   7.368  0.2287 -0.6055 -0.5386
  423MOL0     C58249   9.692   0.782   7.400  0.0721 -0.0239 -0.3009
  423MOL0     C58250   9.780   0.748   7.523 -0.5185  0.4259  0.2307
  423MOL0     C58251   9.877   0.633   7.511 -0.5103 -0.0686  0.7333
  423MOL0     C58252   9.987   0.635   7.622 -0.4862  0.7760  0.0641
  423MOL0     N58253  10.100   0.554   7.587  0.6168 -0.7651  0.1573
  423MOL0     C58254  10.108   0.415   7.604 -0.2942 -0.6947  0.7262
  423MOL0     C58255  10.245   0.391   7.572 -1.1401  0.2070 -0.1679
  423MOL0     C58256  10.309   0.252   7.573 -0.9214  0.6282  0.2209
  423MOL0     C58257  10.456   0.247   7.602 -0.1351 -0.2571 -0.2001
  423MOL0     C58258  10.549   0.265   7.475 -1.2075  0.5434 -0.3862
  423MOL0     C58259  10.695   0.233   7.519 -0.0787 -0.2198  0.5700
  423MOL0     O58260  10.709   0.090   7.549  0.0466  0.0460  0.4143
  423MOL0     C58261  10.838   0.043   7.560 -0.1148  0.2872  0.1157
  423MOL0     C58262  10.929   0.112   7.631 -0.5425  0.8347  0.4157
  423MOL0     C58263  11.065   0.082   7.635 -0.3359 -0.3505  0.2282
  423MOL0     C58264  11.154   0.160   7.725 -0.1825  0.2112  0.4899
  423MOL0     C58265  11.110  -0.025   7.557 -0.0105 -0.2419  0.1062
  423MOL0     C58266  11.249  -0.071   7.553  0.8337  0.1709  0.3628
  423MOL0     O58267  11.278  -0.205   7.514 -0.1487 -0.3026 -0.0034
  423MOL0     C58268  11.410  -0.238   7.526 -0.3033  0.2600 -0.2353
  423MOL0     C58269  11.497  -0.224   7.420 -0.6557  0.4609 -0.3996
  423MOL0     C58270  11.623  -0.297   7.420 -0.4666  0.1222  0.3016
  423MOL0     C58271  11.666  -0.357   7.538 -0.0044  0.6583 -0.3276
  423MOL0     O58272  11.773  -0.432   7.519 -0.0907 -0.4836 -0.7174
  423MOL0     C58273  11.845  -0.487   7.632 -0.1805 -0.2610 -0.5308
  423MOL0     C58274  11.993  -0.499   7.615 -0.2640 -0.1008 -0.0948
  423MOL0     C58275  12.067  -0.599   7.698 -0.3864  0.3302 -0.7669
  423MOL0     C58276  12.217  -0.619   7.654  0.1612  0.2111 -0.0174
  423MOL0     C58277  12.288  -0.705   7.766  0.5631 -0.6563 -0.5438
  423MOL0     C58278  12.415  -0.759   7.716 -0.7978  1.1404  0.5483
  423MOL0     C58279  12.508  -0.818   7.836 -0.5653  0.4412 -0.0175
  423MOL0     C58280  12.652  -0.852   7.794  0.0100  0.6218  0.4251
  423MOL0    Cl58281  12.748  -0.920   7.939 -0.1439 -0.0266 -0.2610
  423MOL0     C58282  11.577  -0.363   7.644  0.3508 -0.3243  0.0383
  423MOL0     C58283  11.447  -0.307   7.635 -0.3891 -0.6113 -0.3870
  423MOL0     O58284  11.337   0.015   7.563  0.1870  0.4041 -0.0168
  423MOL0     C58285  11.018  -0.115   7.494  0.1617 -0.5328  0.4492
  423MOL0     C58286  10.884  -0.072   7.491  0.6890 -0.1138 -0.3478
  423MOL0     N58287  10.315   0.506   7.541 -0.2527 -0.4022  0.2058
  423MOL0     N58288  10.222   0.602   7.552 -0.2589  1.0564  0.9124
  423MOL0     C58289   9.002   0.637   7.690 -0.7902 -0.0890  0.1954
  423MOL0     C58290   8.871   0.615   7.728  0.4481  0.2228 -0.3959
  423MOL0     C58291   8.439   0.448   7.709  0.2431  0.3789  0.1343
  423MOL0     C58292   8.384   0.399   7.823 -0.0441 -0.2728  0.4205
  423MOL0     C58293   8.247   0.391   7.843 -0.1531 -0.5587 -0.7951
  423MOL0     C58294   8.163   0.443   7.744 -0.0066 -0.4755  0.1223
  423MOL0     O58295   8.033   0.435   7.772  0.3140 -0.5208 -0.3325
  423MOL0     C58296   7.936   0.477   7.683  0.1045  0.1040 -0.4084
  423MOL0     C58297   7.836   0.368   7.641 -0.0778  0.0810 -0.1706
  423MOL0     C58298   7.767   0.290   7.760  0.7424 -0.1131  0.5467
  423MOL0     C58299   7.697   0.381   7.863  0.2640 -0.6789  0.9272
  423MOL0     C58300   7.602   0.316   7.949  0.1010 -0.1950  0.1334
  423MOL0     C58301   7.519   0.258   8.013  0.4667  0.9935  0.1557
  423MOL0     C58302   8.220   0.493   7.620  0.0729  0.6478  0.8346
  423MOL0     C58303   8.362   0.507   7.603  0.7049 -0.7370 -0.2987
  423MOL0     C58304   8.399   0.588   7.480  0.2136 -0.0426  0.3400
  423MOL0     H58305   8.720   0.567   7.432 -0.9285 -0.2170  0.6030
  423MOL0     H58306   8.961   0.609   7.356 -0.0149 -3.0140 -0.8397
  423MOL0     H58307   9.276   0.693   7.678  2.5961  5.7065  2.4040
  423MOL0     H58308   9.224   0.831   7.608  0.0337 -0.1970  0.2311
  423MOL0     H58309   9.372   0.815   7.409  1.7200  1.7224  0.7132
  423MOL0     H58310   9.442   0.839   7.573  0.7072  1.9284  0.1976
  423MOL0     H58311   9.545   0.626   7.572  0.7159  0.8411 -0.4439
  423MOL0     H58312   9.423   0.558   7.462  0.1204 -0.8654  1.0199
  423MOL0     H58313   9.640   0.580   7.341 -2.2920 -1.8052 -1.3400
  423MOL0     H58314   9.533   0.716   7.285  0.9890 -0.5981 -1.0719
  423MOL0     H58315   9.646   0.880   7.417  1.3076  0.3559  1.0882
  423MOL0     H58316   9.755   0.806   7.314  1.3362  2.1607  1.1241
  423MOL0     H58317   9.848   0.833   7.531  2.1734 -1.4076 -1.6452
  423MOL0     H58318   9.723   0.735   7.616  1.0076  1.2258  1.3197
  423MOL0     H58319   9.928   0.633   7.414  1.5458  2.3082  1.6965
  423MOL0     H58320   9.811   0.546   7.512  0.3263 -0.7445 -0.2452
  423MOL0     H58321  10.027   0.735   7.640  2.3593 -0.4059  0.8528
  423MOL0     H58322   9.946   0.581   7.708  1.8838 -0.4262  0.5248
  423MOL0     H58323  10.051   0.334   7.648  1.6243 -1.4218  2.0034
  423MOL0     H58324  10.289   0.194   7.482 -0.1487 -0.0118  0.4387
  423MOL0     H58325  10.261   0.195   7.653  1.5861  0.7292  1.9265
  423MOL0     H58326  10.488   0.331   7.664 -2.4678  1.8189 -1.5960
  423MOL0     H58327  10.478   0.150   7.646 -2.1397 -0.8743 -0.4709
  423MOL0     H58328  10.512   0.196   7.399  2.3281 -0.1807 -1.6427
  423MOL0     H58329  10.532   0.366   7.437  0.7093  1.0475  0.0137
  423MOL0     H58330  10.768   0.263   7.443  0.1035  1.0506  1.2125
  423MOL0     H58331  10.716   0.300   7.602 -0.8082 -0.3913  0.8979
  423MOL0     H58332  10.890   0.195   7.689 -1.5038 -0.8499  2.3195
  423MOL0     H58333  11.200   0.087   7.792 -0.7102 -1.1218 -0.5410
  423MOL0     H58334  11.091   0.233   7.775 -1.2769  0.2695 -0.8981
  423MOL0     H58335  11.228   0.207   7.659  0.5930 -1.0253  0.4391
  423MOL0     H58336  11.468  -0.171   7.331 -0.7768 -0.8709 -1.1873
  423MOL0     H58337  11.674  -0.299   7.324 -1.8490 -1.6992 -0.4674
  423MOL0     H58338  11.831  -0.422   7.719 -0.1025  1.2666 -1.6227
  423MOL0     H58339  11.814  -0.585   7.668 -0.0705 -0.0363  0.1869
  423MOL0     H58340  12.012  -0.534   7.513  0.4531  0.4240 -0.1494
  423MOL0     H58341  12.040  -0.401   7.624  3.2013 -1.7276  1.8356
  423MOL0     H58342  12.010  -0.693   7.692 -1.1563  0.3823  3.1315
  423MOL0     H58343  12.058  -0.571   7.803  0.2253  1.3654 -0.9789
  423MOL0     H58344  12.265  -0.521   7.658 -1.1888  0.8749  2.8921
  423MOL0     H58345  12.214  -0.664   7.554  1.3510 -2.6697  1.1455
  423MOL0     H58346  12.301  -0.639   7.852  1.0312 -0.7980 -0.5028
  423MOL0     H58347  12.226  -0.786   7.806  2.0091 -1.4421  0.1844
  423MOL0     H58348  12.468  -0.680   7.663 -0.2613  0.9121  0.7346
  423MOL0     H58349  12.401  -0.841   7.645  4.5550 -0.0731  0.5020
  423MOL0     H58350  12.470  -0.914   7.871  0.9141  0.3209  1.4397
  423MOL0     H58351  12.510  -0.746   7.919  1.5816 -1.0774  1.3749
  423MOL0     H58352  12.704  -0.772   7.741 -0.1718  0.3014 -0.2475
  423MOL0     H58353  12.648  -0.936   7.724 -3.9475  1.1831 -0.2546
  423MOL0     H58354  11.619  -0.403   7.736  0.7571  1.0265  0.4694
  423MOL0     H58355  11.367  -0.304   7.708  0.2206 -2.1023  0.3697
  423MOL0     H58356  11.048  -0.209   7.448  0.3421  0.0999 -0.7737
  423MOL0     H58357  10.808  -0.134   7.445  1.7226 -0.7489 -1.2521
  423MOL0     H58358   9.086   0.643   7.758 -0.2214  1.8776 -0.5918
  423MOL0     H58359   8.837   0.606   7.831 -0.7619 -0.5723 -0.8465
  423MOL0     H58360   8.445   0.371   7.909 -2.5582  1.0120  2.7775
  423MOL0     H58361   8.195   0.363   7.934 -0.1725  1.2002 -0.2406
  423MOL0     H58362   7.887   0.562   7.732  1.1358  1.0373 -0.9643
  423MOL0     H58363   7.970   0.519   7.588  0.2188 -0.6104 -0.6891
  423MOL0     H58364   7.889   0.302   7.573 -1.4565  0.1014 -1.3198
  423MOL0     H58365   7.762   0.425   7.583 -3.9271 -3.4887  0.7085
  423MOL0     H58366   7.696   0.214   7.725 -1.2385  1.2885  1.3685
  423MOL0     H58367   7.837   0.232   7.821 -1.9726 -1.2585  2.7362
  423MOL0     H58368   7.663   0.474   7.816  3.1206  0.3856  0.7693
  423MOL0     H58369   7.775   0.427   7.925 -1.0407  2.3401  0.5049
  423MOL0     H58370   7.438   0.206   8.060  0.4088 -0.8854 -1.8496
  423MOL0     H58371   8.156   0.522   7.537  0.6798  1.7242  0.7181
  423MOL0     H58372   8.460   0.672   7.511 -0.1128  0.7089 -0.9951
  423MOL0     H58373   8.463   0.537   7.408  1.1939 -0.8574  1.7358
  423MOL0     H58374   8.312   0.628   7.427 -1.6230 -2.8596  1.0002
  424MOL0     O58375   6.720   4.539   3.016  0.3093 -0.0639 -0.2844
  424MOL0     C58376   6.611   4.542   2.965  0.6878 -0.9491  0.4118
  424MOL0     O58377   6.558   4.652   2.899  1.3946  0.8395 -0.5715
  424MOL0     C58378   6.627   4.769   2.883 -0.6273 -0.8685  0.2893
  424MOL0     C58379   6.751   4.783   2.827 -0.5731 -0.4173 -0.2955
  424MOL0     C58380   6.810   4.909   2.801 -0.0300  0.4400  0.0296
  424MOL0     C58381   6.739   5.023   2.844 -0.4560 -0.1899 -0.5957
  424MOL0     O58382   6.798   5.147   2.819  0.9379 -0.3582 -0.4543
  424MOL0     C58383   6.810   5.247   2.923  0.3972  0.1486 -0.6641
  424MOL0     C58384   6.867   5.187   3.056 -0.6394  0.2720  0.1108
  424MOL0     C58385   6.910   5.288   3.153  0.1279 -0.6104  0.2611
  424MOL0     C58386   6.975   5.247   3.286 -0.3001 -0.9911 -0.3357
  424MOL0     C58387   7.131   5.264   3.290  0.4296  0.5508 -0.6564
  424MOL0     C58388   7.187   5.190   3.415 -0.4271  0.4227 -0.1481
  424MOL0     C58389   7.345   5.208   3.423 -0.0590 -0.2553  0.0781
  424MOL0     C58390   7.387   5.183   3.574  1.0142  0.5660 -0.7718
  424MOL0     N58391   7.537   5.190   3.584  1.1300 -0.0555  0.2881
  424MOL0     C58392   7.615   5.298   3.539 -0.9464 -0.5150 -0.4286
  424MOL0     C58393   7.736   5.256   3.550 -0.8182 -0.0429 -0.6419
  424MOL0     C58394   7.849   5.328   3.486  0.4580  0.2894  0.6821
  424MOL0     C58395   7.947   5.377   3.585 -0.2437  0.7822 -0.1273
  424MOL0     C58396   8.087   5.400   3.518 -0.7495 -0.5005  0.0555
  424MOL0     C58397   8.195   5.455   3.613 -0.0783 -0.3022 -0.0991
  424MOL0     O58398   8.312   5.480   3.539 -0.7653  0.3751 -0.0815
  424MOL0     C58399   8.442   5.492   3.591 -0.6059 -0.5326 -0.3798
  424MOL0     C58400   8.477   5.489   3.724  0.4476  0.2143 -0.7952
  424MOL0     C58401   8.609   5.506   3.780  0.6411 -0.2975  0.0143
  424MOL0     C58402   8.615   5.501   3.930  0.1138  0.0513  0.1024
  424MOL0     C58403   8.712   5.499   3.683 -0.0129  0.8794  0.6479
  424MOL0     C58404   8.855   5.492   3.712  0.7317 -1.0224  0.0001
  424MOL0     O58405   8.950   5.454   3.615 -0.9302  0.1166  0.0014
  424MOL0     C58406   9.082   5.425   3.651  0.1877  0.8823 -0.1289
  424MOL0     C58407   9.122   5.366   3.773 -0.0734  0.0325  0.4105
  424MOL0     C58408   9.260   5.338   3.799 -0.3986  0.3123 -0.3767
  424MOL0     C58409   9.350   5.393   3.708 -0.0750  0.0485  0.3968
  424MOL0     O58410   9.481   5.383   3.745 -0.0698 -0.4997  0.4082
  424MOL0     C58411   9.564   5.494   3.726  0.0527 -0.4806 -0.9967
  424MOL0     C58412   9.706   5.454   3.765 -0.2309  0.2961  0.1228
  424MOL0     C58413   9.809   5.569   3.774 -0.2501  0.1216  0.3740
  424MOL0     C58414   9.942   5.535   3.848 -0.7965  0.4215  0.4404
  424MOL0     C58415  10.034   5.661   3.872 -0.7750  0.9501 -0.1084
  424MOL0     C58416  10.171   5.614   3.919  0.6084 -0.7594  0.3965
  424MOL0     C58417  10.273   5.733   3.918 -0.3095  0.4186 -0.3431
  424MOL0     C58418  10.409   5.693   3.974  0.2977  0.1838  0.9696
  424MOL0    Cl58419  10.480   5.542   3.912 -0.0055 -0.0590  0.1458
  424MOL0     C58420   9.312   5.446   3.588  0.4677 -0.0896  0.6069
  424MOL0     C58421   9.177   5.443   3.550  0.1499 -0.1328 -0.7092
  424MOL0     O58422   8.880   5.528   3.826 -0.2350 -0.1742  0.3707
  424MOL0     C58423   8.678   5.507   3.541  0.0169  1.0505  0.1217
  424MOL0     C58424   8.545   5.508   3.493 -0.4850 -0.1546 -0.3162
  424MOL0     N58425   7.734   5.133   3.606  0.4185  0.5250 -0.0853
  424MOL0     N58426   7.613   5.089   3.613 -0.1783 -0.0671  0.1795
  424MOL0     C58427   6.614   5.011   2.897  0.4842 -0.3893  0.5376
  424MOL0     C58428   6.558   4.888   2.911  0.6130 -0.4042  0.1826
  424MOL0     C58429   6.520   4.424   2.973  0.1101  0.2472 -0.2713
  424MOL0     C58430   6.417   4.420   2.881  0.3808 -1.0368 -0.2190
  424MOL0     C58431   6.332   4.308   2.874 -0.3130 -0.0355  0.0135
  424MOL0     C58432   6.345   4.196   2.955 -0.4924  0.7075  0.4257
  424MOL0     O58433   6.255   4.089   2.960  0.4850  0.0507  0.6030
  424MOL0     C58434   6.158   4.080   2.855 -0.3498 -0.1336 -0.9395
  424MOL0     C58435   6.136   3.936   2.830 -0.6731 -0.9872  0.4067
  424MOL0     C58436   6.012   3.918   2.728 -0.5066 -0.4382 -0.2350
  424MOL0     C58437   5.974   3.773   2.688 -0.0727 -0.0686 -0.3511
  424MOL0     C58438   6.095   3.699   2.650 -0.0497 -0.2958 -0.1954
  424MOL0     C58439   6.196   3.633   2.636  0.7531 -0.0019 -0.9580
  424MOL0     C58440   6.448   4.200   3.051 -0.5777  0.0496 -0.4990
  424MOL0     C58441   6.535   4.313   3.062  0.5908 -0.2831 -0.0857
  424MOL0     C58442   6.649   4.291   3.148 -1.0126 -0.5234 -0.6380
  424MOL0     H58443   6.804   4.697   2.788 -1.3827 -0.0927 -2.2195
  424MOL0     H58444   6.900   4.923   2.742  0.6932 -1.5279  0.5740
  424MOL0     H58445   6.712   5.292   2.945  0.0347 -0.9328 -0.0065
  424MOL0     H58446   6.865   5.336   2.891 -1.8043  2.2973  1.1719
  424MOL0     H58447   6.798   5.121   3.108 -1.1755  1.4510  0.9429
  424MOL0     H58448   6.952   5.131   3.017 -1.0301  0.3165 -0.8630
  424MOL0     H58449   6.964   5.370   3.105 -1.7034  2.9613  3.6747
  424MOL0     H58450   6.820   5.335   3.194  1.3345  0.3602  1.9742
  424MOL0     H58451   6.923   5.314   3.355 -1.3233 -1.6876 -0.4174
  424MOL0     H58452   6.947   5.142   3.296  0.6176 -1.3167 -0.9818
  424MOL0     H58453   7.157   5.370   3.299  2.0385  0.2538 -1.4625
  424MOL0     H58454   7.170   5.220   3.197  5.2039  0.5676  1.0734
  424MOL0     H58455   7.144   5.215   3.513  1.1214 -3.3160  1.6584
  424MOL0     H58456   7.159   5.085   3.423  1.3739  0.0911  3.8926
  424MOL0     H58457   7.363   5.312   3.395  0.3730 -0.2564  0.3435
  424MOL0     H58458   7.401   5.144   3.353 -0.0662  1.6043 -1.7302
  424MOL0     H58459   7.341   5.263   3.635  2.5237  1.0653 -0.2369
  424MOL0     H58460   7.340   5.088   3.600 -1.6006  2.0036  0.2105
  424MOL0     H58461   7.571   5.385   3.493 -1.9979 -0.3853  0.7766
  424MOL0     H58462   7.812   5.411   3.425  1.6945  0.5209  0.2234
  424MOL0     H58463   7.904   5.263   3.417  1.7059 -1.5743  3.2743
  424MOL0     H58464   7.909   5.460   3.647  0.6715  0.3330  1.0827
  424MOL0     H58465   7.962   5.290   3.649  1.3946 -1.9573 -3.8710
  424MOL0     H58466   8.126   5.309   3.472  2.1459  0.5404  0.2375
  424MOL0     H58467   8.067   5.475   3.440 -3.2508 -0.9940  0.1334
  424MOL0     H58468   8.159   5.542   3.669 -1.1545 -0.3816 -0.6547
  424MOL0     H58469   8.213   5.372   3.683 -0.7266  0.1153  0.5692
  424MOL0     H58470   8.399   5.483   3.799  2.3493  0.6918  1.3788
  424MOL0     H58471   8.612   5.397   3.962 -0.5235  0.0822  0.1729
  424MOL0     H58472   8.534   5.550   3.985 -1.9771 -0.9303 -1.9221
  424MOL0     H58473   8.707   5.548   3.966 -0.5902  2.7256 -1.2910
  424MOL0     H58474   9.050   5.347   3.852  1.9905 -0.8138  2.2094
  424MOL0     H58475   9.285   5.283   3.889 -6.4609 -0.7046  1.1060
  424MOL0     H58476   9.563   5.533   3.624 -0.4214  0.7530 -0.5364
  424MOL0     H58477   9.518   5.571   3.789  0.0072 -1.7615  0.5911
  424MOL0     H58478   9.713   5.404   3.862  2.1500 -1.3836 -0.8048
  424MOL0     H58479   9.744   5.382   3.691 -0.8281  1.4564 -1.3669
  424MOL0     H58480   9.759   5.654   3.823 -3.8133 -2.2185  1.1791
  424MOL0     H58481   9.830   5.588   3.669 -0.1491  0.6425  0.4842
  424MOL0     H58482   9.993   5.460   3.787 -0.5297  0.8769  0.0927
  424MOL0     H58483   9.914   5.492   3.944 -2.6624 -2.9508 -1.4285
  424MOL0     H58484  10.043   5.710   3.775  0.1093 -3.1833 -2.3444
  424MOL0     H58485   9.979   5.722   3.945 -0.9223 -1.7311  2.1922
  424MOL0     H58486  10.211   5.538   3.851  0.9898  0.3132 -0.6116
  424MOL0     H58487  10.163   5.576   4.021 -1.3251  3.6393  2.1583
  424MOL0     H58488  10.228   5.804   3.987 -2.0077 -2.4495  1.6883
  424MOL0     H58489  10.289   5.771   3.817 -1.6354 -1.0753 -1.1655
  424MOL0     H58490  10.394   5.699   4.082 -0.6775  1.7388  0.7730
  424MOL0     H58491  10.483   5.772   3.958 -0.2601  0.4073 -0.7552
  424MOL0     H58492   9.374   5.506   3.523 -0.9027 -1.1239 -1.7963
  424MOL0     H58493   9.138   5.486   3.458  1.7822  0.6722 -1.0509
  424MOL0     H58494   8.751   5.513   3.462  1.5891 -1.4032  1.2531
  424MOL0     H58495   8.517   5.529   3.390  0.0722  2.3274 -0.0210
  424MOL0     H58496   6.556   5.100   2.918  0.4341 -0.1886 -0.4052
  424MOL0     H58497   6.461   4.881   2.959  0.5498 -0.5825  0.0339
  424MOL0     H58498   6.398   4.503   2.813 -3.5095  0.1632  2.0107
  424MOL0     H58499   6.246   4.316   2.807  0.4738 -0.3701 -1.0708
  424MOL0     H58500   6.064   4.124   2.889  1.5583  2.5686  1.3081
  424MOL0     H58501   6.194   4.119   2.760 -1.5432 -0.0700 -1.3758
  424MOL0     H58502   6.105   3.886   2.923  1.0609 -1.5830  0.7012
  424MOL0     H58503   6.231   3.890   2.801 -1.0516 -1.3492 -0.2942
  424MOL0     H58504   5.919   3.954   2.773  0.2703 -0.0485  1.1019
  424MOL0     H58505   6.044   3.977   2.642  0.3600  0.9288  0.9798
  424MOL0     H58506   5.897   3.767   2.611  1.6790  1.8791 -2.3871
  424MOL0     H58507   5.930   3.721   2.773  0.4452  1.4379  0.8823
  424MOL0     H58508   6.284   3.572   2.634 -0.7887 -2.3702 -2.6347
  424MOL0     H58509   6.472   4.113   3.112  2.4168  1.1876  0.1654
  424MOL0     H58510   6.653   4.196   3.202  0.0014  0.0599  0.3603
  424MOL0     H58511   6.734   4.293   3.078 -3.2143  0.4439 -3.5120
  424MOL0     H58512   6.665   4.375   3.216 -0.1469 -2.9602  2.4108
  425MOL0     O58513   9.659   8.976   0.977  0.1641 -0.0743  0.1328
  425MOL0     C58514   9.583   8.951   0.880  0.4519 -0.6717  0.4243
  425MOL0     O58515   9.626   8.904   0.759  0.5095  0.2761 -0.2096
  425MOL0     C58516   9.756   8.917   0.720  0.3838 -0.2486  0.4907
  425MOL0     C58517   9.838   9.022   0.760 -0.8024 -0.0891  0.2418
  425MOL0     C58518   9.973   9.036   0.717  0.6315 -0.2196  0.4917
  425MOL0     C58519  10.025   8.940   0.634  0.0429 -0.8943 -0.1405
  425MOL0     O58520  10.154   8.929   0.591  0.6704 -0.0623 -0.2144
  425MOL0     C58521  10.252   8.998   0.669  0.1983  0.1668  0.1671
  425MOL0     C58522  10.397   8.957   0.647  0.6620  0.1025 -0.8187
  425MOL0     C58523  10.427   8.961   0.504 -0.7326  0.0932  0.4257
  425MOL0     C58524  10.576   8.937   0.487 -0.8281  0.7152 -0.4097
  425MOL0     C58525  10.622   8.970   0.338 -0.3747  0.3071 -0.1694
  425MOL0     C58526  10.550   8.885   0.233  0.0030  0.6331 -0.3643
  425MOL0     C58527  10.585   8.911   0.085  0.1845  0.4844  0.0049
  425MOL0     C58528  10.472   8.862  -0.018  0.5063 -0.1565 -0.1255
  425MOL0     N58529  10.505   8.878  -0.162 -0.0477  0.3055 -0.1480
  425MOL0     C58530  10.471   8.990  -0.234 -1.2754 -0.3294 -0.4050
  425MOL0     C58531  10.479   8.951  -0.356 -0.2464  0.2309  0.4041
  425MOL0     C58532  10.466   9.029  -0.485 -0.3022 -0.6709  0.0629
  425MOL0     C58533  10.579   9.120  -0.504 -1.2709 -0.3552 -0.1242
  425MOL0     C58534  10.697   9.039  -0.561 -0.3841  0.0807 -0.6673
  425MOL0     C58535  10.813   9.121  -0.609  0.2949  1.0871  0.2382
  425MOL0     O58536  10.784   9.183  -0.733  0.2824 -0.6509  0.3552
  425MOL0     C58537  10.893   9.199  -0.814 -1.4833  0.0953  0.1433
  425MOL0     C58538  11.030   9.192  -0.766  0.1257  0.7706  0.0868
  425MOL0     C58539  11.133   9.215  -0.853 -0.3319  0.4811  0.8436
  425MOL0     C58540  11.275   9.210  -0.796  0.3894 -0.4722  0.4435
  425MOL0     C58541  11.113   9.257  -0.988  0.5684 -0.0026 -0.4532
  425MOL0     C58542  11.220   9.269  -1.090  0.5125 -0.5122  0.0172
  425MOL0     O58543  11.320   9.176  -1.082  0.2518  0.8996 -0.1026
  425MOL0     C58544  11.441   9.198  -1.146  0.1975  0.9797  0.6346
  425MOL0     C58545  11.513   9.315  -1.174 -0.6305  0.9789  0.0193
  425MOL0     C58546  11.630   9.307  -1.245 -0.1620 -0.6953 -1.0681
  425MOL0     C58547  11.691   9.187  -1.289  0.1160 -0.3980 -0.3612
  425MOL0     O58548  11.803   9.182  -1.362  0.0425 -0.1268  0.4882
  425MOL0     C58549  11.909   9.090  -1.329  0.3964 -0.5057  1.2054
  425MOL0     C58550  12.012   9.168  -1.249  0.0585  0.0165  0.7782
  425MOL0     C58551  11.964   9.205  -1.109 -0.5559 -0.6302  0.0885
  425MOL0     C58552  12.082   9.274  -1.020 -0.5163  0.0952 -0.4940
  425MOL0     C58553  12.118   9.197  -0.890 -0.0989  0.1016  0.0019
  425MOL0     C58554  12.255   9.245  -0.822 -0.2238 -0.6769 -0.3945
  425MOL0     C58555  12.363   9.192  -0.911 -0.5152  0.5078  0.2387
  425MOL0     C58556  12.495   9.221  -0.847 -0.4600  0.1009 -0.1436
  425MOL0    Cl58557  12.545   9.384  -0.900 -0.0285  0.4355 -0.2636
  425MOL0     C58558  11.627   9.071  -1.257  0.9075 -1.0997 -0.1766
  425MOL0     C58559  11.507   9.082  -1.187  0.0842 -0.2892 -0.4721
  425MOL0     O58560  11.223   9.360  -1.177  0.3052  0.3939 -0.1991
  425MOL0     C58561  10.984   9.274  -1.030  0.2755 -0.5135  0.2985
  425MOL0     C58562  10.882   9.241  -0.945  0.2502  0.4428 -0.9886
  425MOL0     N58563  10.540   8.824  -0.364 -0.2828 -0.6731  0.0350
  425MOL0     N58564  10.536   8.775  -0.252  0.1070  0.0635  0.2694
  425MOL0     C58565   9.934   8.843   0.579  0.3253  0.2372 -0.2873
  425MOL0     C58566   9.804   8.830   0.620  0.5776 -0.1097  0.1089
  425MOL0     C58567   9.443   8.984   0.891  0.3034 -0.3134 -1.1248
  425MOL0     C58568   9.386   9.015   1.025  0.3940 -0.1555 -0.0972
  425MOL0     C58569   9.261   9.049   1.054  0.4674  0.4831 -0.3051
  425MOL0     C58570   9.170   9.063   0.950 -0.2698 -0.1855  0.4326
  425MOL0     O58571   9.044   9.101   0.966 -0.1686 -0.7017  0.1684
  425MOL0     C58572   8.972   9.089   1.088 -0.2195 -0.1379  0.2753
  425MOL0     C58573   8.946   8.945   1.143 -0.7075 -0.1757  0.1601
  425MOL0     C58574   8.833   8.942   1.235  0.6133 -0.3094  0.8394
  425MOL0     C58575   8.876   8.983   1.381 -0.4294  0.8276 -0.0014
  425MOL0     C58576   8.909   9.121   1.412 -0.5008 -0.1948 -0.0786
  425MOL0     C58577   8.918   9.242   1.430 -0.1086  0.0399 -0.4714
  425MOL0     C58578   9.217   9.023   0.820  0.4534  0.5073 -0.2127
  425MOL0     C58579   9.345   8.984   0.790  0.0605 -0.5116 -0.4328
  425MOL0     C58580   9.379   8.949   0.648 -0.1246  0.1189  0.5308
  425MOL0     H58581   9.793   9.104   0.815 -0.4559  1.7462 -2.0444
  425MOL0     H58582  10.021   9.124   0.759 -1.4031  1.1454  0.1032
  425MOL0     H58583  10.229   8.985   0.775  1.1217 -1.0516  0.2455
  425MOL0     H58584  10.240   9.105   0.649 -1.2079  0.3714  1.8911
  425MOL0     H58585  10.459   9.026   0.704  0.8385 -0.9972  0.3714
  425MOL0     H58586  10.437   8.862   0.682 -0.0315 -0.6930 -2.0981
  425MOL0     H58587  10.378   8.876   0.456  1.1555 -2.6607  3.0542
  425MOL0     H58588  10.393   9.052   0.452 -2.2174  0.1826  1.4636
  425MOL0     H58589  10.631   9.010   0.548  2.1297 -1.1468 -0.6563
  425MOL0     H58590  10.606   8.839   0.524  1.3598  1.0848 -1.0403
  425MOL0     H58591  10.730   8.955   0.332 -0.5856 -1.2406 -0.6880
  425MOL0     H58592  10.609   9.078   0.323 -1.4546 -0.0358 -2.1436
  425MOL0     H58593  10.584   8.788   0.273 -3.2720  0.0815  1.4481
  425MOL0     H58594  10.442   8.878   0.248  0.0096 -4.4207 -0.8947
  425MOL0     H58595  10.682   8.868   0.060  0.1090  1.1041 -1.4084
  425MOL0     H58596  10.595   9.020   0.079 -1.9115  0.7204 -0.2726
  425MOL0     H58597  10.445   8.758   0.003 -0.2883 -0.1912 -1.2042
  425MOL0     H58598  10.377   8.914  -0.010  1.2425  1.1917  0.1321
  425MOL0     H58599  10.449   9.088  -0.192  1.3397  0.0256  0.3510
  425MOL0     H58600  10.382   9.098  -0.476 -0.2839 -0.4549 -1.2218
  425MOL0     H58601  10.435   8.972  -0.573 -2.2208  1.7471 -0.9494
  425MOL0     H58602  10.555   9.198  -0.577 -0.3114 -3.0845 -3.6580
  425MOL0     H58603  10.611   9.157  -0.406  0.9440 -0.5635 -0.6994
  425MOL0     H58604  10.735   8.971  -0.484  1.9828  0.8630 -1.0516
  425MOL0     H58605  10.664   8.977  -0.645  1.9018 -0.2177 -1.4166
  425MOL0     H58606  10.845   9.197  -0.537  3.2258 -0.3819  0.6596
  425MOL0     H58607  10.900   9.055  -0.617 -0.1772  0.5676 -0.8797
  425MOL0     H58608  11.056   9.176  -0.662 -4.6616 -0.1880  1.3752
  425MOL0     H58609  11.301   9.105  -0.779 -0.1282 -0.6144  0.3680
  425MOL0     H58610  11.278   9.256  -0.697 -0.9571  2.3479 -0.7054
  425MOL0     H58611  11.354   9.261  -0.853 -0.5288  3.3160  2.2511
  425MOL0     H58612  11.471   9.411  -1.146 -1.2752  0.1762  2.0508
  425MOL0     H58613  11.681   9.400  -1.269  1.4571 -1.9256 -2.6186
  425MOL0     H58614  11.875   8.996  -1.286 -1.5502 -1.5827 -2.2432
  425MOL0     H58615  11.945   9.058  -1.427  2.4203 -1.0687  2.0914
  425MOL0     H58616  12.094   9.097  -1.233  0.0078  0.0797  1.3160
  425MOL0     H58617  12.045   9.256  -1.305 -2.8684 -0.0125 -1.1942
  425MOL0     H58618  11.929   9.117  -1.054 -0.3544  0.1709  1.5297
  425MOL0     H58619  11.890   9.282  -1.129  2.3522  2.4492  0.3498
  425MOL0     H58620  12.055   9.375  -0.989 -1.2685  0.9623 -3.6403
  425MOL0     H58621  12.170   9.292  -1.082 -1.0646  1.2603 -0.9554
  425MOL0     H58622  12.036   9.212  -0.819 -2.4453 -1.3793 -2.2162
  425MOL0     H58623  12.126   9.090  -0.908  0.1042 -0.2205  1.8221
  425MOL0     H58624  12.279   9.216  -0.720 -4.3106  0.3926  1.0740
  425MOL0     H58625  12.243   9.354  -0.815 -5.9413 -1.0296  0.1876
  425MOL0     H58626  12.362   9.249  -1.005  0.9469  1.8458  0.9968
  425MOL0     H58627  12.355   9.084  -0.929  0.7654  0.6068 -1.0784
  425MOL0     H58628  12.573   9.154  -0.886  0.5526  0.9311  0.4169
  425MOL0     H58629  12.500   9.207  -0.739  2.1445  0.0122 -0.2121
  425MOL0     H58630  11.660   8.971  -1.285  1.9262  0.0738 -3.6279
  425MOL0     H58631  11.464   8.987  -1.159  1.4759 -0.7993  0.0083
  425MOL0     H58632  10.978   9.317  -1.130 -0.7089  0.0088  0.5703
  425MOL0     H58633  10.780   9.269  -0.965 -0.6486 -0.2236  2.0668
  425MOL0     H58634   9.974   8.774   0.506  0.6330  0.7934 -0.6530
  425MOL0     H58635   9.741   8.757   0.569  1.3801 -1.9576  1.6332
  425MOL0     H58636   9.446   9.017   1.115 -0.8913  3.7538  0.8816
  425MOL0     H58637   9.229   9.065   1.156 -3.9776 -2.5748 -0.9170
  425MOL0     H58638   9.033   9.138   1.164  0.7263 -1.7700  0.6199
  425MOL0     H58639   8.872   9.132   1.087  0.3301  1.3351  2.1872
  425MOL0     H58640   9.040   8.908   1.186 -0.9198  0.1875  0.9349
  425MOL0     H58641   8.926   8.882   1.055 -1.0993  2.3051 -1.6459
  425MOL0     H58642   8.762   9.013   1.193  1.0692  0.6823  1.7115
  425MOL0     H58643   8.779   8.847   1.239 -4.1271  2.0429 -0.3699
  425MOL0     H58644   8.952   8.913   1.417 -0.9879  1.6218  3.0497
  425MOL0     H58645   8.792   8.957   1.446  0.7948 -2.6177  0.4046
  425MOL0     H58646   8.920   9.342   1.469  2.0960  0.0300 -0.4217
  425MOL0     H58647   9.141   9.036   0.744 -0.9996  0.5149  1.1737
  425MOL0     H58648   9.420   8.847   0.646  0.4075  0.3325  0.4915
  425MOL0     H58649   9.291   8.968   0.586  0.9825 -0.5786 -1.3746
  425MOL0     H58650   9.455   9.013   0.604  2.1792 -3.7727 -1.7449
  426MOL0     O58651   2.957   6.535   5.024  0.3084 -0.5653  0.0585
  426MOL0     C58652   2.889   6.636   5.005  0.6649 -0.2874  0.0233
  426MOL0     O58653   2.913   6.745   4.920 -0.3636 -0.1531 -0.0552
  426MOL0     C58654   3.034   6.747   4.862 -0.3761  0.7557  0.9102
  426MOL0     C58655   3.051   6.690   4.732 -0.1857 -0.3675 -0.4383
  426MOL0     C58656   3.180   6.705   4.660  0.7223  0.0999 -0.0053
  426MOL0     C58657   3.284   6.761   4.723 -0.9445  0.2993  0.4915
  426MOL0     O58658   3.402   6.760   4.650  0.5371 -0.2340  0.2430
  426MOL0     C58659   3.486   6.875   4.639  0.2001 -0.6059  0.0990
  426MOL0     C58660   3.612   6.843   4.574  0.0916  0.2308 -0.0128
  426MOL0     C58661   3.712   6.947   4.600 -0.1193  0.1620  0.5785
  426MOL0     C58662   3.836   6.907   4.515  0.0937 -0.0675  0.2610
  426MOL0     C58663   3.949   7.010   4.524  0.5676  0.5341  0.2616
  426MOL0     C58664   4.037   6.995   4.648 -0.5656  0.2328  0.3389
  426MOL0     C58665   4.122   7.126   4.674  0.0500 -0.1001 -0.1859
  426MOL0     C58666   4.207   7.118   4.805 -1.0368  0.3772 -0.5731
  426MOL0     N58667   4.336   7.165   4.779  0.5118  0.5526 -0.8836
  426MOL0     C58668   4.360   7.300   4.761  0.9263 -0.8016 -0.8945
  426MOL0     C58669   4.497   7.304   4.765  0.3316  0.1794  0.8218
  426MOL0     C58670   4.568   7.440   4.735  0.1832  0.4185 -0.3083
  426MOL0     C58671   4.551   7.536   4.855  0.6110  0.6709 -0.0592
  426MOL0     C58672   4.627   7.669   4.832 -0.4500  0.1273  0.1541
  426MOL0     C58673   4.572   7.782   4.915 -0.9450 -0.2915 -0.0646
  426MOL0     O58674   4.661   7.893   4.918 -0.3475 -0.5182  0.4108
  426MOL0     C58675   4.617   8.015   4.962 -0.5145  0.5095 -0.1742
  426MOL0     C58676   4.723   8.097   5.005 -0.2038  1.3498 -0.2713
  426MOL0     C58677   4.695   8.225   5.056  0.5433 -0.7346  0.0784
  426MOL0     C58678   4.814   8.315   5.093 -0.3294  0.2594 -0.0685
  426MOL0     C58679   4.563   8.266   5.070  0.8898 -0.3036  0.4282
  426MOL0     C58680   4.507   8.406   5.102 -0.6959  0.2289  0.5925
  426MOL0     O58681   4.378   8.446   5.065 -0.1011  0.4601  0.2661
  426MOL0     C58682   4.318   8.564   5.118  0.1236 -0.3231  0.2478
  426MOL0     C58683   4.385   8.675   5.170 -1.3266 -0.5039 -0.1887
  426MOL0     C58684   4.323   8.799   5.220  0.5928 -0.4114  0.6232
  426MOL0     C58685   4.180   8.802   5.218 -1.1291  0.6616 -0.6884
  426MOL0     O58686   4.123   8.911   5.283  0.7475  0.0908  0.5619
  426MOL0     C58687   3.995   8.890   5.338 -0.2273 -0.5711 -0.1572
  426MOL0     C58688   3.944   9.025   5.398 -0.0653 -0.3132 -0.3266
  426MOL0     C58689   3.800   9.002   5.456 -0.6346  0.8438  0.0196
  426MOL0     C58690   3.685   8.973   5.357  0.5744  0.6810 -0.6632
  426MOL0     C58691   3.557   8.899   5.415  0.8141 -0.5878 -0.3545
  426MOL0     C58692   3.495   8.974   5.536  0.7993 -0.7700 -0.2809
  426MOL0     C58693   3.462   9.123   5.512  0.2444  0.2652 -0.2010
  426MOL0     C58694   3.432   9.206   5.641  0.3863 -0.3168  0.1846
  426MOL0    Cl58695   3.394   9.371   5.597 -0.0108 -0.1152  0.0920
  426MOL0     C58696   4.107   8.684   5.171  0.9349 -0.4515  0.1644
  426MOL0     C58697   4.177   8.571   5.123 -0.6455  0.1268 -0.2999
  426MOL0     O58698   4.583   8.467   5.176  0.1375  0.6130  0.3147
  426MOL0     C58699   4.454   8.179   5.037  0.3612  0.1055 -0.1661
  426MOL0     C58700   4.485   8.060   4.984  0.6916 -0.2019 -0.1811
  426MOL0     N58701   4.545   7.176   4.779 -0.2554 -0.5058  0.0248
  426MOL0     N58702   4.446   7.089   4.796 -0.1591  0.6093  0.4455
  426MOL0     C58703   3.271   6.818   4.852  0.2979  0.7644  0.5962
  426MOL0     C58704   3.147   6.812   4.924  0.3649  0.0873 -0.0918
  426MOL0     C58705   2.758   6.650   5.072 -1.2882 -0.1470 -0.1704
  426MOL0     C58706   2.692   6.526   5.094  0.1716  0.1198  0.0978
  426MOL0     C58707   2.557   6.520   5.146 -0.5089  0.1440  0.5091
  426MOL0     C58708   2.483   6.643   5.162  0.6751 -0.4706 -0.2127
  426MOL0     O58709   2.353   6.662   5.194 -0.1321  0.0882  0.0876
  426MOL0     C58710   2.261   6.552   5.195 -0.8015 -0.6319 -0.7024
  426MOL0     C58711   2.242   6.517   5.045  0.9217 -0.1313 -0.4741
  426MOL0     C58712   2.202   6.632   4.957  0.9254 -0.0433  0.0586
  426MOL0     C58713   2.089   6.715   5.018 -1.2467  0.5060  0.1349
  426MOL0     C58714   1.955   6.648   5.033  0.1871 -0.7665  0.0917
  426MOL0     C58715   1.864   6.574   5.040 -0.5652  0.5515  0.3490
  426MOL0     C58716   2.561   6.760   5.150  0.3337  0.3284 -0.1712
  426MOL0     C58717   2.690   6.771   5.103 -0.5668  0.8158  1.9225
  426MOL0     C58718   2.746   6.909   5.082  0.2782 -0.3421 -0.1050
  426MOL0     H58719   2.961   6.651   4.686 -0.3609 -1.5805  0.8602
  426MOL0     H58720   3.206   6.683   4.557  0.3846  0.2974 -0.1369
  426MOL0     H58721   3.506   6.911   4.740 -2.1042 -3.4854  1.7754
  426MOL0     H58722   3.437   6.955   4.583  0.1570  0.2544  1.3430
  426MOL0     H58723   3.652   6.753   4.622  2.3264  0.1808 -1.7616
  426MOL0     H58724   3.605   6.833   4.465 -0.1103 -1.6927  0.1434
  426MOL0     H58725   3.687   7.049   4.568 -0.9221 -0.5053 -1.0302
  426MOL0     H58726   3.738   6.962   4.706 -2.3839  0.0019  1.2185
  426MOL0     H58727   3.883   6.810   4.534  2.5407  0.6113 -1.7452
  426MOL0     H58728   3.813   6.892   4.409  0.3660 -1.5309  0.3906
  426MOL0     H58729   3.903   7.109   4.518 -0.2906  0.1239 -0.0630
  426MOL0     H58730   4.016   6.992   4.439  0.0956  1.2785 -0.2803
  426MOL0     H58731   3.970   6.975   4.731 -2.9957  1.8312 -1.1142
  426MOL0     H58732   4.091   6.901   4.631 -3.2616 -1.3267 -0.0803
  426MOL0     H58733   4.048   7.205   4.690 -0.3703 -0.0781 -2.0121
  426MOL0     H58734   4.188   7.148   4.589 -2.1262  0.2593 -1.9016
  426MOL0     H58735   4.148   7.175   4.877 -0.5042  0.2642 -0.0387
  426MOL0     H58736   4.208   7.012   4.832 -1.1604  0.4889 -0.1361
  426MOL0     H58737   4.280   7.372   4.749  0.8556 -0.6693  0.2824
  426MOL0     H58738   4.519   7.486   4.649 -1.6789 -0.9850 -0.0563
  426MOL0     H58739   4.669   7.413   4.702 -0.5581 -1.3764 -1.2981
  426MOL0     H58740   4.445   7.560   4.866  0.2071 -1.4865  1.6108
  426MOL0     H58741   4.587   7.499   4.952  0.7932  4.0181  1.2677
  426MOL0     H58742   4.731   7.651   4.860 -0.3728 -0.4562 -0.4752
  426MOL0     H58743   4.612   7.690   4.725  1.4843  0.3332 -0.1190
  426MOL0     H58744   4.475   7.812   4.874 -0.6235  0.5090 -0.2612
  426MOL0     H58745   4.565   7.748   5.018 -0.2286 -1.8110 -0.4894
  426MOL0     H58746   4.824   8.060   4.992 -1.1385 -2.4199  1.9012
  426MOL0     H58747   4.912   8.268   5.077 -1.5344 -1.9952 -1.2872
  426MOL0     H58748   4.819   8.351   5.196  2.3219  4.1865 -1.3374
  426MOL0     H58749   4.814   8.404   5.029  0.7901 -0.0515 -0.5328
  426MOL0     H58750   4.493   8.670   5.180 -1.5490 -3.5252  2.5049
  426MOL0     H58751   4.391   8.878   5.248  0.1262  0.0643  0.4184
  426MOL0     H58752   3.920   8.858   5.265  0.0052 -2.6678  0.4754
  426MOL0     H58753   3.998   8.814   5.416 -2.3864 -1.5529 -0.9361
  426MOL0     H58754   4.005   9.048   5.485  3.1784 -3.1734 -1.6099
  426MOL0     H58755   3.934   9.105   5.324 -1.6904  0.1955  0.4091
  426MOL0     H58756   3.773   9.095   5.508  1.9951  1.4824  0.3731
  426MOL0     H58757   3.803   8.917   5.524  0.9583  0.7833 -0.1009
  426MOL0     H58758   3.711   8.901   5.279  1.9895  2.3398 -1.7920
  426MOL0     H58759   3.657   9.062   5.298 -0.0036 -1.0418 -3.1434
  426MOL0     H58760   3.481   8.891   5.337 -0.6061  0.4550  0.8565
  426MOL0     H58761   3.594   8.804   5.455  3.2800  0.0301 -0.9601
  426MOL0     H58762   3.573   8.967   5.613 -1.5178 -1.2210  2.1476
  426MOL0     H58763   3.406   8.925   5.575  0.5840  1.5115  2.4067
  426MOL0     H58764   3.378   9.140   5.444  0.1026  3.4492  0.6029
  426MOL0     H58765   3.556   9.169   5.481  1.0721 -0.9798  0.3708
  426MOL0     H58766   3.521   9.208   5.705  0.3179  2.2309  0.3210
  426MOL0     H58767   3.349   9.157   5.692 -0.3610  1.0966  0.3997
  426MOL0     H58768   4.002   8.706   5.159  0.9417 -0.6132 -0.1953
  426MOL0     H58769   4.123   8.492   5.072  0.4989 -0.6945 -0.2737
  426MOL0     H58770   4.348   8.204   5.043  0.2124 -0.6833  0.6641
  426MOL0     H58771   4.398   7.999   4.963  0.3419  0.8429 -2.0212
  426MOL0     H58772   3.349   6.875   4.901 -0.0832  2.3660 -0.5915
  426MOL0     H58773   3.148   6.849   5.026 -1.3828 -2.4259  0.9617
  426MOL0     H58774   2.754   6.437   5.087 -2.3809 -1.9044  1.3189
  426MOL0     H58775   2.510   6.425   5.169  0.3904 -0.7579 -1.2444
  426MOL0     H58776   2.308   6.470   5.250  1.2418  1.4313  0.8235
  426MOL0     H58777   2.168   6.578   5.244 -0.0968 -3.0640  2.2388
  426MOL0     H58778   2.166   6.439   5.035  2.9068 -1.9992 -1.8112
  426MOL0     H58779   2.332   6.473   5.001  1.0489 -0.3232 -0.0287
  426MOL0     H58780   2.281   6.706   4.942 -0.0095  1.1706  0.9079
  426MOL0     H58781   2.171   6.599   4.857  1.7094  1.6014 -0.7530
  426MOL0     H58782   2.077   6.808   4.962  0.5045  0.1691 -0.8838
  426MOL0     H58783   2.123   6.751   5.115  2.4173 -0.5082 -0.6324
  426MOL0     H58784   1.788   6.501   5.058  0.1217 -0.0479  0.8741
  426MOL0     H58785   2.505   6.852   5.165 -2.2747 -1.0574 -0.7328
  426MOL0     H58786   2.731   6.940   4.978  0.3917 -1.4692 -0.4703
  426MOL0     H58787   2.702   6.974   5.158  0.1597 -1.6236  0.9582
  426MOL0     H58788   2.852   6.910   5.111 -0.0497  0.1584  1.1307
  427MOL0     O58789   7.858   8.561   8.881  0.4330 -0.4253 -0.0418
  427MOL0     C58790   7.779   8.622   8.806 -0.8141 -0.7777 -0.0437
  427MOL0     O58791   7.643   8.591   8.795  0.0158 -0.2056  0.2262
  427MOL0     C58792   7.603   8.466   8.818 -0.1029  0.1112  0.1603
  427MOL0     C58793   7.473   8.438   8.856  1.0928 -0.5335  0.4512
  427MOL0     C58794   7.429   8.303   8.876  0.7843 -0.1904  0.0545
  427MOL0     C58795   7.510   8.191   8.843 -0.4481  0.0515 -0.5276
  427MOL0     O58796   7.472   8.061   8.852  0.3812  0.0754  0.1104
  427MOL0     C58797   7.390   8.000   8.954 -0.1204  0.1148 -0.3644
  427MOL0     C58798   7.383   7.843   8.927  0.7063  0.0616  0.0558
  427MOL0     C58799   7.514   7.776   8.890 -0.7184  0.3307  0.2608
  427MOL0     C58800   7.620   7.739   9.008  0.1717  0.4110 -0.2937
  427MOL0     C58801   7.726   7.641   8.964 -0.2420 -1.0388 -0.0126
  427MOL0     C58802   7.813   7.676   8.851  0.1423  0.0720 -0.1628
  427MOL0     C58803   7.857   7.828   8.853 -0.0955 -0.6389 -0.4721
  427MOL0     C58804   7.930   7.866   8.731 -0.3789  0.7209 -0.2609
  427MOL0     N58805   7.978   7.999   8.740 -0.7118  0.6183 -1.0580
  427MOL0     C58806   8.084   8.048   8.818  0.1296  0.3757  0.6617
  427MOL0     C58807   8.083   8.183   8.792  0.1526  0.4461  0.9160
  427MOL0     C58808   8.161   8.286   8.866 -0.3756 -0.3484 -0.4442
  427MOL0     C58809   8.257   8.342   8.762 -1.0743 -0.0390 -0.2729
  427MOL0     C58810   8.353   8.231   8.711 -0.4366 -0.2320 -0.3975
  427MOL0     C58811   8.484   8.288   8.654  0.1997  0.0862 -1.3957
  427MOL0     O58812   8.551   8.358   8.760  0.0972  0.1986 -0.4269
  427MOL0     C58813   8.675   8.398   8.742 -0.8720 -0.1850 -0.3497
  427MOL0     C58814   8.749   8.449   8.853  0.3048 -0.5668  0.0565
  427MOL0     C58815   8.882   8.494   8.844  0.2159  0.5112  0.2346
  427MOL0     C58816   8.938   8.557   8.966 -0.6163  0.6138 -0.6661
  427MOL0     C58817   8.948   8.480   8.718  0.2598 -0.8461  0.5036
  427MOL0     C58818   9.083   8.524   8.696  0.2236 -0.0394  0.7511
  427MOL0     O58819   9.163   8.509   8.806 -1.5733  0.2768 -0.3734
  427MOL0     C58820   9.292   8.568   8.819 -0.2586  0.7571 -0.2408
  427MOL0     C58821   9.374   8.517   8.922  0.3249  0.3402  0.9438
  427MOL0     C58822   9.490   8.577   8.951  1.0628  0.3657  0.4897
  427MOL0     C58823   9.535   8.689   8.893  0.6237 -0.2761  0.3066
  427MOL0     O58824   9.651   8.760   8.932  0.2996 -0.3561 -0.3835
  427MOL0     C58825   9.677   8.888   8.872  0.4661 -0.1956  0.2269
  427MOL0     C58826   9.799   8.948   8.936 -0.9509 -1.0836  0.4848
  427MOL0     C58827   9.926   8.861   8.972  0.5027 -0.2167  0.4839
  427MOL0     C58828  10.048   8.952   9.009 -0.5266 -0.8399 -0.9112
  427MOL0     C58829  10.163   8.871   9.079 -0.1917  1.8103 -0.3481
  427MOL0     C58830  10.268   8.967   9.138 -0.4466  0.1211 -0.6431
  427MOL0     C58831  10.213   9.027   9.269  0.4754  0.0192 -0.6312
  427MOL0     C58832  10.322   9.072   9.370  0.4868 -0.1011 -0.6296
  427MOL0    Cl58833  10.459   9.175   9.310 -0.3469  0.0747 -0.1355
  427MOL0     C58834   9.453   8.737   8.782  0.1499  0.1918 -0.8062
  427MOL0     C58835   9.330   8.681   8.747  0.3439  0.2495  0.1481
  427MOL0     O58836   9.113   8.557   8.583 -0.7425 -0.4181 -0.3056
  427MOL0     C58837   8.873   8.436   8.607  0.3466 -0.7403 -0.0964
  427MOL0     C58838   8.742   8.392   8.626 -0.4444 -0.3235 -0.7981
  427MOL0     N58839   7.986   8.201   8.695  0.1887 -0.6031 -0.3038
  427MOL0     N58840   7.926   8.089   8.660  0.7958 -0.3232 -0.1587
  427MOL0     C58841   7.632   8.219   8.793  0.6025  0.2690  0.5430
  427MOL0     C58842   7.680   8.352   8.776 -0.1329 -0.5206  0.3287
  427MOL0     C58843   7.837   8.736   8.723  0.1787 -0.2038  0.2637
  427MOL0     C58844   7.768   8.856   8.705  0.7879  0.3116  0.4825
  427MOL0     C58845   7.809   8.952   8.609  0.3320  0.0978  0.9822
  427MOL0     C58846   7.914   8.920   8.519  0.9310  0.1946  0.2553
  427MOL0     O58847   7.943   9.022   8.430 -0.0822 -0.6503 -0.3061
  427MOL0     C58848   7.912   8.971   8.297  0.5546 -0.1725 -0.9347
  427MOL0     C58849   7.916   9.080   8.189 -0.5028 -0.1027  0.3498
  427MOL0     C58850   8.055   9.152   8.193 -0.6235 -0.0548 -0.4295
  427MOL0     C58851   8.055   9.271   8.096 -0.6350  0.1787  0.3501
  427MOL0     C58852   8.170   9.350   8.098  0.4781 -0.1645  0.5329
  427MOL0     C58853   8.272   9.409   8.116 -0.4587  0.6834  0.0676
  427MOL0     C58854   7.994   8.808   8.540  0.0155 -0.0921 -0.4687
  427MOL0     C58855   7.959   8.714   8.643  0.4203 -0.3946 -0.2025
  427MOL0     C58856   8.044   8.593   8.661 -0.1402  0.8134 -0.3242
  427MOL0     H58857   7.400   8.516   8.872 -0.0155 -1.4412 -0.0957
  427MOL0     H58858   7.324   8.293   8.899  1.0708 -2.4290  0.6509
  427MOL0     H58859   7.288   8.039   8.948 -2.0435 -3.9768  1.8087
  427MOL0     H58860   7.432   8.023   9.053  1.6826 -1.9872 -0.5555
  427MOL0     H58861   7.324   7.802   9.009 -1.3002  3.0455  0.2891
  427MOL0     H58862   7.328   7.839   8.832 -3.7680 -1.3425  2.4288
  427MOL0     H58863   7.490   7.680   8.844  2.2598 -1.0388  1.3149
  427MOL0     H58864   7.555   7.835   8.807 -3.2878 -2.2005 -3.1010
  427MOL0     H58865   7.665   7.830   9.048  2.9410 -0.5919 -0.9092
  427MOL0     H58866   7.565   7.698   9.093  0.6848  0.7176  0.1923
  427MOL0     H58867   7.682   7.544   8.941 -3.0915  0.3476 -0.8805
  427MOL0     H58868   7.785   7.629   9.055 -1.6110  2.5051  1.5350
  427MOL0     H58869   7.891   7.600   8.849  0.6249  0.5437  0.3481
  427MOL0     H58870   7.756   7.667   8.758  1.1288 -2.9292 -0.5557
  427MOL0     H58871   7.927   7.847   8.934  0.8288  0.9911 -1.5805
  427MOL0     H58872   7.786   7.911   8.852  0.2430 -0.3406 -1.1280
  427MOL0     H58873   8.015   7.797   8.722  0.4377  1.9212 -2.5321
  427MOL0     H58874   7.863   7.852   8.647 -2.0926  2.7254  0.6865
  427MOL0     H58875   8.138   7.992   8.893  2.6676 -0.1135 -1.3736
  427MOL0     H58876   8.216   8.232   8.944  0.3067 -1.1911 -1.4754
  427MOL0     H58877   8.110   8.370   8.915 -1.5750  0.5391 -3.0503
  427MOL0     H58878   8.203   8.380   8.675 -1.5737 -0.7321 -0.2673
  427MOL0     H58879   8.315   8.426   8.803 -0.3715  0.0959 -1.5193
  427MOL0     H58880   8.389   8.166   8.793  2.3388  0.9543 -0.5523
  427MOL0     H58881   8.301   8.173   8.634  0.4393 -1.3943 -0.1491
  427MOL0     H58882   8.545   8.205   8.616  1.5307  0.7083 -0.6543
  427MOL0     H58883   8.460   8.357   8.572  0.7803  2.1893  0.1362
  427MOL0     H58884   8.691   8.444   8.944  0.9858 -2.2652  0.4368
  427MOL0     H58885   8.993   8.650   8.946 -1.3471  0.8257 -1.7494
  427MOL0     H58886   9.003   8.500   9.032 -0.0709  2.4905  0.5070
  427MOL0     H58887   8.857   8.583   9.035 -0.1662 -0.5512  0.3360
  427MOL0     H58888   9.342   8.433   8.983  0.6226 -0.6864 -0.2659
  427MOL0     H58889   9.570   8.542   9.015  1.8532 -1.6224 -1.4548
  427MOL0     H58890   9.677   8.884   8.763 -0.1736 -0.0753  0.2147
  427MOL0     H58891   9.588   8.952   8.879  0.1558 -0.3767 -1.5314
  427MOL0     H58892   9.831   9.035   8.879 -2.0901 -0.4294  0.8261
  427MOL0     H58893   9.771   9.002   9.027  1.9724  1.8872 -0.1724
  427MOL0     H58894   9.961   8.809   8.883 -2.2451  0.1487 -0.9040
  427MOL0     H58895   9.905   8.791   9.054  2.8469 -0.4631  0.9596
  427MOL0     H58896  10.019   9.030   9.080  0.6754  1.5500 -2.8472
  427MOL0     H58897  10.078   9.014   8.923 -0.5635  0.6305  0.0991
  427MOL0     H58898  10.118   8.802   9.151  2.4276 -0.6237 -0.8837
  427MOL0     H58899  10.203   8.799   9.006 -1.5903  0.5072  0.1060
  427MOL0     H58900  10.301   9.043   9.068 -0.3818  1.3046  0.6196
  427MOL0     H58901  10.348   8.901   9.173  1.0495  1.3324 -1.6688
  427MOL0     H58902  10.152   8.958   9.328 -0.9961  0.5912 -1.4583
  427MOL0     H58903  10.149   9.113   9.248 -1.1580 -0.5490  1.6315
  427MOL0     H58904  10.362   8.979   9.411 -0.5298 -0.2169  0.1533
  427MOL0     H58905  10.277   9.132   9.450 -2.7369 -1.9456 -0.9166
  427MOL0     H58906   9.485   8.809   8.708  0.1521 -1.7381 -2.7881
  427MOL0     H58907   9.280   8.711   8.655  4.2389  2.8870 -1.3907
  427MOL0     H58908   8.925   8.427   8.512  2.1921 -0.6618  0.8543
  427MOL0     H58909   8.685   8.355   8.541  0.0044  0.7827 -1.6072
  427MOL0     H58910   7.704   8.146   8.756  1.0330 -0.4397  2.6759
  427MOL0     H58911   7.782   8.367   8.741  0.3778  0.5264  2.1733
  427MOL0     H58912   7.670   8.870   8.748  0.1288  1.4323 -1.2821
  427MOL0     H58913   7.768   9.052   8.597  1.6624  0.6988  1.1828
  427MOL0     H58914   7.977   8.886   8.273 -1.2141 -2.0257  0.4965
  427MOL0     H58915   7.812   8.927   8.294  0.4120 -0.0455  0.9586
  427MOL0     H58916   7.835   9.152   8.202  0.7639  1.5532 -0.4649
  427MOL0     H58917   7.916   9.035   8.089  3.7370  0.9555 -0.3439
  427MOL0     H58918   8.076   9.189   8.294  0.3365 -0.5407 -0.4437
  427MOL0     H58919   8.132   9.077   8.175  1.3436  1.1308  2.2908
  427MOL0     H58920   7.975   9.336   8.130 -2.3205 -0.1881 -2.5759
  427MOL0     H58921   8.022   9.228   8.001 -0.3108 -0.7877  0.6557
  427MOL0     H58922   8.364   9.462   8.124 -0.5317  1.6141 -3.5705
  427MOL0     H58923   8.083   8.791   8.481 -1.1625 -1.4141 -1.9441
  427MOL0     H58924   8.096   8.579   8.566  1.7719 -1.8861  0.9861
  427MOL0     H58925   8.115   8.604   8.744  2.3138 -3.6871 -1.5102
  427MOL0     H58926   7.978   8.507   8.673 -0.9318  0.5151 -5.0727
  428MOL0     O58927   1.069   5.319   2.943 -0.2132  0.8560 -0.3732
  428MOL0     C58928   0.991   5.222   2.965  0.3090  0.4059 -0.2314
  428MOL0     O58929   0.986   5.112   2.885  0.0215  0.9076  0.1365
  428MOL0     C58930   1.084   5.087   2.789  0.0213  0.9239 -0.8131
  428MOL0     C58931   1.143   5.184   2.708 -0.5984 -0.4622 -0.6686
  428MOL0     C58932   1.237   5.136   2.612  0.5214  0.4230  0.8055
  428MOL0     C58933   1.275   5.001   2.597  0.1554 -1.1912 -0.5348
  428MOL0     O58934   1.367   4.951   2.505  0.6112  0.2143 -0.3966
  428MOL0     C58935   1.456   5.039   2.439 -0.0045 -0.1134  0.0658
  428MOL0     C58936   1.524   4.966   2.315 -0.1108 -0.9665  0.4857
  428MOL0     C58937   1.418   4.944   2.203  0.4232  0.2585 -0.4332
  428MOL0     C58938   1.473   4.859   2.079 -0.0497 -0.3612 -0.9056
  428MOL0     C58939   1.362   4.807   1.986  0.5403  0.3865  0.0277
  428MOL0     C58940   1.432   4.742   1.861 -0.7642  0.2480 -0.1597
  428MOL0     C58941   1.330   4.687   1.760  0.3086 -0.1091 -0.2240
  428MOL0     C58942   1.210   4.614   1.816  0.3385 -0.6976 -0.3297
  428MOL0     N58943   1.246   4.495   1.895  0.1200 -0.2560 -0.3519
  428MOL0     C58944   1.162   4.433   1.986  0.5639 -0.0732 -0.0784
  428MOL0     C58945   1.188   4.299   1.985 -0.6478  0.4407 -0.0342
  428MOL0     C58946   1.135   4.187   2.062  0.1540 -0.2571 -0.5090
  428MOL0     C58947   1.019   4.237   2.152 -0.2496  0.4351 -0.2516
  428MOL0     C58948   0.954   4.119   2.222  0.6100 -0.4658  0.1166
  428MOL0     C58949   0.837   4.169   2.308  0.1756 -0.0117 -0.0931
  428MOL0     O58950   0.860   4.289   2.381  0.0633  0.7352 -0.5480
  428MOL0     C58951   0.745   4.362   2.395 -0.4887  0.1099  0.1589
  428MOL0     C58952   0.744   4.488   2.336 -0.0932  0.9689 -0.3185
  428MOL0     C58953   0.618   4.549   2.333  0.7356 -0.0723 -0.1395
  428MOL0     C58954   0.618   4.668   2.247 -0.2780 -0.0619 -0.2361
  428MOL0     C58955   0.512   4.504   2.410 -0.2028 -0.4812  0.2544
  428MOL0     C58956   0.387   4.580   2.435  0.3759  0.4279 -0.1740
  428MOL0     O58957   0.349   4.570   2.567 -0.4584 -0.2864  0.2885
  428MOL0     C58958   0.222   4.611   2.596  1.0062 -0.9601  0.3526
  428MOL0     C58959   0.189   4.626   2.732  0.5692  0.2255 -0.3555
  428MOL0     C58960   0.057   4.666   2.768 -0.0676  0.1051 -0.2663
  428MOL0     C58961  -0.052   4.681   2.673 -0.3571 -0.5679 -0.1072
  428MOL0     O58962  -0.175   4.723   2.710  0.0294  0.0690  0.5824
  428MOL0     C58963  -0.196   4.816   2.813 -0.8618 -0.3793  0.1037
  428MOL0     C58964  -0.340   4.799   2.865 -0.6082 -0.3975 -0.2440
  428MOL0     C58965  -0.374   4.919   2.960 -0.6617  1.3231  0.1801
  428MOL0     C58966  -0.507   4.972   2.949  0.7317 -0.4049  0.4127
  428MOL0     C58967  -0.609   4.863   2.988 -0.2137 -0.3158 -0.0287
  428MOL0     C58968  -0.755   4.913   2.964 -0.1282 -0.1424 -0.2780
  428MOL0     C58969  -0.855   4.796   2.976  0.2154  0.1745 -1.1851
  428MOL0     C58970  -0.873   4.745   3.122 -0.3990 -0.6097  0.3463
  428MOL0    Cl58971  -0.922   4.888   3.217 -0.2546  0.3216 -0.1417
  428MOL0     C58972  -0.016   4.656   2.538 -0.0555  0.3879  0.1434
  428MOL0     C58973   0.118   4.621   2.504 -0.2704  0.3537 -0.8305
  428MOL0     O58974   0.341   4.644   2.341 -0.4146  0.6331  0.1519
  428MOL0     C58975   0.526   4.378   2.466  0.0740  0.2785  0.2726
  428MOL0     C58976   0.639   4.308   2.463 -1.2123 -0.2141 -0.3865
  428MOL0     N58977   1.292   4.280   1.892  0.0857 -0.3906 -0.5521
  428MOL0     N58978   1.325   4.398   1.847 -0.1189  0.2276  0.3520
  428MOL0     C58979   1.217   4.912   2.686  0.1594 -0.5807  0.7543
  428MOL0     C58980   1.120   4.952   2.771 -0.2735 -0.3868  0.0313
  428MOL0     C58981   0.922   5.226   3.099 -0.1664  0.4725  0.4052
  428MOL0     C58982   0.995   5.290   3.207  0.7295 -0.0734  0.7776
  428MOL0     C58983   0.940   5.292   3.336  0.0154 -0.4249  0.0132
  428MOL0     C58984   0.819   5.235   3.366 -0.1609  0.2575 -0.3577
  428MOL0     O58985   0.768   5.238   3.497  0.3107  0.3036 -0.0708
  428MOL0     C58986   0.845   5.155   3.584  0.4509 -0.0862 -0.0394
  428MOL0     C58987   0.798   5.175   3.717  0.6053  0.4009  0.4576
  428MOL0     C58988   0.880   5.098   3.822  0.2460  0.3855 -0.2656
  428MOL0     C58989   0.828   5.133   3.965  0.0982  0.1793 -0.6062
  428MOL0     C58990   0.715   5.042   3.995 -0.1776 -0.6686  0.1783
  428MOL0     C58991   0.625   4.964   4.022  0.2393  0.8900  0.1634
  428MOL0     C58992   0.748   5.181   3.258 -0.5252  0.3932  0.6114
  428MOL0     C58993   0.799   5.161   3.132  0.8602 -0.3669  0.4126
  428MOL0     C58994   0.705   5.112   3.036  0.8007  0.2794  0.1067
  428MOL0     H58995   1.129   5.291   2.711  1.6281 -0.0865 -1.3514
  428MOL0     H58996   1.290   5.211   2.554  1.2295  1.1410  2.3284
  428MOL0     H58997   1.531   5.071   2.512 -1.7704  0.3961  1.7192
  428MOL0     H58998   1.408   5.127   2.396  1.2161  1.5051  1.8138
  428MOL0     H58999   1.598   5.038   2.280 -0.5886  0.3535  2.0421
  428MOL0     H59000   1.573   4.871   2.339  0.1424 -1.6808 -2.4483
  428MOL0     H59001   1.321   4.899   2.227  0.6272 -0.1707 -0.4086
  428MOL0     H59002   1.390   5.039   2.157  0.8842  0.4503 -0.3168
  428MOL0     H59003   1.544   4.921   2.024 -0.5092  0.4685 -0.5728
  428MOL0     H59004   1.520   4.767   2.116  1.2803  0.1157 -1.3182
  428MOL0     H59005   1.321   4.903   1.954  2.7037  0.5930 -2.4739
  428MOL0     H59006   1.289   4.738   2.030  0.7086 -2.9593 -4.2013
  428MOL0     H59007   1.501   4.812   1.814 -2.1472  1.8225  0.0529
  428MOL0     H59008   1.495   4.658   1.892 -1.4524 -0.5213 -0.7966
  428MOL0     H59009   1.385   4.621   1.691  0.4825  1.4535 -1.6593
  428MOL0     H59010   1.294   4.772   1.701 -1.9983 -0.3342  0.7809
  428MOL0     H59011   1.146   4.684   1.870  1.0676  2.8872 -3.6966
  428MOL0     H59012   1.155   4.581   1.728  2.0409 -1.3635 -1.1698
  428MOL0     H59013   1.085   4.478   2.047 -0.2609 -0.6208 -0.6968
  428MOL0     H59014   1.214   4.144   2.123  0.2832  1.8852  0.9498
  428MOL0     H59015   1.105   4.108   1.993 -1.6600 -0.7985  0.8329
  428MOL0     H59016   1.050   4.313   2.224  0.6147  1.8298 -2.0250
  428MOL0     H59017   0.947   4.294   2.093  1.3094  1.7367 -0.9694
  428MOL0     H59018   0.911   4.051   2.147  1.8000  0.6973 -1.7101
  428MOL0     H59019   1.035   4.074   2.280  1.7018  0.6324 -0.4999
  428MOL0     H59020   0.743   4.173   2.253 -0.9682  0.7448  1.7880
  428MOL0     H59021   0.832   4.101   2.393  1.6138  3.5284  3.1771
  428MOL0     H59022   0.833   4.522   2.284 -0.2463 -1.0486 -2.0710
  428MOL0     H59023   0.547   4.670   2.164 -1.7659  0.7557  1.0063
  428MOL0     H59024   0.720   4.682   2.210 -0.3020 -1.2019 -0.7823
  428MOL0     H59025   0.587   4.758   2.301 -1.4490 -0.3240 -0.4389
  428MOL0     H59026   0.268   4.613   2.805 -1.3521  0.7664  1.9697
  428MOL0     H59027   0.043   4.689   2.873  0.9600 -0.0488 -0.0884
  428MOL0     H59028  -0.127   4.801   2.896 -0.5066  2.3011  0.4080
  428MOL0     H59029  -0.168   4.919   2.788 -1.4596 -0.0039  0.8985
  428MOL0     H59030  -0.403   4.798   2.776 -0.1847 -0.6845 -0.5454
  428MOL0     H59031  -0.353   4.702   2.914 -0.6595 -0.3810 -0.2243
  428MOL0     H59032  -0.310   5.003   2.933 -0.2893  0.6159 -1.2688
  428MOL0     H59033  -0.354   4.884   3.062 -1.9301 -2.6137 -0.7515
  428MOL0     H59034  -0.532   5.005   2.847 -0.2697 -0.6948  0.5557
  428MOL0     H59035  -0.518   5.062   3.009 -1.1448  0.9528 -1.8007
  428MOL0     H59036  -0.600   4.765   2.940 -0.4796 -1.4872  2.2036
  428MOL0     H59037  -0.593   4.846   3.095 -2.5969 -1.0879  0.2605
  428MOL0     H59038  -0.765   4.951   2.862  0.1747 -3.2459 -1.5755
  428MOL0     H59039  -0.773   5.004   3.021  4.7470  2.1860 -1.9013
  428MOL0     H59040  -0.808   4.716   2.919 -1.4660 -0.8315 -1.2196
  428MOL0     H59041  -0.943   4.831   2.922  0.6965  1.8799 -0.9570
  428MOL0     H59042  -0.772   4.713   3.148  0.6330  2.1822  0.1523
  428MOL0     H59043  -0.951   4.669   3.132 -0.3965 -0.5868  0.5285
  428MOL0     H59044  -0.086   4.664   2.455  0.1199 -2.2270 -0.3451
  428MOL0     H59045   0.125   4.588   2.401  0.4213  0.3007 -0.7722
  428MOL0     H59046   0.440   4.335   2.516  0.2512  2.8707  3.0458
  428MOL0     H59047   0.641   4.209   2.507  0.1513 -0.5222 -1.0802
  428MOL0     H59048   1.251   4.809   2.680  0.4490 -0.4395 -4.4849
  428MOL0     H59049   1.069   4.870   2.821 -2.2019  0.4363 -0.4698
  428MOL0     H59050   1.088   5.342   3.189 -0.6536  1.3385 -3.8254
  428MOL0     H59051   0.992   5.333   3.422 -0.9168  2.4305 -0.6749
  428MOL0     H59052   0.827   5.050   3.557 -1.5705  0.2942 -0.3605
  428MOL0     H59053   0.951   5.177   3.573  0.0208  1.3173 -1.8478
  428MOL0     H59054   0.697   5.133   3.712 -0.2368  2.3525  0.1388
  428MOL0     H59055   0.790   5.281   3.741 -1.0647  0.6969 -1.2288
  428MOL0     H59056   0.876   4.990   3.801  1.1911  0.0706  1.0409
  428MOL0     H59057   0.983   5.136   3.823  0.8971 -1.2996  0.1449
  428MOL0     H59058   0.792   5.236   3.971  1.2149  0.5202  1.0382
  428MOL0     H59059   0.912   5.127   4.035 -0.1324  1.6324 -0.1704
  428MOL0     H59060   0.530   4.924   4.051  0.7519 -1.1350 -0.7617
  428MOL0     H59061   0.645   5.155   3.277 -0.1658 -0.5620  1.3449
  428MOL0     H59062   0.637   5.193   3.006 -1.0770  0.4783  4.1890
  428MOL0     H59063   0.757   5.080   2.945  1.1352 -0.2536  0.4821
  428MOL0     H59064   0.647   5.030   3.078  0.6360 -0.0653 -0.7677
  429MOL0     O59065   3.656   6.196   9.550  0.2121 -0.4744 -0.6029
  429MOL0     C59066   3.640   6.317   9.567 -0.4046  0.6424  0.2384
  429MOL0     O59067   3.739   6.398   9.578  0.4538 -0.3973 -0.3219
  429MOL0     C59068   3.830   6.374   9.681  0.3634 -0.3843 -0.7501
  429MOL0     C59069   3.808   6.302   9.796 -0.3818 -0.6810  0.2524
  429MOL0     C59070   3.904   6.292   9.900 -0.0723  0.8780 -0.0201
  429MOL0     C59071   4.022   6.364   9.888  0.7822  1.3673  0.5242
  429MOL0     O59072   4.104   6.371   9.996  0.2699 -0.6199 -0.4543
  429MOL0     C59073   4.089   6.492  10.081  0.3693  0.2537  0.5348
  429MOL0     C59074   4.192   6.508  10.177 -0.9312  0.0686 -0.9658
  429MOL0     C59075   4.307   6.599  10.120  0.0258 -0.2464 -0.1279
  429MOL0     C59076   4.436   6.622  10.212  0.3084 -0.1982 -0.5344
  429MOL0     C59077   4.414   6.742  10.311  0.6615 -1.0951  0.1698
  429MOL0     C59078   4.526   6.777  10.412  0.1626  0.6567 -0.4211
  429MOL0     C59079   4.484   6.899  10.492  0.6996  0.6469  0.3322
  429MOL0     C59080   4.582   6.933  10.608  0.0216  0.6615 -1.1213
  429MOL0     N59081   4.731   6.954  10.569 -0.8891 -0.2742  0.0613
  429MOL0     C59082   4.774   7.018  10.463  0.8489  0.0006  0.7548
  429MOL0     C59083   4.911   7.034  10.480  0.4517  0.3865 -0.1892
  429MOL0     C59084   4.991   7.115  10.379  0.3485  0.4407 -0.2480
  429MOL0     C59085   5.030   7.034  10.257  0.0607  0.9571 -0.2127
  429MOL0     C59086   5.141   7.106  10.173 -0.3560 -0.3118  0.3199
  429MOL0     C59087   5.172   7.045  10.032  0.2329  0.3524  0.7656
  429MOL0     O59088   5.054   7.027   9.946  0.5104 -0.3763 -0.7910
  429MOL0     C59089   5.082   6.990   9.811  0.3237 -0.8554 -0.5452
  429MOL0     C59090   4.976   6.996   9.723 -0.1136 -0.4909 -0.2542
  429MOL0     C59091   4.998   6.983   9.588 -0.2667  0.1043 -0.4194
  429MOL0     C59092   4.868   6.993   9.504 -0.8644  0.1205 -0.4306
  429MOL0     C59093   5.120   6.948   9.537  0.2571  0.2577  0.7125
  429MOL0     C59094   5.145   6.900   9.395  0.1387 -0.0183 -0.2478
  429MOL0     O59095   5.268   6.841   9.379  0.2041 -0.1244 -1.0226
  429MOL0     C59096   5.304   6.805   9.257 -0.2164  0.1201 -0.0805
  429MOL0     C59097   5.245   6.700   9.191  0.2374  0.3833 -0.2851
  429MOL0     C59098   5.279   6.675   9.059  0.4210  0.7663  0.3046
  429MOL0     C59099   5.377   6.754   8.994 -0.4659 -0.7446  0.1124
  429MOL0     O59100   5.423   6.734   8.869 -0.1474  0.1475 -0.8406
  429MOL0     C59101   5.353   6.636   8.791  0.2545  0.3503 -0.9984
  429MOL0     C59102   5.438   6.619   8.670 -0.4749 -0.3959 -0.1258
  429MOL0     C59103   5.395   6.512   8.566  0.3594  0.0824  0.7232
  429MOL0     C59104   5.312   6.580   8.452  0.3091 -0.0458  0.1972
  429MOL0     C59105   5.269   6.473   8.346  0.4505  0.5770 -0.2758
  429MOL0     C59106   5.384   6.407   8.267 -0.3685  0.2004  0.0133
  429MOL0     C59107   5.341   6.282   8.182 -0.1827  0.1501 -0.2719
  429MOL0     C59108   5.222   6.313   8.084 -0.7321 -0.2484 -0.3682
  429MOL0    Cl59109   5.250   6.460   7.996 -0.7281 -0.4888  0.5490
  429MOL0     C59110   5.428   6.873   9.060  0.8577 -0.1145  0.4195
  429MOL0     C59111   5.396   6.889   9.196  0.2547 -0.4407  0.7114
  429MOL0     O59112   5.084   6.944   9.300 -1.0075  0.7195 -0.3866
  429MOL0     C59113   5.223   6.931   9.630 -0.0272  0.6416  0.3380
  429MOL0     C59114   5.209   6.946   9.769 -0.3504 -0.0631 -0.0355
  429MOL0     N59115   4.946   6.981  10.603  0.5691 -0.0576 -0.1874
  429MOL0     N59116   4.837   6.940  10.660  0.4658 -0.0333  0.1023
  429MOL0     C59117   4.049   6.433   9.769  1.1399 -0.2438  0.2830
  429MOL0     C59118   3.952   6.429   9.665 -0.3816 -0.9755 -0.8921
  429MOL0     C59119   3.499   6.352   9.559 -0.1043  0.6620 -0.0633
  429MOL0     C59120   3.397   6.247   9.540  0.1899 -0.1205  0.2104
  429MOL0     C59121   3.256   6.282   9.523  0.1866  0.1591 -0.6112
  429MOL0     C59122   3.214   6.415   9.525  0.5102  0.6262 -0.0038
  429MOL0     O59123   3.078   6.447   9.539 -0.3000 -0.2591 -0.3628
  429MOL0     C59124   3.034   6.566   9.472  0.1751  0.2379  0.7051
  429MOL0     C59125   2.883   6.574   9.466 -0.6036 -0.0439  0.8381
  429MOL0     C59126   2.834   6.697   9.376 -0.2371  0.4322 -0.3337
  429MOL0     C59127   2.681   6.685   9.346 -0.4474  0.2096  0.5508
  429MOL0     C59128   2.661   6.579   9.249  0.3500  0.0249  0.4484
  429MOL0     C59129   2.635   6.500   9.165  0.3238 -0.0320  0.4282
  429MOL0     C59130   3.307   6.517   9.545  0.0039 -0.0220  0.3697
  429MOL0     C59131   3.449   6.489   9.558 -0.1796 -0.5891 -0.1327
  429MOL0     C59132   3.541   6.606   9.585  0.0886  0.4777 -0.8127
  429MOL0     H59133   3.710   6.257   9.808 -0.9196 -0.3178 -2.2553
  429MOL0     H59134   3.893   6.246   9.998  1.3047  0.2558 -0.1352
  429MOL0     H59135   3.998   6.480  10.141 -0.6744 -0.8710 -1.1767
  429MOL0     H59136   4.069   6.581  10.021 -2.3900 -0.0254  0.9116
  429MOL0     H59137   4.146   6.557  10.264 -2.3042 -2.5723 -0.1042
  429MOL0     H59138   4.221   6.406  10.204 -2.0393 -1.1270 -3.8813
  429MOL0     H59139   4.348   6.561  10.026  0.9796  0.4865 -0.0272
  429MOL0     H59140   4.269   6.697  10.089 -0.0605 -1.4415 -4.3759
  429MOL0     H59141   4.462   6.528  10.261 -0.2475  0.0769  0.3063
  429MOL0     H59142   4.523   6.644  10.150  0.0588  1.0187 -0.4735
  429MOL0     H59143   4.327   6.725  10.375  1.6394 -1.4930  1.4320
  429MOL0     H59144   4.392   6.835  10.258  0.9103  0.2935  2.3692
  429MOL0     H59145   4.544   6.692  10.479 -0.1184 -1.2324 -2.6041
  429MOL0     H59146   4.623   6.785  10.361  0.1471  0.9475 -0.4091
  429MOL0     H59147   4.385   6.884  10.536 -1.6715  0.3867 -4.4488
  429MOL0     H59148   4.479   6.985  10.425  1.8155 -0.2091 -0.9195
  429MOL0     H59149   4.557   7.031  10.649  0.5824  2.0821 -3.9180
  429MOL0     H59150   4.570   6.861  10.689  1.9784  0.3358 -1.0540
  429MOL0     H59151   4.713   7.061  10.384 -1.3931 -1.4521  1.6055
  429MOL0     H59152   5.079   7.162  10.425  1.0748 -2.1105  1.1675
  429MOL0     H59153   4.927   7.194  10.339 -0.3148  0.6937  1.2698
  429MOL0     H59154   5.052   6.933  10.295 -3.3860  0.2846  0.3154
  429MOL0     H59155   4.948   7.024  10.186 -0.1262 -2.5248  0.2917
  429MOL0     H59156   5.110   7.210  10.157  3.3700  0.5381 -3.0834
  429MOL0     H59157   5.231   7.123  10.232  0.2574  1.7353 -1.0910
  429MOL0     H59158   5.249   7.115   9.999  1.4491  0.2289  3.0898
  429MOL0     H59159   5.229   6.952  10.043 -1.6009 -1.1031 -1.1923
  429MOL0     H59160   4.880   7.023   9.764  0.9514 -1.5597  3.3236
  429MOL0     H59161   4.798   7.069   9.539 -3.4500 -1.6478 -1.5059
  429MOL0     H59162   4.811   6.900   9.510  0.4634 -0.6611  1.4154
  429MOL0     H59163   4.878   7.014   9.397 -0.9517 -1.7728 -0.8577
  429MOL0     H59164   5.174   6.639   9.246 -0.4875  1.8972  0.4950
  429MOL0     H59165   5.236   6.590   9.007 -0.3183  1.2361  0.1248
  429MOL0     H59166   5.350   6.539   8.842 -3.9014  1.7430  1.8001
  429MOL0     H59167   5.248   6.659   8.777 -0.9194 -3.2340  0.7029
  429MOL0     H59168   5.447   6.714   8.617 -0.6618 -0.6790 -0.6651
  429MOL0     H59169   5.536   6.594   8.712 -0.4563  0.1076  0.1434
  429MOL0     H59170   5.342   6.432   8.621 -0.8478 -0.7835 -1.5780
  429MOL0     H59171   5.475   6.459   8.514  1.8361  2.5321  0.3652
  429MOL0     H59172   5.367   6.659   8.401  0.1378  1.2946  1.9932
  429MOL0     H59173   5.221   6.620   8.498 -0.0927 -1.0760  0.3367
  429MOL0     H59174   5.213   6.401   8.406 -0.6484 -0.1322 -2.0709
  429MOL0     H59175   5.199   6.512   8.272 -2.2644 -1.1363  1.2063
  429MOL0     H59176   5.477   6.385   8.320 -1.3842 -3.1210  0.6988
  429MOL0     H59177   5.417   6.481   8.194  3.5813 -2.1947 -0.9350
  429MOL0     H59178   5.304   6.205   8.251  0.0118  1.4639  1.3411
  429MOL0     H59179   5.428   6.238   8.133 -0.5346 -2.8104  1.4640
  429MOL0     H59180   5.122   6.321   8.128 -1.5435 -1.5220 -1.9001
  429MOL0     H59181   5.222   6.230   8.013  3.3244  1.3524 -2.5263
  429MOL0     H59182   5.512   6.927   9.018  3.8456 -0.9810  4.5225
  429MOL0     H59183   5.433   6.977   9.247 -2.2517 -0.4780  2.8176
  429MOL0     H59184   5.324   6.906   9.597 -0.5988  1.1060 -1.9728
  429MOL0     H59185   5.295   6.931   9.832 -0.5991 -0.3878  0.2293
  429MOL0     H59186   4.137   6.494   9.757  0.9995 -0.3299 -1.4795
  429MOL0     H59187   3.972   6.491   9.578  2.7886 -0.5138  0.0346
  429MOL0     H59188   3.421   6.141   9.537 -1.0563 -0.4693  1.5785
  429MOL0     H59189   3.189   6.196   9.524 -0.2214  0.4201  2.1042
  429MOL0     H59190   3.074   6.651   9.530 -0.2640  0.8826  0.0763
  429MOL0     H59191   3.076   6.564   9.371 -2.0574  2.2687 -0.3775
  429MOL0     H59192   2.856   6.593   9.570  0.3338  2.8626  0.6358
  429MOL0     H59193   2.847   6.477   9.430  0.3447 -0.8829  2.0426
  429MOL0     H59194   2.858   6.795   9.418  0.8706  0.0379  0.0047
  429MOL0     H59195   2.888   6.700   9.281  1.1543 -1.7779  0.3103
  429MOL0     H59196   2.651   6.786   9.318  2.8518  1.8405  2.2649
  429MOL0     H59197   2.633   6.666   9.442  0.3246 -3.8186  0.3171
  429MOL0     H59198   2.614   6.426   9.090 -2.3356 -0.0304  1.0532
  429MOL0     H59199   3.288   6.624   9.543  2.3467  0.4364  0.4818
  429MOL0     H59200   3.493   6.702   9.566  1.0866  1.0570 -0.4247
  429MOL0     H59201   3.567   6.599   9.691 -3.2224  0.2496  0.1103
  429MOL0     H59202   3.638   6.595   9.536  0.9323 -0.2604  0.9105
  430MOL0     O59203   0.726   8.073   3.780  0.0592 -0.4023 -0.2551
  430MOL0     C59204   0.683   8.172   3.840  0.3998 -1.0356 -0.7050
  430MOL0     O59205   0.758   8.272   3.886  0.6658 -0.3600  0.3345
  430MOL0     C59206   0.892   8.237   3.911  0.3448  0.5979  0.9599
  430MOL0     C59207   0.981   8.244   3.807 -0.5812  1.2048  0.0842
  430MOL0     C59208   1.116   8.220   3.830  0.1959  0.8135  0.5096
  430MOL0     C59209   1.162   8.200   3.960 -0.2650 -0.8905 -0.1603
  430MOL0     O59210   1.294   8.187   3.996  0.7146  0.2362  0.4999
  430MOL0     C59211   1.402   8.195   3.893  0.3758  0.8317  0.0841
  430MOL0     C59212   1.542   8.216   3.966  0.4292  0.3717 -0.3925
  430MOL0     C59213   1.659   8.141   3.890 -0.1576 -0.1540 -0.0068
  430MOL0     C59214   1.798   8.165   3.968  0.5224  0.2494  0.4218
  430MOL0     C59215   1.923   8.103   3.898  0.0454  0.0554  0.3820
  430MOL0     C59216   1.926   8.101   3.741 -0.1767 -0.0511  1.1586
  430MOL0     C59217   2.081   8.114   3.700 -0.1376 -0.5812  0.3863
  430MOL0     C59218   2.168   7.995   3.734 -0.0248  0.2531 -0.1689
  430MOL0     N59219   2.242   8.014   3.864  0.5356 -0.1517  0.3003
  430MOL0     C59220   2.263   7.917   3.952  0.4021  1.1792 -0.2522
  430MOL0     C59221   2.342   7.969   4.043  0.3787 -0.7252  0.0951
  430MOL0     C59222   2.398   7.904   4.172 -0.5671 -0.0390 -0.0065
  430MOL0     C59223   2.512   7.985   4.225  0.2934  0.1016  0.4134
  430MOL0     C59224   2.635   7.969   4.134  0.4996 -0.0310  0.6374
  430MOL0     C59225   2.762   8.044   4.184  0.0938 -0.1260  0.6481
  430MOL0     O59226   2.820   8.006   4.308 -0.0922 -0.4667 -0.5485
  430MOL0     C59227   2.891   8.098   4.389 -0.4259  0.0947  0.3662
  430MOL0     C59228   2.941   8.217   4.328 -0.4695 -0.1119 -0.3301
  430MOL0     C59229   3.007   8.315   4.412  0.1546  0.5777 -0.6430
  430MOL0     C59230   3.037   8.453   4.360 -0.0398 -0.2493  0.8593
  430MOL0     C59231   3.026   8.291   4.550 -0.3379 -0.3881  0.1409
  430MOL0     C59232   3.078   8.385   4.647  0.1007  0.1084  0.2504
  430MOL0     O59233   3.029   8.514   4.650 -0.0729  1.0241  0.7435
  430MOL0     C59234   3.083   8.603   4.736 -0.1485 -0.8238 -0.0793
  430MOL0     C59235   2.991   8.683   4.802  0.1067  0.1688 -0.1397
  430MOL0     C59236   3.037   8.793   4.873  0.1245 -0.1884 -0.8910
  430MOL0     C59237   3.171   8.824   4.891  0.4714  0.3553 -0.6455
  430MOL0     O59238   3.211   8.945   4.948  0.0352  0.3046 -0.0690
  430MOL0     C59239   3.309   8.920   5.051 -0.1736  0.5123 -0.2228
  430MOL0     C59240   3.385   9.042   5.070 -0.0336 -1.0933  0.3973
  430MOL0     C59241   3.305   9.162   5.122 -0.2496 -0.6142  0.2239
  430MOL0     C59242   3.410   9.273   5.161 -0.1239 -0.1361 -0.2735
  430MOL0     C59243   3.347   9.408   5.211 -0.7615  0.2431  0.4240
  430MOL0     C59244   3.292   9.500   5.101  0.1580  0.1540 -0.4059
  430MOL0     C59245   3.215   9.606   5.156 -0.0350 -0.0634 -0.8119
  430MOL0     C59246   3.177   9.717   5.062 -0.5983  0.8800 -0.4575
  430MOL0    Cl59247   3.106   9.853   5.146  0.4882 -0.1506 -0.0087
  430MOL0     C59248   3.258   8.747   4.814 -0.5826 -0.8739  0.3775
  430MOL0     C59249   3.215   8.637   4.739  0.4754  0.0948  1.2078
  430MOL0     O59250   3.156   8.346   4.726 -0.0713 -0.0491 -0.5734
  430MOL0     C59251   2.973   8.173   4.601 -0.8732  1.1331 -0.2489
  430MOL0     C59252   2.906   8.075   4.530  0.1773  0.4913  0.0303
  430MOL0     N59253   2.351   8.107   4.015  0.0932 -0.8001  0.2846
  430MOL0     N59254   2.294   8.132   3.905 -0.1144  0.7301 -0.4850
  430MOL0     C59255   1.069   8.180   4.065  0.4182 -0.5414 -0.4025
  430MOL0     C59256   0.931   8.200   4.040  0.8361  0.3199 -0.1124
  430MOL0     C59257   0.534   8.173   3.849  0.9299 -0.2079 -0.1469
  430MOL0     C59258   0.459   8.070   3.784 -0.8899 -0.9061  0.3053
  430MOL0     C59259   0.322   8.085   3.778  0.8363  0.7549 -0.8834
  430MOL0     C59260   0.250   8.182   3.842 -0.0501  0.2383  0.5793
  430MOL0     O59261   0.113   8.190   3.833  0.0250 -0.3529  0.2404
  430MOL0     C59262   0.037   8.124   3.728  0.6861  1.0906 -0.2439
  430MOL0     C59263  -0.109   8.167   3.733  0.4401  0.3990 -0.0186
  430MOL0     C59264  -0.199   8.074   3.649  0.4113 -0.7256 -0.9208
  430MOL0     C59265  -0.179   8.082   3.494  0.7990 -0.0685 -0.3201
  430MOL0     C59266  -0.257   8.188   3.433 -0.5140 -1.4924  0.8856
  430MOL0     C59267  -0.322   8.264   3.367  0.1881 -0.2368 -0.7338
  430MOL0     C59268   0.322   8.281   3.913  0.8114 -0.7458  1.2649
  430MOL0     C59269   0.462   8.271   3.924  0.4684 -0.4922  0.1854
  430MOL0     C59270   0.529   8.362   4.024 -0.4769  0.8268  0.2946
  430MOL0     H59271   0.948   8.290   3.714 -2.3470  2.9303  1.4941
  430MOL0     H59272   1.178   8.251   3.746  3.3555 -0.7544  2.0841
  430MOL0     H59273   1.385   8.277   3.822  2.0848  0.7809 -0.4277
  430MOL0     H59274   1.405   8.105   3.831  0.5942  1.6375 -1.1173
  430MOL0     H59275   1.577   8.317   3.989  0.7866 -0.0623  1.0923
  430MOL0     H59276   1.535   8.167   4.064  2.8013 -0.1118 -0.3959
  430MOL0     H59277   1.637   8.035   3.880  1.7137 -0.6259  0.4884
  430MOL0     H59278   1.670   8.191   3.793 -0.3535  1.2142  0.6485
  430MOL0     H59279   1.820   8.272   3.973  0.8392  0.2451 -0.5602
  430MOL0     H59280   1.778   8.123   4.067  1.6096 -4.3983 -1.0800
  430MOL0     H59281   1.949   8.005   3.938 -0.2767 -0.8968 -1.6235
  430MOL0     H59282   2.012   8.160   3.928  1.0324 -1.3942  0.3210
  430MOL0     H59283   1.880   8.008   3.706  0.3838  0.3994 -0.9200
  430MOL0     H59284   1.879   8.191   3.700  2.8496  0.3256 -2.0206
  430MOL0     H59285   2.114   8.207   3.748  0.1514  1.0609 -2.6730
  430MOL0     H59286   2.082   8.137   3.593 -0.8873  3.7738  1.1026
  430MOL0     H59287   2.114   7.900   3.724  0.0628  0.3148 -1.3034
  430MOL0     H59288   2.234   7.994   3.647 -1.5982 -1.0257 -1.4009
  430MOL0     H59289   2.221   7.817   3.955 -0.1461  1.4143  1.8184
  430MOL0     H59290   2.420   7.800   4.148  0.7121  0.1436  0.2988
  430MOL0     H59291   2.313   7.906   4.241 -1.6009 -0.5297 -1.2314
  430MOL0     H59292   2.474   8.087   4.235  1.7217  0.7076 -0.0540
  430MOL0     H59293   2.553   7.959   4.324  3.8319 -2.9416 -1.5864
  430MOL0     H59294   2.662   7.865   4.115 -1.7915 -0.4197 -0.9011
  430MOL0     H59295   2.603   7.993   4.032  0.3111 -2.2503  0.1142
  430MOL0     H59296   2.834   8.025   4.104 -0.8007 -0.9430  0.0020
  430MOL0     H59297   2.743   8.152   4.178  0.8889 -0.0444 -1.6195
  430MOL0     H59298   2.934   8.244   4.223  0.6393  0.7017 -0.2052
  430MOL0     H59299   2.984   8.535   4.408  0.2663  2.0447 -2.3557
  430MOL0     H59300   3.021   8.460   4.252  2.0239  0.7077  0.5708
  430MOL0     H59301   3.145   8.473   4.361  0.0308  0.2870 -3.0310
  430MOL0     H59302   2.884   8.662   4.797 -0.0685  1.0318 -0.1279
  430MOL0     H59303   2.964   8.859   4.917  0.7418 -1.5340  2.4027
  430MOL0     H59304   3.254   8.899   5.143 -0.3426  3.2183  0.3654
  430MOL0     H59305   3.386   8.847   5.023 -0.3461  1.4197 -3.5452
  430MOL0     H59306   3.471   9.027   5.136  2.7447  1.4188 -2.3494
  430MOL0     H59307   3.425   9.073   4.973  0.0104 -0.9046  0.4744
  430MOL0     H59308   3.260   9.149   5.221 -0.9686  0.3496  0.0414
  430MOL0     H59309   3.231   9.197   5.049 -0.5377 -2.5221 -0.4564
  430MOL0     H59310   3.480   9.296   5.080  0.8559  2.4427  1.2026
  430MOL0     H59311   3.468   9.224   5.241  0.7296 -0.4182 -1.0456
  430MOL0     H59312   3.269   9.376   5.281 -0.2134  0.6068  1.2073
  430MOL0     H59313   3.428   9.465   5.257  1.1614 -2.3539  0.4581
  430MOL0     H59314   3.228   9.451   5.027  0.7579 -1.1909 -0.0716
  430MOL0     H59315   3.385   9.533   5.052  0.4034 -1.5055 -1.1403
  430MOL0     H59316   3.272   9.649   5.239 -1.7998 -0.2636  0.5541
  430MOL0     H59317   3.118   9.569   5.191  0.4639 -0.6362  0.0064
  430MOL0     H59318   3.104   9.673   4.994  2.2407 -2.3046 -1.7131
  430MOL0     H59319   3.263   9.761   5.010 -0.3735  0.7636 -0.1900
  430MOL0     H59320   3.364   8.768   4.826 -0.2036 -0.9169 -2.4224
  430MOL0     H59321   3.280   8.579   4.674  1.6223 -0.4772  2.7893
  430MOL0     H59322   2.975   8.156   4.708  0.6678  0.6276 -0.3313
  430MOL0     H59323   2.875   7.980   4.571  0.9383  0.5453  0.7666
  430MOL0     H59324   1.090   8.152   4.167 -0.4075 -1.1165 -0.3822
  430MOL0     H59325   0.856   8.174   4.114  0.6440 -1.7461 -0.9648
  430MOL0     H59326   0.519   7.992   3.738  2.4430  1.3828  0.4312
  430MOL0     H59327   0.269   8.003   3.730 -1.7608  0.9588  1.4013
  430MOL0     H59328   0.063   8.143   3.623  0.1775  4.1064  0.0968
  430MOL0     H59329   0.039   8.017   3.751  1.7737  1.0176 -0.6266
  430MOL0     H59330  -0.126   8.269   3.699  0.7856 -0.2199 -2.1702
  430MOL0     H59331  -0.141   8.152   3.837 -2.3039 -2.9862 -1.1573
  430MOL0     H59332  -0.175   7.973   3.684 -0.1399 -0.3937  0.5055
  430MOL0     H59333  -0.302   8.095   3.680  0.9961  1.1326 -0.1368
  430MOL0     H59334  -0.205   7.987   3.446  1.2818 -2.3462  3.4686
  430MOL0     H59335  -0.073   8.097   3.474  0.8595  1.9349  1.2086
  430MOL0     H59336  -0.379   8.328   3.302 -3.1576 -0.7679  1.4005
  430MOL0     H59337   0.262   8.357   3.963 -0.7165  0.7053 -2.3724
  430MOL0     H59338   0.568   8.303   4.107 -0.8767  2.2948  1.5733
  430MOL0     H59339   0.596   8.427   3.967 -0.3247  0.6016  0.2173
  430MOL0     H59340   0.448   8.417   4.072 -0.2906  0.2895  1.2301
  431MOL0     O59341   5.894  11.303   3.103  0.1740  0.2284  0.0323
  431MOL0     C59342   5.835  11.197   3.096  0.9282 -0.0497  0.4984
  431MOL0     O59343   5.897  11.077   3.099  0.4366  0.4338 -0.1319
  431MOL0     C59344   6.018  11.059   3.047  0.0904 -0.7973 -0.4060
  431MOL0     C59345   6.134  11.098   3.123  0.3280 -0.2722 -0.7217
  431MOL0     C59346   6.267  11.071   3.076  1.2263 -1.1450  0.4984
  431MOL0     C59347   6.275  11.003   2.952 -0.0475  0.3113 -1.6464
  431MOL0     O59348   6.395  10.969   2.895  0.2672 -0.4607  0.0840
  431MOL0     C59349   6.518  11.009   2.960 -0.3957  0.2772 -0.4023
  431MOL0     C59350   6.638  10.983   2.873 -0.1279 -0.8123  0.0195
  431MOL0     C59351   6.639  11.055   2.740  0.0922  0.4018 -0.3246
  431MOL0     C59352   6.774  11.030   2.670  0.2353 -0.2991  0.1911
  431MOL0     C59353   6.814  11.137   2.560 -0.3700 -0.2124  0.4393
  431MOL0     C59354   6.913  11.080   2.443 -0.1530 -0.8631 -0.3738
  431MOL0     C59355   6.941  11.194   2.344 -0.0552 -0.3252  0.4589
  431MOL0     C59356   7.015  11.309   2.411  0.2531 -0.0500  0.0359
  431MOL0     N59357   7.074  11.408   2.322 -0.1281  0.3364 -0.3791
  431MOL0     C59358   7.138  11.382   2.201  0.5063  0.1780 -0.5391
  431MOL0     C59359   7.212  11.497   2.181 -0.1917  0.4144  0.3725
  431MOL0     C59360   7.305  11.516   2.069 -0.3081 -0.1920  0.3526
  431MOL0     C59361   7.279  11.640   1.974  0.0726 -1.1876 -0.4635
  431MOL0     C59362   7.142  11.637   1.905 -0.5937 -0.0453  0.4115
  431MOL0     C59363   7.134  11.516   1.812 -0.3002  0.2300 -0.7152
  431MOL0     O59364   7.242  11.522   1.710  0.5926  0.3756 -0.3876
  431MOL0     C59365   7.251  11.622   1.617 -0.3717  0.5031 -0.6006
  431MOL0     C59366   7.373  11.638   1.553 -0.3744 -0.0091  0.5686
  431MOL0     C59367   7.393  11.744   1.456 -0.2187 -0.9528 -0.0678
  431MOL0     C59368   7.524  11.744   1.371  0.5089 -0.0446 -0.9184
  431MOL0     C59369   7.292  11.842   1.427 -1.0218  0.2273  0.4284
  431MOL0     C59370   7.297  11.963   1.332  0.3575  0.5008 -0.5330
  431MOL0     O59371   7.183  12.036   1.340 -1.0872  0.4116  0.7701
  431MOL0     C59372   7.178  12.153   1.270 -0.0216  0.6118  0.2071
  431MOL0     C59373   7.287  12.225   1.212 -0.6491  0.0273  0.1497
  431MOL0     C59374   7.266  12.327   1.118  0.7040 -0.0571 -0.0671
  431MOL0     C59375   7.135  12.363   1.087 -0.0584  0.0476 -0.2987
  431MOL0     O59376   7.112  12.456   0.988  0.4447  0.3242 -0.7466
  431MOL0     C59377   7.161  12.593   1.017  0.3437  0.0959 -0.5740
  431MOL0     C59378   7.065  12.689   0.959  0.9319  0.1613  0.2060
  431MOL0     C59379   6.925  12.689   1.033 -0.8851  0.6611 -0.0736
  431MOL0     C59380   6.801  12.714   0.946 -0.8360  0.3403 -0.0093
  431MOL0     C59381   6.678  12.728   1.045 -0.0380  0.2729  0.6397
  431MOL0     C59382   6.542  12.717   0.978  0.3868  0.3425  0.1501
  431MOL0     C59383   6.429  12.730   1.085 -0.2371 -0.3997  0.3545
  431MOL0     C59384   6.288  12.741   1.030  0.0412  0.0159 -1.3398
  431MOL0    Cl59385   6.265  12.866   0.902 -0.2650 -0.2302 -0.3550
  431MOL0     C59386   7.032  12.301   1.156  0.0755  0.8282  0.2829
  431MOL0     C59387   7.050  12.198   1.246  0.8518  0.0557  0.2263
  431MOL0     O59388   7.395  11.980   1.263 -0.7923  0.0888  0.0698
  431MOL0     C59389   7.166  11.816   1.492  0.2725 -0.1089 -0.0106
  431MOL0     C59390   7.151  11.708   1.584 -0.4482 -0.7912 -0.4134
  431MOL0     N59391   7.195  11.587   2.291 -0.0603  0.1017  0.4125
  431MOL0     N59392   7.106  11.532   2.365 -0.1334 -0.6320  0.5711
  431MOL0     C59393   6.160  10.972   2.883 -0.2388 -0.4100 -0.1596
  431MOL0     C59394   6.031  11.001   2.927  0.3209  0.4740 -0.0842
  431MOL0     C59395   5.684  11.197   3.100  0.3696 -0.4859  0.1583
  431MOL0     C59396   5.619  11.072   3.099  0.1802 -1.0761  0.3971
  431MOL0     C59397   5.482  11.061   3.110 -0.0418  0.2675 -0.0209
  431MOL0     C59398   5.401  11.165   3.114 -0.1693  0.2841  0.6979
  431MOL0     O59399   5.264  11.157   3.119 -0.1457  0.6527  0.1378
  431MOL0     C59400   5.192  11.233   3.219 -0.3149 -0.5879  0.5247
  431MOL0     C59401   5.075  11.168   3.280  0.1774 -0.5260 -0.0360
  431MOL0     C59402   5.052  11.171   3.430 -0.3386  0.2089 -0.6255
  431MOL0     C59403   4.923  11.095   3.470 -0.1405  0.4430 -0.3319
  431MOL0     C59404   4.933  10.950   3.460 -0.7345  0.3770  0.8627
  431MOL0     C59405   4.929  10.828   3.448 -0.1510  0.3814  0.0455
  431MOL0     C59406   5.459  11.295   3.117  0.0513 -0.5584  0.3324
  431MOL0     C59407   5.604  11.312   3.107 -0.2814 -0.1946 -0.0908
  431MOL0     C59408   5.655  11.457   3.107 -0.1087  0.0219  0.7212
  431MOL0     H59409   6.129  11.148   3.219  3.0667 -2.1547  0.5144
  431MOL0     H59410   6.354  11.107   3.130  0.9563 -2.5853  1.9755
  431MOL0     H59411   6.525  10.949   3.051  2.3987  1.8747  0.5576
  431MOL0     H59412   6.511  11.116   2.980 -0.4920  0.6412 -2.1985
  431MOL0     H59413   6.716  11.013   2.945  0.4902 -1.5090 -0.3458
  431MOL0     H59414   6.654  10.877   2.855  2.4168 -0.4484 -0.3247
  431MOL0     H59415   6.563  11.021   2.669  3.1657 -2.6189 -2.4973
  431MOL0     H59416   6.620  11.162   2.749  1.1594  0.4597  2.3571
  431MOL0     H59417   6.850  11.031   2.748  1.4585  2.4219 -0.9065
  431MOL0     H59418   6.767  10.930   2.625 -1.1623 -0.2054  0.1645
  431MOL0     H59419   6.857  11.228   2.601 -1.3795  1.0007 -1.0967
  431MOL0     H59420   6.721  11.162   2.509  0.2660 -0.7765 -1.0376
  431MOL0     H59421   7.008  11.039   2.481 -1.2522 -4.1713 -0.8571
  431MOL0     H59422   6.861  11.004   2.384 -1.1007  0.9298 -1.9126
  431MOL0     H59423   6.851  11.236   2.299  0.3862  0.9944  0.7626
  431MOL0     H59424   7.004  11.153   2.265  1.2350  1.4595  0.5035
  431MOL0     H59425   6.956  11.363   2.485  0.1734  0.4130 -0.3562
  431MOL0     H59426   7.092  11.265   2.474  1.1333  0.1936 -0.8441
  431MOL0     H59427   7.142  11.294   2.138  2.6961 -1.3325  1.5270
  431MOL0     H59428   7.304  11.426   2.007  2.6108  0.8535 -1.4128
  431MOL0     H59429   7.404  11.517   2.117 -0.2200 -1.2666  0.2211
  431MOL0     H59430   7.286  11.737   2.024 -2.4117 -0.1544 -1.8971
  431MOL0     H59431   7.355  11.644   1.895 -0.7273  0.5807 -1.1854
  431MOL0     H59432   7.060  11.631   1.977 -0.5112 -1.1978  0.4353
  431MOL0     H59433   7.136  11.730   1.847  0.5768  0.0626  0.4440
  431MOL0     H59434   7.156  11.422   1.862  1.8202  0.3895 -1.2554
  431MOL0     H59435   7.035  11.492   1.771 -1.4944  0.3642  1.9005
  431MOL0     H59436   7.447  11.558   1.555 -0.5336 -0.4180 -3.3335
  431MOL0     H59437   7.588  11.827   1.404  0.6733 -0.4329 -0.2464
  431MOL0     H59438   7.517  11.757   1.263  0.3635 -0.4128 -0.9546
  431MOL0     H59439   7.569  11.645   1.372 -2.4808 -1.5504 -2.2409
  431MOL0     H59440   7.394  12.206   1.225 -0.2681  1.0036 -1.3806
  431MOL0     H59441   7.348  12.372   1.063  0.7475  0.5176  0.4533
  431MOL0     H59442   7.172  12.609   1.125  3.1164 -2.5586 -0.3254
  431MOL0     H59443   7.258  12.616   0.974  1.3127 -1.1063  0.8442
  431MOL0     H59444   7.112  12.786   0.942  2.7618 -1.0832 -2.8654
  431MOL0     H59445   7.062  12.659   0.854 -1.6718 -1.3342  0.6222
  431MOL0     H59446   6.928  12.771   1.105  0.5034  1.3547 -0.8788
  431MOL0     H59447   6.911  12.597   1.091  1.0930  1.2175  1.3821
  431MOL0     H59448   6.769  12.637   0.874 -2.6076  1.0715 -0.0586
  431MOL0     H59449   6.800  12.808   0.891 -0.2622  0.4124  0.0958
  431MOL0     H59450   6.686  12.650   1.121 -0.2616 -0.1490  0.2353
  431MOL0     H59451   6.674  12.817   1.108 -1.7881  1.0172 -0.4401
  431MOL0     H59452   6.538  12.622   0.923  1.2922 -1.0988  2.4156
  431MOL0     H59453   6.538  12.806   0.915  3.8270  0.2993 -0.2835
  431MOL0     H59454   6.437  12.828   1.133 -1.3776 -0.4008  0.5802
  431MOL0     H59455   6.443  12.654   1.162  3.1099  2.9637  3.4652
  431MOL0     H59456   6.212  12.772   1.103 -0.8687 -0.2812 -2.1312
  431MOL0     H59457   6.264  12.643   0.988 -0.3877 -0.2880 -0.4273
  431MOL0     H59458   6.928  12.328   1.140 -0.1304 -0.4646 -0.6961
  431MOL0     H59459   6.975  12.130   1.284  1.2711 -0.0402  0.9044
  431MOL0     H59460   7.072  11.868   1.475  1.1866  1.2608 -1.0624
  431MOL0     H59461   7.050  11.686   1.618 -0.7267  0.6830 -0.2366
  431MOL0     H59462   6.177  10.930   2.784 -1.3086  1.2643 -1.0971
  431MOL0     H59463   5.939  10.975   2.876  0.4060  1.1443 -0.5892
  431MOL0     H59464   5.658  10.973   3.074  0.9386 -1.3478  2.4468
  431MOL0     H59465   5.441  10.961   3.116 -1.4812  0.7104 -1.5281
  431MOL0     H59466   5.265  11.259   3.296  1.1247 -0.3013 -0.8719
  431MOL0     H59467   5.154  11.329   3.184 -2.6203 -1.0453  1.5939
  431MOL0     H59468   5.065  11.066   3.243  1.3301 -0.8462  0.4889
  431MOL0     H59469   4.998  11.235   3.239 -0.7299 -0.3586  1.8004
  431MOL0     H59470   5.140  11.136   3.484  1.7163  1.6889 -2.8448
  431MOL0     H59471   5.043  11.276   3.458  1.7756 -0.0913  1.4346
  431MOL0     H59472   4.840  11.128   3.407 -1.8349 -0.3146  1.3990
  431MOL0     H59473   4.892  11.119   3.572  2.8299  0.9186  0.5414
  431MOL0     H59474   4.934  10.723   3.428  1.9567  0.3066  0.7425
  431MOL0     H59475   5.389  11.378   3.125  0.0562 -0.5539  0.3284
  431MOL0     H59476   5.571  11.527   3.101 -1.4470 -1.6552 -1.0573
  431MOL0     H59477   5.717  11.468   3.197  4.2894 -5.3587 -1.0838
  431MOL0     H59478   5.724  11.472   3.023  1.1116 -0.1593  1.6555
  432MOL0     O59479   8.526   0.273   3.861  0.0380  0.5196  0.4314
  432MOL0     C59480   8.518   0.360   3.778  0.3728  0.7911  0.1492
  432MOL0     O59481   8.613   0.389   3.686  0.7470  0.1055 -0.2741
  432MOL0     C59482   8.724   0.308   3.666 -0.1327 -0.7746 -0.3387
  432MOL0     C59483   8.790   0.241   3.765  0.2817  0.3051 -0.5817
  432MOL0     C59484   8.892   0.158   3.736  0.5616  0.1556  1.3610
  432MOL0     C59485   8.931   0.145   3.602  0.4579  0.8840 -0.3274
  432MOL0     O59486   9.032   0.062   3.557 -0.0629 -0.3880  0.3371
  432MOL0     C59487   9.099  -0.023   3.654  0.4668 -0.0601 -0.8035
  432MOL0     C59488   9.234  -0.091   3.615  0.9155 -0.8014  0.6152
  432MOL0     C59489   9.242  -0.234   3.667  0.5905 -0.6683  0.4815
  432MOL0     C59490   9.373  -0.311   3.623 -0.4556 -0.4698  0.0893
  432MOL0     C59491   9.384  -0.438   3.712 -0.0455  0.6850  0.5732
  432MOL0     C59492   9.263  -0.530   3.742 -0.8011  0.1301  0.2882
  432MOL0     C59493   9.171  -0.571   3.628  0.0466 -0.3162 -0.2024
  432MOL0     C59494   9.035  -0.624   3.664  0.4225 -0.7833 -0.3848
  432MOL0     N59495   8.935  -0.512   3.675 -0.6373 -0.1553  0.4094
  432MOL0     C59496   8.918  -0.435   3.798  0.1543  0.1546 -0.6319
  432MOL0     C59497   8.817  -0.356   3.765  0.9283  0.8412  0.1524
  432MOL0     C59498   8.758  -0.258   3.854  0.4111 -0.0960 -0.4662
  432MOL0     C59499   8.617  -0.223   3.807 -0.4128  0.3553  0.6722
  432MOL0     C59500   8.571  -0.101   3.885 -0.9239 -0.2420 -0.7144
  432MOL0     C59501   8.448  -0.027   3.850 -0.0464  0.1522 -0.2247
  432MOL0     O59502   8.339  -0.119   3.836 -0.5507 -0.7732  0.4631
  432MOL0     C59503   8.216  -0.067   3.794  0.8587  0.2757 -1.0634
  432MOL0     C59504   8.169   0.066   3.791 -0.0926  0.7807 -0.2761
  432MOL0     C59505   8.036   0.093   3.782 -0.3816  1.4149 -0.1538
  432MOL0     C59506   7.981   0.239   3.794  0.1495  0.3141 -0.1507
  432MOL0     C59507   7.947  -0.018   3.759 -0.6914 -0.1279  0.2908
  432MOL0     C59508   7.799  -0.000   3.738  1.1626 -0.4914  0.3861
  432MOL0     O59509   7.735   0.091   3.810 -0.4704 -0.4011 -0.7192
  432MOL0     C59510   7.599   0.110   3.800 -0.6238  0.6367  0.3001
  432MOL0     C59511   7.546   0.224   3.739 -0.1314 -0.2827 -0.3379
  432MOL0     C59512   7.412   0.243   3.720 -0.3470  0.3820 -0.2526
  432MOL0     C59513   7.329   0.159   3.796 -0.0128  0.4498  0.2158
  432MOL0     O59514   7.192   0.165   3.794  0.1017 -0.0776 -0.8967
  432MOL0     C59515   7.127   0.289   3.757 -0.6278  0.3810 -0.8094
  432MOL0     C59516   6.992   0.287   3.824 -0.4795  0.5968  0.7016
  432MOL0     C59517   6.896   0.194   3.760  1.1482  0.0422 -0.1701
  432MOL0     C59518   6.754   0.183   3.822  0.1888 -0.2207 -0.4998
  432MOL0     C59519   6.662   0.075   3.763  0.3062 -0.6830  0.3161
  432MOL0     C59520   6.538   0.054   3.837  0.4609 -0.6976  0.0959
  432MOL0     C59521   6.422   0.012   3.748  0.1110 -1.1004  0.4272
  432MOL0     C59522   6.369  -0.112   3.797  0.1856 -0.3877 -0.2633
  432MOL0    Cl59523   6.218  -0.152   3.721 -0.0290  0.1219  0.4020
  432MOL0     C59524   7.380   0.049   3.866 -0.0734 -1.0297  0.2308
  432MOL0     C59525   7.512   0.022   3.857  0.3512  0.1282 -0.3629
  432MOL0     O59526   7.745  -0.075   3.658  0.1449 -0.4501 -0.0315
  432MOL0     C59527   7.995  -0.150   3.754 -0.0645  0.3950 -0.3201
  432MOL0     C59528   8.129  -0.168   3.768 -0.0088 -0.4943 -0.3516
  432MOL0     N59529   8.765  -0.384   3.634 -0.2221 -0.1497  0.4953
  432MOL0     N59530   8.833  -0.477   3.582  0.5624 -0.3293  0.2881
  432MOL0     C59531   8.867   0.217   3.506 -0.2506 -0.2842 -0.1558
  432MOL0     C59532   8.764   0.307   3.531 -0.4441  0.6320  0.1165
  432MOL0     C59533   8.394   0.440   3.759  0.0218  0.3380 -0.0320
  432MOL0     C59534   8.356   0.488   3.626  0.0314  0.2342 -0.5534
  432MOL0     C59535   8.240   0.564   3.620  0.3456  0.4783  0.1103
  432MOL0     C59536   8.159   0.590   3.725  0.3236  0.4526 -0.4107
  432MOL0     O59537   8.043   0.656   3.689 -0.1763  0.1766 -0.6881
  432MOL0     C59538   7.929   0.671   3.780  0.0454 -0.0995 -0.0436
  432MOL0     C59539   7.832   0.565   3.744 -0.3801 -0.5496 -0.1888
  432MOL0     C59540   7.686   0.598   3.783  0.0024 -0.1774  0.9900
  432MOL0     C59541   7.664   0.644   3.929  0.2788  0.3329  0.6206
  432MOL0     C59542   7.732   0.561   4.027  0.5784  0.3490  0.6402
  432MOL0     C59543   7.788   0.482   4.106  0.8355 -0.5702  0.4741
  432MOL0     C59544   8.187   0.525   3.850 -1.0407 -0.0449 -0.1331
  432MOL0     C59545   8.304   0.457   3.870 -0.6315 -0.3201  0.3147
  432MOL0     C59546   8.330   0.417   4.011 -0.4478  1.3362  0.1593
  432MOL0     H59547   8.776   0.262   3.870 -0.4543 -0.3023 -0.5526
  432MOL0     H59548   8.933   0.100   3.818  1.1948 -1.3022  0.0575
  432MOL0     H59549   9.030  -0.099   3.693  0.3558  0.2646 -0.3574
  432MOL0     H59550   9.121   0.042   3.739 -0.8666  0.6206 -0.9552
  432MOL0     H59551   9.223  -0.096   3.506  0.5651  0.5382  0.5731
  432MOL0     H59552   9.311  -0.024   3.653 -1.7344  1.7219  1.9234
  432MOL0     H59553   9.235  -0.228   3.776  5.8395  1.9564  0.9726
  432MOL0     H59554   9.156  -0.283   3.620  1.5619  0.3844 -2.6873
  432MOL0     H59555   9.359  -0.341   3.519 -2.1912 -1.0157  0.4361
  432MOL0     H59556   9.457  -0.242   3.630 -0.6206 -0.2158 -0.3564
  432MOL0     H59557   9.417  -0.404   3.810  0.2410  1.2612  0.2817
  432MOL0     H59558   9.468  -0.500   3.681  0.3485  0.6948  1.5842
  432MOL0     H59559   9.302  -0.616   3.797  0.1303 -0.2884 -0.9763
  432MOL0     H59560   9.204  -0.472   3.813 -0.4693 -0.1744  0.8121
  432MOL0     H59561   9.225  -0.649   3.572 -0.9424 -0.6416 -0.7333
  432MOL0     H59562   9.158  -0.494   3.551 -1.0680  0.2897  0.5596
  432MOL0     H59563   9.001  -0.687   3.582 -0.9399 -0.0750 -0.3912
  432MOL0     H59564   9.047  -0.685   3.755  0.3804  0.4337  0.4654
  432MOL0     H59565   8.974  -0.438   3.891 -1.3277  0.3273  0.2984
  432MOL0     H59566   8.805  -0.160   3.867  0.4057 -0.3064  1.4140
  432MOL0     H59567   8.752  -0.291   3.958  0.0585 -0.7561 -0.6944
  432MOL0     H59568   8.613  -0.178   3.707 -0.4553  0.4768  0.7274
  432MOL0     H59569   8.545  -0.305   3.802  0.6588 -0.5360 -1.2509
  432MOL0     H59570   8.558  -0.137   3.987 -2.4270  1.1129 -0.3902
  432MOL0     H59571   8.649  -0.024   3.882 -1.6559  0.5600  0.2107
  432MOL0     H59572   8.429   0.044   3.931  0.9975 -1.8369  1.8642
  432MOL0     H59573   8.469   0.022   3.754  3.6680 -0.3296  0.2253
  432MOL0     H59574   8.229   0.155   3.804  1.8540 -0.0136 -2.9832
  432MOL0     H59575   7.959   0.240   3.902  0.0759  2.0637 -0.1524
  432MOL0     H59576   7.886   0.258   3.744  1.1478 -0.7380 -2.5726
  432MOL0     H59577   8.050   0.315   3.758 -1.1951  1.0063 -1.3249
  432MOL0     H59578   7.600   0.299   3.681 -0.4162  0.6605  0.5710
  432MOL0     H59579   7.369   0.322   3.658 -0.2657  1.6632  1.2751
  432MOL0     H59580   7.182   0.377   3.791 -0.4362 -0.5041  1.3098
  432MOL0     H59581   7.123   0.304   3.648 -0.4078  2.7293 -0.5375
  432MOL0     H59582   6.994   0.255   3.929  0.9739  0.0340  0.5228
  432MOL0     H59583   6.955   0.390   3.818  1.6135  1.3161 -1.5231
  432MOL0     H59584   6.939   0.094   3.764 -2.2938 -1.6707 -1.3144
  432MOL0     H59585   6.889   0.216   3.654  1.2204 -0.4889 -0.2892
  432MOL0     H59586   6.705   0.281   3.820 -1.1629 -0.8692 -0.7618
  432MOL0     H59587   6.770   0.154   3.927  2.7587  2.0485 -0.1543
  432MOL0     H59588   6.649   0.105   3.659  0.1240 -0.3588  0.4311
  432MOL0     H59589   6.716  -0.020   3.765  0.8659 -0.4667 -1.7438
  432MOL0     H59590   6.507   0.140   3.898  2.7793  0.2120  0.0987
  432MOL0     H59591   6.568  -0.022   3.909 -0.4697 -1.3030 -0.1361
  432MOL0     H59592   6.447   0.005   3.641  0.6622 -0.6939  0.5222
  432MOL0     H59593   6.340   0.084   3.751 -1.1540 -2.4751 -0.1605
  432MOL0     H59594   6.341  -0.095   3.901 -0.3264 -1.5265 -0.1945
  432MOL0     H59595   6.448  -0.187   3.788  0.5634  0.2094 -2.4463
  432MOL0     H59596   7.302  -0.008   3.916 -1.7338  1.7488  1.0369
  432MOL0     H59597   7.556  -0.064   3.906 -1.9561 -0.0443  1.5458
  432MOL0     H59598   7.929  -0.236   3.739 -2.1072  2.0016 -1.0916
  432MOL0     H59599   8.181  -0.264   3.773  1.1723  0.1638  0.6334
  432MOL0     H59600   8.908   0.215   3.405  0.5120  0.6277  0.1158
  432MOL0     H59601   8.704   0.353   3.454  0.3836  2.1378  0.3384
  432MOL0     H59602   8.415   0.466   3.538  1.2116  0.9960  0.0218
  432MOL0     H59603   8.216   0.611   3.526 -0.5737  2.2064  1.1661
  432MOL0     H59604   7.961   0.669   3.884  2.0298  0.1350 -0.6122
  432MOL0     H59605   7.879   0.767   3.758  1.0898 -0.0076 -2.3333
  432MOL0     H59606   7.852   0.468   3.791  2.8100 -0.8806 -1.9376
  432MOL0     H59607   7.834   0.557   3.635  0.0208  0.0712 -0.2343
  432MOL0     H59608   7.650   0.677   3.717  1.4314  0.6324  1.1569
  432MOL0     H59609   7.612   0.518   3.773 -0.6112  0.4450  0.4588
  432MOL0     H59610   7.556   0.645   3.946  0.4458  0.2426  1.8124
  432MOL0     H59611   7.694   0.748   3.944  1.7170  0.2861 -1.5054
  432MOL0     H59612   7.847   0.418   4.169  1.0396  1.9612  3.0748
  432MOL0     H59613   8.123   0.545   3.936 -0.9042  3.6054 -0.6839
  432MOL0     H59614   8.330   0.308   4.016 -0.0213  1.3006 -0.4873
  432MOL0     H59615   8.426   0.460   4.041 -1.1650  3.8984 -0.9404
  432MOL0     H59616   8.252   0.454   4.078  0.7657  0.5927  2.0477
  433MOL0     O59617   9.210   2.558   0.889 -0.0029 -0.0396  0.6494
  433MOL0     C59618   9.185   2.677   0.851 -0.0427  0.1625 -0.5973
  433MOL0     O59619   9.276   2.755   0.791 -0.3074  0.6238 -0.3426
  433MOL0     C59620   9.389   2.719   0.728  0.1787 -0.0444 -0.6823
  433MOL0     C59621   9.424   2.789   0.610  0.2917  0.3310  0.3074
  433MOL0     C59622   9.540   2.768   0.540 -0.1973 -0.2111 -0.3065
  433MOL0     C59623   9.627   2.662   0.588 -0.2381  0.6343 -1.2950
  433MOL0     O59624   9.750   2.647   0.533 -0.0318 -0.0357  0.7231
  433MOL0     C59625   9.816   2.751   0.448 -0.5316  0.1105  0.4818
  433MOL0     C59626   9.940   2.691   0.378  0.2455  1.1474  0.1930
  433MOL0     C59627  10.012   2.784   0.275  0.2733  0.2291  0.3016
  433MOL0     C59628  10.116   2.701   0.203 -0.3246  0.4620 -1.0331
  433MOL0     C59629  10.133   2.744   0.053  0.6684 -1.2912  0.0857
  433MOL0     C59630  10.247   2.668  -0.013 -1.0222  0.8624  1.1093
  433MOL0     C59631  10.389   2.691   0.038 -0.9660 -0.2873 -0.1264
  433MOL0     C59632  10.499   2.661  -0.066  0.1290 -0.3892 -0.2145
  433MOL0     N59633  10.630   2.713  -0.035 -0.2857  0.7064 -0.0742
  433MOL0     C59634  10.670   2.830  -0.086  0.8735  0.5117 -0.4192
  433MOL0     C59635  10.802   2.837  -0.058 -0.7217  0.1005 -0.0212
  433MOL0     C59636  10.892   2.959  -0.089  0.0409  0.3949 -1.1128
  433MOL0     C59637  11.032   2.914  -0.143  0.2066 -0.4479 -0.1487
  433MOL0     C59638  11.019   2.842  -0.280 -0.0993  0.1438  0.7849
  433MOL0     C59639  11.140   2.765  -0.321 -0.4436 -0.2508  0.0490
  433MOL0     O59640  11.146   2.650  -0.232 -0.4858 -0.2641 -0.2688
  433MOL0     C59641  11.272   2.602  -0.209 -0.1120  0.0380  1.1911
  433MOL0     C59642  11.357   2.547  -0.310  0.4808  0.2702  0.2831
  433MOL0     C59643  11.475   2.478  -0.280 -0.0800  0.2219  0.6129
  433MOL0     C59644  11.546   2.413  -0.391  0.2746  1.1262  0.5094
  433MOL0     C59645  11.522   2.482  -0.144 -0.1701 -0.3468 -0.4124
  433MOL0     C59646  11.646   2.421  -0.091  0.0367 -0.0995 -0.5898
  433MOL0     O59647  11.664   2.383   0.044  0.5304 -0.3037 -0.3571
  433MOL0     C59648  11.773   2.314   0.090 -0.0239 -0.3015 -0.7440
  433MOL0     C59649  11.904   2.308   0.032  0.1359 -0.5211  0.7881
  433MOL0     C59650  12.000   2.229   0.085  0.8757  0.0128 -0.7893
  433MOL0     C59651  11.985   2.162   0.200  0.1351  0.0984  0.0533
  433MOL0     O59652  12.093   2.105   0.252  0.1178  0.2372  0.0387
  433MOL0     C59653  12.118   2.113   0.390  0.5017 -0.2909  0.1425
  433MOL0     C59654  12.250   2.035   0.416 -0.0231  0.3527  0.9265
  433MOL0     C59655  12.368   2.123   0.375  0.2273 -0.7615  0.0897
  433MOL0     C59656  12.503   2.062   0.406  0.0230  0.3245  0.3617
  433MOL0     C59657  12.609   2.151   0.337 -0.6533  0.0711  0.1900
  433MOL0     C59658  12.755   2.116   0.364  0.7371 -0.1162 -0.7089
  433MOL0     C59659  12.839   2.188   0.264 -0.1971  0.4858 -0.4994
  433MOL0     C59660  12.996   2.189   0.276  1.1873  0.3876 -0.1928
  433MOL0    Cl59661  13.074   2.025   0.250 -0.3790  0.0485 -0.2487
  433MOL0     C59662  11.859   2.163   0.259 -0.2842  0.1239 -0.2458
  433MOL0     C59663  11.754   2.238   0.205 -0.9251  0.4632 -0.1228
  433MOL0     O59664  11.731   2.395  -0.179 -0.1913  0.0490 -0.2271
  433MOL0     C59665  11.436   2.542  -0.042 -0.9857  0.7286  0.3131
  433MOL0     C59666  11.312   2.599  -0.077  0.4370 -0.3329 -0.3084
  433MOL0     N59667  10.843   2.729   0.014  0.7033 -0.0202 -0.1942
  433MOL0     N59668  10.737   2.649   0.020 -0.5842 -0.8149 -0.3353
  433MOL0     C59669   9.590   2.586   0.703  0.2524  1.2418  0.5217
  433MOL0     C59670   9.475   2.618   0.776  0.0383 -0.6628  0.3289
  433MOL0     C59671   9.045   2.729   0.891 -0.6899 -0.5671 -0.1392
  433MOL0     C59672   8.990   2.662   0.999 -0.6074 -0.1781 -0.0075
  433MOL0     C59673   8.863   2.692   1.048 -0.3876  0.6561  0.5446
  433MOL0     C59674   8.790   2.798   0.993 -0.7400  0.2967  0.0518
  433MOL0     O59675   8.658   2.813   1.035 -0.2279 -0.4777  0.1949
  433MOL0     C59676   8.562   2.708   1.008  0.2485 -0.3524 -0.4146
  433MOL0     C59677   8.573   2.640   0.867  0.2357 -0.6024 -0.9393
  433MOL0     C59678   8.546   2.749   0.751  0.1825 -0.6407 -0.8233
  433MOL0     C59679   8.415   2.826   0.773 -0.3466  0.1787 -0.5001
  433MOL0     C59680   8.278   2.760   0.766  0.7376 -0.4028  0.7079
  433MOL0     C59681   8.170   2.706   0.762  0.4219 -0.4020 -0.5137
  433MOL0     C59682   8.851   2.872   0.885 -0.2269  0.4163  0.5965
  433MOL0     C59683   8.984   2.844   0.841 -0.2094 -0.2185 -0.3033
  433MOL0     C59684   9.049   2.945   0.752  0.2333  0.3149  0.7772
  433MOL0     H59685   9.344   2.853   0.574 -1.6041 -0.5257  2.7200
  433MOL0     H59686   9.572   2.823   0.452  0.1537 -0.7596 -0.5243
  433MOL0     H59687   9.845   2.833   0.515  0.5213  0.9254 -0.9143
  433MOL0     H59688   9.759   2.791   0.363  1.3363 -1.2045 -1.4782
  433MOL0     H59689  10.017   2.651   0.445 -1.5130  0.8624  2.1446
  433MOL0     H59690   9.902   2.608   0.318 -1.1199  3.1671 -1.8935
  433MOL0     H59691   9.940   2.829   0.206 -0.0143 -0.3128  0.2425
  433MOL0     H59692  10.048   2.871   0.330  1.3108 -0.8095  1.3139
  433MOL0     H59693  10.204   2.735   0.258 -0.1452 -0.8968 -0.4254
  433MOL0     H59694  10.102   2.593   0.213  1.4322  0.2204 -0.8778
  433MOL0     H59695  10.163   2.849   0.042  0.6362 -1.1417  1.3328
  433MOL0     H59696  10.050   2.725  -0.015  1.4547 -1.7837 -0.7596
  433MOL0     H59697  10.227   2.566   0.020 -0.1268  0.3615  0.1397
  433MOL0     H59698  10.237   2.679  -0.122  1.2665  2.1835  0.9816
  433MOL0     H59699  10.414   2.614   0.111  0.7535 -0.4986 -0.8817
  433MOL0     H59700  10.402   2.794   0.070 -0.6482  0.0777 -1.3733
  433MOL0     H59701  10.517   2.554  -0.075 -2.0278 -1.0023  1.9060
  433MOL0     H59702  10.475   2.701  -0.165 -1.6820 -0.5324  0.1252
  433MOL0     H59703  10.595   2.895  -0.130 -1.7128 -2.1412 -0.2177
  433MOL0     H59704  10.900   3.012   0.006  1.7367  3.1858 -2.6863
  433MOL0     H59705  10.841   3.022  -0.163  1.1885  1.4343 -1.0331
  433MOL0     H59706  11.104   2.994  -0.157 -0.6762  0.3658 -0.1556
  433MOL0     H59707  11.075   2.850  -0.065 -0.8037 -0.6144  0.2976
  433MOL0     H59708  10.935   2.772  -0.282  0.8054 -0.9543 -0.9641
  433MOL0     H59709  11.002   2.917  -0.359  1.4376 -0.1338  0.1583
  433MOL0     H59710  11.146   2.743  -0.428  4.1456  1.3533 -0.2214
  433MOL0     H59711  11.231   2.818  -0.294 -1.2304  0.4562  1.4049
  433MOL0     H59712  11.315   2.566  -0.408  0.7869 -0.6092 -0.0239
  433MOL0     H59713  11.565   2.311  -0.358  2.4089  1.9018  1.9188
  433MOL0     H59714  11.633   2.474  -0.416 -0.1067  2.1833  1.6419
  433MOL0     H59715  11.481   2.406  -0.479  1.8364 -2.1006 -0.5636
  433MOL0     H59716  11.931   2.368  -0.055  0.2431 -1.8066 -0.0903
  433MOL0     H59717  12.100   2.233   0.043  0.9509 -1.4190 -0.7920
  433MOL0     H59718  12.124   2.218   0.418 -1.7304  0.0169 -0.2930
  433MOL0     H59719  12.033   2.072   0.446  0.6503  0.0792  0.6486
  433MOL0     H59720  12.261   2.016   0.523  1.8483 -1.4946  0.4686
  433MOL0     H59721  12.259   1.938   0.367 -0.7553 -0.1418  1.7373
  433MOL0     H59722  12.365   2.220   0.425 -2.5817 -1.0141  0.5700
  433MOL0     H59723  12.363   2.134   0.266  0.0224 -0.7798  0.0970
  433MOL0     H59724  12.505   1.960   0.366 -0.0017  1.1927 -2.0665
  433MOL0     H59725  12.523   2.050   0.512  0.6822 -1.2757  0.0757
  433MOL0     H59726  12.600   2.142   0.229  1.4685 -1.6706  0.0740
  433MOL0     H59727  12.588   2.256   0.357  4.9916  1.6991 -0.6536
  433MOL0     H59728  12.766   2.007   0.356  1.2359 -0.0279 -1.2667
  433MOL0     H59729  12.782   2.148   0.465 -1.2037  5.8197 -1.7253
  433MOL0     H59730  12.810   2.293   0.274  0.4621  0.6906 -0.7006
  433MOL0     H59731  12.817   2.163   0.160 -0.3904  3.3748 -1.2284
  433MOL0     H59732  13.026   2.228   0.373  3.5170  2.3406 -1.5932
  433MOL0     H59733  13.038   2.251   0.196  2.7501 -1.0340 -0.5206
  433MOL0     H59734  11.849   2.111   0.354  0.2883 -0.2405 -0.3854
  433MOL0     H59735  11.656   2.234   0.251 -0.5981 -1.1585  0.5121
  433MOL0     H59736  11.454   2.538   0.065  0.8771  0.8101  0.0374
  433MOL0     H59737  11.237   2.637  -0.008  0.7122  2.3250 -1.3382
  433MOL0     H59738   9.637   2.495   0.740 -4.2453 -1.7188 -0.2162
  433MOL0     H59739   9.447   2.567   0.867 -1.3236  0.0787  0.3433
  433MOL0     H59740   9.030   2.575   1.050 -2.5283 -0.4882  1.0842
  433MOL0     H59741   8.819   2.634   1.128 -1.7729 -0.4913 -0.9877
  433MOL0     H59742   8.581   2.627   1.078 -0.7112 -2.9833 -3.0122
  433MOL0     H59743   8.460   2.747   1.020  0.8844  2.4561 -2.8002
  433MOL0     H59744   8.510   2.552   0.849 -0.2945 -0.2494 -0.8711
  433MOL0     H59745   8.675   2.604   0.875 -0.6717 -2.9390  4.7982
  433MOL0     H59746   8.630   2.818   0.755  1.7354 -2.4548 -0.2370
  433MOL0     H59747   8.556   2.705   0.652  1.2154 -0.0057 -1.0191
  433MOL0     H59748   8.424   2.900   0.693 -2.0990  3.0446  1.7687
  433MOL0     H59749   8.424   2.883   0.866 -3.8794  1.0741 -0.5740
  433MOL0     H59750   8.068   2.674   0.754 -0.2549  1.2077  0.9118
  433MOL0     H59751   8.797   2.955   0.841  2.7655  1.2986 -1.8269
  433MOL0     H59752   9.152   2.976   0.771 -0.4613  2.7362  0.9164
  433MOL0     H59753   9.050   2.914   0.647  0.4064 -0.1613  0.9174
  433MOL0     H59754   9.000   3.041   0.770  1.3399  1.9804 -3.8546
  434MOL0     O59755   6.697   6.690  10.168  0.8025 -0.7764 -0.5024
  434MOL0     C59756   6.630   6.720  10.269 -0.1743  0.4229 -0.1845
  434MOL0     O59757   6.655   6.668  10.397  0.2748 -0.0231 -0.6569
  434MOL0     C59758   6.777   6.623  10.434  0.1394 -0.6288  0.1390
  434MOL0     C59759   6.794   6.544  10.548  0.0531 -0.3955  0.0274
  434MOL0     C59760   6.910   6.479  10.576 -0.0398  1.0310 -0.3110
  434MOL0     C59761   7.025   6.512  10.513 -0.2724  0.3444  0.4171
  434MOL0     O59762   7.147   6.465  10.553  0.1138  0.0885  0.9160
  434MOL0     C59763   7.207   6.371  10.461  0.0160 -0.8629 -0.6023
  434MOL0     C59764   7.317   6.423  10.370 -0.2456 -0.0363  0.9362
  434MOL0     C59765   7.456   6.452  10.435 -0.2590  0.7756 -0.2013
  434MOL0     C59766   7.518   6.312  10.471  0.1910 -0.3985  0.3440
  434MOL0     C59767   7.658   6.317  10.527 -0.4293 -0.1315  0.0239
  434MOL0     C59768   7.748   6.374  10.424 -0.4902 -0.0996  0.0835
  434MOL0     C59769   7.895   6.368  10.474 -0.0682 -0.0183 -0.7878
  434MOL0     C59770   7.992   6.431  10.383 -0.4954  0.2115  0.5168
  434MOL0     N59771   8.126   6.470  10.440 -0.2761  0.2545  0.3545
  434MOL0     C59772   8.241   6.404  10.403  0.0629 -0.7363  0.7543
  434MOL0     C59773   8.331   6.482  10.464  0.8821  0.2647  0.0545
  434MOL0     C59774   8.479   6.472  10.462  0.3264 -0.5408 -0.0293
  434MOL0     C59775   8.527   6.368  10.566 -0.2092 -0.9446  0.0714
  434MOL0     C59776   8.677   6.339  10.579  0.9960 -0.5648 -0.3913
  434MOL0     C59777   8.765   6.456  10.624 -0.4579  0.5173 -0.5565
  434MOL0     O59778   8.889   6.404  10.679  0.5696 -0.2924  0.5397
  434MOL0     C59779   8.991   6.498  10.680  0.8618 -0.3084  0.3936
  434MOL0     C59780   9.104   6.466  10.606 -0.0868  0.2087  0.3611
  434MOL0     C59781   9.217   6.548  10.600  0.3820  0.0958  0.1457
  434MOL0     C59782   9.345   6.495  10.527  1.1811 -0.1232  0.5107
  434MOL0     C59783   9.217   6.672  10.678  0.0004  0.7366  0.4721
  434MOL0     C59784   9.324   6.769  10.678 -0.2342  0.5430 -0.3329
  434MOL0     O59785   9.336   6.845  10.789 -0.1697  0.3833 -0.8340
  434MOL0     C59786   9.426   6.952  10.782  0.1589  0.5968 -0.0768
  434MOL0     C59787   9.509   6.969  10.896  0.3031  0.3841  0.7537
  434MOL0     C59788   9.591   7.084  10.896  0.4742 -0.1139  0.6032
  434MOL0     C59789   9.598   7.176  10.793 -0.0538  0.0500  0.6324
  434MOL0     O59790   9.669   7.290  10.827 -0.5135 -0.1607  0.2074
  434MOL0     C59791   9.608   7.416  10.801  1.0270  0.6033 -0.5125
  434MOL0     C59792   9.675   7.473  10.679  0.7962 -0.3312  1.0896
  434MOL0     C59793   9.592   7.577  10.605 -0.2771  0.1996 -0.2097
  434MOL0     C59794   9.452   7.536  10.574 -0.4209  0.2555  0.1422
  434MOL0     C59795   9.400   7.642  10.478  0.1737 -0.2552 -0.2972
  434MOL0     C59796   9.271   7.607  10.416  0.0894  0.0578  0.2229
  434MOL0     C59797   9.214   7.707  10.310  1.1382  0.5500 -0.8107
  434MOL0     C59798   9.077   7.653  10.264  0.7836 -0.0606 -0.7210
  434MOL0    Cl59799   8.943   7.675  10.392 -0.4250 -0.0233 -0.5095
  434MOL0     C59800   9.524   7.151  10.682  0.3763  0.3539  0.9781
  434MOL0     C59801   9.432   7.042  10.671  0.4770  0.2004  0.4454
  434MOL0     O59802   9.398   6.769  10.581  0.3626  0.0384  0.1833
  434MOL0     C59803   9.093   6.703  10.746  0.3284 -0.9109  0.7736
  434MOL0     C59804   8.989   6.618  10.748  1.0574  0.0642  0.5649
  434MOL0     N59805   8.274   6.568  10.553  0.8150  0.1091 -0.0941
  434MOL0     N59806   8.144   6.570  10.534 -0.1221  0.8866  0.2644
  434MOL0     C59807   7.018   6.598  10.405  1.0220  0.0141  0.0409
  434MOL0     C59808   6.895   6.649  10.363 -0.1701  0.6887  0.1881
  434MOL0     C59809   6.503   6.793  10.236  1.3636 -0.3993 -0.2971
  434MOL0     C59810   6.491   6.860  10.114 -0.6886 -0.2419  0.1965
  434MOL0     C59811   6.368   6.917  10.078 -0.6113 -0.0583  0.2174
  434MOL0     C59812   6.259   6.922  10.164  1.0214 -0.4606  0.0602
  434MOL0     O59813   6.137   6.982  10.136  0.4145 -0.2670 -0.1168
  434MOL0     C59814   6.131   7.093  10.039 -0.7157  0.4909  0.6927
  434MOL0     C59815   6.002   7.170  10.068 -0.5854 -0.0874 -0.1268
  434MOL0     C59816   5.992   7.312  10.010  0.7384  0.5372  0.6281
  434MOL0     C59817   5.844   7.338   9.968 -0.5454  0.0220  0.0152
  434MOL0     C59818   5.840   7.317   9.822  0.2737  0.0499 -0.2811
  434MOL0     C59819   5.828   7.288   9.710  0.5569  0.6873 -0.3800
  434MOL0     C59820   6.267   6.848  10.281  0.3236 -0.0949 -0.1247
  434MOL0     C59821   6.383   6.780  10.319 -1.7362  0.3965 -0.2079
  434MOL0     C59822   6.381   6.696  10.440  0.3249 -0.0180 -0.4194
  434MOL0     H59823   6.705   6.526  10.607  0.3920  1.0464  1.0340
  434MOL0     H59824   6.906   6.403  10.653 -2.7352 -1.8377 -2.9683
  434MOL0     H59825   7.126   6.336  10.396 -1.7378  1.0105  0.4747
  434MOL0     H59826   7.247   6.289  10.521 -0.6975 -0.8337 -0.0737
  434MOL0     H59827   7.328   6.358  10.283 -0.8399  0.4916  0.4523
  434MOL0     H59828   7.288   6.523  10.334  0.3379  0.6306  2.2277
  434MOL0     H59829   7.520   6.505  10.365 -0.6816  0.2302 -1.0209
  434MOL0     H59830   7.442   6.507  10.528  2.5124  1.1274  0.0687
  434MOL0     H59831   7.461   6.253  10.544 -1.7248  0.2499 -0.5463
  434MOL0     H59832   7.521   6.252  10.379 -0.1798  2.1800 -1.4664
  434MOL0     H59833   7.685   6.215  10.556 -1.2235  0.2122  2.1169
  434MOL0     H59834   7.653   6.377  10.619  2.5870 -1.2927  1.0620
  434MOL0     H59835   7.741   6.320  10.330  0.9860 -0.0556 -0.0656
  434MOL0     H59836   7.722   6.479  10.410 -0.9256 -0.2956 -0.6442
  434MOL0     H59837   7.926   6.264  10.483 -0.4781 -0.2119 -1.4774
  434MOL0     H59838   7.901   6.417  10.571 -1.2432 -1.7028  0.1908
  434MOL0     H59839   8.007   6.363  10.299  2.1180  0.6109  0.5690
  434MOL0     H59840   7.959   6.528  10.343  0.0844 -0.0449 -0.6311
  434MOL0     H59841   8.254   6.322  10.334  1.1944 -0.0194  0.0870
  434MOL0     H59842   8.521   6.570  10.488  0.4534 -1.1529  2.2713
  434MOL0     H59843   8.507   6.452  10.358  1.9319  1.9684 -0.1610
  434MOL0     H59844   8.489   6.386  10.667 -2.1951 -3.4718 -0.1115
  434MOL0     H59845   8.472   6.279  10.536  0.6411 -0.9679 -1.4684
  434MOL0     H59846   8.689   6.248  10.638 -1.9571 -1.6709 -1.3319
  434MOL0     H59847   8.721   6.308  10.484  0.8237 -1.4532 -0.1906
  434MOL0     H59848   8.775   6.509  10.528  0.7739  2.0113  0.3435
  434MOL0     H59849   8.717   6.525  10.695 -0.9079 -0.7293  0.3758
  434MOL0     H59850   9.097   6.365  10.566  0.4644 -0.0435  0.8823
  434MOL0     H59851   9.441   6.528  10.568  0.1978  1.3891  1.7019
  434MOL0     H59852   9.339   6.547  10.431  0.2283 -1.8447 -0.4055
  434MOL0     H59853   9.352   6.386  10.517 -0.7122 -0.2405  0.0924
  434MOL0     H59854   9.508   6.896  10.976  2.6713 -0.9639 -0.3448
  434MOL0     H59855   9.640   7.110  10.989  1.3478  0.4777 -0.0070
  434MOL0     H59856   9.500   7.400  10.798  1.0318  0.6798 -1.1693
  434MOL0     H59857   9.619   7.488  10.882 -1.6542 -0.9495  1.3948
  434MOL0     H59858   9.774   7.512  10.702  0.7265 -0.2937  1.3236
  434MOL0     H59859   9.700   7.388  10.615 -1.0168  0.3407 -0.6007
  434MOL0     H59860   9.646   7.600  10.513 -1.8287 -1.2646 -1.5603
  434MOL0     H59861   9.576   7.659  10.675 -0.0049  1.4817 -1.6073
  434MOL0     H59862   9.399   7.535  10.669  2.3647 -0.6061  1.7819
  434MOL0     H59863   9.433   7.439  10.525 -3.2893 -0.0153  1.6181
  434MOL0     H59864   9.391   7.742  10.523 -2.1501 -0.6846  0.3141
  434MOL0     H59865   9.472   7.642  10.396  0.5589 -3.1480 -0.0737
  434MOL0     H59866   9.188   7.586  10.484  0.1669 -1.4348 -0.0982
  434MOL0     H59867   9.295   7.512  10.367 -1.7317 -2.7250  4.1513
  434MOL0     H59868   9.284   7.712  10.226  3.4753 -2.3811  0.7498
  434MOL0     H59869   9.200   7.804  10.359  2.0346  0.8506 -1.1310
  434MOL0     H59870   9.081   7.547  10.240  2.5473 -0.1762 -0.0760
  434MOL0     H59871   9.052   7.705  10.171  1.0702 -0.0625 -0.7998
  434MOL0     H59872   9.531   7.214  10.595 -2.8235  3.5371  2.7828
  434MOL0     H59873   9.382   7.021  10.577  0.7221  0.0096  0.3576
  434MOL0     H59874   9.087   6.799  10.797  0.4277 -0.5246  0.0750
  434MOL0     H59875   8.895   6.650  10.793  1.7490  0.9909  1.3984
  434MOL0     H59876   7.103   6.634  10.348  2.5751  0.3877  2.4554
  434MOL0     H59877   6.908   6.716  10.278  0.3283 -0.2123 -0.4577
  434MOL0     H59878   6.575   6.867  10.046 -0.4500 -0.9937  0.3988
  434MOL0     H59879   6.355   6.955   9.978 -0.6374 -0.4044  0.0866
  434MOL0     H59880   6.221   7.155  10.052 -1.1390  0.9125  1.7103
  434MOL0     H59881   6.134   7.060   9.935  0.9023 -0.7506  1.0780
  434MOL0     H59882   5.986   7.185  10.175  0.4567  1.3720 -0.1421
  434MOL0     H59883   5.928   7.098  10.032 -0.6687 -1.0980  1.9533
  434MOL0     H59884   6.007   7.383  10.092 -0.7936  0.7848  0.7170
  434MOL0     H59885   6.067   7.338   9.935 -0.0575 -1.1812 -0.8403
  434MOL0     H59886   5.809   7.441   9.984 -1.4136 -0.3284  0.4197
  434MOL0     H59887   5.771   7.279  10.024 -0.6505  0.4772  0.3679
  434MOL0     H59888   5.816   7.241   9.615  3.5463 -2.8662  0.7553
  434MOL0     H59889   6.177   6.854  10.341  0.5624  2.5940  0.1014
  434MOL0     H59890   6.280   6.670  10.472  0.4800 -0.3068 -0.1610
  434MOL0     H59891   6.435   6.603  10.422 -1.5290 -1.4430  0.9715
  434MOL0     H59892   6.431   6.747  10.524  0.3650  0.4215 -0.7063
  435MOL0     O59893   4.643  10.773  11.026 -0.0825 -0.4325  0.5224
  435MOL0     C59894   4.587  10.792  11.132 -0.3362  0.0558 -0.1821
  435MOL0     O59895   4.654  10.812  11.251 -0.2631 -0.6212 -0.3627
  435MOL0     C59896   4.797  10.810  11.246  0.2197 -0.0690  0.4005
  435MOL0     C59897   4.865  10.688  11.250 -0.0232  0.2868 -0.1619
  435MOL0     C59898   5.002  10.689  11.230 -0.0990 -0.3117 -0.4362
  435MOL0     C59899   5.079  10.803  11.198  0.6105 -0.0767 -0.3210
  435MOL0     O59900   5.211  10.792  11.151 -0.3317  0.4017 -0.7491
  435MOL0     C59901   5.248  10.890  11.058  0.9352 -0.1744  0.3181
  435MOL0     C59902   5.378  10.863  10.987  0.2696 -0.5342 -0.3539
  435MOL0     C59903   5.419  10.714  10.979  0.1294 -0.3514  0.3208
  435MOL0     C59904   5.562  10.704  10.934  0.3444  0.3542  1.1859
  435MOL0     C59905   5.578  10.732  10.784  0.0789 -0.8012  0.5863
  435MOL0     C59906   5.715  10.714  10.726  0.2769 -0.0833  0.0593
  435MOL0     C59907   5.826  10.803  10.786 -0.9684 -0.6204 -0.3451
  435MOL0     C59908   5.950  10.786  10.704  0.2199 -0.1669  0.7385
  435MOL0     N59909   6.011  10.657  10.730 -0.3477 -0.7147 -0.3858
  435MOL0     C59910   6.080  10.621  10.837  0.5341  0.4387 -0.4044
  435MOL0     C59911   6.114  10.485  10.815  0.6968  0.0356 -0.6437
  435MOL0     C59912   6.160  10.390  10.926  0.3939 -0.8797 -0.0692
  435MOL0     C59913   6.288  10.316  10.888 -0.0578  0.7646 -0.4446
  435MOL0     C59914   6.389  10.367  10.788  0.4296  0.3297 -0.1409
  435MOL0     C59915   6.516  10.286  10.787  0.8413  0.9045 -0.0058
  435MOL0     O59916   6.609  10.335  10.690  0.2670 -0.0467 -0.6234
  435MOL0     C59917   6.742  10.308  10.700 -0.1007 -0.1625  0.0060
  435MOL0     C59918   6.834  10.385  10.627 -0.3628  0.0002 -0.3673
  435MOL0     C59919   6.970  10.366  10.645  0.0787  0.0063  0.4390
  435MOL0     C59920   7.069  10.463  10.587  0.0953  0.4682 -0.0567
  435MOL0     C59921   7.017  10.253  10.725 -0.1913 -0.5793  0.8482
  435MOL0     C59922   7.155  10.204  10.742  0.0712 -0.3317 -0.6137
  435MOL0     O59923   7.259  10.253  10.659 -0.2431  0.0492  0.2611
  435MOL0     C59924   7.385  10.210  10.694  0.1200  0.5422  0.9635
  435MOL0     C59925   7.416  10.089  10.622  0.8933  0.2513 -0.0796
  435MOL0     C59926   7.546  10.030  10.645  0.4605 -0.0434  0.9274
  435MOL0     C59927   7.636  10.089  10.738  0.1969 -0.0362  0.0009
  435MOL0     O59928   7.751  10.016  10.746 -0.2024 -0.5714 -0.4909
  435MOL0     C59929   7.849  10.065  10.843 -0.0768  0.1182  0.7362
  435MOL0     C59930   7.992  10.011  10.807 -0.0346  0.1089 -0.4095
  435MOL0     C59931   8.025  10.071  10.677  0.1489 -0.1753  0.2758
  435MOL0     C59932   8.177  10.057  10.652  0.2988  0.1840  0.1498
  435MOL0     C59933   8.212  10.116  10.512 -0.4540  0.1328 -0.0660
  435MOL0     C59934   8.368  10.103  10.501  0.4367 -0.5532 -0.1678
  435MOL0     C59935   8.405  10.116  10.359  0.1355  1.3098  0.5172
  435MOL0     C59936   8.561  10.121  10.335  0.5775  0.8572  0.6966
  435MOL0    Cl59937   8.631  10.260  10.424 -0.0770 -0.3607  0.5283
  435MOL0     C59938   7.601  10.215  10.805  0.2580 -0.3572  0.2947
  435MOL0     C59939   7.478  10.271  10.776 -0.7090 -0.7819  0.2953
  435MOL0     O59940   7.177  10.126  10.833 -0.9415 -0.4559  0.8558
  435MOL0     C59941   6.922  10.182  10.797 -0.8520  0.3869 -0.5132
  435MOL0     C59942   6.784  10.207  10.787 -0.5278  0.9049 -0.1024
  435MOL0     N59943   6.063  10.449  10.701 -0.0594  0.6523 -0.0101
  435MOL0     N59944   6.006  10.551  10.654 -0.1806  0.5095 -0.5058
  435MOL0     C59945   5.008  10.927  11.201 -0.5658 -0.2705  0.6040
  435MOL0     C59946   4.875  10.929  11.233  0.1677  0.4117 -0.8350
  435MOL0     C59947   4.433  10.793  11.141 -0.6077  0.3271 -0.4615
  435MOL0     C59948   4.371  10.781  11.267 -0.0641  0.2076 -0.2997
  435MOL0     C59949   4.240  10.761  11.288 -0.2736 -0.4702  1.2148
  435MOL0     C59950   4.151  10.786  11.184  0.1366  0.3279  0.3658
  435MOL0     O59951   4.014  10.775  11.193  0.5534  0.0595 -0.2107
  435MOL0     C59952   3.957  10.724  11.312 -0.6403  0.0528  0.3014
  435MOL0     C59953   3.802  10.734  11.313 -0.5138 -0.0207  0.2290
  435MOL0     C59954   3.740  10.673  11.444 -0.2663  0.6307  0.0111
  435MOL0     C59955   3.628  10.573  11.421  0.2714  0.4038 -0.1016
  435MOL0     C59956   3.515  10.650  11.367  0.9906  0.2419 -0.2585
  435MOL0     C59957   3.421  10.721  11.324 -0.1170  0.0368  1.1947
  435MOL0     C59958   4.205  10.804  11.052 -0.2338  0.2878 -0.3163
  435MOL0     C59959   4.343  10.803  11.031  0.8726  0.1603  0.0263
  435MOL0     C59960   4.389  10.806  10.887  1.4310  0.8228 -0.2474
  435MOL0     H59961   4.801  10.603  11.270  1.0111 -0.7746 -1.1947
  435MOL0     H59962   5.047  10.592  11.210 -1.8562 -0.7853 -2.4917
  435MOL0     H59963   5.268  10.975  11.123 -0.6329 -1.1566  2.2093
  435MOL0     H59964   5.163  10.912  10.993 -0.9305 -0.3132  2.5761
  435MOL0     H59965   5.379  10.896  10.882 -0.0436 -2.4115 -0.9715
  435MOL0     H59966   5.461  10.918  11.032  0.5078 -1.5037  0.4019
  435MOL0     H59967   5.424  10.679  11.083  2.9585  0.6987  0.6094
  435MOL0     H59968   5.355  10.658  10.910 -4.2178  0.4148  3.3058
  435MOL0     H59969   5.629  10.775  10.983  1.9005  0.7491 -1.3047
  435MOL0     H59970   5.589  10.598  10.945 -0.8469 -0.4867 -2.3982
  435MOL0     H59971   5.562  10.839  10.768 -0.3625 -1.1881 -2.0135
  435MOL0     H59972   5.506  10.669  10.732 -1.7279 -1.1728  3.3476
  435MOL0     H59973   5.748  10.611  10.738  0.1535 -0.0200  0.9963
  435MOL0     H59974   5.708  10.741  10.620  2.4820  1.0957  0.1443
  435MOL0     H59975   5.845  10.762  10.885  0.9590  0.6293 -0.1412
  435MOL0     H59976   5.796  10.908  10.799 -1.3074 -0.4963 -1.8689
  435MOL0     H59977   5.926  10.803  10.599 -1.5067  2.3717  1.4362
  435MOL0     H59978   6.020  10.870  10.717 -1.6040  1.2848  1.7483
  435MOL0     H59979   6.096  10.678  10.927  1.1201  2.0165 -1.4586
  435MOL0     H59980   6.073  10.326  10.938 -0.4326  0.7319  5.5861
  435MOL0     H59981   6.167  10.454  11.015  2.5415  3.0411 -2.7351
  435MOL0     H59982   6.337  10.289  10.982 -4.8578 -0.2376  2.0953
  435MOL0     H59983   6.249  10.224  10.845 -1.0265  0.4365  1.0444
  435MOL0     H59984   6.342  10.355  10.690 -0.4947  2.1435  0.0273
  435MOL0     H59985   6.414  10.473  10.800  1.8779 -0.0848  0.6431
  435MOL0     H59986   6.567  10.297  10.883 -0.0942  2.9065  0.3268
  435MOL0     H59987   6.501  10.179  10.772  0.9144  0.9070 -0.0987
  435MOL0     H59988   6.803  10.474  10.573  1.3181  1.3335  0.7636
  435MOL0     H59989   7.021  10.520  10.507 -1.5400  0.9914  1.2357
  435MOL0     H59990   7.163  10.420  10.551  0.4770 -0.5827  2.0252
  435MOL0     H59991   7.109  10.535  10.659  2.6236 -1.1898  0.3250
  435MOL0     H59992   7.344  10.034  10.563  1.0455  3.2830 -3.4225
  435MOL0     H59993   7.573   9.931  10.610  0.1725 -0.8873  2.9595
  435MOL0     H59994   7.864  10.172  10.827 -1.0746  0.2467  0.5793
  435MOL0     H59995   7.820  10.041  10.946 -0.9631 -0.7166  0.3111
  435MOL0     H59996   8.065  10.044  10.882 -0.2745  1.4862 -0.7476
  435MOL0     H59997   7.989   9.903  10.794  0.6941  0.0582 -0.1937
  435MOL0     H59998   8.002  10.178  10.673  0.6579 -0.0970 -0.8681
  435MOL0     H59999   7.972  10.022  10.594  1.2361 -1.6094  0.3870
  435MOL0     H60000   8.190   9.949  10.670 -0.0895  0.3681  1.6371
  435MOL0     H60001   8.238  10.103  10.730  1.1720 -1.6870  0.6524
  435MOL0     H60002   8.165  10.069  10.426 -0.0852 -0.8045  0.2283
  435MOL0     H60003   8.187  10.222  10.508  0.7884  0.4686  0.5207
  435MOL0     H60004   8.403  10.004  10.532  1.9451  0.7191  2.4416
  435MOL0     H60005   8.418  10.176  10.564  0.6907 -1.3316  0.5510
  435MOL0     H60006   8.369  10.209  10.315 -0.3221  0.4154 -1.0901
  435MOL0     H60007   8.362  10.028  10.309 -0.3742 -0.2879  3.5368
  435MOL0     H60008   8.593  10.128  10.231  0.2317 -2.4374  0.2531
  435MOL0     H60009   8.608  10.025  10.361 -1.0570 -0.7226 -1.6736
  435MOL0     H60010   7.673  10.250  10.878 -2.5151  0.3493  2.8470
  435MOL0     H60011   7.452  10.366  10.822  1.2959  0.2039 -0.4877
  435MOL0     H60012   6.956  10.097  10.855  0.9605 -2.4304 -5.1380
  435MOL0     H60013   6.713  10.152  10.848  0.8704 -0.5695  0.2831
  435MOL0     H60014   5.048  11.027  11.188 -0.2176  0.0970  3.6688
  435MOL0     H60015   4.829  11.027  11.235 -1.3553 -0.1715  3.5884
  435MOL0     H60016   4.435  10.784  11.354  2.0716  1.0309 -1.7854
  435MOL0     H60017   4.207  10.748  11.390 -0.2440  2.5776  1.7069
  435MOL0     H60018   3.969  10.617  11.328 -1.7527  0.0795  1.4496
  435MOL0     H60019   3.992  10.784  11.397  0.7374 -0.8768  0.4251
  435MOL0     H60020   3.763  10.678  11.227  1.5431 -1.3409  0.0881
  435MOL0     H60021   3.763  10.835  11.296 -2.1535 -0.4507  1.2324
  435MOL0     H60022   3.819  10.627  11.505 -1.2402 -0.2261  0.6717
  435MOL0     H60023   3.720  10.758  11.510  0.8925  0.9846 -0.0787
  435MOL0     H60024   3.601  10.528  11.517  1.8986 -2.3530 -0.8536
  435MOL0     H60025   3.659  10.496  11.351 -1.6295 -1.0624  0.5780
  435MOL0     H60026   3.357  10.791  11.274  0.0241  0.5274  1.6947
  435MOL0     H60027   4.149  10.825  10.962  2.5287  1.6717 -1.8378
  435MOL0     H60028   4.464  10.885  10.882  0.6908  1.7650  2.0074
  435MOL0     H60029   4.422  10.709  10.848 -0.3607  0.0040  0.1443
  435MOL0     H60030   4.304  10.830  10.822  1.5252 -0.9285 -1.0835
  436MOL0     O60031   5.804   1.431   8.456  0.5056 -0.3818  0.2023
  436MOL0     C60032   5.816   1.318   8.502 -0.3442 -0.2866 -0.4207
  436MOL0     O60033   5.923   1.245   8.492 -0.0405  0.2579  1.0126
  436MOL0     C60034   6.032   1.279   8.407  0.2357  1.0465 -0.1084
  436MOL0     C60035   6.150   1.213   8.446  0.5031  0.3392 -0.3354
  436MOL0     C60036   6.271   1.236   8.383 -0.1520 -0.5664  0.0027
  436MOL0     C60037   6.281   1.330   8.286  0.3281  0.3019 -0.3783
  436MOL0     O60038   6.390   1.367   8.217  0.2360 -0.0319 -0.6499
  436MOL0     C60039   6.437   1.499   8.252  0.2493 -0.8498  0.1079
  436MOL0     C60040   6.569   1.527   8.186 -0.0943  0.3964  0.1070
  436MOL0     C60041   6.682   1.443   8.237  0.0744  0.8706 -1.0941
  436MOL0     C60042   6.700   1.312   8.156  0.0450  0.8940  0.5791
  436MOL0     C60043   6.814   1.233   8.201 -0.0779  0.7427  0.4331
  436MOL0     C60044   6.837   1.103   8.119 -0.4788  0.7543 -0.7827
  436MOL0     C60045   6.985   1.063   8.153  0.8803  0.6934  0.0720
  436MOL0     C60046   7.095   1.151   8.089  0.4445 -0.4621 -0.2801
  436MOL0     N60047   7.235   1.106   8.131 -0.2441 -0.9317 -0.4274
  436MOL0     C60048   7.319   1.028   8.059  0.0708 -0.3156  0.1857
  436MOL0     C60049   7.440   1.048   8.106  0.2472 -0.2198  0.1952
  436MOL0     C60050   7.557   0.968   8.073  0.4539  0.1262  0.1272
  436MOL0     C60051   7.689   1.020   8.139 -0.2827  0.1399 -1.0594
  436MOL0     C60052   7.794   0.923   8.102 -0.4702 -0.8524 -1.2837
  436MOL0     C60053   7.931   0.960   8.164  0.0151 -0.8076 -0.5146
  436MOL0     O60054   8.025   0.856   8.126  0.0404  0.2781 -0.0205
  436MOL0     C60055   8.156   0.873   8.151  0.4681  0.6495 -0.6119
  436MOL0     C60056   8.244   0.767   8.126 -0.6781  0.4239  1.2899
  436MOL0     C60057   8.384   0.784   8.119  0.9614 -0.6909 -0.6381
  436MOL0     C60058   8.467   0.666   8.074  0.4581 -0.1978 -0.7646
  436MOL0     C60059   8.447   0.908   8.152  0.4649 -0.1398 -0.1271
  436MOL0     C60060   8.591   0.921   8.190  0.0202  0.1186 -0.7225
  436MOL0     O60061   8.642   1.048   8.174 -0.4224 -0.4544 -0.1629
  436MOL0     C60062   8.769   1.045   8.133  0.2635 -0.2872 -0.6139
  436MOL0     C60063   8.865   1.112   8.206 -0.4445 -0.4651  0.1613
  436MOL0     C60064   8.980   1.153   8.153 -0.6110  0.0368 -0.0304
  436MOL0     C60065   9.015   1.126   8.016 -0.0861  0.1300 -0.8090
  436MOL0     O60066   9.139   1.171   7.978 -0.4804  0.8963 -0.0057
  436MOL0     C60067   9.182   1.127   7.853 -0.4510  0.1494  0.3124
  436MOL0     C60068   9.328   1.156   7.845 -0.3645  0.1608 -0.2719
  436MOL0     C60069   9.405   1.067   7.746  0.1057  0.1570 -0.3692
  436MOL0     C60070   9.549   1.104   7.723 -0.2000 -0.7359 -0.4612
  436MOL0     C60071   9.640   1.100   7.850 -0.6968  0.3993 -0.0275
  436MOL0     C60072   9.659   0.956   7.903 -0.2886 -0.6552 -0.5933
  436MOL0     C60073   9.752   0.951   8.022 -0.0163 -0.2234 -0.7202
  436MOL0     C60074   9.778   0.810   8.074  0.0727 -0.3104  0.9967
  436MOL0    Cl60075   9.855   0.720   7.940 -0.0605 -0.0999 -0.4302
  436MOL0     C60076   8.922   1.057   7.942 -0.5126  0.5118  0.2336
  436MOL0     C60077   8.797   1.005   7.997  0.1582  0.0623 -0.2345
  436MOL0     O60078   8.654   0.826   8.233  0.0314  0.1962 -0.2116
  436MOL0     C60079   8.360   1.017   8.185  0.0964 -0.0765 -0.4136
  436MOL0     C60080   8.216   1.001   8.171  0.5253  1.2672 -0.3309
  436MOL0     N60081   7.421   1.135   8.214  0.3981  0.7550  0.2006
  436MOL0     N60082   7.302   1.169   8.231 -0.1843  0.2143 -0.7186
  436MOL0     C60083   6.166   1.389   8.236 -1.0840  0.5712  0.7014
  436MOL0     C60084   6.041   1.374   8.300  0.4374  0.1535  0.0564
  436MOL0     C60085   5.691   1.264   8.556  0.4187  0.5050 -0.1186
  436MOL0     C60086   5.659   1.126   8.534 -0.7516 -0.4690  0.3114
  436MOL0     C60087   5.534   1.071   8.562  1.0598  0.2333 -0.7764
  436MOL0     C60088   5.430   1.153   8.622  0.2025  0.1654  0.8863
  436MOL0     O60089   5.311   1.100   8.662  0.2574  0.9425  0.0262
  436MOL0     C60090   5.254   0.982   8.596  0.2170 -0.7751 -0.7745
  436MOL0     C60091   5.110   1.014   8.567  0.7294  0.3189  0.3793
  436MOL0     C60092   5.038   0.896   8.494  0.1669 -0.3398  0.3904
  436MOL0     C60093   5.028   0.765   8.575 -0.6136 -0.1923 -0.4372
  436MOL0     C60094   4.987   0.655   8.487 -0.5194 -1.5815 -0.4515
  436MOL0     C60095   4.955   0.558   8.419  0.2911  0.1047 -0.7547
  436MOL0     C60096   5.459   1.285   8.639  0.8207  0.2938 -0.6846
  436MOL0     C60097   5.585   1.344   8.615 -0.2631  0.3830  0.3009
  436MOL0     C60098   5.586   1.495   8.640 -0.0181 -0.5207  1.0345
  436MOL0     H60099   6.163   1.138   8.524  1.9802 -0.3280 -1.1986
  436MOL0     H60100   6.365   1.183   8.400  0.2963  0.4393  0.7352
  436MOL0     H60101   6.444   1.514   8.360 -2.2139 -3.6789  0.8014
  436MOL0     H60102   6.369   1.580   8.224  2.3374  0.9112 -0.1498
  436MOL0     H60103   6.555   1.529   8.078 -1.8069 -1.8551  0.2264
  436MOL0     H60104   6.602   1.622   8.231  0.6753  0.6365 -0.9364
  436MOL0     H60105   6.771   1.505   8.248 -1.6187  3.0868  1.4831
  436MOL0     H60106   6.655   1.416   8.340 -1.3621 -0.9029 -1.8716
  436MOL0     H60107   6.610   1.250   8.168  0.9524 -1.0938 -2.0427
  436MOL0     H60108   6.714   1.328   8.049  0.0835 -2.7807 -0.1153
  436MOL0     H60109   6.790   1.205   8.304 -0.4215 -0.5892  0.0032
  436MOL0     H60110   6.892   1.308   8.216  0.9076 -0.4758  1.6969
  436MOL0     H60111   6.763   1.029   8.153  1.2127 -0.8223 -0.3768
  436MOL0     H60112   6.827   1.105   8.010  0.1727 -0.6808 -0.8889
  436MOL0     H60113   6.994   0.963   8.111 -2.8268  1.0468 -1.9325
  436MOL0     H60114   7.006   1.060   8.261 -2.3825 -1.1147  0.7990
  436MOL0     H60115   7.104   1.154   7.980  0.6491  1.6586 -0.2540
  436MOL0     H60116   7.087   1.253   8.127 -3.2580 -1.0548  0.8758
  436MOL0     H60117   7.298   0.968   7.970  3.0235 -0.9648 -0.1740
  436MOL0     H60118   7.574   0.969   7.965 -3.3528  1.4113 -0.6049
  436MOL0     H60119   7.546   0.862   8.097  0.5458 -0.6103 -2.7820
  436MOL0     H60120   7.720   1.116   8.097  0.6140  0.3619  0.0618
  436MOL0     H60121   7.687   1.029   8.248 -0.2777  2.6290 -1.2050
  436MOL0     H60122   7.770   0.822   8.136  2.2361 -0.4092  2.5014
  436MOL0     H60123   7.810   0.928   7.994 -2.2383 -0.1632 -1.5644
  436MOL0     H60124   7.952   1.064   8.137 -2.0893  0.3728  2.0293
  436MOL0     H60125   7.925   0.960   8.273 -0.1004 -1.1682 -0.5188
  436MOL0     H60126   8.201   0.670   8.099  2.2661 -1.1668  1.9326
  436MOL0     H60127   8.539   0.700   8.000 -0.5026  0.8773 -1.2216
  436MOL0     H60128   8.406   0.586   8.032 -2.0714 -0.2833  2.6623
  436MOL0     H60129   8.515   0.626   8.164  1.7263  0.2408 -1.2311
  436MOL0     H60130   8.847   1.149   8.306 -0.0582  0.2908 -0.0433
  436MOL0     H60131   9.043   1.220   8.211  0.0159 -0.9487  0.4477
  436MOL0     H60132   9.174   1.018   7.842  0.4298  0.2269 -1.3822
  436MOL0     H60133   9.124   1.177   7.775 -1.2020 -0.9151  0.1700
  436MOL0     H60134   9.327   1.261   7.812 -2.2480  1.1428  2.5538
  436MOL0     H60135   9.367   1.136   7.945 -2.3961 -1.3681  0.2623
  436MOL0     H60136   9.354   1.070   7.650 -0.1390 -0.1333 -0.2524
  436MOL0     H60137   9.399   0.964   7.785 -1.2305  1.1875  2.4706
  436MOL0     H60138   9.568   1.208   7.697  3.9434 -0.9190  1.0350
  436MOL0     H60139   9.583   1.043   7.638 -3.2237  0.2294 -2.5120
  436MOL0     H60140   9.737   1.145   7.827 -0.4691 -0.8281 -1.6961
  436MOL0     H60141   9.601   1.165   7.929 -1.1607  2.1599 -1.6058
  436MOL0     H60142   9.696   0.891   7.823  0.1430 -0.4159 -0.5891
  436MOL0     H60143   9.563   0.909   7.928  0.8620 -1.5007  2.8260
  436MOL0     H60144   9.704   1.003   8.105 -2.6881 -1.5055 -1.3383
  436MOL0     H60145   9.844   1.004   7.994 -2.1494  4.1602 -0.2211
  436MOL0     H60146   9.686   0.754   8.098  0.4836 -1.9881 -1.0221
  436MOL0     H60147   9.846   0.817   8.159  3.7649  2.9319 -1.8582
  436MOL0     H60148   8.945   1.038   7.838 -0.7445  2.3452 -0.2000
  436MOL0     H60149   8.723   0.952   7.938  1.2154 -2.9190  0.9703
  436MOL0     H60150   8.397   1.113   8.221 -3.0301  0.5054  1.7208
  436MOL0     H60151   8.152   1.088   8.169 -0.1057  0.8158 -0.0219
  436MOL0     H60152   6.182   1.454   8.151  1.6797 -0.0213  0.6666
  436MOL0     H60153   5.956   1.434   8.269  1.1359  2.0016  1.5615
  436MOL0     H60154   5.732   1.058   8.493  1.7525  0.1123  3.4076
  436MOL0     H60155   5.517   0.965   8.548 -0.8383  0.0843  1.8544
  436MOL0     H60156   5.312   0.965   8.504  1.3968 -1.8517  0.1316
  436MOL0     H60157   5.252   0.893   8.659 -1.1622 -0.4044 -0.2620
  436MOL0     H60158   5.108   1.100   8.500  0.1103 -0.1021 -0.1612
  436MOL0     H60159   5.052   1.037   8.657  0.5950 -3.0304  1.3092
  436MOL0     H60160   4.938   0.924   8.461  1.1462  3.9194  0.4224
  436MOL0     H60161   5.090   0.889   8.398 -0.8992  2.3380 -0.4959
  436MOL0     H60162   4.961   0.772   8.661  1.0088  4.5768  0.7490
  436MOL0     H60163   5.129   0.731   8.601 -0.6107 -2.6372 -3.1402
  436MOL0     H60164   4.926   0.476   8.357 -0.2816 -0.4630  0.2333
  436MOL0     H60165   5.371   1.338   8.674  0.2984 -0.8084 -0.2756
  436MOL0     H60166   5.548   1.550   8.553  0.5773  0.8851  1.6322
  436MOL0     H60167   5.509   1.516   8.715 -0.7800 -0.6476  0.3024
  436MOL0     H60168   5.686   1.522   8.674  0.9260  0.7923 -2.3836
  437MOL0     O60169   9.710   8.536   1.166 -0.1446  0.2091 -0.1380
  437MOL0     C60170   9.680   8.512   1.048  0.6137 -0.5001 -0.0335
  437MOL0     O60171   9.762   8.484   0.945 -1.2848  0.2461 -0.6383
  437MOL0     C60172   9.894   8.496   0.982  0.7531  0.6128 -0.0396
  437MOL0     C60173   9.975   8.602   0.927  0.6531  0.3220  0.6316
  437MOL0     C60174  10.117   8.601   0.940  0.5484 -0.4387 -0.2329
  437MOL0     C60175  10.186   8.490   0.990  0.9079  0.2336  0.4282
  437MOL0     O60176  10.324   8.487   0.978 -0.4993  0.0166  0.1734
  437MOL0     C60177  10.389   8.363   1.000  0.0354  0.0638  0.0159
  437MOL0     C60178  10.541   8.387   0.987  0.1697 -0.0643  0.2282
  437MOL0     C60179  10.599   8.465   1.109  0.5014  0.5295 -0.2156
  437MOL0     C60180  10.744   8.525   1.074 -0.4024 -0.3189 -0.3644
  437MOL0     C60181  10.796   8.623   1.186  0.3125 -0.7708 -0.4736
  437MOL0     C60182  10.809   8.542   1.314 -0.0949  0.1680  0.0460
  437MOL0     C60183  10.872   8.617   1.436 -0.2306  0.9131  0.0059
  437MOL0     C60184  11.019   8.597   1.425  0.1109 -0.0216 -0.1138
  437MOL0     N60185  11.085   8.660   1.544 -0.2710 -0.3205  0.6272
  437MOL0     C60186  11.084   8.599   1.670  0.3923  0.3147 -0.2421
  437MOL0     C60187  11.146   8.686   1.753 -0.3189 -0.2488  0.4097
  437MOL0     C60188  11.168   8.663   1.904 -0.2214 -0.0174  0.5095
  437MOL0     C60189  11.299   8.613   1.935 -0.8362 -0.7734  0.1828
  437MOL0     C60190  11.398   8.727   1.948 -0.1948  0.2181  0.6750
  437MOL0     C60191  11.537   8.671   1.992 -1.2532 -0.5143  0.7097
  437MOL0     O60192  11.636   8.773   1.977 -0.5982 -0.5538 -0.5547
  437MOL0     C60193  11.764   8.739   2.018 -0.1689 -0.0151  1.1030
  437MOL0     C60194  11.798   8.749   2.151  0.1951 -0.1032  0.1627
  437MOL0     C60195  11.930   8.741   2.186 -0.0409  0.0599  0.1504
  437MOL0     C60196  11.948   8.749   2.336  0.4608  0.4367  0.1714
  437MOL0     C60197  12.033   8.707   2.094 -0.2032 -0.6702 -0.8133
  437MOL0     C60198  12.169   8.706   2.136 -0.2903  0.5042 -0.7424
  437MOL0     O60199  12.210   8.761   2.248  0.0692  0.2562 -0.5588
  437MOL0     C60200  12.340   8.762   2.287 -0.4502 -0.2983  0.7211
  437MOL0     C60201  12.403   8.886   2.317  0.0804 -0.1102  1.1334
  437MOL0     C60202  12.527   8.894   2.371 -0.3487 -0.7687 -0.1362
  437MOL0     C60203  12.599   8.776   2.402  0.6493 -0.4080  0.6022
  437MOL0     O60204  12.730   8.769   2.451  0.0123 -0.2180 -0.4754
  437MOL0     C60205  12.769   8.887   2.524  0.6237 -0.4277 -0.0564
  437MOL0     C60206  12.853   8.868   2.655  0.1293  0.5004 -0.2230
  437MOL0     C60207  12.776   8.791   2.758 -0.3782 -0.2815 -0.8243
  437MOL0     C60208  12.874   8.707   2.841  0.0184  0.3282 -0.2097
  437MOL0     C60209  12.798   8.617   2.950  0.8873 -0.1037  0.0089
  437MOL0     C60210  12.904   8.582   3.053  0.4489 -0.4275 -0.2999
  437MOL0     C60211  13.021   8.487   3.008  0.4764  0.5530 -1.1201
  437MOL0     C60212  13.139   8.491   3.100  0.9736 -0.6869 -0.6278
  437MOL0    Cl60213  13.260   8.381   3.054  0.5227  0.0884  0.8003
  437MOL0     C60214  12.545   8.648   2.366  0.6664  0.5108  0.3331
  437MOL0     C60215  12.415   8.648   2.308 -0.0049 -0.4396  0.6327
  437MOL0     O60216  12.237   8.646   2.055 -0.5770 -0.2991 -0.2970
  437MOL0     C60217  11.993   8.683   1.968  0.0800 -0.6581  0.6245
  437MOL0     C60218  11.863   8.698   1.927 -0.0385 -0.3094  0.3527
  437MOL0     N60219  11.200   8.784   1.673  0.1847  0.2612 -0.5234
  437MOL0     N60220  11.171   8.762   1.550  0.1148 -0.2293  0.1855
  437MOL0     C60221  10.105   8.391   1.048  0.6586  0.0299 -0.6102
  437MOL0     C60222   9.964   8.390   1.045  0.0277 -1.1534 -1.0285
  437MOL0     C60223   9.534   8.528   1.015 -0.1814  0.8618 -0.8949
  437MOL0     C60224   9.445   8.521   1.120 -0.3514  0.0521 -0.1904
  437MOL0     C60225   9.301   8.520   1.100 -0.0780 -0.2354 -0.3458
  437MOL0     C60226   9.251   8.540   0.970 -0.3023  1.0146  0.3120
  437MOL0     O60227   9.117   8.533   0.930 -0.4383 -0.8062 -0.4948
  437MOL0     C60228   9.027   8.495   1.035  0.3554 -0.6969  0.7736
  437MOL0     C60229   8.893   8.496   0.969  1.2480  0.1038 -0.0161
  437MOL0     C60230   8.829   8.641   0.953  0.0709  0.3080  0.2808
  437MOL0     C60231   8.699   8.635   0.855  0.1498  0.6532  0.2340
  437MOL0     C60232   8.619   8.749   0.867  0.8554 -0.9974 -0.1086
  437MOL0     C60233   8.550   8.855   0.879 -0.4881 -0.2372 -0.1941
  437MOL0     C60234   9.338   8.570   0.870  0.2081 -0.2056  0.2835
  437MOL0     C60235   9.478   8.551   0.891 -0.3938  0.2022 -0.0449
  437MOL0     C60236   9.560   8.569   0.764 -0.2649 -0.2690 -0.3601
  437MOL0     H60237   9.925   8.676   0.865  0.9552 -2.3872 -3.1863
  437MOL0     H60238  10.170   8.691   0.910 -0.2391 -0.3063 -1.2593
  437MOL0     H60239  10.361   8.292   0.922  4.2358 -1.7110 -0.1585
  437MOL0     H60240  10.364   8.328   1.100 -3.8137 -0.0313 -0.8447
  437MOL0     H60241  10.585   8.287   0.990 -0.5324 -0.3541  2.1520
  437MOL0     H60242  10.567   8.434   0.892 -0.0201  0.5532  0.4764
  437MOL0     H60243  10.538   8.553   1.132 -1.0015 -0.5259 -0.0336
  437MOL0     H60244  10.589   8.406   1.200 -1.5320  0.5165 -0.4003
  437MOL0     H60245  10.805   8.435   1.088 -1.5339 -0.7533  2.4139
  437MOL0     H60246  10.743   8.569   0.974  1.4121 -1.7113 -1.0573
  437MOL0     H60247  10.726   8.706   1.197  2.0835  0.4894  2.7156
  437MOL0     H60248  10.890   8.671   1.156  1.0550 -1.9068 -0.0653
  437MOL0     H60249  10.712   8.503   1.346  0.0705 -0.0686  0.2707
  437MOL0     H60250  10.871   8.455   1.291 -0.7417 -0.0145 -1.0390
  437MOL0     H60251  10.848   8.562   1.527  3.7729 -0.4765  0.4495
  437MOL0     H60252  10.839   8.718   1.462  2.6871  1.6281  1.4362
  437MOL0     H60253  11.058   8.496   1.410  4.4819  0.9253  2.8415
  437MOL0     H60254  11.057   8.645   1.334 -0.1881 -3.8141 -2.4504
  437MOL0     H60255  11.044   8.507   1.711  0.9120  0.8525  1.5442
  437MOL0     H60256  11.090   8.590   1.929  3.2659 -3.5975  1.9353
  437MOL0     H60257  11.143   8.748   1.968 -0.5859 -0.8724  1.5493
  437MOL0     H60258  11.289   8.552   2.025 -1.0013 -2.6371 -1.0433
  437MOL0     H60259  11.320   8.551   1.848 -1.8996  0.5889 -1.0983
  437MOL0     H60260  11.417   8.777   1.852  0.1425  1.2861  1.2804
  437MOL0     H60261  11.364   8.798   2.024 -2.0177 -1.7221  1.7754
  437MOL0     H60262  11.526   8.632   2.094  1.2842 -2.6485  0.2780
  437MOL0     H60263  11.566   8.594   1.920 -1.1903  2.7256 -3.0255
  437MOL0     H60264  11.717   8.766   2.221  1.5558  2.1510  1.3383
  437MOL0     H60265  11.977   8.848   2.372  0.8517  1.7822 -3.4176
  437MOL0     H60266  12.027   8.685   2.376 -0.0215 -0.9952 -1.0564
  437MOL0     H60267  11.857   8.717   2.387  1.9863 -0.6208  2.3891
  437MOL0     H60268  12.349   8.979   2.299  2.1580  0.5113 -3.2298
  437MOL0     H60269  12.573   8.983   2.413  0.0887 -1.5655  1.1377
  437MOL0     H60270  12.811   8.952   2.446 -0.9350 -0.2420 -0.7774
  437MOL0     H60271  12.687   8.948   2.561 -0.1704 -1.6797  0.3072
  437MOL0     H60272  12.936   8.806   2.618 -1.9231 -1.8578 -1.1404
  437MOL0     H60273  12.889   8.962   2.698  1.7498 -1.3475  2.8350
  437MOL0     H60274  12.703   8.725   2.712  1.0007 -1.6062 -1.1938
  437MOL0     H60275  12.717   8.854   2.825 -1.5171 -1.3114 -0.8295
  437MOL0     H60276  12.945   8.767   2.898  0.6441  0.2838 -0.9355
  437MOL0     H60277  12.934   8.645   2.774 -0.9737  1.2364 -2.0156
  437MOL0     H60278  12.710   8.666   2.993  1.4141 -0.6216  1.7544
  437MOL0     H60279  12.762   8.524   2.904  0.7352  0.4598 -1.0656
  437MOL0     H60280  12.856   8.531   3.138 -1.0664  0.7444 -0.3965
  437MOL0     H60281  12.943   8.671   3.103  0.3169 -1.3338  1.5063
  437MOL0     H60282  13.054   8.493   2.904 -1.7724 -0.1716 -1.9388
  437MOL0     H60283  12.977   8.387   3.015 -1.1587  1.3010 -0.3564
  437MOL0     H60284  13.110   8.479   3.204  0.2401  0.4469 -0.6749
  437MOL0     H60285  13.180   8.593   3.101 -0.3897 -0.0938 -1.3313
  437MOL0     H60286  12.607   8.560   2.375  0.5090  0.2986 -0.5872
  437MOL0     H60287  12.368   8.552   2.287  1.8485 -1.2441 -0.0214
  437MOL0     H60288  12.056   8.636   1.893 -3.0211 -1.7301 -1.4970
  437MOL0     H60289  11.825   8.680   1.827 -1.2580 -0.1402  0.7681
  437MOL0     H60290  10.164   8.308   1.087 -1.8674 -2.1646 -1.1733
  437MOL0     H60291   9.905   8.313   1.092  2.3408 -1.6244  1.3193
  437MOL0     H60292   9.485   8.515   1.221  1.1689 -1.9852 -0.8661
  437MOL0     H60293   9.233   8.494   1.181 -1.2693  1.7804 -0.6209
  437MOL0     H60294   9.053   8.400   1.083 -0.9667 -0.0857  2.8290
  437MOL0     H60295   9.024   8.575   1.110 -3.8146 -0.4356  0.5977
  437MOL0     H60296   8.822   8.445   1.035 -2.4210  2.1182 -2.0576
  437MOL0     H60297   8.900   8.447   0.872  2.9884 -0.4769  0.3648
  437MOL0     H60298   8.807   8.679   1.053  2.2524 -1.3406  1.4792
  437MOL0     H60299   8.894   8.707   0.894  0.5226 -1.8052 -1.7600
  437MOL0     H60300   8.637   8.547   0.875  0.9657  0.3049  1.3299
  437MOL0     H60301   8.742   8.625   0.755  0.2105  0.5981  0.2650
  437MOL0     H60302   8.488   8.942   0.879 -1.4194 -0.8869 -0.6996
  437MOL0     H60303   9.300   8.589   0.771 -2.3407 -1.9383  0.8313
  437MOL0     H60304   9.611   8.487   0.714 -2.4640  0.4497 -4.1459
  437MOL0     H60305   9.489   8.606   0.689  1.0873 -0.2127 -1.6495
  437MOL0     H60306   9.632   8.649   0.784 -0.6235  0.4370 -1.7699
  438MOL0     O60307   5.347   2.889   3.995 -0.3159 -0.4865 -0.3440
  438MOL0     C60308   5.433   2.918   3.911  0.1413  0.8236  0.7940
  438MOL0     O60309   5.424   2.878   3.785 -0.4292 -0.0578 -0.4399
  438MOL0     C60310   5.298   2.832   3.746 -0.4212 -0.4408 -0.4833
  438MOL0     C60311   5.238   2.899   3.644  0.5421 -0.2666  0.2283
  438MOL0     C60312   5.125   2.849   3.590  0.9810  0.3202  0.0864
  438MOL0     C60313   5.066   2.744   3.645  0.1581  0.7901  0.7216
  438MOL0     O60314   4.955   2.699   3.585  0.3292 -0.4073 -0.4199
  438MOL0     C60315   4.844   2.796   3.592 -0.4321 -0.2823 -0.1378
  438MOL0     C60316   4.714   2.723   3.607 -0.3803 -0.4599 -0.0697
  438MOL0     C60317   4.610   2.829   3.581  0.7355  0.0379  0.2631
  438MOL0     C60318   4.469   2.765   3.614 -0.4361  1.0250 -0.7886
  438MOL0     C60319   4.351   2.862   3.594 -0.4258 -0.4444 -0.2209
  438MOL0     C60320   4.359   2.978   3.693  0.5495  0.4156  0.7039
  438MOL0     C60321   4.248   3.080   3.675 -0.9335  0.3809  0.0659
  438MOL0     C60322   4.106   3.011   3.670 -0.3806 -0.4411  0.3839
  438MOL0     N60323   3.990   3.098   3.653  0.7070 -0.0055 -0.5592
  438MOL0     C60324   3.863   3.050   3.633 -0.5578  0.3498  0.0738
  438MOL0     C60325   3.778   3.151   3.667  0.0701  0.1838  0.6878
  438MOL0     C60326   3.623   3.143   3.642  0.0645 -0.1662 -0.0555
  438MOL0     C60327   3.587   3.120   3.497 -0.2480 -0.8201 -0.7264
  438MOL0     C60328   3.475   3.019   3.474  0.5597  0.4614 -0.0214
  438MOL0     C60329   3.465   2.990   3.322  0.2704 -0.1544  0.3899
  438MOL0     O60330   3.585   2.958   3.263 -0.2239  0.2175 -0.2993
  438MOL0     C60331   3.661   2.849   3.285  0.4451 -0.2080 -0.1731
  438MOL0     C60332   3.799   2.874   3.260 -0.5614  0.4644 -0.4623
  438MOL0     C60333   3.899   2.779   3.282 -0.2087 -0.0883 -0.0032
  438MOL0     C60334   4.039   2.796   3.236 -1.1075  1.1718 -0.1013
  438MOL0     C60335   3.857   2.668   3.348  0.1303 -0.2917  0.3342
  438MOL0     C60336   3.949   2.565   3.411 -0.4643 -0.7764  0.7217
  438MOL0     O60337   4.055   2.620   3.486  0.3479  0.5136  0.2594
  438MOL0     C60338   4.155   2.532   3.513 -0.4612 -0.1341  0.0403
  438MOL0     C60339   4.146   2.455   3.623  0.0846  0.3157  0.2894
  438MOL0     C60340   4.256   2.379   3.661  0.9695 -0.1599 -0.3311
  438MOL0     C60341   4.367   2.369   3.593 -0.2719  0.0209  0.3037
  438MOL0     O60342   4.475   2.294   3.639  0.3664  0.0802  0.3058
  438MOL0     C60343   4.467   2.237   3.771 -0.4535  0.0189  0.7851
  438MOL0     C60344   4.591   2.150   3.799  0.4690  0.7626 -0.6431
  438MOL0     C60345   4.619   2.056   3.677 -1.2542  0.0835  0.8430
  438MOL0     C60346   4.743   1.970   3.712  0.7695  0.0275  0.1173
  438MOL0     C60347   4.785   1.885   3.592  0.3051 -0.3141 -0.0386
  438MOL0     C60348   4.937   1.877   3.588  0.2053 -0.2954  0.1854
  438MOL0     C60349   4.982   1.791   3.469  0.0149 -0.4518 -0.4354
  438MOL0     C60350   4.978   1.637   3.497  0.1526 -0.0100  0.4216
  438MOL0    Cl60351   5.095   1.555   3.409 -0.3348 -0.1838  0.2513
  438MOL0     C60352   4.379   2.444   3.481 -0.3394 -0.0493 -0.1516
  438MOL0     C60353   4.273   2.530   3.437  0.3502  0.0179 -0.3812
  438MOL0     O60354   3.942   2.452   3.362  0.3498  0.7539 -0.1634
  438MOL0     C60355   3.721   2.646   3.379 -0.3089  0.4734  0.5555
  438MOL0     C60356   3.619   2.731   3.339  0.1052  0.2665 -0.4244
  438MOL0     N60357   3.847   3.264   3.718  0.1339 -0.1001  0.1388
  438MOL0     N60358   3.973   3.222   3.714 -0.0588  0.2092 -0.2458
  438MOL0     C60359   5.116   2.664   3.749  0.1243 -0.3688 -0.3672
  438MOL0     C60360   5.237   2.715   3.800 -0.4172 -0.0344 -0.1573
  438MOL0     C60361   5.554   3.003   3.939  0.2239  0.0884  0.2168
  438MOL0     C60362   5.655   3.006   3.843 -0.5283  0.1784  0.8693
  438MOL0     C60363   5.770   3.090   3.859  0.9959  0.3556  0.1672
  438MOL0     C60364   5.786   3.161   3.979 -0.1299 -0.5913 -0.1027
  438MOL0     O60365   5.908   3.232   3.980 -0.0796  0.2672 -0.7071
  438MOL0     C60366   5.930   3.320   4.096 -0.5987  0.1480 -0.0854
  438MOL0     C60367   6.070   3.384   4.082  0.3004  0.6162 -0.1577
  438MOL0     C60368   6.077   3.498   3.973  0.5651  0.2512  0.5753
  438MOL0     C60369   6.067   3.638   4.019  0.3726 -1.0803 -0.1508
  438MOL0     C60370   5.934   3.676   4.062 -0.0139  0.4120 -0.3505
  438MOL0     C60371   5.826   3.714   4.105  0.7355  0.3349  0.0962
  438MOL0     C60372   5.685   3.145   4.080 -0.5863 -0.0338  1.0270
  438MOL0     C60373   5.565   3.074   4.058  0.8749 -0.0807 -0.4918
  438MOL0     C60374   5.460   3.084   4.164  0.3732 -0.3339  0.4960
  438MOL0     H60375   5.293   2.985   3.607  2.0898 -1.1103  0.4883
  438MOL0     H60376   5.073   2.904   3.512 -0.0716  0.7145  1.0411
  438MOL0     H60377   4.838   2.858   3.503 -3.0538 -0.5781 -0.2517
  438MOL0     H60378   4.860   2.871   3.670 -2.4099 -0.2471  0.2850
  438MOL0     H60379   4.708   2.645   3.531  0.6766 -0.9099  0.2887
  438MOL0     H60380   4.700   2.673   3.703 -0.3638 -1.7173 -0.7101
  438MOL0     H60381   4.629   2.912   3.650 -1.7939  1.5938 -0.7924
  438MOL0     H60382   4.617   2.861   3.477 -0.9893 -0.0480  0.0921
  438MOL0     H60383   4.468   2.677   3.548  2.6800  1.7281 -1.9619
  438MOL0     H60384   4.470   2.730   3.718  1.2296 -0.0461 -1.1184
  438MOL0     H60385   4.269   2.796   3.624 -0.4004  0.4005  1.8205
  438MOL0     H60386   4.342   2.896   3.491 -1.2798  0.6067  0.1893
  438MOL0     H60387   4.363   2.937   3.795 -0.4821  2.1459  1.4883
  438MOL0     H60388   4.453   3.033   3.691 -0.6639  2.6262 -0.8844
  438MOL0     H60389   4.270   3.142   3.588  0.7472  0.6433  0.6369
  438MOL0     H60390   4.243   3.147   3.762 -2.0730 -0.7867  0.9391
  438MOL0     H60391   4.102   2.939   3.588  0.2418 -1.1676  0.9762
  438MOL0     H60392   4.095   2.956   3.764 -1.3709 -1.8902 -0.5345
  438MOL0     H60393   3.837   2.952   3.593 -0.2643  0.4103 -0.2793
  438MOL0     H60394   3.576   3.235   3.679  0.8236 -0.0823  0.7407
  438MOL0     H60395   3.592   3.056   3.700  2.0334  0.1180  1.5348
  438MOL0     H60396   3.545   3.212   3.456  0.2699 -0.2044  0.1051
  438MOL0     H60397   3.673   3.089   3.436  0.4301  0.3734 -0.4089
  438MOL0     H60398   3.495   2.922   3.520 -0.4123 -0.0246 -0.5723
  438MOL0     H60399   3.374   3.052   3.500  0.5322  1.6553 -1.5175
  438MOL0     H60400   3.393   2.912   3.294 -0.1485  0.4870 -0.3614
  438MOL0     H60401   3.421   3.068   3.259  0.9230 -1.3939 -1.7014
  438MOL0     H60402   3.837   2.968   3.223  2.0111  0.4589  1.8620
  438MOL0     H60403   4.054   2.850   3.142 -0.3706  0.9962 -0.0953
  438MOL0     H60404   4.095   2.706   3.213  1.7751  2.2363  2.0346
  438MOL0     H60405   4.093   2.843   3.319  0.3161 -2.0613  0.9616
  438MOL0     H60406   4.060   2.462   3.688 -0.2658  2.0244 -0.3132
  438MOL0     H60407   4.246   2.328   3.757  1.8056 -2.9084 -1.5982
  438MOL0     H60408   4.450   2.317   3.844  1.7244  0.0091  1.3606
  438MOL0     H60409   4.383   2.166   3.772  0.3438 -0.9575  0.5850
  438MOL0     H60410   4.674   2.221   3.806  2.7306 -1.6083 -1.3372
  438MOL0     H60411   4.582   2.094   3.892 -0.7370  1.3507 -0.3887
  438MOL0     H60412   4.641   2.103   3.581  2.7134 -1.9814  0.5102
  438MOL0     H60413   4.524   2.004   3.665 -2.5885  2.3900  0.8526
  438MOL0     H60414   4.730   1.907   3.801  0.5476 -1.0521 -0.6566
  438MOL0     H60415   4.821   2.032   3.758 -0.0503  0.7213  0.5930
  438MOL0     H60416   4.732   1.793   3.615 -4.3059  2.2072  0.5742
  438MOL0     H60417   4.744   1.924   3.498 -0.7291  3.2305  1.7107
  438MOL0     H60418   4.973   1.837   3.683 -1.4594 -0.3664  0.8310
  438MOL0     H60419   4.972   1.981   3.583 -0.3406 -0.1038  0.1897
  438MOL0     H60420   5.088   1.814   3.451  0.6344 -2.3017  0.5696
  438MOL0     H60421   4.928   1.824   3.381  0.2290 -3.3332 -1.7506
  438MOL0     H60422   4.880   1.604   3.460  1.5716 -1.5641 -2.2414
  438MOL0     H60423   4.974   1.612   3.604  1.5167  2.1668  1.0468
  438MOL0     H60424   4.477   2.442   3.436  0.4528 -4.5492  1.2351
  438MOL0     H60425   4.280   2.595   3.351  2.0440 -2.4270 -2.2501
  438MOL0     H60426   3.698   2.558   3.439  1.9570 -0.1273  0.6357
  438MOL0     H60427   3.516   2.708   3.365  0.2623  3.2116  3.8811
  438MOL0     H60428   5.058   2.579   3.785 -2.9845  1.5418 -0.5298
  438MOL0     H60429   5.281   2.672   3.890 -0.7177 -0.7237 -0.3385
  438MOL0     H60430   5.644   2.945   3.753 -0.9125  0.7308  0.5400
  438MOL0     H60431   5.849   3.099   3.785  2.1673 -0.7085  1.2403
  438MOL0     H60432   5.859   3.402   4.090 -1.2189 -0.3580  0.1912
  438MOL0     H60433   5.912   3.272   4.193 -0.6500  1.3467  0.5111
  438MOL0     H60434   6.145   3.306   4.070 -0.1286  0.5146 -2.4718
  438MOL0     H60435   6.091   3.427   4.181  0.5720 -1.9269  0.9750
  438MOL0     H60436   6.180   3.483   3.942  0.7602 -1.3313  1.8686
  438MOL0     H60437   6.026   3.463   3.883  0.5084 -1.1071  1.1110
  438MOL0     H60438   6.099   3.691   3.928  2.4871 -0.9564  0.6055
  438MOL0     H60439   6.142   3.663   4.094 -0.8724  2.1353  0.1672
  438MOL0     H60440   5.733   3.738   4.151 -0.5733 -1.0856 -1.6780
  438MOL0     H60441   5.695   3.186   4.179  4.7714 -0.1299  0.8507
  438MOL0     H60442   5.372   3.129   4.118  1.4958  0.1711 -1.2600
  438MOL0     H60443   5.433   2.991   4.214 -1.3412  0.6572  1.4870
  438MOL0     H60444   5.490   3.152   4.245 -1.5811  0.5541  0.5293
  439MOL0     O60445   7.705   8.283  10.420 -0.4369 -0.0348 -0.5597
  439MOL0     C60446   7.775   8.233  10.510 -0.3063 -0.5562  0.3529
  439MOL0     O60447   7.904   8.198  10.502 -0.2683 -0.5783  0.7367
  439MOL0     C60448   7.959   8.195  10.381 -0.1425 -0.0256 -0.2122
  439MOL0     C60449   7.914   8.103  10.282 -0.1374 -0.0201  0.1716
  439MOL0     C60450   7.975   8.102  10.158 -0.3329  0.0922 -0.1679
  439MOL0     C60451   8.090   8.180  10.127 -0.2044 -0.2395  0.4013
  439MOL0     O60452   8.165   8.169  10.014  0.9300 -0.4355  0.3918
  439MOL0     C60453   8.100   8.130   9.889  0.3947 -0.2427 -0.2382
  439MOL0     C60454   8.185   8.171   9.767  0.3976 -0.1640 -0.2023
  439MOL0     C60455   8.222   8.317   9.768  0.2441 -0.1295  0.1578
  439MOL0     C60456   8.366   8.332   9.825 -0.2038  0.0480  0.9972
  439MOL0     C60457   8.383   8.486   9.834 -0.0828 -0.3604  0.5417
  439MOL0     C60458   8.507   8.524   9.900 -0.5125 -0.4962 -0.3098
  439MOL0     C60459   8.633   8.507   9.809 -0.7084 -0.5461 -0.1471
  439MOL0     C60460   8.758   8.502   9.897  0.2462  0.3472 -0.6562
  439MOL0     N60461   8.882   8.530   9.829 -0.4815  0.2209  0.5657
  439MOL0     C60462   8.971   8.435   9.775  0.1215 -0.1994 -0.0041
  439MOL0     C60463   9.049   8.504   9.690 -0.0151  0.8487 -0.3235
  439MOL0     C60464   9.162   8.441   9.606 -0.2540 -0.5711 -0.3607
  439MOL0     C60465   9.299   8.469   9.666 -0.7728  0.0690  0.6012
  439MOL0     C60466   9.391   8.353   9.621  0.0274 -1.7505 -0.2772
  439MOL0     C60467   9.533   8.376   9.681 -0.6451  0.9359 -0.0939
  439MOL0     O60468   9.583   8.504   9.671 -0.0355  0.2748 -0.6168
  439MOL0     C60469   9.710   8.519   9.710  0.6233 -0.1291 -0.0580
  439MOL0     C60470   9.753   8.654   9.705  0.2689  0.7623 -0.4800
  439MOL0     C60471   9.886   8.689   9.753  0.0934 -0.1422  0.7506
  439MOL0     C60472   9.922   8.827   9.710  0.1921 -0.1133  0.1101
  439MOL0     C60473   9.965   8.585   9.818 -0.3563 -0.5228 -0.0176
  439MOL0     C60474  10.101   8.610   9.873  0.1504  0.4092  0.1231
  439MOL0     O60475  10.154   8.729   9.837 -0.5978  0.7448  0.2953
  439MOL0     C60476  10.279   8.784   9.872  0.1673  0.2249  1.2096
  439MOL0     C60477  10.371   8.731   9.956 -0.0708  0.5040 -0.3990
  439MOL0     C60478  10.499   8.780   9.983 -0.1575 -0.4702 -0.7956
  439MOL0     C60479  10.532   8.900   9.914 -0.6936  0.6911 -0.7897
  439MOL0     O60480  10.655   8.959   9.904  0.5439  0.6808  0.0679
  439MOL0     C60481  10.765   8.900   9.982  0.5032  1.1254 -0.1864
  439MOL0     C60482  10.880   9.004  10.008 -0.0780  0.1480 -0.1482
  439MOL0     C60483  10.961   8.968  10.134 -0.3448  0.1102  0.1311
  439MOL0     C60484  11.030   8.834  10.131 -0.1243  0.4796 -0.0014
  439MOL0     C60485  11.078   8.790  10.263  0.9834 -0.0487 -0.2542
  439MOL0     C60486  11.182   8.673  10.258  0.3942 -0.3445 -0.4902
  439MOL0     C60487  11.139   8.531  10.199 -0.5044 -0.1369 -0.0336
  439MOL0     C60488  11.009   8.485  10.256  0.1913 -0.5690  0.1429
  439MOL0    Cl60489  11.006   8.306  10.237 -0.0695 -0.0525 -0.2132
  439MOL0     C60490  10.437   8.958   9.835  0.4068  0.0761 -0.0701
  439MOL0     C60491  10.320   8.895   9.804  0.0239 -0.6348 -0.9496
  439MOL0     O60492  10.154   8.517   9.941 -0.0709 -0.7121  0.3631
  439MOL0     C60493   9.914   8.454   9.811  0.5462  0.6128  0.1245
  439MOL0     C60494   9.790   8.424   9.771 -0.5785  0.2557 -0.2852
  439MOL0     N60495   9.021   8.640   9.700  0.2165 -0.2361 -0.9193
  439MOL0     N60496   8.911   8.651   9.782 -0.6693 -1.0570  0.4849
  439MOL0     C60497   8.131   8.267  10.230 -0.7129  0.7966 -0.1960
  439MOL0     C60498   8.064   8.281  10.352 -0.4115  0.2562 -0.0704
  439MOL0     C60499   7.722   8.218  10.647  0.7267 -0.2710  1.1741
  439MOL0     C60500   7.814   8.173  10.746 -0.6058  0.3550 -0.6610
  439MOL0     C60501   7.784   8.166  10.888  0.1603  0.2841  0.2759
  439MOL0     C60502   7.652   8.190  10.923  0.3848 -0.1201  0.0035
  439MOL0     O60503   7.610   8.165  11.058 -0.3121  0.5048 -0.3474
  439MOL0     C60504   7.498   8.222  11.122 -0.3278 -0.7007 -0.1919
  439MOL0     C60505   7.547   8.372  11.156 -0.4837  0.6671 -0.3308
  439MOL0     C60506   7.443   8.452  11.225  0.1513 -0.6373  0.5233
  439MOL0     C60507   7.385   8.400  11.358 -0.0316  0.3850  0.0053
  439MOL0     C60508   7.486   8.403  11.469 -0.4653  1.5099 -0.6796
  439MOL0     C60509   7.559   8.401  11.565 -0.4969  0.1398  0.4189
  439MOL0     C60510   7.559   8.225  10.825 -0.9048  0.6228  0.3280
  439MOL0     C60511   7.587   8.245  10.685  0.5714 -0.3393 -1.2928
  439MOL0     C60512   7.474   8.293  10.592  0.1414  0.1127 -0.0203
  439MOL0     H60513   7.827   8.042  10.305 -1.7051  2.2457  0.5836
  439MOL0     H60514   7.939   8.027  10.089  1.4351 -1.8295  0.8640
  439MOL0     H60515   8.006   8.187   9.886  0.8847  0.5512 -0.8667
  439MOL0     H60516   8.082   8.024   9.870  3.2827 -0.8153 -0.1088
  439MOL0     H60517   8.277   8.111   9.764 -0.8899 -2.3755  0.9798
  439MOL0     H60518   8.121   8.153   9.681 -1.4577  0.1023  1.0728
  439MOL0     H60519   8.221   8.341   9.661  2.7320  0.2295  0.1483
  439MOL0     H60520   8.148   8.377   9.820 -0.3003 -2.4904  2.2973
  439MOL0     H60521   8.372   8.283   9.922  0.5341 -0.6725  0.6025
  439MOL0     H60522   8.441   8.285   9.760 -1.7007 -1.7585  0.4927
  439MOL0     H60523   8.313   8.527   9.907 -0.0815  0.6018  0.0190
  439MOL0     H60524   8.373   8.535   9.737 -3.2006  0.0978  1.0043
  439MOL0     H60525   8.506   8.629   9.928 -1.6551  0.4708 -3.5479
  439MOL0     H60526   8.524   8.466   9.992  1.2143  0.1173 -0.2113
  439MOL0     H60527   8.634   8.593   9.741 -2.8613  0.1372  0.6131
  439MOL0     H60528   8.630   8.413   9.752  1.3351 -0.8598  0.1737
  439MOL0     H60529   8.744   8.584   9.968  1.9783  1.4407 -1.5170
  439MOL0     H60530   8.760   8.400   9.938  0.0422  0.9708  0.9926
  439MOL0     H60531   8.990   8.331   9.795  3.5604  0.1941 -0.6247
  439MOL0     H60532   9.158   8.462   9.499 -4.9828  3.0483  0.1888
  439MOL0     H60533   9.136   8.335   9.607  1.4673 -1.1230  2.9023
  439MOL0     H60534   9.339   8.563   9.628 -0.3142  0.3174  1.6703
  439MOL0     H60535   9.292   8.478   9.775 -0.5615  1.2606  0.5277
  439MOL0     H60536   9.347   8.256   9.644 -0.5373 -1.0353  1.8631
  439MOL0     H60537   9.408   8.374   9.515  2.5463  0.3203  0.4195
  439MOL0     H60538   9.516   8.345   9.785 -4.1426 -1.3361 -1.1467
  439MOL0     H60539   9.600   8.310   9.625 -0.9099  0.6850 -0.1200
  439MOL0     H60540   9.669   8.715   9.672  0.0339 -0.2138 -1.7630
  439MOL0     H60541   9.955   8.882   9.799  0.6379 -3.2472  2.0540
  439MOL0     H60542   9.832   8.872   9.668 -0.0269 -2.1746 -1.8531
  439MOL0     H60543   9.995   8.811   9.630  0.0064 -1.3270  0.1650
  439MOL0     H60544  10.347   8.637  10.005 -0.4026  0.9450  0.3062
  439MOL0     H60545  10.557   8.724  10.055 -1.4448  0.0510  0.6973
  439MOL0     H60546  10.732   8.880  10.084  0.2009 -0.7469 -0.6337
  439MOL0     H60547  10.817   8.819   9.931  0.0050  0.3520  0.5152
  439MOL0     H60548  10.950   9.016   9.924  1.3287 -0.8055  0.8608
  439MOL0     H60549  10.819   9.095  10.016 -2.3288 -1.4022  1.5238
  439MOL0     H60550  10.896   8.969  10.223 -1.2536 -1.6429 -0.4451
  439MOL0     H60551  11.039   9.044  10.141 -0.5793  0.2270  3.6098
  439MOL0     H60552  11.113   8.851  10.062  1.0472  1.0367  1.4908
  439MOL0     H60553  10.967   8.751  10.097 -1.2091 -0.1630  3.1801
  439MOL0     H60554  11.118   8.883  10.304  1.1710 -0.3085  0.1666
  439MOL0     H60555  10.995   8.752  10.324  1.6588 -2.5784 -0.7804
  439MOL0     H60556  11.222   8.666  10.360  0.7614 -3.1127 -0.7536
  439MOL0     H60557  11.271   8.700  10.200  1.2662  1.0199  1.3504
  439MOL0     H60558  11.208   8.448  10.215  2.2040  1.8633 -0.6475
  439MOL0     H60559  11.135   8.543  10.090  1.8416  0.6303 -0.0874
  439MOL0     H60560  10.912   8.524  10.224 -0.2365 -0.3247  1.6518
  439MOL0     H60561  11.022   8.517  10.360  1.6872  3.3603 -1.0989
  439MOL0     H60562  10.455   9.045   9.773  0.7093  0.5620  0.6953
  439MOL0     H60563  10.255   8.936   9.727 -1.6831  0.5235  1.0083
  439MOL0     H60564   9.975   8.375   9.853  1.2490  1.3988  0.6180
  439MOL0     H60565   9.763   8.319   9.779  1.6388 -0.3852 -0.6895
  439MOL0     H60566   8.218   8.329  10.209 -0.2776  0.8991  1.6928
  439MOL0     H60567   8.089   8.351  10.432  2.6425  0.1824 -0.8120
  439MOL0     H60568   7.915   8.139  10.723 -1.5647 -1.6870 -2.1655
  439MOL0     H60569   7.848   8.135  10.970 -2.3434 -3.2204  1.1467
  439MOL0     H60570   7.404   8.222  11.067 -1.1673 -0.4848  1.2116
  439MOL0     H60571   7.480   8.173  11.218  1.7438 -0.0664  0.5900
  439MOL0     H60572   7.573   8.424  11.063 -0.6121 -0.5142 -1.0502
  439MOL0     H60573   7.640   8.359  11.212  0.2746  1.3727 -1.3886
  439MOL0     H60574   7.479   8.551  11.255 -1.0243 -0.1193  0.3136
  439MOL0     H60575   7.364   8.468  11.151 -0.6228 -1.6612  1.0890
  439MOL0     H60576   7.341   8.300  11.348  0.4900  0.2988 -1.7137
  439MOL0     H60577   7.312   8.473  11.394 -0.3066 -0.8250  2.0981
  439MOL0     H60578   7.643   8.397  11.631  1.0172 -0.3991 -1.4302
  439MOL0     H60579   7.457   8.230  10.862 -1.7643  1.8119 -1.9855
  439MOL0     H60580   7.381   8.277  10.648  0.2469  1.4223  0.5875
  439MOL0     H60581   7.478   8.398  10.561  3.3139 -0.0739 -0.5202
  439MOL0     H60582   7.479   8.226  10.507 -0.3539  2.7397 -2.2729
  440MOL0     O60583   2.636  11.115   3.923 -0.2322  0.1234 -0.0440
  440MOL0     C60584   2.532  11.178   3.936  0.5079 -0.8356 -0.2240
  440MOL0     O60585   2.502  11.255   4.047  0.2807  0.5587 -0.7002
  440MOL0     C60586   2.588  11.267   4.151  0.2306 -0.4787  0.0388
  440MOL0     C60587   2.648  11.394   4.176  0.2313 -0.2501 -0.7153
  440MOL0     C60588   2.739  11.413   4.282 -0.4547  0.8275  0.0470
  440MOL0     C60589   2.768  11.312   4.371  0.2010  0.4669 -0.6787
  440MOL0     O60590   2.860  11.338   4.471 -0.0428  0.4706 -0.5962
  440MOL0     C60591   2.812  11.311   4.599  0.0236  0.6269 -0.9694
  440MOL0     C60592   2.927  11.314   4.689 -0.4832 -0.1592  0.0312
  440MOL0     C60593   3.046  11.219   4.663  0.9704  0.1297  0.7245
  440MOL0     C60594   3.171  11.241   4.756 -0.1933  0.2368 -0.1344
  440MOL0     C60595   3.270  11.124   4.758  0.2102  0.2773  0.4755
  440MOL0     C60596   3.392  11.151   4.843 -0.6649  0.3296 -0.5924
  440MOL0     C60597   3.493  11.038   4.857  0.0193  0.1232  0.4760
  440MOL0     C60598   3.520  11.009   5.009 -0.0915  0.0302  0.9845
  440MOL0     N60599   3.650  10.931   5.028 -0.0440 -0.0494 -0.3085
  440MOL0     C60600   3.775  10.994   5.022 -0.2561  0.0000 -0.1634
  440MOL0     C60601   3.856  10.889   4.996 -0.3582  0.7918 -0.2581
  440MOL0     C60602   4.007  10.908   4.991 -0.7515  0.3511 -0.5879
  440MOL0     C60603   4.059  10.860   4.861 -0.2740 -0.5153 -1.1207
  440MOL0     C60604   4.081  10.714   4.880 -0.6939  0.4334 -0.2794
  440MOL0     C60605   4.106  10.641   4.742  0.3815  0.4073  0.1482
  440MOL0     O60606   4.183  10.724   4.644  0.4454 -0.4022  0.2808
  440MOL0     C60607   4.123  10.742   4.524 -0.7377  0.4444  0.2663
  440MOL0     C60608   4.102  10.873   4.497 -0.5389  0.3339  0.0872
  440MOL0     C60609   4.026  10.919   4.392  0.5590  0.2873  1.2748
  440MOL0     C60610   4.033  11.072   4.367 -0.3528 -0.4100  0.7926
  440MOL0     C60611   3.974  10.821   4.302 -0.2003  0.2080  0.6051
  440MOL0     C60612   3.912  10.835   4.168 -0.2325 -0.3994 -0.0269
  440MOL0     O60613   3.822  10.934   4.150  1.0887  0.1189 -1.0292
  440MOL0     C60614   3.761  10.939   4.024 -0.4981  0.9156  0.0179
  440MOL0     C60615   3.832  10.978   3.914 -0.9692  1.6810  0.9396
  440MOL0     C60616   3.778  10.992   3.781  0.7153  0.0945 -0.8187
  440MOL0     C60617   3.648  10.950   3.763 -0.6085  0.0443  0.7244
  440MOL0     O60618   3.583  10.948   3.640  0.7453  0.1774  0.1056
  440MOL0     C60619   3.624  11.034   3.534 -0.5490 -0.0629 -0.6920
  440MOL0     C60620   3.543  10.998   3.408 -0.2243  0.1225  0.2720
  440MOL0     C60621   3.602  11.066   3.286 -0.2346  0.1254 -0.8046
  440MOL0     C60622   3.587  10.975   3.160  0.0905  0.3326 -0.1797
  440MOL0     C60623   3.615  11.048   3.036  0.6266  0.4596 -0.3030
  440MOL0     C60624   3.636  10.952   2.917  0.8361 -0.1604  0.0523
  440MOL0     C60625   3.651  11.020   2.785  0.2249 -0.3799 -0.8063
  440MOL0     C60626   3.621  10.939   2.667 -0.4183 -0.4796  0.1694
  440MOL0    Cl60627   3.682  10.764   2.683 -0.6920 -0.2557 -0.1207
  440MOL0     C60628   3.569  10.915   3.875 -0.2541  0.1778  0.6209
  440MOL0     C60629   3.629  10.915   4.003  0.3860  0.4818  0.2487
  440MOL0     O60630   3.958  10.755   4.082  0.2774 -0.5287 -0.1927
  440MOL0     C60631   4.009  10.685   4.326  0.0126 -0.2714 -0.8945
  440MOL0     C60632   4.083  10.642   4.439 -0.4371  0.0858  0.7435
  440MOL0     N60633   3.781  10.763   4.997 -0.6454 -0.7591 -0.1998
  440MOL0     N60634   3.657  10.799   5.017  0.1086 -0.9456  0.0719
  440MOL0     C60635   2.715  11.182   4.347  0.5317 -0.4983 -0.6955
  440MOL0     C60636   2.621  11.167   4.241  0.4245 -0.1668 -0.0243
  440MOL0     C60637   2.427  11.186   3.826  0.1233  0.4858 -0.2539
  440MOL0     C60638   2.419  11.080   3.732 -0.8269  0.2699  1.4241
  440MOL0     C60639   2.328  11.077   3.629 -1.0125  0.3499  0.8915
  440MOL0     C60640   2.241  11.181   3.613  0.5066  0.0286 -0.4618
  440MOL0     O60641   2.140  11.198   3.525 -0.0232  0.4027 -0.0241
  440MOL0     C60642   2.135  11.095   3.432  0.1562 -0.5842  0.1294
  440MOL0     C60643   2.039  11.119   3.319  0.0639 -0.1447 -0.0246
  440MOL0     C60644   1.893  11.128   3.348 -0.4334  0.7110 -0.0989
  440MOL0     C60645   1.825  11.263   3.387 -0.2870  0.6694 -0.3218
  440MOL0     C60646   1.686  11.239   3.430 -0.7360  0.5147 -0.8520
  440MOL0     C60647   1.572  11.216   3.453 -0.1272 -0.4339 -0.1319
  440MOL0     C60648   2.251  11.295   3.696 -0.6120  0.6774 -0.4612
  440MOL0     C60649   2.342  11.297   3.797  0.4719  0.1081 -0.2158
  440MOL0     C60650   2.344  11.422   3.880 -0.0218 -0.5294 -0.6057
  440MOL0     H60651   2.631  11.481   4.114  1.2943 -1.6461 -3.0983
  440MOL0     H60652   2.794  11.506   4.291 -0.4563  0.6925  1.6960
  440MOL0     H60653   2.760  11.216   4.611 -0.6051  1.0630 -0.1439
  440MOL0     H60654   2.737  11.382   4.637  1.4498  0.8394  1.6624
  440MOL0     H60655   2.965  11.417   4.689 -1.2561  0.1439  1.1451
  440MOL0     H60656   2.886  11.289   4.787 -1.9662 -1.8496 -0.9609
  440MOL0     H60657   3.003  11.118   4.673 -2.6830  1.5619  1.0378
  440MOL0     H60658   3.080  11.240   4.562 -1.6697  0.8078 -0.1089
  440MOL0     H60659   3.215  11.339   4.733 -0.8654  1.0065  1.6977
  440MOL0     H60660   3.130  11.252   4.856  1.4405  0.1782  0.5610
  440MOL0     H60661   3.301  11.102   4.655 -1.8199 -1.1919  0.1117
  440MOL0     H60662   3.219  11.033   4.790  2.3146 -3.1595 -4.6042
  440MOL0     H60663   3.442  11.228   4.783 -2.0330  0.5998 -1.4177
  440MOL0     H60664   3.366  11.195   4.940  3.2024  4.7349 -1.2045
  440MOL0     H60665   3.583  11.085   4.816 -0.3322  1.5070  1.2495
  440MOL0     H60666   3.469  10.955   4.789  0.2319  0.1606  0.3530
  440MOL0     H60667   3.521  11.100   5.070 -0.7622  0.8121 -0.1330
  440MOL0     H60668   3.430  10.956   5.040 -0.0113 -0.6894  0.0329
  440MOL0     H60669   3.802  11.098   5.034  2.0233 -0.5817  0.0680
  440MOL0     H60670   4.049  10.860   5.080 -2.5309 -2.6803 -1.2373
  440MOL0     H60671   4.028  11.015   5.000 -1.5080  0.3386  2.1411
  440MOL0     H60672   3.984  10.881   4.783 -1.4157 -0.3633 -0.0059
  440MOL0     H60673   4.144  10.920   4.827 -2.0730  2.1333 -1.2949
  440MOL0     H60674   4.165  10.704   4.949  0.0131 -0.0823 -1.1805
  440MOL0     H60675   4.000  10.654   4.922  0.4691 -0.5097  0.6915
  440MOL0     H60676   4.164  10.553   4.771  0.1718  0.5215  0.9518
  440MOL0     H60677   4.016  10.609   4.690 -0.5465  1.8867  0.7709
  440MOL0     H60678   4.147  10.954   4.553 -0.0332  0.1409 -0.0302
  440MOL0     H60679   4.124  11.110   4.320 -0.7590  0.3571  0.6034
  440MOL0     H60680   4.031  11.121   4.465  0.8650  2.3187 -0.4196
  440MOL0     H60681   3.951  11.110   4.306 -0.8501 -0.9296  1.1264
  440MOL0     H60682   3.938  10.998   3.928 -0.3061 -0.8331  0.1386
  440MOL0     H60683   3.835  11.022   3.694 -1.4480 -2.4786 -3.3201
  440MOL0     H60684   3.607  11.138   3.565 -1.4075  0.0625 -1.4992
  440MOL0     H60685   3.729  11.020   3.509 -0.7673 -0.9752 -1.1614
  440MOL0     H60686   3.544  10.891   3.385  0.1675  0.2221 -0.1903
  440MOL0     H60687   3.437  11.021   3.423 -0.4433 -1.0799  0.6427
  440MOL0     H60688   3.709  11.082   3.306 -0.5327 -0.2982  1.4339
  440MOL0     H60689   3.551  11.160   3.266  0.2334  0.9613  1.6171
  440MOL0     H60690   3.489  10.926   3.156  0.5125 -0.6673  0.9114
  440MOL0     H60691   3.658  10.892   3.160 -0.3478 -0.0514  0.0278
  440MOL0     H60692   3.539  11.124   3.015  0.7219  0.2701 -1.3628
  440MOL0     H60693   3.705  11.108   3.047 -0.2115  1.7604 -0.2931
  440MOL0     H60694   3.552  10.883   2.907  0.1865  0.7913 -1.2547
  440MOL0     H60695   3.724  10.890   2.938 -0.1111 -1.7506 -0.5547
  440MOL0     H60696   3.757  11.049   2.785  0.1093  0.0725 -1.5288
  440MOL0     H60697   3.600  11.117   2.788  0.9169 -0.0390  0.5329
  440MOL0     H60698   3.654  10.996   2.580 -1.7185  1.6256  0.9815
  440MOL0     H60699   3.513  10.939   2.652 -0.4105  2.9324 -0.6423
  440MOL0     H60700   3.467  10.879   3.868  0.4592 -2.2037  1.5748
  440MOL0     H60701   3.579  10.880   4.093 -0.6680  0.8713 -0.1728
  440MOL0     H60702   3.984  10.604   4.259  0.2227 -0.4001 -0.8213
  440MOL0     H60703   4.113  10.538   4.452  2.5870  0.4910 -1.8115
  440MOL0     H60704   2.736  11.095   4.409 -2.9397 -0.2935  1.0186
  440MOL0     H60705   2.556  11.082   4.227  1.6468 -1.1461  0.0466
  440MOL0     H60706   2.480  10.991   3.729 -0.5387  0.5009 -0.3680
  440MOL0     H60707   2.328  10.985   3.571  1.3902  1.6524 -1.3871
  440MOL0     H60708   2.234  11.061   3.399  0.4923 -0.6651  1.1873
  440MOL0     H60709   2.095  11.015   3.495 -0.4352 -0.0439  0.4483
  440MOL0     H60710   2.048  11.033   3.252  1.7330  0.1673 -0.2353
  440MOL0     H60711   2.078  11.200   3.257  4.0252 -0.9414  1.1265
  440MOL0     H60712   1.835  11.102   3.259 -0.3054  3.2956 -0.9986
  440MOL0     H60713   1.878  11.052   3.425  0.8363 -0.6982 -1.1809
  440MOL0     H60714   1.823  11.333   3.303  2.2300  2.8009  1.2198
  440MOL0     H60715   1.880  11.308   3.471  1.2852 -3.8318  1.3933
  440MOL0     H60716   1.467  11.218   3.474  0.1957  1.2952  1.6077
  440MOL0     H60717   2.184  11.374   3.665 -0.3266  0.7055 -1.0389
  440MOL0     H60718   2.447  11.453   3.898  0.7163 -0.4027 -4.2407
  440MOL0     H60719   2.301  11.501   3.818 -1.1508 -2.2949 -2.1844
  440MOL0     H60720   2.275  11.395   3.960 -0.6916  0.6495 -0.7509
  441MOL0     O60721   2.661   1.662   5.884 -0.3886  0.3371 -0.1298
  441MOL0     C60722   2.573   1.584   5.937 -0.7775 -0.2698  0.0825
  441MOL0     O60723   2.433   1.612   5.930 -0.7415  0.0883 -0.0731
  441MOL0     C60724   2.377   1.717   5.864 -1.0241  0.3426 -0.2176
  441MOL0     C60725   2.393   1.849   5.923  0.5992  0.4893  0.3644
  441MOL0     C60726   2.321   1.960   5.874  0.2201 -0.0764 -0.1823
  441MOL0     C60727   2.240   1.947   5.758  0.7702  0.2103 -0.3280
  441MOL0     O60728   2.186   2.064   5.706  0.4594 -0.1781  0.0004
  441MOL0     C60729   2.135   2.072   5.575  0.0222  0.6876  0.4635
  441MOL0     C60730   2.099   2.216   5.542  0.9747 -0.0848 -0.3911
  441MOL0     C60731   2.024   2.238   5.412  0.2365  0.7099  0.2892
  441MOL0     C60732   2.116   2.240   5.290  1.2403 -0.2852 -0.4686
  441MOL0     C60733   2.031   2.284   5.171 -1.1547  0.1414 -0.3154
  441MOL0     C60734   2.108   2.260   5.036  0.0176 -0.5132 -0.8310
  441MOL0     C60735   2.233   2.343   5.024 -0.2654 -0.4461  0.4408
  441MOL0     C60736   2.313   2.310   4.890  0.7043  1.3906 -0.9524
  441MOL0     N60737   2.376   2.183   4.905  0.0285  0.1496 -0.4067
  441MOL0     C60738   2.510   2.157   4.952  0.5480  0.1014  0.1264
  441MOL0     C60739   2.527   2.025   4.909 -0.0769 -0.3939 -0.2971
  441MOL0     C60740   2.658   1.945   4.928 -0.0784 -0.3909 -0.2608
  441MOL0     C60741   2.671   1.900   5.081  0.5276  0.4236 -0.3754
  441MOL0     C60742   2.802   1.838   5.119 -1.1849 -0.6825 -0.0753
  441MOL0     C60743   2.848   1.718   5.043 -0.3380  0.4845  0.1217
  441MOL0     O60744   2.954   1.649   5.118  0.2803  0.4455 -0.1414
  441MOL0     C60745   3.036   1.562   5.051 -0.7480  0.0211 -0.3512
  441MOL0     C60746   3.025   1.530   4.919  0.7289  0.5046  0.3254
  441MOL0     C60747   3.116   1.438   4.854 -0.6313 -1.5517 -0.0727
  441MOL0     C60748   3.091   1.417   4.706  0.7725  0.9371 -0.2055
  441MOL0     C60749   3.228   1.384   4.919 -0.2314 -0.5305 -0.7220
  441MOL0     C60750   3.327   1.289   4.868  0.4581  0.3776 -1.1090
  441MOL0     O60751   3.447   1.292   4.934  0.2524 -0.0730  0.3722
  441MOL0     C60752   3.557   1.289   4.846  0.1120 -0.4911 -0.1549
  441MOL0     C60753   3.679   1.240   4.893  0.3802 -0.4277  0.1710
  441MOL0     C60754   3.792   1.229   4.810  0.6798 -0.1875  0.1937
  441MOL0     C60755   3.785   1.274   4.678 -0.5922 -0.4860 -0.8940
  441MOL0     O60756   3.910   1.277   4.618 -0.1298  0.7100  0.2198
  441MOL0     C60757   3.923   1.340   4.493  0.3817 -0.3456  0.1650
  441MOL0     C60758   3.914   1.493   4.504 -0.6403 -0.0033  0.3977
  441MOL0     C60759   3.987   1.555   4.628  0.4058 -0.3876 -0.1254
  441MOL0     C60760   4.137   1.547   4.614  0.5707 -0.0502 -0.5823
  441MOL0     C60761   4.212   1.640   4.710  0.2335 -0.5692 -0.1489
  441MOL0     C60762   4.360   1.599   4.698  1.0705 -0.3133  0.1904
  441MOL0     C60763   4.456   1.692   4.783  0.7093  0.1653 -0.5442
  441MOL0     C60764   4.593   1.629   4.773 -0.2936  0.0663  0.5457
  441MOL0    Cl60765   4.683   1.709   4.635 -0.2956  0.2668  0.2695
  441MOL0     C60766   3.657   1.321   4.625 -0.1894 -0.5161 -0.2533
  441MOL0     C60767   3.548   1.335   4.713  0.6806  0.2771  0.3257
  441MOL0     O60768   3.304   1.205   4.788 -0.5224  0.2640  0.7347
  441MOL0     C60769   3.236   1.418   5.064 -0.4479 -0.1101 -0.1988
  441MOL0     C60770   3.144   1.504   5.126 -0.5302 -0.4309  0.1043
  441MOL0     N60771   2.413   1.970   4.856 -0.0651 -0.4270  0.2362
  441MOL0     N60772   2.334   2.069   4.845  0.2316 -0.2906  0.0536
  441MOL0     C60773   2.222   1.816   5.707 -0.0035  0.0062  0.9681
  441MOL0     C60774   2.292   1.704   5.759  0.5305  0.0417 -0.4789
  441MOL0     C60775   2.617   1.455   5.994  0.9765  0.2270 -0.0397
  441MOL0     C60776   2.531   1.390   6.081 -0.3547 -0.1135  1.2118
  441MOL0     C60777   2.565   1.262   6.125  0.2194  1.0273 -0.8370
  441MOL0     C60778   2.686   1.197   6.106  0.0996 -0.7311 -0.4034
  441MOL0     O60779   2.697   1.067   6.135  0.1487 -0.0703  0.2621
  441MOL0     C60780   2.801   0.984   6.083  0.1539  0.4597 -0.3694
  441MOL0     C60781   2.938   0.978   6.155  0.3254  0.2787 -1.1065
  441MOL0     C60782   3.039   0.871   6.105  0.4991  0.7570 -0.3253
  441MOL0     C60783   3.155   0.860   6.205 -0.1066  1.0579  0.0833
  441MOL0     C60784   3.120   0.778   6.320  0.5304  0.0584 -0.2420
  441MOL0     C60785   3.097   0.703   6.405  0.2005  0.0542 -0.3697
  441MOL0     C60786   2.777   1.271   6.026 -0.3893  0.8200  0.5054
  441MOL0     C60787   2.741   1.394   5.962  0.0408  0.2622  0.1073
  441MOL0     C60788   2.841   1.450   5.868 -0.6571 -0.0532  0.3396
  441MOL0     H60789   2.462   1.861   6.006  0.5523 -3.8212  1.2553
  441MOL0     H60790   2.338   2.054   5.925  2.1194 -1.7995  2.6489
  441MOL0     H60791   2.046   2.009   5.564  0.3922  0.1054  0.7813
  441MOL0     H60792   2.206   2.036   5.500 -0.6516  1.5402 -0.6318
  441MOL0     H60793   2.031   2.249   5.622 -2.6447 -2.6518 -2.1272
  441MOL0     H60794   2.184   2.284   5.554  2.0104 -1.1172 -1.5971
  441MOL0     H60795   1.946   2.162   5.402  2.3795 -1.5446 -0.2458
  441MOL0     H60796   1.960   2.327   5.417 -0.1512  0.4255  0.3946
  441MOL0     H60797   2.197   2.308   5.314  0.3269  0.0443  2.0081
  441MOL0     H60798   2.157   2.138   5.282  0.1697 -0.9872  1.9438
  441MOL0     H60799   2.003   2.390   5.177 -1.5598  0.0664 -0.8361
  441MOL0     H60800   1.937   2.233   5.153 -0.1533 -0.7161 -4.0788
  441MOL0     H60801   2.132   2.154   5.024 -1.7781 -0.9318 -1.0172
  441MOL0     H60802   2.043   2.280   4.950 -1.2798  0.7316  0.3715
  441MOL0     H60803   2.302   2.348   5.109  0.4008  1.4926 -0.1485
  441MOL0     H60804   2.186   2.442   5.019  0.3600 -0.1887 -1.6186
  441MOL0     H60805   2.244   2.303   4.805  0.4050  0.1181 -0.6289
  441MOL0     H60806   2.385   2.390   4.872  1.5170  0.1212 -3.7981
  441MOL0     H60807   2.581   2.217   5.007  2.3960 -1.8409 -0.0191
  441MOL0     H60808   2.747   2.000   4.897  0.1734 -1.9045 -2.4673
  441MOL0     H60809   2.661   1.856   4.864  3.4519  0.1285 -1.0283
  441MOL0     H60810   2.650   1.986   5.145  1.5071 -0.4105  1.1270
  441MOL0     H60811   2.601   1.818   5.100  2.7850 -2.0295 -1.8982
  441MOL0     H60812   2.877   1.918   5.114 -1.9379  0.0248 -0.3159
  441MOL0     H60813   2.800   1.812   5.225  2.9419  1.6352  0.7952
  441MOL0     H60814   2.765   1.651   5.023  1.3596 -0.8831 -3.2263
  441MOL0     H60815   2.880   1.755   4.945 -0.2045  0.7490  0.2626
  441MOL0     H60816   2.941   1.564   4.858  1.5641  3.7754  0.8446
  441MOL0     H60817   3.177   1.452   4.648  2.9339 -0.9798  1.6143
  441MOL0     H60818   2.994   1.461   4.680  0.3221  3.4772  4.6165
  441MOL0     H60819   3.081   1.308   4.697 -2.2277  1.1902 -0.9363
  441MOL0     H60820   3.681   1.214   4.998  1.4948  1.2195  0.6013
  441MOL0     H60821   3.885   1.200   4.859 -0.1089 -0.9852  1.2641
  441MOL0     H60822   4.022   1.317   4.453  0.8414  2.2337 -0.3844
  441MOL0     H60823   3.837   1.318   4.429  0.0781 -0.2627  0.5395
  441MOL0     H60824   3.958   1.534   4.412 -0.0770 -1.2780  0.0761
  441MOL0     H60825   3.810   1.526   4.507 -0.1815  1.4669  0.7906
  441MOL0     H60826   3.951   1.512   4.722 -1.1771  2.7347  0.8364
  441MOL0     H60827   3.967   1.663   4.637 -0.9183 -0.4928 -1.4055
  441MOL0     H60828   4.182   1.561   4.516  0.5687  2.4996 -0.3000
  441MOL0     H60829   4.159   1.444   4.642 -2.1135 -0.7451 -0.7567
  441MOL0     H60830   4.210   1.745   4.683  1.6215 -0.3855  0.3412
  441MOL0     H60831   4.173   1.640   4.813 -0.5673 -0.8574 -0.4461
  441MOL0     H60832   4.391   1.601   4.594  1.0909 -1.9929  0.1439
  441MOL0     H60833   4.366   1.496   4.735 -0.6162 -0.9720 -1.2639
  441MOL0     H60834   4.428   1.696   4.889  1.0137  1.4252 -0.4950
  441MOL0     H60835   4.459   1.797   4.754 -0.1344  0.7257  1.2398
  441MOL0     H60836   4.585   1.522   4.754  0.2473 -0.1467  1.4352
  441MOL0     H60837   4.645   1.645   4.869 -0.2256  1.3077  0.3142
  441MOL0     H60838   3.636   1.362   4.527  0.4503  3.3223  1.0435
  441MOL0     H60839   3.457   1.381   4.676  1.5754  1.5817 -0.3341
  441MOL0     H60840   3.313   1.369   5.123  2.6395 -0.8888 -4.4454
  441MOL0     H60841   3.141   1.523   5.232 -3.6844 -0.1981  0.0737
  441MOL0     H60842   2.146   1.806   5.630 -0.1658  0.9558  0.9927
  441MOL0     H60843   2.270   1.610   5.709 -0.9492  2.3935 -4.7767
  441MOL0     H60844   2.442   1.450   6.097 -0.4063 -0.0043  0.5112
  441MOL0     H60845   2.481   1.209   6.169  1.5507 -0.2474  0.2637
  441MOL0     H60846   2.758   0.883   6.087 -0.6291  0.8165  1.7919
  441MOL0     H60847   2.811   1.000   5.975 -1.3753  0.3396 -0.5536
  441MOL0     H60848   2.916   0.950   6.259 -0.8278  0.2501 -1.3486
  441MOL0     H60849   2.985   1.076   6.155  0.9591 -0.0191 -0.8454
  441MOL0     H60850   2.994   0.772   6.105  0.5890  0.7025  0.8373
  441MOL0     H60851   3.084   0.903   6.010  0.8932  0.3376 -0.2812
  441MOL0     H60852   3.184   0.962   6.232 -1.4086  1.6835 -0.7619
  441MOL0     H60853   3.234   0.812   6.146 -2.0878 -0.4284 -1.5064
  441MOL0     H60854   3.053   0.634   6.473 -0.1315  3.3304  3.0872
  441MOL0     H60855   2.872   1.221   6.014 -0.6034  1.0355 -2.9257
  441MOL0     H60856   2.894   1.536   5.910  0.5440 -0.5835 -0.0474
  441MOL0     H60857   2.923   1.379   5.849  0.0089  0.4434  1.2653
  441MOL0     H60858   2.798   1.486   5.774 -0.0436  2.6732  1.0130
  442MOL0     O60859   9.359   7.816   3.633  0.3548  0.7813  0.3030
  442MOL0     C60860   9.380   7.712   3.563  0.1402  0.2702 -0.7320
  442MOL0     O60861   9.298   7.604   3.556 -0.3666 -0.0081 -0.3862
  442MOL0     C60862   9.179   7.601   3.626  0.3608  0.4401 -0.5251
  442MOL0     C60863   9.163   7.498   3.721  0.0488 -1.0456  0.6803
  442MOL0     C60864   9.043   7.476   3.788  0.5250 -0.9353  0.3382
  442MOL0     C60865   8.931   7.554   3.754 -0.3399 -0.3190 -0.0925
  442MOL0     O60866   8.817   7.519   3.826 -0.8187 -0.0643 -0.6890
  442MOL0     C60867   8.701   7.598   3.815 -0.1300 -0.1898 -0.6997
  442MOL0     C60868   8.603   7.553   3.923 -0.8591 -0.1222  0.8060
  442MOL0     C60869   8.656   7.588   4.063  0.0474  0.3432 -0.2794
  442MOL0     C60870   8.561   7.555   4.176  0.2085  0.3897  0.7985
  442MOL0     C60871   8.600   7.619   4.313  1.0657 -0.2935  0.0652
  442MOL0     C60872   8.546   7.766   4.339 -0.0995 -0.5716  0.3539
  442MOL0     C60873   8.626   7.834   4.450 -0.3149 -0.2421  0.1443
  442MOL0     C60874   8.554   7.953   4.500 -0.5568 -0.6484 -0.0224
  442MOL0     N60875   8.642   8.034   4.599 -0.6255  0.7893  0.1555
  442MOL0     C60876   8.685   8.163   4.590 -0.0948 -0.5290 -0.1941
  442MOL0     C60877   8.733   8.188   4.712 -0.5983  0.5675  1.0702
  442MOL0     C60878   8.782   8.317   4.774  0.2243  0.1566 -0.4614
  442MOL0     C60879   8.930   8.344   4.738 -0.4786  0.8884 -0.2811
  442MOL0     C60880   8.959   8.486   4.787 -0.6301  0.1325  0.7685
  442MOL0     C60881   9.107   8.528   4.769  0.1586 -0.2662  0.3600
  442MOL0     O60882   9.182   8.441   4.860 -0.3048  0.1891 -0.7291
  442MOL0     C60883   9.293   8.495   4.925  0.2809 -0.1446 -0.7866
  442MOL0     C60884   9.418   8.495   4.857 -0.2818 -0.8463  0.0109
  442MOL0     C60885   9.536   8.543   4.921  0.1713  0.2360  0.6099
  442MOL0     C60886   9.655   8.551   4.831  0.5187  0.3153  0.2561
  442MOL0     C60887   9.533   8.581   5.056  0.1886 -0.0418 -0.3240
  442MOL0     C60888   9.659   8.628   5.126 -0.2019  0.3829  0.5405
  442MOL0     O60889   9.763   8.681   5.051  0.4477  0.1110  0.6417
  442MOL0     C60890   9.875   8.723   5.119 -0.1651  0.6545 -0.3061
  442MOL0     C60891   9.992   8.651   5.093 -0.1729  0.5829  0.5789
  442MOL0     C60892  10.114   8.678   5.160 -0.6066 -0.2945 -0.1728
  442MOL0     C60893  10.115   8.770   5.264 -0.3665  0.7509 -0.0910
  442MOL0     O60894  10.238   8.788   5.320 -0.2709 -0.3074 -0.2848
  442MOL0     C60895  10.251   8.823   5.460 -0.4637 -0.3421  0.3016
  442MOL0     C60896  10.364   8.746   5.521 -1.3528 -0.8985 -0.5690
  442MOL0     C60897  10.338   8.591   5.543  0.2716  0.3454 -0.5329
  442MOL0     C60898  10.468   8.502   5.578  0.1331 -0.9354 -0.0295
  442MOL0     C60899  10.506   8.413   5.460  0.8183  0.1694 -0.7398
  442MOL0     C60900  10.661   8.391   5.458  0.4848 -0.8239 -0.1899
  442MOL0     C60901  10.701   8.302   5.342 -0.5033 -0.2630  0.5507
  442MOL0     C60902  10.856   8.275   5.340 -1.6459  0.0387  0.7133
  442MOL0    Cl60903  10.878   8.139   5.218 -0.1129 -0.5377  0.0258
  442MOL0     C60904  10.005   8.842   5.299  0.3843  0.1791 -0.6493
  442MOL0     C60905   9.880   8.814   5.230  0.2421  0.8464 -0.2159
  442MOL0     O60906   9.659   8.605   5.244  0.1042 -0.3203 -0.1976
  442MOL0     C60907   9.412   8.571   5.127  0.4879 -0.0634 -0.4361
  442MOL0     C60908   9.296   8.529   5.064 -0.1907  0.3119  0.3213
  442MOL0     N60909   8.724   8.074   4.791 -0.2035  0.1380  0.3641
  442MOL0     N60910   8.659   7.981   4.730  0.0531 -0.4535  0.0628
  442MOL0     C60911   8.937   7.650   3.650 -0.4600  0.8782  0.1658
  442MOL0     C60912   9.061   7.666   3.582 -1.3523  0.1137  0.3854
  442MOL0     C60913   9.502   7.701   3.488  0.0408  0.4919  0.2969
  442MOL0     C60914   9.620   7.747   3.548  0.5996 -0.0651  0.4559
  442MOL0     C60915   9.740   7.747   3.474 -0.4446  0.3423 -1.1588
  442MOL0     C60916   9.744   7.695   3.344 -0.3179  0.7383  0.1590
  442MOL0     O60917   9.864   7.681   3.283 -0.0875 -0.5837 -0.4736
  442MOL0     C60918   9.907   7.798   3.211 -0.1826 -0.4240 -0.0324
  442MOL0     C60919  10.058   7.809   3.219  0.4484  0.3738  0.3078
  442MOL0     C60920  10.113   7.920   3.126  0.0127  0.0597  0.2890
  442MOL0     C60921  10.265   7.899   3.111  0.1965  0.4010 -0.2709
  442MOL0     C60922  10.328   7.991   3.028  0.4022  0.1918 -0.2017
  442MOL0     C60923  10.363   8.077   2.957  0.6302 -0.5206  1.1374
  442MOL0     C60924   9.626   7.642   3.287  0.3984 -1.1011 -0.2009
  442MOL0     C60925   9.504   7.642   3.357  0.1659 -0.3330 -0.0737
  442MOL0     C60926   9.368   7.621   3.286  0.2872  1.3143  0.3866
  442MOL0     H60927   9.253   7.442   3.747 -0.0117 -0.5769  2.0213
  442MOL0     H60928   9.038   7.408   3.872  0.5819 -0.7197  0.5191
  442MOL0     H60929   8.653   7.593   3.717  0.2470 -1.9191 -0.8263
  442MOL0     H60930   8.720   7.704   3.837 -0.5788 -0.4757  1.2264
  442MOL0     H60931   8.513   7.612   3.907 -0.2856  0.2379 -1.3724
  442MOL0     H60932   8.576   7.447   3.912 -2.0318  0.4246 -3.6596
  442MOL0     H60933   8.755   7.547   4.084  0.2654 -0.3163 -2.3907
  442MOL0     H60934   8.665   7.697   4.070 -0.4771  0.4047 -0.5104
  442MOL0     H60935   8.461   7.594   4.154  0.2347 -0.1254 -0.3336
  442MOL0     H60936   8.570   7.446   4.177  0.6016  0.4146  0.3960
  442MOL0     H60937   8.708   7.613   4.332  1.0270  0.3519  0.5244
  442MOL0     H60938   8.551   7.548   4.381  1.2375 -1.2310 -0.7725
  442MOL0     H60939   8.544   7.827   4.248 -4.8626 -1.3142 -0.3421
  442MOL0     H60940   8.441   7.763   4.370 -0.4452  0.1173 -0.6931
  442MOL0     H60941   8.724   7.871   4.418 -0.9646 -1.0604 -3.1584
  442MOL0     H60942   8.635   7.770   4.538 -0.8532 -0.8226 -0.2090
  442MOL0     H60943   8.517   8.019   4.421  1.5875  2.3200  1.2456
  442MOL0     H60944   8.461   7.924   4.548 -0.6666  0.1491  0.2620
  442MOL0     H60945   8.684   8.231   4.506  1.3934 -0.9019 -0.5426
  442MOL0     H60946   8.773   8.316   4.883  0.4926 -0.1527 -0.4437
  442MOL0     H60947   8.715   8.397   4.740 -1.7791 -0.9230  0.7560
  442MOL0     H60948   8.984   8.261   4.784 -0.6657 -1.1862 -3.5137
  442MOL0     H60949   8.954   8.347   4.631  0.4014  1.8894 -0.0752
  442MOL0     H60950   8.887   8.551   4.736 -2.0988 -1.4010  0.8106
  442MOL0     H60951   8.936   8.502   4.893  2.6225  0.6938  1.5171
  442MOL0     H60952   9.136   8.514   4.664  1.8365  1.0122  0.6132
  442MOL0     H60953   9.118   8.632   4.800  0.2768 -0.5915  1.4667
  442MOL0     H60954   9.412   8.479   4.749 -1.3791 -1.2894  0.1246
  442MOL0     H60955   9.738   8.488   4.864 -0.6317 -0.2827  2.2260
  442MOL0     H60956   9.661   8.660   4.834 -2.5455  0.5816  0.9829
  442MOL0     H60957   9.623   8.524   4.731  3.0922  0.0295 -0.5537
  442MOL0     H60958  10.002   8.581   5.010  0.6565  0.4181  0.8067
  442MOL0     H60959  10.208   8.630   5.135 -0.5303 -1.0625  1.4646
  442MOL0     H60960  10.285   8.927   5.462 -0.5602 -0.3163  1.3576
  442MOL0     H60961  10.160   8.820   5.520 -2.7564  1.6203 -2.7492
  442MOL0     H60962  10.448   8.755   5.452 -0.5500 -0.7925  0.4053
  442MOL0     H60963  10.389   8.790   5.618 -0.7960  1.6061 -1.7775
  442MOL0     H60964  10.289   8.546   5.456 -1.1767 -1.4019  1.1076
  442MOL0     H60965  10.267   8.584   5.626  0.7119 -1.9102 -0.2928
  442MOL0     H60966  10.441   8.441   5.665 -2.6033 -1.1693 -0.9319
  442MOL0     H60967  10.539   8.580   5.607 -1.0646 -0.2542  1.2193
  442MOL0     H60968  10.464   8.313   5.470 -1.3871  1.2685  3.6768
  442MOL0     H60969  10.469   8.445   5.362 -0.5391 -3.8552 -1.7163
  442MOL0     H60970  10.681   8.329   5.546 -0.1513 -0.5646  0.1444
  442MOL0     H60971  10.717   8.485   5.460  0.0900 -0.5296  2.8794
  442MOL0     H60972  10.674   8.365   5.256 -1.2343 -1.4381 -0.1047
  442MOL0     H60973  10.643   8.210   5.340 -1.3849  0.2561  1.4374
  442MOL0     H60974  10.893   8.241   5.437  1.2065 -1.4751 -0.7618
  442MOL0     H60975  10.907   8.369   5.318 -0.4167 -0.7948 -0.2040
  442MOL0     H60976  10.008   8.912   5.381 -0.8374 -2.9080  2.2622
  442MOL0     H60977   9.798   8.873   5.270  1.1950  0.7062  2.1500
  442MOL0     H60978   9.397   8.601   5.230 -0.5380 -1.3619 -0.1792
  442MOL0     H60979   9.204   8.525   5.122 -0.4798  0.2199 -0.1344
  442MOL0     H60980   8.841   7.695   3.627 -0.7327  0.1850 -0.0605
  442MOL0     H60981   9.068   7.743   3.505 -2.1594 -0.4355 -0.2468
  442MOL0     H60982   9.610   7.783   3.650  2.6249 -2.7564  1.7407
  442MOL0     H60983   9.830   7.786   3.520  2.2791 -1.9193 -4.1368
  442MOL0     H60984   9.861   7.799   3.113  0.9538  0.4826 -0.5811
  442MOL0     H60985   9.873   7.888   3.263  1.9418 -0.0581  0.8212
  442MOL0     H60986  10.100   7.713   3.187 -0.1714  0.2661 -0.2025
  442MOL0     H60987  10.087   7.823   3.323 -0.7204  1.3077  0.5298
  442MOL0     H60988  10.069   7.913   3.027  0.1580 -0.2784  0.2481
  442MOL0     H60989  10.091   8.016   3.174  1.3086 -0.3333  1.7805
  442MOL0     H60990  10.273   7.799   3.067  0.8630  0.2219  0.2466
  442MOL0     H60991  10.321   7.884   3.204  2.0209  0.0200 -1.3908
  442MOL0     H60992  10.404   8.157   2.899  0.6210 -0.2912  1.4412
  442MOL0     H60993   9.637   7.630   3.180 -0.1251  1.0986 -0.5488
  442MOL0     H60994   9.380   7.635   3.178  0.9604  0.9768  0.4088
  442MOL0     H60995   9.334   7.519   3.309 -0.9949  1.1217 -2.0967
  442MOL0     H60996   9.291   7.694   3.310 -1.0641 -0.0961  0.4533
  443MOL0     O60997   3.405  10.707  10.424 -0.2132  0.5264 -0.8695
  443MOL0     C60998   3.406  10.591  10.404 -0.3176  0.2148 -0.7220
  443MOL0     O60999   3.518  10.523  10.400  0.4708  0.5787  0.4065
  443MOL0     C61000   3.645  10.581  10.405  0.6745  0.7394  0.7583
  443MOL0     C61001   3.743  10.580  10.300  0.8114  0.3378 -0.3944
  443MOL0     C61002   3.870  10.621  10.331 -0.9683 -0.3432  0.3688
  443MOL0     C61003   3.901  10.678  10.457  0.5350  0.6552  0.5453
  443MOL0     O61004   4.027  10.722  10.499  0.3461 -0.3482  0.2728
  443MOL0     C61005   4.144  10.700  10.428  0.2341  0.7441 -0.0210
  443MOL0     C61006   4.265  10.773  10.486 -0.1755 -0.6113 -0.5517
  443MOL0     C61007   4.397  10.721  10.423  0.1642 -0.2517 -0.0710
  443MOL0     C61008   4.509  10.754  10.518  0.8828 -0.2574 -0.0733
  443MOL0     C61009   4.638  10.701  10.453  0.3838  0.1217 -0.3188
  443MOL0     C61010   4.765  10.780  10.508  0.9062 -1.2475 -0.2753
  443MOL0     C61011   4.802  10.732  10.651 -0.0505  0.1011 -0.2635
  443MOL0     C61012   4.912  10.821  10.712  0.1078  0.7822  0.3201
  443MOL0     N61013   5.039  10.793  10.643  0.2891 -0.7358 -0.0187
  443MOL0     C61014   5.103  10.893  10.580  0.4621 -0.4092  0.5270
  443MOL0     C61015   5.215  10.831  10.533 -0.3873  0.0275 -0.3729
  443MOL0     C61016   5.304  10.883  10.421 -0.3704  0.2119 -0.6015
  443MOL0     C61017   5.283  10.819  10.288 -0.1490 -0.2644  0.1900
  443MOL0     C61018   5.336  10.675  10.264 -0.0854  0.3996  0.7621
  443MOL0     C61019   5.478  10.641  10.294  0.0095 -0.1409 -0.8165
  443MOL0     O61020   5.573  10.677  10.189  0.7004 -0.1370 -0.1771
  443MOL0     C61021   5.698  10.689  10.241  0.0838 -0.4542  0.4379
  443MOL0     C61022   5.763  10.569  10.274  0.7262 -0.1775 -0.6396
  443MOL0     C61023   5.898  10.570  10.310  0.3019 -0.1330  1.1659
  443MOL0     C61024   5.958  10.432  10.328  0.0729 -0.5404 -0.0481
  443MOL0     C61025   5.976  10.693  10.318 -0.2814 -0.3576  0.0210
  443MOL0     C61026   6.127  10.688  10.351  0.6927  0.1914 -0.0200
  443MOL0     O61027   6.164  10.803  10.419 -0.2835  0.8406 -0.0019
  443MOL0     C61028   6.295  10.814  10.459  0.1187  0.2610  0.2064
  443MOL0     C61029   6.362  10.739  10.570  0.5865 -0.1786 -0.2320
  443MOL0     C61030   6.497  10.760  10.603 -0.1853 -0.6200 -0.4691
  443MOL0     C61031   6.573  10.851  10.530 -0.2649 -0.0450 -0.6579
  443MOL0     O61032   6.704  10.885  10.550 -0.2325 -0.0950  1.0956
  443MOL0     C61033   6.783  10.789  10.623  0.5470 -0.4180  0.1053
  443MOL0     C61034   6.928  10.838  10.629 -0.0197 -0.5695 -0.0297
  443MOL0     C61035   6.990  10.855  10.491 -0.1480  0.4497 -0.3502
  443MOL0     C61036   7.142  10.909  10.506  0.9346 -0.9067  0.5531
  443MOL0     C61037   7.229  10.906  10.376  0.0753  0.3592  1.0100
  443MOL0     C61038   7.341  11.015  10.372  0.5470 -0.2697 -0.1605
  443MOL0     C61039   7.440  11.022  10.256 -0.1951  0.3759 -0.6744
  443MOL0     C61040   7.542  10.906  10.253  0.2689  0.0521 -0.4634
  443MOL0    Cl61041   7.675  10.911  10.368  0.3895 -0.3117 -0.4212
  443MOL0     C61042   6.511  10.918  10.425 -0.8205 -0.0490  1.1950
  443MOL0     C61043   6.375  10.904  10.396  0.2738 -0.4380  1.0706
  443MOL0     O61044   6.191  10.597  10.304  0.2764 -0.7952 -0.1855
  443MOL0     C61045   5.909  10.817  10.301 -0.7481  0.6720 -0.4627
  443MOL0     C61046   5.775  10.810  10.253 -0.8154  0.6389  0.4540
  443MOL0     N61047   5.222  10.696  10.575 -0.6894  0.1036 -1.2479
  443MOL0     N61048   5.126  10.685  10.664  0.1488  0.5641  0.4190
  443MOL0     C61049   3.802  10.692  10.547  0.1030  0.9114 -0.5292
  443MOL0     C61050   3.678  10.624  10.528 -0.3187 -1.0205 -0.3623
  443MOL0     C61051   3.268  10.528  10.390 -0.0538 -0.8077  0.3232
  443MOL0     C61052   3.266  10.395  10.358  0.8510  1.3769  0.7072
  443MOL0     C61053   3.145  10.330  10.339  2.1055 -0.0310 -0.9229
  443MOL0     C61054   3.022  10.389  10.377 -0.0503  0.2296  0.3535
  443MOL0     O61055   2.904  10.320  10.394  0.4303 -0.3918 -1.0384
  443MOL0     C61056   2.911  10.182  10.434 -0.0837 -0.0221  0.3236
  443MOL0     C61057   2.795  10.159  10.528 -0.2055  0.4288 -0.0985
  443MOL0     C61058   2.806  10.012  10.584  0.3352  0.4720  0.1794
  443MOL0     C61059   2.939   9.943  10.615 -0.3162 -0.3754 -0.3402
  443MOL0     C61060   2.992   9.995  10.746  0.0100 -0.4007  0.6493
  443MOL0     C61061   3.035  10.046  10.849  0.0836  0.0516 -1.0698
  443MOL0     C61062   3.023  10.525  10.401  0.3653 -0.3944  0.1366
  443MOL0     C61063   3.144  10.603  10.408 -0.0192 -0.7173 -0.1638
  443MOL0     C61064   3.127  10.752  10.432 -0.1440  0.4355  0.1410
  443MOL0     H61065   3.720  10.530  10.206  0.7472 -0.3254 -0.0296
  443MOL0     H61066   3.947  10.592  10.261 -0.4884 -1.4168  1.3261
  443MOL0     H61067   4.131  10.732  10.324  1.4747  1.0980 -0.0778
  443MOL0     H61068   4.162  10.592  10.429 -1.6964  0.3639 -1.2444
  443MOL0     H61069   4.260  10.881  10.473 -1.4545 -0.5219  0.5193
  443MOL0     H61070   4.259  10.745  10.592  1.6428  0.4555 -0.1197
  443MOL0     H61071   4.403  10.613  10.405  1.1313 -0.3000  0.4866
  443MOL0     H61072   4.409  10.769  10.326 -1.4564 -0.2774 -0.3142
  443MOL0     H61073   4.515  10.863  10.515  1.2401 -0.2601  0.5071
  443MOL0     H61074   4.475  10.714  10.614 -3.6132 -0.6054 -1.5750
  443MOL0     H61075   4.648  10.715  10.345  2.1472 -1.8000 -0.4692
  443MOL0     H61076   4.645  10.593  10.469 -2.3848 -0.3838 -1.8208
  443MOL0     H61077   4.857  10.761  10.450 -0.1197 -0.7041 -2.1857
  443MOL0     H61078   4.760  10.890  10.507 -0.3133 -1.2700  0.9399
  443MOL0     H61079   4.829  10.626  10.657 -1.7114 -0.3710 -0.6880
  443MOL0     H61080   4.713  10.751  10.712  0.4758  0.9099  0.2755
  443MOL0     H61081   4.883  10.927  10.709  1.4494  1.2022  1.1738
  443MOL0     H61082   4.916  10.800  10.820  0.2081  2.1105  0.5987
  443MOL0     H61083   5.071  10.996  10.564  2.0768  0.2005  1.0142
  443MOL0     H61084   5.411  10.879  10.445 -0.6096  0.3904  0.5320
  443MOL0     H61085   5.274  10.988  10.423 -1.7264 -0.1753  0.8957
  443MOL0     H61086   5.176  10.820  10.266 -0.0119 -0.5930 -0.5026
  443MOL0     H61087   5.328  10.880  10.210 -1.4784 -1.1404 -1.3230
  443MOL0     H61088   5.277  10.599  10.316 -0.0688  0.0959  0.3449
  443MOL0     H61089   5.321  10.656  10.157 -2.9247  0.5709  1.0629
  443MOL0     H61090   5.499  10.683  10.393 -0.3490 -0.7600 -0.4684
  443MOL0     H61091   5.485  10.533  10.309  0.3617  0.2534  3.0263
  443MOL0     H61092   5.706  10.478  10.259 -0.9737 -0.0243  3.5600
  443MOL0     H61093   6.041  10.436  10.399  1.3287 -2.3721 -1.3065
  443MOL0     H61094   5.997  10.384  10.238 -0.9239  0.5671 -1.0967
  443MOL0     H61095   5.887  10.361  10.372 -0.0647 -3.5208 -4.5130
  443MOL0     H61096   6.295  10.670  10.619 -0.5740  0.5537 -0.7459
  443MOL0     H61097   6.538  10.707  10.688 -0.9914  0.5780  0.6955
  443MOL0     H61098   6.746  10.787  10.726  1.7503 -3.4298  0.5862
  443MOL0     H61099   6.792  10.693  10.571  2.0860  0.3917 -1.2048
  443MOL0     H61100   6.928  10.932  10.685  0.1485 -0.7492  0.2705
  443MOL0     H61101   6.982  10.763  10.686  1.5365 -0.2940 -1.0784
  443MOL0     H61102   6.934  10.931  10.437  2.3353  0.6064 -2.9472
  443MOL0     H61103   6.978  10.762  10.434  3.6236 -0.1848 -0.3850
  443MOL0     H61104   7.200  10.843  10.571  0.5157 -2.6114 -0.7559
  443MOL0     H61105   7.134  11.015  10.535  0.5984 -0.1506 -2.0339
  443MOL0     H61106   7.274  10.806  10.372  1.7797  1.1227 -0.8858
  443MOL0     H61107   7.167  10.922  10.287 -1.0993 -0.7128  1.6007
  443MOL0     H61108   7.402  11.015  10.463 -0.0206  2.9064  0.3248
  443MOL0     H61109   7.299  11.116  10.371 -0.2818 -0.6025  0.4796
  443MOL0     H61110   7.497  11.115  10.257 -1.1010  1.1905  4.2503
  443MOL0     H61111   7.377  11.021  10.166 -0.3191 -3.1384 -0.6760
  443MOL0     H61112   7.586  10.911  10.153 -0.8348 -1.8507 -1.1004
  443MOL0     H61113   7.511  10.803  10.269  0.0900  0.1285 -0.3242
  443MOL0     H61114   6.571  10.993  10.375  3.1629 -2.9580  1.1768
  443MOL0     H61115   6.334  10.951  10.308 -2.8146 -2.4978  1.2381
  443MOL0     H61116   5.963  10.910  10.317  0.2887  0.1387 -0.7346
  443MOL0     H61117   5.732  10.908  10.231 -0.4009  1.4598  2.9429
  443MOL0     H61118   3.830  10.744  10.639  0.7307 -2.4846  1.3727
  443MOL0     H61119   3.605  10.627  10.608 -1.1190 -1.5053 -1.0589
  443MOL0     H61120   3.359  10.343  10.337 -0.0223  0.7941 -2.2037
  443MOL0     H61121   3.142  10.226  10.306  0.2191  0.0387 -1.0551
  443MOL0     H61122   2.910  10.115  10.348  1.0593  0.3868 -0.0352
  443MOL0     H61123   3.004  10.159  10.487 -0.2993 -0.8847  0.3385
  443MOL0     H61124   2.695  10.166  10.484 -0.9748  0.7674  1.5976
  443MOL0     H61125   2.797  10.228  10.613 -0.9173  0.2356  0.0833
  443MOL0     H61126   2.747   9.996  10.674  1.2679 -4.1800  0.2456
  443MOL0     H61127   2.766   9.954  10.500  0.6462  0.7526 -0.1706
  443MOL0     H61128   3.013   9.960  10.537 -2.1175  0.5319 -1.9505
  443MOL0     H61129   2.921   9.836  10.628  0.0789 -0.4863 -0.7113
  443MOL0     H61130   3.058  10.098  10.940 -0.0869 -5.9298  2.9838
  443MOL0     H61131   2.926  10.567  10.424 -1.6599 -4.5366  0.0212
  443MOL0     H61132   3.135  10.780  10.537  1.5936 -3.5195  1.2762
  443MOL0     H61133   3.193  10.815  10.371 -1.4889  0.1457 -1.7153
  443MOL0     H61134   3.025  10.778  10.403 -0.3260 -1.8918 -1.6642
  444MOL0     O61135   4.779   7.590   6.710 -0.4632  0.1428  0.5269
  444MOL0     C61136   4.731   7.526   6.614  0.2432 -0.4535 -0.9882
  444MOL0     O61137   4.803   7.446   6.528 -0.1618  0.2654  0.2023
  444MOL0     C61138   4.930   7.404   6.560 -0.1184 -0.7808  0.1867
  444MOL0     C61139   5.010   7.383   6.448  0.1530 -0.3388 -0.1916
  444MOL0     C61140   5.141   7.334   6.463 -0.1608  0.3126  1.0801
  444MOL0     C61141   5.187   7.317   6.595  0.6155  0.4641  1.6151
  444MOL0     O61142   5.311   7.261   6.628 -0.4789 -0.6784 -0.6217
  444MOL0     C61143   5.404   7.223   6.526 -0.2669  0.7059  0.4121
  444MOL0     C61144   5.517   7.150   6.594 -0.0635 -0.0061 -0.1436
  444MOL0     C61145   5.652   7.157   6.533 -0.9526  0.5344  0.7216
  444MOL0     C61146   5.660   7.083   6.398  0.0757 -0.1973  0.4340
  444MOL0     C61147   5.799   7.092   6.348 -0.3954  0.3815  0.3716
  444MOL0     C61148   5.897   6.999   6.416 -0.2021 -0.6137 -0.5885
  444MOL0     C61149   6.042   7.023   6.373 -0.3592  0.0452  0.4378
  444MOL0     C61150   6.059   6.989   6.224  0.2002 -0.0849  0.1186
  444MOL0     N61151   6.195   6.935   6.203  0.4732 -0.2122 -0.9911
  444MOL0     C61152   6.315   7.009   6.187 -0.2601  0.0716 -0.1504
  444MOL0     C61153   6.403   6.921   6.134 -0.4494 -0.0318 -0.4013
  444MOL0     C61154   6.549   6.969   6.113  0.5781 -0.0672 -0.2974
  444MOL0     C61155   6.619   6.885   6.000  0.2305  0.0033  0.2989
  444MOL0     C61156   6.726   6.963   5.928  0.8328  0.8220 -0.0117
  444MOL0     C61157   6.846   6.996   6.014 -0.1118  0.1698  0.4364
  444MOL0     O61158   6.914   6.880   6.064 -0.1576 -0.1627  1.0576
  444MOL0     C61159   7.045   6.904   6.116  0.4083  0.0779 -0.6448
  444MOL0     C61160   7.106   7.021   6.163 -0.5477 -0.8252 -0.4630
  444MOL0     C61161   7.232   7.025   6.217 -0.1872 -0.3891 -0.4067
  444MOL0     C61162   7.268   7.158   6.287  0.0287  0.6090  0.2409
  444MOL0     C61163   7.314   6.909   6.214  0.3060  0.0211  0.3006
  444MOL0     C61164   7.454   6.915   6.262 -0.5329  0.0274  0.6785
  444MOL0     O61165   7.536   6.816   6.200  0.7205 -0.8647  0.3742
  444MOL0     C61166   7.674   6.845   6.210 -0.0535  0.2637  0.2462
  444MOL0     C61167   7.717   6.970   6.162 -0.4191  0.1025  0.2474
  444MOL0     C61168   7.855   6.998   6.161 -0.1145 -0.2734  0.1087
  444MOL0     C61169   7.949   6.907   6.217  0.4619  0.4193 -0.5993
  444MOL0     O61170   8.078   6.932   6.241 -0.3261  0.3849 -0.0392
  444MOL0     C61171   8.143   7.029   6.175 -0.4528  0.0143 -0.1335
  444MOL0     C61172   8.294   7.011   6.180  0.1814 -0.2639  0.8577
  444MOL0     C61173   8.351   6.898   6.089  0.0211  0.2777 -0.2807
  444MOL0     C61174   8.508   6.900   6.103 -0.5318  0.5647  0.4144
  444MOL0     C61175   8.560   6.771   6.037 -0.6003  0.3196 -0.1596
  444MOL0     C61176   8.720   6.778   6.033 -0.3874 -0.5333  0.5409
  444MOL0     C61177   8.763   6.643   5.979 -0.0539 -0.1712  0.7781
  444MOL0     C61178   8.914   6.645   5.964 -0.1995  0.0152 -0.0603
  444MOL0    Cl61179   8.982   6.524   5.847  0.1241  0.3123  0.2466
  444MOL0     C61180   7.898   6.784   6.262 -0.5013  0.3002  0.1400
  444MOL0     C61181   7.763   6.744   6.254  0.2483  1.0131  0.6730
  444MOL0     O61182   7.502   6.984   6.353  0.8157 -0.4177  0.1288
  444MOL0     C61183   7.258   6.790   6.170  0.8617 -0.4041  0.8050
  444MOL0     C61184   7.126   6.791   6.127  0.0806 -0.2445 -0.3635
  444MOL0     N61185   6.344   6.793   6.119  0.9411 -1.0540  0.1980
  444MOL0     N61186   6.222   6.810   6.160 -0.5383 -0.5387  0.8897
  444MOL0     C61187   5.109   7.332   6.707  0.0976 -0.6651  0.8236
  444MOL0     C61188   4.980   7.377   6.687 -0.0965  0.5577  0.8458
  444MOL0     C61189   4.585   7.531   6.584  0.2327 -0.8928  0.0130
  444MOL0     C61190   4.536   7.414   6.535  0.4537 -0.3445 -0.1361
  444MOL0     C61191   4.400   7.406   6.498  0.2280 -0.5743 -0.2111
  444MOL0     C61192   4.306   7.506   6.531 -0.4009  0.5284  0.0197
  444MOL0     O61193   4.178   7.486   6.500  0.3021 -0.1536  0.2382
  444MOL0     C61194   4.078   7.588   6.506 -0.9845 -0.3939  0.6942
  444MOL0     C61195   3.953   7.534   6.456 -0.0686 -0.2053 -0.1546
  444MOL0     C61196   3.833   7.623   6.474  0.1302  0.9285 -0.0674
  444MOL0     C61197   3.741   7.637   6.352 -0.0011 -1.1868  0.3911
  444MOL0     C61198   3.717   7.503   6.297  0.0956 -0.3363 -0.1632
  444MOL0     C61199   3.690   7.396   6.236 -0.3696 -0.4035  0.0029
  444MOL0     C61200   4.355   7.620   6.595  0.2775  0.5722  0.6929
  444MOL0     C61201   4.496   7.637   6.618  0.5054  0.3323  0.3802
  444MOL0     C61202   4.536   7.765   6.681 -0.1275 -0.6913  0.3453
  444MOL0     H61203   4.957   7.400   6.355  0.7901  2.2440 -0.1341
  444MOL0     H61204   5.204   7.320   6.376  1.7179  0.1262  2.4233
  444MOL0     H61205   5.451   7.306   6.473  0.4015  0.1289  0.0825
  444MOL0     H61206   5.362   7.151   6.455  2.2680  0.3467 -0.8252
  444MOL0     H61207   5.531   7.190   6.695 -1.0633  2.5027 -0.9131
  444MOL0     H61208   5.489   7.045   6.599  0.7722 -0.3015 -1.2823
  444MOL0     H61209   5.685   7.261   6.523  1.9516 -0.3568 -0.0876
  444MOL0     H61210   5.723   7.107   6.599 -1.4227  2.5839  2.9330
  444MOL0     H61211   5.635   6.977   6.396  0.7671 -0.3609 -0.7827
  444MOL0     H61212   5.592   7.126   6.323  2.3126  2.0017 -0.4977
  444MOL0     H61213   5.842   7.191   6.364  0.8218 -0.2127  0.8748
  444MOL0     H61214   5.811   7.062   6.243  3.6065  0.4322  0.6724
  444MOL0     H61215   5.895   7.022   6.523 -1.6549 -1.9948 -0.2950
  444MOL0     H61216   5.861   6.899   6.393  0.4486 -0.7959 -0.8497
  444MOL0     H61217   6.105   6.951   6.426  1.6396  0.0320 -1.7962
  444MOL0     H61218   6.083   7.121   6.397  1.2139 -0.4933  0.0976
  444MOL0     H61219   5.986   6.912   6.196  1.7986 -1.3683 -0.7372
  444MOL0     H61220   6.046   7.076   6.159 -1.1368 -0.3263  0.0231
  444MOL0     H61221   6.333   7.115   6.198 -0.9140  0.5615 -2.9985
  444MOL0     H61222   6.616   6.969   6.199  0.9923  1.3452 -0.5913
  444MOL0     H61223   6.537   7.075   6.088 -3.2869 -0.2582  0.0955
  444MOL0     H61224   6.670   6.802   6.049  2.8511  1.8816  0.9735
  444MOL0     H61225   6.541   6.853   5.929 -0.9753  2.3789  0.4655
  444MOL0     H61226   6.755   6.908   5.838 -0.4647 -1.3203  0.7937
  444MOL0     H61227   6.681   7.059   5.902  0.7487  1.3259  1.8850
  444MOL0     H61228   6.911   7.059   5.953 -0.9891  1.7230  1.0483
  444MOL0     H61229   6.816   7.053   6.102  0.1766 -0.3216  0.8577
  444MOL0     H61230   7.059   7.119   6.164 -2.1779 -1.5853  0.6144
  444MOL0     H61231   7.193   7.237   6.278 -0.9815 -0.3686 -0.1933
  444MOL0     H61232   7.363   7.196   6.249  0.1343  1.4987  1.3375
  444MOL0     H61233   7.276   7.141   6.395  0.5333  0.2095  0.1479
  444MOL0     H61234   7.634   7.028   6.122 -2.6467 -2.7423  0.4317
  444MOL0     H61235   7.888   7.090   6.114 -4.1765  0.2485 -2.1671
  444MOL0     H61236   8.108   7.028   6.071 -0.1882  0.2033 -0.2234
  444MOL0     H61237   8.122   7.128   6.215 -0.9033  0.2503 -0.9184
  444MOL0     H61238   8.332   7.105   6.138 -0.8606  0.5532  1.6918
  444MOL0     H61239   8.328   6.996   6.282  0.3857 -1.9931  0.5581
  444MOL0     H61240   8.328   6.905   5.982 -0.7345 -3.4701 -0.5126
  444MOL0     H61241   8.304   6.812   6.138  1.2212  0.6709  1.6505
  444MOL0     H61242   8.532   6.889   6.209  2.4657 -1.2532 -0.3387
  444MOL0     H61243   8.551   6.994   6.066  0.0539  0.9946  2.0983
  444MOL0     H61244   8.540   6.681   6.097  2.5736 -1.3216 -1.3394
  444MOL0     H61245   8.528   6.749   5.935  0.0597 -3.5969  0.2998
  444MOL0     H61246   8.755   6.790   6.136  0.7581 -2.4245  0.4093
  444MOL0     H61247   8.749   6.872   5.983 -0.8899 -0.5642  0.1751
  444MOL0     H61248   8.714   6.604   5.890  3.0532 -0.4184 -0.9859
  444MOL0     H61249   8.745   6.561   6.048 -2.9141  0.8550  1.3863
  444MOL0     H61250   8.960   6.635   6.063  2.1160  0.2315 -1.0496
  444MOL0     H61251   8.947   6.748   5.947  0.5713  0.0447  1.4183
  444MOL0     H61252   7.969   6.725   6.319  0.2335  1.5118  0.5334
  444MOL0     H61253   7.731   6.642   6.274  2.6311  0.1565  0.4708
  444MOL0     H61254   7.307   6.694   6.180  0.0738 -1.3207 -2.7294
  444MOL0     H61255   7.076   6.695   6.114 -0.4416 -0.4263  2.3392
  444MOL0     H61256   5.158   7.310   6.801  1.8592  0.9663  0.3473
  444MOL0     H61257   4.918   7.378   6.776  0.0266 -1.5433  0.9923
  444MOL0     H61258   4.597   7.325   6.534  0.3177 -0.4832  1.4859
  444MOL0     H61259   4.359   7.322   6.443  1.6539 -2.2125  1.1150
  444MOL0     H61260   4.066   7.630   6.606 -0.0956  1.8483 -0.0726
  444MOL0     H61261   4.101   7.680   6.451  1.1907 -2.0970 -1.4694
  444MOL0     H61262   3.923   7.441   6.505  0.9638  0.1052  1.1300
  444MOL0     H61263   3.982   7.510   6.353  1.3547  1.2958 -0.1418
  444MOL0     H61264   3.771   7.595   6.559 -0.4950  0.8988 -0.5236
  444MOL0     H61265   3.865   7.727   6.492  3.5399  0.0433 -0.2617
  444MOL0     H61266   3.800   7.690   6.276 -2.1726 -0.8242 -1.1314
  444MOL0     H61267   3.650   7.692   6.376  2.5642  3.6041  0.3971
  444MOL0     H61268   3.678   7.300   6.189 -0.2379  0.2701 -1.4760
  444MOL0     H61269   4.291   7.698   6.633 -1.4061 -0.6066  0.4002
  444MOL0     H61270   4.640   7.787   6.653 -0.7676  2.7229  0.2315
  444MOL0     H61271   4.472   7.850   6.657  1.6754 -0.1921 -3.4702
  444MOL0     H61272   4.544   7.759   6.790  2.8521 -0.3928  0.2235
  445MOL0     O61273  10.507   4.923   0.209  0.4475  0.5073 -0.0653
  445MOL0     C61274  10.415   4.983   0.148  0.1551  0.2559  0.4369
  445MOL0     O61275  10.441   5.071   0.038  0.0447 -0.5367  0.0547
  445MOL0     C61276  10.570   5.099   0.019  0.3426  0.3701  0.6237
  445MOL0     C61277  10.612   5.235   0.015  0.2626 -0.3508 -0.6265
  445MOL0     C61278  10.751   5.277   0.003 -0.1409  0.5343  0.3637
  445MOL0     C61279  10.860   5.180  -0.019  0.5803 -0.3095  0.2882
  445MOL0     O61280  10.998   5.193  -0.023  0.5670  0.0330  0.1825
  445MOL0     C61281  11.048   5.317   0.021  0.0984  0.4096  1.4118
  445MOL0     C61282  11.198   5.317   0.020 -0.0511 -1.1254  0.3257
  445MOL0     C61283  11.272   5.225   0.117 -0.1605  0.0735 -0.8550
  445MOL0     C61284  11.242   5.261   0.262 -1.1214  0.6987  0.1583
  445MOL0     C61285  11.281   5.152   0.355  0.1258 -0.6690 -0.9007
  445MOL0     C61286  11.414   5.085   0.348 -0.2214  0.5030 -0.2464
  445MOL0     C61287  11.534   5.179   0.384  0.7979  1.4919  0.0967
  445MOL0     C61288  11.668   5.111   0.348  0.6258 -0.2866  0.3372
  445MOL0     N61289  11.783   5.208   0.353 -0.7048  0.4235 -0.1058
  445MOL0     C61290  11.880   5.226   0.451  0.3843  0.3650 -0.0163
  445MOL0     C61291  11.961   5.325   0.403  0.3109  0.5082  0.5829
  445MOL0     C61292  12.065   5.389   0.482  0.3317 -0.4104  0.0720
  445MOL0     C61293  12.214   5.343   0.448  0.4617  0.0510  0.3071
  445MOL0     C61294  12.305   5.453   0.388  0.5701  0.3158  0.0194
  445MOL0     C61295  12.444   5.393   0.383 -0.1182 -0.2622  0.9490
  445MOL0     O61296  12.449   5.282   0.295 -0.6360  0.8030  0.0491
  445MOL0     C61297  12.572   5.227   0.275 -1.1921 -0.0132 -0.1559
  445MOL0     C61298  12.577   5.119   0.197 -0.1504  0.7191  0.0252
  445MOL0     C61299  12.700   5.051   0.170 -0.2948  0.2626 -0.2342
  445MOL0     C61300  12.688   4.931   0.079  0.1769 -0.3099 -0.4946
  445MOL0     C61301  12.825   5.100   0.218 -0.1385  0.3024 -0.5609
  445MOL0     C61302  12.954   5.044   0.180 -0.2301  0.9093 -0.3173
  445MOL0     O61303  13.058   5.025   0.271 -0.2835  0.0896 -0.7688
  445MOL0     C61304  13.187   5.032   0.220 -0.0718  0.1622  0.1174
  445MOL0     C61305  13.253   5.158   0.218 -0.6278  0.6523  0.6665
  445MOL0     C61306  13.392   5.157   0.180 -0.3230 -0.8689  0.0907
  445MOL0     C61307  13.458   5.044   0.130 -0.2285 -0.6657  0.5772
  445MOL0     O61308  13.593   5.040   0.106  0.3165  0.1315 -0.6376
  445MOL0     C61309  13.671   5.164   0.105 -0.0536  0.4061 -0.0131
  445MOL0     C61310  13.807   5.122   0.061 -0.1929  0.6816  0.2692
  445MOL0     C61311  13.870   5.010   0.152  0.7094 -0.3870  0.2755
  445MOL0     C61312  14.022   5.013   0.129 -0.6099 -0.2856  0.4372
  445MOL0     C61313  14.086   4.931   0.235 -0.0623 -1.0096 -0.0925
  445MOL0     C61314  14.233   4.905   0.210 -0.1616 -0.6966  0.3276
  445MOL0     C61315  14.340   5.018   0.217 -0.0383 -0.3864  0.2378
  445MOL0     C61316  14.342   5.077   0.364 -0.2853  1.1169  0.1676
  445MOL0    Cl61317  14.476   5.197   0.388 -0.0144 -0.3207 -0.0028
  445MOL0     C61318  13.386   4.927   0.125 -0.3869 -0.7800 -0.2706
  445MOL0     C61319  13.254   4.919   0.173 -0.4308  0.2102  0.4679
  445MOL0     O61320  12.969   5.005   0.063  0.0604  0.7693  0.7959
  445MOL0     C61321  12.815   5.204   0.312  0.4394 -0.0140 -1.4806
  445MOL0     C61322  12.692   5.258   0.349 -0.9732 -0.3102  1.1724
  445MOL0     N61323  11.915   5.371   0.280 -0.9987 -0.2624  0.0138
  445MOL0     N61324  11.818   5.294   0.252 -0.2183  0.2851 -0.1538
  445MOL0     C61325  10.814   5.044  -0.034 -0.3748  0.1869  0.3430
  445MOL0     C61326  10.676   5.005  -0.009 -0.4706  0.1548 -0.0157
  445MOL0     C61327  10.278   4.950   0.180  0.3212 -0.3027 -0.6584
  445MOL0     C61328  10.176   5.027   0.106 -0.1880  0.4927  0.7598
  445MOL0     C61329  10.041   5.014   0.140  0.5471 -0.1737  0.0989
  445MOL0     C61330   9.995   4.909   0.218  0.4730 -0.0554 -0.5580
  445MOL0     O61331   9.859   4.898   0.228  0.3214  0.4629  0.1456
  445MOL0     C61332   9.789   4.802   0.314 -0.3759 -0.2348  0.0911
  445MOL0     C61333   9.671   4.885   0.370  0.7824 -0.4491 -0.3122
  445MOL0     C61334   9.571   4.807   0.453  0.2161 -0.3713 -0.6676
  445MOL0     C61335   9.445   4.892   0.487  0.2944 -0.3449 -0.0998
  445MOL0     C61336   9.358   4.891   0.366 -1.4156  0.9501  1.0861
  445MOL0     C61337   9.295   4.879   0.264  0.3494 -0.3413  0.0369
  445MOL0     C61338  10.094   4.821   0.281  0.0634 -0.7998  0.2105
  445MOL0     C61339  10.238   4.845   0.271 -0.3509 -0.7608  0.2621
  445MOL0     C61340  10.335   4.757   0.355 -0.6070 -0.2275  0.1722
  445MOL0     H61341  10.533   5.307   0.032  0.3308 -0.4357  0.0913
  445MOL0     H61342  10.774   5.381   0.023 -0.8498  1.0437 -1.3455
  445MOL0     H61343  11.009   5.342   0.120 -2.2609  1.5436  0.2838
  445MOL0     H61344  11.027   5.394  -0.054  1.0815 -1.3506 -0.7791
  445MOL0     H61345  11.237   5.303  -0.081  1.7478  1.8961  0.4833
  445MOL0     H61346  11.221   5.418   0.055 -0.2294 -0.3618 -1.6565
  445MOL0     H61347  11.251   5.125   0.079 -0.9475  0.2537 -0.8983
  445MOL0     H61348  11.380   5.244   0.106 -0.3061  1.2856 -0.3845
  445MOL0     H61349  11.299   5.349   0.292 -0.8814 -0.0561  2.1271
  445MOL0     H61350  11.137   5.290   0.274 -0.6549  2.9738 -0.8987
  445MOL0     H61351  11.200   5.078   0.357 -2.7225  2.1970  0.4295
  445MOL0     H61352  11.280   5.195   0.456 -1.0759 -0.5753 -0.9361
  445MOL0     H61353  11.420   4.999   0.415 -2.0324  0.5587  0.0317
  445MOL0     H61354  11.429   5.066   0.242 -3.0139  2.0334 -1.0014
  445MOL0     H61355  11.525   5.197   0.492 -0.2309  0.6366  0.1706
  445MOL0     H61356  11.520   5.279   0.342  0.4494  2.1789  1.7635
  445MOL0     H61357  11.684   5.035   0.425  0.5676 -2.0725 -1.3706
  445MOL0     H61358  11.665   5.057   0.254  3.9465 -2.6223  1.4076
  445MOL0     H61359  11.887   5.170   0.544 -2.0015 -2.2362 -1.2727
  445MOL0     H61360  12.050   5.376   0.590  1.3849 -1.3669  0.1178
  445MOL0     H61361  12.049   5.497   0.475 -1.2988 -0.6083  0.3449
  445MOL0     H61362  12.250   5.301   0.542  3.6361 -0.0806 -0.8579
  445MOL0     H61363  12.209   5.257   0.380  0.2130 -1.2911  1.9598
  445MOL0     H61364  12.278   5.476   0.285  1.8293  0.9271 -0.1978
  445MOL0     H61365  12.290   5.544   0.448 -2.6876  1.2228 -1.9007
  445MOL0     H61366  12.521   5.465   0.353 -1.4530  0.5204 -0.8193
  445MOL0     H61367  12.461   5.363   0.487 -0.9681 -3.2344  0.3046
  445MOL0     H61368  12.480   5.081   0.164 -0.0098  0.0486  0.3739
  445MOL0     H61369  12.736   4.945  -0.017  1.1412 -0.7815 -0.0902
  445MOL0     H61370  12.580   4.913   0.070 -0.2042 -1.1252  3.6236
  445MOL0     H61371  12.728   4.842   0.128 -0.1070 -0.1681  0.0082
  445MOL0     H61372  13.202   5.247   0.252  1.3737  2.6481 -1.2746
  445MOL0     H61373  13.436   5.256   0.187  1.0352 -1.4362 -0.1881
  445MOL0     H61374  13.639   5.234   0.027  0.9568  0.2818 -0.5634
  445MOL0     H61375  13.664   5.199   0.208  1.6152 -2.3777  1.1735
  445MOL0     H61376  13.809   5.088  -0.043  0.9229 -0.9600  0.7929
  445MOL0     H61377  13.864   5.215   0.065 -1.0633  1.2015  2.2965
  445MOL0     H61378  13.829   4.909   0.149 -1.1581  0.2366  2.3265
  445MOL0     H61379  13.849   5.039   0.255 -2.1685 -2.5545  0.4206
  445MOL0     H61380  14.058   5.116   0.123  1.4362 -0.9826 -0.0552
  445MOL0     H61381  14.049   4.978   0.029 -3.0496  0.0372 -0.4080
  445MOL0     H61382  14.073   4.979   0.332  0.3584  0.8683 -0.9241
  445MOL0     H61383  14.053   4.827   0.239  2.5244 -1.8925  0.6200
  445MOL0     H61384  14.239   4.854   0.114  1.6509 -2.7208  1.4346
  445MOL0     H61385  14.260   4.819   0.272 -1.2121 -0.7475  0.7382
  445MOL0     H61386  14.327   5.098   0.143  2.3812  1.9152  2.0564
  445MOL0     H61387  14.438   4.983   0.182 -0.7500  0.7213 -3.1840
  445MOL0     H61388  14.355   5.000   0.441 -1.4222 -0.4319 -1.1225
  445MOL0     H61389  14.248   5.128   0.388 -0.2154  0.9482  0.8267
  445MOL0     H61390  13.434   4.839   0.082 -2.4668 -1.5105 -1.2161
  445MOL0     H61391  13.191   4.831   0.172  0.1200 -0.2641  2.5628
  445MOL0     H61392  12.900   5.250   0.361 -0.2014  0.5187 -0.8522
  445MOL0     H61393  12.691   5.335   0.426  0.2692 -0.1222  1.0204
  445MOL0     H61394  10.888   4.970  -0.061 -0.9901  0.1408 -1.3451
  445MOL0     H61395  10.661   4.898  -0.001  1.0205 -0.1468 -0.8701
  445MOL0     H61396  10.201   5.098   0.027  0.5436  1.0354  1.4571
  445MOL0     H61397   9.969   5.083   0.096 -0.1708 -0.0214  1.4374
  445MOL0     H61398   9.747   4.723   0.251 -0.7281 -0.1715  0.2427
  445MOL0     H61399   9.861   4.757   0.383  0.4829  0.2854 -0.4441
  445MOL0     H61400   9.620   4.928   0.283  2.6263 -2.7369 -2.7070
  445MOL0     H61401   9.709   4.973   0.423  1.4684  0.0697 -1.5960
  445MOL0     H61402   9.535   4.719   0.399 -2.2850  1.9642 -3.1428
  445MOL0     H61403   9.610   4.770   0.548  1.3254 -0.0067 -0.9653
  445MOL0     H61404   9.464   4.987   0.539 -0.8549  0.2300 -0.6796
  445MOL0     H61405   9.396   4.827   0.560 -0.5336  0.3573 -0.0113
  445MOL0     H61406   9.238   4.861   0.174  1.8330 -3.2008 -0.4687
  445MOL0     H61407  10.071   4.743   0.353  0.9383  0.5965  2.0821
  445MOL0     H61408  10.288   4.707   0.440 -0.6136 -0.2798  0.1382
  445MOL0     H61409  10.376   4.678   0.290 -4.1052 -2.4292  0.3605
  445MOL0     H61410  10.414   4.822   0.393 -1.2650  0.3269  0.6193
  446MOL0     O61411   2.561   8.315   7.668  0.3345  0.6372  1.0890
  446MOL0     C61412   2.458   8.262   7.700 -0.0805 -0.8086 -0.5658
  446MOL0     O61413   2.425   8.239   7.834  0.3245  0.1756  0.5400
  446MOL0     C61414   2.491   8.286   7.943  0.2738  0.3133  0.5608
  446MOL0     C61415   2.479   8.214   8.065  0.2766  0.0296 -0.1828
  446MOL0     C61416   2.547   8.261   8.180 -0.0087 -0.2466 -0.2831
  446MOL0     C61417   2.631   8.377   8.175 -0.5697 -0.3303 -0.0985
  446MOL0     O61418   2.688   8.429   8.287 -0.6456 -0.5120 -0.0017
  446MOL0     C61419   2.647   8.388   8.413 -0.0148  1.4843  0.0143
  446MOL0     C61420   2.726   8.444   8.533  0.4713  0.1795 -0.3701
  446MOL0     C61421   2.765   8.594   8.523 -0.1366 -0.4181  0.2969
  446MOL0     C61422   2.863   8.645   8.623  0.4418 -0.7224 -0.4167
  446MOL0     C61423   2.889   8.803   8.615  0.5526  0.6839 -0.5277
  446MOL0     C61424   3.026   8.823   8.683  0.4641 -0.2982 -0.1546
  446MOL0     C61425   3.048   8.777   8.831  0.3630 -0.2249 -0.6110
  446MOL0     C61426   3.026   8.884   8.934 -0.1149 -1.4890 -0.5291
  446MOL0     N61427   3.088   9.014   8.901  0.1926  0.0940 -0.0369
  446MOL0     C61428   3.023   9.111   8.830  0.2219 -0.2873 -0.1904
  446MOL0     C61429   3.110   9.213   8.827 -0.2246 -1.0813  1.2079
  446MOL0     C61430   3.094   9.352   8.769 -0.0956  0.1036  0.3535
  446MOL0     C61431   3.037   9.439   8.880 -0.5433 -0.6065 -0.3487
  446MOL0     C61432   2.930   9.543   8.833  0.5805 -0.4535  0.5959
  446MOL0     C61433   2.998   9.660   8.740  0.2373 -0.3045 -0.7989
  446MOL0     O61434   3.127   9.696   8.790  0.1947 -0.1468 -0.5739
  446MOL0     C61435   3.186   9.804   8.722  0.5608  0.5564  0.2450
  446MOL0     C61436   3.320   9.813   8.756 -0.2354 -0.6101 -0.0299
  446MOL0     C61437   3.413   9.899   8.711 -0.2222 -0.3212 -1.0908
  446MOL0     C61438   3.546   9.903   8.786  0.0909  0.0115 -0.0819
  446MOL0     C61439   3.367   9.985   8.611 -0.5521  0.5010  0.2286
  446MOL0     C61440   3.463  10.085   8.557  0.2560  0.3205 -0.3123
  446MOL0     O61441   3.430  10.211   8.564  0.7461  0.0094  0.5972
  446MOL0     C61442   3.516  10.316   8.570 -0.3373  0.1528  0.0517
  446MOL0     C61443   3.490  10.421   8.667 -0.2934  0.4235  0.0453
  446MOL0     C61444   3.589  10.516   8.689  0.2920  0.3347 -0.1686
  446MOL0     C61445   3.699  10.532   8.612  0.5567  0.2518  0.6552
  446MOL0     O61446   3.771  10.650   8.625  0.1619 -0.5212  0.0585
  446MOL0     C61447   3.898  10.665   8.562 -0.0245 -0.2608 -0.2642
  446MOL0     C61448   3.945  10.813   8.571 -0.2933  0.5171  0.0318
  446MOL0     C61449   3.861  10.909   8.489  0.0368 -0.0290 -0.7167
  446MOL0     C61450   3.918  11.044   8.500 -0.5025 -0.4045  0.2934
  446MOL0     C61451   3.827  11.140   8.424 -0.6436  0.8339 -0.4526
  446MOL0     C61452   3.907  11.258   8.373 -0.2625  0.2524  0.6672
  446MOL0     C61453   3.824  11.356   8.290 -0.1192  0.6024  0.2008
  446MOL0     C61454   3.896  11.483   8.269 -0.9457  0.4914  0.3748
  446MOL0    Cl61455   3.883  11.586   8.421  0.0004 -0.2393  0.1193
  446MOL0     C61456   3.714  10.442   8.499 -0.0696 -0.5345  0.2359
  446MOL0     C61457   3.617  10.341   8.476  0.3035 -0.6249  0.0422
  446MOL0     O61458   3.567  10.041   8.514 -0.0657 -0.0954 -0.7623
  446MOL0     C61459   3.233   9.978   8.566  0.8862  0.0996  0.7796
  446MOL0     C61460   3.142   9.893   8.626  0.0017  1.1567 -0.5808
  446MOL0     N61461   3.224   9.170   8.891 -0.3281 -0.7234 -0.1055
  446MOL0     N61462   3.205   9.057   8.944 -0.3404  0.7232  0.1252
  446MOL0     C61463   2.653   8.436   8.057  1.4313  0.7051 -0.1190
  446MOL0     C61464   2.580   8.397   7.938  0.5155 -1.2288 -0.1308
  446MOL0     C61465   2.368   8.204   7.597  0.2823  0.2230  0.6262
  446MOL0     C61466   2.250   8.149   7.655 -0.4480  0.4716 -0.0190
  446MOL0     C61467   2.152   8.088   7.579  0.1343 -0.2267 -0.1965
  446MOL0     C61468   2.170   8.079   7.442 -0.4806 -0.3316 -0.1076
  446MOL0     O61469   2.079   8.020   7.353 -0.2913  0.1739  0.0213
  446MOL0     C61470   1.957   7.962   7.406  0.4289  0.8217  0.2854
  446MOL0     C61471   1.860   7.934   7.289  1.1296 -0.1545  0.0308
  446MOL0     C61472   1.724   7.844   7.313 -0.5985 -0.4416 -0.4731
  446MOL0     C61473   1.613   7.864   7.213 -0.3739 -0.3961  0.3550
  446MOL0     C61474   1.658   7.835   7.077 -0.7457 -0.1361  0.4119
  446MOL0     C61475   1.685   7.797   6.964 -0.5926  0.6639 -0.1317
  446MOL0     C61476   2.290   8.134   7.384  0.9290  0.9956  0.7342
  446MOL0     C61477   2.390   8.187   7.457 -0.1883 -0.5423 -0.2920
  446MOL0     C61478   2.515   8.239   7.386 -0.7617  0.1289  0.5639
  446MOL0     H61479   2.434   8.115   8.068  1.3500 -0.4501  2.0781
  446MOL0     H61480   2.541   8.197   8.268  0.1824  0.2290  0.0766
  446MOL0     H61481   2.659   8.280   8.408 -1.0293  1.4309 -3.2465
  446MOL0     H61482   2.540   8.395   8.432 -0.4703  0.6319 -2.0490
  446MOL0     H61483   2.665   8.427   8.622 -1.5525 -0.6169 -1.8597
  446MOL0     H61484   2.820   8.389   8.543 -0.7432 -1.9022  0.1672
  446MOL0     H61485   2.798   8.622   8.422 -0.5818 -0.3745  0.1575
  446MOL0     H61486   2.677   8.659   8.532  0.1894 -0.2487  3.1787
  446MOL0     H61487   2.826   8.630   8.725  1.8469  0.7615  0.3474
  446MOL0     H61488   2.952   8.584   8.606  0.3714 -0.2110 -3.0191
  446MOL0     H61489   2.807   8.856   8.664  1.3050  1.7572 -0.4101
  446MOL0     H61490   2.883   8.836   8.511  0.8564 -0.7313 -1.0309
  446MOL0     H61491   3.089   8.752   8.628  1.9799 -0.1896  1.3659
  446MOL0     H61492   3.063   8.922   8.656 -0.1652 -0.1502 -0.5037
  446MOL0     H61493   3.155   8.757   8.841  1.0045  2.0797 -2.1789
  446MOL0     H61494   2.986   8.693   8.864 -2.4893  1.8762 -0.1990
  446MOL0     H61495   2.927   8.918   8.963  0.9209  0.4129  1.0222
  446MOL0     H61496   3.060   8.844   9.029  0.5805  1.1269  0.4319
  446MOL0     H61497   2.920   9.120   8.799  0.0467  0.6315  0.6299
  446MOL0     H61498   3.010   9.340   8.699 -1.3892  1.7001  1.5391
  446MOL0     H61499   3.179   9.401   8.721 -0.8521 -0.0758 -1.2458
  446MOL0     H61500   2.993   9.372   8.954  2.2574 -1.1763  0.9367
  446MOL0     H61501   3.120   9.496   8.922 -1.6244  1.6920 -1.1721
  446MOL0     H61502   2.847   9.498   8.777  0.3075  0.3788  0.3186
  446MOL0     H61503   2.884   9.591   8.920 -3.9328 -0.4506 -1.4971
  446MOL0     H61504   3.002   9.620   8.638 -2.6188  1.1790 -1.5877
  446MOL0     H61505   2.928   9.743   8.749  1.1171  0.2587  2.2004
  446MOL0     H61506   3.346   9.731   8.822  0.0357 -2.0060 -1.7945
  446MOL0     H61507   3.621   9.836   8.743  0.6263  0.6978 -0.2239
  446MOL0     H61508   3.534   9.873   8.891  0.1772  1.3701  0.3403
  446MOL0     H61509   3.582  10.006   8.778 -1.1742  0.4289 -0.7736
  446MOL0     H61510   3.410  10.394   8.735  0.3261 -4.6539 -0.8096
  446MOL0     H61511   3.582  10.596   8.762  2.9135 -0.0645  0.5844
  446MOL0     H61512   3.971  10.599   8.609  1.7952 -0.4886 -3.2148
  446MOL0     H61513   3.892  10.641   8.456 -1.0303  0.2199 -0.3353
  446MOL0     H61514   3.958  10.853   8.672  2.9954  4.1656 -1.5820
  446MOL0     H61515   4.046  10.813   8.529  0.3886 -1.0020  1.5273
  446MOL0     H61516   3.759  10.900   8.528  0.3399  1.8912  0.6007
  446MOL0     H61517   3.851  10.877   8.384  1.7956  1.2799 -1.3188
  446MOL0     H61518   4.019  11.039   8.460 -0.9314  0.5375 -0.9838
  446MOL0     H61519   3.932  11.077   8.603 -2.2921 -2.1446  1.1692
  446MOL0     H61520   3.806  11.086   8.331 -1.3950  1.1527 -0.4767
  446MOL0     H61521   3.734  11.166   8.476 -0.2540 -1.3561  1.5276
  446MOL0     H61522   3.992  11.227   8.312 -1.3798  0.2321 -0.9548
  446MOL0     H61523   3.946  11.307   8.463  1.7280 -1.9347  1.0782
  446MOL0     H61524   3.736  11.377   8.352 -0.6844  1.3113 -0.8075
  446MOL0     H61525   3.789  11.309   8.197 -1.4563  0.4428  0.7565
  446MOL0     H61526   3.871  11.530   8.174 -3.1867  0.5992  0.9458
  446MOL0     H61527   3.999  11.458   8.244 -1.5880 -1.1715 -0.7654
  446MOL0     H61528   3.798  10.458   8.433  0.3379  2.7143  1.3512
  446MOL0     H61529   3.641  10.280   8.389 -0.5168  2.0242 -2.2015
  446MOL0     H61530   3.199  10.044   8.487 -3.6020  0.4166  2.6560
  446MOL0     H61531   3.041   9.910   8.590 -0.4772 -1.9395 -0.9148
  446MOL0     H61532   2.725   8.517   8.047  1.5893  0.5886  0.0743
  446MOL0     H61533   2.602   8.459   7.852  1.1206 -1.7348 -0.3428
  446MOL0     H61534   2.235   8.153   7.762 -0.7130 -1.5328  0.0674
  446MOL0     H61535   2.059   8.069   7.631  0.0799  0.8347  0.1208
  446MOL0     H61536   1.977   7.864   7.451 -3.4043  0.3453  1.3179
  446MOL0     H61537   1.904   8.021   7.482 -1.1359 -1.4849  1.1027
  446MOL0     H61538   1.919   7.897   7.205  2.3344 -1.1422  1.2628
  446MOL0     H61539   1.813   8.027   7.256 -1.5891 -1.1807  0.7194
  446MOL0     H61540   1.752   7.738   7.314  3.2748  0.4370 -0.5781
  446MOL0     H61541   1.680   7.867   7.410  0.3270 -2.7553  0.5591
  446MOL0     H61542   1.564   7.962   7.219 -1.1717 -0.5303 -2.4525
  446MOL0     H61543   1.538   7.793   7.249  0.5352 -1.7303 -0.3034
  446MOL0     H61544   1.715   7.778   6.863 -1.4693 -3.0669  0.1711
  446MOL0     H61545   2.318   8.122   7.280  1.6004  4.5544  0.4107
  446MOL0     H61546   2.602   8.207   7.444 -1.8691 -3.6476  0.4200
  446MOL0     H61547   2.523   8.196   7.286 -2.0571  1.1341 -0.0023
  446MOL0     H61548   2.512   8.348   7.376  0.6830  0.1937  0.6344
  447MOL0     O61549   2.905   1.528   6.290  0.1184 -0.7704  0.5005
  447MOL0     C61550   2.833   1.434   6.335 -0.2561  0.6483 -0.5706
  447MOL0     O61551   2.869   1.303   6.336 -0.0647  0.0947 -0.0460
  447MOL0     C61552   3.000   1.272   6.336 -0.0526 -1.2981 -0.4891
  447MOL0     C61553   3.073   1.294   6.217  0.6960  1.0965 -0.3265
  447MOL0     C61554   3.213   1.270   6.204  0.0106 -0.3920 -0.8506
  447MOL0     C61555   3.276   1.215   6.315 -0.5484  0.8173  0.2823
  447MOL0     O61556   3.410   1.201   6.313  0.7894  0.4323  0.0810
  447MOL0     C61557   3.471   1.141   6.196 -1.0216  0.7299 -0.1683
  447MOL0     C61558   3.565   1.014   6.230  0.2110  1.2449 -0.3934
  447MOL0     C61559   3.646   1.029   6.370 -0.3712 -0.0767 -0.4240
  447MOL0     C61560   3.764   1.119   6.343 -0.1221  0.2046 -0.0485
  447MOL0     C61561   3.852   1.133   6.473  0.2023  0.4166  0.3414
  447MOL0     C61562   3.970   1.033   6.486  0.2188  0.3728 -0.0772
  447MOL0     C61563   4.040   1.067   6.613 -0.2957  0.1470 -1.0258
  447MOL0     C61564   4.175   1.004   6.618  0.0829 -0.5800  0.2710
  447MOL0     N61565   4.236   1.006   6.752 -0.3656  0.2691 -0.5152
  447MOL0     C61566   4.213   0.902   6.853 -0.0966 -0.1903 -0.1754
  447MOL0     C61567   4.243   0.978   6.968  0.3159 -0.4236  0.6295
  447MOL0     C61568   4.220   0.916   7.104 -0.1924  0.5231 -0.4918
  447MOL0     C61569   4.344   0.922   7.194  0.4166  0.7363 -0.9724
  447MOL0     C61570   4.310   0.862   7.332  0.0697 -0.1897 -0.1197
  447MOL0     C61571   4.443   0.850   7.422  0.4095  1.5201  0.0044
  447MOL0     O61572   4.538   0.755   7.356 -0.1489 -0.0522 -0.5262
  447MOL0     C61573   4.668   0.770   7.397  0.0300 -0.3120 -0.2783
  447MOL0     C61574   4.729   0.886   7.453 -0.5015 -0.0966  0.3385
  447MOL0     C61575   4.869   0.876   7.488 -0.5492 -0.4926  0.4943
  447MOL0     C61576   4.932   1.013   7.538  0.0058 -0.1949  0.6305
  447MOL0     C61577   4.945   0.752   7.467  0.2267 -0.2979 -0.1358
  447MOL0     C61578   5.081   0.718   7.526 -0.0560 -0.5824  0.2872
  447MOL0     O61579   5.176   0.823   7.526  0.0080  0.1878  1.1464
  447MOL0     C61580   5.297   0.801   7.590  0.1148  0.8359 -0.3318
  447MOL0     C61581   5.290   0.774   7.726  0.0451  0.2239  0.4333
  447MOL0     C61582   5.412   0.746   7.796  0.3416  0.0729 -0.4907
  447MOL0     C61583   5.534   0.747   7.728 -0.5002 -1.3675  0.2094
  447MOL0     O61584   5.654   0.707   7.788  0.4013 -0.5362  0.0379
  447MOL0     C61585   5.676   0.735   7.923  0.6586 -0.2120  0.0501
  447MOL0     C61586   5.819   0.679   7.953  0.4476 -0.1886  0.4873
  447MOL0     C61587   5.933   0.745   7.866 -0.1975  0.1064  0.1203
  447MOL0     C61588   6.068   0.697   7.907 -1.0237  0.7401 -0.9137
  447MOL0     C61589   6.184   0.766   7.837 -0.1057  0.3175  0.3236
  447MOL0     C61590   6.196   0.714   7.691 -0.1924 -0.5619  0.4712
  447MOL0     C61591   6.319   0.774   7.615 -0.4731 -0.5719  0.1348
  447MOL0     C61592   6.335   0.729   7.465  0.3143  0.6159 -0.8258
  447MOL0    Cl61593   6.388   0.556   7.467 -0.0577 -0.3148 -0.1328
  447MOL0     C61594   5.539   0.785   7.596  0.0665 -0.3886  0.7937
  447MOL0     C61595   5.417   0.809   7.528  0.3333 -0.0111  0.5355
  447MOL0     O61596   5.101   0.606   7.584 -0.3794 -0.1053 -0.2611
  447MOL0     C61597   4.875   0.648   7.406 -0.2675  0.5405 -0.2059
  447MOL0     C61598   4.743   0.655   7.373  0.2947 -0.0293  0.1530
  447MOL0     N61599   4.278   1.105   6.937 -0.5839  0.8070  0.1052
  447MOL0     N61600   4.281   1.125   6.810  0.4600  0.6250 -0.1813
  447MOL0     C61601   3.204   1.185   6.434  0.8763 -0.8633  0.5633
  447MOL0     C61602   3.062   1.216   6.444 -0.9109  0.1614 -0.7132
  447MOL0     C61603   2.703   1.474   6.392  0.6693 -0.5626  0.2899
  447MOL0     C61604   2.645   1.594   6.339 -0.5282 -0.6118 -0.2540
  447MOL0     C61605   2.514   1.629   6.370 -0.1384  0.1867  0.9209
  447MOL0     C61606   2.438   1.561   6.464  1.3152 -0.8718  0.1682
  447MOL0     O61607   2.317   1.617   6.485  0.9919 -0.6017 -0.2727
  447MOL0     C61608   2.221   1.552   6.565 -0.4058 -0.1813 -0.0394
  447MOL0     C61609   2.094   1.645   6.555 -0.2337 -0.2253 -0.5388
  447MOL0     C61610   1.980   1.597   6.658  1.0760 -1.1081 -0.1858
  447MOL0     C61611   1.867   1.696   6.693 -0.4949  0.3993  0.4756
  447MOL0     C61612   1.797   1.762   6.578  0.8775  0.0281  0.2148
  447MOL0     C61613   1.750   1.809   6.475  0.3509 -0.2471  0.4058
  447MOL0     C61614   2.497   1.439   6.518  0.1377 -1.3381 -0.5889
  447MOL0     C61615   2.627   1.395   6.483  0.4490  0.0602 -0.2322
  447MOL0     C61616   2.669   1.269   6.545  0.0875 -0.6418  0.4898
  447MOL0     H61617   3.020   1.331   6.130 -1.0959 -2.1807 -0.8241
  447MOL0     H61618   3.257   1.293   6.107 -0.9014  0.3454 -1.1121
  447MOL0     H61619   3.519   1.220   6.138  0.4800  1.2081  1.6139
  447MOL0     H61620   3.395   1.091   6.136  0.7912 -1.1876 -1.0056
  447MOL0     H61621   3.512   0.918   6.230  0.8929  0.8579  0.3930
  447MOL0     H61622   3.642   0.992   6.155  1.5571  0.7072  1.0836
  447MOL0     H61623   3.576   1.079   6.438 -0.3467 -0.3966 -0.1571
  447MOL0     H61624   3.671   0.934   6.419  0.5116 -0.2931 -1.2718
  447MOL0     H61625   3.820   1.082   6.256 -0.7065  1.7884 -1.1414
  447MOL0     H61626   3.723   1.219   6.324 -0.3522  0.8536  3.2448
  447MOL0     H61627   3.799   1.135   6.569 -0.1921 -0.7829  0.1531
  447MOL0     H61628   3.879   1.239   6.466 -1.2341  0.9416  1.9715
  447MOL0     H61629   3.935   0.929   6.495 -0.6009  0.6725  0.2926
  447MOL0     H61630   4.038   1.032   6.401 -0.9197  0.0090 -1.0245
  447MOL0     H61631   3.990   1.044   6.708  1.0289 -0.4209 -0.4347
  447MOL0     H61632   4.056   1.174   6.623  0.2858 -0.0438  0.4260
  447MOL0     H61633   4.162   0.900   6.589 -1.0140 -0.4817  0.3764
  447MOL0     H61634   4.238   1.056   6.545 -0.6741 -0.6406 -0.4362
  447MOL0     H61635   4.174   0.802   6.833 -4.5977  1.4403 -0.5978
  447MOL0     H61636   4.191   0.812   7.090 -0.5718  0.4997  0.3571
  447MOL0     H61637   4.139   0.967   7.156  1.5487 -0.2922  3.4331
  447MOL0     H61638   4.415   0.854   7.145  0.0475 -0.7704  0.4803
  447MOL0     H61639   4.387   1.022   7.206 -0.2264  0.7699  1.5851
  447MOL0     H61640   4.241   0.926   7.387  0.8480 -0.4381  1.2083
  447MOL0     H61641   4.279   0.757   7.327  2.4697 -0.9039 -2.0843
  447MOL0     H61642   4.482   0.952   7.424 -0.3377  1.8079  1.8257
  447MOL0     H61643   4.413   0.814   7.521  1.0735 -0.0617 -0.3315
  447MOL0     H61644   4.678   0.981   7.465 -0.0978  0.0014  1.3861
  447MOL0     H61645   5.001   0.981   7.617  1.5557  0.1903 -0.5133
  447MOL0     H61646   4.854   1.080   7.575  0.6698  0.5977  0.6123
  447MOL0     H61647   4.977   1.067   7.455 -3.4898  3.4369  0.8272
  447MOL0     H61648   5.196   0.761   7.778  0.8868 -1.2904  1.6500
  447MOL0     H61649   5.404   0.726   7.903  0.7001  1.8607 -0.0967
  447MOL0     H61650   5.669   0.842   7.945  1.9767  0.5088 -2.6814
  447MOL0     H61651   5.604   0.680   7.984  2.6912 -2.4808  0.5547
  447MOL0     H61652   5.836   0.691   8.060  1.7507  0.6874  0.2053
  447MOL0     H61653   5.826   0.571   7.934  1.1043 -0.0889  0.1193
  447MOL0     H61654   5.944   0.852   7.885 -0.2639  0.2547 -0.6422
  447MOL0     H61655   5.916   0.719   7.761  2.5055  0.6067 -0.5332
  447MOL0     H61656   6.081   0.589   7.897  1.8389  0.7510  1.2301
  447MOL0     H61657   6.078   0.703   8.016  0.6411 -2.7243 -0.7306
  447MOL0     H61658   6.172   0.875   7.837  1.6470  0.5547 -1.3026
  447MOL0     H61659   6.273   0.747   7.896  1.4304  0.8465 -1.7163
  447MOL0     H61660   6.106   0.758   7.648 -0.4608  0.0243  1.5861
  447MOL0     H61661   6.200   0.605   7.676 -1.9448 -0.7671  1.2282
  447MOL0     H61662   6.406   0.735   7.669  0.5980  2.7861  1.0624
  447MOL0     H61663   6.320   0.882   7.630 -0.6778 -0.8034  2.0292
  447MOL0     H61664   6.403   0.797   7.413  2.1774 -0.8305 -0.3886
  447MOL0     H61665   6.236   0.738   7.422  0.2687 -0.4894 -0.9894
  447MOL0     H61666   5.632   0.790   7.541 -0.6344 -1.8564 -0.5974
  447MOL0     H61667   5.420   0.822   7.421  0.6247  0.1903  0.5692
  447MOL0     H61668   4.940   0.564   7.386 -1.2557 -0.3312  0.1613
  447MOL0     H61669   4.693   0.567   7.332  1.0375 -0.2159 -0.3936
  447MOL0     H61670   3.257   1.136   6.515  0.4404 -0.4771  1.0823
  447MOL0     H61671   3.008   1.215   6.538 -2.2683 -2.7492 -1.4060
  447MOL0     H61672   2.698   1.660   6.270  0.2940 -1.0187 -0.0265
  447MOL0     H61673   2.471   1.724   6.339 -1.0736 -0.7927 -0.9263
  447MOL0     H61674   2.189   1.457   6.521 -3.0165 -0.8627  2.9935
  447MOL0     H61675   2.254   1.542   6.668  2.6209  0.1238 -0.8799
  447MOL0     H61676   2.062   1.663   6.451  0.1169 -0.0000 -0.6072
  447MOL0     H61677   2.130   1.742   6.588  1.8926 -1.6447  1.5973
  447MOL0     H61678   1.933   1.507   6.616 -0.2872 -0.7706  0.5457
  447MOL0     H61679   2.025   1.567   6.753  0.8188 -1.6070 -0.2183
  447MOL0     H61680   1.899   1.776   6.760 -1.1037  0.7512  0.3600
  447MOL0     H61681   1.790   1.635   6.742  0.6096 -0.5840  1.0135
  447MOL0     H61682   1.715   1.847   6.381  0.9470  0.2683  0.3935
  447MOL0     H61683   2.442   1.374   6.585  1.1518 -0.1032  1.5424
  447MOL0     H61684   2.659   1.190   6.470 -2.1927 -0.4693  0.5210
  447MOL0     H61685   2.776   1.276   6.566 -0.0385  0.7953  0.7538
  447MOL0     H61686   2.604   1.240   6.628 -0.4275 -2.9970 -0.6683
  448MOL0     O61687   0.283   9.118   3.267 -0.4325  0.1218  0.2546
  448MOL0     C61688   0.225   9.045   3.341  0.7344 -0.0858  0.0593
  448MOL0     O61689   0.252   8.914   3.371 -0.2282  0.3328 -0.2158
  448MOL0     C61690   0.341   8.839   3.301 -0.8271  0.6471 -0.7509
  448MOL0     C61691   0.454   8.883   3.233  0.8274 -0.2702 -0.0244
  448MOL0     C61692   0.538   8.785   3.180  0.5311 -0.0008 -1.1268
  448MOL0     C61693   0.499   8.647   3.183 -1.1744  0.2138  0.5703
  448MOL0     O61694   0.586   8.558   3.117 -0.2009  0.4373 -0.2224
  448MOL0     C61695   0.565   8.419   3.135 -0.5265  0.0057  0.3046
  448MOL0     C61696   0.693   8.343   3.105  0.6996 -0.2490  0.8779
  448MOL0     C61697   0.683   8.191   3.109  0.4851 -0.3997 -0.9458
  448MOL0     C61698   0.788   8.134   3.001  0.2106 -0.0778  0.0490
  448MOL0     C61699   0.827   7.987   3.021 -0.3612  1.1487 -0.4583
  448MOL0     C61700   0.926   7.917   2.921  0.1007  0.1931 -0.5483
  448MOL0     C61701   1.044   7.996   2.893 -0.6410 -0.1147 -0.1848
  448MOL0     C61702   1.121   8.034   3.021  0.2739 -0.5417  0.2642
  448MOL0     N61703   1.264   8.060   2.999 -0.7488 -0.2896  0.4358
  448MOL0     C61704   1.371   7.974   2.985  0.3117 -0.8704 -0.1253
  448MOL0     C61705   1.482   8.049   2.974 -0.1670 -0.9687  0.4732
  448MOL0     C61706   1.627   8.006   2.948  0.4025 -0.7013  0.0210
  448MOL0     C61707   1.711   7.976   3.071 -0.1530 -0.1900 -0.4702
  448MOL0     C61708   1.838   7.897   3.025  0.0643  1.1791  0.4398
  448MOL0     C61709   1.944   7.988   2.970 -0.7318 -0.0383 -0.2384
  448MOL0     O61710   2.055   7.916   2.926  0.2539 -0.3080 -0.8514
  448MOL0     C61711   2.166   7.889   3.005 -0.3316  0.4815 -0.0561
  448MOL0     C61712   2.176   7.896   3.142  0.2335 -0.7236 -0.4860
  448MOL0     C61713   2.283   7.862   3.222 -0.4332 -0.9000  0.3938
  448MOL0     C61714   2.265   7.866   3.372  0.2370 -0.5808 -0.8043
  448MOL0     C61715   2.399   7.816   3.155 -0.4787  0.3270  0.0115
  448MOL0     C61716   2.529   7.762   3.219  0.0116  0.5790 -1.2752
  448MOL0     O61717   2.602   7.670   3.153  0.3812 -0.3587 -0.7344
  448MOL0     C61718   2.730   7.639   3.202  0.4925 -0.3117 -0.4762
  448MOL0     C61719   2.754   7.586   3.331 -0.7084  0.3636 -0.0510
  448MOL0     C61720   2.884   7.543   3.370  0.7884  0.6043 -0.8592
  448MOL0     C61721   2.992   7.555   3.288 -0.2245 -1.7374 -0.8062
  448MOL0     O61722   3.110   7.504   3.322 -0.0270  0.4245 -0.2691
  448MOL0     C61723   3.116   7.368   3.277  0.1150  0.6189 -1.1191
  448MOL0     C61724   3.095   7.279   3.397  0.3054 -0.0948 -0.0889
  448MOL0     C61725   3.166   7.139   3.386 -0.4249 -0.0927  0.5050
  448MOL0     C61726   3.113   7.030   3.483 -0.5269  0.4167 -0.8612
  448MOL0     C61727   3.171   6.889   3.444 -0.6957 -0.6908 -0.3274
  448MOL0     C61728   3.275   6.832   3.547 -0.0451  0.1200  0.3795
  448MOL0     C61729   3.322   6.691   3.505 -0.6400 -0.5563 -0.2607
  448MOL0     C61730   3.415   6.685   3.378 -0.1626  0.2596  0.0362
  448MOL0    Cl61731   3.573   6.750   3.440  0.4915 -0.2991 -0.5878
  448MOL0     C61732   2.972   7.615   3.163  0.9942 -0.2475 -0.0792
  448MOL0     C61733   2.840   7.640   3.119 -0.0031  0.0751  0.8619
  448MOL0     O61734   2.559   7.816   3.324 -0.8610 -0.1797 -0.3377
  448MOL0     C61735   2.396   7.807   3.012  0.0771 -0.3526  0.2104
  448MOL0     C61736   2.281   7.835   2.940 -0.2826  0.0317  0.1947
  448MOL0     N61737   1.444   8.181   2.985 -1.0423  0.0294  0.9850
  448MOL0     N61738   1.316   8.187   2.998  0.0957  0.3317  0.1925
  448MOL0     C61739   0.384   8.606   3.251  0.2538  0.5169  0.1530
  448MOL0     C61740   0.300   8.706   3.306 -0.1947 -0.4573 -0.5851
  448MOL0     C61741   0.099   9.093   3.416 -0.2916 -0.4568 -0.0731
  448MOL0     C61742   0.035   8.999   3.503  0.7106  0.3229  1.1403
  448MOL0     C61743  -0.075   9.039   3.588  0.1234  0.2878 -0.1507
  448MOL0     C61744  -0.132   9.160   3.568  0.5750 -0.1444  0.3638
  448MOL0     O61745  -0.256   9.179   3.626  0.0224 -0.0594  0.2213
  448MOL0     C61746  -0.288   9.316   3.656  0.8900 -0.4702  0.2849
  448MOL0     C61747  -0.399   9.360   3.551  0.0240 -0.1967  0.8554
  448MOL0     C61748  -0.439   9.504   3.587 -0.8081 -0.8043  0.6511
  448MOL0     C61749  -0.520   9.520   3.719 -0.2049 -0.2727  0.6019
  448MOL0     C61750  -0.662   9.538   3.691  0.2896  0.1468 -0.0663
  448MOL0     C61751  -0.783   9.514   3.678 -0.2618  0.1374  0.1416
  448MOL0     C61752  -0.077   9.249   3.479  0.6410  0.6860 -1.0669
  448MOL0     C61753   0.041   9.219   3.412  0.0330 -0.2047 -0.6320
  448MOL0     C61754   0.096   9.335   3.328  0.1379  0.0467 -0.0685
  448MOL0     H61755   0.479   8.987   3.216 -0.6489 -0.2131 -2.3606
  448MOL0     H61756   0.638   8.801   3.142  1.3119 -1.9449 -0.0082
  448MOL0     H61757   0.481   8.382   3.075 -1.4585  0.3111  1.3727
  448MOL0     H61758   0.530   8.398   3.237 -2.5313  3.9907  0.6712
  448MOL0     H61759   0.729   8.374   3.006 -3.2581  2.1453 -0.0481
  448MOL0     H61760   0.774   8.372   3.173  3.0822 -2.2818 -0.9194
  448MOL0     H61761   0.715   8.156   3.207 -1.1285 -1.3984 -0.7446
  448MOL0     H61762   0.581   8.157   3.090  0.2534 -0.3200  0.0971
  448MOL0     H61763   0.738   8.144   2.904 -1.5942 -1.5083  0.7677
  448MOL0     H61764   0.877   8.197   3.006  0.1864 -0.0855  0.6383
  448MOL0     H61765   0.738   7.925   3.015  0.4844 -0.5880  2.5879
  448MOL0     H61766   0.870   7.977   3.122  0.0806 -1.8268 -0.8611
  448MOL0     H61767   0.942   7.819   2.967 -1.0844  0.4019  0.3584
  448MOL0     H61768   0.875   7.902   2.826  0.5280 -0.4826 -0.6758
  448MOL0     H61769   1.007   8.085   2.841  1.7519  1.4773  0.7082
  448MOL0     H61770   1.094   7.930   2.822 -0.7139 -3.7459  2.8693
  448MOL0     H61771   1.080   8.120   3.075  1.6026 -0.7980  1.7604
  448MOL0     H61772   1.126   7.954   3.096  0.2927 -0.6140  0.1867
  448MOL0     H61773   1.363   7.865   2.986  1.2742 -0.9692  1.7822
  448MOL0     H61774   1.671   8.088   2.891  1.5493  0.5212  2.4835
  448MOL0     H61775   1.619   7.921   2.881 -2.0666  1.1998 -2.3129
  448MOL0     H61776   1.737   8.070   3.120  0.2594 -0.4757 -0.1300
  448MOL0     H61777   1.656   7.911   3.140  0.2795  0.1007  0.1529
  448MOL0     H61778   1.881   7.850   3.114 -0.2298 -0.5484 -0.2827
  448MOL0     H61779   1.809   7.825   2.948 -1.5884  0.3524  1.7467
  448MOL0     H61780   1.910   8.055   2.892 -2.0863 -0.7628 -0.2961
  448MOL0     H61781   1.967   8.063   3.046 -2.1406  0.7800 -0.5986
  448MOL0     H61782   2.083   7.925   3.190 -0.4179  1.3486 -2.7819
  448MOL0     H61783   2.318   7.797   3.437 -0.4795  1.2252  1.8372
  448MOL0     H61784   2.158   7.857   3.394  0.6247  2.8556  3.8955
  448MOL0     H61785   2.308   7.959   3.409  5.4133 -2.4085 -1.4705
  448MOL0     H61786   2.670   7.566   3.397 -0.0616 -1.0959  0.3662
  448MOL0     H61787   2.883   7.488   3.463 -3.3473  0.1766 -0.9684
  448MOL0     H61788   3.045   7.348   3.195  1.4451 -1.0762 -1.9303
  448MOL0     H61789   3.207   7.344   3.222  0.6685 -2.5720  0.9298
  448MOL0     H61790   3.143   7.330   3.481  0.9375 -0.1629 -0.3977
  448MOL0     H61791   2.988   7.274   3.420  0.6009 -1.4872  1.1680
  448MOL0     H61792   3.273   7.151   3.406 -0.3281  1.3613 -0.7316
  448MOL0     H61793   3.143   7.101   3.286  3.1053  0.1975 -0.5548
  448MOL0     H61794   3.005   7.017   3.467 -0.7243 -1.8911  1.5425
  448MOL0     H61795   3.129   7.062   3.587  1.3835 -2.3443 -0.2079
  448MOL0     H61796   3.098   6.808   3.447  2.5612 -3.9139 -0.8743
  448MOL0     H61797   3.201   6.894   3.339 -2.1958 -2.4821 -0.8920
  448MOL0     H61798   3.229   6.833   3.646 -2.4451  0.9812 -0.6751
  448MOL0     H61799   3.363   6.897   3.554 -0.6033  0.7140  3.1300
  448MOL0     H61800   3.237   6.630   3.475 -0.0930 -1.2004 -0.5424
  448MOL0     H61801   3.372   6.643   3.590  0.7148 -1.2394 -1.3889
  448MOL0     H61802   3.366   6.732   3.292 -0.3734 -1.0795 -0.5995
  448MOL0     H61803   3.430   6.580   3.354 -3.6253 -0.1942 -0.6232
  448MOL0     H61804   3.058   7.629   3.097 -0.3572 -1.4959 -2.2426
  448MOL0     H61805   2.817   7.666   3.016 -2.2175 -5.8369 -0.5953
  448MOL0     H61806   2.472   7.759   2.951 -1.7954 -2.7210 -0.4524
  448MOL0     H61807   2.275   7.823   2.833 -0.8346 -0.7720  0.3048
  448MOL0     H61808   0.346   8.504   3.257 -0.2573  0.5805 -1.4634
  448MOL0     H61809   0.213   8.691   3.369 -0.7193  1.6535 -0.7452
  448MOL0     H61810   0.081   8.903   3.526 -0.2813 -0.1812  1.0530
  448MOL0     H61811  -0.117   8.967   3.657  0.0234 -0.2125 -0.7285
  448MOL0     H61812  -0.324   9.312   3.759  3.4146 -0.2105  1.2356
  448MOL0     H61813  -0.206   9.388   3.648 -0.9291  1.9250  1.7500
  448MOL0     H61814  -0.489   9.298   3.558 -0.2877  0.2350  0.6940
  448MOL0     H61815  -0.358   9.368   3.450 -0.9299 -0.2376  0.4494
  448MOL0     H61816  -0.342   9.554   3.594 -0.4631 -1.3278 -0.3195
  448MOL0     H61817  -0.484   9.553   3.500 -0.7072  0.4450  1.2721
  448MOL0     H61818  -0.491   9.622   3.748 -0.8625  0.1266 -0.1207
  448MOL0     H61819  -0.494   9.459   3.806  0.5592 -0.9928 -0.1073
  448MOL0     H61820  -0.886   9.495   3.699  0.1872  0.4797  3.0175
  448MOL0     H61821  -0.110   9.351   3.459  1.5870  1.0880 -0.6483
  448MOL0     H61822   0.081   9.319   3.221 -3.5692 -2.5140  0.6489
  448MOL0     H61823   0.040   9.427   3.350 -1.0773 -0.6179 -0.2716
  448MOL0     H61824   0.202   9.346   3.354  0.0082  1.3095  0.0082
  449MOL0     O61825   4.749   2.683   3.232  0.1106 -0.4847 -0.0718
  449MOL0     C61826   4.743   2.631   3.122 -0.4628 -0.6555 -0.2843
  449MOL0     O61827   4.850   2.591   3.051 -0.1039 -0.4534  0.9483
  449MOL0     C61828   4.980   2.642   3.058 -0.4900 -0.0915 -0.6094
  449MOL0     C61829   5.026   2.740   3.147  0.7135 -0.5400  0.0463
  449MOL0     C61830   5.165   2.780   3.150  0.9650  0.0113 -0.2420
  449MOL0     C61831   5.253   2.716   3.070 -0.7992 -0.2187  0.6491
  449MOL0     O61832   5.390   2.715   3.074  0.0256 -0.4440 -0.6479
  449MOL0     C61833   5.453   2.844   3.063  0.5898 -0.1284  0.5529
  449MOL0     C61834   5.603   2.827   3.033  0.4168  0.3099 -0.5168
  449MOL0     C61835   5.666   2.953   2.984 -0.4067 -0.0487 -0.0585
  449MOL0     C61836   5.819   2.941   3.001 -0.7092  0.0604  0.6057
  449MOL0     C61837   5.903   3.063   2.942  0.4665  0.6097 -1.1346
  449MOL0     C61838   6.046   3.074   3.007 -0.2502  0.8393  0.2571
  449MOL0     C61839   6.144   3.161   2.937  0.5850  0.6849  1.0393
  449MOL0     C61840   6.112   3.312   2.947  0.4646  0.3925 -0.5343
  449MOL0     N61841   6.224   3.405   2.933  0.2622 -0.2992 -0.4117
  449MOL0     C61842   6.335   3.384   2.850  0.0987  0.1683 -0.6469
  449MOL0     C61843   6.410   3.497   2.856  0.0732 -0.3919 -0.1769
  449MOL0     C61844   6.534   3.524   2.773  0.2605 -0.7217  0.5917
  449MOL0     C61845   6.652   3.581   2.862  0.6058 -0.2700 -0.6020
  449MOL0     C61846   6.702   3.482   2.976  0.1687  0.7203 -0.1222
  449MOL0     C61847   6.845   3.515   3.025  0.7006  0.4921  0.1577
  449MOL0     O61848   6.880   3.388   3.094 -0.3937  0.3377  0.2052
  449MOL0     C61849   7.005   3.365   3.151 -0.7496 -0.3251  1.8160
  449MOL0     C61850   7.051   3.232   3.156 -0.4400 -0.0089 -0.4190
  449MOL0     C61851   7.191   3.199   3.183 -0.0737 -0.5603 -0.1897
  449MOL0     C61852   7.229   3.057   3.166  0.5915 -0.4722 -0.8456
  449MOL0     C61853   7.276   3.300   3.234  0.4305  0.3651  0.6673
  449MOL0     C61854   7.413   3.262   3.293  0.2383  0.3858 -0.0088
  449MOL0     O61855   7.509   3.345   3.262  0.0394 -0.2710 -1.2680
  449MOL0     C61856   7.634   3.348   3.322  0.4378  0.9548 -0.0715
  449MOL0     C61857   7.741   3.248   3.303 -0.5890 -0.2941 -0.0053
  449MOL0     C61858   7.861   3.255   3.370  0.0418 -0.3868 -0.6179
  449MOL0     C61859   7.878   3.350   3.468 -0.5436  0.6731  0.0330
  449MOL0     O61860   8.003   3.355   3.530  0.2460 -0.0290 -0.0759
  449MOL0     C61861   8.005   3.364   3.665 -1.0399 -0.2349 -0.4683
  449MOL0     C61862   8.151   3.389   3.706  0.0173 -0.2763  0.6882
  449MOL0     C61863   8.161   3.432   3.848  0.0570  0.5188  0.1421
  449MOL0     C61864   8.301   3.400   3.899 -0.3950 -0.5196 -0.7228
  449MOL0     C61865   8.307   3.432   4.043  0.0309 -0.4408 -0.3923
  449MOL0     C61866   8.451   3.465   4.091 -0.8721 -0.0958 -0.3990
  449MOL0     C61867   8.493   3.605   4.072 -0.5769 -0.7471  0.4688
  449MOL0     C61868   8.627   3.638   4.135 -0.3664  0.0139  0.2443
  449MOL0    Cl61869   8.613   3.618   4.309 -0.4372  0.1298  0.1626
  449MOL0     C61870   7.779   3.439   3.501  1.1456 -0.1275  0.2276
  449MOL0     C61871   7.656   3.443   3.430  0.2365 -0.6285 -0.2160
  449MOL0     O61872   7.420   3.156   3.361  0.0899 -0.0071 -0.1069
  449MOL0     C61873   7.227   3.437   3.242 -0.6106  0.1493  0.3245
  449MOL0     C61874   7.097   3.467   3.197 -0.1023  0.5632  0.1740
  449MOL0     N61875   6.341   3.587   2.939 -0.3923  0.1660  0.7089
  449MOL0     N61876   6.233   3.526   2.984  1.0488 -0.0925 -0.0537
  449MOL0     C61877   5.204   2.637   2.967  0.6348 -0.2825  0.5281
  449MOL0     C61878   5.070   2.601   2.961 -0.0737 -0.7683  0.0856
  449MOL0     C61879   4.615   2.563   3.093  0.7120 -0.3543 -0.3006
  449MOL0     C61880   4.628   2.433   3.052 -0.7001  0.2312 -0.1097
  449MOL0     C61881   4.517   2.353   3.016  0.3160  0.0944  0.1018
  449MOL0     C61882   4.388   2.413   3.047 -0.3209  0.6334 -0.6936
  449MOL0     O61883   4.275   2.348   3.031  0.0780  0.7190 -0.2936
  449MOL0     C61884   4.142   2.404   3.054  0.3050  0.6867 -0.3912
  449MOL0     C61885   4.097   2.500   2.940  0.0767  0.3000 -0.4163
  449MOL0     C61886   3.940   2.499   2.903 -0.6599 -0.2173  0.6625
  449MOL0     C61887   3.849   2.509   3.027 -0.6527 -0.2437  0.9405
  449MOL0     C61888   3.708   2.508   3.001  0.2449  0.0347 -0.6094
  449MOL0     C61889   3.587   2.501   2.988 -0.6388 -0.2659  0.5364
  449MOL0     C61890   4.377   2.549   3.098 -0.2646 -0.9651 -0.6860
  449MOL0     C61891   4.495   2.628   3.106  0.3825  0.3665  0.4887
  449MOL0     C61892   4.487   2.771   3.132  0.7764 -1.0960 -0.0967
  449MOL0     H61893   4.965   2.802   3.212  3.0809 -0.0038  1.9193
  449MOL0     H61894   5.195   2.855   3.223 -1.8718  2.9412 -1.8178
  449MOL0     H61895   5.460   2.905   3.154 -1.1955 -0.4975  0.9729
  449MOL0     H61896   5.403   2.901   2.984 -3.0387  0.5920  3.0881
  449MOL0     H61897   5.660   2.793   3.120  0.1838  2.1315  0.3823
  449MOL0     H61898   5.615   2.757   2.949  0.8389  1.3463 -1.3344
  449MOL0     H61899   5.645   2.988   2.882  0.8214  1.3523  0.1322
  449MOL0     H61900   5.633   3.033   3.051 -0.8552 -0.1398 -0.1635
  449MOL0     H61901   5.848   2.930   3.106 -0.7695 -0.8402  0.5370
  449MOL0     H61902   5.839   2.848   2.946 -3.4484 -0.7906  0.9078
  449MOL0     H61903   5.848   3.154   2.968 -1.0577 -0.5228 -0.2380
  449MOL0     H61904   5.916   3.042   2.835  2.0276  0.1887 -0.8917
  449MOL0     H61905   6.031   3.095   3.114  1.2771 -1.9613  1.1229
  449MOL0     H61906   6.074   2.968   3.003 -1.4733  0.4626  0.9695
  449MOL0     H61907   6.144   3.135   2.831  2.9026  0.8164  0.9464
  449MOL0     H61908   6.238   3.135   2.988  2.1124  0.4793 -1.6711
  449MOL0     H61909   6.042   3.342   2.870  2.9207  2.8530 -2.0017
  449MOL0     H61910   6.072   3.327   3.048  0.8255 -1.0376 -0.1589
  449MOL0     H61911   6.352   3.305   2.778  0.5769 -0.2944 -0.0303
  449MOL0     H61912   6.506   3.587   2.689  1.5774  0.4567  0.9946
  449MOL0     H61913   6.567   3.426   2.735 -1.2368 -1.3035  0.7187
  449MOL0     H61914   6.739   3.605   2.800  0.9309 -2.6391 -1.1488
  449MOL0     H61915   6.619   3.671   2.914 -0.0819 -2.0367  2.2245
  449MOL0     H61916   6.634   3.473   3.061  0.3477 -0.1267 -0.0521
  449MOL0     H61917   6.690   3.382   2.932 -1.7781  0.9185 -0.1361
  449MOL0     H61918   6.917   3.524   2.942 -1.5031  1.4460 -1.7587
  449MOL0     H61919   6.842   3.606   3.086  0.8603  0.3482  0.3809
  449MOL0     H61920   6.984   3.150   3.129  1.6789 -1.8095 -0.5044
  449MOL0     H61921   7.226   3.012   3.265  2.7238 -0.5113 -0.7553
  449MOL0     H61922   7.334   3.042   3.139  0.9307 -1.6002  0.9175
  449MOL0     H61923   7.172   3.007   3.087  0.2570  0.4101 -1.1764
  449MOL0     H61924   7.731   3.172   3.227  1.1689 -1.2133  0.6417
  449MOL0     H61925   7.936   3.179   3.351  1.5208  1.0271 -0.5949
  449MOL0     H61926   7.940   3.445   3.700 -3.4230 -1.3925 -1.9549
  449MOL0     H61927   7.974   3.270   3.710  1.5342 -0.7743  0.3466
  449MOL0     H61928   8.213   3.306   3.671  1.4335  0.5934  1.0401
  449MOL0     H61929   8.192   3.469   3.645 -1.7023 -0.7109 -1.1055
  449MOL0     H61930   8.086   3.386   3.912  0.7762 -0.0362  0.5981
  449MOL0     H61931   8.150   3.540   3.836 -0.6178  0.2185 -2.5961
  449MOL0     H61932   8.373   3.464   3.847  0.1952  0.8243  1.5855
  449MOL0     H61933   8.328   3.295   3.889  0.0970 -0.4840  0.1117
  449MOL0     H61934   8.249   3.523   4.058  0.8649 -0.0710  0.7322
  449MOL0     H61935   8.256   3.363   4.112  2.3155 -0.0389  1.8554
  449MOL0     H61936   8.533   3.401   4.056  1.7711  2.7925  0.0376
  449MOL0     H61937   8.445   3.449   4.199  0.6114 -3.6237 -0.6951
  449MOL0     H61938   8.415   3.664   4.122 -2.2551 -2.2149 -0.3004
  449MOL0     H61939   8.497   3.635   3.967  0.5170  2.4468  1.3166
  449MOL0     H61940   8.660   3.742   4.121  0.4562 -0.2605  0.1028
  449MOL0     H61941   8.693   3.566   4.085 -4.1482 -2.4311 -1.7134
  449MOL0     H61942   7.792   3.514   3.579 -0.8898  0.1652  0.3621
  449MOL0     H61943   7.572   3.511   3.445  0.1145 -0.9997  0.9395
  449MOL0     H61944   7.291   3.505   3.298 -0.4336  1.9637 -1.9189
  449MOL0     H61945   7.061   3.566   3.226  2.6734  1.0460  2.3494
  449MOL0     H61946   5.275   2.598   2.896  0.7080 -1.0479  1.0083
  449MOL0     H61947   5.036   2.540   2.878 -5.7253  1.7474  0.0379
  449MOL0     H61948   4.728   2.392   3.052 -0.3275  1.1012 -1.2867
  449MOL0     H61949   4.514   2.251   2.979  0.9383  0.6202 -1.4598
  449MOL0     H61950   4.070   2.321   3.048  1.3996 -0.4570  1.5096
  449MOL0     H61951   4.137   2.447   3.155  1.5949  1.8603 -0.7993
  449MOL0     H61952   4.160   2.478   2.854  0.5364  0.2441 -0.0690
  449MOL0     H61953   4.131   2.599   2.972  0.2974  0.8684 -2.2701
  449MOL0     H61954   3.917   2.586   2.841 -0.5437 -0.9176 -0.4008
  449MOL0     H61955   3.911   2.416   2.838 -0.4232  0.6283 -0.5584
  449MOL0     H61956   3.867   2.602   3.083  0.6675  0.5000 -0.6483
  449MOL0     H61957   3.874   2.424   3.091  2.5666 -1.9942 -2.2940
  449MOL0     H61958   3.483   2.486   3.011 -0.0217 -0.2910  3.7473
  449MOL0     H61959   4.281   2.595   3.119 -0.0978 -0.4809 -0.9814
  449MOL0     H61960   4.491   2.792   3.239  1.2068  0.7219 -0.4337
  449MOL0     H61961   4.573   2.817   3.082  1.7102 -0.9861  1.5454
  449MOL0     H61962   4.399   2.821   3.092 -0.4934 -2.1761  1.2570
  450MOL0     O61963   4.354   3.540  10.325 -0.6785  0.8575  0.0341
  450MOL0     C61964   4.326   3.424  10.353  0.9724  0.3189 -0.0707
  450MOL0     O61965   4.376   3.347  10.461  0.2390 -0.5768  0.9635
  450MOL0     C61966   4.435   3.418  10.564  0.6128  0.2268  0.8233
  450MOL0     C61967   4.358   3.456  10.681  0.6197 -0.4828 -0.6464
  450MOL0     C61968   4.420   3.510  10.793  0.5058  0.3525  0.5972
  450MOL0     C61969   4.562   3.527  10.800  0.5941 -0.4078  0.1391
  450MOL0     O61970   4.617   3.590  10.907  0.8811  0.0241 -0.0011
  450MOL0     C61971   4.759   3.575  10.924  0.1055  0.4473  0.0074
  450MOL0     C61972   4.833   3.708  10.890  0.0724  0.1043  0.2096
  450MOL0     C61973   4.819   3.806  11.005 -0.4458  0.1191 -0.0155
  450MOL0     C61974   4.959   3.794  11.078  0.5827 -0.3034 -0.4153
  450MOL0     C61975   4.952   3.851  11.227 -0.7404  0.3970  0.1272
  450MOL0     C61976   5.042   3.779  11.334  0.6679 -0.0712  0.1160
  450MOL0     C61977   5.189   3.783  11.301  0.6313  0.2458  0.8420
  450MOL0     C61978   5.274   3.735  11.417  0.2799  0.3384  0.0151
  450MOL0     N61979   5.408   3.721  11.365  0.0162 -0.5368  0.3000
  450MOL0     C61980   5.497   3.821  11.374  0.5046 -0.6843 -0.0951
  450MOL0     C61981   5.610   3.758  11.341  0.4882 -0.0984  0.2871
  450MOL0     C61982   5.741   3.839  11.325 -0.6752  1.1823 -0.0662
  450MOL0     C61983   5.870   3.766  11.363 -0.6274 -0.0358 -0.1335
  450MOL0     C61984   5.973   3.757  11.259 -1.2965  0.3965  0.0642
  450MOL0     C61985   6.119   3.714  11.315  0.7005 -0.1745  1.0601
  450MOL0     O61986   6.206   3.728  11.200 -0.5956 -0.5249 -0.6789
  450MOL0     C61987   6.333   3.685  11.220 -0.3735  0.1866  0.2891
  450MOL0     C61988   6.376   3.608  11.330 -0.4421  0.4689  0.3955
  450MOL0     C61989   6.508   3.555  11.336 -0.4241 -0.2793 -0.6301
  450MOL0     C61990   6.529   3.464  11.450 -0.3607  0.5618  0.1906
  450MOL0     C61991   6.609   3.584  11.234  0.2398  0.3659  0.7467
  450MOL0     C61992   6.761   3.550  11.236  0.7913 -0.1462 -0.1173
  450MOL0     O61993   6.833   3.564  11.122  0.0189  0.1336 -0.7771
  450MOL0     C61994   6.952   3.509  11.099 -0.2228 -0.3413  0.0610
  450MOL0     C61995   7.044   3.458  11.193  0.0511  0.1734  0.1899
  450MOL0     C61996   7.172   3.416  11.148 -0.5815  0.0166  0.0435
  450MOL0     C61997   7.216   3.428  11.017  0.2383  0.2154  0.2329
  450MOL0     O61998   7.333   3.384  10.961  0.6477 -0.0631  0.2869
  450MOL0     C61999   7.424   3.305  11.040  0.0325 -0.1934  0.8748
  450MOL0     C62000   7.532   3.259  10.945  0.2133  0.2961 -0.4040
  450MOL0     C62001   7.628   3.358  10.877  0.1522  0.4788  0.5187
  450MOL0     C62002   7.738   3.273  10.805  0.6317 -0.3932  0.3775
  450MOL0     C62003   7.852   3.245  10.907 -0.7830  0.0696  0.1546
  450MOL0     C62004   7.964   3.363  10.937 -0.0900  0.3105  0.6318
  450MOL0     C62005   8.089   3.309  11.001 -1.3319 -0.0278 -0.5493
  450MOL0     C62006   8.207   3.410  10.988 -0.3037  0.2750 -0.1081
  450MOL0    Cl62007   8.267   3.404  10.818  0.0093 -0.4255 -0.5430
  450MOL0     C62008   7.122   3.470  10.929  0.1152 -0.3393 -0.9455
  450MOL0     C62009   6.997   3.512  10.963  1.4142  0.2946  0.2903
  450MOL0     O62010   6.807   3.509  11.343  0.5319  1.0309  0.0113
  450MOL0     C62011   6.564   3.668  11.132 -0.4492  0.5123  0.1144
  450MOL0     C62012   6.431   3.714  11.117  1.1589 -0.7489 -1.0054
  450MOL0     N62013   5.587   3.626  11.319  0.2315  0.1497 -0.1784
  450MOL0     N62014   5.465   3.601  11.330  0.0331 -0.2049 -0.6435
  450MOL0     C62015   4.627   3.500  10.679 -0.0473  1.2793  0.5534
  450MOL0     C62016   4.567   3.437  10.569 -0.2650 -0.9138  0.7842
  450MOL0     C62017   4.216   3.364  10.279  0.8751 -0.3585 -0.4044
  450MOL0     C62018   4.215   3.387  10.148 -0.6150 -0.2370 -0.7378
  450MOL0     C62019   4.122   3.329  10.058  0.8700  0.6057 -0.7909
  450MOL0     C62020   4.005   3.276  10.113 -0.7381 -0.0286 -0.6403
  450MOL0     O62021   3.915   3.235  10.015 -0.3819 -0.2397 -0.0199
  450MOL0     C62022   3.770   3.238  10.048 -0.8196  0.3067 -0.2484
  450MOL0     C62023   3.698   3.254   9.910 -0.6705 -0.1833  0.8127
  450MOL0     C62024   3.550   3.262   9.936 -1.0948  0.3234  0.2428
  450MOL0     C62025   3.474   3.308   9.818 -0.5253  0.9032 -0.0416
  450MOL0     C62026   3.334   3.336   9.865  0.2194 -0.5166  0.3618
  450MOL0     C62027   3.219   3.363   9.897  0.4226 -0.0136  1.3216
  450MOL0     C62028   3.983   3.275  10.248 -0.1064 -0.3394 -0.6128
  450MOL0     C62029   4.096   3.313  10.339  0.6493 -0.2645  0.9617
  450MOL0     C62030   4.071   3.319  10.490 -0.8112  0.4933 -0.3890
  450MOL0     H62031   4.250   3.451  10.674  0.5970  1.7409 -4.4205
  450MOL0     H62032   4.357   3.531  10.878 -2.1849  1.1929 -1.4417
  450MOL0     H62033   4.805   3.493  10.868 -3.1119  1.3771 -4.5672
  450MOL0     H62034   4.781   3.538  11.024  1.2669  2.3435  0.5134
  450MOL0     H62035   4.931   3.697  10.842 -0.2138  0.5517 -0.5048
  450MOL0     H62036   4.783   3.759  10.807  1.1447  2.8233  1.1002
  450MOL0     H62037   4.799   3.909  10.972 -1.5702 -0.1803 -0.3173
  450MOL0     H62038   4.740   3.777  11.074 -0.2600 -0.1456  0.0871
  450MOL0     H62039   4.982   3.688  11.076  0.3507 -0.4750 -5.2529
  450MOL0     H62040   5.038   3.847  11.024  0.9533 -0.1077  0.3074
  450MOL0     H62041   4.847   3.857  11.260 -1.0274  1.5207 -0.9058
  450MOL0     H62042   4.983   3.955  11.214  0.0991  0.0861 -0.3836
  450MOL0     H62043   5.037   3.822  11.435  0.1406 -1.5546  0.7390
  450MOL0     H62044   5.008   3.676  11.343  0.2313 -0.1184 -1.8315
  450MOL0     H62045   5.210   3.886  11.270  1.2002 -0.2769 -0.5986
  450MOL0     H62046   5.202   3.718  11.214  0.7974  1.0738  0.2288
  450MOL0     H62047   5.267   3.802  11.503  0.5463  3.0933 -1.9742
  450MOL0     H62048   5.239   3.637  11.449  1.3491 -0.0850 -0.0767
  450MOL0     H62049   5.473   3.927  11.383 -0.8803 -1.0596  0.8655
  450MOL0     H62050   5.724   3.919  11.399 -3.8593  1.0777 -0.5776
  450MOL0     H62051   5.734   3.879  11.223 -0.1454  2.3984  0.3473
  450MOL0     H62052   5.917   3.834  11.435 -0.0812  3.5438 -3.5242
  450MOL0     H62053   5.843   3.667  11.400  1.1038 -0.3020  0.4951
  450MOL0     H62054   5.948   3.670  11.198 -0.0665 -1.8639  2.5900
  450MOL0     H62055   5.976   3.852  11.205  0.2149 -0.1200 -0.8182
  450MOL0     H62056   6.139   3.792  11.389  2.2339  2.6151 -2.0062
  450MOL0     H62057   6.108   3.617  11.363  0.1093  0.1763  1.6539
  450MOL0     H62058   6.311   3.587  11.415 -0.1891 -2.0664  0.0361
  450MOL0     H62059   6.602   3.506  11.520 -1.2279  1.2717  0.6912
  450MOL0     H62060   6.561   3.371  11.403 -2.0675 -0.3113  0.6627
  450MOL0     H62061   6.434   3.438  11.498 -0.3961  1.1358  0.4358
  450MOL0     H62062   7.015   3.453  11.297 -2.0225  2.5934 -0.1732
  450MOL0     H62063   7.238   3.378  11.226  0.2875 -2.0725 -1.6065
  450MOL0     H62064   7.471   3.373  11.112  1.3798 -1.3380  1.1075
  450MOL0     H62065   7.376   3.224  11.095  0.9334 -0.8370  0.7385
  450MOL0     H62066   7.590   3.197  11.013 -1.2637  0.2638  0.8894
  450MOL0     H62067   7.494   3.193  10.867  0.6280 -1.2421  0.6545
  450MOL0     H62068   7.676   3.418  10.956 -3.6287  0.4474  3.0954
  450MOL0     H62069   7.565   3.413  10.807 -0.7878 -0.4447  0.6198
  450MOL0     H62070   7.782   3.329  10.721  2.2632 -0.3204  1.2371
  450MOL0     H62071   7.695   3.180  10.767  2.3132 -1.2107  0.3900
  450MOL0     H62072   7.809   3.218  11.004 -0.1203 -0.2780  0.3598
  450MOL0     H62073   7.909   3.157  10.874 -1.1039  0.8772 -2.8599
  450MOL0     H62074   7.910   3.435  11.000 -0.9285  2.1232 -2.0007
  450MOL0     H62075   7.984   3.415  10.843 -0.2513 -1.3545 -0.3467
  450MOL0     H62076   8.113   3.218  10.946  0.8163  1.8936 -3.0879
  450MOL0     H62077   8.077   3.282  11.107  1.0029  1.4462  0.1795
  450MOL0     H62078   8.290   3.375  11.050 -1.2566  0.5227  1.3407
  450MOL0     H62079   8.188   3.513  11.019 -0.3985 -0.1374  1.2786
  450MOL0     H62080   7.154   3.479  10.825 -1.0266  1.3845 -1.1881
  450MOL0     H62081   6.926   3.569  10.903  1.5073 -0.9412 -1.0449
  450MOL0     H62082   6.623   3.704  11.049 -1.7851 -0.0318 -1.1077
  450MOL0     H62083   6.398   3.774  11.032 -3.0258  2.4606  2.3983
  450MOL0     H62084   4.729   3.534  10.668  0.2356  0.6811  1.2987
  450MOL0     H62085   4.639   3.412  10.492 -0.2205  0.4850  0.3412
  450MOL0     H62086   4.292   3.443  10.096 -1.6928  0.8264 -1.2543
  450MOL0     H62087   4.123   3.332   9.950  0.6124  0.3780 -0.8004
  450MOL0     H62088   3.754   3.137  10.086  2.2948  0.0914  0.8304
  450MOL0     H62089   3.741   3.308  10.127  1.8116  0.9501  0.2523
  450MOL0     H62090   3.726   3.165   9.853  2.3595 -1.4026  3.8068
  450MOL0     H62091   3.738   3.342   9.860  1.4931 -1.9182 -0.7340
  450MOL0     H62092   3.525   3.163   9.974 -5.1597 -0.2582 -3.2155
  450MOL0     H62093   3.533   3.336  10.015 -3.3764 -1.4166  1.4956
  450MOL0     H62094   3.471   3.240   9.733  2.4274  3.2853 -2.2659
  450MOL0     H62095   3.525   3.399   9.788 -1.6879  2.1667  1.5893
  450MOL0     H62096   3.125   3.400   9.932  0.1041  1.5220 -0.9622
  450MOL0     H62097   3.887   3.248  10.291 -0.1717  1.4529  0.4941
  450MOL0     H62098   3.973   3.272  10.507 -0.9555  1.5565  2.2523
  450MOL0     H62099   4.141   3.257  10.547 -1.5560  0.1469  0.1826
  450MOL0     H62100   4.065   3.423  10.523 -1.7527 -0.1534  1.6714
  451MOL0     O62101   2.542   0.405   0.833 -0.7092  0.4698  0.6966
  451MOL0     C62102   2.484   0.480   0.763  1.1939  0.3760 -0.1221
  451MOL0     O62103   2.533   0.594   0.705 -0.3327 -0.4119  0.2443
  451MOL0     C62104   2.668   0.616   0.676  0.3745  0.0367  0.3185
  451MOL0     C62105   2.706   0.742   0.633 -0.4120 -0.1175  0.0466
  451MOL0     C62106   2.831   0.768   0.579  0.5879  0.4082  0.1752
  451MOL0     C62107   2.925   0.669   0.562  0.5602  1.1753  0.0401
  451MOL0     O62108   3.052   0.702   0.521  0.3442 -0.0464 -0.5528
  451MOL0     C62109   3.096   0.636   0.397  0.1019 -0.0698  0.1487
  451MOL0     C62110   3.248   0.605   0.410  0.1544 -0.8744 -0.8876
  451MOL0     C62111   3.322   0.544   0.300 -0.3440 -0.0767  0.0249
  451MOL0     C62112   3.260   0.410   0.258 -0.1563 -0.1712  0.2569
  451MOL0     C62113   3.300   0.380   0.121  0.3112 -0.4179  0.9178
  451MOL0     C62114   3.233   0.259   0.058  0.3712  0.6695  0.6848
  451MOL0     C62115   3.081   0.237   0.035 -0.3482 -0.1892  0.0419
  451MOL0     C62116   3.026   0.359  -0.044 -0.3258  0.5797  0.0718
  451MOL0     N62117   2.883   0.352  -0.059 -0.5299  0.0681 -0.4760
  451MOL0     C62118   2.813   0.251  -0.130 -0.0131  0.4116 -0.1448
  451MOL0     C62119   2.683   0.281  -0.105 -0.7983  0.3825  0.6300
  451MOL0     C62120   2.564   0.195  -0.133 -0.2674  0.5806 -0.4714
  451MOL0     C62121   2.556   0.170  -0.282  0.4147 -0.4210 -0.3796
  451MOL0     C62122   2.434   0.077  -0.323 -0.8645  0.0624  0.1345
  451MOL0     C62123   2.296   0.130  -0.306  0.5017 -0.3174  0.3939
  451MOL0     O62124   2.278   0.252  -0.389  0.8768 -0.1888  0.3895
  451MOL0     C62125   2.152   0.304  -0.409 -0.6883  0.6301  0.1651
  451MOL0     C62126   2.140   0.414  -0.484 -0.5125 -0.0555  1.0545
  451MOL0     C62127   2.017   0.468  -0.514 -0.6394 -0.3682  0.3829
  451MOL0     C62128   2.024   0.591  -0.602  0.5962  1.0999  0.3529
  451MOL0     C62129   1.899   0.408  -0.468  0.2659 -0.5239 -0.3468
  451MOL0     C62130   1.759   0.453  -0.499 -0.6762 -0.0572 -0.4876
  451MOL0     O62131   1.743   0.572  -0.553 -0.0996  0.2699  0.2141
  451MOL0     C62132   1.622   0.619  -0.583  0.4868  0.6861 -0.1045
  451MOL0     C62133   1.549   0.599  -0.700  0.4816  0.3518  0.4851
  451MOL0     C62134   1.414   0.652  -0.716 -0.1585  0.4493  0.2023
  451MOL0     C62135   1.352   0.723  -0.610 -1.0105 -0.1761  0.3980
  451MOL0     O62136   1.219   0.755  -0.637 -0.2279 -0.2729 -0.2713
  451MOL0     C62137   1.150   0.808  -0.528  1.4412 -0.4105  0.0873
  451MOL0     C62138   0.993   0.790  -0.539 -0.6388 -0.3972 -0.7162
  451MOL0     C62139   0.919   0.799  -0.401 -0.8131 -0.3253  0.5087
  451MOL0     C62140   0.779   0.848  -0.420 -0.0363  0.9493 -0.0445
  451MOL0     C62141   0.722   0.869  -0.283 -1.0221 -1.0434 -0.1050
  451MOL0     C62142   0.600   0.941  -0.299  0.7034 -0.1955 -0.1916
  451MOL0     C62143   0.550   0.981  -0.159 -0.0470  0.5136 -0.3203
  451MOL0     C62144   0.409   1.029  -0.150 -1.0175 -0.6178 -0.2494
  451MOL0    Cl62145   0.414   1.190  -0.226 -0.1395 -0.2639 -0.3575
  451MOL0     C62146   1.424   0.740  -0.492 -0.0506  0.1396 -0.2026
  451MOL0     C62147   1.556   0.688  -0.477 -0.8572 -0.0639 -0.3754
  451MOL0     O62148   1.676   0.374  -0.458  0.0285  0.0908 -0.0960
  451MOL0     C62149   1.915   0.294  -0.383  0.2531 -0.4898  0.2969
  451MOL0     C62150   2.038   0.244  -0.356  0.0870 -0.5236  0.1116
  451MOL0     N62151   2.671   0.382  -0.017 -0.6663  0.3163 -1.4796
  451MOL0     N62152   2.790   0.431   0.003 -0.3400 -0.1151  0.1064
  451MOL0     C62153   2.897   0.542   0.613 -0.0273 -0.4859 -0.4693
  451MOL0     C62154   2.764   0.510   0.664 -0.2997 -0.5050  0.1383
  451MOL0     C62155   2.341   0.454   0.738 -0.7666  0.4469 -0.6417
  451MOL0     C62156   2.269   0.455   0.857  0.8213 -0.8841 -0.6976
  451MOL0     C62157   2.133   0.458   0.850 -0.2097 -0.6644 -1.8872
  451MOL0     C62158   2.059   0.441   0.735 -0.1843  0.0937  1.2742
  451MOL0     O62159   1.925   0.429   0.754  0.8565  0.3670 -0.3942
  451MOL0     C62160   1.837   0.368   0.649  0.2336 -0.6764 -0.5747
  451MOL0     C62161   1.763   0.474   0.569  0.4092  0.0628  0.0398
  451MOL0     C62162   1.853   0.560   0.484  0.8640  0.0236 -0.4653
  451MOL0     C62163   1.765   0.626   0.379  0.4794 -0.0097 -0.4512
  451MOL0     C62164   1.676   0.722   0.437 -0.2711 -0.6292  0.3532
  451MOL0     C62165   1.613   0.810   0.493  0.3471  0.6333  0.0750
  451MOL0     C62166   2.136   0.422   0.613 -0.6304 -0.5437  0.2239
  451MOL0     C62167   2.279   0.436   0.615  0.7048 -0.9907  1.4775
  451MOL0     C62168   2.352   0.455   0.486  0.7984 -0.0848  0.3500
  451MOL0     H62169   2.635   0.823   0.624 -0.4623 -0.2854 -1.3323
  451MOL0     H62170   2.862   0.866   0.544  2.2292 -0.2847 -0.4134
  451MOL0     H62171   3.081   0.698   0.309 -0.9582 -0.0818  0.3050
  451MOL0     H62172   3.038   0.544   0.393 -1.7478  0.9908  1.0270
  451MOL0     H62173   3.295   0.703   0.422 -2.3164  0.4136 -0.9287
  451MOL0     H62174   3.265   0.543   0.498 -1.1572  0.1045  0.1048
  451MOL0     H62175   3.329   0.618   0.220  1.3076  0.3566  0.5165
  451MOL0     H62176   3.425   0.526   0.332  0.6070 -0.2409 -2.8450
  451MOL0     H62177   3.302   0.330   0.320  2.8187  1.7514  0.9328
  451MOL0     H62178   3.152   0.407   0.273  0.2478 -2.8442  3.8114
  451MOL0     H62179   3.406   0.360   0.106 -0.5205 -3.2447 -3.2088
  451MOL0     H62180   3.275   0.465   0.058  0.3839  0.0300  1.4904
  451MOL0     H62181   3.276   0.235  -0.040 -0.1621 -1.1171  0.8530
  451MOL0     H62182   3.276   0.173   0.112 -1.1024  0.2740  1.2925
  451MOL0     H62183   3.030   0.235   0.132  1.1450 -1.1614  0.8562
  451MOL0     H62184   3.062   0.140  -0.012 -1.1085  0.1020 -0.2605
  451MOL0     H62185   3.046   0.454   0.006  1.7785 -0.3536  1.1395
  451MOL0     H62186   3.069   0.351  -0.144 -3.0280 -1.4529 -1.0588
  451MOL0     H62187   2.866   0.185  -0.198  0.7801  2.1801 -1.3272
  451MOL0     H62188   2.475   0.246  -0.092 -0.4790 -0.4266  0.3672
  451MOL0     H62189   2.575   0.096  -0.089 -0.6144 -0.1874 -2.0693
  451MOL0     H62190   2.543   0.261  -0.341 -0.3008 -2.0447 -2.9076
  451MOL0     H62191   2.651   0.121  -0.305  0.0473 -1.6365  0.5580
  451MOL0     H62192   2.448   0.048  -0.428 -1.1164  1.8650 -0.4438
  451MOL0     H62193   2.431  -0.012  -0.260  1.4146 -0.7006 -0.7531
  451MOL0     H62194   2.221   0.052  -0.319 -0.6405  0.0258  3.7943
  451MOL0     H62195   2.299   0.162  -0.201  1.8664  2.2968 -0.3671
  451MOL0     H62196   2.234   0.465  -0.503  1.1462 -3.0298  0.5752
  451MOL0     H62197   1.964   0.669  -0.553  0.0494  1.0026 -0.1407
  451MOL0     H62198   1.994   0.564  -0.704  3.0563 -2.8817  0.4781
  451MOL0     H62199   2.126   0.631  -0.604  0.7023  0.8241  0.2742
  451MOL0     H62200   1.614   0.553  -0.774  1.3218  1.6640  0.3698
  451MOL0     H62201   1.365   0.631  -0.811 -0.0229  1.0177  0.0050
  451MOL0     H62202   1.168   0.756  -0.433 -3.8487 -0.1746  1.5873
  451MOL0     H62203   1.171   0.915  -0.523  1.8025 -0.5020  0.6776
  451MOL0     H62204   0.960   0.868  -0.609 -0.7994  0.2044  0.0240
  451MOL0     H62205   0.976   0.689  -0.577  0.6295 -0.9640  0.1558
  451MOL0     H62206   0.976   0.866  -0.335 -0.2712 -0.1962 -0.0783
  451MOL0     H62207   0.908   0.702  -0.351 -3.4600  0.7077  2.1380
  451MOL0     H62208   0.714   0.770  -0.461 -0.2801  0.2532  1.5885
  451MOL0     H62209   0.774   0.939  -0.480  1.7421  0.8988 -0.3122
  451MOL0     H62210   0.711   0.773  -0.232  3.2875 -0.9062  1.4458
  451MOL0     H62211   0.789   0.913  -0.209 -0.2286 -0.5460 -1.1001
  451MOL0     H62212   0.516   0.887  -0.343 -0.5103  1.7503 -0.3874
  451MOL0     H62213   0.609   1.030  -0.362 -1.7750  0.9758  0.9447
  451MOL0     H62214   0.612   1.061  -0.119  2.3741 -0.8599 -1.1112
  451MOL0     H62215   0.554   0.887  -0.102 -0.5082  0.0557 -1.0255
  451MOL0     H62216   0.376   1.018  -0.046  0.4019 -4.3901 -0.0520
  451MOL0     H62217   0.343   0.969  -0.213 -1.9215  2.3755 -2.4260
  451MOL0     H62218   1.385   0.795  -0.408  2.5961 -0.5612  1.6290
  451MOL0     H62219   1.615   0.712  -0.390  2.8824 -0.8091 -2.4744
  451MOL0     H62220   1.828   0.251  -0.333  0.7772  0.5038  2.1694
  451MOL0     H62221   2.046   0.167  -0.280  2.6481  0.9849  1.4907
  451MOL0     H62222   2.974   0.466   0.622  0.2381 -0.1065  0.5406
  451MOL0     H62223   2.750   0.411   0.705  3.2632 -0.6182  1.4688
  451MOL0     H62224   2.324   0.459   0.951  1.1291 -1.2872 -0.8606
  451MOL0     H62225   2.075   0.458   0.941 -1.5448  2.8020 -2.5901
  451MOL0     H62226   1.892   0.293   0.592  0.4778 -1.7398  0.9962
  451MOL0     H62227   1.757   0.317   0.704  0.4452 -1.4004 -0.9284
  451MOL0     H62228   1.704   0.538   0.634  1.2115  0.9855 -0.1107
  451MOL0     H62229   1.700   0.436   0.488  2.7941  0.8408 -2.3651
  451MOL0     H62230   1.893   0.639   0.549 -0.8324  0.6519 -0.1380
  451MOL0     H62231   1.930   0.504   0.430  2.4969  1.0848  0.6545
  451MOL0     H62232   1.702   0.558   0.321  0.5280  0.9135 -1.6269
  451MOL0     H62233   1.841   0.675   0.317  0.2972  2.0520  0.8512
  451MOL0     H62234   1.542   0.878   0.537  1.6434  0.9944  1.7023
  451MOL0     H62235   2.081   0.407   0.520  0.8657  0.3988 -0.8638
  451MOL0     H62236   2.286   0.420   0.406  0.9094  2.2240 -0.8282
  451MOL0     H62237   2.357   0.562   0.463  1.6862 -0.7356 -2.9249
  451MOL0     H62238   2.450   0.407   0.493  1.3428  1.0757  1.1722
  452MOL0     O62239   5.200   3.008   0.641 -0.9581  0.3479 -0.1866
  452MOL0     C62240   5.158   2.901   0.684 -0.7993 -0.5780 -0.4283
  452MOL0     O62241   5.214   2.824   0.779 -0.0295  0.1233  0.3815
  452MOL0     C62242   5.323   2.853   0.859 -0.1345  0.2559  0.0669
  452MOL0     C62243   5.386   2.981   0.882 -0.2478  0.3180 -0.4615
  452MOL0     C62244   5.484   3.012   0.978 -0.6950 -0.0267 -0.2283
  452MOL0     C62245   5.531   2.901   1.051 -0.9658 -0.1658  0.6937
  452MOL0     O62246   5.633   2.907   1.138 -0.0158  0.3207 -0.6987
  452MOL0     C62247   5.692   3.038   1.162  0.0730 -0.7293  1.1689
  452MOL0     C62248   5.806   3.077   1.062  0.1110 -0.6942  1.1466
  452MOL0     C62249   5.820   3.229   1.042  0.7914  1.0275 -0.3447
  452MOL0     C62250   5.929   3.263   0.941 -1.2809 -0.4327  0.0407
  452MOL0     C62251   5.944   3.415   0.932 -0.4831 -0.0936  0.9729
  452MOL0     C62252   6.026   3.465   0.805  0.4480 -0.5031 -1.1860
  452MOL0     C62253   6.041   3.616   0.822 -0.0200  0.1191  0.0767
  452MOL0     C62254   6.142   3.693   0.745 -0.3882  0.8604 -0.7411
  452MOL0     N62255   6.286   3.677   0.778 -0.1489 -0.6966 -0.0614
  452MOL0     C62256   6.388   3.675   0.683  0.6126 -0.6703  0.0091
  452MOL0     C62257   6.501   3.681   0.752  0.1654 -0.7295  0.6871
  452MOL0     C62258   6.636   3.682   0.693 -0.0460 -0.6936 -0.7714
  452MOL0     C62259   6.683   3.569   0.594 -0.0849  0.0821 -0.1923
  452MOL0     C62260   6.697   3.432   0.665  0.0658  0.2702 -0.4732
  452MOL0     C62261   6.851   3.396   0.651 -0.1377 -0.1144  0.3072
  452MOL0     O62262   6.873   3.404   0.508 -0.4734 -0.7782  0.3054
  452MOL0     C62263   6.994   3.345   0.467 -0.3800 -0.3236 -0.8956
  452MOL0     C62264   7.006   3.307   0.331  0.4588 -1.1296 -1.0541
  452MOL0     C62265   7.120   3.267   0.274 -0.1657  0.4027 -0.0259
  452MOL0     C62266   7.124   3.235   0.130 -0.0578 -0.3316  0.5537
  452MOL0     C62267   7.235   3.244   0.362  1.1583 -0.1696  0.3710
  452MOL0     C62268   7.369   3.204   0.318 -0.7267  0.1059 -0.1888
  452MOL0     O62269   7.443   3.153   0.422 -0.0022 -0.5499  0.6239
  452MOL0     C62270   7.565   3.110   0.388 -0.4203  0.1474  0.3775
  452MOL0     C62271   7.667   3.200   0.345 -0.6299 -0.0778  0.3311
  452MOL0     C62272   7.796   3.151   0.304 -0.5175  0.5354 -0.5886
  452MOL0     C62273   7.824   3.011   0.309 -0.0363 -0.4341  0.1551
  452MOL0     O62274   7.949   2.968   0.265  0.3760 -0.2557 -0.1621
  452MOL0     C62275   7.973   2.823   0.261 -0.5750  0.0631  0.1172
  452MOL0     C62276   8.120   2.805   0.227 -1.3678 -0.2215 -0.7905
  452MOL0     C62277   8.219   2.852   0.331 -1.1742 -0.0639  0.5174
  452MOL0     C62278   8.350   2.789   0.278 -0.4309 -0.4845 -0.4046
  452MOL0     C62279   8.480   2.790   0.357  0.6472 -1.0506 -0.0201
  452MOL0     C62280   8.611   2.752   0.288 -0.3735  0.2231  1.5851
  452MOL0     C62281   8.639   2.821   0.157  0.0388 -0.0980  0.8353
  452MOL0     C62282   8.784   2.801   0.111  0.3555  0.4018  0.4811
  452MOL0    Cl62283   8.804   2.641   0.051 -0.1276  0.1388 -0.0511
  452MOL0     C62284   7.725   2.923   0.355  0.1299  0.1445  0.3326
  452MOL0     C62285   7.599   2.975   0.387 -0.1193  0.0384  0.8048
  452MOL0     O62286   7.392   3.178   0.199  0.0209  0.3592 -0.3141
  452MOL0     C62287   7.215   3.269   0.501  0.0348 -0.0048 -0.2079
  452MOL0     C62288   7.101   3.325   0.555 -0.5767  0.5007  0.6511
  452MOL0     N62289   6.469   3.680   0.890  0.7139 -0.5185 -0.0302
  452MOL0     N62290   6.342   3.681   0.899 -0.1946 -0.2910 -0.4985
  452MOL0     C62291   5.485   2.772   1.020  0.4727 -0.5086  0.3241
  452MOL0     C62292   5.377   2.749   0.928 -0.3663  0.0028 -0.3883
  452MOL0     C62293   5.048   2.840   0.606 -0.9611 -0.0269 -0.8767
  452MOL0     C62294   4.962   2.758   0.679 -0.8930 -0.6421 -0.5835
  452MOL0     C62295   4.856   2.682   0.620 -0.1206 -0.0188  0.0423
  452MOL0     C62296   4.831   2.701   0.484  0.0546 -0.5928  0.0579
  452MOL0     O62297   4.730   2.642   0.412 -0.0061 -0.5862  0.0257
  452MOL0     C62298   4.628   2.564   0.479 -0.6543  0.0524  0.0216
  452MOL0     C62299   4.511   2.551   0.376  1.1107  1.1185  0.0378
  452MOL0     C62300   4.378   2.488   0.428  0.3418 -0.9224 -0.5969
  452MOL0     C62301   4.367   2.337   0.424 -0.4228  0.2893  0.1065
  452MOL0     C62302   4.407   2.280   0.295 -0.5879 -0.0184 -0.1633
  452MOL0     C62303   4.435   2.237   0.188  0.3477 -0.3567  0.1878
  452MOL0     C62304   4.900   2.795   0.414  0.4979 -0.3578 -0.0061
  452MOL0     C62305   5.020   2.857   0.466  0.1728  0.0609 -0.5383
  452MOL0     C62306   5.110   2.924   0.374 -0.4592 -0.0717 -0.2767
  452MOL0     H62307   5.351   3.071   0.832  0.3310  1.1281  0.5353
  452MOL0     H62308   5.524   3.113   0.976  2.8504 -1.2716  0.1912
  452MOL0     H62309   5.737   3.040   1.261  0.4961 -0.7766  0.9785
  452MOL0     H62310   5.618   3.119   1.165 -0.2337 -0.9597  0.2798
  452MOL0     H62311   5.900   3.041   1.105  0.0860 -1.9770  0.1759
  452MOL0     H62312   5.801   3.027   0.965  2.2466 -0.7126  0.9961
  452MOL0     H62313   5.728   3.271   1.002  0.1549 -1.6059 -1.8160
  452MOL0     H62314   5.837   3.269   1.143  1.4535  1.5566 -0.6519
  452MOL0     H62315   6.025   3.222   0.974 -1.0476 -0.0691 -0.1896
  452MOL0     H62316   5.908   3.219   0.843 -0.0358 -1.3462  0.1602
  452MOL0     H62317   6.009   3.449   1.013 -1.0576  2.0557  0.5845
  452MOL0     H62318   5.841   3.452   0.933 -0.3848  0.2074  0.3226
  452MOL0     H62319   6.124   3.415   0.807  0.4436 -0.7547 -3.8569
  452MOL0     H62320   5.984   3.430   0.710 -1.7548  1.5610 -1.0425
  452MOL0     H62321   6.061   3.633   0.928 -2.1436  2.3682  0.2082
  452MOL0     H62322   5.943   3.656   0.797  0.9759  2.6183 -0.0560
  452MOL0     H62323   6.123   3.695   0.638 -1.9693 -0.6754 -0.5370
  452MOL0     H62324   6.119   3.799   0.759  3.1175  2.2713 -3.9401
  452MOL0     H62325   6.386   3.667   0.575  4.2185 -3.1784 -0.0501
  452MOL0     H62326   6.704   3.688   0.778  0.2695 -0.0527 -1.0560
  452MOL0     H62327   6.643   3.779   0.642 -0.1921 -0.6106 -0.6347
  452MOL0     H62328   6.605   3.565   0.518 -0.1232  0.7912 -0.2007
  452MOL0     H62329   6.775   3.610   0.550 -0.3513  0.1641 -0.6725
  452MOL0     H62330   6.678   3.447   0.771  1.9078  3.9533 -0.4829
  452MOL0     H62331   6.643   3.355   0.610 -0.8688 -0.5923  1.5866
  452MOL0     H62332   6.912   3.468   0.707  1.3788 -1.2720  0.2122
  452MOL0     H62333   6.865   3.293   0.686  1.5300  0.1015  0.3587
  452MOL0     H62334   6.918   3.307   0.268 -0.0347 -0.9465 -0.3821
  452MOL0     H62335   7.170   3.318   0.075 -0.5810  0.4343  1.2441
  452MOL0     H62336   7.026   3.232   0.082  1.0303  0.2557 -1.8762
  452MOL0     H62337   7.174   3.139   0.116  0.1707  0.0295 -1.5503
  452MOL0     H62338   7.643   3.306   0.342 -1.9881 -0.3533  0.5927
  452MOL0     H62339   7.869   3.217   0.257 -0.1051 -0.9355 -2.1480
  452MOL0     H62340   7.940   2.765   0.348  1.2092 -0.4541  0.4872
  452MOL0     H62341   7.922   2.788   0.171 -0.1130  0.1745 -0.1847
  452MOL0     H62342   8.146   2.700   0.210  1.5640  0.3191 -0.0432
  452MOL0     H62343   8.139   2.856   0.132  0.7455  0.9179  0.1984
  452MOL0     H62344   8.193   2.810   0.428 -1.3310 -0.6220  0.2383
  452MOL0     H62345   8.221   2.962   0.331  0.5334 -0.0648 -0.1793
  452MOL0     H62346   8.374   2.848   0.189  1.1656  0.0044  0.3074
  452MOL0     H62347   8.339   2.684   0.251  0.6610 -0.5254 -0.7366
  452MOL0     H62348   8.491   2.890   0.399 -1.8309  0.0639 -1.7509
  452MOL0     H62349   8.469   2.716   0.436 -1.6337 -2.2398 -1.3426
  452MOL0     H62350   8.615   2.645   0.267  0.7519  0.7697 -1.4694
  452MOL0     H62351   8.696   2.774   0.352  0.5217 -2.2366  1.3358
  452MOL0     H62352   8.614   2.927   0.161 -2.4203 -0.1379 -4.3985
  452MOL0     H62353   8.584   2.768   0.079  1.7903  3.6704 -3.4412
  452MOL0     H62354   8.857   2.813   0.192 -1.6256 -0.1185  2.4403
  452MOL0     H62355   8.819   2.865   0.030 -1.4635  0.5439 -0.2310
  452MOL0     H62356   7.730   2.815   0.363  1.7950  0.2809  1.6039
  452MOL0     H62357   7.520   2.908   0.418  0.5447 -1.1432  0.0274
  452MOL0     H62358   7.301   3.263   0.567  0.1910  1.4891 -0.2440
  452MOL0     H62359   7.098   3.340   0.663  0.5005  2.2544  0.4755
  452MOL0     H62360   5.526   2.682   1.065 -0.1650  0.4184  2.9166
  452MOL0     H62361   5.352   2.647   0.901  0.0692 -0.1949 -0.0758
  452MOL0     H62362   4.979   2.744   0.786 -0.7611  1.0325 -0.3601
  452MOL0     H62363   4.796   2.610   0.675 -0.3121  0.4060  0.3938
  452MOL0     H62364   4.668   2.465   0.500  0.2325  0.3694 -0.1329
  452MOL0     H62365   4.597   2.612   0.572  0.8551 -0.4426  0.8202
  452MOL0     H62366   4.547   2.489   0.293 -2.3224 -2.3226  0.8211
  452MOL0     H62367   4.490   2.650   0.333 -0.2907  0.9184  0.2013
  452MOL0     H62368   4.360   2.506   0.534  3.0425 -0.9738 -0.0516
  452MOL0     H62369   4.299   2.529   0.364 -1.9654 -2.8270  0.8757
  452MOL0     H62370   4.266   2.298   0.442  1.5410 -4.2412  3.4431
  452MOL0     H62371   4.433   2.304   0.505  1.2867  1.3510 -0.8176
  452MOL0     H62372   4.461   2.204   0.089 -3.2546  0.5712 -1.2576
  452MOL0     H62373   4.860   2.829   0.320  0.0980  0.6741  0.5179
  452MOL0     H62374   5.106   3.033   0.387  2.8813  0.4704 -2.5808
  452MOL0     H62375   5.213   2.900   0.404 -0.5680 -0.6704 -0.3690
  452MOL0     H62376   5.093   2.906   0.268  2.0021  0.5662 -0.8436
  453MOL0     O62377   7.504   7.251   8.976  0.0984  0.0706 -0.9764
  453MOL0     C62378   7.450   7.191   9.071 -0.5548  0.1133 -0.1727
  453MOL0     O62379   7.486   7.065   9.109 -0.4154 -0.5494 -0.0294
  453MOL0     C62380   7.617   7.037   9.074  0.3406  0.2972 -0.0215
  453MOL0     C62381   7.703   7.034   9.180 -0.0673  0.3668  1.0136
  453MOL0     C62382   7.838   6.988   9.160  0.0156 -0.3847 -0.1971
  453MOL0     C62383   7.886   6.975   9.033  0.5392 -0.2360  0.3812
  453MOL0     O62384   8.022   6.956   9.014  0.2181  0.6534  0.0937
  453MOL0     C62385   8.104   6.923   9.127  0.7545  0.0128  0.2265
  453MOL0     C62386   8.241   6.883   9.086 -0.2170 -0.4301  0.4765
  453MOL0     C62387   8.312   6.842   9.220  0.1632  0.5382  0.3664
  453MOL0     C62388   8.446   6.780   9.188  0.5653  0.7567  0.2799
  453MOL0     C62389   8.553   6.771   9.301 -0.2503  0.4745  0.0100
  453MOL0     C62390   8.685   6.705   9.252  0.0751  0.5371  0.5692
  453MOL0     C62391   8.770   6.798   9.164  0.1439  0.0279  0.1349
  453MOL0     C62392   8.864   6.708   9.086  0.3207 -0.2479  0.1387
  453MOL0     N62393   8.975   6.653   9.174  0.2976  0.0287  0.4022
  453MOL0     C62394   9.092   6.713   9.214  0.6712 -0.4073  0.0385
  453MOL0     C62395   9.152   6.613   9.277 -0.0163  0.8655  0.6447
  453MOL0     C62396   9.291   6.632   9.321 -0.0006  0.0159  0.0725
  453MOL0     C62397   9.359   6.498   9.340  0.4419  0.1349  0.8765
  453MOL0     C62398   9.490   6.514   9.424 -1.4635 -0.4271  0.5205
  453MOL0     C62399   9.537   6.375   9.453 -0.5609  0.1005 -0.3940
  453MOL0     O62400   9.682   6.374   9.485  0.2794 -0.2496  0.0993
  453MOL0     C62401   9.775   6.406   9.390  0.2429  0.7288 -0.3969
  453MOL0     C62402   9.760   6.420   9.255 -0.3322 -0.8572  1.1127
  453MOL0     C62403   9.864   6.439   9.158 -0.4127  0.1401 -0.4788
  453MOL0     C62404   9.834   6.439   9.013 -0.1398  0.0381  0.4136
  453MOL0     C62405   9.994   6.447   9.216 -0.6070  0.0639 -0.8380
  453MOL0     C62406  10.121   6.460   9.135 -0.7291 -0.1047 -0.3632
  453MOL0     O62407  10.240   6.456   9.194  0.2482 -0.1846 -0.2082
  453MOL0     C62408  10.364   6.431   9.128  0.3438 -0.3604 -0.4869
  453MOL0     C62409  10.480   6.462   9.194  1.1977  0.5952  0.2794
  453MOL0     C62410  10.608   6.444   9.142  0.6653  0.7256 -0.4612
  453MOL0     C62411  10.618   6.399   9.014  0.3208 -0.0450 -0.1785
  453MOL0     O62412  10.751   6.378   8.978 -0.0169 -0.0398 -0.2730
  453MOL0     C62413  10.775   6.338   8.840 -0.6055  0.4584 -0.0105
  453MOL0     C62414  10.922   6.323   8.800 -0.0869 -1.3180  0.1803
  453MOL0     C62415  10.995   6.199   8.858  0.2294  0.3344 -0.2849
  453MOL0     C62416  11.137   6.195   8.826 -0.6740 -0.2616  0.1737
  453MOL0     C62417  11.209   6.072   8.870 -0.5947  0.6153  0.2938
  453MOL0     C62418  11.219   6.050   9.021 -0.7412 -0.2929 -0.0476
  453MOL0     C62419  11.317   5.933   9.057 -0.4411  0.0499  0.8140
  453MOL0     C62420  11.327   5.900   9.202  0.3336  1.2751  0.2798
  453MOL0    Cl62421  11.371   6.050   9.304 -0.0519 -0.1358  0.4313
  453MOL0     C62422  10.512   6.344   8.949  0.3736 -0.2063  1.5442
  453MOL0     C62423  10.387   6.374   9.007 -0.0297  1.4078  0.5225
  453MOL0     O62424  10.105   6.483   9.019 -0.5112  0.5570 -0.3604
  453MOL0     C62425  10.010   6.434   9.353  0.9370  0.8189 -0.1933
  453MOL0     C62426   9.904   6.403   9.437 -0.5426 -0.0568  0.2057
  453MOL0     N62427   9.074   6.494   9.283 -0.7557 -0.3067  0.0041
  453MOL0     N62428   8.959   6.535   9.233  0.0049 -0.6351  0.3605
  453MOL0     C62429   7.797   6.990   8.925  0.5294  1.1544  0.1568
  453MOL0     C62430   7.660   7.012   8.945 -0.2627  0.4449 -0.9015
  453MOL0     C62431   7.323   7.246   9.130 -0.5947 -0.1688 -0.2787
  453MOL0     C62432   7.290   7.188   9.257  0.2047  0.5117  0.3078
  453MOL0     C62433   7.191   7.253   9.336  0.0995  0.5076 -0.4655
  453MOL0     C62434   7.115   7.361   9.283  1.0167  0.6024 -0.0009
  453MOL0     O62435   7.016   7.429   9.351  0.0735 -0.0957 -1.0640
  453MOL0     C62436   7.020   7.433   9.494  0.1310  0.4961 -0.4734
  453MOL0     C62437   6.925   7.324   9.547 -0.2511  0.1361  0.4587
  453MOL0     C62438   6.780   7.354   9.508 -0.0936 -1.1989  0.1835
  453MOL0     C62439   6.687   7.251   9.560 -0.7035 -0.9038 -0.0463
  453MOL0     C62440   6.674   7.255   9.709 -0.5832 -0.4459  0.4065
  453MOL0     C62441   6.667   7.252   9.829  0.9639 -0.2103  0.0123
  453MOL0     C62442   7.146   7.405   9.158 -0.4502  0.5200  0.4333
  453MOL0     C62443   7.250   7.354   9.078 -0.1378 -0.2907  0.1569
  453MOL0     C62444   7.289   7.420   8.942  0.3680 -0.0906  0.2407
  453MOL0     H62445   7.667   7.057   9.280 -3.4802  1.4909 -0.3448
  453MOL0     H62446   7.905   6.991   9.246 -0.3961  2.3473  0.1330
  453MOL0     H62447   8.068   6.842   9.191  1.9238 -0.2420  0.5816
  453MOL0     H62448   8.118   7.010   9.193 -1.7449  0.2037  0.6045
  453MOL0     H62449   8.239   6.801   9.013  0.1738  0.3296 -0.4080
  453MOL0     H62450   8.286   6.972   9.042 -0.3453 -0.4620  0.2765
  453MOL0     H62451   8.316   6.932   9.281  0.8208  1.1522 -0.5638
  453MOL0     H62452   8.251   6.772   9.277  1.7806 -0.3793  1.0254
  453MOL0     H62453   8.424   6.689   9.133  0.3756 -0.1252  1.7566
  453MOL0     H62454   8.480   6.853   9.114 -0.4347  0.8881 -0.0692
  453MOL0     H62455   8.517   6.702   9.378  0.2814  0.1468 -0.0305
  453MOL0     H62456   8.560   6.871   9.346  1.0270 -0.4254  1.9560
  453MOL0     H62457   8.741   6.665   9.337 -1.3269 -2.5838  0.1606
  453MOL0     H62458   8.654   6.614   9.200 -1.6668 -0.9312  3.8602
  453MOL0     H62459   8.829   6.865   9.227  0.1587 -0.8920  1.1236
  453MOL0     H62460   8.708   6.848   9.089  1.9019 -0.0745 -1.4710
  453MOL0     H62461   8.814   6.621   9.044 -1.6668  1.3563 -1.0327
  453MOL0     H62462   8.903   6.770   9.004 -0.9014  0.3198 -0.0351
  453MOL0     H62463   9.120   6.817   9.200 -2.7085  1.1857  3.3560
  453MOL0     H62464   9.289   6.692   9.412  0.9752  0.3347 -0.0972
  453MOL0     H62465   9.347   6.689   9.246 -0.1271  0.1839  0.1057
  453MOL0     H62466   9.298   6.417   9.383 -0.2626  0.2489  0.1204
  453MOL0     H62467   9.387   6.472   9.238 -0.4625  1.9907  0.1056
  453MOL0     H62468   9.564   6.562   9.359 -2.2222 -1.1123 -0.8949
  453MOL0     H62469   9.470   6.579   9.510 -2.4905  1.5729 -1.1175
  453MOL0     H62470   9.485   6.335   9.540  1.4240 -1.9410 -0.0657
  453MOL0     H62471   9.525   6.312   9.364  0.0236  0.2505 -0.5808
  453MOL0     H62472   9.662   6.394   9.216 -0.4110  0.0397  0.6803
  453MOL0     H62473   9.886   6.354   8.969  0.8395  0.0429  1.5101
  453MOL0     H62474   9.857   6.530   8.956  2.3439 -1.1454 -0.6251
  453MOL0     H62475   9.727   6.420   9.002 -0.1630  0.1487  0.4432
  453MOL0     H62476  10.480   6.502   9.295  1.7969 -1.1877  1.0236
  453MOL0     H62477  10.696   6.460   9.204  2.3485 -1.9197 -1.9405
  453MOL0     H62478  10.732   6.238   8.834 -0.5028  0.2326  2.2085
  453MOL0     H62479  10.728   6.410   8.772 -0.9581  0.1322 -0.1159
  453MOL0     H62480  10.932   6.323   8.691  0.9173 -2.4127  0.2407
  453MOL0     H62481  10.964   6.419   8.830 -2.8419 -0.6086  2.1668
  453MOL0     H62482  10.944   6.120   8.801 -1.6922  2.0742 -1.1068
  453MOL0     H62483  10.965   6.202   8.963 -2.7935  1.0429 -1.0609
  453MOL0     H62484  11.183   6.282   8.872 -2.9497  1.4495 -0.5590
  453MOL0     H62485  11.147   6.206   8.718 -0.5816  0.6258  0.2680
  453MOL0     H62486  11.151   5.991   8.825 -2.9572  3.3707 -2.0398
  453MOL0     H62487  11.305   6.066   8.818 -0.6258 -0.8897  0.3736
  453MOL0     H62488  11.119   6.028   9.060 -1.0284 -1.9090 -1.5734
  453MOL0     H62489  11.256   6.137   9.076  0.4381 -1.4109  0.9972
  453MOL0     H62490  11.415   5.962   9.019 -0.9053 -0.6974 -1.0531
  453MOL0     H62491  11.278   5.841   9.013  2.1293 -1.0223  0.5926
  453MOL0     H62492  11.391   5.816   9.231 -2.1971 -1.0415 -0.4848
  453MOL0     H62493  11.226   5.871   9.232  0.0920  2.6790  0.9061
  453MOL0     H62494  10.507   6.291   8.854  1.3954  2.6960 -0.2560
  453MOL0     H62495  10.296   6.339   8.958  1.7716 -1.9067 -0.7480
  453MOL0     H62496  10.112   6.428   9.392 -0.2311  0.0821  3.0401
  453MOL0     H62497   9.922   6.375   9.540  2.4783 -3.4809 -1.0095
  453MOL0     H62498   7.829   6.981   8.822 -1.8613 -1.3320 -0.4807
  453MOL0     H62499   7.591   7.014   8.860 -2.2439 -0.4166  0.6030
  453MOL0     H62500   7.339   7.098   9.293 -2.1729  0.3953  3.6518
  453MOL0     H62501   7.170   7.217   9.436  2.3147  0.6273  0.0882
  453MOL0     H62502   7.121   7.424   9.534 -0.1845 -1.0925  0.0507
  453MOL0     H62503   6.999   7.535   9.527  0.9262  0.5407 -0.0786
  453MOL0     H62504   6.939   7.307   9.654 -0.5985 -2.7910  0.1059
  453MOL0     H62505   6.952   7.229   9.500 -2.9393 -0.3282 -0.3199
  453MOL0     H62506   6.753   7.452   9.549  2.3347  1.2682 -3.4724
  453MOL0     H62507   6.776   7.362   9.399 -1.2000 -0.7045  0.2525
  453MOL0     H62508   6.723   7.152   9.529 -3.2119 -1.9498  0.1084
  453MOL0     H62509   6.591   7.278   9.515  0.0773  3.0750  0.3230
  453MOL0     H62510   6.656   7.266   9.934 -0.6117  3.6082 -0.5089
  453MOL0     H62511   7.086   7.482   9.110 -3.1100 -1.0461  1.0086
  453MOL0     H62512   7.328   7.344   8.873 -1.2102  1.1543 -2.1343
  453MOL0     H62513   7.204   7.470   8.896 -1.9516 -1.9225  2.2546
  453MOL0     H62514   7.367   7.492   8.970  0.7009 -0.5231  0.4509
  454MOL0     O62515   4.433   8.144   9.492  0.2890 -0.4859  0.6941
  454MOL0     C62516   4.373   8.126   9.595 -0.8439  0.2621  0.9335
  454MOL0     O62517   4.428   8.084   9.709  0.2668 -0.1574  0.1307
  454MOL0     C62518   4.553   8.018   9.703  0.0607  0.6683  0.5367
  454MOL0     C62519   4.630   8.013   9.821  0.2226 -0.1007  0.1132
  454MOL0     C62520   4.755   7.951   9.829  0.5403  0.1231 -0.3175
  454MOL0     C62521   4.814   7.890   9.724 -0.3003 -0.2278 -0.1226
  454MOL0     O62522   4.947   7.850   9.724 -0.0424 -0.1151  0.1803
  454MOL0     C62523   4.970   7.709   9.698  0.4728  0.0894 -0.6257
  454MOL0     C62524   5.098   7.672   9.630  0.3100 -0.3859 -0.5186
  454MOL0     C62525   5.102   7.723   9.490  0.5015  0.0625 -0.2086
  454MOL0     C62526   5.241   7.713   9.436 -0.4811 -0.2222 -0.1419
  454MOL0     C62527   5.236   7.695   9.286  0.1190 -0.4618  0.8119
  454MOL0     C62528   5.361   7.748   9.216  0.3898 -0.3488  0.5938
  454MOL0     C62529   5.487   7.653   9.230  0.4607  0.5372 -1.1284
  454MOL0     C62530   5.605   7.729   9.180  1.4036 -0.1525 -0.0901
  454MOL0     N62531   5.718   7.642   9.178 -0.1196 -1.0510 -0.5913
  454MOL0     C62532   5.770   7.584   9.070  0.3020 -0.0878 -0.0734
  454MOL0     C62533   5.875   7.522   9.112  0.1847 -0.9042  0.5048
  454MOL0     C62534   5.968   7.449   9.025 -0.4825 -0.5308  0.6376
  454MOL0     C62535   6.101   7.539   9.043  0.2475 -1.1319  0.2568
  454MOL0     C62536   6.200   7.472   8.946  0.0951 -0.7938 -0.6070
  454MOL0     C62537   6.325   7.558   8.915  0.2192  0.3282 -0.4149
  454MOL0     O62538   6.373   7.523   8.790  0.3902 -0.4698  0.4078
  454MOL0     C62539   6.494   7.462   8.781 -0.5420  0.4007  0.7763
  454MOL0     C62540   6.524   7.345   8.860 -0.1981  0.1668  0.8040
  454MOL0     C62541   6.641   7.273   8.831  0.2279  0.1138 -0.0260
  454MOL0     C62542   6.648   7.128   8.887 -0.6117  0.1593  0.3817
  454MOL0     C62543   6.744   7.317   8.742  0.6833 -0.9855 -0.1100
  454MOL0     C62544   6.868   7.245   8.716 -0.6349 -0.4302 -0.6131
  454MOL0     O62545   6.980   7.316   8.703 -0.6303  0.2701  0.8326
  454MOL0     C62546   7.072   7.259   8.615 -0.6487 -0.0366  1.3276
  454MOL0     C62547   7.056   7.271   8.476 -0.8523  0.8322  0.0365
  454MOL0     C62548   7.152   7.206   8.386 -1.7434 -0.0670  0.0846
  454MOL0     C62549   7.254   7.124   8.436  0.6848 -0.1045 -0.0320
  454MOL0     O62550   7.346   7.050   8.364  0.1892 -0.7366  0.2600
  454MOL0     C62551   7.292   6.995   8.239  0.1841  0.0768  0.0270
  454MOL0     C62552   7.413   6.939   8.162 -0.1396 -0.1389  0.0817
  454MOL0     C62553   7.386   6.852   8.032  0.7435  0.7849 -0.2574
  454MOL0     C62554   7.498   6.864   7.937 -0.1992  0.4301  0.3247
  454MOL0     C62555   7.516   6.758   7.822 -0.1953 -0.5310  0.0607
  454MOL0     C62556   7.618   6.814   7.726 -0.6677 -0.5248 -0.4156
  454MOL0     C62557   7.757   6.837   7.798  0.1896 -0.2164  0.4402
  454MOL0     C62558   7.867   6.864   7.687  1.5740 -1.2063 -0.2378
  454MOL0    Cl62559   7.851   7.031   7.610  0.2909  0.4722 -0.4373
  454MOL0     C62560   7.264   7.110   8.572 -0.6465 -1.0243  0.4301
  454MOL0     C62561   7.172   7.174   8.665  0.3131  0.2819  0.1292
  454MOL0     O62562   6.864   7.125   8.692  0.5887  0.0225  0.2512
  454MOL0     C62563   6.713   7.432   8.668 -0.0855 -0.3722 -1.3729
  454MOL0     C62564   6.591   7.507   8.682 -0.3017 -0.3373  0.0072
  454MOL0     N62565   5.891   7.536   9.248  0.4052 -0.1961  0.6729
  454MOL0     N62566   5.801   7.617   9.282  0.4413 -0.2511 -0.1013
  454MOL0     C62567   4.728   7.872   9.609 -0.2994  0.0289 -0.7068
  454MOL0     C62568   4.604   7.939   9.596 -0.5210  0.7785  0.7755
  454MOL0     C62569   4.228   8.150   9.609 -0.4078  1.2559  0.6882
  454MOL0     C62570   4.171   8.174   9.735 -0.2443 -0.3530 -0.9648
  454MOL0     C62571   4.036   8.190   9.752  0.7512 -0.6951 -0.8244
  454MOL0     C62572   3.955   8.206   9.639 -0.4049  0.0487 -0.1051
  454MOL0     O62573   3.824   8.238   9.675  0.5383  0.3480  0.2972
  454MOL0     C62574   3.724   8.223   9.570  0.3397 -0.4149  0.5616
  454MOL0     C62575   3.580   8.236   9.622 -0.3277 -0.1451  0.0037
  454MOL0     C62576   3.544   8.383   9.636  0.5010  0.2606  0.4258
  454MOL0     C62577   3.431   8.426   9.553 -0.1758 -0.9549  0.8143
  454MOL0     C62578   3.397   8.568   9.582  0.5196  0.5775  0.0856
  454MOL0     C62579   3.362   8.682   9.590  0.1583  0.2214  0.2379
  454MOL0     C62580   4.009   8.184   9.515  0.5879 -0.1358  0.3374
  454MOL0     C62581   4.142   8.143   9.500 -0.9064  0.4296  0.4504
  454MOL0     C62582   4.180   8.102   9.355 -0.1994 -0.1513  0.1832
  454MOL0     H62583   4.599   8.062   9.913 -3.0679 -1.8914  0.1194
  454MOL0     H62584   4.794   7.961   9.929  2.0019  1.3639 -0.9671
  454MOL0     H62585   4.881   7.671   9.646  0.3629  1.0804 -1.1878
  454MOL0     H62586   4.974   7.654   9.792 -1.3033 -0.1424 -0.6434
  454MOL0     H62587   5.179   7.708   9.694 -0.6105  1.6232 -0.3833
  454MOL0     H62588   5.101   7.563   9.631  2.2983 -0.3609 -0.2728
  454MOL0     H62589   5.029   7.662   9.436  0.9937 -0.3560 -0.4151
  454MOL0     H62590   5.073   7.828   9.492 -0.7158 -0.2604 -0.3739
  454MOL0     H62591   5.282   7.810   9.467 -0.5323 -0.7444  1.5950
  454MOL0     H62592   5.289   7.628   9.485  1.8321  2.5661  2.8832
  454MOL0     H62593   5.153   7.751   9.242  0.8378  3.0496  3.4188
  454MOL0     H62594   5.230   7.588   9.264  1.8523 -0.5485  0.5664
  454MOL0     H62595   5.339   7.765   9.111 -1.3976  0.9885  1.1298
  454MOL0     H62596   5.385   7.850   9.248 -0.0861  0.6969 -2.0996
  454MOL0     H62597   5.469   7.562   9.173 -0.3620  1.1554 -1.8818
  454MOL0     H62598   5.504   7.620   9.333 -3.0037  1.3996 -0.1626
  454MOL0     H62599   5.577   7.757   9.078 -4.4875 -3.0257  0.3259
  454MOL0     H62600   5.620   7.823   9.234  0.7501  1.4075 -2.4757
  454MOL0     H62601   5.729   7.582   8.970  0.2523  0.9374 -0.0922
  454MOL0     H62602   5.933   7.449   8.922  0.3818  1.4393  0.2891
  454MOL0     H62603   5.987   7.347   9.059 -0.7869 -0.6741  0.3734
  454MOL0     H62604   6.069   7.638   9.007 -0.1821 -0.8081  1.4808
  454MOL0     H62605   6.138   7.550   9.145 -0.8501  0.0874  0.5522
  454MOL0     H62606   6.224   7.374   8.986  0.2758  0.8324  3.7304
  454MOL0     H62607   6.143   7.459   8.853 -1.4492 -0.0464  0.1869
  454MOL0     H62608   6.306   7.664   8.931  0.7264  0.7509 -2.4191
  454MOL0     H62609   6.395   7.522   8.991 -1.3709 -2.3908 -0.0966
  454MOL0     H62610   6.443   7.306   8.921  1.2230 -2.6134  1.0625
  454MOL0     H62611   6.745   7.104   8.933 -0.0977  2.3662  0.5909
  454MOL0     H62612   6.628   7.056   8.808  2.7809 -1.5804  0.9276
  454MOL0     H62613   6.576   7.112   8.967  0.9423 -0.6536  1.6916
  454MOL0     H62614   6.969   7.319   8.433 -1.7762 -0.5609  0.2712
  454MOL0     H62615   7.138   7.226   8.280  2.0001 -0.0813 -0.5337
  454MOL0     H62616   7.230   6.909   8.266  0.9274  0.1942  2.3314
  454MOL0     H62617   7.233   7.062   8.177  1.7573  0.0305 -1.6049
  454MOL0     H62618   7.484   7.019   8.136 -2.2388  1.7806 -0.0762
  454MOL0     H62619   7.465   6.870   8.229  1.3031  1.3104  0.5289
  454MOL0     H62620   7.287   6.877   7.993  0.1340  0.8373  1.2443
  454MOL0     H62621   7.386   6.749   8.068 -1.7016  1.4389  1.9291
  454MOL0     H62622   7.589   6.861   7.997 -1.0966  0.3517  1.7335
  454MOL0     H62623   7.487   6.964   7.892 -2.3481  1.1748  2.2885
  454MOL0     H62624   7.554   6.662   7.856 -0.0634 -0.5396 -0.1115
  454MOL0     H62625   7.422   6.754   7.765  0.6792  0.6234 -1.5270
  454MOL0     H62626   7.585   6.909   7.682 -1.2593 -0.4245  0.2263
  454MOL0     H62627   7.626   6.741   7.645  1.4018  0.0420 -0.7775
  454MOL0     H62628   7.787   6.757   7.866 -1.3476 -3.6103 -2.5385
  454MOL0     H62629   7.749   6.929   7.857 -0.2693 -0.4520  0.7488
  454MOL0     H62630   7.877   6.783   7.615 -0.7984 -0.2473 -1.7665
  454MOL0     H62631   7.959   6.866   7.746  1.2587  2.1603  0.3410
  454MOL0     H62632   7.348   7.062   8.620 -1.2985 -1.8364  0.7873
  454MOL0     H62633   7.186   7.162   8.772  0.0464 -3.4881 -0.1428
  454MOL0     H62634   6.787   7.469   8.597 -0.7238  0.2525 -1.7279
  454MOL0     H62635   6.575   7.591   8.615  1.2974  0.1314  0.1776
  454MOL0     H62636   4.759   7.813   9.524 -0.4467 -1.2143  0.0814
  454MOL0     H62637   4.541   7.923   9.509  0.2486 -1.2434  0.5326
  454MOL0     H62638   4.239   8.183   9.819 -0.1953 -2.4131 -0.7416
  454MOL0     H62639   3.989   8.192   9.850  3.2371 -1.2062  0.4359
  454MOL0     H62640   3.742   8.293   9.488  0.2729 -1.4939 -0.3901
  454MOL0     H62641   3.727   8.117   9.543 -0.6727 -0.3672  0.2372
  454MOL0     H62642   3.567   8.173   9.710 -0.8030 -1.3527 -0.9005
  454MOL0     H62643   3.526   8.197   9.535  2.3049 -2.6787 -0.6551
  454MOL0     H62644   3.505   8.383   9.739  3.3652 -3.1971  1.7251
  454MOL0     H62645   3.633   8.445   9.623  0.7643 -0.6349 -2.7039
  454MOL0     H62646   3.347   8.359   9.575 -2.3073  1.5567  0.7735
  454MOL0     H62647   3.455   8.412   9.447 -4.0930 -1.2510 -0.2173
  454MOL0     H62648   3.339   8.787   9.590 -1.5832 -0.1132 -1.9405
  454MOL0     H62649   3.947   8.198   9.426 -1.7248 -5.4880  0.7013
  454MOL0     H62650   4.099   8.090   9.282 -0.2846 -1.1833  0.4362
  454MOL0     H62651   4.254   8.175   9.321  0.0726 -1.9001 -3.4579
  454MOL0     H62652   4.231   8.006   9.355 -1.1706 -0.6866 -0.4960
  455MOL0     O62653   3.428   3.088   7.317  0.4043  0.1782  0.6704
  455MOL0     C62654   3.352   3.178   7.271  0.0461 -0.5352 -0.4938
  455MOL0     O62655   3.402   3.302   7.239 -0.2720 -0.5655 -0.0873
  455MOL0     C62656   3.544   3.324   7.217  0.3641 -0.2489 -0.7176
  455MOL0     C62657   3.569   3.438   7.139  0.0063 -0.3823 -0.0630
  455MOL0     C62658   3.698   3.459   7.080  0.9588 -1.1659 -0.1840
  455MOL0     C62659   3.804   3.376   7.111  0.9097  0.7011  0.1756
  455MOL0     O62660   3.921   3.419   7.061  0.9782  0.2568 -0.1464
  455MOL0     C62661   4.040   3.376   7.108 -0.1817 -0.8593  0.7353
  455MOL0     C62662   4.132   3.349   6.993  0.2995 -0.2466  0.0408
  455MOL0     C62663   4.172   3.480   6.921  0.3605  0.6775  0.0486
  455MOL0     C62664   4.266   3.465   6.805 -0.4594  0.2998  0.4145
  455MOL0     C62665   4.382   3.364   6.839 -0.3918 -0.4274  0.6266
  455MOL0     C62666   4.478   3.419   6.939 -0.0215  0.0415 -0.2537
  455MOL0     C62667   4.608   3.338   6.943 -0.5153 -0.1585 -0.1577
  455MOL0     C62668   4.588   3.195   6.972 -0.1957  0.4145  0.7442
  455MOL0     N62669   4.706   3.114   6.996  0.2660 -0.0532  0.0292
  455MOL0     C62670   4.815   3.109   6.906 -0.4414  0.2432  0.5323
  455MOL0     C62671   4.892   3.009   6.953 -0.2418  0.1607  0.1050
  455MOL0     C62672   5.013   2.966   6.877  0.4638 -0.0368  0.2062
  455MOL0     C62673   5.157   2.953   6.944  0.0298  0.0199 -0.1887
  455MOL0     C62674   5.151   2.837   7.053 -0.1077 -0.0086  0.0308
  455MOL0     C62675   5.302   2.808   7.099  0.3981  0.1037 -0.0801
  455MOL0     O62676   5.351   2.924   7.165  0.2547 -0.6757  0.5880
  455MOL0     C62677   5.481   2.938   7.202 -0.0491 -0.3443  0.6143
  455MOL0     C62678   5.576   2.836   7.170  0.3245 -0.2495 -0.2826
  455MOL0     C62679   5.710   2.866   7.209  0.0423  0.0037  0.2247
  455MOL0     C62680   5.809   2.746   7.206  0.6824  0.2165  0.1985
  455MOL0     C62681   5.747   2.990   7.276  1.0605  0.3659 -0.6777
  455MOL0     C62682   5.876   3.010   7.335 -0.5755 -0.0220 -0.0710
  455MOL0     O62683   5.934   3.132   7.303  0.0877  0.4356  0.0110
  455MOL0     C62684   6.039   3.159   7.378 -1.1061 -1.1323  0.0195
  455MOL0     C62685   6.173   3.130   7.335 -0.2539 -0.1133 -0.2548
  455MOL0     C62686   6.276   3.147   7.421 -0.1117 -0.6544 -0.0695
  455MOL0     C62687   6.256   3.184   7.553  0.3653 -0.3029  0.2072
  455MOL0     O62688   6.363   3.190   7.632  0.0926 -0.0758 -0.3251
  455MOL0     C62689   6.350   3.230   7.771  0.3217  0.2529 -0.4562
  455MOL0     C62690   6.490   3.245   7.836 -0.6454  0.7190  0.2632
  455MOL0     C62691   6.568   3.117   7.863  0.2542 -0.6092  0.4589
  455MOL0     C62692   6.691   3.142   7.951 -1.0188  0.0534 -0.7172
  455MOL0     C62693   6.801   3.237   7.906 -0.4589 -0.2127 -0.0384
  455MOL0     C62694   6.936   3.205   7.980  0.1236 -0.0746  0.6257
  455MOL0     C62695   7.058   3.278   7.916 -1.0792  0.2117 -0.3002
  455MOL0     C62696   7.100   3.227   7.777  0.3558  1.1576 -0.2838
  455MOL0    Cl62697   7.162   3.058   7.802  0.3228  0.0824  0.0772
  455MOL0     C62698   6.127   3.210   7.596 -0.5821  0.0633  0.0497
  455MOL0     C62699   6.015   3.207   7.506  0.6815 -0.1351  0.1668
  455MOL0     O62700   5.929   2.916   7.397  0.2291 -0.4320 -0.7646
  455MOL0     C62701   5.650   3.082   7.308  0.0177 -0.1059  0.2756
  455MOL0     C62702   5.517   3.060   7.261 -0.3796 -0.5827  0.4756
  455MOL0     N62703   4.836   2.960   7.071  0.4991 -0.5857  0.2261
  455MOL0     N62704   4.731   3.032   7.098 -0.9149  0.6377 -0.5057
  455MOL0     C62705   3.779   3.258   7.189 -0.6740  0.5587  0.6064
  455MOL0     C62706   3.653   3.235   7.238  0.3795  0.2363  0.4703
  455MOL0     C62707   3.199   3.173   7.249 -0.2212  0.1974  0.0449
  455MOL0     C62708   3.133   3.276   7.174  0.8985 -0.2453  0.6588
  455MOL0     C62709   2.995   3.288   7.141  0.2986 -0.5666 -0.7283
  455MOL0     C62710   2.911   3.187   7.187  0.2233 -0.1894  0.5694
  455MOL0     O62711   2.780   3.204   7.156 -0.1596 -0.4066  0.4755
  455MOL0     C62712   2.705   3.079   7.146 -0.0236 -0.6277  0.3521
  455MOL0     C62713   2.552   3.124   7.150  0.0121 -0.0616  0.4800
  455MOL0     C62714   2.520   3.195   7.016 -0.5587 -0.5123 -0.3654
  455MOL0     C62715   2.521   3.346   7.033 -0.4260  0.1951 -0.1354
  455MOL0     C62716   2.455   3.410   6.921 -0.5917  0.6281  0.8028
  455MOL0     C62717   2.407   3.475   6.829  0.0217 -0.6336  0.3540
  455MOL0     C62718   2.976   3.081   7.267 -0.2098 -0.7422  0.9013
  455MOL0     C62719   3.112   3.072   7.293 -1.7090 -0.1596 -0.0934
  455MOL0     C62720   3.157   2.950   7.370 -0.0116  0.4544  0.3834
  455MOL0     H62721   3.492   3.507   7.106  0.1431  0.0739  0.5496
  455MOL0     H62722   3.697   3.539   7.007 -2.3931 -0.1038  0.8351
  455MOL0     H62723   4.028   3.283   7.165 -2.6781  0.0551  1.8664
  455MOL0     H62724   4.078   3.459   7.167 -2.2722  3.8465 -3.7477
  455MOL0     H62725   4.213   3.302   7.049 -0.7920 -0.9902  1.0274
  455MOL0     H62726   4.088   3.277   6.923 -1.5659  0.1027  0.7990
  455MOL0     H62727   4.083   3.538   6.899  0.4615  1.0431  0.5790
  455MOL0     H62728   4.227   3.534   6.999  2.4974 -0.8148 -0.3423
  455MOL0     H62729   4.219   3.437   6.710  0.1552  1.5107 -0.2654
  455MOL0     H62730   4.319   3.559   6.785  1.9024 -1.1237 -0.4093
  455MOL0     H62731   4.429   3.339   6.744 -3.0589  2.4815 -1.6719
  455MOL0     H62732   4.334   3.270   6.869  1.1189 -1.1926  0.7299
  455MOL0     H62733   4.497   3.522   6.907 -0.8422  0.4446  0.5103
  455MOL0     H62734   4.441   3.409   7.042  1.0976  0.4674  0.2066
  455MOL0     H62735   4.683   3.372   7.015 -1.8410 -2.1581  2.3565
  455MOL0     H62736   4.651   3.352   6.843  0.6328 -0.8293  0.2260
  455MOL0     H62737   4.526   3.196   7.062  2.2374  1.9987  2.5326
  455MOL0     H62738   4.534   3.144   6.892  0.2815 -2.0174  1.8929
  455MOL0     H62739   4.824   3.168   6.815  1.3885  1.0208  1.1626
  455MOL0     H62740   5.041   3.047   6.809 -0.6504  2.0290  2.0544
  455MOL0     H62741   4.984   2.875   6.824  2.8541 -0.7720  0.0706
  455MOL0     H62742   5.219   2.921   6.860 -1.2227 -0.9607 -0.7903
  455MOL0     H62743   5.207   3.040   6.986 -0.4811  0.7317 -1.0130
  455MOL0     H62744   5.085   2.879   7.129 -0.5099 -2.3073  1.0016
  455MOL0     H62745   5.100   2.748   7.017 -0.9667  0.0710  1.0017
  455MOL0     H62746   5.307   2.717   7.159 -1.1509 -0.1386 -0.2770
  455MOL0     H62747   5.355   2.787   7.005 -0.4642 -2.6178 -0.0512
  455MOL0     H62748   5.539   2.741   7.133 -1.4630  0.2586  0.1132
  455MOL0     H62749   5.823   2.696   7.302  1.3967 -3.8693 -1.8191
  455MOL0     H62750   5.905   2.764   7.157  1.5479 -3.8123  0.0533
  455MOL0     H62751   5.776   2.673   7.131  1.9877  0.0394 -0.2291
  455MOL0     H62752   6.192   3.112   7.230  0.5990 -0.5029 -0.0419
  455MOL0     H62753   6.376   3.147   7.378 -0.5842  2.2441 -1.4343
  455MOL0     H62754   6.290   3.320   7.783 -1.0609 -0.7259  0.2698
  455MOL0     H62755   6.292   3.147   7.813 -0.8765  0.8968 -0.8266
  455MOL0     H62756   6.550   3.312   7.774 -0.6560 -0.9792 -1.6866
  455MOL0     H62757   6.476   3.282   7.938  0.9416  0.0740  0.7482
  455MOL0     H62758   6.602   3.070   7.770 -0.8868  1.9459 -1.3792
  455MOL0     H62759   6.499   3.050   7.916  0.0411 -0.6413  0.1459
  455MOL0     H62760   6.735   3.045   7.976 -0.7775  0.3552  0.0721
  455MOL0     H62761   6.655   3.178   8.048  1.0379 -1.8081  0.8756
  455MOL0     H62762   6.820   3.224   7.799  2.5997 -0.7297  0.4962
  455MOL0     H62763   6.775   3.340   7.931  1.7651  0.2058  0.7690
  455MOL0     H62764   6.961   3.099   7.974  2.7745  0.2995  3.0369
  455MOL0     H62765   6.921   3.216   8.088 -0.4039 -3.4834  1.0135
  455MOL0     H62766   7.143   3.264   7.983 -1.3879 -2.9059 -0.4263
  455MOL0     H62767   7.040   3.386   7.918  3.4598  1.1291  1.0251
  455MOL0     H62768   7.182   3.282   7.730  0.2453 -1.0248 -3.3639
  455MOL0     H62769   7.018   3.225   7.704 -0.0866  0.7450  0.2172
  455MOL0     H62770   6.100   3.250   7.692 -0.2616 -1.2673  0.7229
  455MOL0     H62771   5.909   3.222   7.524  0.2687 -0.7467 -1.4849
  455MOL0     H62772   5.659   3.171   7.371 -2.0446 -0.7140  1.5312
  455MOL0     H62773   5.443   3.137   7.281  1.1790  0.6273  1.8997
  455MOL0     H62774   3.855   3.182   7.206 -1.6301 -0.3782  0.7996
  455MOL0     H62775   3.645   3.131   7.268  0.0768  0.0069 -0.4019
  455MOL0     H62776   3.193   3.353   7.126 -1.4422  0.5290 -1.1921
  455MOL0     H62777   2.949   3.370   7.086  2.7520  1.4919  0.0788
  455MOL0     H62778   2.729   3.023   7.055 -4.1785 -2.9147  0.4009
  455MOL0     H62779   2.723   3.013   7.231  1.1894  0.5141  1.0349
  455MOL0     H62780   2.550   3.190   7.237 -0.6746 -1.7451  1.7999
  455MOL0     H62781   2.484   3.039   7.158  2.0071 -1.5979  2.4172
  455MOL0     H62782   2.590   3.175   6.934 -0.3658  2.0377 -0.8914
  455MOL0     H62783   2.422   3.158   6.982  0.0020 -1.4162 -1.0649
  455MOL0     H62784   2.619   3.394   7.043  0.9879 -2.3488 -0.8232
  455MOL0     H62785   2.467   3.370   7.125  0.5286  1.3278  0.1548
  455MOL0     H62786   2.369   3.525   6.742  3.2122 -0.2407 -0.9372
  455MOL0     H62787   2.908   3.002   7.296 -1.8412 -0.4273 -1.7220
  455MOL0     H62788   3.207   2.885   7.297  1.5409  0.0942  1.6925
  455MOL0     H62789   3.221   2.980   7.454  1.1454  0.4524 -0.4787
  455MOL0     H62790   3.067   2.900   7.405  0.6225  0.3568  1.9623
  456MOL0     O62791  10.995   8.377   2.023  0.2686  0.7297 -0.2434
  456MOL0     C62792  10.902   8.291   2.006 -0.2916  0.6691  0.2076
  456MOL0     O62793  10.825   8.283   1.894 -0.4723  0.0207  0.2384
  456MOL0     C62794  10.735   8.180   1.883 -0.2037  0.3030 -0.5267
  456MOL0     C62795  10.779   8.043   1.877  0.8059  0.3197 -0.0682
  456MOL0     C62796  10.681   7.939   1.857 -0.2652 -0.8206  0.5208
  456MOL0     C62797  10.542   7.973   1.837 -0.2522 -0.1936  0.9463
  456MOL0     O62798  10.461   7.870   1.814  0.8381  0.1272  0.1474
  456MOL0     C62799  10.323   7.881   1.832  0.4692 -0.3616 -0.3291
  456MOL0     C62800  10.252   7.753   1.885  0.6119 -1.1587 -0.3508
  456MOL0     C62801  10.126   7.789   1.958  0.8709 -0.1857  0.1712
  456MOL0     C62802  10.102   7.671   2.041 -0.3164 -0.5400 -0.2146
  456MOL0     C62803   9.971   7.675   2.122 -0.8342  0.1099 -0.4890
  456MOL0     C62804   9.968   7.792   2.224  0.0291  0.0275 -0.3518
  456MOL0     C62805   9.866   7.781   2.340  0.3018 -0.5901  0.2116
  456MOL0     C62806   9.723   7.788   2.281 -0.1444  0.3095 -0.1200
  456MOL0     N62807   9.616   7.774   2.385  0.1324  0.2997  0.6353
  456MOL0     C62808   9.608   7.825   2.508 -0.1853  0.7798 -0.7222
  456MOL0     C62809   9.480   7.805   2.548 -0.7703 -0.4049  0.2205
  456MOL0     C62810   9.424   7.854   2.671  0.0770  0.2308 -0.8594
  456MOL0     C62811   9.389   7.730   2.763 -0.5904 -0.8348 -0.1724
  456MOL0     C62812   9.329   7.782   2.899 -0.3811  0.1288 -0.1698
  456MOL0     C62813   9.397   7.888   2.969 -0.7915 -0.5120 -0.5146
  456MOL0     O62814   9.531   7.858   3.010 -0.3627 -0.5504  0.6888
  456MOL0     C62815   9.635   7.914   2.940 -0.6303 -0.4490 -0.3869
  456MOL0     C62816   9.745   7.845   2.892 -0.3116 -0.0316  0.2746
  456MOL0     C62817   9.842   7.907   2.816 -0.0925  0.4249 -0.1135
  456MOL0     C62818   9.959   7.815   2.772 -0.3577 -0.1164 -0.5973
  456MOL0     C62819   9.842   8.045   2.781 -0.5782  0.6908  0.2107
  456MOL0     C62820   9.948   8.113   2.695 -0.8846  0.5244 -0.4911
  456MOL0     O62821   9.972   8.243   2.712  1.1696  0.2336 -0.5185
  456MOL0     C62822  10.087   8.305   2.670  0.4676 -0.0991  0.7841
  456MOL0     C62823  10.209   8.245   2.657  0.2019 -0.2872 -0.0661
  456MOL0     C62824  10.317   8.320   2.622 -0.0717 -0.0332  0.2747
  456MOL0     C62825  10.306   8.448   2.579  0.6478 -0.1157  0.8673
  456MOL0     O62826  10.414   8.525   2.544 -0.8156 -0.4606 -0.0872
  456MOL0     C62827  10.549   8.468   2.534  0.2667  0.4158 -0.2567
  456MOL0     C62828  10.656   8.572   2.510 -0.6635 -0.2458  0.8480
  456MOL0     C62829  10.790   8.512   2.469  0.2882 -0.1356 -0.0880
  456MOL0     C62830  10.880   8.638   2.439  0.0334  0.1119 -0.1108
  456MOL0     C62831  11.018   8.599   2.422 -0.4599  0.6416  0.7955
  456MOL0     C62832  11.105   8.716   2.386 -0.5834  0.0737 -0.4872
  456MOL0     C62833  11.252   8.665   2.398 -0.8008  0.0918  0.9940
  456MOL0     C62834  11.342   8.769   2.339  0.4083  0.2869 -0.6960
  456MOL0    Cl62835  11.499   8.680   2.344 -0.5360 -0.0772 -0.0478
  456MOL0     C62836  10.178   8.502   2.591 -0.2469 -0.5994 -0.3544
  456MOL0     C62837  10.073   8.438   2.645 -0.1924  0.7814  0.6261
  456MOL0     O62838   9.984   8.038   2.604  0.6863  0.2633 -0.3874
  456MOL0     C62839   9.729   8.119   2.837 -1.7187  1.3298  0.1053
  456MOL0     C62840   9.637   8.053   2.917  0.5603 -0.1736  0.4267
  456MOL0     N62841   9.417   7.727   2.457  0.2622  0.0782  0.2841
  456MOL0     N62842   9.500   7.704   2.359 -0.2545  0.1032  0.2953
  456MOL0     C62843  10.508   8.103   1.855  0.4754  0.4270  0.1392
  456MOL0     C62844  10.595   8.205   1.876  0.4321 -0.1853 -0.5069
  456MOL0     C62845  10.875   8.204   2.122 -0.0962  0.7209 -0.2741
  456MOL0     C62846  10.744   8.198   2.181  0.3410  0.1662 -0.2881
  456MOL0     C62847  10.730   8.125   2.304  1.1551 -0.7734 -0.3103
  456MOL0     C62848  10.828   8.041   2.358  0.3947 -0.5505  0.0914
  456MOL0     O62849  10.796   7.988   2.485 -0.7955 -0.2880  0.0718
  456MOL0     C62850  10.870   7.868   2.518  0.8423 -0.0451  0.0265
  456MOL0     C62851  10.806   7.798   2.648  0.4508 -0.2003  0.3730
  456MOL0     C62852  10.770   7.906   2.757  0.7409  0.7338 -0.5144
  456MOL0     C62853  10.729   7.830   2.888  0.0210  0.2402  0.3969
  456MOL0     C62854  10.849   7.776   2.958 -0.5943 -0.2134  0.6588
  456MOL0     C62855  10.939   7.721   3.024 -0.7235  0.3814  1.0421
  456MOL0     C62856  10.948   8.036   2.288 -0.9684  0.5631 -0.7676
  456MOL0     C62857  10.974   8.118   2.181 -0.1021 -0.4038 -0.2308
  456MOL0     C62858  11.109   8.113   2.126 -0.8744  0.3154  0.6652
  456MOL0     H62859  10.879   8.004   1.895  1.1711  1.6452  0.9979
  456MOL0     H62860  10.718   7.837   1.853  4.1471  0.5807  0.5463
  456MOL0     H62861  10.275   7.909   1.738  1.5538  0.4635 -0.6574
  456MOL0     H62862  10.310   7.960   1.907 -0.0296  0.8774 -1.6829
  456MOL0     H62863  10.247   7.684   1.800  1.8423 -2.1107  0.3103
  456MOL0     H62864  10.319   7.704   1.956 -1.8379 -2.4529  1.1666
  456MOL0     H62865  10.137   7.880   2.018  2.2904  1.1359 -1.9543
  456MOL0     H62866  10.035   7.805   1.900 -0.0220 -0.2866  1.4880
  456MOL0     H62867  10.094   7.587   1.971 -1.8318 -2.7016  2.3465
  456MOL0     H62868  10.182   7.641   2.109 -0.4480 -1.5367 -0.4833
  456MOL0     H62869   9.960   7.579   2.172  1.2159  0.4188  0.6394
  456MOL0     H62870   9.885   7.703   2.060  0.3466  2.9142 -1.0489
  456MOL0     H62871  10.065   7.791   2.275  0.8631 -0.3638 -1.9040
  456MOL0     H62872   9.958   7.891   2.179  2.8839  1.8229  2.5322
  456MOL0     H62873   9.881   7.863   2.411  2.2667  1.6416 -2.5161
  456MOL0     H62874   9.889   7.687   2.391 -1.2191 -0.7863  0.5797
  456MOL0     H62875   9.702   7.873   2.217 -2.0423 -0.2786 -0.3279
  456MOL0     H62876   9.710   7.701   2.217 -0.8738 -0.6905  1.3233
  456MOL0     H62877   9.676   7.887   2.565 -2.4693  2.5125  0.2942
  456MOL0     H62878   9.328   7.904   2.655 -0.3559  0.0864  0.9869
  456MOL0     H62879   9.493   7.921   2.723 -0.4526 -0.1954  0.4480
  456MOL0     H62880   9.308   7.679   2.710 -3.1662  2.9709 -0.3626
  456MOL0     H62881   9.466   7.657   2.789 -1.5343 -1.3133  1.4895
  456MOL0     H62882   9.230   7.821   2.874 -1.0868 -2.6402 -2.2117
  456MOL0     H62883   9.315   7.699   2.969  1.1813 -0.6360 -0.7134
  456MOL0     H62884   9.398   7.984   2.916  2.1048  0.0062  0.3279
  456MOL0     H62885   9.332   7.903   3.056  0.6738 -2.0284  0.9001
  456MOL0     H62886   9.757   7.739   2.914  0.8542 -0.2316 -1.1696
  456MOL0     H62887   9.952   7.795   2.665 -1.0488  0.4266 -0.6659
  456MOL0     H62888   9.965   7.721   2.828 -0.4623  1.1207  1.6044
  456MOL0     H62889  10.050   7.870   2.798  0.4843 -1.0594 -1.4644
  456MOL0     H62890  10.213   8.145   2.700  4.0703  1.0051  3.2179
  456MOL0     H62891  10.415   8.275   2.615 -0.5669 -1.1230  0.1491
  456MOL0     H62892  10.564   8.423   2.633 -3.8590  0.0972  0.3667
  456MOL0     H62893  10.560   8.389   2.460 -1.0268 -1.8173  1.8061
  456MOL0     H62894  10.629   8.626   2.419  1.8654  1.5173  1.0397
  456MOL0     H62895  10.654   8.649   2.588 -1.8630  0.0105  0.5889
  456MOL0     H62896  10.780   8.452   2.379  2.1114  0.7495 -0.9341
  456MOL0     H62897  10.824   8.449   2.552 -1.9392 -1.1062  0.1500
  456MOL0     H62898  10.880   8.708   2.522  0.2473  0.4057 -0.3573
  456MOL0     H62899  10.847   8.692   2.349  3.8800  1.5455 -0.8303
  456MOL0     H62900  11.053   8.559   2.517 -0.5954  1.2289  1.0982
  456MOL0     H62901  11.020   8.515   2.352 -0.9044  0.3579  1.1164
  456MOL0     H62902  11.095   8.801   2.453  1.1344 -1.5063  1.9289
  456MOL0     H62903  11.080   8.755   2.287 -0.7364  2.7000  0.5204
  456MOL0     H62904  11.265   8.577   2.336 -1.1317  1.7671 -1.5977
  456MOL0     H62905  11.281   8.644   2.502  5.7704 -1.7494 -0.7565
  456MOL0     H62906  11.349   8.849   2.412 -4.3244 -1.0775  1.6370
  456MOL0     H62907  11.307   8.804   2.241  1.6363 -1.6810 -1.9143
  456MOL0     H62908  10.156   8.605   2.564 -2.1505 -0.6573  0.8085
  456MOL0     H62909   9.972   8.479   2.652 -0.5907 -0.4369  3.4760
  456MOL0     H62910   9.720   8.227   2.831 -0.4706  1.6090  2.2870
  456MOL0     H62911   9.552   8.110   2.953 -0.3844 -0.5721 -1.1062
  456MOL0     H62912  10.405   8.138   1.852  0.7596  1.5529  1.7924
  456MOL0     H62913  10.573   8.311   1.879 -2.6836 -0.6349 -3.0162
  456MOL0     H62914  10.658   8.244   2.134 -0.3849 -0.0232  0.8077
  456MOL0     H62915  10.635   8.150   2.350  0.4504  0.5209 -2.3460
  456MOL0     H62916  10.868   7.803   2.431 -2.3349  1.4260 -1.1657
  456MOL0     H62917  10.975   7.893   2.539  0.7003  0.1299  0.5518
  456MOL0     H62918  10.877   7.722   2.683 -0.6034 -1.3329  0.0947
  456MOL0     H62919  10.716   7.740   2.625 -0.3262  0.6884  1.1325
  456MOL0     H62920  10.858   7.969   2.777 -1.6955  4.2409  0.0408
  456MOL0     H62921  10.692   7.976   2.725  0.6228  0.8024 -0.0873
  456MOL0     H62922  10.660   7.747   2.871 -0.8780  0.6285  2.0134
  456MOL0     H62923  10.676   7.897   2.955  2.0254 -0.0629  2.3991
  456MOL0     H62924  11.014   7.665   3.078  0.5707 -0.4700 -1.5051
  456MOL0     H62925  11.024   7.965   2.319  0.6772  1.4237 -2.6513
  456MOL0     H62926  11.175   8.044   2.179  0.3679  1.1754  0.2988
  456MOL0     H62927  11.102   8.086   2.020 -1.4619 -0.9518  1.0088
  456MOL0     H62928  11.154   8.213   2.127  1.7809 -0.2579 -6.0095
  457MOL0     O62929   7.164   1.151   5.046  0.3568 -0.9236 -0.2561
  457MOL0     C62930   7.152   1.047   4.983 -0.0706  0.4524 -0.1739
  457MOL0     O62931   7.265   0.982   4.931 -0.4742 -0.3950  0.2411
  457MOL0     C62932   7.390   1.041   4.922  0.3338 -0.4595 -0.1723
  457MOL0     C62933   7.415   1.175   4.886  0.2569 -0.0485  0.1843
  457MOL0     C62934   7.550   1.212   4.858  0.4496  0.9709 -0.1281
  457MOL0     C62935   7.651   1.120   4.891 -0.1433  0.3019  0.3053
  457MOL0     O62936   7.784   1.154   4.884 -0.0591 -0.9361  0.1876
  457MOL0     C62937   7.821   1.278   4.948 -0.1094  0.4363 -0.3525
  457MOL0     C62938   7.962   1.311   4.888 -0.4624  0.1209  0.6959
  457MOL0     C62939   8.073   1.226   4.955  0.3316  0.2474  0.4894
  457MOL0     C62940   8.205   1.230   4.883 -0.4009  0.0778 -0.7670
  457MOL0     C62941   8.321   1.146   4.943  0.5742  0.3011 -0.4752
  457MOL0     C62942   8.449   1.143   4.861 -0.3776 -0.4745  0.1427
  457MOL0     C62943   8.543   1.034   4.905 -0.3245  0.6639  0.2842
  457MOL0     C62944   8.492   0.894   4.868 -0.1768  0.2072  0.4207
  457MOL0     N62945   8.612   0.809   4.899  0.6219  0.3658  0.2544
  457MOL0     C62946   8.629   0.744   5.019 -0.8297  0.2150  0.5493
  457MOL0     C62947   8.748   0.692   5.006  0.1503 -0.0214 -0.0249
  457MOL0     C62948   8.826   0.632   5.121  0.8458  0.0309  0.6535
  457MOL0     C62949   8.857   0.483   5.117 -0.3444 -0.9192 -0.8152
  457MOL0     C62950   9.006   0.490   5.060  1.2141  0.4454  0.1971
  457MOL0     C62951   9.056   0.350   5.057 -0.4608 -1.4233  0.2935
  457MOL0     O62952   9.071   0.324   5.200 -0.5656  0.0406 -0.5085
  457MOL0     C62953   9.203   0.306   5.237  0.3051  0.2327  0.9263
  457MOL0     C62954   9.242   0.183   5.295  0.0606  0.8159  0.2679
  457MOL0     C62955   9.376   0.147   5.324 -0.8451  0.4396 -0.0993
  457MOL0     C62956   9.402   0.002   5.361  0.8413  0.2160 -0.2337
  457MOL0     C62957   9.485   0.241   5.299  0.2482  0.5975  0.5767
  457MOL0     C62958   9.622   0.216   5.346 -0.5124 -0.2338 -0.0929
  457MOL0     O62959   9.660   0.106   5.422  0.1131  0.8841 -0.3079
  457MOL0     C62960   9.798   0.091   5.434 -0.6408  0.4802 -1.3864
  457MOL0     C62961   9.872   0.049   5.320  0.5358  0.4859  0.8195
  457MOL0     C62962  10.012   0.039   5.327  0.0712  0.1522 -0.8424
  457MOL0     C62963  10.081   0.063   5.453 -1.0532  0.0170 -0.5057
  457MOL0     O62964  10.223   0.044   5.463 -0.2708 -0.8909 -0.1380
  457MOL0     C62965  10.293   0.067   5.335  0.3824 -0.0144  0.1994
  457MOL0     C62966  10.447   0.069   5.358 -0.5953 -0.3351  0.7259
  457MOL0     C62967  10.500  -0.072   5.385  0.0331  0.1590 -0.2988
  457MOL0     C62968  10.654  -0.089   5.392  0.2342 -0.9050  0.3840
  457MOL0     C62969  10.695  -0.239   5.376 -0.3869 -0.0287 -0.7904
  457MOL0     C62970  10.647  -0.332   5.494  0.8230 -0.0196 -0.1734
  457MOL0     C62971  10.677  -0.485   5.475  0.0243  0.1385 -0.2102
  457MOL0     C62972  10.828  -0.503   5.461 -0.3426 -0.6518 -0.0514
  457MOL0    Cl62973  10.860  -0.673   5.422 -0.6131  0.0910 -0.6827
  457MOL0     C62974   9.999   0.099   5.564 -0.1613 -0.5074 -0.5201
  457MOL0     C62975   9.865   0.111   5.554  0.3003  0.1577  0.3251
  457MOL0     O62976   9.696   0.309   5.329 -0.6429 -0.5112 -0.4590
  457MOL0     C62977   9.446   0.368   5.243 -0.4791 -0.4438  0.4355
  457MOL0     C62978   9.313   0.398   5.214 -0.1313 -0.1587 -1.0314
  457MOL0     N62979   8.799   0.712   4.878 -0.1331  0.4220 -0.9590
  457MOL0     N62980   8.712   0.782   4.814 -0.1838  0.4354  0.0972
  457MOL0     C62981   7.628   0.987   4.915 -0.1291 -0.3294 -0.0778
  457MOL0     C62982   7.493   0.948   4.936 -0.4619 -0.8199 -0.4947
  457MOL0     C62983   7.006   0.994   4.950 -0.0232  0.3148 -0.1288
  457MOL0     C62984   6.898   1.069   5.002 -0.0995 -0.6787  0.6685
  457MOL0     C62985   6.766   1.037   4.978 -0.6495 -0.7517  0.1529
  457MOL0     C62986   6.719   0.917   4.912 -0.4135 -1.6420  0.4184
  457MOL0     O62987   6.589   0.900   4.890  0.3353 -0.3675 -0.3694
  457MOL0     C62988   6.551   0.784   4.813  0.3961  0.0320 -0.2123
  457MOL0     C62989   6.594   0.785   4.656  0.1716 -0.1898 -0.0742
  457MOL0     C62990   6.505   0.871   4.564 -0.6552  0.1216  0.5189
  457MOL0     C62991   6.483   0.799   4.439  0.4261 -0.2624  1.0866
  457MOL0     C62992   6.611   0.802   4.366  0.2162 -1.0114  1.9265
  457MOL0     C62993   6.717   0.811   4.305  0.0843  0.5290 -0.9045
  457MOL0     C62994   6.828   0.841   4.868  0.0373 -0.5262  0.1156
  457MOL0     C62995   6.966   0.882   4.870 -0.0749 -0.6432  0.3790
  457MOL0     C62996   7.065   0.791   4.803 -0.8408 -0.3628 -0.5161
  457MOL0     H62997   7.327   1.238   4.887 -1.4589 -2.3258  0.0622
  457MOL0     H62998   7.578   1.314   4.833 -1.0346  1.5712  0.5530
  457MOL0     H62999   7.832   1.257   5.055  1.0198 -1.6534 -0.8346
  457MOL0     H63000   7.754   1.362   4.925  2.2617  1.7609 -3.0757
  457MOL0     H63001   7.960   1.288   4.781 -3.3555  1.5563  0.3422
  457MOL0     H63002   7.979   1.419   4.889  1.3557 -0.1109 -0.7907
  457MOL0     H63003   8.097   1.257   5.057  1.5396 -1.2480  0.6992
  457MOL0     H63004   8.043   1.120   4.954 -1.1234  0.6380  0.4959
  457MOL0     H63005   8.208   1.205   4.776  0.3963 -0.0733 -0.7182
  457MOL0     H63006   8.238   1.332   4.902 -0.3890  0.5282 -2.9055
  457MOL0     H63007   8.281   1.045   4.938  2.0218 -0.4090  1.0717
  457MOL0     H63008   8.344   1.172   5.047 -0.5241  2.1801 -0.6604
  457MOL0     H63009   8.430   1.134   4.754  2.9550  0.8898 -0.7030
  457MOL0     H63010   8.499   1.240   4.872 -1.7852  0.2994 -0.0709
  457MOL0     H63011   8.542   1.036   5.014 -1.2647  1.8650  0.2795
  457MOL0     H63012   8.646   1.043   4.869 -0.3981  0.9325  0.1406
  457MOL0     H63013   8.412   0.856   4.933 -1.1023 -1.1082 -1.4019
  457MOL0     H63014   8.459   0.892   4.764  0.4705  4.0759 -0.0124
  457MOL0     H63015   8.562   0.757   5.104 -0.0608 -2.2531  1.6394
  457MOL0     H63016   8.779   0.661   5.216  3.7263  1.1394  1.8628
  457MOL0     H63017   8.918   0.689   5.142  1.4039  0.9486 -3.4014
  457MOL0     H63018   8.853   0.437   5.216 -1.2759  0.2323 -0.2933
  457MOL0     H63019   8.785   0.433   5.051 -1.8216 -0.1539  0.1501
  457MOL0     H63020   9.003   0.527   4.957 -2.0102  0.7509  0.2837
  457MOL0     H63021   9.082   0.552   5.108  1.1768 -0.5972  1.6609
  457MOL0     H63022   8.972   0.295   5.015 -3.6434  1.0532  2.9132
  457MOL0     H63023   9.150   0.333   5.003 -0.5557  0.7939 -0.6810
  457MOL0     H63024   9.170   0.102   5.307  0.1788  0.4114 -1.4245
  457MOL0     H63025   9.311  -0.059   5.354  1.7763 -1.1772 -0.7429
  457MOL0     H63026   9.434  -0.016   5.464 -2.2208 -0.6632  0.7009
  457MOL0     H63027   9.480  -0.038   5.296  0.3330 -1.7799  0.2953
  457MOL0     H63028   9.819   0.046   5.226  2.9789 -0.7481 -0.6063
  457MOL0     H63029  10.065   0.001   5.240 -0.9184 -2.5462 -0.3637
  457MOL0     H63030  10.278  -0.011   5.260  1.1917 -1.7355  1.7570
  457MOL0     H63031  10.273   0.164   5.289  1.2178 -0.4195 -1.0732
  457MOL0     H63032  10.494   0.112   5.269 -0.4294  0.0057  0.9770
  457MOL0     H63033  10.477   0.132   5.442  1.4579  1.0568 -0.9217
  457MOL0     H63034  10.471  -0.133   5.299  0.0552 -2.0770  1.1915
  457MOL0     H63035  10.446  -0.115   5.470  0.4147 -2.1972 -1.1615
  457MOL0     H63036  10.688  -0.048   5.488  0.3007  3.0008 -1.1201
  457MOL0     H63037  10.701  -0.026   5.317 -2.2158  0.5271 -0.0469
  457MOL0     H63038  10.667  -0.278   5.278  2.2499  1.1571 -2.1110
  457MOL0     H63039  10.804  -0.231   5.384 -0.6320  3.4649  3.0669
  457MOL0     H63040  10.540  -0.324   5.512  0.7905 -1.2757  0.3298
  457MOL0     H63041  10.702  -0.302   5.584  4.3870 -1.5014 -1.6708
  457MOL0     H63042  10.633  -0.531   5.386  0.8388 -0.4434 -0.3242
  457MOL0     H63043  10.645  -0.537   5.566 -0.2520  0.5413 -0.0781
  457MOL0     H63044  10.879  -0.474   5.553  2.1466 -1.6639 -1.0109
  457MOL0     H63045  10.883  -0.449   5.384  0.3153 -1.9728 -0.5514
  457MOL0     H63046  10.037   0.125   5.662 -1.9319 -0.9177  0.3202
  457MOL0     H63047   9.796   0.143   5.631  1.0988 -0.1092  1.1543
  457MOL0     H63048   9.517   0.448   5.223 -3.5532  2.0731 -1.4674
  457MOL0     H63049   9.282   0.494   5.174 -2.6447 -0.1552  0.7085
  457MOL0     H63050   7.706   0.914   4.938  0.1283 -0.5223 -1.5050
  457MOL0     H63051   7.478   0.845   4.966  2.5534 -2.4490 -3.7678
  457MOL0     H63052   6.915   1.153   5.069  4.4189 -0.5717 -0.3340
  457MOL0     H63053   6.689   1.099   5.021  0.1726  0.3912  0.0257
  457MOL0     H63054   6.598   0.699   4.862  0.4585  1.1774  1.8288
  457MOL0     H63055   6.443   0.773   4.823  0.6016 -0.9587  1.0087
  457MOL0     H63056   6.591   0.682   4.619 -0.2922 -1.0319  2.1553
  457MOL0     H63057   6.697   0.821   4.648  0.1663 -0.4419 -1.4673
  457MOL0     H63058   6.411   0.890   4.615 -1.9084 -0.4598 -1.4538
  457MOL0     H63059   6.546   0.969   4.538  1.2680 -0.1819  2.1172
  457MOL0     H63060   6.403   0.851   4.384  2.1020  0.6735 -0.5746
  457MOL0     H63061   6.462   0.692   4.443 -0.1676 -0.3683 -2.2140
  457MOL0     H63062   6.816   0.817   4.265  0.4212 -1.9199 -0.5873
  457MOL0     H63063   6.815   0.744   4.822 -1.0754 -0.6890  0.7191
  457MOL0     H63064   7.112   0.729   4.879 -2.3068  0.8225  1.4705
  457MOL0     H63065   7.021   0.717   4.736 -1.9771 -1.1664  1.0632
  457MOL0     H63066   7.147   0.838   4.747 -1.1222  0.5465 -0.1951
  458MOL0     O63067   2.561   0.315   7.706 -0.0291  0.5157  0.7144
  458MOL0     C63068   2.532   0.384   7.803 -0.6701 -0.9185  0.1396
  458MOL0     O63069   2.615   0.398   7.913 -0.2093  0.0035  0.1589
  458MOL0     C63070   2.736   0.328   7.920  0.2436 -0.7140  0.0905
  458MOL0     C63071   2.777   0.258   8.034 -0.6648  0.4800  0.1009
  458MOL0     C63072   2.902   0.199   8.043 -0.0494  0.1711  0.3304
  458MOL0     C63073   2.997   0.211   7.937 -0.6103  0.7783 -0.7214
  458MOL0     O63074   3.123   0.154   7.939 -0.0113  0.2552 -0.7693
  458MOL0     C63075   3.195   0.163   8.061  0.2131 -0.0605  1.2715
  458MOL0     C63076   3.306   0.056   8.059 -0.7416  0.2738  0.2123
  458MOL0     C63077   3.432   0.115   8.003 -0.6385  0.4707  0.3063
  458MOL0     C63078   3.555   0.019   7.998  0.2659 -0.0850 -0.5032
  458MOL0     C63079   3.676   0.077   7.941  0.5663 -0.2446  0.4700
  458MOL0     C63080   3.775  -0.032   7.887 -0.1403 -0.1299 -0.1991
  458MOL0     C63081   3.898   0.027   7.847 -0.3122 -0.1587 -0.0689
  458MOL0     C63082   4.010  -0.078   7.828  0.1830 -0.8174 -0.5438
  458MOL0     N63083   4.147  -0.021   7.838 -0.6966 -0.3195  0.0091
  458MOL0     C63084   4.251  -0.092   7.779 -0.2211 -0.2842  0.6514
  458MOL0     C63085   4.363  -0.026   7.825  0.4181 -0.1203  0.2386
  458MOL0     C63086   4.508  -0.050   7.802 -0.1136  0.5010 -0.5764
  458MOL0     C63087   4.599  -0.078   7.924 -0.0300 -0.4319  0.1271
  458MOL0     C63088   4.747  -0.055   7.885 -0.1936  0.2750  0.0261
  458MOL0     C63089   4.839  -0.142   7.963  0.6911  0.6233  0.8987
  458MOL0     O63090   4.804  -0.282   7.942 -0.0917 -0.1486 -1.1292
  458MOL0     C63091   4.880  -0.374   8.007 -1.1737  0.1671  0.0465
  458MOL0     C63092   4.873  -0.507   7.968  0.0432 -0.0563  0.4268
  458MOL0     C63093   4.950  -0.612   8.019 -0.2592  0.1337 -0.3315
  458MOL0     C63094   4.919  -0.758   7.980 -0.4154 -0.5010  0.3576
  458MOL0     C63095   5.060  -0.572   8.106 -0.4035 -0.1191  0.0430
  458MOL0     C63096   5.163  -0.669   8.149  0.0083  0.9972  0.3349
  458MOL0     O63097   5.283  -0.603   8.183  0.4733  0.8773  0.5548
  458MOL0     C63098   5.394  -0.681   8.222 -0.5287 -1.0268 -0.1009
  458MOL0     C63099   5.524  -0.662   8.168 -0.0305  0.2680  0.7080
  458MOL0     C63100   5.633  -0.742   8.206 -0.0567  0.0563  0.6918
  458MOL0     C63101   5.623  -0.828   8.320 -0.5866  1.7027 -0.5475
  458MOL0     O63102   5.736  -0.902   8.366  0.3594 -0.5112  0.1521
  458MOL0     C63103   5.706  -1.030   8.428  1.0761 -0.7190 -0.5548
  458MOL0     C63104   5.841  -1.104   8.425  0.1165 -0.2566 -0.1781
  458MOL0     C63105   5.835  -1.239   8.497  0.3131 -0.4728  0.8820
  458MOL0     C63106   5.740  -1.335   8.432 -0.4027  0.1103  0.5257
  458MOL0     C63107   5.769  -1.483   8.480 -0.1021 -0.9169  0.0790
  458MOL0     C63108   5.711  -1.501   8.617  0.6852 -0.4384 -0.0467
  458MOL0     C63109   5.751  -1.641   8.661  0.7985  0.0224 -0.0418
  458MOL0     C63110   5.718  -1.643   8.808  0.4091  0.6974  0.1617
  458MOL0    Cl63111   5.542  -1.691   8.826  0.2725 -0.0416  0.6765
  458MOL0     C63112   5.499  -0.828   8.389  0.4374 -0.0145  0.8795
  458MOL0     C63113   5.388  -0.762   8.333 -0.4638 -0.4506  0.2692
  458MOL0     O63114   5.140  -0.784   8.165 -0.5488 -0.4366 -0.6414
  458MOL0     C63115   5.063  -0.437   8.151 -0.4318  0.2723 -0.0808
  458MOL0     C63116   4.978  -0.343   8.107  0.5506  0.3478 -0.3129
  458MOL0     N63117   4.323   0.078   7.906 -0.7812 -0.2205  0.0766
  458MOL0     N63118   4.191   0.083   7.913  0.7824  0.1777 -0.4635
  458MOL0     C63119   2.960   0.277   7.819  0.2770 -0.1856  0.0517
  458MOL0     C63120   2.835   0.334   7.809 -0.5537  0.8583  0.1051
  458MOL0     C63121   2.404   0.463   7.805 -0.7427 -0.4059  1.1265
  458MOL0     C63122   2.386   0.569   7.896  0.2959  0.6359  0.6774
  458MOL0     C63123   2.280   0.658   7.874 -0.3276  0.4706 -0.1478
  458MOL0     C63124   2.180   0.635   7.785 -0.1600  0.6171 -0.2974
  458MOL0     O63125   2.064   0.706   7.776  0.0556  0.6748  0.0954
  458MOL0     C63126   1.945   0.648   7.833 -0.3263 -1.4543 -0.1554
  458MOL0     C63127   1.850   0.759   7.885  1.0643 -0.1644  0.7161
  458MOL0     C63128   1.918   0.819   8.006  0.0285  0.1503  0.6894
  458MOL0     C63129   1.833   0.906   8.086 -0.0848 -0.5711  0.2229
  458MOL0     C63130   1.930   0.983   8.176 -0.3322  0.2145 -0.0164
  458MOL0     C63131   2.015   1.057   8.230  0.4321  0.2028  0.5767
  458MOL0     C63132   2.192   0.530   7.692 -0.1525 -1.3021  0.2742
  458MOL0     C63133   2.302   0.446   7.702  0.6543  0.5202 -0.2972
  458MOL0     C63134   2.309   0.345   7.596 -0.6654 -0.4936  0.2047
  458MOL0     H63135   2.715   0.236   8.120  1.0947 -0.2908  1.2340
  458MOL0     H63136   2.929   0.155   8.138  0.5233  1.1236  0.6174
  458MOL0     H63137   3.134   0.136   8.148 -2.5650 -2.5154 -1.1881
  458MOL0     H63138   3.230   0.266   8.066 -1.2342  0.6275 -1.1621
  458MOL0     H63139   3.330   0.026   8.161 -2.4926 -2.7904 -0.1726
  458MOL0     H63140   3.277  -0.029   7.997  1.3690  1.6466 -2.9756
  458MOL0     H63141   3.417   0.142   7.898  1.3083  1.2334  0.1742
  458MOL0     H63142   3.470   0.204   8.054  1.4699 -0.4214  0.4155
  458MOL0     H63143   3.574  -0.028   8.095  1.6150  0.2952 -0.5572
  458MOL0     H63144   3.532  -0.067   7.934 -0.0427  0.0026 -0.5091
  458MOL0     H63145   3.725   0.130   8.023 -1.2441  2.5434 -0.1050
  458MOL0     H63146   3.644   0.150   7.866 -0.5741 -0.4266  0.7654
  458MOL0     H63147   3.798  -0.108   7.962  0.3181 -1.4043 -1.5971
  458MOL0     H63148   3.726  -0.075   7.799  0.2559  1.8737 -1.4730
  458MOL0     H63149   3.939   0.093   7.924  1.8797  0.8409 -1.9923
  458MOL0     H63150   3.886   0.081   7.753 -1.6337  1.3134  0.9028
  458MOL0     H63151   3.994  -0.168   7.888 -0.2377 -0.5215 -0.2084
  458MOL0     H63152   3.989  -0.123   7.730 -0.8056 -3.0876  0.6309
  458MOL0     H63153   4.241  -0.185   7.723 -3.8611  0.3304  0.0316
  458MOL0     H63154   4.553   0.039   7.758  2.5178 -2.2997 -4.1807
  458MOL0     H63155   4.511  -0.132   7.730  1.1340 -0.7266  0.7906
  458MOL0     H63156   4.571  -0.010   8.005 -2.2547 -2.9265  1.5974
  458MOL0     H63157   4.576  -0.182   7.948 -1.2690 -0.0243  0.8242
  458MOL0     H63158   4.767  -0.090   7.783 -0.6659  0.8388 -0.2607
  458MOL0     H63159   4.780   0.048   7.900  2.7752 -0.9262  3.4388
  458MOL0     H63160   4.941  -0.129   7.924  0.1137  3.6585  0.1221
  458MOL0     H63161   4.839  -0.117   8.070 -2.3897 -1.8012  1.6097
  458MOL0     H63162   4.809  -0.533   7.883  2.0952  2.1529 -1.9373
  458MOL0     H63163   4.833  -0.771   7.914 -0.2973 -3.1713  0.6057
  458MOL0     H63164   4.892  -0.822   8.065 -1.0841 -2.8546 -1.5322
  458MOL0     H63165   5.009  -0.801   7.936 -0.3896  0.7105 -0.8105
  458MOL0     H63166   5.544  -0.583   8.097 -0.0437 -1.9582 -1.9506
  458MOL0     H63167   5.729  -0.723   8.160 -0.1785 -3.0401 -1.1184
  458MOL0     H63168   5.683  -1.014   8.533  0.9683 -1.0334 -0.5277
  458MOL0     H63169   5.628  -1.083   8.372 -1.8958  1.6254  1.0402
  458MOL0     H63170   5.878  -1.118   8.323 -0.2366  0.1215 -0.3564
  458MOL0     H63171   5.912  -1.043   8.481 -0.9232 -0.8544  1.8770
  458MOL0     H63172   5.808  -1.224   8.602 -0.4113 -0.2807  0.6748
  458MOL0     H63173   5.935  -1.283   8.494 -0.2778 -2.0218 -3.8054
  458MOL0     H63174   5.755  -1.333   8.324 -3.0467  0.3993  0.0792
  458MOL0     H63175   5.631  -1.322   8.441 -0.3889 -0.5598  2.0601
  458MOL0     H63176   5.728  -1.547   8.402  2.3768 -0.4168 -1.7575
  458MOL0     H63177   5.877  -1.495   8.488  0.0647  0.3296 -0.0389
  458MOL0     H63178   5.603  -1.483   8.617  0.5066 -1.2659 -1.9034
  458MOL0     H63179   5.749  -1.423   8.684  2.0264  0.1668 -1.4483
  458MOL0     H63180   5.859  -1.654   8.651  1.1735 -0.4047  3.2544
  458MOL0     H63181   5.701  -1.716   8.599  1.5919 -0.1023 -0.5386
  458MOL0     H63182   5.729  -1.547   8.859 -0.3260  0.3155  1.0598
  458MOL0     H63183   5.780  -1.715   8.861 -1.3994 -1.6903 -0.7313
  458MOL0     H63184   5.485  -0.872   8.487  1.4080  0.9995  1.5011
  458MOL0     H63185   5.289  -0.777   8.376 -1.3191 -0.4478 -1.6123
  458MOL0     H63186   5.113  -0.399   8.239  1.0813  0.3085 -0.9286
  458MOL0     H63187   4.987  -0.240   8.139 -1.4434 -0.2878  2.7813
  458MOL0     H63188   3.034   0.275   7.739 -0.4398 -3.1347 -0.6754
  458MOL0     H63189   2.812   0.398   7.725 -1.4446  1.6596  0.9240
  458MOL0     H63190   2.456   0.572   7.980  0.2010  1.9823  0.7296
  458MOL0     H63191   2.265   0.737   7.947 -3.0053  1.2861 -1.4451
  458MOL0     H63192   1.895   0.588   7.756 -0.7062  0.0820 -1.1572
  458MOL0     H63193   1.981   0.588   7.917  2.0378  0.7670  0.5530
  458MOL0     H63194   1.754   0.711   7.900  2.0187 -2.6156 -0.4342
  458MOL0     H63195   1.840   0.831   7.803  1.0529 -0.4719  0.4447
  458MOL0     H63196   1.934   0.735   8.075 -1.5961 -0.4785  0.3476
  458MOL0     H63197   2.009   0.870   7.974  1.6032 -2.2524  1.0924
  458MOL0     H63198   1.754   0.865   8.149  1.8638 -2.4659  1.5568
  458MOL0     H63199   1.786   0.980   8.020  3.0714  0.0228 -1.5620
  458MOL0     H63200   2.076   1.122   8.290  0.9788  0.8376 -0.6267
  458MOL0     H63201   2.113   0.520   7.619 -1.8997  0.4966  1.7916
  458MOL0     H63202   2.341   0.247   7.634  0.3326 -0.2894 -0.0939
  458MOL0     H63203   2.204   0.325   7.571 -0.8086 -2.7716  2.2536
  458MOL0     H63204   2.368   0.373   7.509  0.8313  0.4683  1.4683
  459MOL0     O63205   7.857   6.883   2.058 -0.0641 -0.0135  0.0614
  459MOL0     C63206   7.816   6.851   1.950  0.4429  0.4736  0.7127
  459MOL0     O63207   7.866   6.882   1.822 -0.7882 -0.3582 -0.6788
  459MOL0     C63208   7.947   6.988   1.811 -0.6047 -1.3802 -0.9169
  459MOL0     C63209   7.901   7.121   1.803 -0.6841 -1.0537 -0.2356
  459MOL0     C63210   7.994   7.229   1.794 -0.9909 -0.3483  0.0498
  459MOL0     C63211   8.138   7.200   1.787  0.2018 -0.0131 -0.1671
  459MOL0     O63212   8.242   7.290   1.808 -0.2029  0.1790 -0.2170
  459MOL0     C63213   8.204   7.415   1.879  0.5340  0.1932  0.7677
  459MOL0     C63214   8.333   7.467   1.936  0.1756 -0.1935  0.0869
  459MOL0     C63215   8.326   7.621   1.974  0.5516  0.4932 -0.0383
  459MOL0     C63216   8.459   7.678   2.035  0.2545 -0.5207  0.0820
  459MOL0     C63217   8.455   7.836   2.041 -0.5737  0.3317  0.1639
  459MOL0     C63218   8.578   7.892   2.118  0.1382  0.3878  0.5936
  459MOL0     C63219   8.548   8.026   2.189  0.2279  0.1895  0.2240
  459MOL0     C63220   8.658   8.079   2.282  0.5359  1.4394  0.0748
  459MOL0     N63221   8.791   8.088   2.226  0.4806 -0.3161  0.5603
  459MOL0     C63222   8.824   8.175   2.132  0.8212 -0.2790 -0.8839
  459MOL0     C63223   8.954   8.156   2.102 -0.1969 -0.1709  0.0245
  459MOL0     C63224   9.030   8.221   1.990 -0.3954 -0.7310 -0.1754
  459MOL0     C63225   9.141   8.317   2.036 -0.3978  1.0547 -0.1586
  459MOL0     C63226   9.224   8.370   1.920  0.0368 -0.7770 -0.1045
  459MOL0     C63227   9.332   8.470   1.966 -0.0433  0.3566 -0.1702
  459MOL0     O63228   9.435   8.397   2.026  0.5536  0.1994 -0.6269
  459MOL0     C63229   9.564   8.446   2.016 -0.8165  0.0481  0.2685
  459MOL0     C63230   9.597   8.581   2.013  1.0841  0.5186 -0.3879
  459MOL0     C63231   9.724   8.629   2.007 -0.6893 -0.0437  1.4755
  459MOL0     C63232   9.738   8.782   2.005  0.3408  0.4470 -0.3037
  459MOL0     C63233   9.831   8.538   2.014 -0.0556  0.2744  0.1578
  459MOL0     C63234   9.976   8.580   2.019  0.1944  0.3229  0.0546
  459MOL0     O63235  10.070   8.477   2.038 -0.1979 -1.6052 -0.2855
  459MOL0     C63236  10.203   8.494   2.038  0.6497  0.6427  0.7907
  459MOL0     C63237  10.269   8.487   1.912 -0.3701 -1.1933 -0.0413
  459MOL0     C63238  10.412   8.515   1.915 -0.6102 -0.0889  0.5948
  459MOL0     C63239  10.478   8.533   2.036 -0.3168 -0.1987  0.0504
  459MOL0     O63240  10.611   8.553   2.032 -0.0322  0.5378  1.1426
  459MOL0     C63241  10.646   8.681   1.990 -0.0364 -0.3254 -0.3032
  459MOL0     C63242  10.794   8.694   1.971 -0.6990 -0.4799 -0.0784
  459MOL0     C63243  10.841   8.823   1.907  0.7413 -0.1269 -0.3479
  459MOL0     C63244  10.809   8.954   1.976 -0.1135  0.5716  0.6570
  459MOL0     C63245  10.871   9.079   1.914 -0.7061 -0.2669 -0.5369
  459MOL0     C63246  11.027   9.081   1.890  1.3722  0.5992  0.3561
  459MOL0     C63247  11.091   9.066   2.024  0.4413  0.3663 -0.6949
  459MOL0     C63248  11.241   9.090   2.008  1.1657 -0.7378 -0.7228
  459MOL0    Cl63249  11.280   9.264   1.976  0.4078 -0.2589  0.6019
  459MOL0     C63250  10.406   8.535   2.156 -0.3542 -0.3315  0.6900
  459MOL0     C63251  10.273   8.513   2.161 -0.1867 -0.9781 -0.5605
  459MOL0     O63252   9.996   8.700   2.026  0.2004  0.0278 -0.0809
  459MOL0     C63253   9.802   8.399   2.008  0.0491 -1.5526  0.6335
  459MOL0     C63254   9.672   8.352   2.015  0.5124 -0.8303 -0.9729
  459MOL0     N63255   9.001   8.051   2.182  0.0915 -0.1106  0.5897
  459MOL0     N63256   8.905   8.008   2.257 -0.0302  0.1452  0.8280
  459MOL0     C63257   8.169   7.062   1.781 -0.4437 -0.4320 -0.5988
  459MOL0     C63258   8.082   6.959   1.796 -0.9022  0.5899  0.1637
  459MOL0     C63259   7.702   6.757   1.960  0.6935 -0.2905  0.1105
  459MOL0     C63260   7.626   6.764   2.082  1.4727 -0.4223 -0.4842
  459MOL0     C63261   7.518   6.670   2.099  0.3536  0.0648 -0.6091
  459MOL0     C63262   7.488   6.569   2.004 -0.1229  0.1790  0.0351
  459MOL0     O63263   7.386   6.478   2.028 -0.0890 -0.1237  0.0968
  459MOL0     C63264   7.291   6.441   1.925 -0.0225  0.2547  0.2683
  459MOL0     C63265   7.216   6.313   1.964 -0.9044 -0.1382  0.5771
  459MOL0     C63266   7.293   6.190   1.914  0.0840  0.0325  0.2893
  459MOL0     C63267   7.241   6.057   1.967  0.3552  0.0075  0.3202
  459MOL0     C63268   7.268   5.938   1.883  0.2175 -0.0296 -0.6645
  459MOL0     C63269   7.262   5.848   1.804 -0.2045  0.0080  0.0560
  459MOL0     C63270   7.574   6.560   1.896 -0.7252 -0.3637 -0.3272
  459MOL0     C63271   7.677   6.651   1.870 -0.1793  0.4493  0.1417
  459MOL0     C63272   7.757   6.609   1.747  1.5094 -0.0907  0.9607
  459MOL0     H63273   7.795   7.146   1.811 -0.5311 -0.3635 -0.2995
  459MOL0     H63274   7.951   7.328   1.801  0.1097  0.1018  0.8171
  459MOL0     H63275   8.119   7.404   1.948 -3.1296 -0.2426 -3.3520
  459MOL0     H63276   8.174   7.486   1.802  1.6898  0.4675  0.5633
  459MOL0     H63277   8.354   7.399   2.020 -2.5186 -1.3336 -0.0839
  459MOL0     H63278   8.410   7.462   1.858  0.5939 -2.2859  0.5473
  459MOL0     H63279   8.304   7.681   1.884  0.1398  2.1714  1.1335
  459MOL0     H63280   8.241   7.639   2.041 -1.1179  3.9235 -2.7171
  459MOL0     H63281   8.481   7.648   2.137 -2.4012  1.7703  1.4705
  459MOL0     H63282   8.542   7.658   1.966  1.0530 -2.4880  1.5029
  459MOL0     H63283   8.366   7.850   2.103 -0.7394 -0.3890  0.0911
  459MOL0     H63284   8.463   7.871   1.938  3.2966 -1.6220 -0.3892
  459MOL0     H63285   8.617   7.826   2.196 -1.2245 -0.3651  0.6577
  459MOL0     H63286   8.660   7.916   2.050  0.2707 -1.2159  0.1652
  459MOL0     H63287   8.449   8.025   2.234 -1.4209 -0.1342 -3.0633
  459MOL0     H63288   8.530   8.095   2.105 -0.4266 -2.1124 -1.6368
  459MOL0     H63289   8.629   8.174   2.327 -2.8282  0.7732 -0.4168
  459MOL0     H63290   8.670   8.005   2.361  2.1531  3.1979  1.5730
  459MOL0     H63291   8.769   8.258   2.086 -0.9208 -1.5640 -1.2218
  459MOL0     H63292   8.969   8.279   1.920  1.0864  3.4290  1.7114
  459MOL0     H63293   9.070   8.146   1.921  2.2110  0.2953  0.1320
  459MOL0     H63294   9.095   8.395   2.097  0.5727  0.1509  1.8175
  459MOL0     H63295   9.211   8.269   2.106 -2.7570 -0.5590  1.2107
  459MOL0     H63296   9.266   8.289   1.860 -0.2647 -0.0928 -1.2702
  459MOL0     H63297   9.165   8.420   1.842  4.4365  1.7994 -2.1386
  459MOL0     H63298   9.372   8.526   1.881  0.7918  1.8717  1.1626
  459MOL0     H63299   9.297   8.548   2.035  0.5397 -0.8692  1.6070
  459MOL0     H63300   9.516   8.650   2.032  1.5297  1.5875 -2.1729
  459MOL0     H63301   9.647   8.835   2.033  1.4457  1.3408  1.8243
  459MOL0     H63302   9.767   8.832   1.912 -1.2314  2.4926  0.2327
  459MOL0     H63303   9.808   8.817   2.081 -0.2340 -1.2786  1.0775
  459MOL0     H63304  10.211   8.448   1.829 -0.9802  2.7996 -1.7077
  459MOL0     H63305  10.465   8.534   1.822 -1.0362 -2.3644 -0.1711
  459MOL0     H63306  10.595   8.698   1.895 -0.5867 -0.5247 -0.0448
  459MOL0     H63307  10.609   8.754   2.063  1.4349  1.0647 -0.8932
  459MOL0     H63308  10.830   8.670   2.072 -1.2138 -0.6678  0.0659
  459MOL0     H63309  10.826   8.609   1.910 -0.7428 -0.1622 -0.5462
  459MOL0     H63310  10.808   8.829   1.802  1.1056 -0.2102 -0.4696
  459MOL0     H63311  10.949   8.810   1.915  0.5677 -1.0256  0.7523
  459MOL0     H63312  10.840   8.947   2.081  0.7482  4.1797  0.7706
  459MOL0     H63313  10.700   8.960   1.981 -0.2080 -1.3228  3.2489
  459MOL0     H63314  10.808   9.091   1.826 -1.0398 -0.9119 -0.3944
  459MOL0     H63315  10.855   9.170   1.971 -1.0459 -1.0627  0.6697
  459MOL0     H63316  11.059   9.172   1.838  2.5727  0.6281  1.0920
  459MOL0     H63317  11.050   8.991   1.834 -3.4013 -0.1187 -0.9003
  459MOL0     H63318  11.072   8.964   2.061 -1.0838  0.3183 -1.4904
  459MOL0     H63319  11.043   9.129   2.099  1.0771  0.3245 -0.2476
  459MOL0     H63320  11.293   9.019   1.944 -1.6729 -2.3426 -1.4221
  459MOL0     H63321  11.276   9.070   2.110 -0.7419 -2.1563 -0.2818
  459MOL0     H63322  10.458   8.564   2.247 -1.7669  4.3517  0.2733
  459MOL0     H63323  10.212   8.517   2.252 -0.5370  1.9248 -0.8309
  459MOL0     H63324   9.886   8.330   2.005  1.1212 -0.2978  0.8755
  459MOL0     H63325   9.649   8.247   2.027 -0.6781 -0.2296  4.6441
  459MOL0     H63326   8.272   7.028   1.775 -1.1025 -2.4931 -1.0097
  459MOL0     H63327   8.121   6.859   1.781  0.0850  0.6789  1.8912
  459MOL0     H63328   7.639   6.832   2.165  0.9057 -1.1915  0.2596
  459MOL0     H63329   7.456   6.665   2.188 -0.6843 -0.0477 -1.3155
  459MOL0     H63330   7.211   6.516   1.928 -1.4410 -1.1765  0.0525
  459MOL0     H63331   7.330   6.424   1.824  0.1689 -1.5285  0.6103
  459MOL0     H63332   7.118   6.301   1.916 -0.9251  1.2214  0.2308
  459MOL0     H63333   7.199   6.310   2.072  0.2645  2.7378  0.9375
  459MOL0     H63334   7.269   6.183   1.808  0.2196 -1.8257  0.3424
  459MOL0     H63335   7.401   6.202   1.925  0.1984  0.5815 -1.3095
  459MOL0     H63336   7.132   6.058   1.981  0.1608 -0.5833 -1.0497
  459MOL0     H63337   7.284   6.038   2.066  0.1719  0.5202  0.4989
  459MOL0     H63338   7.256   5.770   1.730 -0.3524  2.5161 -2.8058
  459MOL0     H63339   7.555   6.479   1.826  0.8143 -0.4004 -0.7413
  459MOL0     H63340   7.813   6.519   1.775 -0.3556 -1.5095  0.3112
  459MOL0     H63341   7.684   6.589   1.668 -1.1809  1.2540  2.9502
  459MOL0     H63342   7.824   6.682   1.701  0.3093 -0.9313 -2.4670
  460MOL0     O63343   4.724   9.506   6.408 -0.2101 -0.0034 -0.0641
  460MOL0     C63344   4.730   9.619   6.362 -0.5405  0.4500  0.4793
  460MOL0     O63345   4.848   9.684   6.330  0.2237 -0.2493 -0.7313
  460MOL0     C63346   4.973   9.610   6.334  0.1580  0.2530  0.6384
  460MOL0     C63347   4.987   9.487   6.274  0.5925  0.0848  0.2952
  460MOL0     C63348   5.110   9.423   6.271  0.8011 -0.2334 -0.5153
  460MOL0     C63349   5.223   9.482   6.333 -0.2880 -0.0879  0.3612
  460MOL0     O63350   5.347   9.424   6.327  0.5393  0.1660 -0.4091
  460MOL0     C63351   5.351   9.288   6.294  0.3152  0.2053  0.7829
  460MOL0     C63352   5.496   9.254   6.313  0.4723 -0.3320  0.5401
  460MOL0     C63353   5.594   9.320   6.212  0.1348  0.0877  0.3364
  460MOL0     C63354   5.734   9.270   6.246 -0.3041 -0.3218 -1.0648
  460MOL0     C63355   5.823   9.261   6.114 -0.7877  0.1281  0.2029
  460MOL0     C63356   5.968   9.206   6.134  1.4067 -0.2962  0.0324
  460MOL0     C63357   6.051   9.271   6.251  0.6779 -0.0575 -0.6226
  460MOL0     C63358   6.195   9.225   6.247 -0.5514 -0.7328  0.5350
  460MOL0     N63359   6.270   9.263   6.360 -0.9761 -0.3167 -0.0472
  460MOL0     C63360   6.256   9.194   6.484 -0.5412  0.0220  0.1425
  460MOL0     C63361   6.384   9.195   6.533  0.1858  0.1125 -1.0665
  460MOL0     C63362   6.441   9.117   6.644  0.0732 -0.0895  0.1447
  460MOL0     C63363   6.549   9.191   6.717 -0.0795  0.3336 -0.0579
  460MOL0     C63364   6.598   9.119   6.842 -0.2621 -0.5613  0.4895
  460MOL0     C63365   6.715   9.205   6.904 -0.0261 -0.0386  0.4909
  460MOL0     O63366   6.822   9.227   6.812  0.5649 -0.7728  0.1918
  460MOL0     C63367   6.941   9.256   6.868 -0.4396 -0.6251  0.3580
  460MOL0     C63368   7.048   9.240   6.782 -0.7340  1.4847  0.8584
  460MOL0     C63369   7.184   9.248   6.822  0.0851 -0.1175  0.0769
  460MOL0     C63370   7.281   9.199   6.722  0.2071  0.1148 -0.3681
  460MOL0     C63371   7.212   9.277   6.960  0.2369 -0.8470 -0.2284
  460MOL0     C63372   7.351   9.314   7.013  0.6244 -0.4186  0.6647
  460MOL0     O63373   7.465   9.273   6.947  0.3223  0.0939  0.1572
  460MOL0     C63374   7.589   9.297   6.995 -0.9634  0.6531 -0.1696
  460MOL0     C63375   7.691   9.273   6.892  0.7066  0.5691 -0.1654
  460MOL0     C63376   7.827   9.273   6.932  0.2295  0.7181  0.0830
  460MOL0     C63377   7.876   9.337   7.052 -0.3594 -0.9604 -0.3515
  460MOL0     O63378   8.010   9.388   7.079  0.0086  0.0152  0.2927
  460MOL0     C63379   8.109   9.314   7.005  0.4223  0.1337  0.4032
  460MOL0     C63380   8.249   9.330   7.063  0.3021  0.4010 -0.1327
  460MOL0     C63381   8.306   9.463   7.008  0.0331 -0.5272  0.5451
  460MOL0     C63382   8.459   9.466   7.039  0.3692 -0.0411 -0.8379
  460MOL0     C63383   8.532   9.593   6.994  0.1447  0.0483 -0.3083
  460MOL0     C63384   8.681   9.567   7.012 -0.5092 -0.1201 -0.0736
  460MOL0     C63385   8.745   9.706   6.999  0.3885  0.1016 -0.0381
  460MOL0     C63386   8.898   9.699   6.979  0.8979  0.3311 -0.4574
  460MOL0    Cl63387   8.938   9.861   6.921 -0.0501 -0.3239  0.5194
  460MOL0     C63388   7.772   9.380   7.136 -0.1266 -0.9071 -0.4983
  460MOL0     C63389   7.640   9.352   7.119 -0.5261  0.5425 -0.1015
  460MOL0     O63390   7.350   9.374   7.125  0.1240 -0.1039  0.4737
  460MOL0     C63391   7.099   9.307   7.043  1.1204  0.2802  0.0526
  460MOL0     C63392   6.964   9.309   6.996 -0.0946  0.2336 -1.2070
  460MOL0     N63393   6.452   9.282   6.457 -0.7274  0.2530  0.2699
  460MOL0     N63394   6.385   9.331   6.364 -0.1326  0.0654 -0.1937
  460MOL0     C63395   5.208   9.604   6.402  0.7826 -0.6180 -0.3682
  460MOL0     C63396   5.080   9.668   6.400  0.0549  0.2756  0.4804
  460MOL0     C63397   4.612   9.704   6.363  0.1237  0.1793  0.8103
  460MOL0     C63398   4.632   9.847   6.359  0.0267  1.1375  0.2340
  460MOL0     C63399   4.523   9.935   6.364 -0.9755  0.8188  0.4195
  460MOL0     C63400   4.398   9.884   6.387  0.1426 -0.0191 -0.0752
  460MOL0     O63401   4.293   9.966   6.406  0.1149  0.3040 -0.4632
  460MOL0     C63402   4.169   9.917   6.457 -0.2266  0.1769 -0.5214
  460MOL0     C63403   4.082  10.037   6.492 -0.0529  0.5658  1.2748
  460MOL0     C63404   4.002  10.097   6.378  0.7929  0.5013 -0.7856
  460MOL0     C63405   3.927  10.216   6.431 -0.0651 -0.6160 -0.0488
  460MOL0     C63406   3.882  10.302   6.322  0.4162 -0.6024  0.4893
  460MOL0     C63407   3.820  10.371   6.244 -0.9025  0.1205  0.2732
  460MOL0     C63408   4.368   9.748   6.376 -0.1780  0.1949  0.2270
  460MOL0     C63409   4.476   9.664   6.357  0.1911 -0.0832  0.2112
  460MOL0     C63410   4.426   9.514   6.356 -0.7799  0.5586 -0.3663
  460MOL0     H63411   4.904   9.447   6.217  0.8736  0.6632 -0.5540
  460MOL0     H63412   5.109   9.329   6.215 -1.4779  0.5443 -1.9338
  460MOL0     H63413   5.328   9.260   6.190  2.5707 -0.4695  0.4166
  460MOL0     H63414   5.295   9.217   6.354 -0.2953 -0.0468 -0.0595
  460MOL0     H63415   5.522   9.280   6.416 -0.5984 -0.0354  0.7430
  460MOL0     H63416   5.506   9.145   6.305  2.5413 -0.1262 -0.3894
  460MOL0     H63417   5.570   9.298   6.107 -0.9245  0.7551  0.4200
  460MOL0     H63418   5.583   9.427   6.233 -3.0194 -0.3972  1.8743
  460MOL0     H63419   5.788   9.344   6.306  1.4402 -0.1056 -2.7888
  460MOL0     H63420   5.724   9.176   6.300  1.0195 -0.9535 -1.8469
  460MOL0     H63421   5.829   9.354   6.058 -0.6478 -1.4926 -2.6846
  460MOL0     H63422   5.765   9.199   6.045 -1.7242  0.8805  0.2935
  460MOL0     H63423   5.964   9.100   6.163  2.3398  0.3622  2.9477
  460MOL0     H63424   6.024   9.213   6.040  0.3990  1.6366 -0.4796
  460MOL0     H63425   5.998   9.253   6.345 -2.1368 -0.1859 -2.1082
  460MOL0     H63426   6.058   9.379   6.235 -0.5437 -0.1351 -1.8984
  460MOL0     H63427   6.219   9.119   6.233  1.8787 -0.4528  2.0498
  460MOL0     H63428   6.233   9.277   6.159 -1.4037  1.0147  1.1561
  460MOL0     H63429   6.174   9.135   6.523 -1.6255  0.0965 -1.8787
  460MOL0     H63430   6.469   9.018   6.606 -1.9853 -0.3590 -0.8456
  460MOL0     H63431   6.357   9.087   6.707 -0.1513 -2.7668 -1.2782
  460MOL0     H63432   6.634   9.193   6.648  0.4827  0.7082  0.6279
  460MOL0     H63433   6.518   9.294   6.740 -2.6668 -0.2543 -0.6257
  460MOL0     H63434   6.524   9.113   6.923  1.2958  0.5506  2.1005
  460MOL0     H63435   6.635   9.019   6.819 -1.4399 -0.4832 -2.0733
  460MOL0     H63436   6.673   9.301   6.937 -1.9670 -0.3825 -0.8409
  460MOL0     H63437   6.754   9.156   6.994 -1.0556 -0.2120  0.8609
  460MOL0     H63438   7.027   9.212   6.680 -1.4541  2.0547  0.8432
  460MOL0     H63439   7.343   9.285   6.693 -1.2330  1.3291 -0.0095
  460MOL0     H63440   7.239   9.160   6.628 -2.9500 -0.1637  1.0217
  460MOL0     H63441   7.353   9.123   6.752  0.0049 -0.8669 -2.2525
  460MOL0     H63442   7.660   9.241   6.793 -0.9938 -0.4675  0.6460
  460MOL0     H63443   7.908   9.253   6.863  2.1488  2.0562  1.8355
  460MOL0     H63444   8.093   9.207   7.021  0.1941  0.2432  0.9659
  460MOL0     H63445   8.107   9.344   6.900 -0.3951  0.2176  0.4351
  460MOL0     H63446   8.258   9.331   7.172  0.8572  0.1162 -0.1721
  460MOL0     H63447   8.317   9.255   7.022 -0.4762 -0.3184 -0.1387
  460MOL0     H63448   8.262   9.555   7.049  2.5120  1.4908 -1.0194
  460MOL0     H63449   8.299   9.479   6.900  0.8770  2.2708  0.8225
  460MOL0     H63450   8.505   9.375   7.001 -1.3473 -1.8330  1.0817
  460MOL0     H63451   8.482   9.466   7.146  0.8999  1.3651 -0.9258
  460MOL0     H63452   8.507   9.614   6.889  0.4242 -1.8223 -0.7720
  460MOL0     H63453   8.507   9.683   7.050  0.4844  0.8291 -1.3600
  460MOL0     H63454   8.727   9.497   6.942 -0.0295 -0.5182  0.6209
  460MOL0     H63455   8.718   9.532   7.109  1.2496 -0.0826 -0.7094
  460MOL0     H63456   8.713   9.764   7.086 -0.6910  0.0145 -0.3587
  460MOL0     H63457   8.702   9.733   6.902  0.3885  1.2084  0.2572
  460MOL0     H63458   8.926   9.622   6.906 -0.5628  0.9947 -1.7799
  460MOL0     H63459   8.945   9.691   7.077 -0.8630  2.7954  0.6847
  460MOL0     H63460   7.788   9.429   7.231 -4.2335  0.5483 -0.3638
  460MOL0     H63461   7.575   9.380   7.201  1.0115  2.5347  0.5198
  460MOL0     H63462   7.123   9.328   7.146  3.2118 -1.3842 -0.0168
  460MOL0     H63463   6.883   9.335   7.064  0.9735 -2.9859  1.5737
  460MOL0     H63464   5.282   9.660   6.458 -0.1082 -1.2206  1.4819
  460MOL0     H63465   5.066   9.760   6.455  1.8106 -0.7522  2.8373
  460MOL0     H63466   4.734   9.884   6.355  0.6128 -0.4570 -0.3325
  460MOL0     H63467   4.547  10.040   6.381 -1.2760  0.6654  1.8840
  460MOL0     H63468   4.111   9.852   6.392 -2.9018 -1.3606  3.1046
  460MOL0     H63469   4.181   9.863   6.551 -1.4583  1.3101  0.3210
  460MOL0     H63470   4.157  10.111   6.520  2.1162 -2.1167  3.0052
  460MOL0     H63471   4.013  10.018   6.574 -0.3430  1.2866  1.2108
  460MOL0     H63472   4.063  10.126   6.292  0.4511  1.9348 -0.5826
  460MOL0     H63473   3.918  10.036   6.344 -1.4049  1.2215  2.7828
  460MOL0     H63474   3.996  10.275   6.492  0.0587  0.3112 -1.0603
  460MOL0     H63475   3.837  10.195   6.491 -0.6696  3.8055  0.9238
  460MOL0     H63476   3.779  10.434   6.168 -1.7375 -0.9353 -0.1721
  460MOL0     H63477   4.266   9.713   6.379 -0.0277 -0.3350 -0.4754
  460MOL0     H63478   4.340   9.498   6.421 -1.1650  0.8313 -0.8052
  460MOL0     H63479   4.405   9.482   6.253  0.3873 -0.2153 -0.3904
  460MOL0     H63480   4.492   9.434   6.391 -1.0579  0.4367 -0.1172
  461MOL0     O63481   8.353   0.476   5.780  0.8287 -0.1227  0.2827
  461MOL0     C63482   8.335   0.534   5.675  0.0492  0.0518  1.0049
  461MOL0     O63483   8.425   0.545   5.563 -0.0368  0.1018  0.4006
  461MOL0     C63484   8.563   0.525   5.587  0.0838 -0.3608  0.7934
  461MOL0     C63485   8.645   0.447   5.505 -0.3230 -0.0480 -0.1446
  461MOL0     C63486   8.778   0.422   5.518  0.2155 -0.5475 -0.0177
  461MOL0     C63487   8.844   0.492   5.631 -0.5480  0.2750 -0.2112
  461MOL0     O63488   8.981   0.482   5.668 -0.4727 -0.4272 -0.1217
  461MOL0     C63489   9.056   0.400   5.578 -1.5069  0.3062 -0.1624
  461MOL0     C63490   9.190   0.412   5.654 -0.2479  0.4315  0.4354
  461MOL0     C63491   9.312   0.349   5.588 -0.3810  0.0457  0.1698
  461MOL0     C63492   9.442   0.349   5.672 -0.1733  0.2216  0.9994
  461MOL0     C63493   9.445   0.241   5.776  0.0398  0.4229  0.1281
  461MOL0     C63494   9.569   0.233   5.861 -0.5736 -0.0110  0.5487
  461MOL0     C63495   9.565   0.351   5.968 -0.3518 -0.5762 -0.1634
  461MOL0     C63496   9.692   0.346   6.061  0.0224  0.8731 -0.5251
  461MOL0     N63497   9.813   0.377   5.980  0.2167  0.1899  0.9594
  461MOL0     C63498   9.887   0.498   5.988  0.3354 -0.2502  1.2268
  461MOL0     C63499   9.994   0.470   5.902  0.0501 -0.6499  0.3596
  461MOL0     C63500  10.107   0.558   5.879  0.5554  0.0405 -0.3928
  461MOL0     C63501  10.235   0.479   5.852 -0.7635 -0.2146  0.6635
  461MOL0     C63502  10.335   0.579   5.837 -0.6178  0.0661 -0.3828
  461MOL0     C63503  10.462   0.499   5.803 -0.0187  0.1959  0.6800
  461MOL0     O63504  10.454   0.448   5.665  0.3151 -0.3982 -0.3192
  461MOL0     C63505  10.566   0.393   5.602  0.8915 -0.6181 -1.0158
  461MOL0     C63506  10.575   0.386   5.469 -0.0581 -0.1097  0.5862
  461MOL0     C63507  10.680   0.328   5.394  0.2547 -0.3769  0.8677
  461MOL0     C63508  10.671   0.343   5.242  0.0241  0.8885 -0.1071
  461MOL0     C63509  10.785   0.274   5.467 -1.0034  0.5950 -0.2831
  461MOL0     C63510  10.901   0.209   5.403  0.0065 -0.1231  0.9115
  461MOL0     O63511  10.949   0.095   5.454 -0.9739  0.6172 -0.2407
  461MOL0     C63512  11.082   0.052   5.450  0.5223  0.1592  0.0106
  461MOL0     C63513  11.185   0.130   5.396  0.2193  0.8248  0.7603
  461MOL0     C63514  11.314   0.090   5.382  0.3620 -0.0424 -0.6035
  461MOL0     C63515  11.351  -0.041   5.432  0.2726  0.1533  0.4858
  461MOL0     O63516  11.484  -0.082   5.434  0.8177  0.7033  0.0922
  461MOL0     C63517  11.511  -0.226   5.452 -0.6363 -0.1803 -0.7116
  461MOL0     C63518  11.660  -0.265   5.435 -0.1261 -0.9052 -0.3188
  461MOL0     C63519  11.712  -0.230   5.296 -0.4195 -0.1198 -0.4822
  461MOL0     C63520  11.853  -0.292   5.293 -0.1440 -0.7058 -0.4723
  461MOL0     C63521  11.924  -0.234   5.168  1.0432  0.5906  0.4967
  461MOL0     C63522  12.063  -0.289   5.134  0.4863 -0.4393  0.5449
  461MOL0     C63523  12.122  -0.233   4.996  0.5347  0.9424 -1.2341
  461MOL0     C63524  12.101  -0.082   4.977  0.7190  0.1862 -0.2091
  461MOL0    Cl63525  12.221   0.009   5.085  0.3707  0.2260 -0.1982
  461MOL0     C63526  11.246  -0.121   5.476  0.7154  0.2345 -0.5377
  461MOL0     C63527  11.114  -0.081   5.486 -0.7900 -0.2021 -0.3710
  461MOL0     O63528  10.942   0.262   5.299  0.3829 -0.4313 -0.6087
  461MOL0     C63529  10.784   0.273   5.609  0.0613  0.5475  1.2228
  461MOL0     C63530  10.670   0.335   5.668 -0.3130 -0.2778  0.1788
  461MOL0     N63531   9.982   0.339   5.850 -0.2558  0.3499 -0.1994
  461MOL0     N63532   9.866   0.291   5.893  0.2232 -0.4217 -0.2701
  461MOL0     C63533   8.766   0.570   5.718  0.3420 -0.6785 -0.2390
  461MOL0     C63534   8.627   0.588   5.695 -0.4115 -0.0708 -1.1692
  461MOL0     C63535   8.205   0.598   5.656 -0.2291 -0.4314 -0.0969
  461MOL0     C63536   8.190   0.694   5.554  0.0500 -0.4007 -0.8144
  461MOL0     C63537   8.063   0.759   5.530  0.7862  0.1164 -0.0646
  461MOL0     C63538   7.955   0.747   5.617 -0.3472 -0.0071 -0.2220
  461MOL0     O63539   7.831   0.815   5.594  0.7292  0.3144  0.4891
  461MOL0     C63540   7.716   0.801   5.690  0.8600  0.2553  0.0954
  461MOL0     C63541   7.615   0.912   5.654  1.0670 -0.4094  0.2142
  461MOL0     C63542   7.471   0.860   5.661  0.4223 -0.0438  0.4132
  461MOL0     C63543   7.375   0.976   5.667  0.5496 -0.0519 -0.2243
  461MOL0     C63544   7.338   1.011   5.807  0.9211  0.6802  1.5967
  461MOL0     C63545   7.298   1.039   5.917 -0.1409 -1.1050  0.0549
  461MOL0     C63546   7.966   0.646   5.712  0.7035  0.3157 -0.0660
  461MOL0     C63547   8.086   0.573   5.734 -1.0480 -0.1025  1.0578
  461MOL0     C63548   8.077   0.461   5.831 -0.0970 -0.1733  0.1708
  461MOL0     H63549   8.593   0.410   5.417  0.3084  0.0715 -0.5794
  461MOL0     H63550   8.836   0.353   5.457  0.8179  0.3494 -0.4803
  461MOL0     H63551   9.064   0.451   5.482  1.0106  0.5769  0.1165
  461MOL0     H63552   9.021   0.297   5.571  1.3484 -0.7323 -0.2712
  461MOL0     H63553   9.212   0.519   5.657 -1.4538  0.6840  0.8820
  461MOL0     H63554   9.179   0.367   5.753  1.2042  0.8610  0.8161
  461MOL0     H63555   9.284   0.245   5.572  0.4669 -0.5239  2.1081
  461MOL0     H63556   9.329   0.400   5.492  2.6969  0.9474  1.0626
  461MOL0     H63557   9.522   0.330   5.600 -0.4892  1.0983  0.3931
  461MOL0     H63558   9.456   0.442   5.728 -0.7745  0.4879  0.7203
  461MOL0     H63559   9.445   0.152   5.712  2.4426  1.4868 -1.4890
  461MOL0     H63560   9.365   0.248   5.850  0.7873  4.4651  0.7928
  461MOL0     H63561   9.569   0.129   5.896 -1.0947 -0.0532  0.4243
  461MOL0     H63562   9.648   0.248   5.786 -2.4371 -1.6552 -1.8988
  461MOL0     H63563   9.474   0.352   6.028  0.6238  3.1407  1.5132
  461MOL0     H63564   9.562   0.443   5.909 -2.1296 -1.4338 -1.5050
  461MOL0     H63565   9.678   0.420   6.140 -1.9668  0.8724 -0.8233
  461MOL0     H63566   9.697   0.244   6.101  1.3872  0.1235 -2.4282
  461MOL0     H63567   9.868   0.595   6.033 -1.0295 -0.4395  1.1227
  461MOL0     H63568  10.118   0.617   5.971 -1.3643  0.3399 -0.3124
  461MOL0     H63569  10.078   0.617   5.792 -0.0756 -1.0570 -0.9522
  461MOL0     H63570  10.251   0.415   5.939  0.1971 -0.8832  0.0263
  461MOL0     H63571  10.223   0.415   5.764  0.9908 -0.9891  0.9476
  461MOL0     H63572  10.317   0.654   5.760  2.6375  0.8393 -0.5516
  461MOL0     H63573  10.345   0.636   5.930  0.9067 -1.5071  0.4777
  461MOL0     H63574  10.545   0.571   5.805 -0.4634  0.7129  2.7735
  461MOL0     H63575  10.472   0.422   5.879  1.9153 -1.0966 -0.7651
  461MOL0     H63576  10.483   0.416   5.420  0.1060  0.5760  0.6794
  461MOL0     H63577  10.738   0.420   5.203  0.6630  0.4474  0.1164
  461MOL0     H63578  10.573   0.376   5.205 -1.6085 -0.7104  2.4705
  461MOL0     H63579  10.686   0.243   5.201 -1.5664  1.0484 -1.1916
  461MOL0     H63580  11.159   0.233   5.373 -1.7987  0.0846 -0.5882
  461MOL0     H63581  11.387   0.164   5.352  2.6962 -2.9473 -2.8081
  461MOL0     H63582  11.476  -0.267   5.547  0.7733  0.9588  0.3414
  461MOL0     H63583  11.458  -0.269   5.366 -3.1235 -1.0168  1.1212
  461MOL0     H63584  11.717  -0.210   5.511  0.8771 -1.9224 -0.3146
  461MOL0     H63585  11.670  -0.372   5.455 -1.1601 -1.1035 -0.8044
  461MOL0     H63586  11.704  -0.123   5.275 -1.3692 -0.2381 -0.7701
  461MOL0     H63587  11.654  -0.290   5.225 -1.4807  0.4034 -0.0752
  461MOL0     H63588  11.847  -0.401   5.285  0.6032 -0.6630 -1.8107
  461MOL0     H63589  11.910  -0.281   5.386  0.8117 -1.1436 -0.9967
  461MOL0     H63590  11.868  -0.244   5.075  2.6365 -2.0040 -0.2834
  461MOL0     H63591  11.933  -0.126   5.184  0.6103  0.8966 -1.0675
  461MOL0     H63592  12.050  -0.398   5.128  0.2185 -0.4148  0.6691
  461MOL0     H63593  12.123  -0.265   5.222 -2.2331  1.8709  1.8997
  461MOL0     H63594  12.066  -0.286   4.919 -0.9895 -1.5548  1.3826
  461MOL0     H63595  12.228  -0.258   4.986  0.5061  1.2406 -2.4421
  461MOL0     H63596  11.998  -0.049   4.992  0.8218  0.4276 -0.0320
  461MOL0     H63597  12.130  -0.032   4.883  1.8029  1.2532  0.6533
  461MOL0     H63598  11.258  -0.224   5.509 -0.0292  0.6489  1.0943
  461MOL0     H63599  11.042  -0.157   5.516 -0.1731 -0.9855 -0.8440
  461MOL0     H63600  10.864   0.227   5.666 -1.0931  0.6259  3.0066
  461MOL0     H63601  10.676   0.357   5.774 -0.4871  0.3029  0.0710
  461MOL0     H63602   8.816   0.626   5.797 -1.0738  1.1701 -0.5891
  461MOL0     H63603   8.579   0.649   5.771 -2.4523  1.8065 -3.7991
  461MOL0     H63604   8.275   0.713   5.489 -0.2922  1.1746 -0.8392
  461MOL0     H63605   8.053   0.834   5.452 -0.0231 -0.5046 -0.5747
  461MOL0     H63606   7.664   0.705   5.690 -3.6120  2.4409 -0.2197
  461MOL0     H63607   7.749   0.821   5.793 -1.2458  1.2872  0.6230
  461MOL0     H63608   7.637   0.951   5.554  0.8165 -1.0884 -0.1087
  461MOL0     H63609   7.622   0.995   5.725  1.7871  0.1175 -0.4567
  461MOL0     H63610   7.451   0.806   5.568  0.5641 -0.7873  0.8065
  461MOL0     H63611   7.461   0.800   5.751 -1.2822 -1.1438 -0.4627
  461MOL0     H63612   7.284   0.964   5.608 -0.1180  1.5824  0.4249
  461MOL0     H63613   7.430   1.064   5.632 -0.8800  0.1199 -2.2130
  461MOL0     H63614   7.275   1.066   6.017 -0.8686  1.1500 -0.6624
  461MOL0     H63615   7.884   0.615   5.776  1.6761  0.7464  1.4532
  461MOL0     H63616   8.148   0.481   5.912  0.4018  1.3454 -0.5906
  461MOL0     H63617   7.977   0.442   5.869 -0.0550 -1.3826 -0.2848
  461MOL0     H63618   8.099   0.367   5.780  0.1973  1.5304 -3.1413
  462MOL0     O63619   8.877   5.752   7.030 -0.5356 -0.1140 -0.1850
  462MOL0     C63620   8.785   5.677   7.027  0.0369 -0.0834  1.0567
  462MOL0     O63621   8.786   5.538   7.068  0.3764 -0.5727 -0.9194
  462MOL0     C63622   8.910   5.484   7.103 -0.5715  0.5429 -0.0479
  462MOL0     C63623   8.980   5.522   7.213 -0.3746  0.1487 -0.4420
  462MOL0     C63624   9.083   5.451   7.267  0.2498 -0.7259 -0.7150
  462MOL0     C63625   9.117   5.331   7.203 -0.1328 -0.3547  0.5066
  462MOL0     O63626   9.204   5.242   7.256 -0.5639 -0.7773 -0.2617
  462MOL0     C63627   9.147   5.182   7.374  0.4854  0.2690  0.4706
  462MOL0     C63628   9.226   5.224   7.497  1.1093 -0.3499  0.1859
  462MOL0     C63629   9.356   5.146   7.508  0.2005  0.3755 -0.3313
  462MOL0     C63630   9.472   5.231   7.524 -0.0624  0.2536  0.4930
  462MOL0     C63631   9.505   5.312   7.391  0.4204 -0.0879 -0.7086
  462MOL0     C63632   9.639   5.386   7.394 -0.4638 -0.1582 -0.4834
  462MOL0     C63633   9.669   5.469   7.266  0.1747  0.2401  0.5663
  462MOL0     C63634   9.806   5.547   7.273  0.1694 -0.2807  0.0800
  462MOL0     N63635   9.925   5.475   7.227 -0.8408 -0.4235 -0.4889
  462MOL0     C63636   9.941   5.411   7.108  0.2764 -0.9438 -0.1286
  462MOL0     C63637  10.073   5.383   7.089 -0.2914 -0.5841  0.8102
  462MOL0     C63638  10.130   5.308   6.972  1.0678  0.4399 -0.4573
  462MOL0     C63639  10.261   5.377   6.932 -0.0898  1.1645 -0.7317
  462MOL0     C63640  10.311   5.319   6.793  0.4334  0.6667 -0.7021
  462MOL0     C63641  10.438   5.381   6.746 -0.3947 -0.1851  0.1288
  462MOL0     O63642  10.410   5.524   6.731  0.0058 -0.0172  0.7504
  462MOL0     C63643  10.509   5.599   6.679 -0.7076  0.0956  0.0388
  462MOL0     C63644  10.497   5.737   6.688  0.1656 -1.1380  0.1568
  462MOL0     C63645  10.601   5.833   6.661  0.3263 -0.4248  0.1912
  462MOL0     C63646  10.555   5.977   6.668  0.1173 -0.5600 -0.3711
  462MOL0     C63647  10.728   5.781   6.627 -0.3747  0.6025  0.5751
  462MOL0     C63648  10.847   5.862   6.587  0.8662 -0.4764  1.0885
  462MOL0     O63649  10.951   5.799   6.520  0.4176  0.1207 -0.3119
  462MOL0     C63650  11.063   5.866   6.467  1.0810 -0.2527  0.1640
  462MOL0     C63651  11.133   5.970   6.535 -0.4993  0.2788  0.2113
  462MOL0     C63652  11.245   6.032   6.467  0.0903 -0.6271  0.4725
  462MOL0     C63653  11.305   5.974   6.352  0.0087 -0.0505 -0.2173
  462MOL0     O63654  11.405   6.036   6.287 -0.2100  0.0831 -0.3063
  462MOL0     C63655  11.493   5.962   6.204  1.1311  0.5665  0.3089
  462MOL0     C63656  11.637   6.000   6.216 -0.1591 -1.1882  0.5395
  462MOL0     C63657  11.667   6.079   6.338  0.2320 -0.5237  0.0183
  462MOL0     C63658  11.817   6.069   6.375  0.1101 -0.4943  0.1935
  462MOL0     C63659  11.847   6.156   6.497  0.5020 -0.7954  0.6372
  462MOL0     C63660  11.976   6.115   6.558 -0.2787  0.7571  0.9972
  462MOL0     C63661  12.002   6.196   6.689  1.3014  0.4601 -0.4577
  462MOL0     C63662  12.123   6.137   6.763 -0.3962  0.2307 -0.9150
  462MOL0    Cl63663  12.270   6.135   6.657 -0.3608 -0.0955  0.1361
  462MOL0     C63664  11.245   5.856   6.303 -0.6645  0.3589  0.0317
  462MOL0     C63665  11.127   5.802   6.358  0.0091  0.0913  0.8566
  462MOL0     O63666  10.840   5.979   6.617 -0.1122 -0.3196 -0.2212
  462MOL0     C63667  10.741   5.639   6.611  0.2467 -0.3151 -0.1074
  462MOL0     C63668  10.632   5.548   6.629  0.3391  0.7035 -0.7624
  462MOL0     N63669  10.141   5.435   7.203 -0.8306 -0.1133  0.1808
  462MOL0     N63670  10.051   5.497   7.278 -0.1019 -0.0734 -0.0782
  462MOL0     C63671   9.051   5.291   7.092  0.4875 -0.1884  0.3868
  462MOL0     C63672   8.948   5.365   7.040  0.2961 -0.1024  0.0811
  462MOL0     C63673   8.665   5.736   6.979  0.6527  0.5798 -0.6622
  462MOL0     C63674   8.648   5.783   6.857  0.6434  0.2492  0.9755
  462MOL0     C63675   8.533   5.845   6.810  0.3838  0.4076 -0.0453
  462MOL0     C63676   8.420   5.851   6.890  0.0957  0.4324 -0.2466
  462MOL0     O63677   8.304   5.897   6.823 -0.4654  0.2119  0.8259
  462MOL0     C63678   8.175   5.921   6.888 -0.6333  0.2105  0.0928
  462MOL0     C63679   8.046   5.913   6.802 -0.0829  0.4126  0.0645
  462MOL0     C63680   7.922   5.944   6.882 -0.0349  0.0996 -0.0536
  462MOL0     C63681   7.827   6.036   6.794 -0.3496 -0.1653  0.0064
  462MOL0     C63682   7.694   6.036   6.862  0.1340 -0.2237  0.0141
  462MOL0     C63683   7.575   6.039   6.903 -0.6212 -0.3487  0.4844
  462MOL0     C63684   8.437   5.799   7.023  0.0145  0.1006  0.3940
  462MOL0     C63685   8.559   5.733   7.069 -0.6558 -0.6719 -0.3418
  462MOL0     C63686   8.559   5.690   7.209  0.0844 -0.8590  0.1857
  462MOL0     H63687   8.952   5.610   7.271 -0.4034 -1.1596  1.6305
  462MOL0     H63688   9.125   5.484   7.362 -1.7075 -0.8555  0.2366
  462MOL0     H63689   9.148   5.074   7.361  1.5414  0.1367  1.4800
  462MOL0     H63690   9.041   5.197   7.392 -0.2383 -3.1605 -0.2735
  462MOL0     H63691   9.243   5.332   7.492 -3.1470  0.6493  2.0181
  462MOL0     H63692   9.163   5.204   7.585 -1.7099  1.7858 -1.1801
  462MOL0     H63693   9.355   5.086   7.599  0.7239  2.4782  1.1345
  462MOL0     H63694   9.365   5.092   7.414 -2.7668  3.2145 -2.4854
  462MOL0     H63695   9.475   5.298   7.611  0.2809  1.2627 -0.2717
  462MOL0     H63696   9.558   5.164   7.531  0.5585  1.1527  2.0803
  462MOL0     H63697   9.418   5.377   7.379 -2.1308 -2.6971  1.8195
  462MOL0     H63698   9.503   5.236   7.312 -0.6193 -0.8440  0.0045
  462MOL0     H63699   9.636   5.456   7.477  0.3714 -0.9169  0.2065
  462MOL0     H63700   9.722   5.315   7.405 -0.1079  0.0781 -1.5435
  462MOL0     H63701   9.582   5.535   7.252  0.3812  0.4517  0.2648
  462MOL0     H63702   9.664   5.402   7.180  2.1421  2.5319 -1.4941
  462MOL0     H63703   9.792   5.637   7.213 -2.0680 -1.0478 -0.6550
  462MOL0     H63704   9.829   5.589   7.371  1.1944  0.7857 -0.5972
  462MOL0     H63705   9.866   5.395   7.031  0.0829 -1.4964  0.1698
  462MOL0     H63706  10.065   5.297   6.885  0.7589 -0.2470 -0.1441
  462MOL0     H63707  10.158   5.212   7.015  0.1890  0.6744  0.6748
  462MOL0     H63708  10.252   5.486   6.930 -4.5767  0.9618 -0.8985
  462MOL0     H63709  10.334   5.362   7.011 -1.1785  4.4280  1.1107
  462MOL0     H63710  10.329   5.211   6.803 -1.3358  0.3440 -0.7608
  462MOL0     H63711  10.232   5.326   6.717 -0.7468 -0.9644  0.3043
  462MOL0     H63712  10.515   5.359   6.820  1.2746 -1.7282 -1.9588
  462MOL0     H63713  10.461   5.337   6.649  0.1212  2.1138 -0.8676
  462MOL0     H63714  10.403   5.762   6.735  1.1676 -1.9697  2.8003
  462MOL0     H63715  10.612   6.035   6.741  0.9347 -0.3923 -1.1286
  462MOL0     H63716  10.446   5.986   6.678  0.3824  0.2739  3.3652
  462MOL0     H63717  10.574   6.031   6.575  2.8706  0.3624  0.6146
  462MOL0     H63718  11.092   6.020   6.622 -1.0889  1.3839 -0.6704
  462MOL0     H63719  11.282   6.124   6.510  0.6146 -0.8569  0.5249
  462MOL0     H63720  11.487   5.857   6.233 -1.7966  0.0914 -1.6458
  462MOL0     H63721  11.462   5.965   6.099 -1.0093  0.8138  0.8953
  462MOL0     H63722  11.701   5.911   6.220  2.5784  0.6739  1.0887
  462MOL0     H63723  11.666   6.060   6.129 -1.0594 -2.0326 -0.3569
  462MOL0     H63724  11.597   6.050   6.417 -0.8812 -0.4235 -0.8928
  462MOL0     H63725  11.650   6.186   6.321  1.3052 -0.3088  0.2256
  462MOL0     H63726  11.874   6.107   6.290 -3.1417  1.9154 -1.1447
  462MOL0     H63727  11.836   5.962   6.389 -0.1055 -0.5313  0.2122
  462MOL0     H63728  11.847   6.259   6.462  0.1395 -0.9706  0.1038
  462MOL0     H63729  11.760   6.156   6.564 -0.5357  0.5015 -0.6237
  462MOL0     H63730  12.061   6.105   6.491 -0.5306 -4.2356  1.0632
  462MOL0     H63731  11.967   6.010   6.587  3.7890 -0.3135 -0.9689
  462MOL0     H63732  11.908   6.200   6.744  3.0627 -1.0758  2.9939
  462MOL0     H63733  12.018   6.302   6.667  0.1386  0.8521  0.4853
  462MOL0     H63734  12.111   6.031   6.785 -0.6069 -0.0215 -2.1931
  462MOL0     H63735  12.150   6.175   6.862 -0.4922 -3.0923  0.5144
  462MOL0     H63736  11.278   5.817   6.207 -2.4753  2.8778 -1.7469
  462MOL0     H63737  11.086   5.715   6.308 -0.2795  1.5057 -1.5268
  462MOL0     H63738  10.837   5.606   6.573  0.7741 -0.2833  1.1563
  462MOL0     H63739  10.641   5.440   6.620 -1.1036  0.7301 -3.6626
  462MOL0     H63740   9.067   5.197   7.040 -2.8680 -1.2482  1.0658
  462MOL0     H63741   8.877   5.330   6.965 -0.6686  1.7524  0.0703
  462MOL0     H63742   8.725   5.768   6.782  0.1036  0.6954  0.3252
  462MOL0     H63743   8.526   5.901   6.717  0.6734  0.8120  0.1728
  462MOL0     H63744   8.171   5.843   6.965 -1.1717  1.2270  1.1329
  462MOL0     H63745   8.170   6.016   6.941  2.1357  0.0156  0.8831
  462MOL0     H63746   8.036   5.817   6.751 -0.9541  1.0225 -0.9435
  462MOL0     H63747   8.057   5.996   6.732  3.3382  2.0372  2.2418
  462MOL0     H63748   7.883   5.846   6.910 -0.3840  0.3057  0.1844
  462MOL0     H63749   7.944   6.012   6.965 -1.3992  2.3821 -1.4655
  462MOL0     H63750   7.798   5.988   6.700 -1.0971 -0.1635  0.2297
  462MOL0     H63751   7.858   6.140   6.787 -2.8846  0.6414 -0.0830
  462MOL0     H63752   7.479   6.037   6.951 -1.8390 -1.6074 -1.8443
  462MOL0     H63753   8.351   5.813   7.087  0.6437 -0.0670  1.2886
  462MOL0     H63754   8.658   5.689   7.255  0.2292 -0.8127 -0.1254
  462MOL0     H63755   8.506   5.757   7.277  1.8602  0.8748 -0.0711
  462MOL0     H63756   8.514   5.590   7.210  0.4658 -1.0312  0.4993
  463MOL0     O63757   0.870   5.645  11.361 -0.3343 -0.0138 -0.4301
  463MOL0     C63758   0.816   5.742  11.320 -0.7666 -0.0736 -0.0080
  463MOL0     O63759   0.876   5.841  11.247  0.1040 -0.1111  0.3384
  463MOL0     C63760   1.006   5.845  11.237  0.0996 -0.4040 -0.5845
  463MOL0     C63761   1.071   5.769  11.141  0.3264  0.6793 -0.8594
  463MOL0     C63762   1.206   5.765  11.120 -0.4625 -0.2005 -0.5158
  463MOL0     C63763   1.288   5.845  11.203  1.4622 -0.7817 -0.2238
  463MOL0     O63764   1.422   5.860  11.205 -0.0201  0.3568  0.1579
  463MOL0     C63765   1.515   5.804  11.117  0.3124  0.3187  0.1134
  463MOL0     C63766   1.659   5.842  11.153 -0.6546  0.0024 -0.2719
  463MOL0     C63767   1.750   5.791  11.040 -0.4692 -0.5616 -1.1060
  463MOL0     C63768   1.897   5.834  11.065  1.3489  0.4504 -0.0456
  463MOL0     C63769   1.993   5.732  10.999 -1.1468  0.4685  0.1749
  463MOL0     C63770   2.139   5.772  10.998  0.5516  0.0389 -0.4558
  463MOL0     C63771   2.190   5.884  10.914 -0.6191 -0.2410  0.7500
  463MOL0     C63772   2.240   5.847  10.771  0.5645 -0.3321  0.5013
  463MOL0     N63773   2.382   5.814  10.773 -0.0491 -0.2936 -0.0260
  463MOL0     C63774   2.485   5.902  10.781 -0.6600 -0.6334  0.5489
  463MOL0     C63775   2.596   5.830  10.782 -0.0298  0.0333  0.1462
  463MOL0     C63776   2.731   5.899  10.800 -0.5091  0.4248  0.1497
  463MOL0     C63777   2.836   5.856  10.700  0.4711  0.5036 -0.2980
  463MOL0     C63778   2.796   5.902  10.559  0.3048  0.8606 -0.4614
  463MOL0     C63779   2.904   5.883  10.449 -0.1650  0.0981 -0.2640
  463MOL0     O63780   2.955   5.745  10.457  0.2968 -0.7122  0.2711
  463MOL0     C63781   3.072   5.718  10.394 -0.1139  1.0018 -0.4275
  463MOL0     C63782   3.140   5.803  10.306 -1.1745 -0.1917  0.2366
  463MOL0     C63783   3.276   5.767  10.262 -0.7743 -0.5199  0.7883
  463MOL0     C63784   3.341   5.863  10.165 -0.3948  0.0254 -0.1944
  463MOL0     C63785   3.337   5.653  10.309 -1.3631  0.4714 -0.5954
  463MOL0     C63786   3.475   5.606  10.277 -0.5392  0.4089  0.9339
  463MOL0     O63787   3.574   5.700  10.261 -0.1817 -0.2246 -0.6065
  463MOL0     C63788   3.708   5.671  10.278 -0.0216  0.6000 -0.1515
  463MOL0     C63789   3.770   5.690  10.403 -0.9773  0.1126 -0.5799
  463MOL0     C63790   3.912   5.685  10.417 -0.2840 -1.0248  0.0923
  463MOL0     C63791   3.991   5.664  10.308  0.1687 -1.1845  0.8233
  463MOL0     O63792   4.127   5.673  10.328 -0.2062  0.0958 -0.0190
  463MOL0     C63793   4.206   5.687  10.217 -0.9510 -0.4459 -0.2047
  463MOL0     C63794   4.344   5.660  10.254  0.0136 -0.1274 -0.5902
  463MOL0     C63795   4.452   5.709  10.145 -0.2350 -0.5348  0.5564
  463MOL0     C63796   4.590   5.685  10.200 -0.2369 -0.3488  0.0126
  463MOL0     C63797   4.698   5.751  10.111 -0.0542 -0.1330  0.3015
  463MOL0     C63798   4.835   5.741  10.180 -0.5334  0.2302  0.1289
  463MOL0     C63799   4.944   5.820  10.108 -0.0669  0.7754 -0.0450
  463MOL0     C63800   5.076   5.808  10.185 -0.3437 -0.3866  0.7410
  463MOL0    Cl63801   5.139   5.648  10.205 -0.0889  0.1564 -0.1952
  463MOL0     C63802   3.927   5.629  10.185  0.3089 -0.5779  0.4341
  463MOL0     C63803   3.782   5.646  10.166 -0.2963 -0.4028 -0.2078
  463MOL0     O63804   3.498   5.482  10.285 -0.5572 -0.4200  1.0213
  463MOL0     C63805   3.265   5.567  10.399  0.6778  0.1779  0.6344
  463MOL0     C63806   3.132   5.600  10.431 -0.9968 -0.1436 -1.4065
  463MOL0     N63807   2.562   5.698  10.766 -0.1533  0.4567  0.4230
  463MOL0     N63808   2.440   5.691  10.770  0.0435 -1.0492 -1.0504
  463MOL0     C63809   1.228   5.928  11.294  0.1209 -0.6362  0.8892
  463MOL0     C63810   1.090   5.923  11.315  0.4899  0.1382 -0.1360
  463MOL0     C63811   0.669   5.749  11.341  0.2380  0.2228 -0.3906
  463MOL0     C63812   0.608   5.660  11.430 -0.2913 -0.0109  0.0778
  463MOL0     C63813   0.473   5.654  11.455 -0.2739 -1.0382 -0.7268
  463MOL0     C63814   0.385   5.736  11.390 -0.3390  0.2566  0.0151
  463MOL0     O63815   0.253   5.732  11.412  0.3554 -0.6346  1.5195
  463MOL0     C63816   0.187   5.671  11.296 -0.2884  0.1642  0.9436
  463MOL0     C63817   0.152   5.524  11.348 -0.1604  0.5187  0.2563
  463MOL0     C63818   0.253   5.418  11.297 -0.2314 -0.7515 -0.1883
  463MOL0     C63819   0.207   5.272  11.337  0.6924 -0.0626 -0.2511
  463MOL0     C63820   0.189   5.186  11.219 -0.7765  0.6800  0.1561
  463MOL0     C63821   0.162   5.117  11.122 -0.0399 -0.8948 -0.0947
  463MOL0     C63822   0.444   5.824  11.298  0.2073  0.1548 -0.5027
  463MOL0     C63823   0.574   5.833  11.274 -0.4787 -0.0076  0.6490
  463MOL0     C63824   0.610   5.919  11.149 -0.3442 -0.3180 -0.3249
  463MOL0     H63825   1.018   5.705  11.070  1.6986 -1.3315 -0.1548
  463MOL0     H63826   1.234   5.691  11.046 -1.5321 -0.8683 -0.2643
  463MOL0     H63827   1.500   5.829  11.012  0.4784 -0.5215 -0.1205
  463MOL0     H63828   1.501   5.695  11.114  2.0737  0.0850 -1.6814
  463MOL0     H63829   1.681   5.946  11.180 -1.1354  1.3268 -4.3389
  463MOL0     H63830   1.670   5.779  11.242 -4.5756  0.1284  0.4866
  463MOL0     H63831   1.742   5.682  11.039 -2.2895 -0.5953  2.2497
  463MOL0     H63832   1.719   5.844  10.950  0.2320  0.1827 -0.9179
  463MOL0     H63833   1.913   5.933  11.021 -2.6894  1.1641 -0.2594
  463MOL0     H63834   1.904   5.851  11.173 -1.9122  2.5641 -0.0114
  463MOL0     H63835   1.963   5.725  10.894 -1.2244  4.6250 -0.2669
  463MOL0     H63836   1.978   5.640  11.056 -0.9031  1.9187  2.7076
  463MOL0     H63837   2.156   5.793  11.104 -1.4465 -0.1965 -0.0454
  463MOL0     H63838   2.198   5.683  10.975  0.0591 -0.6533  0.8562
  463MOL0     H63839   2.273   5.931  10.968  0.0562  0.9111 -1.1790
  463MOL0     H63840   2.109   5.958  10.910  1.6077  2.3308  0.5293
  463MOL0     H63841   2.181   5.758  10.751 -1.2747  0.7432  0.8775
  463MOL0     H63842   2.214   5.924  10.697  1.5316  0.9456  1.4501
  463MOL0     H63843   2.472   6.009  10.794 -1.1707 -0.6051 -0.2026
  463MOL0     H63844   2.764   5.864  10.898  0.0211 -1.1716 -0.5593
  463MOL0     H63845   2.722   6.008  10.806  1.0642  0.5619  0.5825
  463MOL0     H63846   2.934   5.895  10.729  1.3714 -0.4267 -1.9734
  463MOL0     H63847   2.838   5.746  10.702 -3.1341  0.3297  0.3366
  463MOL0     H63848   2.705   5.852  10.527  0.8009 -0.3176 -0.0752
  463MOL0     H63849   2.774   6.007  10.580  2.1699  1.1665  0.1898
  463MOL0     H63850   2.852   5.894  10.354 -0.0544 -1.9326 -0.5969
  463MOL0     H63851   2.989   5.950  10.468 -0.2927 -0.0828  1.0683
  463MOL0     H63852   3.094   5.895  10.271 -0.8460  0.5258  1.6123
  463MOL0     H63853   3.390   5.816  10.079 -2.0879  1.5619 -2.1014
  463MOL0     H63854   3.408   5.928  10.221 -3.2841  1.9697  1.2667
  463MOL0     H63855   3.265   5.930  10.122 -0.1571  1.5078  1.5949
  463MOL0     H63856   3.706   5.694  10.491 -1.5458 -1.8217 -0.8612
  463MOL0     H63857   3.954   5.683  10.518 -0.1643 -1.2160  0.0392
  463MOL0     H63858   4.180   5.631  10.126  0.3114  2.7658 -2.7380
  463MOL0     H63859   4.208   5.793  10.189 -1.7573 -0.3962 -0.0888
  463MOL0     H63860   4.348   5.716  10.348  1.0046 -1.4908  0.2018
  463MOL0     H63861   4.363   5.557  10.285  0.0164  0.3999  1.3153
  463MOL0     H63862   4.444   5.816  10.124  0.5462 -0.4072  0.8670
  463MOL0     H63863   4.436   5.651  10.053  1.8242  0.2910 -0.3826
  463MOL0     H63864   4.603   5.576  10.203 -1.3226 -0.4735  2.5266
  463MOL0     H63865   4.595   5.725  10.302 -4.6143  1.4964 -0.3256
  463MOL0     H63866   4.704   5.701  10.014  2.3120 -0.1252  0.3813
  463MOL0     H63867   4.670   5.851  10.078  4.2487  0.1641 -3.5734
  463MOL0     H63868   4.862   5.635  10.183 -1.4224 -0.2131 -3.0968
  463MOL0     H63869   4.821   5.777  10.282  0.1441 -0.5292  0.5003
  463MOL0     H63870   4.906   5.923  10.104 -1.3521  0.2833 -2.0965
  463MOL0     H63871   4.955   5.792  10.003 -0.3682 -0.0336  0.1295
  463MOL0     H63872   5.061   5.846  10.286  1.5644 -4.7786  2.9533
  463MOL0     H63873   5.156   5.866  10.138 -1.0672  0.0946  0.0790
  463MOL0     H63874   3.972   5.601  10.091  1.2678 -2.0293  1.2885
  463MOL0     H63875   3.738   5.643  10.067 -3.0676  0.7946  0.8673
  463MOL0     H63876   3.293   5.471  10.442  0.3159 -1.3290 -2.2708
  463MOL0     H63877   3.083   5.532  10.500  0.7937 -1.2349 -1.1403
  463MOL0     H63878   1.290   5.998  11.347  2.2610 -0.3020 -1.8410
  463MOL0     H63879   1.050   5.999  11.382  2.2924  0.6154  0.4606
  463MOL0     H63880   0.669   5.589  11.485 -0.9813 -0.0441  0.8306
  463MOL0     H63881   0.443   5.579  11.528  2.6355 -1.0459  0.6106
  463MOL0     H63882   0.100   5.733  11.271  0.3463  1.1260  1.0473
  463MOL0     H63883   0.238   5.673  11.199 -3.9616  0.1859 -1.1914
  463MOL0     H63884   0.057   5.504  11.298  1.0193 -2.4986 -1.0264
  463MOL0     H63885   0.139   5.532  11.456  2.2263  1.8020  0.5123
  463MOL0     H63886   0.247   5.425  11.188 -0.3546  2.0060 -0.0738
  463MOL0     H63887   0.354   5.434  11.333 -0.3230 -0.5989  0.0052
  463MOL0     H63888   0.110   5.282  11.386  0.4310  2.1934 -1.1342
  463MOL0     H63889   0.287   5.232  11.401  0.2232  1.0150  1.0791
  463MOL0     H63890   0.148   5.055  11.036  1.2328 -0.4384 -0.6498
  463MOL0     H63891   0.376   5.883  11.238 -0.1803 -0.9696 -1.2127
  463MOL0     H63892   0.680   6.000  11.167  1.0748 -1.4897 -0.4389
  463MOL0     H63893   0.665   5.850  11.084  1.7872 -0.1553  1.2380
  463MOL0     H63894   0.526   5.956  11.088  0.2284  0.2794 -0.7621
  464MOL0     O63895   0.046   1.142   2.547 -0.9204  0.3642  0.4799
  464MOL0     C63896   0.067   1.112   2.663 -0.3828  0.4537  0.1434
  464MOL0     O63897   0.189   1.099   2.718 -0.8334  0.0768  0.0916
  464MOL0     C63898   0.299   1.066   2.641 -0.3522  0.2040  0.0592
  464MOL0     C63899   0.421   1.141   2.645  0.5965  0.1304  0.7368
  464MOL0     C63900   0.530   1.102   2.573 -0.7102 -0.7495 -0.5853
  464MOL0     C63901   0.527   0.989   2.496 -0.1896  0.5119  0.0262
  464MOL0     O63902   0.624   0.944   2.408  0.0786 -0.0583  0.7061
  464MOL0     C63903   0.712   1.041   2.347 -0.4044 -0.1515  0.5409
  464MOL0     C63904   0.856   1.053   2.404  0.4580  0.2845 -0.1350
  464MOL0     C63905   0.929   0.921   2.427  0.4423 -0.3283 -0.4614
  464MOL0     C63906   1.061   0.922   2.497 -0.3712  0.0619  0.9906
  464MOL0     C63907   1.101   0.790   2.557  0.5773 -0.3291  0.4075
  464MOL0     C63908   1.214   0.811   2.658  0.4678 -0.5973  0.8781
  464MOL0     C63909   1.212   0.685   2.756  0.4862 -0.0308  0.7358
  464MOL0     C63910   1.343   0.661   2.841  0.4828  0.3592 -0.0035
  464MOL0     N63911   1.376   0.774   2.925  0.4502  0.5993  0.9742
  464MOL0     C63912   1.288   0.845   3.003 -0.5741 -0.4681 -0.5761
  464MOL0     C63913   1.363   0.943   3.064  0.3178  1.5070 -0.0073
  464MOL0     C63914   1.316   1.059   3.135 -0.1752 -0.0529 -0.1629
  464MOL0     C63915   1.419   1.105   3.239 -0.4800  0.0699 -0.8538
  464MOL0     C63916   1.440   0.992   3.351 -0.7623  0.0851 -0.1576
  464MOL0     C63917   1.594   0.994   3.399 -0.0138  0.2175  0.5498
  464MOL0     O63918   1.613   1.111   3.488 -0.3725 -0.2247  0.7802
  464MOL0     C63919   1.745   1.135   3.504  0.0168  0.0836  0.1125
  464MOL0     C63920   1.805   1.237   3.431 -0.1901  0.7097  0.5281
  464MOL0     C63921   1.939   1.262   3.454 -0.6034 -0.9458  0.4853
  464MOL0     C63922   2.000   1.372   3.364  0.2337  0.4957 -1.1565
  464MOL0     C63923   2.022   1.187   3.545  0.0526  0.0988 -0.3945
  464MOL0     C63924   2.166   1.205   3.572  0.1793  0.0834  0.2571
  464MOL0     O63925   2.212   1.330   3.558 -0.4837  0.4121 -0.5607
  464MOL0     C63926   2.322   1.374   3.638  0.1141 -0.4357 -0.3283
  464MOL0     C63927   2.453   1.320   3.641 -0.3630  0.1161  0.3940
  464MOL0     C63928   2.548   1.367   3.727 -0.3303 -0.6537 -0.0272
  464MOL0     C63929   2.532   1.489   3.791  0.7719  0.1996 -0.1709
  464MOL0     O63930   2.635   1.529   3.864 -0.3985  0.5035 -0.2239
  464MOL0     C63931   2.640   1.664   3.905 -0.1232  0.9916  0.5480
  464MOL0     C63932   2.779   1.708   3.929  0.5116 -0.3450  0.6581
  464MOL0     C63933   2.880   1.680   3.819 -0.1129  0.0422 -0.6589
  464MOL0     C63934   3.014   1.764   3.843 -0.1885 -0.0127 -0.1873
  464MOL0     C63935   3.077   1.728   3.979 -0.1267 -0.1985  0.6727
  464MOL0     C63936   3.204   1.810   4.000 -0.5797  0.7966 -0.8689
  464MOL0     C63937   3.277   1.791   4.138  0.2016 -0.6282  0.1517
  464MOL0     C63938   3.305   1.647   4.154 -0.0061  0.6321 -0.6824
  464MOL0    Cl63939   3.374   1.623   4.318 -0.2079  0.4788 -0.1102
  464MOL0     C63940   2.403   1.548   3.791 -0.3548 -0.1199  0.8877
  464MOL0     C63941   2.298   1.486   3.719  0.0998  0.0329 -0.6364
  464MOL0     O63942   2.237   1.110   3.609  0.0510 -0.7482  0.1172
  464MOL0     C63943   1.951   1.079   3.603 -0.5024 -0.2937 -0.5727
  464MOL0     C63944   1.819   1.047   3.584  0.3185 -0.0929 -0.6711
  464MOL0     N63945   1.496   0.923   3.028 -0.3753 -0.4806  0.6057
  464MOL0     N63946   1.503   0.828   2.936 -0.0442  0.3320 -0.2554
  464MOL0     C63947   0.410   0.917   2.481 -0.0287 -0.0011  0.8351
  464MOL0     C63948   0.288   0.950   2.554 -0.5062  0.2019 -0.0449
  464MOL0     C63949  -0.053   1.112   2.748  0.1240  0.4985  0.5013
  464MOL0     C63950  -0.041   1.187   2.864 -0.1742 -0.4747 -0.0716
  464MOL0     C63951  -0.153   1.204   2.948 -0.1443 -0.0299 -0.3498
  464MOL0     C63952  -0.269   1.126   2.916 -0.4588  0.3275 -0.9530
  464MOL0     O63953  -0.379   1.113   3.003 -0.1682  0.0310  0.5907
  464MOL0     C63954  -0.363   1.173   3.130  0.2507 -0.3202 -0.6151
  464MOL0     C63955  -0.489   1.155   3.217  0.2802 -0.1729 -0.0507
  464MOL0     C63956  -0.620   1.221   3.173 -0.4447  0.6940 -0.8874
  464MOL0     C63957  -0.743   1.175   3.251 -1.0612 -0.0531  0.7866
  464MOL0     C63958  -0.801   1.050   3.203 -0.2454  0.3133  0.1339
  464MOL0     C63959  -0.831   0.942   3.154 -0.3036  0.0058  0.3296
  464MOL0     C63960  -0.276   1.053   2.802  0.8922  0.7087 -0.1321
  464MOL0     C63961  -0.168   1.040   2.715  0.3058  0.6809  0.5094
  464MOL0     C63962  -0.174   0.955   2.586 -0.2363 -0.6764 -0.1125
  464MOL0     H63963   0.412   1.232   2.703 -2.1220 -1.5428  3.2317
  464MOL0     H63964   0.618   1.166   2.567  0.5080 -2.3270 -0.3410
  464MOL0     H63965   0.672   1.143   2.353  2.4717  1.1429 -0.7696
  464MOL0     H63966   0.722   1.013   2.242  0.8758 -0.3453  0.6989
  464MOL0     H63967   0.925   1.099   2.331  1.1201 -0.3139  0.1063
  464MOL0     H63968   0.864   1.105   2.500 -0.2635 -0.6090  0.4255
  464MOL0     H63969   0.852   0.865   2.481 -1.5860  2.1154 -0.6364
  464MOL0     H63970   0.949   0.883   2.326 -0.8363  2.7302 -2.0186
  464MOL0     H63971   1.121   0.945   2.409  1.0110 -1.2818  1.5361
  464MOL0     H63972   1.078   1.005   2.568  2.0072 -1.1140  1.9166
  464MOL0     H63973   1.140   0.717   2.485  4.3733  0.1148  1.7637
  464MOL0     H63974   1.019   0.756   2.621  1.5278 -0.7072  1.4708
  464MOL0     H63975   1.313   0.832   2.619  0.1497  1.5404  1.0870
  464MOL0     H63976   1.189   0.904   2.712  1.3589  2.0139 -2.8452
  464MOL0     H63977   1.231   0.603   2.686  0.3417  0.1976  0.4241
  464MOL0     H63978   1.122   0.683   2.819  1.5673 -0.9152  2.3086
  464MOL0     H63979   1.326   0.574   2.905 -1.9166  1.8264  1.4930
  464MOL0     H63980   1.427   0.639   2.774 -0.4180 -0.6306 -0.8496
  464MOL0     H63981   1.180   0.835   3.015 -0.3317 -1.2886  1.1034
  464MOL0     H63982   1.228   1.043   3.197  0.4629 -2.6033  0.1791
  464MOL0     H63983   1.299   1.145   3.070  1.4445  2.5895  2.5981
  464MOL0     H63984   1.513   1.127   3.189  0.5402 -1.2278  0.4135
  464MOL0     H63985   1.375   1.193   3.287 -2.6012 -0.3785 -1.8288
  464MOL0     H63986   1.394   1.019   3.447  3.0659  3.3574  1.0065
  464MOL0     H63987   1.416   0.891   3.316 -1.6354  0.5622 -0.9685
  464MOL0     H63988   1.600   0.904   3.462  0.0775 -1.5069 -1.7761
  464MOL0     H63989   1.659   0.989   3.311 -1.4088 -0.3510 -0.4975
  464MOL0     H63990   1.746   1.300   3.365  0.2612 -0.1418 -0.7102
  464MOL0     H63991   2.104   1.357   3.331  1.0539  2.3216  0.4320
  464MOL0     H63992   1.992   1.466   3.418 -2.2858 -0.2150 -0.1322
  464MOL0     H63993   1.933   1.389   3.279 -2.0762  1.0677  0.6834
  464MOL0     H63994   2.475   1.232   3.580  0.6887 -0.2967  1.3432
  464MOL0     H63995   2.646   1.325   3.751  1.8047  4.3075  1.3653
  464MOL0     H63996   2.601   1.722   3.821  1.7947  1.0955 -0.3116
  464MOL0     H63997   2.575   1.676   3.993  0.6358  1.5509  1.0479
  464MOL0     H63998   2.780   1.817   3.936 -0.8847 -0.2110 -0.6205
  464MOL0     H63999   2.808   1.669   4.027  0.5566  0.6665  1.0608
  464MOL0     H64000   2.844   1.703   3.718 -2.2466 -2.9088 -0.7150
  464MOL0     H64001   2.905   1.573   3.814  2.1641  0.3376  2.1332
  464MOL0     H64002   2.991   1.870   3.838  1.7243  0.6440  2.3847
  464MOL0     H64003   3.094   1.752   3.769 -1.2569  1.0905 -1.5758
  464MOL0     H64004   3.005   1.749   4.060 -0.5884 -0.3127  0.2976
  464MOL0     H64005   3.109   1.623   3.975  2.3012  0.4139  2.1352
  464MOL0     H64006   3.181   1.916   3.990 -0.4703  0.9800  0.6791
  464MOL0     H64007   3.287   1.778   3.936  1.1768  1.1685  1.1223
  464MOL0     H64008   3.218   1.840   4.216  2.1544  0.2248  1.1726
  464MOL0     H64009   3.368   1.853   4.144 -0.8149  0.9585 -0.2221
  464MOL0     H64010   3.374   1.611   4.078 -0.7108 -5.1769  0.9057
  464MOL0     H64011   3.217   1.581   4.150 -0.4924  1.1374  0.7214
  464MOL0     H64012   2.385   1.642   3.843 -0.3247  0.6169 -0.3908
  464MOL0     H64013   2.198   1.526   3.733  0.5515  1.4394 -1.2580
  464MOL0     H64014   1.991   0.998   3.662 -3.5742 -2.0881 -0.7056
  464MOL0     H64015   1.767   0.966   3.634  0.6403  0.6396  0.9380
  464MOL0     H64016   0.410   0.835   2.409 -2.0090  0.2936  0.4608
  464MOL0     H64017   0.190   0.902   2.558 -1.7459  2.6880  2.2392
  464MOL0     H64018   0.052   1.238   2.887  0.5606 -1.0452 -1.6820
  464MOL0     H64019  -0.142   1.260   3.040  0.7123 -0.6135 -0.0844
  464MOL0     H64020  -0.270   1.144   3.181  1.2788 -0.4771 -2.4780
  464MOL0     H64021  -0.368   1.282   3.126 -3.2655 -0.3076  0.6780
  464MOL0     H64022  -0.469   1.189   3.320  0.0683 -1.0584  0.2949
  464MOL0     H64023  -0.501   1.047   3.232 -0.1799 -0.0479  0.5103
  464MOL0     H64024  -0.604   1.325   3.205 -0.2645  0.2337  0.5853
  464MOL0     H64025  -0.627   1.212   3.064  2.4865  0.7996 -1.1721
  464MOL0     H64026  -0.807   1.260   3.223 -0.4110 -0.4131 -2.1484
  464MOL0     H64027  -0.708   1.185   3.354  0.4367  0.1253  0.2871
  464MOL0     H64028  -0.861   0.856   3.098  1.7157  0.3133 -1.3520
  464MOL0     H64029  -0.364   0.997   2.774  2.4625 -0.4555 -3.0730
  464MOL0     H64030  -0.090   0.887   2.603 -0.0121 -0.8079 -1.5966
  464MOL0     H64031  -0.267   0.899   2.572 -0.7746  0.4768 -1.3978
  464MOL0     H64032  -0.155   1.016   2.497 -2.8622  3.0540  1.6103
  465MOL0     O64033   1.760   1.709   7.746  0.0481  0.6971  0.4771
  465MOL0     C64034   1.697   1.646   7.658 -0.9250  0.1390  0.1189
  465MOL0     O64035   1.742   1.597   7.541  0.1579  0.0622  0.0592
  465MOL0     C64036   1.874   1.599   7.519  0.4610 -0.2079  0.8946
  465MOL0     C64037   1.911   1.658   7.405 -0.0576 -0.1771 -0.3177
  465MOL0     C64038   2.052   1.687   7.377  0.1399  1.1115 -0.6237
  465MOL0     C64039   2.147   1.636   7.462  0.6875  1.1925  0.0570
  465MOL0     O64040   2.277   1.668   7.426  0.1228  0.1466 -0.9835
  465MOL0     C64041   2.370   1.613   7.522  0.7102  0.8082 -0.3355
  465MOL0     C64042   2.512   1.634   7.460 -0.2953 -0.0252 -0.4609
  465MOL0     C64043   2.619   1.598   7.558  0.0608  0.6937 -0.1469
  465MOL0     C64044   2.613   1.457   7.599 -0.0857  0.2296 -0.1907
  465MOL0     C64045   2.730   1.392   7.675 -0.4916  0.1410 -0.0683
  465MOL0     C64046   2.875   1.403   7.619  0.0967 -0.4220  0.3763
  465MOL0     C64047   2.958   1.305   7.694 -0.7810  0.2027  0.7067
  465MOL0     C64048   3.100   1.284   7.652  0.4413 -0.7319  0.8571
  465MOL0     N64049   3.182   1.193   7.738  0.8148  0.4902  0.3016
  465MOL0     C64050   3.245   1.234   7.855  0.3412 -0.4835  0.3327
  465MOL0     C64051   3.281   1.106   7.904 -0.9373 -0.1083 -0.5763
  465MOL0     C64052   3.348   1.090   8.039 -0.3112  0.0250 -0.5320
  465MOL0     C64053   3.506   1.075   8.035  0.1047 -0.5768 -0.0833
  465MOL0     C64054   3.556   0.972   7.934 -0.3926 -0.1270  1.2176
  465MOL0     C64055   3.712   0.942   7.941  1.5802  0.4397  0.3814
  465MOL0     O64056   3.766   0.861   7.832  0.7516  0.6060 -0.2677
  465MOL0     C64057   3.896   0.816   7.856 -0.5703 -0.7078  0.2627
  465MOL0     C64058   3.973   0.859   7.967  0.5446  0.7385  0.3753
  465MOL0     C64059   4.103   0.815   7.978 -0.2357 -0.0863  0.7368
  465MOL0     C64060   4.169   0.845   8.107  0.2774 -0.4855 -0.3691
  465MOL0     C64061   4.162   0.725   7.883 -0.0653 -0.2899 -0.4967
  465MOL0     C64062   4.306   0.663   7.892  0.4159  0.1513 -0.7948
  465MOL0     O64063   4.349   0.590   7.784 -0.4698 -0.0661  0.2651
  465MOL0     C64064   4.480   0.537   7.786  0.3005 -0.8539 -0.5842
  465MOL0     C64065   4.594   0.593   7.731 -0.2694 -0.0086 -0.1803
  465MOL0     C64066   4.717   0.531   7.737 -0.7296  0.7179 -0.1497
  465MOL0     C64067   4.728   0.411   7.812  0.3030  0.3046  0.4278
  465MOL0     O64068   4.848   0.357   7.830 -0.5257 -0.5710 -0.0010
  465MOL0     C64069   4.901   0.270   7.729 -0.7975  0.2951 -0.3413
  465MOL0     C64070   5.024   0.190   7.775 -0.3394 -0.6271 -0.6113
  465MOL0     C64071   5.126   0.289   7.834  0.2108  0.7440 -1.9711
  465MOL0     C64072   5.270   0.229   7.829  1.0817  0.4093  0.3220
  465MOL0     C64073   5.379   0.326   7.862  0.7621 -0.4003 -0.7011
  465MOL0     C64074   5.512   0.258   7.860  0.0079 -0.9302 -0.2241
  465MOL0     C64075   5.620   0.346   7.933 -0.3566 -0.8530 -0.3772
  465MOL0     C64076   5.745   0.253   7.946 -0.3408  0.8614 -0.7844
  465MOL0    Cl64077   5.895   0.321   8.013 -0.0186  0.1232 -0.0714
  465MOL0     C64078   4.612   0.351   7.868  0.4410 -0.0508 -0.5917
  465MOL0     C64079   4.491   0.413   7.841  0.5726 -0.2372 -0.2634
  465MOL0     O64080   4.377   0.685   7.991  1.0993  0.3254 -0.0884
  465MOL0     C64081   4.088   0.690   7.769  0.3605 -0.1963  0.3589
  465MOL0     C64082   3.953   0.731   7.754  0.4911 -0.3690 -0.0228
  465MOL0     N64083   3.247   1.012   7.813  0.7582 -0.0085 -1.1234
  465MOL0     N64084   3.183   1.054   7.720 -0.1659 -0.7422  0.8108
  465MOL0     C64085   2.105   1.547   7.566  0.5884 -0.1599 -0.1876
  465MOL0     C64086   1.969   1.537   7.604 -0.6731 -0.5403 -0.0241
  465MOL0     C64087   1.556   1.626   7.675 -0.5335  0.3378  1.3692
  465MOL0     C64088   1.481   1.722   7.749 -1.3990  0.3322  0.1737
  465MOL0     C64089   1.347   1.713   7.775  0.5266 -0.3711  0.6788
  465MOL0     C64090   1.273   1.614   7.713 -0.0137  0.1502  0.0342
  465MOL0     O64091   1.133   1.590   7.722 -0.5867 -0.7841 -0.4051
  465MOL0     C64092   1.068   1.626   7.845  0.4314  0.3724 -0.0321
  465MOL0     C64093   0.953   1.525   7.880  0.0764 -0.4388  0.1699
  465MOL0     C64094   0.841   1.520   7.768  0.2407  0.0128 -0.4349
  465MOL0     C64095   0.775   1.648   7.726 -0.3809  0.0610  0.1811
  465MOL0     C64096   0.713   1.634   7.596 -0.1517 -0.3694  0.3513
  465MOL0     C64097   0.673   1.623   7.484 -0.3784 -0.2053  0.2821
  465MOL0     C64098   1.341   1.523   7.633  0.6060  0.6983 -0.0246
  465MOL0     C64099   1.479   1.523   7.613  0.5826  0.2175  1.2011
  465MOL0     C64100   1.533   1.420   7.506  0.3530 -0.9172  0.2389
  465MOL0     H64101   1.830   1.709   7.355  1.3578  3.5217  0.8479
  465MOL0     H64102   2.092   1.755   7.302 -1.4440 -0.0909 -2.6585
  465MOL0     H64103   2.368   1.505   7.537  2.8653  0.9767  1.8690
  465MOL0     H64104   2.361   1.661   7.620  0.0519  0.6955 -0.3362
  465MOL0     H64105   2.513   1.574   7.369 -1.1661  2.3173 -2.1003
  465MOL0     H64106   2.509   1.738   7.427  0.1909 -0.1624 -0.9478
  465MOL0     H64107   2.711   1.617   7.503  0.4056 -2.3220 -0.7823
  465MOL0     H64108   2.620   1.662   7.647  1.6132 -2.0181  1.9331
  465MOL0     H64109   2.527   1.435   7.663 -0.4223 -2.7243 -1.4984
  465MOL0     H64110   2.591   1.397   7.510 -5.7590  1.9154 -0.3613
  465MOL0     H64111   2.696   1.288   7.668 -3.5179  1.0994 -2.2320
  465MOL0     H64112   2.739   1.427   7.778 -0.8459 -2.0759  0.7672
  465MOL0     H64113   2.887   1.375   7.514 -1.7150 -3.1471  0.7889
  465MOL0     H64114   2.916   1.503   7.637  2.5222 -1.6199  2.0100
  465MOL0     H64115   2.903   1.210   7.698 -1.0240  0.3478  0.8786
  465MOL0     H64116   2.958   1.337   7.799  0.4889 -1.6924  1.3428
  465MOL0     H64117   3.100   1.243   7.551  0.3374  1.6553 -0.1822
  465MOL0     H64118   3.161   1.375   7.648  1.4689 -1.4261  0.2724
  465MOL0     H64119   3.255   1.334   7.895  1.1371  0.2739 -1.6600
  465MOL0     H64120   3.305   1.002   8.087 -3.5030  1.7880  0.1071
  465MOL0     H64121   3.328   1.173   8.107 -1.4927  0.0641 -0.9035
  465MOL0     H64122   3.543   1.164   7.984  1.1307  0.0943  1.7849
  465MOL0     H64123   3.542   1.063   8.137  0.1776  2.0890  0.2679
  465MOL0     H64124   3.499   0.879   7.943  0.2489 -0.8418 -1.2556
  465MOL0     H64125   3.551   1.021   7.837 -0.6029  1.2312  1.8971
  465MOL0     H64126   3.765   1.038   7.934 -0.9234  1.8896 -0.1253
  465MOL0     H64127   3.726   0.891   8.036 -2.2072 -0.9587  0.3701
  465MOL0     H64128   3.935   0.926   8.043 -1.0237  0.3568 -0.0381
  465MOL0     H64129   4.237   0.929   8.089 -0.7184 -0.1134 -2.6743
  465MOL0     H64130   4.222   0.764   8.159 -1.8430 -0.7282  1.5641
  465MOL0     H64131   4.090   0.878   8.175  2.6404 -0.7361  2.7697
  465MOL0     H64132   4.589   0.670   7.655 -2.6569  0.1631  0.0667
  465MOL0     H64133   4.808   0.580   7.704  0.5878 -0.9523  0.7996
  465MOL0     H64134   4.829   0.196   7.693 -1.8595  1.3005 -0.3274
  465MOL0     H64135   4.922   0.336   7.645 -1.3113 -0.6915 -1.2732
  465MOL0     H64136   4.998   0.101   7.833  2.0166 -0.3045  1.0790
  465MOL0     H64137   5.067   0.156   7.680  3.0116  0.1304  0.5056
  465MOL0     H64138   5.095   0.319   7.934 -0.3329  0.5585 -2.0816
  465MOL0     H64139   5.130   0.381   7.775  1.4710  0.5604 -2.1938
  465MOL0     H64140   5.290   0.186   7.730  1.4025 -1.0315  0.9948
  465MOL0     H64141   5.276   0.138   7.889  0.4721 -1.1544 -1.8656
  465MOL0     H64142   5.375   0.415   7.799  0.7861  0.6014  0.6534
  465MOL0     H64143   5.363   0.375   7.959 -0.7203  0.8333 -1.5236
  465MOL0     H64144   5.532   0.257   7.752  0.2854  2.8361 -0.3317
  465MOL0     H64145   5.511   0.156   7.901 -0.2826 -0.2822  1.4777
  465MOL0     H64146   5.576   0.388   8.023 -0.5199  0.4776 -1.0476
  465MOL0     H64147   5.645   0.437   7.878  1.8590  0.7786  3.0082
  465MOL0     H64148   5.778   0.214   7.849  1.1130  0.5250 -0.1819
  465MOL0     H64149   5.718   0.168   8.010 -5.0667 -0.0656 -3.5347
  465MOL0     H64150   4.621   0.266   7.935  1.3816 -0.1604 -0.8410
  465MOL0     H64151   4.396   0.369   7.870  0.1945  0.8372  0.1920
  465MOL0     H64152   4.133   0.634   7.688  3.8856 -0.0438  2.0651
  465MOL0     H64153   3.892   0.713   7.666 -1.6182  0.0049  1.2826
  465MOL0     H64154   2.161   1.476   7.625 -0.0871 -0.8958 -0.4174
  465MOL0     H64155   1.940   1.489   7.698  1.1241  2.4679  2.2213
  465MOL0     H64156   1.536   1.815   7.767 -0.4359  0.9897 -4.7244
  465MOL0     H64157   1.298   1.797   7.824 -1.2192  0.4343 -2.2442
  465MOL0     H64158   1.143   1.619   7.925 -1.0632 -0.6207  1.3486
  465MOL0     H64159   1.028   1.727   7.832 -0.0927  0.1265 -0.3608
  465MOL0     H64160   0.909   1.559   7.974  1.0296  1.3109  0.0230
  465MOL0     H64161   0.985   1.423   7.903  1.2922 -0.5258 -1.6680
  465MOL0     H64162   0.891   1.472   7.683 -2.7142 -6.1085  0.7242
  465MOL0     H64163   0.762   1.452   7.799 -0.0048  0.3061 -0.4208
  465MOL0     H64164   0.854   1.722   7.717  0.8400 -1.2444 -0.2018
  465MOL0     H64165   0.706   1.673   7.807 -0.9348  1.3517 -0.6714
  465MOL0     H64166   0.652   1.609   7.380 -0.4614  1.7241 -0.0059
  465MOL0     H64167   1.279   1.444   7.592  1.1742 -0.6022  1.4925
  465MOL0     H64168   1.617   1.355   7.532 -1.3801 -3.8670 -1.0007
  465MOL0     H64169   1.449   1.358   7.472 -0.9141  0.3041  1.0224
  465MOL0     H64170   1.554   1.465   7.409 -0.8742 -0.5197  0.1437
  466MOL0     O64171   5.995   0.484   0.671 -0.2472 -0.3481 -0.1797
  466MOL0     C64172   6.017   0.549   0.777  0.1476 -0.0651  0.5315
  466MOL0     O64173   6.132   0.615   0.809  0.1228 -0.2814  0.1952
  466MOL0     C64174   6.230   0.601   0.716 -0.3344 -0.4886 -0.6468
  466MOL0     C64175   6.361   0.545   0.748 -0.1987  0.2552  0.6114
  466MOL0     C64176   6.465   0.536   0.649  0.1341 -0.0514  0.4659
  466MOL0     C64177   6.438   0.589   0.523  0.2887  0.5260  0.3894
  466MOL0     O64178   6.530   0.591   0.415  0.4659  0.3701 -0.1161
  466MOL0     C64179   6.662   0.593   0.448 -0.4125  0.0692 -0.0129
  466MOL0     C64180   6.746   0.623   0.320 -0.8640  1.0058 -0.2570
  466MOL0     C64181   6.899   0.607   0.365  1.4122  0.1619 -0.2065
  466MOL0     C64182   6.998   0.632   0.252 -0.3310  0.3397 -1.2556
  466MOL0     C64183   6.971   0.569   0.118  0.3566  0.0789 -0.3417
  466MOL0     C64184   6.998   0.416   0.127 -0.6651  0.1711  0.4400
  466MOL0     C64185   6.960   0.344  -0.003 -0.3983  0.6113  0.1782
  466MOL0     C64186   6.809   0.328  -0.041  0.2351 -0.3043 -0.1048
  466MOL0     N64187   6.727   0.251   0.070 -0.5855  0.4208  0.7214
  466MOL0     C64188   6.625   0.303   0.141  0.4829 -0.5036  0.0584
  466MOL0     C64189   6.570   0.197   0.204 -0.3229 -0.4138  0.4029
  466MOL0     C64190   6.451   0.204   0.298  0.6416 -0.4845  0.2659
  466MOL0     C64191   6.340   0.315   0.289  0.8155 -0.4515  0.9531
  466MOL0     C64192   6.240   0.302   0.395  0.4180 -0.1888  0.0601
  466MOL0     C64193   6.167   0.174   0.416  0.1932 -0.1406  0.3514
  466MOL0     O64194   6.088   0.122   0.302 -0.6961 -0.7315 -0.4395
  466MOL0     C64195   5.967   0.172   0.282  0.9921 -0.3366  0.5638
  466MOL0     C64196   5.915   0.278   0.353 -0.5688  0.1204 -0.1521
  466MOL0     C64197   5.783   0.303   0.336  1.2417 -0.2047  0.3866
  466MOL0     C64198   5.723   0.414   0.424  0.1578 -0.5282 -0.8928
  466MOL0     C64199   5.699   0.232   0.248  0.5615 -1.0873 -0.0971
  466MOL0     C64200   5.559   0.260   0.209  0.4908 -1.3916  0.7276
  466MOL0     O64201   5.505   0.387   0.224  0.1824 -0.3247  0.1815
  466MOL0     C64202   5.377   0.401   0.185 -0.3710  0.6788 -0.5185
  466MOL0     C64203   5.280   0.326   0.256 -0.1697  0.0765 -0.6747
  466MOL0     C64204   5.141   0.359   0.247  0.4676 -0.2915  0.5764
  466MOL0     C64205   5.106   0.461   0.153  0.6258 -0.2651 -0.2898
  466MOL0     O64206   4.974   0.484   0.135  0.5775  0.4121  0.3289
  466MOL0     C64207   4.896   0.378   0.073 -0.5866  0.1255  0.5505
  466MOL0     C64208   4.746   0.406   0.088 -0.4379 -0.7906 -0.2329
  466MOL0     C64209   4.658   0.294   0.038 -0.2000 -0.5094  0.7581
  466MOL0     C64210   4.519   0.328   0.053 -0.1088 -0.0702  0.5343
  466MOL0     C64211   4.428   0.215   0.000  0.4359  1.1000 -0.8289
  466MOL0     C64212   4.288   0.269  -0.014 -0.2661 -0.3505 -0.3076
  466MOL0     C64213   4.190   0.157  -0.067 -1.1452  0.4571  0.2783
  466MOL0     C64214   4.057   0.228  -0.058  0.0732 -0.6494 -0.0095
  466MOL0    Cl64215   4.011   0.252   0.114  0.5243  0.3895  0.2528
  466MOL0     C64216   5.198   0.533   0.078 -0.0365 -0.7870 -0.7595
  466MOL0     C64217   5.336   0.505   0.105  0.5815  0.2802 -0.1659
  466MOL0     O64218   5.494   0.158   0.174  0.5738  0.5478 -0.1395
  466MOL0     C64219   5.759   0.131   0.169  0.3062  0.6056  0.0876
  466MOL0     C64220   5.895   0.108   0.186  0.0343 -0.2517  0.1607
  466MOL0     N64221   6.630   0.087   0.160 -0.4624  0.3519  0.3992
  466MOL0     N64222   6.720   0.118   0.079  0.6073 -0.4160  0.1094
  466MOL0     C64223   6.313   0.640   0.489 -0.3570  0.8242 -0.2399
  466MOL0     C64224   6.211   0.651   0.585  0.2235 -0.7438  1.0830
  466MOL0     C64225   5.898   0.547   0.870 -0.4374  0.1584 -0.8028
  466MOL0     C64226   5.770   0.511   0.822  0.3885  0.7419 -0.7201
  466MOL0     C64227   5.654   0.537   0.899 -0.8255  0.0988 -0.3581
  466MOL0     C64228   5.660   0.574   1.034 -0.0228  0.0459 -1.0182
  466MOL0     O64229   5.552   0.573   1.117  0.1836  0.3578  0.3611
  466MOL0     C64230   5.476   0.692   1.118  0.0501 -0.4565 -0.3955
  466MOL0     C64231   5.332   0.667   1.088 -0.7437  0.0940  0.5174
  466MOL0     C64232   5.258   0.796   1.088  0.8345  0.3349 -0.5000
  466MOL0     C64233   5.103   0.781   1.077 -0.4139 -0.0209  0.7780
  466MOL0     C64234   5.070   0.713   1.202  0.9844 -0.8935 -0.2244
  466MOL0     C64235   5.040   0.674   1.315 -0.0767 -0.1971 -0.1913
  466MOL0     C64236   5.784   0.598   1.083 -0.1710 -0.5329 -0.5290
  466MOL0     C64237   5.902   0.588   1.006 -0.1190  0.7428  0.7106
  466MOL0     C64238   6.032   0.625   1.065 -0.2461 -0.0657 -0.5915
  466MOL0     H64239   6.387   0.498   0.843 -0.5753  0.1580  0.6693
  466MOL0     H64240   6.562   0.493   0.670 -0.1547 -0.7406  0.3995
  466MOL0     H64241   6.695   0.498   0.491  2.1900  0.9896  0.1856
  466MOL0     H64242   6.678   0.673   0.520  0.4383  0.8154 -1.0087
  466MOL0     H64243   6.724   0.540   0.253  2.5254 -0.1466 -0.1305
  466MOL0     H64244   6.727   0.725   0.287  0.0407  2.0079  2.0439
  466MOL0     H64245   6.924   0.677   0.444  2.5055 -1.2955  0.7989
  466MOL0     H64246   6.908   0.506   0.406 -0.5247  0.8248  2.0732
  466MOL0     H64247   6.991   0.741   0.237 -0.7820  0.5465  0.3067
  466MOL0     H64248   7.103   0.615   0.280 -0.5499  1.0921  0.0960
  466MOL0     H64249   7.026   0.617   0.037  3.2874 -0.6222  1.1074
  466MOL0     H64250   6.864   0.581   0.096  0.4627  0.7680 -0.5203
  466MOL0     H64251   7.104   0.394   0.143 -0.7811 -0.8298 -0.0324
  466MOL0     H64252   6.949   0.366   0.211 -1.9335 -0.6530 -0.7357
  466MOL0     H64253   7.004   0.244   0.009  1.8065  1.7677  2.6712
  466MOL0     H64254   7.023   0.382  -0.084  0.9353  0.7655  1.2514
  466MOL0     H64255   6.764   0.427  -0.053  0.8729 -0.0983 -0.8384
  466MOL0     H64256   6.795   0.273  -0.135 -1.5424 -0.1663  0.0488
  466MOL0     H64257   6.601   0.409   0.143  1.7969 -0.1888  0.7950
  466MOL0     H64258   6.488   0.206   0.401  1.0011  1.6112  0.1386
  466MOL0     H64259   6.401   0.108   0.285 -2.4442  0.9753  0.3815
  466MOL0     H64260   6.384   0.415   0.289 -1.3161  0.5648 -0.5753
  466MOL0     H64261   6.292   0.301   0.191 -0.6303  1.9846  1.2141
  466MOL0     H64262   6.304   0.329   0.479  1.1095  0.1804 -0.5767
  466MOL0     H64263   6.167   0.383   0.385  1.4650  0.5892 -1.5410
  466MOL0     H64264   6.232   0.091   0.446 -1.4909 -1.2521  1.0749
  466MOL0     H64265   6.099   0.198   0.498 -0.4148 -0.4579 -0.0486
  466MOL0     H64266   5.961   0.336   0.433  0.6258  0.8218 -1.2990
  466MOL0     H64267   5.618   0.399   0.453  0.0479  1.1347 -0.3175
  466MOL0     H64268   5.733   0.506   0.365  1.5389 -0.2599 -0.2629
  466MOL0     H64269   5.780   0.427   0.517 -0.9201  1.2364 -0.4212
  466MOL0     H64270   5.311   0.267   0.342 -3.4011  0.7056  1.1132
  466MOL0     H64271   5.067   0.317   0.315  0.6720  0.2071  1.1136
  466MOL0     H64272   4.922   0.369  -0.032  3.4180  0.8974  1.3243
  466MOL0     H64273   4.912   0.289   0.135 -1.8192  0.3275  1.2059
  466MOL0     H64274   4.728   0.425   0.194 -1.0079  1.5152 -0.6842
  466MOL0     H64275   4.729   0.505   0.044 -0.7445 -0.2546  1.0449
  466MOL0     H64276   4.671   0.205   0.100 -3.6706 -2.6637 -1.2924
  466MOL0     H64277   4.671   0.263  -0.066 -0.9089 -2.1238  1.1196
  466MOL0     H64278   4.514   0.421  -0.003  2.0429 -0.8316 -1.0845
  466MOL0     H64279   4.490   0.340   0.158 -0.8746  0.7799  0.2307
  466MOL0     H64280   4.472   0.171  -0.089  4.1153  1.9036  0.4215
  466MOL0     H64281   4.424   0.135   0.074 -1.0283  1.8494 -0.0533
  466MOL0     H64282   4.298   0.344  -0.093  2.3640  0.9143  1.0957
  466MOL0     H64283   4.244   0.329   0.066 -0.4290  0.0557 -0.6981
  466MOL0     H64284   4.185   0.065  -0.008  1.2962 -1.6779 -2.5575
  466MOL0     H64285   4.212   0.124  -0.168  0.6638 -1.2424  1.1599
  466MOL0     H64286   3.979   0.167  -0.104 -0.1995  0.5538 -1.2244
  466MOL0     H64287   4.061   0.323  -0.112 -1.1265 -0.9829 -0.7332
  466MOL0     H64288   5.156   0.604   0.007  1.1452  1.4160  0.6527
  466MOL0     H64289   5.413   0.566   0.058 -1.9185  2.6103 -1.4904
  466MOL0     H64290   5.707   0.081   0.088  0.7239  3.3263 -2.0024
  466MOL0     H64291   5.943   0.026   0.132  1.3188  0.8511 -0.4098
  466MOL0     H64292   6.296   0.670   0.386 -3.2400 -1.4352 -0.5339
  466MOL0     H64293   6.112   0.685   0.554  0.5455 -1.6581 -1.0912
  466MOL0     H64294   5.762   0.465   0.724  3.2826  0.0324 -0.6938
  466MOL0     H64295   5.551   0.516   0.872 -1.0018 -1.2543  1.2152
  466MOL0     H64296   5.479   0.741   1.216 -2.9493  1.5095 -1.1447
  466MOL0     H64297   5.518   0.757   1.041 -1.8814 -1.0705 -2.0543
  466MOL0     H64298   5.301   0.589   1.157 -2.7162 -1.4912 -1.9649
  466MOL0     H64299   5.317   0.612   0.994 -5.3955 -1.9462  2.1809
  466MOL0     H64300   5.289   0.854   1.176 -0.6574 -1.0171  0.9805
  466MOL0     H64301   5.299   0.837   0.995  1.7440 -1.4532 -0.9311
  466MOL0     H64302   5.068   0.731   0.986 -1.7428  1.9599  0.1172
  466MOL0     H64303   5.048   0.875   1.090  0.6086  0.3954  2.4054
  466MOL0     H64304   5.023   0.636   1.414  2.5917  2.2206  1.3389
  466MOL0     H64305   5.794   0.635   1.185  2.4071 -1.2958 -0.4102
  466MOL0     H64306   6.099   0.539   1.052  0.5494  0.4179  0.1295
  466MOL0     H64307   6.070   0.714   1.014  0.2967  0.3575  0.5068
  466MOL0     H64308   6.025   0.637   1.174 -1.0950 -1.9296 -0.4015
  467MOL0     O64309   8.883   0.778   6.028 -0.1850  0.7164 -0.1722
  467MOL0     C64310   8.781   0.771   6.095  0.6459 -0.1560  0.2428
  467MOL0     O64311   8.766   0.732   6.221  0.3372 -0.5242  0.2505
  467MOL0     C64312   8.879   0.713   6.297 -0.0296  0.1210  0.4710
  467MOL0     C64313   8.926   0.588   6.314 -0.4844  1.5779  0.9257
  467MOL0     C64314   9.042   0.566   6.383  0.6598 -0.3887 -0.6625
  467MOL0     C64315   9.109   0.668   6.457  0.4987 -0.6276  0.5594
  467MOL0     O64316   9.225   0.650   6.520 -0.6378 -0.3206 -0.7168
  467MOL0     C64317   9.231   0.673   6.658  0.2604  0.4444 -0.2787
  467MOL0     C64318   9.363   0.640   6.724 -0.0358 -0.4574 -0.1560
  467MOL0     C64319   9.385   0.485   6.731  0.3285 -0.4451 -0.0359
  467MOL0     C64320   9.514   0.440   6.803 -0.0214 -0.0234  1.1368
  467MOL0     C64321   9.515   0.284   6.792  0.0597  0.5031  0.4006
  467MOL0     C64322   9.524   0.225   6.656  0.0999 -0.3832  0.2865
  467MOL0     C64323   9.549   0.078   6.673  0.3075 -0.3592  0.2937
  467MOL0     C64324   9.546   0.003   6.541  0.1754 -0.5115  0.5626
  467MOL0     N64325   9.612  -0.120   6.569  0.3925  0.9008 -0.5234
  467MOL0     C64326   9.733  -0.141   6.515  0.5386 -0.2474 -0.5867
  467MOL0     C64327   9.762  -0.275   6.539 -1.0099 -0.5458 -0.2432
  467MOL0     C64328   9.880  -0.357   6.485  0.2749 -0.0816  0.4230
  467MOL0     C64329  10.015  -0.276   6.499  0.1583  1.2289 -0.5352
  467MOL0     C64330  10.118  -0.388   6.501  0.1562 -1.2505 -0.0392
  467MOL0     C64331  10.263  -0.338   6.529  0.1899 -0.1346 -0.2228
  467MOL0     O64332  10.285  -0.260   6.412 -0.2079 -0.1168  0.2172
  467MOL0     C64333  10.390  -0.176   6.419  0.7801 -0.4243 -0.4130
  467MOL0     C64334  10.520  -0.229   6.387 -0.0333  0.1376  0.2376
  467MOL0     C64335  10.630  -0.149   6.365 -0.5147  0.7359 -0.3844
  467MOL0     C64336  10.765  -0.223   6.357  0.3300 -0.7083 -0.4774
  467MOL0     C64337  10.618  -0.010   6.383 -0.8102  0.5401  0.2994
  467MOL0     C64338  10.730   0.082   6.374  0.7003 -1.0247  0.3373
  467MOL0     O64339  10.711   0.208   6.419  0.6666 -0.0129  0.3450
  467MOL0     C64340  10.798   0.318   6.408 -0.2144  0.6012  0.0506
  467MOL0     C64341  10.768   0.421   6.495  0.3523 -0.0116  0.3136
  467MOL0     C64342  10.846   0.537   6.498  1.0154  0.1902 -0.2190
  467MOL0     C64343  10.961   0.554   6.422  0.6335  0.4291 -0.4586
  467MOL0     O64344  11.031   0.672   6.434 -0.4848 -0.0276 -0.2980
  467MOL0     C64345  11.158   0.694   6.367 -0.0035  0.8627  1.0991
  467MOL0     C64346  11.135   0.753   6.223  0.0633 -0.1867  0.7623
  467MOL0     C64347  11.266   0.725   6.152 -0.5846  0.1144  0.6099
  467MOL0     C64348  11.292   0.806   6.025  1.0627 -0.2266 -0.6710
  467MOL0     C64349  11.434   0.784   5.966  0.1584  0.5371 -0.6983
  467MOL0     C64350  11.434   0.842   5.827 -0.5433  0.1997 -0.0480
  467MOL0     C64351  11.580   0.829   5.778 -0.5486 -0.2369  0.0301
  467MOL0     C64352  11.607   0.913   5.655 -0.0472 -0.1995  0.0922
  467MOL0    Cl64353  11.628   0.800   5.522 -0.2075  0.1158 -0.1534
  467MOL0     C64354  10.994   0.446   6.330  0.5373  0.3566 -0.1059
  467MOL0     C64355  10.916   0.332   6.328  0.0496 -0.6429  0.5875
  467MOL0     O64356  10.833   0.038   6.324  0.3529 -0.1351  0.0171
  467MOL0     C64357  10.491   0.044   6.404  0.2728  0.0139 -0.4053
  467MOL0     C64358  10.378  -0.036   6.427 -0.2734 -0.5987  1.3029
  467MOL0     N64359   9.663  -0.331   6.612  0.5354  0.4554 -0.8919
  467MOL0     N64360   9.571  -0.238   6.634 -0.3928  0.0867 -0.1791
  467MOL0     C64361   9.058   0.796   6.448 -0.2042 -0.4635  0.3223
  467MOL0     C64362   8.935   0.815   6.381  0.4096  0.1299 -0.1580
  467MOL0     C64363   8.658   0.821   6.037 -0.4496 -0.6902 -0.4982
  467MOL0     C64364   8.540   0.770   6.073  0.3980  0.0198 -0.1173
  467MOL0     C64365   8.421   0.801   6.014  0.2855 -0.3573  0.3131
  467MOL0     C64366   8.414   0.899   5.915  0.2591  0.8971 -0.1677
  467MOL0     O64367   8.294   0.949   5.856  0.2897 -0.1862 -0.1847
  467MOL0     C64368   8.174   0.895   5.906  0.4260 -0.5629  0.5703
  467MOL0     C64369   8.054   0.979   5.843 -0.5792  0.1350 -0.3473
  467MOL0     C64370   8.055   1.131   5.882  0.5409 -0.8562 -0.1924
  467MOL0     C64371   7.945   1.212   5.819 -0.0652  0.0277 -0.3895
  467MOL0     C64372   7.816   1.184   5.882  0.2345 -0.0407  0.7838
  467MOL0     C64373   7.702   1.155   5.917  0.1737  0.2238  0.1802
  467MOL0     C64374   8.535   0.964   5.878  0.1640  0.3413 -0.0334
  467MOL0     C64375   8.661   0.929   5.943  0.6072 -0.5507 -0.2550
  467MOL0     C64376   8.784   1.027   5.936  0.5634  0.4061 -0.8552
  467MOL0     H64377   8.863   0.509   6.274  0.5810  1.7138 -1.2142
  467MOL0     H64378   9.082   0.466   6.401  1.9513  0.3392  0.7788
  467MOL0     H64379   9.156   0.619   6.716  2.1203 -0.1959  1.6937
  467MOL0     H64380   9.220   0.781   6.669  1.2242  0.7611 -2.1712
  467MOL0     H64381   9.448   0.676   6.666  1.4377 -2.6593  0.5430
  467MOL0     H64382   9.374   0.688   6.822  1.2651  3.0264 -1.8307
  467MOL0     H64383   9.300   0.441   6.783 -0.6280  0.2530 -0.9625
  467MOL0     H64384   9.383   0.454   6.626 -1.2775 -0.9622  0.1245
  467MOL0     H64385   9.595   0.493   6.753 -1.2931 -0.3807 -1.4850
  467MOL0     H64386   9.511   0.473   6.908 -3.5632  1.7193  0.6331
  467MOL0     H64387   9.428   0.242   6.843  0.0335  1.8796  1.5708
  467MOL0     H64388   9.603   0.255   6.848  0.0101 -0.2065  0.1189
  467MOL0     H64389   9.426   0.233   6.607  0.7958  0.4560 -1.0125
  467MOL0     H64390   9.601   0.278   6.600  1.7808  0.3782  3.1269
  467MOL0     H64391   9.485   0.028   6.746  0.3138 -1.1173 -0.2090
  467MOL0     H64392   9.651   0.064   6.711 -0.1420 -0.9832  1.3000
  467MOL0     H64393   9.442  -0.008   6.509 -0.0856  2.7905  0.0269
  467MOL0     H64394   9.591   0.060   6.459 -1.0449 -0.3223  0.0094
  467MOL0     H64395   9.788  -0.063   6.464  1.2281  1.0530  2.0109
  467MOL0     H64396   9.866  -0.393   6.383 -0.3056 -1.0631  0.8405
  467MOL0     H64397   9.873  -0.448   6.545 -1.2263 -3.1921 -4.0350
  467MOL0     H64398  10.035  -0.208   6.416  1.1581  2.4380  0.6414
  467MOL0     H64399  10.024  -0.229   6.598  2.0720  0.1031 -0.1319
  467MOL0     H64400  10.089  -0.451   6.585  1.8559 -0.8364  0.8995
  467MOL0     H64401  10.135  -0.446   6.410  0.3281  1.0612 -1.5492
  467MOL0     H64402  10.258  -0.283   6.623 -1.5526 -0.4507 -0.0952
  467MOL0     H64403  10.336  -0.418   6.546  0.8291  0.3391 -0.7101
  467MOL0     H64404  10.544  -0.334   6.377  1.8889  0.5080  0.5025
  467MOL0     H64405  10.830  -0.198   6.441  0.7170 -1.0815 -0.6561
  467MOL0     H64406  10.811  -0.196   6.261 -2.1427 -2.3210 -2.2226
  467MOL0     H64407  10.757  -0.332   6.368 -2.9738 -0.3160  2.5257
  467MOL0     H64408  10.679   0.416   6.558  1.2131 -2.8645  1.4451
  467MOL0     H64409  10.817   0.620   6.562  3.9442  1.0863  0.1056
  467MOL0     H64410  11.218   0.775   6.409  0.6844  1.7141 -1.3801
  467MOL0     H64411  11.220   0.603   6.371 -0.7240  0.1901 -1.4449
  467MOL0     H64412  11.052   0.715   6.163  0.1418  2.5048 -1.2335
  467MOL0     H64413  11.121   0.861   6.226  2.6932  0.2297  0.3906
  467MOL0     H64414  11.275   0.620   6.123 -0.5288  0.5721 -1.1194
  467MOL0     H64415  11.348   0.753   6.219 -0.2751 -1.7318  1.0650
  467MOL0     H64416  11.269   0.909   6.053 -0.0691 -1.3731  3.1807
  467MOL0     H64417  11.213   0.771   5.958  0.6138 -1.0543  0.2631
  467MOL0     H64418  11.504   0.839   6.030  2.5344 -0.8758 -1.9445
  467MOL0     H64419  11.440   0.675   5.959  0.1424  0.5361 -0.6947
  467MOL0     H64420  11.402   0.946   5.831 -1.0664  0.0202  1.0091
  467MOL0     H64421  11.372   0.777   5.764  1.3839 -1.1987 -0.5907
  467MOL0     H64422  11.615   0.726   5.772  1.4875  0.3132  1.2544
  467MOL0     H64423  11.625   0.877   5.866 -1.8767  1.3775 -0.1011
  467MOL0     H64424  11.705   0.957   5.675 -0.2158 -0.7458  2.4376
  467MOL0     H64425  11.532   0.992   5.644  2.1769  1.9335 -0.7700
  467MOL0     H64426  11.085   0.450   6.271  1.3279  0.0053  1.0625
  467MOL0     H64427  10.940   0.248   6.265  1.3005 -1.7273  2.3937
  467MOL0     H64428  10.475   0.151   6.408  0.8787  0.0962 -0.0618
  467MOL0     H64429  10.280   0.008   6.437  0.8157  1.9858  1.4802
  467MOL0     H64430   9.114   0.858   6.516  0.0669  0.0560 -0.3612
  467MOL0     H64431   8.892   0.914   6.374  0.5989  0.1567 -1.1229
  467MOL0     H64432   8.542   0.693   6.149  0.4173 -0.3612 -0.5019
  467MOL0     H64433   8.333   0.747   6.048  0.1219 -0.0103  0.4487
  467MOL0     H64434   8.167   0.789   5.877  1.1013 -0.2771 -0.7237
  467MOL0     H64435   8.174   0.901   6.015 -0.5454  2.6585  0.4870
  467MOL0     H64436   7.963   0.937   5.889  0.8190 -0.8383  1.6751
  467MOL0     H64437   8.059   0.960   5.735 -2.3233 -1.0658 -0.2684
  467MOL0     H64438   8.053   1.133   5.992  0.6661 -0.7721 -0.1913
  467MOL0     H64439   8.148   1.182   5.855 -1.3807  1.6988 -2.4326
  467MOL0     H64440   7.938   1.194   5.711  0.7760  1.4457 -0.7062
  467MOL0     H64441   7.965   1.317   5.839 -0.6871  0.1799 -0.5561
  467MOL0     H64442   7.603   1.127   5.949  0.2940 -2.3636 -1.4095
  467MOL0     H64443   8.537   1.042   5.803  1.5384 -0.4712 -0.8736
  467MOL0     H64444   8.873   0.981   5.891 -0.5276 -1.7718 -0.9044
  467MOL0     H64445   8.757   1.125   5.896 -2.1395  0.3153  0.5160
  467MOL0     H64446   8.798   1.044   6.043  0.3333  0.8955 -0.9036
  468MOL0     O64447   6.334   7.861   8.423  0.0021 -0.1922  0.6549
  468MOL0     C64448   6.252   7.949   8.438  0.1854  0.2925 -0.0550
  468MOL0     O64449   6.283   8.068   8.471 -0.3194 -0.7824  0.1819
  468MOL0     C64450   6.421   8.093   8.495 -1.0981 -0.6296  1.4186
  468MOL0     C64451   6.503   8.080   8.381  0.4367  0.4064  0.0733
  468MOL0     C64452   6.634   8.126   8.394  0.1869  0.2783  0.8627
  468MOL0     C64453   6.692   8.198   8.496  0.8222 -0.0819 -0.2442
  468MOL0     O64454   6.823   8.237   8.500 -0.0746  0.6191  0.1198
  468MOL0     C64455   6.925   8.183   8.412 -0.6341 -0.2165  0.2560
  468MOL0     C64456   7.062   8.153   8.486 -0.3568 -1.1588  0.3453
  468MOL0     C64457   7.179   8.184   8.398 -0.0500 -0.2118 -0.1983
  468MOL0     C64458   7.298   8.239   8.471 -0.0364  0.5433  0.6351
  468MOL0     C64459   7.417   8.260   8.378  0.3667  1.2461  0.1034
  468MOL0     C64460   7.548   8.294   8.453  0.7129  0.2640  0.1000
  468MOL0     C64461   7.654   8.340   8.347  0.0847  0.6261  0.4355
  468MOL0     C64462   7.777   8.404   8.401 -0.5113 -0.7394 -0.7690
  468MOL0     N64463   7.870   8.441   8.294  0.2815  0.3093  0.4143
  468MOL0     C64464   7.922   8.350   8.201  0.6601  0.8635 -0.6720
  468MOL0     C64465   8.031   8.409   8.145 -0.0922  0.1597  0.5163
  468MOL0     C64466   8.121   8.373   8.030 -0.2835  0.1793 -0.0088
  468MOL0     C64467   8.259   8.333   8.072  0.6844  0.6035 -0.6721
  468MOL0     C64468   8.353   8.395   7.964  1.3116 -0.3964  0.5124
  468MOL0     C64469   8.497   8.358   7.982  0.3487 -0.0506 -0.1628
  468MOL0     O64470   8.567   8.407   7.870 -0.6359 -1.1211  0.1666
  468MOL0     C64471   8.710   8.402   7.850  1.4169  0.2880  0.2793
  468MOL0     C64472   8.761   8.442   7.733 -0.3089  0.3789  1.0650
  468MOL0     C64473   8.893   8.421   7.699  0.1129 -0.2418  1.1923
  468MOL0     C64474   8.930   8.472   7.560 -0.5105  0.1304 -0.3581
  468MOL0     C64475   8.985   8.359   7.790  1.1610  0.1350 -0.8281
  468MOL0     C64476   9.129   8.326   7.762 -0.6868  0.2050 -0.2869
  468MOL0     O64477   9.194   8.249   7.858  0.2368  0.4108 -0.0698
  468MOL0     C64478   9.311   8.198   7.817 -0.2932  0.0960  0.6990
  468MOL0     C64479   9.303   8.072   7.752  0.3811  0.7357 -0.3817
  468MOL0     C64480   9.421   8.000   7.716  0.0196  0.7771  0.0909
  468MOL0     C64481   9.546   8.062   7.743 -0.1987  0.2023  0.0732
  468MOL0     O64482   9.658   7.989   7.735  0.6323 -0.0811  0.2813
  468MOL0     C64483   9.670   7.884   7.635  0.6847  0.1236 -0.1946
  468MOL0     C64484   9.817   7.867   7.598  0.4683 -0.0129 -0.1174
  468MOL0     C64485   9.829   7.815   7.449 -0.3546  0.5015 -0.5518
  468MOL0     C64486   9.969   7.844   7.406 -0.5732 -0.6815  0.7201
  468MOL0     C64487   9.978   7.815   7.259  0.0512 -1.2420  1.1195
  468MOL0     C64488   9.994   7.668   7.224  0.7936  0.2886 -0.3902
  468MOL0     C64489  10.105   7.602   7.307  0.3465  0.0761 -0.2161
  468MOL0     C64490  10.135   7.468   7.246 -0.7894  0.8109 -0.0259
  468MOL0    Cl64491  10.278   7.396   7.318  0.1455 -0.1934  0.0876
  468MOL0     C64492   9.554   8.196   7.795 -0.0942  1.0836 -0.7511
  468MOL0     C64493   9.432   8.265   7.831  0.6239  0.6082  0.2080
  468MOL0     O64494   9.185   8.365   7.657  0.0877  0.3040 -0.5493
  468MOL0     C64495   8.930   8.321   7.915  0.6969 -0.0252  0.8517
  468MOL0     C64496   8.799   8.346   7.943 -0.1762 -0.5704 -0.2975
  468MOL0     N64497   8.053   8.530   8.219  1.0462 -0.4259  0.0193
  468MOL0     N64498   7.951   8.551   8.301  0.2467 -0.1142 -0.3752
  468MOL0     C64499   6.603   8.203   8.606 -0.7040  0.2505 -0.2607
  468MOL0     C64500   6.470   8.160   8.604 -0.3691 -0.2275 -0.3981
  468MOL0     C64501   6.120   7.915   8.398 -0.6854 -0.2924 -0.4307
  468MOL0     C64502   6.059   7.994   8.301 -0.2538 -0.3899  0.0773
  468MOL0     C64503   5.937   7.950   8.260 -0.0281 -0.0189 -1.1781
  468MOL0     C64504   5.872   7.841   8.316  0.5508 -0.2144 -0.6348
  468MOL0     O64505   5.755   7.804   8.267  0.2492  0.7208 -0.0804
  468MOL0     C64506   5.654   7.739   8.344 -0.0160  0.1599  0.7092
  468MOL0     C64507   5.601   7.815   8.460  0.2955  0.5485  1.1770
  468MOL0     C64508   5.481   7.744   8.525  0.4822 -0.2034  0.5218
  468MOL0     C64509   5.438   7.814   8.654 -0.4380  0.1637 -0.1913
  468MOL0     C64510   5.399   7.956   8.634 -0.0014 -0.2232 -0.2167
  468MOL0     C64511   5.354   8.072   8.614  1.5347  1.5990  0.2032
  468MOL0     C64512   5.935   7.758   8.416  0.0145 -0.4021  0.0788
  468MOL0     C64513   6.062   7.806   8.466  0.7570 -0.7166  0.3730
  468MOL0     C64514   6.111   7.729   8.587  0.2998  0.0298 -0.1199
  468MOL0     H64515   6.471   8.033   8.288  1.3216 -2.9506  1.3575
  468MOL0     H64516   6.697   8.120   8.306 -0.5966 -1.1322  0.3677
  468MOL0     H64517   6.944   8.258   8.335  0.6703 -0.9912 -0.2149
  468MOL0     H64518   6.894   8.096   8.354 -2.3845  1.2078 -1.0368
  468MOL0     H64519   7.073   8.214   8.576 -0.9978 -3.1345  1.8296
  468MOL0     H64520   7.075   8.048   8.511 -0.3792 -0.6989  2.4545
  468MOL0     H64521   7.202   8.087   8.354 -1.6072 -1.0705  0.8044
  468MOL0     H64522   7.153   8.252   8.316  0.4856  0.9778  0.5838
  468MOL0     H64523   7.271   8.333   8.520  1.7909  1.4634 -0.0071
  468MOL0     H64524   7.326   8.169   8.550 -0.1142  0.4840  0.6094
  468MOL0     H64525   7.387   8.322   8.293  0.2895 -1.0894 -1.6754
  468MOL0     H64526   7.436   8.165   8.328 -2.5161  0.6026  0.0153
  468MOL0     H64527   7.540   8.385   8.513  0.9696  3.2713 -3.9887
  468MOL0     H64528   7.582   8.210   8.515  0.5860  2.3041  3.1765
  468MOL0     H64529   7.605   8.411   8.280  0.3621 -1.3626 -2.0279
  468MOL0     H64530   7.674   8.256   8.281 -1.5618  3.3636 -3.9668
  468MOL0     H64531   7.756   8.506   8.437  2.6674  0.4727 -1.9315
  468MOL0     H64532   7.826   8.353   8.484  1.0797 -0.2678 -1.3873
  468MOL0     H64533   7.888   8.250   8.179  0.1556  1.1351 -1.1626
  468MOL0     H64534   8.130   8.460   7.964  0.6320  0.4648  0.4731
  468MOL0     H64535   8.089   8.284   7.975  3.1647 -2.0889  1.3245
  468MOL0     H64536   8.290   8.363   8.173  1.8238  0.7637 -1.0649
  468MOL0     H64537   8.263   8.223   8.068  1.2618  0.6683 -2.3340
  468MOL0     H64538   8.316   8.354   7.870 -2.8114  1.9724  0.8518
  468MOL0     H64539   8.339   8.504   7.967 -0.0360 -0.5353  0.1505
  468MOL0     H64540   8.545   8.397   8.072  1.1133 -1.6000  0.1469
  468MOL0     H64541   8.514   8.250   7.982  0.6520 -0.0036 -0.4059
  468MOL0     H64542   8.704   8.493   7.656  1.7457  2.7281  0.9560
  468MOL0     H64543   9.029   8.518   7.563  0.2342 -1.4422 -0.1602
  468MOL0     H64544   8.863   8.553   7.527  1.1286  1.4475 -0.5763
  468MOL0     H64545   8.928   8.390   7.487  0.0223 -0.5202  0.3472
  468MOL0     H64546   9.206   8.025   7.745  0.0996  1.3466 -0.6199
  468MOL0     H64547   9.403   7.903   7.671 -2.6189  0.7017  1.1636
  468MOL0     H64548   9.638   7.787   7.675 -0.2371 -0.3511 -1.9836
  468MOL0     H64549   9.613   7.907   7.545  1.0555  1.0229 -0.2065
  468MOL0     H64550   9.868   7.963   7.611  1.0444 -0.1275 -1.3921
  468MOL0     H64551   9.866   7.800   7.670 -0.3074  1.1491  1.5524
  468MOL0     H64552   9.741   7.838   7.388  0.4628 -1.1550 -2.4923
  468MOL0     H64553   9.823   7.706   7.455  0.1571  0.5791  2.6842
  468MOL0     H64554  10.031   7.784   7.473 -2.7417 -3.3054  0.5626
  468MOL0     H64555   9.995   7.950   7.402  1.8955 -1.2435 -2.4481
  468MOL0     H64556   9.902   7.870   7.203 -0.8616 -1.2990  2.2731
  468MOL0     H64557  10.074   7.858   7.232 -0.8980  0.9792  1.0685
  468MOL0     H64558  10.029   7.672   7.120  1.8719 -1.7594 -0.1766
  468MOL0     H64559   9.904   7.606   7.224 -0.8075  2.5096 -0.2894
  468MOL0     H64560  10.079   7.592   7.413  2.7400  0.6396  0.4768
  468MOL0     H64561  10.190   7.670   7.293 -2.2356  3.3715 -1.1738
  468MOL0     H64562  10.161   7.479   7.140  2.3125 -1.6551  0.3383
  468MOL0     H64563  10.044   7.409   7.261  0.1859 -1.0124 -0.9024
  468MOL0     H64564   9.643   8.251   7.825  0.2916  0.2164 -0.2510
  468MOL0     H64565   9.428   8.355   7.891  0.8737  1.0790 -0.4741
  468MOL0     H64566   8.986   8.272   7.995 -1.1629  2.0705  3.6372
  468MOL0     H64567   8.762   8.307   8.038  0.5143 -1.8400 -0.5238
  468MOL0     H64568   6.645   8.249   8.696 -0.2886 -0.2768 -0.1834
  468MOL0     H64569   6.402   8.164   8.689  0.9132  0.2597  0.6455
  468MOL0     H64570   6.108   8.084   8.264  1.5301  0.0287  3.1440
  468MOL0     H64571   5.880   8.002   8.183 -1.3460  2.7763  1.5005
  468MOL0     H64572   5.572   7.727   8.272  0.3979 -0.9621  0.3981
  468MOL0     H64573   5.685   7.637   8.369 -3.6299 -1.2224  0.0890
  468MOL0     H64574   5.576   7.915   8.423 -0.8498  0.0976  0.6890
  468MOL0     H64575   5.677   7.819   8.539  0.5418 -0.8477  1.0400
  468MOL0     H64576   5.397   7.732   8.456  0.9019 -0.3691  0.0322
  468MOL0     H64577   5.516   7.643   8.545 -0.2801 -1.3163 -3.0533
  468MOL0     H64578   5.524   7.807   8.722 -1.2887 -0.7969  0.8254
  468MOL0     H64579   5.346   7.773   8.698 -1.5046  1.5268 -1.0695
  468MOL0     H64580   5.294   8.161   8.605  0.4249  0.8528  0.0590
  468MOL0     H64581   5.885   7.670   8.456  0.8407 -0.8602  0.1291
  468MOL0     H64582   6.125   7.796   8.672  0.3910  1.0595 -0.9297
  468MOL0     H64583   6.041   7.651   8.619 -1.0350  1.8713  1.7405
  468MOL0     H64584   6.207   7.679   8.568 -1.3226 -2.4319 -2.8321
  469MOL0     O64585   6.201   0.329  10.945 -0.3881  0.0718 -1.0424
  469MOL0     C64586   6.134   0.326  10.849 -0.0261  0.5197  0.2082
  469MOL0     O64587   6.168   0.405  10.734  0.3561  0.0315  0.0109
  469MOL0     C64588   6.290   0.477  10.730  0.1731  0.2384 -0.1044
  469MOL0     C64589   6.389   0.453  10.634 -0.0668 -0.2981  0.5560
  469MOL0     C64590   6.510   0.524  10.637 -0.6942 -0.4357  0.2096
  469MOL0     C64591   6.532   0.625  10.727  0.1253  0.6770 -0.0906
  469MOL0     O64592   6.651   0.687  10.738  0.0966  0.5850  0.2915
  469MOL0     C64593   6.701   0.728  10.868 -0.0774  0.7881 -0.7888
  469MOL0     C64594   6.849   0.765  10.866 -0.0927 -0.0443 -1.2008
  469MOL0     C64595   6.871   0.875  10.763 -0.0094  0.2248  0.4168
  469MOL0     C64596   7.004   0.940  10.808 -1.0161 -0.2046 -1.2916
  469MOL0     C64597   7.071   1.023  10.697  0.5948  0.2065 -0.2516
  469MOL0     C64598   7.124   0.945  10.580  0.5976 -0.3315  0.4091
  469MOL0     C64599   7.220   1.033  10.496  1.2951  0.2405 -0.1928
  469MOL0     C64600   7.153   1.137  10.408  0.7660  0.2262  0.1028
  469MOL0     N64601   7.242   1.233  10.343  0.3840  0.1037 -0.0151
  469MOL0     C64602   7.322   1.211  10.235  0.5311 -0.1042  0.3442
  469MOL0     C64603   7.396   1.332  10.231  0.2649  0.8546 -0.1284
  469MOL0     C64604   7.481   1.369  10.122 -0.4823 -0.1293 -0.5836
  469MOL0     C64605   7.404   1.363   9.991  0.0574  0.5800 -0.1234
  469MOL0     C64606   7.478   1.425   9.873 -0.8170  0.3709 -0.3259
  469MOL0     C64607   7.387   1.459   9.758  0.7083 -0.3801 -0.0014
  469MOL0     O64608   7.288   1.358   9.715  0.0625  0.2368  0.1592
  469MOL0     C64609   7.327   1.232   9.685 -0.6551 -0.4755 -0.9132
  469MOL0     C64610   7.239   1.124   9.698  0.2507  0.3385 -0.1445
  469MOL0     C64611   7.270   0.990   9.664 -0.4671  0.5949 -0.1768
  469MOL0     C64612   7.152   0.894   9.677 -0.1685  0.5972 -0.3505
  469MOL0     C64613   7.407   0.966   9.615  0.2944 -0.4303  0.1443
  469MOL0     C64614   7.462   0.830   9.598  0.8588  0.4663  0.7057
  469MOL0     O64615   7.598   0.824   9.623 -0.5854  0.3661  0.3396
  469MOL0     C64616   7.687   0.730   9.574  0.1310  0.9568 -1.0221
  469MOL0     C64617   7.805   0.712   9.647  1.2623 -0.2854  0.5268
  469MOL0     C64618   7.907   0.621   9.609 -1.2368 -0.3111 -0.4068
  469MOL0     C64619   7.888   0.544   9.492  0.2094 -0.2506  0.3073
  469MOL0     O64620   7.975   0.466   9.422 -0.4517  0.0623 -1.2477
  469MOL0     C64621   8.091   0.438   9.495  0.1702  0.7977  0.4586
  469MOL0     C64622   8.183   0.330   9.427 -0.1205 -0.3395  0.8618
  469MOL0     C64623   8.299   0.291   9.517  0.0443  0.3272 -0.8765
  469MOL0     C64624   8.409   0.199   9.471 -0.8454 -0.6715 -0.1032
  469MOL0     C64625   8.491   0.275   9.362  0.1410 -0.5648 -0.1272
  469MOL0     C64626   8.604   0.188   9.295  0.2552  0.0161 -0.5974
  469MOL0     C64627   8.553   0.072   9.208  0.0961  0.1543  0.5988
  469MOL0     C64628   8.658  -0.039   9.198 -0.6860 -0.6132  0.6126
  469MOL0    Cl64629   8.802   0.031   9.120 -0.1662  0.1299  0.5478
  469MOL0     C64630   7.770   0.558   9.428  0.4375 -0.6211 -0.2682
  469MOL0     C64631   7.674   0.644   9.473 -0.4295  0.0886  0.5434
  469MOL0     O64632   7.395   0.739   9.544  0.3497 -0.4427  0.3035
  469MOL0     C64633   7.498   1.075   9.596 -0.2318  0.2577 -0.4290
  469MOL0     C64634   7.450   1.205   9.631 -1.3150 -0.1618 -0.4495
  469MOL0     N64635   7.351   1.424  10.325 -0.2375  0.0919  0.2770
  469MOL0     N64636   7.257   1.364  10.389 -0.2519  0.0177  0.0038
  469MOL0     C64637   6.424   0.658  10.815  0.4292 -0.3301 -0.1849
  469MOL0     C64638   6.317   0.574  10.821  0.5201  0.7537 -1.3735
  469MOL0     C64639   6.031   0.227  10.837 -0.0118  0.1544  0.1474
  469MOL0     C64640   6.000   0.170  10.704  0.0545  0.5305  0.2501
  469MOL0     C64641   5.900   0.069  10.699 -0.4729 -0.0866 -0.2835
  469MOL0     C64642   5.832   0.021  10.818 -0.1829 -0.5842  1.1739
  469MOL0     O64643   5.740  -0.073  10.797 -0.0469  0.2108 -0.3814
  469MOL0     C64644   5.638  -0.110  10.897 -0.6999  0.0895 -0.2603
  469MOL0     C64645   5.527  -0.199  10.835  0.5165 -1.2127 -0.5922
  469MOL0     C64646   5.443  -0.115  10.742  0.5708  0.1823  0.3122
  469MOL0     C64647   5.341  -0.204  10.668 -0.0279  0.5206 -0.5661
  469MOL0     C64648   5.225  -0.218  10.758  0.6847  0.3930  0.4502
  469MOL0     C64649   5.125  -0.223  10.822  0.5541  0.2631 -0.6318
  469MOL0     C64650   5.858   0.074  10.943  0.6615  0.1804  0.0964
  469MOL0     C64651   5.961   0.181  10.953 -0.0282  0.8200 -0.3544
  469MOL0     C64652   5.993   0.228  11.091 -0.7946  0.2117 -0.4516
  469MOL0     H64653   6.380   0.363  10.574  0.8758  0.2071 -0.3571
  469MOL0     H64654   6.591   0.500  10.568 -2.2481 -1.2226 -1.4082
  469MOL0     H64655   6.691   0.647  10.941 -0.7652  0.5713 -1.1085
  469MOL0     H64656   6.644   0.812  10.908  1.0627  2.0318 -1.7204
  469MOL0     H64657   6.866   0.819  10.960 -0.1065  1.5917 -2.0997
  469MOL0     H64658   6.916   0.682  10.845  0.5801  0.5601 -1.4725
  469MOL0     H64659   6.884   0.838  10.661  0.5938  0.8452  0.2639
  469MOL0     H64660   6.796   0.955  10.760 -0.4155 -0.1816 -2.4100
  469MOL0     H64661   6.982   1.009  10.890  3.7460 -0.8407  0.8160
  469MOL0     H64662   7.076   0.867  10.846 -1.2246 -0.2126 -0.9117
  469MOL0     H64663   7.159   1.053  10.753  1.1203 -0.3581 -0.7600
  469MOL0     H64664   7.004   1.102  10.660  0.8233 -0.5402 -2.4139
  469MOL0     H64665   7.183   0.859  10.612  2.7221  0.6867 -0.5815
  469MOL0     H64666   7.045   0.911  10.513 -0.5690  1.1499  0.9804
  469MOL0     H64667   7.266   0.964  10.425 -0.0908  1.0880 -2.0036
  469MOL0     H64668   7.298   1.078  10.559  0.2167  1.3510  0.3972
  469MOL0     H64669   7.075   1.097  10.341  0.8790 -0.0885  0.1596
  469MOL0     H64670   7.094   1.198  10.478 -1.3015 -0.6834 -0.7749
  469MOL0     H64671   7.333   1.123  10.173  1.3740 -3.2294  4.4872
  469MOL0     H64672   7.565   1.299  10.115 -0.9327 -0.7159 -0.1705
  469MOL0     H64673   7.532   1.464  10.140  2.4807 -1.4809 -1.1757
  469MOL0     H64674   7.373   1.264   9.956 -0.0215  1.4008 -2.5806
  469MOL0     H64675   7.310   1.419   9.996  1.4974  3.4617 -2.2657
  469MOL0     H64676   7.532   1.513   9.908 -0.6770  0.1443  0.0334
  469MOL0     H64677   7.550   1.352   9.835 -0.2635  0.0795  1.2124
  469MOL0     H64678   7.324   1.543   9.788  0.9555 -0.1688 -0.0697
  469MOL0     H64679   7.442   1.493   9.669  2.7101 -0.6576  1.0728
  469MOL0     H64680   7.142   1.149   9.738  1.0376 -0.4098  2.3623
  469MOL0     H64681   7.174   0.792   9.643  0.5748  0.7479 -0.3488
  469MOL0     H64682   7.072   0.942   9.620  0.9850  1.8741 -0.9485
  469MOL0     H64683   7.118   0.892   9.781 -0.0116  2.3010 -0.2328
  469MOL0     H64684   7.822   0.778   9.732 -1.0373  0.7134  0.2844
  469MOL0     H64685   8.000   0.617   9.665 -1.4444  0.6049  0.0111
  469MOL0     H64686   8.155   0.522   9.523 -0.4658  0.9283  1.5816
  469MOL0     H64687   8.062   0.399   9.594  4.1864  1.4811  2.0952
  469MOL0     H64688   8.121   0.243   9.402 -1.1230  0.1373  1.6297
  469MOL0     H64689   8.220   0.386   9.340 -0.5243  4.2468  3.3471
  469MOL0     H64690   8.261   0.253   9.612  3.1355  0.1777  0.3996
  469MOL0     H64691   8.341   0.387   9.549 -0.4017  0.5999 -1.0900
  469MOL0     H64692   8.377   0.103   9.430 -1.6677 -0.8722  0.9814
  469MOL0     H64693   8.482   0.190   9.552 -0.5300  1.3011 -0.1074
  469MOL0     H64694   8.423   0.318   9.288 -1.9478 -2.7711  0.3744
  469MOL0     H64695   8.547   0.349   9.420  0.0037  0.6429 -1.4882
  469MOL0     H64696   8.683   0.159   9.365  0.2090 -0.1236 -0.6015
  469MOL0     H64697   8.661   0.256   9.231  3.0805 -0.0309  1.6649
  469MOL0     H64698   8.523   0.105   9.108 -2.4018  4.2120  2.4147
  469MOL0     H64699   8.464   0.026   9.252 -0.2296 -0.5755 -0.7689
  469MOL0     H64700   8.607  -0.119   9.144 -0.7880  1.1282 -2.0854
  469MOL0     H64701   8.687  -0.070   9.299  0.7758 -0.5222  0.2430
  469MOL0     H64702   7.733   0.507   9.340 -1.4148  1.5690 -0.8453
  469MOL0     H64703   7.588   0.634   9.408 -0.7839  0.1260  0.9981
  469MOL0     H64704   7.593   1.064   9.544  1.8002  2.1510  2.5979
  469MOL0     H64705   7.512   1.292   9.612 -2.0625  1.0082  2.0532
  469MOL0     H64706   6.433   0.724  10.900 -1.1824  0.9796 -0.9883
  469MOL0     H64707   6.249   0.588  10.905  0.3188  4.1224 -1.9678
  469MOL0     H64708   6.054   0.206  10.617  2.3823  2.9921  2.5214
  469MOL0     H64709   5.860   0.029  10.607  0.2520 -1.9967  0.1698
  469MOL0     H64710   5.682  -0.159  10.985  3.7095 -1.4439 -2.9818
  469MOL0     H64711   5.595  -0.015  10.928  1.1596  0.3250  1.9092
  469MOL0     H64712   5.463  -0.232  10.916  2.7556  1.2924  2.4494
  469MOL0     H64713   5.577  -0.282  10.783  1.2484  0.4771 -2.7797
  469MOL0     H64714   5.393  -0.038  10.802  1.7470 -0.0074  1.5732
  469MOL0     H64715   5.498  -0.056  10.668 -1.1709 -1.0172 -2.0516
  469MOL0     H64716   5.390  -0.301  10.656  2.2085  1.5784 -0.5157
  469MOL0     H64717   5.311  -0.165  10.570  0.5818 -0.2576 -1.0813
  469MOL0     H64718   5.035  -0.230  10.879  0.3307  1.7477 -0.7712
  469MOL0     H64719   5.818   0.049  11.040 -1.0842  4.6359  0.7562
  469MOL0     H64720   6.080   0.171  11.125 -1.2848 -1.7336 -2.2214
  469MOL0     H64721   6.010   0.336  11.097 -0.1782  0.1553 -0.9807
  469MOL0     H64722   5.915   0.213  11.166 -0.7750  0.1139 -0.4512
  470MOL0     O64723   3.006   0.374   3.580 -0.1560  0.2546 -0.3616
  470MOL0     C64724   3.025   0.461   3.661 -0.3231  0.2934 -0.2875
  470MOL0     O64725   3.122   0.453   3.766  0.7551 -0.1940  0.4584
  470MOL0     C64726   3.238   0.379   3.757 -0.2600  0.5217  0.2314
  470MOL0     C64727   3.317   0.391   3.875  0.1624  0.2786  0.4084
  470MOL0     C64728   3.429   0.310   3.888 -0.5118 -0.4335  0.9516
  470MOL0     C64729   3.469   0.217   3.798 -0.1442 -0.2156  0.0694
  470MOL0     O64730   3.582   0.144   3.810 -0.4624  0.4437 -0.0149
  470MOL0     C64731   3.575   0.004   3.795 -0.0474 -0.0473 -0.1028
  470MOL0     C64732   3.586  -0.051   3.939 -0.2341  0.3165 -0.4122
  470MOL0     C64733   3.707  -0.001   4.025  0.3045  0.1857  0.9466
  470MOL0     C64734   3.838  -0.079   3.996 -0.0968  0.3033 -0.8058
  470MOL0     C64735   3.942  -0.053   4.100 -1.1295 -0.1653 -0.2317
  470MOL0     C64736   3.994   0.091   4.096  0.0359  0.2730  0.1996
  470MOL0     C64737   3.911   0.187   4.187 -0.4978 -0.3845 -0.3220
  470MOL0     C64738   3.960   0.206   4.336  0.5218  1.2959  0.2496
  470MOL0     N64739   4.100   0.208   4.359 -0.3210 -0.0186 -0.0571
  470MOL0     C64740   4.173   0.328   4.347  0.1924 -0.0276 -0.0623
  470MOL0     C64741   4.292   0.295   4.412 -0.2368 -0.3690  0.8921
  470MOL0     C64742   4.407   0.385   4.454 -0.7525 -0.7431  1.0898
  470MOL0     C64743   4.485   0.412   4.321  0.1932 -0.3091 -0.6247
  470MOL0     C64744   4.607   0.502   4.352  0.1179  0.1053  0.2143
  470MOL0     C64745   4.678   0.548   4.223 -0.4633 -0.3452 -0.8131
  470MOL0     O64746   4.796   0.609   4.270 -0.0808 -0.3386  0.1961
  470MOL0     C64747   4.869   0.680   4.187  0.5980 -0.1268 -0.5842
  470MOL0     C64748   4.995   0.713   4.238 -0.2449 -0.3173 -0.0391
  470MOL0     C64749   5.089   0.790   4.172  0.7342 -1.0003 -0.6601
  470MOL0     C64750   5.218   0.835   4.248 -0.3277 -0.6855  0.9802
  470MOL0     C64751   5.052   0.832   4.040  0.3827 -0.7339  0.3969
  470MOL0     C64752   5.129   0.932   3.956 -0.2916  0.3330  0.4189
  470MOL0     O64753   5.075   0.966   3.833  0.5688  0.1262  0.2838
  470MOL0     C64754   5.153   1.000   3.723 -0.3411  0.0832 -0.1085
  470MOL0     C64755   5.295   0.972   3.693 -0.1167 -1.1617  0.0467
  470MOL0     C64756   5.350   1.028   3.571  0.8346 -0.8091  0.0188
  470MOL0     C64757   5.273   1.087   3.477 -0.4985  0.1866 -0.8230
  470MOL0     O64758   5.334   1.139   3.364  0.3032  0.0252  0.3715
  470MOL0     C64759   5.265   1.242   3.295 -0.1079 -0.4322  1.0499
  470MOL0     C64760   5.350   1.323   3.191  0.5987  0.0236 -0.4460
  470MOL0     C64761   5.414   1.226   3.097 -1.0697 -0.0611 -0.6747
  470MOL0     C64762   5.498   1.297   2.989 -0.3827  0.6925 -0.1531
  470MOL0     C64763   5.557   1.194   2.891  0.0846  0.4579  0.3123
  470MOL0     C64764   5.659   1.105   2.960  0.4342 -0.3641 -0.3956
  470MOL0     C64765   5.712   0.996   2.864 -0.5753 -0.7306  0.1495
  470MOL0     C64766   5.789   0.881   2.922  0.2607 -0.4240 -0.0978
  470MOL0    Cl64767   5.914   0.939   3.032  0.1793 -0.1753 -0.2985
  470MOL0     C64768   5.136   1.095   3.507  0.5769  0.1243  0.5005
  470MOL0     C64769   5.077   1.052   3.618  0.4152  0.3985 -0.8076
  470MOL0     O64770   5.243   0.962   3.995  0.2270  0.3772 -0.5253
  470MOL0     C64771   4.921   0.795   3.988  0.0743  0.1309 -0.7432
  470MOL0     C64772   4.827   0.725   4.065  0.2339  0.0761 -0.5278
  470MOL0     N64773   4.281   0.161   4.451 -0.4331  0.2937 -0.1359
  470MOL0     N64774   4.167   0.107   4.425  0.8339  0.1109 -0.4886
  470MOL0     C64775   3.388   0.207   3.684 -0.4692 -0.5401 -0.1493
  470MOL0     C64776   3.276   0.290   3.662 -0.5624 -0.0819 -0.1717
  470MOL0     C64777   2.928   0.564   3.670  0.1394 -0.4393 -0.1245
  470MOL0     C64778   2.889   0.607   3.796 -0.2254 -0.0768 -0.6195
  470MOL0     C64779   2.797   0.702   3.812  0.8921  0.1544  0.6430
  470MOL0     C64780   2.721   0.748   3.701  0.2856 -0.6517 -0.4339
  470MOL0     O64781   2.623   0.837   3.738  0.2173 -0.6326 -0.9279
  470MOL0     C64782   2.506   0.780   3.805  0.9184  0.7892 -0.0064
  470MOL0     C64783   2.409   0.736   3.690 -0.3121 -0.4728 -0.4299
  470MOL0     C64784   2.276   0.658   3.734 -0.3467  0.1560 -0.0356
  470MOL0     C64785   2.200   0.735   3.837 -0.1433 -0.0785  0.7986
  470MOL0     C64786   2.057   0.685   3.853 -0.4547 -0.1484  0.3430
  470MOL0     C64787   1.942   0.647   3.844 -0.0609  0.0607  0.8312
  470MOL0     C64788   2.758   0.719   3.575 -0.2441  0.3608 -0.1438
  470MOL0     C64789   2.863   0.620   3.553 -0.1338 -0.3478 -0.2205
  470MOL0     C64790   2.900   0.592   3.399  0.1736  0.0465 -1.2669
  470MOL0     H64791   3.283   0.451   3.959 -2.6587 -0.0681 -0.3510
  470MOL0     H64792   3.474   0.313   3.986 -1.6782 -1.1756  1.5297
  470MOL0     H64793   3.661  -0.033   3.738 -1.1512 -2.0059 -0.6081
  470MOL0     H64794   3.487  -0.040   3.745  0.7607 -1.5018 -0.3076
  470MOL0     H64795   3.497  -0.016   3.991 -0.2186 -0.5502  0.2060
  470MOL0     H64796   3.588  -0.160   3.938  3.0429  0.1648  3.0994
  470MOL0     H64797   3.727   0.106   4.012 -1.4534  0.3559 -0.6851
  470MOL0     H64798   3.675  -0.017   4.129 -2.6709 -1.0441 -0.0626
  470MOL0     H64799   3.813  -0.185   3.997  0.1365  0.2385  0.6819
  470MOL0     H64800   3.880  -0.058   3.897  0.8743 -2.9851 -1.2013
  470MOL0     H64801   4.035  -0.110   4.091  0.2281  1.8860  0.0810
  470MOL0     H64802   3.905  -0.089   4.197  0.9007 -0.6595  0.4206
  470MOL0     H64803   4.097   0.096   4.131 -0.0436  2.2753  0.2263
  470MOL0     H64804   3.994   0.120   3.990 -1.2058 -3.1583 -0.8933
  470MOL0     H64805   3.806   0.158   4.193 -1.4935  2.4710 -2.1374
  470MOL0     H64806   3.918   0.284   4.138  0.3946 -0.4634 -0.3733
  470MOL0     H64807   3.919   0.301   4.372 -0.1376  1.5226 -1.0798
  470MOL0     H64808   3.915   0.119   4.386  0.5937  0.4547 -1.1018
  470MOL0     H64809   4.139   0.428   4.322  1.5075  0.5128  0.2251
  470MOL0     H64810   4.467   0.329   4.526  2.1099  1.3747  0.5226
  470MOL0     H64811   4.370   0.481   4.492 -0.9791 -0.8256  1.0759
  470MOL0     H64812   4.520   0.315   4.285 -0.3913 -0.7625  0.0127
  470MOL0     H64813   4.431   0.456   4.237  0.8245  1.9266  0.0733
  470MOL0     H64814   4.566   0.588   4.406 -0.1187  0.1567 -0.0429
  470MOL0     H64815   4.676   0.453   4.421 -0.8235 -1.0937  0.3332
  470MOL0     H64816   4.698   0.471   4.148 -0.1042  0.1143 -1.1899
  470MOL0     H64817   4.613   0.627   4.185  1.4659  1.6670 -0.1076
  470MOL0     H64818   5.023   0.679   4.337  3.2223 -2.0127 -1.4210
  470MOL0     H64819   5.209   0.792   4.348 -2.3723  1.4839  1.8587
  470MOL0     H64820   5.220   0.945   4.252  1.4276 -0.6345 -0.2919
  470MOL0     H64821   5.304   0.797   4.192 -1.9467 -1.3741 -1.1908
  470MOL0     H64822   5.347   0.919   3.773 -1.7495 -1.4342  0.9655
  470MOL0     H64823   5.456   1.014   3.553  1.2404  0.0407  1.5499
  470MOL0     H64824   5.183   1.197   3.237  0.1724 -1.5901  1.5162
  470MOL0     H64825   5.233   1.317   3.368 -0.7508 -1.5181  1.9344
  470MOL0     H64826   5.276   1.380   3.134 -0.3901 -0.9651 -0.2117
  470MOL0     H64827   5.418   1.389   3.245  0.2050  0.2752 -0.2489
  470MOL0     H64828   5.322   1.180   3.060 -0.5905 -1.3534 -0.2926
  470MOL0     H64829   5.473   1.148   3.145 -0.1348  0.7797 -0.4106
  470MOL0     H64830   5.574   1.360   3.036  1.0054 -1.1298  0.1591
  470MOL0     H64831   5.438   1.360   2.923  1.3281  2.8635  0.2447
  470MOL0     H64832   5.480   1.135   2.840  2.8977  0.8621 -5.1814
  470MOL0     H64833   5.605   1.235   2.801  1.4742  0.1879  0.9052
  470MOL0     H64834   5.631   1.054   3.052  1.6785 -1.0566 -0.3751
  470MOL0     H64835   5.745   1.170   2.982 -1.2805  2.5228 -1.6697
  470MOL0     H64836   5.778   1.053   2.799  0.6908  0.9140  2.6959
  470MOL0     H64837   5.626   0.960   2.808  0.5484 -1.9858 -0.8362
  470MOL0     H64838   5.843   0.830   2.841 -1.4171 -0.7264 -1.0731
  470MOL0     H64839   5.724   0.812   2.977 -0.1631  0.5691  0.6672
  470MOL0     H64840   5.076   1.147   3.432  1.6872  0.9828  0.1831
  470MOL0     H64841   4.974   1.077   3.640  1.7214  4.1755  2.2770
  470MOL0     H64842   4.891   0.825   3.888  0.3878  0.0359 -0.8654
  470MOL0     H64843   4.736   0.699   4.012 -0.1421 -1.7966  0.9241
  470MOL0     H64844   3.418   0.136   3.608  0.6273  1.1151 -1.3345
  470MOL0     H64845   3.228   0.275   3.566 -0.2000 -3.0404  0.0186
  470MOL0     H64846   2.928   0.568   3.890 -0.1954 -0.8643 -0.9517
  470MOL0     H64847   2.753   0.731   3.907 -2.3739 -1.6578 -0.1615
  470MOL0     H64848   2.521   0.694   3.870 -1.3067 -1.3393 -2.1080
  470MOL0     H64849   2.455   0.862   3.856  1.0776  0.5759  0.4975
  470MOL0     H64850   2.466   0.672   3.621 -0.9568 -1.2892 -0.2228
  470MOL0     H64851   2.381   0.823   3.630 -1.0063 -0.7321 -0.4970
  470MOL0     H64852   2.222   0.613   3.651 -1.0807 -0.7726  0.9100
  470MOL0     H64853   2.298   0.562   3.782 -3.3502 -0.4071  0.4368
  470MOL0     H64854   2.207   0.834   3.792  0.3906 -0.2101  0.5811
  470MOL0     H64855   2.256   0.734   3.931  5.9057 -0.2101 -2.3205
  470MOL0     H64856   1.839   0.641   3.873 -0.7180  1.1737 -1.0911
  470MOL0     H64857   2.707   0.776   3.498  1.2943  2.5611  0.3590
  470MOL0     H64858   2.822   0.620   3.327 -0.5675  0.4984 -0.3106
  470MOL0     H64859   2.992   0.647   3.377  0.9409 -0.2544  0.9682
  470MOL0     H64860   2.922   0.485   3.387 -0.9479 -0.4142  0.4137
  471MOL0     O64861   6.476   7.286   9.190 -0.3678 -0.4485  0.3221
  471MOL0     C64862   6.603   7.269   9.198  0.4074  0.3852 -0.8200
  471MOL0     O64863   6.696   7.357   9.163  0.1263  0.6934 -0.5333
  471MOL0     C64864   6.655   7.483   9.141  1.0482 -1.2691  0.7722
  471MOL0     C64865   6.575   7.555   9.229 -0.5092  0.3686 -0.3932
  471MOL0     C64866   6.539   7.682   9.200 -0.4809  0.3368 -0.0145
  471MOL0     C64867   6.579   7.749   9.083  0.2704  0.2696 -0.0404
  471MOL0     O64868   6.522   7.876   9.065 -0.5197  0.0824 -0.2350
  471MOL0     C64869   6.570   7.955   8.953  0.2761  0.7670  0.8243
  471MOL0     C64870   6.509   8.092   8.974 -0.6154 -0.0472  0.0734
  471MOL0     C64871   6.508   8.153   9.116  0.7079  0.2174 -0.0004
  471MOL0     C64872   6.637   8.188   9.189 -0.4731  0.8692 -0.2559
  471MOL0     C64873   6.607   8.270   9.310 -0.0100  0.4267 -0.5099
  471MOL0     C64874   6.732   8.288   9.398 -0.4911 -0.2275  0.2712
  471MOL0     C64875   6.698   8.344   9.538 -0.9717 -0.7048  0.4357
  471MOL0     C64876   6.817   8.408   9.610 -0.7667  0.4188 -0.1393
  471MOL0     N64877   6.910   8.305   9.674 -0.0409 -0.0866  0.5234
  471MOL0     C64878   6.886   8.229   9.786  0.3462  0.8755  0.3624
  471MOL0     C64879   7.007   8.168   9.812 -0.3204  0.3231 -0.1343
  471MOL0     C64880   7.029   8.078   9.926  0.3277  0.6953  0.0350
  471MOL0     C64881   7.120   7.961   9.885  0.6177 -0.4540  0.1644
  471MOL0     C64882   7.138   7.845   9.986 -0.5944 -0.5949 -0.6585
  471MOL0     C64883   7.011   7.760  10.000  0.4882 -0.7268  0.0669
  471MOL0     O64884   6.967   7.689   9.882  0.3397  1.0179  0.6378
  471MOL0     C64885   7.048   7.585   9.851  0.4110 -0.1221  0.1086
  471MOL0     C64886   7.017   7.461   9.903 -0.1222  0.6374  0.7998
  471MOL0     C64887   7.103   7.351   9.887  0.5227  0.4979  0.9052
  471MOL0     C64888   7.084   7.225   9.963 -0.7323  0.7077 -0.6289
  471MOL0     C64889   7.212   7.370   9.802  0.0251 -0.0056  0.0934
  471MOL0     C64890   7.284   7.247   9.751 -0.3781 -0.5546  0.2451
  471MOL0     O64891   7.237   7.186   9.641 -0.5062 -0.1867  0.0253
  471MOL0     C64892   7.304   7.081   9.598 -0.1750  0.1137  0.4942
  471MOL0     C64893   7.444   7.079   9.568  0.1041  0.0908  0.2162
  471MOL0     C64894   7.501   6.963   9.522 -0.0728  0.1829  0.1669
  471MOL0     C64895   7.429   6.851   9.483 -0.7473  0.1693 -1.3850
  471MOL0     O64896   7.488   6.739   9.428  0.5347 -0.0780 -0.5006
  471MOL0     C64897   7.411   6.650   9.347  0.1511  0.0110 -0.0779
  471MOL0     C64898   7.511   6.545   9.296 -0.2645 -0.5520 -0.3905
  471MOL0     C64899   7.431   6.438   9.215  0.0254  0.0502 -0.3875
  471MOL0     C64900   7.391   6.483   9.072  0.3535  0.2446  1.2742
  471MOL0     C64901   7.272   6.399   9.018  0.1054  0.6077  0.2110
  471MOL0     C64902   7.291   6.254   9.007  0.4275  0.7751 -0.1825
  471MOL0     C64903   7.420   6.226   8.927 -0.0061 -0.7523 -0.3154
  471MOL0     C64904   7.414   6.100   8.848 -0.7232 -0.4425 -0.0379
  471MOL0    Cl64905   7.581   6.035   8.793 -0.3022 -0.0628 -0.4647
  471MOL0     C64906   7.299   6.848   9.524  0.3148 -0.1513 -0.1276
  471MOL0     C64907   7.236   6.962   9.578 -0.2866 -0.7530 -0.3880
  471MOL0     O64908   7.393   7.230   9.804  0.3043 -0.0927 -0.6415
  471MOL0     C64909   7.246   7.498   9.762  0.6017  0.6502  0.3126
  471MOL0     C64910   7.165   7.607   9.784 -0.7131 -0.0612  0.0672
  471MOL0     N64911   7.088   8.202   9.714 -0.1868  0.0370  0.2119
  471MOL0     N64912   7.037   8.283   9.628  1.0333  0.1865 -0.1083
  471MOL0     C64913   6.661   7.670   8.994 -1.0841 -0.2083  1.2365
  471MOL0     C64914   6.704   7.545   9.027 -0.7343  0.2585 -0.1837
  471MOL0     C64915   6.651   7.138   9.242 -1.0988  0.7750 -0.3896
  471MOL0     C64916   6.791   7.121   9.262 -0.0487 -0.0871 -0.6618
  471MOL0     C64917   6.842   7.016   9.335  0.6742 -0.9000  0.4421
  471MOL0     C64918   6.771   6.905   9.363  0.4874 -0.5652 -0.0178
  471MOL0     O64919   6.843   6.804   9.415 -0.2947  0.1550 -0.1752
  471MOL0     C64920   6.765   6.698   9.451  0.1516 -0.4197 -0.7838
  471MOL0     C64921   6.856   6.576   9.476 -0.1518 -0.5753  0.3661
  471MOL0     C64922   6.922   6.531   9.341 -0.1024  0.3786  0.4314
  471MOL0     C64923   6.995   6.400   9.366 -0.2727 -0.0341 -0.3694
  471MOL0     C64924   7.097   6.414   9.478  0.5423 -0.8432 -0.6993
  471MOL0     C64925   7.155   6.416   9.587 -0.5895 -0.3321 -0.5855
  471MOL0     C64926   6.636   6.912   9.337  0.1647  0.0306 -0.5389
  471MOL0     C64927   6.577   7.027   9.278  0.5274 -0.9033 -0.2547
  471MOL0     C64928   6.428   7.021   9.273 -0.5350 -0.6357  0.1623
  471MOL0     H64929   6.533   7.515   9.321  1.7643  1.1295  1.0539
  471MOL0     H64930   6.470   7.741   9.260  0.8880  2.4114 -0.3665
  471MOL0     H64931   6.524   7.919   8.860  2.9337  1.2133 -0.7936
  471MOL0     H64932   6.679   7.957   8.942  0.0286  1.6093 -2.9468
  471MOL0     H64933   6.569   8.157   8.910  3.1299 -1.0517  2.2826
  471MOL0     H64934   6.405   8.078   8.942  0.2227 -1.7311 -2.0671
  471MOL0     H64935   6.447   8.244   9.109  0.2902 -0.0268  0.3857
  471MOL0     H64936   6.451   8.086   9.181  0.1019  2.0859  1.5036
  471MOL0     H64937   6.674   8.092   9.228 -0.0325  1.1741  0.0926
  471MOL0     H64938   6.707   8.231   9.117  0.7777  0.4534  0.6648
  471MOL0     H64939   6.533   8.220   9.373  1.0259 -0.4539  0.0580
  471MOL0     H64940   6.567   8.364   9.273 -0.3791  0.1437 -0.8365
  471MOL0     H64941   6.782   8.192   9.411  3.5362  1.8188  1.3584
  471MOL0     H64942   6.798   8.352   9.338 -1.9165  0.6876 -0.3799
  471MOL0     H64943   6.639   8.270   9.593 -3.2205 -0.4811 -1.5411
  471MOL0     H64944   6.625   8.425   9.536 -0.5382 -0.2790  1.2272
  471MOL0     H64945   6.877   8.466   9.539  0.3370 -1.7500 -1.0600
  471MOL0     H64946   6.778   8.465   9.694  0.4249 -2.3463  2.4416
  471MOL0     H64947   6.800   8.228   9.852  0.5082 -2.4002  0.6614
  471MOL0     H64948   6.931   8.043   9.958  0.3476  1.5351  1.0469
  471MOL0     H64949   7.078   8.133  10.007  0.5911  0.3701  0.0985
  471MOL0     H64950   7.085   7.914   9.793 -1.7002 -0.0693  0.7748
  471MOL0     H64951   7.220   8.003   9.874  0.2970 -0.2022 -2.1032
  471MOL0     H64952   7.220   7.778   9.961 -0.5465 -0.0926 -1.9457
  471MOL0     H64953   7.164   7.891  10.082 -0.1724  3.0779 -2.3618
  471MOL0     H64954   7.023   7.691  10.084  1.2132  1.3262  1.7179
  471MOL0     H64955   6.926   7.822  10.029  1.3444  0.3664  0.2688
  471MOL0     H64956   6.932   7.460   9.969  0.9728 -0.0626  2.2660
  471MOL0     H64957   6.981   7.207   9.994  0.8757 -1.4987  4.6387
  471MOL0     H64958   7.135   7.226  10.060 -0.7128  2.1271 -0.6431
  471MOL0     H64959   7.121   7.145   9.898 -1.0671  0.7651 -0.8920
  471MOL0     H64960   7.497   7.172   9.584  1.4999 -0.7577  0.7460
  471MOL0     H64961   7.608   6.964   9.503 -0.3877 -2.6638 -2.4400
  471MOL0     H64962   7.343   6.593   9.410  0.6472 -0.0186  0.4356
  471MOL0     H64963   7.362   6.702   9.264 -0.1453 -0.9464 -0.5120
  471MOL0     H64964   7.576   6.597   9.225 -1.9088  0.9645 -0.8594
  471MOL0     H64965   7.577   6.503   9.372 -2.4577 -1.6286  0.9994
  471MOL0     H64966   7.338   6.415   9.269 -1.2615 -0.3277 -2.6455
  471MOL0     H64967   7.492   6.347   9.214  3.8433  2.3489  0.6653
  471MOL0     H64968   7.479   6.474   9.007 -0.0826 -0.4948  0.7644
  471MOL0     H64969   7.370   6.590   9.071 -3.4451 -0.3636  1.7712
  471MOL0     H64970   7.197   6.418   9.095 -0.2078  1.0491 -0.1967
  471MOL0     H64971   7.229   6.441   8.927  0.4129 -0.2839 -0.3459
  471MOL0     H64972   7.203   6.203   8.967  0.4366  0.6648 -0.0620
  471MOL0     H64973   7.296   6.214   9.109 -1.2632  2.2618  0.5454
  471MOL0     H64974   7.500   6.220   9.002 -1.7268 -0.4778  1.6247
  471MOL0     H64975   7.438   6.307   8.857 -0.5313 -0.3590  0.0002
  471MOL0     H64976   7.348   6.109   8.761 -2.5978 -2.7424  1.0129
  471MOL0     H64977   7.365   6.028   8.914 -0.9741 -1.5657 -1.3914
  471MOL0     H64978   7.240   6.759   9.504  1.2077 -1.0358  1.0104
  471MOL0     H64979   7.132   6.960   9.608  0.3790  1.3808  2.5367
  471MOL0     H64980   7.338   7.508   9.706 -0.3335 -1.3370 -1.7217
  471MOL0     H64981   7.209   7.696   9.739  0.6898 -1.4517 -1.4910
  471MOL0     H64982   6.693   7.705   8.896  3.5897  0.7692  2.8314
  471MOL0     H64983   6.757   7.486   8.954 -3.3012 -0.4374 -1.6059
  471MOL0     H64984   6.864   7.192   9.225 -0.8355  0.2670 -1.5815
  471MOL0     H64985   6.949   7.013   9.353  0.8858 -3.2294 -0.7989
  471MOL0     H64986   6.715   6.727   9.544  0.3331  0.9208 -1.0877
  471MOL0     H64987   6.699   6.674   9.367  0.4209 -0.2804 -1.0355
  471MOL0     H64988   6.787   6.501   9.515  0.0106 -0.8658  0.0962
  471MOL0     H64989   6.935   6.598   9.549  0.1793 -4.6112  1.4362
  471MOL0     H64990   6.838   6.500   9.278  1.0199 -0.1535 -0.8757
  471MOL0     H64991   6.983   6.603   9.285  3.2347 -0.0462  3.1785
  471MOL0     H64992   7.044   6.356   9.278  3.0946 -2.0402  2.2537
  471MOL0     H64993   6.922   6.330   9.406  0.3409 -0.0864  0.7053
  471MOL0     H64994   7.204   6.427   9.682 -0.2125  1.6606 -0.9837
  471MOL0     H64995   6.571   6.830   9.364  1.9573 -0.0938  4.2717
  471MOL0     H64996   6.390   6.921   9.293  1.3494 -1.4167 -0.0381
  471MOL0     H64997   6.402   7.098   9.347 -0.2804 -0.7214  0.3406
  471MOL0     H64998   6.386   7.050   9.176  2.6345 -0.3710 -1.2283
  472MOL0     O64999   9.174  11.133   7.483  0.4092  0.7017  0.0114
  472MOL0     C65000   9.078  11.187   7.428 -0.8677  0.1265 -1.1326
  472MOL0     O65001   8.954  11.205   7.490  0.0603 -0.3366  0.4880
  472MOL0     C65002   8.933  11.173   7.625  0.1427 -0.1260  0.9891
  472MOL0     C65003   8.979  11.058   7.696 -0.8640 -0.5042 -0.0565
  472MOL0     C65004   8.927  11.024   7.818 -0.0404 -0.7049 -0.0986
  472MOL0     C65005   8.820  11.088   7.877  0.6155 -0.9176 -0.1840
  472MOL0     O65006   8.755  11.051   7.995 -0.0011 -0.3911  0.1018
  472MOL0     C65007   8.616  11.058   8.002  0.0604 -0.0583 -0.5445
  472MOL0     C65008   8.547  11.020   8.133  0.0232  0.4293  0.5211
  472MOL0     C65009   8.393  11.049   8.123  1.0712  1.4933 -0.7041
  472MOL0     C65010   8.315  10.992   8.251 -0.6883 -0.3131 -0.2661
  472MOL0     C65011   8.165  11.015   8.238  0.1753 -0.4048 -0.0747
  472MOL0     C65012   8.085  10.943   8.338 -0.2168 -0.0310 -0.8124
  472MOL0     C65013   7.927  10.962   8.316  0.2015 -0.2193  0.3577
  472MOL0     C65014   7.843  10.882   8.420 -0.1330 -0.6375  0.7353
  472MOL0     N65015   7.871  10.736   8.406 -0.2042  0.3155  0.6706
  472MOL0     C65016   7.927  10.655   8.502 -0.4695  0.5442  0.0505
  472MOL0     C65017   7.931  10.531   8.442  0.4283 -0.3615 -0.3353
  472MOL0     C65018   7.975  10.413   8.510  0.7776  0.2164  0.2251
  472MOL0     C65019   8.132  10.407   8.522 -0.6506  0.5958 -0.3968
  472MOL0     C65020   8.207  10.406   8.383 -0.2308 -0.5892 -0.1172
  472MOL0     C65021   8.326  10.308   8.385 -0.1555  0.2545  0.0450
  472MOL0     O65022   8.388  10.313   8.254  0.0118  0.5301  0.1963
  472MOL0     C65023   8.529  10.322   8.243 -0.6350 -0.4401 -0.0361
  472MOL0     C65024   8.620  10.295   8.345  0.0720  0.3113 -0.2072
  472MOL0     C65025   8.755  10.278   8.322 -0.7329 -0.2668 -0.3412
  472MOL0     C65026   8.848  10.261   8.432  0.4031 -0.1658  0.2239
  472MOL0     C65027   8.808  10.285   8.183 -0.0826  0.4304 -0.2334
  472MOL0     C65028   8.957  10.263   8.143 -0.0551  0.3752 -0.2905
  472MOL0     O65029   8.991  10.311   8.017  0.0610  0.1304  0.1555
  472MOL0     C65030   9.127  10.317   7.983 -0.3876 -0.2708 -0.5626
  472MOL0     C65031   9.164  10.254   7.858 -0.8988  0.5165  0.1069
  472MOL0     C65032   9.303  10.244   7.824 -0.2054  0.0844 -0.0551
  472MOL0     C65033   9.396  10.312   7.896 -1.0549  0.7042  0.7699
  472MOL0     O65034   9.525  10.318   7.852  0.3498  0.1587 -0.0067
  472MOL0     C65035   9.635  10.360   7.937 -0.5918 -0.4890 -0.3317
  472MOL0     C65036   9.755  10.337   7.856 -1.1178  0.5901 -0.3586
  472MOL0     C65037   9.880  10.335   7.943 -0.8048 -0.4162  0.0792
  472MOL0     C65038   9.999  10.293   7.853 -0.1059 -0.5020  0.3374
  472MOL0     C65039  10.124  10.328   7.936 -0.9855  0.5436 -0.1885
  472MOL0     C65040  10.251  10.328   7.847  0.2516 -0.5517 -0.2073
  472MOL0     C65041  10.282  10.474   7.794 -0.0963  0.0167  0.5319
  472MOL0     C65042  10.401  10.480   7.702 -0.1448  0.6672 -0.0687
  472MOL0    Cl65043  10.349  10.418   7.545 -0.1220 -0.6299  0.0538
  472MOL0     C65044   9.361  10.358   8.018 -0.0823  0.1968 -0.0508
  472MOL0     C65045   9.228  10.357   8.067 -0.4568  0.2560 -0.0564
  472MOL0     O65046   9.018  10.183   8.213 -0.4900  0.7534  0.2489
  472MOL0     C65047   8.711  10.312   8.079 -1.0245 -0.3255  0.0212
  472MOL0     C65048   8.577  10.329   8.111 -0.0221  0.2264 -0.0730
  472MOL0     N65049   7.876  10.537   8.315 -0.7728 -0.0397  0.7016
  472MOL0     N65050   7.836  10.657   8.300 -0.4828  0.2673 -0.1028
  472MOL0     C65051   8.780  11.206   7.815  0.4481 -0.5796 -0.2812
  472MOL0     C65052   8.834  11.251   7.696  0.1743  0.0501  0.3672
  472MOL0     C65053   9.097  11.234   7.290 -0.0438  0.4439 -0.5643
  472MOL0     C65054   8.984  11.242   7.210  0.1564 -0.4250 -0.4815
  472MOL0     C65055   9.001  11.293   7.084  0.4300  0.2095 -0.0924
  472MOL0     C65056   9.115  11.340   7.029 -1.1087 -0.1098  0.1743
  472MOL0     O65057   9.129  11.385   6.900 -0.1666 -0.3227 -0.6281
  472MOL0     C65058   9.009  11.433   6.842 -0.4402  0.2810  0.1527
  472MOL0     C65059   9.081  11.525   6.737  0.3093 -0.2434 -0.3420
  472MOL0     C65060   8.997  11.586   6.626 -0.8419 -0.2075 -0.3273
  472MOL0     C65061   8.958  11.481   6.520 -0.5356  0.4995 -0.6601
  472MOL0     C65062   8.856  11.522   6.418 -0.2671 -0.0937 -0.6867
  472MOL0     C65063   8.784  11.557   6.336 -0.0347 -0.0960  0.1867
  472MOL0     C65064   9.223  11.335   7.111 -0.7259  0.2083  0.0087
  472MOL0     C65065   9.221  11.277   7.239 -0.3268  0.1610  0.5467
  472MOL0     C65066   9.347  11.273   7.323 -0.0703  0.3944  1.1101
  472MOL0     H65067   9.072  11.011   7.666  0.3547  0.5431  1.8726
  472MOL0     H65068   8.966  10.937   7.870  1.0523  0.6419  1.4504
  472MOL0     H65069   8.582  10.980   7.933  5.7518 -2.2414 -1.4616
  472MOL0     H65070   8.572  11.153   7.972 -0.2214 -1.3028 -4.7522
  472MOL0     H65071   8.557  10.914   8.157 -2.9157 -0.0518  0.0193
  472MOL0     H65072   8.601  11.075   8.211  1.5296  2.1195 -1.5844
  472MOL0     H65073   8.377  11.157   8.125  0.9278  1.5553 -2.8284
  472MOL0     H65074   8.334  11.009   8.040 -1.6833  0.9013  1.4140
  472MOL0     H65075   8.334  10.884   8.250 -2.5353 -0.6595 -0.8668
  472MOL0     H65076   8.347  11.028   8.349  0.7760  0.6610 -1.0533
  472MOL0     H65077   8.130  10.981   8.140 -1.6860 -3.9259  1.6300
  472MOL0     H65078   8.135  11.120   8.253 -0.4958 -0.8570  2.0764
  472MOL0     H65079   8.122  10.840   8.335  0.8893  0.3593 -0.9322
  472MOL0     H65080   8.110  10.977   8.439  0.1805 -1.9219 -0.2215
  472MOL0     H65081   7.914  10.932   8.212  1.0454  2.2603 -0.5205
  472MOL0     H65082   7.892  11.065   8.308  2.0036  0.3166 -1.5589
  472MOL0     H65083   7.845  10.920   8.523 -2.6782  4.7532 -0.8170
  472MOL0     H65084   7.741  10.901   8.385  0.9501  0.7507 -1.9774
  472MOL0     H65085   7.948  10.689   8.603 -1.1636  1.8715 -0.2299
  472MOL0     H65086   7.931  10.328   8.456 -0.4868  1.1985 -0.3386
  472MOL0     H65087   7.930  10.420   8.609  0.6829  1.3585  0.1145
  472MOL0     H65088   8.170  10.478   8.596  2.1062 -1.0352 -0.1399
  472MOL0     H65089   8.145  10.316   8.581 -0.3868  1.4906  0.9717
  472MOL0     H65090   8.142  10.379   8.299 -0.7192  2.1122 -0.6886
  472MOL0     H65091   8.245  10.504   8.353 -2.0121 -0.1814 -1.1795
  472MOL0     H65092   8.389  10.350   8.465  0.2761  0.2337 -0.2792
  472MOL0     H65093   8.287  10.211   8.416  2.4430  0.1756  3.6903
  472MOL0     H65094   8.583  10.283   8.446 -3.6941 -0.1297 -1.4975
  472MOL0     H65095   8.934  10.329   8.424 -0.4487  0.8122 -0.9163
  472MOL0     H65096   8.878  10.157   8.449  0.3190  0.2964  4.2476
  472MOL0     H65097   8.806  10.299   8.526 -1.4336  0.1647 -0.6888
  472MOL0     H65098   9.078  10.216   7.805 -1.3492  0.9001  0.5515
  472MOL0     H65099   9.333  10.208   7.726  1.8567 -1.2500  1.0052
  472MOL0     H65100   9.627  10.466   7.960  0.8593 -0.4910  0.3463
  472MOL0     H65101   9.639  10.302   8.030 -1.7175 -1.1944 -0.7011
  472MOL0     H65102   9.745  10.242   7.804 -0.4842 -0.8674  1.9881
  472MOL0     H65103   9.754  10.420   7.785 -1.5348  1.8033  0.9999
  472MOL0     H65104   9.865  10.253   8.014  0.5001 -1.6538 -1.0126
  472MOL0     H65105   9.908  10.433   7.983 -0.1728  0.3067 -1.9858
  472MOL0     H65106  10.001  10.349   7.760  1.1289 -0.6559  0.2451
  472MOL0     H65107   9.990  10.188   7.824 -0.5084 -0.4973  0.4373
  472MOL0     H65108  10.116  10.432   7.971 -0.5468  0.9099 -1.1454
  472MOL0     H65109  10.133  10.258   8.020 -0.9296  0.2664 -0.4258
  472MOL0     H65110  10.224  10.255   7.770 -1.6915 -0.0148 -0.0873
  472MOL0     H65111  10.339  10.291   7.901 -1.1134  0.5027  3.0027
  472MOL0     H65112  10.291  10.546   7.875 -0.4363  1.1196 -0.3733
  472MOL0     H65113  10.200  10.498   7.726  1.2039 -1.0266 -1.5189
  472MOL0     H65114  10.481  10.421   7.748 -0.7139  0.2980  0.4604
  472MOL0     H65115  10.441  10.581   7.700 -0.4087  0.8166  1.1713
  472MOL0     H65116   9.433  10.418   8.072  1.3139  1.1256 -2.7727
  472MOL0     H65117   9.206  10.393   8.167 -0.2003  0.0064  0.0902
  472MOL0     H65118   8.744  10.330   7.977  2.5434 -1.7276  0.7981
  472MOL0     H65119   8.510  10.345   8.027 -0.5071  0.6880  0.3904
  472MOL0     H65120   8.699  11.266   7.855  0.9136 -0.4829  0.5172
  472MOL0     H65121   8.812  11.349   7.656 -0.9113  0.1380  1.1451
  472MOL0     H65122   8.885  11.209   7.240 -0.0347 -0.5931 -1.2813
  472MOL0     H65123   8.910  11.277   7.026 -0.0552 -0.9126  0.9298
  472MOL0     H65124   8.960  11.353   6.785  2.2217 -1.6608  0.4010
  472MOL0     H65125   8.947  11.490   6.912  1.3520  0.5961  1.5660
  472MOL0     H65126   9.153  11.462   6.683 -0.2547 -2.6140  1.4921
  472MOL0     H65127   9.125  11.612   6.786 -1.1067 -0.1010  0.7304
  472MOL0     H65128   8.908  11.620   6.679 -0.4183  0.8035 -0.2506
  472MOL0     H65129   9.056  11.667   6.582 -1.6045 -0.4036 -1.7800
  472MOL0     H65130   8.921  11.391   6.571  1.4065  0.8974  1.6522
  472MOL0     H65131   9.054  11.449   6.479 -1.8352 -3.8486 -0.8292
  472MOL0     H65132   8.708  11.583   6.266  0.1716  1.2715  0.4427
  472MOL0     H65133   9.317  11.372   7.072  1.1344 -2.7078  1.3610
  472MOL0     H65134   9.325  11.321   7.419  1.1490 -1.9970  2.7066
  472MOL0     H65135   9.369  11.165   7.326 -2.6225 -0.4574 -3.1181
  472MOL0     H65136   9.435  11.317   7.275  0.1953 -0.3520  0.8860
  473MOL0     O65137   0.191   1.654   9.999  0.0419 -0.4607  0.0294
  473MOL0     C65138   0.163   1.575  10.091  0.2348  0.6375 -0.0938
  473MOL0     O65139   0.252   1.524  10.185 -0.0521  0.2601 -0.5091
  473MOL0     C65140   0.388   1.550  10.185  0.1196  0.8563  0.2715
  473MOL0     C65141   0.471   1.441  10.186  0.8578 -0.6802  0.3734
  473MOL0     C65142   0.610   1.464  10.172  0.0617 -0.0809  0.0133
  473MOL0     C65143   0.672   1.589  10.166 -0.2841  0.2573 -1.2996
  473MOL0     O65144   0.805   1.618  10.156 -0.7182  0.5345 -0.8767
  473MOL0     C65145   0.900   1.515  10.172  0.4944 -0.0547 -0.2956
  473MOL0     C65146   1.051   1.566  10.188  0.1207 -0.6284 -0.1856
  473MOL0     C65147   1.153   1.458  10.219  0.0983 -0.1319 -0.0777
  473MOL0     C65148   1.294   1.521  10.217  0.3153  0.5429  0.8973
  473MOL0     C65149   1.402   1.418  10.231 -0.2034 -0.4456 -0.6125
  473MOL0     C65150   1.412   1.368  10.367  0.4218 -0.0704 -0.2205
  473MOL0     C65151   1.521   1.264  10.382  0.9340 -0.6885 -0.2761
  473MOL0     C65152   1.669   1.316  10.397  0.8848  0.1872 -0.3954
  473MOL0     N65153   1.766   1.212  10.432 -0.5748 -0.2751 -0.1628
  473MOL0     C65154   1.843   1.216  10.546  0.8163  0.3835 -0.1648
  473MOL0     C65155   1.924   1.108  10.530  0.8312  0.4038 -0.6130
  473MOL0     C65156   2.021   1.059  10.631  0.4191  0.3688  0.2120
  473MOL0     C65157   1.973   0.932  10.695  0.2370  0.5162 -0.1408
  473MOL0     C65158   1.922   0.968  10.831 -0.4765  0.2950  0.4988
  473MOL0     C65159   1.799   1.054  10.848 -0.3739  0.6971  0.2056
  473MOL0     O65160   1.698   0.997  10.775  0.6980 -0.5993 -0.4866
  473MOL0     C65161   1.577   1.069  10.773 -0.2105  0.0126 -0.3489
  473MOL0     C65162   1.492   1.034  10.678  0.6505  0.5764  0.2081
  473MOL0     C65163   1.364   1.094  10.670 -0.0577  0.6693 -0.0572
  473MOL0     C65164   1.277   1.033  10.562  0.3714  0.1964 -1.1821
  473MOL0     C65165   1.317   1.188  10.765 -0.5822 -0.3050  1.0617
  473MOL0     C65166   1.179   1.261  10.757 -0.8168  0.0025 -0.1214
  473MOL0     O65167   1.083   1.205  10.679  0.9826  0.6263 -0.7578
  473MOL0     C65168   0.954   1.252  10.708  0.5585 -0.2240 -0.7363
  473MOL0     C65169   0.890   1.225  10.828 -0.5080  0.4323  0.0653
  473MOL0     C65170   0.771   1.286  10.860  0.7124 -0.2723  0.0948
  473MOL0     C65171   0.705   1.360  10.760  0.0737  0.9150 -0.1752
  473MOL0     O65172   0.579   1.405  10.778 -0.0867 -0.1097  0.3572
  473MOL0     C65173   0.536   1.410  10.913  0.3750  1.0163 -0.4502
  473MOL0     C65174   0.414   1.497  10.928  0.6601  0.1220  0.2990
  473MOL0     C65175   0.286   1.434  10.882  0.7296  0.1759  0.5209
  473MOL0     C65176   0.168   1.518  10.918  0.8602 -0.0241 -0.5111
  473MOL0     C65177   0.033   1.440  10.922 -0.6708 -0.3313  0.1707
  473MOL0     C65178  -0.091   1.520  10.974  0.5114 -0.1359 -0.6999
  473MOL0     C65179  -0.219   1.437  10.970 -0.0683  0.2873  0.0033
  473MOL0     C65180  -0.343   1.516  10.992 -0.7723 -0.5501  0.3012
  473MOL0    Cl65181  -0.488   1.416  10.957 -0.4228  0.2862  0.0387
  473MOL0     C65182   0.766   1.385  10.638  0.0518  0.5585 -0.5184
  473MOL0     C65183   0.895   1.338  10.614  1.5839  0.0042 -0.8269
  473MOL0     O65184   1.169   1.363  10.820 -0.0279  0.3629  0.7316
  473MOL0     C65185   1.415   1.232  10.849 -0.9121  0.1539 -1.0592
  473MOL0     C65186   1.544   1.174  10.858  0.3738 -0.1838 -0.0219
  473MOL0     N65187   1.921   1.063  10.395  0.7736 -0.2368 -0.5203
  473MOL0     N65188   1.820   1.131  10.340 -0.1307  0.0146  0.9039
  473MOL0     C65189   0.578   1.695  10.168  0.0084  0.3086 -0.0949
  473MOL0     C65190   0.438   1.680  10.178  0.5470 -0.6513  0.5748
  473MOL0     C65191   0.016   1.530  10.096 -0.4784  0.6403 -0.3418
  473MOL0     C65192  -0.071   1.603  10.011 -1.2705 -0.6586  0.4413
  473MOL0     C65193  -0.202   1.562  10.002 -0.1588 -0.5379  0.5069
  473MOL0     C65194  -0.256   1.459  10.083  0.5085 -0.2372 -0.6504
  473MOL0     O65195  -0.388   1.434  10.065  0.6816 -0.1020 -0.1383
  473MOL0     C65196  -0.453   1.330  10.132  0.1824 -0.3287  0.3377
  473MOL0     C65197  -0.583   1.300  10.060 -0.3762 -0.3947 -0.1160
  473MOL0     C65198  -0.671   1.426  10.087 -0.3177 -0.0675 -0.1516
  473MOL0     C65199  -0.812   1.410  10.032 -1.0118  0.0537  0.3286
  473MOL0     C65200  -0.869   1.537   9.980  0.0856 -0.8224  0.9451
  473MOL0     C65201  -0.927   1.641   9.950  0.2153 -0.7199 -0.2785
  473MOL0     C65202  -0.172   1.388  10.166 -0.1580 -0.2466 -0.1281
  473MOL0     C65203  -0.030   1.415  10.164  0.4610 -0.1676  0.2057
  473MOL0     C65204   0.058   1.323  10.237  0.4379  0.5560  0.1849
  473MOL0     H65205   0.417   1.347  10.190 -1.2919  0.5412  1.9103
  473MOL0     H65206   0.671   1.379  10.142 -1.7095 -0.6384 -2.2658
  473MOL0     H65207   0.902   1.438  10.095 -0.5251  1.3100 -1.7460
  473MOL0     H65208   0.886   1.458  10.265 -1.6676 -1.3333 -1.3326
  473MOL0     H65209   1.072   1.606  10.088  2.9507  0.5605  0.7869
  473MOL0     H65210   1.058   1.651  10.256 -1.9917  1.5817 -2.4965
  473MOL0     H65211   1.136   1.405  10.313  0.3106 -0.4130 -0.1978
  473MOL0     H65212   1.136   1.383  10.142 -0.1953  0.9635 -1.1132
  473MOL0     H65213   1.319   1.563  10.120 -0.8728  0.6959  0.6351
  473MOL0     H65214   1.302   1.601  10.291  0.5868 -0.4164  1.9500
  473MOL0     H65215   1.498   1.469  10.217  0.1502 -0.8438  0.2685
  473MOL0     H65216   1.398   1.344  10.152  0.7935  1.1043 -2.1943
  473MOL0     H65217   1.415   1.439  10.450 -2.0831 -0.8375  0.6074
  473MOL0     H65218   1.317   1.314  10.373 -0.2306  1.1032  0.3481
  473MOL0     H65219   1.512   1.190  10.302  0.2650  0.8597 -1.7006
  473MOL0     H65220   1.507   1.197  10.467 -0.6320  1.2214  1.0710
  473MOL0     H65221   1.705   1.364  10.306  1.1217 -0.0439 -0.4258
  473MOL0     H65222   1.671   1.395  10.472  4.3727  0.2320 -0.3678
  473MOL0     H65223   1.826   1.282  10.630 -2.0984 -1.4434  0.8299
  473MOL0     H65224   2.055   1.137  10.700  2.8074 -0.1387 -0.3017
  473MOL0     H65225   2.114   1.032  10.581  1.6828 -2.3441  3.5783
  473MOL0     H65226   1.904   0.869  10.638 -1.5280 -0.7804  3.1844
  473MOL0     H65227   2.067   0.880  10.717 -0.0635 -0.3975 -0.9636
  473MOL0     H65228   1.919   0.881  10.898  2.4127  2.7788  4.2648
  473MOL0     H65229   2.003   1.021  10.881  2.4689 -1.9433 -1.5209
  473MOL0     H65230   1.759   1.040  10.948  0.7304 -3.1865  0.2715
  473MOL0     H65231   1.824   1.159  10.831 -0.4621  0.8642  1.0655
  473MOL0     H65232   1.517   0.949  10.616  2.8696  0.4877  1.1124
  473MOL0     H65233   1.325   0.950  10.510 -2.2982 -0.9406 -2.0304
  473MOL0     H65234   1.242   1.109  10.492  1.9658  1.6620 -0.4633
  473MOL0     H65235   1.194   0.986  10.616  0.9674 -1.2949 -1.5133
  473MOL0     H65236   0.931   1.157  10.901  1.4485  0.0206 -1.3286
  473MOL0     H65237   0.734   1.260  10.958 -1.7319 -2.1836 -1.2131
  473MOL0     H65238   0.509   1.318  10.965 -1.3999  3.2328  2.9382
  473MOL0     H65239   0.609   1.460  10.979 -0.1695  1.9664 -0.5586
  473MOL0     H65240   0.415   1.521  11.035  0.2975 -1.0279  0.5633
  473MOL0     H65241   0.427   1.584  10.862  2.4904 -0.8643 -0.7296
  473MOL0     H65242   0.272   1.341  10.938 -1.0207 -0.3809 -0.7385
  473MOL0     H65243   0.279   1.410  10.776  0.0575 -0.0909  0.6155
  473MOL0     H65244   0.156   1.605  10.853 -0.0519 -1.0365 -1.7558
  473MOL0     H65245   0.178   1.556  11.020  0.9718  0.2890 -0.6379
  473MOL0     H65246   0.022   1.402  10.820  0.8810  1.0559 -0.5754
  473MOL0     H65247   0.040   1.353  10.988 -0.1484  1.9552  3.3773
  473MOL0     H65248  -0.111   1.609  10.915  0.9900  2.2829  2.5241
  473MOL0     H65249  -0.077   1.554  11.077 -0.9699 -2.0939  0.2291
  473MOL0     H65250  -0.221   1.353  11.040 -0.1633  0.4326  0.1767
  473MOL0     H65251  -0.229   1.392  10.871  0.7975 -1.2735  0.5826
  473MOL0     H65252  -0.347   1.604  10.926 -3.6588  0.8340  2.0791
  473MOL0     H65253  -0.335   1.557  11.093  1.1626  1.1625 -0.4703
  473MOL0     H65254   0.707   1.451  10.575 -1.9574 -1.1509 -0.5474
  473MOL0     H65255   0.955   1.368  10.528 -0.1197 -0.2539 -2.1800
  473MOL0     H65256   1.391   1.311  10.920  2.1515  0.2725  0.0155
  473MOL0     H65257   1.599   1.206  10.946 -0.6798 -0.3536  0.7229
  473MOL0     H65258   0.618   1.796  10.163 -4.2858  2.1634 -1.1389
  473MOL0     H65259   0.378   1.770  10.169  0.1807 -0.8423  1.0341
  473MOL0     H65260  -0.036   1.675   9.939 -2.3026 -0.3136  0.2786
  473MOL0     H65261  -0.266   1.618   9.934  1.0026  1.3569  0.9095
  473MOL0     H65262  -0.389   1.242  10.119  0.1046 -0.4428  0.7237
  473MOL0     H65263  -0.469   1.357  10.236  0.2271  0.7271  0.0754
  473MOL0     H65264  -0.633   1.210  10.097 -0.5467  0.4910  1.9258
  473MOL0     H65265  -0.567   1.296   9.952  1.7142 -0.1406  0.1266
  473MOL0     H65266  -0.674   1.436  10.196  2.0725 -0.8357  0.0384
  473MOL0     H65267  -0.623   1.510  10.035  2.1890  0.2295  2.4029
  473MOL0     H65268  -0.879   1.359  10.101  1.1973 -2.4843  0.7950
  473MOL0     H65269  -0.794   1.348   9.943  2.4620  2.5465 -0.9343
  473MOL0     H65270  -0.964   1.740   9.936  1.8621  0.2030  1.3800
  473MOL0     H65271  -0.207   1.302  10.221  0.8385  0.1641  1.2103
  473MOL0     H65272   0.077   1.356  10.340 -2.0729 -4.3503  2.5621
  473MOL0     H65273  -0.001   1.233  10.255 -1.7637  1.8559 -0.1902
  473MOL0     H65274   0.152   1.305  10.184 -0.0491  2.2233 -1.3360
  474MOL0     O65275   2.168   8.151   0.344 -0.6476  0.3384 -0.1146
  474MOL0     C65276   2.129   8.262   0.381 -0.5018 -0.0326  0.1621
  474MOL0     O65277   2.209   8.362   0.431 -0.0454 -1.3540  0.0164
  474MOL0     C65278   2.340   8.329   0.455 -0.8496 -0.2021 -0.1761
  474MOL0     C65279   2.376   8.259   0.570  1.4570 -0.3589  0.3392
  474MOL0     C65280   2.505   8.225   0.604 -0.4455 -0.0092  0.2035
  474MOL0     C65281   2.608   8.281   0.530 -0.0197  0.0762  0.3297
  474MOL0     O65282   2.738   8.245   0.574  0.6660 -0.1865  0.5437
  474MOL0     C65283   2.849   8.300   0.505 -0.5596 -0.1224 -0.2693
  474MOL0     C65284   2.971   8.270   0.595 -0.6499 -0.0912  0.8009
  474MOL0     C65285   3.049   8.395   0.600  0.5347  0.1904  0.3442
  474MOL0     C65286   3.180   8.375   0.682 -0.1827 -0.4896  0.2163
  474MOL0     C65287   3.253   8.517   0.702  1.3623  0.5032  0.1079
  474MOL0     C65288   3.327   8.578   0.579 -0.4173  0.2423  0.0905
  474MOL0     C65289   3.387   8.717   0.588 -0.1869 -0.6824  0.2053
  474MOL0     C65290   3.484   8.737   0.705  0.8626  0.7749 -0.8318
  474MOL0     N65291   3.622   8.717   0.658  0.3801 -0.4668 -0.0135
  474MOL0     C65292   3.675   8.593   0.644 -0.6253  0.1320  0.8446
  474MOL0     C65293   3.808   8.612   0.634 -0.2644 -0.7744  0.6101
  474MOL0     C65294   3.912   8.504   0.635 -0.9299  0.5320  0.4813
  474MOL0     C65295   3.967   8.485   0.771  0.5338 -0.6229  0.7013
  474MOL0     C65296   4.093   8.394   0.777  0.7360  0.8696 -0.3751
  474MOL0     C65297   4.059   8.254   0.723 -0.8347 -0.2991 -0.1219
  474MOL0     O65298   4.077   8.261   0.581  0.2938 -0.5112 -0.3908
  474MOL0     C65299   4.005   8.170   0.505  0.2008  0.0351  0.0260
  474MOL0     C65300   3.996   8.197   0.369  0.5432 -0.2234 -0.4984
  474MOL0     C65301   3.919   8.107   0.284 -0.6246 -0.1357 -1.1759
  474MOL0     C65302   3.902   8.147   0.140  0.2804 -0.2150  0.6996
  474MOL0     C65303   3.855   7.988   0.329  0.4261  0.6290 -0.3419
  474MOL0     C65304   3.758   7.911   0.252  0.4825  0.0317 -0.1811
  474MOL0     O65305   3.732   7.940   0.119  0.0567  0.3297  0.6097
  474MOL0     C65306   3.669   7.843   0.046 -0.9756 -0.2920  0.2768
  474MOL0     C65307   3.528   7.838   0.047 -0.0922  0.5053 -0.8045
  474MOL0     C65308   3.469   7.744  -0.033  1.4131 -0.6581 -0.1164
  474MOL0     C65309   3.545   7.656  -0.111  0.5108  0.2567 -0.0781
  474MOL0     O65310   3.488   7.567  -0.203 -0.1644  0.2408 -0.2835
  474MOL0     C65311   3.346   7.577  -0.223  0.4620  0.5185  0.1600
  474MOL0     C65312   3.306   7.448  -0.300  1.4857  0.4010  0.5073
  474MOL0     C65313   3.159   7.462  -0.339  0.3599 -1.0261  0.5604
  474MOL0     C65314   3.097   7.359  -0.436  1.0343 -0.3651  0.3095
  474MOL0     C65315   3.060   7.228  -0.363 -0.2806 -0.2524  0.0594
  474MOL0     C65316   2.970   7.137  -0.456 -1.0011 -0.1779 -0.5686
  474MOL0     C65317   2.841   7.201  -0.503  0.8341  0.4814 -1.0358
  474MOL0     C65318   2.759   7.260  -0.384  0.3822  0.1004 -0.0319
  474MOL0    Cl65319   2.615   7.339  -0.453  0.5306 -0.3144 -0.0714
  474MOL0     C65320   3.682   7.667  -0.105 -0.7422 -0.9142  0.4262
  474MOL0     C65321   3.749   7.766  -0.027  0.3959  1.4946 -0.1138
  474MOL0     O65322   3.709   7.815   0.313  0.2103 -0.4883 -0.2303
  474MOL0     C65323   3.873   7.963   0.461  0.7760 -0.3738 -0.4203
  474MOL0     C65324   3.941   8.054   0.549  0.1370  0.6236 -0.8446
  474MOL0     N65325   3.830   8.750   0.640  0.2980  0.2790 -0.3231
  474MOL0     N65326   3.719   8.811   0.649 -0.4156  0.6604  0.0628
  474MOL0     C65327   2.589   8.353   0.412  0.5530 -0.4171 -0.3013
  474MOL0     C65328   2.449   8.379   0.380  0.6469 -0.2412 -0.8239
  474MOL0     C65329   1.986   8.295   0.348 -0.6159 -0.4968  0.3014
  474MOL0     C65330   1.948   8.431   0.320  0.1684  0.1552 -0.2869
  474MOL0     C65331   1.816   8.461   0.279 -0.1964  0.4403 -0.1862
  474MOL0     C65332   1.714   8.366   0.278 -0.4881  0.2243  0.2482
  474MOL0     O65333   1.581   8.392   0.244 -0.4140  0.0382 -1.0308
  474MOL0     C65334   1.543   8.529   0.206  0.4893 -0.5818  0.6200
  474MOL0     C65335   1.393   8.538   0.166  0.6151  0.3733 -0.0181
  474MOL0     C65336   1.297   8.561   0.282 -0.1584 -0.2863 -0.9592
  474MOL0     C65337   1.154   8.551   0.233 -0.1052  0.3583  0.1328
  474MOL0     C65338   1.065   8.581   0.346  0.2405  0.4709 -0.4110
  474MOL0     C65339   1.017   8.611   0.456  0.7468  0.8966  0.6763
  474MOL0     C65340   1.746   8.240   0.325  0.2010 -0.3980 -0.3860
  474MOL0     C65341   1.875   8.200   0.360  0.4910 -0.1189 -0.1854
  474MOL0     C65342   1.882   8.060   0.409  0.2755  1.0578 -0.2821
  474MOL0     H65343   2.294   8.229   0.634  1.7852 -1.0617  0.4339
  474MOL0     H65344   2.529   8.158   0.686  1.2047 -2.6218 -2.2317
  474MOL0     H65345   2.831   8.408   0.513  0.8842  0.0843  0.3010
  474MOL0     H65346   2.879   8.275   0.402  1.6307 -5.0674  1.2536
  474MOL0     H65347   2.947   8.236   0.696 -1.5893 -1.8119  0.0469
  474MOL0     H65348   3.032   8.201   0.536  1.6660  3.0035 -0.6998
  474MOL0     H65349   3.073   8.440   0.503  2.6439  0.7342  1.0618
  474MOL0     H65350   2.988   8.473   0.647  1.8276  0.9760  0.7637
  474MOL0     H65351   3.150   8.331   0.777 -0.5910  0.2747  0.4597
  474MOL0     H65352   3.244   8.307   0.626  2.0078  1.4754  0.1711
  474MOL0     H65353   3.323   8.495   0.784 -0.2727 -0.3448  1.3177
  474MOL0     H65354   3.180   8.584   0.748 -0.2743 -1.3739  0.3481
  474MOL0     H65355   3.409   8.510   0.557  0.0186  0.7620  0.0982
  474MOL0     H65356   3.258   8.577   0.493 -0.5696  2.0336  0.1418
  474MOL0     H65357   3.305   8.787   0.604  0.5045  0.0592  0.5584
  474MOL0     H65358   3.439   8.746   0.497 -0.6327 -0.7247 -0.0646
  474MOL0     H65359   3.456   8.834   0.748  0.3908  0.2605  0.0360
  474MOL0     H65360   3.470   8.671   0.790 -1.4845  2.0100 -0.1810
  474MOL0     H65361   3.638   8.492   0.658  1.7911 -0.6292  2.3458
  474MOL0     H65362   3.991   8.526   0.564 -1.0850 -1.4971 -0.4072
  474MOL0     H65363   3.870   8.412   0.593  0.3620 -1.4832  3.2533
  474MOL0     H65364   3.993   8.585   0.806  0.6729 -0.0643 -0.9208
  474MOL0     H65365   3.886   8.444   0.834  1.8815 -2.5969  1.2477
  474MOL0     H65366   4.172   8.435   0.714  0.5335 -1.8877 -2.6510
  474MOL0     H65367   4.135   8.386   0.878  2.2269 -2.2089 -1.1051
  474MOL0     H65368   4.140   8.193   0.764 -0.2658 -0.5893 -1.6217
  474MOL0     H65369   3.954   8.233   0.746 -1.6132  1.0264 -2.1975
  474MOL0     H65370   4.042   8.287   0.331 -0.1771 -0.8417 -3.0193
  474MOL0     H65371   3.928   8.071   0.067  0.7386 -0.1964  0.8396
  474MOL0     H65372   3.963   8.235   0.114  0.4453  0.8836  4.2239
  474MOL0     H65373   3.797   8.175   0.128 -0.6582 -3.0483  1.6812
  474MOL0     H65374   3.464   7.901   0.107 -0.2164  1.1241 -1.5700
  474MOL0     H65375   3.362   7.762  -0.036  1.6544  1.2953  1.1648
  474MOL0     H65376   3.288   7.583  -0.130  1.0206 -2.3971  0.7924
  474MOL0     H65377   3.318   7.665  -0.282 -1.8957 -0.2586 -0.0141
  474MOL0     H65378   3.363   7.420  -0.389 -0.9887 -1.7330 -0.5551
  474MOL0     H65379   3.310   7.366  -0.228 -0.9531 -0.3052 -0.0774
  474MOL0     H65380   3.141   7.552  -0.398 -3.1411 -2.9154 -1.6133
  474MOL0     H65381   3.088   7.466  -0.256 -1.1370  2.3326 -0.7148
  474MOL0     H65382   3.163   7.338  -0.521  0.0201 -1.0119 -0.3357
  474MOL0     H65383   3.004   7.406  -0.471 -0.3815 -2.7008  0.7721
  474MOL0     H65384   3.158   7.192  -0.331  0.8322  2.8748  0.5006
  474MOL0     H65385   3.006   7.250  -0.271 -0.4214  1.6437 -0.4240
  474MOL0     H65386   2.960   7.037  -0.411  1.9854 -0.3627 -0.0613
  474MOL0     H65387   3.028   7.127  -0.548  2.4973  1.6358  1.2208
  474MOL0     H65388   2.790   7.125  -0.562  0.1553 -1.8439  2.2153
  474MOL0     H65389   2.870   7.282  -0.570  1.2633  0.3945 -0.9568
  474MOL0     H65390   2.812   7.345  -0.341 -0.4650  1.8608 -2.2664
  474MOL0     H65391   2.741   7.196  -0.298 -0.0662  1.5994  1.0328
  474MOL0     H65392   3.755   7.615  -0.166  1.2697  0.6118  1.3786
  474MOL0     H65393   3.857   7.776  -0.028  0.4945  0.5911  0.0834
  474MOL0     H65394   3.836   7.877   0.517  3.0298  0.4043  2.5179
  474MOL0     H65395   3.949   8.025   0.653  1.0883 -0.4028 -1.1808
  474MOL0     H65396   2.670   8.401   0.358  0.5759  1.2049  1.0952
  474MOL0     H65397   2.423   8.445   0.298  1.8258  2.5327  0.8821
  474MOL0     H65398   2.021   8.511   0.328 -1.7758  2.0505 -0.5571
  474MOL0     H65399   1.819   8.566   0.253  0.5817  0.9511  1.7860
  474MOL0     H65400   1.562   8.598   0.289 -0.0822  1.0050 -0.5201
  474MOL0     H65401   1.609   8.563   0.126 -0.3042  0.7085  0.4812
  474MOL0     H65402   1.364   8.446   0.115 -1.4215  0.1830  1.3776
  474MOL0     H65403   1.393   8.619   0.091 -2.2933  1.2782  0.8338
  474MOL0     H65404   1.315   8.488   0.362  0.4788 -0.3182 -1.1314
  474MOL0     H65405   1.319   8.661   0.319 -0.8784 -0.1850 -0.7746
  474MOL0     H65406   1.127   8.448   0.209 -0.2787  0.5831 -0.6628
  474MOL0     H65407   1.132   8.603   0.140 -0.0242  0.9331  0.4272
  474MOL0     H65408   0.978   8.639   0.552 -2.3354  2.0863 -0.7770
  474MOL0     H65409   1.664   8.171   0.342  0.6114 -0.6807  0.4938
  474MOL0     H65410   1.798   7.996   0.381 -1.1803  1.4484  2.7921
  474MOL0     H65411   1.969   8.011   0.364 -0.3054 -1.1462  0.8289
  474MOL0     H65412   1.884   8.060   0.518 -0.5979  3.7418 -0.1874
  475MOL0     O65413   7.103   2.222   6.423 -0.4025 -0.6387 -0.3916
  475MOL0     C65414   7.077   2.126   6.494 -0.0978  0.0733 -0.8914
  475MOL0     O65415   7.173   2.039   6.553 -0.2136 -0.0592  1.3024
  475MOL0     C65416   7.309   2.061   6.534 -0.1189 -0.3348 -0.6923
  475MOL0     C65417   7.393   2.002   6.634  0.3707  0.0285 -0.4680
  475MOL0     C65418   7.536   2.016   6.641 -1.4401  0.3459  1.3798
  475MOL0     C65419   7.596   2.075   6.532 -0.9903 -0.0304 -0.7409
  475MOL0     O65420   7.738   2.079   6.538 -0.0193 -0.8015  0.2560
  475MOL0     C65421   7.813   2.157   6.437  0.6329 -1.1293 -0.7409
  475MOL0     C65422   7.946   2.183   6.499 -0.1519  0.0425  0.0004
  475MOL0     C65423   7.957   2.237   6.650  0.4385  0.4546  0.8006
  475MOL0     C65424   8.100   2.237   6.694  0.6343  0.3220 -0.6126
  475MOL0     C65425   8.132   2.238   6.850  0.0089 -0.2920  0.4711
  475MOL0     C65426   8.262   2.172   6.876 -0.8911  0.1149  0.0837
  475MOL0     C65427   8.320   2.184   7.016 -0.8096 -0.0854 -0.3707
  475MOL0     C65428   8.468   2.140   7.029  0.6126  0.0391  0.0206
  475MOL0     N65429   8.500   2.154   7.171  0.4411 -0.5043  0.3371
  475MOL0     C65430   8.500   2.266   7.250 -0.1829 -0.4212  0.3100
  475MOL0     C65431   8.534   2.228   7.375 -0.6915 -0.4821 -0.2000
  475MOL0     C65432   8.552   2.327   7.490  0.4540 -0.4346 -0.3797
  475MOL0     C65433   8.688   2.392   7.477  0.9093  0.2048 -0.5570
  475MOL0     C65434   8.708   2.495   7.588 -1.5862 -0.3793  0.5523
  475MOL0     C65435   8.860   2.534   7.594  0.0331  0.5406  0.3065
  475MOL0     O65436   8.928   2.432   7.666 -0.5511  0.9059 -0.3355
  475MOL0     C65437   9.025   2.358   7.601  0.3411  0.0237  0.7241
  475MOL0     C65438   9.008   2.225   7.579 -0.5499  0.0426 -0.3829
  475MOL0     C65439   9.109   2.150   7.508  0.8842  0.5306  0.2560
  475MOL0     C65440   9.075   2.008   7.480  0.7641 -0.4918  0.2106
  475MOL0     C65441   9.226   2.219   7.462 -0.5859 -0.4379  0.5314
  475MOL0     C65442   9.333   2.161   7.379  0.2147  0.4906  0.1667
  475MOL0     O65443   9.349   2.028   7.364 -0.2943 -0.5719 -0.4924
  475MOL0     C65444   9.442   1.965   7.291 -0.5415 -0.5821  0.2631
  475MOL0     C65445   9.458   1.831   7.340  0.6383 -0.4115  0.2956
  475MOL0     C65446   9.558   1.740   7.279 -0.7811  0.1464 -0.8247
  475MOL0     C65447   9.641   1.787   7.182 -1.1091  0.4267  0.0248
  475MOL0     O65448   9.738   1.701   7.132  0.6751  0.2237  0.2330
  475MOL0     C65449   9.816   1.736   7.023 -0.2371  0.2939 -0.0637
  475MOL0     C65450   9.945   1.647   7.013 -0.7256  0.5501  0.3630
  475MOL0     C65451   9.909   1.531   6.920 -1.0932 -0.1184  0.5216
  475MOL0     C65452  10.030   1.442   6.892 -1.3334  0.5003  0.3658
  475MOL0     C65453   9.994   1.309   6.828  0.7098  0.4989 -0.2191
  475MOL0     C65454  10.099   1.199   6.838 -0.4275  0.4053 -0.0167
  475MOL0     C65455  10.233   1.244   6.784 -0.0024  0.1312 -0.1519
  475MOL0     C65456  10.342   1.140   6.770  0.0959  0.6733 -0.0914
  475MOL0    Cl65457  10.482   1.220   6.690 -0.0873  0.8119  0.1680
  475MOL0     C65458   9.632   1.924   7.152 -0.3108 -0.1972 -0.0686
  475MOL0     C65459   9.534   2.013   7.197  0.5699 -0.0352  0.4334
  475MOL0     O65460   9.411   2.239   7.326 -0.2241  0.6837 -0.0986
  475MOL0     C65461   9.234   2.356   7.492 -0.5780 -0.0315 -0.3149
  475MOL0     C65462   9.137   2.428   7.556 -0.4333  0.0044  0.1385
  475MOL0     N65463   8.567   2.097   7.378  0.0833  1.0643  0.6829
  475MOL0     N65464   8.543   2.054   7.256 -0.3583 -0.5345  0.1677
  475MOL0     C65465   7.521   2.130   6.428  0.7456  0.0020 -0.2286
  475MOL0     C65466   7.381   2.124   6.430  0.5105  0.4480  0.2310
  475MOL0     C65467   6.936   2.098   6.525  0.4234 -0.2216 -0.8076
  475MOL0     C65468   6.835   2.200   6.503  0.2836  0.1394  0.3356
  475MOL0     C65469   6.694   2.179   6.523  0.2138 -0.1119  0.1775
  475MOL0     C65470   6.649   2.059   6.569  0.9482  0.2795 -0.1684
  475MOL0     O65471   6.514   2.056   6.582  0.4042  0.6439 -0.0945
  475MOL0     C65472   6.461   1.929   6.620 -0.3777 -0.2518  0.0564
  475MOL0     C65473   6.417   1.836   6.507  0.2945 -0.3431  0.0757
  475MOL0     C65474   6.290   1.892   6.439 -0.9054  0.4650  1.0185
  475MOL0     C65475   6.240   1.802   6.328  0.0460 -0.2578  0.3551
  475MOL0     C65476   6.198   1.668   6.370 -0.2076  0.4921  0.5110
  475MOL0     C65477   6.147   1.560   6.402  0.1123  0.4620  1.0834
  475MOL0     C65478   6.742   1.955   6.588 -0.1968 -0.2766  0.9897
  475MOL0     C65479   6.881   1.975   6.574  0.0795  0.4780  0.0200
  475MOL0     C65480   6.969   1.862   6.611  0.1147  0.4694 -0.3579
  475MOL0     H65481   7.349   1.935   6.707  2.3590  0.5599  1.3157
  475MOL0     H65482   7.597   1.966   6.715  0.7069  1.9898  0.8417
  475MOL0     H65483   7.764   2.253   6.418  1.0293 -0.9040 -0.6309
  475MOL0     H65484   7.822   2.105   6.341 -2.1405 -1.7571 -0.7609
  475MOL0     H65485   8.005   2.091   6.490  1.2699  0.9017  0.1543
  475MOL0     H65486   7.995   2.258   6.436  0.8006 -2.5796 -2.6360
  475MOL0     H65487   7.908   2.333   6.669 -2.8285 -0.5841 -1.5231
  475MOL0     H65488   7.904   2.164   6.713 -0.2775 -0.9611 -1.3570
  475MOL0     H65489   8.151   2.153   6.645 -0.8549 -0.1312 -1.4280
  475MOL0     H65490   8.152   2.324   6.651  0.0396  0.5126 -0.9631
  475MOL0     H65491   8.051   2.198   6.912 -0.5736  2.5408  1.6739
  475MOL0     H65492   8.149   2.341   6.881  0.6068  0.3418 -1.7681
  475MOL0     H65493   8.263   2.067   6.847 -0.1184  0.4861 -1.3088
  475MOL0     H65494   8.329   2.218   6.803 -2.1030 -0.0911 -1.2014
  475MOL0     H65495   8.258   2.135   7.091  1.5074 -0.2402  1.5608
  475MOL0     H65496   8.317   2.288   7.050 -3.2477 -0.2942  0.1924
  475MOL0     H65497   8.475   2.032   7.019 -2.4497 -0.4092  1.6858
  475MOL0     H65498   8.542   2.192   6.967  1.4835  0.4766  1.3598
  475MOL0     H65499   8.478   2.362   7.204 -0.3464  1.0969  3.3376
  475MOL0     H65500   8.529   2.282   7.587 -1.9167  0.6262 -0.3584
  475MOL0     H65501   8.469   2.399   7.491 -1.3918 -2.4401 -0.7858
  475MOL0     H65502   8.759   2.308   7.480  1.9262  1.0558 -0.2055
  475MOL0     H65503   8.700   2.432   7.376 -0.1102  0.7069 -0.4877
  475MOL0     H65504   8.637   2.574   7.566  0.1917  1.3250  0.7034
  475MOL0     H65505   8.686   2.457   7.688 -0.9759 -1.3941  0.3257
  475MOL0     H65506   8.892   2.551   7.491 -1.7362  1.5889 -0.1144
  475MOL0     H65507   8.865   2.625   7.655 -2.9423  1.0438 -0.0170
  475MOL0     H65508   8.926   2.186   7.638  0.9906  0.1222  1.9357
  475MOL0     H65509   9.097   1.991   7.375 -3.0052 -2.7964 -0.3748
  475MOL0     H65510   8.968   1.985   7.490  0.6979 -0.5720 -0.6550
  475MOL0     H65511   9.133   1.947   7.550  0.5672  0.5270  1.2950
  475MOL0     H65512   9.388   1.802   7.418 -0.5708  0.2011 -0.5323
  475MOL0     H65513   9.559   1.640   7.321 -1.4654  1.0842  1.5539
  475MOL0     H65514   9.761   1.751   6.930  1.1212  0.3333 -0.8967
  475MOL0     H65515   9.855   1.830   7.063  0.9446 -0.0398 -0.3920
  475MOL0     H65516  10.025   1.700   6.960 -1.6826 -2.0906 -4.2291
  475MOL0     H65517   9.974   1.622   7.116 -0.2395  2.4666  0.7320
  475MOL0     H65518   9.895   1.573   6.820 -1.5213  0.6656  0.9040
  475MOL0     H65519   9.822   1.474   6.953 -0.9827 -0.8360 -0.3781
  475MOL0     H65520  10.080   1.420   6.987 -0.8648  0.1096  0.0367
  475MOL0     H65521  10.097   1.506   6.835 -0.4627 -1.6143 -1.1348
  475MOL0     H65522   9.897   1.270   6.859  1.0350 -0.7440 -0.7211
  475MOL0     H65523   9.984   1.333   6.722 -0.1743  3.4441  0.4299
  475MOL0     H65524  10.057   1.120   6.775  2.8757 -0.9355 -0.7552
  475MOL0     H65525  10.109   1.166   6.941 -1.5896 -1.1051 -0.3583
  475MOL0     H65526  10.263   1.326   6.850 -4.7467  1.5674  0.6068
  475MOL0     H65527  10.222   1.294   6.687 -0.3282  2.3725  0.9713
  475MOL0     H65528  10.301   1.053   6.716 -1.2353  0.3965  1.2960
  475MOL0     H65529  10.383   1.102   6.864 -1.3840  1.2988  0.8419
  475MOL0     H65530   9.703   1.979   7.092  1.4812 -0.3846  1.7783
  475MOL0     H65531   9.548   2.116   7.165  2.3099 -1.1789 -2.9967
  475MOL0     H65532   9.314   2.424   7.465 -1.7929  0.9748 -1.5156
  475MOL0     H65533   9.142   2.535   7.574  2.8123 -0.1902  1.0399
  475MOL0     H65534   7.567   2.186   6.347 -0.1098 -0.9408 -1.4057
  475MOL0     H65535   7.327   2.154   6.341 -0.6271 -0.5457  0.5631
  475MOL0     H65536   6.868   2.297   6.466  0.3772  0.0014  0.0530
  475MOL0     H65537   6.625   2.261   6.506 -0.3461 -0.1827  1.8857
  475MOL0     H65538   6.525   1.861   6.678 -0.2059  1.1816  1.6355
  475MOL0     H65539   6.382   1.950   6.693 -0.8083 -3.0912  0.5138
  475MOL0     H65540   6.398   1.731   6.529  3.1707 -0.9541 -0.0875
  475MOL0     H65541   6.492   1.829   6.428  0.8271 -1.6638  0.6781
  475MOL0     H65542   6.210   1.907   6.511 -1.3065  0.6165  0.5440
  475MOL0     H65543   6.314   1.992   6.402  1.2037 -0.9463 -1.8261
  475MOL0     H65544   6.321   1.781   6.258  0.0252 -1.7665  0.7624
  475MOL0     H65545   6.161   1.844   6.265  3.3450  5.4069 -0.7095
  475MOL0     H65546   6.104   1.464   6.424  1.7554 -0.8441 -0.9262
  475MOL0     H65547   6.712   1.853   6.611  1.0458 -1.0049 -0.4578
  475MOL0     H65548   6.906   1.773   6.623 -1.1314  0.8175 -3.3612
  475MOL0     H65549   7.031   1.836   6.525  0.0840 -1.9210  0.2736
  475MOL0     H65550   7.032   1.890   6.696  2.1417  1.0178 -1.9690
  476MOL0     O65551   7.572   7.424   9.956  0.9380 -0.9604  0.3399
  476MOL0     C65552   7.544   7.331  10.031  0.6551  1.5969  0.1225
  476MOL0     O65553   7.614   7.209  10.043  0.3188  0.3325  0.4742
  476MOL0     C65554   7.728   7.205   9.970 -0.0170  0.2867 -0.8141
  476MOL0     C65555   7.730   7.145   9.843  0.0917 -0.1177  0.0520
  476MOL0     C65556   7.843   7.133   9.773 -0.4151  0.5853  0.9410
  476MOL0     C65557   7.971   7.167   9.836  0.0080 -0.0962  0.1180
  476MOL0     O65558   8.093   7.141   9.771  0.1188  0.4038  0.7800
  476MOL0     C65559   8.100   7.043   9.656  0.0532  0.1842 -0.7304
  476MOL0     C65560   8.233   7.032   9.598 -0.8276 -0.6708 -0.0235
  476MOL0     C65561   8.344   6.996   9.700  0.2952 -0.3190  0.0282
  476MOL0     C65562   8.459   6.938   9.622  0.2171  0.2033 -0.7616
  476MOL0     C65563   8.580   6.920   9.711 -0.6611  0.3750  0.4981
  476MOL0     C65564   8.677   6.842   9.621  0.3876 -0.0805 -0.0014
  476MOL0     C65565   8.812   6.823   9.696  1.0790  0.1172 -0.9451
  476MOL0     C65566   8.873   6.705   9.623  0.2592 -0.1598 -0.1030
  476MOL0     N65567   9.006   6.678   9.670  0.6138  0.1359 -0.7704
  476MOL0     C65568   9.032   6.629   9.799 -0.4413  1.0948  0.5547
  476MOL0     C65569   9.169   6.633   9.810  0.0813  0.0887 -0.0197
  476MOL0     C65570   9.245   6.570   9.927  0.1393 -0.0433 -0.4983
  476MOL0     C65571   9.386   6.520   9.880  0.5900  0.4007 -0.5616
  476MOL0     C65572   9.455   6.444   9.997 -1.1424  0.4463  0.9485
  476MOL0     C65573   9.607   6.417   9.956  0.7377  0.3158 -0.9774
  476MOL0     O65574   9.673   6.377  10.079 -0.8421 -0.4048 -0.0389
  476MOL0     C65575   9.801   6.328  10.060  0.0462  0.1045 -0.0721
  476MOL0     C65576   9.893   6.395   9.990 -0.2314  0.2239  0.7598
  476MOL0     C65577  10.028   6.354   9.989 -0.3654 -0.8638 -0.5487
  476MOL0     C65578  10.113   6.432   9.902 -0.3479  0.1639  0.1332
  476MOL0     C65579  10.064   6.238  10.056  0.0049  0.2296  1.2774
  476MOL0     C65580  10.207   6.192  10.050 -0.0963  0.2441 -1.1329
  476MOL0     O65581  10.301   6.276  10.102 -0.3845  0.7240 -0.5604
  476MOL0     C65582  10.429   6.259  10.039  0.4000  0.5070  0.6071
  476MOL0     C65583  10.484   6.371   9.969  1.0046  0.2185  0.2616
  476MOL0     C65584  10.622   6.360   9.936  0.4950  0.1846 -0.0633
  476MOL0     C65585  10.691   6.241   9.948 -0.8731  1.1759  0.0087
  476MOL0     O65586  10.818   6.219   9.902  0.2409  0.0446 -0.0331
  476MOL0     C65587  10.912   6.328   9.902 -0.2960 -0.8770 -0.0982
  476MOL0     C65588  11.051   6.285   9.843 -0.0999  0.0103  0.0752
  476MOL0     C65589  11.117   6.185   9.934 -0.5902  0.3184 -0.4807
  476MOL0     C65590  11.065   6.043   9.908 -0.1858  1.3521  0.2758
  476MOL0     C65591  11.134   5.933   9.983  0.2379  0.4346 -0.3910
  476MOL0     C65592  11.097   5.796   9.903 -0.1160 -0.0656 -0.5980
  476MOL0     C65593  11.143   5.666   9.980  0.9950 -0.0207  0.1677
  476MOL0     C65594  11.275   5.612   9.933  0.2068 -0.2196  0.5065
  476MOL0    Cl65595  11.412   5.721   9.946 -0.0402  0.3014 -0.6634
  476MOL0     C65596  10.624   6.125  10.012 -0.2848 -1.0414 -0.4327
  476MOL0     C65597  10.498   6.137  10.059  0.0039 -0.0743 -0.5349
  476MOL0     O65598  10.231   6.087   9.988  0.2187 -0.7067 -0.8228
  476MOL0     C65599   9.971   6.175  10.136 -0.4017  0.6238 -0.1409
  476MOL0     C65600   9.840   6.217  10.135 -0.2355 -0.0541 -0.1165
  476MOL0     N65601   9.217   6.695   9.695 -0.2810 -0.4271 -0.0928
  476MOL0     N65602   9.123   6.724   9.616  0.1350 -0.0433  0.2792
  476MOL0     C65603   7.972   7.223   9.963  0.6378  0.2379 -0.1017
  476MOL0     C65604   7.851   7.238  10.034  0.0391  0.2252 -0.3049
  476MOL0     C65605   7.434   7.350  10.133 -0.1878 -0.2888  0.3610
  476MOL0     C65606   7.334   7.455  10.111  0.6431  0.0630 -0.0038
  476MOL0     C65607   7.229   7.479  10.198 -0.8568  0.2698  0.2204
  476MOL0     C65608   7.239   7.429  10.327  0.3102  0.3581 -0.6534
  476MOL0     O65609   7.147   7.474  10.424  0.6558  0.1204 -0.3926
  476MOL0     C65610   7.189   7.488  10.559  0.3157  0.0182 -0.6909
  476MOL0     C65611   7.130   7.381  10.647 -0.3530  0.5405  0.3162
  476MOL0     C65612   7.173   7.404  10.795  0.0016  0.2477  0.2057
  476MOL0     C65613   7.313   7.360  10.836 -0.2509  0.0086 -0.0637
  476MOL0     C65614   7.358   7.402  10.965 -0.0014  0.3556 -0.7218
  476MOL0     C65615   7.395   7.459  11.068 -0.9210 -0.4819  0.5492
  476MOL0     C65616   7.336   7.339  10.359 -0.2121 -0.9070  0.0313
  476MOL0     C65617   7.438   7.305  10.265  0.0268 -0.0982  0.4279
  476MOL0     C65618   7.545   7.214  10.321 -0.9460 -0.2392  0.5548
  476MOL0     H65619   7.633   7.127   9.798 -0.5308  1.1979  0.7888
  476MOL0     H65620   7.843   7.092   9.672  2.7108  0.7137  0.7809
  476MOL0     H65621   8.020   7.075   9.588 -0.9146 -0.2448  0.1748
  476MOL0     H65622   8.066   6.947   9.695  2.9836 -1.6975 -2.4298
  476MOL0     H65623   8.231   6.964   9.512  0.2603 -0.0152 -0.5780
  476MOL0     H65624   8.267   7.131   9.566  3.0867 -1.3500  1.4438
  476MOL0     H65625   8.371   7.083   9.760 -1.1074 -0.3478  0.7259
  476MOL0     H65626   8.309   6.926   9.776 -1.4791  0.3113 -0.1813
  476MOL0     H65627   8.434   6.842   9.577 -0.5280 -0.3432  0.7485
  476MOL0     H65628   8.489   7.009   9.545  4.3759 -0.4303  0.0164
  476MOL0     H65629   8.550   6.869   9.803  1.2561 -1.0839  0.3756
  476MOL0     H65630   8.620   7.019   9.734 -2.3440  0.6868  2.2644
  476MOL0     H65631   8.626   6.751   9.589 -1.0597  1.0493 -1.0313
  476MOL0     H65632   8.705   6.909   9.538  1.0943  0.3961  0.6046
  476MOL0     H65633   8.797   6.815   9.804  1.7587 -0.4095 -0.8833
  476MOL0     H65634   8.867   6.917   9.681  1.3853  0.2505  0.8410
  476MOL0     H65635   8.804   6.620   9.628  0.8809 -0.7519 -1.3207
  476MOL0     H65636   8.892   6.728   9.518  2.8223 -0.6037  0.1825
  476MOL0     H65637   8.968   6.585   9.875  1.6125  0.0960  1.7971
  476MOL0     H65638   9.174   6.497   9.968 -1.9835 -0.5401 -4.5528
  476MOL0     H65639   9.268   6.647  10.002  1.1333 -1.4426  0.6984
  476MOL0     H65640   9.377   6.468   9.784 -0.8154 -1.9113  0.7147
  476MOL0     H65641   9.443   6.611   9.861 -0.6531  1.3530  0.0790
  476MOL0     H65642   9.455   6.494  10.094  0.5230 -0.2254  1.3269
  476MOL0     H65643   9.404   6.348  10.010  0.0203 -0.0801  1.8625
  476MOL0     H65644   9.610   6.336   9.883  0.4681 -0.2104 -0.4195
  476MOL0     H65645   9.647   6.504   9.903  1.8819  0.9936  0.8948
  476MOL0     H65646   9.861   6.484   9.937 -1.3583  0.5963  1.9914
  476MOL0     H65647  10.166   6.363   9.835 -1.4380  0.1295 -0.7269
  476MOL0     H65648  10.183   6.483   9.969  0.7888 -2.1494  0.8440
  476MOL0     H65649  10.061   6.506   9.841  0.7352  2.7785  2.1866
  476MOL0     H65650  10.427   6.463   9.969 -0.7265 -0.7746 -1.4791
  476MOL0     H65651  10.668   6.453   9.905 -2.6585  1.8722 -0.0408
  476MOL0     H65652  10.865   6.411   9.848 -0.2006  0.0859  1.2445
  476MOL0     H65653  10.923   6.356  10.007 -1.7174  1.0709 -0.4110
  476MOL0     H65654  11.044   6.243   9.743  2.1127 -1.8863  0.6302
  476MOL0     H65655  11.111   6.377   9.840  0.2492 -0.2106  0.2620
  476MOL0     H65656  11.096   6.220  10.036 -0.5212  2.9679 -1.2930
  476MOL0     H65657  11.226   6.179   9.930 -0.3601  0.5528  2.8412
  476MOL0     H65658  11.066   6.021   9.800  3.6692 -2.9015  0.8763
  476MOL0     H65659  10.959   6.035   9.933 -0.4418 -0.9334 -1.2350
  476MOL0     H65660  11.242   5.949   9.988  0.0212  2.8886 -2.0056
  476MOL0     H65661  11.104   5.932  10.088 -3.2162 -1.1917 -1.2379
  476MOL0     H65662  11.128   5.798   9.798 -0.2504 -0.5735 -0.6486
  476MOL0     H65663  10.988   5.787   9.901 -0.1587  0.3549 -0.2454
  476MOL0     H65664  11.065   5.590   9.967 -0.7200  1.5284  0.9502
  476MOL0     H65665  11.154   5.682  10.088  0.9960 -4.0711  0.9307
  476MOL0     H65666  11.277   5.578   9.829  1.7393  0.6329  0.2315
  476MOL0     H65667  11.284   5.528  10.003  3.7340  0.8528  1.5118
  476MOL0     H65668  10.683   6.037  10.034  1.2817 -0.6057 -2.5689
  476MOL0     H65669  10.449   6.059  10.116 -2.5632  0.1870 -2.2067
  476MOL0     H65670  10.004   6.089  10.194 -0.7894  1.2373  1.0195
  476MOL0     H65671   9.772   6.172  10.207 -0.5891  0.1063 -0.3419
  476MOL0     H65672   8.065   7.257  10.009 -0.7965  1.1124  2.3517
  476MOL0     H65673   7.834   7.266  10.138 -1.1150 -2.8436  0.4400
  476MOL0     H65674   7.338   7.506  10.015  1.7058 -2.6487 -1.5199
  476MOL0     H65675   7.156   7.553  10.167  0.2656  1.2810 -0.0950
  476MOL0     H65676   7.298   7.495  10.559  0.3659 -0.4939  0.7335
  476MOL0     H65677   7.160   7.586  10.596 -2.4834 -0.2059 -2.0058
  476MOL0     H65678   7.181   7.290  10.614 -0.3298 -0.7924  3.6137
  476MOL0     H65679   7.023   7.363  10.640 -0.9499  2.4782  2.8747
  476MOL0     H65680   7.155   7.506  10.830  0.5390  0.3504  0.1934
  476MOL0     H65681   7.106   7.336  10.849  0.1069 -2.6762 -3.0109
  476MOL0     H65682   7.388   7.411  10.774  1.6462 -0.9981  1.3059
  476MOL0     H65683   7.324   7.252  10.822 -1.5492 -0.5264  2.4554
  476MOL0     H65684   7.429   7.513  11.154  0.3462 -1.0057  0.4041
  476MOL0     H65685   7.334   7.284  10.452  1.2755 -1.1319 -0.0386
  476MOL0     H65686   7.538   7.228  10.429 -0.0248  1.2104  0.4486
  476MOL0     H65687   7.539   7.108  10.295  0.2807  0.0916 -1.2872
  476MOL0     H65688   7.643   7.250  10.287  0.1398 -2.3978  1.1988
  477MOL0     O65689   0.481   9.747   1.954  0.6034  0.1717 -0.1708
  477MOL0     C65690   0.455   9.651   1.891 -0.6627  1.0372 -1.6159
  477MOL0     O65691   0.544   9.553   1.856 -0.1562  0.4869  0.0722
  477MOL0     C65692   0.689   9.573   1.878 -0.0801  0.5453 -0.3197
  477MOL0     C65693   0.754   9.456   1.913  0.0585  0.0448 -0.4120
  477MOL0     C65694   0.888   9.456   1.956 -0.2393 -0.2127  0.0473
  477MOL0     C65695   0.956   9.577   1.955  0.0739 -0.0766  0.7324
  477MOL0     O65696   1.083   9.563   2.000  1.2896 -0.5734 -0.3775
  477MOL0     C65697   1.134   9.679   2.067 -0.0552  1.1285 -0.4102
  477MOL0     C65698   1.228   9.643   2.181  0.2335 -0.8256 -0.1484
  477MOL0     C65699   1.370   9.628   2.127 -0.4647  0.9292  0.1861
  477MOL0     C65700   1.469   9.615   2.249 -0.3745  0.9208  0.2236
  477MOL0     C65701   1.612   9.587   2.191  0.2397 -0.8285  0.1152
  477MOL0     C65702   1.708   9.577   2.315 -0.6568 -0.5599  0.7725
  477MOL0     C65703   1.702   9.462   2.412 -0.6560 -0.2499  0.4931
  477MOL0     C65704   1.805   9.477   2.533  0.8143  0.2529 -0.4704
  477MOL0     N65705   1.943   9.466   2.481  0.5962  0.0898 -1.6225
  477MOL0     C65706   2.010   9.573   2.437  0.1871 -0.2460  0.4151
  477MOL0     C65707   2.129   9.522   2.401 -0.2654  0.0092 -0.1268
  477MOL0     C65708   2.238   9.588   2.320  0.4132  0.4573 -0.6689
  477MOL0     C65709   2.387   9.553   2.366  0.1060  0.9146  0.1735
  477MOL0     C65710   2.417   9.629   2.493 -0.7436 -0.1222  0.2416
  477MOL0     C65711   2.567   9.648   2.519 -0.2760 -0.1930 -0.4289
  477MOL0     O65712   2.621   9.531   2.568 -0.1187  0.8396  0.6484
  477MOL0     C65713   2.755   9.533   2.549 -1.4990  0.6749 -0.1891
  477MOL0     C65714   2.833   9.633   2.619 -0.1695  0.3445  0.3279
  477MOL0     C65715   2.976   9.635   2.611  0.8118  0.3657 -0.1490
  477MOL0     C65716   3.040   9.745   2.679 -0.4074  0.1005 -0.7101
  477MOL0     C65717   3.037   9.534   2.529  0.5319 -0.1145  0.2632
  477MOL0     C65718   3.179   9.511   2.517 -0.4546 -0.7833 -0.2259
  477MOL0     O65719   3.226   9.447   2.410  0.2809  0.3222  0.4883
  477MOL0     C65720   3.354   9.472   2.386 -0.1891 -0.1116 -0.2035
  477MOL0     C65721   3.401   9.591   2.337  1.2808  0.8129 -0.0591
  477MOL0     C65722   3.537   9.610   2.302  0.1860  0.2184  0.5719
  477MOL0     C65723   3.621   9.507   2.312 -0.0967 -0.3030  0.4400
  477MOL0     O65724   3.747   9.535   2.275  0.2131  0.0062  0.3821
  477MOL0     C65725   3.849   9.432   2.272 -0.1515 -0.2485  0.2069
  477MOL0     C65726   3.972   9.505   2.232 -0.5672 -0.5779 -0.1312
  477MOL0     C65727   4.102   9.425   2.231 -0.5505  0.0541  0.2390
  477MOL0     C65728   4.212   9.504   2.172  0.3204  0.3824 -0.0272
  477MOL0     C65729   4.335   9.406   2.153 -0.0693  0.3278 -0.5798
  477MOL0     C65730   4.465   9.479   2.124 -0.0621  0.5617  0.2132
  477MOL0     C65731   4.445   9.580   2.008  0.4619 -0.5042 -0.6989
  477MOL0     C65732   4.567   9.663   1.963  0.5813  0.2363 -0.4401
  477MOL0    Cl65733   4.527   9.805   1.861  0.2121  0.6288 -0.3216
  477MOL0     C65734   3.582   9.383   2.362  0.0570  0.3536  0.4898
  477MOL0     C65735   3.448   9.364   2.400 -0.5398 -0.2214 -0.5635
  477MOL0     O65736   3.246   9.546   2.618 -0.3242  0.5885 -0.3597
  477MOL0     C65737   2.957   9.437   2.463 -0.1532 -0.0450 -1.1451
  477MOL0     C65738   2.826   9.426   2.488  0.4329 -0.0225  0.2551
  477MOL0     N65739   2.132   9.384   2.446  0.5533 -0.2579 -0.0314
  477MOL0     N65740   2.023   9.356   2.504 -0.0667 -0.1806  0.2725
  477MOL0     C65741   0.892   9.693   1.900  0.0414  0.2001 -1.3294
  477MOL0     C65742   0.762   9.687   1.858 -0.1072 -0.7998  0.3912
  477MOL0     C65743   0.317   9.632   1.843  1.0183 -0.1311 -0.6232
  477MOL0     C65744   0.249   9.751   1.809  0.1182 -0.2414 -0.7518
  477MOL0     C65745   0.121   9.739   1.761 -0.9099 -0.3278  0.4680
  477MOL0     C65746   0.052   9.626   1.754 -0.6914  0.3158  0.3695
  477MOL0     O65747  -0.083   9.643   1.738  0.6843 -0.6759  0.1132
  477MOL0     C65748  -0.175   9.560   1.816 -0.5101  0.2518 -0.0816
  477MOL0     C65749  -0.306   9.639   1.825 -1.0182  0.1898 -0.2001
  477MOL0     C65750  -0.422   9.574   1.913 -0.3050 -0.2722 -0.3122
  477MOL0     C65751  -0.551   9.627   1.840 -0.6707  0.2668 -0.4808
  477MOL0     C65752  -0.564   9.769   1.867 -0.0318 -0.1121  0.0483
  477MOL0     C65753  -0.587   9.885   1.891  0.6261 -0.1196 -0.4678
  477MOL0     C65754   0.119   9.509   1.780  0.0905 -0.5231  0.2669
  477MOL0     C65755   0.254   9.508   1.823  1.8087 -0.1902 -0.9669
  477MOL0     C65756   0.320   9.377   1.862  0.2121  0.0734  0.2825
  477MOL0     H65757   0.685   9.373   1.915 -1.0241  0.8540 -1.9540
  477MOL0     H65758   0.951   9.374   1.987  2.1430  1.8387  0.9513
  477MOL0     H65759   1.054   9.730   2.121  1.6238  1.5229  1.8370
  477MOL0     H65760   1.177   9.760   2.006  0.7497  0.9665 -0.0709
  477MOL0     H65761   1.220   9.725   2.254 -3.7397 -1.4068  0.2822
  477MOL0     H65762   1.197   9.550   2.228  2.9983 -1.9964 -0.4701
  477MOL0     H65763   1.377   9.543   2.059 -0.2690 -0.1053  1.4767
  477MOL0     H65764   1.390   9.715   2.063 -0.4738  0.8565  0.0845
  477MOL0     H65765   1.472   9.710   2.303  1.3551 -1.1826  4.2444
  477MOL0     H65766   1.433   9.538   2.318 -0.5854 -0.1798 -1.0906
  477MOL0     H65767   1.648   9.664   2.122 -0.6035 -1.1975 -0.7536
  477MOL0     H65768   1.600   9.492   2.139 -0.2100  0.9552 -3.3084
  477MOL0     H65769   1.809   9.568   2.274 -0.6902 -3.8879  1.1218
  477MOL0     H65770   1.705   9.666   2.378 -1.1434  1.0893 -1.4561
  477MOL0     H65771   1.725   9.363   2.371  0.8360 -0.9439  2.7630
  477MOL0     H65772   1.600   9.461   2.452 -0.0199  0.0557  2.2237
  477MOL0     H65773   1.794   9.571   2.589 -0.0474  0.1717 -0.4920
  477MOL0     H65774   1.780   9.399   2.605 -2.9756 -0.2195 -2.0654
  477MOL0     H65775   1.971   9.673   2.424  1.2298  0.2775  1.2086
  477MOL0     H65776   2.228   9.696   2.336  0.4741  0.4002 -0.2300
  477MOL0     H65777   2.220   9.575   2.213  0.0790  0.3342 -0.5982
  477MOL0     H65778   2.398   9.444   2.366 -0.9823  0.6978  3.1925
  477MOL0     H65779   2.448   9.597   2.288  3.4251 -1.3914  1.2599
  477MOL0     H65780   2.371   9.728   2.503 -2.4606 -0.9025  0.4765
  477MOL0     H65781   2.383   9.563   2.573  1.1458 -1.2793  0.1457
  477MOL0     H65782   2.619   9.684   2.430  0.0236  1.2184  0.2826
  477MOL0     H65783   2.576   9.715   2.605  0.1237 -2.6009  1.5422
  477MOL0     H65784   2.794   9.715   2.679 -0.3659 -1.0767  2.2222
  477MOL0     H65785   2.976   9.828   2.708 -0.2763  0.1188 -0.4637
  477MOL0     H65786   3.131   9.781   2.630 -0.5886  1.6628  0.0504
  477MOL0     H65787   3.079   9.700   2.771  0.8858  0.2349 -1.1696
  477MOL0     H65788   3.327   9.671   2.328 -0.4056 -0.4950  1.4451
  477MOL0     H65789   3.559   9.707   2.257 -0.7670  0.4071  0.5060
  477MOL0     H65790   3.861   9.395   2.374  0.9767  2.3806  1.1159
  477MOL0     H65791   3.840   9.355   2.196  0.7271  1.3582 -1.6070
  477MOL0     H65792   3.971   9.530   2.126  2.3673 -0.0634 -0.1281
  477MOL0     H65793   3.989   9.592   2.297  1.4757  0.4522 -1.8934
  477MOL0     H65794   4.079   9.342   2.163 -0.5376  0.1249  0.1469
  477MOL0     H65795   4.133   9.387   2.328 -0.3106  0.3310  0.2718
  477MOL0     H65796   4.231   9.581   2.248 -0.4519  0.2993  0.2610
  477MOL0     H65797   4.179   9.559   2.084 -0.0954  0.4847  0.1920
  477MOL0     H65798   4.352   9.353   2.247  2.9757  0.6724 -0.8261
  477MOL0     H65799   4.306   9.341   2.070 -0.7858 -0.8849  0.5793
  477MOL0     H65800   4.546   9.412   2.095  0.0702  1.7317 -2.3673
  477MOL0     H65801   4.488   9.530   2.218  0.9025  1.2206 -0.3648
  477MOL0     H65802   4.380   9.658   2.050 -0.0702 -0.2678 -1.9289
  477MOL0     H65803   4.393   9.534   1.924  1.2081  1.6960 -2.4635
  477MOL0     H65804   4.632   9.595   1.906  1.4530  0.4509  0.2704
  477MOL0     H65805   4.625   9.701   2.048  0.7094  2.0619 -1.3074
  477MOL0     H65806   3.653   9.303   2.381 -1.3916 -1.0295  0.3424
  477MOL0     H65807   3.417   9.265   2.431 -1.5980  0.0383 -0.7599
  477MOL0     H65808   2.993   9.359   2.397 -0.5916 -0.8058 -0.5063
  477MOL0     H65809   2.766   9.340   2.461 -1.0302  0.8102  0.7204
  477MOL0     H65810   0.948   9.786   1.889  1.5591 -0.5358 -0.2769
  477MOL0     H65811   0.706   9.777   1.834  1.1300  0.6176  2.5579
  477MOL0     H65812   0.278   9.856   1.811  2.2455 -0.7824 -1.4866
  477MOL0     H65813   0.066   9.830   1.739 -2.0758 -1.3376 -1.0136
  477MOL0     H65814  -0.197   9.469   1.759 -1.2694  1.2877 -1.5183
  477MOL0     H65815  -0.133   9.534   1.913 -0.4579  0.3642 -0.0742
  477MOL0     H65816  -0.339   9.651   1.721  5.6199  2.4273 -2.6073
  477MOL0     H65817  -0.278   9.737   1.864  1.8141 -0.2262 -0.9431
  477MOL0     H65818  -0.416   9.465   1.907 -2.8490 -0.4377 -1.1211
  477MOL0     H65819  -0.417   9.613   2.015  2.1848  0.1199 -0.5288
  477MOL0     H65820  -0.635   9.581   1.892  0.2792  0.2242  1.0594
  477MOL0     H65821  -0.548   9.606   1.733  0.6720 -0.7199 -0.2724
  477MOL0     H65822  -0.602   9.989   1.914  2.0078 -0.0034  0.0034
  477MOL0     H65823   0.065   9.414   1.782  0.9114 -1.1417 -2.4321
  477MOL0     H65824   0.234   9.312   1.881 -1.7204  2.2824 -0.4449
  477MOL0     H65825   0.370   9.331   1.777  1.0501  2.2255 -0.4549
  477MOL0     H65826   0.386   9.381   1.949  0.2906  1.3041  0.1732
  478MOL0     O65827   6.192   5.706   2.626  0.5569  0.1619  0.4695
  478MOL0     C65828   6.133   5.686   2.519  0.1530 -0.5390  0.3516
  478MOL0     O65829   6.191   5.679   2.393  0.5285  0.8690 -0.0849
  478MOL0     C65830   6.329   5.693   2.390  0.4969  0.5983 -1.0019
  478MOL0     C65831   6.396   5.797   2.337 -0.9828 -0.7211  0.4228
  478MOL0     C65832   6.542   5.810   2.339 -0.4302  0.1808  0.7717
  478MOL0     C65833   6.625   5.709   2.396 -0.2997 -0.2181 -0.3369
  478MOL0     O65834   6.763   5.711   2.374 -0.1289 -0.3740 -0.9564
  478MOL0     C65835   6.846   5.631   2.465 -1.2905 -0.4949  0.2894
  478MOL0     C65836   6.993   5.669   2.451  0.2531 -0.1377  0.2162
  478MOL0     C65837   7.078   5.580   2.546  0.0024 -0.4469 -0.4375
  478MOL0     C65838   7.099   5.652   2.684  0.9095  0.3937 -0.1358
  478MOL0     C65839   7.196   5.564   2.762  1.0497  0.6543  0.1235
  478MOL0     C65840   7.265   5.647   2.862 -0.9952  0.4621 -0.3113
  478MOL0     C65841   7.377   5.581   2.950  0.1774  1.0397 -0.2082
  478MOL0     C65842   7.341   5.448   3.014 -0.4495 -0.8431 -0.4389
  478MOL0     N65843   7.462   5.381   3.071  0.4909 -0.2592  0.2595
  478MOL0     C65844   7.540   5.290   3.003 -0.8226  0.8810 -1.1334
  478MOL0     C65845   7.647   5.271   3.083  0.2198 -1.1044  0.2921
  478MOL0     C65846   7.766   5.183   3.054 -0.0835 -0.7572 -0.6572
  478MOL0     C65847   7.883   5.224   3.149  0.3220 -0.0416  0.8485
  478MOL0     C65848   8.019   5.211   3.082  0.1358  0.8734 -0.5705
  478MOL0     C65849   8.128   5.299   3.135 -0.0246 -0.9800 -0.2730
  478MOL0     O65850   8.072   5.428   3.090  0.0443 -0.0042 -0.5163
  478MOL0     C65851   8.130   5.542   3.138  0.1760 -1.2536  0.3899
  478MOL0     C65852   8.066   5.663   3.094 -0.5197  0.3686 -0.0536
  478MOL0     C65853   8.097   5.790   3.137  0.5740  0.9315 -0.5403
  478MOL0     C65854   8.024   5.911   3.076 -0.6468 -1.0701 -0.4882
  478MOL0     C65855   8.196   5.807   3.240 -0.7971  0.5941  0.3926
  478MOL0     C65856   8.255   5.939   3.284  0.7209  0.2493 -0.4813
  478MOL0     O65857   8.367   5.929   3.364 -0.4211  0.4418 -0.1986
  478MOL0     C65858   8.462   6.026   3.391  0.5310 -0.2942  0.0964
  478MOL0     C65859   8.507   6.124   3.290  0.4379 -0.5975 -0.7724
  478MOL0     C65860   8.609   6.216   3.320 -0.1501  0.2552 -0.0059
  478MOL0     C65861   8.680   6.207   3.438  0.7841 -0.6896  0.1498
  478MOL0     O65862   8.784   6.294   3.454  0.2283 -0.5373 -0.2207
  478MOL0     C65863   8.818   6.343   3.587 -0.0664  0.1603 -0.3545
  478MOL0     C65864   8.960   6.314   3.615 -0.1629 -0.3984  0.7279
  478MOL0     C65865   9.043   6.344   3.487 -0.1074 -0.2301  0.2235
  478MOL0     C65866   9.187   6.277   3.508  1.0857  0.0868  0.9739
  478MOL0     C65867   9.255   6.292   3.379 -0.3627 -0.6794  0.5717
  478MOL0     C65868   9.393   6.232   3.397 -0.0078  0.0321 -0.2250
  478MOL0     C65869   9.475   6.238   3.275 -0.1741  0.5476 -0.2057
  478MOL0     C65870   9.608   6.166   3.282  0.1066 -0.0077 -0.1619
  478MOL0    Cl65871   9.579   5.995   3.320 -0.0310 -0.5250  0.1018
  478MOL0     C65872   8.647   6.111   3.532  0.3095  0.2367 -0.2957
  478MOL0     C65873   8.547   6.021   3.507  0.0091  1.0506 -0.6337
  478MOL0     O65874   8.197   6.043   3.261  0.3089  0.2850  0.6135
  478MOL0     C65875   8.271   5.688   3.270  0.1887 -0.4202 -0.2180
  478MOL0     C65876   8.241   5.563   3.219 -0.1439  0.4504  0.5673
  478MOL0     N65877   7.627   5.344   3.192 -0.4080 -0.5103 -0.0698
  478MOL0     N65878   7.524   5.408   3.187 -0.8034 -0.6849  0.6732
  478MOL0     C65879   6.551   5.611   2.460 -0.0184  0.3136 -0.9604
  478MOL0     C65880   6.407   5.596   2.457  0.1972 -0.3820  0.5425
  478MOL0     C65881   5.987   5.664   2.532  0.5381 -0.6145  0.0911
  478MOL0     C65882   5.917   5.606   2.425  0.4680 -0.5974 -0.8418
  478MOL0     C65883   5.789   5.563   2.431 -0.0069  0.9230 -0.4399
  478MOL0     C65884   5.712   5.579   2.549  0.1129  0.2465  0.8339
  478MOL0     O65885   5.583   5.539   2.548 -0.1159 -0.4162  0.2211
  478MOL0     C65886   5.508   5.528   2.673  0.1959 -0.3155 -0.7488
  478MOL0     C65887   5.393   5.434   2.657 -0.2396 -0.2071 -0.1325
  478MOL0     C65888   5.275   5.479   2.567  0.9559  0.8028  1.1915
  478MOL0     C65889   5.141   5.393   2.575 -0.2781 -0.5352  0.7830
  478MOL0     C65890   5.061   5.399   2.455 -0.2108 -0.1381  0.2883
  478MOL0     C65891   4.998   5.402   2.343  0.4364 -0.6269  0.4851
  478MOL0     C65892   5.776   5.646   2.653 -0.2792 -0.0095 -0.4411
  478MOL0     C65893   5.915   5.680   2.657 -0.3530  0.2232  0.4092
  478MOL0     C65894   5.971   5.722   2.793  0.8997  0.0687 -0.5709
  478MOL0     H65895   6.323   5.872   2.308 -2.7010 -2.6401 -0.5141
  478MOL0     H65896   6.578   5.902   2.294 -2.6326 -0.5041 -2.7765
  478MOL0     H65897   6.827   5.526   2.438  0.1352 -1.2365  2.0200
  478MOL0     H65898   6.818   5.640   2.570  0.6601  0.7952  0.7572
  478MOL0     H65899   7.016   5.648   2.346 -0.9973 -1.7296  0.2273
  478MOL0     H65900   7.004   5.774   2.483 -0.1951 -0.2932  0.8965
  478MOL0     H65901   7.027   5.485   2.565 -0.9972 -0.8403 -4.3058
  478MOL0     H65902   7.175   5.558   2.501 -0.8618 -0.1939 -2.5433
  478MOL0     H65903   7.151   5.745   2.659  0.1685  0.4569 -1.5711
  478MOL0     H65904   6.998   5.654   2.725  0.7244 -2.0404 -0.3205
  478MOL0     H65905   7.274   5.523   2.696 -0.4412 -0.8546 -0.7758
  478MOL0     H65906   7.141   5.477   2.799  2.5768 -0.3344  0.1757
  478MOL0     H65907   7.307   5.732   2.807 -0.8427 -0.5098 -1.7585
  478MOL0     H65908   7.184   5.686   2.923 -1.3806 -0.9737  0.1027
  478MOL0     H65909   7.392   5.648   3.035 -0.7112 -2.1343  2.6952
  478MOL0     H65910   7.471   5.569   2.896  0.6966 -1.2955  1.0730
  478MOL0     H65911   7.269   5.474   3.092  1.1850  3.3986 -0.0809
  478MOL0     H65912   7.295   5.390   2.934  0.4023  1.1806 -2.5282
  478MOL0     H65913   7.508   5.249   2.907 -2.1292 -1.8540  0.3586
  478MOL0     H65914   7.797   5.177   2.949  0.9712 -1.8802 -0.3052
  478MOL0     H65915   7.734   5.084   3.087  1.3023 -1.4891 -1.4135
  478MOL0     H65916   7.880   5.326   3.187  0.2211  0.0614  0.5636
  478MOL0     H65917   7.882   5.155   3.234 -1.1422 -1.1587 -0.0443
  478MOL0     H65918   8.052   5.107   3.098  0.8727  1.4838  2.4156
  478MOL0     H65919   8.021   5.222   2.973 -3.0127 -0.3185 -0.8331
  478MOL0     H65920   8.127   5.298   3.245 -1.6174  0.9335 -0.1910
  478MOL0     H65921   8.228   5.280   3.096 -0.1852  0.7622 -1.6722
  478MOL0     H65922   7.990   5.656   3.017 -1.8044  2.8384  0.8790
  478MOL0     H65923   7.950   5.878   3.003 -0.6668 -0.5848 -0.6928
  478MOL0     H65924   8.098   5.979   3.032 -2.1366  2.2283  1.6902
  478MOL0     H65925   7.975   5.958   3.162  1.6089  2.7016 -1.0192
  478MOL0     H65926   8.452   6.119   3.196  0.4520 -4.2763 -0.7305
  478MOL0     H65927   8.631   6.302   3.258 -1.4702 -0.1074 -1.0096
  478MOL0     H65928   8.792   6.447   3.567 -1.2286  0.0249  0.3299
  478MOL0     H65929   8.758   6.306   3.671 -0.7949  0.2670 -0.8172
  478MOL0     H65930   8.981   6.386   3.694 -1.4422  2.0353 -0.9845
  478MOL0     H65931   8.957   6.208   3.643  1.4888 -0.9308 -0.9166
  478MOL0     H65932   9.067   6.450   3.476  0.5800 -0.6399 -3.7477
  478MOL0     H65933   9.004   6.301   3.394  0.3714  1.1387 -0.6384
  478MOL0     H65934   9.187   6.169   3.527  2.0245  0.2851  2.2400
  478MOL0     H65935   9.241   6.331   3.587 -0.7771  2.3429  0.8100
  478MOL0     H65936   9.198   6.254   3.293 -0.5107  2.2250 -0.7456
  478MOL0     H65937   9.265   6.399   3.357 -1.6561 -0.8104 -0.8776
  478MOL0     H65938   9.375   6.127   3.423 -3.5625  0.9952  1.9009
  478MOL0     H65939   9.452   6.273   3.480 -0.6689 -0.7554  0.6601
  478MOL0     H65940   9.500   6.343   3.258  1.2901 -0.0643 -2.2599
  478MOL0     H65941   9.411   6.192   3.199  1.8469  0.7585 -2.1374
  478MOL0     H65942   9.673   6.209   3.359  0.3458  0.1904 -0.4677
  478MOL0     H65943   9.650   6.169   3.181 -1.9159  2.7733 -1.0587
  478MOL0     H65944   8.710   6.094   3.618  3.2295  0.6912 -2.2073
  478MOL0     H65945   8.516   5.961   3.592  0.8915  1.2249 -0.1788
  478MOL0     H65946   8.353   5.694   3.341 -0.1086  0.6350  0.0551
  478MOL0     H65947   8.301   5.483   3.261  0.2223  0.2948 -0.2212
  478MOL0     H65948   6.603   5.537   2.521 -1.2271 -0.4211 -0.7729
  478MOL0     H65949   6.355   5.508   2.493 -3.7149  1.3502 -0.2750
  478MOL0     H65950   5.970   5.595   2.331 -2.7600 -2.6398 -2.6030
  478MOL0     H65951   5.728   5.525   2.349  0.3796 -1.0387  0.1210
  478MOL0     H65952   5.579   5.486   2.745  1.1538  0.6458 -1.1151
  478MOL0     H65953   5.464   5.617   2.719  0.9161  0.3990 -1.4210
  478MOL0     H65954   5.358   5.395   2.753  0.2646 -0.9235 -0.2226
  478MOL0     H65955   5.441   5.345   2.614  1.2492 -0.2960  1.5574
  478MOL0     H65956   5.253   5.577   2.609  0.4725  0.3158  2.1213
  478MOL0     H65957   5.318   5.489   2.467  0.6067  2.3387  1.1777
  478MOL0     H65958   5.078   5.435   2.654 -3.6808  1.4693 -2.6373
  478MOL0     H65959   5.161   5.289   2.600  2.9763  0.0726  1.1491
  478MOL0     H65960   4.952   5.408   2.247  1.8625 -0.4345 -0.2158
  478MOL0     H65961   5.722   5.642   2.747  2.9965 -1.2444  1.5359
  478MOL0     H65962   6.000   5.827   2.788 -2.9121  1.3462  0.5627
  478MOL0     H65963   5.895   5.715   2.872 -0.4307 -1.7176 -1.9261
  478MOL0     H65964   6.062   5.665   2.812  0.1992 -0.4567  1.5051
  479MOL0     O65965   9.564   4.628   4.207 -0.2922  0.1858 -0.7234
  479MOL0     C65966   9.597   4.528   4.157  0.3316 -0.6449  0.4614
  479MOL0     O65967   9.716   4.513   4.097 -0.0132  0.7742 -0.6465
  479MOL0     C65968   9.829   4.597   4.111  0.0621 -0.8521  0.5715
  479MOL0     C65969   9.947   4.534   4.105  0.9974 -0.3773  0.2015
  479MOL0     C65970  10.067   4.600   4.102  0.8580 -0.6420 -0.3996
  479MOL0     C65971  10.069   4.740   4.126  0.3366  0.0412 -0.3620
  479MOL0     O65972  10.185   4.810   4.155  0.8236 -0.0526 -0.2170
  479MOL0     C65973  10.294   4.788   4.063  0.5365  0.6405  0.6113
  479MOL0     C65974  10.347   4.922   4.013  0.0096 -0.1805 -0.9871
  479MOL0     C65975  10.477   4.906   3.934 -0.6180  0.6207 -0.1798
  479MOL0     C65976  10.524   5.026   3.864  0.7054 -0.5501  0.3462
  479MOL0     C65977  10.638   5.024   3.764 -0.3291  0.1269 -0.4943
  479MOL0     C65978  10.756   5.095   3.835 -0.8685  0.0148 -1.2796
  479MOL0     C65979  10.884   5.056   3.767  0.5169 -0.8878  0.5089
  479MOL0     C65980  11.016   5.137   3.786 -0.5442  0.3479  0.2552
  479MOL0     N65981  11.074   5.110   3.919  1.1639  0.2627 -0.1396
  479MOL0     C65982  11.188   5.033   3.936  0.1322 -0.2132 -0.0702
  479MOL0     C65983  11.243   5.061   4.058 -0.1847 -0.2765  0.3688
  479MOL0     C65984  11.374   5.004   4.097  0.3937  0.6206 -0.5946
  479MOL0     C65985  11.489   5.092   4.073 -0.1543 -0.6598  0.3124
  479MOL0     C65986  11.599   5.065   4.167 -0.0887 -0.1929  0.2136
  479MOL0     C65987  11.703   5.171   4.158 -0.9317  0.0084 -1.3629
  479MOL0     O65988  11.773   5.157   4.029 -0.2834  0.3394 -0.9800
  479MOL0     C65989  11.816   5.268   3.968  0.0214  0.8918 -0.6934
  479MOL0     C65990  11.821   5.401   4.012  0.2579  0.3396 -0.5143
  479MOL0     C65991  11.883   5.507   3.947  0.8826  0.7418 -0.3113
  479MOL0     C65992  11.865   5.645   4.003  0.0971 -0.2191 -0.6624
  479MOL0     C65993  11.941   5.479   3.825 -0.2597  0.3163  0.9829
  479MOL0     C65994  12.015   5.581   3.747  0.4930 -0.4759 -0.4414
  479MOL0     O65995  12.040   5.547   3.621 -0.5942 -0.7135 -0.2422
  479MOL0     C65996  12.087   5.653   3.556  0.2624  0.9860 -0.1569
  479MOL0     C65997  12.218   5.646   3.512 -0.6310 -0.8887 -0.2998
  479MOL0     C65998  12.255   5.752   3.424 -0.5620  0.2205  0.4481
  479MOL0     C65999  12.164   5.854   3.374  0.2245  0.1922 -0.3273
  479MOL0     O66000  12.201   5.946   3.282  1.1997 -0.8668 -0.4235
  479MOL0     C66001  12.328   6.007   3.295 -1.0714  0.0284  0.4075
  479MOL0     C66002  12.316   6.157   3.291  0.4430 -0.1632  0.2276
  479MOL0     C66003  12.432   6.228   3.224 -0.1883 -0.4857 -0.8538
  479MOL0     C66004  12.566   6.233   3.310  0.4355 -0.0012  0.8018
  479MOL0     C66005  12.570   6.358   3.404  1.1579 -0.9282 -0.0234
  479MOL0     C66006  12.717   6.385   3.450  0.2354 -0.2602  0.1566
  479MOL0     C66007  12.750   6.270   3.551  0.3163  0.1519 -0.0413
  479MOL0     C66008  12.899   6.254   3.588 -0.0367 -0.6384  0.4026
  479MOL0    Cl66009  13.008   6.173   3.476  0.1441 -0.4599  0.0144
  479MOL0     C66010  12.037   5.849   3.426 -0.2517  0.1752  0.3628
  479MOL0     C66011  12.002   5.758   3.526 -0.9775  0.1567  0.2276
  479MOL0     O66012  12.053   5.681   3.804 -0.1595 -0.3487  0.4295
  479MOL0     C66013  11.923   5.352   3.768 -0.3358  0.1950  0.6331
  479MOL0     C66014  11.879   5.246   3.848 -0.4239  0.3168 -0.1221
  479MOL0     N66015  11.161   5.159   4.110  0.0038  0.4485 -0.2151
  479MOL0     N66016  11.068   5.197   4.029  0.3454 -0.5635  0.2918
  479MOL0     C66017   9.951   4.811   4.141 -0.4729 -0.6305 -0.6130
  479MOL0     C66018   9.829   4.738   4.126 -0.2096  0.2247 -0.3085
  479MOL0     C66019   9.496   4.415   4.150 -0.2257 -0.1520 -1.2025
  479MOL0     C66020   9.536   4.303   4.075  0.6015  0.3042  0.7510
  479MOL0     C66021   9.455   4.197   4.045 -0.5548 -0.0243 -0.3525
  479MOL0     C66022   9.330   4.188   4.108  0.5288 -0.3031 -0.3964
  479MOL0     O66023   9.248   4.078   4.085 -0.2468  0.0129 -0.0715
  479MOL0     C66024   9.302   3.970   4.169 -0.1779 -0.4973 -0.4085
  479MOL0     C66025   9.192   3.919   4.269 -0.4817  0.0929 -0.0411
  479MOL0     C66026   9.068   3.889   4.191  0.6761 -0.2802  0.4474
  479MOL0     C66027   8.954   3.848   4.271 -0.6109  0.9621 -0.5733
  479MOL0     C66028   9.000   3.732   4.359  0.5846 -0.3994 -0.7295
  479MOL0     C66029   9.033   3.650   4.450 -0.3397 -1.3116  0.0405
  479MOL0     C66030   9.290   4.292   4.195 -0.0456 -0.3457  0.0080
  479MOL0     C66031   9.365   4.411   4.205  0.7416  0.0549 -0.7875
  479MOL0     C66032   9.286   4.524   4.262  0.7948  0.1647  0.2450
  479MOL0     H66033   9.955   4.427   4.093  0.9535 -0.3086 -0.4488
  479MOL0     H66034  10.159   4.546   4.084  1.0924  0.2596 -2.1465
  479MOL0     H66035  10.264   4.730   3.975 -2.1510  1.8074  0.6772
  479MOL0     H66036  10.377   4.729   4.105 -0.9648 -1.6830  0.5307
  479MOL0     H66037  10.269   4.965   3.950 -1.3694  1.7412  1.8290
  479MOL0     H66038  10.359   4.991   4.097 -0.3953 -3.1428  1.6972
  479MOL0     H66039  10.557   4.877   4.003 -0.2092 -0.0523 -0.9162
  479MOL0     H66040  10.452   4.830   3.859  1.4225  0.6259 -0.9434
  479MOL0     H66041  10.430   5.066   3.825 -0.6282 -0.7226  3.0953
  479MOL0     H66042  10.539   5.098   3.945 -4.5816 -0.6053  1.7531
  479MOL0     H66043  10.612   5.072   3.669  0.3654  0.4609 -0.5212
  479MOL0     H66044  10.673   4.924   3.739  0.1115 -0.0333  0.6748
  479MOL0     H66045  10.743   5.204   3.832  0.6101  0.2377 -0.4200
  479MOL0     H66046  10.760   5.064   3.940 -2.2801 -0.6247 -1.3975
  479MOL0     H66047  10.863   5.066   3.660  0.6662 -0.3753  0.5246
  479MOL0     H66048  10.899   4.949   3.788  2.2289 -0.6183  0.8084
  479MOL0     H66049  11.079   5.096   3.707 -0.7376  1.9291 -0.7768
  479MOL0     H66050  10.995   5.242   3.762 -2.7146 -0.0673  0.1431
  479MOL0     H66051  11.211   4.963   3.857  2.3627 -0.2353  0.5305
  479MOL0     H66052  11.386   4.908   4.045 -1.0788 -1.8446  3.1965
  479MOL0     H66053  11.362   4.982   4.203  1.0197  2.0862 -0.1980
  479MOL0     H66054  11.519   5.074   3.970 -1.1534 -1.5164  0.1473
  479MOL0     H66055  11.464   5.198   4.082  0.4990 -0.4372 -0.4202
  479MOL0     H66056  11.566   5.052   4.271  1.8046 -1.2410  0.7281
  479MOL0     H66057  11.638   4.966   4.145 -0.5118  0.3287 -3.6514
  479MOL0     H66058  11.648   5.266   4.151 -0.2976  0.3297 -2.0534
  479MOL0     H66059  11.776   5.175   4.239 -1.5273  0.3625 -0.8281
  479MOL0     H66060  11.757   5.427   4.095 -1.5199 -0.1191 -1.7020
  479MOL0     H66061  11.946   5.679   4.068 -1.7720 -1.7409  2.6697
  479MOL0     H66062  11.776   5.661   4.063  0.8242  0.6828  0.2052
  479MOL0     H66063  11.846   5.716   3.921 -0.0942  1.6388  0.9216
  479MOL0     H66064  12.287   5.564   3.531 -0.7369 -1.1732 -1.1023
  479MOL0     H66065  12.349   5.753   3.370  0.5438  1.2275  2.2804
  479MOL0     H66066  12.378   5.976   3.387  0.8495 -0.1278 -0.6393
  479MOL0     H66067  12.382   5.967   3.209  0.9822  0.3382  1.5092
  479MOL0     H66068  12.222   6.187   3.244  0.8633 -0.2338 -0.6815
  479MOL0     H66069  12.313   6.185   3.396  0.3054 -1.3044  0.5375
  479MOL0     H66070  12.406   6.329   3.194  0.5100 -0.1485 -0.3627
  479MOL0     H66071  12.450   6.177   3.129  0.3150 -3.2891  0.6214
  479MOL0     H66072  12.642   6.252   3.233  0.1540  1.3937  0.8369
  479MOL0     H66073  12.586   6.133   3.350 -0.6223 -1.3401 -1.7365
  479MOL0     H66074  12.541   6.447   3.348  0.2069 -0.6047  0.9464
  479MOL0     H66075  12.500   6.353   3.487 -2.3411  0.7544 -2.6210
  479MOL0     H66076  12.719   6.475   3.511  0.2465 -0.4327  0.4142
  479MOL0     H66077  12.787   6.392   3.367  0.9213  1.1897  0.8285
  479MOL0     H66078  12.713   6.172   3.517 -0.3766  0.8531 -1.3631
  479MOL0     H66079  12.705   6.287   3.649  0.3970  2.6127 -0.3847
  479MOL0     H66080  12.900   6.222   3.692 -1.8707  0.6593  0.8653
  479MOL0     H66081  12.944   6.353   3.598  0.7133 -0.8078 -0.9725
  479MOL0     H66082  11.964   5.917   3.383  0.4451  0.1885 -0.8646
  479MOL0     H66083  11.906   5.762   3.575 -2.3626 -2.4741 -2.0616
  479MOL0     H66084  11.967   5.330   3.671 -1.8521  1.4894 -0.4008
  479MOL0     H66085  11.881   5.147   3.805 -1.7386 -0.3162  1.1961
  479MOL0     H66086   9.949   4.918   4.156 -2.0461 -0.8026  0.7523
  479MOL0     H66087   9.739   4.793   4.153 -1.0849 -1.4356  0.3309
  479MOL0     H66088   9.637   4.293   4.039 -0.7487 -1.1916 -3.1050
  479MOL0     H66089   9.491   4.126   3.972 -0.4223 -1.2054  0.8328
  479MOL0     H66090   9.316   3.883   4.105  0.4105 -2.3971  2.1370
  479MOL0     H66091   9.398   3.991   4.217 -0.3222  0.9101 -0.6982
  479MOL0     H66092   9.174   3.993   4.347 -0.5239 -0.0023  0.0390
  479MOL0     H66093   9.241   3.832   4.311  0.3997  0.1534 -0.9091
  479MOL0     H66094   9.024   3.969   4.132  0.6970 -1.8863 -1.8809
  479MOL0     H66095   9.086   3.800   4.130  1.3362  0.0242  0.1932
  479MOL0     H66096   8.872   3.818   4.205 -1.1581  3.0404 -0.9140
  479MOL0     H66097   8.921   3.928   4.337 -0.0606  0.7258 -0.0025
  479MOL0     H66098   9.057   3.582   4.530 -0.4567  0.2349  1.4439
  479MOL0     H66099   9.196   4.291   4.250  1.5787 -0.4090  3.0265
  479MOL0     H66100   9.320   4.564   4.358 -0.0097  2.0782 -0.2134
  479MOL0     H66101   9.269   4.606   4.191 -0.9874 -1.5768 -1.4533
  479MOL0     H66102   9.182   4.495   4.276  0.3957  0.8847 -1.0395
  480MOL0     O66103   4.951   5.225   0.457  0.9670 -0.0540 -0.4200
  480MOL0     C66104   4.993   5.107   0.465  0.4781 -0.0976 -0.0844
  480MOL0     O66105   5.130   5.075   0.453  0.1796 -0.1117  0.1871
  480MOL0     C66106   5.207   5.146   0.368 -0.0563  0.7450 -0.3930
  480MOL0     C66107   5.327   5.197   0.414 -0.0583  0.0847 -0.1329
  480MOL0     C66108   5.412   5.265   0.328  0.4260  0.5160  0.2961
  480MOL0     C66109   5.389   5.261   0.189  0.2295  0.3728 -0.3717
  480MOL0     O66110   5.476   5.324   0.102  0.2041 -0.3463  0.4963
  480MOL0     C66111   5.433   5.344  -0.029 -0.9953 -0.3121 -0.2359
  480MOL0     C66112   5.532   5.422  -0.113  0.2731 -0.9314  0.7657
  480MOL0     C66113   5.654   5.319  -0.159  0.3040  0.4119  0.2078
  480MOL0     C66114   5.720   5.376  -0.286 -0.2053 -0.1667  0.1394
  480MOL0     C66115   5.811   5.273  -0.339  0.6807 -0.2650  0.7854
  480MOL0     C66116   5.937   5.238  -0.248  0.2718  1.0315  0.7062
  480MOL0     C66117   5.998   5.358  -0.191  0.5039  0.5545 -1.3875
  480MOL0     C66118   6.151   5.343  -0.146 -0.1786 -0.1558  0.7855
  480MOL0     N66119   6.168   5.284  -0.015  0.3065 -0.1806 -0.4866
  480MOL0     C66120   6.163   5.360   0.103 -0.4802 -0.0001 -0.6670
  480MOL0     C66121   6.182   5.270   0.200  0.0427 -0.4057 -0.9990
  480MOL0     C66122   6.198   5.285   0.352 -1.1590  0.4219 -0.8404
  480MOL0     C66123   6.180   5.157   0.437 -0.1856 -0.8386 -0.6758
  480MOL0     C66124   6.188   5.197   0.581 -1.2869  0.7923 -0.3518
  480MOL0     C66125   6.163   5.085   0.694 -0.1210  0.7480  0.1581
  480MOL0     O66126   6.035   5.022   0.678  0.1768  0.4288  0.1343
  480MOL0     C66127   5.925   5.078   0.738  0.8163  0.2302  0.0162
  480MOL0     C66128   5.803   5.040   0.695  0.3632 -0.7197  1.1996
  480MOL0     C66129   5.684   5.088   0.746 -0.0679 -0.1911 -0.3415
  480MOL0     C66130   5.547   5.036   0.693 -0.5444 -1.1735 -0.1017
  480MOL0     C66131   5.695   5.170   0.853 -0.4941 -0.0809 -0.7020
  480MOL0     C66132   5.576   5.228   0.920 -0.3127  0.0081  0.2773
  480MOL0     O66133   5.554   5.187   1.050 -0.0483  0.7695 -0.7787
  480MOL0     C66134   5.429   5.172   1.106  0.3723  0.3693 -0.3745
  480MOL0     C66135   5.310   5.155   1.039  0.9329  1.0941 -0.1683
  480MOL0     C66136   5.183   5.136   1.110 -0.5332 -0.1517 -0.3725
  480MOL0     C66137   5.188   5.123   1.247  1.0643 -0.6785 -0.2899
  480MOL0     O66138   5.068   5.102   1.302  0.0163  0.4441  0.4294
  480MOL0     C66139   5.057   5.088   1.447  0.2978 -0.3343 -0.1825
  480MOL0     C66140   4.912   5.066   1.509 -0.6974 -0.9180  0.1941
  480MOL0     C66141   4.914   5.038   1.656  0.0490  0.0946  0.5661
  480MOL0     C66142   4.972   4.890   1.688  1.1758  0.8126  0.6218
  480MOL0     C66143   4.918   4.839   1.814 -0.9724 -0.3286  0.1747
  480MOL0     C66144   4.995   4.720   1.869 -0.5205  0.5174  0.6085
  480MOL0     C66145   4.927   4.651   1.991  0.1928 -0.0519 -0.2265
  480MOL0     C66146   4.826   4.544   1.968 -0.6482  0.1583 -0.1826
  480MOL0    Cl66147   4.792   4.471   2.135  0.0551 -0.3111  0.3087
  480MOL0     C66148   5.306   5.142   1.315  0.1652  0.6165 -0.4801
  480MOL0     C66149   5.419   5.157   1.247 -0.6156  0.2529  0.3234
  480MOL0     O66150   5.507   5.304   0.856  0.1513  0.5087  0.6265
  480MOL0     C66151   5.819   5.223   0.900  0.4347  0.4567  0.1970
  480MOL0     C66152   5.933   5.175   0.841 -0.6102  1.1842 -0.1340
  480MOL0     N66153   6.179   5.144   0.144 -0.3366 -0.2454 -0.4599
  480MOL0     N66154   6.169   5.153   0.016 -0.5996  0.6273 -0.4360
  480MOL0     C66155   5.273   5.195   0.149 -0.8592 -0.0552  0.1501
  480MOL0     C66156   5.173   5.160   0.233  0.2757  1.1803  0.2379
  480MOL0     C66157   4.905   5.000   0.508 -0.7864 -0.0121 -0.2781
  480MOL0     C66158   4.962   4.866   0.499 -0.0930 -0.0091 -0.8074
  480MOL0     C66159   4.894   4.755   0.541 -0.0102 -0.2488 -0.4766
  480MOL0     C66160   4.768   4.773   0.594 -0.8884  0.9018  0.2320
  480MOL0     O66161   4.705   4.660   0.651  0.4773  1.2593  0.5532
  480MOL0     C66162   4.734   4.662   0.786  0.3560  1.1938 -0.7150
  480MOL0     C66163   4.663   4.544   0.860  0.6248 -0.0554  0.2366
  480MOL0     C66164   4.506   4.551   0.861 -0.3393 -0.9292 -0.0165
  480MOL0     C66165   4.427   4.464   0.964 -0.9729 -0.6946 -0.1989
  480MOL0     C66166   4.498   4.458   1.098 -0.2753  0.0519  0.5728
  480MOL0     C66167   4.561   4.470   1.204  0.1353  0.4807 -0.6591
  480MOL0     C66168   4.711   4.901   0.599 -0.7500  0.2495  0.3051
  480MOL0     C66169   4.772   5.013   0.564 -0.3510  1.0444  0.3800
  480MOL0     C66170   4.698   5.149   0.582 -0.2833 -0.1351 -0.2364
  480MOL0     H66171   5.359   5.200   0.517 -1.1685  3.8068  0.2424
  480MOL0     H66172   5.502   5.314   0.362  0.1457  0.6822  0.8157
  480MOL0     H66173   5.349   5.411  -0.008  1.3040  2.2621  1.2642
  480MOL0     H66174   5.417   5.248  -0.080  1.8814 -0.1739 -1.5822
  480MOL0     H66175   5.487   5.453  -0.207  2.2043  1.6285  0.5494
  480MOL0     H66176   5.571   5.512  -0.063  0.8061 -1.2018  0.8431
  480MOL0     H66177   5.721   5.292  -0.078 -0.4717 -0.3703  0.5988
  480MOL0     H66178   5.605   5.227  -0.191  0.4389 -0.1525  1.5876
  480MOL0     H66179   5.640   5.398  -0.357 -1.0739 -1.4919  0.6648
  480MOL0     H66180   5.772   5.472  -0.273 -0.5246  0.3238 -1.8679
  480MOL0     H66181   5.856   5.318  -0.428  2.2185  0.4934  1.9056
  480MOL0     H66182   5.766   5.176  -0.364 -1.8776  0.4829  2.2063
  480MOL0     H66183   5.901   5.170  -0.170 -0.1448  1.2257  0.6872
  480MOL0     H66184   6.005   5.178  -0.308 -0.8378 -0.2436  0.6909
  480MOL0     H66185   5.944   5.388  -0.100  1.5379  0.6208 -0.7802
  480MOL0     H66186   5.990   5.437  -0.267  1.4312 -0.0320 -2.1122
  480MOL0     H66187   6.210   5.281  -0.214  0.8127 -1.2949  2.5821
  480MOL0     H66188   6.187   5.446  -0.153 -0.9782  0.0247 -3.6128
  480MOL0     H66189   6.161   5.468   0.110  0.6840 -0.0423  0.7530
  480MOL0     H66190   6.140   5.369   0.390  0.3003  1.5237 -0.9685
  480MOL0     H66191   6.300   5.323   0.365 -0.5538 -1.3182 -0.0514
  480MOL0     H66192   6.078   5.120   0.418 -1.0766 -0.2047  2.2598
  480MOL0     H66193   6.250   5.077   0.413 -2.2020 -3.4370  1.4520
  480MOL0     H66194   6.289   5.234   0.599  0.2344 -2.8837 -0.4093
  480MOL0     H66195   6.112   5.272   0.605 -1.2843  0.9399 -0.7839
  480MOL0     H66196   6.242   5.009   0.699 -1.4525 -0.6665  0.2699
  480MOL0     H66197   6.180   5.113   0.798 -1.4153 -4.3605  2.0463
  480MOL0     H66198   5.793   4.974   0.609  1.6330 -0.4766  0.8373
  480MOL0     H66199   5.493   5.119   0.646 -0.8630 -0.2978  1.7165
  480MOL0     H66200   5.480   5.006   0.774  1.0594  1.0587  2.2197
  480MOL0     H66201   5.555   4.954   0.621 -1.8230 -0.0297 -1.6249
  480MOL0     H66202   5.311   5.142   0.931 -2.0681 -0.6946 -0.0850
  480MOL0     H66203   5.091   5.129   1.053  0.1185 -0.5775 -1.3961
  480MOL0     H66204   5.120   5.012   1.494  0.4417 -0.0221  0.1256
  480MOL0     H66205   5.096   5.183   1.483 -0.2522  1.1403 -3.1307
  480MOL0     H66206   4.845   5.151   1.490 -1.0395 -0.2847  3.6905
  480MOL0     H66207   4.860   4.983   1.461 -1.5011  1.1669 -2.9118
  480MOL0     H66208   4.808   5.038   1.683 -0.1963 -0.9512 -0.3467
  480MOL0     H66209   4.966   5.113   1.716  0.0982 -0.2153  0.9127
  480MOL0     H66210   5.081   4.893   1.693  1.2231  3.9016 -0.3084
  480MOL0     H66211   4.938   4.817   1.613  1.8178 -1.7317  2.6458
  480MOL0     H66212   4.932   4.922   1.884 -0.9833 -0.2338  0.0638
  480MOL0     H66213   4.813   4.810   1.805 -0.4435 -1.6035 -4.2734
  480MOL0     H66214   5.092   4.762   1.898 -0.3601  0.1053  0.6722
  480MOL0     H66215   5.014   4.651   1.786  0.5940  0.8298  0.5872
  480MOL0     H66216   4.875   4.726   2.051 -1.6409 -0.5325 -1.1262
  480MOL0     H66217   5.009   4.612   2.053 -1.0289 -0.2705  1.3286
  480MOL0     H66218   4.868   4.464   1.906 -2.8990 -1.5071  0.3359
  480MOL0     H66219   4.736   4.577   1.916 -1.3896 -2.2302 -0.5586
  480MOL0     H66220   5.296   5.130   1.422 -5.1517  2.4212 -0.4634
  480MOL0     H66221   5.506   5.163   1.312 -1.8606 -0.5293  2.1468
  480MOL0     H66222   5.813   5.304   0.972 -1.7129 -0.2777  0.9185
  480MOL0     H66223   6.029   5.214   0.870  0.7968 -1.7315 -0.4594
  480MOL0     H66224   5.249   5.216   0.045 -1.2014  0.7781  0.3946
  480MOL0     H66225   5.077   5.126   0.193  1.3123  0.5114 -1.8418
  480MOL0     H66226   5.055   4.832   0.456  0.2426 -0.7820  0.4618
  480MOL0     H66227   4.951   4.664   0.556  0.0147 -0.2638 -0.6597
  480MOL0     H66228   4.842   4.661   0.802  0.4229  1.5709 -1.1381
  480MOL0     H66229   4.698   4.752   0.836 -0.5823  0.1387  0.5910
  480MOL0     H66230   4.698   4.545   0.964  1.7603 -0.7890 -0.1250
  480MOL0     H66231   4.699   4.451   0.816  0.0241  0.2540 -0.9657
  480MOL0     H66232   4.473   4.654   0.872  0.4582 -0.4584 -1.7018
  480MOL0     H66233   4.469   4.518   0.764 -0.0463  0.5120 -0.6310
  480MOL0     H66234   4.431   4.364   0.919  1.0384 -0.5180 -0.5107
  480MOL0     H66235   4.326   4.501   0.986 -1.1682  0.8831 -3.3031
  480MOL0     H66236   4.603   4.476   1.303  1.0286 -0.9545 -0.9243
  480MOL0     H66237   4.610   4.906   0.638 -1.0700  2.4877 -0.6227
  480MOL0     H66238   4.598   5.122   0.619 -0.4875 -1.6994 -1.7846
  480MOL0     H66239   4.752   5.210   0.654 -0.9473  1.0451 -0.7127
  480MOL0     H66240   4.682   5.202   0.488  1.6308  0.7593 -0.0925
  481MOL0     O66241   7.211   9.119   1.975 -0.2809  0.2205  0.5114
  481MOL0     C66242   7.329   9.129   1.987 -0.5678 -0.7043  0.5300
  481MOL0     O66243   7.430   9.093   1.899  1.0869 -0.1828 -0.0219
  481MOL0     C66244   7.397   9.066   1.767  0.6307  0.1022  0.3739
  481MOL0     C66245   7.410   8.938   1.710 -0.1618  0.5679  0.7848
  481MOL0     C66246   7.378   8.906   1.573 -0.1052 -0.0519  0.6593
  481MOL0     C66247   7.342   9.011   1.489  0.4355 -0.6555  0.3246
  481MOL0     O66248   7.323   9.002   1.354  0.0253  0.2393  0.5606
  481MOL0     C66249   7.358   8.880   1.292  0.0551  0.1758  0.0525
  481MOL0     C66250   7.352   8.881   1.139  0.2219  0.8400  0.4381
  481MOL0     C66251   7.241   8.970   1.077  0.4667 -0.3752 -0.2095
  481MOL0     C66252   7.210   8.927   0.924  0.4509  0.0033  0.0599
  481MOL0     C66253   7.316   8.987   0.825  0.5188  0.7174 -0.5284
  481MOL0     C66254   7.297   8.918   0.689  0.6383  0.6138  0.3494
  481MOL0     C66255   7.417   8.950   0.599  0.3003 -0.3101  0.0397
  481MOL0     C66256   7.554   8.865   0.632 -1.3056 -0.3288  0.7620
  481MOL0     N66257   7.629   8.825   0.509  0.1475  0.2012  0.1668
  481MOL0     C66258   7.655   8.905   0.402  0.2930  0.1655  0.1832
  481MOL0     C66259   7.705   8.819   0.307  0.5373  0.6987  0.0763
  481MOL0     C66260   7.749   8.867   0.174 -0.1908  0.7061 -0.4810
  481MOL0     C66261   7.803   8.754   0.081  0.1095  0.2175  0.2595
  481MOL0     C66262   7.933   8.687   0.132  0.0800  0.9622 -0.1872
  481MOL0     C66263   8.020   8.626   0.026  0.2360 -0.1621 -0.0315
  481MOL0     O66264   8.086   8.724  -0.053  0.9598 -0.6883 -0.5444
  481MOL0     C66265   8.221   8.723  -0.054 -0.1257  0.7350  0.6205
  481MOL0     C66266   8.290   8.802   0.040 -0.3912 -0.0903 -0.3783
  481MOL0     C66267   8.429   8.798   0.051 -0.6117  0.1508 -0.1002
  481MOL0     C66268   8.485   8.864   0.174 -0.0826 -0.0232  1.2535
  481MOL0     C66269   8.511   8.734  -0.046  0.5340  0.4329 -0.5685
  481MOL0     C66270   8.653   8.748  -0.067  0.4147  0.7112  0.3242
  481MOL0     O66271   8.710   8.674  -0.158  0.4806  0.6335 -0.0582
  481MOL0     C66272   8.846   8.697  -0.195  0.7063  0.4377  0.9256
  481MOL0     C66273   8.910   8.829  -0.206 -0.3973 -0.6228 -0.8699
  481MOL0     C66274   9.040   8.842  -0.242 -1.3528  0.8197  0.9574
  481MOL0     C66275   9.116   8.724  -0.275 -0.1123  0.4626 -0.4024
  481MOL0     O66276   9.245   8.742  -0.290  0.5155 -0.0386 -0.5009
  481MOL0     C66277   9.325   8.651  -0.213  0.0028 -0.0152  0.2316
  481MOL0     C66278   9.476   8.690  -0.216 -0.0197 -0.4152  0.0212
  481MOL0     C66279   9.538   8.681  -0.355  0.3782 -1.4327 -0.3425
  481MOL0     C66280   9.688   8.685  -0.344 -0.4417 -0.0969  0.3358
  481MOL0     C66281   9.753   8.687  -0.483  0.0100  0.7712  0.4145
  481MOL0     C66282   9.769   8.539  -0.532  0.1876 -0.6789 -0.5550
  481MOL0     C66283   9.823   8.544  -0.671 -0.2360  0.2433  0.6160
  481MOL0     C66284   9.711   8.552  -0.779 -0.5669 -1.1139  0.1143
  481MOL0    Cl66285   9.664   8.722  -0.815  0.4495  0.1989 -0.0592
  481MOL0     C66286   9.061   8.596  -0.262 -0.1705 -0.4367  0.1552
  481MOL0     C66287   8.928   8.588  -0.220  0.5958 -0.0602  1.0340
  481MOL0     O66288   8.719   8.822   0.006  0.0303 -0.1907  1.0827
  481MOL0     C66289   8.430   8.657  -0.140 -0.0408  0.3613 -0.1307
  481MOL0     C66290   8.293   8.646  -0.144 -0.3856 -0.2361 -0.7717
  481MOL0     N66291   7.702   8.690   0.360 -0.2360  0.2544  0.6401
  481MOL0     N66292   7.654   8.691   0.483 -0.5049  0.3152  0.8691
  481MOL0     C66293   7.323   9.141   1.539  0.6322  0.4654 -0.3911
  481MOL0     C66294   7.358   9.165   1.674  0.1732 -0.4276 -0.5965
  481MOL0     C66295   7.377   9.182   2.121  0.6999 -0.1429  0.5974
  481MOL0     C66296   7.306   9.144   2.243  0.1481 -0.3197  0.5340
  481MOL0     C66297   7.350   9.180   2.368  0.1857 -0.0042  0.4338
  481MOL0     C66298   7.452   9.271   2.383  0.1891 -1.0156 -0.0727
  481MOL0     O66299   7.495   9.294   2.510  0.6333 -0.1632  0.4162
  481MOL0     C66300   7.611   9.374   2.530  0.3365  0.4447 -0.8766
  481MOL0     C66301   7.655   9.349   2.670 -0.0649 -0.0187  0.4597
  481MOL0     C66302   7.684   9.200   2.702 -0.4677  0.0597 -0.0876
  481MOL0     C66303   7.764   9.177   2.831  0.3183 -0.5910  0.2512
  481MOL0     C66304   7.669   9.209   2.945 -0.6035  0.6633  0.7788
  481MOL0     C66305   7.598   9.241   3.040 -0.3143  0.1290  0.3085
  481MOL0     C66306   7.514   9.316   2.270 -0.1637  0.2942  1.0043
  481MOL0     C66307   7.489   9.263   2.141 -1.2497  0.1714 -0.1790
  481MOL0     C66308   7.574   9.313   2.026 -0.1678 -0.6194  0.0670
  481MOL0     H66309   7.444   8.866   1.783 -0.3919  0.9959  1.3266
  481MOL0     H66310   7.382   8.801   1.548  0.6201 -0.3224  1.8224
  481MOL0     H66311   7.293   8.803   1.336  0.2814 -0.0979 -0.0862
  481MOL0     H66312   7.459   8.852   1.324  0.1476 -0.3430 -0.6853
  481MOL0     H66313   7.450   8.925   1.119 -0.0247  1.3244  0.2887
  481MOL0     H66314   7.343   8.780   1.098 -4.0604  1.8009 -1.5534
  481MOL0     H66315   7.153   8.957   1.141  1.1178 -0.5351  0.6729
  481MOL0     H66316   7.278   9.073   1.085  2.1585 -1.0079  0.6065
  481MOL0     H66317   7.218   8.818   0.933  1.3500  0.2226  3.6819
  481MOL0     H66318   7.107   8.953   0.900  0.0148  0.0996  1.8800
  481MOL0     H66319   7.418   8.976   0.863  0.7747  3.1501 -0.3263
  481MOL0     H66320   7.289   9.093   0.815 -0.2677  0.8542  2.2481
  481MOL0     H66321   7.279   8.811   0.702 -0.7883  0.6724 -0.8502
  481MOL0     H66322   7.207   8.958   0.642  1.4918  0.3250 -1.6147
  481MOL0     H66323   7.428   9.058   0.581 -1.6198 -0.4398 -2.5190
  481MOL0     H66324   7.384   8.911   0.502 -2.4287 -2.5659  1.7205
  481MOL0     H66325   7.614   8.926   0.701  1.1948 -3.2689  1.4058
  481MOL0     H66326   7.528   8.782   0.698 -0.5423  1.8493  4.0483
  481MOL0     H66327   7.632   9.010   0.384 -0.7987  0.1610  1.4377
  481MOL0     H66328   7.827   8.941   0.193 -0.8885  1.3391 -0.0462
  481MOL0     H66329   7.666   8.917   0.124  0.7555  1.0415 -1.7657
  481MOL0     H66330   7.726   8.682   0.049  0.1227  0.5453 -0.5369
  481MOL0     H66331   7.828   8.813  -0.007 -1.4021  0.7019  0.1169
  481MOL0     H66332   7.992   8.759   0.189 -1.5799 -0.5902  3.9154
  481MOL0     H66333   7.910   8.602   0.196  0.4483  1.1948  0.2558
  481MOL0     H66334   8.096   8.559   0.067 -0.3262  0.9249  3.0781
  481MOL0     H66335   7.950   8.583  -0.047 -0.5593  1.3860 -0.2307
  481MOL0     H66336   8.225   8.861   0.103 -0.9694  0.9603 -1.8934
  481MOL0     H66337   8.415   8.861   0.258 -0.5502  1.5109  0.9476
  481MOL0     H66338   8.512   8.967   0.148  3.1554 -0.7973  1.1551
  481MOL0     H66339   8.582   8.821   0.199 -1.6702 -2.8323  3.1349
  481MOL0     H66340   8.860   8.923  -0.187 -1.7415 -1.7807  2.0031
  481MOL0     H66341   9.103   8.930  -0.246  1.0615 -0.8320 -0.1503
  481MOL0     H66342   9.289   8.647  -0.109 -3.5588  0.7103 -0.8541
  481MOL0     H66343   9.303   8.550  -0.247 -0.6632 -1.0940  3.4892
  481MOL0     H66344   9.476   8.789  -0.170 -0.5006 -0.5224  0.2621
  481MOL0     H66345   9.526   8.613  -0.156 -1.4920 -0.5046  1.2018
  481MOL0     H66346   9.488   8.753  -0.421 -1.4340 -1.4566  0.9271
  481MOL0     H66347   9.516   8.583  -0.398  2.3050 -2.0013 -0.1597
  481MOL0     H66348   9.726   8.602  -0.283 -1.5378 -0.9496 -0.1151
  481MOL0     H66349   9.724   8.779  -0.301 -1.0138  0.8115 -1.0819
  481MOL0     H66350   9.693   8.751  -0.549  2.7696  1.5093 -1.5455
  481MOL0     H66351   9.849   8.736  -0.465  1.2301 -1.4134  0.0563
  481MOL0     H66352   9.673   8.486  -0.532 -1.0177  1.3556 -1.7185
  481MOL0     H66353   9.841   8.490  -0.466  0.1285 -1.4595 -1.0607
  481MOL0     H66354   9.878   8.451  -0.692 -1.7496 -0.5223 -0.0979
  481MOL0     H66355   9.892   8.625  -0.697 -2.6147  1.4898 -2.4232
  481MOL0     H66356   9.626   8.487  -0.754 -1.2916 -0.1590  0.2036
  481MOL0     H66357   9.762   8.514  -0.868  0.8585  1.3226 -0.1943
  481MOL0     H66358   9.107   8.506  -0.300  0.9017  0.2548 -0.2089
  481MOL0     H66359   8.895   8.485  -0.210 -0.2024  0.3726  3.6870
  481MOL0     H66360   8.470   8.595  -0.220 -1.2300 -3.1010  1.7609
  481MOL0     H66361   8.240   8.578  -0.210  1.0723 -0.6706 -1.5566
  481MOL0     H66362   7.283   9.218   1.474  3.0426  1.9175 -0.2764
  481MOL0     H66363   7.343   9.263   1.719 -1.5212 -1.3833  1.0758
  481MOL0     H66364   7.221   9.075   2.242 -1.3873  1.4735 -0.2583
  481MOL0     H66365   7.302   9.145   2.459  2.8208 -1.4752  1.3869
  481MOL0     H66366   7.692   9.350   2.460 -0.5342 -0.7993 -1.4932
  481MOL0     H66367   7.572   9.475   2.514 -0.6548  0.4060  0.9641
  481MOL0     H66368   7.569   9.372   2.734 -1.2830 -4.0047  0.4942
  481MOL0     H66369   7.741   9.415   2.685  0.9494 -0.6922 -1.8841
  481MOL0     H66370   7.591   9.145   2.719  0.1120 -0.9298 -0.0034
  481MOL0     H66371   7.741   9.152   2.621  3.0277 -1.1873  2.8397
  481MOL0     H66372   7.860   9.229   2.829  0.7305 -1.3363  0.1164
  481MOL0     H66373   7.790   9.071   2.838 -2.6761 -1.4078  0.6546
  481MOL0     H66374   7.562   9.272   3.137  0.6530  0.9850  0.4055
  481MOL0     H66375   7.583   9.398   2.286 -0.0850  0.4216  0.0208
  481MOL0     H66376   7.621   9.222   1.989 -0.9801 -0.8558 -0.3953
  481MOL0     H66377   7.525   9.367   1.944  1.2088  0.6213  0.0185
  481MOL0     H66378   7.659   9.367   2.069 -0.2892 -1.7467  1.8362
  482MOL0     O66379   0.452  10.089  11.403  0.1058  0.0389 -0.6038
  482MOL0     C66380   0.372  10.064  11.492  0.0058  0.7684 -0.4590
  482MOL0     O66381   0.335   9.937  11.526  0.1004 -0.2095  0.3559
  482MOL0     C66382   0.418   9.838  11.486  0.1504 -0.2188  0.6413
  482MOL0     C66383   0.552   9.840  11.513 -0.0994  0.3520  0.9990
  482MOL0     C66384   0.643   9.742  11.477 -0.9335 -0.0291  0.3260
  482MOL0     C66385   0.595   9.637  11.400 -0.1163  0.5986  0.0790
  482MOL0     O66386   0.665   9.524  11.375  0.0138 -0.3944 -0.5411
  482MOL0     C66387   0.806   9.536  11.399 -0.3119  0.9656 -0.2382
  482MOL0     C66388   0.874   9.403  11.344 -0.3754  0.4940 -0.3150
  482MOL0     C66389   1.024   9.388  11.371  0.4425 -0.1427 -0.0701
  482MOL0     C66390   1.049   9.357  11.516 -0.7532  0.0671  0.3513
  482MOL0     C66391   1.203   9.325  11.553 -0.8885 -0.2033  0.0716
  482MOL0     C66392   1.247   9.350  11.700 -0.0881  0.9782 -0.3410
  482MOL0     C66393   1.401   9.342  11.713 -0.3920 -0.1177  1.0477
  482MOL0     C66394   1.438   9.357  11.861 -0.0976 -0.0907  0.4462
  482MOL0     N66395   1.582   9.348  11.890 -0.6805 -0.4584 -0.0248
  482MOL0     C66396   1.641   9.405  12.000  0.6353  0.0947  1.0334
  482MOL0     C66397   1.768   9.381  11.992  0.5958 -0.0405 -0.2954
  482MOL0     C66398   1.874   9.403  12.097  0.5138  0.1228  0.7798
  482MOL0     C66399   2.013   9.358  12.048  0.8655 -0.2349 -1.0051
  482MOL0     C66400   2.103   9.369  12.169 -0.3453  0.1831 -0.1110
  482MOL0     C66401   2.243   9.335  12.120 -0.2234 -0.2385 -0.2467
  482MOL0     O66402   2.300   9.433  12.028  0.1794  0.0952 -0.0627
  482MOL0     C66403   2.436   9.421  11.994  0.0221 -0.3646  0.0681
  482MOL0     C66404   2.521   9.340  12.070 -0.2393 -0.1546 -0.2419
  482MOL0     C66405   2.664   9.329  12.050  0.2381 -0.2322  0.3554
  482MOL0     C66406   2.741   9.233  12.127  0.3641 -0.9521  0.5080
  482MOL0     C66407   2.715   9.404  11.935 -0.3891 -0.0910 -0.4723
  482MOL0     C66408   2.859   9.401  11.887  0.1976 -0.0402  0.4175
  482MOL0     O66409   2.946   9.367  11.982 -0.0149 -0.2717 -0.6364
  482MOL0     C66410   3.081   9.361  11.975 -0.9013  0.1861  0.7340
  482MOL0     C66411   3.139   9.291  12.079  0.0497 -0.2894  0.7422
  482MOL0     C66412   3.272   9.263  12.088  0.3467  0.3110  0.2240
  482MOL0     C66413   3.355   9.310  11.987 -0.9799  1.1824 -0.2922
  482MOL0     O66414   3.490   9.279  11.979 -0.1883  0.2996  0.6868
  482MOL0     C66415   3.562   9.237  12.094  0.3222 -0.7906 -0.7722
  482MOL0     C66416   3.710   9.204  12.073 -0.6892 -0.8067  0.0585
  482MOL0     C66417   3.799   9.335  12.088  0.0525  0.5306  0.2982
  482MOL0     C66418   3.944   9.299  12.066  0.5433 -0.1351  0.0375
  482MOL0     C66419   4.038   9.424  12.084  0.4057 -0.9271 -0.0343
  482MOL0     C66420   4.015   9.539  11.987  1.3060  0.3210  0.2579
  482MOL0     C66421   4.139   9.634  11.985  0.0895  0.1573 -0.2499
  482MOL0     C66422   4.129   9.729  11.866 -0.8936  0.3931  1.1154
  482MOL0    Cl66423   4.286   9.820  11.849  0.4255  0.5339 -0.1226
  482MOL0     C66424   3.305   9.377  11.879 -0.2646 -0.2548  0.5383
  482MOL0     C66425   3.168   9.397  11.867  0.3434  0.6885 -0.6035
  482MOL0     O66426   2.885   9.436  11.774 -0.5810 -0.2359 -0.4230
  482MOL0     C66427   2.630   9.475  11.857 -0.2915  0.2345  0.4083
  482MOL0     C66428   2.491   9.489  11.882 -0.2374 -0.1838 -0.7341
  482MOL0     N66429   1.788   9.299  11.879  0.3333  0.0509 -0.0207
  482MOL0     N66430   1.669   9.279  11.815 -1.0239  0.5825 -0.5910
  482MOL0     C66431   0.459   9.639  11.359  0.8865 -0.0685 -0.3002
  482MOL0     C66432   0.367   9.734  11.406  0.3637  0.6609 -0.2034
  482MOL0     C66433   0.295  10.174  11.550  0.2404  0.5345 -0.0023
  482MOL0     C66434   0.232  10.139  11.676  0.3239  0.0715 -0.5699
  482MOL0     C66435   0.158  10.226  11.755  0.3998 -0.5400  0.9747
  482MOL0     C66436   0.142  10.363  11.721 -0.1976  0.2151  0.3972
  482MOL0     O66437   0.072  10.444  11.801  0.3140  0.0941  0.6866
  482MOL0     C66438  -0.060  10.412  11.838  0.7171 -0.9098 -0.3976
  482MOL0     C66439  -0.124  10.515  11.936 -0.2797  0.2392  0.1072
  482MOL0     C66440  -0.111  10.661  11.874  0.1690 -0.2486 -0.1000
  482MOL0     C66441  -0.200  10.765  11.956  0.4555  0.4587 -0.4035
  482MOL0     C66442  -0.179  10.901  11.909 -0.4101  0.5446  0.3979
  482MOL0     C66443  -0.142  11.010  11.887  0.0984  0.1882 -0.3023
  482MOL0     C66444   0.217  10.401  11.609  0.2889 -0.3363 -0.0310
  482MOL0     C66445   0.302  10.312  11.530  0.0509 -0.1120 -0.2217
  482MOL0     C66446   0.388  10.371  11.415  0.3700  0.1955 -0.4008
  482MOL0     H66447   0.580   9.926  11.573  0.0228 -0.2075  1.7586
  482MOL0     H66448   0.746   9.751  11.511 -1.6697 -2.2897  3.6810
  482MOL0     H66449   0.815   9.535  11.509  0.9426 -1.6153 -0.2880
  482MOL0     H66450   0.850   9.625  11.352 -1.0187  1.2302 -0.4094
  482MOL0     H66451   0.814   9.314  11.367 -2.1255  1.3700 -1.2412
  482MOL0     H66452   0.854   9.418  11.237 -1.3263  1.9341  0.0332
  482MOL0     H66453   1.073   9.313  11.309  0.8336  0.3253 -0.3346
  482MOL0     H66454   1.069   9.485  11.345 -2.1457  0.8151 -1.3427
  482MOL0     H66455   1.012   9.435  11.583 -2.1039 -1.3033  1.2829
  482MOL0     H66456   0.994   9.265  11.539  1.9894 -1.7758 -0.0932
  482MOL0     H66457   1.276   9.391  11.506 -1.2012  1.1163  1.3526
  482MOL0     H66458   1.218   9.221  11.521  0.3672 -0.3697  1.1137
  482MOL0     H66459   1.199   9.442  11.736  0.2849  0.2111  2.2936
  482MOL0     H66460   1.200   9.278  11.767 -1.9671  1.4034 -1.1272
  482MOL0     H66461   1.453   9.423  11.660  1.8139 -0.2986  2.7749
  482MOL0     H66462   1.434   9.241  11.688 -2.6759 -1.5832  3.4489
  482MOL0     H66463   1.395   9.453  11.889  1.7101  0.8555  0.1630
  482MOL0     H66464   1.391   9.282  11.924 -2.6151  0.6844 -0.3892
  482MOL0     H66465   1.591   9.464  12.076 -0.2704 -0.0164  0.5396
  482MOL0     H66466   1.837   9.342  12.181 -2.3060 -0.6191 -0.8722
  482MOL0     H66467   1.874   9.508  12.126  1.2685 -0.3553  2.6617
  482MOL0     H66468   2.008   9.257  12.006 -1.7898 -0.4191 -0.4522
  482MOL0     H66469   2.047   9.431  11.974  0.0794  3.0440  1.6407
  482MOL0     H66470   2.097   9.472  12.203 -1.3150 -0.2463  1.0846
  482MOL0     H66471   2.068   9.304  12.250 -0.8866  1.1015  0.4108
  482MOL0     H66472   2.303   9.332  12.212 -0.2259 -3.5196 -0.2158
  482MOL0     H66473   2.249   9.238  12.069 -0.3238  0.5960 -1.8820
  482MOL0     H66474   2.485   9.288  12.159 -0.6695  3.2787  1.7647
  482MOL0     H66475   2.684   9.183  12.206 -1.5243  0.8646  0.3815
  482MOL0     H66476   2.829   9.271  12.179  0.2731 -3.5163  2.7742
  482MOL0     H66477   2.771   9.152  12.060  0.3595 -1.4571  1.1034
  482MOL0     H66478   3.070   9.241  12.146 -0.4660 -0.2076  0.2854
  482MOL0     H66479   3.301   9.200  12.171  1.8506  2.1192  1.1702
  482MOL0     H66480   3.555   9.326  12.158  3.1459 -0.0537 -1.3778
  482MOL0     H66481   3.511   9.151  12.139 -2.3237  2.1067  2.3544
  482MOL0     H66482   3.734   9.139  12.157  0.2889 -1.6118 -0.8104
  482MOL0     H66483   3.733   9.161  11.975  1.2887  0.0633  0.0961
  482MOL0     H66484   3.774   9.382  12.184  2.7333  3.1590 -0.1693
  482MOL0     H66485   3.766   9.408  12.013 -0.0262  1.0673  0.8425
  482MOL0     H66486   3.960   9.246  11.972 -0.2710 -0.9575  0.3565
  482MOL0     H66487   3.962   9.228  12.147 -1.7652 -0.6552  0.1493
  482MOL0     H66488   4.026   9.468  12.184 -0.2271  1.5128 -1.1051
  482MOL0     H66489   4.138   9.381  12.083  0.2903 -1.3383  1.7903
  482MOL0     H66490   3.931   9.605  12.009  0.4104 -0.0207 -1.9793
  482MOL0     H66491   3.987   9.510  11.886 -0.9622  2.8968  0.0484
  482MOL0     H66492   4.231   9.578  11.971  0.3044 -0.0071  1.5190
  482MOL0     H66493   4.150   9.686  12.081  0.3467  0.7745 -0.6034
  482MOL0     H66494   4.046   9.799  11.879  0.3205  1.7276  1.9183
  482MOL0     H66495   4.116   9.676  11.771 -0.0669  1.3209  0.4769
  482MOL0     H66496   3.362   9.410  11.794  1.0785 -3.7729 -0.1033
  482MOL0     H66497   3.129   9.448  11.780 -3.2531 -1.6852 -0.5816
  482MOL0     H66498   2.665   9.503  11.758  0.4455  0.6489  0.7716
  482MOL0     H66499   2.432   9.550  11.814 -1.5233 -2.3468 -1.6802
  482MOL0     H66500   0.429   9.548  11.308 -2.1644  0.4440  0.4042
  482MOL0     H66501   0.263   9.748  11.381 -0.1698  3.8632  3.0399
  482MOL0     H66502   0.236  10.037  11.712  2.1009 -0.0246 -0.9186
  482MOL0     H66503   0.096  10.192  11.837 -2.3066  0.4652 -0.4825
  482MOL0     H66504  -0.135  10.403  11.760 -2.6549  0.0239  2.4649
  482MOL0     H66505  -0.069  10.316  11.889  2.0807 -0.4579  0.7776
  482MOL0     H66506  -0.060  10.508  12.024  0.5066  1.1877 -0.3654
  482MOL0     H66507  -0.229  10.485  11.938 -0.7175  1.2047 -3.0565
  482MOL0     H66508  -0.004  10.682  11.885  0.2495 -0.6884 -0.0142
  482MOL0     H66509  -0.123  10.671  11.766 -1.0490 -0.8833 -0.0457
  482MOL0     H66510  -0.165  10.761  12.060 -1.5289 -1.7175  0.2604
  482MOL0     H66511  -0.307  10.743  11.951  0.4406  0.7255 -1.7905
  482MOL0     H66512  -0.130  11.110  11.851 -2.1312  0.7959  0.4427
  482MOL0     H66513   0.215  10.506  11.584 -2.1985 -0.6412 -1.3684
  482MOL0     H66514   0.380  10.480  11.410 -1.5635  0.2273  1.7276
  482MOL0     H66515   0.489  10.329  11.413  0.1513 -0.4146 -3.0649
  482MOL0     H66516   0.346  10.342  11.318 -0.5590  2.0027 -0.5828
  483MOL0     O66517   4.347   6.752  10.813  1.1547  0.6897  0.8342
  483MOL0     C66518   4.293   6.758  10.923 -0.9705  0.7264  0.0067
  483MOL0     O66519   4.330   6.843  11.025  0.1924  0.7085  0.0268
  483MOL0     C66520   4.422   6.938  11.001  0.7677 -0.2604 -1.3670
  483MOL0     C66521   4.543   6.915  10.944  0.7664 -0.3091  0.2021
  483MOL0     C66522   4.632   7.026  10.936 -0.6154 -0.2810  0.3842
  483MOL0     C66523   4.603   7.148  10.988 -0.3639  0.3907 -0.2059
  483MOL0     O66524   4.694   7.250  11.000  0.5684  0.0512 -0.3824
  483MOL0     C66525   4.828   7.218  10.981  0.1890  0.5673  1.5224
  483MOL0     C66526   4.921   7.330  11.027 -0.6384 -0.0603  0.6266
  483MOL0     C66527   4.935   7.330  11.176  0.9899 -0.1325  0.3650
  483MOL0     C66528   5.006   7.461  11.218 -0.5576 -0.2035 -0.7716
  483MOL0     C66529   4.964   7.499  11.357 -0.8235  0.1751  0.0637
  483MOL0     C66530   5.004   7.644  11.386 -0.5445 -0.1779  0.0129
  483MOL0     C66531   4.912   7.745  11.323 -0.0588 -0.1819  0.1422
  483MOL0     C66532   4.938   7.880  11.385 -0.9363 -0.7130 -0.3244
  483MOL0     N66533   5.078   7.931  11.381  0.4796  0.1000 -0.0272
  483MOL0     C66534   5.148   7.922  11.260  0.3853 -0.0927  1.1075
  483MOL0     C66535   5.263   7.977  11.290 -0.8493  0.2338 -1.1970
  483MOL0     C66536   5.395   7.970  11.212 -0.0551 -0.2222  0.2531
  483MOL0     C66537   5.520   8.023  11.285  0.0749  0.7355 -0.0515
  483MOL0     C66538   5.649   8.009  11.205  0.4479 -0.1752  0.6038
  483MOL0     C66539   5.778   8.045  11.285  0.8477  0.2745 -0.1978
  483MOL0     O66540   5.807   8.188  11.301  0.1356 -0.7846  0.3191
  483MOL0     C66541   5.911   8.230  11.373  0.2758  0.4194  0.4061
  483MOL0     C66542   5.989   8.150  11.458  0.1989 -0.4861 -0.8886
  483MOL0     C66543   6.117   8.198  11.516  0.2648 -0.2185 -0.5890
  483MOL0     C66544   6.207   8.096  11.594  0.5848  0.3394 -0.2581
  483MOL0     C66545   6.157   8.329  11.502  0.4764 -0.2567  0.7826
  483MOL0     C66546   6.288   8.390  11.544  0.2651  0.2877  0.0948
  483MOL0     O66547   6.396   8.311  11.545  0.2759 -0.6973 -0.3620
  483MOL0     C66548   6.514   8.359  11.601  0.4941 -1.3477 -0.5316
  483MOL0     C66549   6.607   8.409  11.512  0.2663 -0.1805  0.0920
  483MOL0     C66550   6.718   8.471  11.573  0.4772  0.3529 -0.1490
  483MOL0     C66551   6.744   8.465  11.713 -1.6368 -0.0610 -0.6540
  483MOL0     O66552   6.874   8.513  11.747  0.1112 -0.5916  0.3163
  483MOL0     C66553   6.935   8.436  11.853 -0.8821  0.0906 -0.1470
  483MOL0     C66554   7.087   8.454  11.889  0.3845 -0.2836 -0.0336
  483MOL0     C66555   7.116   8.604  11.919  0.1988  0.8013 -0.4512
  483MOL0     C66556   7.161   8.688  11.794  0.3479 -0.5740  1.0756
  483MOL0     C66557   7.303   8.655  11.730  0.2980 -0.1940 -0.1180
  483MOL0     C66558   7.341   8.756  11.623  0.0201  0.0396 -0.6489
  483MOL0     C66559   7.242   8.756  11.507 -0.3580  0.1207 -0.0038
  483MOL0     C66560   7.316   8.815  11.379 -0.6868 -0.1203  0.4348
  483MOL0    Cl66561   7.389   8.976  11.404 -0.5222  0.3492  0.5777
  483MOL0     C66562   6.654   8.402  11.788 -0.4123 -0.3304 -1.0632
  483MOL0     C66563   6.533   8.354  11.739 -0.1597 -0.2881 -0.0669
  483MOL0     O66564   6.277   8.506  11.578 -0.5386 -0.5232  0.3359
  483MOL0     C66565   6.069   8.415  11.421  0.0952 -0.5728 -0.3012
  483MOL0     C66566   5.953   8.358  11.359 -0.6139  0.4680  0.3540
  483MOL0     N66567   5.264   8.011  11.429  0.5640 -0.4422  0.3322
  483MOL0     N66568   5.145   7.987  11.485  0.0803  0.1368  0.1525
  483MOL0     C66569   4.474   7.170  11.040 -0.1982  1.1838  0.7520
  483MOL0     C66570   4.383   7.067  11.042  0.7525  0.0907  0.7820
  483MOL0     C66571   4.185   6.654  10.955  0.6823 -0.6612  0.5672
  483MOL0     C66572   4.123   6.660  11.084 -0.6933  0.3358  0.8420
  483MOL0     C66573   4.034   6.557  11.126  0.0293 -0.8055 -0.3026
  483MOL0     C66574   3.996   6.449  11.048 -0.2140  0.3246  0.2240
  483MOL0     O66575   3.916   6.341  11.085  0.3366 -0.2687  0.3290
  483MOL0     C66576   3.822   6.341  11.192 -0.6391  0.3657  0.3449
  483MOL0     C66577   3.704   6.443  11.171 -0.1887  0.4590 -0.7537
  483MOL0     C66578   3.607   6.452  11.298 -0.2132  0.4257  0.6361
  483MOL0     C66579   3.505   6.327  11.295 -0.2698  0.0301  0.4389
  483MOL0     C66580   3.402   6.361  11.394  0.1242 -0.3977  1.1422
  483MOL0     C66581   3.317   6.404  11.468  0.3796 -0.0575 -0.5909
  483MOL0     C66582   4.056   6.442  10.920  0.6904 -0.4882  0.6623
  483MOL0     C66583   4.139   6.549  10.865  0.1707  0.5512  0.3851
  483MOL0     C66584   4.185   6.530  10.720 -0.7230  0.0144  0.5504
  483MOL0     H66585   4.599   6.824  10.929  1.6937 -0.1111  2.2198
  483MOL0     H66586   4.728   6.999  10.894 -0.9876 -0.2636 -0.4871
  483MOL0     H66587   4.842   7.199  10.875 -0.9465 -0.8789  1.5879
  483MOL0     H66588   4.860   7.136  11.045  0.3198  1.7980  3.1050
  483MOL0     H66589   5.020   7.310  10.986 -0.3818  0.4266  1.0033
  483MOL0     H66590   4.875   7.420  10.984 -0.0803  0.5999  1.3994
  483MOL0     H66591   4.841   7.319  11.231  1.5438 -1.8803  1.0442
  483MOL0     H66592   4.992   7.239  11.200 -1.9911 -2.1622  0.3148
  483MOL0     H66593   5.114   7.464  11.199 -0.7241  3.1399 -1.8121
  483MOL0     H66594   4.956   7.536  11.157 -2.6826 -0.3456  0.6827
  483MOL0     H66595   5.010   7.434  11.432  0.0715 -1.2030 -1.6208
  483MOL0     H66596   4.857   7.476  11.365 -0.7051 -1.6884 -2.4423
  483MOL0     H66597   4.990   7.661  11.493  1.9006  0.1333  0.3530
  483MOL0     H66598   5.106   7.672  11.359 -0.5473  0.3839  0.5797
  483MOL0     H66599   4.812   7.705  11.343 -0.2505 -2.6431 -4.4173
  483MOL0     H66600   4.921   7.753  11.214 -3.9209  1.7935 -0.2156
  483MOL0     H66601   4.887   7.951  11.319  0.2446  0.6147  0.1318
  483MOL0     H66602   4.906   7.889  11.489  0.2396 -0.3249  0.0204
  483MOL0     H66603   5.112   7.887  11.164 -0.0844 -2.4386  2.0628
  483MOL0     H66604   5.392   8.026  11.118  1.2579  0.1532  0.4150
  483MOL0     H66605   5.427   7.866  11.202  0.7539 -0.2367  2.5214
  483MOL0     H66606   5.512   8.129  11.309 -1.4875  1.3198 -2.6561
  483MOL0     H66607   5.534   7.961  11.374 -0.3604 -0.5297 -0.8324
  483MOL0     H66608   5.662   7.912  11.157  2.4046 -0.1233  0.9376
  483MOL0     H66609   5.647   8.071  11.115  1.8702  1.7853  1.8421
  483MOL0     H66610   5.760   8.005  11.385  0.6404  0.0842 -0.3130
  483MOL0     H66611   5.859   7.998  11.229  0.0462 -1.2300 -0.1380
  483MOL0     H66612   5.963   8.046  11.471  1.4820 -1.0085 -2.3087
  483MOL0     H66613   6.300   8.077  11.540  1.2497  0.6783  0.7488
  483MOL0     H66614   6.154   8.001  11.609 -1.1743  1.0607 -1.5253
  483MOL0     H66615   6.233   8.144  11.689 -0.4633 -1.9872  1.2812
  483MOL0     H66616   6.594   8.406  11.404  1.8405 -1.9118 -0.0902
  483MOL0     H66617   6.794   8.503  11.503  0.0834 -2.0009 -1.7775
  483MOL0     H66618   6.878   8.443  11.946 -1.3688  1.1849 -0.5033
  483MOL0     H66619   6.928   8.334  11.815 -0.8013  0.5603 -1.4719
  483MOL0     H66620   7.103   8.401  11.983  0.4505 -1.8604 -0.9064
  483MOL0     H66621   7.158   8.414  11.816  0.2086 -0.8199  0.0865
  483MOL0     H66622   7.189   8.601  12.000 -2.2395 -1.3226  1.8413
  483MOL0     H66623   7.025   8.649  11.960 -1.3328 -1.1740 -1.4627
  483MOL0     H66624   7.170   8.790  11.833 -1.5201  0.0809 -0.0526
  483MOL0     H66625   7.082   8.684  11.718  1.6679  2.3154 -0.6064
  483MOL0     H66626   7.381   8.661  11.806  2.4575 -1.1700 -2.1320
  483MOL0     H66627   7.304   8.551  11.696  1.1963 -0.4718  0.7154
  483MOL0     H66628   7.445   8.740  11.593  0.1067 -2.0481  0.5976
  483MOL0     H66629   7.335   8.849  11.681  1.6423 -0.3394  0.1735
  483MOL0     H66630   7.155   8.813  11.540  1.9705  3.7355  0.5069
  483MOL0     H66631   7.214   8.652  11.489  0.2200 -0.1807  0.7409
  483MOL0     H66632   7.252   8.832  11.292  0.7494 -1.1522 -0.8595
  483MOL0     H66633   7.387   8.743  11.338  0.4916  2.1240 -1.6930
  483MOL0     H66634   6.680   8.404  11.893  4.4474 -0.0215 -2.0604
  483MOL0     H66635   6.465   8.293  11.797 -0.6939 -0.0958 -0.4815
  483MOL0     H66636   6.086   8.519  11.397  2.1801 -0.3551  1.7331
  483MOL0     H66637   5.893   8.423  11.296  1.3957  0.6051 -1.5526
  483MOL0     H66638   4.444   7.268  11.074 -2.8322  0.7491 -0.0426
  483MOL0     H66639   4.283   7.083  11.083 -0.5251 -0.4598 -1.8664
  483MOL0     H66640   4.139   6.745  11.148  0.1470  0.2038  0.8156
  483MOL0     H66641   3.996   6.558  11.228  0.0669  0.6712 -0.2749
  483MOL0     H66642   3.766   6.246  11.191 -2.0041  0.9253 -4.8105
  483MOL0     H66643   3.866   6.353  11.292 -0.7128  1.9360  0.2095
  483MOL0     H66644   3.634   6.428  11.088 -1.8206  1.8734  0.3005
  483MOL0     H66645   3.750   6.542  11.161  2.3003 -0.8205 -3.3751
  483MOL0     H66646   3.667   6.469  11.388 -2.1396 -1.2328  2.3340
  483MOL0     H66647   3.554   6.546  11.278  1.3727  1.2167  0.0313
  483MOL0     H66648   3.543   6.227  11.320 -0.7035 -0.6281 -1.3877
  483MOL0     H66649   3.465   6.316  11.194 -0.3014  2.0543  0.1927
  483MOL0     H66650   3.256   6.451  11.543  1.8060 -0.8838  1.1598
  483MOL0     H66651   4.043   6.354  10.857  0.4776 -0.9834  1.3924
  483MOL0     H66652   4.293   6.514  10.710 -0.5878  1.3315 -0.2970
  483MOL0     H66653   4.121   6.458  10.669 -0.0615  0.0202 -0.3134
  483MOL0     H66654   4.166   6.630  10.680  1.2748 -0.0323 -0.6523
  484MOL0     O66655   1.574   3.343   9.054 -0.1541 -0.4755  0.1226
  484MOL0     C66656   1.553   3.279   9.157  0.3018 -0.5334 -0.8467
  484MOL0     O66657   1.652   3.225   9.235  0.1872  0.3492 -0.6612
  484MOL0     C66658   1.781   3.237   9.200  0.5121 -0.6184  0.1986
  484MOL0     C66659   1.843   3.361   9.219  0.1602  0.3115  0.7886
  484MOL0     C66660   1.975   3.387   9.175  0.0815  0.4120  0.7190
  484MOL0     C66661   2.056   3.279   9.122 -0.1762 -0.1563  0.5427
  484MOL0     O66662   2.188   3.308   9.125 -0.9986 -0.5367  0.6191
  484MOL0     C66663   2.275   3.196   9.140  0.2824  0.3664 -0.6746
  484MOL0     C66664   2.407   3.249   9.197 -0.3325  0.1681  0.6213
  484MOL0     C66665   2.502   3.144   9.276  0.1544 -0.1898  0.6118
  484MOL0     C66666   2.637   3.202   9.309 -0.3097  0.7019  0.6638
  484MOL0     C66667   2.715   3.123   9.406  0.1063  0.4448 -0.8299
  484MOL0     C66668   2.864   3.156   9.409 -0.1557  0.1401 -0.3969
  484MOL0     C66669   2.949   3.060   9.491 -0.4075  0.7997 -1.1167
  484MOL0     C66670   3.074   3.121   9.557  0.4642  0.5614  0.5270
  484MOL0     N66671   3.168   3.172   9.455 -0.2566 -0.4728  0.4189
  484MOL0     C66672   3.167   3.140   9.321 -0.6736  0.4106  0.1471
  484MOL0     C66673   3.268   3.215   9.269  0.1685 -0.5503 -0.3033
  484MOL0     C66674   3.326   3.207   9.131  0.1151 -0.4698  0.8061
  484MOL0     C66675   3.382   3.062   9.122 -0.4584 -0.8390  0.6473
  484MOL0     C66676   3.449   3.049   8.986  0.6641  0.5094 -0.4396
  484MOL0     C66677   3.519   2.914   8.962  0.2850  0.0975  0.1082
  484MOL0     O66678   3.596   2.867   9.077  0.4887 -0.3259 -0.0886
  484MOL0     C66679   3.729   2.899   9.076 -0.3483 -0.5948  0.1147
  484MOL0     C66680   3.773   3.030   9.089  0.4919 -0.1353  0.7339
  484MOL0     C66681   3.900   3.069   9.105 -0.1116  0.1357  0.6868
  484MOL0     C66682   3.928   3.219   9.127  0.2366  0.2783 -0.2416
  484MOL0     C66683   4.002   2.969   9.102 -0.6294  0.0294  0.1680
  484MOL0     C66684   4.145   2.990   9.135 -0.4971  0.4197 -0.2018
  484MOL0     O66685   4.229   2.877   9.119 -0.3885  0.1996  0.3736
  484MOL0     C66686   4.365   2.901   9.125  0.3220  0.4134 -0.5405
  484MOL0     C66687   4.433   3.012   9.070 -0.3140 -0.1357  0.6601
  484MOL0     C66688   4.575   3.008   9.075  0.0852  0.2078  0.6121
  484MOL0     C66689   4.638   2.904   9.133 -0.5360  1.0799 -0.0585
  484MOL0     O66690   4.778   2.906   9.141  0.5513  0.3050 -0.2138
  484MOL0     C66691   4.845   2.965   9.031  0.8949  0.1788 -0.2194
  484MOL0     C66692   4.979   2.902   8.991  0.3800 -0.0387  0.4508
  484MOL0     C66693   5.023   2.955   8.859 -0.4322 -0.1463  0.1595
  484MOL0     C66694   5.132   2.867   8.790  0.4813 -0.5801 -1.2683
  484MOL0     C66695   5.196   2.914   8.660 -0.0993  0.0675  0.3882
  484MOL0     C66696   5.261   3.048   8.670  0.1531 -0.7131 -0.4300
  484MOL0     C66697   5.354   3.076   8.559 -1.2335  0.0327 -0.1892
  484MOL0     C66698   5.413   3.221   8.568  0.5272  0.2275  0.1131
  484MOL0    Cl66699   5.313   3.336   8.481 -0.1245  0.1598  0.3756
  484MOL0     C66700   4.574   2.806   9.211  0.2225  0.2930  0.3816
  484MOL0     C66701   4.432   2.803   9.207  0.2376  1.0904  0.2512
  484MOL0     O66702   4.180   3.098   9.186 -0.0292  0.1161 -0.0387
  484MOL0     C66703   3.954   2.843   9.082 -0.0141  0.8359 -0.3765
  484MOL0     C66704   3.827   2.803   9.071 -0.3296 -0.0341  0.1129
  484MOL0     N66705   3.315   3.303   9.363  0.5229  0.0261  0.6070
  484MOL0     N66706   3.252   3.283   9.470  0.5132  0.1301 -0.1507
  484MOL0     C66707   1.990   3.152   9.110  0.1593 -0.6264 -0.7147
  484MOL0     C66708   1.854   3.133   9.149  0.5097  1.0364  0.0742
  484MOL0     C66709   1.412   3.256   9.197 -0.1342  0.2684 -0.5189
  484MOL0     C66710   1.315   3.322   9.118 -0.1448  0.1009  0.4842
  484MOL0     C66711   1.182   3.318   9.156 -0.1221  0.0629 -0.1974
  484MOL0     C66712   1.141   3.237   9.253  0.3906 -0.2888 -0.0326
  484MOL0     O66713   1.001   3.216   9.281  0.5375  0.1875  0.2487
  484MOL0     C66714   0.918   3.325   9.257  0.8022 -0.4410  1.0137
  484MOL0     C66715   0.773   3.314   9.331 -0.6050 -0.3726 -0.5427
  484MOL0     C66716   0.689   3.202   9.270 -0.4680 -0.4918  0.4534
  484MOL0     C66717   0.543   3.200   9.321  0.2150  1.1360  0.5109
  484MOL0     C66718   0.467   3.085   9.277  0.1509  0.3787 -0.0162
  484MOL0     C66719   0.410   2.988   9.227 -1.4962 -0.0352 -0.3428
  484MOL0     C66720   1.237   3.169   9.332  0.5872  1.1699  0.9263
  484MOL0     C66721   1.377   3.177   9.317 -0.0631 -0.6801  0.6148
  484MOL0     C66722   1.461   3.121   9.422 -0.4347 -0.0451  0.2486
  484MOL0     H66723   1.792   3.442   9.271 -1.1253  0.1534 -0.1584
  484MOL0     H66724   2.027   3.481   9.193  1.5129 -0.3864  0.9127
  484MOL0     H66725   2.292   3.143   9.047  0.1457  0.3301 -0.6788
  484MOL0     H66726   2.236   3.132   9.220 -2.5859  1.3243 -1.1861
  484MOL0     H66727   2.453   3.293   9.109 -2.0441  1.6762  0.4049
  484MOL0     H66728   2.386   3.331   9.268 -0.3906  0.0388  0.7541
  484MOL0     H66729   2.445   3.122   9.367 -1.8934  2.0413 -0.0108
  484MOL0     H66730   2.503   3.051   9.218 -0.0678  0.1295  0.0877
  484MOL0     H66731   2.689   3.209   9.214 -2.7644  1.2518 -0.7398
  484MOL0     H66732   2.634   3.302   9.354  3.6106 -0.2263  3.5233
  484MOL0     H66733   2.705   3.017   9.380 -0.3999 -0.6481  3.0845
  484MOL0     H66734   2.675   3.129   9.508 -1.0329 -0.5752 -1.1856
  484MOL0     H66735   2.905   3.157   9.308  0.1426  0.5417 -0.2741
  484MOL0     H66736   2.863   3.260   9.442 -1.7166  0.9721 -2.8065
  484MOL0     H66737   2.974   2.971   9.433  0.7650  0.2723  0.1331
  484MOL0     H66738   2.894   3.024   9.578 -1.4608 -2.3830 -2.9403
  484MOL0     H66739   3.050   3.207   9.620  0.8505  0.9965  0.0823
  484MOL0     H66740   3.133   3.051   9.618  0.4789  1.3638  1.4654
  484MOL0     H66741   3.126   3.057   9.265  1.2713  0.3494 -1.3114
  484MOL0     H66742   3.406   3.281   9.119 -0.3155 -0.0079  0.7505
  484MOL0     H66743   3.248   3.236   9.060 -0.7711 -1.2414  1.4312
  484MOL0     H66744   3.456   3.052   9.202  0.8671  1.9678 -0.0840
  484MOL0     H66745   3.307   2.983   9.127 -1.5255  0.0022 -1.0374
  484MOL0     H66746   3.374   3.062   8.908 -0.9526 -1.1873  0.7595
  484MOL0     H66747   3.528   3.126   8.978 -0.5646  1.8594 -0.0311
  484MOL0     H66748   3.439   2.842   8.942 -0.4501  1.4074 -2.0280
  484MOL0     H66749   3.577   2.923   8.869 -0.4663  0.3185 -0.3488
  484MOL0     H66750   3.698   3.108   9.077  1.0292  0.7374  2.6021
  484MOL0     H66751   3.998   3.270   9.061 -0.9298  0.3905 -1.4391
  484MOL0     H66752   3.957   3.239   9.231 -1.8467  0.9014  0.2821
  484MOL0     H66753   3.829   3.267   9.125  0.1833  0.2981  1.3990
  484MOL0     H66754   4.383   3.093   9.018 -3.0605 -0.6354  2.3138
  484MOL0     H66755   4.626   3.090   9.027  1.4668 -1.0358 -0.1397
  484MOL0     H66756   4.783   2.961   8.941 -1.1461 -2.2521  1.2004
  484MOL0     H66757   4.851   3.073   9.049  0.2851 -0.2911  3.4362
  484MOL0     H66758   5.065   2.910   9.057  0.8904  1.6583 -0.3590
  484MOL0     H66759   4.960   2.797   8.967 -0.1185  0.3302 -0.8480
  484MOL0     H66760   5.055   3.058   8.873 -2.6281  0.7212 -0.6957
  484MOL0     H66761   4.937   2.954   8.791 -0.9290 -1.6848  0.7640
  484MOL0     H66762   5.098   2.763   8.780  0.8680 -1.0729  1.7407
  484MOL0     H66763   5.211   2.868   8.866 -0.7583 -3.2753  0.2101
  484MOL0     H66764   5.264   2.835   8.629 -2.0338 -2.0666  1.2561
  484MOL0     H66765   5.119   2.924   8.583 -2.0589 -0.8792  2.1229
  484MOL0     H66766   5.326   3.056   8.758 -1.2093 -0.8724  0.6145
  484MOL0     H66767   5.186   3.127   8.670  1.8087  0.9260 -1.4604
  484MOL0     H66768   5.302   3.064   8.464 -3.5930 -0.0771  1.0555
  484MOL0     H66769   5.431   2.999   8.564 -1.2629 -0.0250  5.0352
  484MOL0     H66770   5.510   3.224   8.517  1.9450  2.2313  2.6963
  484MOL0     H66771   5.424   3.253   8.672  0.3619 -1.9964  0.8573
  484MOL0     H66772   4.621   2.740   9.282  1.3803  0.7493  0.0613
  484MOL0     H66773   4.377   2.723   9.254  0.6123  0.5103 -0.2928
  484MOL0     H66774   4.019   2.755   9.087 -2.9079 -1.4309  0.1422
  484MOL0     H66775   3.798   2.699   9.061 -1.2940  0.2427 -0.0801
  484MOL0     H66776   2.045   3.068   9.068 -0.2133 -0.8060 -0.8456
  484MOL0     H66777   1.809   3.035   9.136 -1.8978  2.0315  0.4688
  484MOL0     H66778   1.334   3.384   9.031 -0.9684 -1.3778 -0.8186
  484MOL0     H66779   1.107   3.380   9.107 -1.0242 -0.8998 -0.0861
  484MOL0     H66780   0.963   3.417   9.295 -2.3106  0.8842  1.8479
  484MOL0     H66781   0.904   3.339   9.149  2.4129  1.2897  0.9762
  484MOL0     H66782   0.724   3.412   9.333  1.1553  0.5624  1.7815
  484MOL0     H66783   0.790   3.299   9.438 -3.1719 -1.2731 -0.1830
  484MOL0     H66784   0.684   3.213   9.161 -2.6082 -1.4503  0.4103
  484MOL0     H66785   0.735   3.104   9.288  1.3650 -0.2364 -2.2690
  484MOL0     H66786   0.478   3.286   9.303 -1.6361  0.2944  2.6378
  484MOL0     H66787   0.550   3.174   9.427 -2.9385 -0.2548  0.5056
  484MOL0     H66788   0.356   2.908   9.181 -1.0106 -2.0013  2.2134
  484MOL0     H66789   1.196   3.107   9.411 -0.7941  0.1457 -0.5511
  484MOL0     H66790   1.533   3.188   9.471  1.7646 -0.8799 -1.6454
  484MOL0     H66791   1.393   3.075   9.494 -2.6616  0.1843 -1.6043
  484MOL0     H66792   1.524   3.048   9.370 -0.2065  0.4302 -0.1596
  485MOL0     O66793   3.776   7.311   4.736  0.3198  0.3631 -0.7582
  485MOL0     C66794   3.688   7.266   4.815  1.2933 -0.1398 -0.8445
  485MOL0     O66795   3.711   7.216   4.935 -0.3902 -0.2489 -0.4062
  485MOL0     C66796   3.829   7.229   5.000 -0.0860  0.2844  0.1262
  485MOL0     C66797   3.861   7.122   5.084 -0.0202 -0.1073 -0.2753
  485MOL0     C66798   3.990   7.117   5.146 -0.4621  0.7306  0.7658
  485MOL0     C66799   4.086   7.219   5.115  0.0319  0.3840 -0.7658
  485MOL0     O66800   4.212   7.212   5.175 -0.4615 -0.0119 -0.2234
  485MOL0     C66801   4.251   7.101   5.262  0.1553  0.1227  0.2125
  485MOL0     C66802   4.290   6.974   5.179 -0.7097 -0.5372 -0.4091
  485MOL0     C66803   4.308   6.838   5.255 -0.4493  0.3568  0.2474
  485MOL0     C66804   4.365   6.722   5.171  0.1419  0.4904  0.2262
  485MOL0     C66805   4.391   6.597   5.254  0.1015  0.6171 -0.7504
  485MOL0     C66806   4.486   6.612   5.378  0.2696  0.4498  0.2997
  485MOL0     C66807   4.539   6.482   5.442 -0.3918  0.2024  0.6586
  485MOL0     C66808   4.627   6.383   5.351  0.3599  0.9149 -0.1908
  485MOL0     N66809   4.725   6.448   5.259  0.2428  0.1216 -0.0654
  485MOL0     C66810   4.838   6.512   5.304  0.0443 -0.3229  0.1274
  485MOL0     C66811   4.895   6.562   5.196 -0.0403 -0.0700 -0.1420
  485MOL0     C66812   5.026   6.621   5.212 -0.0187  0.7903 -0.2090
  485MOL0     C66813   5.021   6.771   5.196  0.0285 -1.3880  0.0525
  485MOL0     C66814   5.022   6.831   5.051  0.7078 -0.3257  0.5213
  485MOL0     C66815   5.096   6.750   4.944 -0.0935  0.1809 -0.1381
  485MOL0     O66816   5.144   6.844   4.850  0.1190  0.9992  0.0798
  485MOL0     C66817   5.143   6.818   4.716 -0.3727  0.7085  0.0774
  485MOL0     C66818   5.054   6.878   4.626 -0.1966 -0.1589  0.1373
  485MOL0     C66819   5.070   6.879   4.489 -0.7034  0.7323  0.1430
  485MOL0     C66820   4.973   6.965   4.413 -0.1946  0.4011  0.3117
  485MOL0     C66821   5.172   6.800   4.437 -0.2940 -0.3043 -0.6163
  485MOL0     C66822   5.207   6.791   4.290  0.1968  0.3432  0.5538
  485MOL0     O66823   5.249   6.673   4.266 -0.6392 -0.9655  0.0202
  485MOL0     C66824   5.307   6.642   4.144  0.7115  0.9159  0.3481
  485MOL0     C66825   5.415   6.708   4.087  0.0487  0.3825 -0.4141
  485MOL0     C66826   5.452   6.658   3.961 -0.4110 -0.1894  0.2955
  485MOL0     C66827   5.386   6.557   3.895 -0.9768 -0.5992  0.1803
  485MOL0     O66828   5.424   6.526   3.767 -0.3237 -0.5081 -1.1809
  485MOL0     C66829   5.415   6.389   3.723 -0.2271 -0.0771 -0.6948
  485MOL0     C66830   5.437   6.399   3.574  0.7789 -0.0614  0.0772
  485MOL0     C66831   5.430   6.261   3.517  0.8920 -0.6365 -0.4417
  485MOL0     C66832   5.461   6.242   3.370 -0.1461  0.3152 -0.3024
  485MOL0     C66833   5.373   6.328   3.282 -0.2228 -0.2266 -0.2144
  485MOL0     C66834   5.430   6.343   3.137 -0.1025  0.3416  0.1909
  485MOL0     C66835   5.335   6.436   3.049  0.5568  0.3051  0.2778
  485MOL0     C66836   5.396   6.471   2.919  0.1079 -0.0557 -0.0494
  485MOL0    Cl66837   5.333   6.616   2.855  0.0865  0.0569  0.2510
  485MOL0     C66838   5.281   6.499   3.956  0.2671  0.1379 -0.3268
  485MOL0     C66839   5.241   6.535   4.085 -0.9823 -0.1247  0.5912
  485MOL0     O66840   5.170   6.869   4.198  0.9214 -0.6656  0.0251
  485MOL0     C66841   5.258   6.728   4.524  0.3462  0.0996 -1.0119
  485MOL0     C66842   5.242   6.729   4.664 -0.1715 -1.6829 -0.6088
  485MOL0     N66843   4.819   6.538   5.088  0.5426 -0.4296  0.0552
  485MOL0     N66844   4.708   6.468   5.126 -0.1445 -0.6150  0.4548
  485MOL0     C66845   4.043   7.337   5.046  0.1712 -0.3476 -0.5351
  485MOL0     C66846   3.919   7.337   4.981 -0.3339 -0.2612 -0.6128
  485MOL0     C66847   3.548   7.265   4.776 -0.7425 -0.4971  0.2484
  485MOL0     C66848   3.456   7.201   4.856  0.3948  0.7453 -0.0257
  485MOL0     C66849   3.332   7.165   4.815 -1.0118 -0.0127  0.9967
  485MOL0     C66850   3.288   7.203   4.685 -0.1722 -0.3439 -0.4660
  485MOL0     O66851   3.157   7.182   4.650 -0.1997  0.5748  0.4707
  485MOL0     C66852   3.064   7.161   4.759 -0.2711 -0.4679 -0.7236
  485MOL0     C66853   2.930   7.104   4.704  0.6437  0.4500 -0.2490
  485MOL0     C66854   2.858   7.190   4.600 -0.5482 -0.1025 -0.2298
  485MOL0     C66855   2.793   7.306   4.666  0.1576  0.0327 -1.3726
  485MOL0     C66856   2.714   7.392   4.569  0.1228  0.5834 -0.0354
  485MOL0     C66857   2.653   7.446   4.478 -0.5228  0.2074 -0.8401
  485MOL0     C66858   3.377   7.273   4.601  0.6666 -0.5492 -1.1121
  485MOL0     C66859   3.502   7.319   4.655  0.2723 -0.0564  0.2421
  485MOL0     C66860   3.577   7.405   4.554  0.0364 -0.3888  0.0991
  485MOL0     H66861   3.782   7.048   5.085  0.4035 -0.5595 -0.3417
  485MOL0     H66862   4.011   7.023   5.195  0.2423 -0.6662 -2.0098
  485MOL0     H66863   4.181   7.084   5.344 -1.1265 -1.8509 -1.2147
  485MOL0     H66864   4.348   7.117   5.310  1.2037  0.5954 -1.9390
  485MOL0     H66865   4.201   6.959   5.117 -2.0090 -2.9457  1.8170
  485MOL0     H66866   4.367   6.993   5.105 -1.6933 -0.4007 -1.4229
  485MOL0     H66867   4.368   6.851   5.346  0.3861  1.7608 -0.4833
  485MOL0     H66868   4.206   6.814   5.288 -0.0661  1.2219  2.1800
  485MOL0     H66869   4.303   6.706   5.083  1.4749  0.1790 -0.6877
  485MOL0     H66870   4.467   6.740   5.134  0.2926  0.3572  0.5704
  485MOL0     H66871   4.432   6.514   5.197  1.9498 -0.7048  2.2996
  485MOL0     H66872   4.297   6.563   5.299  0.3030  0.7454 -0.2220
  485MOL0     H66873   4.565   6.675   5.337 -0.4334  0.8892 -0.4025
  485MOL0     H66874   4.433   6.675   5.450 -1.2611  2.7536 -2.5790
  485MOL0     H66875   4.459   6.428   5.494 -0.1904 -1.1046 -0.3351
  485MOL0     H66876   4.599   6.516   5.526  3.6504  0.5617 -2.0887
  485MOL0     H66877   4.674   6.316   5.424 -0.4436  1.2132  0.6214
  485MOL0     H66878   4.554   6.324   5.295  0.8732  0.2599 -0.1820
  485MOL0     H66879   4.875   6.501   5.406  0.6220 -2.6459 -0.2753
  485MOL0     H66880   5.087   6.580   5.131  2.5489  1.9693  1.0098
  485MOL0     H66881   5.075   6.598   5.307 -1.3381  0.4744  0.4105
  485MOL0     H66882   4.943   6.816   5.258  2.4937  1.5859  1.2405
  485MOL0     H66883   5.110   6.809   5.245 -0.7261  0.2018  0.2589
  485MOL0     H66884   4.921   6.849   5.013  0.5700 -1.4201  0.3635
  485MOL0     H66885   5.056   6.935   5.065  0.9360 -0.3211 -0.0469
  485MOL0     H66886   5.187   6.709   4.989 -1.0721  0.0144  1.7775
  485MOL0     H66887   5.034   6.673   4.896  0.6609  0.4353 -1.6046
  485MOL0     H66888   4.980   6.926   4.689  2.4645  1.5585  2.1741
  485MOL0     H66889   4.897   6.898   4.371  0.2054 -1.2931  2.1353
  485MOL0     H66890   5.036   7.010   4.337 -2.5653  3.5771  0.0081
  485MOL0     H66891   4.928   7.050   4.465 -2.5580 -1.8851  2.3468
  485MOL0     H66892   5.477   6.783   4.135  2.5137 -0.9622 -1.2943
  485MOL0     H66893   5.529   6.709   3.905 -1.5685 -0.4762 -1.6754
  485MOL0     H66894   5.503   6.336   3.760 -0.9447  1.1202  3.1536
  485MOL0     H66895   5.321   6.333   3.737 -0.7354  1.1037  0.7758
  485MOL0     H66896   5.364   6.466   3.529 -0.1928 -0.8623  0.4284
  485MOL0     H66897   5.536   6.444   3.557  1.0507 -1.0482 -1.1599
  485MOL0     H66898   5.327   6.228   3.533 -0.2197  1.6950 -2.1590
  485MOL0     H66899   5.495   6.198   3.577 -0.0142  0.0637  1.3365
  485MOL0     H66900   5.443   6.137   3.347 -1.7478  0.5591 -0.2822
  485MOL0     H66901   5.568   6.264   3.361  0.3871 -2.3223 -1.0475
  485MOL0     H66902   5.278   6.276   3.268 -0.6784  0.9785 -2.1717
  485MOL0     H66903   5.351   6.428   3.320  1.1200 -0.1297  0.3542
  485MOL0     H66904   5.426   6.247   3.084  1.9253  1.2055 -1.6712
  485MOL0     H66905   5.533   6.379   3.134  0.4244 -0.8087  2.3363
  485MOL0     H66906   5.329   6.528   3.108  3.3159  1.6639 -1.3435
  485MOL0     H66907   5.235   6.393   3.038  1.0744 -0.6790 -0.8432
  485MOL0     H66908   5.394   6.390   2.846  0.0074  0.7761 -0.9861
  485MOL0     H66909   5.503   6.487   2.937 -0.1307  1.6204  0.0405
  485MOL0     H66910   5.233   6.416   3.905 -1.4249  0.6402  0.3800
  485MOL0     H66911   5.173   6.470   4.138  1.7645 -0.1949  4.5085
  485MOL0     H66912   5.347   6.677   4.487 -0.3577 -0.5279 -1.8957
  485MOL0     H66913   5.308   6.675   4.732  1.3405  1.3633  0.5659
  485MOL0     H66914   4.117   7.416   5.046  0.0241 -0.1628  1.0885
  485MOL0     H66915   3.891   7.427   4.927  1.7826 -1.3351 -3.7832
  485MOL0     H66916   3.489   7.160   4.951 -1.7063  1.8739  1.2572
  485MOL0     H66917   3.278   7.098   4.881 -2.8131 -0.7410 -1.1041
  485MOL0     H66918   3.101   7.081   4.824 -1.5645  0.5154  1.3021
  485MOL0     H66919   3.056   7.257   4.811 -0.8450 -0.7657 -0.2524
  485MOL0     H66920   2.855   7.082   4.781  1.3400  0.9561  0.6027
  485MOL0     H66921   2.961   7.013   4.652  0.2253 -0.1573  0.5324
  485MOL0     H66922   2.914   7.218   4.510  1.4994 -1.0865  0.6836
  485MOL0     H66923   2.783   7.114   4.577 -0.8543  0.7666 -2.2643
  485MOL0     H66924   2.866   7.365   4.721 -0.8337  0.9073 -0.9778
  485MOL0     H66925   2.725   7.264   4.741  0.1539  1.4531 -0.5454
  485MOL0     H66926   2.588   7.496   4.409 -1.6838  0.2209  0.2042
  485MOL0     H66927   3.328   7.308   4.510 -1.2523  2.0831  0.7948
  485MOL0     H66928   3.505   7.445   4.481 -0.5361  1.0473  1.3835
  485MOL0     H66929   3.630   7.488   4.603  1.0635 -1.6758  1.2411
  485MOL0     H66930   3.650   7.354   4.490  1.8477  2.7497 -0.5765
  486MOL0     O66931   3.802   2.344   7.832  0.3111 -0.1132 -0.3178
  486MOL0     C66932   3.699   2.308   7.883  0.2442  0.5116 -0.1576
  486MOL0     O66933   3.669   2.306   8.021  0.2622  0.2624 -0.1982
  486MOL0     C66934   3.754   2.346   8.127 -0.2580  0.4217 -0.3462
  486MOL0     C66935   3.687   2.358   8.252  0.9931 -0.9676  0.5055
  486MOL0     C66936   3.743   2.414   8.364  0.1427  0.7046  0.2116
  486MOL0     C66937   3.877   2.464   8.355  0.1343 -0.3174 -0.0570
  486MOL0     O66938   3.943   2.517   8.460 -0.3784  0.2444 -0.4618
  486MOL0     C66939   4.045   2.433   8.521 -0.2970 -0.4627  0.6971
  486MOL0     C66940   4.141   2.513   8.609  0.1738 -0.0149 -0.5765
  486MOL0     C66941   4.288   2.497   8.597 -0.2092  0.4475 -0.0322
  486MOL0     C66942   4.342   2.355   8.582  0.1110  0.1891  0.0945
  486MOL0     C66943   4.491   2.350   8.592 -0.4684  0.6124 -0.1205
  486MOL0     C66944   4.548   2.211   8.544  0.0699  0.3421  0.0135
  486MOL0     C66945   4.701   2.201   8.573  0.1799 -0.2975  0.6788
  486MOL0     C66946   4.745   2.160   8.714 -0.8087 -0.4278 -0.2949
  486MOL0     N66947   4.886   2.163   8.738 -0.2798 -0.2412 -0.4045
  486MOL0     C66948   4.960   2.274   8.779 -0.1529  0.4612  0.4832
  486MOL0     C66949   5.090   2.239   8.758 -0.5397 -0.3484 -0.2613
  486MOL0     C66950   5.205   2.331   8.780 -1.1907  0.1211 -0.0627
  486MOL0     C66951   5.316   2.308   8.673 -0.2927 -1.2329  0.4648
  486MOL0     C66952   5.261   2.365   8.530  0.1289  0.0021 -0.0642
  486MOL0     C66953   5.363   2.346   8.415  0.0097  1.1645  0.3469
  486MOL0     O66954   5.476   2.427   8.451  0.0908 -0.2479  0.9823
  486MOL0     C66955   5.578   2.428   8.351  0.5470 -0.9637 -0.8911
  486MOL0     C66956   5.577   2.363   8.232 -0.1307  0.5608  0.0037
  486MOL0     C66957   5.688   2.370   8.143  0.7167  0.6218  0.1696
  486MOL0     C66958   5.680   2.296   8.019  0.7119  0.0161  0.5263
  486MOL0     C66959   5.798   2.447   8.184  0.5248  0.3716  0.3136
  486MOL0     C66960   5.918   2.472   8.109 -1.1380 -0.3565  0.1045
  486MOL0     O66961   5.975   2.349   8.069 -0.3902  0.4434  0.4499
  486MOL0     C66962   6.110   2.334   8.047 -0.2011 -0.0066 -0.4966
  486MOL0     C66963   6.203   2.370   8.144 -0.6911 -1.0886  0.1436
  486MOL0     C66964   6.338   2.360   8.121  0.2435  0.5097  1.2004
  486MOL0     C66965   6.397   2.303   8.002 -0.2291  0.7893  0.5233
  486MOL0     O66966   6.533   2.299   7.967  0.0449  0.0260  0.0916
  486MOL0     C66967   6.626   2.363   8.064 -0.0662  0.6409 -0.1189
  486MOL0     C66968   6.777   2.321   8.062 -0.2651 -0.7205 -0.5147
  486MOL0     C66969   6.845   2.343   8.196 -0.1769 -0.7488  0.1075
  486MOL0     C66970   6.837   2.219   8.289 -0.3395  0.0714  0.2615
  486MOL0     C66971   6.934   2.105   8.253  0.2068 -0.6176  0.0596
  486MOL0     C66972   6.907   1.984   8.343 -0.0812  0.5947 -0.6295
  486MOL0     C66973   6.763   1.923   8.356 -0.5975  0.0502  0.2463
  486MOL0     C66974   6.757   1.781   8.403  0.7253 -0.6609 -0.2511
  486MOL0    Cl66975   6.839   1.762   8.564 -0.2548 -0.0459  0.1397
  486MOL0     C66976   6.293   2.272   7.901 -0.0723 -0.1726 -0.0274
  486MOL0     C66977   6.157   2.276   7.930 -0.7136 -0.7401  0.4433
  486MOL0     O66978   5.971   2.581   8.111  0.4315 -0.2775  0.8295
  486MOL0     C66979   5.794   2.519   8.307  0.2141  0.0495  0.3299
  486MOL0     C66980   5.683   2.508   8.394 -1.3727  0.2731 -0.6435
  486MOL0     N66981   5.098   2.109   8.711  0.4597 -0.3323  0.1456
  486MOL0     N66982   4.973   2.064   8.697 -0.1896 -0.4997  0.4855
  486MOL0     C66983   3.935   2.465   8.233 -0.2721 -0.1383  0.7332
  486MOL0     C66984   3.884   2.396   8.124  0.5804 -0.2833  0.8755
  486MOL0     C66985   3.581   2.277   7.794 -0.2148 -0.2534 -0.5742
  486MOL0     C66986   3.465   2.236   7.854  0.4888  0.7788 -0.1244
  486MOL0     C66987   3.346   2.208   7.781 -0.4990 -0.7693  0.0205
  486MOL0     C66988   3.350   2.220   7.641  0.7375  0.0161  0.6016
  486MOL0     O66989   3.243   2.194   7.549  0.3961  0.3779 -0.0044
  486MOL0     C66990   3.111   2.188   7.600  0.2818 -0.3398 -0.4386
  486MOL0     C66991   3.003   2.148   7.495  0.7588  0.4767 -0.1362
  486MOL0     C66992   2.990   2.004   7.460 -0.5440  0.1177 -0.2529
  486MOL0     C66993   2.871   1.984   7.355 -0.0068 -0.2161  0.6548
  486MOL0     C66994   2.738   2.007   7.407  0.3724 -0.6988 -0.0169
  486MOL0     C66995   2.630   2.040   7.446 -0.4721 -0.0798 -0.3105
  486MOL0     C66996   3.473   2.258   7.584  0.8323 -0.2726 -0.5374
  486MOL0     C66997   3.582   2.295   7.656 -0.2695  0.2745 -0.2260
  486MOL0     C66998   3.698   2.341   7.564  1.4824 -0.6400 -0.7533
  486MOL0     H66999   3.583   2.327   8.254  0.1545  0.7712 -4.2653
  486MOL0     H67000   3.691   2.394   8.456  1.6251  2.4862  1.5059
  486MOL0     H67001   4.104   2.391   8.440 -0.8917  2.3601 -1.3706
  486MOL0     H67002   3.989   2.366   8.587 -0.4226  2.0776  3.3863
  486MOL0     H67003   4.114   2.619   8.609  2.6016  0.6459 -0.3454
  486MOL0     H67004   4.121   2.471   8.708  0.3230 -1.6310 -1.1964
  486MOL0     H67005   4.333   2.559   8.519 -0.1067 -0.0339 -0.3608
  486MOL0     H67006   4.322   2.529   8.696 -1.0268 -0.6524  0.6235
  486MOL0     H67007   4.301   2.293   8.662  2.9039 -1.1894  0.5478
  486MOL0     H67008   4.320   2.308   8.485  3.7472 -0.9981 -0.2984
  486MOL0     H67009   4.513   2.374   8.697 -0.3832  1.9527 -0.4222
  486MOL0     H67010   4.538   2.434   8.540 -1.2389  0.0405 -1.8009
  486MOL0     H67011   4.493   2.135   8.601 -2.5105  0.8719 -1.6255
  486MOL0     H67012   4.522   2.201   8.439 -5.4654  1.5162  0.9841
  486MOL0     H67013   4.751   2.298   8.569  1.2736 -0.7720  2.0738
  486MOL0     H67014   4.740   2.136   8.495  0.9548  1.2516 -0.2734
  486MOL0     H67015   4.698   2.210   8.799  1.3496  1.1894  0.0477
  486MOL0     H67016   4.712   2.056   8.711  0.2606 -0.7863 -0.1894
  486MOL0     H67017   4.914   2.368   8.809  1.6793  1.4936  0.2510
  486MOL0     H67018   5.254   2.312   8.876  0.4423 -1.1750 -1.0675
  486MOL0     H67019   5.187   2.436   8.805  0.9936  0.2882  1.0788
  486MOL0     H67020   5.413   2.356   8.690 -0.4418 -0.4113 -0.8397
  486MOL0     H67021   5.350   2.205   8.658  3.3783  0.3108 -4.8256
  486MOL0     H67022   5.173   2.305   8.504  0.3844 -0.9924  1.2469
  486MOL0     H67023   5.227   2.469   8.522 -1.9936 -0.7556 -2.2461
  486MOL0     H67024   5.389   2.239   8.409 -0.0265  1.2035 -0.6950
  486MOL0     H67025   5.313   2.372   8.322 -4.3928  1.4000  2.5076
  486MOL0     H67026   5.481   2.328   8.198 -0.7822  3.4858 -1.4517
  486MOL0     H67027   5.591   2.232   8.014  1.3054 -0.7401 -1.3939
  486MOL0     H67028   5.767   2.234   7.994  0.9011  1.1508 -1.8831
  486MOL0     H67029   5.661   2.362   7.934 -2.9454 -0.3808  0.8573
  486MOL0     H67030   6.186   2.419   8.239 -2.8886 -0.7808 -0.3455
  486MOL0     H67031   6.403   2.393   8.201 -0.2840  0.9948  1.4307
  486MOL0     H67032   6.616   2.471   8.054  0.2165  0.5909 -0.9742
  486MOL0     H67033   6.597   2.345   8.169  0.5050  0.9102  0.0875
  486MOL0     H67034   6.783   2.213   8.043  2.7739 -0.5481 -0.8868
  486MOL0     H67035   6.836   2.363   7.980 -0.6061  1.8093  0.4556
  486MOL0     H67036   6.791   2.426   8.242  0.3521  1.3787 -2.8313
  486MOL0     H67037   6.951   2.364   8.187  0.6180 -4.4313 -0.6341
  486MOL0     H67038   6.737   2.176   8.283 -1.0919  1.7490  0.2556
  486MOL0     H67039   6.859   2.259   8.389  3.3883  0.4809 -0.5461
  486MOL0     H67040   6.925   2.077   8.148 -1.2549  0.4583 -0.1290
  486MOL0     H67041   7.038   2.131   8.274  0.4239  0.1048 -1.7112
  486MOL0     H67042   6.936   2.005   8.447 -2.1914  0.1927  0.0997
  486MOL0     H67043   6.983   1.917   8.302  0.9181  2.0045 -1.1735
  486MOL0     H67044   6.716   1.942   8.259  2.1373 -1.7602 -1.5832
  486MOL0     H67045   6.715   1.984   8.433 -0.0718  2.3459 -1.1236
  486MOL0     H67046   6.788   1.708   8.327  1.1284  0.5601 -1.3012
  486MOL0     H67047   6.650   1.767   8.418  0.7877  2.3851  5.7251
  486MOL0     H67048   6.323   2.241   7.802 -2.5086  1.1775 -1.2684
  486MOL0     H67049   6.084   2.264   7.851 -0.0868  1.6976 -0.6205
  486MOL0     H67050   5.884   2.574   8.334  1.0650 -1.3915  0.5451
  486MOL0     H67051   5.696   2.541   8.497  2.7475  2.8843 -1.7865
  486MOL0     H67052   4.028   2.518   8.212  1.0541 -2.2243  1.0611
  486MOL0     H67053   3.940   2.395   8.032  0.9108 -0.1791  1.0751
  486MOL0     H67054   3.456   2.216   7.960  0.8231 -1.9518 -0.5352
  486MOL0     H67055   3.255   2.181   7.835 -1.7764  1.7012 -0.7109
  486MOL0     H67056   3.115   2.125   7.690 -0.2536 -0.7149 -0.6643
  486MOL0     H67057   3.086   2.291   7.623 -2.2935 -1.1370  0.7291
  486MOL0     H67058   3.017   2.209   7.406 -0.6237 -1.6982 -1.9516
  486MOL0     H67059   2.914   2.173   7.554  0.1092 -0.4663 -0.6924
  486MOL0     H67060   3.081   1.965   7.415 -1.3994 -2.4243  0.0620
  486MOL0     H67061   2.970   1.937   7.544 -0.3360 -0.4764 -0.6726
  486MOL0     H67062   2.893   1.882   7.324  1.8399  0.0029  1.1462
  486MOL0     H67063   2.880   2.039   7.261 -2.3857 -1.4959 -0.4179
  486MOL0     H67064   2.531   2.045   7.488 -0.6827 -0.0828 -0.7953
  486MOL0     H67065   3.477   2.279   7.478  1.0228  1.7350 -0.1747
  486MOL0     H67066   3.716   2.448   7.570 -0.4830 -0.2769 -0.5898
  486MOL0     H67067   3.794   2.291   7.578  1.7384 -0.1966 -0.9020
  486MOL0     H67068   3.678   2.329   7.457 -0.2014  1.0446 -0.6849
  487MOL0     O67069   1.215   4.260   1.374  0.4683 -0.8574  0.3099
  487MOL0     C67070   1.287   4.223   1.281 -0.9933  0.4639  0.3126
  487MOL0     O67071   1.418   4.274   1.251  0.4428  0.5432 -0.0065
  487MOL0     C67072   1.491   4.350   1.340 -0.0026  0.4334  1.1641
  487MOL0     C67073   1.547   4.464   1.286  0.7578 -1.0601  0.1476
  487MOL0     C67074   1.616   4.543   1.363 -0.2121 -0.4245  0.1250
  487MOL0     C67075   1.636   4.518   1.502  0.1709  1.1278  0.0408
  487MOL0     O67076   1.711   4.611   1.565 -0.1251  0.1393  0.1019
  487MOL0     C67077   1.748   4.585   1.700 -0.4030 -0.4681  1.4425
  487MOL0     C67078   1.815   4.705   1.739  0.4960 -0.9371  0.7065
  487MOL0     C67079   1.963   4.727   1.686 -0.2320  0.3552 -0.0647
  487MOL0     C67080   2.005   4.684   1.550 -0.1616 -0.5374 -0.4330
  487MOL0     C67081   2.136   4.758   1.523 -0.2326  0.5055  0.0805
  487MOL0     C67082   2.212   4.715   1.393  0.3655 -0.6391  0.7313
  487MOL0     C67083   2.333   4.796   1.354 -0.6100  0.0105  0.0082
  487MOL0     C67084   2.460   4.731   1.422 -0.3389  0.3043 -0.8962
  487MOL0     N67085   2.593   4.785   1.386 -0.3267 -0.9407  0.0674
  487MOL0     C67086   2.661   4.793   1.267  0.1263 -0.0133  0.0420
  487MOL0     C67087   2.786   4.832   1.304 -0.7288 -0.1459  0.0596
  487MOL0     C67088   2.908   4.862   1.221 -0.0883  0.2724  0.7432
  487MOL0     C67089   2.942   5.011   1.221  1.1467  0.6427  0.5106
  487MOL0     C67090   3.091   5.049   1.251  0.4227 -0.6178  0.5830
  487MOL0     C67091   3.195   4.966   1.157  0.6939  0.1832  0.0128
  487MOL0     O67092   3.167   4.993   1.016  0.2160 -0.2144  0.1896
  487MOL0     C67093   3.252   5.066   0.942  0.0674 -0.2135  0.1827
  487MOL0     C67094   3.196   5.180   0.888  0.1683 -0.2921  0.8160
  487MOL0     C67095   3.266   5.269   0.794  0.3846  0.4797 -0.6740
  487MOL0     C67096   3.182   5.386   0.739 -0.8820  0.1684  0.3804
  487MOL0     C67097   3.404   5.240   0.770 -0.3495  0.3369 -0.0756
  487MOL0     C67098   3.497   5.307   0.677  0.3187 -0.1631 -0.6098
  487MOL0     O67099   3.605   5.229   0.627  0.0817  0.1464  0.2064
  487MOL0     C67100   3.710   5.281   0.555  1.1454 -0.0336 -0.6409
  487MOL0     C67101   3.757   5.192   0.456  0.0709 -1.1859  0.1905
  487MOL0     C67102   3.836   5.243   0.357  0.0790 -0.6504  0.1778
  487MOL0     C67103   3.894   5.371   0.372  0.5318  0.1201 -0.0526
  487MOL0     O67104   4.007   5.396   0.300 -0.0401  0.7074  0.4822
  487MOL0     C67105   3.967   5.481   0.193  0.5945  0.1038  0.0172
  487MOL0     C67106   4.026   5.435   0.063 -0.4246 -0.1153 -0.0149
  487MOL0     C67107   3.945   5.304   0.013 -0.1919 -1.2392 -0.3417
  487MOL0     C67108   3.965   5.257  -0.134 -0.0200  0.7517  0.3085
  487MOL0     C67109   3.946   5.357  -0.242  0.1509 -0.5706 -0.4953
  487MOL0     C67110   3.823   5.440  -0.212  0.0230  0.0405 -0.4138
  487MOL0     C67111   3.768   5.503  -0.344 -0.1170 -0.2871 -0.4184
  487MOL0     C67112   3.863   5.605  -0.397 -0.5564  0.1523  0.1267
  487MOL0    Cl67113   3.902   5.756  -0.295 -0.0426 -0.1995  0.1638
  487MOL0     C67114   3.861   5.460   0.479  0.5959  0.1036 -0.4133
  487MOL0     C67115   3.757   5.416   0.565  0.1363  0.7373 -0.1906
  487MOL0     O67116   3.475   5.423   0.645  0.2061  0.2893 -0.0447
  487MOL0     C67117   3.455   5.134   0.846  0.7067 -0.1385 -0.1155
  487MOL0     C67118   3.389   5.043   0.927  0.2103 -0.3993  0.2741
  487MOL0     N67119   2.791   4.835   1.443  0.3908  0.7447  0.6029
  487MOL0     N67120   2.673   4.808   1.495 -0.0792  0.1680  0.1444
  487MOL0     C67121   1.579   4.402   1.557 -0.2863  0.3867  0.2535
  487MOL0     C67122   1.501   4.318   1.480 -0.1965  0.6662 -0.8491
  487MOL0     C67123   1.244   4.109   1.200  0.1045 -0.2310  0.2943
  487MOL0     C67124   1.346   4.053   1.119 -0.0915  0.6214 -0.0045
  487MOL0     C67125   1.321   3.949   1.030 -0.1454 -0.1224  0.4909
  487MOL0     C67126   1.186   3.906   1.013  0.1456 -0.8998 -0.4867
  487MOL0     O67127   1.168   3.818   0.913  0.0187 -0.2176 -0.2561
  487MOL0     C67128   1.215   3.682   0.925 -0.4463  0.2579  0.0862
  487MOL0     C67129   1.137   3.611   1.040  0.2889  0.0937  0.2717
  487MOL0     C67130   1.152   3.453   1.048  0.1665  0.3131 -0.3438
  487MOL0     C67131   1.291   3.409   1.101 -0.6723  0.3758  0.3397
  487MOL0     C67132   1.311   3.442   1.247 -0.0573  1.0009  0.3051
  487MOL0     C67133   1.321   3.468   1.364  0.3445 -0.4978 -0.8769
  487MOL0     C67134   1.085   3.957   1.096 -0.3735 -0.4355  0.2189
  487MOL0     C67135   1.115   4.058   1.194  0.5901  0.1145  0.3584
  487MOL0     C67136   0.997   4.103   1.285  0.8290  0.2175  0.0512
  487MOL0     H67137   1.536   4.493   1.183  0.3639  1.8372  0.9333
  487MOL0     H67138   1.662   4.633   1.325  1.9165 -1.8794 -0.8976
  487MOL0     H67139   1.817   4.500   1.704  0.4535  0.1432  0.3208
  487MOL0     H67140   1.665   4.568   1.768  0.0214  2.7757  2.9785
  487MOL0     H67141   1.754   4.790   1.707 -1.9369 -2.2110  1.6890
  487MOL0     H67142   1.823   4.710   1.848  1.0781  2.6881  0.6137
  487MOL0     H67143   1.969   4.836   1.674 -1.0076  0.2405 -1.8746
  487MOL0     H67144   2.040   4.703   1.759  1.9110  1.1171 -1.9560
  487MOL0     H67145   2.018   4.576   1.546 -0.1110 -0.5202 -0.7951
  487MOL0     H67146   1.928   4.718   1.481  0.9592  0.9713 -1.0048
  487MOL0     H67147   2.206   4.731   1.604 -2.2957 -2.6090  0.9988
  487MOL0     H67148   2.118   4.866   1.525 -2.4482  0.2250 -1.3783
  487MOL0     H67149   2.237   4.609   1.398 -0.3950 -0.7628  2.3350
  487MOL0     H67150   2.143   4.725   1.308 -0.4223  1.6373  1.5466
  487MOL0     H67151   2.312   4.901   1.377 -3.0878 -0.5851  0.8353
  487MOL0     H67152   2.357   4.778   1.249  2.6838 -2.0075  0.9843
  487MOL0     H67153   2.451   4.735   1.531 -1.2987  2.7371 -1.0129
  487MOL0     H67154   2.470   4.628   1.387  1.4387  0.1024  0.0581
  487MOL0     H67155   2.628   4.785   1.164  0.0376  0.7075  0.0099
  487MOL0     H67156   2.881   4.833   1.119  0.3671 -0.8661  0.9261
  487MOL0     H67157   2.998   4.805   1.246  1.3238  2.3754  0.7320
  487MOL0     H67158   2.901   5.048   1.127  2.8367  0.1531 -0.4679
  487MOL0     H67159   2.879   5.055   1.298  0.3558  1.7386 -0.7276
  487MOL0     H67160   3.099   5.151   1.214  0.6041 -1.0456 -0.6047
  487MOL0     H67161   3.115   5.046   1.357 -0.8935  1.9105  1.0270
  487MOL0     H67162   3.296   4.990   1.189  0.3938 -0.4881  1.5916
  487MOL0     H67163   3.185   4.861   1.186  0.0774  0.6687  1.6863
  487MOL0     H67164   3.090   5.196   0.908 -0.2278 -2.0779  0.3290
  487MOL0     H67165   3.078   5.379   0.771 -1.1719  0.9499 -0.3400
  487MOL0     H67166   3.190   5.366   0.632  0.5362  0.8541  0.3416
  487MOL0     H67167   3.228   5.482   0.765  0.5943 -0.0312 -1.2748
  487MOL0     H67168   3.717   5.093   0.437  0.1793 -1.0823 -0.6251
  487MOL0     H67169   3.872   5.191   0.269 -1.3457  0.9647 -1.4434
  487MOL0     H67170   3.860   5.501   0.186  0.5697  1.0283  2.2716
  487MOL0     H67171   4.021   5.575   0.207  1.4808 -0.5916  1.5505
  487MOL0     H67172   4.028   5.514  -0.012  1.9264 -1.6478 -1.7102
  487MOL0     H67173   4.131   5.420   0.087 -0.8192  0.4613  2.3088
  487MOL0     H67174   3.839   5.312   0.038 -0.0163 -2.4557  0.9055
  487MOL0     H67175   3.984   5.223   0.075  1.9115 -0.1287 -0.1102
  487MOL0     H67176   3.895   5.173  -0.140 -0.8185  1.3997  0.3379
  487MOL0     H67177   4.065   5.214  -0.145 -0.1849  0.6198 -0.7815
  487MOL0     H67178   4.033   5.423  -0.239 -1.5322  1.7822  1.9133
  487MOL0     H67179   3.932   5.299  -0.334 -0.4797 -0.2863 -0.5871
  487MOL0     H67180   3.854   5.518  -0.142  3.9370 -0.2667 -1.5671
  487MOL0     H67181   3.745   5.377  -0.167 -1.0926  1.2424 -0.5730
  487MOL0     H67182   3.663   5.533  -0.334  0.5384  1.8081  0.7093
  487MOL0     H67183   3.771   5.425  -0.422  1.8460 -2.8237  1.9893
  487MOL0     H67184   3.810   5.652  -0.481  0.0177  0.1222 -0.2590
  487MOL0     H67185   3.957   5.561  -0.433 -0.2675  1.7156 -1.1427
  487MOL0     H67186   3.920   5.551   0.491  0.6943  0.0357 -0.3852
  487MOL0     H67187   3.712   5.476   0.643  1.0105 -1.5171  2.1715
  487MOL0     H67188   3.558   5.100   0.841  0.3018 -1.9768  2.2561
  487MOL0     H67189   3.440   4.962   0.979  1.3445  0.0269 -0.1301
  487MOL0     H67190   1.596   4.391   1.664  1.9785 -0.1607 -0.1074
  487MOL0     H67191   1.451   4.225   1.502  3.0441 -0.7463  1.2001
  487MOL0     H67192   1.449   4.084   1.103  0.6120 -1.6203 -0.2199
  487MOL0     H67193   1.401   3.909   0.968 -1.1117 -2.0712  0.4197
  487MOL0     H67194   1.191   3.625   0.835 -0.1093 -1.6234  1.1337
  487MOL0     H67195   1.323   3.684   0.940 -0.4642 -0.8921  0.4845
  487MOL0     H67196   1.030   3.631   1.029 -0.0698 -2.4868 -2.0773
  487MOL0     H67197   1.164   3.655   1.136  1.2234  0.0443  0.0473
  487MOL0     H67198   1.074   3.421   1.118  1.5452 -0.1243  1.0577
  487MOL0     H67199   1.133   3.414   0.948  2.2005 -0.4894 -0.4509
  487MOL0     H67200   1.373   3.460   1.050 -0.6317  1.2936  1.2769
  487MOL0     H67201   1.305   3.300   1.094  2.1901  0.5939  1.2068
  487MOL0     H67202   1.331   3.510   1.462  1.0581 -0.8557 -0.7882
  487MOL0     H67203   0.987   3.911   1.085  0.0927 -1.9760  2.0052
  487MOL0     H67204   0.913   4.039   1.257  1.5861 -0.1822 -1.4151
  487MOL0     H67205   1.025   4.070   1.386  0.2636  1.2714  0.5742
  487MOL0     H67206   0.968   4.209   1.287  0.1867  0.0981 -1.4191
  488MOL0     O67207   5.039  10.793   3.818  0.2429  0.0687  0.1829
  488MOL0     C67208   5.016  10.909   3.800 -0.8177 -0.9395  0.2978
  488MOL0     O67209   5.120  11.007   3.773 -0.6671  0.2120 -0.6897
  488MOL0     C67210   5.252  10.971   3.771  0.2168  0.6248 -0.0821
  488MOL0     C67211   5.295  10.876   3.679  0.0335 -0.8791  0.1416
  488MOL0     C67212   5.428  10.858   3.655 -0.6289 -0.1099 -0.3450
  488MOL0     C67213   5.529  10.938   3.714  0.2469 -0.5694 -0.6067
  488MOL0     O67214   5.668  10.928   3.704 -0.1745 -0.2283 -0.0800
  488MOL0     C67215   5.724  10.863   3.588 -0.0079 -0.3951  0.7879
  488MOL0     C67216   5.780  10.983   3.503 -0.1726  0.2202  0.2102
  488MOL0     C67217   5.900  10.946   3.411 -1.0938  0.0124  0.4223
  488MOL0     C67218   6.028  10.917   3.493 -0.8867  0.5653 -0.3266
  488MOL0     C67219   6.146  10.862   3.420 -0.4887  0.4889  0.0307
  488MOL0     C67220   6.275  10.903   3.495  0.1501  0.5812  0.0102
  488MOL0     C67221   6.404  10.825   3.460 -0.0473 -0.5773 -0.3717
  488MOL0     C67222   6.528  10.877   3.531  0.3382  0.3551 -0.4328
  488MOL0     N67223   6.571  11.021   3.503 -0.6653 -0.5424 -0.1312
  488MOL0     C67224   6.625  11.061   3.387 -0.2390  0.5664 -0.0025
  488MOL0     C67225   6.627  11.195   3.396  0.1771 -1.6983 -0.5986
  488MOL0     C67226   6.653  11.288   3.279  0.0725  0.1658  0.4139
  488MOL0     C67227   6.806  11.307   3.282  0.1740 -0.0612 -0.3116
  488MOL0     C67228   6.846  11.385   3.399 -1.1095  1.0104 -0.1734
  488MOL0     C67229   6.999  11.385   3.424 -0.0636 -0.1639  0.2903
  488MOL0     O67230   7.074  11.423   3.305  0.4583  0.4706 -0.4295
  488MOL0     C67231   7.208  11.448   3.320 -0.8060  0.2124  0.3880
  488MOL0     C67232   7.281  11.448   3.195 -0.4686 -0.2528  0.9466
  488MOL0     C67233   7.416  11.485   3.187  0.1425 -0.6077  0.4318
  488MOL0     C67234   7.464  11.494   3.038 -0.0840  0.1060 -0.0250
  488MOL0     C67235   7.495  11.502   3.299  0.1444  0.5625  0.4261
  488MOL0     C67236   7.649  11.512   3.300  0.1074  0.6634 -0.7633
  488MOL0     O67237   7.705  11.532   3.423  0.8236 -0.2294  0.6865
  488MOL0     C67238   7.839  11.553   3.415 -0.1799  0.0773 -0.3804
  488MOL0     C67239   7.934  11.449   3.416  0.4506 -0.9828 -0.1535
  488MOL0     C67240   8.074  11.475   3.420 -0.2146  0.7641 -0.0178
  488MOL0     C67241   8.126  11.603   3.429 -0.1461 -0.3480 -0.4307
  488MOL0     O67242   8.259  11.636   3.416 -0.0064 -0.3995 -0.4271
  488MOL0     C67243   8.361  11.561   3.482  0.6669 -0.5327 -0.1165
  488MOL0     C67244   8.473  11.520   3.384  0.1108 -0.5305  0.5611
  488MOL0     C67245   8.578  11.419   3.432 -1.6006 -0.0794  0.0388
  488MOL0     C67246   8.673  11.399   3.317 -0.2162  0.4682 -0.1335
  488MOL0     C67247   8.751  11.260   3.335  0.2655  0.5929 -0.6990
  488MOL0     C67248   8.893  11.270   3.280 -0.4761 -0.3387 -0.4762
  488MOL0     C67249   8.978  11.139   3.295  0.2014 -0.1276  1.1221
  488MOL0     C67250   8.931  11.051   3.179  0.7883  0.3347  0.0828
  488MOL0    Cl67251   9.039  10.916   3.180 -0.2414  0.3855 -0.4126
  488MOL0     C67252   8.031  11.709   3.434 -0.4302  0.3828  0.1736
  488MOL0     C67253   7.889  11.681   3.434 -1.2255 -0.1084 -0.1597
  488MOL0     O67254   7.713  11.484   3.203  0.3465 -1.0072  0.5561
  488MOL0     C67255   7.425  11.497   3.422  0.3750  0.0598  0.1837
  488MOL0     C67256   7.284  11.474   3.435 -0.2879  0.4095  0.1353
  488MOL0     N67257   6.580  11.237   3.523  0.4203  0.4755  0.3800
  488MOL0     N67258   6.544  11.132   3.583 -0.1770  0.2777 -0.3776
  488MOL0     C67259   5.486  11.038   3.805  0.2207 -0.0283  0.7114
  488MOL0     C67260   5.349  11.051   3.831  1.0049  0.0081  0.9730
  488MOL0     C67261   4.881  10.958   3.811 -0.7700 -0.4160 -0.1090
  488MOL0     C67262   4.867  11.094   3.842  0.2442  0.4158 -0.7919
  488MOL0     C67263   4.743  11.147   3.849  0.6230 -0.2991 -0.4225
  488MOL0     C67264   4.626  11.068   3.822  1.4405  0.1641  0.3976
  488MOL0     O67265   4.504  11.115   3.826  0.1015  0.2515 -0.2134
  488MOL0     C67266   4.476  11.244   3.877  0.6119 -0.0982  0.0633
  488MOL0     C67267   4.326  11.270   3.887  0.4215  0.3710 -0.4006
  488MOL0     C67268   4.263  11.254   3.754  0.0377 -0.0248  0.3068
  488MOL0     C67269   4.109  11.285   3.765 -0.1822 -0.4771 -0.3582
  488MOL0     C67270   4.024  11.266   3.645 -0.1878  0.5282 -1.0305
  488MOL0     C67271   3.959  11.255   3.543  0.3449 -0.5967 -0.2033
  488MOL0     C67272   4.640  10.931   3.799  0.2994 -0.6827 -0.4894
  488MOL0     C67273   4.769  10.877   3.801 -1.0615 -0.4655 -0.4887
  488MOL0     C67274   4.762  10.722   3.767  0.0551  0.3676 -0.3102
  488MOL0     H67275   5.218  10.819   3.627 -0.6089 -0.6412  0.8072
  488MOL0     H67276   5.451  10.776   3.587 -1.5336  0.6995 -1.6642
  488MOL0     H67277   5.659  10.794   3.534 -2.2939  0.2149  2.6079
  488MOL0     H67278   5.805  10.805   3.634  1.2917  2.0631  1.7971
  488MOL0     H67279   5.700  11.029   3.443  1.1033 -0.8204 -2.4348
  488MOL0     H67280   5.810  11.071   3.561 -0.1016  0.4728 -0.2043
  488MOL0     H67281   5.893  10.856   3.349  1.1953 -0.1767  0.3267
  488MOL0     H67282   5.924  11.027   3.341 -0.4156 -2.3413 -2.2364
  488MOL0     H67283   6.055  11.007   3.549 -1.1650 -1.3591  3.2483
  488MOL0     H67284   5.999  10.840   3.566 -1.4596 -0.9782 -2.0954
  488MOL0     H67285   6.143  10.902   3.318  0.8352 -0.0245 -0.2325
  488MOL0     H67286   6.138  10.753   3.424  1.4431  0.3478  1.9693
  488MOL0     H67287   6.296  11.007   3.468 -2.5679  1.6446  1.6405
  488MOL0     H67288   6.245  10.881   3.598 -1.0233 -0.3620 -0.5103
  488MOL0     H67289   6.427  10.840   3.354  2.5064  2.4685  0.4452
  488MOL0     H67290   6.399  10.717   3.475 -0.8126 -0.5099 -0.1268
  488MOL0     H67291   6.515  10.868   3.639 -1.3774  0.0414 -0.6446
  488MOL0     H67292   6.610  10.815   3.493 -0.7268 -3.2550  2.5256
  488MOL0     H67293   6.651  10.991   3.308 -1.2138  0.6729 -0.4301
  488MOL0     H67294   6.596  11.380   3.295  1.1817  0.9400  0.0113
  488MOL0     H67295   6.632  11.246   3.180  0.5075 -1.1104  0.8462
  488MOL0     H67296   6.854  11.208   3.289 -0.5847 -0.3846  0.4329
  488MOL0     H67297   6.838  11.351   3.187 -0.1271  1.0674  0.1004
  488MOL0     H67298   6.813  11.489   3.391  0.1126  1.3255 -1.7517
  488MOL0     H67299   6.807  11.348   3.494 -2.2041  1.9881 -0.2145
  488MOL0     H67300   7.029  11.450   3.506  2.2125  0.0237 -0.6046
  488MOL0     H67301   7.029  11.286   3.461 -0.0760  0.0725  0.9413
  488MOL0     H67302   7.230  11.432   3.100  2.6774  0.6002 -1.0536
  488MOL0     H67303   7.510  11.592   3.018  1.2771 -0.2406  1.2071
  488MOL0     H67304   7.391  11.486   2.957  1.0133  1.2031 -1.1719
  488MOL0     H67305   7.534  11.413   3.017 -1.3042 -1.5433  1.9313
  488MOL0     H67306   7.896  11.348   3.408  0.9872 -1.0497 -2.6003
  488MOL0     H67307   8.151  11.398   3.421 -0.2363  0.7426  0.1846
  488MOL0     H67308   8.402  11.623   3.562 -1.7141 -0.6187  1.2590
  488MOL0     H67309   8.324  11.468   3.525 -0.8781  0.3670  0.5888
  488MOL0     H67310   8.429  11.477   3.294 -0.8975 -1.5555  1.5104
  488MOL0     H67311   8.519  11.611   3.342 -0.6500 -1.1764 -1.8484
  488MOL0     H67312   8.530  11.323   3.452 -1.4337 -1.0365 -3.4512
  488MOL0     H67313   8.623  11.458   3.523  0.2382 -0.1699 -0.7797
  488MOL0     H67314   8.748  11.478   3.312  1.0094 -0.5529  1.1320
  488MOL0     H67315   8.621  11.401   3.221  1.0319 -1.6843 -0.9354
  488MOL0     H67316   8.741  11.218   3.435 -1.0727 -2.3218 -1.9320
  488MOL0     H67317   8.692  11.198   3.266 -0.7816  1.8665 -0.9954
  488MOL0     H67318   8.948  11.348   3.333 -0.4433 -0.5124 -0.2542
  488MOL0     H67319   8.892  11.299   3.175 -0.0581 -1.6132 -0.8554
  488MOL0     H67320   8.961  11.101   3.396  0.8826  2.0659  2.1274
  488MOL0     H67321   9.085  11.157   3.282 -0.3319  2.8444  0.1374
  488MOL0     H67322   8.944  11.085   3.076  0.4468 -1.2461 -0.5228
  488MOL0     H67323   8.827  11.019   3.196  0.6675 -1.1995 -2.7838
  488MOL0     H67324   8.067  11.811   3.431 -2.1132  0.9815 -0.8331
  488MOL0     H67325   7.820  11.763   3.452 -2.1007 -0.3852 -2.0039
  488MOL0     H67326   7.469  11.523   3.517 -2.1313  2.0101  0.9294
  488MOL0     H67327   7.264  11.475   3.542  0.0138 -1.7256  0.2460
  488MOL0     H67328   5.558  11.111   3.841 -1.9530  2.8822 -0.4602
  488MOL0     H67329   5.318  11.133   3.895  2.3349  0.9551  0.4486
  488MOL0     H67330   4.944  11.167   3.864 -0.6599  1.8158 -2.0582
  488MOL0     H67331   4.732  11.254   3.866  0.0842 -0.6178  1.5249
  488MOL0     H67332   4.523  11.261   3.975  1.5944  0.6366 -0.5189
  488MOL0     H67333   4.522  11.317   3.811  2.7953  0.3195  1.9072
  488MOL0     H67334   4.306  11.370   3.928  3.1224  0.3802  1.1412
  488MOL0     H67335   4.293  11.183   3.944 -0.6785  0.4343 -0.9186
  488MOL0     H67336   4.313  11.328   3.690  0.4798 -0.8075 -0.2596
  488MOL0     H67337   4.286  11.150   3.729  1.7860 -0.4000  2.9683
  488MOL0     H67338   4.094  11.389   3.794  1.8910 -0.3457  0.3853
  488MOL0     H67339   4.076  11.224   3.850 -0.2770  1.0058  0.7076
  488MOL0     H67340   3.909  11.243   3.449 -0.0705  1.8189 -0.3551
  488MOL0     H67341   4.547  10.877   3.789 -2.1417  2.7896  1.4114
  488MOL0     H67342   4.668  10.669   3.752  0.6727 -1.0634  0.6669
  488MOL0     H67343   4.821  10.702   3.676  1.3856 -1.5491  0.9012
  488MOL0     H67344   4.811  10.670   3.850 -0.0271  1.6792  0.5881
  489MOL0     O67345  10.222   8.257   6.310 -0.0229  0.3292 -0.5026
  489MOL0     C67346  10.149   8.191   6.239  0.8746 -0.4614  0.5584
  489MOL0     O67347  10.167   8.061   6.210 -0.5185 -0.1596  0.7125
  489MOL0     C67348  10.264   8.004   6.284 -0.6071 -0.2349 -0.3636
  489MOL0     C67349  10.387   8.003   6.226  1.1251 -0.4042  0.4957
  489MOL0     C67350  10.492   7.937   6.291 -0.6832 -0.0685 -0.7274
  489MOL0     C67351  10.462   7.865   6.410 -0.2440  0.3633 -0.1582
  489MOL0     O67352  10.553   7.786   6.476 -0.2425  0.4639 -0.2766
  489MOL0     C67353  10.689   7.823   6.482  0.6819 -0.7805  0.2068
  489MOL0     C67354  10.777   7.722   6.553 -0.9574 -0.0079  0.4994
  489MOL0     C67355  10.787   7.749   6.704 -0.8288 -0.1621 -0.0715
  489MOL0     C67356  10.848   7.635   6.785  1.2482 -0.6198 -0.3071
  489MOL0     C67357  10.882   7.683   6.932  0.0095  0.2140 -0.1010
  489MOL0     C67358  10.983   7.589   7.010  0.3081  0.1002  0.6351
  489MOL0     C67359  11.123   7.562   6.935 -0.2852 -0.6862  0.5186
  489MOL0     C67360  11.211   7.452   6.998 -0.5732 -0.0005  0.6738
  489MOL0     N67361  11.335   7.421   6.918 -0.2414 -0.0970 -0.4344
  489MOL0     C67362  11.347   7.318   6.826  0.3245 -0.4091 -0.4810
  489MOL0     C67363  11.484   7.302   6.824  0.8099 -0.0965 -0.5531
  489MOL0     C67364  11.553   7.197   6.744  0.3213 -0.3511  0.2086
  489MOL0     C67365  11.604   7.261   6.614 -0.8213  1.4241  0.5708
  489MOL0     C67366  11.673   7.159   6.519  0.1851  0.2463  0.2317
  489MOL0     C67367  11.795   7.095   6.584 -0.3755  1.6335  0.0696
  489MOL0     O67368  11.871   7.001   6.506 -0.2121  0.0208  0.6426
  489MOL0     C67369  11.983   6.938   6.562 -0.3608  0.0641  1.0322
  489MOL0     C67370  12.029   6.958   6.697  0.0549 -0.2773  0.3425
  489MOL0     C67371  12.141   6.879   6.736  0.6260  0.0845 -0.5828
  489MOL0     C67372  12.214   6.932   6.866 -0.0454  0.3640  0.4642
  489MOL0     C67373  12.215   6.800   6.647 -0.4633 -0.8399  0.5293
  489MOL0     C67374  12.333   6.718   6.678 -0.0202 -0.0415 -0.5098
  489MOL0     O67375  12.401   6.668   6.572 -0.3885  0.0564 -0.0352
  489MOL0     C67376  12.537   6.660   6.585 -0.5265  0.5582  0.9164
  489MOL0     C67377  12.609   6.546   6.542 -0.2622  0.1340  0.0288
  489MOL0     C67378  12.745   6.545   6.538 -0.5583  0.3744 -0.1545
  489MOL0     C67379  12.821   6.654   6.589 -0.3997 -0.4106  0.2213
  489MOL0     O67380  12.960   6.642   6.592 -0.5278 -0.4680  0.7485
  489MOL0     C67381  13.041   6.763   6.612  0.6532  0.0562 -0.6478
  489MOL0     C67382  13.181   6.744   6.562 -0.1096  0.7240 -0.5875
  489MOL0     C67383  13.267   6.845   6.629 -0.1062  0.4168  0.2531
  489MOL0     C67384  13.407   6.807   6.592 -0.2387  0.1167 -0.1000
  489MOL0     C67385  13.501   6.899   6.665  0.0282 -0.1774 -0.0072
  489MOL0     C67386  13.646   6.869   6.648  0.0167 -0.5008 -0.1281
  489MOL0     C67387  13.695   6.723   6.677  0.9796 -0.1147  1.0767
  489MOL0     C67388  13.848   6.717   6.702  0.4179  0.6687 -0.3131
  489MOL0    Cl67389  13.942   6.776   6.568 -0.4179  0.0937  0.1253
  489MOL0     C67390  12.754   6.768   6.622 -0.0253 -0.7005  0.4234
  489MOL0     C67391  12.616   6.772   6.614 -0.9820 -0.3393  0.7594
  489MOL0     O67392  12.357   6.697   6.797  0.0079 -0.1926  0.1929
  489MOL0     C67393  12.157   6.782   6.518 -0.1669  0.4431 -0.0756
  489MOL0     C67394  12.049   6.844   6.478  0.4235  0.1747  0.0389
  489MOL0     N67395  11.546   7.402   6.893  0.0519 -0.5263 -0.2842
  489MOL0     N67396  11.458   7.479   6.946  0.9180  0.6078  0.0554
  489MOL0     C67397  10.334   7.867   6.477 -0.6955  0.2748  0.2586
  489MOL0     C67398  10.235   7.936   6.402  0.3829 -0.0194 -0.3215
  489MOL0     C67399  10.025   8.261   6.192  0.1987  0.1633 -0.1735
  489MOL0     C67400  10.007   8.404   6.221 -0.2917 -0.1368  0.6848
  489MOL0     C67401   9.883   8.474   6.211  0.8481 -0.2986 -0.0065
  489MOL0     C67402   9.775   8.406   6.159 -0.8648 -0.4717  0.4798
  489MOL0     O67403   9.664   8.481   6.158 -0.5536  0.3172  0.3301
  489MOL0     C67404   9.544   8.411   6.194 -0.2982  0.5044  0.8496
  489MOL0     C67405   9.459   8.502   6.287  1.0335  0.8966 -0.1840
  489MOL0     C67406   9.416   8.634   6.216 -0.2630  0.0304  0.0814
  489MOL0     C67407   9.271   8.680   6.259 -0.3124  0.1221  1.0463
  489MOL0     C67408   9.191   8.720   6.141 -0.3233  0.0635 -0.1429
  489MOL0     C67409   9.125   8.751   6.043  0.4710 -0.6842 -0.1678
  489MOL0     C67410   9.794   8.276   6.112 -0.8097 -0.2852 -0.2858
  489MOL0     C67411   9.914   8.199   6.126  0.2413  0.6515 -0.5165
  489MOL0     C67412   9.908   8.052   6.083 -0.3696  0.2112  1.1055
  489MOL0     H67413  10.412   8.033   6.125 -1.6832  1.1916  0.1558
  489MOL0     H67414  10.592   7.933   6.250 -0.2164  0.5956  0.3365
  489MOL0     H67415  10.693   7.916   6.540 -0.1674 -1.8265  2.0467
  489MOL0     H67416  10.731   7.827   6.382 -0.6752  0.4951 -0.3553
  489MOL0     H67417  10.739   7.620   6.542 -3.1152  0.4606  2.9200
  489MOL0     H67418  10.875   7.727   6.504 -1.1087  2.4616  0.3641
  489MOL0     H67419  10.849   7.839   6.711  0.1250 -0.7563 -0.7050
  489MOL0     H67420  10.689   7.777   6.745  0.1062  2.6550  0.4492
  489MOL0     H67421  10.776   7.553   6.792  0.3918  0.0836 -0.6876
  489MOL0     H67422  10.937   7.598   6.733  2.3574  0.9564  0.3962
  489MOL0     H67423  10.793   7.679   6.995  1.1781  1.3086  1.6782
  489MOL0     H67424  10.927   7.782   6.933 -0.2618  0.3510  1.6989
  489MOL0     H67425  11.008   7.636   7.105  2.0648  1.4828 -0.4438
  489MOL0     H67426  10.926   7.497   7.026 -0.7867  0.5098 -0.6833
  489MOL0     H67427  11.172   7.658   6.920 -0.1217 -0.9412 -0.6796
  489MOL0     H67428  11.091   7.513   6.843  2.4455  0.0958 -0.9492
  489MOL0     H67429  11.244   7.484   7.097  0.5640 -1.4818  0.8071
  489MOL0     H67430  11.159   7.356   6.998 -0.1827 -0.2329 -0.6198
  489MOL0     H67431  11.268   7.247   6.802  0.1579 -0.6665  0.7276
  489MOL0     H67432  11.490   7.111   6.719  2.4117 -1.8016 -0.4177
  489MOL0     H67433  11.636   7.175   6.811  0.9634  3.0771  0.7100
  489MOL0     H67434  11.517   7.303   6.564 -1.2197  2.4427  2.0476
  489MOL0     H67435  11.672   7.347   6.623  2.2623 -0.2831 -3.4296
  489MOL0     H67436  11.599   7.084   6.490 -0.3255  0.8841 -0.1692
  489MOL0     H67437  11.697   7.216   6.429 -3.3126 -2.5778 -2.8349
  489MOL0     H67438  11.864   7.173   6.618  0.0149  2.0541 -1.6261
  489MOL0     H67439  11.762   7.027   6.664 -1.0427  0.5625 -1.0847
  489MOL0     H67440  11.980   7.028   6.764  1.1530  0.0320  0.8389
  489MOL0     H67441  12.213   6.846   6.933  1.6338 -1.6561 -1.9179
  489MOL0     H67442  12.157   7.014   6.911 -0.1188 -1.0441  3.0914
  489MOL0     H67443  12.318   6.965   6.859  0.2815 -0.9150 -1.2962
  489MOL0     H67444  12.556   6.454   6.520  1.4287 -1.2563  1.4863
  489MOL0     H67445  12.806   6.460   6.508  1.2815  1.2922  0.7801
  489MOL0     H67446  13.005   6.850   6.557  0.1059  1.0012  1.1262
  489MOL0     H67447  13.033   6.788   6.719  1.6182 -1.8997 -0.0686
  489MOL0     H67448  13.202   6.638   6.583 -1.3445  0.5609 -0.0495
  489MOL0     H67449  13.191   6.758   6.454  1.0738  2.4525 -0.2924
  489MOL0     H67450  13.249   6.838   6.736 -2.5665 -2.8661 -0.2180
  489MOL0     H67451  13.248   6.944   6.587 -0.2293  1.7134  3.1543
  489MOL0     H67452  13.421   6.824   6.484  0.6586 -3.3555 -0.6607
  489MOL0     H67453  13.433   6.704   6.617  1.1682  0.6517  0.7922
  489MOL0     H67454  13.484   6.998   6.622  1.0674 -1.2177 -3.1546
  489MOL0     H67455  13.474   6.902   6.771  1.3429  2.0498  0.3447
  489MOL0     H67456  13.697   6.938   6.715  0.2283 -3.0178  2.5031
  489MOL0     H67457  13.663   6.891   6.542 -2.2232  3.2595  0.1253
  489MOL0     H67458  13.678   6.672   6.582  0.5140  1.9834 -0.0302
  489MOL0     H67459  13.635   6.677   6.756 -2.5918  2.3765  0.0939
  489MOL0     H67460  13.884   6.616   6.724  1.6095  0.8234 -1.4199
  489MOL0     H67461  13.860   6.779   6.791  1.2799  0.8273 -0.5340
  489MOL0     H67462  12.814   6.847   6.664  5.0643 -2.4249 -2.6582
  489MOL0     H67463  12.568   6.865   6.646 -0.3241  0.3158 -0.1295
  489MOL0     H67464  12.194   6.705   6.452 -1.1110 -0.8320  0.8076
  489MOL0     H67465  12.010   6.834   6.377 -0.4633 -0.8864  0.4722
  489MOL0     H67466  10.310   7.813   6.568 -2.4658  0.4742 -0.0599
  489MOL0     H67467  10.134   7.937   6.441  1.4247 -0.6965  2.6665
  489MOL0     H67468  10.093   8.457   6.261 -1.1618  0.6537  1.5588
  489MOL0     H67469   9.858   8.570   6.256  3.4112 -0.5214  2.1527
  489MOL0     H67470   9.496   8.391   6.098  2.7124 -1.1829 -0.4471
  489MOL0     H67471   9.566   8.316   6.245  0.3493 -0.3871 -1.0132
  489MOL0     H67472   9.506   8.527   6.383 -3.3808 -0.8680  2.7785
  489MOL0     H67473   9.376   8.441   6.324  1.4031 -0.0025 -0.7883
  489MOL0     H67474   9.480   8.717   6.245  1.3865 -1.5318  1.1452
  489MOL0     H67475   9.415   8.615   6.108  0.8865  1.4147 -0.1950
  489MOL0     H67476   9.283   8.758   6.336 -1.6110  0.6992  0.7031
  489MOL0     H67477   9.218   8.601   6.313  0.4195 -0.4164  0.9829
  489MOL0     H67478   9.052   8.778   5.970  2.1737  0.9357 -1.3784
  489MOL0     H67479   9.711   8.226   6.064 -2.3104 -1.1380  2.9340
  489MOL0     H67480   9.959   8.043   5.986 -0.7807  1.2430  0.7882
  489MOL0     H67481   9.960   7.983   6.151 -0.1192  0.3662  1.0705
  489MOL0     H67482   9.805   8.022   6.062 -0.4286  2.7755 -3.4649
  490MOL0     O67483   4.226   5.309   2.904  0.1659 -0.2027 -0.2974
  490MOL0     C67484   4.139   5.398   2.894 -0.2596  0.0544 -1.2363
  490MOL0     O67485   4.123   5.498   2.798  0.2570  0.6616  0.0089
  490MOL0     C67486   4.185   5.482   2.678 -0.6902 -0.7440 -0.4062
  490MOL0     C67487   4.122   5.412   2.571 -0.1237 -1.1694  0.4088
  490MOL0     C67488   4.189   5.406   2.453 -0.9574 -0.1708  0.9616
  490MOL0     C67489   4.320   5.460   2.434  0.6622  0.4227 -0.2517
  490MOL0     O67490   4.388   5.455   2.308 -0.3608 -0.8863 -0.6405
  490MOL0     C67491   4.487   5.557   2.281  0.5787  0.9039  0.7869
  490MOL0     C67492   4.553   5.540   2.145 -0.4716 -0.4336 -1.1134
  490MOL0     C67493   4.648   5.658   2.117  0.0367  0.4017  0.0135
  490MOL0     C67494   4.581   5.794   2.104 -0.9239 -0.3559 -0.1950
  490MOL0     C67495   4.675   5.884   2.026 -0.0248 -0.2602  0.5414
  490MOL0     C67496   4.674   5.853   1.879 -0.2028  0.3984 -0.6634
  490MOL0     C67497   4.553   5.911   1.796 -1.0257 -0.5923 -0.3202
  490MOL0     C67498   4.550   5.849   1.661  0.0983  0.2847 -0.1563
  490MOL0     N67499   4.475   5.933   1.566 -0.2394  0.5301 -0.1751
  490MOL0     C67500   4.348   5.995   1.584 -0.6320 -0.7358 -0.0021
  490MOL0     C67501   4.328   6.056   1.467  0.0367 -0.0070  0.7782
  490MOL0     C67502   4.223   6.148   1.403 -0.8388 -0.0576 -0.6774
  490MOL0     C67503   4.169   6.106   1.267  0.2081  0.5462  0.6570
  490MOL0     C67504   4.083   5.979   1.286  0.7532 -0.8860  0.3555
  490MOL0     C67505   4.092   5.892   1.159  0.0526  0.3534 -0.4426
  490MOL0     O67506   4.035   5.961   1.042  0.5767  0.1953  0.4318
  490MOL0     C67507   3.900   5.989   1.050  0.2786  1.7359  0.4145
  490MOL0     C67508   3.851   6.118   1.026  0.0540  0.3806 -0.7151
  490MOL0     C67509   3.713   6.148   1.027 -0.2384  1.2442 -0.2011
  490MOL0     C67510   3.665   6.285   0.978  0.6080 -0.0558  0.3089
  490MOL0     C67511   3.625   6.050   1.085 -0.1338 -0.8773  0.5135
  490MOL0     C67512   3.481   6.086   1.112 -0.3026  0.0308  0.1388
  490MOL0     O67513   3.449   6.139   1.232  0.2211  0.3217  0.3888
  490MOL0     C67514   3.328   6.199   1.244 -0.0958 -0.3773  0.5773
  490MOL0     C67515   3.270   6.283   1.152 -0.3042 -0.7018 -0.2942
  490MOL0     C67516   3.144   6.338   1.158  1.6703 -0.5234  0.0969
  490MOL0     C67517   3.056   6.311   1.265 -0.7762 -1.2042 -0.5184
  490MOL0     O67518   2.926   6.366   1.268 -0.5341  0.4934  0.2152
  490MOL0     C67519   2.817   6.289   1.322  1.0423 -0.0500  0.2482
  490MOL0     C67520   2.689   6.372   1.348 -0.7426 -0.3418 -0.4938
  490MOL0     C67521   2.570   6.296   1.404  0.3542 -0.5493 -0.3899
  490MOL0     C67522   2.463   6.396   1.448  0.3653  0.0379  0.4032
  490MOL0     C67523   2.320   6.328   1.481  0.1176  0.5154 -1.0020
  490MOL0     C67524   2.235   6.432   1.545 -0.4764  0.1238 -0.2721
  490MOL0     C67525   2.091   6.395   1.586  0.1427  0.3740 -0.0681
  490MOL0     C67526   2.005   6.317   1.486 -0.2959 -0.7780 -0.5417
  490MOL0    Cl67527   1.846   6.273   1.553  0.4474 -0.3949 -0.3981
  490MOL0     C67528   3.110   6.222   1.364  0.1095 -0.0767 -0.3840
  490MOL0     C67529   3.241   6.170   1.354 -0.3743 -0.0748  0.1226
  490MOL0     O67530   3.398   6.056   1.024  0.3811 -0.0166  0.7920
  490MOL0     C67531   3.673   5.923   1.110 -0.4952  0.4339  0.2852
  490MOL0     C67532   3.808   5.889   1.096  0.1626 -0.7140  0.4242
  490MOL0     N67533   4.431   6.032   1.380  0.9665 -0.3635 -0.5802
  490MOL0     N67534   4.521   5.962   1.437  0.5072 -0.8844  0.0389
  490MOL0     C67535   4.387   5.512   2.551  0.2327 -0.2985 -0.4219
  490MOL0     C67536   4.317   5.533   2.668 -0.4974 -0.2947  0.3498
  490MOL0     C67537   4.022   5.398   2.986  0.3936 -0.0293  0.1976
  490MOL0     C67538   3.959   5.519   3.026 -0.3397  1.1994 -0.3873
  490MOL0     C67539   3.862   5.522   3.115 -0.7011  0.8696  0.0738
  490MOL0     C67540   3.814   5.414   3.183 -0.5860  0.0785  0.7498
  490MOL0     O67541   3.713   5.427   3.271  0.2829 -0.2900 -0.0091
  490MOL0     C67542   3.721   5.356   3.402  0.1764 -0.5424  0.3495
  490MOL0     C67543   3.862   5.395   3.480 -0.8672  0.4143 -0.3784
  490MOL0     C67544   3.873   5.548   3.489 -0.2061  0.3956 -0.2334
  490MOL0     C67545   3.818   5.605   3.621  1.0890  0.3424 -0.9174
  490MOL0     C67546   3.834   5.758   3.632  0.9066  0.0082 -0.2550
  490MOL0     C67547   3.833   5.877   3.645 -0.1296  0.0046  0.1361
  490MOL0     C67548   3.872   5.290   3.143 -1.2949 -0.5588 -0.3435
  490MOL0     C67549   3.980   5.283   3.056  0.2677  0.4866  0.5503
  490MOL0     C67550   4.035   5.150   3.024  0.6254 -0.2009  0.0716
  490MOL0     H67551   4.032   5.355   2.586  0.0086 -2.1308 -2.0157
  490MOL0     H67552   4.136   5.359   2.370 -2.0474  1.1066  0.8901
  490MOL0     H67553   4.558   5.559   2.364 -0.4734 -0.1024  1.7578
  490MOL0     H67554   4.431   5.650   2.291  1.9927  1.6192  2.5779
  490MOL0     H67555   4.608   5.446   2.144 -1.5716 -1.1818  1.1547
  490MOL0     H67556   4.483   5.539   2.061 -0.1182  3.1123 -1.5806
  490MOL0     H67557   4.721   5.671   2.198 -0.5314 -2.7634  1.1923
  490MOL0     H67558   4.699   5.634   2.023 -1.8520  0.1593 -0.9875
  490MOL0     H67559   4.490   5.784   2.044 -0.0605 -0.8784 -1.4509
  490MOL0     H67560   4.567   5.828   2.208  0.3238 -1.9241  0.5245
  490MOL0     H67561   4.779   5.876   2.057 -0.2068  1.3709  1.7323
  490MOL0     H67562   4.636   5.985   2.041 -0.5309 -0.5722  1.4022
  490MOL0     H67563   4.761   5.901   1.831 -0.5364 -1.0726 -2.8879
  490MOL0     H67564   4.686   5.745   1.867 -1.6909 -0.0717  1.5846
  490MOL0     H67565   4.569   6.019   1.788  0.3427 -0.8063 -0.7606
  490MOL0     H67566   4.453   5.888   1.835 -1.2744 -0.7414 -1.0109
  490MOL0     H67567   4.648   5.819   1.622 -1.3822  0.4496 -4.5431
  490MOL0     H67568   4.490   5.759   1.679 -0.4653  0.6924  0.0123
  490MOL0     H67569   4.297   6.004   1.679  0.0659  0.4294  0.2831
  490MOL0     H67570   4.269   6.246   1.390 -0.4738 -0.1280  0.0085
  490MOL0     H67571   4.141   6.167   1.473  0.1237  0.2232  0.4072
  490MOL0     H67572   4.102   6.174   1.213  0.1773  0.2119  0.2644
  490MOL0     H67573   4.249   6.097   1.193  0.2953 -0.5305  0.8673
  490MOL0     H67574   4.111   5.936   1.382  0.2510 -0.5902  0.6413
  490MOL0     H67575   3.980   6.013   1.304  1.4447 -0.4165  4.4598
  490MOL0     H67576   4.198   5.871   1.142  0.0145  0.7091 -1.1383
  490MOL0     H67577   4.045   5.797   1.185 -1.4624  1.4104  0.9062
  490MOL0     H67578   3.928   6.188   0.997 -0.0994  1.0796  0.5091
  490MOL0     H67579   3.694   6.367   1.044  3.0800  0.1936 -0.9658
  490MOL0     H67580   3.556   6.278   0.976  0.5193  1.2301 -0.2939
  490MOL0     H67581   3.677   6.306   0.871 -1.0580 -1.9201 -0.2929
  490MOL0     H67582   3.344   6.316   1.079 -1.0434  2.8906  0.3779
  490MOL0     H67583   3.105   6.408   1.085  0.5104  0.2856  1.4448
  490MOL0     H67584   2.777   6.218   1.250 -0.0424  1.3424 -0.5671
  490MOL0     H67585   2.864   6.235   1.405  4.1720 -1.1440 -2.0348
  490MOL0     H67586   2.707   6.445   1.428  0.8931 -2.4322  1.1524
  490MOL0     H67587   2.671   6.421   1.252  4.4750  0.1283 -1.5046
  490MOL0     H67588   2.596   6.237   1.493 -2.6381 -0.3065  0.7900
  490MOL0     H67589   2.523   6.223   1.337  1.7302 -0.5491 -1.3841
  490MOL0     H67590   2.444   6.470   1.370 -1.7286 -0.5470  0.2839
  490MOL0     H67591   2.503   6.439   1.541  2.8051 -2.1464  0.4891
  490MOL0     H67592   2.271   6.291   1.390 -1.6303 -1.4620  0.6642
  490MOL0     H67593   2.330   6.247   1.553  0.6297  0.1884 -1.4280
  490MOL0     H67594   2.212   6.524   1.490 -1.7611  1.8710  2.8700
  490MOL0     H67595   2.283   6.472   1.636 -3.1628  1.1116  0.8221
  490MOL0     H67596   2.036   6.483   1.620 -1.2811 -0.2399 -0.7043
  490MOL0     H67597   2.096   6.336   1.679  1.8337 -0.4263 -0.6301
  490MOL0     H67598   2.059   6.233   1.442  1.8675  0.7318 -0.9660
  490MOL0     H67599   1.993   6.381   1.397 -0.8816 -1.8801 -1.2761
  490MOL0     H67600   3.051   6.177   1.443  0.0075  0.1412 -0.3353
  490MOL0     H67601   3.276   6.103   1.431  0.3556  1.7070  1.3966
  490MOL0     H67602   3.597   5.850   1.139 -0.5904  0.1266 -0.7089
  490MOL0     H67603   3.852   5.791   1.116  0.0667 -0.3967  2.4222
  490MOL0     H67604   4.488   5.551   2.554  0.0792  0.0939 -0.3046
  490MOL0     H67605   4.358   5.585   2.754  1.2518 -2.2107  0.7661
  490MOL0     H67606   3.991   5.616   2.989  3.8902 -0.3124 -1.1972
  490MOL0     H67607   3.832   5.621   3.147  0.9826  1.2186  0.6435
  490MOL0     H67608   3.633   5.379   3.463  0.4454 -1.0692  0.9393
  490MOL0     H67609   3.708   5.250   3.379 -3.7931 -0.5344  1.6860
  490MOL0     H67610   3.951   5.355   3.431 -2.0642 -1.0251 -1.4984
  490MOL0     H67611   3.862   5.341   3.575  0.6892 -0.5869 -0.9170
  490MOL0     H67612   3.979   5.576   3.491  0.0463 -0.5437  0.0493
  490MOL0     H67613   3.827   5.608   3.410 -0.5743 -0.2297 -0.4975
  490MOL0     H67614   3.867   5.552   3.703  0.6164 -1.3017 -1.6409
  490MOL0     H67615   3.710   5.591   3.632  1.0040  2.1389  0.9856
  490MOL0     H67616   3.845   5.981   3.667  1.0603 -0.4805  1.9633
  490MOL0     H67617   3.838   5.208   3.206 -2.6836  1.2742  1.4175
  490MOL0     H67618   3.965   5.076   3.064  0.5063 -0.2411 -0.2086
  490MOL0     H67619   4.058   5.124   2.920 -3.2598  0.3214 -1.0695
  490MOL0     H67620   4.128   5.151   3.081  0.4287  1.0622  0.3796
  491MOL0     O67621  10.529   8.012   5.905 -0.2055  0.2943  0.0154
  491MOL0     C67622  10.583   8.090   5.819 -0.2931  0.7239 -0.1560
  491MOL0     O67623  10.521   8.185   5.747  0.5654 -0.2503 -0.2513
  491MOL0     C67624  10.393   8.221   5.783  0.0242  0.4834  0.5246
  491MOL0     C67625  10.282   8.229   5.704 -0.1995  0.0109  0.2954
  491MOL0     C67626  10.169   8.295   5.748 -0.7435 -0.1334 -0.1211
  491MOL0     C67627  10.154   8.355   5.867  0.8610 -0.1717 -0.4542
  491MOL0     O67628  10.043   8.433   5.905  0.2540 -0.2704  0.7796
  491MOL0     C67629  10.002   8.541   5.816 -0.4363  0.0661 -0.3233
  491MOL0     C67630   9.851   8.563   5.827  0.3024  0.4437 -0.9064
  491MOL0     C67631   9.782   8.629   5.694 -0.3713  0.0656 -0.2246
  491MOL0     C67632   9.635   8.623   5.701 -0.7962  0.1196 -0.0908
  491MOL0     C67633   9.566   8.710   5.593  1.1675 -0.1989  0.6821
  491MOL0     C67634   9.412   8.709   5.586 -0.5129  0.1789 -0.1161
  491MOL0     C67635   9.355   8.781   5.713 -0.5233  0.4775  0.0030
  491MOL0     C67636   9.208   8.796   5.699 -0.7162  0.6597  0.0479
  491MOL0     N67637   9.131   8.681   5.660 -0.0237  0.0826  0.1159
  491MOL0     C67638   9.155   8.551   5.695 -0.4693 -0.1685  0.6070
  491MOL0     C67639   9.055   8.487   5.630  1.0671  0.3328  0.6021
  491MOL0     C67640   9.036   8.337   5.614  0.3541 -0.0074  0.1927
  491MOL0     C67641   9.083   8.274   5.490  0.6826  0.5202 -0.4292
  491MOL0     C67642   9.242   8.268   5.491  0.1905 -0.0559  0.0953
  491MOL0     C67643   9.298   8.238   5.357  0.5298 -1.1941  0.7977
  491MOL0     O67644   9.433   8.277   5.355  0.5923  0.6584  0.5781
  491MOL0     C67645   9.506   8.261   5.241  0.1403 -0.0438 -0.1764
  491MOL0     C67646   9.451   8.217   5.119 -1.2826  0.1559  0.0928
  491MOL0     C67647   9.532   8.194   5.010  0.3631  0.7786  0.0829
  491MOL0     C67648   9.473   8.123   4.883 -0.3114  0.8768  0.6809
  491MOL0     C67649   9.666   8.237   5.022  0.3056 -0.4434  0.2820
  491MOL0     C67650   9.780   8.216   4.921  0.6662 -0.0737  0.9131
  491MOL0     O67651   9.918   8.252   4.947  0.0953 -0.4869  0.3762
  491MOL0     C67652  10.008   8.259   4.835 -0.4596  0.7335  0.2186
  491MOL0     C67653  10.037   8.384   4.786  0.3386  0.2580  0.4261
  491MOL0     C67654  10.128   8.383   4.677 -0.1178 -0.5573  0.1306
  491MOL0     C67655  10.184   8.268   4.616 -0.3106 -0.0285 -0.5296
  491MOL0     O67656  10.286   8.270   4.530 -0.5292 -0.0515  0.3539
  491MOL0     C67657  10.281   8.357   4.421 -0.7866  0.3129  0.3617
  491MOL0     C67658  10.391   8.337   4.315 -1.2278 -0.3610 -0.1038
  491MOL0     C67659  10.533   8.371   4.365 -0.5457 -0.2603 -0.3095
  491MOL0     C67660  10.644   8.305   4.291  0.2675 -0.2484  0.3593
  491MOL0     C67661  10.775   8.333   4.354 -0.6480  0.0022  0.1878
  491MOL0     C67662  10.895   8.261   4.286  0.8632 -0.1664  0.6465
  491MOL0     C67663  10.920   8.297   4.135 -0.2963 -0.3440 -0.2600
  491MOL0     C67664  11.057   8.254   4.082 -0.9546 -0.3732  0.2117
  491MOL0    Cl67665  11.067   8.068   4.064 -0.1954 -0.2471  0.0508
  491MOL0     C67666  10.140   8.146   4.669 -0.7884 -0.3090 -0.5209
  491MOL0     C67667  10.048   8.138   4.779 -0.5099  0.4073  0.4235
  491MOL0     O67668   9.744   8.162   4.814 -0.3323 -0.5031 -0.0429
  491MOL0     C67669   9.711   8.299   5.138  0.5638 -0.0981 -0.3385
  491MOL0     C67670   9.635   8.303   5.252  0.7980  0.3475  0.1171
  491MOL0     N67671   8.973   8.587   5.562 -0.1508  0.0979  0.2027
  491MOL0     N67672   9.016   8.703   5.600  0.6147  0.2271  0.6264
  491MOL0     C67673  10.263   8.342   5.955  0.0189 -1.5360  0.2216
  491MOL0     C67674  10.381   8.280   5.915 -0.6595  0.7624  0.4301
  491MOL0     C67675  10.727   8.062   5.779  0.6314 -0.0964 -0.4309
  491MOL0     C67676  10.764   8.057   5.638  0.0993 -0.9275  0.0934
  491MOL0     C67677  10.891   8.020   5.602  0.7579  0.7572 -0.1732
  491MOL0     C67678  10.998   7.990   5.694  0.8085 -0.7517  0.2224
  491MOL0     O67679  11.116   7.934   5.651 -0.0660 -0.4655  0.4260
  491MOL0     C67680  11.108   7.831   5.547  0.2465 -0.0616  0.3885
  491MOL0     C67681  11.240   7.756   5.529 -0.0367  0.6123  0.0723
  491MOL0     C67682  11.255   7.628   5.603  0.4693  1.5468 -0.3488
  491MOL0     C67683  11.206   7.650   5.748 -0.1690  0.0105  0.1178
  491MOL0     C67684  11.278   7.556   5.831  0.1870 -0.6247 -0.1237
  491MOL0     C67685  11.321   7.466   5.904 -0.9909 -0.4688  0.4968
  491MOL0     C67686  10.966   8.013   5.823  0.0125  0.5910 -0.5664
  491MOL0     C67687  10.831   8.048   5.870 -0.5851  0.8056  0.4342
  491MOL0     C67688  10.820   8.058   6.014  0.1233  0.3854  0.4189
  491MOL0     H67689  10.300   8.192   5.604  2.6167  1.6458  0.0960
  491MOL0     H67690  10.089   8.296   5.675  0.0204 -2.2835 -1.0829
  491MOL0     H67691  10.025   8.517   5.712  1.8044  0.4264  0.0354
  491MOL0     H67692  10.058   8.632   5.839  1.1409 -0.1313 -2.9684
  491MOL0     H67693   9.816   8.461   5.845  0.6396  0.1206 -2.0059
  491MOL0     H67694   9.829   8.628   5.913  2.3510  0.4218 -0.3148
  491MOL0     H67695   9.810   8.735   5.693 -0.0385 -0.0189  0.0710
  491MOL0     H67696   9.817   8.573   5.607 -1.1982 -1.5825  0.4578
  491MOL0     H67697   9.600   8.520   5.701 -1.7026  0.4006 -1.3070
  491MOL0     H67698   9.608   8.656   5.802 -0.9419 -1.8732  0.5634
  491MOL0     H67699   9.607   8.675   5.498 -1.1202  0.1503 -0.5142
  491MOL0     H67700   9.596   8.815   5.604 -1.5231  1.0322 -2.1111
  491MOL0     H67701   9.384   8.768   5.498  1.0361  0.4647 -0.4573
  491MOL0     H67702   9.371   8.609   5.567 -1.7189  0.9801 -1.9065
  491MOL0     H67703   9.408   8.875   5.727  0.7392 -0.5598  2.8477
  491MOL0     H67704   9.380   8.739   5.810  0.1670  1.9459  0.4825
  491MOL0     H67705   9.178   8.831   5.799  3.8055 -0.3620  2.0313
  491MOL0     H67706   9.196   8.862   5.613  1.0320  0.8078 -0.1165
  491MOL0     H67707   9.238   8.514   5.756  0.1938  0.9454  0.4056
  491MOL0     H67708   8.931   8.314   5.634  0.5740 -1.2186  0.0015
  491MOL0     H67709   9.098   8.289   5.690  4.1511  1.7018 -1.5526
  491MOL0     H67710   9.050   8.170   5.495  1.1406  0.4332  1.5615
  491MOL0     H67711   9.035   8.323   5.405 -0.8811  2.2205  1.3565
  491MOL0     H67712   9.283   8.366   5.514  0.8981 -0.9692  3.2923
  491MOL0     H67713   9.282   8.189   5.556  2.9693  1.4587  0.3518
  491MOL0     H67714   9.297   8.133   5.327  2.2031 -0.8965 -0.4422
  491MOL0     H67715   9.245   8.303   5.287  0.4979 -0.7438  1.2369
  491MOL0     H67716   9.355   8.168   5.107 -0.1210 -2.1588 -0.3041
  491MOL0     H67717   9.484   8.196   4.802 -1.1460  2.3736  1.8482
  491MOL0     H67718   9.365   8.106   4.879 -0.1922  0.3580 -1.0057
  491MOL0     H67719   9.524   8.033   4.848  3.3406  3.9267 -2.8321
  491MOL0     H67720   9.984   8.473   4.820 -1.5569 -0.1223 -1.3488
  491MOL0     H67721  10.154   8.482   4.641 -3.6973 -0.1225 -1.7062
  491MOL0     H67722  10.184   8.355   4.369  1.0034  0.5047 -3.3070
  491MOL0     H67723  10.288   8.456   4.468 -0.1533  1.2168 -1.5000
  491MOL0     H67724  10.380   8.244   4.258  1.1488  0.5780 -2.2932
  491MOL0     H67725  10.374   8.412   4.237  1.9840 -0.4438 -1.0238
  491MOL0     H67726  10.531   8.344   4.471  0.3298 -0.1004 -0.2449
  491MOL0     H67727  10.535   8.479   4.353 -4.5198 -0.1000 -0.9812
  491MOL0     H67728  10.648   8.325   4.183  0.3122  0.5012  0.4954
  491MOL0     H67729  10.627   8.198   4.302 -1.3083 -0.3063 -1.9490
  491MOL0     H67730  10.800   8.439   4.352  1.8527 -0.4868  1.0465
  491MOL0     H67731  10.773   8.320   4.462  0.4795  0.3803  0.2713
  491MOL0     H67732  10.867   8.155   4.276 -2.2015  0.3028  2.7903
  491MOL0     H67733  10.989   8.275   4.342  2.2676 -0.5408 -1.4972
  491MOL0     H67734  10.900   8.404   4.122  1.5209 -0.2410 -3.1043
  491MOL0     H67735  10.851   8.235   4.078 -0.4942 -1.1215  0.7825
  491MOL0     H67736  11.121   8.273   4.169 -1.9953  0.5375  0.8031
  491MOL0     H67737  11.068   8.308   3.988  3.0235 -2.8056 -0.9784
  491MOL0     H67738  10.183   8.054   4.631  1.4061  0.5730 -0.3267
  491MOL0     H67739  10.020   8.040   4.817 -0.7416  0.0265 -0.6991
  491MOL0     H67740   9.813   8.331   5.157  0.6406 -0.7674  0.4062
  491MOL0     H67741   9.675   8.332   5.349 -1.8336 -0.2201  1.4536
  491MOL0     H67742  10.262   8.389   6.053 -1.3418 -1.4781  0.1983
  491MOL0     H67743  10.463   8.272   5.986  0.3423 -0.1603 -0.7605
  491MOL0     H67744  10.688   8.055   5.560  0.5978 -1.9785 -0.3920
  491MOL0     H67745  10.925   8.019   5.498  0.9835 -1.2697 -0.1156
  491MOL0     H67746  11.031   7.765   5.588  1.7141 -0.3657  2.7861
  491MOL0     H67747  11.083   7.868   5.447  2.6474  0.8244  0.0494
  491MOL0     H67748  11.321   7.823   5.559 -1.4413  2.4556 -0.1150
  491MOL0     H67749  11.255   7.729   5.424  1.0808 -1.0822  0.6225
  491MOL0     H67750  11.214   7.535   5.561  0.8201  0.1110  2.2520
  491MOL0     H67751  11.363   7.617   5.597  0.6470  2.2905  1.0302
  491MOL0     H67752  11.098   7.634   5.753 -0.1685 -0.9174 -2.0321
  491MOL0     H67753  11.226   7.751   5.785  2.2550  0.1659 -1.4579
  491MOL0     H67754  11.362   7.394   5.971  0.7634 -2.3608 -2.3870
  491MOL0     H67755  11.049   7.993   5.890 -1.3589  1.1446  1.3909
  491MOL0     H67756  10.744   8.134   6.037  0.0222  0.1526  0.8614
  491MOL0     H67757  10.791   7.963   6.060 -1.3529  1.5103  1.9523
  491MOL0     H67758  10.916   8.089   6.055  2.0463 -2.6316 -1.4492
  492MOL0     O67759   9.553   0.979  10.686  0.3371 -0.1048 -0.3142
  492MOL0     C67760   9.561   0.925  10.796  0.0689 -0.3612  0.8471
  492MOL0     O67761   9.675   0.890  10.858  0.4369  0.5051 -0.0697
  492MOL0     C67762   9.800   0.903  10.800  0.1845  0.5460 -0.3788
  492MOL0     C67763   9.897   0.978  10.866  0.5108 -0.3315 -0.3297
  492MOL0     C67764  10.030   0.989  10.815  0.9415 -0.2393 -0.3517
  492MOL0     C67765  10.058   0.933  10.685 -0.0394  0.5835 -0.5964
  492MOL0     O67766  10.184   0.938  10.635 -0.7173 -0.0172 -0.5269
  492MOL0     C67767  10.291   0.885  10.725 -0.2884  0.1273 -0.2410
  492MOL0     C67768  10.414   0.843  10.636 -0.2885 -0.1363 -0.7361
  492MOL0     C67769  10.364   0.731  10.539 -0.1278  0.3912 -0.3552
  492MOL0     C67770  10.485   0.654  10.477  0.4840 -0.4600  0.3062
  492MOL0     C67771  10.447   0.506  10.437  0.4189  0.4096  0.5171
  492MOL0     C67772  10.327   0.493  10.341  0.4426 -1.1875  0.1529
  492MOL0     C67773  10.327   0.371  10.259  0.3550  0.5865 -0.3352
  492MOL0     C67774  10.273   0.246  10.341  0.5056 -0.5321  1.0189
  492MOL0     N67775  10.133   0.252  10.373  0.2075 -0.4674  0.5179
  492MOL0     C67776  10.031   0.250  10.283 -0.2997 -0.0581  0.3620
  492MOL0     C67777   9.920   0.262  10.357  0.3802  0.2566  0.8226
  492MOL0     C67778   9.786   0.281  10.304 -0.3786  0.3088 -0.1316
  492MOL0     C67779   9.726   0.156  10.254  0.6017 -0.3881  0.4633
  492MOL0     C67780   9.710   0.044  10.355  0.6326 -0.3909  0.1759
  492MOL0     C67781   9.603  -0.046  10.300  0.3219  0.8140  0.1707
  492MOL0     O67782   9.631  -0.091  10.163  0.0879 -0.4165 -0.5892
  492MOL0     C67783   9.538  -0.163  10.092  0.3291 -0.0222 -0.0776
  492MOL0     C67784   9.420  -0.215  10.157 -1.2273 -0.2790 -0.4771
  492MOL0     C67785   9.316  -0.285  10.097 -0.3263  0.1633  0.4104
  492MOL0     C67786   9.195  -0.341  10.170 -0.2515  0.0249  0.8715
  492MOL0     C67787   9.327  -0.296   9.957  0.9960  0.7146  0.5367
  492MOL0     C67788   9.219  -0.366   9.866 -0.7087  0.0861 -0.6343
  492MOL0     O67789   9.200  -0.498   9.903 -0.1663  0.8528 -0.6279
  492MOL0     C67790   9.103  -0.573   9.850  0.3823 -0.3539 -0.4515
  492MOL0     C67791   8.965  -0.555   9.884  0.1866  0.2878  0.6183
  492MOL0     C67792   8.870  -0.652   9.835 -0.1101 -0.6387  0.3681
  492MOL0     C67793   8.901  -0.764   9.750  0.3289  0.1489 -1.4860
  492MOL0     O67794   8.815  -0.848   9.691 -0.8658  0.2132  0.8348
  492MOL0     C67795   8.690  -0.855   9.743  0.5096 -0.0568 -0.1413
  492MOL0     C67796   8.623  -0.977   9.690 -0.5722 -0.2675  1.2537
  492MOL0     C67797   8.679  -1.106   9.764  0.6711  0.2441  0.3547
  492MOL0     C67798   8.607  -1.233   9.735 -0.7318 -0.0143  1.0375
  492MOL0     C67799   8.600  -1.315   9.870  0.3110 -1.0716  0.5384
  492MOL0     C67800   8.502  -1.437   9.854 -0.0918 -1.1505  1.4307
  492MOL0     C67801   8.499  -1.525   9.977 -0.0006 -0.0479 -0.0643
  492MOL0     C67802   8.391  -1.637   9.982 -0.0972  0.1911  0.6151
  492MOL0    Cl67803   8.458  -1.766   9.881 -0.4348 -0.4631 -0.3490
  492MOL0     C67804   9.037  -0.772   9.717 -0.4228  0.5038 -0.9475
  492MOL0     C67805   9.132  -0.686   9.771  0.3338 -0.7164 -0.0314
  492MOL0     O67806   9.164  -0.298   9.780  0.0871 -0.6993  0.1511
  492MOL0     C67807   9.444  -0.254   9.888 -0.1658 -0.2514  0.2265
  492MOL0     C67808   9.550  -0.191   9.960 -0.0050  0.1445  0.2802
  492MOL0     N67809   9.951   0.261  10.494 -0.1332 -0.8635  0.1541
  492MOL0     N67810  10.080   0.260  10.505 -0.1090  0.5156  0.5589
  492MOL0     C67811   9.964   0.865  10.619  0.4864  0.2339 -0.3610
  492MOL0     C67812   9.830   0.855  10.668 -0.2385  0.5123  0.4843
  492MOL0     C67813   9.442   0.907  10.879  0.9371 -0.7807 -0.7004
  492MOL0     C67814   9.451   0.873  11.025  0.2694  0.5661  0.8960
  492MOL0     C67815   9.339   0.863  11.103 -0.0372  0.9913 -0.7355
  492MOL0     C67816   9.212   0.879  11.039  0.4285  0.1953  0.2216
  492MOL0     O67817   9.095   0.886  11.112  0.1755  0.7924  0.3201
  492MOL0     C67818   9.089   0.948  11.237  0.1706 -0.4433  0.5229
  492MOL0     C67819   8.971   0.879  11.321 -0.4299  0.2075 -0.5390
  492MOL0     C67820   8.837   0.896  11.245  0.5970  0.8145 -0.0392
  492MOL0     C67821   8.722   0.831  11.318 -0.5371  0.0118  0.7238
  492MOL0     C67822   8.598   0.890  11.266 -0.1674 -0.0480  0.0765
  492MOL0     C67823   8.501   0.916  11.196  0.4300 -0.2440 -0.1909
  492MOL0     C67824   9.200   0.889  10.904  0.4303  0.8813 -0.2474
  492MOL0     C67825   9.311   0.895  10.821  0.1970  0.0363  0.5251
  492MOL0     C67826   9.291   0.892  10.668 -0.6445 -1.0504  0.7906
  492MOL0     H67827   9.878   1.020  10.964  1.1999 -1.5194  0.3304
  492MOL0     H67828  10.106   1.040  10.873  0.0475 -1.0713  1.6657
  492MOL0     H67829  10.248   0.792  10.763 -0.3364 -0.7851 -2.3506
  492MOL0     H67830  10.326   0.965  10.790 -0.7963  0.3224 -0.2025
  492MOL0     H67831  10.462   0.927  10.585 -1.3888  1.5604  0.8802
  492MOL0     H67832  10.487   0.795  10.703  0.4362  1.9182  0.0212
  492MOL0     H67833  10.307   0.658  10.597  0.4794 -1.6031 -2.1512
  492MOL0     H67834  10.294   0.778  10.470 -2.5630 -0.4395  1.4129
  492MOL0     H67835  10.510   0.700  10.381 -0.3681 -2.0961 -0.7465
  492MOL0     H67836  10.577   0.656  10.535  0.9019  2.1249 -0.3288
  492MOL0     H67837  10.415   0.447  10.523 -3.9276  1.3225 -0.2452
  492MOL0     H67838  10.532   0.453  10.392 -0.7422 -1.7060  0.6724
  492MOL0     H67839  10.232   0.505  10.393 -0.5865 -0.1513 -1.8345
  492MOL0     H67840  10.330   0.579  10.273 -0.5361  2.5041  4.3522
  492MOL0     H67841  10.424   0.342  10.217  0.0603 -0.1091 -0.5397
  492MOL0     H67842  10.261   0.400  10.176  1.7336  0.2628 -1.5981
  492MOL0     H67843  10.274   0.154  10.280  1.6811 -0.9739  1.6662
  492MOL0     H67844  10.342   0.245  10.426  0.2968 -0.9371  1.1873
  492MOL0     H67845  10.058   0.252  10.178  0.8740  0.0492  0.6437
  492MOL0     H67846   9.800   0.342  10.214 -1.2056  0.1824 -0.3510
  492MOL0     H67847   9.710   0.323  10.371 -0.9235 -4.6048  2.7940
  492MOL0     H67848   9.630   0.191  10.214  2.0428  0.2839 -2.6719
  492MOL0     H67849   9.794   0.122  10.175 -0.3608  0.4185 -0.7465
  492MOL0     H67850   9.802  -0.012  10.374  2.2080  2.3557  1.1555
  492MOL0     H67851   9.689   0.083  10.454  0.0381  3.6998 -1.3753
  492MOL0     H67852   9.594  -0.135  10.364  0.6987  0.0594 -0.7955
  492MOL0     H67853   9.509   0.009  10.299 -1.1637 -1.5937  0.0239
  492MOL0     H67854   9.421  -0.196  10.264  3.1956 -0.8093 -0.2671
  492MOL0     H67855   9.175  -0.267  10.249  1.2531  0.3872  0.9604
  492MOL0     H67856   9.217  -0.437  10.216  0.0157 -0.3585 -0.0385
  492MOL0     H67857   9.103  -0.342  10.112 -0.3351  1.3965  0.9356
  492MOL0     H67858   8.938  -0.468   9.943  1.8447  1.4050 -0.1946
  492MOL0     H67859   8.766  -0.625   9.852  0.2005 -0.1542  1.5974
  492MOL0     H67860   8.681  -0.847   9.852  0.4012  0.8170 -0.2048
  492MOL0     H67861   8.629  -0.772   9.706  0.3942 -0.4605 -0.8821
  492MOL0     H67862   8.516  -0.961   9.704 -0.6608  1.1891 -0.7890
  492MOL0     H67863   8.636  -0.987   9.582  2.5895 -0.9677  1.5804
  492MOL0     H67864   8.673  -1.081   9.870 -0.0346  1.4402  0.0435
  492MOL0     H67865   8.788  -1.117   9.754  0.8907  3.1212 -1.4822
  492MOL0     H67866   8.656  -1.273   9.646 -2.8561  0.6645 -0.5078
  492MOL0     H67867   8.504  -1.210   9.707 -0.3509  2.3100  1.3482
  492MOL0     H67868   8.698  -1.353   9.900  0.7753 -2.7992 -2.6774
  492MOL0     H67869   8.554  -1.247   9.942 -1.1224 -1.5749  0.1399
  492MOL0     H67870   8.537  -1.498   9.771 -1.3418 -0.2727  0.2184
  492MOL0     H67871   8.411  -1.384   9.826  0.2380 -1.5231 -0.4643
  492MOL0     H67872   8.472  -1.459  10.060  0.7022 -0.8852  0.8518
  492MOL0     H67873   8.595  -1.570  10.004  0.0793  0.4197  0.4408
  492MOL0     H67874   8.294  -1.610   9.938  0.6734 -2.1941 -2.9126
  492MOL0     H67875   8.395  -1.690  10.078  1.5271 -0.8698 -0.0069
  492MOL0     H67876   9.081  -0.842   9.646  1.7573  0.8056  0.0040
  492MOL0     H67877   9.234  -0.701   9.739 -0.2004  1.8477 -3.5206
  492MOL0     H67878   9.442  -0.259   9.780  1.1891  1.9991  0.0228
  492MOL0     H67879   9.641  -0.160   9.909  2.1129 -2.2309  2.3182
  492MOL0     H67880   9.982   0.823  10.521  1.4898 -2.5178  0.9160
  492MOL0     H67881   9.749   0.808  10.614  0.6356 -0.7199  0.2100
  492MOL0     H67882   9.549   0.851  11.066 -0.7490  0.3976  3.4000
  492MOL0     H67883   9.341   0.835  11.208 -0.0667  1.9644 -0.4640
  492MOL0     H67884   9.182   0.941  11.294  0.0613  2.9604  1.3522
  492MOL0     H67885   9.078   1.056  11.230 -3.4496 -0.7158 -0.2467
  492MOL0     H67886   8.958   0.930  11.417 -0.8445 -0.8092 -0.0385
  492MOL0     H67887   8.981   0.772  11.343  1.0716  0.2937 -0.6978
  492MOL0     H67888   8.817   1.003  11.253 -2.0465  0.3328  0.5207
  492MOL0     H67889   8.843   0.867  11.140  0.5749 -2.6953  0.8083
  492MOL0     H67890   8.744   0.829  11.425  0.8961 -0.5804  0.4437
  492MOL0     H67891   8.722   0.725  11.288 -0.2094  0.2801 -0.2632
  492MOL0     H67892   8.415   0.957  11.147 -0.3410 -1.9706 -0.3581
  492MOL0     H67893   9.100   0.895  10.862  1.1587  2.8129 -1.8224
  492MOL0     H67894   9.257   0.987  10.626  1.2562 -1.5181 -2.1185
  492MOL0     H67895   9.381   0.854  10.618  0.5177  1.4893  0.7872
  492MOL0     H67896   9.214   0.818  10.644  0.3499 -2.1307  0.8382
  493MOL0     O67897   7.596   7.145   2.335  0.0480  0.4263 -0.3796
  493MOL0     C67898   7.573   7.152   2.215 -0.5578  0.7500 -0.2174
  493MOL0     O67899   7.647   7.224   2.128 -0.6151 -0.4398  0.3719
  493MOL0     C67900   7.752   7.295   2.172 -0.9243 -0.5345  1.2297
  493MOL0     C67901   7.880   7.255   2.138  0.1257 -0.8953 -0.1689
  493MOL0     C67902   7.991   7.336   2.169 -0.2643 -0.2815  0.0459
  493MOL0     C67903   7.988   7.454   2.243  0.2637 -0.0810  0.0771
  493MOL0     O67904   8.099   7.526   2.290  0.0532 -0.0771 -0.0907
  493MOL0     C67905   8.215   7.450   2.319 -0.4597 -1.1389 -1.0355
  493MOL0     C67906   8.282   7.528   2.430  0.6669 -0.9585  0.2482
  493MOL0     C67907   8.434   7.509   2.435  0.3566 -0.1435 -0.8158
  493MOL0     C67908   8.516   7.616   2.513 -0.1877  0.5009 -0.3323
  493MOL0     C67909   8.665   7.594   2.498 -0.7138  0.3710 -0.0162
  493MOL0     C67910   8.756   7.690   2.564  0.5524  0.5126 -0.3699
  493MOL0     C67911   8.905   7.657   2.541  0.8590  0.1441 -0.1087
  493MOL0     C67912   8.995   7.722   2.650 -0.9311 -0.2958 -0.8261
  493MOL0     N67913   8.993   7.657   2.787  0.0691 -0.8596  1.1707
  493MOL0     C67914   9.045   7.531   2.808 -0.1297 -0.0830  0.2098
  493MOL0     C67915   9.042   7.512   2.939  0.7751 -0.0706  0.2393
  493MOL0     C67916   9.080   7.382   3.011  0.1681 -0.2098 -0.0579
  493MOL0     C67917   9.229   7.373   3.027  0.4132  0.5443 -0.1287
  493MOL0     C67918   9.285   7.232   3.027  0.6521  0.2996 -0.4499
  493MOL0     C67919   9.426   7.247   3.085 -0.4034  0.2442  0.2353
  493MOL0     O67920   9.505   7.351   3.022 -0.5444 -0.7772  0.2765
  493MOL0     C67921   9.630   7.369   3.052 -0.7177  1.5945  0.3434
  493MOL0     C67922   9.701   7.302   3.146 -0.6138  0.4433  0.2293
  493MOL0     C67923   9.840   7.329   3.166  0.0300  0.0824  0.9489
  493MOL0     C67924   9.898   7.247   3.286  0.9003  0.1160  1.3529
  493MOL0     C67925   9.913   7.409   3.079 -0.2264 -0.1231  0.3926
  493MOL0     C67926  10.057   7.436   3.083 -0.1616 -1.0850 -0.0317
  493MOL0     O67927  10.103   7.501   2.976  0.3342 -0.5487  0.0090
  493MOL0     C67928  10.229   7.493   2.932 -0.2559 -0.4959  0.2331
  493MOL0     C67929  10.305   7.378   2.954  0.5364  0.0809 -0.7323
  493MOL0     C67930  10.441   7.368   2.900  0.4222  0.4923  0.2119
  493MOL0     C67931  10.491   7.473   2.818  1.6708  0.4729 -0.3993
  493MOL0     O67932  10.616   7.473   2.760  0.1442 -0.9714 -0.6729
  493MOL0     C67933  10.700   7.353   2.781 -0.3696 -0.5011 -0.6958
  493MOL0     C67934  10.827   7.373   2.700 -0.2637 -1.0904 -0.4261
  493MOL0     C67935  10.939   7.427   2.789 -0.3216 -0.0102  0.3565
  493MOL0     C67936  11.062   7.485   2.705 -0.0282  0.4231  0.3517
  493MOL0     C67937  11.161   7.384   2.647  0.2704 -0.1158  0.0966
  493MOL0     C67938  11.270   7.461   2.574 -0.0983 -0.6960 -0.7880
  493MOL0     C67939  11.372   7.361   2.517  0.1361  0.9110 -0.1660
  493MOL0     C67940  11.481   7.425   2.423  0.3330 -0.6077  0.5457
  493MOL0    Cl67941  11.408   7.486   2.268 -0.0449  0.2364 -0.1029
  493MOL0     C67942  10.408   7.590   2.803 -0.3676 -0.0799  0.0190
  493MOL0     C67943  10.280   7.598   2.853 -0.0055  0.3113  0.5706
  493MOL0     O67944  10.123   7.403   3.179 -0.0845  0.9130  0.0856
  493MOL0     C67945   9.843   7.466   2.974  0.8082 -0.0157  0.2418
  493MOL0     C67946   9.702   7.457   2.970 -0.9673  0.5768 -0.5880
  493MOL0     N67947   8.999   7.631   2.996  0.7109 -0.3486 -0.0741
  493MOL0     N67948   8.957   7.714   2.899  0.1706  0.3728 -0.0463
  493MOL0     C67949   7.858   7.496   2.271 -0.5530 -0.0240  0.4968
  493MOL0     C67950   7.748   7.420   2.230 -0.0500 -0.4679  0.2153
  493MOL0     C67951   7.451   7.071   2.164  0.3580  1.2356  0.5032
  493MOL0     C67952   7.355   7.027   2.255 -0.4602  1.4886  0.2865
  493MOL0     C67953   7.235   6.971   2.216 -0.5326 -0.2998 -0.1390
  493MOL0     C67954   7.202   6.969   2.081  0.4689  0.2739  0.0433
  493MOL0     O67955   7.078   6.914   2.048 -0.3382  0.8560  0.3792
  493MOL0     C67956   6.987   7.009   1.989  0.1771 -0.1530 -0.5579
  493MOL0     C67957   6.949   7.124   2.076 -0.0887  0.1229 -0.8266
  493MOL0     C67958   6.833   7.208   2.021  0.5573  0.6828  0.2079
  493MOL0     C67959   6.817   7.347   2.082  0.0548 -0.1249 -0.8741
  493MOL0     C67960   6.685   7.395   2.044  0.4649 -0.3762  0.3460
  493MOL0     C67961   6.575   7.449   2.041  0.3818 -1.1109  0.8044
  493MOL0     C67962   7.296   7.003   1.991 -0.2811  0.6004 -0.8336
  493MOL0     C67963   7.423   7.049   2.027  0.9012 -0.2498  0.5983
  493MOL0     C67964   7.516   7.083   1.915  1.0444  0.7543  0.1010
  493MOL0     H67965   7.908   7.160   2.094  3.3136 -0.5405  0.8190
  493MOL0     H67966   8.088   7.297   2.140 -0.3938 -1.2559  0.8835
  493MOL0     H67967   8.279   7.444   2.231 -0.1292  2.2675 -1.1420
  493MOL0     H67968   8.189   7.349   2.353 -0.2888 -0.9569 -0.3393
  493MOL0     H67969   8.257   7.634   2.417 -2.8033 -1.8109 -1.2031
  493MOL0     H67970   8.246   7.494   2.527  2.9388 -1.1395  1.0958
  493MOL0     H67971   8.467   7.415   2.481  0.0992  0.0315 -0.2722
  493MOL0     H67972   8.471   7.500   2.333 -0.0193 -1.4032 -0.8519
  493MOL0     H67973   8.488   7.715   2.476 -0.5646  0.7991  0.6873
  493MOL0     H67974   8.494   7.605   2.620 -1.5325 -1.6227 -0.7718
  493MOL0     H67975   8.690   7.597   2.392  0.0073  1.1425  0.1691
  493MOL0     H67976   8.691   7.500   2.547  1.4039  1.3785  0.8814
  493MOL0     H67977   8.718   7.785   2.527  1.1586  0.4319 -1.2281
  493MOL0     H67978   8.751   7.689   2.674 -0.3338  0.3068 -0.4075
  493MOL0     H67979   8.933   7.693   2.442 -1.2231  0.1930 -0.7291
  493MOL0     H67980   8.928   7.550   2.551  1.3231  0.1457 -1.1001
  493MOL0     H67981   9.102   7.721   2.626 -0.7845 -0.6988 -0.1867
  493MOL0     H67982   8.967   7.822   2.682  2.7467  0.4891  0.4259
  493MOL0     H67983   9.063   7.458   2.730  0.3327  0.9795 -0.7063
  493MOL0     H67984   9.033   7.295   2.965 -2.0193 -0.3165  2.1608
  493MOL0     H67985   9.041   7.388   3.113  0.7482  4.0558  0.0872
  493MOL0     H67986   9.277   7.434   2.950  1.6124  1.0652  0.9996
  493MOL0     H67987   9.252   7.424   3.121 -0.0489 -0.9390  0.8230
  493MOL0     H67988   9.221   7.169   3.089 -1.7097  2.3181 -0.7024
  493MOL0     H67989   9.283   7.201   2.923 -1.9167 -3.6486  0.5668
  493MOL0     H67990   9.420   7.273   3.191  1.3787  0.8258  0.2301
  493MOL0     H67991   9.484   7.154   3.082 -0.4988  0.1804  0.4008
  493MOL0     H67992   9.653   7.248   3.227  0.5164  0.8746  1.2227
  493MOL0     H67993   9.991   7.201   3.252  1.1464 -1.0262  3.4118
  493MOL0     H67994   9.834   7.160   3.305  0.2925  0.6089  1.6280
  493MOL0     H67995   9.906   7.308   3.377 -0.0562  0.1858  1.4033
  493MOL0     H67996  10.261   7.297   3.012  2.5304  0.1157  0.9956
  493MOL0     H67997  10.491   7.274   2.921  0.3046  0.3322 -0.2276
  493MOL0     H67998  10.717   7.336   2.888 -1.8661  0.2492 -0.3008
  493MOL0     H67999  10.649   7.264   2.744  0.0226 -1.5233  1.1095
  493MOL0     H68000  10.854   7.278   2.653  0.0648 -0.7428 -0.9449
  493MOL0     H68001  10.814   7.443   2.617  0.1732  0.5811  0.8636
  493MOL0     H68002  10.984   7.349   2.851  3.3287 -0.5525 -2.5961
  493MOL0     H68003  10.894   7.503   2.852 -1.1907 -0.8071  0.7271
  493MOL0     H68004  11.112   7.552   2.775 -0.0133  0.2028  0.5491
  493MOL0     H68005  11.029   7.539   2.615  0.6220  1.1859  0.5589
  493MOL0     H68006  11.195   7.333   2.738 -0.4366  0.9111  0.9689
  493MOL0     H68007  11.105   7.316   2.583 -0.4877 -0.1929  0.8260
  493MOL0     H68008  11.323   7.525   2.646  0.3570 -2.2525  0.3220
  493MOL0     H68009  11.232   7.526   2.495 -1.6299  2.0212  1.9694
  493MOL0     H68010  11.325   7.289   2.450 -0.5755  0.1411  1.1250
  493MOL0     H68011  11.415   7.296   2.594  2.3971  1.1365 -1.1464
  493MOL0     H68012  11.568   7.360   2.411  0.9942  0.5910 -1.8094
  493MOL0     H68013  11.528   7.513   2.469  6.3917 -1.8011 -2.2954
  493MOL0     H68014  10.446   7.670   2.741  0.5353 -1.1379 -0.8545
  493MOL0     H68015  10.224   7.690   2.840 -1.1436 -0.3454  0.7244
  493MOL0     H68016   9.895   7.520   2.896  0.3609 -0.4299 -0.3506
  493MOL0     H68017   9.661   7.516   2.888  3.0030  0.5679 -2.8032
  493MOL0     H68018   7.857   7.598   2.309 -1.8282  0.0935  0.2161
  493MOL0     H68019   7.651   7.468   2.241  2.2306  5.4269 -1.5021
  493MOL0     H68020   7.371   7.030   2.362 -1.1890  0.1771  0.4587
  493MOL0     H68021   7.156   6.949   2.288 -1.4957  0.6110 -0.8750
  493MOL0     H68022   7.023   7.049   1.894 -0.6533 -2.3988 -1.8829
  493MOL0     H68023   6.896   6.953   1.969 -0.1919  0.1092  0.3377
  493MOL0     H68024   7.036   7.181   2.111 -0.0727 -1.5827  2.2914
  493MOL0     H68025   6.916   7.087   2.174  1.3569  1.6331  0.2964
  493MOL0     H68026   6.843   7.221   1.913 -0.2419  3.3893  0.3651
  493MOL0     H68027   6.745   7.146   2.040  0.3667 -0.2685 -3.0676
  493MOL0     H68028   6.886   7.425   2.049 -1.1584  2.8255  2.7432
  493MOL0     H68029   6.824   7.335   2.191 -0.4377  1.3216 -0.6488
  493MOL0     H68030   6.488   7.506   2.017  2.0500 -0.0384 -3.7218
  493MOL0     H68031   7.271   6.977   1.889 -1.9242 -4.3291  0.5229
  493MOL0     H68032   7.489   7.015   1.834 -0.4305  2.1046 -0.5929
  493MOL0     H68033   7.504   7.181   1.867  2.3534  0.2787 -1.2669
  493MOL0     H68034   7.622   7.074   1.942  0.6279  1.8209  2.3701
  494MOL0     O68035   6.040   2.867   3.730 -0.2830  0.7291 -0.0601
  494MOL0     C68036   6.023   2.863   3.856 -0.0201  0.5124 -0.4296
  494MOL0     O68037   6.099   2.926   3.950 -0.4476  0.1143  0.1587
  494MOL0     C68038   6.199   3.010   3.916  0.6551  0.3663 -0.0866
  494MOL0     C68039   6.308   3.023   4.003 -0.2140  0.0651 -0.6101
  494MOL0     C68040   6.414   3.105   3.975 -0.7434 -0.0804 -0.4983
  494MOL0     C68041   6.414   3.195   3.869 -0.1980  0.3211  0.1755
  494MOL0     O68042   6.517   3.285   3.850 -0.0057 -0.0841  0.7109
  494MOL0     C68043   6.551   3.338   3.715 -0.2065 -0.6664 -0.2916
  494MOL0     C68044   6.695   3.388   3.731  0.1564  0.3578  0.8385
  494MOL0     C68045   6.752   3.460   3.613 -0.2132  0.6515 -0.0938
  494MOL0     C68046   6.875   3.546   3.654  0.7760 -0.3812  0.2681
  494MOL0     C68047   6.996   3.454   3.708  0.0738  0.0363 -1.0142
  494MOL0     C68048   7.079   3.416   3.592 -0.5876  0.0670 -0.0388
  494MOL0     C68049   7.220   3.364   3.627  0.3930  0.5953  0.2714
  494MOL0     C68050   7.215   3.232   3.712  0.8172 -0.3390  0.1713
  494MOL0     N68051   7.348   3.173   3.739  0.6656  0.5706 -0.5503
  494MOL0     C68052   7.413   3.074   3.676  0.0065  0.2532  0.6129
  494MOL0     C68053   7.537   3.070   3.721  0.8925 -1.0502  0.0417
  494MOL0     C68054   7.642   2.989   3.668  1.5132  0.2744 -0.2832
  494MOL0     C68055   7.743   2.944   3.777  0.9763  0.1834 -0.2023
  494MOL0     C68056   7.669   2.890   3.912 -0.9069 -0.1003 -0.1726
  494MOL0     C68057   7.757   2.808   4.003  0.0219  0.4580 -0.3857
  494MOL0     O68058   7.888   2.857   3.997 -0.4924  0.5683  0.5376
  494MOL0     C68059   7.983   2.772   4.056  0.3876  0.5433 -0.3467
  494MOL0     C68060   7.953   2.666   4.140 -0.1815  0.8364  0.8428
  494MOL0     C68061   8.050   2.573   4.194 -0.3734 -0.6905  0.0662
  494MOL0     C68062   7.998   2.457   4.270 -0.3947  0.0061 -0.4098
  494MOL0     C68063   8.191   2.619   4.174 -0.8382  0.0006 -0.7110
  494MOL0     C68064   8.309   2.572   4.256 -0.5500  0.5190  0.2442
  494MOL0     O68065   8.442   2.605   4.217  0.2306  0.6829  0.7400
  494MOL0     C68066   8.520   2.632   4.325 -0.1946  0.3398  1.2060
  494MOL0     C68067   8.575   2.756   4.332 -0.1762 -0.8394  0.1770
  494MOL0     C68068   8.675   2.789   4.424  0.9820 -0.0065 -0.2826
  494MOL0     C68069   8.712   2.698   4.518 -0.0647 -0.0657 -0.3066
  494MOL0     O68070   8.790   2.748   4.616 -0.4848 -0.3895 -0.4269
  494MOL0     C68071   8.828   2.660   4.723  0.2519 -0.5449  0.3310
  494MOL0     C68072   8.907   2.747   4.822 -0.2506  0.5711 -0.5215
  494MOL0     C68073   8.954   2.664   4.945 -0.0265 -0.3141  0.4474
  494MOL0     C68074   9.023   2.756   5.044 -0.2754  0.1350 -0.3548
  494MOL0     C68075   9.072   2.692   5.169 -0.0252  0.6935 -0.1385
  494MOL0     C68076   9.188   2.772   5.222 -0.3763 -0.3527  0.5535
  494MOL0     C68077   9.154   2.904   5.297 -0.2278 -0.3846 -0.3141
  494MOL0     C68078   9.291   2.982   5.298  0.0446  0.3319 -0.8479
  494MOL0    Cl68079   9.300   3.075   5.143 -0.3417 -0.3357  0.0827
  494MOL0     C68080   8.659   2.571   4.511  0.0286  1.0077 -0.0018
  494MOL0     C68081   8.561   2.539   4.418 -0.0751  0.1837 -0.0813
  494MOL0     O68082   8.272   2.514   4.357 -0.1360  0.1965  0.2011
  494MOL0     C68083   8.224   2.723   4.078 -0.6748  0.1260  0.4762
  494MOL0     C68084   8.120   2.802   4.025 -0.2370 -0.6500 -0.5088
  494MOL0     N68085   7.541   3.163   3.815  0.1355  0.5021 -0.6126
  494MOL0     N68086   7.430   3.225   3.840  0.1165 -0.0308 -0.4194
  494MOL0     C68087   6.302   3.189   3.780 -0.9715 -0.2715 -0.7832
  494MOL0     C68088   6.198   3.094   3.806 -0.5233 -1.0443 -0.2575
  494MOL0     C68089   5.907   2.784   3.912  0.2165  0.4959 -0.3729
  494MOL0     C68090   5.845   2.700   3.828 -0.5649  0.5912 -0.1565
  494MOL0     C68091   5.740   2.614   3.869 -0.2466 -0.1593  1.1128
  494MOL0     C68092   5.670   2.636   3.985  0.4500  0.6423 -0.0124
  494MOL0     O68093   5.547   2.569   4.012 -0.1851  0.2406  0.5971
  494MOL0     C68094   5.480   2.480   3.915 -1.0363  0.7265 -1.0211
  494MOL0     C68095   5.549   2.344   3.923 -0.3238 -0.6707 -0.1972
  494MOL0     C68096   5.434   2.244   3.888  0.2377  0.2738 -0.5861
  494MOL0     C68097   5.491   2.112   3.838  0.7816 -0.2566  0.6451
  494MOL0     C68098   5.390   2.020   3.790  0.6549 -0.0589 -0.0094
  494MOL0     C68099   5.296   1.951   3.738 -0.2615  0.3355 -0.0912
  494MOL0     C68100   5.725   2.727   4.072 -0.0659  0.5844 -0.5367
  494MOL0     C68101   5.845   2.798   4.042  0.9786  0.0497  0.5263
  494MOL0     C68102   5.902   2.876   4.153 -0.1557  0.0091 -0.5480
  494MOL0     H68103   6.310   2.964   4.094  0.7945 -0.3668 -0.8976
  494MOL0     H68104   6.501   3.105   4.039 -0.2544 -0.4202 -1.1528
  494MOL0     H68105   6.482   3.420   3.695  0.7106 -0.1650 -1.5588
  494MOL0     H68106   6.553   3.266   3.632  3.6865 -0.6703 -0.4235
  494MOL0     H68107   6.698   3.447   3.823 -1.3741  2.6224 -0.4752
  494MOL0     H68108   6.763   3.303   3.744  0.0790  0.2345  0.4377
  494MOL0     H68109   6.784   3.381   3.544 -2.4382 -1.1567  0.8211
  494MOL0     H68110   6.680   3.524   3.562 -0.2930  0.7286  0.1143
  494MOL0     H68111   6.899   3.612   3.570 -0.9405  2.7438  2.0459
  494MOL0     H68112   6.841   3.610   3.736  0.9462  0.5798 -0.3838
  494MOL0     H68113   6.968   3.364   3.763  0.6469 -0.1624 -1.0434
  494MOL0     H68114   7.058   3.524   3.766 -1.0748  1.7131 -1.7448
  494MOL0     H68115   7.031   3.334   3.538  1.5063 -0.9092 -0.5306
  494MOL0     H68116   7.102   3.497   3.522  3.5808 -0.8546 -0.0063
  494MOL0     H68117   7.268   3.445   3.682 -0.2114  0.6367  0.7598
  494MOL0     H68118   7.268   3.347   3.531 -1.1470 -2.3835 -0.1187
  494MOL0     H68119   7.167   3.241   3.810 -0.1873 -1.1873 -0.2196
  494MOL0     H68120   7.155   3.152   3.668  0.6386  0.2707 -0.7092
  494MOL0     H68121   7.377   3.019   3.590 -0.6663  2.7752 -0.8043
  494MOL0     H68122   7.701   3.049   3.598  0.6899 -1.1558 -2.2996
  494MOL0     H68123   7.610   2.901   3.612  1.7736  0.6491 -1.0338
  494MOL0     H68124   7.805   2.865   3.734 -3.2161 -1.7721 -3.5132
  494MOL0     H68125   7.806   3.030   3.802 -0.5856  0.7360  2.2253
  494MOL0     H68126   7.641   2.985   3.958  0.3156 -0.2180  0.8619
  494MOL0     H68127   7.578   2.839   3.880 -1.6389  1.4532 -0.6235
  494MOL0     H68128   7.714   2.804   4.103 -0.3421  3.7193 -0.3207
  494MOL0     H68129   7.765   2.704   3.968  1.2151  0.0543  1.0082
  494MOL0     H68130   7.854   2.640   4.177 -0.2972  1.9428  1.3375
  494MOL0     H68131   8.076   2.387   4.301  2.1196  1.8012 -2.2783
  494MOL0     H68132   7.919   2.406   4.216 -1.3439 -0.9153  1.7139
  494MOL0     H68133   7.951   2.493   4.362  0.9609 -1.2856  0.8459
  494MOL0     H68134   8.555   2.823   4.249  1.2507  2.7971  2.5397
  494MOL0     H68135   8.708   2.892   4.427  1.1308 -0.0750  2.0037
  494MOL0     H68136   8.738   2.622   4.771  0.0658  0.8965  1.1845
  494MOL0     H68137   8.889   2.577   4.687  1.3417  0.5993 -0.5792
  494MOL0     H68138   8.994   2.782   4.767  0.3617 -1.7572 -1.1473
  494MOL0     H68139   8.835   2.828   4.842 -1.1610 -0.6456  1.4259
  494MOL0     H68140   9.026   2.590   4.910 -0.4115 -0.9975  1.0921
  494MOL0     H68141   8.867   2.629   5.001 -1.6067  1.9553 -0.4086
  494MOL0     H68142   8.951   2.834   5.069  0.2497 -0.0023  1.7853
  494MOL0     H68143   9.108   2.807   4.999  0.2459  1.8299  2.3079
  494MOL0     H68144   8.993   2.669   5.241 -0.5292  3.2733  0.2256
  494MOL0     H68145   9.123   2.601   5.138 -1.5992 -0.1938 -0.2526
  494MOL0     H68146   9.252   2.790   5.135 -2.4175 -2.4972 -1.5618
  494MOL0     H68147   9.250   2.710   5.288 -1.8133 -2.8085 -0.2798
  494MOL0     H68148   9.118   2.883   5.398 -2.1713  0.3004 -0.8243
  494MOL0     H68149   9.069   2.957   5.252 -0.2481  0.6518  0.9076
  494MOL0     H68150   9.380   2.918   5.310  0.2375  0.9288  1.3023
  494MOL0     H68151   9.289   3.045   5.387  1.2229 -2.8044  1.6138
  494MOL0     H68152   8.688   2.491   4.579 -3.1019  1.2259  1.8145
  494MOL0     H68153   8.501   2.449   4.413 -2.3004  1.5388  0.7127
  494MOL0     H68154   8.327   2.738   4.047 -0.2534 -1.2597  1.1232
  494MOL0     H68155   8.143   2.886   3.959  1.3376 -0.7778 -0.1443
  494MOL0     H68156   6.290   3.257   3.697 -1.3779  2.4745  1.3756
  494MOL0     H68157   6.120   3.109   3.732  1.0816  1.1509 -1.6548
  494MOL0     H68158   5.879   2.676   3.728 -2.2345 -0.0330 -0.6097
  494MOL0     H68159   5.698   2.535   3.807 -1.6269  0.7803  0.8124
  494MOL0     H68160   5.372   2.476   3.930 -0.7963  0.2056  0.8533
  494MOL0     H68161   5.491   2.523   3.815 -0.9582  0.5031 -1.1084
  494MOL0     H68162   5.594   2.323   4.020  1.9345 -2.5690 -1.5386
  494MOL0     H68163   5.625   2.348   3.844 -0.1672 -1.4986 -0.1014
  494MOL0     H68164   5.383   2.228   3.983  1.1989  0.9796  0.0757
  494MOL0     H68165   5.365   2.282   3.813 -0.5676  0.1921  0.0987
  494MOL0     H68166   5.545   2.056   3.915  1.4743 -1.2947 -0.5600
  494MOL0     H68167   5.557   2.134   3.754  1.4139  2.3847  1.7222
  494MOL0     H68168   5.238   1.877   3.687 -1.8514  0.5297  1.3593
  494MOL0     H68169   5.678   2.739   4.169  0.3341 -0.2379 -0.2286
  494MOL0     H68170   5.837   2.865   4.240  0.3257  0.1950 -0.1610
  494MOL0     H68171   6.000   2.830   4.166 -0.2905 -0.3046 -0.6390
  494MOL0     H68172   5.920   2.982   4.132  0.1654 -0.1378 -1.0422
  495MOL0     O68173   5.973   0.802   5.691  0.4206 -0.0834 -0.1235
  495MOL0     C68174   5.959   0.900   5.619  0.8389 -0.3589 -0.0465
  495MOL0     O68175   6.057   1.000   5.592 -0.4472  0.0104 -0.3583
  495MOL0     C68176   6.189   0.974   5.619 -0.3203 -0.2163 -0.3643
  495MOL0     C68177   6.283   1.028   5.525 -0.6037  0.3652 -0.6360
  495MOL0     C68178   6.426   1.009   5.539  0.6984 -1.1159  1.1105
  495MOL0     C68179   6.473   0.946   5.654  1.1770  0.3247  0.6518
  495MOL0     O68180   6.615   0.945   5.660  0.0350 -0.1460  0.2817
  495MOL0     C68181   6.669   0.994   5.788  0.4444  0.0324  0.0230
  495MOL0     C68182   6.820   0.985   5.773  1.4645  0.0371 -0.3415
  495MOL0     C68183   6.854   1.078   5.659 -0.0477 -0.3682 -0.9256
  495MOL0     C68184   7.002   1.065   5.629  0.0465 -0.3231  0.1403
  495MOL0     C68185   7.042   1.129   5.485  0.4527 -0.3423 -0.7307
  495MOL0     C68186   7.007   1.283   5.481  0.0779 -0.2096 -0.0794
  495MOL0     C68187   7.049   1.347   5.346  1.6180 -0.0478 -0.3480
  495MOL0     C68188   6.968   1.472   5.317 -0.1373  0.0018  0.5853
  495MOL0     N68189   7.022   1.540   5.197 -0.1076 -0.4216  0.3008
  495MOL0     C68190   7.081   1.484   5.085  0.5535 -0.5037  0.5338
  495MOL0     C68191   7.113   1.585   5.007 -0.2086  0.4013  0.5164
  495MOL0     C68192   7.179   1.585   4.866  0.2632  0.0182 -0.3290
  495MOL0     C68193   7.340   1.604   4.857  0.2654  0.5851 -0.0881
  495MOL0     C68194   7.390   1.744   4.906 -0.2740  0.5910  0.6106
  495MOL0     C68195   7.543   1.756   4.898 -0.0102 -0.5046  0.6054
  495MOL0     O68196   7.583   1.680   5.003  0.0181 -0.2832 -0.0435
  495MOL0     C68197   7.718   1.670   5.028 -0.8290 -0.0478  0.0655
  495MOL0     C68198   7.822   1.684   4.932  0.8921 -0.2799 -0.8244
  495MOL0     C68199   7.955   1.677   4.971 -0.3355  0.5107  1.5022
  495MOL0     C68200   8.059   1.724   4.873 -0.4088 -0.1582  0.1327
  495MOL0     C68201   7.993   1.643   5.106 -0.4554  0.9732 -0.6124
  495MOL0     C68202   8.129   1.613   5.156 -0.0451  0.7867 -0.9204
  495MOL0     O68203   8.225   1.588   5.057 -0.0469 -0.2741  0.2002
  495MOL0     C68204   8.350   1.533   5.078  0.6461  0.0255 -0.2005
  495MOL0     C68205   8.446   1.557   4.981  0.8429  0.1352  0.2512
  495MOL0     C68206   8.581   1.501   4.982  0.4958 -0.0315 -0.5394
  495MOL0     C68207   8.604   1.408   5.083  0.5098  0.3903 -0.3979
  495MOL0     O68208   8.722   1.338   5.109 -0.5352  0.2906 -0.4001
  495MOL0     C68209   8.842   1.394   5.052 -0.9273  1.2113 -0.2837
  495MOL0     C68210   8.965   1.302   5.095  0.2434 -0.2729  0.1124
  495MOL0     C68211   8.965   1.173   5.013 -0.8641  0.1790  0.4089
  495MOL0     C68212   9.093   1.083   5.026 -0.0721 -0.3959 -0.4019
  495MOL0     C68213   9.080   0.964   4.930 -0.4692  0.3562 -0.1179
  495MOL0     C68214   9.200   0.866   4.951 -0.2547  0.4758 -0.3822
  495MOL0     C68215   9.207   0.753   4.842 -0.0332  0.1711 -0.6665
  495MOL0     C68216   9.341   0.678   4.829  0.2631 -0.4697 -0.1791
  495MOL0    Cl68217   9.397   0.613   4.992 -0.1617 -0.5170 -0.2373
  495MOL0     C68218   8.504   1.385   5.183  0.2390  0.6550  0.1161
  495MOL0     C68219   8.382   1.445   5.187  0.4594 -0.4878 -0.6811
  495MOL0     O68220   8.159   1.622   5.274  0.1112  0.1879 -0.0699
  495MOL0     C68221   7.889   1.626   5.196 -0.4151 -0.3630  0.8085
  495MOL0     C68222   7.757   1.635   5.158 -0.1963  0.7787  0.4085
  495MOL0     N68223   7.054   1.700   5.066  0.2398 -0.4232  0.9226
  495MOL0     N68224   7.008   1.671   5.178  0.1687 -0.2252  0.0538
  495MOL0     C68225   6.382   0.889   5.746  0.7561 -0.2043 -0.8637
  495MOL0     C68226   6.245   0.902   5.729  0.6570 -0.0250  0.2407
  495MOL0     C68227   5.815   0.934   5.586 -0.1984  0.0417 -0.2818
  495MOL0     C68228   5.776   1.064   5.604  0.2041  0.2392 -0.1284
  495MOL0     C68229   5.641   1.103   5.595  0.1631 -0.2862 -0.6149
  495MOL0     C68230   5.542   1.009   5.574  0.2852  0.0924 -0.2467
  495MOL0     O68231   5.421   1.059   5.604  0.0569  0.7624  0.3654
  495MOL0     C68232   5.316   0.977   5.549  0.6095 -0.4041 -0.3756
  495MOL0     C68233   5.188   1.033   5.617  0.2664  1.1762  0.4165
  495MOL0     C68234   5.187   0.994   5.770 -0.2919  0.0260 -0.1169
  495MOL0     C68235   5.053   1.002   5.831 -0.2975 -1.0704 -0.1524
  495MOL0     C68236   5.080   0.977   5.971  0.3741  0.7695 -1.0527
  495MOL0     C68237   5.106   0.944   6.084  0.2517 -0.3132  0.8815
  495MOL0     C68238   5.579   0.876   5.551 -0.2196 -0.3452  0.9707
  495MOL0     C68239   5.714   0.837   5.550  0.2365 -0.7149  0.1724
  495MOL0     C68240   5.748   0.699   5.513  0.0791  0.0577 -0.1693
  495MOL0     H68241   6.225   1.076   5.447 -3.3393  2.2849  2.3315
  495MOL0     H68242   6.505   1.054   5.480 -0.6879  0.9195  0.6847
  495MOL0     H68243   6.623   0.938   5.870 -4.3440  2.7659 -0.4460
  495MOL0     H68244   6.639   1.098   5.801 -2.1276 -0.5322 -0.8007
  495MOL0     H68245   6.868   1.017   5.866  1.0367  0.1788 -0.1676
  495MOL0     H68246   6.845   0.889   5.726 -1.9342  0.5894 -3.7167
  495MOL0     H68247   6.792   1.057   5.571  0.0877 -3.2771 -0.4299
  495MOL0     H68248   6.822   1.179   5.687 -2.2203 -1.3531  0.3904
  495MOL0     H68249   7.064   1.114   5.705 -0.6045 -2.5460  2.2503
  495MOL0     H68250   7.027   0.959   5.623  0.9269 -0.2025  1.3157
  495MOL0     H68251   6.981   1.076   5.411  0.3188  0.6022 -1.3075
  495MOL0     H68252   7.147   1.108   5.462  0.4955 -0.7158 -0.2232
  495MOL0     H68253   6.900   1.295   5.497  0.3161  1.7368  0.3660
  495MOL0     H68254   7.049   1.343   5.563  1.5557 -0.9567 -0.2469
  495MOL0     H68255   7.020   1.276   5.268  0.6426 -0.1228  0.0677
  495MOL0     H68256   7.153   1.381   5.354  1.1082  1.3033  1.0996
  495MOL0     H68257   6.860   1.456   5.308 -0.2474  0.7585  0.4642
  495MOL0     H68258   6.978   1.537   5.405 -1.6467 -0.9017  1.4563
  495MOL0     H68259   7.103   1.379   5.068 -0.2261 -0.6959  0.6519
  495MOL0     H68260   7.114   1.655   4.811  0.1438 -0.1825 -0.4431
  495MOL0     H68261   7.171   1.483   4.827  0.7271 -1.7949  3.8772
  495MOL0     H68262   7.384   1.533   4.929 -3.0903 -1.2588  0.3395
  495MOL0     H68263   7.371   1.572   4.757 -2.5354 -1.7695 -0.3373
  495MOL0     H68264   7.348   1.810   4.830 -0.9410  1.0755  1.3860
  495MOL0     H68265   7.345   1.772   5.001 -3.1060 -1.4338 -0.0062
  495MOL0     H68266   7.582   1.715   4.805 -0.8463  0.3512 -0.1353
  495MOL0     H68267   7.576   1.859   4.915  0.1637 -0.3903 -0.3696
  495MOL0     H68268   7.789   1.704   4.831 -0.2736 -0.4270 -0.4849
  495MOL0     H68269   8.102   1.640   4.817  0.6366  0.4865 -0.0552
  495MOL0     H68270   8.132   1.787   4.925  0.2005  0.0303 -0.9340
  495MOL0     H68271   8.007   1.786   4.799  0.7693  1.4759  0.6212
  495MOL0     H68272   8.421   1.620   4.896  1.6660 -1.3741 -1.1404
  495MOL0     H68273   8.643   1.521   4.895  0.7924  0.0080 -0.3170
  495MOL0     H68274   8.848   1.396   4.943  3.2011 -1.0052 -0.2932
  495MOL0     H68275   8.870   1.490   5.097 -2.1945  1.3240  0.3122
  495MOL0     H68276   9.057   1.360   5.079 -0.5658  1.4409  1.2704
  495MOL0     H68277   8.949   1.275   5.200  3.7402 -0.5848  0.6748
  495MOL0     H68278   8.966   1.194   4.905  4.7046 -0.5400 -0.0038
  495MOL0     H68279   8.879   1.111   5.038  1.1495 -1.8346  2.9179
  495MOL0     H68280   9.097   1.041   5.127 -0.3426 -3.6747 -1.6225
  495MOL0     H68281   9.182   1.145   5.014 -0.9238  1.3545  1.6406
  495MOL0     H68282   8.988   0.909   4.952 -1.3691  2.1224  0.6551
  495MOL0     H68283   9.072   0.996   4.826  0.4788 -3.1484 -1.4249
  495MOL0     H68284   9.189   0.821   5.050  0.7883  5.0049  2.0961
  495MOL0     H68285   9.291   0.925   4.961  1.3690 -2.0859  0.8361
  495MOL0     H68286   9.179   0.786   4.742 -3.3534 -0.9467 -0.2247
  495MOL0     H68287   9.129   0.681   4.868  0.4871  0.3900  1.7937
  495MOL0     H68288   9.418   0.745   4.790 -1.4694  1.7706  0.0358
  495MOL0     H68289   9.321   0.586   4.772 -1.4289 -0.1006 -0.2341
  495MOL0     H68290   8.516   1.306   5.257  1.3587 -1.4659 -2.1880
  495MOL0     H68291   8.303   1.411   5.253 -0.6655  1.6368 -0.8411
  495MOL0     H68292   7.904   1.606   5.302 -4.2400 -0.2567  1.4995
  495MOL0     H68293   7.675   1.630   5.228 -1.0297  2.5424 -0.3977
  495MOL0     H68294   6.423   0.826   5.825  1.5904 -0.3310 -1.3834
  495MOL0     H68295   6.169   0.855   5.790  0.3056 -1.8686 -1.5306
  495MOL0     H68296   5.848   1.138   5.638 -0.8233  1.0109  0.4208
  495MOL0     H68297   5.611   1.206   5.610 -0.8326 -0.6307 -0.1551
  495MOL0     H68298   5.297   0.982   5.441  1.9254  0.1456 -0.6090
  495MOL0     H68299   5.318   0.871   5.576  1.1819 -0.5432 -0.9213
  495MOL0     H68300   5.098   0.981   5.581  1.4656  0.8901 -2.4308
  495MOL0     H68301   5.180   1.140   5.599 -2.7349  0.9199 -0.3526
  495MOL0     H68302   5.224   0.892   5.785  0.0487 -0.6336 -4.1642
  495MOL0     H68303   5.249   1.065   5.826 -0.1836  0.9389 -1.3623
  495MOL0     H68304   4.986   0.926   5.791 -0.4257 -0.8904 -0.2799
  495MOL0     H68305   5.014   1.104   5.823 -2.2464 -1.8220 -0.7716
  495MOL0     H68306   5.106   0.925   6.190  1.5474  0.3801  1.0288
  495MOL0     H68307   5.509   0.802   5.514  1.7080 -1.9384  0.3878
  495MOL0     H68308   5.687   0.653   5.435 -0.0084 -0.5541  0.2523
  495MOL0     H68309   5.851   0.686   5.478 -1.1123 -1.2817 -3.6513
  495MOL0     H68310   5.758   0.634   5.600  0.3923 -1.2637 -1.1551
  496MOL0     O68311   5.128   0.769   4.743  0.5779  0.8357  0.3644
  496MOL0     C68312   5.156   0.882   4.706 -0.8437 -0.2491 -0.6677
  496MOL0     O68313   5.076   0.979   4.646  0.1159 -0.2122 -0.1596
  496MOL0     C68314   4.949   0.936   4.635 -0.1104 -0.0184 -0.7376
  496MOL0     C68315   4.893   0.893   4.517 -0.2822  0.0313  0.7782
  496MOL0     C68316   4.768   0.856   4.508 -0.1188  0.6288  0.5167
  496MOL0     C68317   4.685   0.853   4.617  0.6299  0.2584 -0.4640
  496MOL0     O68318   4.553   0.820   4.605  0.4022  0.0614 -0.3359
  496MOL0     C68319   4.481   0.768   4.718  0.2889 -0.6113 -0.1826
  496MOL0     C68320   4.365   0.862   4.742  0.1343  0.1893  0.1365
  496MOL0     C68321   4.405   0.990   4.804  0.5854 -0.5072 -0.1542
  496MOL0     C68322   4.279   1.088   4.802  0.0288  0.9538  0.1442
  496MOL0     C68323   4.321   1.227   4.853  0.1544 -0.2275 -0.5502
  496MOL0     C68324   4.275   1.244   5.008  0.0803 -0.8770  0.1279
  496MOL0     C68325   4.338   1.370   5.072 -0.0228 -0.1395 -0.5260
  496MOL0     C68326   4.323   1.389   5.226  0.8934 -0.0486  1.0480
  496MOL0     N68327   4.368   1.521   5.254  0.0645  0.0951 -0.3650
  496MOL0     C68328   4.462   1.554   5.349 -0.0015  0.6138 -0.5057
  496MOL0     C68329   4.479   1.691   5.356 -0.1342 -0.6476 -0.3279
  496MOL0     C68330   4.585   1.764   5.437 -0.5414  0.6890  0.1655
  496MOL0     C68331   4.564   1.915   5.455 -0.2197 -0.8791  0.5201
  496MOL0     C68332   4.696   1.988   5.443 -0.2075 -0.4812  0.2085
  496MOL0     C68333   4.788   1.969   5.566 -0.3089 -0.6497 -0.3542
  496MOL0     O68334   4.922   2.008   5.534 -0.1464  0.2470 -0.2538
  496MOL0     C68335   5.023   1.972   5.621  0.1424 -0.5082  0.3223
  496MOL0     C68336   5.010   1.905   5.746 -1.1733  0.3181  0.5343
  496MOL0     C68337   5.124   1.886   5.829 -0.4889  0.3930  0.4171
  496MOL0     C68338   5.102   1.818   5.963  0.0276  0.0786  0.4676
  496MOL0     C68339   5.249   1.940   5.799  0.5374  0.5791 -0.0743
  496MOL0     C68340   5.371   1.925   5.893  0.8161 -0.2223 -0.1305
  496MOL0     O68341   5.490   1.965   5.837  0.1301 -0.8086 -0.5349
  496MOL0     C68342   5.594   2.018   5.907 -0.1001 -0.1687 -0.3394
  496MOL0     C68343   5.589   2.067   6.038  0.3375 -0.6157  0.6028
  496MOL0     C68344   5.715   2.086   6.103  1.1525 -0.7753  0.1169
  496MOL0     C68345   5.838   2.061   6.040 -0.7294 -0.5680 -0.2979
  496MOL0     O68346   5.946   2.088   6.114  0.2732  0.3338 -0.1073
  496MOL0     C68347   6.066   2.125   6.050 -0.5226  0.0694  0.1586
  496MOL0     C68348   6.168   2.155   6.150 -0.0400  0.1894 -0.8931
  496MOL0     C68349   6.303   2.207   6.080  0.3085  0.5513  0.1524
  496MOL0     C68350   6.397   2.255   6.198 -0.6048  0.4235  0.2248
  496MOL0     C68351   6.537   2.319   6.150 -0.9208 -0.1193 -0.5976
  496MOL0     C68352   6.639   2.232   6.070  0.4623 -0.1335  0.7728
  496MOL0     C68353   6.777   2.303   6.050  0.2764  0.0450  0.2745
  496MOL0     C68354   6.870   2.310   6.171 -0.2108 -0.2527  0.1886
  496MOL0    Cl68355   7.037   2.366   6.128  0.3592  0.0172  0.3905
  496MOL0     C68356   5.836   2.014   5.905 -0.8016 -0.0027 -0.1018
  496MOL0     C68357   5.713   2.005   5.837 -0.1543  0.0941 -0.0637
  496MOL0     O68358   5.362   1.875   6.002  0.1615  0.1231 -0.0525
  496MOL0     C68359   5.263   2.016   5.678  0.0022 -0.1316  0.6263
  496MOL0     C68360   5.155   2.023   5.586 -0.7994 -0.9539 -0.8385
  496MOL0     N68361   4.377   1.736   5.268  0.3320 -0.4376 -0.0673
  496MOL0     N68362   4.320   1.637   5.210 -0.1762 -0.5786 -0.2582
  496MOL0     C68363   4.739   0.890   4.737 -0.8581 -0.2778 -1.0080
  496MOL0     C68364   4.873   0.937   4.754 -0.0463 -0.0121 -0.2755
  496MOL0     C68365   5.297   0.923   4.722  0.8712 -0.5481  0.5925
  496MOL0     C68366   5.345   1.025   4.635  0.1300  0.5271 -0.4488
  496MOL0     C68367   5.479   1.055   4.635 -0.6549 -0.6146  0.0506
  496MOL0     C68368   5.570   1.001   4.722  0.1497  0.5235  0.9359
  496MOL0     O68369   5.700   1.044   4.697  0.4630 -0.5826 -0.0185
  496MOL0     C68370   5.795   1.011   4.795 -0.4955  0.0708 -0.0347
  496MOL0     C68371   5.931   1.070   4.758 -0.1196 -0.7136 -0.1498
  496MOL0     C68372   5.989   1.005   4.633 -0.7101  1.3368  0.6144
  496MOL0     C68373   6.115   1.060   4.575  0.1366  0.0251 -0.7177
  496MOL0     C68374   6.228   1.073   4.665 -0.1134  0.2593  0.3717
  496MOL0     C68375   6.321   1.098   4.735 -1.5270  0.4723  0.0068
  496MOL0     C68376   5.524   0.916   4.816  0.0838  0.3651  0.4638
  496MOL0     C68377   5.388   0.877   4.825 -0.1504 -0.0971  0.4501
  496MOL0     C68378   5.347   0.806   4.945 -0.5030  0.1263 -1.3192
  496MOL0     H68379   4.952   0.909   4.428  0.1630  2.8201  1.4731
  496MOL0     H68380   4.723   0.825   4.414 -0.9538 -1.2542  1.4841
  496MOL0     H68381   4.535   0.750   4.812  1.7231 -0.5753 -0.9687
  496MOL0     H68382   4.440   0.672   4.687  0.3796  0.1909 -3.0306
  496MOL0     H68383   4.312   0.875   4.647 -1.0167 -1.8584  0.4503
  496MOL0     H68384   4.295   0.810   4.808  1.6224 -2.1889 -0.0108
  496MOL0     H68385   4.441   0.969   4.905  0.5998 -2.7961 -0.5695
  496MOL0     H68386   4.492   1.031   4.751  0.6968 -0.0418  0.3812
  496MOL0     H68387   4.244   1.099   4.699  3.3188  2.4366 -0.9781
  496MOL0     H68388   4.200   1.042   4.862 -1.5974  0.2662 -2.3611
  496MOL0     H68389   4.276   1.306   4.793 -0.7220  0.3057  0.7574
  496MOL0     H68390   4.429   1.240   4.846  0.1306  0.1787 -0.1876
  496MOL0     H68391   4.166   1.256   5.016  0.2498  0.6053  0.4037
  496MOL0     H68392   4.315   1.167   5.073  0.6951 -1.7901 -1.2856
  496MOL0     H68393   4.289   1.448   5.012 -0.8590 -0.8460 -0.7727
  496MOL0     H68394   4.445   1.390   5.057  0.2046  0.6127  1.7927
  496MOL0     H68395   4.229   1.378   5.282  1.0051  1.9647  1.7078
  496MOL0     H68396   4.388   1.313   5.272  2.2617 -0.8622 -1.9722
  496MOL0     H68397   4.516   1.486   5.414  1.7334  1.6638 -0.7788
  496MOL0     H68398   4.683   1.744   5.392  1.0154  4.2669  1.5501
  496MOL0     H68399   4.588   1.731   5.541  1.1329  2.1222  0.6372
  496MOL0     H68400   4.497   1.952   5.377  0.6660  0.8050  0.5169
  496MOL0     H68401   4.524   1.930   5.556 -4.1837 -2.5110 -0.5969
  496MOL0     H68402   4.746   1.970   5.347 -0.8372  1.6016 -0.5595
  496MOL0     H68403   4.676   2.095   5.433  2.3213  0.1170  0.9168
  496MOL0     H68404   4.758   2.023   5.656  0.5596 -1.7480  0.6299
  496MOL0     H68405   4.787   1.864   5.597  1.9535 -0.6753 -0.1510
  496MOL0     H68406   4.923   1.855   5.788 -0.7342 -1.2266 -0.3491
  496MOL0     H68407   5.159   1.725   5.970 -0.1614 -0.1419 -0.6260
  496MOL0     H68408   4.996   1.790   5.971  0.3687 -2.0481 -1.4427
  496MOL0     H68409   5.126   1.895   6.037  0.5202 -0.0882  0.4842
  496MOL0     H68410   5.494   2.092   6.084  0.3985 -0.8495  0.8644
  496MOL0     H68411   5.713   2.114   6.208  0.9651 -2.1746  0.5157
  496MOL0     H68412   6.110   2.044   5.990 -1.7760 -0.0415 -0.6546
  496MOL0     H68413   6.051   2.211   5.983  0.8257 -1.2842 -2.0198
  496MOL0     H68414   6.130   2.240   6.208 -0.4909  0.8733 -2.1536
  496MOL0     H68415   6.190   2.070   6.215 -2.0882  1.3541  1.4747
  496MOL0     H68416   6.298   2.284   6.003  3.6680 -0.5130 -1.3650
  496MOL0     H68417   6.346   2.119   6.031 -0.1632  0.2020  0.3614
  496MOL0     H68418   6.420   2.170   6.262  1.2643 -0.9073 -2.0410
  496MOL0     H68419   6.346   2.332   6.256 -3.5031 -0.0538 -1.5068
  496MOL0     H68420   6.514   2.412   6.096 -3.1362  0.2936  0.9144
  496MOL0     H68421   6.585   2.352   6.243  1.1529  1.9820 -2.2909
  496MOL0     H68422   6.594   2.224   5.970 -1.3918  0.6506  1.5128
  496MOL0     H68423   6.663   2.133   6.109  1.1070 -1.1731 -2.0256
  496MOL0     H68424   6.778   2.407   6.016  1.2564  0.2758  0.9517
  496MOL0     H68425   6.821   2.234   5.977  0.2756  1.5464 -1.1996
  496MOL0     H68426   6.885   2.209   6.210 -1.8327 -1.4981 -2.1793
  496MOL0     H68427   6.828   2.381   6.243 -2.1441 -0.6549 -0.4861
  496MOL0     H68428   5.929   2.003   5.849 -0.4139  1.0478  0.3070
  496MOL0     H68429   5.710   1.987   5.730  0.4901  0.3860 -0.1421
  496MOL0     H68430   5.355   2.069   5.655 -0.9873  2.0150  1.3613
  496MOL0     H68431   5.178   2.074   5.493 -1.2317  0.5552 -0.1594
  496MOL0     H68432   4.674   0.897   4.824  0.5906 -0.6813  0.1434
  496MOL0     H68433   4.913   0.981   4.845 -0.3397  2.8445 -1.4197
  496MOL0     H68434   5.277   1.068   4.563 -0.3975  2.3551  1.0529
  496MOL0     H68435   5.516   1.122   4.558  0.1566  0.6026  1.4611
  496MOL0     H68436   5.766   1.064   4.886  0.9547  0.5819  0.1480
  496MOL0     H68437   5.811   0.905   4.813 -0.6448  0.1911  0.8459
  496MOL0     H68438   6.005   1.046   4.835 -0.3990  1.0003  0.7090
  496MOL0     H68439   5.919   1.178   4.742 -2.4378 -0.9912 -0.5309
  496MOL0     H68440   6.004   0.899   4.656  0.8286  1.8362  2.0691
  496MOL0     H68441   5.917   1.010   4.551  1.6019 -1.1643 -1.8051
  496MOL0     H68442   6.085   1.159   4.538  4.2095  1.9452  0.5553
  496MOL0     H68443   6.149   0.997   4.492 -0.6354 -1.4888  0.0902
  496MOL0     H68444   6.406   1.115   4.797 -0.9535 -0.1775 -0.5901
  496MOL0     H68445   5.590   0.868   4.888  1.5020 -0.1197 -1.0841
  496MOL0     H68446   5.417   0.826   5.027  0.0819  0.8356 -1.9835
  496MOL0     H68447   5.247   0.839   4.974  0.1073  0.3026  0.7501
  496MOL0     H68448   5.344   0.697   4.931  2.4683 -0.2891  0.3213
  497MOL0     O68449   6.798  11.279   8.602  0.0895  0.6921 -0.1829
  497MOL0     C68450   6.819  11.164   8.638  0.5732  0.5072  0.8724
  497MOL0     O68451   6.724  11.068   8.654  0.3097  0.1185  1.2225
  497MOL0     C68452   6.586  11.093   8.649  0.3306 -0.1511 -0.2656
  497MOL0     C68453   6.521  11.208   8.705 -0.3382 -0.4348  0.7267
  497MOL0     C68454   6.380  11.223   8.698  0.1675 -0.1375  0.7166
  497MOL0     C68455   6.302  11.118   8.643 -0.0530 -0.8032  0.1318
  497MOL0     O68456   6.163  11.127   8.627  0.9186  0.1213 -0.3147
  497MOL0     C68457   6.100  11.254   8.630 -0.3897 -0.1084 -0.5613
  497MOL0     C68458   5.979  11.254   8.534 -0.0224 -0.6789 -0.5308
  497MOL0     C68459   5.875  11.146   8.559  0.0821  0.3787 -0.3805
  497MOL0     C68460   5.792  11.136   8.432  0.2269 -0.1073  0.0027
  497MOL0     C68461   5.675  11.034   8.434 -0.0125  0.1015 -0.4022
  497MOL0     C68462   5.545  11.096   8.497  0.3375 -0.1056 -0.4491
  497MOL0     C68463   5.423  10.997   8.517 -0.4391  0.0913  0.9512
  497MOL0     C68464   5.458  10.878   8.596 -0.7784  0.4157  0.1065
  497MOL0     N68465   5.522  10.905   8.722 -0.0408 -0.2528 -0.8388
  497MOL0     C68466   5.647  10.859   8.761  0.4035 -0.1337 -0.8008
  497MOL0     C68467   5.672  10.932   8.875 -0.2171  0.4978  0.0789
  497MOL0     C68468   5.799  10.926   8.958  0.2477  1.1725 -0.4823
  497MOL0     C68469   5.882  11.041   8.922 -0.2461  0.4770 -0.0763
  497MOL0     C68470   6.004  11.065   9.013 -0.4514 -0.2812  0.0632
  497MOL0     C68471   6.118  11.151   8.961 -0.5355 -0.8690  0.0438
  497MOL0     O68472   6.217  11.155   9.063  0.1691 -0.5375 -0.1935
  497MOL0     C68473   6.344  11.101   9.047 -0.4793 -0.5713  0.9300
  497MOL0     C68474   6.364  10.977   8.983  0.2845 -0.0355  0.4831
  497MOL0     C68475   6.493  10.916   8.961  0.8944 -0.4051 -0.9082
  497MOL0     C68476   6.492  10.775   8.904  0.1179 -0.2522  0.5418
  497MOL0     C68477   6.603  10.978   9.007 -0.0681  1.0019 -0.1058
  497MOL0     C68478   6.741  10.930   8.980 -0.5181 -0.4783 -0.0441
  497MOL0     O68479   6.768  10.800   8.988  0.4347  0.2289 -0.5451
  497MOL0     C68480   6.896  10.766   8.966  0.3340 -0.8320 -1.1715
  497MOL0     C68481   6.943  10.710   8.845  0.0033  0.9139  0.3909
  497MOL0     C68482   7.074  10.656   8.832  0.2643 -0.3036 -0.1163
  497MOL0     C68483   7.158  10.660   8.943  0.0167 -0.3066 -0.6209
  497MOL0     O68484   7.287  10.612   8.943  0.4678 -0.7367 -0.8406
  497MOL0     C68485   7.352  10.576   8.824  0.0632  0.2518 -0.1828
  497MOL0     C68486   7.352  10.427   8.809 -0.4068 -0.7597  0.2658
  497MOL0     C68487   7.467  10.393   8.704 -0.2554 -0.1438 -0.3839
  497MOL0     C68488   7.478  10.241   8.676 -0.1168 -0.7474 -0.1077
  497MOL0     C68489   7.624  10.197   8.621 -0.2145  0.0599  0.4138
  497MOL0     C68490   7.644  10.038   8.638 -0.8763 -0.2509  0.6150
  497MOL0     C68491   7.789   9.995   8.605  1.1720 -0.7072 -0.6748
  497MOL0     C68492   7.891  10.032   8.716 -0.7365  0.2601 -0.0060
  497MOL0    Cl68493   8.039   9.970   8.662 -0.1143 -0.1309 -0.0484
  497MOL0     C68494   7.111  10.723   9.062 -0.6053 -0.4904 -0.1682
  497MOL0     C68495   6.984  10.774   9.076  0.4362  0.7535  0.3465
  497MOL0     O68496   6.830  11.018   8.960 -0.3902  0.1847  0.3194
  497MOL0     C68497   6.586  11.105   9.060 -0.3447 -0.1661  0.2144
  497MOL0     C68498   6.461  11.163   9.074 -0.9260 -0.8347 -0.2536
  497MOL0     N68499   5.560  11.005   8.904  0.3381  0.3086 -0.5116
  497MOL0     N68500   5.468  10.979   8.821  0.5856  0.5804  0.0557
  497MOL0     C68501   6.373  11.008   8.598 -0.0835 -0.3642  0.4860
  497MOL0     C68502   6.510  10.996   8.600  0.3882  0.1066 -0.0049
  497MOL0     C68503   6.965  11.127   8.637  0.0488 -0.7485  0.2701
  497MOL0     C68504   7.001  11.004   8.692  0.2075 -0.0495 -0.1224
  497MOL0     C68505   7.133  10.964   8.710  0.4176  0.3977  0.0967
  497MOL0     C68506   7.230  11.047   8.653 -0.0795 -0.8596  0.4416
  497MOL0     O68507   7.347  10.985   8.673 -0.2363 -0.4989  0.0155
  497MOL0     C68508   7.465  11.072   8.682 -0.2067  0.6290 -0.0813
  497MOL0     C68509   7.585  10.984   8.686 -0.8077  0.6136 -0.5593
  497MOL0     C68510   7.585  10.864   8.772  0.2889  0.3701 -0.1338
  497MOL0     C68511   7.725  10.835   8.814 -0.2045  0.6284  0.1102
  497MOL0     C68512   7.734  10.711   8.887 -1.1193 -0.0778  0.7064
  497MOL0     C68513   7.738  10.590   8.920 -0.3897 -0.2894  0.0568
  497MOL0     C68514   7.202  11.164   8.589 -0.2426  0.1085 -0.0826
  497MOL0     C68515   7.070  11.211   8.579  0.5354  0.1325 -0.0012
  497MOL0     C68516   7.042  11.328   8.489  1.1317  0.3021  0.3012
  497MOL0     H68517   6.578  11.295   8.737 -1.2283  1.2220 -1.8625
  497MOL0     H68518   6.331  11.315   8.731  1.6907  1.8941 -2.1957
  497MOL0     H68519   6.168  11.323   8.579  1.2305  0.3854  2.0646
  497MOL0     H68520   6.085  11.283   8.734  0.7390 -1.3885 -0.0055
  497MOL0     H68521   5.928  11.350   8.536 -2.4220 -1.8723 -1.2719
  497MOL0     H68522   6.020  11.220   8.439 -1.1033  0.0686 -1.2718
  497MOL0     H68523   5.924  11.052   8.587 -0.7447  0.6052  2.1008
  497MOL0     H68524   5.814  11.171   8.646  1.7349  0.1546  0.9136
  497MOL0     H68525   5.758  11.238   8.414  2.3296  0.6200 -0.0546
  497MOL0     H68526   5.856  11.124   8.344 -0.6542  1.1147 -0.8554
  497MOL0     H68527   5.711  10.950   8.494  1.6827  0.9345 -0.1746
  497MOL0     H68528   5.652  10.995   8.334 -0.4625 -0.4743 -0.0742
  497MOL0     H68529   5.577  11.144   8.590  2.1223  2.0507 -2.0531
  497MOL0     H68530   5.514  11.189   8.447  0.0736  0.6368  1.0464
  497MOL0     H68531   5.372  10.975   8.423 -1.0702 -0.8404  1.4961
  497MOL0     H68532   5.352  11.062   8.569 -0.2109  2.8544 -1.8763
  497MOL0     H68533   5.362  10.830   8.620 -0.8546 -0.4761 -1.7803
  497MOL0     H68534   5.518  10.803   8.543 -3.4837 -2.4092  0.6947
  497MOL0     H68535   5.720  10.800   8.707 -0.7065 -0.5215 -1.9299
  497MOL0     H68536   5.847  10.829   8.941 -1.6396  0.1556 -0.2706
  497MOL0     H68537   5.764  10.926   9.061 -2.3341  1.6951 -1.2703
  497MOL0     H68538   5.921  11.029   8.821  0.9291 -0.8470  0.4878
  497MOL0     H68539   5.827  11.135   8.925  2.3437  2.1241 -0.8461
  497MOL0     H68540   5.966  11.096   9.111  1.8223  1.4905  0.4602
  497MOL0     H68541   6.052  10.969   9.036  2.8313  1.1751 -0.2867
  497MOL0     H68542   6.174  11.114   8.875  1.5684  0.1421  0.9057
  497MOL0     H68543   6.079  11.249   8.935  2.3533 -0.2101 -2.3340
  497MOL0     H68544   6.271  10.931   8.952 -0.3624  0.4234  1.6731
  497MOL0     H68545   6.521  10.702   8.980  0.8181  0.7600  1.2805
  497MOL0     H68546   6.571  10.770   8.829  0.3639 -0.9683  0.8410
  497MOL0     H68547   6.403  10.756   8.843  0.8672 -1.6699 -0.1715
  497MOL0     H68548   6.869  10.707   8.766 -0.8015 -0.2380  1.1502
  497MOL0     H68549   7.096  10.617   8.733 -3.0998 -0.0689 -1.0674
  497MOL0     H68550   7.297  10.612   8.737 -0.1826  0.5218  0.0848
  497MOL0     H68551   7.446  10.631   8.825 -0.4791  1.2495 -1.1808
  497MOL0     H68552   7.380  10.382   8.905 -1.0220  1.0633  1.3357
  497MOL0     H68553   7.250  10.412   8.775 -0.2562 -1.1732 -0.0104
  497MOL0     H68554   7.566  10.417   8.744 -1.2687 -1.8640  3.6529
  497MOL0     H68555   7.449  10.446   8.610 -1.6600 -1.3330 -0.8280
  497MOL0     H68556   7.407  10.218   8.596  0.8259  2.3498 -2.0199
  497MOL0     H68557   7.449  10.188   8.767 -3.6721 -0.3291 -0.8438
  497MOL0     H68558   7.649  10.234   8.521  2.0635 -1.3341  0.4023
  497MOL0     H68559   7.700  10.246   8.683  0.5622 -0.5644 -0.0367
  497MOL0     H68560   7.574   9.986   8.572 -2.1106 -1.1785  2.5625
  497MOL0     H68561   7.620  10.008   8.740  0.1096 -1.3229  0.5506
  497MOL0     H68562   7.811  10.057   8.518  2.2204  0.8362  0.6205
  497MOL0     H68563   7.801   9.889   8.579  0.5850 -0.4976 -1.8472
  497MOL0     H68564   7.856   9.986   8.809 -0.0277 -0.0983  0.0932
  497MOL0     H68565   7.894  10.139   8.739 -0.2515  0.5325 -1.2650
  497MOL0     H68566   7.169  10.725   9.154 -1.2256  0.2704  0.2187
  497MOL0     H68567   6.961  10.829   9.167  0.7511  2.1006 -0.3537
  497MOL0     H68568   6.674  11.163   9.084 -1.0769  0.7882  0.6675
  497MOL0     H68569   6.451  11.254   9.132  1.8376 -1.9044  2.1573
  497MOL0     H68570   6.337  10.915   8.554  0.6246  0.0827 -1.0817
  497MOL0     H68571   6.563  10.917   8.547  0.5151  0.9019 -1.1147
  497MOL0     H68572   6.924  10.932   8.718  0.2461 -0.8877 -2.1959
  497MOL0     H68573   7.161  10.878   8.769  1.7603 -2.4795 -4.2936
  497MOL0     H68574   7.484  11.139   8.597  1.1581 -1.2060 -1.2990
  497MOL0     H68575   7.467  11.134   8.772  1.8510  1.2636 -0.5047
  497MOL0     H68576   7.663  11.055   8.712  0.7537 -1.5118  0.9370
  497MOL0     H68577   7.611  10.956   8.583 -1.0550  1.0189 -0.7329
  497MOL0     H68578   7.530  10.897   8.861  0.0704  0.0838 -0.1632
  497MOL0     H68579   7.529  10.787   8.719 -1.0323  0.8702  0.4900
  497MOL0     H68580   7.766  10.916   8.875  2.7812 -2.7844  3.1549
  497MOL0     H68581   7.784  10.831   8.723 -2.8426 -0.5459 -1.6737
  497MOL0     H68582   7.742  10.488   8.953  1.3433 -0.7021 -1.3304
  497MOL0     H68583   7.276  11.224   8.536  1.0959 -2.7267 -1.6296
  497MOL0     H68584   7.017  11.419   8.545 -1.9782  1.4641 -2.5817
  497MOL0     H68585   7.126  11.351   8.423  1.9480  0.2288  1.2882
  497MOL0     H68586   6.966  11.307   8.413  0.8924  2.9736 -0.2918
  498MOL0     O68587   4.829   6.287   2.269 -0.3751  0.2306  0.2795
  498MOL0     C68588   4.884   6.275   2.158 -0.3296 -0.2592  0.2675
  498MOL0     O68589   5.015   6.226   2.141 -0.2052 -0.3206  1.0831
  498MOL0     C68590   5.114   6.261   2.231  0.3652  0.8950 -0.3056
  498MOL0     C68591   5.096   6.359   2.335  0.8801  0.0179 -0.1557
  498MOL0     C68592   5.199   6.368   2.439  0.4522  0.2592  0.6052
  498MOL0     C68593   5.306   6.280   2.441 -0.3156  0.0952  0.1154
  498MOL0     O68594   5.391   6.309   2.547 -0.5996  0.6129 -1.1629
  498MOL0     C68595   5.492   6.221   2.597  0.1615  0.2256 -0.5968
  498MOL0     C68596   5.450   6.099   2.687  1.1010 -0.0250  0.1877
  498MOL0     C68597   5.556   6.016   2.756 -0.2406 -0.8503 -0.1701
  498MOL0     C68598   5.611   6.093   2.873 -0.7443  0.1179  0.1003
  498MOL0     C68599   5.736   6.028   2.927  0.0156  0.3990 -0.6324
  498MOL0     C68600   5.779   6.092   3.061 -0.1619  0.9385  0.0135
  498MOL0     C68601   5.837   6.230   3.041  0.2607 -0.0107  0.8286
  498MOL0     C68602   5.972   6.234   2.964 -0.4608  0.0512 -0.1270
  498MOL0     N68603   6.079   6.183   3.049  0.3104  0.9033 -0.8931
  498MOL0     C68604   6.114   6.050   3.055  0.4533 -0.4914 -0.3220
  498MOL0     C68605   6.213   6.043   3.140  0.2144 -0.1328 -0.5344
  498MOL0     C68606   6.278   5.922   3.192  0.5458 -0.2158  0.4475
  498MOL0     C68607   6.290   5.805   3.094 -0.1139  0.9083  0.6699
  498MOL0     C68608   6.394   5.830   2.986 -0.0436 -1.1475  0.3048
  498MOL0     C68609   6.452   5.721   2.897  0.1838 -0.0582 -0.3434
  498MOL0     O68610   6.483   5.623   2.990 -0.1716  0.3940  0.3485
  498MOL0     C68611   6.596   5.633   3.069  0.4293 -0.8057 -0.9116
  498MOL0     C68612   6.699   5.730   3.055 -0.2680  0.3915  0.4643
  498MOL0     C68613   6.817   5.725   3.128  0.5424  1.0373 -0.7439
  498MOL0     C68614   6.927   5.820   3.089 -0.1739 -0.2600 -0.1198
  498MOL0     C68615   6.817   5.633   3.235 -0.0174  0.5461 -0.1752
  498MOL0     C68616   6.935   5.612   3.320  0.3662  0.0930 -0.5791
  498MOL0     O68617   6.915   5.597   3.453  0.1666 -0.3662  0.0322
  498MOL0     C68618   7.013   5.559   3.545 -0.0213  0.3099 -0.8282
  498MOL0     C68619   6.968   5.533   3.675 -0.5426  0.9400  0.4600
  498MOL0     C68620   7.056   5.514   3.782 -0.2546  0.0500 -0.1950
  498MOL0     C68621   7.192   5.496   3.759  0.5366  0.9169 -0.7680
  498MOL0     O68622   7.266   5.456   3.869  0.2444  0.0567 -0.0900
  498MOL0     C68623   7.410   5.437   3.860 -0.4297  0.3784 -0.7720
  498MOL0     C68624   7.479   5.467   3.991 -0.1421 -0.2173 -0.1447
  498MOL0     C68625   7.633   5.466   3.971  0.3757 -0.3917 -0.9157
  498MOL0     C68626   7.701   5.330   3.994  0.1476  0.4236 -0.0996
  498MOL0     C68627   7.846   5.344   3.987  0.8414  0.4337  0.8115
  498MOL0     C68628   7.924   5.218   4.014  0.3769 -0.2963  0.3802
  498MOL0     C68629   8.075   5.243   3.991  0.2955 -0.5695  0.1757
  498MOL0     C68630   8.168   5.131   4.044 -0.1956 -0.4393 -0.3055
  498MOL0    Cl68631   8.327   5.146   3.963 -0.0031  0.1673 -0.0685
  498MOL0     C68632   7.237   5.505   3.628  0.1761  0.8479  0.7328
  498MOL0     C68633   7.147   5.542   3.522 -0.3340 -1.0579  0.5169
  498MOL0     O68634   7.043   5.592   3.257  0.0769  0.0755  0.8437
  498MOL0     C68635   6.715   5.545   3.257  0.4150 -0.0430  0.1684
  498MOL0     C68636   6.605   5.538   3.176 -0.1244  0.6804  0.3139
  498MOL0     N68637   6.256   6.169   3.172 -0.7921  0.1204  0.6789
  498MOL0     N68638   6.177   6.254   3.116  0.4821 -0.1924 -0.8563
  498MOL0     C68639   5.322   6.180   2.341  0.6595 -0.0236 -0.1755
  498MOL0     C68640   5.228   6.172   2.234 -0.1331 -0.6550  1.0113
  498MOL0     C68641   4.791   6.311   2.043 -0.4323 -0.1895 -0.0038
  498MOL0     C68642   4.656   6.353   2.063  0.2384  0.4626 -0.3426
  498MOL0     C68643   4.573   6.384   1.954  0.1398  0.4170 -0.4889
  498MOL0     C68644   4.611   6.377   1.822 -0.2272  0.5571  0.8162
  498MOL0     O68645   4.537   6.440   1.724  0.0055  0.4297  0.3727
  498MOL0     C68646   4.591   6.451   1.590 -0.4115  0.3768  0.1518
  498MOL0     C68647   4.487   6.497   1.478  0.9177 -0.8588 -0.1362
  498MOL0     C68648   4.419   6.616   1.550  0.5658  0.8434  0.7500
  498MOL0     C68649   4.340   6.684   1.445 -0.2232  0.3830  0.0832
  498MOL0     C68650   4.205   6.631   1.417  0.3311  0.7183  0.2934
  498MOL0     C68651   4.108   6.567   1.396 -0.1103 -0.3426 -0.1537
  498MOL0     C68652   4.740   6.316   1.809 -0.2304  0.2765  0.6656
  498MOL0     C68653   4.830   6.294   1.915 -0.7405  0.2073  0.1750
  498MOL0     C68654   4.971   6.247   1.875  0.1605  0.1987 -0.1833
  498MOL0     H68655   5.023   6.440   2.330  1.2985  0.6276  2.4068
  498MOL0     H68656   5.198   6.454   2.505  0.6867 -1.2447  2.6491
  498MOL0     H68657   5.549   6.284   2.667 -2.7605  1.6220  0.6962
  498MOL0     H68658   5.552   6.189   2.511 -0.0529 -2.4942  0.1889
  498MOL0     H68659   5.373   6.140   2.754 -1.4124 -3.3081 -0.3975
  498MOL0     H68660   5.392   6.026   2.629 -0.6109  1.0068  0.5102
  498MOL0     H68661   5.508   5.923   2.787 -3.6030  0.5087 -0.9060
  498MOL0     H68662   5.635   5.988   2.685 -1.2459  2.6453 -2.9106
  498MOL0     H68663   5.639   6.195   2.846  0.8084  0.6117  3.1930
  498MOL0     H68664   5.543   6.103   2.959 -1.2026  1.3092 -0.3808
  498MOL0     H68665   5.816   6.031   2.852  1.3537 -0.7410  0.6493
  498MOL0     H68666   5.720   5.921   2.944  0.4415  0.4570  0.2371
  498MOL0     H68667   5.698   6.092   3.134  0.4750 -4.9189  1.1602
  498MOL0     H68668   5.854   6.023   3.102 -1.0932 -0.0077  0.1553
  498MOL0     H68669   5.855   6.271   3.141 -0.0255  2.4827 -0.0579
  498MOL0     H68670   5.767   6.299   2.992  0.1972  0.4648  1.5714
  498MOL0     H68671   5.973   6.182   2.867  2.7808  0.6716 -0.5407
  498MOL0     H68672   5.987   6.339   2.936 -0.9646  0.2704  0.4077
  498MOL0     H68673   6.059   5.961   3.025 -0.2821 -0.9060  2.0123
  498MOL0     H68674   6.225   5.891   3.282  0.5220  1.7113  1.1471
  498MOL0     H68675   6.381   5.956   3.206  0.7967 -0.6460 -0.2656
  498MOL0     H68676   6.320   5.720   3.157 -2.2328  0.8729  1.7237
  498MOL0     H68677   6.196   5.772   3.050  1.3224  0.4804 -2.3089
  498MOL0     H68678   6.347   5.899   2.916 -1.1539 -2.6302 -0.4605
  498MOL0     H68679   6.483   5.886   3.016  1.4149 -1.6326 -2.6615
  498MOL0     H68680   6.375   5.686   2.828  0.4829 -0.1576 -0.6350
  498MOL0     H68681   6.541   5.754   2.842 -0.0355  1.8810  0.4020
  498MOL0     H68682   6.701   5.799   2.971  3.6601 -1.0977 -0.8774
  498MOL0     H68683   7.015   5.805   3.153 -1.6649  2.1504  2.6974
  498MOL0     H68684   6.895   5.922   3.109  2.2585  0.6636 -0.4840
  498MOL0     H68685   6.955   5.807   2.984 -1.6309 -2.7705 -0.2709
  498MOL0     H68686   6.861   5.542   3.690 -0.9477 -0.4885 -1.2736
  498MOL0     H68687   7.024   5.496   3.885  0.6600 -2.4403 -0.2818
  498MOL0     H68688   7.425   5.329   3.853 -0.1014  0.3570  0.0679
  498MOL0     H68689   7.462   5.484   3.776  1.4832 -2.6236 -1.4103
  498MOL0     H68690   7.448   5.566   4.025 -0.0131 -0.4211  0.5966
  498MOL0     H68691   7.451   5.393   4.068  1.7623  0.5140  1.3344
  498MOL0     H68692   7.676   5.534   4.046  2.2306  1.2051 -3.2901
  498MOL0     H68693   7.656   5.509   3.873  0.3630  0.8113 -0.4147
  498MOL0     H68694   7.673   5.250   3.924  0.6952  0.8266 -0.7889
  498MOL0     H68695   7.667   5.285   4.088  1.6803 -0.7806 -0.0681
  498MOL0     H68696   7.862   5.384   3.886 -0.6864  1.5323  0.9702
  498MOL0     H68697   7.880   5.426   4.050  0.3198  1.7884 -0.5994
  498MOL0     H68698   7.897   5.149   3.933 -1.4599  0.5464  0.2367
  498MOL0     H68699   7.916   5.189   4.120  4.0372  1.0994  1.1738
  498MOL0     H68700   8.091   5.340   4.039 -0.9764  0.1293 -0.7495
  498MOL0     H68701   8.100   5.255   3.885  0.0845 -0.1993  0.1650
  498MOL0     H68702   8.128   5.032   4.019 -0.7705 -0.6244  1.2570
  498MOL0     H68703   8.185   5.141   4.151  1.8514  3.2012 -0.8052
  498MOL0     H68704   7.341   5.494   3.602  0.1448  2.3023 -0.1727
  498MOL0     H68705   7.199   5.559   3.429  2.2022  1.9855  2.2882
  498MOL0     H68706   6.717   5.480   3.344 -1.7685 -0.1698  0.1686
  498MOL0     H68707   6.527   5.466   3.197  0.7321 -0.7801 -1.2646
  498MOL0     H68708   5.389   6.097   2.357 -2.8218 -3.2315 -0.7565
  498MOL0     H68709   5.235   6.095   2.158 -0.5699  2.8863 -2.9844
  498MOL0     H68710   4.617   6.379   2.161  1.5226  0.8319  0.0917
  498MOL0     H68711   4.469   6.409   1.972  0.2076  0.5827 -0.3245
  498MOL0     H68712   4.668   6.529   1.590  1.2348 -1.1776 -0.8350
  498MOL0     H68713   4.638   6.354   1.574 -0.6503  0.0083  1.6058
  498MOL0     H68714   4.416   6.415   1.464  0.1700 -0.2248 -0.1107
  498MOL0     H68715   4.533   6.530   1.385  3.7436 -1.1182  1.0396
  498MOL0     H68716   4.352   6.583   1.630  0.2588  1.2639  0.6685
  498MOL0     H68717   4.496   6.681   1.592  1.3863  1.1140 -1.0729
  498MOL0     H68718   4.388   6.704   1.348 -2.1519  1.7594 -0.6539
  498MOL0     H68719   4.326   6.783   1.488  1.3839  0.0714  1.4448
  498MOL0     H68720   4.021   6.512   1.365 -2.8622  3.8129 -0.6940
  498MOL0     H68721   4.770   6.300   1.705 -2.4634  1.1837 -0.1786
  498MOL0     H68722   5.043   6.320   1.912 -0.2580 -0.5424  2.2628
  498MOL0     H68723   5.001   6.148   1.910  1.1154  0.0083 -1.5007
  498MOL0     H68724   4.982   6.231   1.768 -2.8629  1.8320 -0.8720
  499MOL0     O68725   0.528   4.421   6.006  0.5692  0.0625  0.2795
  499MOL0     C68726   0.476   4.529   6.039 -0.3353  0.4060  0.1037
  499MOL0     O68727   0.548   4.646   6.078 -0.6465  0.3842  0.8845
  499MOL0     C68728   0.679   4.646   6.114 -0.6986 -0.0137 -0.4534
  499MOL0     C68729   0.749   4.749   6.053 -0.6839  0.5768  1.9080
  499MOL0     C68730   0.893   4.750   6.065  0.2398  0.0117  0.0893
  499MOL0     C68731   0.956   4.667   6.158 -0.0038 -0.1018 -0.2338
  499MOL0     O68732   1.095   4.686   6.180 -0.2013 -0.2278 -1.1105
  499MOL0     C68733   1.177   4.601   6.261  0.2104  1.2474  0.9085
  499MOL0     C68734   1.333   4.624   6.242  0.0565  0.2122  0.1037
  499MOL0     C68735   1.417   4.566   6.351 -0.4633  0.5103  0.5143
  499MOL0     C68736   1.579   4.586   6.317  0.4694 -0.5604  0.3219
  499MOL0     C68737   1.679   4.542   6.414  0.6800 -0.4316 -0.2577
  499MOL0     C68738   1.823   4.561   6.381  0.5740 -0.3182 -0.3083
  499MOL0     C68739   1.913   4.480   6.470 -0.3158 -0.3365 -0.5713
  499MOL0     C68740   1.912   4.525   6.622  0.4522 -0.1528 -0.2106
  499MOL0     N68741   1.924   4.669   6.651 -0.4369  0.1166  1.0159
  499MOL0     C68742   2.036   4.747   6.629  0.0488  0.1164  0.1039
  499MOL0     C68743   1.995   4.865   6.677 -0.8210 -0.2022  0.4575
  499MOL0     C68744   2.074   4.993   6.684  0.1765  0.0788 -0.5208
  499MOL0     C68745   2.158   5.025   6.558  0.3532  0.3996 -0.0197
  499MOL0     C68746   2.245   5.143   6.579 -0.8085  0.9641 -0.6965
  499MOL0     C68747   2.327   5.176   6.457 -0.6735 -0.6738 -0.0759
  499MOL0     O68748   2.409   5.067   6.412  0.1254 -0.3277  0.7791
  499MOL0     C68749   2.477   5.096   6.295 -0.0190 -0.4974 -0.2059
  499MOL0     C68750   2.409   5.094   6.176 -0.1282 -0.0897  0.5729
  499MOL0     C68751   2.471   5.090   6.050  0.4617  0.7737  0.0063
  499MOL0     C68752   2.376   5.091   5.933  0.5520  0.3347  0.0883
  499MOL0     C68753   2.615   5.089   6.045 -0.1042  0.0270  0.5012
  499MOL0     C68754   2.686   5.115   5.916 -0.5899  0.0794  0.0689
  499MOL0     O68755   2.824   5.084   5.911 -0.3400  0.3080  0.4921
  499MOL0     C68756   2.900   5.106   5.796  0.4483 -0.0921  0.2042
  499MOL0     C68757   3.009   5.019   5.784 -0.2485  0.4442  0.5201
  499MOL0     C68758   3.113   5.039   5.689  0.2953  0.1028  0.5520
  499MOL0     C68759   3.099   5.153   5.603  0.2370 -0.7957 -0.3897
  499MOL0     O68760   3.181   5.198   5.499  0.0856 -0.0176 -1.0728
  499MOL0     C68761   3.282   5.100   5.458  1.0932 -0.4235  0.8981
  499MOL0     C68762   3.363   5.172   5.361 -0.2680 -0.0526  0.5197
  499MOL0     C68763   3.471   5.082   5.302 -0.0523  1.0006 -0.4209
  499MOL0     C68764   3.562   5.154   5.220 -0.5264  0.3577  0.3836
  499MOL0     C68765   3.648   5.075   5.121 -0.3047 -0.1750  0.8012
  499MOL0     C68766   3.730   4.967   5.188 -0.6622  0.0936 -0.7300
  499MOL0     C68767   3.779   4.864   5.087 -0.1604 -0.3611 -0.1123
  499MOL0     C68768   3.855   4.757   5.158  0.1605  0.2616  0.6347
  499MOL0    Cl68769   3.991   4.831   5.245  0.5342  0.4784 -0.1977
  499MOL0     C68770   2.982   5.221   5.597  0.6345 -0.5075 -0.1459
  499MOL0     C68771   2.884   5.202   5.696 -0.2004  0.2047  0.4355
  499MOL0     O68772   2.622   5.165   5.824 -0.3938 -0.0137 -0.7802
  499MOL0     C68773   2.684   5.093   6.167 -0.0240 -0.0364 -0.5981
  499MOL0     C68774   2.618   5.084   6.285  0.3746 -0.4481  0.2858
  499MOL0     N68775   1.867   4.868   6.719  0.3533  0.2083 -0.0489
  499MOL0     N68776   1.821   4.744   6.693 -0.1695 -0.2272 -0.3277
  499MOL0     C68777   0.883   4.567   6.216  1.7210  0.2772  0.0611
  499MOL0     C68778   0.745   4.555   6.197 -0.0796  0.6903  0.6159
  499MOL0     C68779   0.322   4.547   6.038 -0.8052  0.3418 -0.0245
  499MOL0     C68780   0.266   4.659   6.097 -0.6064 -0.2535 -0.1401
  499MOL0     C68781   0.128   4.677   6.109 -0.2927  0.5817  0.6398
  499MOL0     C68782   0.042   4.593   6.037 -0.2542  0.4402  0.1249
  499MOL0     O68783  -0.095   4.598   6.044  0.1611  0.9530  0.2902
  499MOL0     C68784  -0.149   4.570   6.177  0.3075  0.7797 -0.3264
  499MOL0     C68785  -0.308   4.574   6.170 -0.3143 -0.6088  0.2038
  499MOL0     C68786  -0.348   4.709   6.111  0.2373 -0.1708 -0.5063
  499MOL0     C68787  -0.504   4.739   6.122 -0.7822  0.0047 -0.6573
  499MOL0     C68788  -0.586   4.667   6.024 -0.3243 -0.0945 -0.6382
  499MOL0     C68789  -0.639   4.601   5.941  0.0928 -0.1566 -0.2364
  499MOL0     C68790   0.089   4.483   5.966 -1.0208  0.2087 -0.3413
  499MOL0     C68791   0.222   4.457   5.975 -0.0185 -0.3931  0.2967
  499MOL0     C68792   0.277   4.333   5.899 -0.0862 -0.1635 -0.4937
  499MOL0     H68793   0.700   4.818   5.986  0.0728 -1.1232 -0.5169
  499MOL0     H68794   0.944   4.827   6.008  0.5337  0.8924  1.4933
  499MOL0     H68795   1.151   4.500   6.229  0.5546  1.3384  0.3261
  499MOL0     H68796   1.149   4.612   6.366  2.4840  1.2240  1.5680
  499MOL0     H68797   1.374   4.587   6.147  0.0593  1.0911 -0.2502
  499MOL0     H68798   1.342   4.732   6.249 -3.4933  0.5299  1.9643
  499MOL0     H68799   1.391   4.596   6.453 -1.5836 -2.5401  1.2324
  499MOL0     H68800   1.391   4.460   6.354  0.4853  0.2064 -0.9002
  499MOL0     H68801   1.598   4.526   6.228  0.3892 -1.4002  0.8633
  499MOL0     H68802   1.589   4.694   6.301 -0.4545 -0.1880  2.0260
  499MOL0     H68803   1.661   4.435   6.428  2.4308 -0.3725  4.3767
  499MOL0     H68804   1.668   4.593   6.511 -2.1568  1.0719 -1.2614
  499MOL0     H68805   1.843   4.535   6.277 -0.7828  1.8765 -1.1907
  499MOL0     H68806   1.849   4.667   6.390  2.2414 -0.7859  0.8411
  499MOL0     H68807   2.016   4.491   6.435  0.5048 -1.4017  1.4048
  499MOL0     H68808   1.894   4.373   6.467  0.1153 -0.4033 -1.0237
  499MOL0     H68809   1.820   4.491   6.671  0.5626  1.4773  1.2523
  499MOL0     H68810   1.985   4.460   6.672 -0.7648 -0.6243  1.0320
  499MOL0     H68811   2.139   4.722   6.609  0.4127 -0.0758  1.9789
  499MOL0     H68812   2.148   4.976   6.763 -0.6053 -2.5256 -0.2731
  499MOL0     H68813   2.012   5.078   6.714  2.4998  2.1687 -1.2142
  499MOL0     H68814   2.212   4.936   6.524  0.2317  0.6281 -0.8473
  499MOL0     H68815   2.093   5.057   6.476  1.1978  1.8077 -0.1671
  499MOL0     H68816   2.186   5.230   6.608  0.5701  1.1835  1.6967
  499MOL0     H68817   2.307   5.127   6.667 -3.7134  0.2952  1.3767
  499MOL0     H68818   2.256   5.207   6.379  2.0511  0.2848 -2.3938
  499MOL0     H68819   2.391   5.257   6.494  0.9466 -0.9772 -2.0140
  499MOL0     H68820   2.302   5.109   6.187  0.0140  2.0282 -0.3958
  499MOL0     H68821   2.350   5.193   5.903  0.9903  0.2110 -0.7288
  499MOL0     H68822   2.286   5.037   5.964 -0.4930  2.3374  0.7448
  499MOL0     H68823   2.407   5.040   5.842  2.7603 -1.4912  1.7565
  499MOL0     H68824   3.015   4.944   5.862 -2.4571 -1.7350 -1.2594
  499MOL0     H68825   3.205   4.983   5.706 -1.4621 -2.4724  2.4195
  499MOL0     H68826   3.335   5.050   5.539  1.0991 -3.8098 -0.9875
  499MOL0     H68827   3.235   5.020   5.399 -0.3378 -0.2113  1.7060
  499MOL0     H68828   3.292   5.208   5.286  2.3566  3.4194 -0.5718
  499MOL0     H68829   3.406   5.259   5.412 -0.3809  0.8384 -0.8698
  499MOL0     H68830   3.416   5.004   5.249 -1.4866 -0.2003  2.5703
  499MOL0     H68831   3.530   5.037   5.382  2.2556  0.5539 -2.2798
  499MOL0     H68832   3.622   5.223   5.280 -1.9205  1.0860  0.9739
  499MOL0     H68833   3.504   5.220   5.155 -0.5493  1.6634  1.6947
  499MOL0     H68834   3.592   5.021   5.044 -0.1034  0.1124  0.4533
  499MOL0     H68835   3.725   5.143   5.083 -0.3854 -0.1208  0.7344
  499MOL0     H68836   3.665   4.903   5.250 -0.1792 -0.9977 -1.3281
  499MOL0     H68837   3.809   5.005   5.253  1.1459 -0.2807 -2.5946
  499MOL0     H68838   3.857   4.902   5.020 -0.0862  0.3772  0.3748
  499MOL0     H68839   3.697   4.811   5.040 -0.8300  1.1809 -0.7523
  499MOL0     H68840   3.895   4.699   5.074 -1.5637  0.0431 -0.0763
  499MOL0     H68841   3.798   4.691   5.224  0.0717 -0.1349  0.1644
  499MOL0     H68842   2.972   5.297   5.520  2.4846 -1.1689 -1.0843
  499MOL0     H68843   2.797   5.266   5.697  1.1425  2.1441 -0.6711
  499MOL0     H68844   2.791   5.111   6.155  0.4262 -2.5452 -0.9357
  499MOL0     H68845   2.675   5.077   6.377  0.5128  2.5286  0.5160
  499MOL0     H68846   0.924   4.502   6.293 -0.1361  0.5371  1.3260
  499MOL0     H68847   0.675   4.491   6.251 -3.3586  1.6998 -2.1183
  499MOL0     H68848   0.327   4.743   6.130 -0.2878  0.2609 -1.9084
  499MOL0     H68849   0.085   4.763   6.161 -0.6430  0.1835  1.0147
  499MOL0     H68850  -0.113   4.471   6.204 -0.2242  0.6574 -0.0580
  499MOL0     H68851  -0.109   4.652   6.238  2.7866  0.0687 -0.8734
  499MOL0     H68852  -0.359   4.557   6.264  1.5204 -0.6027  1.2520
  499MOL0     H68853  -0.327   4.492   6.100  0.1630 -1.8595  1.5055
  499MOL0     H68854  -0.296   4.780   6.176  0.6860  0.2030 -1.2586
  499MOL0     H68855  -0.319   4.707   6.006  1.9990  0.8370 -0.0844
  499MOL0     H68856  -0.523   4.846   6.111  0.3353  0.0788 -2.2533
  499MOL0     H68857  -0.537   4.709   6.221  0.1626 -1.9183 -0.8706
  499MOL0     H68858  -0.684   4.535   5.869  4.6692 -2.2717 -1.4836
  499MOL0     H68859   0.010   4.419   5.929 -0.7741  1.1266 -2.6037
  499MOL0     H68860   0.204   4.255   5.875 -2.9624  1.4760  2.1619
  499MOL0     H68861   0.333   4.359   5.809 -0.6979  1.1255 -0.5191
  499MOL0     H68862   0.340   4.276   5.969  1.2781  2.3749  0.4622
  500MOL0     O68863   1.609   3.133   2.240  0.0165  0.9274 -0.4205
  500MOL0     C68864   1.557   3.246   2.239  0.2213  0.1423 -0.3949
  500MOL0     O68865   1.577   3.344   2.327 -0.3023  0.3601 -0.0201
  500MOL0     C68866   1.685   3.341   2.412 -0.0176  0.1748 -0.5491
  500MOL0     C68867   1.662   3.324   2.546 -0.1940 -0.0756 -0.2537
  500MOL0     C68868   1.770   3.309   2.631  0.3968 -0.6453  0.6559
  500MOL0     C68869   1.901   3.314   2.589  0.3759 -0.8029 -0.3022
  500MOL0     O68870   2.010   3.295   2.667 -0.0888  0.4431 -0.4305
  500MOL0     C68871   2.003   3.359   2.798 -0.3213 -0.7150 -0.0406
  500MOL0     C68872   2.135   3.345   2.867 -0.3186  0.6411 -0.0999
  500MOL0     C68873   2.256   3.412   2.802  0.3740  0.0086  0.1433
  500MOL0     C68874   2.336   3.337   2.699 -0.9967 -0.0025  0.0464
  500MOL0     C68875   2.429   3.435   2.626 -0.5469  1.0430 -0.2748
  500MOL0     C68876   2.465   3.387   2.483  0.4067  0.2717 -0.4485
  500MOL0     C68877   2.555   3.262   2.490  0.2878  0.4056  1.1709
  500MOL0     C68878   2.674   3.274   2.587  0.1210  0.3017 -0.5943
  500MOL0     N68879   2.760   3.157   2.604 -0.5709 -0.2940  0.3813
  500MOL0     C68880   2.837   3.085   2.514 -0.4341 -0.7775 -1.0595
  500MOL0     C68881   2.909   2.999   2.587  0.5885 -0.1505  0.4125
  500MOL0     C68882   2.981   2.877   2.537  0.4366 -0.2476 -0.7607
  500MOL0     C68883   3.132   2.899   2.531  0.9906  0.1399 -1.1806
  500MOL0     C68884   3.174   3.001   2.418 -0.0906 -0.0554 -0.0739
  500MOL0     C68885   3.329   3.011   2.417  1.5042 -0.1752 -0.3606
  500MOL0     O68886   3.377   2.900   2.343 -1.0773 -0.3619 -0.1642
  500MOL0     C68887   3.506   2.868   2.314  1.2045 -0.4619 -0.7326
  500MOL0     C68888   3.607   2.944   2.345 -0.7440 -0.3566 -0.2718
  500MOL0     C68889   3.745   2.916   2.312 -0.1915 -0.5081 -0.7720
  500MOL0     C68890   3.854   3.013   2.353  0.1004 -0.4350 -0.3113
  500MOL0     C68891   3.764   2.785   2.255  1.0238  0.2872  1.1672
  500MOL0     C68892   3.895   2.720   2.229 -0.2027 -0.6635 -0.3143
  500MOL0     O68893   3.994   2.807   2.194  0.2054 -0.3278  0.0307
  500MOL0     C68894   4.108   2.767   2.127  0.0593  0.1850  0.2389
  500MOL0     C68895   4.114   2.670   2.028  1.0852 -0.0964  0.9231
  500MOL0     C68896   4.224   2.651   1.940 -0.6016 -0.0434  0.5941
  500MOL0     C68897   4.343   2.724   1.973  0.5628  0.6470  0.0198
  500MOL0     O68898   4.458   2.705   1.897  0.5978 -0.6117  0.3507
  500MOL0     C68899   4.582   2.767   1.933 -0.7224  1.0670  0.3757
  500MOL0     C68900   4.588   2.907   1.883 -0.6938  0.3630  0.5272
  500MOL0     C68901   4.625   2.907   1.729  0.6717  0.0248  0.6708
  500MOL0     C68902   4.771   2.882   1.691  0.1955  0.7733  0.6543
  500MOL0     C68903   4.860   2.999   1.728 -1.0925 -0.2670  0.3339
  500MOL0     C68904   5.001   2.970   1.662 -0.1944 -0.2037  0.0951
  500MOL0     C68905   5.109   3.077   1.703 -0.3461 -0.3472  1.0455
  500MOL0     C68906   5.106   3.103   1.858 -1.3700 -0.1973 -0.0495
  500MOL0    Cl68907   5.105   2.960   1.949  0.1279 -0.1625  0.6140
  500MOL0     C68908   4.336   2.819   2.082  0.5222  0.1821 -0.2731
  500MOL0     C68909   4.219   2.837   2.146 -0.5761 -0.5601 -1.1911
  500MOL0     O68910   3.910   2.596   2.240  0.4241  0.1632 -0.1103
  500MOL0     C68911   3.653   2.704   2.222  0.0648  0.0357  0.1762
  500MOL0     C68912   3.522   2.744   2.250 -0.6383 -0.5841 -0.0792
  500MOL0     N68913   2.889   3.024   2.716  0.0508  0.5158 -0.5192
  500MOL0     N68914   2.792   3.110   2.728 -0.4186 -0.7473  0.1619
  500MOL0     C68915   1.913   3.334   2.455 -0.6376  0.7458 -0.6539
  500MOL0     C68916   1.810   3.351   2.368 -0.3613  0.0093 -1.0980
  500MOL0     C68917   1.447   3.254   2.141 -0.0739  0.2772 -0.1008
  500MOL0     C68918   1.456   3.187   2.016 -0.7728  1.2447 -0.3422
  500MOL0     C68919   1.365   3.203   1.908  0.3355  0.4017 -0.3143
  500MOL0     C68920   1.261   3.294   1.923 -0.2335  0.4931  0.2704
  500MOL0     O68921   1.165   3.330   1.830 -0.7847 -0.0632 -0.4076
  500MOL0     C68922   1.163   3.271   1.700 -0.4252  0.3027  0.8842
  500MOL0     C68923   1.043   3.316   1.624  0.8997  0.2254  0.5170
  500MOL0     C68924   1.036   3.250   1.482 -0.4445  0.1030  0.5078
  500MOL0     C68925   0.894   3.269   1.413  0.0063  0.6595  0.5829
  500MOL0     C68926   0.893   3.225   1.271  0.5156 -0.7429 -0.1495
  500MOL0     C68927   0.895   3.199   1.158  0.0427  0.2435  0.3687
  500MOL0     C68928   1.243   3.362   2.046 -0.2613  0.5529  0.0471
  500MOL0     C68929   1.338   3.345   2.159 -0.2730 -0.4743 -0.2759
  500MOL0     C68930   1.303   3.414   2.282  0.4010 -0.2463 -1.8581
  500MOL0     H68931   1.560   3.313   2.583 -0.2613  2.0813  0.3463
  500MOL0     H68932   1.748   3.283   2.734  1.2414 -1.0042  0.7506
  500MOL0     H68933   1.926   3.310   2.859 -0.9121  0.8931  0.5621
  500MOL0     H68934   1.978   3.465   2.790  0.2201 -0.0353  4.5566
  500MOL0     H68935   2.126   3.374   2.972 -1.5459  1.1658 -0.3220
  500MOL0     H68936   2.166   3.241   2.872 -0.9609  0.2653 -2.6065
  500MOL0     H68937   2.217   3.501   2.750 -2.6841 -2.8162 -2.9188
  500MOL0     H68938   2.311   3.451   2.888 -0.2119 -0.6317  0.8237
  500MOL0     H68939   2.385   3.255   2.752  0.5849  1.1607  0.4360
  500MOL0     H68940   2.262   3.288   2.635  0.3050 -0.2990 -1.2773
  500MOL0     H68941   2.521   3.445   2.686  0.1688  1.0491 -1.3474
  500MOL0     H68942   2.385   3.535   2.626 -1.3246  0.7076 -0.2080
  500MOL0     H68943   2.372   3.365   2.430  0.7469 -3.1938  0.1760
  500MOL0     H68944   2.515   3.467   2.427  1.3346 -1.6091 -2.4519
  500MOL0     H68945   2.589   3.251   2.386  1.3073  0.9019  1.4308
  500MOL0     H68946   2.494   3.178   2.523  0.5033 -0.4741 -0.5497
  500MOL0     H68947   2.735   3.362   2.567 -0.9484  0.6272 -2.6455
  500MOL0     H68948   2.630   3.278   2.687  0.6494 -2.2091 -0.1989
  500MOL0     H68949   2.825   3.089   2.406  0.7422 -3.4736 -1.3649
  500MOL0     H68950   2.932   2.853   2.442 -1.0724 -0.5552  0.0573
  500MOL0     H68951   2.964   2.794   2.606 -0.4542 -0.0112 -0.6854
  500MOL0     H68952   3.171   2.922   2.630 -2.8796 -2.1677  1.1532
  500MOL0     H68953   3.177   2.803   2.503  1.0053 -1.0657  2.5296
  500MOL0     H68954   3.125   2.975   2.324 -1.2579  1.0001  0.2084
  500MOL0     H68955   3.138   3.099   2.452  1.9072 -0.5178  4.0045
  500MOL0     H68956   3.356   3.103   2.364  1.0720 -0.6970 -1.5260
  500MOL0     H68957   3.370   3.016   2.518 -0.5216 -1.4830  0.5868
  500MOL0     H68958   3.589   3.040   2.391  2.0554  0.5009 -0.7299
  500MOL0     H68959   3.857   3.011   2.463 -1.2332 -0.3699 -0.2494
  500MOL0     H68960   3.819   3.115   2.334 -4.4254 -1.5108  0.8586
  500MOL0     H68961   3.956   2.997   2.320  1.1350  2.7162  0.9361
  500MOL0     H68962   4.030   2.606   2.005  2.3526 -1.1938 -0.8812
  500MOL0     H68963   4.207   2.598   1.846 -2.3418 -1.7609  1.7870
  500MOL0     H68964   4.582   2.758   2.042  1.1032 -0.1478  0.3189
  500MOL0     H68965   4.670   2.714   1.897 -0.8816  0.7840  0.4012
  500MOL0     H68966   4.485   2.940   1.903 -1.7101 -0.9135 -2.2123
  500MOL0     H68967   4.662   2.968   1.937  1.3513 -1.3346 -0.2243
  500MOL0     H68968   4.592   3.001   1.683  2.8120  0.7346  0.4697
  500MOL0     H68969   4.558   2.833   1.686  0.0515 -0.9911  3.1943
  500MOL0     H68970   4.775   2.858   1.585 -0.0931 -0.7983  0.9813
  500MOL0     H68971   4.800   2.793   1.748 -0.5430 -0.6578 -1.1033
  500MOL0     H68972   4.825   3.091   1.680 -3.8517 -1.0559  0.6439
  500MOL0     H68973   4.864   3.013   1.836  1.9946 -2.7311  0.6818
  500MOL0     H68974   4.990   2.963   1.554 -1.0740 -0.4203  0.1942
  500MOL0     H68975   5.038   2.868   1.677 -2.4478 -1.6690 -3.2503
  500MOL0     H68976   5.083   3.166   1.646 -0.0397 -0.6191  0.4763
  500MOL0     H68977   5.211   3.045   1.681  0.3936  0.8255  2.5555
  500MOL0     H68978   5.020   3.167   1.877 -0.3112  1.6371 -1.2196
  500MOL0     H68979   5.202   3.148   1.885 -1.7289  0.5762 -0.0527
  500MOL0     H68980   4.418   2.875   2.126  1.6777  0.3636 -2.4956
  500MOL0     H68981   4.228   2.915   2.220  0.1054  1.2846 -3.1358
  500MOL0     H68982   3.664   2.612   2.166  0.7730 -0.9171  1.8153
  500MOL0     H68983   3.436   2.698   2.203  0.0092 -0.0785 -1.8480
  500MOL0     H68984   2.016   3.331   2.422 -0.6765 -0.0143 -0.7184
  500MOL0     H68985   1.837   3.368   2.265  1.1893  0.1368 -0.7031
  500MOL0     H68986   1.551   3.137   1.999 -0.5469  1.4692  0.2301
  500MOL0     H68987   1.383   3.154   1.813 -1.6925  2.0620 -1.6505
  500MOL0     H68988   1.256   3.299   1.652 -0.4408  0.6792  1.0725
  500MOL0     H68989   1.167   3.162   1.707  1.3753  0.2941  0.1252
  500MOL0     H68990   1.046   3.423   1.600  0.7798  0.4576  1.5131
  500MOL0     H68991   0.948   3.299   1.676 -0.4544  3.6205 -0.5707
  500MOL0     H68992   1.117   3.286   1.418  0.7465  0.9753  2.4569
  500MOL0     H68993   1.043   3.141   1.491  0.5788  0.3091  3.0277
  500MOL0     H68994   0.867   3.375   1.411 -1.0254  0.3991 -0.5443
  500MOL0     H68995   0.823   3.216   1.477  1.5640 -2.5727 -0.1410
  500MOL0     H68996   0.901   3.179   1.053 -0.5049  0.4644  0.2897
  500MOL0     H68997   1.155   3.423   2.065 -1.6466 -1.7728  1.6379
  500MOL0     H68998   1.317   3.350   2.370 -3.9566 -0.7342 -1.3085
  500MOL0     H68999   1.366   3.503   2.298  1.6405 -1.2102 -1.2041
  500MOL0     H69000   1.199   3.445   2.290  0.1781 -1.4407  2.9970
  501MOL0     O69001   1.547  10.773   7.138 -0.8303 -0.3342  1.3302
  501MOL0     C69002   1.490  10.696   7.060  0.4435 -0.0720 -0.3252
  501MOL0     O69003   1.550  10.597   6.987 -0.3077  0.0984  0.5686
  501MOL0     C69004   1.681  10.569   7.005 -0.5452  0.1709  0.0170
  501MOL0     C69005   1.782  10.666   7.012 -0.3943 -0.4011 -0.0235
  501MOL0     C69006   1.911  10.632   7.036 -0.5568 -0.1956  0.8859
  501MOL0     C69007   1.955  10.496   7.038  0.1117 -0.2961  0.0442
  501MOL0     O69008   2.090  10.480   7.049 -0.0876 -0.1216 -0.0961
  501MOL0     C69009   2.130  10.352   7.112 -0.4034 -0.3127 -0.8916
  501MOL0     C69010   2.286  10.324   7.101  0.2055  0.3439 -0.0898
  501MOL0     C69011   2.340  10.309   6.954 -0.1469  0.7280 -0.0230
  501MOL0     C69012   2.490  10.283   6.963  0.3412  0.2032  0.6298
  501MOL0     C69013   2.564  10.255   6.833 -0.3524  0.4156 -0.2678
  501MOL0     C69014   2.714  10.231   6.860 -0.1732  0.3417  0.0610
  501MOL0     C69015   2.788  10.359   6.909  0.8313  0.5798 -0.8846
  501MOL0     C69016   2.931  10.324   6.959  1.2665 -0.4921  0.2509
  501MOL0     N69017   2.935  10.223   7.063  0.0601  0.4116 -0.0320
  501MOL0     C69018   2.961  10.091   7.050 -0.0806 -0.5238 -0.0855
  501MOL0     C69019   2.943  10.034   7.169  0.0178 -0.0279  0.5528
  501MOL0     C69020   2.953   9.880   7.183 -0.5091 -0.2729 -0.0028
  501MOL0     C69021   3.081   9.825   7.253 -0.3570 -0.7988 -0.4307
  501MOL0     C69022   3.091   9.672   7.228  0.5517 -1.6879  0.7044
  501MOL0     C69023   3.219   9.629   7.286  0.3079  0.2365  0.1022
  501MOL0     O69024   3.286   9.574   7.167  0.3864 -0.2818 -0.3893
  501MOL0     C69025   3.378   9.648   7.100 -0.0780 -0.1585  0.3096
  501MOL0     C69026   3.436   9.600   6.981 -0.0303  0.6568  0.0502
  501MOL0     C69027   3.536   9.661   6.903  0.4768  0.0512 -0.2793
  501MOL0     C69028   3.554   9.611   6.758 -0.0050 -0.0154  0.2683
  501MOL0     C69029   3.596   9.779   6.960 -0.3041  0.4949 -0.0192
  501MOL0     C69030   3.725   9.836   6.918  0.0419 -0.7141  0.4076
  501MOL0     O69031   3.773   9.942   6.994  0.1264 -0.3522  0.4098
  501MOL0     C69032   3.888   9.998   6.947  0.6654 -0.0801 -0.9964
  501MOL0     C69033   3.870  10.134   6.907  0.1271  0.4341  0.4198
  501MOL0     C69034   3.978  10.205   6.850  0.4286 -0.5088  0.0336
  501MOL0     C69035   4.093  10.130   6.826 -0.1281 -0.7692  0.3309
  501MOL0     O69036   4.201  10.181   6.763 -0.2666 -0.1911 -0.7777
  501MOL0     C69037   4.254  10.296   6.829  0.1580 -0.6496 -0.3288
  501MOL0     C69038   4.396  10.337   6.777 -0.4267  0.1229  0.5479
  501MOL0     C69039   4.476  10.214   6.742 -0.0493  1.0109  0.1900
  501MOL0     C69040   4.602  10.264   6.663 -0.0381  0.2681  0.9600
  501MOL0     C69041   4.706  10.148   6.670 -0.2935 -0.3011 -0.5763
  501MOL0     C69042   4.825  10.181   6.574  0.7694  0.2737 -0.4534
  501MOL0     C69043   4.942  10.095   6.580 -0.0779 -0.1001  0.2657
  501MOL0     C69044   5.032  10.084   6.459  0.1124 -0.0690  0.0898
  501MOL0    Cl69045   5.175  10.000   6.496  0.3029  0.1014  0.5484
  501MOL0     C69046   4.112  10.009   6.884  0.2716  0.4488  0.6410
  501MOL0     C69047   4.009   9.939   6.936  0.1201  0.2734 -0.0572
  501MOL0     O69048   3.778   9.796   6.816 -0.4761  0.6589  0.1980
  501MOL0     C69049   3.529   9.839   7.072  0.6706  0.1335 -0.2825
  501MOL0     C69050   3.427   9.773   7.139 -0.3740  0.4112 -0.1963
  501MOL0     N69051   2.906  10.128   7.265 -0.6161  0.0280  0.0819
  501MOL0     N69052   2.895  10.241   7.196  0.4829  0.3002 -0.8811
  501MOL0     C69053   1.856  10.398   7.021  0.1300 -0.4332  1.0259
  501MOL0     C69054   1.722  10.436   7.012 -0.4323 -0.1553  0.1493
  501MOL0     C69055   1.342  10.719   7.048  0.0039  0.1531 -0.6614
  501MOL0     C69056   1.262  10.614   6.985 -0.7896 -0.2223  0.3986
  501MOL0     C69057   1.127  10.651   6.956 -0.5359 -0.3593 -0.3402
  501MOL0     C69058   1.065  10.775   6.982 -0.3328  0.5203  0.6234
  501MOL0     O69059   0.934  10.810   6.961  0.0640  0.1680  0.3691
  501MOL0     C69060   0.862  10.719   6.883  0.5023  0.1064  0.0900
  501MOL0     C69061   0.709  10.746   6.896  0.3215  0.4283 -0.1024
  501MOL0     C69062   0.668  10.771   7.038 -1.1199 -1.1296  0.2329
  501MOL0     C69063   0.514  10.791   7.046 -0.7904 -0.5088 -0.4832
  501MOL0     C69064   0.457  10.754   7.181 -1.2065  0.5960  0.3660
  501MOL0     C69065   0.416  10.732   7.295  0.9341  0.1148 -0.5765
  501MOL0     C69066   1.144  10.863   7.063  0.7112  0.0567  0.4506
  501MOL0     C69067   1.282  10.839   7.092  0.1404  0.1580 -0.9380
  501MOL0     C69068   1.348  10.956   7.156  0.1708  0.1512  0.4318
  501MOL0     H69069   1.759  10.771   6.997  0.5482 -0.3349 -1.1710
  501MOL0     H69070   1.986  10.709   7.052 -0.1680 -0.3944  0.0492
  501MOL0     H69071   2.076  10.270   7.064 -3.1051  1.8775 -1.8512
  501MOL0     H69072   2.106  10.349   7.219  1.1840 -3.8927 -0.4613
  501MOL0     H69073   2.343  10.407   7.144 -1.2734  1.3989 -0.0865
  501MOL0     H69074   2.300  10.233   7.160 -1.3900  0.7368  0.9758
  501MOL0     H69075   2.292  10.223   6.908 -2.5953  1.2584  1.3746
  501MOL0     H69076   2.312  10.397   6.895 -0.9146 -0.4184 -1.4564
  501MOL0     H69077   2.539  10.360   7.024 -0.6782  1.9483 -0.6246
  501MOL0     H69078   2.501  10.189   7.018 -0.9140 -2.1594 -2.8285
  501MOL0     H69079   2.544  10.341   6.769  4.9226  1.2571 -1.2847
  501MOL0     H69080   2.518  10.165   6.793 -2.8284 -0.0621  3.1711
  501MOL0     H69081   2.731  10.145   6.926 -1.0785  0.2416  0.1773
  501MOL0     H69082   2.760  10.215   6.762  2.6205  2.0023  0.9816
  501MOL0     H69083   2.731  10.413   6.985  1.0590  0.3859 -0.5720
  501MOL0     H69084   2.777  10.429   6.826 -0.6309 -0.7977 -1.9216
  501MOL0     H69085   2.988  10.292   6.871  0.0888 -0.5872 -0.5029
  501MOL0     H69086   2.981  10.413   7.000  1.2601 -1.3127  2.1158
  501MOL0     H69087   2.994  10.027   6.968  2.8471 -2.1903  2.1894
  501MOL0     H69088   2.937   9.831   7.087  0.4063  0.0261 -0.3088
  501MOL0     H69089   2.863   9.854   7.240 -0.1099 -2.4008 -0.2604
  501MOL0     H69090   3.166   9.876   7.208 -0.5758 -1.8155 -2.0891
  501MOL0     H69091   3.071   9.855   7.358  2.1918 -3.9341  0.8970
  501MOL0     H69092   3.012   9.630   7.290 -0.4183  0.3727  0.9653
  501MOL0     H69093   3.085   9.650   7.121  1.5498  1.0416  0.0042
  501MOL0     H69094   3.277   9.698   7.348  0.5768  0.1777 -0.0811
  501MOL0     H69095   3.195   9.552   7.360 -2.3483 -0.0421 -0.9577
  501MOL0     H69096   3.387   9.507   6.956  1.3156 -0.8378  2.5703
  501MOL0     H69097   3.657   9.620   6.721 -1.0760  1.0183 -2.8117
  501MOL0     H69098   3.508   9.680   6.686 -0.6744 -0.5585  0.1643
  501MOL0     H69099   3.520   9.508   6.740 -1.2058  0.7327 -2.1824
  501MOL0     H69100   3.773  10.181   6.913  0.0160  0.0764  1.7356
  501MOL0     H69101   3.952  10.309   6.832 -0.6812 -0.7659  0.0609
  501MOL0     H69102   4.189  10.381   6.805  0.7284  0.6333  2.3354
  501MOL0     H69103   4.263  10.277   6.936 -1.0973 -0.3237 -0.1422
  501MOL0     H69104   4.391  10.396   6.686  0.6582 -0.5369  0.0369
  501MOL0     H69105   4.451  10.399   6.849  3.5254  0.1574 -2.1853
  501MOL0     H69106   4.424  10.141   6.679 -1.7881 -0.9140  3.5540
  501MOL0     H69107   4.513  10.163   6.832 -0.5184  2.2329  1.0991
  501MOL0     H69108   4.634  10.352   6.719 -1.9339  0.8701  1.1607
  501MOL0     H69109   4.576  10.299   6.563  0.0713  0.4196  0.9839
  501MOL0     H69110   4.749  10.147   6.770 -0.6092  1.2083 -0.4042
  501MOL0     H69111   4.666  10.048   6.652 -0.1856 -0.3519 -0.5321
  501MOL0     H69112   4.857  10.284   6.592 -0.2052  0.8645 -1.8769
  501MOL0     H69113   4.790  10.174   6.470 -0.6942 -0.9585  0.0922
  501MOL0     H69114   4.903   9.994   6.598  0.2569 -0.7699 -2.3563
  501MOL0     H69115   5.005  10.117   6.667 -1.3699  0.2823  1.1273
  501MOL0     H69116   5.052  10.182   6.414  0.3047 -0.9489 -1.8380
  501MOL0     H69117   4.979  10.039   6.374  0.6810  2.9557 -2.0237
  501MOL0     H69118   4.212   9.966   6.884 -0.3234 -1.0958 -1.3770
  501MOL0     H69119   4.002   9.839   6.980 -0.2898  0.4943  0.3933
  501MOL0     H69120   3.574   9.928   7.115  0.5161 -0.0263  0.2074
  501MOL0     H69121   3.373   9.823   7.219 -2.4107 -0.2710 -1.0776
  501MOL0     H69122   1.878  10.292   7.021 -2.5544 -1.0677 -0.5186
  501MOL0     H69123   1.649  10.358   6.990 -2.1916  1.2693  0.6366
  501MOL0     H69124   1.308  10.518   6.964 -0.1459 -0.0664  1.0525
  501MOL0     H69125   1.070  10.575   6.902  0.8383 -0.0334 -2.3534
  501MOL0     H69126   0.888  10.716   6.777  3.8530 -0.3017  0.8197
  501MOL0     H69127   0.878  10.621   6.929  1.5572  0.3488  0.2590
  501MOL0     H69128   0.657  10.660   6.854 -1.8030 -0.4584  3.8702
  501MOL0     H69129   0.683  10.834   6.837 -1.0770 -2.2516 -3.8319
  501MOL0     H69130   0.681  10.686   7.105 -0.0900 -0.8365  0.4252
  501MOL0     H69131   0.722  10.855   7.084  0.9783 -0.9037 -2.4041
  501MOL0     H69132   0.459  10.744   6.963 -1.5327  1.1884 -1.0059
  501MOL0     H69133   0.498  10.899   7.038 -0.0285 -0.4888 -2.0814
  501MOL0     H69134   0.378  10.715   7.394 -0.7278 -0.1617 -1.2227
  501MOL0     H69135   1.104  10.959   7.094 -3.6054  0.0367 -3.9084
  501MOL0     H69136   1.285  11.043   7.180 -0.6499 -0.4063  0.3437
  501MOL0     H69137   1.381  10.915   7.252 -2.0984  1.8226  2.0392
  501MOL0     H69138   1.428  10.990   7.089 -0.5098 -1.1959 -1.1283
  502MOL0     O69139  10.897   4.613   9.924 -0.1706  0.9408 -0.2665
  502MOL0     C69140  10.885   4.674  10.028  0.8246 -0.4072  0.3004
  502MOL0     O69141  10.977   4.735  10.096 -0.5733 -0.1522 -0.1083
  502MOL0     C69142  11.104   4.709  10.053 -0.1455  0.7145  0.0307
  502MOL0     C69143  11.172   4.584  10.091  0.0278 -1.1082  0.3351
  502MOL0     C69144  11.289   4.553  10.020  1.1348 -0.2240  0.3883
  502MOL0     C69145  11.359   4.648   9.948 -1.1248  0.1107  0.3146
  502MOL0     O69146  11.485   4.609   9.900 -0.2278 -0.2901  0.1214
  502MOL0     C69147  11.579   4.710   9.868  0.3305  0.5156  0.5742
  502MOL0     C69148  11.717   4.653   9.847  0.1360  0.4551  0.4990
  502MOL0     C69149  11.769   4.590   9.980  0.8076  0.5975  0.8656
  502MOL0     C69150  11.914   4.556   9.965  0.7110  0.0433 -0.2340
  502MOL0     C69151  11.959   4.448  10.062  0.0830 -0.9215  0.3509
  502MOL0     C69152  12.114   4.449  10.086  0.3676  0.9920 -0.2487
  502MOL0     C69153  12.161   4.336  10.189  0.5626 -0.4396 -0.0197
  502MOL0     C69154  12.309   4.329  10.207 -0.1674  1.0302 -0.3952
  502MOL0     N69155  12.353   4.421  10.312  0.4820  0.0145 -0.6900
  502MOL0     C69156  12.402   4.386  10.436  0.7595 -0.3003  0.6648
  502MOL0     C69157  12.412   4.505  10.503 -0.1615  0.0680 -0.2850
  502MOL0     C69158  12.480   4.526  10.628 -0.3943  0.0258 -0.4872
  502MOL0     C69159  12.634   4.546  10.597 -0.7850  0.0983 -0.1600
  502MOL0     C69160  12.703   4.602  10.722 -0.6683  0.3663 -0.8907
  502MOL0     C69161  12.854   4.561  10.731  0.9359  0.0894 -0.1373
  502MOL0     O69162  12.906   4.623  10.608  0.6676  0.3515 -0.2222
  502MOL0     C69163  13.039   4.644  10.594 -0.2352  0.8196  0.1564
  502MOL0     C69164  13.094   4.726  10.505 -0.1709 -0.0865 -0.1154
  502MOL0     C69165  13.228   4.737  10.480  0.0605  1.8436  0.0955
  502MOL0     C69166  13.275   4.836  10.370  0.0090 -0.3573  0.4189
  502MOL0     C69167  13.317   4.641  10.545 -0.1272 -0.1785 -0.3602
  502MOL0     C69168  13.457   4.635  10.516 -0.1164 -0.7310 -1.0153
  502MOL0     O69169  13.525   4.517  10.537  0.3401 -0.4763 -0.0920
  502MOL0     C69170  13.649   4.511  10.487  0.3262  0.4642  0.0209
  502MOL0     C69171  13.752   4.504  10.580 -0.0390  1.0111 -0.3483
  502MOL0     C69172  13.886   4.490  10.535 -0.5576 -0.0897 -0.8073
  502MOL0     C69173  13.911   4.485  10.401  0.3285  0.8396  0.5204
  502MOL0     O69174  14.043   4.455  10.372 -0.8034 -0.3998  0.2189
  502MOL0     C69175  14.100   4.534  10.271 -0.4328 -0.5936  0.0628
  502MOL0     C69176  14.245   4.568  10.296  0.0320 -0.3692  0.3656
  502MOL0     C69177  14.340   4.448  10.260  0.6754  0.1745 -1.1488
  502MOL0     C69178  14.491   4.478  10.293  0.3449 -0.4831 -0.7317
  502MOL0     C69179  14.588   4.355  10.315  1.0678  0.3994 -0.0388
  502MOL0     C69180  14.721   4.408  10.380  0.1097 -0.2821  1.0006
  502MOL0     C69181  14.721   4.401  10.535 -0.1995 -0.3967 -0.0939
  502MOL0     C69182  14.858   4.404  10.597  0.2350  0.5130 -0.9829
  502MOL0    Cl69183  14.882   4.298  10.746 -0.1752  0.0033 -0.0271
  502MOL0     C69184  13.803   4.499  10.309  0.0851  0.2253  0.1606
  502MOL0     C69185  13.678   4.515  10.348 -0.1567 -0.0347 -0.5317
  502MOL0     O69186  13.507   4.750  10.502 -0.1760  0.1867 -0.7397
  502MOL0     C69187  13.265   4.553  10.644  1.3360  0.9113  0.0664
  502MOL0     C69188  13.124   4.556  10.661 -0.6479  0.8350  0.4323
  502MOL0     N69189  12.385   4.609  10.421  1.3367  0.3067 -0.3817
  502MOL0     N69190  12.348   4.559  10.310  0.0274 -0.3377  0.1437
  502MOL0     C69191  11.303   4.773   9.933  0.8696  0.5890 -0.4923
  502MOL0     C69192  11.171   4.801   9.976  0.7861  0.2372  0.2183
  502MOL0     C69193  10.741   4.691  10.082 -0.5255 -0.3423  0.4351
  502MOL0     C69194  10.719   4.797  10.167 -0.1724  0.0286 -0.2876
  502MOL0     C69195  10.608   4.803  10.243  0.3914 -0.4302  0.6946
  502MOL0     C69196  10.504   4.704  10.236 -0.1044 -0.0956 -0.0175
  502MOL0     O69197  10.399   4.690  10.322  0.1799 -0.1045  0.2966
  502MOL0     C69198  10.407   4.769  10.444 -0.6255  0.3563  0.3265
  502MOL0     C69199  10.308   4.887  10.439  0.1712  1.1085  0.3899
  502MOL0     C69200  10.179   4.860  10.350  0.6863 -1.0405 -0.0199
  502MOL0     C69201  10.065   4.965  10.363  0.3292  0.1914  0.1504
  502MOL0     C69202  10.121   5.098  10.328  0.8652 -0.6964 -0.8642
  502MOL0     C69203  10.142   5.210  10.285 -0.1201  0.7377  0.2348
  502MOL0     C69204  10.517   4.613  10.138 -0.0734  0.2844  0.3508
  502MOL0     C69205  10.641   4.602  10.067  0.6227  0.6095  0.4311
  502MOL0     C69206  10.648   4.474   9.977 -0.5044 -0.4502  0.0178
  502MOL0     H69207  11.132   4.509  10.159  1.4378  0.6283  3.3112
  502MOL0     H69208  11.334   4.457  10.045  0.6318 -0.7901 -0.8057
  502MOL0     H69209  11.575   4.773   9.958 -1.5322 -0.5997  1.3417
  502MOL0     H69210  11.555   4.757   9.773  2.5576 -0.1826 -0.3935
  502MOL0     H69211  11.714   4.578   9.767 -2.4998  0.7463  0.2260
  502MOL0     H69212  11.783   4.729   9.803  0.2803  0.1601  0.1984
  502MOL0     H69213  11.754   4.664  10.060 -2.5666  2.0598 -0.8926
  502MOL0     H69214  11.724   4.492   9.997  2.1210 -0.0597  0.7102
  502MOL0     H69215  11.930   4.507   9.869 -0.4735  1.2341 -1.0785
  502MOL0     H69216  11.968   4.649   9.986  1.7198 -0.8514  1.3722
  502MOL0     H69217  11.932   4.345  10.033 -2.2477  0.0595 -1.3105
  502MOL0     H69218  11.894   4.466  10.148 -0.0998  0.1304  0.0013
  502MOL0     H69219  12.167   4.423   9.994  2.8584 -0.8894  1.5938
  502MOL0     H69220  12.134   4.555  10.104 -2.0767  2.2238 -3.5975
  502MOL0     H69221  12.118   4.240  10.159  0.5542  0.2001 -2.2927
  502MOL0     H69222  12.121   4.372  10.284  0.3784  0.0967 -0.2991
  502MOL0     H69223  12.355   4.231  10.225  0.3331  1.3482  0.0739
  502MOL0     H69224  12.350   4.368  10.113 -0.5701 -0.2556 -1.1411
  502MOL0     H69225  12.422   4.291  10.485 -0.1171 -0.8608 -0.0202
  502MOL0     H69226  12.477   4.434  10.687  1.1341  0.1891 -0.0937
  502MOL0     H69227  12.447   4.617  10.678  1.1279  1.2733 -1.6398
  502MOL0     H69228  12.679   4.449  10.573  0.3764  0.2463  1.2712
  502MOL0     H69229  12.639   4.617  10.513  0.4102  3.4339  2.5156
  502MOL0     H69230  12.695   4.711  10.716  1.2305  0.6803  1.1309
  502MOL0     H69231  12.646   4.572  10.811  1.9870  0.8982  1.1161
  502MOL0     H69232  12.883   4.593  10.831 -1.8287 -1.7577  1.3756
  502MOL0     H69233  12.847   4.454  10.708 -1.2720  0.6367 -2.4126
  502MOL0     H69234  13.019   4.777  10.446 -0.6190 -0.7122 -0.0848
  502MOL0     H69235  13.204   4.912  10.336  1.2064  0.8204  0.5042
  502MOL0     H69236  13.320   4.794  10.280  0.3607 -1.3421  1.0352
  502MOL0     H69237  13.355   4.897  10.413  2.6254 -3.0021 -0.3611
  502MOL0     H69238  13.725   4.514  10.685  2.4425  0.0430  0.4619
  502MOL0     H69239  13.963   4.487  10.612  2.3392  3.3773 -3.2038
  502MOL0     H69240  14.087   4.467  10.186  2.1191 -2.1803  0.8150
  502MOL0     H69241  14.049   4.631  10.262 -1.9840 -1.2942  0.8768
  502MOL0     H69242  14.263   4.656  10.234 -1.3411 -1.9404 -2.5004
  502MOL0     H69243  14.254   4.598  10.401  1.2400 -0.3219  0.2660
  502MOL0     H69244  14.322   4.425  10.155 -0.9724 -0.8678 -0.6757
  502MOL0     H69245  14.309   4.355  10.309  0.9199 -0.5527 -2.3307
  502MOL0     H69246  14.490   4.517  10.395  0.5254  0.9994 -1.2776
  502MOL0     H69247  14.524   4.553  10.220 -1.4721  0.0923 -1.0161
  502MOL0     H69248  14.538   4.289  10.387  0.0587 -0.2116 -1.2569
  502MOL0     H69249  14.606   4.308  10.218 -0.6508  2.8182 -1.6560
  502MOL0     H69250  14.738   4.509  10.342 -2.8043 -0.6695 -1.7861
  502MOL0     H69251  14.802   4.350  10.335  0.2189  2.5494 -2.9637
  502MOL0     H69252  14.682   4.303  10.562 -2.1613  0.1234 -0.8332
  502MOL0     H69253  14.659   4.475  10.587  1.2191 -0.2944  1.5264
  502MOL0     H69254  14.885   4.506  10.622  0.1265  0.4462 -0.5934
  502MOL0     H69255  14.920   4.355  10.521 -1.1880 -2.5480 -0.3393
  502MOL0     H69256  13.838   4.494  10.207  4.2096  1.4563  1.3308
  502MOL0     H69257  13.588   4.528  10.287  0.1645  0.8275 -0.8356
  502MOL0     H69258  13.334   4.488  10.697 -0.4513 -0.5706  0.6630
  502MOL0     H69259  13.083   4.477  10.723 -0.6035 -0.0209 -0.5902
  502MOL0     H69260  11.361   4.846   9.877  1.0631  1.6646  1.0314
  502MOL0     H69261  11.125   4.897   9.953  2.5442  0.4430 -3.0392
  502MOL0     H69262  10.793   4.874  10.185 -0.1846 -0.2512  1.0695
  502MOL0     H69263  10.588   4.882  10.314  0.4854 -1.7557  2.2636
  502MOL0     H69264  10.387   4.713  10.536  2.1510 -0.8856  0.2463
  502MOL0     H69265  10.507   4.808  10.464 -0.4959 -0.2277  0.8317
  502MOL0     H69266  10.360   4.973  10.397  3.4083 -0.4478  0.8329
  502MOL0     H69267  10.274   4.926  10.536  5.6537  1.2965  2.5792
  502MOL0     H69268  10.213   4.846  10.247  0.7713 -1.8185  0.1022
  502MOL0     H69269  10.129   4.765  10.375 -0.3810 -0.3147  0.6995
  502MOL0     H69270  10.028   4.963  10.466 -0.3547 -0.8174 -0.1068
  502MOL0     H69271   9.985   4.941  10.292  0.9092  2.2789 -1.2972
  502MOL0     H69272  10.165   5.305  10.241  1.0776 -1.2499 -3.8434
  502MOL0     H69273  10.428   4.552  10.125  0.1148  0.1197 -0.2097
  502MOL0     H69274  10.743   4.422   9.994 -0.8248 -1.6186 -1.5218
  502MOL0     H69275  10.562   4.412  10.004 -0.4790  1.5416  6.0752
  502MOL0     H69276  10.649   4.512   9.875  2.3588  0.1637  0.1787
  503MOL0     O69277  10.877  10.560  11.341 -0.1300  0.4550 -0.0215
  503MOL0     C69278  10.948  10.599  11.435  0.0004 -0.7465 -0.5686
  503MOL0     O69279  11.063  10.552  11.482 -0.0006  0.1967  0.4113
  503MOL0     C69280  11.107  10.421  11.450  0.1180 -0.0414  0.4380
  503MOL0     C69281  11.248  10.400  11.475  1.3517  0.0602  0.3301
  503MOL0     C69282  11.302  10.275  11.458  0.0978 -0.2501 -0.4095
  503MOL0     C69283  11.222  10.165  11.417 -0.9010 -0.3130 -0.4473
  503MOL0     O69284  11.281  10.047  11.374  0.3687  0.1935  0.3328
  503MOL0     C69285  11.346  10.067  11.243  0.3326  0.5423 -0.2892
  503MOL0     C69286  11.483  10.004  11.248 -0.3396  0.2125  0.4065
  503MOL0     C69287  11.550  10.001  11.114  0.3638  0.3341  0.0721
  503MOL0     C69288  11.684   9.922  11.111  1.3171 -0.5100  0.1945
  503MOL0     C69289  11.745   9.926  10.977  0.8090  0.7715  0.9398
  503MOL0     C69290  11.890   9.882  10.960 -0.3388 -0.3912  0.8059
  503MOL0     C69291  11.980   9.982  11.044  0.1854  0.8029  0.3852
  503MOL0     C69292  12.127   9.956  11.003  0.1781 -0.0604  0.5406
  503MOL0     N69293  12.213  10.066  11.040 -0.1934 -0.1067  0.0548
  503MOL0     C69294  12.346  10.078  11.002  0.4090  0.2344 -0.7656
  503MOL0     C69295  12.379  10.206  11.030 -0.2262 -0.3368 -0.0490
  503MOL0     C69296  12.514  10.267  11.004  0.6292 -0.0385  0.7299
  503MOL0     C69297  12.617  10.198  11.087  0.0304 -0.0034 -0.1121
  503MOL0     C69298  12.755  10.263  11.065  0.9924  0.2200 -0.1923
  503MOL0     C69299  12.762  10.406  11.125 -2.0575 -0.4373  0.2246
  503MOL0     O69300  12.786  10.397  11.264 -0.7563 -0.3257 -0.6857
  503MOL0     C69301  12.869  10.485  11.327  0.5290 -0.3941 -0.2346
  503MOL0     C69302  12.881  10.614  11.289 -0.1631 -0.0876  0.2814
  503MOL0     C69303  12.974  10.706  11.356  0.0923  0.2455  0.2148
  503MOL0     C69304  12.977  10.855  11.306 -0.6865  0.2595  0.2091
  503MOL0     C69305  13.051  10.659  11.462 -0.0665 -0.4079  0.0844
  503MOL0     C69306  13.139  10.743  11.538  1.1365 -0.3711  0.6650
  503MOL0     O69307  13.130  10.880  11.544 -0.0996  0.2067 -0.2880
  503MOL0     C69308  13.229  10.963  11.590 -1.2944 -0.5330 -0.4888
  503MOL0     C69309  13.339  10.936  11.672 -0.9695  0.2880  0.1494
  503MOL0     C69310  13.424  11.048  11.724  0.0209 -0.3536  0.6867
  503MOL0     C69311  13.396  11.174  11.683 -0.4311 -1.8625  0.5567
  503MOL0     O69312  13.490  11.260  11.744  0.2039 -0.2077 -0.0447
  503MOL0     C69313  13.457  11.395  11.728 -0.6087 -0.3250 -0.2676
  503MOL0     C69314  13.537  11.468  11.832  0.2851 -0.4021  0.0301
  503MOL0     C69315  13.687  11.444  11.831 -0.0645 -0.6928  1.2141
  503MOL0     C69316  13.769  11.507  11.714 -0.1914  0.5911 -0.5485
  503MOL0     C69317  13.924  11.500  11.734  0.0340 -0.1031 -0.2997
  503MOL0     C69318  14.013  11.543  11.616 -0.6526  0.0568  0.1317
  503MOL0     C69319  14.161  11.545  11.665 -0.7625 -0.3672  0.5551
  503MOL0     C69320  14.192  11.639  11.787  0.0612 -0.2947  0.0420
  503MOL0    Cl69321  14.347  11.706  11.760 -0.1438  0.2397 -0.1319
  503MOL0     C69322  13.288  11.207  11.595 -0.6366 -0.5916 -0.6661
  503MOL0     C69323  13.208  11.107  11.552 -0.4454  0.0526 -0.3099
  503MOL0     O69324  13.235  10.685  11.577 -0.1291 -0.4610  0.0931
  503MOL0     C69325  13.031  10.520  11.496  0.4567  0.2194 -0.8771
  503MOL0     C69326  12.935  10.436  11.440  0.1823 -0.0876  0.4082
  503MOL0     N69327  12.267  10.274  11.076 -0.2483  0.2930  0.0374
  503MOL0     N69328  12.174  10.186  11.094 -0.5905  0.3652 -0.0911
  503MOL0     C69329  11.091  10.187  11.406  0.4903 -0.3734 -0.1159
  503MOL0     C69330  11.033  10.308  11.424  0.6208 -0.2711  0.4716
  503MOL0     C69331  10.901  10.707  11.534  0.4531 -0.0469 -0.2420
  503MOL0     C69332  10.943  10.701  11.669 -0.9421  0.3591  0.0924
  503MOL0     C69333  10.899  10.802  11.761  0.0593  0.3361  0.1526
  503MOL0     C69334  10.821  10.915  11.727  0.0024  1.4992  0.3126
  503MOL0     O69335  10.779  11.021  11.808 -0.3667 -0.1433  0.3768
  503MOL0     C69336  10.864  11.052  11.922 -1.0215 -0.0225 -0.8976
  503MOL0     C69337  10.889  11.205  11.936 -0.1118  0.4634  0.3479
  503MOL0     C69338  10.928  11.269  11.795  0.4219  0.3731  0.3858
  503MOL0     C69339  10.981  11.411  11.823  0.0239 -0.6902 -0.0563
  503MOL0     C69340  11.114  11.408  11.885 -0.3721  0.4324 -0.8540
  503MOL0     C69341  11.226  11.413  11.933 -0.5514  0.8603  0.1491
  503MOL0     C69342  10.784  10.916  11.592  0.2556 -0.2190 -0.2470
  503MOL0     C69343  10.813  10.813  11.495 -0.4169 -0.7041  0.2872
  503MOL0     C69344  10.768  10.845  11.354 -1.0496 -0.2166 -0.7386
  503MOL0     H69345  11.299  10.492  11.502 -0.1408  0.9883  0.0819
  503MOL0     H69346  11.409  10.274  11.476  0.1570  3.0759  0.1407
  503MOL0     H69347  11.357  10.173  11.218 -2.1239  1.1304  0.8584
  503MOL0     H69348  11.284  10.034  11.159 -1.3065  1.3510  0.5592
  503MOL0     H69349  11.551  10.059  11.314 -0.1780 -0.1513  0.5473
  503MOL0     H69350  11.478   9.902  11.289  1.4713 -1.0992 -2.3319
  503MOL0     H69351  11.485   9.954  11.039  0.2861 -0.3578  0.5688
  503MOL0     H69352  11.556  10.105  11.081 -1.0037  0.5139  0.3466
  503MOL0     H69353  11.751   9.967  11.185  0.0465  1.3558  0.2684
  503MOL0     H69354  11.667   9.815  11.130 -2.9732 -0.0166  0.1236
  503MOL0     H69355  11.741  10.022  10.925 -2.0244 -0.8878 -2.3486
  503MOL0     H69356  11.690   9.854  10.915  2.0874 -0.8756  1.6487
  503MOL0     H69357  11.901   9.778  10.992 -0.0706 -0.3632  0.8062
  503MOL0     H69358  11.923   9.879  10.856 -0.7437 -0.4908  0.6800
  503MOL0     H69359  11.966   9.967  11.151  3.0793 -1.0688  0.6253
  503MOL0     H69360  11.963  10.085  11.010  0.3426  0.3732 -1.0947
  503MOL0     H69361  12.161   9.866  11.055  1.4608  0.5462  0.8113
  503MOL0     H69362  12.142   9.926  10.899  1.1091  1.2803  0.2667
  503MOL0     H69363  12.402   9.997  10.956  0.3219 -0.7599  0.8130
  503MOL0     H69364  12.506  10.374  11.026 -0.8111  0.1253 -0.4363
  503MOL0     H69365  12.546  10.256  10.900  1.6261  0.6576  0.9466
  503MOL0     H69366  12.591  10.205  11.193 -1.1959  1.8435 -0.4784
  503MOL0     H69367  12.626  10.093  11.060 -3.8245 -1.0086  1.7578
  503MOL0     H69368  12.820  10.190  11.114 -0.9163 -1.5946 -0.1932
  503MOL0     H69369  12.784  10.265  10.960 -0.5385 -1.9565 -0.7452
  503MOL0     H69370  12.841  10.468  11.082 -0.7675 -1.2186  1.3958
  503MOL0     H69371  12.670  10.462  11.105 -1.1417  1.0427 -0.0395
  503MOL0     H69372  12.822  10.650  11.205 -0.9223 -0.1523  0.7790
  503MOL0     H69373  13.082  10.869  11.280 -1.1002 -0.1191 -1.8841
  503MOL0     H69374  12.951  10.925  11.386  2.2279  0.7308  0.8349
  503MOL0     H69375  12.910  10.883  11.224  0.3284  2.3214  0.0151
  503MOL0     H69376  13.374  10.841  11.712 -1.9171  0.9555  2.7949
  503MOL0     H69377  13.500  11.019  11.797  1.4916  3.2951  0.8252
  503MOL0     H69378  13.491  11.430  11.629  0.4252 -2.9058 -0.9031
  503MOL0     H69379  13.352  11.426  11.736 -1.1734 -2.2078  0.0270
  503MOL0     H69380  13.516  11.575  11.835  3.5122  0.2798  1.9969
  503MOL0     H69381  13.495  11.438  11.928  2.0414  0.7299  1.2135
  503MOL0     H69382  13.701  11.337  11.844 -1.8505 -0.7546  3.0601
  503MOL0     H69383  13.732  11.484  11.922 -0.8605  0.8647  0.9563
  503MOL0     H69384  13.736  11.610  11.696  0.3426  0.5054 -2.1464
  503MOL0     H69385  13.747  11.458  11.619 -0.0781 -0.7851  0.1058
  503MOL0     H69386  13.948  11.564  11.820  0.7738 -0.2853 -0.3638
  503MOL0     H69387  13.952  11.401  11.772 -1.5034 -0.2887  0.4349
  503MOL0     H69388  13.980  11.638  11.573  1.5915 -0.2611 -2.5655
  503MOL0     H69389  14.006  11.468  11.537  0.6811  2.6793 -2.6458
  503MOL0     H69390  14.221  11.568  11.576  0.4354 -1.2037  1.1143
  503MOL0     H69391  14.199  11.446  11.691 -0.5327 -0.3638  0.2421
  503MOL0     H69392  14.184  11.589  11.884  0.3723 -2.1215 -0.8210
  503MOL0     H69393  14.114  11.715  11.787  0.7027  0.6265  4.1472
  503MOL0     H69394  13.270  11.310  11.566 -0.3909  0.3681  2.2061
  503MOL0     H69395  13.126  11.142  11.490 -0.9732  1.1294  0.9297
  503MOL0     H69396  13.078  10.471  11.581  0.9438 -0.0392 -1.2895
  503MOL0     H69397  12.929  10.331  11.467  2.9389 -0.8383 -1.4653
  503MOL0     H69398  11.025  10.103  11.386 -1.2317  0.8291  0.2622
  503MOL0     H69399  10.925  10.313  11.437  0.6308 -1.5004  1.2910
  503MOL0     H69400  11.013  10.632  11.716 -0.9777  1.7368  2.3433
  503MOL0     H69401  10.933  10.789  11.863  4.2327  0.9273 -0.9878
  503MOL0     H69402  10.824  11.008  12.014  0.3183 -1.4644 -0.9578
  503MOL0     H69403  10.960  11.005  11.899  0.8546  2.3625  1.4822
  503MOL0     H69404  10.969  11.215  12.010  0.1124  0.7621  0.0696
  503MOL0     H69405  10.800  11.257  11.972 -0.2323  1.2657 -1.0354
  503MOL0     H69406  10.994  11.208  11.733 -1.2680 -1.7885  0.5940
  503MOL0     H69407  10.837  11.263  11.735  1.9949  0.5146 -2.1645
  503MOL0     H69408  10.914  11.481  11.875 -1.8511 -1.3727 -1.4352
  503MOL0     H69409  11.004  11.458  11.727  0.7987  0.8881  0.8610
  503MOL0     H69410  11.321  11.405  11.982 -1.0598 -1.7274  0.8295
  503MOL0     H69411  10.742  11.007  11.550 -1.1869 -0.7162  0.0393
  503MOL0     H69412  10.729  10.946  11.342  0.5377  0.7734  1.7134
  503MOL0     H69413  10.855  10.843  11.287 -1.3728 -2.8819 -1.1999
  503MOL0     H69414  10.703  10.760  11.328 -0.6144 -0.2619 -1.7275
  504MOL0     O69415   6.640   6.060   2.935 -0.1958  0.5499  0.5900
  504MOL0     C69416   6.660   6.108   2.827 -0.5256 -0.0320  0.2547
  504MOL0     O69417   6.783   6.165   2.783  0.6743  0.6885  0.1409
  504MOL0     C69418   6.888   6.133   2.861  0.3299 -0.4289 -0.6177
  504MOL0     C69419   6.980   6.045   2.815 -0.2548 -0.3494  0.1772
  504MOL0     C69420   7.100   6.031   2.890 -0.3726 -0.1760  0.2324
  504MOL0     C69421   7.122   6.106   3.010  0.4266 -0.0585  0.2835
  504MOL0     O69422   7.245   6.068   3.063 -0.3672  0.2732 -0.2217
  504MOL0     C69423   7.283   6.107   3.197 -0.1449  0.4897 -0.2108
  504MOL0     C69424   7.336   6.255   3.211  0.2430  0.2785 -0.1206
  504MOL0     C69425   7.440   6.295   3.106 -0.8026 -0.1495  1.0157
  504MOL0     C69426   7.576   6.231   3.147  0.0003 -0.5207  0.2924
  504MOL0     C69427   7.672   6.215   3.030 -0.2158  0.3032 -0.0622
  504MOL0     C69428   7.684   6.349   2.950 -0.3703 -0.0889 -0.8141
  504MOL0     C69429   7.824   6.366   2.895 -0.5800  0.2510 -0.2935
  504MOL0     C69430   7.824   6.487   2.805 -0.6591 -0.4718  0.2344
  504MOL0     N69431   7.955   6.487   2.726 -0.0902  0.5393 -0.4165
  504MOL0     C69432   7.973   6.548   2.606  0.2716 -0.3082 -0.2028
  504MOL0     C69433   8.103   6.526   2.581 -0.1363  0.9184 -0.1672
  504MOL0     C69434   8.168   6.578   2.460  0.0815 -0.6537  0.0109
  504MOL0     C69435   8.316   6.628   2.501  0.7427 -0.2561  0.4140
  504MOL0     C69436   8.410   6.664   2.382  0.1810 -0.0347  0.1861
  504MOL0     C69437   8.551   6.669   2.433 -0.2348  0.6219  1.5229
  504MOL0     O69438   8.637   6.686   2.325  0.0875 -0.3805  0.3370
  504MOL0     C69439   8.771   6.714   2.337 -0.2541  0.4513  0.0639
  504MOL0     C69440   8.837   6.690   2.213 -0.2145  0.5909 -0.5491
  504MOL0     C69441   8.978   6.698   2.205  0.8470 -0.5130  0.4131
  504MOL0     C69442   9.030   6.673   2.062 -0.2578  0.4658  0.1973
  504MOL0     C69443   9.061   6.720   2.317 -0.3613  0.6506 -0.0720
  504MOL0     C69444   9.208   6.715   2.323  0.2684  0.2238 -0.2822
  504MOL0     O69445   9.277   6.703   2.210 -0.1830  0.2179 -0.0631
  504MOL0     C69446   9.413   6.704   2.220  0.4622  0.2093  0.3445
  504MOL0     C69447   9.471   6.583   2.186  0.0453 -0.1955  0.1568
  504MOL0     C69448   9.609   6.576   2.190 -0.2756  0.1918  0.4638
  504MOL0     C69449   9.687   6.685   2.222 -0.7215  0.5183 -0.5829
  504MOL0     O69450   9.821   6.658   2.239  0.4216 -0.1097 -0.0325
  504MOL0     C69451   9.916   6.709   2.141 -0.1911 -0.1467 -0.4422
  504MOL0     C69452  10.051   6.655   2.172  0.2052  0.9002 -0.2363
  504MOL0     C69453  10.033   6.503   2.163  0.5629  0.5671 -0.5561
  504MOL0     C69454  10.165   6.432   2.131  0.0503 -0.4823  0.6776
  504MOL0     C69455  10.152   6.276   2.148 -0.4684 -0.0887  0.6566
  504MOL0     C69456  10.292   6.215   2.139 -0.1085  0.2570  0.2240
  504MOL0     C69457  10.392   6.282   2.036  0.5675  0.6289 -0.1006
  504MOL0     C69458  10.495   6.174   2.013 -0.5303  0.2435  0.2156
  504MOL0    Cl69459  10.614   6.210   1.887  0.2709 -0.7873 -0.1574
  504MOL0     C69460   9.629   6.803   2.262 -0.3699  0.0435 -0.2181
  504MOL0     C69461   9.490   6.816   2.258 -0.0206 -0.7127  0.3790
  504MOL0     O69462   9.255   6.742   2.429  0.0409  0.2475  0.0411
  504MOL0     C69463   8.985   6.742   2.440 -0.1238  0.3180 -0.2502
  504MOL0     C69464   8.846   6.737   2.452 -0.3139  0.9482  0.2069
  504MOL0     N69465   8.162   6.471   2.694 -0.0004  0.3276 -1.1313
  504MOL0     N69466   8.069   6.449   2.780 -0.3937 -0.0439  0.4288
  504MOL0     C69467   7.027   6.198   3.052  0.4077 -0.5487  0.6241
  504MOL0     C69468   6.906   6.214   2.980  0.6264 -0.1589  0.6758
  504MOL0     C69469   6.538   6.113   2.738 -1.4906 -0.1115 -0.1661
  504MOL0     C69470   6.415   6.138   2.798  0.1518 -0.7142  0.9100
  504MOL0     C69471   6.298   6.139   2.719  0.6433  0.6204  0.0834
  504MOL0     C69472   6.297   6.122   2.579 -0.3263  0.3344  0.0411
  504MOL0     O69473   6.193   6.122   2.497 -0.4017  0.5671  0.3043
  504MOL0     C69474   6.070   6.082   2.547  0.4348  0.5734 -0.5660
  504MOL0     C69475   5.974   6.068   2.442  0.4993  0.1307 -0.3141
  504MOL0     C69476   5.838   6.007   2.490  0.0210 -0.6610  0.1545
  504MOL0     C69477   5.747   5.987   2.373  0.8379  0.2776 -0.3394
  504MOL0     C69478   5.628   5.911   2.415  0.3821 -0.3726 -0.3000
  504MOL0     C69479   5.525   5.853   2.459 -1.1347 -0.0109 -0.3906
  504MOL0     C69480   6.424   6.106   2.527  0.0032  0.5195  0.0744
  504MOL0     C69481   6.548   6.100   2.598 -0.0781  0.0076 -0.1338
  504MOL0     C69482   6.677   6.085   2.531 -0.2146 -0.4114 -0.2544
  504MOL0     H69483   6.965   6.004   2.716 -0.1164 -1.8506  0.7474
  504MOL0     H69484   7.168   5.955   2.852 -1.7606  0.7962 -5.0285
  504MOL0     H69485   7.354   6.028   3.225 -3.4415 -2.3595  0.6998
  504MOL0     H69486   7.202   6.088   3.267  1.2774 -0.3721  1.2585
  504MOL0     H69487   7.250   6.321   3.200 -2.1293 -2.6300 -0.0939
  504MOL0     H69488   7.373   6.271   3.313 -3.6312 -0.9486  1.6608
  504MOL0     H69489   7.412   6.243   3.014 -1.1210 -1.6988  1.9497
  504MOL0     H69490   7.454   6.403   3.100 -0.5677 -0.2873 -2.4905
  504MOL0     H69491   7.627   6.298   3.216 -2.1721  0.3961  1.0983
  504MOL0     H69492   7.563   6.145   3.213 -0.0438  0.9849  2.3431
  504MOL0     H69493   7.628   6.151   2.954 -1.8113  1.8601 -0.4979
  504MOL0     H69494   7.768   6.174   3.065 -2.0697 -1.9824  2.7801
  504MOL0     H69495   7.623   6.360   2.861  1.3759 -1.2872 -2.2327
  504MOL0     H69496   7.671   6.435   3.017  0.7667 -0.8645  0.4670
  504MOL0     H69497   7.850   6.284   2.827 -2.2210  0.5420 -1.3389
  504MOL0     H69498   7.893   6.367   2.980 -1.6135  1.9666  0.5884
  504MOL0     H69499   7.735   6.494   2.741 -0.1860  0.1568 -0.3752
  504MOL0     H69500   7.824   6.568   2.879  1.2238 -0.7630  0.5837
  504MOL0     H69501   7.905   6.595   2.537  0.8127  0.3899 -0.2722
  504MOL0     H69502   8.105   6.663   2.430 -1.5126 -2.2564 -1.3950
  504MOL0     H69503   8.175   6.505   2.378  2.2520 -0.8315  0.3056
  504MOL0     H69504   8.294   6.715   2.563  0.1055  0.4880 -0.8155
  504MOL0     H69505   8.358   6.551   2.566  0.9444  0.0542  0.6538
  504MOL0     H69506   8.399   6.590   2.302 -1.0400  0.2518  0.0720
  504MOL0     H69507   8.388   6.764   2.344  0.0524 -0.0547  0.2073
  504MOL0     H69508   8.557   6.758   2.496 -0.6981 -1.0867  4.1045
  504MOL0     H69509   8.561   6.576   2.489 -3.7732 -1.6946 -1.1915
  504MOL0     H69510   8.778   6.674   2.124  0.2882 -0.4322 -0.7133
  504MOL0     H69511   8.964   6.695   1.978  1.2270  3.2539 -0.3741
  504MOL0     H69512   9.065   6.570   2.056  2.7096  1.3000  1.2994
  504MOL0     H69513   9.111   6.742   2.034 -0.7866  0.1454 -2.3252
  504MOL0     H69514   9.408   6.501   2.151 -0.7758 -0.1203  1.4301
  504MOL0     H69515   9.660   6.480   2.187 -0.7019 -0.1327  2.4149
  504MOL0     H69516   9.888   6.686   2.038  2.1238  0.7969 -1.3612
  504MOL0     H69517   9.919   6.818   2.143  0.9721 -0.1749  1.0005
  504MOL0     H69518  10.124   6.679   2.094  1.8863 -0.6182  0.7981
  504MOL0     H69519  10.080   6.689   2.271  0.0508 -0.3945  0.2703
  504MOL0     H69520   9.971   6.481   2.075  1.7849  0.6954 -1.4871
  504MOL0     H69521   9.977   6.471   2.251 -1.0195 -0.2958 -1.8175
  504MOL0     H69522  10.247   6.462   2.197  2.8868 -1.4631 -2.1428
  504MOL0     H69523  10.185   6.472   2.031 -1.6435  2.3511  1.3568
  504MOL0     H69524  10.107   6.254   2.245 -2.0493  2.4672  0.6028
  504MOL0     H69525  10.080   6.238   2.075 -1.0896  0.0766  1.1791
  504MOL0     H69526  10.282   6.107   2.127  0.5669  0.0960  1.0440
  504MOL0     H69527  10.334   6.235   2.238  0.8265  1.0313 -0.3226
  504MOL0     H69528  10.431   6.380   2.066  0.1218  0.0541  2.7062
  504MOL0     H69529  10.332   6.294   1.946  1.2130  1.9271 -0.3802
  504MOL0     H69530  10.449   6.078   1.989 -2.0621  0.8198  0.7224
  504MOL0     H69531  10.543   6.157   2.110  0.9149 -0.6721 -0.6331
  504MOL0     H69532   9.684   6.883   2.310 -0.1289 -1.3899  2.0754
  504MOL0     H69533   9.442   6.905   2.296  0.2382 -0.6036  0.4522
  504MOL0     H69534   9.042   6.748   2.532 -0.1512 -1.1100 -0.1096
  504MOL0     H69535   8.784   6.759   2.538 -0.9478 -0.1279  0.0365
  504MOL0     H69536   7.055   6.250   3.144 -0.2491 -2.9246  2.2775
  504MOL0     H69537   6.835   6.294   3.000  1.3031  0.4415  0.7107
  504MOL0     H69538   6.402   6.159   2.904  1.1685  1.6814  0.6113
  504MOL0     H69539   6.210   6.159   2.780  0.0447  0.2029 -0.6222
  504MOL0     H69540   6.081   5.988   2.603 -4.9289  0.7158  1.2972
  504MOL0     H69541   6.036   6.161   2.615  0.0199  1.5826 -1.9140
  504MOL0     H69542   6.011   6.007   2.360 -0.2400 -0.2876 -0.3361
  504MOL0     H69543   5.956   6.168   2.402  0.3147 -1.0728 -3.4603
  504MOL0     H69544   5.857   5.906   2.528  0.8452 -0.2040  0.9905
  504MOL0     H69545   5.807   6.068   2.575  1.3550 -0.8921  0.8287
  504MOL0     H69546   5.799   5.933   2.293  1.0250  1.3928 -0.9946
  504MOL0     H69547   5.717   6.080   2.325  3.2329 -0.3493 -3.3964
  504MOL0     H69548   5.435   5.801   2.481 -2.2269  1.1474 -1.9176
  504MOL0     H69549   6.425   6.089   2.420 -1.3343 -3.7247  0.5486
  504MOL0     H69550   6.722   6.184   2.519 -2.0820  0.7378  1.6180
  504MOL0     H69551   6.741   6.016   2.586 -1.3692  0.0289  1.7354
  504MOL0     H69552   6.668   6.046   2.429 -0.9511  1.1327 -0.8076
  505MOL0     O69553   9.433   3.382   8.261  0.9916 -0.3096 -0.2192
  505MOL0     C69554   9.507   3.399   8.364  0.4434 -0.4781  0.2024
  505MOL0     O69555   9.470   3.484   8.467  0.2080 -0.1807 -0.8084
  505MOL0     C69556   9.359   3.559   8.437 -0.8735 -0.0284  1.0182
  505MOL0     C69557   9.257   3.548   8.529 -1.0327  0.3774  0.1891
  505MOL0     C69558   9.137   3.614   8.523  0.2764 -1.0340  0.5897
  505MOL0     C69559   9.120   3.715   8.421  0.1611  0.6181  0.0850
  505MOL0     O69560   9.016   3.804   8.419  0.2648  0.2613 -0.4407
  505MOL0     C69561   8.889   3.739   8.448 -0.5607  0.0412  0.3798
  505MOL0     C69562   8.794   3.861   8.432 -0.6104  0.2896  0.4058
  505MOL0     C69563   8.653   3.809   8.407  0.3196  0.3133 -0.7789
  505MOL0     C69564   8.583   3.785   8.546 -0.7620  0.3459  0.7522
  505MOL0     C69565   8.433   3.756   8.530 -0.0441  0.3238 -0.3495
  505MOL0     C69566   8.408   3.644   8.441  0.8792  0.0509 -0.1457
  505MOL0     C69567   8.250   3.616   8.459 -0.1598 -0.8896 -0.0844
  505MOL0     C69568   8.185   3.673   8.334 -0.6615 -0.1806 -0.0543
  505MOL0     N69569   8.040   3.656   8.312 -0.6447  0.1577  0.5338
  505MOL0     C69570   7.969   3.542   8.321 -0.0108 -0.4811 -0.1343
  505MOL0     C69571   7.844   3.564   8.276  0.5980 -0.0837 -1.0307
  505MOL0     C69572   7.736   3.469   8.262  0.7542 -0.2661 -0.6921
  505MOL0     C69573   7.778   3.327   8.234  0.7991  0.0140 -0.4417
  505MOL0     C69574   7.822   3.259   8.365  0.2352 -0.8863  1.0161
  505MOL0     C69575   7.932   3.157   8.336 -0.6978  0.2267  0.1167
  505MOL0     O69576   8.054   3.231   8.323  0.6407 -0.2405  0.1602
  505MOL0     C69577   8.174   3.175   8.338  0.7277  1.3181 -1.5085
  505MOL0     C69578   8.279   3.256   8.301  0.1279 -0.3149  0.4774
  505MOL0     C69579   8.413   3.201   8.299 -0.2315 -0.1747 -1.0175
  505MOL0     C69580   8.509   3.311   8.254  0.5535  0.3633 -0.2701
  505MOL0     C69581   8.436   3.066   8.349  0.4930  0.8970  0.1636
  505MOL0     C69582   8.575   3.019   8.368  0.4324  0.8487  0.4871
  505MOL0     O69583   8.586   2.931   8.469  0.5302 -0.2656 -0.4345
  505MOL0     C69584   8.707   2.879   8.508  0.1219 -0.4670 -0.8715
  505MOL0     C69585   8.722   2.857   8.645  0.0708 -0.3989 -0.0843
  505MOL0     C69586   8.837   2.796   8.694  0.6781 -0.1070 -0.7055
  505MOL0     C69587   8.943   2.752   8.613  0.1755 -0.8041  1.2205
  505MOL0     O69588   9.053   2.702   8.673  0.2450 -0.2587  0.7629
  505MOL0     C69589   9.173   2.707   8.589 -0.4969  0.3018 -1.1147
  505MOL0     C69590   9.295   2.673   8.674  0.2874  0.1267  0.4652
  505MOL0     C69591   9.423   2.687   8.592 -0.7528 -0.6890 -0.0204
  505MOL0     C69592   9.542   2.682   8.693 -0.4664  0.2148  0.4405
  505MOL0     C69593   9.669   2.710   8.615 -0.5678  1.2000  0.1609
  505MOL0     C69594   9.794   2.703   8.700 -0.0221  0.3352 -0.5627
  505MOL0     C69595   9.924   2.748   8.642 -0.3845 -0.3454  0.8647
  505MOL0     C69596  10.049   2.710   8.724  0.5931  0.2097 -0.9009
  505MOL0    Cl69597  10.115   2.564   8.666 -0.2187  0.1377 -0.4417
  505MOL0     C69598   8.927   2.772   8.474  0.3467  0.2789 -0.4028
  505MOL0     C69599   8.807   2.832   8.428 -0.8513 -0.6706  0.5641
  505MOL0     O69600   8.664   3.065   8.299 -0.2188 -0.0179  0.0215
  505MOL0     C69601   8.326   2.996   8.401 -0.1751  0.2700  0.0078
  505MOL0     C69602   8.196   3.039   8.391  0.4709  0.8037 -0.2021
  505MOL0     N69603   7.842   3.700   8.227  0.0581  0.1926 -0.4620
  505MOL0     N69604   7.957   3.752   8.265 -0.9472  0.6290 -0.3823
  505MOL0     C69605   9.226   3.737   8.330  0.3426  0.4586 -0.3572
  505MOL0     C69606   9.342   3.658   8.345 -0.3510 -0.2457  0.3389
  505MOL0     C69607   9.643   3.348   8.364 -0.3500  0.1197 -0.3978
  505MOL0     C69608   9.727   3.399   8.471  0.2413 -0.3263 -0.0867
  505MOL0     C69609   9.865   3.351   8.488 -0.7672 -0.0019 -0.2068
  505MOL0     C69610   9.912   3.249   8.402 -0.0790 -0.1135 -1.2488
  505MOL0     O69611  10.045   3.221   8.413 -0.0164  0.5838  0.2679
  505MOL0     C69612  10.105   3.100   8.373 -0.4534 -0.1971  0.1787
  505MOL0     C69613  10.261   3.110   8.384  0.2426  1.0653 -0.5688
  505MOL0     C69614  10.323   3.251   8.372  0.4865 -0.1519 -0.5081
  505MOL0     C69615  10.407   3.300   8.497  0.2090 -0.7326 -0.2298
  505MOL0     C69616  10.510   3.204   8.526 -0.9640 -0.8029  0.3669
  505MOL0     C69617  10.599   3.121   8.538  0.2755  0.2910  0.0617
  505MOL0     C69618   9.831   3.194   8.302 -0.2723 -0.1424 -0.3013
  505MOL0     C69619   9.700   3.241   8.285 -0.0896 -0.1730 -0.9533
  505MOL0     C69620   9.611   3.156   8.195  0.9541  0.3954 -0.0710
  505MOL0     H69621   9.277   3.479   8.610 -1.7407 -0.7890 -0.6002
  505MOL0     H69622   9.056   3.596   8.593  0.4141  1.8180  1.6128
  505MOL0     H69623   8.881   3.701   8.550  1.2021 -2.4441 -0.3206
  505MOL0     H69624   8.869   3.648   8.391  1.5232 -0.9770  1.1876
  505MOL0     H69625   8.800   3.932   8.516 -3.6420 -0.4855  1.4172
  505MOL0     H69626   8.817   3.912   8.338 -0.2982 -2.1067 -0.8948
  505MOL0     H69627   8.599   3.879   8.343  1.7277  0.1864 -2.1410
  505MOL0     H69628   8.656   3.719   8.345  1.7983 -1.3855  1.5736
  505MOL0     H69629   8.624   3.696   8.595  0.3669  2.8125  4.7881
  505MOL0     H69630   8.595   3.876   8.605 -1.2615  1.8373 -1.3105
  505MOL0     H69631   8.370   3.836   8.489 -2.3310 -1.8648 -1.4165
  505MOL0     H69632   8.393   3.733   8.629 -1.1963  0.9165 -0.6578
  505MOL0     H69633   8.429   3.681   8.340  1.3018  1.6540  0.4953
  505MOL0     H69634   8.469   3.558   8.468  1.3107 -0.1901 -1.7656
  505MOL0     H69635   8.209   3.659   8.551 -2.0526  0.4837 -1.4871
  505MOL0     H69636   8.217   3.512   8.466  0.3852 -1.0652 -0.0412
  505MOL0     H69637   8.207   3.779   8.320 -0.2164 -0.4921 -2.0637
  505MOL0     H69638   8.237   3.630   8.247  2.5792  0.4999  1.3827
  505MOL0     H69639   7.997   3.445   8.361 -3.9382 -1.1040  1.6528
  505MOL0     H69640   7.682   3.493   8.170  0.0301  0.7455 -0.0265
  505MOL0     H69641   7.654   3.487   8.332 -0.3208 -2.7142 -1.1979
  505MOL0     H69642   7.688   3.282   8.190  1.1380  1.7327 -3.1466
  505MOL0     H69643   7.856   3.334   8.158  1.5101 -1.7804  0.0790
  505MOL0     H69644   7.854   3.338   8.434 -3.4017  1.8321 -0.1114
  505MOL0     H69645   7.731   3.215   8.407 -0.7450  1.9743  2.1360
  505MOL0     H69646   7.938   3.090   8.423 -1.3457 -4.1827 -2.9094
  505MOL0     H69647   7.904   3.092   8.253 -1.5479  0.7037  0.0106
  505MOL0     H69648   8.261   3.362   8.286  0.3457  0.1650  3.0096
  505MOL0     H69649   8.521   3.307   8.145  0.6800  0.9283 -0.2830
  505MOL0     H69650   8.608   3.301   8.298 -0.3180 -0.2843  1.6553
  505MOL0     H69651   8.468   3.412   8.267 -0.7387 -0.1863  0.1289
  505MOL0     H69652   8.635   2.877   8.706  0.8531  0.4379  0.7764
  505MOL0     H69653   8.839   2.780   8.801 -0.7562 -3.2107 -1.0318
  505MOL0     H69654   9.165   2.633   8.508  0.6155 -2.6840  1.2752
  505MOL0     H69655   9.191   2.809   8.555 -2.8586  0.7699 -1.0570
  505MOL0     H69656   9.297   2.735   8.764 -2.4471  2.4617 -0.9431
  505MOL0     H69657   9.284   2.570   8.709 -2.6403 -1.2779 -3.7806
  505MOL0     H69658   9.428   2.787   8.546 -0.4431 -0.1443  1.1672
  505MOL0     H69659   9.432   2.622   8.504  0.2631 -0.1235 -0.3599
  505MOL0     H69660   9.532   2.583   8.739 -1.8024  0.6316  1.0986
  505MOL0     H69661   9.533   2.762   8.768 -1.0905 -0.1779  0.7955
  505MOL0     H69662   9.672   2.641   8.530  2.1663 -1.9026  2.5281
  505MOL0     H69663   9.660   2.809   8.570 -0.9084  1.3981  0.6508
  505MOL0     H69664   9.807   2.597   8.725 -2.7748  0.0277 -0.1474
  505MOL0     H69665   9.767   2.761   8.790  0.3433  1.9421 -1.4537
  505MOL0     H69666   9.921   2.855   8.620  1.7373 -0.2020  1.0062
  505MOL0     H69667   9.944   2.702   8.545 -0.9425  1.8403 -0.3491
  505MOL0     H69668  10.026   2.709   8.831 -1.6720  0.3618 -1.3260
  505MOL0     H69669  10.127   2.785   8.710 -0.0448  1.0836  0.0616
  505MOL0     H69670   9.003   2.739   8.404  1.7240  2.7246 -0.1752
  505MOL0     H69671   8.793   2.822   8.321  0.4174 -1.2267  0.4323
  505MOL0     H69672   8.361   2.900   8.437  2.4817  1.2881  0.3106
  505MOL0     H69673   8.112   2.983   8.431  1.9592 -0.4735  1.2968
  505MOL0     H69674   9.214   3.817   8.258 -0.7411  1.4208  0.8286
  505MOL0     H69675   9.419   3.679   8.271 -0.9789 -2.3224 -0.9693
  505MOL0     H69676   9.686   3.473   8.539 -2.3722 -0.6688 -1.1380
  505MOL0     H69677   9.938   3.392   8.556 -0.5015 -0.2755 -0.3239
  505MOL0     H69678  10.079   3.021   8.444 -0.4178 -0.6611 -0.3176
  505MOL0     H69679  10.078   3.071   8.271 -0.7459 -4.6313  1.3459
  505MOL0     H69680  10.303   3.041   8.311  1.2877 -0.0998  1.0799
  505MOL0     H69681  10.276   3.080   8.488 -1.4932  0.9457 -0.3141
  505MOL0     H69682  10.391   3.248   8.287  1.7653 -0.7261  0.4922
  505MOL0     H69683  10.248   3.327   8.348 -1.1142 -1.8482 -1.1200
  505MOL0     H69684  10.348   3.302   8.588 -0.2186  2.6869 -0.4247
  505MOL0     H69685  10.452   3.400   8.489  1.0964 -1.1603 -0.8399
  505MOL0     H69686  10.677   3.049   8.553 -1.0694 -1.0759  0.6691
  505MOL0     H69687   9.866   3.117   8.234 -0.5091  0.5237 -1.1806
  505MOL0     H69688   9.526   3.204   8.144 -0.0257  0.8973  1.9232
  505MOL0     H69689   9.680   3.119   8.119  1.0689  1.2366 -0.3806
  505MOL0     H69690   9.572   3.078   8.261 -0.9370  1.4525  0.1475
  506MOL0     O69691   4.448   1.361   8.162  0.1840  0.5485  0.3815
  506MOL0     C69692   4.398   1.269   8.230 -0.6489 -0.7102 -0.8121
  506MOL0     O69693   4.472   1.187   8.315  0.4503  0.1000  1.0770
  506MOL0     C69694   4.609   1.196   8.300  0.4803  0.0079  0.5095
  506MOL0     C69695   4.684   1.225   8.414  0.5090  0.5034  0.0674
  506MOL0     C69696   4.828   1.235   8.396 -0.7423 -0.3753  0.0172
  506MOL0     C69697   4.897   1.191   8.285  0.1188  0.1908 -0.4260
  506MOL0     O69698   5.030   1.193   8.254 -0.1624 -0.4368 -0.2063
  506MOL0     C69699   5.105   1.308   8.298  0.7746 -0.1133  0.3056
  506MOL0     C69700   5.247   1.310   8.239 -0.7444 -0.4946  0.1772
  506MOL0     C69701   5.336   1.413   8.308  0.2251  0.2226  0.0196
  506MOL0     C69702   5.457   1.444   8.211 -0.1212 -0.0968 -0.1227
  506MOL0     C69703   5.545   1.320   8.178 -0.0495 -0.4208  0.3395
  506MOL0     C69704   5.685   1.355   8.128 -0.3870 -0.0117  0.0779
  506MOL0     C69705   5.694   1.455   8.010 -0.2014  0.4462 -0.3984
  506MOL0     C69706   5.838   1.464   7.961  0.0078  0.3138  0.3614
  506MOL0     N69707   5.852   1.529   7.826 -0.1138 -0.0404  1.2990
  506MOL0     C69708   5.805   1.652   7.793  0.6032  0.4992 -0.2047
  506MOL0     C69709   5.852   1.674   7.670 -0.3406 -0.4072  0.1184
  506MOL0     C69710   5.838   1.799   7.587 -0.2980  0.1504  0.1798
  506MOL0     C69711   5.930   1.912   7.626  0.0011 -0.3361 -0.4098
  506MOL0     C69712   5.920   2.027   7.528 -0.5221 -0.6708 -0.1059
  506MOL0     C69713   6.047   2.120   7.540  0.3842  0.8187 -0.5307
  506MOL0     O69714   6.145   2.050   7.469 -0.2693  0.4229  0.0452
  506MOL0     C69715   6.282   2.063   7.507 -0.0125 -1.3501 -0.1966
  506MOL0     C69716   6.336   2.190   7.550  0.0299  0.3463  0.3444
  506MOL0     C69717   6.475   2.201   7.571  0.2907  0.5834  0.3587
  506MOL0     C69718   6.518   2.338   7.627 -0.1436  1.0722 -0.5584
  506MOL0     C69719   6.558   2.080   7.550  0.2814  0.0391  1.3061
  506MOL0     C69720   6.706   2.088   7.553 -0.3683  0.1980  0.7421
  506MOL0     O69721   6.769   1.973   7.498 -0.4464 -0.0427 -0.4436
  506MOL0     C69722   6.904   1.963   7.496 -0.5360 -0.2943 -0.1794
  506MOL0     C69723   6.994   2.073   7.475 -0.7596  0.9718 -0.0528
  506MOL0     C69724   7.135   2.051   7.456 -0.8905 -0.4328 -1.3308
  506MOL0     C69725   7.183   1.920   7.442 -1.3228 -0.6555 -0.1062
  506MOL0     O69726   7.316   1.892   7.399  0.3930 -0.2175 -0.0884
  506MOL0     C69727   7.379   1.772   7.432  0.5372  0.6691  0.1473
  506MOL0     C69728   7.533   1.771   7.426  0.1790 -0.2589  0.2098
  506MOL0     C69729   7.598   1.699   7.545  0.0333 -0.5154  0.2033
  506MOL0     C69730   7.751   1.715   7.520  0.4881  0.5542 -0.6422
  506MOL0     C69731   7.827   1.643   7.622 -0.0203  0.3734 -0.5437
  506MOL0     C69732   7.946   1.715   7.683  0.3960 -0.8402 -0.1383
  506MOL0     C69733   8.055   1.739   7.577  0.4852 -0.2557  0.3527
  506MOL0     C69734   8.186   1.799   7.630 -0.3517 -1.7031 -0.2235
  506MOL0    Cl69735   8.253   1.712   7.759 -0.0329 -0.3354  0.6352
  506MOL0     C69736   7.088   1.820   7.478 -0.3881 -0.0176 -0.3349
  506MOL0     C69737   6.952   1.836   7.497  1.0831  0.5009 -0.3038
  506MOL0     O69738   6.764   2.180   7.612 -0.2461  0.1231  0.3791
  506MOL0     C69739   6.495   1.951   7.518 -0.6379  0.1169  0.5722
  506MOL0     C69740   6.358   1.948   7.496  0.7162 -0.1625 -0.2310
  506MOL0     N69741   5.914   1.566   7.621 -0.8538 -0.7185  0.0668
  506MOL0     N69742   5.917   1.476   7.721 -0.2118  0.0488  0.1694
  506MOL0     C69743   4.815   1.128   8.187  1.2740 -0.6492  0.5756
  506MOL0     C69744   4.675   1.148   8.188 -0.2634 -0.4116 -0.0863
  506MOL0     C69745   4.247   1.273   8.247 -0.0368  0.0141 -0.4956
  506MOL0     C69746   4.197   1.246   8.373 -0.0118 -0.1332 -0.2055
  506MOL0     C69747   4.056   1.239   8.390  0.3529 -0.5576  0.6085
  506MOL0     C69748   3.966   1.260   8.283 -0.3480  0.5671 -0.2772
  506MOL0     O69749   3.827   1.252   8.278 -0.3307 -0.2644 -0.5976
  506MOL0     C69750   3.760   1.226   8.402 -0.9804  0.1699 -0.6686
  506MOL0     C69751   3.752   1.071   8.426  0.2315  0.4783 -0.2624
  506MOL0     C69752   3.682   1.051   8.562  0.7491 -0.1733  0.0307
  506MOL0     C69753   3.543   0.993   8.538 -0.6102 -0.0288  0.5765
  506MOL0     C69754   3.452   1.100   8.476 -0.6107 -0.8669 -0.8176
  506MOL0     C69755   3.389   1.201   8.427  0.8586 -0.1005 -0.1570
  506MOL0     C69756   4.023   1.282   8.157 -1.5123  0.5588 -0.9096
  506MOL0     C69757   4.162   1.285   8.138 -0.6667  0.0265  0.8753
  506MOL0     C69758   4.215   1.311   7.990 -1.4490 -0.8086  0.0230
  506MOL0     H69759   4.649   1.248   8.514  1.0755 -1.3261  0.7312
  506MOL0     H69760   4.882   1.272   8.483 -1.1789  2.3400 -0.7588
  506MOL0     H69761   5.105   1.315   8.407 -1.3873  0.4884  0.3199
  506MOL0     H69762   5.047   1.399   8.279 -2.0381 -1.9815 -0.7176
  506MOL0     H69763   5.292   1.211   8.235 -0.8485 -0.6062  1.4208
  506MOL0     H69764   5.239   1.331   8.132 -1.8800 -1.5621  0.0255
  506MOL0     H69765   5.285   1.504   8.343 -0.2781  0.1411 -0.4771
  506MOL0     H69766   5.369   1.360   8.398  0.0658 -0.9135 -0.5768
  506MOL0     H69767   5.429   1.485   8.113 -0.8346 -3.0189 -1.2706
  506MOL0     H69768   5.523   1.516   8.260  0.5550  0.9201 -2.3640
  506MOL0     H69769   5.495   1.259   8.102 -2.1941  1.7419 -0.0888
  506MOL0     H69770   5.547   1.260   8.270 -0.0039  2.1986  2.1498
  506MOL0     H69771   5.735   1.407   8.210 -2.2777  3.0537 -0.5292
  506MOL0     H69772   5.743   1.266   8.102  1.0970  0.2568  2.2379
  506MOL0     H69773   5.661   1.553   8.044 -0.2852  0.5673 -0.8281
  506MOL0     H69774   5.629   1.421   7.929  0.0880  2.6210 -1.6265
  506MOL0     H69775   5.912   1.520   8.017  1.8766  1.8098 -3.2710
  506MOL0     H69776   5.877   1.363   7.943  0.5322  0.3043  1.4976
  506MOL0     H69777   5.753   1.720   7.860 -0.4534 -0.3740 -0.1108
  506MOL0     H69778   5.734   1.831   7.595 -1.0313 -1.4884 -1.7082
  506MOL0     H69779   5.854   1.776   7.481 -1.0011  0.4504  0.0067
  506MOL0     H69780   5.903   1.944   7.727  1.8373  1.9897 -0.5756
  506MOL0     H69781   6.029   1.868   7.641 -0.7123 -1.2127  2.4579
  506MOL0     H69782   5.929   1.979   7.430  1.2304  2.0509 -1.4018
  506MOL0     H69783   5.835   2.096   7.521  1.3849  1.6555 -1.6892
  506MOL0     H69784   6.048   2.219   7.494  3.3668  1.2004  0.1776
  506MOL0     H69785   6.076   2.118   7.645 -0.4902  0.0500 -0.2878
  506MOL0     H69786   6.274   2.275   7.578 -2.4088 -1.6499  1.4318
  506MOL0     H69787   6.444   2.413   7.597 -0.0922  1.6705  0.7323
  506MOL0     H69788   6.611   2.366   7.578  0.9374  0.7969  1.2204
  506MOL0     H69789   6.536   2.333   7.735  1.1076 -1.5493 -0.8219
  506MOL0     H69790   6.962   2.177   7.474 -0.7843  0.9717  0.5259
  506MOL0     H69791   7.198   2.138   7.448 -0.2008 -0.6229  1.1390
  506MOL0     H69792   7.342   1.743   7.531 -0.3616 -1.2976 -0.7134
  506MOL0     H69793   7.341   1.692   7.368  0.0372 -0.9668  2.3780
  506MOL0     H69794   7.564   1.728   7.331 -0.7794 -1.9813  0.6279
  506MOL0     H69795   7.563   1.876   7.427  1.5304 -0.6184 -0.3251
  506MOL0     H69796   7.562   1.596   7.541  2.4084 -1.4096 -4.0756
  506MOL0     H69797   7.567   1.746   7.639  3.3848  0.6956  0.8619
  506MOL0     H69798   7.778   1.821   7.518  2.0408  0.1842 -0.8878
  506MOL0     H69799   7.774   1.666   7.425 -0.0386 -0.9072 -0.0486
  506MOL0     H69800   7.756   1.623   7.703  1.1249 -0.2400  0.3375
  506MOL0     H69801   7.852   1.544   7.581 -1.8569 -0.3001 -0.1467
  506MOL0     H69802   7.987   1.663   7.770 -1.5678 -0.3941  1.1253
  506MOL0     H69803   7.905   1.815   7.702 -1.7532 -1.1590 -2.5769
  506MOL0     H69804   8.019   1.811   7.503  1.4426 -0.4674 -0.3458
  506MOL0     H69805   8.075   1.647   7.522 -2.2148 -1.9363  2.0034
  506MOL0     H69806   8.159   1.896   7.673  0.1943 -1.6484  0.0073
  506MOL0     H69807   8.259   1.812   7.550  1.3803 -1.6477  1.2714
  506MOL0     H69808   7.122   1.718   7.476  1.1398  0.4303  0.9079
  506MOL0     H69809   6.877   1.758   7.502  1.0050  0.5722 -0.3607
  506MOL0     H69810   6.537   1.852   7.530  0.8998  0.8749  1.8595
  506MOL0     H69811   6.299   1.866   7.458  0.5421 -1.4792  2.6004
  506MOL0     H69812   4.863   1.090   8.097  1.0678  0.6639 -0.1159
  506MOL0     H69813   4.624   1.115   8.098 -1.7821  1.1156  0.1677
  506MOL0     H69814   4.260   1.227   8.459 -0.6988 -1.7253 -0.0212
  506MOL0     H69815   4.025   1.220   8.492  0.8139 -1.1806  0.6398
  506MOL0     H69816   3.811   1.268   8.490 -1.0027  0.2085 -0.6741
  506MOL0     H69817   3.658   1.264   8.397 -1.4114 -1.0430 -1.3508
  506MOL0     H69818   3.852   1.028   8.436  0.6799  1.1296 -1.6617
  506MOL0     H69819   3.696   1.032   8.340 -2.1593  0.2070  1.3235
  506MOL0     H69820   3.738   0.981   8.625  0.5076 -1.5479 -1.2466
  506MOL0     H69821   3.676   1.144   8.620  0.4392  0.4103 -0.9231
  506MOL0     H69822   3.498   0.960   8.632 -1.7859  1.2978  0.5072
  506MOL0     H69823   3.533   0.912   8.464  2.1219 -1.0664  1.2459
  506MOL0     H69824   3.340   1.284   8.380  2.7051 -0.9843 -4.0561
  506MOL0     H69825   3.946   1.298   8.082 -2.7871  0.3828  0.3374
  506MOL0     H69826   4.155   1.264   7.912  1.7143 -1.9833 -1.8820
  506MOL0     H69827   4.222   1.418   7.968  0.1157 -0.8793  0.0913
  506MOL0     H69828   4.309   1.263   7.963 -0.3196  1.9888 -1.4326
  507MOL0     O69829   5.672   9.349   4.476  0.3650 -0.3087  0.0152
  507MOL0     C69830   5.615   9.249   4.514  0.2996  0.1675  1.1644
  507MOL0     O69831   5.672   9.133   4.551  0.4285 -0.3205  0.6589
  507MOL0     C69832   5.805   9.138   4.585  1.1009 -0.0158 -0.1262
  507MOL0     C69833   5.850   9.202   4.695  0.0130  0.0212 -0.6168
  507MOL0     C69834   5.984   9.211   4.734  0.1884  1.2778  0.1073
  507MOL0     C69835   6.075   9.141   4.658 -0.7865  0.1547 -0.0634
  507MOL0     O69836   6.199   9.129   4.717  0.1649 -0.3528  0.2730
  507MOL0     C69837   6.291   9.228   4.659  0.6967 -0.4823 -0.2111
  507MOL0     C69838   6.435   9.214   4.692 -0.5126  0.4373  0.1803
  507MOL0     C69839   6.504   9.082   4.641  0.0915  0.2106 -0.1518
  507MOL0     C69840   6.515   9.089   4.489  0.1954  0.5889  0.3531
  507MOL0     C69841   6.620   8.998   4.428  0.6652 -0.1909 -0.0574
  507MOL0     C69842   6.591   8.847   4.437  1.4923 -0.5778 -0.5573
  507MOL0     C69843   6.689   8.767   4.355 -0.4657 -0.7035  0.4664
  507MOL0     C69844   6.655   8.611   4.369 -0.5897  0.4916  0.1552
  507MOL0     N69845   6.730   8.557   4.486 -0.8552 -0.8501  0.1253
  507MOL0     C69846   6.866   8.571   4.508  0.0425  0.4735  0.1267
  507MOL0     C69847   6.886   8.526   4.635 -0.5077 -0.8862  0.1534
  507MOL0     C69848   7.013   8.538   4.720  0.2138 -0.1736  1.0154
  507MOL0     C69849   7.131   8.465   4.653 -0.2537  0.2516 -0.0894
  507MOL0     C69850   7.264   8.534   4.679 -0.2511 -0.1123 -0.2391
  507MOL0     C69851   7.372   8.426   4.694  0.2045 -0.4519 -0.0288
  507MOL0     O69852   7.501   8.477   4.730 -0.3208  0.3335  0.1234
  507MOL0     C69853   7.595   8.498   4.633 -0.2703 -0.0564 -0.3655
  507MOL0     C69854   7.727   8.496   4.674 -1.0924 -0.7135 -0.6002
  507MOL0     C69855   7.839   8.514   4.584 -0.2608  0.3438  0.3365
  507MOL0     C69856   7.976   8.533   4.638 -0.2943 -0.2419  0.8330
  507MOL0     C69857   7.796   8.539   4.445 -0.3773 -0.0821 -0.5130
  507MOL0     C69858   7.890   8.551   4.340  0.6772 -0.0262  0.6646
  507MOL0     O69859   7.848   8.648   4.242 -0.2165  0.3457 -0.5513
  507MOL0     C69860   7.955   8.717   4.180  0.1912  0.1881  0.3523
  507MOL0     C69861   7.933   8.768   4.052 -0.0990 -0.8985 -0.8774
  507MOL0     C69862   8.039   8.816   3.979 -0.1457  0.0252 -0.4926
  507MOL0     C69863   8.164   8.830   4.036 -0.1347 -0.6671 -0.5178
  507MOL0     O69864   8.265   8.886   3.964 -0.4651 -0.3127  0.3056
  507MOL0     C69865   8.401   8.865   4.014 -0.2756  0.2303 -0.3610
  507MOL0     C69866   8.511   8.949   3.948 -0.0521  0.6372 -0.2312
  507MOL0     C69867   8.642   8.920   4.022  0.5280  0.9491 -0.1456
  507MOL0     C69868   8.758   8.957   3.928  0.1407  1.0534  0.7720
  507MOL0     C69869   8.905   8.967   3.985 -0.0774  0.0952  0.4818
  507MOL0     C69870   8.935   8.851   4.082  0.0275 -0.4493  0.0994
  507MOL0     C69871   9.079   8.834   4.119  0.0551  0.3241  0.4037
  507MOL0     C69872   9.142   8.970   4.178  0.5729  0.0122 -0.3790
  507MOL0    Cl69873   9.067   9.011   4.332  0.2614  0.5434 -0.2576
  507MOL0     C69874   8.180   8.797   4.172  0.3677 -0.0244  0.3136
  507MOL0     C69875   8.078   8.739   4.244 -0.2871  0.1467 -0.5776
  507MOL0     O69876   7.986   8.474   4.330  0.3199  0.2770  0.1035
  507MOL0     C69877   7.660   8.555   4.418  0.3634  0.3143  0.1772
  507MOL0     C69878   7.559   8.534   4.504  0.4308  0.5762 -0.3079
  507MOL0     N69879   6.773   8.456   4.669  0.0905 -0.1521  0.3655
  507MOL0     N69880   6.674   8.484   4.592  0.0349 -0.8676 -0.1033
  507MOL0     C69881   6.034   9.074   4.536  0.6683  0.2028 -0.2721
  507MOL0     C69882   5.895   9.071   4.509  0.1820  0.9881 -0.1761
  507MOL0     C69883   5.467   9.248   4.515  0.2963 -0.1838  0.0267
  507MOL0     C69884   5.404   9.178   4.619 -0.3514 -0.4306 -0.3385
  507MOL0     C69885   5.261   9.188   4.634 -0.1329 -0.3218 -0.8556
  507MOL0     C69886   5.186   9.255   4.539  0.1767  0.1870  0.4431
  507MOL0     O69887   5.048   9.264   4.538  0.5149 -0.1947 -0.1005
  507MOL0     C69888   4.976   9.197   4.636 -0.1865 -0.0177 -0.7362
  507MOL0     C69889   4.822   9.224   4.613 -0.2297 -0.3140  0.2601
  507MOL0     C69890   4.730   9.108   4.655 -0.3156 -0.9435 -0.2259
  507MOL0     C69891   4.585   9.142   4.631  0.0971  0.6958  0.6576
  507MOL0     C69892   4.486   9.057   4.711 -0.3169  0.1256 -0.0881
  507MOL0     C69893   4.404   9.008   4.789  0.2630  0.2179 -0.0771
  507MOL0     C69894   5.252   9.319   4.439 -0.1286 -0.0210  0.1446
  507MOL0     C69895   5.392   9.324   4.417  0.0853 -0.0612 -0.1240
  507MOL0     C69896   5.433   9.392   4.288  0.2161 -0.2158 -0.7086
  507MOL0     H69897   5.782   9.261   4.756 -0.0930 -0.8816  0.1625
  507MOL0     H69898   6.017   9.261   4.824  1.2728 -1.4385  1.3335
  507MOL0     H69899   6.248   9.318   4.703 -0.3431 -0.5055 -1.1380
  507MOL0     H69900   6.276   9.222   4.551 -0.0896 -1.3285 -0.0734
  507MOL0     H69901   6.500   9.293   4.655 -0.8818  0.2267 -0.9420
  507MOL0     H69902   6.450   9.209   4.800  3.5777 -1.1867 -0.3069
  507MOL0     H69903   6.605   9.075   4.682 -1.1998 -1.9158  3.0172
  507MOL0     H69904   6.441   8.998   4.672 -0.4769  0.2159 -1.2090
  507MOL0     H69905   6.421   9.077   4.435  0.4188 -0.6570  0.1981
  507MOL0     H69906   6.551   9.187   4.455  0.8765 -0.1352 -1.1066
  507MOL0     H69907   6.723   9.016   4.462 -0.1900  0.3248  2.4815
  507MOL0     H69908   6.624   9.031   4.324  1.7922  2.8980  0.8421
  507MOL0     H69909   6.597   8.824   4.544 -0.8726  2.0901  0.2889
  507MOL0     H69910   6.488   8.832   4.404  1.1217  1.3982 -0.4722
  507MOL0     H69911   6.794   8.775   4.385 -0.6717 -1.1457  1.3360
  507MOL0     H69912   6.669   8.789   4.250 -2.0075  0.1960  0.9056
  507MOL0     H69913   6.547   8.600   4.378 -0.3475 -1.2170  1.4589
  507MOL0     H69914   6.685   8.554   4.280 -2.5967  0.2100 -0.3779
  507MOL0     H69915   6.933   8.625   4.442  0.1909 -0.6752 -0.7089
  507MOL0     H69916   7.000   8.490   4.817  0.8099 -2.7685 -0.1093
  507MOL0     H69917   7.031   8.644   4.741  0.4580  0.5415 -2.2136
  507MOL0     H69918   7.131   8.362   4.689  1.7496  0.4889  0.7436
  507MOL0     H69919   7.111   8.460   4.545 -0.7037  0.0942 -0.0013
  507MOL0     H69920   7.287   8.622   4.618 -0.1094 -0.0928 -0.1587
  507MOL0     H69921   7.264   8.583   4.777  1.9397  0.2210 -0.3586
  507MOL0     H69922   7.343   8.360   4.777  2.4777 -1.3390  0.1237
  507MOL0     H69923   7.382   8.358   4.609  2.1417  1.2476 -1.2313
  507MOL0     H69924   7.735   8.484   4.781 -1.7536  1.2826 -0.2961
  507MOL0     H69925   7.986   8.509   4.745  0.2682  2.3398  1.4378
  507MOL0     H69926   8.010   8.637   4.627  1.1312 -0.9060 -2.1570
  507MOL0     H69927   8.045   8.480   4.572 -1.0952  1.5952 -1.6210
  507MOL0     H69928   7.834   8.769   4.009 -0.2982 -0.9155 -0.4263
  507MOL0     H69929   8.033   8.841   3.874  1.4209  1.6776 -0.2307
  507MOL0     H69930   8.405   8.898   4.118  2.0991  1.8241 -0.8792
  507MOL0     H69931   8.428   8.760   3.994 -0.1175  0.2066 -0.0272
  507MOL0     H69932   8.516   8.928   3.841 -3.0401 -0.6209 -0.2206
  507MOL0     H69933   8.490   9.056   3.955  0.7370  0.9529 -2.2206
  507MOL0     H69934   8.661   8.816   4.052  0.0409  1.2316  1.2169
  507MOL0     H69935   8.641   8.988   4.108  2.7928  1.1176 -0.1874
  507MOL0     H69936   8.743   9.046   3.866  1.6371  0.4242 -0.5657
  507MOL0     H69937   8.757   8.876   3.854 -0.6605  2.0571 -0.3544
  507MOL0     H69938   8.972   8.983   3.900 -2.4814  0.9877 -1.3551
  507MOL0     H69939   8.915   9.060   4.041  1.1210 -1.2055  2.5798
  507MOL0     H69940   8.902   8.760   4.030 -0.6800  1.7157 -3.6558
  507MOL0     H69941   8.875   8.873   4.171 -1.8963 -0.1423 -1.2150
  507MOL0     H69942   9.150   8.826   4.036  2.2090  1.1270  2.0664
  507MOL0     H69943   9.093   8.758   4.196  2.2750  2.9090  2.7939
  507MOL0     H69944   9.125   9.049   4.105 -2.1445 -0.9549 -0.9231
  507MOL0     H69945   9.247   8.951   4.202 -0.2518 -3.1127  1.2519
  507MOL0     H69946   8.270   8.817   4.229  0.6689  0.0537 -0.1790
  507MOL0     H69947   8.091   8.715   4.349  1.4591 -1.4470 -1.0954
  507MOL0     H69948   7.629   8.556   4.314  1.0467  3.2460 -0.1036
  507MOL0     H69949   7.454   8.546   4.480  0.6216 -0.8519 -1.9657
  507MOL0     H69950   6.099   9.015   4.472 -3.9632 -1.9262 -3.5109
  507MOL0     H69951   5.868   9.014   4.421  1.4860  2.8524 -1.8819
  507MOL0     H69952   5.454   9.116   4.692 -0.0878  1.2226  0.9422
  507MOL0     H69953   5.218   9.137   4.720  2.5236  0.7306  1.2170
  507MOL0     H69954   4.996   9.090   4.629  2.5271  0.4656 -1.7240
  507MOL0     H69955   5.009   9.235   4.734 -1.1972 -2.4363  0.6182
  507MOL0     H69956   4.806   9.249   4.507 -0.8705  0.4062  0.5139
  507MOL0     H69957   4.808   9.309   4.681 -0.6430 -0.0863 -0.1012
  507MOL0     H69958   4.751   9.020   4.593 -1.9161 -0.6394 -1.2738
  507MOL0     H69959   4.740   9.090   4.762 -1.7321  0.6444  0.2065
  507MOL0     H69960   4.574   9.122   4.524  0.5630 -0.9664  0.8920
  507MOL0     H69961   4.558   9.246   4.654 -0.4320  0.5192  0.8430
  507MOL0     H69962   4.335   8.969   4.860 -1.4018  3.3334  0.1925
  507MOL0     H69963   5.181   9.374   4.378 -1.5094 -1.4523  0.3821
  507MOL0     H69964   5.492   9.481   4.314 -0.2187 -0.3175  0.6904
  507MOL0     H69965   5.488   9.329   4.217  1.0039  0.9963 -1.2111
  507MOL0     H69966   5.344   9.421   4.231  0.4247  1.9115 -0.0503
  508MOL0     O69967   0.276   7.707   2.255  0.3254 -0.0319  0.4412
  508MOL0     C69968   0.268   7.810   2.190  0.0955 -0.2631  0.8631
  508MOL0     O69969   0.194   7.928   2.227 -0.6192 -0.5478  0.6208
  508MOL0     C69970   0.107   7.904   2.328  0.1857  0.1696 -0.2191
  508MOL0     C69971   0.133   7.923   2.468 -0.3338  0.3797 -0.6295
  508MOL0     C69972   0.034   7.892   2.570  0.4397  0.9307 -0.1386
  508MOL0     C69973  -0.100   7.856   2.527  0.0467 -0.5645  0.2050
  508MOL0     O69974  -0.202   7.840   2.617  1.0071  0.1449  0.0456
  508MOL0     C69975  -0.217   7.922   2.726 -0.5257  0.2375 -0.2070
  508MOL0     C69976  -0.181   7.837   2.853 -0.0933 -0.0948 -0.1469
  508MOL0     C69977  -0.173   7.922   2.976 -0.4723  0.2626  0.7559
  508MOL0     C69978  -0.028   7.997   2.992 -0.1448  0.5250 -0.3409
  508MOL0     C69979   0.092   7.899   2.991  0.6456  0.2036 -0.3484
  508MOL0     C69980   0.218   7.967   3.044  0.2558  0.7302 -0.0343
  508MOL0     C69981   0.263   8.096   2.977 -0.5439 -0.1903  0.1864
  508MOL0     C69982   0.329   8.067   2.833 -0.8572 -0.5417  0.1733
  508MOL0     N69983   0.353   8.191   2.765 -0.0915 -0.0703  0.0295
  508MOL0     C69984   0.473   8.260   2.798  0.6228 -0.4761  0.4553
  508MOL0     C69985   0.454   8.375   2.728 -0.3275  0.0828  0.4062
  508MOL0     C69986   0.531   8.504   2.747  0.1290  0.0278 -0.2191
  508MOL0     C69987   0.676   8.475   2.696  0.6890  0.6166  0.1510
  508MOL0     C69988   0.754   8.607   2.728  0.3748  0.6096 -0.3494
  508MOL0     C69989   0.902   8.585   2.697 -0.5229  0.9426 -0.0642
  508MOL0     O69990   0.960   8.478   2.782 -0.2802 -0.0364 -0.0113
  508MOL0     C69991   1.007   8.521   2.907  0.9225  0.2166  0.0106
  508MOL0     C69992   0.962   8.634   2.979 -0.4286 -0.0353  0.5094
  508MOL0     C69993   0.999   8.668   3.108 -0.6849  0.9648  0.5666
  508MOL0     C69994   0.922   8.782   3.168 -0.2314 -0.0041  0.2593
  508MOL0     C69995   1.094   8.579   3.174  0.4705 -1.1047  0.1550
  508MOL0     C69996   1.158   8.603   3.310  0.4430 -0.0535  0.3900
  508MOL0     O69997   1.241   8.504   3.365 -0.1527  0.9261  0.3243
  508MOL0     C69998   1.280   8.515   3.495  0.2153  0.8914 -0.6666
  508MOL0     C69999   1.419   8.516   3.534  0.0505 -0.6175  0.0535
  508MOL0     C70000   1.454   8.535   3.665  0.6451 -0.5238  0.1557
  508MOL0     C70001   1.358   8.567   3.770 -0.5256 -0.3053  0.1150
  508MOL0     O70002   1.402   8.593   3.899  0.0090 -0.0016  0.1599
  508MOL0     C70003   1.307   8.641   3.990 -0.1609  0.9368 -0.1678
  508MOL0     C70004   1.381   8.646   4.128 -0.3160  0.0900  0.8039
  508MOL0     C70005   1.519   8.715   4.120 -0.5460 -0.9607 -0.0735
  508MOL0     C70006   1.573   8.739   4.260 -0.1152 -0.5868 -0.3144
  508MOL0     C70007   1.690   8.842   4.278 -0.5347 -0.2729 -1.0395
  508MOL0     C70008   1.809   8.799   4.195  0.2062 -0.2677  0.0718
  508MOL0     C70009   1.922   8.895   4.215 -0.0123  0.5129 -0.1070
  508MOL0     C70010   2.042   8.833   4.134  0.4380 -0.5957 -1.0733
  508MOL0    Cl70011   2.210   8.892   4.173 -0.0818 -0.1973  0.0754
  508MOL0     C70012   1.221   8.565   3.736  0.5171  0.0049  0.7605
  508MOL0     C70013   1.187   8.542   3.604 -0.2125 -0.1029  0.0719
  508MOL0     O70014   1.144   8.717   3.359  0.0527  0.6279 -0.6785
  508MOL0     C70015   1.122   8.454   3.113  0.2305 -0.1314  0.9720
  508MOL0     C70016   1.078   8.427   2.979  0.8802  0.2413 -0.0167
  508MOL0     N70017   0.348   8.368   2.651 -0.7661  0.3502  0.5515
  508MOL0     N70018   0.291   8.256   2.661 -0.2924 -0.0278 -0.2267
  508MOL0     C70019  -0.125   7.835   2.390 -0.2716 -1.1393  1.3441
  508MOL0     C70020  -0.024   7.854   2.293 -0.6674 -0.6945 -0.5148
  508MOL0     C70021   0.321   7.804   2.049  0.2352 -0.2467  0.3926
  508MOL0     C70022   0.432   7.721   2.031 -0.1174  0.7495  0.1997
  508MOL0     C70023   0.478   7.702   1.896 -0.9921 -0.2352 -0.0556
  508MOL0     C70024   0.430   7.763   1.788 -0.2479 -0.6442  0.6749
  508MOL0     O70025   0.460   7.728   1.666 -0.4953  0.0485  0.3443
  508MOL0     C70026   0.559   7.633   1.630 -0.0086  0.3497  0.4406
  508MOL0     C70027   0.542   7.602   1.485  0.3521 -0.3801  0.1235
  508MOL0     C70028   0.423   7.512   1.459  0.3013 -0.0673 -0.3320
  508MOL0     C70029   0.401   7.472   1.313  0.0954 -0.5948  0.4725
  508MOL0     C70030   0.386   7.594   1.230 -1.0591 -0.5979 -0.2338
  508MOL0     C70031   0.391   7.705   1.184 -0.0072  0.4312 -0.1706
  508MOL0     C70032   0.326   7.848   1.810 -0.2054  0.4328 -0.0839
  508MOL0     C70033   0.275   7.876   1.936  0.2564  0.2402  0.2027
  508MOL0     C70034   0.153   7.972   1.930  0.5497 -0.6168 -0.6386
  508MOL0     H70035   0.238   7.937   2.494 -0.0544 -2.1263 -0.1981
  508MOL0     H70036   0.061   7.894   2.676 -1.0911  1.3091  0.2737
  508MOL0     H70037  -0.316   7.966   2.738 -0.6973  0.6904 -2.7725
  508MOL0     H70038  -0.145   8.004   2.722  3.8595 -3.2232  0.0595
  508MOL0     H70039  -0.258   7.766   2.883  1.2857 -0.8884  1.7511
  508MOL0     H70040  -0.090   7.778   2.836  0.0020  0.5985 -2.2690
  508MOL0     H70041  -0.256   7.993   2.970  0.5457  1.4842  0.7311
  508MOL0     H70042  -0.192   7.867   3.068 -0.6996 -1.1800 -0.1212
  508MOL0     H70043  -0.040   8.065   2.907 -1.0345  0.4950 -0.2523
  508MOL0     H70044  -0.018   8.061   3.079  3.4198  0.5717 -0.6650
  508MOL0     H70045   0.105   7.851   2.894 -0.3002  0.6604 -0.7053
  508MOL0     H70046   0.073   7.811   3.053  2.2567 -0.2569 -0.4475
  508MOL0     H70047   0.217   7.974   3.153  3.2246 -2.6810  0.4305
  508MOL0     H70048   0.301   7.897   3.028  0.5255  0.4435  2.3251
  508MOL0     H70049   0.321   8.162   3.041  0.2570 -2.2870  1.7520
  508MOL0     H70050   0.173   8.155   2.961 -1.1675 -0.2485  2.9236
  508MOL0     H70051   0.415   8.000   2.836 -2.1043 -2.1547  1.7284
  508MOL0     H70052   0.249   8.021   2.776 -1.0972  2.5278 -2.2769
  508MOL0     H70053   0.541   8.233   2.878  2.0765 -0.3736 -0.7200
  508MOL0     H70054   0.533   8.549   2.847  1.7265 -0.5489  0.0496
  508MOL0     H70055   0.488   8.587   2.690  1.7338  0.2380 -1.1877
  508MOL0     H70056   0.713   8.390   2.755 -1.6256  0.7544  1.9672
  508MOL0     H70057   0.680   8.463   2.587 -0.0819  0.8044  0.0929
  508MOL0     H70058   0.717   8.691   2.669  0.6089  0.2420 -1.0332
  508MOL0     H70059   0.745   8.636   2.833 -2.5111  2.1739 -0.9156
  508MOL0     H70060   0.910   8.550   2.593 -0.5227 -0.0076  0.2427
  508MOL0     H70061   0.960   8.676   2.710 -2.2186  1.9167  0.9445
  508MOL0     H70062   0.902   8.701   2.918  0.0939  0.4738  0.5467
  508MOL0     H70063   0.862   8.836   3.093  1.8425  1.3321 -0.5367
  508MOL0     H70064   0.996   8.855   3.203 -0.3172 -0.2258  0.8976
  508MOL0     H70065   0.858   8.755   3.252  0.0479  1.9794  1.1868
  508MOL0     H70066   1.501   8.498   3.464 -0.4693 -3.4118  0.0306
  508MOL0     H70067   1.560   8.528   3.688  0.9427 -1.4710 -1.3311
  508MOL0     H70068   1.275   8.743   3.967  2.5352  2.0561  0.7346
  508MOL0     H70069   1.225   8.570   3.999 -0.2551  0.9354 -0.9198
  508MOL0     H70070   1.320   8.699   4.202  2.8193  2.6797  1.7461
  508MOL0     H70071   1.387   8.545   4.168  3.3253 -0.2249 -0.1753
  508MOL0     H70072   1.505   8.812   4.071 -1.1160 -1.2564 -0.5082
  508MOL0     H70073   1.594   8.664   4.060  0.9810  1.2476 -0.1729
  508MOL0     H70074   1.615   8.642   4.287  1.2597  0.0152 -0.2006
  508MOL0     H70075   1.496   8.762   4.334  1.9522 -4.3301  3.3944
  508MOL0     H70076   1.653   8.942   4.253 -0.0456  0.1069 -0.2790
  508MOL0     H70077   1.719   8.839   4.384  0.5014 -2.5995 -1.3294
  508MOL0     H70078   1.783   8.808   4.089 -0.8710 -3.0773  0.0058
  508MOL0     H70079   1.840   8.700   4.228  0.6372  0.7385  3.0106
  508MOL0     H70080   1.948   8.903   4.321 -1.3459 -0.0776  0.2781
  508MOL0     H70081   1.893   8.996   4.184 -1.4071  0.5734  1.2981
  508MOL0     H70082   2.025   8.848   4.027 -2.7311  0.4964 -0.5413
  508MOL0     H70083   2.042   8.727   4.161 -1.4893 -0.7983 -1.7150
  508MOL0     H70084   1.151   8.581   3.817 -0.8333  3.5793 -0.9413
  508MOL0     H70085   1.083   8.547   3.576 -0.2607 -0.1068  0.2479
  508MOL0     H70086   1.183   8.380   3.164  0.4294  0.8690  2.2464
  508MOL0     H70087   1.105   8.336   2.926 -4.3127 -1.4341 -0.3188
  508MOL0     H70088  -0.218   7.796   2.350 -0.3659  0.1534  0.2235
  508MOL0     H70089  -0.054   7.849   2.189  0.4102  1.9470 -1.0292
  508MOL0     H70090   0.479   7.664   2.110 -0.0822 -0.2103 -0.5008
  508MOL0     H70091   0.564   7.636   1.887  0.5506  1.9010 -2.7246
  508MOL0     H70092   0.660   7.668   1.651  0.5870 -0.7239 -0.5542
  508MOL0     H70093   0.559   7.546   1.697  2.4610 -0.4224 -0.4397
  508MOL0     H70094   0.639   7.569   1.447 -0.0820  0.1229 -1.5119
  508MOL0     H70095   0.530   7.699   1.435 -2.0895  0.5097  2.2305
  508MOL0     H70096   0.428   7.422   1.521  0.3343 -0.0049 -0.2433
  508MOL0     H70097   0.335   7.556   1.508  0.5950 -2.1640  2.3695
  508MOL0     H70098   0.318   7.402   1.298 -0.5715 -0.4372  3.0216
  508MOL0     H70099   0.491   7.423   1.276 -0.3928  0.4879 -2.4313
  508MOL0     H70100   0.371   7.808   1.162 -0.5477 -0.2923 -3.6613
  508MOL0     H70101   0.271   7.873   1.720 -0.4337 -2.8885 -1.0143
  508MOL0     H70102   0.084   7.974   2.015 -1.4584  2.9476 -2.1426
  508MOL0     H70103   0.189   8.074   1.915  1.7265 -0.7877  0.8243
  508MOL0     H70104   0.093   7.946   1.843 -0.0248  1.0190 -0.7694
  509MOL0     O70105   9.381  10.199   8.821  0.0565 -0.0789 -0.6631
  509MOL0     C70106   9.279  10.230   8.877  0.5011 -0.4050  0.3323
  509MOL0     O70107   9.269  10.315   8.981 -0.4411 -0.3735  0.7134
  509MOL0     C70108   9.383  10.371   9.041 -0.8243  0.5283 -0.3971
  509MOL0     C70109   9.512  10.383   8.990 -0.3680  0.2169 -0.0443
  509MOL0     C70110   9.613  10.453   9.057 -0.1480  0.4947  0.1350
  509MOL0     C70111   9.576  10.513   9.182 -0.4634  0.5028 -0.0406
  509MOL0     O70112   9.669  10.589   9.258  0.3832  0.3648  0.3459
  509MOL0     C70113   9.806  10.572   9.225 -0.6106 -0.1148 -0.2749
  509MOL0     C70114   9.882  10.659   9.336 -0.0520 -0.1407 -0.0858
  509MOL0     C70115   9.881  10.802   9.302  0.0872 -0.1969  0.1237
  509MOL0     C70116   9.960  10.896   9.395  0.6631  0.1150 -0.2218
  509MOL0     C70117   9.873  11.006   9.465 -0.2953 -0.5011  0.6711
  509MOL0     C70118   9.756  10.948   9.544 -0.0002  0.7641  0.0431
  509MOL0     C70119   9.795  10.870   9.667  0.1119 -0.2982  0.4951
  509MOL0     C70120   9.682  10.818   9.755  0.0020  0.4666 -0.0305
  509MOL0     N70121   9.590  10.730   9.698  0.5587 -0.2712  0.1243
  509MOL0     C70122   9.580  10.593   9.717 -0.5850 -0.3433 -0.2309
  509MOL0     C70123   9.480  10.554   9.637 -0.8081 -0.1913  0.2372
  509MOL0     C70124   9.448  10.412   9.620 -0.1297  0.3599 -0.4893
  509MOL0     C70125   9.304  10.383   9.637  0.5518 -0.2717  0.2103
  509MOL0     C70126   9.281  10.234   9.656 -0.0787  0.5064  0.3796
  509MOL0     C70127   9.129  10.195   9.674  0.5625 -0.4741  1.1236
  509MOL0     O70128   9.106  10.060   9.719 -0.7462 -0.8315 -0.4366
  509MOL0     C70129   9.150  10.031   9.847 -0.2348  0.2607 -1.0179
  509MOL0     C70130   9.176  10.126   9.944  0.8033 -0.2338  1.0692
  509MOL0     C70131   9.218  10.091  10.071 -0.0501 -0.7792  0.7613
  509MOL0     C70132   9.214  10.206  10.169 -0.0482 -0.4502 -0.1765
  509MOL0     C70133   9.263   9.952  10.096 -0.4804 -0.2847 -0.1761
  509MOL0     C70134   9.310   9.898  10.227 -0.3313 -0.7097 -0.5193
  509MOL0     O70135   9.322   9.763  10.242  1.2188  0.3717 -0.2297
  509MOL0     C70136   9.336   9.726  10.377 -0.1208  0.8865  0.5466
  509MOL0     C70137   9.229   9.740  10.464 -0.1283  0.5083  0.0509
  509MOL0     C70138   9.239   9.705  10.598 -0.6176  0.2363 -0.0825
  509MOL0     C70139   9.346   9.642  10.653  0.5034  0.1128  0.4063
  509MOL0     O70140   9.336   9.588  10.776  0.0847  0.2071 -0.6524
  509MOL0     C70141   9.450   9.604  10.866  0.7002 -0.8075  0.1204
  509MOL0     C70142   9.402   9.666  11.001  0.2440  0.3265  0.4391
  509MOL0     C70143   9.338   9.802  10.986 -1.0919  0.4356  0.5187
  509MOL0     C70144   9.264   9.860  11.099  0.7164 -0.2152 -0.3833
  509MOL0     C70145   9.351   9.899  11.220 -0.6209  0.4006 -0.4312
  509MOL0     C70146   9.257   9.945  11.333 -1.0128  0.6097  0.2682
  509MOL0     C70147   9.161  10.062  11.285  0.0982  0.6568  0.1002
  509MOL0     C70148   9.151  10.165  11.391  0.5681  0.1118 -0.6823
  509MOL0    Cl70149   9.294  10.268  11.426 -0.5844 -0.0420  0.6394
  509MOL0     C70150   9.457   9.631  10.565 -0.2066 -0.4687  0.1810
  509MOL0     C70151   9.450   9.672  10.432  0.5848  0.1404  0.2156
  509MOL0     O70152   9.330   9.977  10.318 -0.1786 -0.1711  0.6158
  509MOL0     C70153   9.239   9.858   9.997  1.3196 -0.2312 -0.5817
  509MOL0     C70154   9.180   9.895   9.880 -0.0391 -1.0823  0.5915
  509MOL0     N70155   9.439  10.668   9.562  0.2403  0.2318 -0.3820
  509MOL0     N70156   9.495  10.772   9.608 -0.3100  0.2481 -0.6668
  509MOL0     C70157   9.448  10.502   9.236 -0.4022  0.7737 -0.1601
  509MOL0     C70158   9.354  10.425   9.167 -0.4207  0.2367 -0.4679
  509MOL0     C70159   9.148  10.184   8.823 -0.2989 -0.8093  0.1075
  509MOL0     C70160   9.032  10.203   8.908  0.4878  0.8729  0.2402
  509MOL0     C70161   8.908  10.164   8.859 -0.3989  0.6144 -0.6171
  509MOL0     C70162   8.891  10.088   8.749  0.0042  0.2622  0.3057
  509MOL0     O70163   8.780  10.030   8.697 -0.4827  0.1893 -0.2440
  509MOL0     C70164   8.656  10.030   8.774 -1.1340 -0.3528  0.1374
  509MOL0     C70165   8.634   9.891   8.840 -0.1451 -0.7974 -0.4875
  509MOL0     C70166   8.721   9.870   8.966  0.6117 -0.6556 -0.1909
  509MOL0     C70167   8.689   9.731   9.018  0.7208 -0.1740  0.1630
  509MOL0     C70168   8.769   9.704   9.138  0.1624 -0.4737 -0.1225
  509MOL0     C70169   8.851   9.675   9.222  0.4348  0.0743 -1.3899
  509MOL0     C70170   9.006  10.062   8.668  0.2336  0.8821 -0.2762
  509MOL0     C70171   9.131  10.112   8.701 -0.2393 -0.5707 -0.2988
  509MOL0     C70172   9.247  10.080   8.602 -0.3447  0.4136 -0.3708
  509MOL0     H70173   9.542  10.350   8.891  0.7985 -0.3730  0.4858
  509MOL0     H70174   9.712  10.458   9.013 -0.4587  0.5488 -0.5650
  509MOL0     H70175   9.832  10.613   9.127  1.6434 -2.1444 -0.6120
  509MOL0     H70176   9.840  10.469   9.217  0.2400 -0.0063  1.4674
  509MOL0     H70177   9.843  10.627   9.433  1.8644 -0.9775  0.4673
  509MOL0     H70178   9.986  10.626   9.346 -0.5340 -1.7920 -0.3078
  509MOL0     H70179   9.940  10.807   9.210  0.6016 -0.6290  0.4291
  509MOL0     H70180   9.779  10.836   9.282  0.2645 -0.9687 -2.4574
  509MOL0     H70181  10.005  10.839   9.477 -0.1826  1.4082  1.2019
  509MOL0     H70182  10.041  10.940   9.336 -0.0978  0.0948 -1.3278
  509MOL0     H70183   9.827  11.076   9.395 -1.1019 -0.9391  0.7495
  509MOL0     H70184   9.944  11.058   9.531  2.0153 -0.7559 -1.4688
  509MOL0     H70185   9.694  11.030   9.583 -0.0140  1.0763 -0.6278
  509MOL0     H70186   9.693  10.889   9.477  0.1503 -1.9063  2.1025
  509MOL0     H70187   9.847  10.933   9.739 -0.9537 -0.0234  1.0451
  509MOL0     H70188   9.862  10.787   9.641  2.1576  1.4814 -0.2282
  509MOL0     H70189   9.739  10.763   9.830  0.3683 -1.7622 -1.8051
  509MOL0     H70190   9.621  10.898   9.798  0.0633 -0.6021  2.1427
  509MOL0     H70191   9.643  10.534   9.783  0.1610  0.9356  0.2546
  509MOL0     H70192   9.501  10.360   9.701 -0.7993  1.1453  0.4902
  509MOL0     H70193   9.489  10.366   9.530 -1.5454 -0.0227 -0.9664
  509MOL0     H70194   9.277  10.450   9.719  0.9150  0.7755 -0.5067
  509MOL0     H70195   9.241  10.426   9.558  0.4496  0.7741  0.8359
  509MOL0     H70196   9.317  10.181   9.568  0.0729  1.0231  0.1217
  509MOL0     H70197   9.328  10.199   9.749 -1.0334 -1.8053  0.0629
  509MOL0     H70198   9.086  10.274   9.737  1.8081  0.8883  0.3245
  509MOL0     H70199   9.088  10.203   9.573 -0.4761  0.0650  1.5670
  509MOL0     H70200   9.137  10.226   9.928  0.7768 -0.4471 -0.3884
  509MOL0     H70201   9.153  10.290  10.135 -2.0553 -1.4183  0.8554
  509MOL0     H70202   9.315  10.244  10.183 -1.2016  2.4307  1.1346
  509MOL0     H70203   9.179  10.184  10.271 -3.3497  1.3519 -0.7658
  509MOL0     H70204   9.138   9.786  10.426 -0.4251  1.9341  2.2629
  509MOL0     H70205   9.152   9.716  10.661  0.1480  0.2031  1.0020
  509MOL0     H70206   9.494   9.509  10.895  0.6958 -0.9271 -0.2646
  509MOL0     H70207   9.524   9.671  10.823  0.2855 -1.1143 -1.1008
  509MOL0     H70208   9.326   9.605  11.050  1.7005 -2.3299 -0.3715
  509MOL0     H70209   9.487   9.673  11.069  0.8298 -1.7913  0.0171
  509MOL0     H70210   9.268   9.809  10.903 -0.9919  0.2734  0.4205
  509MOL0     H70211   9.427   9.864  10.973 -1.3445  0.9349  1.1111
  509MOL0     H70212   9.187   9.787  11.127 -0.5894  1.0656 -0.5411
  509MOL0     H70213   9.197   9.939  11.065  0.2768 -0.7110 -0.6864
  509MOL0     H70214   9.415   9.818  11.256 -1.9076 -0.7458 -0.6264
  509MOL0     H70215   9.419   9.977  11.184 -0.2333 -0.2028 -1.0392
  509MOL0     H70216   9.316   9.973  11.420  0.9607  1.5809 -1.2955
  509MOL0     H70217   9.191   9.860  11.354 -0.6680  0.0697 -0.7417
  509MOL0     H70218   9.067  10.013  11.258  1.7149 -2.1960 -0.7539
  509MOL0     H70219   9.199  10.114  11.197 -0.4913  0.5381 -0.2275
  509MOL0     H70220   9.124  10.111  11.483  0.8406  1.7599  0.4077
  509MOL0     H70221   9.069  10.231  11.362  1.3310  2.7141  2.4075
  509MOL0     H70222   9.550   9.584  10.595  1.4019  2.9274  1.1274
  509MOL0     H70223   9.539   9.660  10.372 -0.7503 -2.5583 -1.4233
  509MOL0     H70224   9.256   9.751  10.003 -0.9911 -0.5573  3.2764
  509MOL0     H70225   9.154   9.820   9.806  0.3365 -1.7805  1.1585
  509MOL0     H70226   9.428  10.565   9.322  0.8129  0.7251  0.1770
  509MOL0     H70227   9.251  10.415   9.200  0.1794  0.5313  1.6198
  509MOL0     H70228   9.036  10.237   9.011  0.1173 -0.5887  0.7625
  509MOL0     H70229   8.822  10.190   8.921  2.5353  2.2765  3.1541
  509MOL0     H70230   8.645  10.117   8.839  1.2042  2.4715 -2.9085
  509MOL0     H70231   8.566  10.047   8.713 -1.3855 -0.7456  0.3918
  509MOL0     H70232   8.650   9.815   8.763 -1.4289  0.5565 -2.1746
  509MOL0     H70233   8.529   9.905   8.867  0.1519  0.6961 -0.0183
  509MOL0     H70234   8.824   9.896   8.941  1.1221 -0.8777  1.5600
  509MOL0     H70235   8.692   9.944   9.041  0.7842 -0.8066  0.0249
  509MOL0     H70236   8.693   9.650   8.943  3.8221 -0.0401  0.0495
  509MOL0     H70237   8.586   9.729   9.055  0.0567 -2.5088 -1.5510
  509MOL0     H70238   8.930   9.668   9.294 -2.9642  0.6318  2.7496
  509MOL0     H70239   9.003   9.999   8.580 -1.7092 -0.9379  0.9762
  509MOL0     H70240   9.227  10.005   8.524  2.2380 -0.9082  0.0986
  509MOL0     H70241   9.260  10.167   8.536  1.2142  1.3691  1.1077
  509MOL0     H70242   9.340  10.050   8.652 -0.6846  1.2973  0.8221
  510MOL0     O70243   3.627   7.008   0.833 -0.3464 -0.3611 -0.3965
  510MOL0     C70244   3.622   7.015   0.712  0.1226 -0.1904  0.4695
  510MOL0     O70245   3.719   7.013   0.619 -0.1159  0.1894  0.2863
  510MOL0     C70246   3.844   6.987   0.665 -0.0631 -0.5209 -0.7302
  510MOL0     C70247   3.921   7.091   0.719 -0.1821  0.2054 -0.4725
  510MOL0     C70248   4.055   7.075   0.751 -0.2876  0.9629 -0.2872
  510MOL0     C70249   4.116   6.951   0.723  0.9325  0.6857  0.8838
  510MOL0     O70250   4.253   6.944   0.755 -0.1952  0.0288  0.0613
  510MOL0     C70251   4.311   6.816   0.742  0.1010  0.0674  0.1772
  510MOL0     C70252   4.454   6.822   0.781 -0.2997  0.2963  0.4707
  510MOL0     C70253   4.522   6.688   0.754 -0.3476  0.2860 -0.1140
  510MOL0     C70254   4.676   6.693   0.783  0.5100 -0.0133 -0.4086
  510MOL0     C70255   4.698   6.716   0.931 -0.0520  0.3183 -0.6103
  510MOL0     C70256   4.842   6.676   0.969 -0.2023  0.0780 -0.2808
  510MOL0     C70257   4.877   6.693   1.121 -0.7512 -0.0226 -0.4696
  510MOL0     C70258   4.811   6.580   1.211 -0.4895 -0.3871  0.5823
  510MOL0     N70259   4.863   6.571   1.347  0.5016  0.0735 -0.1699
  510MOL0     C70260   4.861   6.665   1.442 -0.0825 -0.3537  0.8755
  510MOL0     C70261   4.943   6.613   1.533 -0.5946  0.4166 -0.1491
  510MOL0     C70262   4.978   6.662   1.667 -0.1540  0.4928  0.0557
  510MOL0     C70263   5.041   6.790   1.666  0.3155  0.0073  0.4283
  510MOL0     C70264   5.012   6.882   1.791 -0.5721 -0.7937  0.2985
  510MOL0     C70265   5.102   6.999   1.782  1.1706  0.1090  0.4113
  510MOL0     O70266   5.234   6.960   1.760 -0.0227  0.2332 -0.1600
  510MOL0     C70267   5.314   7.048   1.689  1.1641  0.1385  0.0164
  510MOL0     C70268   5.445   7.057   1.734 -0.2027  0.9381  0.2308
  510MOL0     C70269   5.533   7.162   1.702 -0.1030 -0.4746 -0.6711
  510MOL0     C70270   5.678   7.145   1.743 -0.6790  0.4849 -0.1824
  510MOL0     C70271   5.503   7.245   1.600 -0.2020 -0.1890  0.5477
  510MOL0     C70272   5.602   7.331   1.529  0.6593 -0.7581 -0.4239
  510MOL0     O70273   5.578   7.345   1.397  0.6495  0.4174  0.5414
  510MOL0     C70274   5.669   7.413   1.322  0.5028  0.3057  0.4457
  510MOL0     C70275   5.800   7.381   1.318  0.4065  0.1527  0.5631
  510MOL0     C70276   5.891   7.445   1.240 -0.5358 -0.0558  0.0084
  510MOL0     C70277   5.855   7.563   1.172 -0.2049 -0.0491 -0.2858
  510MOL0     O70278   5.959   7.620   1.094 -0.1000  0.0258  0.2262
  510MOL0     C70279   5.923   7.750   1.031 -0.3311  0.5492 -1.1745
  510MOL0     C70280   6.035   7.801   0.934 -0.2813  0.2070 -0.5896
  510MOL0     C70281   6.149   7.856   1.006 -0.1367  0.0844 -0.1190
  510MOL0     C70282   6.245   7.916   0.908  0.0806 -0.3287  0.9820
  510MOL0     C70283   6.378   7.954   0.981  0.5922 -0.2292 -0.7227
  510MOL0     C70284   6.462   7.837   1.039 -0.3898 -0.2634 -0.0897
  510MOL0     C70285   6.480   7.711   0.947  0.1669  0.1934 -0.9958
  510MOL0     C70286   6.576   7.610   1.002 -0.0646  0.3780  0.1312
  510MOL0    Cl70287   6.744   7.699   1.017 -0.2696 -0.2270 -0.2133
  510MOL0     C70288   5.720   7.604   1.183  0.2228  0.3968 -0.7239
  510MOL0     C70289   5.627   7.531   1.258 -0.1521  0.8395 -0.5693
  510MOL0     O70290   5.676   7.402   1.594  0.4611 -0.9339 -0.0392
  510MOL0     C70291   5.372   7.227   1.545  0.3026 -0.5820  0.9499
  510MOL0     C70292   5.275   7.130   1.583 -0.7302 -0.3731  0.2903
  510MOL0     N70293   4.979   6.486   1.501 -0.5208  0.7478  0.5869
  510MOL0     N70294   4.931   6.455   1.388  0.3122 -0.6790 -0.8543
  510MOL0     C70295   4.038   6.845   0.662 -0.0231 -0.0835  0.3903
  510MOL0     C70296   3.906   6.862   0.639 -0.2937 -0.4759  0.3685
  510MOL0     C70297   3.492   7.051   0.654 -0.1499  0.6093 -0.0952
  510MOL0     C70298   3.484   7.113   0.525 -0.1722 -0.1561 -0.5767
  510MOL0     C70299   3.365   7.141   0.464  0.1924  0.1205 -0.3426
  510MOL0     C70300   3.242   7.096   0.526 -0.1860 -0.0343 -0.7398
  510MOL0     O70301   3.127   7.116   0.456  0.6366  0.6108 -0.0357
  510MOL0     C70302   3.011   7.049   0.499  1.4350 -0.2689  0.3370
  510MOL0     C70303   2.891   7.076   0.391 -0.1694  0.3165 -0.5365
  510MOL0     C70304   2.801   6.956   0.376  0.1085  0.2239  0.8947
  510MOL0     C70305   2.701   6.940   0.484 -0.0304  0.8414  0.7817
  510MOL0     C70306   2.604   6.839   0.425 -0.2573 -0.2719  0.5231
  510MOL0     C70307   2.540   6.733   0.392  0.0743 -0.1399 -0.8434
  510MOL0     C70308   3.245   7.022   0.652 -0.3767 -0.2419  0.3366
  510MOL0     C70309   3.370   7.005   0.712  1.0063  0.1205  0.0307
  510MOL0     C70310   3.351   6.916   0.829 -0.2951  0.3964 -0.2269
  510MOL0     H70311   3.880   7.190   0.737 -3.1583 -0.9654 -0.2266
  510MOL0     H70312   4.117   7.149   0.800  1.4022 -0.6546  0.1396
  510MOL0     H70313   4.306   6.776   0.640 -0.7276  0.6142 -0.0059
  510MOL0     H70314   4.260   6.750   0.812  1.2088 -0.1910  0.7654
  510MOL0     H70315   4.496   6.889   0.706  1.4977 -2.4502 -1.1677
  510MOL0     H70316   4.456   6.860   0.883  1.2392  0.9319  0.2223
  510MOL0     H70317   4.466   6.618   0.817  0.0087  0.6248  0.5943
  510MOL0     H70318   4.504   6.672   0.648  0.5277 -0.7427 -0.1203
  510MOL0     H70319   4.721   6.598   0.752 -1.6653 -1.8571  1.6651
  510MOL0     H70320   4.732   6.769   0.728  1.0501  1.3869  1.9208
  510MOL0     H70321   4.638   6.648   0.992  1.2643  0.1319  0.5083
  510MOL0     H70322   4.677   6.821   0.954  0.5244  0.2074  0.4812
  510MOL0     H70323   4.871   6.572   0.949  3.1894  1.2535 -2.2463
  510MOL0     H70324   4.910   6.740   0.913 -2.3850  2.4665 -0.3655
  510MOL0     H70325   4.848   6.794   1.154  3.5188  0.9841  0.8566
  510MOL0     H70326   4.986   6.689   1.134 -0.5128  4.8848  1.0741
  510MOL0     H70327   4.705   6.607   1.212  0.0063  2.7636 -3.9505
  510MOL0     H70328   4.807   6.490   1.148  0.6550  0.5728 -0.9262
  510MOL0     H70329   4.799   6.752   1.462 -0.0600 -0.2705  0.5865
  510MOL0     H70330   5.035   6.596   1.733 -1.4423  1.5207  2.3176
  510MOL0     H70331   4.884   6.675   1.720 -0.2951  1.8349 -0.4726
  510MOL0     H70332   5.147   6.766   1.654  0.7908  3.0359 -7.5145
  510MOL0     H70333   5.020   6.838   1.570  1.1107  1.2147  0.8269
  510MOL0     H70334   4.907   6.912   1.795 -0.6148 -1.0478  1.3880
  510MOL0     H70335   5.047   6.817   1.872  1.3576 -0.7697 -0.4427
  510MOL0     H70336   5.068   7.065   1.701  1.9389  1.2465  0.9865
  510MOL0     H70337   5.088   7.053   1.876 -0.0820  1.1995 -0.3620
  510MOL0     H70338   5.490   6.984   1.801  2.2889  0.6440 -1.6181
  510MOL0     H70339   5.692   7.092   1.838  2.8331  2.1213  0.3646
  510MOL0     H70340   5.723   7.240   1.773  1.0102 -0.9897  2.3446
  510MOL0     H70341   5.733   7.100   1.661 -3.8935 -1.6237 -1.3568
  510MOL0     H70342   5.841   7.298   1.374  0.5722  0.0089  0.2309
  510MOL0     H70343   5.993   7.414   1.224  0.0171  0.6910  1.8426
  510MOL0     H70344   5.835   7.729   0.969 -0.2662 -2.1987 -0.5038
  510MOL0     H70345   5.906   7.831   1.102 -1.4346  2.0822 -3.0763
  510MOL0     H70346   6.061   7.720   0.866  0.4238 -0.3654  0.3407
  510MOL0     H70347   5.983   7.883   0.883 -0.6502 -0.5327 -1.4208
  510MOL0     H70348   6.198   7.782   1.069  3.4961  2.1046 -0.2671
  510MOL0     H70349   6.112   7.929   1.079 -0.9859 -1.1228  0.6833
  510MOL0     H70350   6.202   8.003   0.859  2.3939  0.3376 -0.0033
  510MOL0     H70351   6.270   7.841   0.832  1.6477  1.9303 -0.8626
  510MOL0     H70352   6.443   8.011   0.914  3.4214 -0.9716  1.2195
  510MOL0     H70353   6.353   8.015   1.069  0.2959 -3.9185  1.9644
  510MOL0     H70354   6.415   7.811   1.135 -0.6710  0.7246  0.0501
  510MOL0     H70355   6.560   7.880   1.059  0.0345 -0.9384 -0.6826
  510MOL0     H70356   6.509   7.749   0.849 -0.0028  2.9992 -0.0369
  510MOL0     H70357   6.385   7.657   0.939  0.4884 -1.1751  2.5643
  510MOL0     H70358   6.594   7.523   0.938  3.4948  0.4245  0.8565
  510MOL0     H70359   6.532   7.574   1.095  0.3186 -2.2889 -0.6464
  510MOL0     H70360   5.689   7.700   1.144 -0.3782  0.4801 -0.0473
  510MOL0     H70361   5.521   7.556   1.262 -0.5461 -0.9052  1.8289
  510MOL0     H70362   5.341   7.292   1.463 -0.6233  0.0019  1.7504
  510MOL0     H70363   5.176   7.122   1.539 -0.9836  1.0961  0.5466
  510MOL0     H70364   4.084   6.748   0.648  3.4000  1.3861  0.4125
  510MOL0     H70365   3.842   6.788   0.592 -0.3288  1.0109 -2.0980
  510MOL0     H70366   3.575   7.150   0.480 -0.3030 -0.3065 -0.9689
  510MOL0     H70367   3.363   7.185   0.365  2.8094  0.9265 -0.1196
  510MOL0     H70368   3.038   6.943   0.497  1.3288 -0.3702 -3.7358
  510MOL0     H70369   2.978   7.084   0.597  0.7714  1.0489 -0.3367
  510MOL0     H70370   2.936   7.091   0.293 -2.2514 -1.0457 -1.7675
  510MOL0     H70371   2.832   7.166   0.412 -2.3389 -0.9864 -0.7487
  510MOL0     H70372   2.749   6.980   0.283  2.3989 -2.3038 -1.2377
  510MOL0     H70373   2.853   6.864   0.347 -1.5775 -1.2504  2.3403
  510MOL0     H70374   2.636   7.028   0.492 -2.0282 -0.3685 -0.9974
  510MOL0     H70375   2.730   6.915   0.586  1.0712 -5.0308 -0.6181
  510MOL0     H70376   2.470   6.652   0.386  0.4229 -0.5686  0.4670
  510MOL0     H70377   3.154   6.993   0.704  0.6858 -1.6596  1.5114
  510MOL0     H70378   3.389   6.980   0.909 -0.0384  1.3338 -1.0793
  510MOL0     H70379   3.255   6.870   0.853  1.6094 -3.2367  1.4034
  510MOL0     H70380   3.426   6.837   0.816 -0.4030  0.4537 -1.2651
  511MOL0     O70381   5.845  11.135   6.578  0.2339 -0.1457 -0.1489
  511MOL0     C70382   5.800  11.148   6.463  0.1231 -0.0616 -0.3824
  511MOL0     O70383   5.872  11.104   6.355  0.6354  0.0359  0.0224
  511MOL0     C70384   6.005  11.089   6.379 -0.1546 -1.1238 -0.1585
  511MOL0     C70385   6.105  11.178   6.367  0.9064 -0.3781 -0.3296
  511MOL0     C70386   6.242  11.143   6.395 -0.3481  0.4263  0.1025
  511MOL0     C70387   6.283  11.011   6.428  0.9415  0.2450 -0.0263
  511MOL0     O70388   6.405  10.960   6.464 -0.1064  0.6464 -0.3582
  511MOL0     C70389   6.502  11.056   6.510 -0.3468  0.1462 -0.1041
  511MOL0     C70390   6.638  10.975   6.520 -0.6243  0.6697 -0.0482
  511MOL0     C70391   6.753  11.059   6.579  0.2193  0.3644 -0.6148
  511MOL0     C70392   6.890  10.988   6.577  0.3258  0.0105 -0.0801
  511MOL0     C70393   7.004  11.088   6.586 -0.7674 -0.1142  0.3875
  511MOL0     C70394   7.141  11.015   6.596  0.0208  0.6200 -0.1070
  511MOL0     C70395   7.260  11.104   6.551  1.0316  0.3942 -0.0277
  511MOL0     C70396   7.392  11.025   6.595  0.9288  0.3885  0.1144
  511MOL0     N70397   7.399  11.043   6.742  0.2003  0.1977  0.3627
  511MOL0     C70398   7.452  11.161   6.800  0.0174 -0.5471 -0.2493
  511MOL0     C70399   7.443  11.142   6.939  0.2131  0.2627  0.3598
  511MOL0     C70400   7.497  11.230   7.046  0.2981 -0.1131 -0.0430
  511MOL0     C70401   7.519  11.162   7.179  0.1325 -0.1568 -0.7758
  511MOL0     C70402   7.573  11.243   7.297 -1.0845 -0.1923  0.3792
  511MOL0     C70403   7.453  11.319   7.362  0.0397 -0.9061 -0.3401
  511MOL0     O70404   7.492  11.415   7.473  0.3611 -0.0162  0.2830
  511MOL0     C70405   7.529  11.541   7.430 -0.1156 -0.1237  0.8055
  511MOL0     C70406   7.440  11.643   7.389  0.2870 -0.2294 -0.2025
  511MOL0     C70407   7.477  11.763   7.338  0.2398 -0.1543 -0.4285
  511MOL0     C70408   7.369  11.850   7.285  0.6048 -0.6206  0.2920
  511MOL0     C70409   7.617  11.794   7.324  0.5037 -0.1631 -0.5395
  511MOL0     C70410   7.672  11.930   7.288 -0.0807 -0.6463  0.5175
  511MOL0     O70411   7.811  11.934   7.281  0.3144 -0.5144 -0.1225
  511MOL0     C70412   7.873  12.039   7.223 -0.0589  0.2939 -0.1308
  511MOL0     C70413   8.011  12.039   7.246 -0.8121  0.5640 -0.2367
  511MOL0     C70414   8.106  12.140   7.198 -0.3570 -0.0610 -0.1875
  511MOL0     C70415   8.057  12.236   7.113 -0.5803 -0.2601  0.1040
  511MOL0     O70416   8.136  12.323   7.047  0.0493 -0.2007 -0.2259
  511MOL0     C70417   8.215  12.405   7.127  0.5722 -0.7134 -0.0564
  511MOL0     C70418   8.314  12.496   7.037 -0.4558  0.5706  0.0253
  511MOL0     C70419   8.410  12.571   7.128  0.8483  0.3130 -0.0021
  511MOL0     C70420   8.511  12.678   7.065  0.8343 -0.0310  0.5172
  511MOL0     C70421   8.633  12.700   7.157 -0.3128  0.6070 -0.0092
  511MOL0     C70422   8.705  12.825   7.105 -0.5171 -0.2980  0.0229
  511MOL0     C70423   8.847  12.822   7.147 -0.2898  0.2084 -0.0341
  511MOL0     C70424   8.903  12.961   7.153  0.3379 -0.5556  1.0177
  511MOL0    Cl70425   9.082  12.952   7.215  0.1082 -0.0327  0.1704
  511MOL0     C70426   7.924  12.235   7.091 -0.0017 -0.2389 -0.0414
  511MOL0     C70427   7.826  12.136   7.135  0.7687 -0.1203 -0.1234
  511MOL0     O70428   7.604  12.031   7.278  0.3237  0.2727  0.1877
  511MOL0     C70429   7.707  11.690   7.362  0.8097 -0.0909 -0.3565
  511MOL0     C70430   7.663  11.569   7.416 -0.7145 -0.3678  0.0747
  511MOL0     N70431   7.363  11.024   6.952 -0.8634  0.1683 -0.7033
  511MOL0     N70432   7.336  10.961   6.842 -1.2578 -0.3042  0.0604
  511MOL0     C70433   6.178  10.918   6.443 -0.5410  0.4806 -0.4367
  511MOL0     C70434   6.049  10.963   6.422  0.0159  0.1471  0.7191
  511MOL0     C70435   5.658  11.194   6.453  0.4702 -0.1017  0.7910
  511MOL0     C70436   5.599  11.168   6.323  0.1402 -0.1731 -0.4657
  511MOL0     C70437   5.474  11.212   6.284 -0.2485 -1.5605 -0.3219
  511MOL0     C70438   5.400  11.278   6.380  1.0478 -0.1368  0.0381
  511MOL0     O70439   5.272  11.332   6.348 -0.5639 -0.8095  0.0577
  511MOL0     C70440   5.200  11.269   6.235  0.0528  0.5027 -0.1141
  511MOL0     C70441   5.044  11.276   6.229 -0.5627 -0.1971  0.0634
  511MOL0     C70442   4.977  11.219   6.356  0.1219 -0.1501  0.3938
  511MOL0     C70443   4.823  11.225   6.328  0.0952 -0.1291  0.2612
  511MOL0     C70444   4.754  11.151   6.433 -0.2344  0.2709 -0.3775
  511MOL0     C70445   4.717  11.076   6.519  0.0955 -0.4895 -0.0149
  511MOL0     C70446   5.448  11.302   6.511  0.5677  0.0594  0.1266
  511MOL0     C70447   5.577  11.255   6.552  0.5342 -0.0431 -0.3125
  511MOL0     C70448   5.630  11.291   6.692 -0.2574  0.3276  0.4079
  511MOL0     H70449   6.083  11.277   6.326  1.3797 -0.8959 -1.9200
  511MOL0     H70450   6.327  11.208   6.382 -0.0687  0.1548  0.5625
  511MOL0     H70451   6.477  11.078   6.615 -0.3661 -1.7957  0.3360
  511MOL0     H70452   6.510  11.153   6.459 -1.6272  0.2708 -0.1006
  511MOL0     H70453   6.631  10.884   6.580  1.0947 -1.9606 -3.5604
  511MOL0     H70454   6.667  10.942   6.420 -3.0069  0.5557 -0.7688
  511MOL0     H70455   6.754  11.151   6.520  0.5711  1.5846  1.1986
  511MOL0     H70456   6.730  11.075   6.685  2.9120 -0.6519  0.1852
  511MOL0     H70457   6.882  10.935   6.672 -2.0252  1.6992  0.7494
  511MOL0     H70458   6.891  10.929   6.485 -1.2363 -0.3651  0.1188
  511MOL0     H70459   6.993  11.158   6.669  0.7952 -0.6759  1.0903
  511MOL0     H70460   7.014  11.151   6.497 -0.3536  2.2697  2.0078
  511MOL0     H70461   7.146  10.989   6.702 -2.1922 -0.7165 -0.2513
  511MOL0     H70462   7.146  10.921   6.540 -0.7760  0.3845  0.1987
  511MOL0     H70463   7.250  11.207   6.585 -4.4282  0.5078 -0.9681
  511MOL0     H70464   7.249  11.111   6.442  1.9782 -1.9796 -0.3325
  511MOL0     H70465   7.384  10.920   6.566  3.4834 -0.0477  0.7668
  511MOL0     H70466   7.477  11.072   6.546  0.3374 -0.1128 -1.4766
  511MOL0     H70467   7.510  11.235   6.747  0.2894 -0.0444  0.7225
  511MOL0     H70468   7.431  11.316   7.057 -0.7212 -0.8006 -0.5946
  511MOL0     H70469   7.588  11.273   7.002  0.0014  0.1559 -0.3958
  511MOL0     H70470   7.419  11.125   7.205 -0.2666  2.8560  2.6504
  511MOL0     H70471   7.584  11.075   7.163 -0.8645 -1.0264 -0.2845
  511MOL0     H70472   7.614  11.176   7.372 -1.3532  0.8401  1.4757
  511MOL0     H70473   7.652  11.306   7.256 -0.4682 -2.9224 -3.1200
  511MOL0     H70474   7.402  11.367   7.278  1.0344  0.5359 -0.1544
  511MOL0     H70475   7.385  11.243   7.399 -0.6603  0.3516  1.0487
  511MOL0     H70476   7.334  11.623   7.392  0.3684 -0.5780  0.4927
  511MOL0     H70477   7.387  11.862   7.178 -3.1274  1.0386 -0.3357
  511MOL0     H70478   7.372  11.952   7.325  1.3069 -0.0822 -1.0865
  511MOL0     H70479   7.269  11.810   7.307 -0.6735  3.1664  2.3102
  511MOL0     H70480   8.040  11.955   7.309 -3.6229 -1.2556 -1.2290
  511MOL0     H70481   8.213  12.129   7.214 -0.2633  2.1496  1.0630
  511MOL0     H70482   8.153  12.478   7.180  2.3334  0.1326  0.9442
  511MOL0     H70483   8.276  12.346   7.197 -2.0843 -0.6030  2.5550
  511MOL0     H70484   8.375  12.431   6.973  0.9392  0.4989  1.3807
  511MOL0     H70485   8.267  12.568   6.970 -0.4301  1.1665  0.6402
  511MOL0     H70486   8.468  12.490   7.172 -1.6838 -1.2817  0.5990
  511MOL0     H70487   8.364  12.605   7.221  1.6717 -2.4866  1.5264
  511MOL0     H70488   8.456  12.769   7.041 -2.2761 -1.7027  0.7596
  511MOL0     H70489   8.544  12.641   6.968  0.3908  0.4946  0.1619
  511MOL0     H70490   8.600  12.712   7.260 -2.8250  0.6499 -0.7417
  511MOL0     H70491   8.712  12.624   7.160 -0.9558 -0.0500  1.1899
  511MOL0     H70492   8.655  12.901   7.166  0.3566 -0.9453  1.6020
  511MOL0     H70493   8.703  12.850   6.998  4.1413  0.2286 -0.1175
  511MOL0     H70494   8.912  12.756   7.090  1.6965  0.5367  1.7407
  511MOL0     H70495   8.860  12.786   7.250 -0.7124  2.4836  0.8677
  511MOL0     H70496   8.841  13.022   7.220 -1.6539 -2.2647  0.8471
  511MOL0     H70497   8.895  13.006   7.054 -2.2502 -0.3420  1.2546
  511MOL0     H70498   7.903  12.302   7.009  2.9760 -0.5560 -1.1967
  511MOL0     H70499   7.724  12.137   7.101  1.0850  1.2200 -1.0884
  511MOL0     H70500   7.813  11.705   7.350  0.2935  1.5403 -4.2638
  511MOL0     H70501   7.738  11.493   7.434 -0.4176 -0.1716 -0.3184
  511MOL0     H70502   6.202  10.813   6.459 -1.1642  0.7464  2.9221
  511MOL0     H70503   5.971  10.888   6.422  1.4707 -1.4652 -1.1104
  511MOL0     H70504   5.660  11.123   6.245 -0.8590 -1.9535 -0.2903
  511MOL0     H70505   5.443  11.198   6.181  0.3426 -0.9266 -0.5958
  511MOL0     H70506   5.241  11.305   6.140  0.1356  0.9587  0.0924
  511MOL0     H70507   5.216  11.161   6.243  0.0734  0.5048 -0.1215
  511MOL0     H70508   5.010  11.224   6.139  2.7275  0.3827 -1.6590
  511MOL0     H70509   5.007  11.379   6.230 -0.2089 -0.0566  1.6978
  511MOL0     H70510   5.002  11.115   6.378  0.7665  0.0205  0.5001
  511MOL0     H70511   4.991  11.272   6.450 -0.2180 -3.1095  2.2571
  511MOL0     H70512   4.804  11.171   6.235 -0.4867  0.3273  0.1082
  511MOL0     H70513   4.778  11.323   6.307  0.8504  0.1094 -0.2889
  511MOL0     H70514   4.666  11.010   6.587 -0.8268  1.9940  1.8315
  511MOL0     H70515   5.373  11.351   6.572 -1.1402 -2.0967 -0.0721
  511MOL0     H70516   5.693  11.379   6.697  0.9878 -0.4744 -0.7392
  511MOL0     H70517   5.546  11.306   6.761 -0.2127  0.3829  0.4498
  511MOL0     H70518   5.692  11.208   6.727 -1.3707 -1.5997 -1.8473
  512MOL0     O70519   4.593   7.596   0.725 -0.2744 -0.2724  0.2011
  512MOL0     C70520   4.508   7.503   0.742 -0.0930 -0.7053  0.5695
  512MOL0     O70521   4.544   7.379   0.782  0.8201 -0.4703  0.5599
  512MOL0     C70522   4.653   7.348   0.856 -0.5513  0.2077 -0.0516
  512MOL0     C70523   4.689   7.219   0.853 -0.7569 -0.6694  0.3216
  512MOL0     C70524   4.799   7.164   0.916 -0.4045 -0.2998 -0.5191
  512MOL0     C70525   4.877   7.244   0.996 -0.0729  0.1568 -1.4481
  512MOL0     O70526   4.995   7.212   1.057  0.4580 -0.8373 -0.2514
  512MOL0     C70527   4.996   7.085   1.128  0.5612  1.2872 -0.5303
  512MOL0     C70528   5.111   7.078   1.224 -1.1469  0.2140  0.8341
  512MOL0     C70529   5.241   7.029   1.157 -0.1167 -0.1268  0.2267
  512MOL0     C70530   5.363   7.039   1.252  0.1670 -0.3043  0.6249
  512MOL0     C70531   5.498   6.996   1.190  0.9341 -0.5225 -0.4722
  512MOL0     C70532   5.616   7.034   1.283  0.4855 -0.0211  0.2469
  512MOL0     C70533   5.733   6.936   1.249 -0.1946  0.5879 -0.0199
  512MOL0     C70534   5.857   6.938   1.352  0.8024 -1.1321 -1.0803
  512MOL0     N70535   5.843   6.833   1.456  0.3477  1.2843 -0.4936
  512MOL0     C70536   5.846   6.692   1.433 -0.4290  0.2541 -0.7124
  512MOL0     C70537   5.844   6.637   1.560  0.0025 -0.8189  0.9353
  512MOL0     C70538   5.846   6.484   1.587  0.5124 -0.2835  0.0519
  512MOL0     C70539   5.966   6.420   1.513  1.0944 -0.6888 -0.3160
  512MOL0     C70540   6.103   6.470   1.560 -0.2577  0.4569 -0.5531
  512MOL0     C70541   6.144   6.387   1.685  0.0798  0.2551  0.2699
  512MOL0     O70542   6.273   6.440   1.730  0.0553  0.1495 -0.0380
  512MOL0     C70543   6.353   6.371   1.823  0.3610 -0.3590  0.8367
  512MOL0     C70544   6.338   6.240   1.877  0.1865 -0.1209 -0.6288
  512MOL0     C70545   6.430   6.182   1.966 -0.3186  0.5850 -0.9034
  512MOL0     C70546   6.408   6.032   1.998  0.1064 -0.4492  0.2830
  512MOL0     C70547   6.529   6.270   2.020  0.4447 -0.3614  0.0512
  512MOL0     C70548   6.616   6.237   2.127 -0.4592  0.0206 -0.2628
  512MOL0     O70549   6.738   6.294   2.120 -0.2266  0.3678 -0.5321
  512MOL0     C70550   6.842   6.227   2.185  0.2790 -1.1174 -0.2865
  512MOL0     C70551   6.860   6.088   2.188  0.8585 -0.2145 -0.6040
  512MOL0     C70552   6.979   6.035   2.248  0.3258  0.8754  0.2143
  512MOL0     C70553   7.069   6.119   2.312  1.3737  0.4533  0.3403
  512MOL0     O70554   7.165   6.048   2.380 -0.1042  0.0735 -0.0550
  512MOL0     C70555   7.210   6.117   2.504  0.1262 -0.3370 -0.3641
  512MOL0     C70556   7.291   6.027   2.592 -0.4044 -0.0673  0.1008
  512MOL0     C70557   7.400   5.963   2.500 -0.6286 -0.4066  0.1994
  512MOL0     C70558   7.492   5.863   2.573  0.0210  0.4957 -0.3678
  512MOL0     C70559   7.599   5.792   2.486  0.3537 -0.0615  0.0994
  512MOL0     C70560   7.664   5.674   2.543 -0.2238 -0.1499  0.4906
  512MOL0     C70561   7.726   5.702   2.683 -0.1013 -0.4296 -0.3897
  512MOL0     C70562   7.813   5.591   2.744 -0.2581  0.0626 -0.2756
  512MOL0    Cl70563   7.723   5.439   2.768 -0.1655 -0.2528  0.0005
  512MOL0     C70564   7.047   6.258   2.314 -0.1902  0.3763  0.0160
  512MOL0     C70565   6.933   6.310   2.250 -0.3318 -0.5413  0.9189
  512MOL0     O70566   6.585   6.149   2.206 -0.6175 -0.1452  0.0267
  512MOL0     C70567   6.540   6.400   1.964 -0.4795  0.0684 -0.6003
  512MOL0     C70568   6.464   6.438   1.862  0.3904 -0.3426 -0.0386
  512MOL0     N70569   5.833   6.742   1.651 -0.1946  0.6917 -0.1153
  512MOL0     N70570   5.829   6.857   1.587  0.0052  0.4975  0.3689
  512MOL0     C70571   4.835   7.380   1.008  0.1054 -0.5024 -0.3201
  512MOL0     C70572   4.730   7.428   0.937  0.6888  0.2350 -0.1589
  512MOL0     C70573   4.359   7.538   0.717 -0.4370  0.5291 -1.1887
  512MOL0     C70574   4.332   7.638   0.632  0.2198 -1.0884 -0.2461
  512MOL0     C70575   4.204   7.681   0.596 -0.2338  0.5025  0.0151
  512MOL0     C70576   4.097   7.622   0.660  0.4627 -0.1846 -0.1231
  512MOL0     O70577   3.977   7.677   0.632 -0.2992  0.1719 -0.0469
  512MOL0     C70578   3.879   7.583   0.583 -0.1023  0.1932 -0.6272
  512MOL0     C70579   3.771   7.572   0.696  0.5360 -0.3213 -0.3811
  512MOL0     C70580   3.643   7.494   0.648 -0.6497 -0.2977 -1.3769
  512MOL0     C70581   3.542   7.579   0.567 -1.0255 -0.3369  0.0535
  512MOL0     C70582   3.417   7.513   0.546 -0.1193  0.9863  0.3546
  512MOL0     C70583   3.316   7.450   0.537  0.4966 -0.6956  0.7697
  512MOL0     C70584   4.117   7.517   0.750  0.3996 -0.1447  0.0783
  512MOL0     C70585   4.245   7.478   0.784  0.0521  0.2609 -0.3010
  512MOL0     C70586   4.271   7.376   0.889  0.0964 -0.9301  0.1641
  512MOL0     H70587   4.632   7.165   0.779  0.3889  0.1778 -1.2459
  512MOL0     H70588   4.826   7.061   0.895  2.7942  0.4133 -0.4135
  512MOL0     H70589   5.010   7.010   1.050  0.1661 -1.8743  2.2342
  512MOL0     H70590   4.903   7.076   1.184  0.1280 -1.0814 -1.4956
  512MOL0     H70591   5.136   7.171   1.275  0.8197 -0.1245  0.5431
  512MOL0     H70592   5.073   7.014   1.305 -2.4378  1.8179  1.5555
  512MOL0     H70593   5.241   6.931   1.109  2.7988 -0.8909  1.5725
  512MOL0     H70594   5.271   7.105   1.083  0.8371 -0.3063  0.4094
  512MOL0     H70595   5.378   7.144   1.278  2.6930 -0.2468 -0.7181
  512MOL0     H70596   5.340   6.985   1.344 -5.3643 -0.9965 -0.8100
  512MOL0     H70597   5.517   7.044   1.093 -2.2718  2.9822  0.4115
  512MOL0     H70598   5.489   6.889   1.167 -1.4836 -0.3591 -0.5805
  512MOL0     H70599   5.653   7.133   1.256 -1.4327  0.8369  0.6652
  512MOL0     H70600   5.595   7.043   1.390 -0.3866  0.6627  0.0305
  512MOL0     H70601   5.772   6.955   1.149 -1.7243 -1.4534 -1.0923
  512MOL0     H70602   5.692   6.834   1.251  2.4161 -0.5421  1.3224
  512MOL0     H70603   5.943   6.928   1.285  0.2115 -0.0320 -2.0367
  512MOL0     H70604   5.852   7.037   1.398 -1.5760 -1.7612  0.2033
  512MOL0     H70605   5.844   6.636   1.340 -1.1637  1.8587 -1.6996
  512MOL0     H70606   5.758   6.443   1.538  0.6088 -1.9435  1.1976
  512MOL0     H70607   5.835   6.454   1.692 -1.3597 -3.0193 -0.8384
  512MOL0     H70608   5.958   6.311   1.517  0.1853 -0.6104  2.7385
  512MOL0     H70609   5.957   6.463   1.413  0.2895  2.6406  1.0765
  512MOL0     H70610   6.169   6.439   1.478 -1.1906 -1.3258 -0.6630
  512MOL0     H70611   6.122   6.577   1.572  0.8786  0.4201 -1.7337
  512MOL0     H70612   6.064   6.410   1.756  0.6776  2.0857  0.4034
  512MOL0     H70613   6.157   6.280   1.668 -0.8869  0.5194 -2.5316
  512MOL0     H70614   6.256   6.178   1.841  0.7107 -0.7992 -0.6582
  512MOL0     H70615   6.486   5.992   2.063 -0.5569  0.9159  2.0223
  512MOL0     H70616   6.408   5.974   1.906  0.9846 -2.7971  1.6888
  512MOL0     H70617   6.307   6.018   2.037 -1.4872  2.8833 -2.1713
  512MOL0     H70618   6.781   6.021   2.158 -1.1537  0.7405  2.1633
  512MOL0     H70619   6.994   5.928   2.242  1.1697  1.0651 -2.6673
  512MOL0     H70620   7.265   6.211   2.487 -0.8867  1.0498  3.1060
  512MOL0     H70621   7.118   6.146   2.556 -0.1902 -1.9155  0.0007
  512MOL0     H70622   7.339   6.075   2.678  0.4825 -1.8476  0.6342
  512MOL0     H70623   7.230   5.945   2.631  0.8114 -0.7476  0.6171
  512MOL0     H70624   7.456   6.047   2.458  1.0110 -1.1309  0.8674
  512MOL0     H70625   7.354   5.905   2.419 -0.4739 -3.5418  2.1686
  512MOL0     H70626   7.426   5.788   2.618 -0.6988  1.2213 -0.1819
  512MOL0     H70627   7.543   5.918   2.653 -1.4352  4.5417 -1.9503
  512MOL0     H70628   7.555   5.760   2.392 -0.3207 -1.5901  0.8934
  512MOL0     H70629   7.677   5.865   2.460  0.8793 -0.7702 -0.3465
  512MOL0     H70630   7.753   5.663   2.481 -0.0959  0.7639  0.4999
  512MOL0     H70631   7.587   5.597   2.553 -1.5617  1.1930  0.7760
  512MOL0     H70632   7.636   5.710   2.744  1.2706  1.2683  1.5231
  512MOL0     H70633   7.782   5.796   2.685 -1.7904  0.8758 -4.4330
  512MOL0     H70634   7.854   5.632   2.837 -0.5667 -1.1145  0.3995
  512MOL0     H70635   7.912   5.578   2.699  2.5335  1.2595  4.7635
  512MOL0     H70636   7.134   6.306   2.359  0.6032 -2.1967  1.4138
  512MOL0     H70637   6.934   6.418   2.241  3.7123 -0.5863 -2.1361
  512MOL0     H70638   6.611   6.472   2.004 -0.2562 -1.4743  2.0451
  512MOL0     H70639   6.480   6.534   1.813 -1.6983 -0.3462 -0.8064
  512MOL0     H70640   4.888   7.449   1.073 -2.2582  0.8761  0.2709
  512MOL0     H70641   4.703   7.530   0.964  1.0318  0.1459  0.5519
  512MOL0     H70642   4.421   7.680   0.586  0.8136 -1.6389  0.3839
  512MOL0     H70643   4.171   7.760   0.530  0.2991  0.4771 -0.2913
  512MOL0     H70644   3.827   7.618   0.493 -2.7092 -1.1679  0.2482
  512MOL0     H70645   3.929   7.487   0.566 -1.0204 -1.2105  3.4018
  512MOL0     H70646   3.754   7.676   0.724  2.3100 -0.2584  0.5994
  512MOL0     H70647   3.817   7.527   0.784  0.5748 -1.0583 -0.7701
  512MOL0     H70648   3.674   7.405   0.593  4.1358 -0.2124  0.7283
  512MOL0     H70649   3.587   7.459   0.735 -1.3897  0.2317 -1.6284
  512MOL0     H70650   3.573   7.594   0.463  0.4723  2.4823  0.7970
  512MOL0     H70651   3.532   7.675   0.619  1.2541  0.2131 -0.3960
  512MOL0     H70652   3.222   7.397   0.535  0.5761 -0.8203  0.0309
  512MOL0     H70653   4.031   7.470   0.796  1.1990  1.0440  3.0716
  512MOL0     H70654   4.178   7.353   0.942 -0.7568 -2.7027 -1.9334
  512MOL0     H70655   4.299   7.279   0.847  1.1757 -0.8109  0.5924
  512MOL0     H70656   4.341   7.411   0.964  0.0357 -0.7377  0.1322
  513MOL0     O70657   0.479   6.466   6.020 -0.1270  0.1278  0.1005
  513MOL0     C70658   0.472   6.493   6.142 -0.2901 -1.6180  0.7235
  513MOL0     O70659   0.567   6.482   6.238 -0.6726  0.2720 -0.0714
  513MOL0     C70660   0.693   6.463   6.190 -0.3764 -1.0412  0.6422
  513MOL0     C70661   0.744   6.337   6.177 -0.3406 -0.2478 -0.0247
  513MOL0     C70662   0.876   6.314   6.129  0.4199 -0.1674  0.1993
  513MOL0     C70663   0.954   6.423   6.090  0.1505 -0.5063  0.1469
  513MOL0     O70664   1.086   6.399   6.047 -0.2732 -0.6207  0.0683
  513MOL0     C70665   1.178   6.447   6.146 -0.1259  0.0462 -0.4143
  513MOL0     C70666   1.303   6.352   6.162 -0.0602 -0.9114  0.4427
  513MOL0     C70667   1.252   6.223   6.233  0.4446  0.4915  0.0954
  513MOL0     C70668   1.373   6.152   6.294  0.6880 -0.3870 -0.4194
  513MOL0     C70669   1.470   6.098   6.191 -0.2467  0.2287  1.1309
  513MOL0     C70670   1.570   6.007   6.260 -0.3940 -0.2484  0.5500
  513MOL0     C70671   1.662   5.944   6.151 -0.7353  0.8909  1.8215
  513MOL0     C70672   1.598   5.834   6.073  0.0460  0.5301 -0.2143
  513MOL0     N70673   1.696   5.772   5.984  0.0346 -0.1444  0.1908
  513MOL0     C70674   1.748   5.650   5.989 -1.4833 -0.2869  0.1677
  513MOL0     C70675   1.838   5.642   5.887  0.8011  0.2408  0.0086
  513MOL0     C70676   1.915   5.517   5.857 -0.3307  0.2401  0.1808
  513MOL0     C70677   2.050   5.564   5.803  0.5240  0.0411  0.0316
  513MOL0     C70678   2.144   5.442   5.792  0.1444 -0.8162  0.4747
  513MOL0     C70679   2.294   5.463   5.794 -0.6899  0.2502  0.0423
  513MOL0     O70680   2.331   5.561   5.692 -0.8044  0.3983  0.2962
  513MOL0     C70681   2.468   5.587   5.690  0.4699  0.4215  1.0312
  513MOL0     C70682   2.562   5.549   5.790  0.7194  0.0497  0.1838
  513MOL0     C70683   2.697   5.581   5.778  0.0140  0.4194  0.0479
  513MOL0     C70684   2.800   5.518   5.878 -0.0133  0.4077 -0.1772
  513MOL0     C70685   2.733   5.655   5.672 -0.4794  0.0960 -0.0446
  513MOL0     C70686   2.871   5.695   5.652 -0.2821 -0.3108  0.2386
  513MOL0     O70687   2.943   5.646   5.553 -0.4891  0.2289  0.2393
  513MOL0     C70688   3.073   5.677   5.551 -0.2881  0.9080 -0.6716
  513MOL0     C70689   3.169   5.570   5.542 -0.4579 -0.9942 -0.6074
  513MOL0     C70690   3.311   5.592   5.551  0.0194 -0.2268  0.5552
  513MOL0     C70691   3.355   5.730   5.538  0.0341  0.9038 -0.0875
  513MOL0     O70692   3.487   5.757   5.528 -0.1378 -0.2848  0.1486
  513MOL0     C70693   3.565   5.725   5.645  0.3273 -0.1021 -0.3675
  513MOL0     C70694   3.709   5.676   5.621 -0.2766 -0.4901 -0.3370
  513MOL0     C70695   3.718   5.541   5.547 -0.1133  0.1715  0.2812
  513MOL0     C70696   3.868   5.498   5.547 -0.0988 -0.3446 -0.5576
  513MOL0     C70697   3.887   5.353   5.515  0.1249 -0.0904  0.1255
  513MOL0     C70698   4.017   5.326   5.455 -0.0161 -0.2522 -0.1360
  513MOL0     C70699   4.046   5.177   5.449  0.3601 -0.2218  0.4094
  513MOL0     C70700   4.157   5.124   5.356  0.3490 -0.4938  0.6433
  513MOL0    Cl70701   4.324   5.167   5.413  0.2983 -0.2929 -0.4957
  513MOL0     C70702   3.252   5.828   5.535 -1.1589  0.0317 -0.1782
  513MOL0     C70703   3.116   5.810   5.546  0.1490  0.2554  0.3839
  513MOL0     O70704   2.912   5.773   5.739 -0.5402 -0.4505 -0.2608
  513MOL0     C70705   2.650   5.707   5.576 -0.1130 -0.0116 -0.4934
  513MOL0     C70706   2.511   5.669   5.588 -0.4107 -1.4441 -0.5714
  513MOL0     N70707   1.812   5.756   5.804  0.0058  0.7183  0.3226
  513MOL0     N70708   1.746   5.837   5.874  0.2749  0.7445  0.6776
  513MOL0     C70709   0.903   6.553   6.101 -0.3308  0.3573 -0.0401
  513MOL0     C70710   0.769   6.571   6.134  0.1809  0.8452 -1.2229
  513MOL0     C70711   0.347   6.561   6.187 -0.3936 -0.3830 -0.1661
  513MOL0     C70712   0.362   6.655   6.300  0.0737  0.4184  0.5143
  513MOL0     C70713   0.245   6.721   6.350 -0.3414 -0.3556  0.5335
  513MOL0     C70714   0.129   6.696   6.287  0.1910 -0.3110 -0.1139
  513MOL0     O70715   0.011   6.756   6.332  0.1118  0.0150  0.2495
  513MOL0     C70716  -0.002   6.837   6.449  0.2770  0.4430 -0.6903
  513MOL0     C70717  -0.153   6.853   6.475 -0.0932 -0.1601 -0.0709
  513MOL0     C70718  -0.189   6.959   6.582  0.1263  0.2258 -0.4890
  513MOL0     C70719  -0.344   6.956   6.615 -0.3167 -0.2856  0.2055
  513MOL0     C70720  -0.405   6.831   6.664 -0.3331  0.6453  0.2148
  513MOL0     C70721  -0.452   6.732   6.713  0.6902  0.2210  0.9529
  513MOL0     C70722   0.115   6.617   6.177 -0.1817 -0.0638 -0.1144
  513MOL0     C70723   0.220   6.540   6.120 -0.4354  0.0223 -0.9864
  513MOL0     C70724   0.185   6.430   6.019  0.3287  0.6500 -0.2670
  513MOL0     H70725   0.692   6.253   6.223 -1.5414 -0.7628 -2.2114
  513MOL0     H70726   0.913   6.214   6.148 -1.2108 -0.8379  0.0257
  513MOL0     H70727   1.136   6.451   6.247  4.2275  0.2930  1.6290
  513MOL0     H70728   1.211   6.548   6.121  1.4542 -0.4728 -0.5622
  513MOL0     H70729   1.350   6.325   6.067  2.2105  0.7042  1.0352
  513MOL0     H70730   1.372   6.405   6.228  0.8230  2.3417 -2.7593
  513MOL0     H70731   1.185   6.259   6.312  0.8464 -0.0653  0.7005
  513MOL0     H70732   1.184   6.167   6.168 -2.2959  3.2102  0.4125
  513MOL0     H70733   1.425   6.210   6.370 -1.8385  1.0304  0.3188
  513MOL0     H70734   1.326   6.066   6.341 -2.5021  2.2934  1.7041
  513MOL0     H70735   1.530   6.170   6.134  2.1652 -2.7037 -0.3589
  513MOL0     H70736   1.409   6.047   6.116  2.7630  1.4939 -2.5631
  513MOL0     H70737   1.628   6.067   6.330 -0.6009 -1.2305  1.5956
  513MOL0     H70738   1.520   5.921   6.305  2.1308 -1.6623  0.8637
  513MOL0     H70739   1.753   5.900   6.193  0.1982  0.2837 -0.6372
  513MOL0     H70740   1.697   6.014   6.075  0.8149 -1.0010  0.6808
  513MOL0     H70741   1.529   5.767   6.125 -2.2084  1.1045 -2.2135
  513MOL0     H70742   1.524   5.878   6.005  1.2456  1.1327 -1.1702
  513MOL0     H70743   1.724   5.568   6.056 -0.2108 -0.1324  0.8427
  513MOL0     H70744   1.853   5.456   5.791 -1.8634 -0.0276  1.7921
  513MOL0     H70745   1.915   5.455   5.947  1.9636  1.1805  0.9067
  513MOL0     H70746   2.033   5.609   5.705 -0.9972 -0.7120 -0.0818
  513MOL0     H70747   2.093   5.646   5.861  1.3468  0.2887 -0.9025
  513MOL0     H70748   2.122   5.368   5.868  1.7112 -1.4476  0.3518
  513MOL0     H70749   2.111   5.394   5.699 -1.5275 -1.3455  1.3046
  513MOL0     H70750   2.317   5.500   5.895 -0.6458  0.8176 -0.1761
  513MOL0     H70751   2.348   5.369   5.778 -0.4407  0.6550 -1.6076
  513MOL0     H70752   2.532   5.489   5.876 -0.2620  0.3056  0.0261
  513MOL0     H70753   2.866   5.455   5.817 -1.7851 -0.4793 -1.2694
  513MOL0     H70754   2.745   5.452   5.946 -0.2792  2.2803  1.5069
  513MOL0     H70755   2.865   5.579   5.940  2.5775 -2.9479  0.7243
  513MOL0     H70756   3.143   5.465   5.533  1.3610 -1.5733  0.4634
  513MOL0     H70757   3.383   5.511   5.545  0.4682  0.1472  0.8227
  513MOL0     H70758   3.575   5.814   5.707  2.6203  0.0670 -0.8699
  513MOL0     H70759   3.517   5.642   5.698  1.7269  0.1374  1.3869
  513MOL0     H70760   3.767   5.752   5.568 -1.4549 -0.6155 -1.8807
  513MOL0     H70761   3.759   5.668   5.718  1.3532 -0.7332 -1.1585
  513MOL0     H70762   3.674   5.534   5.447  0.5071  0.1936  0.0046
  513MOL0     H70763   3.670   5.459   5.603  2.3562 -3.8800 -2.9405
  513MOL0     H70764   3.910   5.516   5.646 -1.5894 -0.3177  0.1052
  513MOL0     H70765   3.923   5.561   5.477 -1.2391 -0.3600 -1.5012
  513MOL0     H70766   3.870   5.284   5.598 -0.0254 -1.3227 -0.8945
  513MOL0     H70767   3.806   5.324   5.448 -0.3768 -0.1176  0.7354
  513MOL0     H70768   4.089   5.372   5.523 -0.3229 -1.5960  1.1440
  513MOL0     H70769   4.021   5.383   5.362 -2.9908 -0.5630 -0.5633
  513MOL0     H70770   3.951   5.129   5.426  1.0180 -0.6191 -1.7097
  513MOL0     H70771   4.069   5.153   5.553  0.8887  0.0436  0.3616
  513MOL0     H70772   4.140   5.169   5.257 -3.7118 -0.6059  1.1171
  513MOL0     H70773   4.140   5.016   5.347  0.4727 -0.4066 -1.0626
  513MOL0     H70774   3.277   5.933   5.527  1.3336 -0.3054  1.6827
  513MOL0     H70775   3.042   5.890   5.555 -2.3647 -1.9603  0.6694
  513MOL0     H70776   2.676   5.766   5.489 -1.2343 -1.3631 -1.7843
  513MOL0     H70777   2.446   5.720   5.518  0.2362 -0.6728 -0.6301
  513MOL0     H70778   0.965   6.638   6.077 -2.9169  1.7314 -2.3748
  513MOL0     H70779   0.727   6.671   6.142 -2.2548 -0.1799 -0.1391
  513MOL0     H70780   0.458   6.666   6.348  1.5213 -1.1004 -1.8053
  513MOL0     H70781   0.256   6.780   6.440 -0.2778 -1.2928  1.1501
  513MOL0     H70782   0.040   6.790   6.539 -2.1652  1.2835  1.0116
  513MOL0     H70783   0.058   6.927   6.436  2.2273 -0.2325  2.5827
  513MOL0     H70784  -0.199   6.758   6.506 -0.1839  0.1601  0.8061
  513MOL0     H70785  -0.202   6.884   6.382 -1.8801  1.6345  1.3668
  513MOL0     H70786  -0.138   6.944   6.677 -0.7709  2.7131  0.4738
  513MOL0     H70787  -0.156   7.062   6.565 -0.5457  1.4970  4.3171
  513MOL0     H70788  -0.385   6.988   6.519 -1.4116 -0.6210  0.5434
  513MOL0     H70789  -0.369   7.026   6.696 -0.2247  0.0344 -0.0427
  513MOL0     H70790  -0.492   6.644   6.758  0.0277  0.8758  1.6737
  513MOL0     H70791   0.018   6.614   6.129  1.0113  1.9947 -2.9886
  513MOL0     H70792   0.233   6.337   6.051  0.9332  0.8382 -0.6063
  513MOL0     H70793   0.076   6.422   6.019  0.1573  2.3117  0.9898
  513MOL0     H70794   0.232   6.460   5.925 -2.5879 -0.5469 -2.2503
  514MOL0     O70795   7.367   4.002   7.699  0.4958  0.0688  0.5238
  514MOL0     C70796   7.399   3.885   7.665  0.0822  0.2758  0.3419
  514MOL0     O70797   7.308   3.782   7.645 -0.4671 -0.2370 -0.3374
  514MOL0     C70798   7.177   3.783   7.667 -0.6459 -0.0130  0.2128
  514MOL0     C70799   7.088   3.887   7.671  0.4884 -0.8846 -0.1934
  514MOL0     C70800   6.954   3.878   7.704 -0.4851  0.3950  0.3498
  514MOL0     C70801   6.893   3.748   7.718 -0.0339  0.2625  0.2674
  514MOL0     O70802   6.755   3.728   7.749  0.0808  0.8849  0.5191
  514MOL0     C70803   6.688   3.830   7.820  1.1547  0.5751 -0.7815
  514MOL0     C70804   6.574   3.889   7.743 -0.6906 -0.4328 -0.1781
  514MOL0     C70805   6.440   3.818   7.748  0.4288  0.0573  0.0144
  514MOL0     C70806   6.443   3.679   7.679 -0.1535 -0.1445 -0.2089
  514MOL0     C70807   6.306   3.597   7.675 -0.5407 -0.6089  0.5908
  514MOL0     C70808   6.208   3.657   7.583  0.4778 -0.2669  0.1383
  514MOL0     C70809   6.077   3.591   7.550 -0.5080 -0.7169  0.3329
  514MOL0     C70810   6.011   3.659   7.431  0.1136  0.2330  0.0858
  514MOL0     N70811   6.087   3.618   7.305 -0.3341  0.0863 -0.8328
  514MOL0     C70812   6.056   3.505   7.237 -0.3839 -0.0277  0.1684
  514MOL0     C70813   6.130   3.510   7.128  1.3772 -0.4224  0.8376
  514MOL0     C70814   6.114   3.416   7.011 -0.0004  0.7595  0.4213
  514MOL0     C70815   6.073   3.488   6.879 -0.1638 -0.4798 -0.6077
  514MOL0     C70816   6.038   3.385   6.767 -0.2865  0.4833  0.2485
  514MOL0     C70817   6.170   3.306   6.734 -0.0843  0.4759  0.1427
  514MOL0     O70818   6.284   3.394   6.714  0.6243  0.2750 -0.2710
  514MOL0     C70819   6.414   3.355   6.694 -0.3575 -0.2042  0.8014
  514MOL0     C70820   6.433   3.223   6.643  0.3111 -0.3239  0.5115
  514MOL0     C70821   6.561   3.182   6.613  0.0023  0.8186 -0.3281
  514MOL0     C70822   6.572   3.036   6.575 -0.4997  0.3802 -0.0001
  514MOL0     C70823   6.672   3.273   6.615  0.9480 -0.4150  0.3239
  514MOL0     C70824   6.807   3.246   6.556  0.1620 -0.1216  0.8631
  514MOL0     O70825   6.887   3.360   6.551  0.6627  0.6591 -0.1475
  514MOL0     C70826   7.016   3.333   6.524 -0.2494 -0.9761  0.0925
  514MOL0     C70827   7.079   3.453   6.484  0.5222  0.5654  0.2346
  514MOL0     C70828   7.214   3.463   6.463  1.0206 -0.1224 -0.1151
  514MOL0     C70829   7.289   3.344   6.476 -0.7340  0.2112  0.5901
  514MOL0     O70830   7.419   3.322   6.438  0.0232  0.8769  0.5410
  514MOL0     C70831   7.497   3.443   6.456  0.0034 -0.0990  0.9051
  514MOL0     C70832   7.641   3.400   6.427 -0.4275 -0.4590  0.0303
  514MOL0     C70833   7.749   3.517   6.434 -0.2128 -0.3559  0.5015
  514MOL0     C70834   7.875   3.470   6.356 -0.5749  0.3633 -0.3775
  514MOL0     C70835   7.995   3.574   6.374 -0.1804 -0.3119  0.5334
  514MOL0     C70836   8.129   3.520   6.329  0.6279  0.4325  0.2044
  514MOL0     C70837   8.234   3.629   6.290  0.0606 -0.3164 -0.5333
  514MOL0     C70838   8.224   3.745   6.385 -0.2135 -0.3400  0.3429
  514MOL0    Cl70839   8.359   3.862   6.331 -0.2014 -0.1238 -0.1365
  514MOL0     C70840   7.229   3.227   6.521  0.6946 -0.2723  0.4764
  514MOL0     C70841   7.098   3.225   6.556  0.0713 -1.0982 -0.9581
  514MOL0     O70842   6.838   3.133   6.526  0.2103 -0.3408  0.6626
  514MOL0     C70843   6.651   3.404   6.673  1.1436  0.1765  0.2213
  514MOL0     C70844   6.518   3.445   6.713 -0.0041  0.4472 -0.4838
  514MOL0     N70845   6.210   3.630   7.131 -0.6892 -0.6189  0.4511
  514MOL0     N70846   6.183   3.693   7.241 -0.1811 -0.0026  0.2632
  514MOL0     C70847   6.984   3.640   7.715  0.5074 -0.4521  0.4963
  514MOL0     C70848   7.119   3.657   7.694 -0.2403 -0.6901  0.1172
  514MOL0     C70849   7.539   3.846   7.626 -0.5420 -0.0460 -0.3995
  514MOL0     C70850   7.559   3.742   7.537  0.5756 -0.5334 -0.8831
  514MOL0     C70851   7.686   3.680   7.511  1.0898 -0.8534  0.3588
  514MOL0     C70852   7.795   3.727   7.585  0.5265 -0.0807 -0.2371
  514MOL0     O70853   7.908   3.659   7.558 -0.3084 -0.2193 -0.6737
  514MOL0     C70854   8.023   3.707   7.628 -0.6751  0.1430 -0.5657
  514MOL0     C70855   8.015   3.659   7.772  0.5859  0.2870 -0.6556
  514MOL0     C70856   8.134   3.695   7.849 -0.4980 -0.2945  0.1132
  514MOL0     C70857   8.254   3.603   7.816  0.1386 -0.7033  0.0045
  514MOL0     C70858   8.334   3.665   7.709 -0.4447  0.1922  0.4817
  514MOL0     C70859   8.410   3.707   7.627  0.0419 -1.0452  0.1102
  514MOL0     C70860   7.784   3.844   7.663 -0.4607 -0.6841  0.0207
  514MOL0     C70861   7.656   3.905   7.686 -0.1250 -0.5769 -0.1304
  514MOL0     C70862   7.639   4.027   7.769  0.6052  0.7573  0.3574
  514MOL0     H70863   7.127   3.984   7.640 -0.5243 -0.1952  0.6007
  514MOL0     H70864   6.891   3.966   7.706 -1.8996 -0.5503 -0.4310
  514MOL0     H70865   6.759   3.910   7.845  3.6404 -1.5471 -0.6371
  514MOL0     H70866   6.666   3.781   7.915  0.4037 -3.7693 -2.9668
  514MOL0     H70867   6.563   3.993   7.775 -4.6472 -0.3153 -1.3912
  514MOL0     H70868   6.606   3.890   7.638 -1.4960  0.7245 -0.4338
  514MOL0     H70869   6.399   3.811   7.849  2.3209 -1.0567  0.7679
  514MOL0     H70870   6.375   3.878   7.683  1.4197  1.3530  0.1698
  514MOL0     H70871   6.483   3.694   7.579  0.2844 -0.7329 -0.1232
  514MOL0     H70872   6.511   3.613   7.732  1.1334 -0.6192 -2.3577
  514MOL0     H70873   6.273   3.594   7.780  1.2036  2.1937  1.3366
  514MOL0     H70874   6.330   3.498   7.636 -0.4041 -0.0048 -0.9301
  514MOL0     H70875   6.180   3.757   7.620  0.7533  1.2422 -3.3248
  514MOL0     H70876   6.265   3.675   7.491  0.8881 -1.6797  0.0944
  514MOL0     H70877   6.018   3.596   7.641  0.7364  3.4671  1.1304
  514MOL0     H70878   6.093   3.485   7.524 -0.0686 -0.2266 -1.5900
  514MOL0     H70879   5.908   3.624   7.424 -0.0339  0.7219 -0.2418
  514MOL0     H70880   6.017   3.768   7.440 -2.5656  0.4497  0.0395
  514MOL0     H70881   5.987   3.428   7.268  0.5320 -1.3766 -0.9888
  514MOL0     H70882   6.038   3.341   7.036  0.7728  0.0331  0.6478
  514MOL0     H70883   6.203   3.356   6.989 -0.2617 -0.9057  3.3726
  514MOL0     H70884   5.990   3.556   6.900 -0.1761 -1.2778  2.4346
  514MOL0     H70885   6.157   3.548   6.844  0.9898 -0.4258  2.0397
  514MOL0     H70886   5.961   3.316   6.802 -1.1405  0.6965 -1.1647
  514MOL0     H70887   5.996   3.435   6.679  1.3470  2.1320  0.3329
  514MOL0     H70888   6.186   3.255   6.829  2.1167  2.3155  0.8431
  514MOL0     H70889   6.156   3.236   6.651  0.6823 -0.1366  0.5250
  514MOL0     H70890   6.347   3.159   6.627 -1.0856  1.6175 -0.1085
  514MOL0     H70891   6.485   2.978   6.605 -0.4753 -0.0171 -0.6732
  514MOL0     H70892   6.657   2.986   6.624  1.4759  0.7681 -2.7879
  514MOL0     H70893   6.594   3.022   6.469  1.8154 -2.1091  0.6722
  514MOL0     H70894   7.007   3.534   6.483 -1.3981 -0.9720  2.2746
  514MOL0     H70895   7.268   3.554   6.439  0.5767  0.3008  0.4830
  514MOL0     H70896   7.459   3.508   6.376 -2.7054 -1.7741  0.7349
  514MOL0     H70897   7.488   3.483   6.557 -1.2316  0.6895  0.4966
  514MOL0     H70898   7.676   3.330   6.504  2.8155  2.9519  2.0275
  514MOL0     H70899   7.631   3.361   6.326 -2.4551  1.1316 -0.4374
  514MOL0     H70900   7.761   3.530   6.542 -1.2712 -2.1015  0.8870
  514MOL0     H70901   7.712   3.611   6.392 -0.9708  0.0031  1.8728
  514MOL0     H70902   7.844   3.468   6.251 -2.7002 -3.6968  0.1129
  514MOL0     H70903   7.895   3.364   6.372 -2.1242  0.2509  1.0789
  514MOL0     H70904   7.968   3.660   6.312  1.5277 -0.4196 -0.4097
  514MOL0     H70905   7.999   3.607   6.478  0.3771 -2.4766  1.2608
  514MOL0     H70906   8.125   3.462   6.236 -0.8918 -0.3622  0.7187
  514MOL0     H70907   8.163   3.445   6.402 -2.0885 -0.5723  0.5657
  514MOL0     H70908   8.234   3.661   6.186  2.5045 -2.0737 -1.1598
  514MOL0     H70909   8.330   3.579   6.302 -0.1112 -1.1721 -2.3783
  514MOL0     H70910   8.232   3.715   6.490  0.9043 -2.5277 -0.3034
  514MOL0     H70911   8.130   3.800   6.376 -1.1895 -2.1519 -1.2803
  514MOL0     H70912   7.282   3.133   6.534 -0.2272 -0.6184  1.9452
  514MOL0     H70913   7.054   3.136   6.603 -0.0625 -0.8232 -0.5559
  514MOL0     H70914   6.732   3.474   6.690  1.0909 -0.1482  1.9719
  514MOL0     H70915   6.476   3.536   6.755 -1.3448 -0.0394 -0.6963
  514MOL0     H70916   6.944   3.543   7.743  0.5425 -0.8580 -0.8168
  514MOL0     H70917   7.185   3.572   7.700 -0.8313 -1.0767  1.5033
  514MOL0     H70918   7.476   3.696   7.484  0.2440 -1.2890  0.2349
  514MOL0     H70919   7.695   3.614   7.426 -0.2630  2.0756 -2.2780
  514MOL0     H70920   8.109   3.652   7.589 -0.0844 -0.2851  1.2569
  514MOL0     H70921   8.045   3.813   7.614  1.3548 -0.0238  0.9785
  514MOL0     H70922   8.006   3.550   7.767 -1.3593  0.4463 -1.2758
  514MOL0     H70923   7.925   3.704   7.815  0.8998  2.7268 -2.3251
  514MOL0     H70924   8.172   3.798   7.844 -0.6484 -0.2306  0.2680
  514MOL0     H70925   8.105   3.679   7.954  1.9529 -2.0192  0.6128
  514MOL0     H70926   8.209   3.509   7.780 -1.8348  0.5634 -1.0462
  514MOL0     H70927   8.319   3.594   7.903  0.7678  1.6976 -0.1555
  514MOL0     H70928   8.488   3.741   7.562  0.8671 -2.7873  0.1400
  514MOL0     H70929   7.873   3.887   7.708 -0.8959  1.0574 -0.6986
  514MOL0     H70930   7.593   3.994   7.862  2.0967  0.3317  0.9760
  514MOL0     H70931   7.726   4.085   7.800  0.9215  0.9317 -0.7859
  514MOL0     H70932   7.580   4.103   7.716  0.3134 -0.1147 -0.6155
  515MOL0     O70933   0.631   4.329   6.438 -0.3690  0.5179  0.3210
  515MOL0     C70934   0.595   4.209   6.432 -0.1842 -0.0562  0.3990
  515MOL0     O70935   0.644   4.114   6.348 -1.1197 -0.2094  0.1580
  515MOL0     C70936   0.744   4.144   6.266 -1.0121  0.0192 -0.3819
  515MOL0     C70937   0.862   4.077   6.295  0.0070  0.0841 -0.3384
  515MOL0     C70938   0.981   4.092   6.219 -0.6697 -0.8529  0.2345
  515MOL0     C70939   0.982   4.192   6.113 -0.2665  0.3776  0.4813
  515MOL0     O70940   1.097   4.229   6.038 -0.4669  0.0318 -0.3527
  515MOL0     C70941   1.211   4.143   6.024  1.0248 -0.1434 -0.6233
  515MOL0     C70942   1.319   4.175   6.128  1.0278 -0.4901 -0.7417
  515MOL0     C70943   1.452   4.135   6.070 -0.2696  0.6220  0.5544
  515MOL0     C70944   1.556   4.169   6.176  0.0404 -0.5175 -0.4458
  515MOL0     C70945   1.703   4.136   6.134 -0.8815  0.0829 -0.0535
  515MOL0     C70946   1.815   4.205   6.217  0.5192  0.0001 -1.0274
  515MOL0     C70947   1.947   4.197   6.148  0.7991  0.3924  0.0734
  515MOL0     C70948   2.065   4.271   6.216 -0.9456  0.2333  0.1963
  515MOL0     N70949   2.182   4.255   6.133 -0.0600 -0.0378  0.2106
  515MOL0     C70950   2.223   4.343   6.038  0.3919  0.7629 -0.0491
  515MOL0     C70951   2.300   4.280   5.952  0.3265  0.2254 -0.6733
  515MOL0     C70952   2.357   4.350   5.833  0.9849 -0.3433  0.2129
  515MOL0     C70953   2.504   4.328   5.818  0.6036 -0.2670  0.3662
  515MOL0     C70954   2.531   4.181   5.789  0.6750 -0.3028 -0.5805
  515MOL0     C70955   2.671   4.159   5.737  0.4385  0.4243 -0.5217
  515MOL0     O70956   2.759   4.207   5.835 -0.0217  0.3005 -0.4918
  515MOL0     C70957   2.887   4.183   5.825 -0.7878 -0.6685 -0.3101
  515MOL0     C70958   2.969   4.226   5.930 -0.9403 -0.9691 -0.1765
  515MOL0     C70959   3.109   4.208   5.938 -0.6474 -0.0255 -0.0701
  515MOL0     C70960   3.185   4.257   6.061  0.1843 -0.3545 -0.4694
  515MOL0     C70961   3.182   4.170   5.823  0.1064  0.4629 -0.7525
  515MOL0     C70962   3.328   4.182   5.801 -0.7752 -0.3190  0.5560
  515MOL0     O70963   3.372   4.172   5.667 -0.1366 -0.7653  0.0360
  515MOL0     C70964   3.499   4.204   5.635 -0.2229  0.3488 -0.7094
  515MOL0     C70965   3.614   4.156   5.698 -0.1979 -0.3753 -0.6857
  515MOL0     C70966   3.736   4.196   5.655  0.4117  0.4349  0.0204
  515MOL0     C70967   3.755   4.281   5.546  0.2359 -0.1776  0.1102
  515MOL0     O70968   3.870   4.344   5.512  0.0254  0.2147  0.1017
  515MOL0     C70969   3.986   4.337   5.595  0.2800 -0.5977  0.1154
  515MOL0     C70970   4.114   4.395   5.530 -0.1359  0.2717 -0.0807
  515MOL0     C70971   4.101   4.540   5.495  0.8613  0.1325  0.0175
  515MOL0     C70972   4.224   4.594   5.407  0.0295 -0.8381 -0.1049
  515MOL0     C70973   4.359   4.602   5.487  0.4149  0.3866  0.3594
  515MOL0     C70974   4.472   4.674   5.414 -0.3243 -0.2810  0.0897
  515MOL0     C70975   4.452   4.824   5.396  0.7537  0.1370 -0.9251
  515MOL0     C70976   4.569   4.888   5.323 -0.2541 -0.6359  0.6338
  515MOL0    Cl70977   4.721   4.895   5.426  0.5374  0.3004  0.3143
  515MOL0     C70978   3.641   4.316   5.473 -0.4909 -0.6708 -0.6358
  515MOL0     C70979   3.514   4.275   5.514  1.0631 -0.1591 -0.0535
  515MOL0     O70980   3.404   4.183   5.899  0.3575  0.7703  0.2273
  515MOL0     C70981   3.095   4.136   5.711 -0.4740 -0.3951 -0.6213
  515MOL0     C70982   2.958   4.135   5.717  0.9249 -1.0154  0.8235
  515MOL0     N70983   2.303   4.151   6.003  0.1995 -0.6132 -0.4752
  515MOL0     N70984   2.238   4.137   6.110 -0.2897  0.0767  0.1173
  515MOL0     C70985   0.855   4.243   6.078  0.0241  0.0248  0.0555
  515MOL0     C70986   0.740   4.222   6.151  0.4897 -0.1140  0.0541
  515MOL0     C70987   0.499   4.167   6.531  0.5508 -0.3433 -0.3833
  515MOL0     C70988   0.486   4.243   6.658 -0.0031 -0.3009 -0.3168
  515MOL0     C70989   0.389   4.212   6.743 -0.0864 -0.0715 -0.7934
  515MOL0     C70990   0.293   4.112   6.725  0.2851 -0.1562  0.4780
  515MOL0     O70991   0.198   4.095   6.816  0.5644 -0.7633 -0.1780
  515MOL0     C70992   0.068   4.047   6.770  0.0707  0.7020  1.0886
  515MOL0     C70993  -0.047   4.095   6.858 -1.1702  0.7444  0.2675
  515MOL0     C70994  -0.074   4.239   6.842  1.0696 -0.8809  0.7420
  515MOL0     C70995  -0.190   4.286   6.937  0.2352 -0.8619  0.3510
  515MOL0     C70996  -0.324   4.231   6.890 -1.2782 -0.4852 -0.7055
  515MOL0     C70997  -0.431   4.190   6.858 -0.5030 -0.4570 -0.3919
  515MOL0     C70998   0.308   4.028   6.607 -0.1345 -0.0103 -0.6765
  515MOL0     C70999   0.410   4.051   6.510 -0.0882 -0.0121 -0.3268
  515MOL0     C71000   0.397   3.958   6.391  0.0404  0.0385  0.6013
  515MOL0     H71001   0.860   4.002   6.373  0.5923 -1.4100 -1.7172
  515MOL0     H71002   1.078   4.047   6.237  0.3559  0.3285 -1.8851
  515MOL0     H71003   1.259   4.157   5.926 -1.1417  0.5736 -1.6389
  515MOL0     H71004   1.176   4.039   6.031  2.0118 -0.3531  2.8293
  515MOL0     H71005   1.326   4.280   6.158  1.3059 -1.0354  1.2160
  515MOL0     H71006   1.296   4.121   6.220  0.0921 -0.0918 -0.7273
  515MOL0     H71007   1.446   4.028   6.048  0.3854  1.0696 -2.0831
  515MOL0     H71008   1.468   4.187   5.975 -0.5574 -0.6092 -0.1934
  515MOL0     H71009   1.545   4.275   6.197  1.6493 -0.8269  2.5596
  515MOL0     H71010   1.529   4.121   6.271  2.4467  1.1876  1.2311
  515MOL0     H71011   1.719   4.167   6.031  1.0065 -0.6238 -0.0167
  515MOL0     H71012   1.725   4.031   6.156 -2.8793 -0.0202  1.8122
  515MOL0     H71013   1.787   4.307   6.245  0.7910 -1.0814  4.3486
  515MOL0     H71014   1.813   4.147   6.310 -5.6217  0.3864 -0.4970
  515MOL0     H71015   1.933   4.250   6.053  1.5695 -0.0207 -0.2803
  515MOL0     H71016   1.964   4.092   6.124 -2.7394 -0.0488 -1.0513
  515MOL0     H71017   2.039   4.374   6.241  2.4882  0.9127  1.5372
  515MOL0     H71018   2.085   4.218   6.310 -0.6381 -0.7734 -0.4129
  515MOL0     H71019   2.190   4.445   6.019 -0.7948  0.3483 -0.2831
  515MOL0     H71020   2.336   4.457   5.833  1.0632 -0.2974 -1.2557
  515MOL0     H71021   2.310   4.319   5.739  0.6451 -0.0908  0.2982
  515MOL0     H71022   2.533   4.381   5.727 -0.6094 -3.0572 -1.7925
  515MOL0     H71023   2.559   4.366   5.905  1.8045 -0.4354 -0.3009
  515MOL0     H71024   2.530   4.123   5.882 -3.4121 -0.6172 -0.6477
  515MOL0     H71025   2.467   4.136   5.713  0.4909 -2.1848  0.6108
  515MOL0     H71026   2.695   4.054   5.717 -0.4506  0.0686  0.1930
  515MOL0     H71027   2.690   4.219   5.648  3.2023  0.2603 -0.1468
  515MOL0     H71028   2.915   4.272   6.011  2.1894  2.7585  0.0988
  515MOL0     H71029   3.260   4.333   6.039 -0.7333  1.1282  1.2601
  515MOL0     H71030   3.227   4.170   6.112 -3.0274 -1.2490  0.9443
  515MOL0     H71031   3.113   4.297   6.133  0.2212 -1.4916  0.2307
  515MOL0     H71032   3.604   4.077   5.772 -0.1158  0.1004 -0.1555
  515MOL0     H71033   3.822   4.153   5.705  1.7745  0.8846 -1.8280
  515MOL0     H71034   3.965   4.394   5.686 -4.1197 -1.5845 -0.0627
  515MOL0     H71035   4.004   4.234   5.624 -0.1781 -0.5086  0.7230
  515MOL0     H71036   4.196   4.373   5.599  0.8010 -1.2518 -1.6105
  515MOL0     H71037   4.140   4.343   5.438 -1.1036  2.7529 -1.8767
  515MOL0     H71038   4.102   4.592   5.592  2.3357 -0.3676  0.2908
  515MOL0     H71039   4.008   4.552   5.439 -0.4120 -2.4302  1.4105
  515MOL0     H71040   4.203   4.698   5.378  4.9955 -0.1168 -2.1701
  515MOL0     H71041   4.237   4.537   5.315  1.1039 -2.0397  0.7606
  515MOL0     H71042   4.340   4.639   5.588  1.9772  2.5281 -0.0735
  515MOL0     H71043   4.396   4.501   5.509  0.7721 -0.1244 -2.2146
  515MOL0     H71044   4.492   4.628   5.317 -1.7035  0.9825 -0.8383
  515MOL0     H71045   4.560   4.663   5.479 -0.2064  1.3487  0.2608
  515MOL0     H71046   4.453   4.867   5.496  0.5974 -0.8174 -0.5001
  515MOL0     H71047   4.363   4.859   5.343  0.1962  2.8469  1.5490
  515MOL0     H71048   4.542   4.990   5.295 -3.1046 -1.5434 -0.2281
  515MOL0     H71049   4.593   4.833   5.231 -2.2959 -0.8333  0.1890
  515MOL0     H71050   3.645   4.379   5.385 -1.6816  2.6734  1.4978
  515MOL0     H71051   3.424   4.293   5.457 -0.4421 -2.0871  1.5868
  515MOL0     H71052   3.125   4.118   5.608 -2.7163 -0.2380 -1.3692
  515MOL0     H71053   2.920   4.108   5.619  1.2437  0.6191  0.2140
  515MOL0     H71054   0.845   4.307   5.992 -0.3654 -0.7693 -0.5071
  515MOL0     H71055   0.647   4.265   6.114  0.4101 -0.2252  0.1227
  515MOL0     H71056   0.552   4.326   6.680  0.3770 -0.3046 -1.3654
  515MOL0     H71057   0.389   4.271   6.834  1.2604  1.3696 -1.6889
  515MOL0     H71058   0.047   4.080   6.668 -0.4741 -0.8065  0.6922
  515MOL0     H71059   0.072   3.938   6.769 -2.5441  0.5091 -1.0901
  515MOL0     H71060  -0.016   4.075   6.960  0.2160  0.6016 -0.1685
  515MOL0     H71061  -0.134   4.031   6.838 -0.3138 -0.4470  0.3143
  515MOL0     H71062   0.017   4.291   6.876  0.6122 -0.2729  1.0600
  515MOL0     H71063  -0.102   4.264   6.740  0.3846  1.0490  1.3618
  515MOL0     H71064  -0.186   4.395   6.949  3.0289 -0.8028 -0.4138
  515MOL0     H71065  -0.158   4.247   7.034  2.3740 -1.9332 -0.7185
  515MOL0     H71066  -0.532   4.159   6.838 -0.1604 -1.3492 -0.7627
  515MOL0     H71067   0.258   3.933   6.590  0.0755 -0.1687 -0.4180
  515MOL0     H71068   0.296   3.917   6.380 -0.4635  0.8661  1.9127
  515MOL0     H71069   0.424   4.021   6.306  1.2604  1.7723  2.1877
  515MOL0     H71070   0.461   3.870   6.388  0.4471  0.3609 -1.1591
  516MOL0     O71071   4.863   3.628   6.129 -0.5621  0.7265 -0.5322
  516MOL0     C71072   4.741   3.636   6.099 -0.0467  0.5052  0.2741
  516MOL0     O71073   4.689   3.580   5.987 -0.2439  0.0100  0.6153
  516MOL0     C71074   4.784   3.530   5.905  0.8219  0.5354 -0.1934
  516MOL0     C71075   4.876   3.609   5.826 -0.1619  0.3013 -0.4179
  516MOL0     C71076   4.969   3.543   5.750 -0.3743  1.1194  0.5652
  516MOL0     C71077   4.982   3.404   5.742 -0.0756 -0.5915 -0.9027
  516MOL0     O71078   5.080   3.348   5.660  0.3302  0.6384 -0.2610
  516MOL0     C71079   5.092   3.208   5.646 -0.3052 -0.4534  0.7947
  516MOL0     C71080   5.220   3.189   5.558 -0.3935  0.0693 -0.6181
  516MOL0     C71081   5.297   3.063   5.580 -0.1389  0.0128 -0.0706
  516MOL0     C71082   5.378   3.029   5.456  1.0392  0.0853 -1.1306
  516MOL0     C71083   5.455   2.898   5.486  0.3443 -0.0371  0.2581
  516MOL0     C71084   5.565   2.919   5.590  0.4215 -0.3223 -0.2953
  516MOL0     C71085   5.682   2.830   5.564  0.4731 -0.4725 -0.0708
  516MOL0     C71086   5.793   2.870   5.661  1.0771  0.0540 -0.4051
  516MOL0     N71087   5.922   2.812   5.625 -0.0590  0.2033 -0.4466
  516MOL0     C71088   6.029   2.857   5.547 -0.1082  0.0228 -0.1681
  516MOL0     C71089   6.113   2.745   5.528  0.5622 -0.9392 -0.1766
  516MOL0     C71090   6.217   2.729   5.424  0.3838  0.0488  1.1471
  516MOL0     C71091   6.360   2.715   5.490 -0.4919  0.1196 -0.7229
  516MOL0     C71092   6.459   2.638   5.396 -1.0133  0.2772  0.5291
  516MOL0     C71093   6.607   2.649   5.447 -0.2062 -0.3381 -0.1307
  516MOL0     O71094   6.647   2.783   5.443 -0.2433 -0.2598 -0.2499
  516MOL0     C71095   6.774   2.794   5.482  0.0628 -0.3572 -0.2952
  516MOL0     C71096   6.879   2.778   5.397 -0.3268 -1.3103  0.8292
  516MOL0     C71097   7.013   2.784   5.428 -0.1699 -0.7144  0.8969
  516MOL0     C71098   7.126   2.749   5.331  0.4601 -0.3063 -0.2104
  516MOL0     C71099   7.040   2.826   5.562 -0.3752 -0.1829 -0.2542
  516MOL0     C71100   7.181   2.826   5.622 -0.2079 -0.9221  0.8722
  516MOL0     O71101   7.183   2.851   5.759  0.4086  0.3352  0.0903
  516MOL0     C71102   7.304   2.903   5.813 -0.2808  0.2830 -1.1838
  516MOL0     C71103   7.360   2.846   5.924  0.5098  0.1340 -0.3428
  516MOL0     C71104   7.466   2.898   5.995 -0.9985 -0.5650 -0.8398
  516MOL0     C71105   7.535   3.011   5.951  0.8629  0.6570 -0.7678
  516MOL0     O71106   7.632   3.082   6.015  0.1323  0.1394  0.4217
  516MOL0     C71107   7.657   3.063   6.152 -0.6729 -0.2977 -0.6594
  516MOL0     C71108   7.767   2.963   6.183 -0.5487 -0.1239 -0.5341
  516MOL0     C71109   7.797   2.949   6.331 -0.1196 -0.1901  0.0750
  516MOL0     C71110   7.888   3.064   6.367  0.6771 -0.9577 -0.2787
  516MOL0     C71111   7.940   3.053   6.510  0.2258  0.3191 -0.0454
  516MOL0     C71112   8.012   3.183   6.550 -1.1766 -0.1259  0.3141
  516MOL0     C71113   8.109   3.174   6.664 -0.2033  0.2568 -0.9642
  516MOL0     C71114   8.237   3.110   6.626 -0.5109  0.0408 -0.1425
  516MOL0    Cl71115   8.319   3.059   6.777  0.1575  0.0222 -0.0069
  516MOL0     C71116   7.489   3.064   5.832  0.2212 -0.0582 -0.6743
  516MOL0     C71117   7.370   3.017   5.768  0.1206  0.1811  0.2775
  516MOL0     O71118   7.284   2.826   5.551 -0.3568 -0.6265 -0.4043
  516MOL0     C71119   6.930   2.849   5.649 -0.4470 -0.9897 -0.2660
  516MOL0     C71120   6.800   2.825   5.610 -0.2661 -1.0192  0.3488
  516MOL0     N71121   6.055   2.633   5.596 -0.6178  0.1083 -0.0728
  516MOL0     N71122   5.952   2.681   5.655  0.3577  0.1836  0.9106
  516MOL0     C71123   4.893   3.324   5.822 -0.1492  0.2744 -0.3874
  516MOL0     C71124   4.795   3.390   5.896  0.7655  0.0102  0.5220
  516MOL0     C71125   4.638   3.717   6.165  1.0745 -0.4530  0.4279
  516MOL0     C71126   4.500   3.712   6.111  0.2981  0.0845  0.6645
  516MOL0     C71127   4.410   3.813   6.144  0.4493  0.0064 -0.1129
  516MOL0     C71128   4.432   3.904   6.248  0.5217 -0.4105  1.0918
  516MOL0     O71129   4.333   4.003   6.272 -0.3110  0.8808  0.2421
  516MOL0     C71130   4.347   4.087   6.385 -0.6886  0.6677 -0.4674
  516MOL0     C71131   4.436   4.206   6.366  0.1262 -0.0734 -0.5690
  516MOL0     C71132   4.404   4.312   6.474 -0.0523 -0.0893  0.2463
  516MOL0     C71133   4.493   4.436   6.476 -0.7340  0.1323 -0.0914
  516MOL0     C71134   4.484   4.499   6.343  0.3671  0.4821  0.7005
  516MOL0     C71135   4.468   4.540   6.230 -0.0794  0.5435 -0.0840
  516MOL0     C71136   4.551   3.888   6.318 -0.4872 -0.7789 -0.2946
  516MOL0     C71137   4.656   3.796   6.277  0.2011 -0.8345 -0.9680
  516MOL0     C71138   4.772   3.789   6.372 -0.7303 -0.2560  0.4459
  516MOL0     H71139   4.878   3.717   5.840 -2.5889  0.0374  3.6650
  516MOL0     H71140   5.030   3.613   5.694 -1.0186 -0.4317 -2.2577
  516MOL0     H71141   5.003   3.155   5.610 -0.8673  2.2049 -2.0971
  516MOL0     H71142   5.103   3.175   5.750 -0.1604  3.2998  2.0998
  516MOL0     H71143   5.178   3.202   5.458  1.3834 -2.5172 -1.8153
  516MOL0     H71144   5.285   3.270   5.589 -0.5861  1.0000 -2.5452
  516MOL0     H71145   5.356   3.073   5.671  0.3028  0.6692 -0.4219
  516MOL0     H71146   5.226   2.983   5.602 -0.3767  0.4255  0.6792
  516MOL0     H71147   5.309   3.009   5.373 -1.1482 -0.3025  0.6864
  516MOL0     H71148   5.442   3.110   5.419 -1.0618  2.6714  0.5461
  516MOL0     H71149   5.483   2.863   5.386  0.5849 -2.3029  1.0726
  516MOL0     H71150   5.391   2.823   5.533  2.9946 -4.3204 -2.3582
  516MOL0     H71151   5.595   3.024   5.592 -1.5516  0.2756  0.3150
  516MOL0     H71152   5.516   2.894   5.685 -2.5634  0.9357 -1.3963
  516MOL0     H71153   5.719   2.849   5.463  0.7343  1.1749  0.3054
  516MOL0     H71154   5.647   2.729   5.587 -2.3042 -0.4102 -3.2737
  516MOL0     H71155   5.795   2.979   5.653 -1.5987  0.2200  0.3896
  516MOL0     H71156   5.764   2.854   5.765 -1.2937 -2.0755 -1.2966
  516MOL0     H71157   6.032   2.957   5.503  0.5407 -0.5368 -1.4474
  516MOL0     H71158   6.199   2.808   5.352 -1.3214 -2.1025 -0.9760
  516MOL0     H71159   6.202   2.639   5.363  0.5296 -0.2291  1.5100
  516MOL0     H71160   6.402   2.808   5.529 -1.6523  0.3830 -0.0698
  516MOL0     H71161   6.346   2.655   5.580 -2.3836  0.8857 -0.4703
  516MOL0     H71162   6.421   2.536   5.382 -1.2254  0.4076  0.1339
  516MOL0     H71163   6.465   2.706   5.311 -0.6803  0.0124  0.3404
  516MOL0     H71164   6.609   2.615   5.551  0.0573 -1.5256 -0.5050
  516MOL0     H71165   6.664   2.580   5.384 -2.9109 -1.6288 -1.3485
  516MOL0     H71166   6.847   2.747   5.298  2.1218 -3.8125  0.7150
  516MOL0     H71167   7.216   2.703   5.372  0.6761 -2.9069 -3.1935
  516MOL0     H71168   7.161   2.842   5.284 -4.1383  1.0043 -1.5264
  516MOL0     H71169   7.085   2.679   5.257 -1.2647  0.7623 -0.3192
  516MOL0     H71170   7.315   2.762   5.976  1.2187 -0.0894 -0.0807
  516MOL0     H71171   7.491   2.843   6.085  1.4646  0.3345 -0.8807
  516MOL0     H71172   7.672   3.160   6.201 -3.5144 -0.5751  0.9567
  516MOL0     H71173   7.562   3.030   6.194 -1.3548  0.5469 -1.5093
  516MOL0     H71174   7.738   2.864   6.148 -1.1755 -0.0710 -0.1848
  516MOL0     H71175   7.858   3.005   6.140 -0.2473  0.4315  0.5994
  516MOL0     H71176   7.848   2.852   6.342 -1.2190 -0.9003 -0.8847
  516MOL0     H71177   7.705   2.951   6.391 -0.6727  1.8188 -0.7670
  516MOL0     H71178   7.832   3.158   6.367  1.6484 -0.3571  0.5593
  516MOL0     H71179   7.977   3.069   6.303  0.2994  0.7699 -0.7231
  516MOL0     H71180   7.859   3.026   6.579  0.9318 -0.7037  0.4050
  516MOL0     H71181   8.008   2.967   6.514  1.1549  1.1007  2.4508
  516MOL0     H71182   7.928   3.250   6.571  1.2925  3.4169 -0.2178
  516MOL0     H71183   8.066   3.236   6.470 -0.6294  0.4018  1.0229
  516MOL0     H71184   8.056   3.108   6.733 -0.2428 -0.4895 -1.7019
  516MOL0     H71185   8.123   3.277   6.700 -2.0259  0.1033  0.3285
  516MOL0     H71186   8.290   3.188   6.571 -0.2440 -0.1690 -0.1827
  516MOL0     H71187   8.220   3.022   6.563  0.3497 -0.5936  0.4795
  516MOL0     H71188   7.547   3.148   5.796  2.5389 -1.2816  0.0415
  516MOL0     H71189   7.343   3.061   5.673  1.6957  1.4625  0.3816
  516MOL0     H71190   6.943   2.891   5.749 -1.2233  1.6087 -1.1726
  516MOL0     H71191   6.721   2.833   5.684 -0.1111  2.9444  0.3445
  516MOL0     H71192   4.893   3.215   5.825 -0.3320  0.1883 -2.3106
  516MOL0     H71193   4.725   3.328   5.951 -0.7804  1.1635 -0.0954
  516MOL0     H71194   4.462   3.649   6.031  1.4216  0.1419  0.0726
  516MOL0     H71195   4.315   3.805   6.093 -0.9450 -0.0444  2.3339
  516MOL0     H71196   4.252   4.131   6.418 -0.2026  0.6552  1.0126
  516MOL0     H71197   4.373   4.022   6.469 -0.5176  1.6020  0.2171
  516MOL0     H71198   4.406   4.247   6.269 -1.3805  1.2723  0.4158
  516MOL0     H71199   4.541   4.176   6.362  0.3512  0.3093  1.3962
  516MOL0     H71200   4.302   4.343   6.449 -0.1778 -0.7892 -0.1062
  516MOL0     H71201   4.417   4.263   6.571  3.5150 -1.5387 -0.8102
  516MOL0     H71202   4.594   4.406   6.504 -2.2843 -3.9940  1.8768
  516MOL0     H71203   4.467   4.512   6.550 -2.0442 -0.6437  0.2759
  516MOL0     H71204   4.438   4.576   6.134 -4.2026  1.0006  1.1992
  516MOL0     H71205   4.569   3.953   6.403 -1.5761 -1.9301  0.8685
  516MOL0     H71206   4.780   3.687   6.411 -1.2617  0.4777  2.6125
  516MOL0     H71207   4.867   3.806   6.320  0.1740 -2.2191  1.3330
  516MOL0     H71208   4.765   3.860   6.455  2.4295  1.2981 -0.4462
  517MOL0     O71209   8.321   3.994  11.182 -0.2273  0.6192 -0.0979
  517MOL0     C71210   8.230   3.911  11.176  0.3645  0.2614  1.0006
  517MOL0     O71211   8.211   3.816  11.075  0.9222 -0.4345 -0.2411
  517MOL0     C71212   8.323   3.787  11.003  0.5797  0.0094  0.0899
  517MOL0     C71213   8.431   3.736  11.069  0.2487  0.0147 -0.3366
  517MOL0     C71214   8.548   3.705  10.995  0.0916  0.2416 -0.8102
  517MOL0     C71215   8.556   3.722  10.856  0.8208 -0.4054 -0.0026
  517MOL0     O71216   8.671   3.695  10.791  0.1204  0.1547 -0.0258
  517MOL0     C71217   8.674   3.673  10.647  0.3119 -0.2315  0.3139
  517MOL0     C71218   8.596   3.540  10.604 -0.2814 -0.8118 -0.0508
  517MOL0     C71219   8.688   3.418  10.638 -0.2257 -0.4303 -0.3289
  517MOL0     C71220   8.796   3.400  10.525  0.4456  0.5192 -1.0080
  517MOL0     C71221   8.885   3.276  10.549  0.6213  0.1912 -0.6692
  517MOL0     C71222   9.002   3.275  10.454 -0.1391  0.1135 -0.2578
  517MOL0     C71223   9.099   3.174  10.509 -0.2752 -0.5148 -0.3381
  517MOL0     C71224   9.039   3.026  10.496 -0.8223 -0.7682  0.2531
  517MOL0     N71225   9.119   2.922  10.565  0.2161  0.5231  0.0954
  517MOL0     C71226   9.257   2.909  10.565  0.1809  0.0290 -0.3352
  517MOL0     C71227   9.285   2.786  10.636 -1.3873 -0.2375  0.0681
  517MOL0     C71228   9.417   2.734  10.670  0.5369  0.1717  0.1953
  517MOL0     C71229   9.430   2.606  10.585 -0.3640  0.0364 -0.2119
  517MOL0     C71230   9.565   2.538  10.594 -0.1563 -0.6562 -0.6821
  517MOL0     C71231   9.683   2.624  10.544  0.0902  0.7065 -0.5510
  517MOL0     O71232   9.659   2.669  10.410  0.1785 -0.4611 -0.1420
  517MOL0     C71233   9.776   2.662  10.336  0.6566  0.3234  0.1396
  517MOL0     C71234   9.784   2.591  10.216  0.0261 -0.0864  0.7026
  517MOL0     C71235   9.898   2.581  10.137  0.2742 -0.6938 -0.2719
  517MOL0     C71236   9.888   2.500  10.008 -0.6544  0.6276 -0.0365
  517MOL0     C71237  10.007   2.655  10.170  1.1072 -0.0926 -0.3348
  517MOL0     C71238  10.135   2.658  10.093  0.2672 -0.0200  0.1095
  517MOL0     O71239  10.180   2.533  10.059 -0.5053 -0.0179  0.3705
  517MOL0     C71240  10.307   2.516  10.009 -0.1651 -0.4859  0.1570
  517MOL0     C71241  10.330   2.507   9.874 -0.0809  0.0471  0.2818
  517MOL0     C71242  10.463   2.496   9.825  1.0127  0.8914 -0.1998
  517MOL0     C71243  10.573   2.474   9.918  0.1891  0.3839 -0.0682
  517MOL0     O71244  10.703   2.447   9.888 -0.5299 -0.5400  0.2384
  517MOL0     C71245  10.730   2.426   9.748  0.4941 -0.8638 -0.9345
  517MOL0     C71246  10.767   2.555   9.667  0.5433 -0.1898  0.0898
  517MOL0     C71247  10.876   2.631   9.741 -0.1233 -0.6122 -0.3826
  517MOL0     C71248  10.894   2.772   9.677  0.3220  0.2516 -0.4956
  517MOL0     C71249  10.930   2.760   9.533 -0.2728 -0.2242 -0.0456
  517MOL0     C71250  11.083   2.711   9.511  0.6945 -0.6066  0.3151
  517MOL0     C71251  11.124   2.680   9.371 -0.4263  0.6356  0.6695
  517MOL0     C71252  11.282   2.664   9.361  0.1695  0.2910  0.0236
  517MOL0    Cl71253  11.310   2.643   9.197 -0.1137 -0.6390  0.0363
  517MOL0     C71254  10.544   2.486  10.054 -0.2407  0.0974  0.5759
  517MOL0     C71255  10.412   2.508  10.099  0.2885  0.4790 -0.3593
  517MOL0     O71256  10.197   2.759  10.085  0.4740 -0.3298  0.3754
  517MOL0     C71257  10.002   2.732  10.291  0.6284  0.1691  0.6598
  517MOL0     C71258   9.892   2.728  10.380 -0.1863 -0.5456 -0.0618
  517MOL0     N71259   9.165   2.726  10.669  0.2444  0.5816 -1.1951
  517MOL0     N71260   9.064   2.807  10.627  0.3284 -0.3924 -0.3357
  517MOL0     C71261   8.433   3.763  10.791 -1.0445  0.0436  0.0815
  517MOL0     C71262   8.323   3.796  10.868 -0.2199 -0.6837  0.4477
  517MOL0     C71263   8.117   3.914  11.268  0.3129 -0.2545 -0.2775
  517MOL0     C71264   8.141   3.945  11.399  0.4792  0.0917 -0.0876
  517MOL0     C71265   8.048   3.922  11.499 -0.3556 -0.0137  1.0646
  517MOL0     C71266   7.925   3.871  11.468  0.8376  0.7248  0.1401
  517MOL0     O71267   7.848   3.859  11.577 -0.4137 -0.3196  0.8071
  517MOL0     C71268   7.732   3.778  11.561  0.8808  0.5624  0.4372
  517MOL0     C71269   7.703   3.725  11.693  0.0032  0.9728  0.5229
  517MOL0     C71270   7.699   3.823  11.815  0.2972  0.5453 -0.0408
  517MOL0     C71271   7.565   3.912  11.803 -0.4239 -0.5826 -0.7822
  517MOL0     C71272   7.540   3.985  11.930 -1.1241 -1.1494  0.1611
  517MOL0     C71273   7.524   4.037  12.033  0.1896  0.0430  0.3062
  517MOL0     C71274   7.887   3.849  11.338 -0.8226 -0.7272 -0.7561
  517MOL0     C71275   7.978   3.865  11.238 -0.7505 -0.5197 -0.9015
  517MOL0     C71276   7.933   3.839  11.099  0.2676 -0.1983 -0.2782
  517MOL0     H71277   8.424   3.719  11.176 -2.4395  1.4648 -0.1989
  517MOL0     H71278   8.629   3.657  11.048 -1.0864  0.8413  1.6737
  517MOL0     H71279   8.780   3.665  10.622  0.3225  0.5948  0.0732
  517MOL0     H71280   8.631   3.760  10.597 -1.9336 -1.6170 -0.3314
  517MOL0     H71281   8.501   3.528  10.657 -0.9704  0.9991 -0.7980
  517MOL0     H71282   8.589   3.540  10.495  0.3055 -0.1665 -0.0905
  517MOL0     H71283   8.739   3.429  10.734  0.8854 -0.1439 -0.9417
  517MOL0     H71284   8.632   3.324  10.649  1.0105 -1.2074 -0.5325
  517MOL0     H71285   8.743   3.379  10.432  0.6628  0.5453 -1.1381
  517MOL0     H71286   8.859   3.489  10.524  0.9942  0.1884  0.7211
  517MOL0     H71287   8.813   3.200  10.520  2.2345 -0.0159 -4.9135
  517MOL0     H71288   8.908   3.256  10.654 -1.7492  0.3906 -0.0591
  517MOL0     H71289   8.971   3.256  10.351 -1.3031  1.2848 -0.1453
  517MOL0     H71290   9.056   3.370  10.469 -1.2629  0.4476  2.1455
  517MOL0     H71291   9.122   3.191  10.615 -0.9024 -1.0949 -0.0967
  517MOL0     H71292   9.192   3.183  10.453 -0.2386 -0.8582 -0.3346
  517MOL0     H71293   8.947   3.020  10.554  0.5432 -0.8261  2.5584
  517MOL0     H71294   9.036   3.005  10.389  1.1265  2.7447 -0.6453
  517MOL0     H71295   9.323   2.977  10.511  0.3524 -0.7415 -1.1190
  517MOL0     H71296   9.422   2.710  10.777  2.1576 -0.8114 -0.0697
  517MOL0     H71297   9.495   2.808  10.648  1.4047  0.0004  2.3737
  517MOL0     H71298   9.372   2.525  10.630  0.6660 -0.3024  0.5281
  517MOL0     H71299   9.397   2.617  10.481  0.4583 -0.3802 -0.5245
  517MOL0     H71300   9.588   2.507  10.696  0.4623 -3.8710 -1.7044
  517MOL0     H71301   9.561   2.452  10.528  2.4110 -0.6221 -0.9723
  517MOL0     H71302   9.694   2.703  10.619 -2.8614  0.8020 -0.1027
  517MOL0     H71303   9.774   2.564  10.554  0.0345  0.9951  2.8468
  517MOL0     H71304   9.694   2.537  10.187 -0.8817  2.6114 -2.0039
  517MOL0     H71305   9.916   2.396  10.029  2.4938  0.8452 -2.3364
  517MOL0     H71306   9.951   2.537   9.926  1.8128  1.0454  1.9450
  517MOL0     H71307   9.787   2.509   9.967 -0.8578 -1.6922 -0.2118
  517MOL0     H71308  10.241   2.505   9.812 -0.1858 -1.9440  0.4337
  517MOL0     H71309  10.471   2.494   9.717  2.6113  1.2952 -0.1169
  517MOL0     H71310  10.823   2.369   9.745  0.1469 -1.4336 -1.0595
  517MOL0     H71311  10.652   2.366   9.702 -0.3860 -0.7510  0.3783
  517MOL0     H71312  10.792   2.519   9.567 -3.0775  0.0273 -1.0389
  517MOL0     H71313  10.681   2.622   9.655  1.5517  0.8050 -1.9713
  517MOL0     H71314  10.971   2.578   9.747  1.2192  1.5564 -1.2848
  517MOL0     H71315  10.845   2.640   9.846  1.4764 -0.1144  0.0713
  517MOL0     H71316  10.967   2.829   9.736 -0.8083  0.8582  0.3431
  517MOL0     H71317  10.799   2.826   9.683  0.1645  0.5379 -3.7445
  517MOL0     H71318  10.867   2.693   9.474 -0.9674 -0.7362  1.2436
  517MOL0     H71319  10.914   2.859   9.490 -1.1256 -0.6252 -0.6891
  517MOL0     H71320  11.095   2.620   9.570  3.1043  0.1490  1.1143
  517MOL0     H71321  11.153   2.788   9.544 -0.3254  0.8971 -0.8706
  517MOL0     H71322  11.108   2.774   9.318 -0.4046  1.1271  1.5057
  517MOL0     H71323  11.072   2.596   9.326  1.9070 -0.8904  0.6536
  517MOL0     H71324  11.321   2.568   9.397  0.8763  0.7804  0.5916
  517MOL0     H71325  11.334   2.746   9.411 -1.5404  1.4690 -0.0521
  517MOL0     H71326  10.618   2.493  10.134 -0.3889 -0.1316  0.7343
  517MOL0     H71327  10.387   2.520  10.204  0.7360  1.3003 -0.3419
  517MOL0     H71328  10.087   2.794  10.320  0.8805  0.6292 -0.9830
  517MOL0     H71329   9.902   2.797  10.463  0.7923  1.2601 -1.6150
  517MOL0     H71330   8.425   3.775  10.683  1.0640 -2.2878 -0.4489
  517MOL0     H71331   8.231   3.835  10.825  1.0241  3.1764  0.8924
  517MOL0     H71332   8.241   3.976  11.427  0.0366  1.3041  0.2047
  517MOL0     H71333   8.099   3.942  11.593 -0.7197  1.6913  0.9247
  517MOL0     H71334   7.646   3.828  11.515  0.7693 -0.4396 -0.4875
  517MOL0     H71335   7.749   3.696  11.490 -2.0867  0.4933 -0.3148
  517MOL0     H71336   7.783   3.653  11.712 -1.8491 -1.1733  0.5712
  517MOL0     H71337   7.616   3.659  11.698  0.8126 -0.1967 -0.1001
  517MOL0     H71338   7.705   3.764  11.907  0.8807  0.4403 -0.1421
  517MOL0     H71339   7.782   3.893  11.817  2.9312 -2.2146 -2.3830
  517MOL0     H71340   7.479   3.847  11.782  0.3988 -1.0908 -2.7816
  517MOL0     H71341   7.583   3.971  11.713  1.7415 -1.4762 -1.0002
  517MOL0     H71342   7.494   4.094  12.118  0.7330  2.3160 -0.9569
  517MOL0     H71343   7.783   3.828  11.315 -1.4165  0.3491  0.8095
  517MOL0     H71344   7.972   3.741  11.070 -1.6427 -1.5084  1.3098
  517MOL0     H71345   7.825   3.830  11.082  0.5552 -0.6688 -2.1439
  517MOL0     H71346   7.975   3.911  11.028  0.7458  2.0420  2.1424
  518MOL0     O71347   3.845   3.554   1.335  0.0056  0.1374 -0.5631
  518MOL0     C71348   3.772   3.620   1.409 -0.3627  0.8264 -0.2936
  518MOL0     O71349   3.764   3.751   1.411 -0.2012 -0.0184 -0.6782
  518MOL0     C71350   3.871   3.820   1.380 -0.1372 -0.0343 -0.5887
  518MOL0     C71351   3.968   3.872   1.479  0.3770 -0.4333 -0.1051
  518MOL0     C71352   4.084   3.948   1.445  0.1148  0.4475  0.0004
  518MOL0     C71353   4.108   3.961   1.305 -0.7864 -0.0232  0.6450
  518MOL0     O71354   4.210   4.041   1.258  0.3863  0.4666  0.0676
  518MOL0     C71355   4.339   4.055   1.329  0.2547 -0.8255  0.7115
  518MOL0     C71356   4.426   4.149   1.243 -0.3475 -0.0717  0.9700
  518MOL0     C71357   4.469   4.090   1.107 -0.1089  0.3768  0.3248
  518MOL0     C71358   4.526   3.949   1.095 -0.7137  0.4409  0.7903
  518MOL0     C71359   4.677   3.940   1.144  0.0796 -0.5469  0.6974
  518MOL0     C71360   4.737   3.801   1.171  0.2215 -0.1955 -0.4089
  518MOL0     C71361   4.880   3.805   1.236 -0.3192  0.4694  0.2611
  518MOL0     C71362   5.000   3.852   1.153 -0.0538 -0.3081  0.6254
  518MOL0     N71363   5.129   3.804   1.210  0.7033 -0.0948 -0.3642
  518MOL0     C71364   5.174   3.679   1.225 -0.4628  0.0014 -0.4186
  518MOL0     C71365   5.290   3.696   1.294  0.2471  0.1009 -0.4236
  518MOL0     C71366   5.383   3.593   1.343 -0.2196 -0.9932  1.6283
  518MOL0     C71367   5.487   3.638   1.437 -0.4640 -0.2857  0.1190
  518MOL0     C71368   5.589   3.526   1.464 -0.2758  0.5457  0.0588
  518MOL0     C71369   5.677   3.575   1.573 -0.3574  0.2930  0.3255
  518MOL0     O71370   5.768   3.679   1.532 -0.5746  0.5457  0.6753
  518MOL0     C71371   5.810   3.755   1.642 -0.5921  0.2195  0.7093
  518MOL0     C71372   5.824   3.710   1.770  0.2678  0.5279 -0.0835
  518MOL0     C71373   5.856   3.802   1.869 -0.8215 -0.0869 -0.8971
  518MOL0     C71374   5.883   3.746   2.006 -0.0305 -0.0383 -0.0119
  518MOL0     C71375   5.870   3.947   1.839  0.4961  0.5153  0.0408
  518MOL0     C71376   5.880   4.046   1.943 -0.1977  0.0063 -0.2555
  518MOL0     O71377   5.868   4.172   1.904  0.1264 -0.3836 -0.0612
  518MOL0     C71378   5.847   4.282   1.984 -0.1928  0.4133  1.2809
  518MOL0     C71379   5.748   4.280   2.083  0.0691  0.1944 -0.4946
  518MOL0     C71380   5.740   4.396   2.162 -0.5568  1.1816  0.2608
  518MOL0     C71381   5.809   4.513   2.132  1.1371  1.4462  0.0842
  518MOL0     O71382   5.796   4.626   2.204  0.7330 -0.5221  0.5775
  518MOL0     C71383   5.684   4.641   2.302  0.3241  0.5097 -0.1116
  518MOL0     C71384   5.688   4.777   2.368 -0.8648 -0.6140  0.7527
  518MOL0     C71385   5.805   4.789   2.468 -0.0017 -0.0770  0.0847
  518MOL0     C71386   5.824   4.940   2.487 -1.1474  0.5843 -0.0279
  518MOL0     C71387   5.924   4.977   2.594  0.3610 -0.0358  0.9287
  518MOL0     C71388   5.925   5.128   2.611 -0.1410 -0.4834 -0.3806
  518MOL0     C71389   6.048   5.185   2.676 -0.7438 -0.5025 -0.1243
  518MOL0     C71390   6.070   5.336   2.660  1.4654 -0.7899 -0.3543
  518MOL0    Cl71391   6.126   5.370   2.494 -0.3007  0.1348 -0.2187
  518MOL0     C71392   5.901   4.510   2.023 -0.1907 -0.0126  0.5621
  518MOL0     C71393   5.920   4.397   1.945 -0.3373  0.1737  0.4540
  518MOL0     O71394   5.871   4.014   2.059  0.2817 -0.7960 -0.6990
  518MOL0     C71395   5.859   3.982   1.702 -0.8792 -0.4296  0.5127
  518MOL0     C71396   5.830   3.893   1.616 -0.1411  0.0999  1.1852
  518MOL0     N71397   5.303   3.831   1.325 -0.2175 -0.7302 -0.0345
  518MOL0     N71398   5.209   3.897   1.271  0.5342 -0.5769  0.1823
  518MOL0     C71399   4.016   3.920   1.214  0.1456  0.4383 -0.8990
  518MOL0     C71400   3.903   3.851   1.247 -0.2353  0.2076 -0.4797
  518MOL0     C71401   3.694   3.540   1.505  0.7268  0.0861 -0.3178
  518MOL0     C71402   3.575   3.605   1.543  0.4692 -0.6033  0.4592
  518MOL0     C71403   3.494   3.554   1.635  0.2928 -0.0436  0.0251
  518MOL0     C71404   3.518   3.427   1.696 -0.5811  0.1136  0.2806
  518MOL0     O71405   3.429   3.377   1.781 -0.0703  0.6123  0.1777
  518MOL0     C71406   3.395   3.238   1.762 -0.0225  0.6653 -0.3391
  518MOL0     C71407   3.319   3.213   1.629 -0.8836  0.5740 -0.8693
  518MOL0     C71408   3.169   3.225   1.641 -0.4004  0.6305 -0.6211
  518MOL0     C71409   3.112   3.223   1.505  0.0797 -0.1661  0.5318
  518MOL0     C71410   2.963   3.212   1.530  0.4633 -0.5377  0.3699
  518MOL0     C71411   2.843   3.201   1.523  0.7335  0.1477  0.2956
  518MOL0     C71412   3.635   3.365   1.665  0.0124  0.1475 -0.0871
  518MOL0     C71413   3.727   3.423   1.568  0.6197  0.3035  0.2059
  518MOL0     C71414   3.857   3.350   1.537 -0.4763  0.2843  0.8902
  518MOL0     H71415   3.939   3.867   1.583 -0.7786  3.2656 -0.1004
  518MOL0     H71416   4.154   3.992   1.514 -0.9165  1.3728  0.4920
  518MOL0     H71417   4.392   3.960   1.346  0.4126 -0.7098  0.8641
  518MOL0     H71418   4.321   4.096   1.429 -1.0455  1.2173 -0.2893
  518MOL0     H71419   4.366   4.238   1.222 -1.1886 -0.8725 -0.1781
  518MOL0     H71420   4.514   4.179   1.300  0.1943 -0.4625  0.3421
  518MOL0     H71421   4.377   4.092   1.049 -0.3655 -0.0641  0.7203
  518MOL0     H71422   4.554   4.145   1.065  3.1685 -2.0484  3.2381
  518MOL0     H71423   4.469   3.881   1.160  3.5514 -3.4473  1.0191
  518MOL0     H71424   4.519   3.922   0.989 -2.5885  2.9326  0.2098
  518MOL0     H71425   4.686   4.000   1.235 -2.0831  0.4417  0.3360
  518MOL0     H71426   4.730   4.003   1.072 -0.6721  1.6662  1.9919
  518MOL0     H71427   4.670   3.741   1.233 -1.0132  3.4364  2.0425
  518MOL0     H71428   4.766   3.753   1.077  3.1980  0.3893  0.0948
  518MOL0     H71429   4.899   3.703   1.271  1.0401  0.4502 -0.4793
  518MOL0     H71430   4.869   3.877   1.318  2.9134  0.2329  1.0464
  518MOL0     H71431   5.008   3.810   1.053 -0.6359  0.4099  0.2700
  518MOL0     H71432   5.001   3.961   1.146  0.4331 -0.2417  1.5664
  518MOL0     H71433   5.127   3.583   1.203  0.2788 -0.5604  0.3697
  518MOL0     H71434   5.444   3.563   1.258  1.1821  2.2829  1.3232
  518MOL0     H71435   5.331   3.504   1.380 -1.3844 -0.7665  0.6248
  518MOL0     H71436   5.542   3.724   1.398  0.9744 -1.1152  0.2447
  518MOL0     H71437   5.437   3.665   1.530  1.2506 -1.0310  1.3129
  518MOL0     H71438   5.542   3.435   1.503 -0.3333  0.9986  1.1012
  518MOL0     H71439   5.649   3.512   1.374 -1.0032 -2.9054 -0.0083
  518MOL0     H71440   5.614   3.597   1.660  0.9372  0.6238  1.2288
  518MOL0     H71441   5.734   3.485   1.598  0.8050  0.8583 -0.1953
  518MOL0     H71442   5.814   3.604   1.791  0.5965  0.3877 -0.6095
  518MOL0     H71443   5.914   3.641   2.012  1.2066  0.2306 -1.1833
  518MOL0     H71444   5.789   3.765   2.058 -0.3028  1.0095 -0.8770
  518MOL0     H71445   5.971   3.801   2.042  0.8648 -1.4101 -0.0077
  518MOL0     H71446   5.697   4.188   2.111  1.9053 -0.5568  0.6014
  518MOL0     H71447   5.664   4.387   2.239 -2.3167 -1.3866 -1.6300
  518MOL0     H71448   5.587   4.616   2.256  1.2289 -4.4516  0.0719
  518MOL0     H71449   5.692   4.565   2.380 -0.3261  0.4975 -0.0552
  518MOL0     H71450   5.701   4.855   2.293 -1.7887 -2.6455 -1.6427
  518MOL0     H71451   5.590   4.805   2.407 -0.8389  1.7081 -0.6537
  518MOL0     H71452   5.894   4.742   2.424  0.9993  1.5558  0.2890
  518MOL0     H71453   5.781   4.732   2.558 -1.2756 -0.5046 -0.4974
  518MOL0     H71454   5.727   4.973   2.523 -2.1522 -1.7257 -0.4030
  518MOL0     H71455   5.849   4.997   2.397  1.9814  4.2019  2.8435
  518MOL0     H71456   5.912   4.913   2.682 -1.1644  0.3500  1.0263
  518MOL0     H71457   6.023   4.953   2.555  0.2245  1.3916 -0.4054
  518MOL0     H71458   5.832   5.160   2.661 -0.9418 -0.8135 -1.6171
  518MOL0     H71459   5.911   5.173   2.513 -0.3531  2.2321  0.8057
  518MOL0     H71460   6.134   5.142   2.623 -0.3359 -0.3571  0.4201
  518MOL0     H71461   6.052   5.150   2.779  2.3232 -0.5080 -0.1674
  518MOL0     H71462   6.144   5.375   2.730 -0.4723  1.3209  0.6563
  518MOL0     H71463   5.975   5.381   2.690  2.5744 -0.1488  2.4478
  518MOL0     H71464   5.953   4.603   2.004  0.4251  0.2810  3.3257
  518MOL0     H71465   5.991   4.401   1.863 -0.6290 -0.9850  0.1353
  518MOL0     H71466   5.863   4.086   1.669 -1.2459 -0.0631  1.5641
  518MOL0     H71467   5.810   3.932   1.517 -0.1831 -2.2261  0.2114
  518MOL0     H71468   4.029   3.941   1.108 -1.4424  0.6868 -1.0580
  518MOL0     H71469   3.831   3.824   1.170 -0.9504 -0.0767  0.2686
  518MOL0     H71470   3.550   3.703   1.504 -0.9006 -0.7433  0.9211
  518MOL0     H71471   3.406   3.614   1.654  0.0093 -0.2750 -0.5277
  518MOL0     H71472   3.486   3.177   1.762  0.6001  1.2810 -4.6337
  518MOL0     H71473   3.331   3.214   1.847  1.4759 -0.9288  0.4101
  518MOL0     H71474   3.356   3.123   1.581 -0.5411 -1.2978  2.5983
  518MOL0     H71475   3.346   3.298   1.566  1.6979  0.9881  0.6772
  518MOL0     H71476   3.128   3.134   1.687  0.5466  0.5894  0.1781
  518MOL0     H71477   3.145   3.318   1.694 -2.3553  0.8062 -1.7506
  518MOL0     H71478   3.142   3.130   1.456  2.7580  2.2599 -2.8984
  518MOL0     H71479   3.142   3.307   1.441  1.0418 -1.9852 -1.5605
  518MOL0     H71480   2.738   3.179   1.521  1.0695 -1.5240 -1.4801
  518MOL0     H71481   3.665   3.270   1.708 -0.5020 -0.6152 -1.3403
  518MOL0     H71482   3.883   3.270   1.606  2.7161  0.5120  0.0934
  518MOL0     H71483   3.867   3.310   1.436 -1.4337  0.2470  0.8009
  518MOL0     H71484   3.937   3.424   1.547 -0.4728  0.7299 -1.6598
  519MOL0     O71485   7.331   1.810   4.239 -0.2823  0.2078 -0.3028
  519MOL0     C71486   7.309   1.928   4.265 -0.7487 -0.3987 -0.6903
  519MOL0     O71487   7.404   2.025   4.294  0.0916  0.5676  0.5403
  519MOL0     C71488   7.543   2.007   4.260  0.5070  0.0802 -0.3518
  519MOL0     C71489   7.641   2.082   4.331 -0.0598  0.7965  0.3258
  519MOL0     C71490   7.778   2.059   4.306  0.3533 -0.4090 -0.0578
  519MOL0     C71491   7.822   1.962   4.216  0.9543 -0.5737 -0.3581
  519MOL0     O71492   7.956   1.952   4.192  0.0376 -0.4261  0.5298
  519MOL0     C71493   8.006   1.861   4.095 -0.3119 -0.2836  0.0230
  519MOL0     C71494   8.151   1.829   4.143  0.2472  0.2056  0.3820
  519MOL0     C71495   8.249   1.943   4.107  0.1210 -0.0772  1.3852
  519MOL0     C71496   8.393   1.893   4.113  0.3041  0.3999 -0.2184
  519MOL0     C71497   8.474   2.012   4.049  0.3671  0.2943 -0.2111
  519MOL0     C71498   8.631   1.980   4.055  0.6610 -1.4970  0.3039
  519MOL0     C71499   8.721   2.099   4.034 -0.4826 -0.0521  0.1800
  519MOL0     C71500   8.721   2.208   4.140  0.3306  0.2448 -1.2463
  519MOL0     N71501   8.803   2.178   4.254 -0.3071  0.0870 -0.5138
  519MOL0     C71502   8.853   2.277   4.336  0.2350  0.2535 -0.3005
  519MOL0     C71503   8.929   2.210   4.423  0.3619 -1.1457  0.2016
  519MOL0     C71504   8.995   2.276   4.540 -0.3038  0.0294  0.4448
  519MOL0     C71505   9.139   2.318   4.509  0.3773 -1.2491 -0.1675
  519MOL0     C71506   9.257   2.218   4.508 -0.2685 -0.4174  0.5771
  519MOL0     C71507   9.384   2.295   4.445 -0.5857  0.0046  0.4740
  519MOL0     O71508   9.508   2.219   4.471 -0.4185 -0.2284  1.0445
  519MOL0     C71509   9.587   2.262   4.567  0.4667 -0.5106  0.3506
  519MOL0     C71510   9.705   2.330   4.529 -0.2869 -0.0480  0.1471
  519MOL0     C71511   9.797   2.364   4.632 -0.3654  0.7897 -0.0839
  519MOL0     C71512   9.908   2.459   4.586 -0.9707 -0.5425  0.2177
  519MOL0     C71513   9.789   2.305   4.757  0.2893  0.2322  0.7032
  519MOL0     C71514   9.893   2.322   4.862  0.5383  0.0442  0.0407
  519MOL0     O71515   9.858   2.275   4.985 -1.4506  0.0858 -0.0331
  519MOL0     C71516   9.947   2.310   5.087  0.3855  0.5127  0.0052
  519MOL0     C71517  10.017   2.209   5.148 -1.0547 -0.5110 -0.1120
  519MOL0     C71518  10.093   2.240   5.267  0.9567 -0.0799 -0.0952
  519MOL0     C71519  10.100   2.368   5.311 -0.4473  0.2744  0.1501
  519MOL0     O71520  10.175   2.395   5.417  0.5366  0.5032  0.1267
  519MOL0     C71521  10.143   2.322   5.540  0.3127 -0.1183  0.0221
  519MOL0     C71522  10.184   2.413   5.655 -0.0217  0.4592  0.1247
  519MOL0     C71523  10.171   2.350   5.791 -0.4209  0.1429 -0.4118
  519MOL0     C71524  10.272   2.241   5.832 -0.0374 -0.0446 -0.1405
  519MOL0     C71525  10.411   2.294   5.844  0.8542 -0.2772 -0.2877
  519MOL0     C71526  10.428   2.390   5.959 -0.2379  1.1112 -0.6076
  519MOL0     C71527  10.587   2.413   5.985  0.0157  0.0711  0.2878
  519MOL0     C71528  10.668   2.455   5.857  0.2896 -0.2706  0.0130
  519MOL0    Cl71529  10.615   2.610   5.792 -0.4239 -0.3571  0.4476
  519MOL0     C71530  10.039   2.471   5.240  0.0912 -0.7971  0.6016
  519MOL0     C71531   9.961   2.446   5.125  0.0873  0.7969 -0.3583
  519MOL0     O71532  10.000   2.372   4.829 -0.1614  0.3618  0.1844
  519MOL0     C71533   9.663   2.240   4.792  0.0838 -0.0853  0.4457
  519MOL0     C71534   9.557   2.223   4.701 -0.5853  0.3077 -1.1332
  519MOL0     N71535   8.929   2.078   4.394 -0.1393  0.8917 -0.3207
  519MOL0     N71536   8.854   2.061   4.298  0.1763  0.0120  0.3272
  519MOL0     C71537   7.718   1.901   4.138  0.4761 -0.5902 -0.4313
  519MOL0     C71538   7.586   1.925   4.156 -0.4012  0.3960  0.5318
  519MOL0     C71539   7.170   1.959   4.266 -0.5981  0.2394 -0.1710
  519MOL0     C71540   7.078   1.888   4.184 -0.7995  0.5833 -0.9185
  519MOL0     C71541   6.941   1.922   4.180  0.5127  0.4471 -0.9514
  519MOL0     C71542   6.887   2.022   4.264 -0.1620 -0.5984  0.0038
  519MOL0     O71543   6.756   2.055   4.266  1.2956 -0.2921  0.3715
  519MOL0     C71544   6.665   1.973   4.190 -0.0606 -0.0329 -0.5959
  519MOL0     C71545   6.524   2.029   4.206 -0.6553  0.6239 -0.4816
  519MOL0     C71546   6.475   2.095   4.333 -0.2359  0.6808  0.1679
  519MOL0     C71547   6.326   2.120   4.327 -0.7607  0.0989  0.7064
  519MOL0     C71548   6.275   2.159   4.453 -0.2330  0.1035 -0.8176
  519MOL0     C71549   6.227   2.204   4.559  0.0935  0.4569 -0.8508
  519MOL0     C71550   6.974   2.085   4.345 -0.0743  0.4405  0.9065
  519MOL0     C71551   7.114   2.057   4.353 -0.2559 -0.0512  1.0980
  519MOL0     C71552   7.186   2.124   4.471  0.3029  0.1155 -0.2001
  519MOL0     H71553   7.620   2.153   4.410  4.2514  1.7211  0.8779
  519MOL0     H71554   7.848   2.131   4.346 -0.5942  1.4395 -1.5698
  519MOL0     H71555   8.009   1.918   4.002  1.2533  0.8339  0.7158
  519MOL0     H71556   7.960   1.763   4.083 -2.0703 -0.2062  4.2976
  519MOL0     H71557   8.162   1.822   4.252  2.8859  2.5506  0.3951
  519MOL0     H71558   8.177   1.731   4.101 -1.1824  0.3070 -0.8276
  519MOL0     H71559   8.231   1.977   4.005  0.0186 -3.5067  0.1351
  519MOL0     H71560   8.232   2.035   4.165  0.8998  0.4530  0.7926
  519MOL0     H71561   8.439   1.879   4.211  0.7357  2.3555 -0.1042
  519MOL0     H71562   8.401   1.800   4.055  4.9869 -0.1556  0.8890
  519MOL0     H71563   8.457   2.105   4.103  2.0671  1.7762 -2.0581
  519MOL0     H71564   8.454   2.030   3.943 -1.1670  1.5377  0.2588
  519MOL0     H71565   8.650   1.930   4.151 -0.5080 -1.2790  0.6715
  519MOL0     H71566   8.647   1.910   3.973  1.2118  2.2627 -3.1104
  519MOL0     H71567   8.693   2.151   3.943 -1.0129 -0.8726 -0.1392
  519MOL0     H71568   8.822   2.058   4.025 -0.8553 -1.5825  2.1266
  519MOL0     H71569   8.759   2.300   4.094 -0.3006  1.6567  0.8983
  519MOL0     H71570   8.619   2.226   4.175  0.7078 -2.4769  1.8063
  519MOL0     H71571   8.831   2.384   4.338  1.6186  0.5456  1.1440
  519MOL0     H71572   8.979   2.210   4.626 -0.2075 -0.5625  0.0124
  519MOL0     H71573   8.943   2.372   4.550 -1.8882 -0.8958  1.5679
  519MOL0     H71574   9.145   2.367   4.411  2.5801 -0.8232  0.1112
  519MOL0     H71575   9.157   2.393   4.587 -3.1422 -0.8038  0.3827
  519MOL0     H71576   9.291   2.189   4.608 -0.2746  2.6570  1.5703
  519MOL0     H71577   9.217   2.131   4.455  2.4769 -2.0018  0.8904
  519MOL0     H71578   9.364   2.300   4.338  0.8278 -2.0243  0.0473
  519MOL0     H71579   9.402   2.398   4.476 -2.4401 -0.0553  1.9521
  519MOL0     H71580   9.728   2.357   4.426 -1.1121 -0.0261 -0.0391
  519MOL0     H71581  10.003   2.409   4.565 -0.7584 -0.1901  0.3357
  519MOL0     H71582   9.924   2.540   4.658 -0.6507  1.0401 -1.5382
  519MOL0     H71583   9.884   2.510   4.492 -0.9001 -0.2007  0.3832
  519MOL0     H71584  10.023   2.106   5.113 -0.6972 -0.0882 -1.3354
  519MOL0     H71585  10.162   2.169   5.312  1.6723 -0.5118 -1.7827
  519MOL0     H71586  10.036   2.303   5.540  0.3131 -0.1236  0.2096
  519MOL0     H71587  10.195   2.225   5.543  0.5215  0.0010  2.0658
  519MOL0     H71588  10.290   2.441   5.649  0.6219 -1.9722 -0.8304
  519MOL0     H71589  10.116   2.499   5.649 -2.2768 -1.3252 -1.1834
  519MOL0     H71590  10.067   2.320   5.803 -0.9982  1.3239 -1.9865
  519MOL0     H71591  10.198   2.427   5.864 -1.0854 -1.9752  2.2162
  519MOL0     H71592  10.271   2.161   5.757 -0.3444 -0.0285 -0.1550
  519MOL0     H71593  10.237   2.196   5.925 -0.9127  0.2077 -0.3365
  519MOL0     H71594  10.462   2.201   5.870 -1.5295 -2.0993 -1.7085
  519MOL0     H71595  10.447   2.347   5.755 -3.9988  1.6841 -1.3565
  519MOL0     H71596  10.373   2.362   6.049  1.2971 -0.7112 -0.1606
  519MOL0     H71597  10.385   2.485   5.926 -1.9409  0.2273 -1.0449
  519MOL0     H71598  10.629   2.323   6.031  0.2482 -0.7345 -1.4394
  519MOL0     H71599  10.597   2.493   6.059  0.0330 -0.6232  1.0554
  519MOL0     H71600  10.672   2.374   5.784  1.9546  1.0724 -1.4431
  519MOL0     H71601  10.774   2.469   5.881  0.5112  1.6601 -1.8536
  519MOL0     H71602  10.045   2.573   5.275 -2.8155 -1.5083  3.7065
  519MOL0     H71603   9.905   2.524   5.075 -1.1586  0.4560  0.4661
  519MOL0     H71604   9.642   2.206   4.893  0.1223 -0.0341  0.4712
  519MOL0     H71605   9.464   2.175   4.727 -0.5238 -0.1919 -1.8031
  519MOL0     H71606   7.743   1.838   4.053 -1.4123 -1.6352 -0.2686
  519MOL0     H71607   7.525   1.867   4.088 -0.3573  0.3314  0.5474
  519MOL0     H71608   7.099   1.804   4.119 -0.7443  0.5208 -0.8188
  519MOL0     H71609   6.881   1.868   4.107 -1.9834  0.8811  0.6536
  519MOL0     H71610   6.697   1.962   4.086 -0.4314  0.4354 -0.7633
  519MOL0     H71611   6.663   1.872   4.231 -1.2246 -0.4817 -1.6829
  519MOL0     H71612   6.450   1.953   4.175 -1.4524  1.9727 -2.0545
  519MOL0     H71613   6.523   2.111   4.135  1.7466  1.3827  0.2994
  519MOL0     H71614   6.497   2.023   4.412  0.2169  1.7631  1.0528
  519MOL0     H71615   6.523   2.191   4.352  2.2594  0.1477 -2.8107
  519MOL0     H71616   6.276   2.030   4.290 -1.1538  0.3426  0.6415
  519MOL0     H71617   6.305   2.200   4.255 -2.3416 -1.6614 -0.9080
  519MOL0     H71618   6.190   2.249   4.648  1.1199 -1.9888  0.9505
  519MOL0     H71619   6.943   2.173   4.400 -0.4807  0.1384  1.1642
  519MOL0     H71620   7.232   2.214   4.430  1.1457  0.8226  2.1352
  519MOL0     H71621   7.109   2.155   4.543 -1.8661  1.5629 -2.9477
  519MOL0     H71622   7.254   2.047   4.509 -1.0373 -2.1563 -2.0748
  520MOL0     O71623   5.601   9.368   5.258  0.4910 -0.1547  0.4707
  520MOL0     C71624   5.610   9.243   5.264 -0.1470 -0.1646 -0.3289
  520MOL0     O71625   5.723   9.169   5.263 -0.3882 -0.2764 -0.0085
  520MOL0     C71626   5.843   9.239   5.270  0.3263  0.6600 -0.2455
  520MOL0     C71627   5.900   9.317   5.382 -0.3969 -1.0173  0.3779
  520MOL0     C71628   6.019   9.380   5.371  0.2889  0.3066 -0.1796
  520MOL0     C71629   6.096   9.364   5.251  0.0987  0.4685  0.1084
  520MOL0     O71630   6.214   9.427   5.243 -1.0878  0.4705 -0.0089
  520MOL0     C71631   6.317   9.353   5.317  0.5199 -0.9837  0.5898
  520MOL0     C71632   6.443   9.443   5.325 -0.4198 -0.1690 -0.0455
  520MOL0     C71633   6.548   9.401   5.426  0.1377 -0.3757 -0.6582
  520MOL0     C71634   6.630   9.280   5.379 -0.2605  0.5652 -0.0498
  520MOL0     C71635   6.770   9.275   5.448  0.5643 -0.7022 -0.0916
  520MOL0     C71636   6.852   9.159   5.400  0.2600 -1.2915  0.2003
  520MOL0     C71637   6.967   9.125   5.492 -0.0927  0.2831  0.3394
  520MOL0     C71638   7.085   9.223   5.502 -0.7632 -0.0694  0.0205
  520MOL0     N71639   7.201   9.176   5.578 -0.4453  0.6350 -0.4847
  520MOL0     C71640   7.312   9.124   5.517 -0.0625 -0.3756 -0.0500
  520MOL0     C71641   7.373   9.058   5.618  0.0523  0.1328 -0.4112
  520MOL0     C71642   7.505   8.985   5.594 -0.5549  0.7003  0.4609
  520MOL0     C71643   7.596   8.978   5.718 -0.4055 -0.2170 -0.2296
  520MOL0     C71644   7.741   8.953   5.688  0.2875  0.3263  0.2416
  520MOL0     C71645   7.796   8.835   5.765 -0.3692 -0.2444 -0.6912
  520MOL0     O71646   7.833   8.868   5.897 -0.6722 -1.5036 -0.0377
  520MOL0     C71647   7.904   8.789   5.980 -0.1036 -0.8085  0.7117
  520MOL0     C71648   7.917   8.656   5.956 -0.7327  0.6743  0.1325
  520MOL0     C71649   7.988   8.570   6.044 -1.0894 -0.8812 -0.1999
  520MOL0     C71650   8.001   8.423   6.014  0.3004 -0.9600  0.0633
  520MOL0     C71651   8.048   8.625   6.157  0.2622  0.3019 -0.2450
  520MOL0     C71652   8.117   8.551   6.273  0.5716  0.3598 -0.5102
  520MOL0     O71653   8.218   8.627   6.332  0.0909  0.2156  0.1872
  520MOL0     C71654   8.261   8.595   6.461  0.4547  0.1864 -0.5571
  520MOL0     C71655   8.341   8.478   6.487  0.1834 -0.6603  0.4820
  520MOL0     C71656   8.378   8.449   6.613 -0.0127  0.1860 -0.5224
  520MOL0     C71657   8.338   8.522   6.728 -0.2239 -0.2997 -1.0425
  520MOL0     O71658   8.375   8.499   6.856 -0.1182  0.0397  1.0158
  520MOL0     C71659   8.509   8.453   6.881  1.4532 -0.0123 -0.0456
  520MOL0     C71660   8.503   8.426   7.033  0.7983  0.5331 -0.0441
  520MOL0     C71661   8.618   8.326   7.085 -0.5412 -0.3705  0.4233
  520MOL0     C71662   8.753   8.408   7.090 -1.0087 -0.5620  0.7696
  520MOL0     C71663   8.871   8.322   7.131 -0.0743 -0.0569 -0.6004
  520MOL0     C71664   8.987   8.421   7.164  0.7555  0.2215 -0.3569
  520MOL0     C71665   9.125   8.356   7.170 -0.6721  0.1440 -0.0198
  520MOL0     C71666   9.234   8.408   7.264  0.0493  0.9559  0.2431
  520MOL0    Cl71667   9.287   8.570   7.224 -0.0448  0.0277  0.5661
  520MOL0     C71668   8.262   8.640   6.699 -0.4070 -0.2567 -0.2039
  520MOL0     C71669   8.229   8.680   6.573 -0.5039  0.3722  0.3411
  520MOL0     O71670   8.091   8.432   6.304  0.2873 -0.0588 -0.2884
  520MOL0     C71671   8.029   8.764   6.187  0.0746  0.5075  0.5354
  520MOL0     C71672   7.950   8.844   6.101 -0.1743  0.5491  0.4898
  520MOL0     N71673   7.303   9.076   5.741 -0.4343 -0.2473  0.4268
  520MOL0     N71674   7.203   9.150   5.709  0.2625 -0.6659  0.3986
  520MOL0     C71675   6.047   9.284   5.153 -0.3768 -0.1358 -0.7082
  520MOL0     C71676   5.916   9.232   5.155 -0.6800  0.0923 -0.4044
  520MOL0     C71677   5.485   9.170   5.300  0.1071  0.1382  0.3794
  520MOL0     C71678   5.512   9.041   5.345 -0.0528 -0.0550  0.0488
  520MOL0     C71679   5.412   8.969   5.407  0.3362  0.0250  0.2254
  520MOL0     C71680   5.278   9.017   5.417  0.1613 -0.4259 -0.0516
  520MOL0     O71681   5.167   8.957   5.471 -0.4126  0.4648 -0.1326
  520MOL0     C71682   5.181   8.823   5.517  0.8504 -0.6182 -0.5344
  520MOL0     C71683   5.047   8.782   5.580  0.2529 -0.9839  0.0490
  520MOL0     C71684   5.050   8.814   5.729  0.8460  0.9941 -0.5164
  520MOL0     C71685   4.903   8.789   5.784 -0.0744 -0.0519  0.3030
  520MOL0     C71686   4.885   8.815   5.930 -0.0175 -0.6068  0.7164
  520MOL0     C71687   4.857   8.830   6.051  0.1351 -0.1722  0.1080
  520MOL0     C71688   5.249   9.146   5.361  1.4201  1.6872 -0.2114
  520MOL0     C71689   5.349   9.217   5.301 -0.1110  0.6210  0.4598
  520MOL0     C71690   5.307   9.353   5.263 -0.8581 -1.5392  0.6900
  520MOL0     H71691   5.848   9.340   5.475 -1.2469 -2.2065  0.2226
  520MOL0     H71692   6.058   9.447   5.446  0.0321 -1.2192  1.3697
  520MOL0     H71693   6.349   9.259   5.270  1.4886 -0.1702 -0.4455
  520MOL0     H71694   6.283   9.334   5.419  1.1194 -1.3238  0.7343
  520MOL0     H71695   6.491   9.444   5.226  0.2614 -1.0317  0.2602
  520MOL0     H71696   6.416   9.545   5.354 -1.0088 -0.6788  1.2660
  520MOL0     H71697   6.619   9.483   5.442 -0.9741  0.2142  1.8730
  520MOL0     H71698   6.500   9.378   5.522  1.8860 -3.8926 -0.4671
  520MOL0     H71699   6.572   9.187   5.385  1.0529 -0.2691  0.0362
  520MOL0     H71700   6.653   9.290   5.273  1.4664  1.3360  0.3719
  520MOL0     H71701   6.750   9.263   5.555 -0.7799  1.5164 -0.0207
  520MOL0     H71702   6.828   9.367   5.435  1.3043 -0.8389  1.9444
  520MOL0     H71703   6.777   9.080   5.387 -0.8322  0.1363 -3.5079
  520MOL0     H71704   6.892   9.170   5.299 -0.9118  0.5480 -0.1139
  520MOL0     H71705   7.013   9.032   5.458 -2.2069 -0.5162 -0.5008
  520MOL0     H71706   6.926   9.115   5.593  0.6669  2.3406  0.8873
  520MOL0     H71707   7.111   9.241   5.397 -1.0944  1.3686  0.1686
  520MOL0     H71708   7.048   9.316   5.545 -1.1668 -1.1189  2.0740
  520MOL0     H71709   7.336   9.131   5.412 -1.0463  0.8045 -0.2165
  520MOL0     H71710   7.566   9.040   5.521 -1.9598  1.3007 -0.2956
  520MOL0     H71711   7.491   8.886   5.550 -1.4431  1.0109  0.0246
  520MOL0     H71712   7.587   9.074   5.769  0.7121  0.0442 -0.4822
  520MOL0     H71713   7.557   8.897   5.780  1.1011  0.5148  1.7973
  520MOL0     H71714   7.757   8.943   5.580 -1.2798 -0.2420  0.0360
  520MOL0     H71715   7.794   9.044   5.716 -0.6119  0.2708  2.3093
  520MOL0     H71716   7.724   8.753   5.755  3.1504 -3.6185 -0.8965
  520MOL0     H71717   7.890   8.808   5.717 -0.8447  0.8254 -2.3047
  520MOL0     H71718   7.877   8.615   5.863 -1.5699 -1.7289  1.4533
  520MOL0     H71719   8.098   8.385   6.047  1.1981  1.1358 -0.0141
  520MOL0     H71720   7.981   8.391   5.912  2.0133 -1.4016 -0.1496
  520MOL0     H71721   7.928   8.372   6.078 -0.9710 -2.0738 -2.1792
  520MOL0     H71722   8.355   8.418   6.398 -2.3129 -0.5087 -0.0825
  520MOL0     H71723   8.439   8.360   6.627  0.0860  0.5485  1.8609
  520MOL0     H71724   8.525   8.365   6.818 -0.0309  1.2825 -2.3525
  520MOL0     H71725   8.580   8.533   6.861  0.9693  0.4600  0.1089
  520MOL0     H71726   8.511   8.515   7.096  0.4535  2.8599 -3.0568
  520MOL0     H71727   8.403   8.388   7.053  0.0142  1.8613 -1.2626
  520MOL0     H71728   8.629   8.246   7.011  0.5506 -0.2897  0.4811
  520MOL0     H71729   8.613   8.270   7.179  0.0429 -1.6862 -0.2997
  520MOL0     H71730   8.737   8.483   7.168 -0.3526  0.1881  0.1950
  520MOL0     H71731   8.776   8.456   6.995  2.2910 -1.8575  0.7807
  520MOL0     H71732   8.853   8.273   7.227 -1.6273 -1.0757 -1.3658
  520MOL0     H71733   8.905   8.255   7.051 -0.0759 -0.3625 -0.3449
  520MOL0     H71734   8.979   8.465   7.264  0.9236 -0.8377  0.1341
  520MOL0     H71735   8.997   8.498   7.088  3.3976  1.5722  1.2126
  520MOL0     H71736   9.158   8.349   7.066 -3.5392  0.5412 -1.0581
  520MOL0     H71737   9.107   8.255   7.208 -0.4487 -0.4982 -1.5289
  520MOL0     H71738   9.322   8.345   7.248 -0.7921 -0.8268  2.1395
  520MOL0     H71739   9.215   8.397   7.372  0.5326 -1.0586  0.1651
  520MOL0     H71740   8.245   8.711   6.780 -1.0438 -3.0962  2.3532
  520MOL0     H71741   8.169   8.769   6.559  1.4337  1.5597 -0.8723
  520MOL0     H71742   8.080   8.808   6.271  1.7102  2.7411 -1.5022
  520MOL0     H71743   7.932   8.948   6.127  0.8203  0.4032  1.9049
  520MOL0     H71744   6.110   9.261   5.068  1.4001  5.8258 -1.4325
  520MOL0     H71745   5.879   9.183   5.064  0.1618 -1.4029  0.0182
  520MOL0     H71746   5.603   8.984   5.333 -1.7815 -2.9399 -0.1384
  520MOL0     H71747   5.438   8.873   5.450  3.5875  1.0795  0.9434
  520MOL0     H71748   5.189   8.757   5.430  1.6351 -0.4037 -0.6352
  520MOL0     H71749   5.263   8.822   5.589  0.5958  3.0024 -0.0126
  520MOL0     H71750   5.039   8.674   5.566  0.0091 -0.8246 -1.1478
  520MOL0     H71751   4.962   8.816   5.521  0.7123 -1.3619 -0.8556
  520MOL0     H71752   5.111   8.743   5.785 -0.1400  0.6418  0.1474
  520MOL0     H71753   5.076   8.920   5.735 -1.3797  1.8026 -2.9531
  520MOL0     H71754   4.891   8.685   5.750  0.2059  0.9162 -3.0561
  520MOL0     H71755   4.844   8.855   5.721  2.6474  0.6065 -1.7486
  520MOL0     H71756   4.852   8.850   6.156  1.2680 -0.2044  0.1809
  520MOL0     H71757   5.149   9.188   5.371  0.5662  0.0938 -1.5157
  520MOL0     H71758   5.366   9.386   5.178 -4.4551 -0.6972 -1.7040
  520MOL0     H71759   5.201   9.360   5.237 -1.0942  0.8176  1.9828
  520MOL0     H71760   5.317   9.414   5.354 -1.9748 -0.5256  0.1627
  521MOL0     O71761   0.171  11.003   0.183  0.1848  0.0993 -0.3910
  521MOL0     C71762   0.190  10.898   0.239 -0.1148 -0.1130  0.6909
  521MOL0     O71763   0.130  10.779   0.211 -0.1676 -0.7454  0.0608
  521MOL0     C71764   0.062  10.776   0.088  0.7027 -0.5395  0.1992
  521MOL0     C71765  -0.065  10.829   0.079 -0.8664  0.2269  0.2813
  521MOL0     C71766  -0.132  10.827  -0.046  0.2395  0.0873  0.8680
  521MOL0     C71767  -0.082  10.753  -0.153  0.1027  0.1393  0.5538
  521MOL0     O71768  -0.149  10.735  -0.276  0.2399 -0.5354  1.0544
  521MOL0     C71769  -0.291  10.759  -0.276  0.0200 -1.0448 -0.3231
  521MOL0     C71770  -0.348  10.703  -0.413 -0.5882  0.4678 -0.4396
  521MOL0     C71771  -0.496  10.742  -0.437  0.8579  1.6204 -0.4410
  521MOL0     C71772  -0.510  10.896  -0.461 -0.0908  0.3638 -0.2563
  521MOL0     C71773  -0.647  10.938  -0.490  0.2816  0.0482  0.1249
  521MOL0     C71774  -0.664  11.088  -0.514  0.3064 -1.1705  0.3684
  521MOL0     C71775  -0.790  11.129  -0.587  0.3951  0.3017  0.3437
  521MOL0     C71776  -0.778  11.276  -0.629  0.2932  0.8059  0.3275
  521MOL0     N71777  -0.913  11.322  -0.659  0.0312  0.0407 -0.0207
  521MOL0     C71778  -1.019  11.326  -0.574 -0.0426 -1.0059 -0.2938
  521MOL0     C71779  -1.122  11.381  -0.645  0.3633 -0.1537 -0.1705
  521MOL0     C71780  -1.261  11.417  -0.609 -0.4966  0.1642 -0.2472
  521MOL0     C71781  -1.364  11.342  -0.690 -0.3414 -0.0311  0.1578
  521MOL0     C71782  -1.507  11.400  -0.688  0.2869 -0.3783 -0.4837
  521MOL0     C71783  -1.561  11.425  -0.550 -0.5652 -0.6877 -0.0569
  521MOL0     O71784  -1.684  11.487  -0.552  0.7297  0.7648  0.5377
  521MOL0     C71785  -1.784  11.419  -0.622  0.6191  0.1935 -0.9786
  521MOL0     C71786  -1.797  11.275  -0.604 -0.0866  0.1861  0.1685
  521MOL0     C71787  -1.905  11.208  -0.667  0.2884  0.9094  1.5281
  521MOL0     C71788  -1.909  11.051  -0.654 -0.8696 -0.9148 -0.8638
  521MOL0     C71789  -1.996  11.275  -0.753 -0.2029  1.1052 -0.3099
  521MOL0     C71790  -2.100  11.203  -0.825 -0.3304 -1.1389  0.4093
  521MOL0     O71791  -2.239  11.238  -0.814 -0.2293  0.1379  0.0099
  521MOL0     C71792  -2.337  11.173  -0.881  0.0254 -0.7142 -0.3987
  521MOL0     C71793  -2.348  11.032  -0.898  1.2414 -0.0072 -0.1144
  521MOL0     C71794  -2.451  10.969  -0.972 -0.7337 -0.1984  0.5653
  521MOL0     C71795  -2.542  11.049  -1.037 -0.6089  0.2810 -0.0206
  521MOL0     O71796  -2.658  10.994  -1.081 -0.5729 -0.2542 -0.5990
  521MOL0     C71797  -2.686  11.020  -1.220 -0.0447 -0.4277 -0.4163
  521MOL0     C71798  -2.790  10.924  -1.268  0.1580 -0.0212 -0.4896
  521MOL0     C71799  -2.760  10.780  -1.234  0.2557 -0.2780  0.0707
  521MOL0     C71800  -2.874  10.689  -1.297 -1.4669 -0.6031  0.1147
  521MOL0     C71801  -2.845  10.540  -1.254 -0.6291  0.0807 -0.0441
  521MOL0     C71802  -2.954  10.453  -1.321 -0.0241  0.6235  0.4924
  521MOL0     C71803  -3.105  10.491  -1.295 -0.2852  1.4682 -0.2014
  521MOL0     C71804  -3.206  10.368  -1.285  0.2892  0.7260 -0.2239
  521MOL0    Cl71805  -3.212  10.257  -1.439  0.4368  0.1368  0.2435
  521MOL0     C71806  -2.533  11.190  -1.029 -0.5283  0.0354  0.0833
  521MOL0     C71807  -2.430  11.253  -0.955  0.0376  0.4766 -0.2292
  521MOL0     O71808  -2.053  11.117  -0.903  0.4059  0.2088  0.4913
  521MOL0     C71809  -1.983  11.416  -0.756  0.2479 -0.3553  0.0255
  521MOL0     C71810  -1.878  11.486  -0.701  0.2412 -0.6060  0.8128
  521MOL0     N71811  -1.085  11.391  -0.773  0.1122 -0.2744  0.4582
  521MOL0     N71812  -0.958  11.363  -0.782  0.4865  0.8470 -0.3070
  521MOL0     C71813   0.052  10.707  -0.143  0.2331 -0.4454 -0.4148
  521MOL0     C71814   0.121  10.717  -0.025 -0.6597 -1.0085 -0.8425
  521MOL0     C71815   0.257  10.909   0.370  0.2165  0.1950 -0.5839
  521MOL0     C71816   0.323  10.795   0.418  0.0160 -0.1434 -0.2268
  521MOL0     C71817   0.392  10.793   0.538 -0.3076 -0.0988 -0.4202
  521MOL0     C71818   0.398  10.904   0.621  0.0900  0.2581 -0.1802
  521MOL0     O71819   0.463  10.877   0.737  0.5041  0.2349 -0.1103
  521MOL0     C71820   0.471  10.972   0.838  0.8569  0.8843  0.2566
  521MOL0     C71821   0.529  10.904   0.965  0.6750 -0.6244  0.5687
  521MOL0     C71822   0.425  10.813   1.033  0.1685  0.0747 -0.0189
  521MOL0     C71823   0.460  10.793   1.184 -0.4200  0.0959  0.3598
  521MOL0     C71824   0.602  10.748   1.211 -0.7265 -0.8412  1.2035
  521MOL0     C71825   0.718  10.719   1.247 -0.2600 -0.6808 -0.3857
  521MOL0     C71826   0.343  11.020   0.579  0.0734 -0.8597 -0.2370
  521MOL0     C71827   0.276  11.028   0.455  0.0110  0.5644 -0.4236
  521MOL0     C71828   0.209  11.160   0.428  0.7123 -0.4475 -0.3398
  521MOL0     H71829  -0.097  10.879   0.169  2.2621 -0.5543  1.9992
  521MOL0     H71830  -0.235  10.861  -0.047  0.6360  1.3325  0.7161
  521MOL0     H71831  -0.313  10.866  -0.276 -0.2625 -1.0284 -3.2593
  521MOL0     H71832  -0.334  10.714  -0.186 -1.2175 -1.0298 -0.8894
  521MOL0     H71833  -0.287  10.750  -0.490  0.4179 -0.5574 -0.2945
  521MOL0     H71834  -0.331  10.595  -0.421 -0.5144  0.4541 -0.1011
  521MOL0     H71835  -0.527  10.682  -0.523 -0.5943  2.2479 -0.3920
  521MOL0     H71836  -0.552  10.714  -0.347  2.7733  1.2344  0.6724
  521MOL0     H71837  -0.455  10.950  -0.384  1.6217 -2.1110  0.3768
  521MOL0     H71838  -0.453  10.899  -0.554  1.5766 -0.6620  0.6873
  521MOL0     H71839  -0.711  10.902  -0.409 -0.8230  1.6498  0.0015
  521MOL0     H71840  -0.685  10.887  -0.578 -1.0289  1.0935  0.0577
  521MOL0     H71841  -0.662  11.144  -0.420 -1.8379 -0.0147 -0.2061
  521MOL0     H71842  -0.582  11.108  -0.582 -1.2232  1.4852 -0.8445
  521MOL0     H71843  -0.872  11.126  -0.515  0.7739  4.7669  1.2690
  521MOL0     H71844  -0.809  11.058  -0.669  2.2702  0.8174 -0.5843
  521MOL0     H71845  -0.741  11.329  -0.541 -2.4976 -0.5430  2.4892
  521MOL0     H71846  -0.723  11.295  -0.721  1.4762 -0.2789  0.7971
  521MOL0     H71847  -1.005  11.283  -0.475  1.5200 -0.8223 -0.4175
  521MOL0     H71848  -1.287  11.522  -0.624 -3.1968 -0.4154 -0.1385
  521MOL0     H71849  -1.277  11.395  -0.503  0.0149  1.6104  0.1566
  521MOL0     H71850  -1.331  11.325  -0.793  0.6098 -1.6734  0.6863
  521MOL0     H71851  -1.388  11.240  -0.656  1.2344 -0.6308 -0.4337
  521MOL0     H71852  -1.503  11.490  -0.750  2.3351 -0.9850 -1.3454
  521MOL0     H71853  -1.574  11.325  -0.731  0.3499  0.8368 -2.8771
  521MOL0     H71854  -1.565  11.329  -0.497  0.3393 -0.5464  0.2958
  521MOL0     H71855  -1.502  11.497  -0.493  0.6893 -2.7852  1.4233
  521MOL0     H71856  -1.743  11.229  -0.522 -1.5355 -0.2745  0.9038
  521MOL0     H71857  -1.831  10.999  -0.710  1.4628  0.5936  0.8107
  521MOL0     H71858  -2.002  11.009  -0.695 -0.5650 -1.7462 -0.7266
  521MOL0     H71859  -1.918  11.034  -0.546  0.3781  2.6016 -0.0851
  521MOL0     H71860  -2.275  10.970  -0.848  0.7322  0.0479  0.7234
  521MOL0     H71861  -2.445  10.862  -0.987 -1.3480 -0.1518 -0.1108
  521MOL0     H71862  -2.717  11.123  -1.240  1.4896  0.6597  2.2429
  521MOL0     H71863  -2.597  11.008  -1.281  0.2330 -0.9359  0.0772
  521MOL0     H71864  -2.884  10.949  -1.219  0.3005  0.3393 -0.3971
  521MOL0     H71865  -2.812  10.939  -1.374  3.1034  0.8735 -1.0777
  521MOL0     H71866  -2.762  10.780  -1.125 -0.3540 -0.7270  0.0638
  521MOL0     H71867  -2.657  10.748  -1.255 -0.1259 -0.6495 -1.4129
  521MOL0     H71868  -2.878  10.712  -1.404 -0.0868 -2.4839 -0.3769
  521MOL0     H71869  -2.973  10.721  -1.262 -1.2763 -0.0501  0.1609
  521MOL0     H71870  -2.747  10.508  -1.291 -0.2919  2.3886 -1.3328
  521MOL0     H71871  -2.840  10.519  -1.147  0.5206 -0.3829 -0.1777
  521MOL0     H71872  -2.946  10.349  -1.286 -0.6452  1.5977  3.9035
  521MOL0     H71873  -2.931  10.453  -1.428  0.4148 -0.9277  0.5638
  521MOL0     H71874  -3.140  10.548  -1.381 -0.6309  1.3983 -0.1070
  521MOL0     H71875  -3.107  10.547  -1.200 -2.2581 -0.4424  0.9725
  521MOL0     H71876  -3.308  10.402  -1.264 -0.4185 -1.1907 -0.3337
  521MOL0     H71877  -3.182  10.305  -1.198 -0.4817 -1.7253 -1.6995
  521MOL0     H71878  -2.602  11.263  -1.070  0.0970 -0.0060 -1.0855
  521MOL0     H71879  -2.421  11.361  -0.946 -0.8651  0.5527 -0.1647
  521MOL0     H71880  -2.064  11.464  -0.811  0.6137 -0.7968 -0.9265
  521MOL0     H71881  -1.870  11.593  -0.711  2.3942 -0.7537  0.4379
  521MOL0     H71882   0.099  10.659  -0.228  1.7166 -0.1347  0.2098
  521MOL0     H71883   0.224  10.683  -0.023 -0.4646 -0.4087  1.0787
  521MOL0     H71884   0.319  10.702   0.362  0.6190 -0.1162 -0.3188
  521MOL0     H71885   0.423  10.698   0.580 -3.0701 -0.9140 -0.0294
  521MOL0     H71886   0.545  11.048   0.809  0.1888  1.6409  0.4828
  521MOL0     H71887   0.370  11.014   0.845  0.1917 -0.3180 -1.4684
  521MOL0     H71888   0.554  10.984   1.036  0.4207 -2.2651  2.6046
  521MOL0     H71889   0.618  10.851   0.933  2.9907  3.2934 -0.1172
  521MOL0     H71890   0.321  10.845   1.020 -1.1661 -2.8290  2.3879
  521MOL0     H71891   0.429  10.714   0.986 -0.3041 -0.3066  0.7307
  521MOL0     H71892   0.392  10.719   1.226 -0.9183 -0.2034 -0.9357
  521MOL0     H71893   0.432  10.890   1.226 -3.7272 -0.2787 -0.7155
  521MOL0     H71894   0.801  10.693   1.308 -1.7116  0.3126  2.1818
  521MOL0     H71895   0.359  11.109   0.638  1.3841 -0.6725 -0.8418
  521MOL0     H71896   0.108  11.146   0.389 -1.0468  2.2522  2.7829
  521MOL0     H71897   0.204  11.215   0.522  1.3532 -1.1330  0.1097
  521MOL0     H71898   0.266  11.220   0.356  2.1853  1.5375  2.3368
  522MOL0     O71899   5.149   3.946   4.422  0.4505  0.5682  0.0349
  522MOL0     C71900   5.154   4.073   4.414 -0.0729 -0.6429  0.3652
  522MOL0     O71901   5.266   4.150   4.388 -0.0174  0.5049 -0.2508
  522MOL0     C71902   5.388   4.116   4.432  0.0696 -0.7766  0.3388
  522MOL0     C71903   5.423   4.137   4.566 -0.0448  0.1745 -0.1533
  522MOL0     C71904   5.548   4.093   4.614 -0.1329 -0.2487  0.1156
  522MOL0     C71905   5.644   4.039   4.535  0.0048 -0.1821 -0.1763
  522MOL0     O71906   5.762   3.992   4.584 -0.6554  0.3017  0.6092
  522MOL0     C71907   5.804   4.012   4.725 -0.1342 -0.8322  0.0073
  522MOL0     C71908   5.933   3.943   4.745 -0.3365 -0.3486 -0.1864
  522MOL0     C71909   6.050   4.039   4.706  0.2434 -0.8933  0.9582
  522MOL0     C71910   6.186   3.975   4.744 -0.2592  0.5553 -0.5141
  522MOL0     C71911   6.314   4.060   4.715  0.0577 -0.7878  0.2457
  522MOL0     C71912   6.439   3.979   4.680 -0.1257  0.3271  0.6411
  522MOL0     C71913   6.553   4.063   4.631 -0.2867 -0.3206  0.0030
  522MOL0     C71914   6.583   4.195   4.719  0.0654  0.8529  0.1094
  522MOL0     N71915   6.642   4.177   4.851 -0.2109  0.1038  0.8093
  522MOL0     C71916   6.758   4.119   4.886  0.0494 -0.4610 -0.1087
  522MOL0     C71917   6.758   4.110   5.017 -0.2396  0.5202  0.3432
  522MOL0     C71918   6.867   4.040   5.096  0.1833  0.3731  0.5242
  522MOL0     C71919   6.980   4.140   5.121 -0.3335 -0.7737 -0.0085
  522MOL0     C71920   7.068   4.095   5.234  0.5965  0.4805 -0.1146
  522MOL0     C71921   7.102   3.947   5.230  0.1347 -0.0252 -0.2366
  522MOL0     O71922   7.172   3.915   5.351  0.5765  0.5691 -0.2052
  522MOL0     C71923   7.303   3.952   5.363  1.8429  0.6585 -0.1136
  522MOL0     C71924   7.356   3.927   5.489 -0.5626 -0.8860 -0.4341
  522MOL0     C71925   7.490   3.972   5.525  0.4645  0.4963 -1.2483
  522MOL0     C71926   7.525   3.941   5.666 -0.6323  1.4785  0.3405
  522MOL0     C71927   7.575   4.031   5.430  0.2802 -0.1844 -0.1733
  522MOL0     C71928   7.704   4.074   5.464 -0.0236 -0.0278  1.2785
  522MOL0     O71929   7.790   4.094   5.354 -0.2995  1.2139  0.9648
  522MOL0     C71930   7.917   4.134   5.382  0.9457 -0.2900  0.3811
  522MOL0     C71931   7.943   4.270   5.418  0.3171 -0.2099  0.1236
  522MOL0     C71932   8.074   4.312   5.443 -0.5957  0.0034  1.1204
  522MOL0     C71933   8.180   4.216   5.440 -0.0267 -0.7030  0.5816
  522MOL0     O71934   8.306   4.265   5.456  0.4748  0.0884  0.4237
  522MOL0     C71935   8.427   4.195   5.433 -0.2651  0.9753  0.0550
  522MOL0     C71936   8.540   4.273   5.499  0.2620 -0.7214  0.1390
  522MOL0     C71937   8.527   4.272   5.645  0.3676 -0.2813  0.2595
  522MOL0     C71938   8.637   4.335   5.727 -0.0863 -0.7967 -0.4954
  522MOL0     C71939   8.764   4.250   5.752  0.3574  1.0624 -0.3925
  522MOL0     C71940   8.876   4.335   5.775  0.7292  0.0729 -0.3995
  522MOL0     C71941   8.996   4.256   5.814 -0.4818 -0.1032  0.4737
  522MOL0     C71942   8.979   4.214   5.950 -0.2632 -0.0645 -0.2303
  522MOL0    Cl71943   9.136   4.161   6.017  0.2546 -0.1254 -0.1169
  522MOL0     C71944   8.152   4.084   5.413  0.1548  0.9227  0.3885
  522MOL0     C71945   8.022   4.043   5.376  0.8893  0.1318 -0.6742
  522MOL0     O71946   7.738   4.093   5.579 -0.6242 -0.0106 -0.3623
  522MOL0     C71947   7.518   4.048   5.301 -0.6017  0.4265  0.0222
  522MOL0     C71948   7.384   4.012   5.268 -0.1214 -0.1056  0.0128
  522MOL0     N71949   6.641   4.162   5.066  0.5501  0.1505 -0.3625
  522MOL0     N71950   6.573   4.209   4.967 -0.1207 -0.0095  0.3460
  522MOL0     C71951   5.603   4.001   4.410  0.2506  0.1048 -0.1020
  522MOL0     C71952   5.479   4.042   4.358  0.6177  1.1842 -0.3084
  522MOL0     C71953   5.025   4.143   4.411  0.3794 -0.3394  0.8135
  522MOL0     C71954   5.035   4.281   4.431  0.6237 -0.9393 -0.2475
  522MOL0     C71955   4.922   4.359   4.460  0.2209  0.1378 -1.1690
  522MOL0     C71956   4.794   4.296   4.482 -0.2356 -0.1545  0.2639
  522MOL0     O71957   4.680   4.355   4.527  0.0791 -0.3747  0.3577
  522MOL0     C71958   4.698   4.497   4.573 -0.4039 -0.2085 -0.1698
  522MOL0     C71959   4.568   4.565   4.601 -0.0245 -0.2920  0.1458
  522MOL0     C71960   4.581   4.723   4.592  0.6056  0.4475  1.0291
  522MOL0     C71961   4.609   4.782   4.457 -0.6918 -0.1557 -0.1132
  522MOL0     C71962   4.577   4.921   4.453 -0.5351 -0.6429  0.3736
  522MOL0     C71963   4.551   5.034   4.462  0.1133  0.2663 -0.5326
  522MOL0     C71964   4.784   4.166   4.440  0.1324  0.1694  0.6674
  522MOL0     C71965   4.891   4.084   4.409  1.0813 -0.2872  0.6907
  522MOL0     C71966   4.863   3.952   4.352 -1.4145  0.8588 -0.2959
  522MOL0     H71967   5.366   4.199   4.634  0.5329  0.7681 -0.1955
  522MOL0     H71968   5.579   4.122   4.714  2.9605 -1.5266 -0.3694
  522MOL0     H71969   5.732   3.965   4.793  0.5613 -1.6849  0.1603
  522MOL0     H71970   5.814   4.120   4.742  1.4704 -0.5336 -2.4020
  522MOL0     H71971   5.941   3.915   4.850  3.5746  0.6827 -0.0563
  522MOL0     H71972   5.928   3.849   4.689 -1.3586  1.9096 -4.3756
  522MOL0     H71973   6.043   4.051   4.598 -0.0911 -2.0993  0.8261
  522MOL0     H71974   6.039   4.136   4.755 -0.6528 -1.8312  2.7438
  522MOL0     H71975   6.187   3.960   4.852  1.4516 -0.8785 -0.6755
  522MOL0     H71976   6.202   3.883   4.687  0.3859  0.6259 -0.4506
  522MOL0     H71977   6.329   4.119   4.806 -1.1641 -0.9249  0.5521
  522MOL0     H71978   6.303   4.123   4.627  2.8383 -0.8180 -0.2407
  522MOL0     H71979   6.482   3.930   4.768 -2.2370 -2.0188  0.5060
  522MOL0     H71980   6.414   3.899   4.609 -1.6052  2.0569 -0.8981
  522MOL0     H71981   6.533   4.095   4.528 -1.6907 -0.8432  0.0939
  522MOL0     H71982   6.637   3.993   4.632  0.6555  0.7673  0.9113
  522MOL0     H71983   6.658   4.251   4.662  1.8168  1.2128  2.5700
  522MOL0     H71984   6.492   4.256   4.724 -0.2753  0.3555  0.0185
  522MOL0     H71985   6.834   4.082   4.818 -1.7107 -3.3252 -0.7070
  522MOL0     H71986   6.906   3.957   5.036 -0.4478  1.0870 -0.9145
  522MOL0     H71987   6.823   4.008   5.191  1.4436 -0.2836  0.9097
  522MOL0     H71988   7.035   4.141   5.027 -1.6284 -0.0731 -0.7849
  522MOL0     H71989   6.944   4.242   5.136 -0.8905 -0.8867 -0.5583
  522MOL0     H71990   7.157   4.158   5.238 -0.0554  1.3318  1.9803
  522MOL0     H71991   7.019   4.126   5.326 -1.4246 -1.8477 -0.3054
  522MOL0     H71992   7.015   3.881   5.228 -1.4079  1.8375  0.8329
  522MOL0     H71993   7.168   3.928   5.146  1.7979  1.2389  0.7157
  522MOL0     H71994   7.293   3.878   5.562 -1.3468  0.4033 -0.1993
  522MOL0     H71995   7.616   3.880   5.664 -1.8117 -0.3512 -0.5679
  522MOL0     H71996   7.450   3.878   5.716  0.4190  0.9781  1.3457
  522MOL0     H71997   7.545   4.027   5.730 -2.2974  1.4098  1.0038
  522MOL0     H71998   7.861   4.339   5.434 -0.5185 -1.0849 -0.2480
  522MOL0     H71999   8.097   4.415   5.466  2.7641 -1.2969  4.7177
  522MOL0     H72000   8.430   4.100   5.488 -1.3547  0.4857 -0.7032
  522MOL0     H72001   8.440   4.165   5.329 -1.5633 -4.2472  1.1123
  522MOL0     H72002   8.637   4.231   5.472  0.8262 -3.7683  5.4356
  522MOL0     H72003   8.536   4.372   5.453 -1.0330 -1.1255 -0.6427
  522MOL0     H72004   8.505   4.172   5.684  0.3458 -0.4176 -0.0979
  522MOL0     H72005   8.433   4.327   5.655  0.7872  0.4362  0.3100
  522MOL0     H72006   8.601   4.348   5.829 -0.4149  0.8376 -0.7794
  522MOL0     H72007   8.671   4.428   5.679 -0.1623 -1.0305 -1.0020
  522MOL0     H72008   8.756   4.181   5.836  2.8428  2.8738  1.5051
  522MOL0     H72009   8.785   4.191   5.662  0.4948  2.0218 -1.0060
  522MOL0     H72010   8.854   4.406   5.856  1.3260  0.2320 -0.3762
  522MOL0     H72011   8.898   4.383   5.679  0.3401  0.3438 -0.3566
  522MOL0     H72012   9.085   4.319   5.806 -1.6103  1.3879 -1.2149
  522MOL0     H72013   9.005   4.170   5.746 -0.1838 -1.5059  2.2272
  522MOL0     H72014   8.896   4.145   5.970 -0.9282  0.8719  0.3095
  522MOL0     H72015   8.959   4.304   6.008  1.6142  0.9147 -0.9936
  522MOL0     H72016   8.225   4.003   5.414  0.0852  0.8558  1.0988
  522MOL0     H72017   8.002   3.938   5.358 -0.0714 -0.0823  1.3024
  522MOL0     H72018   7.583   4.088   5.223  0.4409 -1.9019 -0.3644
  522MOL0     H72019   7.351   4.021   5.165 -0.5420 -0.2589  0.1344
  522MOL0     H72020   5.673   3.948   4.346 -0.9104 -1.5341 -0.0626
  522MOL0     H72021   5.455   4.021   4.254  0.1908  2.0630 -0.3960
  522MOL0     H72022   5.130   4.335   4.428  0.0705  0.3598  2.5384
  522MOL0     H72023   4.926   4.467   4.463 -1.4071  0.2617  2.8965
  522MOL0     H72024   4.772   4.492   4.654  0.1467 -0.7036 -0.6904
  522MOL0     H72025   4.740   4.556   4.490 -0.0778 -2.9663 -2.0801
  522MOL0     H72026   4.542   4.540   4.705 -2.1440  1.3109  0.0594
  522MOL0     H72027   4.489   4.522   4.540  0.8945 -2.2088  0.2134
  522MOL0     H72028   4.499   4.778   4.639 -0.9187  0.3608 -1.3226
  522MOL0     H72029   4.664   4.738   4.662  0.9388 -1.3470  1.0472
  522MOL0     H72030   4.540   4.734   4.387  0.5954 -1.4178 -0.5796
  522MOL0     H72031   4.713   4.765   4.425 -1.7137 -0.1611 -3.9562
  522MOL0     H72032   4.553   5.141   4.466 -1.5583  0.4918  6.4674
  522MOL0     H72033   4.687   4.118   4.453  0.4324 -0.2645  1.3374
  522MOL0     H72034   4.874   3.865   4.418 -2.3152  1.2667  0.4179
  522MOL0     H72035   4.760   3.946   4.314  0.1017 -1.5972 -4.7738
  522MOL0     H72036   4.916   3.935   4.258 -2.3932 -1.7892 -0.4792
  523MOL0     O72037   6.287   0.792   9.756 -0.3106  0.2006 -0.3699
  523MOL0     C72038   6.175   0.753   9.720  1.2786  0.5336 -0.0820
  523MOL0     O72039   6.149   0.620   9.689  0.0658 -0.8057  0.3997
  523MOL0     C72040   6.248   0.525   9.707  0.6602  0.6915 -0.9001
  523MOL0     C72041   6.206   0.402   9.772 -0.0249 -1.1204  0.1579
  523MOL0     C72042   6.304   0.299   9.787  0.4613 -0.1964  0.8361
  523MOL0     C72043   6.441   0.315   9.757  0.0355 -0.0149 -0.4486
  523MOL0     O72044   6.548   0.229   9.783 -0.8946 -0.5171 -1.9255
  523MOL0     C72045   6.519   0.090   9.799  0.1833 -0.3937 -0.4896
  523MOL0     C72046   6.644   0.010   9.794  0.2638  0.2791  0.2281
  523MOL0     C72047   6.608  -0.136   9.800 -0.2239 -0.4843  0.0373
  523MOL0     C72048   6.710  -0.234   9.867 -0.7860 -0.5380  0.2347
  523MOL0     C72049   6.667  -0.377   9.867 -1.0093  0.1562 -0.3679
  523MOL0     C72050   6.680  -0.461   9.739  0.5165 -0.0629  0.0528
  523MOL0     C72051   6.813  -0.529   9.723 -0.1241 -0.4768  0.0388
  523MOL0     C72052   6.821  -0.611   9.602 -0.3173  0.0900 -0.2210
  523MOL0     N72053   6.951  -0.674   9.577 -0.6778 -0.3708  1.8289
  523MOL0     C72054   7.025  -0.765   9.650 -0.1263  0.1305  0.1551
  523MOL0     C72055   7.118  -0.804   9.559 -0.8633 -0.2292  0.7309
  523MOL0     C72056   7.228  -0.920   9.582  0.9736  0.5503 -0.0614
  523MOL0     C72057   7.327  -0.919   9.467 -0.0851 -0.6130 -0.7979
  523MOL0     C72058   7.448  -0.831   9.495  0.3263 -0.2711  0.0093
  523MOL0     C72059   7.561  -0.872   9.407 -0.0799  0.8590  1.0444
  523MOL0     O72060   7.678  -0.797   9.440 -0.4368 -0.2491  0.2170
  523MOL0     C72061   7.788  -0.831   9.359  0.2114  0.4805  0.6290
  523MOL0     C72062   7.801  -0.938   9.267 -0.3051  0.5356  0.4130
  523MOL0     C72063   7.919  -0.957   9.200  1.0318  0.6960 -0.4673
  523MOL0     C72064   7.931  -1.085   9.114 -0.3108  0.3437  1.1012
  523MOL0     C72065   8.033  -0.869   9.215 -0.1763  0.1754 -0.0639
  523MOL0     C72066   8.174  -0.892   9.169 -0.8860 -0.4045 -0.0022
  523MOL0     O72067   8.279  -0.828   9.232  0.1643  0.4340  0.3766
  523MOL0     C72068   8.408  -0.820   9.178  0.5462 -0.3131 -0.3626
  523MOL0     C72069   8.509  -0.817   9.271 -0.3321  0.4879 -0.6221
  523MOL0     C72070   8.645  -0.803   9.243 -0.9241 -0.2063  0.1633
  523MOL0     C72071   8.684  -0.808   9.110 -0.8554  0.2700 -0.6060
  523MOL0     O72072   8.820  -0.791   9.085 -0.1575 -0.0468 -0.3684
  523MOL0     C72073   8.860  -0.841   8.960 -0.1029 -0.2221  0.2771
  523MOL0     C72074   9.014  -0.866   8.956  0.0146  0.2303  0.6556
  523MOL0     C72075   9.088  -0.729   8.949 -0.1262 -0.4376  0.1929
  523MOL0     C72076   9.233  -0.734   8.990  0.1683  0.0214  0.2329
  523MOL0     C72077   9.306  -0.606   8.945  0.0006 -0.1318 -0.5425
  523MOL0     C72078   9.452  -0.603   8.987 -0.6627 -0.2173  0.5875
  523MOL0     C72079   9.526  -0.481   8.937  0.5277 -0.4255 -0.6810
  523MOL0     C72080   9.658  -0.462   9.026 -1.0025  1.2103 -0.0500
  523MOL0    Cl72081   9.758  -0.348   8.931  0.0615 -0.6170 -0.0058
  523MOL0     C72082   8.582  -0.811   9.016 -0.5745 -0.5764  1.1769
  523MOL0     C72083   8.444  -0.827   9.050  0.4888 -0.0728  0.2848
  523MOL0     O72084   8.184  -0.959   9.073  0.4911  0.3301  0.2032
  523MOL0     C72085   8.025  -0.769   9.310  0.1705 -0.6644 -0.7954
  523MOL0     C72086   7.901  -0.753   9.381 -0.5687  0.0528  0.5268
  523MOL0     N72087   7.120  -0.729   9.440  0.2400 -0.8769  0.0849
  523MOL0     N72088   7.008  -0.663   9.451 -0.0273 -0.5418 -0.5026
  523MOL0     C72089   6.483   0.431   9.695 -0.1438 -0.0321  0.0062
  523MOL0     C72090   6.386   0.533   9.664  0.5677  0.8828 -0.2495
  523MOL0     C72091   6.063   0.852   9.715  0.1668 -0.0002 -0.4940
  523MOL0     C72092   5.932   0.804   9.713  0.2405 -0.1541  0.0390
  523MOL0     C72093   5.823   0.893   9.717 -0.4024  0.7877 -0.1110
  523MOL0     C72094   5.836   1.027   9.709  0.4513 -0.4934  0.4220
  523MOL0     O72095   5.733   1.113   9.690 -0.0786 -0.6553 -0.2695
  523MOL0     C72096   5.596   1.070   9.697 -0.6436 -0.4884  0.9053
  523MOL0     C72097   5.502   1.191   9.666  0.1234  0.0742 -0.4412
  523MOL0     C72098   5.545   1.319   9.739  0.0893 -0.1071  0.1682
  523MOL0     C72099   5.648   1.414   9.667  0.0058 -1.1399  0.3894
  523MOL0     C72100   5.600   1.473   9.545  0.0164 -0.0947 -0.2424
  523MOL0     C72101   5.564   1.524   9.441 -0.1468 -0.6489  0.4967
  523MOL0     C72102   5.964   1.079   9.703 -0.4081 -0.3936 -0.2107
  523MOL0     C72103   6.080   1.003   9.723  0.6450  0.8806  0.0282
  523MOL0     C72104   6.213   1.071   9.736  0.8612  0.6970  0.5166
  523MOL0     H72105   6.108   0.406   9.818  0.6427  0.2573  1.5581
  523MOL0     H72106   6.257   0.208   9.821 -3.1189 -0.7302 -4.4102
  523MOL0     H72107   6.456   0.067   9.712  1.3113  1.1483 -1.7952
  523MOL0     H72108   6.468   0.060   9.890  1.1926  0.2476  0.3057
  523MOL0     H72109   6.696   0.022   9.698  2.9735  0.1804  1.5723
  523MOL0     H72110   6.717   0.042   9.869 -0.4949 -0.2922  1.2300
  523MOL0     H72111   6.517  -0.142   9.862 -0.6022  0.8192 -0.3493
  523MOL0     H72112   6.589  -0.157   9.695 -0.0785 -0.0146 -0.0831
  523MOL0     H72113   6.807  -0.242   9.818 -0.7004 -1.4139  0.5265
  523MOL0     H72114   6.720  -0.209   9.973  0.2236  0.4122 -0.0677
  523MOL0     H72115   6.561  -0.380   9.895 -1.4665 -6.4333 -1.2656
  523MOL0     H72116   6.733  -0.427   9.938 -3.0751 -0.3356  1.3313
  523MOL0     H72117   6.595  -0.530   9.734 -0.3184  1.0524 -2.0769
  523MOL0     H72118   6.671  -0.390   9.657 -4.1159 -0.6246 -0.1654
  523MOL0     H72119   6.832  -0.592   9.811 -1.0650 -0.5328  0.2117
  523MOL0     H72120   6.893  -0.454   9.718  0.7930 -1.5053 -3.2240
  523MOL0     H72121   6.746  -0.686   9.626 -0.0072  0.6168  2.6763
  523MOL0     H72122   6.800  -0.557   9.509  0.3995 -3.4495 -2.6199
  523MOL0     H72123   7.003  -0.804   9.749 -0.8985 -1.1474 -0.4952
  523MOL0     H72124   7.182  -1.019   9.582  0.4486  0.7853  0.4554
  523MOL0     H72125   7.277  -0.918   9.680  1.9960 -0.9214 -0.5008
  523MOL0     H72126   7.364  -1.021   9.453  1.3727 -0.1202 -0.7224
  523MOL0     H72127   7.284  -0.885   9.373 -0.1170  1.8974  0.0680
  523MOL0     H72128   7.422  -0.726   9.485  2.0053  0.3229  1.3083
  523MOL0     H72129   7.487  -0.838   9.598 -1.4579  2.6294  1.0144
  523MOL0     H72130   7.579  -0.980   9.412  0.5023  0.8014 -1.0905
  523MOL0     H72131   7.528  -0.869   9.302 -2.7275 -2.0233  1.6292
  523MOL0     H72132   7.720  -1.007   9.249 -0.2186  0.2382  1.1143
  523MOL0     H72133   8.007  -1.155   9.149 -2.1101 -1.5753  1.3938
  523MOL0     H72134   7.953  -1.057   9.011 -1.6990 -0.5799  0.5201
  523MOL0     H72135   7.842  -1.148   9.108  0.6050 -0.8512 -0.9262
  523MOL0     H72136   8.491  -0.831   9.378 -2.5745 -1.5742 -1.1832
  523MOL0     H72137   8.719  -0.803   9.323  0.9318  0.7960 -1.4795
  523MOL0     H72138   8.811  -0.937   8.942  0.7705 -0.4349 -1.2047
  523MOL0     H72139   8.835  -0.772   8.879 -2.8300 -1.7877 -0.3380
  523MOL0     H72140   9.040  -0.922   9.046 -0.2515  0.9823  1.2078
  523MOL0     H72141   9.049  -0.925   8.870  1.0843 -0.0808  1.2895
  523MOL0     H72142   9.039  -0.646   9.001 -2.7684 -0.8907 -1.3626
  523MOL0     H72143   9.093  -0.717   8.840  2.1956 -2.6085 -0.0487
  523MOL0     H72144   9.278  -0.815   8.933 -0.9692  0.5567 -1.5437
  523MOL0     H72145   9.241  -0.754   9.097  1.3052 -1.3412 -0.0935
  523MOL0     H72146   9.299  -0.583   8.838 -1.1901 -1.4600 -0.7777
  523MOL0     H72147   9.259  -0.521   8.996 -1.4768  0.6917 -3.0582
  523MOL0     H72148   9.508  -0.691   8.955  0.6872 -0.8946  4.3433
  523MOL0     H72149   9.442  -0.606   9.096 -1.1471 -0.1948  0.5485
  523MOL0     H72150   9.461  -0.393   8.943  0.8185 -0.2873  3.5477
  523MOL0     H72151   9.552  -0.507   8.834 -1.0818 -1.7098 -0.8128
  523MOL0     H72152   9.716  -0.554   9.036 -2.5008  0.3591  1.2492
  523MOL0     H72153   9.624  -0.423   9.123 -1.9187  3.8412 -1.3477
  523MOL0     H72154   8.607  -0.809   8.910 -1.3168 -0.8082  0.9920
  523MOL0     H72155   8.367  -0.835   8.973  0.1760  0.7177  0.5083
  523MOL0     H72156   8.105  -0.701   9.338  0.0666 -1.0755  0.5720
  523MOL0     H72157   7.888  -0.665   9.442  3.9843 -0.2232  2.2533
  523MOL0     H72158   6.588   0.431   9.665 -0.5897 -0.7790 -1.6080
  523MOL0     H72159   6.418   0.619   9.606  4.7163  0.1296  0.5837
  523MOL0     H72160   5.916   0.697   9.721  0.9409 -0.2339  0.4693
  523MOL0     H72161   5.720   0.862   9.734  0.5285 -1.6590  1.7028
  523MOL0     H72162   5.570   0.985   9.632 -1.8919 -0.1874  0.9845
  523MOL0     H72163   5.578   1.035   9.799 -1.6286 -2.4191  0.1294
  523MOL0     H72164   5.400   1.163   9.696 -0.9185 -1.9564 -5.0385
  523MOL0     H72165   5.502   1.216   9.560  3.3457  0.2579 -0.4902
  523MOL0     H72166   5.452   1.373   9.763 -0.7861 -1.4754 -0.0341
  523MOL0     H72167   5.596   1.300   9.834  0.0042 -1.7129 -0.0927
  523MOL0     H72168   5.729   1.346   9.638 -0.5097 -0.8379 -1.9973
  523MOL0     H72169   5.693   1.496   9.723  1.7477 -2.3035  0.7782
  523MOL0     H72170   5.525   1.550   9.345  1.0836 -0.2939  0.0627
  523MOL0     H72171   5.967   1.188   9.709 -2.1567 -0.3735  0.9140
  523MOL0     H72172   6.268   1.044   9.645  0.9750  1.5800  0.3182
  523MOL0     H72173   6.200   1.179   9.747  0.7312  0.6815  0.5075
  523MOL0     H72174   6.259   1.041   9.831 -2.1490  3.3488  3.0572
  524MOL0     O72175   2.454  11.199   7.970 -0.4770 -0.1240 -0.8212
  524MOL0     C72176   2.470  11.269   8.070 -0.1500 -0.1220 -0.9635
  524MOL0     O72177   2.590  11.298   8.135  0.2727 -0.1350  0.9570
  524MOL0     C72178   2.714  11.272   8.069  0.4233 -0.1815 -0.0950
  524MOL0     C72179   2.750  11.313   7.941  0.2932  0.1957 -0.0121
  524MOL0     C72180   2.870  11.278   7.891  0.1801 -0.1562 -0.1270
  524MOL0     C72181   2.961  11.199   7.965 -0.4685 -0.0906 -0.7629
  524MOL0     O72182   3.086  11.153   7.934 -0.0219  0.1354 -0.3111
  524MOL0     C72183   3.114  11.144   7.794  0.3349 -0.0505 -1.3620
  524MOL0     C72184   3.232  11.060   7.768  0.9433  0.2485  0.5784
  524MOL0     C72185   3.366  11.116   7.808 -0.5974  0.4391  0.1108
  524MOL0     C72186   3.473  11.019   7.773  0.0109 -0.2677  0.2739
  524MOL0     C72187   3.604  11.058   7.837  0.0068  0.1645 -0.4977
  524MOL0     C72188   3.682  10.933   7.894 -0.1456 -0.2952  0.1407
  524MOL0     C72189   3.709  10.818   7.787  0.2235  0.6273 -0.0470
  524MOL0     C72190   3.765  10.870   7.656 -0.2842 -0.2682  0.5406
  524MOL0     N72191   3.906  10.901   7.654 -1.0403  0.6275  0.1296
  524MOL0     C72192   4.015  10.811   7.656  0.3746  0.6732  0.6057
  524MOL0     C72193   4.126  10.893   7.637 -0.4603 -0.6462 -0.7305
  524MOL0     C72194   4.262  10.862   7.592 -0.1419  0.3878  0.5072
  524MOL0     C72195   4.347  10.836   7.710 -0.3777 -0.4780 -0.0521
  524MOL0     C72196   4.355  10.958   7.804  0.2257  0.5803  1.0635
  524MOL0     C72197   4.458  10.946   7.915  0.6719 -0.4216  0.6903
  524MOL0     O72198   4.438  10.823   7.985 -0.2959  0.1857 -0.3325
  524MOL0     C72199   4.520  10.805   8.091  0.5129 -0.2351  0.6679
  524MOL0     C72200   4.544  10.677   8.134 -0.2900 -0.1386 -0.0073
  524MOL0     C72201   4.631  10.646   8.241 -0.3603 -0.7196  0.3100
  524MOL0     C72202   4.635  10.494   8.282 -0.1414  0.3490 -0.3488
  524MOL0     C72203   4.691  10.742   8.312 -0.6683  0.2097  0.2218
  524MOL0     C72204   4.781  10.721   8.434  0.3638  0.4686  0.3219
  524MOL0     O72205   4.866  10.811   8.467 -0.1845 -0.3620 -0.2744
  524MOL0     C72206   4.944  10.791   8.573 -0.3147 -0.0926 -0.0010
  524MOL0     C72207   4.934  10.855   8.700  0.8659  0.5508  0.5399
  524MOL0     C72208   5.013  10.816   8.802  0.0773 -0.2463 -0.4734
  524MOL0     C72209   5.101  10.707   8.790  0.8561 -0.1941  0.5229
  524MOL0     O72210   5.150  10.656   8.906  0.1426 -0.2614  0.5542
  524MOL0     C72211   5.267  10.575   8.903  0.3803 -0.2826  0.5440
  524MOL0     C72212   5.401  10.650   8.900  0.1437  0.3026 -1.2694
  524MOL0     C72213   5.529  10.577   8.944 -0.0129  0.4468  0.1696
  524MOL0     C72214   5.589  10.487   8.833  0.3381  0.0600  0.1793
  524MOL0     C72215   5.728  10.437   8.857  0.1219  0.0609 -0.2890
  524MOL0     C72216   5.728  10.309   8.935 -0.7136 -0.0520  0.2131
  524MOL0     C72217   5.857  10.293   9.009  0.1545 -0.0480 -0.0361
  524MOL0     C72218   5.856  10.167   9.095  0.5407  0.3270 -0.0231
  524MOL0    Cl72219   6.030  10.128   9.134  0.1347 -0.2779 -0.1289
  524MOL0     C72220   5.120  10.654   8.663 -0.6422  0.1677  0.1526
  524MOL0     C72221   5.040  10.688   8.561  0.1660 -0.7499 -0.1723
  524MOL0     O72222   4.767  10.621   8.499 -0.1044 -0.3250  0.0987
  524MOL0     C72223   4.668  10.873   8.264 -0.0099 -0.3981  0.5493
  524MOL0     C72224   4.589  10.902   8.157  0.7776 -0.1960 -0.4807
  524MOL0     N72225   4.083  11.024   7.639 -0.0030  0.0024  0.1273
  524MOL0     N72226   3.959  11.029   7.660  0.0709 -0.3051  0.0968
  524MOL0     C72227   2.928  11.149   8.095 -0.8965 -0.1737  0.4961
  524MOL0     C72228   2.805  11.194   8.149 -0.7068 -0.1770 -0.2658
  524MOL0     C72229   2.346  11.321   8.124 -0.1710  0.0997 -0.0461
  524MOL0     C72230   2.248  11.230   8.167  0.3568  0.3420 -0.9783
  524MOL0     C72231   2.128  11.285   8.217  0.0047  0.4672 -0.1368
  524MOL0     C72232   2.099  11.420   8.218 -0.1129 -0.2065 -0.2365
  524MOL0     O72233   1.988  11.491   8.261  0.0609  0.3056  0.1632
  524MOL0     C72234   1.876  11.413   8.309  0.2406 -0.1732  0.5763
  524MOL0     C72235   1.883  11.377   8.447 -0.0775  0.2863 -0.1927
  524MOL0     C72236   1.903  11.494   8.541  0.2535 -0.4914 -0.2497
  524MOL0     C72237   1.765  11.563   8.572  0.6481 -0.1987  0.1233
  524MOL0     C72238   1.678  11.476   8.659 -0.5165 -0.3046  0.2742
  524MOL0     C72239   1.598  11.433   8.738  0.5721 -1.2147  0.2260
  524MOL0     C72240   2.198  11.502   8.159  0.0265  0.6561  0.4187
  524MOL0     C72241   2.325  11.459   8.122  0.5016  0.2832 -0.5416
  524MOL0     C72242   2.419  11.574   8.082 -0.0055  0.5125  0.2382
  524MOL0     H72243   2.690  11.368   7.869 -0.2782  1.1966  1.1830
  524MOL0     H72244   2.887  11.300   7.786  0.0209 -0.2247 -0.1667
  524MOL0     H72245   3.133  11.245   7.756 -0.4685  1.3122  1.5915
  524MOL0     H72246   3.023  11.109   7.744 -0.3689  0.8808 -0.7706
  524MOL0     H72247   3.214  10.956   7.798 -3.0284 -0.6932 -3.8406
  524MOL0     H72248   3.229  11.047   7.660 -0.6127 -1.0026  0.7323
  524MOL0     H72249   3.385  11.213   7.762  3.0211 -0.0927  0.1523
  524MOL0     H72250   3.373  11.124   7.917 -0.7506 -0.9510  0.2325
  524MOL0     H72251   3.444  10.920   7.811 -0.7563 -0.3224 -0.4233
  524MOL0     H72252   3.491  11.019   7.665  1.9070 -0.7299  0.5553
  524MOL0     H72253   3.579  11.116   7.927 -1.8141 -2.4016  0.8041
  524MOL0     H72254   3.666  11.116   7.769  0.2576  0.4044 -0.0701
  524MOL0     H72255   3.779  10.967   7.931  0.1811  0.0722 -1.0170
  524MOL0     H72256   3.632  10.890   7.982  1.7071 -1.4165  0.7053
  524MOL0     H72257   3.626  10.750   7.766  0.3496  0.9484 -1.7952
  524MOL0     H72258   3.776  10.747   7.837 -0.9338 -0.1967  0.3666
  524MOL0     H72259   3.753  10.795   7.577 -0.9817 -0.0866  0.4740
  524MOL0     H72260   3.707  10.957   7.624 -0.0273 -0.9344 -1.9308
  524MOL0     H72261   4.002  10.705   7.638  1.6220  0.4977  0.6716
  524MOL0     H72262   4.298  10.950   7.537  2.1399 -1.4149 -1.0586
  524MOL0     H72263   4.261  10.779   7.520 -2.9839  0.3094  0.5150
  524MOL0     H72264   4.316  10.749   7.769 -0.3729 -1.6591 -1.7286
  524MOL0     H72265   4.449  10.816   7.675  0.4511  1.6539  0.9330
  524MOL0     H72266   4.387  11.033   7.731 -3.0353  0.2789 -0.8961
  524MOL0     H72267   4.258  10.992   7.842  0.1580  3.9199 -1.5813
  524MOL0     H72268   4.563  10.954   7.886  0.3926  0.1106 -0.1869
  524MOL0     H72269   4.443  11.033   7.980 -1.4521 -1.2653  1.4112
  524MOL0     H72270   4.491  10.596   8.085  0.0592 -1.4226  1.6461
  524MOL0     H72271   4.552  10.475   8.350  1.1225  0.6590  1.3353
  524MOL0     H72272   4.727  10.474   8.337  0.1896  3.0256  0.2021
  524MOL0     H72273   4.639  10.427   8.196  1.9657 -0.2115  0.1309
  524MOL0     H72274   4.850  10.923   8.717  0.7684  0.1785  1.6200
  524MOL0     H72275   4.989  10.853   8.901  2.0053  1.2666 -0.5066
  524MOL0     H72276   5.278  10.531   9.002 -3.4630  0.4042  1.4746
  524MOL0     H72277   5.261  10.496   8.827  2.4296 -1.2179  1.3030
  524MOL0     H72278   5.408  10.695   8.801 -0.0246  1.7896 -0.6419
  524MOL0     H72279   5.395  10.739   8.964 -0.3065  0.2713 -1.2692
  524MOL0     H72280   5.518  10.518   9.035  2.0698  1.2427  1.0090
  524MOL0     H72281   5.602  10.654   8.970  3.0800 -0.9779 -3.3124
  524MOL0     H72282   5.597  10.540   8.738  1.4483 -2.2408 -1.0740
  524MOL0     H72283   5.527  10.400   8.810 -1.7053  1.4052  0.3225
  524MOL0     H72284   5.773  10.408   8.762 -1.1915 -2.7858 -0.1653
  524MOL0     H72285   5.786  10.522   8.893 -1.1503  0.8787 -0.0824
  524MOL0     H72286   5.726  10.229   8.860  0.4715  1.7604 -1.8780
  524MOL0     H72287   5.648  10.315   9.010 -1.5130  1.8695 -0.7076
  524MOL0     H72288   5.887  10.371   9.080  1.9133  0.9546 -1.7881
  524MOL0     H72289   5.933  10.277   8.932 -0.4963 -2.8974 -0.1977
  524MOL0     H72290   5.811  10.086   9.036 -3.3458  1.4494  1.0856
  524MOL0     H72291   5.801  10.185   9.187 -0.3547  4.7770 -1.2036
  524MOL0     H72292   5.199  10.582   8.646  1.7177  2.3916  1.0459
  524MOL0     H72293   5.051  10.635   8.466 -1.5898 -1.4500 -0.0288
  524MOL0     H72294   4.723  10.949   8.319  2.0985  0.0500 -1.9601
  524MOL0     H72295   4.585  11.007   8.130  1.3404 -0.2749 -0.8770
  524MOL0     H72296   3.001  11.086   8.144  2.8729  3.7813  0.5867
  524MOL0     H72297   2.775  11.168   8.250 -0.7403 -1.6277 -0.6233
  524MOL0     H72298   2.267  11.123   8.173 -0.3911  0.2472 -0.1934
  524MOL0     H72299   2.049  11.215   8.240 -1.2727  1.2871 -1.8392
  524MOL0     H72300   1.792  11.480   8.292  1.2575  1.7894  2.6367
  524MOL0     H72301   1.863  11.327   8.242  0.3012 -1.7213  2.4481
  524MOL0     H72302   1.967  11.308   8.462  0.3530  1.2836  2.8473
  524MOL0     H72303   1.801  11.315   8.484 -1.1058  2.6317  1.7248
  524MOL0     H72304   1.952  11.454   8.631  1.7121  0.5968 -0.5349
  524MOL0     H72305   1.971  11.568   8.498 -0.1102 -1.2050 -2.1213
  524MOL0     H72306   1.714  11.602   8.483  0.5054 -0.7019 -0.0214
  524MOL0     H72307   1.788  11.654   8.629  1.6401 -0.7556  0.6275
  524MOL0     H72308   1.523  11.404   8.809 -1.8909 -0.2360 -1.8240
  524MOL0     H72309   2.178  11.609   8.157  0.6670  0.7665 -1.2564
  524MOL0     H72310   2.447  11.580   7.977  0.3983  2.2620  0.4045
  524MOL0     H72311   2.362  11.667   8.097 -0.0851  0.5795 -0.4560
  524MOL0     H72312   2.510  11.556   8.140 -0.0244 -3.2006 -0.6970
  525MOL0     O72313   8.507   0.445   5.073 -0.4386  0.2269 -0.1166
  525MOL0     C72314   8.413   0.378   5.026 -0.1037 -0.5161 -0.6681
  525MOL0     O72315   8.420   0.312   4.906 -0.0221  0.2104  0.4016
  525MOL0     C72316   8.542   0.292   4.850  0.1811 -0.0291 -0.7862
  525MOL0     C72317   8.622   0.404   4.811  0.6835 -0.2169  0.6081
  525MOL0     C72318   8.756   0.398   4.754 -0.2703  0.4735 -0.2146
  525MOL0     C72319   8.810   0.264   4.737 -0.0572  0.0252 -0.0939
  525MOL0     O72320   8.926   0.246   4.669 -0.3070  0.1493 -0.4532
  525MOL0     C72321   8.922   0.311   4.538  0.8758 -0.4901 -0.5486
  525MOL0     C72322   9.048   0.276   4.466 -0.1119 -0.4050 -0.4599
  525MOL0     C72323   9.181   0.305   4.534 -0.6056 -0.9748  0.2469
  525MOL0     C72324   9.292   0.266   4.436  0.0310 -0.3463  0.7811
  525MOL0     C72325   9.425   0.294   4.508 -0.5093  0.1844 -0.3044
  525MOL0     C72326   9.555   0.310   4.423  0.9673 -0.5538  0.0496
  525MOL0     C72327   9.663   0.311   4.515 -0.1243 -0.3662 -0.8719
  525MOL0     C72328   9.797   0.301   4.442  0.5310 -0.1470 -0.2253
  525MOL0     N72329   9.893   0.366   4.536  0.2610 -0.4493  0.1490
  525MOL0     C72330   9.914   0.508   4.552  0.6514 -0.0114  0.6650
  525MOL0     C72331   9.996   0.504   4.657  0.8215  0.2667  0.2851
  525MOL0     C72332  10.037   0.622   4.728  0.2551  0.8395 -0.0620
  525MOL0     C72333  10.167   0.686   4.677  0.4477 -0.4908 -0.5252
  525MOL0     C72334  10.183   0.697   4.524 -0.6533 -0.7353  0.1802
  525MOL0     C72335  10.319   0.766   4.497 -0.8397 -0.1753  0.1888
  525MOL0     O72336  10.331   0.797   4.367  0.2470 -0.0860  0.0823
  525MOL0     C72337  10.447   0.847   4.320  0.9486 -0.2607 -0.5670
  525MOL0     C72338  10.526   0.941   4.382 -0.1252 -0.5931 -0.0898
  525MOL0     C72339  10.649   0.991   4.319  0.1665  0.0919 -0.1280
  525MOL0     C72340  10.748   1.072   4.399 -0.5717  0.3350  0.2919
  525MOL0     C72341  10.672   0.968   4.184  0.0194 -0.2576 -0.0680
  525MOL0     C72342  10.791   1.025   4.114  0.2750 -0.4689 -0.5599
  525MOL0     O72343  10.830   1.149   4.151  0.9307  0.4696 -0.0854
  525MOL0     C72344  10.909   1.232   4.076 -0.7187 -0.3130  0.1167
  525MOL0     C72345  10.949   1.349   4.137 -0.4364  1.0650  0.3540
  525MOL0     C72346  11.030   1.439   4.070  0.5452  0.1822  0.1627
  525MOL0     C72347  11.087   1.410   3.944  1.2365 -0.1241  0.2118
  525MOL0     O72348  11.164   1.514   3.897  0.2432  0.1575 -0.2109
  525MOL0     C72349  11.258   1.491   3.799 -0.8371 -0.4868 -0.0976
  525MOL0     C72350  11.341   1.611   3.768  0.3425 -0.6856  0.0671
  525MOL0     C72351  11.259   1.711   3.697  0.0005  0.4050 -0.5141
  525MOL0     C72352  11.343   1.819   3.648  0.2467 -0.1224 -0.1233
  525MOL0     C72353  11.430   1.793   3.529  0.3833  0.0410  0.5012
  525MOL0     C72354  11.476   1.920   3.461  0.2572 -0.5718 -0.5519
  525MOL0     C72355  11.532   1.886   3.321 -0.3229 -0.6742  0.8772
  525MOL0     C72356  11.681   1.923   3.313 -0.5830 -0.5359  0.3258
  525MOL0    Cl72357  11.731   1.923   3.149 -0.3159 -0.1537  0.3374
  525MOL0     C72358  11.054   1.288   3.882  0.0593 -0.5090  0.4289
  525MOL0     C72359  10.969   1.202   3.957  0.2654  0.4696  0.3284
  525MOL0     O72360  10.848   0.947   4.046  0.0748 -0.3473  0.0229
  525MOL0     C72361  10.593   0.866   4.127  0.8740  0.2166  0.1747
  525MOL0     C72362  10.474   0.811   4.192 -0.1129 -0.1716 -0.6319
  525MOL0     N72363  10.028   0.370   4.703  0.0484 -0.6302  0.4858
  525MOL0     N72364   9.961   0.291   4.624 -0.4677 -0.0970 -0.5724
  525MOL0     C72365   8.738   0.159   4.790 -0.2574  0.0718 -0.1019
  525MOL0     C72366   8.609   0.180   4.843  0.8182 -0.1992 -0.1911
  525MOL0     C72367   8.298   0.360   5.105 -0.2602 -0.5256  0.6500
  525MOL0     C72368   8.301   0.395   5.246 -0.3545 -0.2152  0.2852
  525MOL0     C72369   8.186   0.393   5.319 -0.1817  0.4632  0.3883
  525MOL0     C72370   8.067   0.355   5.270  0.5886  0.8356  0.8311
  525MOL0     O72371   7.944   0.349   5.332 -0.8746  0.1610  0.5653
  525MOL0     C72372   7.938   0.393   5.468 -0.0789  0.1934  0.5855
  525MOL0     C72373   7.806   0.352   5.532 -0.0350  0.2558 -0.6089
  525MOL0     C72374   7.679   0.419   5.475  0.0566  0.2387  0.8089
  525MOL0     C72375   7.555   0.353   5.530  0.4936  1.2657  0.5146
  525MOL0     C72376   7.439   0.368   5.440  0.9022  0.0290 -0.0837
  525MOL0     C72377   7.348   0.364   5.356 -0.2845 -0.0379  0.2595
  525MOL0     C72378   8.059   0.291   5.143 -0.3084 -0.0962  0.1070
  525MOL0     C72379   8.171   0.308   5.054 -0.6822  0.6739  0.2438
  525MOL0     C72380   8.154   0.247   4.918  0.3340 -0.6916  0.4215
  525MOL0     H72381   8.573   0.498   4.834 -0.9338 -1.1499  1.1087
  525MOL0     H72382   8.810   0.487   4.723  0.9499  0.6022  2.0689
  525MOL0     H72383   8.919   0.421   4.539 -1.3871 -0.4835 -1.3484
  525MOL0     H72384   8.830   0.282   4.487 -0.6667  0.1188  1.7565
  525MOL0     H72385   9.034   0.169   4.445 -0.4754 -0.2548 -0.9751
  525MOL0     H72386   9.049   0.330   4.371 -1.7266  0.3625 -0.0630
  525MOL0     H72387   9.183   0.410   4.563  0.4554 -1.9529  4.2990
  525MOL0     H72388   9.190   0.241   4.622  1.8199 -0.4065  0.4748
  525MOL0     H72389   9.280   0.164   4.398  1.1232 -0.6626  1.2297
  525MOL0     H72390   9.291   0.337   4.353 -1.0786 -0.0058  1.0669
  525MOL0     H72391   9.434   0.207   4.574  1.7503  2.1385  2.1579
  525MOL0     H72392   9.408   0.382   4.571  0.2977  2.3713 -2.9271
  525MOL0     H72393   9.564   0.217   4.366 -5.7951 -0.3822 -2.1718
  525MOL0     H72394   9.552   0.401   4.362  1.5410  1.2908  2.6138
  525MOL0     H72395   9.650   0.225   4.581  3.6151  0.0409  0.6350
  525MOL0     H72396   9.665   0.406   4.569 -0.4525 -2.2976  2.8656
  525MOL0     H72397   9.827   0.198   4.420  0.4140 -0.1983 -0.1449
  525MOL0     H72398   9.781   0.356   4.349  0.5735 -2.8547 -1.9341
  525MOL0     H72399   9.861   0.594   4.512  0.0579 -1.2637 -1.3943
  525MOL0     H72400  10.055   0.594   4.832  0.4721  1.7588  0.1599
  525MOL0     H72401   9.955   0.694   4.734  0.1546  0.6179  2.6016
  525MOL0     H72402  10.168   0.787   4.721 -0.8437 -0.3988 -0.6690
  525MOL0     H72403  10.259   0.637   4.710  1.1555 -1.0457 -3.1151
  525MOL0     H72404  10.183   0.607   4.462 -3.1280 -0.3085 -0.5779
  525MOL0     H72405  10.095   0.753   4.492  0.2207  0.4274 -0.2321
  525MOL0     H72406  10.322   0.861   4.552  2.7385 -0.9918  1.6749
  525MOL0     H72407  10.405   0.702   4.517 -1.7791 -1.2899  0.7798
  525MOL0     H72408  10.506   0.965   4.486 -2.7315 -0.8240 -0.4759
  525MOL0     H72409  10.715   1.090   4.502 -1.7064 -1.2846  0.2445
  525MOL0     H72410  10.749   1.177   4.369 -0.3984  0.8830  2.0579
  525MOL0     H72411  10.846   1.024   4.393 -1.2826 -0.9436 -2.8096
  525MOL0     H72412  10.936   1.364   4.244 -0.7054 -1.9141  0.8274
  525MOL0     H72413  11.053   1.540   4.103 -1.0207  0.2985  0.9865
  525MOL0     H72414  11.329   1.411   3.823  2.2904  1.7262 -1.3266
  525MOL0     H72415  11.208   1.456   3.708  2.0651  0.2541 -2.1013
  525MOL0     H72416  11.372   1.652   3.865  1.3586  2.5957 -1.4974
  525MOL0     H72417  11.430   1.592   3.707 -1.0708 -2.2954 -1.6196
  525MOL0     H72418  11.186   1.747   3.770  0.6982 -1.8027  1.3822
  525MOL0     H72419  11.217   1.660   3.610  1.1225 -1.3173 -0.0899
  525MOL0     H72420  11.412   1.856   3.725 -0.3391  2.3834 -0.7078
  525MOL0     H72421  11.283   1.907   3.620  1.8738  0.6030 -1.5151
  525MOL0     H72422  11.519   1.736   3.557 -0.1660  0.2947  3.0570
  525MOL0     H72423  11.371   1.732   3.459 -0.7496  1.0438  0.5482
  525MOL0     H72424  11.535   1.991   3.520 -0.0627 -0.0147 -0.8896
  525MOL0     H72425  11.390   1.982   3.434 -1.1840 -2.8917 -1.5920
  525MOL0     H72426  11.472   1.942   3.249  2.0072  1.2834  0.3131
  525MOL0     H72427  11.538   1.779   3.297  3.5258 -0.5262  0.5673
  525MOL0     H72428  11.739   1.852   3.372  0.8754 -1.2382 -1.8245
  525MOL0     H72429  11.701   2.025   3.348  3.0185 -0.1914 -2.2156
  525MOL0     H72430  11.097   1.259   3.786 -0.3199 -3.5263  1.0757
  525MOL0     H72431  10.937   1.112   3.906 -0.8518  1.3188 -0.5395
  525MOL0     H72432  10.608   0.824   4.028  0.7832 -0.4603  0.4444
  525MOL0     H72433  10.423   0.738   4.129  2.4344  0.1571 -3.3124
  525MOL0     H72434   8.772   0.057   4.776  1.2438  0.1966  2.0490
  525MOL0     H72435   8.558   0.096   4.891 -1.5876  1.8936  1.1698
  525MOL0     H72436   8.400   0.420   5.283 -1.0540  1.2839  1.2730
  525MOL0     H72437   8.190   0.423   5.423  0.1931 -1.0829  0.8443
  525MOL0     H72438   8.017   0.344   5.525 -0.2600 -2.4044 -1.2375
  525MOL0     H72439   7.943   0.502   5.476  0.6514  0.1769  0.4298
  525MOL0     H72440   7.820   0.386   5.635 -2.5384 -0.5818  0.0943
  525MOL0     H72441   7.795   0.243   5.533 -1.9224  0.4052  0.4090
  525MOL0     H72442   7.679   0.528   5.488  1.5475  0.7043 -2.2236
  525MOL0     H72443   7.673   0.404   5.367 -3.9997 -0.1455  0.9410
  525MOL0     H72444   7.516   0.399   5.621 -0.2528  2.1298 -0.2181
  525MOL0     H72445   7.582   0.247   5.530  0.4543  1.2255 -1.0853
  525MOL0     H72446   7.269   0.345   5.286 -0.3637 -0.5549  0.4786
  525MOL0     H72447   7.964   0.251   5.109  0.7894 -2.6216 -0.2321
  525MOL0     H72448   8.048   0.232   4.893  0.0931 -0.8217  1.4632
  525MOL0     H72449   8.195   0.311   4.840 -1.8963  0.2577 -0.0499
  525MOL0     H72450   8.208   0.154   4.898  0.7597 -0.2179 -0.7427
  526MOL0     O72451   4.665   6.167  10.575 -0.1079  0.0651 -0.4045
  526MOL0     C72452   4.580   6.255  10.557  0.4234 -0.1972  0.5873
  526MOL0     O72453   4.605   6.392  10.578 -0.2181 -0.0158 -0.3882
  526MOL0     C72454   4.744   6.432  10.608 -0.6706  0.0506  0.2733
  526MOL0     C72455   4.821   6.376  10.708  0.1114 -0.1283  0.4630
  526MOL0     C72456   4.953   6.417  10.726 -0.2351 -0.0574 -0.3574
  526MOL0     C72457   5.007   6.527  10.656 -0.2033 -0.1039  0.5226
  526MOL0     O72458   5.136   6.577  10.662 -0.2126  0.2515  0.0949
  526MOL0     C72459   5.215   6.547  10.777  0.1852  0.7081 -0.8631
  526MOL0     C72460   5.290   6.416  10.777  0.4113 -0.5712  0.6896
  526MOL0     C72461   5.441   6.441  10.783  0.4668 -0.1306  0.4300
  526MOL0     C72462   5.528   6.329  10.738 -0.4580  0.0914  0.3846
  526MOL0     C72463   5.676   6.370  10.742 -0.6859  0.8203 -0.3070
  526MOL0     C72464   5.730   6.356  10.882  0.5513  0.0739  0.2154
  526MOL0     C72465   5.772   6.216  10.917 -0.6141 -0.1009 -0.6878
  526MOL0     C72466   5.793   6.200  11.062  0.3717  0.2520 -0.5645
  526MOL0     N72467   5.898   6.283  11.118  0.0545 -0.4490  0.5667
  526MOL0     C72468   6.034   6.262  11.103 -0.4306 -0.6451  0.4339
  526MOL0     C72469   6.099   6.368  11.153 -1.3094  0.0755  0.8860
  526MOL0     C72470   6.249   6.386  11.147 -0.3056  0.7902  0.2924
  526MOL0     C72471   6.295   6.514  11.207 -0.0410 -0.1934  0.0434
  526MOL0     C72472   6.276   6.518  11.360 -0.4669 -0.7539  0.7026
  526MOL0     C72473   6.326   6.649  11.417 -0.7317 -0.1847  0.0395
  526MOL0     O72474   6.356   6.621  11.557 -0.1534  0.7003  0.0262
  526MOL0     C72475   6.480   6.582  11.589 -0.2463  0.2920  0.2055
  526MOL0     C72476   6.512   6.589  11.724 -0.3632  0.4096 -0.0273
  526MOL0     C72477   6.644   6.571  11.773 -0.2580  0.4778  0.1753
  526MOL0     C72478   6.669   6.578  11.925  0.0351 -0.0696 -0.3999
  526MOL0     C72479   6.742   6.530  11.680  0.0318 -0.0300 -0.3061
  526MOL0     C72480   6.878   6.486  11.720  0.3365 -0.5898 -0.3627
  526MOL0     O72481   6.943   6.419  11.614  0.6360 -0.9175  0.6615
  526MOL0     C72482   7.077   6.396  11.612  0.3223  0.6384 -1.4925
  526MOL0     C72483   7.113   6.337  11.495 -1.1530  0.5210 -0.3570
  526MOL0     C72484   7.248   6.303  11.468  0.2455  0.0725 -0.0251
  526MOL0     C72485   7.347   6.328  11.567 -0.4050 -0.2671 -0.7943
  526MOL0     O72486   7.477   6.281  11.541  0.1017  0.0825 -0.3856
  526MOL0     C72487   7.547   6.186  11.633 -0.1343  0.8549 -0.1308
  526MOL0     C72488   7.642   6.263  11.719 -0.1401  0.3084  0.6951
  526MOL0     C72489   7.734   6.177  11.816 -0.9121  0.3706  0.0529
  526MOL0     C72490   7.834   6.093  11.735 -0.4222  0.3954 -0.1756
  526MOL0     C72491   7.944   6.033  11.824  0.4403  0.3305 -0.0750
  526MOL0     C72492   8.032   6.145  11.883  0.5530  0.3867 -0.0260
  526MOL0     C72493   8.149   6.100  11.974  0.4868 -1.4098 -0.8181
  526MOL0     C72494   8.236   5.985  11.921  0.4162 -0.0425 -0.2834
  526MOL0    Cl72495   8.357   6.047  11.810  0.1237  0.0553 -0.3302
  526MOL0     C72496   7.309   6.408  11.682  0.2684 -0.2307  0.1750
  526MOL0     C72497   7.177   6.430  11.701  0.4394 -0.2587 -0.2950
  526MOL0     O72498   6.936   6.517  11.823  0.4337 -0.2380  0.1103
  526MOL0     C72499   6.708   6.522  11.544  0.6536 -0.0100 -0.8274
  526MOL0     C72500   6.580   6.549  11.504 -0.6469  0.0488  0.2105
  526MOL0     N72501   6.007   6.460  11.187 -0.2799  0.1117  0.2917
  526MOL0     N72502   5.884   6.410  11.166 -0.5194 -0.1800  0.1767
  526MOL0     C72503   4.925   6.590  10.569  0.2176 -0.2674  0.7895
  526MOL0     C72504   4.793   6.543  10.544  0.5997  0.0703  0.1696
  526MOL0     C72505   4.446   6.224  10.506  0.3050 -0.0513  0.2567
  526MOL0     C72506   4.344   6.324  10.491  0.5606 -0.2018 -0.0070
  526MOL0     C72507   4.211   6.298  10.460  0.0060 -0.1304  0.0863
  526MOL0     C72508   4.173   6.167  10.421  0.7532 -0.0098 -0.3195
  526MOL0     O72509   4.042   6.150  10.401  0.4496  0.4755 -0.7928
  526MOL0     C72510   3.993   6.049  10.318 -0.4262 -0.2606  0.0483
  526MOL0     C72511   3.841   6.052  10.308 -0.1917 -0.0504  0.4171
  526MOL0     C72512   3.780   6.190  10.276  0.4270  0.4189 -0.0356
  526MOL0     C72513   3.744   6.269  10.403 -0.3536  0.0067  0.1690
  526MOL0     C72514   3.775   6.410  10.397  0.6940  0.6411  0.7599
  526MOL0     C72515   3.776   6.533  10.402 -0.5224  0.1063 -0.6533
  526MOL0     C72516   4.270   6.066  10.412  0.1288  0.0103 -0.0545
  526MOL0     C72517   4.407   6.101  10.443  0.3092 -0.0391  0.1291
  526MOL0     C72518   4.508   6.002  10.411  0.7052 -0.0579  0.3348
  526MOL0     H72519   4.781   6.302  10.777 -1.4501 -1.9875 -2.2612
  526MOL0     H72520   5.008   6.360  10.800  0.7392  0.1757 -0.8838
  526MOL0     H72521   5.153   6.560  10.866 -0.0416 -2.2321 -0.4822
  526MOL0     H72522   5.294   6.622  10.784 -1.2337  2.4032 -2.2066
  526MOL0     H72523   5.258   6.364  10.867  0.9249  1.5554  2.1763
  526MOL0     H72524   5.254   6.372  10.683 -1.5804  0.9095  0.6728
  526MOL0     H72525   5.468   6.516  10.707  3.2851 -0.1925  1.2512
  526MOL0     H72526   5.472   6.486  10.877  3.1716 -0.9036 -0.0127
  526MOL0     H72527   5.514   6.236  10.795  1.5592  0.1281  1.0275
  526MOL0     H72528   5.502   6.305  10.634 -1.0460 -2.6757  1.0838
  526MOL0     H72529   5.679   6.468  10.694  0.4022  0.8040 -0.3016
  526MOL0     H72530   5.732   6.301  10.678 -1.4376  3.6279 -4.3499
  526MOL0     H72531   5.815   6.424  10.890 -2.3311  3.9374  1.3704
  526MOL0     H72532   5.657   6.392  10.955 -0.4079 -1.7408  0.2251
  526MOL0     H72533   5.864   6.190  10.864 -0.0799 -0.8471  0.5607
  526MOL0     H72534   5.703   6.141  10.875 -0.1614 -0.0531 -1.5478
  526MOL0     H72535   5.697   6.217  11.112 -1.4806 -2.6798 -2.8235
  526MOL0     H72536   5.820   6.095  11.079  1.7616  0.7516  0.5669
  526MOL0     H72537   6.076   6.174  11.054  1.3846 -0.5045  1.6562
  526MOL0     H72538   6.291   6.389  11.046  1.3653  3.2212  0.9600
  526MOL0     H72539   6.294   6.300  11.198  0.8581  0.8600 -0.5575
  526MOL0     H72540   6.402   6.510  11.186 -0.5106  1.0314 -3.1234
  526MOL0     H72541   6.257   6.603  11.155  1.6957 -0.3747 -1.6542
  526MOL0     H72542   6.173   6.495  11.388 -1.0483 -0.3692 -0.9649
  526MOL0     H72543   6.336   6.434  11.395 -0.1009 -1.0126 -0.4860
  526MOL0     H72544   6.405   6.698  11.359 -0.7226  0.8170  0.8567
  526MOL0     H72545   6.245   6.722  11.413  0.0548  0.8743  1.7578
  526MOL0     H72546   6.443   6.624  11.800  0.2941  2.5764 -0.3711
  526MOL0     H72547   6.751   6.646  11.948 -0.2550 -0.7277  3.1437
  526MOL0     H72548   6.679   6.479  11.972  2.1100 -0.1037 -0.8204
  526MOL0     H72549   6.585   6.629  11.974  2.2303  1.9456  1.5297
  526MOL0     H72550   7.034   6.316  11.423 -1.5200  0.8684 -0.0599
  526MOL0     H72551   7.279   6.256  11.376  0.8664  3.8929 -1.9548
  526MOL0     H72552   7.479   6.132  11.700 -0.7167 -1.2390 -2.2430
  526MOL0     H72553   7.602   6.112  11.573 -0.2857  0.5491  0.1044
  526MOL0     H72554   7.695   6.336  11.656 -0.9200  2.2363  2.1684
  526MOL0     H72555   7.579   6.318  11.790 -1.2764 -0.3050  0.1712
  526MOL0     H72556   7.672   6.112  11.879  0.2426  0.4748  1.3356
  526MOL0     H72557   7.777   6.239  11.895 -1.8262  1.7500 -0.4993
  526MOL0     H72558   7.870   6.169  11.665 -1.3624  2.3217  1.3536
  526MOL0     H72559   7.786   6.017  11.673  0.5930 -0.2570 -0.1912
  526MOL0     H72560   7.887   5.965  11.888  1.1137 -2.2582 -2.0599
  526MOL0     H72561   8.008   5.967  11.765 -0.7317 -0.8699 -0.0493
  526MOL0     H72562   7.985   6.233  11.927  2.5807  1.3231  0.4242
  526MOL0     H72563   8.074   6.181  11.788  0.5420 -2.0758 -1.0364
  526MOL0     H72564   8.098   6.060  12.062 -0.2490 -0.0969 -0.6084
  526MOL0     H72565   8.204   6.192  11.998 -0.9902 -0.6421 -0.2046
  526MOL0     H72566   8.177   5.899  11.888  1.0097  0.5966 -3.3449
  526MOL0     H72567   8.286   5.957  12.013  0.1881  0.4870  0.0062
  526MOL0     H72568   7.380   6.437  11.758 -1.4900  0.2513  1.7226
  526MOL0     H72569   7.167   6.496  11.787  1.5210 -0.4225 -0.0223
  526MOL0     H72570   6.778   6.481  11.472  1.2520  1.8716 -1.3686
  526MOL0     H72571   6.567   6.552  11.396 -0.8687 -0.0432  0.2336
  526MOL0     H72572   4.948   6.681  10.515 -1.0222 -1.0917 -1.2103
  526MOL0     H72573   4.735   6.592  10.467  0.1909 -3.1629 -1.7423
  526MOL0     H72574   4.370   6.429  10.498 -1.6917  0.4871 -1.0395
  526MOL0     H72575   4.143   6.381  10.447  0.5112  0.1721 -0.6814
  526MOL0     H72576   4.031   6.069  10.217 -0.9386  1.3871  0.1481
  526MOL0     H72577   4.026   5.951  10.354  0.2496  0.3048  1.0172
  526MOL0     H72578   3.799   6.004  10.396 -0.2536  0.5077  0.6955
  526MOL0     H72579   3.806   5.981  10.232 -2.2832  0.1499  1.1487
  526MOL0     H72580   3.848   6.248  10.214  0.5895 -1.3979 -1.6563
  526MOL0     H72581   3.692   6.170  10.213  3.3321 -0.8761 -4.1163
  526MOL0     H72582   3.805   6.227  10.483 -2.0361  0.9173  2.0078
  526MOL0     H72583   3.638   6.250  10.423 -0.6056 -1.9406 -2.5302
  526MOL0     H72584   3.763   6.640  10.406 -0.2049  0.1848 -1.4416
  526MOL0     H72585   4.249   5.962  10.386  2.2081 -0.1628 -1.1898
  526MOL0     H72586   4.596   6.040  10.359  0.8529  1.5005  1.6737
  526MOL0     H72587   4.536   5.955  10.505 -1.2719 -0.4395  0.7766
  526MOL0     H72588   4.455   5.931  10.346 -0.6553  2.0697 -0.9796
  527MOL0     O72589   8.061   4.228  10.194  0.3190 -0.6715  0.1704
  527MOL0     C72590   7.975   4.192  10.271 -0.1574 -0.8646 -0.0189
  527MOL0     O72591   7.983   4.151  10.405  0.1500 -0.1205 -0.9311
  527MOL0     C72592   8.101   4.125  10.485  0.0394 -0.0566  0.4321
  527MOL0     C72593   8.087   4.096  10.622  0.0753  0.5824 -0.1707
  527MOL0     C72594   8.196   4.087  10.710  0.2237 -0.8779  0.1989
  527MOL0     C72595   8.322   4.111  10.666 -0.0547 -0.0930 -0.6768
  527MOL0     O72596   8.425   4.084  10.757  0.6583  0.2225 -0.4395
  527MOL0     C72597   8.560   4.097  10.727 -0.1410 -0.5344 -0.4584
  527MOL0     C72598   8.645   4.066  10.848  0.4117 -0.2309  0.5636
  527MOL0     C72599   8.799   4.044  10.821  0.6150  1.0372  0.4728
  527MOL0     C72600   8.870   4.147  10.739 -0.4430  0.6413 -0.0259
  527MOL0     C72601   9.018   4.102  10.732 -0.5536 -1.3160 -0.2830
  527MOL0     C72602   9.106   4.210  10.663  0.5418  0.6324 -0.3431
  527MOL0     C72603   9.258   4.165  10.678  0.6169 -0.3037  0.0553
  527MOL0     C72604   9.308   4.042  10.601 -0.2980 -0.6810 -0.0417
  527MOL0     N72605   9.423   3.987  10.671  0.0471 -0.2006 -0.8804
  527MOL0     C72606   9.411   3.920  10.799 -0.5278 -0.2266 -0.4865
  527MOL0     C72607   9.526   3.844  10.811  0.3047 -0.1040 -0.2850
  527MOL0     C72608   9.555   3.744  10.925 -0.3172  0.0255  0.2958
  527MOL0     C72609   9.677   3.777  11.020  0.2881  0.5640 -0.0458
  527MOL0     C72610   9.817   3.765  10.963  0.4185  0.1829 -0.1456
  527MOL0     C72611   9.925   3.805  11.058  0.2537 -0.1761  0.5497
  527MOL0     O72612   9.949   3.700  11.153 -0.3431 -0.0142 -0.0412
  527MOL0     C72613  10.072   3.685  11.209 -0.1381  0.4491 -0.2254
  527MOL0     C72614  10.096   3.575  11.293 -0.0754 -0.4180 -0.3817
  527MOL0     C72615  10.218   3.553  11.362  0.3234 -0.0767 -0.1112
  527MOL0     C72616  10.227   3.431  11.455  0.3207 -0.2589 -0.1146
  527MOL0     C72617  10.325   3.642  11.343 -0.4408 -0.7013  0.0494
  527MOL0     C72618  10.455   3.631  11.405 -1.1283  0.2832 -0.2467
  527MOL0     O72619  10.492   3.719  11.496  0.1185  1.0256 -0.0400
  527MOL0     C72620  10.617   3.715  11.562  0.8378 -0.3907 -0.5013
  527MOL0     C72621  10.737   3.682  11.507  0.2179  0.3959 -0.1385
  527MOL0     C72622  10.858   3.691  11.571  1.4355  0.5880 -0.3212
  527MOL0     C72623  10.865   3.739  11.709  0.0943 -1.3301  0.2067
  527MOL0     O72624  10.981   3.755  11.780 -0.8567  0.1323 -0.3550
  527MOL0     C72625  11.108   3.706  11.730  0.2370  0.3778 -0.2678
  527MOL0     C72626  11.223   3.756  11.819  0.0176  0.8856  1.1183
  527MOL0     C72627  11.358   3.754  11.748  0.0143 -1.1678 -0.3664
  527MOL0     C72628  11.471   3.779  11.848 -1.0670  0.0882 -0.5982
  527MOL0     C72629  11.606   3.778  11.780 -0.3673 -0.0821  1.1168
  527MOL0     C72630  11.705   3.859  11.867 -0.4012  0.1625  0.5534
  527MOL0     C72631  11.847   3.887  11.803 -0.0996 -1.0173 -0.4962
  527MOL0     C72632  11.902   4.027  11.843 -0.2441  0.1535 -0.7906
  527MOL0    Cl72633  12.070   4.021  11.777 -0.4211  0.3561 -0.1092
  527MOL0     C72634  10.744   3.768  11.772  0.1172  0.3117  0.1993
  527MOL0     C72635  10.624   3.753  11.698 -0.1822 -0.4211 -0.0981
  527MOL0     O72636  10.525   3.538  11.361 -0.4505  0.5131  0.2935
  527MOL0     C72637  10.306   3.747  11.250 -0.4196 -0.3150 -0.2337
  527MOL0     C72638  10.185   3.768  11.189 -0.0976  0.1469  0.2897
  527MOL0     N72639   9.594   3.862  10.692 -0.1192  0.3265  0.4914
  527MOL0     N72640   9.534   3.938  10.603 -0.2912 -0.5222 -1.8065
  527MOL0     C72641   8.342   4.142  10.530  0.1940  0.0103 -0.3121
  527MOL0     C72642   8.234   4.138  10.441 -0.0171  0.1662  0.1732
  527MOL0     C72643   7.834   4.201  10.228 -0.1667  0.1899 -0.0416
  527MOL0     C72644   7.801   4.284  10.119 -0.2076 -0.6571 -0.9267
  527MOL0     C72645   7.663   4.293  10.087 -0.1184 -0.7119  0.4431
  527MOL0     C72646   7.556   4.239  10.141 -0.3059  0.1991 -0.7707
  527MOL0     O72647   7.435   4.270  10.079 -0.1926 -0.7701  0.1391
  527MOL0     C72648   7.314   4.222  10.147  0.1213  0.1172  0.3924
  527MOL0     C72649   7.197   4.256  10.055  0.5924  0.6402  0.2605
  527MOL0     C72650   7.138   4.405  10.065  1.0663  0.3662  0.4681
  527MOL0     C72651   7.002   4.402  10.141 -0.1507 -0.1245  1.2069
  527MOL0     C72652   7.029   4.409  10.288  0.0537  0.3823 -0.5696
  527MOL0     C72653   7.070   4.404  10.402 -0.5787 -0.1922  0.2215
  527MOL0     C72654   7.586   4.155  10.249  0.0084  0.3290  0.0855
  527MOL0     C72655   7.719   4.140  10.301 -0.4521  0.4705  0.5262
  527MOL0     C72656   7.736   4.037  10.412  0.0702 -0.0387 -0.3054
  527MOL0     H72657   7.986   4.069  10.653  0.0598 -0.2378 -0.9033
  527MOL0     H72658   8.175   4.063  10.814 -4.8556 -2.0210 -0.8302
  527MOL0     H72659   8.578   4.199  10.691 -1.2340  0.2459  1.1081
  527MOL0     H72660   8.590   4.034  10.643  1.8263  1.3009 -1.2343
  527MOL0     H72661   8.630   4.157  10.906 -1.6914 -1.4978  2.1647
  527MOL0     H72662   8.600   3.988  10.911  0.8302 -0.2369  0.8625
  527MOL0     H72663   8.844   4.039  10.920 -1.5491 -0.6423  1.4640
  527MOL0     H72664   8.806   3.944  10.778 -0.0869  1.5497 -0.9271
  527MOL0     H72665   8.831   4.158  10.638 -3.2770  1.8090  1.1047
  527MOL0     H72666   8.870   4.247  10.783 -0.5176 -0.1645  1.9468
  527MOL0     H72667   9.023   4.016  10.665 -2.2894 -0.4962 -1.5655
  527MOL0     H72668   9.057   4.081  10.832  4.7368  1.3316 -1.4176
  527MOL0     H72669   9.076   4.221  10.559  0.5843 -0.7411 -0.5149
  527MOL0     H72670   9.092   4.306  10.713 -0.1203  1.1651 -1.5253
  527MOL0     H72671   9.264   4.151  10.787 -0.2420  0.2832  0.1964
  527MOL0     H72672   9.323   4.249  10.653  0.4615 -0.1317  0.2188
  527MOL0     H72673   9.231   3.965  10.603 -0.4398 -0.5352  0.1887
  527MOL0     H72674   9.337   4.067  10.498  0.1497  0.1509  0.2740
  527MOL0     H72675   9.327   3.914  10.868  1.5967  1.2613  2.4580
  527MOL0     H72676   9.569   3.641  10.889  2.0264  0.4454 -0.2031
  527MOL0     H72677   9.470   3.751  10.993  0.4851  0.7295  1.2680
  527MOL0     H72678   9.659   3.883  11.041  1.4402  0.9901 -1.1008
  527MOL0     H72679   9.677   3.720  11.113 -0.1069  1.3328  0.4316
  527MOL0     H72680   9.824   3.658  10.942 -0.2618 -0.5659  2.9912
  527MOL0     H72681   9.822   3.817  10.867  0.5214 -0.0719 -0.2784
  527MOL0     H72682  10.017   3.824  11.002 -0.1154  2.3845  0.6891
  527MOL0     H72683   9.896   3.894  11.115  3.3276 -0.5648  2.9581
  527MOL0     H72684  10.013   3.505  11.294  2.5495 -3.8840  1.6115
  527MOL0     H72685  10.250   3.340  11.398  1.4399 -1.9686  2.8843
  527MOL0     H72686  10.134   3.409  11.508 -0.8353  0.0587 -1.9077
  527MOL0     H72687  10.300   3.454  11.532 -0.6240 -0.2895  0.8212
  527MOL0     H72688  10.746   3.650  11.404 -4.3154 -1.9031 -0.0514
  527MOL0     H72689  10.941   3.644  11.520  0.9979 -0.1923 -0.3359
  527MOL0     H72690  11.107   3.596  11.728 -2.9533  0.3073  0.5577
  527MOL0     H72691  11.121   3.749  11.630 -0.9398  2.7033  0.5066
  527MOL0     H72692  11.199   3.859  11.846  1.7476  0.7836  3.3130
  527MOL0     H72693  11.231   3.693  11.908  0.1138 -2.7549 -1.2454
  527MOL0     H72694  11.361   3.835  11.674 -0.5010 -0.3551  0.4943
  527MOL0     H72695  11.375   3.657  11.700 -1.8759 -2.2550  1.0317
  527MOL0     H72696  11.480   3.708  11.931 -1.6447  0.9524  0.2357
  527MOL0     H72697  11.453   3.875  11.899 -0.3409  0.1209 -0.3953
  527MOL0     H72698  11.628   3.672  11.763  0.4719  0.3865 -1.0327
  527MOL0     H72699  11.590   3.818  11.680  1.1208  0.3593  1.0293
  527MOL0     H72700  11.723   3.813  11.964 -2.1973  3.3433  2.5888
  527MOL0     H72701  11.652   3.952  11.889 -1.4696  0.0022 -1.1681
  527MOL0     H72702  11.852   3.884  11.693  0.8544 -2.0420 -0.4398
  527MOL0     H72703  11.917   3.812  11.842  0.0804  0.0945  1.3990
  527MOL0     H72704  11.909   4.037  11.951  2.0881  0.3118 -0.8969
  527MOL0     H72705  11.846   4.113  11.806  2.0894  1.4733 -1.4651
  527MOL0     H72706  10.751   3.801  11.875  1.9068  1.9948 -0.3998
  527MOL0     H72707  10.538   3.783  11.757  0.9664  3.1139 -0.0047
  527MOL0     H72708  10.380   3.825  11.237  0.8972 -1.7498 -1.7398
  527MOL0     H72709  10.192   3.859  11.130  1.3191  0.2790  0.6206
  527MOL0     H72710   8.444   4.151  10.495  0.1219  0.8253 -0.3375
  527MOL0     H72711   8.253   4.159  10.336 -3.1058 -1.4465 -0.8520
  527MOL0     H72712   7.867   4.347  10.061 -0.7065  0.0213 -0.7726
  527MOL0     H72713   7.637   4.337   9.991 -0.8186 -0.8440  0.5628
  527MOL0     H72714   7.318   4.115  10.170  0.4565  0.7733  4.0433
  527MOL0     H72715   7.307   4.282  10.239  1.4146  0.1902  0.4746
  527MOL0     H72716   7.111   4.190  10.070 -0.1677  1.1303 -1.7261
  527MOL0     H72717   7.216   4.248   9.948 -0.6722 -4.0229  0.1559
  527MOL0     H72718   7.209   4.478  10.106  3.2784 -3.2047  3.7093
  527MOL0     H72719   7.104   4.444   9.969  1.2195 -0.9909 -0.1607
  527MOL0     H72720   6.945   4.313  10.115 -3.5714  0.3626  5.8224
  527MOL0     H72721   6.947   4.493  10.115 -1.6968 -1.9834 -2.7920
  527MOL0     H72722   7.093   4.387  10.505  2.5288 -0.8983 -0.4929
  527MOL0     H72723   7.510   4.101  10.304  0.2248 -0.2694 -0.1950
  527MOL0     H72724   7.776   4.069  10.509  0.4276 -2.6893  0.5026
  527MOL0     H72725   7.650   3.972  10.431  1.5024 -1.6173  1.1380
  527MOL0     H72726   7.813   3.970  10.371  1.1850 -0.8235  2.7699
  528MOL0     O72727   8.134   9.916  11.199 -0.2200 -0.0371 -0.6965
  528MOL0     C72728   8.189   9.809  11.223 -0.1689 -0.3647  0.9112
  528MOL0     O72729   8.164   9.733  11.332  0.8246  0.8995 -0.5058
  528MOL0     C72730   8.031   9.745  11.382 -0.7553  0.2805  1.0155
  528MOL0     C72731   7.959   9.628  11.366  0.0702 -0.5116  0.3354
  528MOL0     C72732   7.823   9.634  11.415  0.2488 -1.0396  1.2242
  528MOL0     C72733   7.770   9.754  11.473  0.3980  0.9683 -0.1409
  528MOL0     O72734   7.644   9.756  11.527 -0.3772 -0.4247 -0.4179
  528MOL0     C72735   7.571   9.633  11.534 -0.3992  0.7019  0.7327
  528MOL0     C72736   7.438   9.655  11.592  0.4961 -0.6956 -0.1560
  528MOL0     C72737   7.327   9.563  11.546 -0.1627  1.3350  0.1055
  528MOL0     C72738   7.202   9.620  11.613 -0.2631  0.1206  0.6305
  528MOL0     C72739   7.097   9.510  11.610  0.3964  0.3290 -0.0947
  528MOL0     C72740   7.062   9.457  11.473 -0.7074 -0.3004 -0.5088
  528MOL0     C72741   7.002   9.558  11.379  0.4552 -0.7837  0.2977
  528MOL0     C72742   6.962   9.484  11.246 -0.5047 -0.7497  0.2184
  528MOL0     N72743   6.868   9.563  11.166 -0.3056  0.0645 -0.3202
  528MOL0     C72744   6.906   9.625  11.044 -1.0576  0.4344 -0.1269
  528MOL0     C72745   6.793   9.645  10.970 -0.0805  0.3280  0.0246
  528MOL0     C72746   6.791   9.723  10.838  0.4487 -0.4894 -0.4306
  528MOL0     C72747   6.837   9.637  10.721  0.2946 -0.2271 -0.4416
  528MOL0     C72748   6.839   9.708  10.591  0.0755 -0.1651 -0.4544
  528MOL0     C72749   6.916   9.620  10.489 -0.0415 -0.2135  0.5307
  528MOL0     O72750   6.896   9.679  10.360  0.4088  0.0216  0.1194
  528MOL0     C72751   6.993   9.634  10.275 -0.3661 -0.5172 -0.4042
  528MOL0     C72752   7.046   9.730  10.191 -0.9814 -1.0475  0.2248
  528MOL0     C72753   7.140   9.697  10.092 -0.2798  0.5802 -0.1178
  528MOL0     C72754   7.197   9.810  10.015 -0.6838 -0.7435  0.0816
  528MOL0     C72755   7.182   9.566  10.067 -0.6450 -0.3374 -0.0151
  528MOL0     C72756   7.258   9.525   9.957 -0.0943 -0.2139  0.1796
  528MOL0     O72757   7.385   9.587   9.951 -0.7718 -0.2519 -0.5342
  528MOL0     C72758   7.475   9.561   9.849 -1.4456 -0.1160  0.0068
  528MOL0     C72759   7.614   9.563   9.874  0.3441  0.0740 -0.0925
  528MOL0     C72760   7.714   9.510   9.787 -0.4462 -0.3857  0.2712
  528MOL0     C72761   7.680   9.471   9.662 -0.0072  0.1846  0.1978
  528MOL0     O72762   7.756   9.422   9.566 -0.4618 -0.0406  0.3960
  528MOL0     C72763   7.832   9.297   9.607 -0.5467  0.4266 -0.0959
  528MOL0     C72764   7.864   9.200   9.487 -0.3800 -0.2516 -0.2779
  528MOL0     C72765   7.743   9.167   9.417 -0.8497  0.2997  0.3617
  528MOL0     C72766   7.639   9.076   9.480  0.0950  1.0520 -0.3294
  528MOL0     C72767   7.515   9.159   9.483  0.2641 -0.3051  0.5636
  528MOL0     C72768   7.386   9.068   9.467 -0.3705  0.1569  0.2876
  528MOL0     C72769   7.264   9.157   9.466 -0.3219 -0.2901 -0.4328
  528MOL0     C72770   7.135   9.083   9.471  0.1727  0.0661 -0.0412
  528MOL0    Cl72771   7.113   8.963   9.606  0.0664  0.8611 -0.1054
  528MOL0     C72772   7.546   9.475   9.629  0.3900 -0.1984  0.1282
  528MOL0     C72773   7.441   9.514   9.718 -0.2508 -0.0775 -0.8697
  528MOL0     O72774   7.209   9.447   9.877  0.6641 -0.2273 -0.1662
  528MOL0     C72775   7.129   9.471  10.152  0.5096  0.0757  0.4723
  528MOL0     C72776   7.036   9.501  10.256 -0.0702  0.0653  0.4606
  528MOL0     N72777   6.688   9.604  11.047  0.1643  1.3151  0.0514
  528MOL0     N72778   6.736   9.555  11.161  0.2670  0.8737  0.0890
  528MOL0     C72779   7.852   9.865  11.489 -0.2681  0.3234 -0.2977
  528MOL0     C72780   7.981   9.856  11.438  0.8747 -0.4983 -0.0640
  528MOL0     C72781   8.292   9.761  11.126  0.6984 -0.1279 -0.0712
  528MOL0     C72782   8.295   9.826  10.995  0.8734  0.0130  0.2061
  528MOL0     C72783   8.388   9.785  10.893 -0.0299  0.0211 -0.0614
  528MOL0     C72784   8.469   9.670  10.925 -0.8147 -0.2140 -0.0487
  528MOL0     O72785   8.556   9.610  10.834 -0.1830  0.5100 -0.6026
  528MOL0     C72786   8.560   9.662  10.703 -0.1213  0.5865  0.1303
  528MOL0     C72787   8.640   9.570  10.607 -1.0372  0.0626 -0.5756
  528MOL0     C72788   8.779   9.522  10.658 -0.3180  0.3611  0.1260
  528MOL0     C72789   8.856   9.403  10.584 -0.6962  0.4214 -0.2651
  528MOL0     C72790   8.992   9.381  10.636 -0.4361  0.1416  1.3088
  528MOL0     C72791   9.113   9.365  10.667  0.3722  0.1492  1.2126
  528MOL0     C72792   8.462   9.603  11.048 -0.5967  0.1880  0.2167
  528MOL0     C72793   8.380   9.652  11.150  0.4132  0.0276  0.0160
  528MOL0     C72794   8.402   9.590  11.285  0.2194  0.5855  0.4141
  528MOL0     H72795   8.003   9.543  11.317  1.7080 -0.6228  1.8982
  528MOL0     H72796   7.766   9.548  11.382 -0.7229  0.7547 -2.1843
  528MOL0     H72797   7.622   9.560  11.598  0.1189 -1.0673 -1.5580
  528MOL0     H72798   7.560   9.587  11.436  1.1689  0.4968  0.6338
  528MOL0     H72799   7.454   9.646  11.700  0.7017 -1.8163 -0.2595
  528MOL0     H72800   7.403   9.757  11.574  0.2490 -0.5761  0.9116
  528MOL0     H72801   7.317   9.578  11.438 -1.7324  3.7035  0.5247
  528MOL0     H72802   7.354   9.461  11.575  2.0657  1.7783 -0.1775
  528MOL0     H72803   7.225   9.652  11.714  1.9637  2.2613 -0.4483
  528MOL0     H72804   7.158   9.704  11.558 -0.3977  0.5786  1.4229
  528MOL0     H72805   7.009   9.534  11.671  1.9287 -1.3985  3.0991
  528MOL0     H72806   7.138   9.427  11.668  0.1587  1.0077  1.0817
  528MOL0     H72807   7.152   9.426  11.419 -1.2620 -2.9170 -0.0208
  528MOL0     H72808   6.997   9.370  11.482  1.4375 -1.8829  0.4179
  528MOL0     H72809   7.065   9.646  11.361 -0.4541 -0.6965 -3.2774
  528MOL0     H72810   6.913   9.603  11.424 -0.7513 -2.0921 -0.6999
  528MOL0     H72811   7.055   9.460  11.192  0.5684  0.4183  1.4653
  528MOL0     H72812   6.914   9.389  11.269 -1.5767 -0.3372 -0.2379
  528MOL0     H72813   7.010   9.644  11.019 -0.3858  0.8865  2.6753
  528MOL0     H72814   6.860   9.807  10.848  0.5677 -0.5969 -0.3452
  528MOL0     H72815   6.689   9.758  10.817  0.4720 -0.0343  0.1851
  528MOL0     H72816   6.936   9.595  10.739  0.4498 -0.0896 -0.9489
  528MOL0     H72817   6.757   9.563  10.709 -0.9605  0.7483  1.4288
  528MOL0     H72818   6.737   9.727  10.557  0.8261 -1.0099 -3.4806
  528MOL0     H72819   6.895   9.801  10.606  0.3935 -0.5917  1.2150
  528MOL0     H72820   7.020   9.618  10.521 -0.1558  0.9083  0.9947
  528MOL0     H72821   6.874   9.519  10.486 -1.6606  0.4480 -1.6634
  528MOL0     H72822   7.014   9.833  10.204  3.2357  0.1599  3.3175
  528MOL0     H72823   7.259   9.871  10.081 -2.6857  2.5447 -0.8319
  528MOL0     H72824   7.113   9.877   9.992  1.6117  2.7605  1.1479
  528MOL0     H72825   7.252   9.787   9.923  1.8439  1.8722  0.8059
  528MOL0     H72826   7.656   9.582   9.973  2.4802 -0.4025 -0.8421
  528MOL0     H72827   7.818   9.487   9.804 -0.3760 -2.5194 -2.3165
  528MOL0     H72828   7.925   9.326   9.656 -0.0404  0.1886 -0.9037
  528MOL0     H72829   7.771   9.245   9.681 -0.9682 -0.8623 -1.2989
  528MOL0     H72830   7.918   9.250   9.405 -0.1387  1.4420  0.8621
  528MOL0     H72831   7.925   9.114   9.517 -2.1101 -1.4860 -0.1563
  528MOL0     H72832   7.766   9.122   9.320 -1.1340  4.8478 -2.0760
  528MOL0     H72833   7.702   9.261   9.379 -0.3307  0.0975 -0.7376
  528MOL0     H72834   7.664   9.038   9.580 -0.5406 -0.4889 -0.7232
  528MOL0     H72835   7.628   8.981   9.428  0.6681  0.5094  0.5148
  528MOL0     H72836   7.500   9.219   9.573 -4.0938 -1.5400  0.8700
  528MOL0     H72837   7.503   9.230   9.402 -2.2170 -1.2730 -0.0031
  528MOL0     H72838   7.388   8.989   9.543  2.2661  0.4518  0.6318
  528MOL0     H72839   7.389   9.012   9.373 -1.6827  2.1418 -1.0243
  528MOL0     H72840   7.273   9.230   9.385  0.4754  3.0127  2.4022
  528MOL0     H72841   7.272   9.216   9.558  0.5846 -0.1137 -0.6152
  528MOL0     H72842   7.123   9.031   9.375 -1.1086  0.0804  0.1005
  528MOL0     H72843   7.050   9.152   9.478 -0.4037 -0.5356 -0.8618
  528MOL0     H72844   7.522   9.456   9.525 -0.1287 -0.4072  0.2839
  528MOL0     H72845   7.339   9.504   9.682 -0.6051 -2.5542  0.5428
  528MOL0     H72846   7.152   9.368  10.129 -1.2212 -0.1772 -0.2561
  528MOL0     H72847   6.991   9.427  10.322 -1.0622 -1.6949 -2.0730
  528MOL0     H72848   7.814   9.956  11.536 -0.3597  0.0253  0.2178
  528MOL0     H72849   8.042   9.945  11.427 -0.0284  0.3559  1.4063
  528MOL0     H72850   8.217   9.896  10.968 -1.0436 -1.1642  2.2748
  528MOL0     H72851   8.387   9.823  10.792 -2.5401  0.2738  0.0012
  528MOL0     H72852   8.456   9.674  10.669  0.0538  2.5725  0.1627
  528MOL0     H72853   8.604   9.762  10.691 -2.1930  1.3041 -2.4061
  528MOL0     H72854   8.649   9.629  10.515 -0.1210  0.9936  0.0918
  528MOL0     H72855   8.576   9.482  10.591  1.4802 -2.5284  2.4129
  528MOL0     H72856   8.836   9.615  10.656 -0.9052  0.7189 -1.1660
  528MOL0     H72857   8.766   9.477  10.757  0.1909 -1.3713 -0.5561
  528MOL0     H72858   8.869   9.422  10.477  0.5914  1.5122  0.0532
  528MOL0     H72859   8.804   9.307  10.593  0.2889  0.0567  2.8060
  528MOL0     H72860   9.218   9.350  10.675  0.3667 -0.5635  0.2224
  528MOL0     H72861   8.531   9.522  11.068  1.8019  1.4154 -2.4400
  528MOL0     H72862   8.317   9.526  11.310 -1.1377  1.5386 -1.4937
  528MOL0     H72863   8.501   9.547  11.307  1.5773  3.8708  1.3472
  528MOL0     H72864   8.395   9.669  11.360 -0.4906  2.0138 -1.0986
  529MOL0     O72865  11.241   0.795   9.605 -0.5422 -0.8492 -0.0578
  529MOL0     C72866  11.185   0.905   9.578 -0.2689  0.7926  0.1690
  529MOL0     O72867  11.237   1.004   9.500 -0.0298  0.1929 -1.1986
  529MOL0     C72868  11.358   0.978   9.446  0.1764 -0.0534  0.1251
  529MOL0     C72869  11.476   1.003   9.519  0.4882 -0.3084 -0.3322
  529MOL0     C72870  11.602   0.995   9.454  0.1253  0.3766  0.4583
  529MOL0     C72871  11.612   0.974   9.308  0.6307 -0.3344  0.3630
  529MOL0     O72872  11.737   0.986   9.261 -0.4076  0.2947 -0.1794
  529MOL0     C72873  11.759   0.976   9.121  0.4629  0.4219 -0.2629
  529MOL0     C72874  11.904   0.999   9.070  0.0432 -0.3871 -0.4876
  529MOL0     C72875  12.007   0.915   9.163 -0.4989  1.2886  0.2522
  529MOL0     C72876  12.123   0.865   9.078 -0.3060  0.2940  0.8580
  529MOL0     C72877  12.237   0.815   9.178  0.9895 -0.5186 -0.6315
  529MOL0     C72878  12.341   0.738   9.104  0.1264 -0.3752 -0.5198
  529MOL0     C72879  12.470   0.729   9.190 -0.0324 -0.1468  0.5597
  529MOL0     C72880  12.573   0.651   9.117 -0.5009 -0.4820  0.0265
  529MOL0     N72881  12.700   0.683   9.186 -0.5057  0.2461 -0.2294
  529MOL0     C72882  12.728   0.648   9.316  0.7285  0.3151 -0.3933
  529MOL0     C72883  12.862   0.667   9.328  0.1421  0.2466 -0.4880
  529MOL0     C72884  12.950   0.619   9.451  0.0043 -0.1250 -0.1475
  529MOL0     C72885  13.106   0.641   9.450 -0.0193  0.2773  0.5380
  529MOL0     C72886  13.173   0.508   9.414 -0.4894  0.1002 -0.2857
  529MOL0     C72887  13.324   0.515   9.453  0.6658  0.4905  0.2106
  529MOL0     O72888  13.341   0.520   9.601 -0.0080 -0.2069 -0.1790
  529MOL0     C72889  13.480   0.532   9.646  0.5815  0.5423  0.1785
  529MOL0     C72890  13.590   0.539   9.566 -0.2454 -0.4614  0.8447
  529MOL0     C72891  13.721   0.547   9.617  0.0924  0.5074 -0.7682
  529MOL0     C72892  13.828   0.587   9.517  0.3310  0.3387 -0.0518
  529MOL0     C72893  13.739   0.561   9.756 -0.0712  0.4842 -0.0743
  529MOL0     C72894  13.863   0.586   9.823  0.4815  0.5115  1.7051
  529MOL0     O72895  13.974   0.552   9.762  0.2473 -0.2072  0.3565
  529MOL0     C72896  14.102   0.550   9.818  0.0529 -0.1891 -0.0469
  529MOL0     C72897  14.207   0.512   9.724  0.3411  0.4309 -0.4246
  529MOL0     C72898  14.334   0.492   9.768 -0.3313  0.1164  0.1506
  529MOL0     C72899  14.370   0.522   9.901  0.1440  0.2966  0.2793
  529MOL0     O72900  14.504   0.517   9.929 -0.0057 -1.0243  0.2861
  529MOL0     C72901  14.549   0.490  10.059  0.2240 -0.3244  0.2434
  529MOL0     C72902  14.694   0.430  10.051 -0.1566 -0.3991 -0.2055
  529MOL0     C72903  14.705   0.288  10.003  0.5954  0.5110  0.5291
  529MOL0     C72904  14.842   0.274   9.941  0.0418 -0.0021 -0.3970
  529MOL0     C72905  14.870   0.141   9.878  0.5543  0.7381  0.2371
  529MOL0     C72906  14.839   0.024   9.967  0.2448  0.0892 -0.3896
  529MOL0     C72907  14.873  -0.110   9.904  0.8372 -0.1876  0.0450
  529MOL0     C72908  14.749  -0.163   9.829 -0.0216  0.3964  0.4705
  529MOL0    Cl72909  14.630  -0.238   9.934 -0.0995 -0.1041  0.3452
  529MOL0     C72910  14.277   0.556   9.993  0.0882 -0.2637  0.8332
  529MOL0     C72911  14.143   0.573   9.957  0.9160  0.1473 -0.5556
  529MOL0     O72912  13.860   0.652   9.923  0.1137  0.8091 -0.7525
  529MOL0     C72913  13.625   0.552   9.837  0.0770  0.5315  0.3880
  529MOL0     C72914  13.496   0.543   9.781 -0.0064 -1.0026  0.5580
  529MOL0     N72915  12.904   0.717   9.210 -0.7995  0.5514  0.3546
  529MOL0     N72916  12.812   0.728   9.125 -1.2985 -0.5246 -0.6924
  529MOL0     C72917  11.486   0.948   9.240 -0.3711 -0.5396 -0.7234
  529MOL0     C72918  11.369   0.950   9.312  0.6633 -0.3297  0.1603
  529MOL0     C72919  11.053   0.918   9.642  0.6145 -0.2716  0.1237
  529MOL0     C72920  10.973   1.027   9.588 -0.1608  0.5227  0.4316
  529MOL0     C72921  10.853   1.045   9.646  0.6108 -0.3773  0.4246
  529MOL0     C72922  10.799   0.971   9.750  0.7608  0.1647  0.0767
  529MOL0     O72923  10.681   0.984   9.813  0.7981 -0.2093 -0.5073
  529MOL0     C72924  10.608   1.102   9.805 -0.2136  0.5845  0.5013
  529MOL0     C72925  10.460   1.075   9.759 -0.5292 -0.2093  0.0659
  529MOL0     C72926  10.376   1.200   9.779  0.3542  1.1833  0.1309
  529MOL0     C72927  10.236   1.164   9.745 -0.3874  0.0686  0.2632
  529MOL0     C72928  10.140   1.281   9.749  0.2679  0.3630  0.9453
  529MOL0     C72929  10.074   1.379   9.734 -0.2391  0.8389  0.6722
  529MOL0     C72930  10.873   0.871   9.800 -0.7104 -0.0400  0.4607
  529MOL0     C72931  10.997   0.841   9.746  0.7517  0.4755 -0.1898
  529MOL0     C72932  11.073   0.720   9.812 -0.1220 -0.2829 -0.7884
  529MOL0     H72933  11.471   1.032   9.623 -1.3353  1.6946 -0.8912
  529MOL0     H72934  11.691   1.030   9.506  0.2481 -1.4567  1.6081
  529MOL0     H72935  11.693   1.046   9.069  1.2005  1.3529  0.0115
  529MOL0     H72936  11.741   0.873   9.090  2.8413 -0.1845  0.2244
  529MOL0     H72937  11.914   0.968   8.966 -0.3802 -0.9230 -0.3752
  529MOL0     H72938  11.911   1.108   9.082  0.5193 -0.4329 -0.3481
  529MOL0     H72939  12.054   0.971   9.244  4.5365  0.1025 -1.4897
  529MOL0     H72940  11.950   0.830   9.204  0.7191 -0.6806 -1.9054
  529MOL0     H72941  12.096   0.779   9.016  1.1070  0.9295 -0.7143
  529MOL0     H72942  12.146   0.947   9.010 -1.5028  1.0976  1.3842
  529MOL0     H72943  12.187   0.749   9.250 -1.1061  0.3832 -1.1904
  529MOL0     H72944  12.283   0.897   9.233  0.9155 -0.4759 -0.6333
  529MOL0     H72945  12.299   0.638   9.092 -2.7473  0.9574 -2.7407
  529MOL0     H72946  12.360   0.775   9.003 -0.7364 -1.2422 -1.0203
  529MOL0     H72947  12.451   0.687   9.290 -0.8930 -0.2033  0.3848
  529MOL0     H72948  12.497   0.832   9.217  0.7357  0.0768 -0.9888
  529MOL0     H72949  12.554   0.543   9.117  1.3341 -0.8692  1.9212
  529MOL0     H72950  12.589   0.689   9.015 -3.0137  0.2506 -0.1581
  529MOL0     H72951  12.657   0.603   9.384  0.0738  0.6800 -0.8262
  529MOL0     H72952  12.924   0.518   9.482 -0.6353  0.1076  0.0931
  529MOL0     H72953  12.906   0.679   9.531 -0.8915 -0.7214 -0.1771
  529MOL0     H72954  13.141   0.706   9.370  1.9476  1.5542  2.3241
  529MOL0     H72955  13.139   0.689   9.543  2.3084  3.2780 -1.6534
  529MOL0     H72956  13.139   0.427   9.480  0.7577  0.7078  1.1456
  529MOL0     H72957  13.154   0.489   9.308  0.6541  2.3267 -0.9421
  529MOL0     H72958  13.374   0.430   9.405  0.6895 -0.5116  1.9362
  529MOL0     H72959  13.374   0.598   9.404  0.5483  0.6674  0.3888
  529MOL0     H72960  13.577   0.523   9.459 -0.6114 -0.3743  0.8764
  529MOL0     H72961  13.797   0.615   9.416 -1.2544 -0.3182  0.2230
  529MOL0     H72962  13.895   0.501   9.514 -0.0762 -0.0169  0.6667
  529MOL0     H72963  13.883   0.673   9.557 -2.1276  2.6020 -1.2126
  529MOL0     H72964  14.181   0.493   9.620  2.9101  1.4218 -1.3218
  529MOL0     H72965  14.413   0.460   9.701 -0.8871 -3.8188  1.1331
  529MOL0     H72966  14.547   0.580  10.122  0.2696  0.5266 -0.9411
  529MOL0     H72967  14.488   0.405  10.092 -1.1862  0.6115  0.1493
  529MOL0     H72968  14.747   0.494   9.980 -4.6274 -0.7064 -4.3462
  529MOL0     H72969  14.751   0.436  10.144  2.0702 -3.5911 -1.1805
  529MOL0     H72970  14.624   0.261   9.934  1.5473 -0.9077 -0.1010
  529MOL0     H72971  14.692   0.218  10.086  0.0251  0.2835  0.2591
  529MOL0     H72972  14.925   0.302  10.006 -0.3454 -0.2323  0.2088
  529MOL0     H72973  14.846   0.333   9.849  0.4567  0.2195 -0.2371
  529MOL0     H72974  14.824   0.143   9.778  0.8307  0.0196  0.0868
  529MOL0     H72975  14.978   0.136   9.859  0.0320 -0.9011 -3.2325
  529MOL0     H72976  14.735   0.023  10.001  0.9642  1.2732  2.0415
  529MOL0     H72977  14.898   0.037  10.058 -3.4662  2.2349  1.9679
  529MOL0     H72978  14.913  -0.189   9.969  2.8380 -1.0179 -2.0542
  529MOL0     H72979  14.949  -0.094   9.827 -0.3739 -0.3537 -1.2314
  529MOL0     H72980  14.782  -0.245   9.764 -0.7737 -0.1581  0.7796
  529MOL0     H72981  14.696  -0.093   9.765  0.5002 -0.3988 -0.8917
  529MOL0     H72982  14.308   0.552  10.097 -1.8568  1.1588  1.5185
  529MOL0     H72983  14.069   0.595  10.034  1.1455 -1.8061  0.2993
  529MOL0     H72984  13.641   0.544   9.944 -1.0742 -1.1113  0.4737
  529MOL0     H72985  13.415   0.537   9.854 -1.4889 -1.4171 -1.0428
  529MOL0     H72986  11.481   0.923   9.134 -2.2415  2.8018 -1.5674
  529MOL0     H72987  11.278   0.924   9.258  1.1988  0.8021 -1.3792
  529MOL0     H72988  11.013   1.084   9.505 -1.8308 -1.8312 -2.1340
  529MOL0     H72989  10.792   1.125   9.604  1.6708  2.2297  3.4688
  529MOL0     H72990  10.596   1.145   9.905 -1.1944 -0.5136  0.8695
  529MOL0     H72991  10.645   1.176   9.734 -1.0782 -1.7829 -2.6564
  529MOL0     H72992  10.419   0.987   9.811  0.6135 -1.2583 -0.7302
  529MOL0     H72993  10.461   1.058   9.651  0.5254  0.2654 -0.0103
  529MOL0     H72994  10.374   1.226   9.885 -0.9836 -4.2998  1.7838
  529MOL0     H72995  10.410   1.278   9.710 -1.1340 -0.0046 -2.0706
  529MOL0     H72996  10.204   1.079   9.807  2.6066 -2.6851 -1.6365
  529MOL0     H72997  10.226   1.131   9.641 -2.2027 -1.6455  0.9234
  529MOL0     H72998  10.031   1.471   9.699  0.0782 -0.0453 -2.2891
  529MOL0     H72999  10.835   0.817   9.887 -1.5814 -0.7911 -0.3669
  529MOL0     H73000  11.174   0.743   9.845  0.0820 -3.6622  1.4187
  529MOL0     H73001  11.023   0.702   9.908  1.2645 -0.9577 -0.1771
  529MOL0     H73002  11.071   0.622   9.762 -0.7240 -1.1221  0.8040
  530MOL0     O73003   4.791   9.858   2.531 -1.0129  0.7707 -0.0526
  530MOL0     C73004   4.784   9.961   2.585 -0.1098  0.1117 -1.2944
  530MOL0     O73005   4.860   9.999   2.690  0.8144 -0.5566 -0.6528
  530MOL0     C73006   4.979   9.936   2.733 -0.7693 -0.7951  0.6379
  530MOL0     C73007   5.012   9.801   2.713  0.1234 -0.1377 -0.6113
  530MOL0     C73008   5.130   9.758   2.771 -0.6751  0.1056  0.9686
  530MOL0     C73009   5.221   9.838   2.843 -0.0621 -0.5377 -0.5938
  530MOL0     O73010   5.340   9.801   2.897  0.3355  0.3978  0.5427
  530MOL0     C73011   5.405   9.694   2.837  0.5426 -0.0343  0.2406
  530MOL0     C73012   5.388   9.560   2.907 -0.2318 -0.8700 -0.1582
  530MOL0     C73013   5.439   9.592   3.046  0.5168 -0.3328  0.0217
  530MOL0     C73014   5.328   9.601   3.151 -0.9731  0.3391  0.3055
  530MOL0     C73015   5.378   9.598   3.302  0.7070 -0.3272  1.3371
  530MOL0     C73016   5.250   9.575   3.387  0.2919  0.1571  0.1347
  530MOL0     C73017   5.300   9.588   3.533 -0.2807 -0.6528  0.2572
  530MOL0     C73018   5.293   9.727   3.590 -0.0168 -0.2615 -0.5443
  530MOL0     N73019   5.161   9.786   3.604 -0.2330  0.2437 -0.4931
  530MOL0     C73020   5.124   9.864   3.707  0.0790 -0.5670  0.6932
  530MOL0     C73021   5.009   9.923   3.673  0.2844  0.0739  0.3182
  530MOL0     C73022   4.919  10.012   3.766 -0.3611 -0.3411  0.3401
  530MOL0     C73023   4.784   9.960   3.798 -0.0636  0.2072  0.1599
  530MOL0     C73024   4.794   9.823   3.867 -1.0979 -0.6756 -0.1132
  530MOL0     C73025   4.669   9.789   3.943  0.1545 -0.3808 -0.6006
  530MOL0     O73026   4.654   9.864   4.063 -0.3059 -0.3942  1.2239
  530MOL0     C73027   4.617   9.798   4.177  0.4572  0.3408 -0.2481
  530MOL0     C73028   4.711   9.725   4.249  0.0298  0.1602 -0.1504
  530MOL0     C73029   4.674   9.653   4.365  0.0339  0.1831  0.2321
  530MOL0     C73030   4.783   9.581   4.440 -0.0533  0.4940 -0.0918
  530MOL0     C73031   4.534   9.655   4.408  0.5946  0.0552  0.0937
  530MOL0     C73032   4.486   9.571   4.530  0.2971  0.1075  0.2189
  530MOL0     O73033   4.360   9.608   4.572 -0.2504  0.0859 -0.6751
  530MOL0     C73034   4.317   9.551   4.689  0.0280 -0.7927  0.3440
  530MOL0     C73035   4.286   9.416   4.696 -0.3181 -0.4035  0.0360
  530MOL0     C73036   4.230   9.360   4.815 -0.9178 -0.4258  0.8950
  530MOL0     C73037   4.203   9.439   4.931  1.0363 -0.7144 -0.0533
  530MOL0     O73038   4.145   9.390   5.045 -0.3517  0.2897  0.1962
  530MOL0     C73039   4.157   9.249   5.074 -0.3845 -0.0710  0.0256
  530MOL0     C73040   4.294   9.192   5.097  0.5294  0.0402  0.6450
  530MOL0     C73041   4.358   9.245   5.225  0.3074  0.1505 -0.1231
  530MOL0     C73042   4.500   9.187   5.238 -0.3601  0.3201 -0.6486
  530MOL0     C73043   4.568   9.201   5.379  0.1181 -0.4027  0.3910
  530MOL0     C73044   4.623   9.346   5.383 -0.3461  0.2689 -0.1783
  530MOL0     C73045   4.654   9.375   5.533 -0.0886 -0.2063 -0.0833
  530MOL0     C73046   4.528   9.413   5.615  0.7753 -0.1588 -0.2712
  530MOL0    Cl73047   4.505   9.587   5.596 -0.0817  0.1071  0.0917
  530MOL0     C73048   4.214   9.576   4.911  0.2674  0.0884 -0.7690
  530MOL0     C73049   4.270   9.634   4.799 -0.5372  0.1394 -0.6959
  530MOL0     O73050   4.557   9.488   4.582 -0.4495  0.3150 -0.2635
  530MOL0     C73051   4.444   9.743   4.341 -1.3214  0.4160 -0.4865
  530MOL0     C73052   4.485   9.805   4.227 -1.2524  0.3259  0.6267
  530MOL0     N73053   4.986   9.909   3.537 -0.1539  0.8753 -0.0273
  530MOL0     N73054   5.075   9.815   3.500 -0.3555  0.0513  0.5713
  530MOL0     C73055   5.193   9.976   2.862  0.4532 -0.7900 -0.0588
  530MOL0     C73056   5.068  10.018   2.807  0.1230 -0.0214 -0.0635
  530MOL0     C73057   4.669  10.045   2.546  0.2455 -0.0639  1.4725
  530MOL0     C73058   4.653  10.172   2.610  0.1833 -0.1826 -0.8773
  530MOL0     C73059   4.536  10.248   2.587 -0.7761 -0.0610  0.4571
  530MOL0     C73060   4.441  10.214   2.500  0.8140  0.9592  0.3290
  530MOL0     O73061   4.334  10.292   2.468 -0.7015 -0.4920 -0.4814
  530MOL0     C73062   4.257  10.360   2.575 -0.6540  0.2253  0.6236
  530MOL0     C73063   4.109  10.338   2.553 -0.7275 -0.7570  0.1387
  530MOL0     C73064   4.021  10.376   2.683 -0.0004  0.1466  0.1850
  530MOL0     C73065   3.872  10.387   2.639 -0.1215  0.4633  0.0777
  530MOL0     C73066   3.775  10.377   2.745  0.2209  0.3251  0.6679
  530MOL0     C73067   3.700  10.348   2.834 -0.2838 -1.1004  1.1123
  530MOL0     C73068   4.450  10.088   2.439  0.5428  0.1767 -0.7243
  530MOL0     C73069   4.557  10.004   2.461 -0.1893  0.1397 -0.4704
  530MOL0     C73070   4.538   9.871   2.405 -1.1986 -1.4001  0.6806
  530MOL0     H73071   4.961   9.726   2.654 -0.9651  1.9036 -2.3878
  530MOL0     H73072   5.155   9.653   2.761 -3.3766 -0.7822  2.5121
  530MOL0     H73073   5.511   9.720   2.845  0.3575  0.4896  1.1085
  530MOL0     H73074   5.380   9.690   2.731  0.8859  1.1147  0.1034
  530MOL0     H73075   5.285   9.525   2.916 -0.3837  0.0252  2.2238
  530MOL0     H73076   5.443   9.476   2.864 -0.9562 -1.0685 -0.7130
  530MOL0     H73077   5.509   9.512   3.071 -0.6812 -1.1286  0.9588
  530MOL0     H73078   5.497   9.683   3.059 -1.3521  0.6522  2.0789
  530MOL0     H73079   5.269   9.690   3.128 -0.7203  1.1767  2.6384
  530MOL0     H73080   5.264   9.513   3.136  1.0779 -1.2438  0.4675
  530MOL0     H73081   5.410   9.701   3.321  0.4004  0.4939 -1.9331
  530MOL0     H73082   5.461   9.529   3.320  0.5270 -0.9266 -0.0331
  530MOL0     H73083   5.182   9.655   3.357  0.8729  1.4549  2.0942
  530MOL0     H73084   5.208   9.476   3.370  1.9628 -0.7383  0.9014
  530MOL0     H73085   5.407   9.568   3.537 -0.6537 -2.8536  1.4496
  530MOL0     H73086   5.250   9.523   3.606 -1.5220  0.4019  0.3942
  530MOL0     H73087   5.346   9.723   3.685  3.6161 -2.0825 -2.4423
  530MOL0     H73088   5.355   9.794   3.528  0.2433  1.8291  1.8205
  530MOL0     H73089   5.185   9.879   3.795 -0.2528 -1.0119  0.9998
  530MOL0     H73090   4.911  10.109   3.717  0.6913 -0.4378 -0.0502
  530MOL0     H73091   4.966  10.031   3.863 -0.6112 -0.4568  0.4851
  530MOL0     H73092   4.745  10.038   3.864  1.7449  2.7477 -1.6178
  530MOL0     H73093   4.717   9.932   3.716  1.3989 -2.5167 -0.2231
  530MOL0     H73094   4.819   9.745   3.794  0.9050 -0.9187  0.7814
  530MOL0     H73095   4.881   9.829   3.932 -0.9323 -2.2538 -0.1335
  530MOL0     H73096   4.591   9.803   3.868  0.9751  1.1933 -1.1996
  530MOL0     H73097   4.675   9.682   3.965  0.5472 -0.2088  0.1694
  530MOL0     H73098   4.814   9.703   4.224 -0.1713  0.8262 -1.6677
  530MOL0     H73099   4.778   9.474   4.420  1.1664  0.7037 -1.6362
  530MOL0     H73100   4.788   9.608   4.546  1.5038 -0.7501  0.1889
  530MOL0     H73101   4.880   9.617   4.407  0.5460 -1.1074 -0.1398
  530MOL0     H73102   4.320   9.349   4.618 -0.0761 -1.0291  0.6674
  530MOL0     H73103   4.206   9.255   4.808  1.7490 -1.0108 -1.2054
  530MOL0     H73104   4.103   9.224   5.166  0.0056  0.3561  0.3783
  530MOL0     H73105   4.099   9.190   5.003  1.3506 -1.3383 -0.4049
  530MOL0     H73106   4.282   9.083   5.107  2.9767 -0.2730  0.7021
  530MOL0     H73107   4.353   9.223   5.010 -1.0506  0.4269 -0.3340
  530MOL0     H73108   4.304   9.215   5.315  0.1379  0.5660 -0.0844
  530MOL0     H73109   4.372   9.353   5.216  4.2055 -0.1729  0.5464
  530MOL0     H73110   4.568   9.230   5.164  1.6422  0.5444  1.2138
  530MOL0     H73111   4.497   9.079   5.217 -1.0873  0.5514 -1.8656
  530MOL0     H73112   4.501   9.175   5.462 -0.0523  0.9325  0.6838
  530MOL0     H73113   4.659   9.140   5.370 -0.1412 -0.6571 -0.6838
  530MOL0     H73114   4.555   9.425   5.350 -2.3943 -1.2483  0.1554
  530MOL0     H73115   4.711   9.346   5.318 -2.3923 -3.4260 -3.3724
  530MOL0     H73116   4.727   9.455   5.549  1.6457 -1.7291  0.0068
  530MOL0     H73117   4.698   9.285   5.578  2.7630  1.1684  0.1462
  530MOL0     H73118   4.537   9.391   5.722 -3.2126 -4.0212 -0.4146
  530MOL0     H73119   4.435   9.363   5.586  0.8715 -1.7873  1.9157
  530MOL0     H73120   4.176   9.641   4.989  1.0242 -1.2479  0.7827
  530MOL0     H73121   4.295   9.740   4.799 -0.0361  0.0381  0.2464
  530MOL0     H73122   4.352   9.771   4.392  0.5269  2.8431  1.7861
  530MOL0     H73123   4.407   9.862   4.176  1.9110  2.0022 -2.8053
  530MOL0     H73124   5.256  10.038   2.925 -1.8264 -0.8527  2.4500
  530MOL0     H73125   5.023  10.114   2.834  0.8178  0.5211 -0.7902
  530MOL0     H73126   4.716  10.206   2.691 -1.2278  2.0709 -0.6232
  530MOL0     H73127   4.528  10.346   2.635 -0.4740 -0.6598  1.7774
  530MOL0     H73128   4.281  10.332   2.678  0.7750 -1.2188 -0.0493
  530MOL0     H73129   4.291  10.464   2.567 -1.1041  0.2553 -1.5753
  530MOL0     H73130   4.093  10.231   2.535  1.5825 -0.8844 -1.6144
  530MOL0     H73131   4.075  10.395   2.466  1.2743  1.5409  0.7699
  530MOL0     H73132   4.038  10.295   2.755  2.3718 -2.3017 -2.8566
  530MOL0     H73133   4.054  10.470   2.730  2.4000 -0.4304 -0.2065
  530MOL0     H73134   3.856  10.311   2.563 -2.1187 -0.3821  1.2894
  530MOL0     H73135   3.848  10.481   2.587 -1.9733 -0.0422 -0.0345
  530MOL0     H73136   3.626  10.328   2.909 -0.7528  0.4494  1.1097
  530MOL0     H73137   4.366  10.060   2.376  0.8296  3.6197 -2.8997
  530MOL0     H73138   4.625   9.845   2.344 -1.2672 -1.8592  0.7703
  530MOL0     H73139   4.532   9.797   2.486  0.2295 -1.6080  0.6206
  530MOL0     H73140   4.448   9.865   2.343 -3.8865 -0.2108  4.1263
  531MOL0     O73141   7.631   0.945  10.580  0.3892 -0.0511  0.3101
  531MOL0     C73142   7.695   1.045  10.576  0.2266 -0.9145  1.1667
  531MOL0     O73143   7.647   1.175  10.593 -0.1026 -0.2644 -0.3827
  531MOL0     C73144   7.539   1.192  10.682 -0.3817  0.6883  0.8932
  531MOL0     C73145   7.448   1.290  10.648  0.5080  0.8789  0.1457
  531MOL0     C73146   7.344   1.332  10.738 -0.4185  0.7684  0.3110
  531MOL0     C73147   7.327   1.257  10.853  0.6771 -0.5250 -1.1222
  531MOL0     O73148   7.240   1.330  10.937  0.4463  0.3406  1.1479
  531MOL0     C73149   7.263   1.301  11.077 -0.1999 -0.1271  0.1035
  531MOL0     C73150   7.162   1.354  11.167  0.7920 -0.1791 -0.2664
  531MOL0     C73151   7.025   1.282  11.157 -0.3049  0.0572  0.2313
  531MOL0     C73152   6.950   1.317  11.024 -0.2931  0.0493 -0.4262
  531MOL0     C73153   6.802   1.286  11.029  0.6624 -0.4606  0.5115
  531MOL0     C73154   6.781   1.133  11.027 -0.6439  0.1558  0.2994
  531MOL0     C73155   6.635   1.090  11.076 -0.4846  0.0008 -0.4587
  531MOL0     C73156   6.540   1.138  10.971 -0.3716  0.2320 -0.1199
  531MOL0     N73157   6.419   1.065  10.965 -0.8775  0.1923  0.4200
  531MOL0     C73158   6.308   1.098  10.894  0.1840 -0.8803  0.0732
  531MOL0     C73159   6.225   0.994  10.914  0.3643 -0.5977 -0.4717
  531MOL0     C73160   6.082   0.985  10.864 -0.7588  0.8736  0.2685
  531MOL0     C73161   6.045   0.842  10.815 -0.6329 -0.5550  0.0258
  531MOL0     C73162   5.979   0.760  10.934  0.4007 -1.2458 -0.2754
  531MOL0     C73163   5.905   0.626  10.893 -0.1644 -0.4588 -0.5439
  531MOL0     O73164   5.783   0.669  10.834  0.7200  0.3633 -0.1773
  531MOL0     C73165   5.697   0.577  10.790  0.3707  0.9117 -0.1628
  531MOL0     C73166   5.569   0.626  10.767  0.2454 -0.2299 -1.2408
  531MOL0     C73167   5.465   0.533  10.742  0.0463  0.0557  0.1991
  531MOL0     C73168   5.329   0.601  10.738 -0.7178 -0.4988  0.1094
  531MOL0     C73169   5.489   0.394  10.728  0.1983  0.2729 -0.1190
  531MOL0     C73170   5.372   0.302  10.690 -0.7856  1.2581  0.3701
  531MOL0     O73171   5.252   0.325  10.747 -0.1848  0.2436 -0.3525
  531MOL0     C73172   5.138   0.271  10.701 -0.5931 -0.4416  0.8062
  531MOL0     C73173   5.063   0.343  10.609  0.3631  0.5246 -0.4313
  531MOL0     C73174   4.939   0.290  10.572  0.3735  0.4167 -0.0849
  531MOL0     C73175   4.891   0.170  10.630  0.2785 -1.6778 -0.9235
  531MOL0     O73176   4.786   0.100  10.595  1.2745  0.2921 -0.0333
  531MOL0     C73177   4.665   0.172  10.547  0.1650 -0.7291  0.6087
  531MOL0     C73178   4.545   0.078  10.569  0.1506  0.2311  0.3683
  531MOL0     C73179   4.561  -0.040  10.460  0.2692 -0.2470 -0.6845
  531MOL0     C73180   4.445  -0.141  10.476  0.3100  0.5101  0.2634
  531MOL0     C73181   4.471  -0.257  10.373  0.2927  0.9678 -0.4283
  531MOL0     C73182   4.421  -0.234  10.234 -0.5079  0.9504 -0.1507
  531MOL0     C73183   4.446  -0.356  10.135 -0.5120 -0.1366  0.0452
  531MOL0     C73184   4.336  -0.461  10.126 -0.3316 -0.0199  0.3606
  531MOL0    Cl73185   4.395  -0.616  10.073 -0.1618  0.1235 -0.3276
  531MOL0     C73186   4.971   0.098  10.716  0.3657  0.0659  0.3993
  531MOL0     C73187   5.101   0.144  10.740  0.6765  1.0596  0.5729
  531MOL0     O73188   5.395   0.211  10.602 -0.1047 -0.3063 -0.1305
  531MOL0     C73189   5.622   0.347  10.748  1.2083  0.2089  0.0990
  531MOL0     C73190   5.723   0.439  10.775 -0.5116  0.3213  0.4404
  531MOL0     N73191   6.282   0.903  11.006  0.2551  0.0909  0.3300
  531MOL0     N73192   6.401   0.943  11.022 -0.2772  0.2442 -0.5308
  531MOL0     C73193   7.414   1.157  10.890  0.2558 -0.1684 -0.3086
  531MOL0     C73194   7.519   1.128  10.800 -0.1626 -0.2445 -0.2091
  531MOL0     C73195   7.830   1.029  10.518  0.1110 -0.1297  0.4873
  531MOL0     C73196   7.913   1.145  10.529 -0.3252 -0.9684 -0.4951
  531MOL0     C73197   8.042   1.143  10.476  0.3225 -0.5806  0.5245
  531MOL0     C73198   8.094   1.028  10.410  0.4837 -0.3242 -0.3709
  531MOL0     O73199   8.221   1.047  10.356 -0.1205  0.2235 -0.3162
  531MOL0     C73200   8.288   0.936  10.300 -0.6582  0.6851 -0.2993
  531MOL0     C73201   8.338   0.831  10.402 -1.2701  0.7013  0.3372
  531MOL0     C73202   8.440   0.885  10.508  0.3819  0.0292 -0.0218
  531MOL0     C73203   8.425   0.829  10.650 -0.1475  0.6428  0.4483
  531MOL0     C73204   8.306   0.877  10.723 -0.2951 -0.2355  0.9729
  531MOL0     C73205   8.199   0.920  10.756  0.0346  0.6908 -0.2675
  531MOL0     C73206   8.011   0.918  10.390 -0.7186 -0.5240 -0.4268
  531MOL0     C73207   7.886   0.916  10.451 -0.0806 -0.0751 -0.3123
  531MOL0     C73208   7.802   0.794  10.430 -0.2873  0.1653 -0.5807
  531MOL0     H73209   7.458   1.341  10.553 -0.5234 -1.7738 -1.5135
  531MOL0     H73210   7.295   1.426  10.716 -1.9606  0.0440  0.5288
  531MOL0     H73211   7.360   1.337  11.115  0.1746 -3.4328  2.8623
  531MOL0     H73212   7.252   1.192  11.088 -3.5263  0.0730 -0.3511
  531MOL0     H73213   7.206   1.358  11.268  1.4717  0.0256 -0.5631
  531MOL0     H73214   7.142   1.458  11.142  1.7954 -0.0370 -0.5248
  531MOL0     H73215   7.034   1.173  11.161  0.8115  0.1604  1.3551
  531MOL0     H73216   6.969   1.319  11.243  1.1059 -2.0847  2.1708
  531MOL0     H73217   6.954   1.422  10.993 -0.5095  0.3511  0.5472
  531MOL0     H73218   7.002   1.257  10.949  3.8020  2.1501  0.4308
  531MOL0     H73219   6.758   1.322  10.936  1.3306 -2.1034 -0.4849
  531MOL0     H73220   6.763   1.333  11.120  0.1989 -0.1853  0.1792
  531MOL0     H73221   6.800   1.101  10.923 -0.2744  0.1920  0.3562
  531MOL0     H73222   6.856   1.083  11.088  0.4412  1.5533  0.1435
  531MOL0     H73223   6.618   1.143  11.170  0.3183  2.7573 -1.7494
  531MOL0     H73224   6.639   0.984  11.103  0.3933  0.5911  1.9768
  531MOL0     H73225   6.525   1.238  11.015  0.2985 -0.8861  2.9266
  531MOL0     H73226   6.587   1.157  10.874  2.7149 -1.5844  0.8842
  531MOL0     H73227   6.284   1.173  10.819 -1.7349 -0.2577  1.2214
  531MOL0     H73228   6.072   1.039  10.770 -1.5883  0.2199 -0.0285
  531MOL0     H73229   6.021   1.022  10.947  1.1476  0.8904  1.7542
  531MOL0     H73230   5.977   0.854  10.730  2.8618 -0.6521 -3.0567
  531MOL0     H73231   6.133   0.791  10.774 -2.2867 -1.0193 -3.3690
  531MOL0     H73232   6.066   0.741  10.998 -0.0702  1.6374  1.4034
  531MOL0     H73233   5.915   0.832  10.987  1.7898  0.0571 -0.2861
  531MOL0     H73234   5.967   0.569  10.823  1.6415  1.6832 -0.8006
  531MOL0     H73235   5.879   0.564  10.980  0.2236 -1.2823 -1.0036
  531MOL0     H73236   5.558   0.734  10.771  2.4257  0.0590 -1.6734
  531MOL0     H73237   5.342   0.709  10.726 -1.7126 -0.2817  0.8600
  531MOL0     H73238   5.262   0.591  10.824 -4.1763  0.1592 -2.3062
  531MOL0     H73239   5.275   0.558  10.653  1.0911  0.3675 -1.5652
  531MOL0     H73240   5.108   0.435  10.571 -0.0351  1.1018  0.4586
  531MOL0     H73241   4.875   0.349  10.507 -1.3723  0.5113  1.6099
  531MOL0     H73242   4.651   0.259  10.612 -0.6570 -0.2450 -0.1948
  531MOL0     H73243   4.672   0.207  10.444 -1.8419 -0.5627  0.4850
  531MOL0     H73244   4.544   0.033  10.669  2.9620 -0.7258  0.0765
  531MOL0     H73245   4.450   0.131  10.566 -0.5866 -1.0885 -0.1938
  531MOL0     H73246   4.658  -0.088  10.477 -1.1998 -2.8160  1.1168
  531MOL0     H73247   4.561   0.007  10.362  0.5974 -0.8426 -0.9764
  531MOL0     H73248   4.345  -0.101  10.456 -0.3172 -1.9194 -2.0608
  531MOL0     H73249   4.449  -0.171  10.581  1.5998  2.8743  0.9405
  531MOL0     H73250   4.575  -0.291  10.384  0.1968  0.6037 -0.6425
  531MOL0     H73251   4.404  -0.331  10.418  1.3846  0.9301  1.2293
  531MOL0     H73252   4.470  -0.144  10.196 -1.6157  1.5012 -0.3169
  531MOL0     H73253   4.315  -0.207  10.231 -1.1728 -1.4624 -2.1456
  531MOL0     H73254   4.541  -0.395  10.171 -1.0025  1.9416  4.2738
  531MOL0     H73255   4.458  -0.321  10.032  0.4924 -2.2994 -0.6135
  531MOL0     H73256   4.257  -0.423  10.061  0.2623 -1.1639 -1.1246
  531MOL0     H73257   4.283  -0.481  10.219 -2.4404 -0.0703 -0.8006
  531MOL0     H73258   4.924   0.008  10.754 -0.3986 -0.2713 -1.2664
  531MOL0     H73259   5.163   0.082  10.803 -1.8690 -0.5399  1.6711
  531MOL0     H73260   5.635   0.241  10.729 -3.2161 -0.5207 -0.0103
  531MOL0     H73261   5.828   0.412  10.768 -0.5204  0.6969 -1.7467
  531MOL0     H73262   7.399   1.090  10.975 -2.6667 -2.2648 -2.2792
  531MOL0     H73263   7.600   1.065  10.835  0.6277  0.5530 -0.5690
  531MOL0     H73264   7.873   1.232  10.580  0.2068 -1.3218  0.5621
  531MOL0     H73265   8.106   1.231  10.484 -0.2047 -0.3147  2.1919
  531MOL0     H73266   8.226   0.884  10.227  0.1171 -1.7804  0.6953
  531MOL0     H73267   8.374   0.977  10.245  0.8783  0.2253  1.6467
  531MOL0     H73268   8.387   0.748  10.351 -2.6922 -0.2202  0.3945
  531MOL0     H73269   8.261   0.772  10.452  0.0253 -1.3254  0.0533
  531MOL0     H73270   8.540   0.870  10.468  1.0660 -1.6357  2.1499
  531MOL0     H73271   8.413   0.990  10.523 -2.9018 -0.8321  0.8933
  531MOL0     H73272   8.515   0.851  10.707  2.6340  0.1150 -3.3815
  531MOL0     H73273   8.412   0.720  10.650 -2.6848  0.8686  1.5771
  531MOL0     H73274   8.107   0.968  10.782 -0.4805 -1.6997  3.0028
  531MOL0     H73275   8.033   0.835  10.323  0.3217  0.7384 -1.7034
  531MOL0     H73276   7.790   0.741  10.525  2.2581  0.6261  0.0793
  531MOL0     H73277   7.709   0.802  10.374 -0.6036 -1.9505 -0.4294
  531MOL0     H73278   7.847   0.719  10.365 -0.1125  0.4924 -0.8441
  532MOL0     O73279   3.659   0.683   1.539  0.7521  0.2468 -0.6688
  532MOL0     C73280   3.725   0.613   1.613 -0.6113  0.2157 -0.4768
  532MOL0     O73281   3.678   0.530   1.711  0.4204  0.6113 -0.5642
  532MOL0     C73282   3.546   0.550   1.742 -0.6298  0.3398 -0.3485
  532MOL0     C73283   3.536   0.629   1.863  0.6022 -0.3303 -0.2440
  532MOL0     C73284   3.405   0.626   1.921 -0.1363 -0.3464 -0.2569
  532MOL0     C73285   3.295   0.560   1.855 -1.6292  0.2050  0.3778
  532MOL0     O73286   3.172   0.592   1.910  0.6980  0.3952  0.2079
  532MOL0     C73287   3.063   0.591   1.809 -0.1610  0.9937 -0.0152
  532MOL0     C73288   2.926   0.609   1.877  0.4630 -0.1769  0.3507
  532MOL0     C73289   2.844   0.480   1.903 -0.6705  0.3362 -0.9261
  532MOL0     C73290   2.919   0.374   1.990  0.3075  0.1900  0.0574
  532MOL0     C73291   2.823   0.249   2.017 -0.2139 -0.3427 -0.2529
  532MOL0     C73292   2.687   0.298   2.063 -0.2692  0.9098  0.0922
  532MOL0     C73293   2.586   0.181   2.077  0.5760 -0.0737  0.3361
  532MOL0     C73294   2.457   0.216   2.163 -0.1207 -0.4394 -0.1929
  532MOL0     N73295   2.489   0.230   2.307  0.0133  0.3285 -0.5676
  532MOL0     C73296   2.545   0.335   2.371 -0.7457 -0.0120 -0.1615
  532MOL0     C73297   2.558   0.284   2.494  0.1848 -0.4570 -0.3139
  532MOL0     C73298   2.624   0.371   2.597  0.2528 -0.3280  0.0274
  532MOL0     C73299   2.775   0.361   2.590  0.0904  0.3287  0.3391
  532MOL0     C73300   2.832   0.231   2.633  0.2571  0.0092  0.2784
  532MOL0     C73301   2.862   0.138   2.507  0.2632  0.2065  0.3672
  532MOL0     O73302   2.991   0.170   2.441  0.3286 -0.1777 -0.6365
  532MOL0     C73303   3.104   0.097   2.473 -0.0932 -0.0840 -0.5746
  532MOL0     C73304   3.112  -0.020   2.562 -0.1301 -1.1296 -0.2891
  532MOL0     C73305   3.241  -0.074   2.596  0.4037 -0.4385  0.6624
  532MOL0     C73306   3.260  -0.188   2.693 -0.5552 -0.1168 -0.6254
  532MOL0     C73307   3.354  -0.008   2.535 -0.6120  0.7698 -1.0407
  532MOL0     C73308   3.486  -0.062   2.545 -0.2716  0.2548  0.4470
  532MOL0     O73309   3.582   0.038   2.578 -0.2500  0.3634 -0.8973
  532MOL0     C73310   3.705  -0.007   2.578  0.0524 -0.1001 -0.3346
  532MOL0     C73311   3.772  -0.032   2.461 -0.2337  0.8924 -0.0704
  532MOL0     C73312   3.896  -0.092   2.466 -0.7466  0.3380  0.0896
  532MOL0     C73313   3.970  -0.127   2.581 -0.3947 -0.4335 -0.6772
  532MOL0     O73314   4.095  -0.168   2.571 -0.0296  0.6089  0.4023
  532MOL0     C73315   4.171  -0.220   2.687  0.5937  0.0046  0.4382
  532MOL0     C73316   4.111  -0.363   2.717 -0.3160 -0.0806  0.4838
  532MOL0     C73317   4.201  -0.428   2.824 -0.5946  0.3711  0.1998
  532MOL0     C73318   4.177  -0.568   2.848  0.7277  0.3845  0.7025
  532MOL0     C73319   4.031  -0.606   2.885  0.8751 -0.8264 -0.4476
  532MOL0     C73320   4.028  -0.725   2.981  0.3529 -0.2982  0.5802
  532MOL0     C73321   3.899  -0.793   2.994 -0.9164 -0.3217 -0.6719
  532MOL0     C73322   3.847  -0.774   3.131 -0.3298 -0.8964  0.3198
  532MOL0    Cl73323   3.689  -0.846   3.148 -0.2463  0.3104  0.0963
  532MOL0     C73324   3.909  -0.099   2.699  1.0098  0.0994 -0.3469
  532MOL0     C73325   3.781  -0.035   2.699 -0.0689  0.3002 -0.2033
  532MOL0     O73326   3.519  -0.182   2.514 -0.4031  0.0685 -0.5317
  532MOL0     C73327   3.347   0.093   2.454  1.0530  0.5366 -0.8038
  532MOL0     C73328   3.221   0.148   2.423  0.8820 -0.0930 -0.6142
  532MOL0     N73329   2.515   0.156   2.511 -0.1919  0.3269  0.6850
  532MOL0     N73330   2.469   0.131   2.399  0.4834 -0.1325 -0.7553
  532MOL0     C73331   3.319   0.479   1.745  1.1038 -0.5997  0.1399
  532MOL0     C73332   3.438   0.489   1.672  0.2561 -0.0577  0.5778
  532MOL0     C73333   3.873   0.618   1.608  0.5618  0.5283 -0.8394
  532MOL0     C73334   3.946   0.628   1.735  0.8576  0.5639  0.7886
  532MOL0     C73335   4.085   0.625   1.719  0.6827  0.9727 -0.7242
  532MOL0     C73336   4.158   0.605   1.607 -0.2296 -0.2623  0.3102
  532MOL0     O73337   4.291   0.620   1.618 -0.8582  0.1350  0.4696
  532MOL0     C73338   4.371   0.552   1.522  0.1015  0.0591  1.0473
  532MOL0     C73339   4.512   0.601   1.543  0.3709  0.2860 -0.3386
  532MOL0     C73340   4.536   0.754   1.536 -0.7511 -0.4128 -0.3965
  532MOL0     C73341   4.678   0.810   1.577  0.2728  0.2485 -0.0906
  532MOL0     C73342   4.719   0.940   1.503  0.2523  0.3542  0.5079
  532MOL0     C73343   4.738   1.046   1.453  0.8323 -0.9662  0.4526
  532MOL0     C73344   4.082   0.599   1.484 -0.5676  1.0604 -0.6158
  532MOL0     C73345   3.941   0.592   1.487 -0.1518 -0.2164 -0.2339
  532MOL0     C73346   3.871   0.558   1.360  1.0239 -0.2702  0.6131
  532MOL0     H73347   3.625   0.677   1.902  0.0605  0.4438  0.0700
  532MOL0     H73348   3.382   0.671   2.017  3.1033 -1.2998  1.1036
  532MOL0     H73349   3.062   0.507   1.739  0.6959 -1.0368  2.2348
  532MOL0     H73350   3.080   0.678   1.745  1.1197  1.1095  0.4428
  532MOL0     H73351   2.941   0.668   1.968 -0.2689  1.6629 -0.6753
  532MOL0     H73352   2.866   0.662   1.802 -0.7928 -1.8927  0.0711
  532MOL0     H73353   2.747   0.513   1.941  0.4723 -0.2676  3.1042
  532MOL0     H73354   2.818   0.430   1.810 -1.5754 -1.3183  0.1589
  532MOL0     H73355   3.004   0.347   1.927 -0.9535 -0.6368 -1.3627
  532MOL0     H73356   2.954   0.415   2.085  1.0182  1.0243 -0.5427
  532MOL0     H73357   2.861   0.179   2.092 -0.5412 -0.8740 -0.5752
  532MOL0     H73358   2.813   0.193   1.924  1.2293  2.5822 -2.2994
  532MOL0     H73359   2.700   0.364   2.149 -1.1585 -0.0299  0.9929
  532MOL0     H73360   2.639   0.368   1.994 -1.4833  2.2912  2.2292
  532MOL0     H73361   2.633   0.096   2.126  2.4694  0.6673 -0.1079
  532MOL0     H73362   2.549   0.152   1.978 -0.0383  1.1293  0.1996
  532MOL0     H73363   2.413   0.307   2.121 -0.2692  0.0215  0.9229
  532MOL0     H73364   2.384   0.137   2.145 -2.6446  2.0698 -1.8952
  532MOL0     H73365   2.571   0.436   2.344 -1.3625  0.1736 -0.0871
  532MOL0     H73366   2.592   0.338   2.697 -1.3749  0.1836 -0.2926
  532MOL0     H73367   2.599   0.477   2.592  0.1331 -0.3524  0.0947
  532MOL0     H73368   2.806   0.378   2.486  2.7628 -0.9499  0.8355
  532MOL0     H73369   2.823   0.448   2.637  2.5926 -0.6084 -0.2983
  532MOL0     H73370   2.930   0.242   2.682  1.0039  1.4820 -1.4142
  532MOL0     H73371   2.756   0.183   2.694  0.1239 -1.8193 -1.2229
  532MOL0     H73372   2.863   0.030   2.522  0.8227 -0.2900 -2.7406
  532MOL0     H73373   2.779   0.140   2.436 -0.8277 -1.6501  1.4850
  532MOL0     H73374   3.032  -0.066   2.620  1.6861 -3.0088  0.8864
  532MOL0     H73375   3.345  -0.163   2.756  0.0448 -0.7273 -1.1692
  532MOL0     H73376   3.281  -0.275   2.630 -0.2070 -0.0088 -0.6590
  532MOL0     H73377   3.179  -0.202   2.766  0.1912  0.8431  0.4111
  532MOL0     H73378   3.738  -0.024   2.358 -1.0572 -0.8675  0.0365
  532MOL0     H73379   3.937  -0.115   2.368 -1.0807 -0.2201  0.0727
  532MOL0     H73380   4.275  -0.222   2.655  0.4110  0.0517 -0.1669
  532MOL0     H73381   4.171  -0.160   2.778 -1.2636 -1.6841  1.6426
  532MOL0     H73382   4.009  -0.351   2.753 -0.2104  1.3964  0.3623
  532MOL0     H73383   4.116  -0.430   2.631  0.1455 -3.3864  2.8842
  532MOL0     H73384   4.202  -0.375   2.919  2.4150 -2.9944  2.2889
  532MOL0     H73385   4.307  -0.424   2.795 -1.1598 -1.9795 -2.7200
  532MOL0     H73386   4.243  -0.606   2.926  0.6467  1.0942  1.1173
  532MOL0     H73387   4.202  -0.619   2.754  2.0584  2.7340 -0.3194
  532MOL0     H73388   3.971  -0.529   2.934  3.1157  0.9159 -0.2622
  532MOL0     H73389   3.973  -0.638   2.798 -1.0114 -0.5381  0.6406
  532MOL0     H73390   4.079  -0.697   3.075  0.0246  2.0601  0.1325
  532MOL0     H73391   4.094  -0.798   2.934 -1.4157 -1.5715 -0.0074
  532MOL0     H73392   3.907  -0.899   2.969 -1.6585 -1.7964  4.3003
  532MOL0     H73393   3.817  -0.754   2.933  0.5335  1.1692 -1.7851
  532MOL0     H73394   3.830  -0.668   3.154  2.4042 -0.4025  0.4097
  532MOL0     H73395   3.916  -0.819   3.202  0.1267 -0.6140  0.0600
  532MOL0     H73396   3.962  -0.117   2.792  1.2327 -0.2133 -0.5345
  532MOL0     H73397   3.746  -0.029   2.802 -0.4468 -2.5992 -0.0702
  532MOL0     H73398   3.431   0.146   2.410  0.4015  1.9746 -0.3960
  532MOL0     H73399   3.213   0.237   2.362  1.8157  1.2021  1.0450
  532MOL0     H73400   3.242   0.428   1.689  1.4746  2.7641 -3.9415
  532MOL0     H73401   3.463   0.433   1.582  0.5736  1.5586 -0.3682
  532MOL0     H73402   3.896   0.663   1.824  1.1055 -1.6217  1.8447
  532MOL0     H73403   4.143   0.648   1.808  2.4428 -1.9855 -0.9527
  532MOL0     H73404   4.379   0.444   1.530 -1.3740 -0.2566 -0.9866
  532MOL0     H73405   4.327   0.569   1.423 -2.6910  4.1165  2.6889
  532MOL0     H73406   4.573   0.553   1.466  0.0270 -2.1128  0.7924
  532MOL0     H73407   4.546   0.559   1.638  2.7869  2.5809 -0.1005
  532MOL0     H73408   4.514   0.783   1.432 -1.7792 -1.5814 -0.5314
  532MOL0     H73409   4.465   0.793   1.610 -1.3017 -2.5887  0.2904
  532MOL0     H73410   4.748   0.729   1.553  0.8750  0.8897 -0.5366
  532MOL0     H73411   4.684   0.816   1.686  0.3464 -1.1058  0.0031
  532MOL0     H73412   4.744   1.142   1.405 -0.5632 -0.1988  1.7301
  532MOL0     H73413   4.128   0.564   1.392  2.1941 -2.8573  1.9147
  532MOL0     H73414   3.923   0.486   1.297  0.5576  0.1091 -0.2120
  532MOL0     H73415   3.775   0.512   1.385  1.8462 -1.2162  2.2509
  532MOL0     H73416   3.854   0.647   1.300  2.0782  0.0704  0.7932
  533MOL0     O73417   4.841   9.472   3.943 -0.5344  0.3914 -0.9991
  533MOL0     C73418   4.845   9.394   4.036  0.1368  0.2178 -0.1156
  533MOL0     O73419   4.741   9.362   4.114 -0.7038 -0.1247  0.5375
  533MOL0     C73420   4.607   9.394   4.083  0.4796 -0.2811  0.3614
  533MOL0     C73421   4.555   9.460   3.961  1.0745  0.5192 -0.1070
  533MOL0     C73422   4.418   9.486   3.944  0.5375 -0.4300  0.9115
  533MOL0     C73423   4.328   9.443   4.038 -0.3266  0.5959  0.6663
  533MOL0     O73424   4.196   9.474   4.010  0.4247  0.2951  0.4411
  533MOL0     C73425   4.159   9.595   4.088 -0.7363  0.0712  0.5857
  533MOL0     C73426   4.052   9.681   4.019  0.7727  0.3831  0.5432
  533MOL0     C73427   4.083   9.713   3.860 -0.6932 -0.0075  0.4932
  533MOL0     C73428   4.209   9.782   3.844  0.2078 -0.8967 -0.9440
  533MOL0     C73429   4.221   9.931   3.906 -0.7281  0.6159 -0.2907
  533MOL0     C73430   4.350  10.006   3.891  0.2048 -0.5146 -0.5522
  533MOL0     C73431   4.354  10.161   3.907  0.1428  0.5704 -0.0949
  533MOL0     C73432   4.279  10.233   3.796  0.5349 -0.4103 -0.6303
  533MOL0     N73433   4.316  10.375   3.793  0.2557  0.9441 -0.0432
  533MOL0     C73434   4.232  10.462   3.855  0.2114  0.2741 -0.4195
  533MOL0     C73435   4.295  10.579   3.843 -0.0147  0.1663  0.9068
  533MOL0     C73436   4.250  10.704   3.910  0.1867  0.2318 -0.3458
  533MOL0     C73437   4.314  10.701   4.048  0.4041  0.4552 -0.8533
  533MOL0     C73438   4.297  10.835   4.119 -1.3706  0.5040  0.4941
  533MOL0     C73439   4.419  10.928   4.103 -0.2662  0.2867  0.7223
  533MOL0     O73440   4.383  11.042   4.181  0.1178  0.3416  0.7135
  533MOL0     C73441   4.472  11.138   4.223 -0.0342 -0.9364  0.0483
  533MOL0     C73442   4.610  11.113   4.207  0.7995  0.4987 -0.2752
  533MOL0     C73443   4.708  11.212   4.238 -0.6028 -0.7896  0.7187
  533MOL0     C73444   4.853  11.197   4.189 -0.3295  0.2195  0.1659
  533MOL0     C73445   4.665  11.334   4.295 -0.0323 -0.3481 -0.9928
  533MOL0     C73446   4.755  11.450   4.333 -0.7277  0.0186 -0.1481
  533MOL0     O73447   4.890  11.453   4.297  0.0057  0.0793  0.3697
  533MOL0     C73448   4.985  11.548   4.328  0.0091  1.5360  0.7562
  533MOL0     C73449   4.958  11.678   4.368 -0.5977  0.6498 -0.5606
  533MOL0     C73450   5.065  11.755   4.405 -0.0125  0.2457  0.4042
  533MOL0     C73451   5.196  11.716   4.393  0.5831  0.0490  0.7197
  533MOL0     O73452   5.309  11.790   4.427  0.2333  0.5639  0.2711
  533MOL0     C73453   5.289  11.927   4.473 -0.3593  0.2809  0.1644
  533MOL0     C73454   5.415  11.980   4.547  0.1489 -0.1986  0.0605
  533MOL0     C73455   5.549  11.994   4.468 -0.6611 -0.8408  0.1415
  533MOL0     C73456   5.642  12.087   4.560  0.2809  0.5281 -0.7355
  533MOL0     C73457   5.789  12.062   4.536  0.6544 -0.4025  0.0825
  533MOL0     C73458   5.827  12.127   4.407 -0.2232 -0.4034  0.3349
  533MOL0     C73459   5.984  12.129   4.388  0.2434 -0.1187 -0.2813
  533MOL0     C73460   6.045  11.986   4.379  1.2758 -0.0251  0.2922
  533MOL0    Cl73461   6.009  11.897   4.230 -0.4178  0.1933  0.0278
  533MOL0     C73462   5.224  11.589   4.343  0.0855  0.7984 -0.0096
  533MOL0     C73463   5.118  11.508   4.309 -0.0577  0.4499 -0.2443
  533MOL0     O73464   4.708  11.543   4.393 -0.2407  0.2890 -0.4151
  533MOL0     C73465   4.526  11.348   4.330 -0.1029  0.2776  0.4484
  533MOL0     C73466   4.428  11.257   4.275  0.1723  0.2580 -0.1412
  533MOL0     N73467   4.420  10.567   3.775  0.7497 -0.0545 -0.5559
  533MOL0     N73468   4.434  10.443   3.757  0.5123  0.4369  0.4840
  533MOL0     C73469   4.373   9.387   4.159  0.3428 -0.3286 -0.2188
  533MOL0     C73470   4.511   9.363   4.183  0.0374 -0.7641  0.0278
  533MOL0     C73471   4.963   9.315   4.057 -0.7836  0.2975  0.9758
  533MOL0     C73472   4.951   9.194   4.135 -0.0218 -0.8298  0.9501
  533MOL0     C73473   5.063   9.119   4.175  1.1758 -0.1572 -0.3927
  533MOL0     C73474   5.183   9.151   4.117 -0.8853 -0.4670  0.1674
  533MOL0     O73475   5.306   9.089   4.150  0.6882  0.1128 -0.1542
  533MOL0     C73476   5.311   8.996   4.262 -0.1985 -0.3695  0.2489
  533MOL0     C73477   5.458   8.946   4.290  0.1086  0.8477 -0.6747
  533MOL0     C73478   5.478   8.840   4.408  0.5805 -0.0623  0.4784
  533MOL0     C73479   5.364   8.735   4.406  0.1614 -0.1357  0.5174
  533MOL0     C73480   5.257   8.789   4.488 -0.7064 -0.2352  0.4558
  533MOL0     C73481   5.173   8.844   4.555 -0.6642 -0.8906  0.1819
  533MOL0     C73482   5.199   9.262   4.039  0.0867  0.3640  0.7833
  533MOL0     C73483   5.091   9.347   4.005  0.0118 -0.4049  0.0377
  533MOL0     C73484   5.134   9.468   3.931  0.1451  0.0683  0.0789
  533MOL0     H73485   4.623   9.478   3.879  2.4359 -2.6122  0.1899
  533MOL0     H73486   4.382   9.519   3.847 -0.3217 -0.0140  1.3594
  533MOL0     H73487   4.252   9.651   4.100  0.6114 -1.4596 -1.8470
  533MOL0     H73488   4.115   9.562   4.183 -3.7064 -2.5556 -1.4971
  533MOL0     H73489   3.953   9.635   4.021  0.4301  0.9950 -1.0059
  533MOL0     H73490   4.044   9.778   4.068 -0.9129  1.9700 -2.5759
  533MOL0     H73491   4.079   9.620   3.801 -1.1136  1.2075 -1.4771
  533MOL0     H73492   4.002   9.776   3.823 -0.8322  0.7870  2.0766
  533MOL0     H73493   4.280   9.724   3.904 -0.6438 -1.1281 -0.1364
  533MOL0     H73494   4.240   9.774   3.740  0.8948 -1.0484 -0.7345
  533MOL0     H73495   4.207   9.928   4.015  0.6633 -0.1261 -0.1086
  533MOL0     H73496   4.142   9.994   3.865 -1.0762 -1.3753 -2.9161
  533MOL0     H73497   4.429   9.976   3.961  1.1751  0.4081 -1.2306
  533MOL0     H73498   4.396   9.992   3.792 -0.8216  0.8149 -1.2370
  533MOL0     H73499   4.457  10.198   3.905 -0.1844  1.6362  0.8759
  533MOL0     H73500   4.310  10.196   4.001 -2.1516  2.1698 -1.6505
  533MOL0     H73501   4.321  10.184   3.708  1.4030 -2.0376  0.6335
  533MOL0     H73502   4.172  10.214   3.780  0.2738 -1.6003  1.9676
  533MOL0     H73503   4.146  10.437   3.916  0.1166 -2.2234 -1.4539
  533MOL0     H73504   4.141  10.703   3.918  0.2222 -3.2167  1.4629
  533MOL0     H73505   4.284  10.788   3.849  0.2539 -0.0230 -0.6568
  533MOL0     H73506   4.268  10.621   4.106  2.0239 -0.0688 -0.2379
  533MOL0     H73507   4.421  10.682   4.042  0.6040  1.4157 -0.4657
  533MOL0     H73508   4.208  10.886   4.080  1.8790  4.1206 -3.1205
  533MOL0     H73509   4.275  10.816   4.225 -1.6996 -1.1797  0.1557
  533MOL0     H73510   4.510  10.875   4.135  0.3635 -0.2052 -1.6567
  533MOL0     H73511   4.436  10.958   3.999 -0.6059 -1.4214  0.1402
  533MOL0     H73512   4.646  11.025   4.155 -1.0428 -1.1812  1.1507
  533MOL0     H73513   4.910  11.180   4.281 -1.2309 -0.9572  0.5391
  533MOL0     H73514   4.885  11.281   4.127  1.9788 -0.5963  0.1532
  533MOL0     H73515   4.859  11.108   4.126  1.6270  0.3501  0.1141
  533MOL0     H73516   4.861  11.715   4.400 -0.6479  1.4337 -1.5598
  533MOL0     H73517   5.034  11.856   4.428  2.1712  0.8451  0.9039
  533MOL0     H73518   5.246  11.978   4.386 -0.8656 -0.7084 -0.1766
  533MOL0     H73519   5.218  11.920   4.556 -0.5631 -2.9642 -0.1674
  533MOL0     H73520   5.387  12.082   4.576  0.1965 -0.4860  1.1590
  533MOL0     H73521   5.412  11.923   4.640 -3.5064 -0.8505 -0.2969
  533MOL0     H73522   5.535  12.028   4.365 -2.3754 -0.4323  0.4777
  533MOL0     H73523   5.597  11.895   4.474  0.9916 -0.0541  0.3649
  533MOL0     H73524   5.618  12.062   4.664  0.9983  0.4004 -0.5936
  533MOL0     H73525   5.605  12.190   4.558 -0.2599  0.5582  3.1298
  533MOL0     H73526   5.832  12.111   4.624 -0.3679 -1.6896  1.3676
  533MOL0     H73527   5.803  11.953   4.540 -2.3649 -0.8725  0.3549
  533MOL0     H73528   5.783  12.227   4.399  0.7585 -0.0120 -0.5105
  533MOL0     H73529   5.774  12.061   4.338  0.4095 -2.4522  1.7262
  533MOL0     H73530   6.021  12.188   4.472  1.9820  0.8896 -1.7082
  533MOL0     H73531   6.023  12.185   4.303  1.7574 -0.5872  0.0823
  533MOL0     H73532   6.034  11.930   4.472  3.1714 -1.4573 -0.2861
  533MOL0     H73533   6.151  12.010   4.364  1.2035  0.7851  1.0255
  533MOL0     H73534   5.328  11.560   4.333  0.4710  1.8360  0.8944
  533MOL0     H73535   5.135  11.406   4.275 -1.7656 -0.7109  2.0831
  533MOL0     H73536   4.484  11.440   4.369 -2.9308 -0.8089  0.1725
  533MOL0     H73537   4.326  11.286   4.299  0.1623  0.3433 -0.2838
  533MOL0     H73538   4.305   9.369   4.241  1.5397 -0.2832  0.8131
  533MOL0     H73539   4.534   9.322   4.281  0.4717 -1.2515 -0.2787
  533MOL0     H73540   4.854   9.156   4.163 -0.6490 -2.8619 -3.2594
  533MOL0     H73541   5.055   9.031   4.238  0.8694  1.3853  1.8151
  533MOL0     H73542   5.278   9.041   4.356  2.1407 -1.7772  1.8478
  533MOL0     H73543   5.245   8.910   4.244 -1.4556  0.9531 -2.1040
  533MOL0     H73544   5.517   9.035   4.315 -0.5522  1.7335 -2.1348
  533MOL0     H73545   5.495   8.907   4.195  0.0783  0.1530 -0.4092
  533MOL0     H73546   5.572   8.787   4.394  0.5121 -1.4452  4.1527
  533MOL0     H73547   5.489   8.894   4.502 -0.9662  1.0308  0.0697
  533MOL0     H73548   5.395   8.644   4.458  1.1411 -0.2925 -0.3000
  533MOL0     H73549   5.342   8.712   4.301 -0.5874 -0.8320  0.8156
  533MOL0     H73550   5.107   8.898   4.620 -0.1388  0.3442 -0.2789
  533MOL0     H73551   5.301   9.286   4.012  0.1692 -2.4411 -2.0032
  533MOL0     H73552   5.083   9.557   3.971 -3.0780 -1.8258  0.5588
  533MOL0     H73553   5.242   9.485   3.937  0.7506 -3.4718  2.1933
  533MOL0     H73554   5.105   9.442   3.829 -0.5574 -2.8629  0.9380
  534MOL0     O73555   1.626   3.595   7.284  0.2501 -0.5946 -0.0345
  534MOL0     C73556   1.638   3.694   7.352  0.3676  0.3278  0.0173
  534MOL0     O73557   1.759   3.738   7.412  0.1592 -0.2213  0.8096
  534MOL0     C73558   1.862   3.646   7.439 -0.9036 -0.1195 -0.0677
  534MOL0     C73559   1.996   3.686   7.448  0.3729  0.2477  0.5149
  534MOL0     C73560   2.097   3.589   7.482  0.4356 -0.8043  0.0416
  534MOL0     C73561   2.073   3.450   7.478 -0.1073 -0.3681  0.7406
  534MOL0     O73562   2.173   3.357   7.487  0.0259 -0.1224  1.0454
  534MOL0     C73563   2.310   3.396   7.503 -0.4875 -0.7107  0.4159
  534MOL0     C73564   2.394   3.272   7.477  0.0829 -0.6685  0.1317
  534MOL0     C73565   2.536   3.292   7.522 -0.5019 -0.3900  0.4957
  534MOL0     C73566   2.604   3.412   7.443 -0.5667 -0.2864 -0.2446
  534MOL0     C73567   2.761   3.400   7.438  0.5154  0.4960  0.3763
  534MOL0     C73568   2.832   3.385   7.578 -0.5927 -1.1115  0.2601
  534MOL0     C73569   2.979   3.342   7.562  1.3704 -0.5206 -0.0339
  534MOL0     C73570   3.062   3.454   7.482  0.4296 -0.9613  0.4310
  534MOL0     N73571   3.084   3.580   7.559 -0.3302 -0.4515  0.3129
  534MOL0     C73572   3.135   3.590   7.689 -0.7477  0.3128  1.2691
  534MOL0     C73573   3.105   3.723   7.726  0.2624 -0.2337  0.3813
  534MOL0     C73574   3.118   3.799   7.859  0.9272  0.2948  0.9082
  534MOL0     C73575   3.231   3.745   7.943  0.6761  0.5137 -0.3233
  534MOL0     C73576   3.374   3.770   7.898 -0.2638 -0.4258  0.6655
  534MOL0     C73577   3.472   3.718   8.001 -0.8537 -0.1097 -0.0122
  534MOL0     O73578   3.604   3.704   7.940 -0.1749  0.0803 -0.0530
  534MOL0     C73579   3.674   3.813   7.911  0.8336  0.8059  0.5078
  534MOL0     C73580   3.794   3.775   7.858  0.0149  0.4507 -0.1788
  534MOL0     C73581   3.896   3.868   7.835 -1.3178  0.2938 -0.0716
  534MOL0     C73582   4.026   3.828   7.765 -0.2615  0.3785 -0.4140
  534MOL0     C73583   3.858   4.008   7.858 -0.3620 -0.6909 -0.2074
  534MOL0     C73584   3.953   4.118   7.843 -0.5237  0.8390  0.6785
  534MOL0     O73585   3.934   4.222   7.926 -0.0670 -0.2071 -0.5290
  534MOL0     C73586   4.024   4.325   7.950  0.1815 -0.0779  0.4083
  534MOL0     C73587   3.970   4.449   7.994 -0.6443 -0.3866  0.3572
  534MOL0     C73588   4.055   4.556   8.040 -0.1517  0.0622  1.0400
  534MOL0     C73589   4.199   4.549   8.030  0.1815 -0.1613  0.2354
  534MOL0     O73590   4.275   4.650   8.083  0.1935  0.2072  0.3001
  534MOL0     C73591   4.400   4.675   8.024 -0.3396  0.0539  0.3089
  534MOL0     C73592   4.455   4.811   8.055 -0.3208  0.1261  0.3491
  534MOL0     C73593   4.390   4.914   7.956  0.0377 -0.0694 -1.3423
  534MOL0     C73594   4.477   5.040   7.942  0.2385 -0.5404  0.2629
  534MOL0     C73595   4.504   5.105   8.083 -1.0005 -0.2549 -1.0059
  534MOL0     C73596   4.555   5.250   8.059 -0.8053  0.5418 -0.1419
  534MOL0     C73597   4.705   5.249   8.012  0.2068  0.4784  0.2614
  534MOL0     C73598   4.765   5.388   7.995 -0.0523  1.2138  0.2305
  534MOL0    Cl73599   4.808   5.449   8.166  0.0140 -0.4241  0.4519
  534MOL0     C73600   4.245   4.424   7.976 -0.8411  0.8718  0.0176
  534MOL0     C73601   4.165   4.320   7.935  0.1954 -0.2223 -1.0459
  534MOL0     O73602   4.040   4.109   7.759 -0.1242  0.2960  0.4059
  534MOL0     C73603   3.740   4.040   7.919  0.5701 -0.1087  0.2726
  534MOL0     C73604   3.642   3.939   7.943 -0.3754  0.2552 -0.2559
  534MOL0     N73605   3.042   3.788   7.617 -0.2067  0.5533  0.8577
  534MOL0     N73606   3.029   3.696   7.517  0.9898 -1.1866 -0.1806
  534MOL0     C73607   1.941   3.404   7.490  0.1392  0.3645  0.1867
  534MOL0     C73608   1.838   3.507   7.471 -0.0516 -0.1353  0.8859
  534MOL0     C73609   1.531   3.780   7.374  0.3058 -0.1520 -0.1877
  534MOL0     C73610   1.565   3.913   7.407  0.1427 -0.6990  0.8352
  534MOL0     C73611   1.469   3.998   7.436 -0.6117 -0.5335 -0.8411
  534MOL0     C73612   1.332   3.970   7.417  1.2536 -0.7488  0.1143
  534MOL0     O73613   1.227   4.049   7.426 -0.3571 -0.9601 -0.0935
  534MOL0     C73614   1.249   4.192   7.447  0.0703  0.9518  0.2573
  534MOL0     C73615   1.283   4.252   7.306  0.7619 -0.3241 -0.2057
  534MOL0     C73616   1.233   4.397   7.280 -0.0987 -0.0770 -0.0652
  534MOL0     C73617   1.102   4.402   7.201 -0.0626 -1.2386 -0.5183
  534MOL0     C73618   1.071   4.540   7.159  0.3906  0.6169  0.2778
  534MOL0     C73619   1.044   4.644   7.112  0.1116  0.0551  0.1876
  534MOL0     C73620   1.294   3.842   7.384  0.0529  0.9870 -0.5666
  534MOL0     C73621   1.396   3.742   7.366 -0.1022 -0.8293  0.2836
  534MOL0     C73622   1.352   3.602   7.357  0.2585 -0.1943  0.2665
  534MOL0     H73623   2.023   3.790   7.438  2.0935 -0.1460  0.6860
  534MOL0     H73624   2.195   3.634   7.496 -0.0393  0.8293 -1.4216
  534MOL0     H73625   2.326   3.428   7.606  3.7245  1.8612 -0.7798
  534MOL0     H73626   2.343   3.469   7.428 -0.7046 -0.1415  0.8700
  534MOL0     H73627   2.328   3.193   7.515  0.4710 -0.7469  0.6467
  534MOL0     H73628   2.399   3.261   7.368  1.9445  3.3181 -0.3845
  534MOL0     H73629   2.541   3.317   7.628  0.0344  0.0051  0.3824
  534MOL0     H73630   2.590   3.199   7.508  1.5215  0.6688  0.8947
  534MOL0     H73631   2.561   3.420   7.343  1.1295 -2.2442 -1.2041
  534MOL0     H73632   2.579   3.501   7.502  1.6044  0.4493 -0.3396
  534MOL0     H73633   2.802   3.483   7.379 -1.6901  1.7784  0.5301
  534MOL0     H73634   2.788   3.319   7.370  1.0454  2.9337 -2.5793
  534MOL0     H73635   2.829   3.486   7.620  1.5000 -1.5973  1.7145
  534MOL0     H73636   2.771   3.318   7.640  0.3974 -0.5859  1.8689
  534MOL0     H73637   3.003   3.249   7.510  4.2087 -0.9158  1.7144
  534MOL0     H73638   3.029   3.329   7.658  3.9920  0.2791 -1.1852
  534MOL0     H73639   3.162   3.417   7.459  0.7591  0.3046 -0.2774
  534MOL0     H73640   3.021   3.476   7.382  0.6709 -2.5131 -0.0315
  534MOL0     H73641   3.182   3.507   7.741  0.7221  0.3809  0.1282
  534MOL0     H73642   3.022   3.791   7.911 -0.3702  0.2900 -1.3428
  534MOL0     H73643   3.123   3.905   7.833 -4.0931  0.2448 -1.4978
  534MOL0     H73644   3.214   3.792   8.040  2.4527  1.3901 -0.3951
  534MOL0     H73645   3.211   3.639   7.957 -1.9356  0.5778 -2.6735
  534MOL0     H73646   3.382   3.725   7.799 -0.7772 -0.8893  0.8271
  534MOL0     H73647   3.389   3.877   7.887 -0.3380 -0.4636  0.1949
  534MOL0     H73648   3.469   3.788   8.085 -0.6525  1.1904 -1.0459
  534MOL0     H73649   3.450   3.619   8.043  1.2734 -0.1347  1.2405
  534MOL0     H73650   3.804   3.667   7.851  1.2585  0.5161  0.3537
  534MOL0     H73651   4.115   3.889   7.782  0.2911 -0.4776 -0.1331
  534MOL0     H73652   4.004   3.843   7.659  0.3890  1.8646 -0.3669
  534MOL0     H73653   4.057   3.723   7.777  1.0448  0.4185 -2.7427
  534MOL0     H73654   3.863   4.466   7.995 -1.2286 -3.4764  0.0427
  534MOL0     H73655   4.017   4.649   8.079 -0.2934  0.1696  0.6491
  534MOL0     H73656   4.471   4.599   8.059 -2.0697 -0.2608  3.5780
  534MOL0     H73657   4.375   4.659   7.919 -2.1061 -3.1218  1.0729
  534MOL0     H73658   4.436   4.837   8.160  0.1660 -0.3429  0.5575
  534MOL0     H73659   4.561   4.808   8.031 -1.2275 -0.3271 -4.4858
  534MOL0     H73660   4.290   4.938   7.993  0.0648 -2.0759  0.2474
  534MOL0     H73661   4.388   4.871   7.856  1.5953 -2.9080 -0.2987
  534MOL0     H73662   4.401   5.097   7.887 -1.2163 -2.7928 -0.1951
  534MOL0     H73663   4.565   5.030   7.878  2.3632  3.4066  2.2221
  534MOL0     H73664   4.417   5.115   8.150 -0.9644  3.5958 -1.2999
  534MOL0     H73665   4.583   5.047   8.132 -0.5752  1.5559  0.5661
  534MOL0     H73666   4.540   5.304   8.153 -1.0574 -0.4239  0.3934
  534MOL0     H73667   4.490   5.305   7.991  1.0553  0.4705 -2.1069
  534MOL0     H73668   4.706   5.198   7.916 -0.0388 -0.3429  0.6871
  534MOL0     H73669   4.769   5.196   8.084  0.4774 -1.3261 -1.2414
  534MOL0     H73670   4.703   5.456   7.937 -2.5284  1.5621  3.0392
  534MOL0     H73671   4.856   5.368   7.937 -1.6152 -2.6737 -1.2788
  534MOL0     H73672   4.350   4.404   7.957 -1.4902 -2.1923 -0.9493
  534MOL0     H73673   4.212   4.236   7.886 -0.6821 -0.9594 -0.6733
  534MOL0     H73674   3.706   4.141   7.942  0.3051 -0.1511  0.0692
  534MOL0     H73675   3.550   3.969   7.993 -0.8036 -1.1324 -0.1932
  534MOL0     H73676   1.920   3.298   7.495 -2.7930  0.8918  2.9101
  534MOL0     H73677   1.735   3.473   7.477  0.5438 -1.7869  2.6203
  534MOL0     H73678   1.666   3.952   7.404  0.9729 -2.8046 -0.0676
  534MOL0     H73679   1.503   4.097   7.462  1.2391 -2.0915  3.7831
  534MOL0     H73680   1.150   4.227   7.478 -0.3182  1.2510 -1.2438
  534MOL0     H73681   1.323   4.221   7.522  2.0955  1.0834 -1.7019
  534MOL0     H73682   1.240   4.188   7.228  0.2341 -0.7088  0.3923
  534MOL0     H73683   1.392   4.242   7.302  1.0778  2.1185  0.4884
  534MOL0     H73684   1.222   4.458   7.370  1.7108  0.4534 -0.1629
  534MOL0     H73685   1.317   4.438   7.223  0.1639 -1.3161 -0.5986
  534MOL0     H73686   1.024   4.364   7.268  1.7543  0.5630  2.9225
  534MOL0     H73687   1.103   4.339   7.112 -1.1884 -0.6579 -0.9609
  534MOL0     H73688   1.030   4.740   7.066 -3.0378 -0.6227 -0.5126
  534MOL0     H73689   1.189   3.817   7.386  0.2883  0.0009  0.4454
  534MOL0     H73690   1.334   3.595   7.250 -2.2374  1.8587  0.4425
  534MOL0     H73691   1.425   3.531   7.397  1.6680  1.8249  1.4768
  534MOL0     H73692   1.257   3.581   7.407 -0.1890  1.3925  0.1225
  535MOL0     O73693   3.854   8.608   2.536 -0.3934 -0.3483 -0.2603
  535MOL0     C73694   3.815   8.530   2.623 -0.1904 -0.1569 -0.0424
  535MOL0     O73695   3.901   8.469   2.702  0.6688 -0.2573 -0.0573
  535MOL0     C73696   4.028   8.429   2.658  0.1440  0.7169 -0.5120
  535MOL0     C73697   4.127   8.428   2.749 -0.0099  0.1730 -0.4275
  535MOL0     C73698   4.258   8.404   2.713 -0.3079 -0.5113  0.5750
  535MOL0     C73699   4.289   8.376   2.581 -0.4018 -1.1627  0.4215
  535MOL0     O73700   4.425   8.371   2.555 -0.2041 -0.1127 -0.2279
  535MOL0     C73701   4.461   8.311   2.430  0.3980  0.1501 -0.1209
  535MOL0     C73702   4.595   8.249   2.440  0.0988  0.1851  0.1054
  535MOL0     C73703   4.696   8.333   2.518 -0.3210 -0.0180 -0.7278
  535MOL0     C73704   4.827   8.246   2.532  0.3464  0.9022 -0.2148
  535MOL0     C73705   4.952   8.321   2.593 -0.7050 -0.4033  0.8263
  535MOL0     C73706   5.030   8.416   2.490 -0.2894 -0.1842  0.8143
  535MOL0     C73707   5.104   8.322   2.389 -0.2082 -0.2844  0.3013
  535MOL0     C73708   5.158   8.397   2.260 -0.0986 -0.0493 -0.1113
  535MOL0     N73709   5.039   8.443   2.184 -0.5649  0.4422 -0.5384
  535MOL0     C73710   4.919   8.387   2.151  0.3209 -0.9874 -0.1821
  535MOL0     C73711   4.869   8.479   2.064 -0.0281  0.5257  0.3854
  535MOL0     C73712   4.739   8.456   1.996  0.3696 -0.0527  0.1148
  535MOL0     C73713   4.680   8.308   2.004 -0.2475  0.5019 -0.3020
  535MOL0     C73714   4.584   8.284   1.889 -0.0756  0.3181  0.4589
  535MOL0     C73715   4.501   8.162   1.917 -0.0789  0.0358  0.3328
  535MOL0     O73716   4.416   8.205   2.019  0.8007 -0.4962 -0.0592
  535MOL0     C73717   4.294   8.141   2.041 -0.7157 -0.3939 -0.1740
  535MOL0     C73718   4.241   8.032   1.974  0.4563  1.1369 -0.8333
  535MOL0     C73719   4.114   7.979   2.016 -0.5080  0.1103 -0.1348
  535MOL0     C73720   4.068   7.870   1.926 -0.7412 -0.6040  0.4456
  535MOL0     C73721   4.039   8.043   2.117  0.3027 -0.3527 -0.1774
  535MOL0     C73722   3.894   8.010   2.155 -0.0630  0.6230 -0.4947
  535MOL0     O73723   3.834   8.109   2.234 -0.2091  0.2495 -0.7497
  535MOL0     C73724   3.709   8.079   2.283 -0.1150  0.5555 -0.3358
  535MOL0     C73725   3.602   8.059   2.210  0.2324  0.9153 -0.6895
  535MOL0     C73726   3.480   8.047   2.271  1.2231 -0.1432  0.3947
  535MOL0     C73727   3.463   8.073   2.405  0.1976  0.5048  0.1116
  535MOL0     O73728   3.334   8.066   2.458 -0.4333 -0.5297 -0.2114
  535MOL0     C73729   3.290   8.189   2.522  0.0398 -0.6408 -0.9025
  535MOL0     C73730   3.146   8.167   2.590 -0.3525 -0.7323  0.0912
  535MOL0     C73731   3.049   8.134   2.479  0.0660  0.8756  0.0772
  535MOL0     C73732   2.989   7.991   2.486  0.5901  0.0773 -0.2614
  535MOL0     C73733   2.883   7.969   2.372 -0.1345  0.8004  0.7168
  535MOL0     C73734   2.939   7.980   2.227  0.1243  0.2347  0.9395
  535MOL0     C73735   3.055   7.885   2.211 -0.7739  0.8625  0.4272
  535MOL0     C73736   3.092   7.846   2.067  0.2348 -0.0446 -0.3998
  535MOL0    Cl73737   3.256   7.774   2.071  0.0689  0.2049 -0.0323
  535MOL0     C73738   3.575   8.106   2.487 -0.0301  0.5289 -0.2130
  535MOL0     C73739   3.701   8.110   2.419  0.3889 -1.0182 -1.0002
  535MOL0     O73740   3.839   7.905   2.111  0.1514  0.5743  0.4711
  535MOL0     C73741   4.105   8.151   2.187  0.4036 -0.3234 -1.0535
  535MOL0     C73742   4.227   8.197   2.142  0.3674 -0.6892 -0.0735
  535MOL0     N73743   4.954   8.588   2.049  0.6058 -0.0610 -0.5779
  535MOL0     N73744   5.050   8.564   2.126 -0.3621 -0.1000  0.0210
  535MOL0     C73745   4.182   8.370   2.488 -0.3791 -0.2554  0.2653
  535MOL0     C73746   4.047   8.398   2.519 -0.4405  0.7292 -0.0873
  535MOL0     C73747   3.668   8.515   2.636  1.4532 -0.1757  0.0647
  535MOL0     C73748   3.579   8.594   2.558  0.7304  0.2769 -0.5209
  535MOL0     C73749   3.442   8.586   2.557  0.5146  0.6293 -0.8460
  535MOL0     C73750   3.382   8.501   2.657 -0.1323 -0.4360 -0.4529
  535MOL0     O73751   3.251   8.473   2.689 -0.9045 -0.2489  0.0572
  535MOL0     C73752   3.158   8.573   2.659  0.3290 -0.3569  0.1268
  535MOL0     C73753   3.019   8.541   2.715 -0.3722  0.4489  0.1825
  535MOL0     C73754   3.028   8.503   2.869  0.3614  0.2750  0.0359
  535MOL0     C73755   3.051   8.357   2.913 -0.3336  0.5277 -0.1302
  535MOL0     C73756   3.054   8.344   3.056  1.2915 -0.1570 -0.5681
  535MOL0     C73757   3.043   8.353   3.181  0.6792  0.1710  0.5745
  535MOL0     C73758   3.472   8.427   2.734  0.6328  0.7641 -0.4974
  535MOL0     C73759   3.607   8.427   2.722 -0.4374 -0.1381 -0.4620
  535MOL0     C73760   3.687   8.322   2.796  0.9407  0.7183  0.5296
  535MOL0     H73761   4.094   8.439   2.852  0.2371 -1.0216 -0.2028
  535MOL0     H73762   4.329   8.410   2.795 -1.2417  1.0002  1.3383
  535MOL0     H73763   4.463   8.387   2.352  0.1022 -1.1019 -1.3744
  535MOL0     H73764   4.392   8.226   2.424  1.5621 -0.8641  0.3175
  535MOL0     H73765   4.575   8.156   2.493 -2.0409  1.1237  1.0966
  535MOL0     H73766   4.630   8.230   2.338  0.8215 -0.0538  0.3993
  535MOL0     H73767   4.716   8.431   2.472  1.1148 -0.6737 -1.5630
  535MOL0     H73768   4.656   8.364   2.615 -2.3269  2.1489 -2.1239
  535MOL0     H73769   4.812   8.166   2.606  2.6813 -0.1491 -0.7759
  535MOL0     H73770   4.842   8.209   2.430 -0.4709  0.1769 -0.0852
  535MOL0     H73771   5.025   8.242   2.616  0.3661  0.6683  1.2472
  535MOL0     H73772   4.926   8.388   2.676  2.8454  1.3715  0.7083
  535MOL0     H73773   4.956   8.474   2.433  0.7895  0.5500  0.0996
  535MOL0     H73774   5.099   8.486   2.538  2.2667 -2.6745  1.0563
  535MOL0     H73775   5.031   8.244   2.364 -1.7958  1.2467 -0.0785
  535MOL0     H73776   5.184   8.275   2.447  1.2015  1.8916  0.2493
  535MOL0     H73777   5.224   8.479   2.293  2.1347 -1.2341 -1.3905
  535MOL0     H73778   5.216   8.325   2.203  1.0384 -1.1773  2.3203
  535MOL0     H73779   4.879   8.291   2.181 -1.9647 -0.3360 -0.9533
  535MOL0     H73780   4.754   8.486   1.892 -3.9449 -0.0485 -0.6822
  535MOL0     H73781   4.665   8.523   2.042  0.3147  0.7124 -1.0407
  535MOL0     H73782   4.762   8.238   1.994 -0.6464 -0.9621  4.5779
  535MOL0     H73783   4.635   8.281   2.100  2.8595 -0.3974  1.0056
  535MOL0     H73784   4.524   8.373   1.869 -0.3299 -0.3043 -1.8644
  535MOL0     H73785   4.646   8.266   1.800 -1.1190 -0.6075 -0.1064
  535MOL0     H73786   4.443   8.142   1.827  0.8972  0.1676 -0.3329
  535MOL0     H73787   4.556   8.069   1.933 -1.6650 -1.2567 -1.2941
  535MOL0     H73788   4.300   7.980   1.900  0.5037  1.1229 -0.7856
  535MOL0     H73789   4.143   7.836   1.855 -0.1143 -1.5301  1.5221
  535MOL0     H73790   3.983   7.909   1.868  0.4621  2.3023  0.4915
  535MOL0     H73791   4.029   7.788   1.987 -1.2828  1.0353  2.4501
  535MOL0     H73792   3.600   8.048   2.102  0.0449  1.1610 -0.7113
  535MOL0     H73793   3.391   8.027   2.212  1.4750 -1.0488  0.3011
  535MOL0     H73794   3.363   8.217   2.598  0.4239  0.4666 -1.6560
  535MOL0     H73795   3.279   8.269   2.449 -2.4132 -1.3040 -1.3659
  535MOL0     H73796   3.150   8.088   2.665  1.4276  1.0643  2.0374
  535MOL0     H73797   3.110   8.258   2.639 -3.9587 -1.1693 -1.4102
  535MOL0     H73798   3.097   8.144   2.382 -1.4055 -0.9980 -0.9124
  535MOL0     H73799   2.968   8.207   2.467  0.2470  0.6419 -3.3485
  535MOL0     H73800   2.945   7.972   2.584  2.1780 -1.7853  0.1359
  535MOL0     H73801   3.068   7.918   2.469  0.8126  0.9260 -3.6385
  535MOL0     H73802   2.844   7.867   2.378  1.2562  0.0304 -1.7448
  535MOL0     H73803   2.807   8.046   2.389 -1.7067 -0.2386 -1.1458
  535MOL0     H73804   2.964   8.084   2.204 -0.0895 -0.1954 -1.4172
  535MOL0     H73805   2.864   7.950   2.153  0.4485  4.4148 -1.3354
  535MOL0     H73806   3.021   7.792   2.259 -0.5453  1.0691  1.0009
  535MOL0     H73807   3.138   7.935   2.261 -0.6601 -0.3030  1.4395
  535MOL0     H73808   3.085   7.927   1.994  1.7242 -3.4508 -4.7813
  535MOL0     H73809   3.024   7.772   2.024 -1.1188  2.6309 -3.2691
  535MOL0     H73810   3.569   8.120   2.594 -0.9345 -2.6893  0.2669
  535MOL0     H73811   3.787   8.133   2.482  0.1920  2.6105 -1.8619
  535MOL0     H73812   4.042   8.214   2.249  0.0666 -1.4381 -0.2413
  535MOL0     H73813   4.272   8.287   2.181 -1.3928  0.7556 -1.1922
  535MOL0     H73814   4.200   8.360   2.381 -0.7129 -0.3200  0.2138
  535MOL0     H73815   3.964   8.386   2.450  0.3008  1.1027 -1.0805
  535MOL0     H73816   3.633   8.662   2.493 -0.0516 -0.6670 -2.2263
  535MOL0     H73817   3.384   8.646   2.487 -1.5001 -1.1331 -0.7932
  535MOL0     H73818   3.190   8.668   2.702 -1.5872  0.2543  0.2826
  535MOL0     H73819   3.157   8.601   2.553  1.2479  1.5984  0.5914
  535MOL0     H73820   2.976   8.458   2.659  2.7292 -1.8265  0.9467
  535MOL0     H73821   2.962   8.631   2.690  2.1575  2.1494  0.1052
  535MOL0     H73822   3.111   8.564   2.906 -0.3229  0.4089  1.3704
  535MOL0     H73823   2.941   8.543   2.920 -0.4264  0.2743 -1.2683
  535MOL0     H73824   3.145   8.323   2.869 -0.2850  1.7132 -0.9982
  535MOL0     H73825   2.975   8.295   2.865 -0.9562  1.0867  0.1240
  535MOL0     H73826   3.047   8.362   3.287 -0.4197  2.6007  0.4797
  535MOL0     H73827   3.426   8.349   2.793  0.7986  1.1956  0.2101
  535MOL0     H73828   3.764   8.268   2.739  1.0759 -0.6620  1.9477
  535MOL0     H73829   3.719   8.375   2.886  0.3558 -0.1149  1.2459
  535MOL0     H73830   3.621   8.236   2.816  0.1953  0.5562 -2.2534
  536MOL0     O73831   3.138   4.307   2.251 -0.6778  0.2281  0.5447
  536MOL0     C73832   3.136   4.425   2.234 -0.0560 -0.7114  0.1029
  536MOL0     O73833   3.236   4.516   2.278  0.0471  0.0662 -0.0478
  536MOL0     C73834   3.341   4.491   2.361 -0.0452 -0.2020 -0.4690
  536MOL0     C73835   3.411   4.607   2.405  0.5789  0.8071 -0.1959
  536MOL0     C73836   3.527   4.592   2.482 -0.7923  0.5323 -0.3703
  536MOL0     C73837   3.572   4.467   2.536  0.4779  0.3015  0.8157
  536MOL0     O73838   3.682   4.455   2.606 -0.2464 -0.2861  0.3116
  536MOL0     C73839   3.778   4.365   2.545  0.4335  0.6666 -0.6444
  536MOL0     C73840   3.899   4.373   2.638 -0.2740 -1.1181 -0.8097
  536MOL0     C73841   4.019   4.284   2.587  0.5345  0.1991  0.4315
  536MOL0     C73842   4.127   4.277   2.700  0.1065 -0.1992  0.2566
  536MOL0     C73843   4.224   4.398   2.704 -0.9305  0.2274  0.6042
  536MOL0     C73844   4.348   4.362   2.782  0.3483  0.3574 -1.3048
  536MOL0     C73845   4.453   4.477   2.794  0.4158 -0.1175  0.1503
  536MOL0     C73846   4.554   4.437   2.895 -0.3199  0.6870 -0.3375
  536MOL0     N73847   4.670   4.528   2.891 -0.0916  0.1043 -0.9633
  536MOL0     C73848   4.664   4.666   2.890  0.2219  0.3775  0.1264
  536MOL0     C73849   4.783   4.715   2.850 -0.3032 -0.2198  0.4552
  536MOL0     C73850   4.825   4.853   2.813 -0.6332 -0.1459 -0.2156
  536MOL0     C73851   4.885   4.923   2.937  0.4328 -0.1429  0.3120
  536MOL0     C73852   4.959   5.046   2.886 -0.5643 -0.4426 -0.4997
  536MOL0     C73853   4.997   5.123   3.008 -0.1837 -0.2090 -0.2547
  536MOL0     O73854   5.088   5.044   3.087  0.2595  0.0694 -0.9003
  536MOL0     C73855   5.158   5.105   3.184  0.4989  0.1373 -0.6553
  536MOL0     C73856   5.296   5.089   3.178 -0.4344 -0.3840  0.2107
  536MOL0     C73857   5.378   5.145   3.285 -0.3940  0.2152 -0.7625
  536MOL0     C73858   5.528   5.123   3.284 -0.3991  0.2521 -0.1532
  536MOL0     C73859   5.315   5.228   3.382  0.0915 -0.5307 -0.3581
  536MOL0     C73860   5.380   5.298   3.504  1.1506  0.5083  0.7794
  536MOL0     O73861   5.476   5.234   3.574  0.3898  0.4351  0.5403
  536MOL0     C73862   5.567   5.299   3.653  0.0842  0.5533 -0.1667
  536MOL0     C73863   5.643   5.206   3.733  0.2895  0.0477  1.0000
  536MOL0     C73864   5.751   5.248   3.809  0.7302 -0.5231  0.9741
  536MOL0     C73865   5.800   5.380   3.786 -0.2492 -0.2085  0.0735
  536MOL0     O73866   5.915   5.409   3.861 -0.6524  0.3611  0.0722
  536MOL0     C73867   5.927   5.537   3.930 -0.6204 -0.8039  0.2962
  536MOL0     C73868   6.029   5.622   3.838  0.7158 -1.4408 -0.0096
  536MOL0     C73869   6.099   5.742   3.914  0.7351  0.3752  0.5495
  536MOL0     C73870   5.994   5.843   3.953  0.1791  0.4009 -0.0758
  536MOL0     C73871   6.052   5.935   4.060  0.0114 -0.8578  0.2296
  536MOL0     C73872   6.133   6.047   3.986 -0.6394 -0.3643  0.3631
  536MOL0     C73873   6.215   6.117   4.089 -0.3114 -0.7732  0.4627
  536MOL0     C73874   6.335   6.182   4.019 -0.5157 -0.3907  0.1071
  536MOL0    Cl73875   6.484   6.054   4.008 -0.0765 -0.2232  0.2069
  536MOL0     C73876   5.738   5.472   3.693 -0.1077 -0.0422 -0.5834
  536MOL0     C73877   5.626   5.430   3.626 -0.2197 -0.0062 -0.0258
  536MOL0     O73878   5.335   5.405   3.536 -0.3920 -0.3447 -0.4593
  536MOL0     C73879   5.175   5.239   3.375  0.0629 -0.2284  0.3149
  536MOL0     C73880   5.098   5.182   3.284  0.4242 -0.3325  0.2630
  536MOL0     N73881   4.867   4.608   2.836  0.6759 -0.3789  0.1797
  536MOL0     N73882   4.797   4.500   2.860 -0.8256 -0.7064 -0.2870
  536MOL0     C73883   3.497   4.350   2.489  0.8198 -0.2865 -0.2174
  536MOL0     C73884   3.385   4.365   2.408  0.2605 -0.5723 -0.0997
  536MOL0     C73885   3.024   4.491   2.159  0.2097 -0.4114  0.4229
  536MOL0     C73886   2.915   4.413   2.126  0.5544 -0.1716  0.2374
  536MOL0     C73887   2.801   4.459   2.064  0.5096 -0.3498  0.1787
  536MOL0     C73888   2.792   4.594   2.030  0.4499 -0.3111  1.0010
  536MOL0     O73889   2.686   4.654   1.962 -0.3950  0.3363 -0.3170
  536MOL0     C73890   2.559   4.586   1.936 -0.2479 -0.0793 -0.0960
  536MOL0     C73891   2.465   4.580   2.054 -0.4939  0.2744  0.5638
  536MOL0     C73892   2.333   4.549   2.003  0.3404  0.4295  0.0204
  536MOL0     C73893   2.223   4.548   2.107  0.0185  0.5805 -0.9465
  536MOL0     C73894   2.101   4.505   2.033  0.6820  0.1379  0.1482
  536MOL0     C73895   2.015   4.437   1.983 -0.3917  0.2464 -0.2615
  536MOL0     C73896   2.900   4.672   2.051 -0.4612  0.4690 -0.2833
  536MOL0     C73897   3.015   4.627   2.122 -0.3138  0.4490 -1.3603
  536MOL0     C73898   3.117   4.730   2.157 -0.1255 -0.2130 -0.0456
  536MOL0     H73899   3.388   4.700   2.354 -0.3718 -1.9248 -5.4224
  536MOL0     H73900   3.593   4.674   2.507  0.3532 -0.5403  0.2675
  536MOL0     H73901   3.805   4.404   2.447 -0.3146  4.2485  0.4288
  536MOL0     H73902   3.746   4.260   2.541  1.1126  0.3833  0.7383
  536MOL0     H73903   3.938   4.472   2.661 -0.6385 -1.8272  3.7505
  536MOL0     H73904   3.856   4.332   2.730 -2.8424 -0.4368 -1.6207
  536MOL0     H73905   3.983   4.186   2.555 -1.0552  1.2299 -1.0648
  536MOL0     H73906   4.073   4.330   2.504 -1.1600 -0.7564 -1.2930
  536MOL0     H73907   4.086   4.271   2.801 -0.8852  1.0728 -0.0506
  536MOL0     H73908   4.188   4.188   2.679  0.8996 -1.6495  6.6654
  536MOL0     H73909   4.177   4.493   2.729  0.5837  1.6737 -1.6921
  536MOL0     H73910   4.256   4.414   2.600  0.3035 -0.9550  0.7801
  536MOL0     H73911   4.303   4.343   2.880  0.0003  1.5324 -1.2175
  536MOL0     H73912   4.401   4.272   2.749  1.1149 -0.2921  1.4547
  536MOL0     H73913   4.408   4.573   2.821  0.4297 -0.3899  1.2065
  536MOL0     H73914   4.512   4.492   2.703  1.1180  0.4608  0.6841
  536MOL0     H73915   4.509   4.445   2.995  0.2752  0.9953 -0.0875
  536MOL0     H73916   4.589   4.336   2.875  0.3542  0.6567  0.8870
  536MOL0     H73917   4.567   4.712   2.908 -0.6963 -1.7546  0.8941
  536MOL0     H73918   4.742   4.910   2.769 -0.2993 -0.7912 -1.7245
  536MOL0     H73919   4.901   4.838   2.737 -1.9445 -1.5445 -1.3201
  536MOL0     H73920   4.804   4.951   3.005  0.0912 -2.1306  0.7817
  536MOL0     H73921   4.943   4.845   2.987  0.5872  0.5551  1.2746
  536MOL0     H73922   5.053   5.024   2.835  0.3372  0.7047  0.6102
  536MOL0     H73923   4.898   5.108   2.820 -1.1953  0.8357  1.1962
  536MOL0     H73924   5.040   5.217   2.975  1.7503 -0.2181  1.9971
  536MOL0     H73925   4.910   5.146   3.071  1.4542  2.6825  1.1065
  536MOL0     H73926   5.336   5.018   3.106 -0.8458  0.8340 -1.2988
  536MOL0     H73927   5.583   5.217   3.271 -1.7890  1.3956  1.6093
  536MOL0     H73928   5.553   5.059   3.200  0.8571  1.7005 -0.9276
  536MOL0     H73929   5.573   5.075   3.372 -1.5901  1.0582  0.9425
  536MOL0     H73930   5.611   5.103   3.721 -2.9367  1.0437 -0.1418
  536MOL0     H73931   5.805   5.185   3.879  1.5668 -1.7269 -0.6831
  536MOL0     H73932   5.831   5.586   3.950 -0.2120  0.3294 -0.4679
  536MOL0     H73933   5.962   5.513   4.031 -0.5596 -1.5535  0.1033
  536MOL0     H73934   6.110   5.561   3.797  1.0356 -2.1893  1.6831
  536MOL0     H73935   5.984   5.669   3.749  0.9120 -0.3546  0.4549
  536MOL0     H73936   6.169   5.780   3.839 -0.9560 -0.8386 -1.7800
  536MOL0     H73937   6.153   5.691   3.995  2.0111 -1.8473 -1.5625
  536MOL0     H73938   5.916   5.777   3.993  0.7361  0.7713  1.6947
  536MOL0     H73939   5.948   5.889   3.865 -0.2801 -1.4929 -0.8874
  536MOL0     H73940   5.972   5.987   4.114 -1.2198 -0.4843 -1.8798
  536MOL0     H73941   6.120   5.885   4.131  0.9769 -0.5158 -0.4438
  536MOL0     H73942   6.080   6.112   3.915  2.7646 -0.0960 -2.2214
  536MOL0     H73943   6.208   6.011   3.914  0.2270  0.6963  0.6967
  536MOL0     H73944   6.249   6.060   4.176  1.8898  2.5215  1.9599
  536MOL0     H73945   6.147   6.195   4.125  1.0493 -0.1346  1.7268
  536MOL0     H73946   6.368   6.272   4.071 -4.0097  0.8514  0.4658
  536MOL0     H73947   6.315   6.211   3.915 -0.8058  0.8481  0.4973
  536MOL0     H73948   5.773   5.572   3.674 -2.5005  1.0231  0.1631
  536MOL0     H73949   5.577   5.496   3.555 -0.9394  0.8807  1.2407
  536MOL0     H73950   5.125   5.307   3.443 -0.6534 -1.8773  1.4996
  536MOL0     H73951   4.990   5.189   3.287  0.3789  2.0202 -2.6407
  536MOL0     H73952   3.520   4.251   2.524  1.0115 -0.5934 -1.1691
  536MOL0     H73953   3.326   4.279   2.380  0.6865 -0.9238  0.0532
  536MOL0     H73954   2.921   4.306   2.141  0.9626 -0.4367 -1.5404
  536MOL0     H73955   2.727   4.385   2.033 -3.2418  2.6321  1.3091
  536MOL0     H73956   2.512   4.649   1.859 -0.6097  0.0186  0.2019
  536MOL0     H73957   2.576   4.485   1.899  0.0954  0.1687 -0.6347
  536MOL0     H73958   2.449   4.675   2.106  3.0240  0.6933  1.1231
  536MOL0     H73959   2.505   4.510   2.127 -1.6487  0.9742  1.9238
  536MOL0     H73960   2.304   4.625   1.929 -0.5431 -0.6564 -0.7760
  536MOL0     H73961   2.326   4.455   1.948 -3.2175 -0.6749  2.0849
  536MOL0     H73962   2.203   4.639   2.164 -0.2220 -1.6927  2.9778
  536MOL0     H73963   2.252   4.474   2.183 -1.8686 -0.1449 -0.8960
  536MOL0     H73964   1.933   4.392   1.931  0.7636 -1.9897 -0.3152
  536MOL0     H73965   2.886   4.773   2.014  0.1978  0.2665 -1.1518
  536MOL0     H73966   3.216   4.701   2.120 -0.2276 -0.6411  0.0144
  536MOL0     H73967   3.084   4.828   2.122  0.3284  0.1065  0.4004
  536MOL0     H73968   3.131   4.749   2.264 -1.8535  2.4295 -0.1974
  537MOL0     O73969   3.950   3.693  10.753  0.4163 -1.0377  0.5874
  537MOL0     C73970   3.831   3.735  10.777 -1.0318 -0.0700 -0.7808
  537MOL0     O73971   3.800   3.846  10.850  0.1574 -0.8168 -1.0060
  537MOL0     C73972   3.892   3.949  10.873  0.6153 -0.1274 -0.8388
  537MOL0     C73973   4.021   3.957  10.826 -1.0739  0.4523  0.6861
  537MOL0     C73974   4.108   4.062  10.858 -0.2785 -0.4692 -0.9156
  537MOL0     C73975   4.066   4.162  10.941  0.6575  0.7722 -1.0030
  537MOL0     O73976   4.141   4.269  10.973 -0.1047  0.4793 -0.5467
  537MOL0     C73977   4.151   4.377  10.883  0.6535 -0.4949  0.2813
  537MOL0     C73978   4.187   4.499  10.966  0.0303 -0.9423 -0.2034
  537MOL0     C73979   4.326   4.503  11.034  0.5203 -0.6439  0.3659
  537MOL0     C73980   4.344   4.630  11.109  0.0856 -0.3165  0.0077
  537MOL0     C73981   4.490   4.677  11.095 -0.2729  0.4149  0.8279
  537MOL0     C73982   4.533   4.796  11.180 -0.0834 -0.7888 -0.1985
  537MOL0     C73983   4.481   4.929  11.119  0.0787  0.2634  0.3871
  537MOL0     C73984   4.523   5.051  11.194  0.2811 -0.3925 -1.5454
  537MOL0     N73985   4.458   5.171  11.151  0.7916 -0.0094  0.1229
  537MOL0     C73986   4.477   5.245  11.032 -0.1481  0.3252 -0.2762
  537MOL0     C73987   4.372   5.338  11.037 -0.2034 -1.4641  1.0226
  537MOL0     C73988   4.348   5.434  10.922  0.0856  0.1342 -0.0400
  537MOL0     C73989   4.224   5.536  10.925  0.6604  0.1079  0.5064
  537MOL0     C73990   4.173   5.590  10.787 -0.4784 -0.7577  0.4392
  537MOL0     C73991   4.287   5.627  10.687 -0.2884  0.6126 -0.1949
  537MOL0     O73992   4.378   5.700  10.758 -0.6361  0.5289 -0.3717
  537MOL0     C73993   4.501   5.715  10.698 -0.0934 -0.9531 -0.3889
  537MOL0     C73994   4.557   5.646  10.590  0.0325  1.1921 -0.1931
  537MOL0     C73995   4.698   5.653  10.568  0.8225 -0.8868 -0.0097
  537MOL0     C73996   4.751   5.556  10.468  0.4332 -0.1547 -0.6004
  537MOL0     C73997   4.780   5.732  10.658 -0.5840 -1.7544  1.2290
  537MOL0     C73998   4.924   5.754  10.629  0.0233  0.3536  0.2216
  537MOL0     O73999   4.982   5.845  10.702  0.2502 -0.2747 -0.4105
  537MOL0     C74000   5.080   5.922  10.657  0.0622  1.0323 -0.4095
  537MOL0     C74001   5.044   6.055  10.625 -0.0380  0.0153  0.6518
  537MOL0     C74002   5.137   6.144  10.571  0.3874  0.1777  0.0878
  537MOL0     C74003   5.264   6.091  10.533  0.0437 -0.7344  0.7585
  537MOL0     O74004   5.351   6.177  10.469  0.3145 -0.4019  0.5188
  537MOL0     C74005   5.440   6.146  10.358 -0.2232 -0.0969  0.4724
  537MOL0     C74006   5.516   6.268  10.327  0.0708 -0.8769 -0.3315
  537MOL0     C74007   5.561   6.276  10.184 -0.6082  0.0811 -0.0601
  537MOL0     C74008   5.599   6.419  10.153 -0.7243  0.2423 -0.0399
  537MOL0     C74009   5.739   6.439  10.217  0.0389 -0.9140 -0.2683
  537MOL0     C74010   5.826   6.552  10.161 -0.8289 -0.0557 -0.8145
  537MOL0     C74011   5.959   6.576  10.227  0.9276 -0.1602  0.6971
  537MOL0     C74012   5.938   6.612  10.375 -0.2887 -0.3249 -0.8617
  537MOL0    Cl74013   5.947   6.459  10.471 -0.1433  0.7449  0.1736
  537MOL0     C74014   5.302   5.960  10.568  0.0722 -0.5830  0.3247
  537MOL0     C74015   5.212   5.881  10.637 -0.2157 -0.0673  0.1993
  537MOL0     O74016   4.975   5.704  10.530  0.1526  0.1591  0.0887
  537MOL0     C74017   4.722   5.803  10.755 -0.2785 -0.2023 -0.5350
  537MOL0     C74018   4.585   5.802  10.775  0.3548 -0.1808  0.5932
  537MOL0     N74019   4.298   5.323  11.154  0.7463  0.3795  0.1983
  537MOL0     N74020   4.349   5.224  11.219  0.3207 -0.4167 -0.3527
  537MOL0     C74021   3.931   4.156  10.982  0.5920 -0.0044  0.1997
  537MOL0     C74022   3.850   4.052  10.955  0.2066  0.2305  0.4174
  537MOL0     C74023   3.732   3.620  10.788  0.3062  0.9612 -0.0362
  537MOL0     C74024   3.657   3.603  10.904  0.8097  0.1640  0.9711
  537MOL0     C74025   3.565   3.505  10.915  0.0522  0.5026 -0.0589
  537MOL0     C74026   3.534   3.426  10.805  0.1840 -0.1352  0.4421
  537MOL0     O74027   3.439   3.330  10.800 -0.7391  0.2739  0.0812
  537MOL0     C74028   3.379   3.272  10.912  0.6284 -0.2824 -0.2495
  537MOL0     C74029   3.354   3.124  10.885 -0.1737  0.1138  0.5648
  537MOL0     C74030   3.262   3.054  10.985  0.8263 -0.5467 -0.1054
  537MOL0     C74031   3.242   2.903  10.959  0.3299  0.3636 -0.3292
  537MOL0     C74032   3.342   2.821  10.885  0.5539 -0.9189 -0.3450
  537MOL0     C74033   3.438   2.760  10.835  0.1079  0.2944  0.2370
  537MOL0     C74034   3.602   3.442  10.687 -0.9004 -0.0053  0.7126
  537MOL0     C74035   3.706   3.539  10.665  0.0290 -0.1634  0.0309
  537MOL0     C74036   3.769   3.538  10.529 -0.0610 -0.3321  0.5773
  537MOL0     H74037   4.061   3.895  10.747  1.4509  0.2316  2.0355
  537MOL0     H74038   4.207   4.056  10.814 -0.4592 -0.8060 -1.2862
  537MOL0     H74039   4.053   4.399  10.841  0.1979 -2.8387  0.0025
  537MOL0     H74040   4.231   4.353  10.812  1.8528  0.8085  1.1245
  537MOL0     H74041   4.183   4.585  10.898  0.8271  0.1521  1.0777
  537MOL0     H74042   4.104   4.502  11.037  1.4759  2.1901  1.5505
  537MOL0     H74043   4.328   4.422  11.108 -2.6392 -0.4884  0.7643
  537MOL0     H74044   4.392   4.492  10.948 -1.6653  1.1648 -1.6872
  537MOL0     H74045   4.275   4.709  11.076  1.1439  0.4694 -0.3584
  537MOL0     H74046   4.334   4.599  11.213 -0.6476 -2.7258 -0.7274
  537MOL0     H74047   4.524   4.682  10.992  0.7893 -2.4367  0.9428
  537MOL0     H74048   4.550   4.590  11.125  0.0996 -0.5826 -2.4320
  537MOL0     H74049   4.498   4.775  11.281  3.1058 -1.8789  0.7896
  537MOL0     H74050   4.642   4.793  11.186 -0.1266 -3.4294  0.2859
  537MOL0     H74051   4.373   4.930  11.131  0.0294 -1.7835  0.4700
  537MOL0     H74052   4.515   4.939  11.016  0.4931  2.3330  0.6920
  537MOL0     H74053   4.502   5.041  11.301  2.7735 -4.3754 -1.2146
  537MOL0     H74054   4.633   5.052  11.195  0.2857 -0.4092 -0.3775
  537MOL0     H74055   4.540   5.225  10.946 -1.2869  0.4821 -1.1569
  537MOL0     H74056   4.351   5.374  10.831  1.0397  0.2688 -0.1099
  537MOL0     H74057   4.435   5.500  10.920  1.8902 -2.1114  0.4399
  537MOL0     H74058   4.145   5.472  10.965  1.9585 -1.6040  0.4617
  537MOL0     H74059   4.237   5.626  10.986  1.2157  0.5834 -0.2940
  537MOL0     H74060   4.097   5.527  10.739  0.0988 -1.0957 -0.0516
  537MOL0     H74061   4.115   5.680  10.806  0.8279  0.5496 -1.4260
  537MOL0     H74062   4.341   5.539  10.652  0.3599  0.9587 -0.0817
  537MOL0     H74063   4.249   5.678  10.598 -1.6959 -0.3226 -0.1783
  537MOL0     H74064   4.505   5.567  10.538  0.5069  0.1439  0.8777
  537MOL0     H74065   4.802   5.478  10.526 -0.6722  0.8273  1.8193
  537MOL0     H74066   4.815   5.602  10.393 -2.2163  0.7958 -2.4184
  537MOL0     H74067   4.666   5.502  10.423 -0.2696 -1.1809  1.8011
  537MOL0     H74068   4.947   6.102  10.638 -0.5554 -0.7852 -0.2020
  537MOL0     H74069   5.121   6.248  10.544 -1.0661 -0.0821 -0.1718
  537MOL0     H74070   5.516   6.075  10.391  1.1625  1.0224 -0.1918
  537MOL0     H74071   5.383   6.106  10.273 -0.4811 -0.9848  1.0509
  537MOL0     H74072   5.448   6.352  10.344  4.3925  2.7036  1.4948
  537MOL0     H74073   5.593   6.286  10.403 -1.7404  0.4460  1.2861
  537MOL0     H74074   5.476   6.250  10.120 -0.2687 -2.1416  0.3023
  537MOL0     H74075   5.636   6.201  10.158 -2.8264 -1.9787 -0.9321
  537MOL0     H74076   5.526   6.493  10.186 -2.1603 -1.6221  1.1994
  537MOL0     H74077   5.611   6.435  10.046 -0.1761  1.9242  0.2471
  537MOL0     H74078   5.723   6.459  10.323  2.8434  0.4666 -0.0232
  537MOL0     H74079   5.795   6.345  10.218  0.4754 -0.7982  4.0758
  537MOL0     H74080   5.780   6.650  10.175  2.9707  1.7683  0.3171
  537MOL0     H74081   5.840   6.520  10.057  0.9728 -2.2394  0.0138
  537MOL0     H74082   6.007   6.662  10.178 -1.4630  0.8176 -0.0931
  537MOL0     H74083   6.026   6.490  10.225 -0.5411 -1.3482  0.9670
  537MOL0     H74084   5.844   6.664  10.395 -1.0520 -1.3703 -1.5683
  537MOL0     H74085   6.025   6.671  10.406 -0.5959 -0.8183  1.0424
  537MOL0     H74086   5.396   5.924  10.528 -0.8612 -2.1296 -0.5859
  537MOL0     H74087   5.246   5.780  10.660  5.5988  1.9569  2.5958
  537MOL0     H74088   4.787   5.870  10.811 -0.3463 -0.8246  0.3011
  537MOL0     H74089   4.552   5.852  10.866 -3.1566  1.4199 -1.3887
  537MOL0     H74090   3.891   4.239  11.040 -1.9415 -0.8264 -0.2544
  537MOL0     H74091   3.749   4.053  10.997  0.9135 -1.1146  2.2932
  537MOL0     H74092   3.681   3.665  10.990  2.1613 -1.2951  1.6991
  537MOL0     H74093   3.512   3.490  11.008 -0.1516  1.8479  0.0537
  537MOL0     H74094   3.447   3.277  10.998  0.3527  0.6462 -0.0731
  537MOL0     H74095   3.285   3.325  10.931  0.6639 -0.3159  0.0258
  537MOL0     H74096   3.448   3.068  10.885  0.0542  0.2428 -3.3039
  537MOL0     H74097   3.322   3.106  10.783 -1.6239 -0.7604  1.1458
  537MOL0     H74098   3.309   3.069  11.082  3.7904 -3.0566 -0.9986
  537MOL0     H74099   3.168   3.110  10.995  1.2131  0.3614 -1.2772
  537MOL0     H74100   3.144   2.877  10.918  0.1955 -0.2518  0.3660
  537MOL0     H74101   3.231   2.855  11.056 -3.8589  2.3189  0.4060
  537MOL0     H74102   3.509   2.703  10.778 -0.8088 -2.0430  1.3363
  537MOL0     H74103   3.578   3.379  10.602  1.6140  0.6897 -0.6159
  537MOL0     H74104   3.876   3.524  10.547 -0.2281 -2.4531  0.1565
  537MOL0     H74105   3.732   3.455  10.469 -0.6973 -0.5246  1.2297
  537MOL0     H74106   3.749   3.631  10.474  0.5837  0.0523  0.9715
  538MOL0     O74107   9.729   3.988   4.416 -0.3968  0.4661  0.3756
  538MOL0     C74108   9.680   4.093   4.450  0.6815 -0.2369 -0.3984
  538MOL0     O74109   9.735   4.217   4.436 -0.4006  0.3485  0.5445
  538MOL0     C74110   9.875   4.233   4.409  0.5488 -0.6428 -0.6030
  538MOL0     C74111   9.904   4.363   4.382 -1.0699 -0.8776 -0.5496
  538MOL0     C74112  10.042   4.403   4.375  0.3812 -0.0403 -0.0012
  538MOL0     C74113  10.143   4.309   4.396  0.2514 -0.0619  0.2788
  538MOL0     O74114  10.272   4.349   4.375 -0.3063  0.4039  0.1214
  538MOL0     C74115  10.370   4.253   4.355  0.2178  0.6348 -0.1035
  538MOL0     C74116  10.503   4.333   4.333  0.4404  0.1194  0.0821
  538MOL0     C74117  10.614   4.232   4.302  0.5601 -0.4453  0.5621
  538MOL0     C74118  10.710   4.315   4.215  0.1771 -0.0783 -0.2614
  538MOL0     C74119  10.841   4.237   4.181  0.5261 -0.5458 -0.3143
  538MOL0     C74120  10.935   4.317   4.086 -0.4925 -0.2314 -0.8005
  538MOL0     C74121  11.080   4.296   4.112 -0.5079  0.8515 -0.2774
  538MOL0     C74122  11.121   4.151   4.081 -0.2874 -0.6108  0.3735
  538MOL0     N74123  11.266   4.132   4.078 -0.8709  0.0384  0.0474
  538MOL0     C74124  11.357   4.190   3.986 -0.7319 -0.2186  0.7553
  538MOL0     C74125  11.476   4.134   4.018  0.1891 -0.0595 -0.3141
  538MOL0     C74126  11.616   4.170   3.973  0.9767  0.0822  0.0132
  538MOL0     C74127  11.711   4.057   3.945  0.2868  0.0970 -1.0822
  538MOL0     C74128  11.723   3.986   3.804  0.0909 -0.1325  0.0582
  538MOL0     C74129  11.793   4.069   3.699 -0.1884 -0.3741 -0.1032
  538MOL0     O74130  11.785   3.999   3.571 -0.6209  0.4381 -0.5492
  538MOL0     C74131  11.863   4.045   3.462 -0.3985 -0.7978 -0.7263
  538MOL0     C74132  11.922   3.952   3.385  0.6181  0.1154  0.2555
  538MOL0     C74133  12.009   3.990   3.284  0.6849  0.8673 -0.9604
  538MOL0     C74134  12.065   3.876   3.204  0.2876  0.0621 -0.7987
  538MOL0     C74135  12.021   4.124   3.244 -0.4801 -0.5872  0.2529
  538MOL0     C74136  12.113   4.172   3.129 -0.0390 -1.0326 -1.1642
  538MOL0     O74137  12.102   4.307   3.094 -0.1478 -0.0687  0.1143
  538MOL0     C74138  12.203   4.357   3.014  0.2352 -0.2300  0.4499
  538MOL0     C74139  12.311   4.424   3.072 -0.0064 -0.5956  0.3056
  538MOL0     C74140  12.407   4.493   2.985  0.3154 -0.5268 -0.5468
  538MOL0     C74141  12.401   4.490   2.850 -0.5570 -0.4695  0.1125
  538MOL0     O74142  12.494   4.553   2.775  0.4768  0.6069  1.0768
  538MOL0     C74143  12.628   4.521   2.781 -0.9297  1.0385 -0.4841
  538MOL0     C74144  12.654   4.381   2.734  0.2069 -0.1428  0.3832
  538MOL0     C74145  12.632   4.361   2.582  0.4005  0.0122 -0.5862
  538MOL0     C74146  12.690   4.237   2.534 -0.1390  0.3826  1.3724
  538MOL0     C74147  12.817   4.258   2.452 -0.5661 -0.5361  0.4287
  538MOL0     C74148  12.798   4.348   2.317  0.2532 -0.6344 -0.5829
  538MOL0     C74149  12.905   4.351   2.213  0.6380  0.6599 -0.3975
  538MOL0     C74150  12.922   4.487   2.145 -0.0345  0.6015  0.4931
  538MOL0    Cl74151  13.042   4.452   2.013 -0.4901  0.3116  0.3684
  538MOL0     C74152  12.281   4.439   2.787 -0.3660 -0.1979 -0.8547
  538MOL0     C74153  12.183   4.388   2.877  0.2130  0.6402  0.1974
  538MOL0     O74154  12.198   4.094   3.084  0.1060 -0.2517  0.2697
  538MOL0     C74155  11.960   4.213   3.322 -0.2049 -0.4643 -0.0200
  538MOL0     C74156  11.890   4.182   3.437  0.8860  0.5310 -0.7867
  538MOL0     N74157  11.459   4.052   4.125  0.5254  0.5949 -0.1433
  538MOL0     N74158  11.334   4.046   4.157  0.2331 -0.1220  0.4493
  538MOL0     C74159  10.106   4.175   4.419 -0.1793  0.3059  0.6835
  538MOL0     C74160   9.970   4.141   4.440  0.1159 -0.0237  0.6122
  538MOL0     C74161   9.544   4.087   4.499 -0.2532  0.2792 -0.2510
  538MOL0     C74162   9.461   4.192   4.467  0.3528 -0.3049  0.0589
  538MOL0     C74163   9.331   4.192   4.501  0.0450  0.5851 -0.3835
  538MOL0     C74164   9.276   4.093   4.580  0.3348 -0.1585 -0.2260
  538MOL0     O74165   9.140   4.104   4.601 -0.0673 -0.2333  0.0916
  538MOL0     C74166   9.061   3.984   4.634 -0.1469  0.0100 -0.4130
  538MOL0     C74167   9.043   3.965   4.788 -0.4364 -0.4286 -0.2990
  538MOL0     C74168   8.940   3.866   4.830 -0.2754  0.4478  0.0489
  538MOL0     C74169   8.993   3.728   4.827 -0.2491 -0.4684  1.0905
  538MOL0     C74170   8.886   3.631   4.861 -0.9716  0.4087  0.1855
  538MOL0     C74171   8.810   3.541   4.893  0.5411 -0.3400 -0.1971
  538MOL0     C74172   9.349   3.978   4.602  0.5256  0.2079  1.3723
  538MOL0     C74173   9.482   3.972   4.565  0.0123  0.3896 -0.2178
  538MOL0     C74174   9.559   3.840   4.590  0.4210 -0.1991 -0.3056
  538MOL0     H74175   9.826   4.439   4.386  2.0287  2.5164  1.1134
  538MOL0     H74176  10.072   4.507   4.359 -2.9082  0.7980 -1.6242
  538MOL0     H74177  10.344   4.194   4.267  2.2213 -0.3332 -0.0946
  538MOL0     H74178  10.379   4.184   4.440  1.3763  0.8322 -0.0557
  538MOL0     H74179  10.481   4.399   4.248  0.7342  1.1864  0.8026
  538MOL0     H74180  10.525   4.396   4.420  0.8787  0.1310 -0.0379
  538MOL0     H74181  10.659   4.202   4.398  1.1443  1.6055  0.9884
  538MOL0     H74182  10.587   4.144   4.243 -3.4851  3.3931 -4.1562
  538MOL0     H74183  10.660   4.354   4.126 -1.4846  1.0226  1.0841
  538MOL0     H74184  10.743   4.407   4.263  1.1559 -0.4082 -0.2942
  538MOL0     H74185  10.811   4.142   4.136 -0.8328 -0.3695  0.1660
  538MOL0     H74186  10.898   4.220   4.273  0.5875 -0.1300 -0.2713
  538MOL0     H74187  10.919   4.287   3.982 -0.7451  0.0446 -0.8422
  538MOL0     H74188  10.926   4.425   4.102  2.9178 -0.0449  0.7265
  538MOL0     H74189  11.115   4.325   4.211 -0.7917 -0.9495  0.3929
  538MOL0     H74190  11.128   4.353   4.032 -0.0578 -1.0049 -1.4208
  538MOL0     H74191  11.088   4.096   4.170  1.2135  0.6429  1.7973
  538MOL0     H74192  11.071   4.122   3.988 -0.7913  1.1981  0.0467
  538MOL0     H74193  11.344   4.261   3.905  1.1616  0.0618  0.6376
  538MOL0     H74194  11.660   4.232   4.052 -1.0222  1.6215  0.0110
  538MOL0     H74195  11.604   4.232   3.883 -0.8215 -0.3769 -0.1088
  538MOL0     H74196  11.813   4.087   3.972 -1.0352  1.4147  3.3900
  538MOL0     H74197  11.684   3.982   4.019 -2.0961  0.2020 -1.7527
  538MOL0     H74198  11.762   3.886   3.823  1.6416  0.4739  0.1905
  538MOL0     H74199  11.620   3.975   3.769 -0.2819  2.3477  0.1343
  538MOL0     H74200  11.758   4.172   3.694  3.1494  0.8794 -0.0318
  538MOL0     H74201  11.898   4.081   3.728 -0.6719 -0.1733  1.6519
  538MOL0     H74202  11.906   3.849   3.416  1.7992  0.0258  0.6407
  538MOL0     H74203  12.025   3.878   3.102 -2.8460 -1.4548  0.2632
  538MOL0     H74204  12.037   3.780   3.249 -1.3153  0.2392 -1.3452
  538MOL0     H74205  12.174   3.883   3.206  0.1860  3.3053 -0.1232
  538MOL0     H74206  12.328   4.420   3.179 -0.4252 -1.0843  0.3575
  538MOL0     H74207  12.491   4.543   3.033 -0.4387 -0.3041  0.5989
  538MOL0     H74208  12.692   4.593   2.729  0.8676  0.4560  0.8011
  538MOL0     H74209  12.656   4.532   2.886 -1.7844 -0.8686 -0.0090
  538MOL0     H74210  12.756   4.349   2.759  0.5244 -0.9742 -1.7765
  538MOL0     H74211  12.595   4.305   2.787  3.8206 -2.1559  1.9406
  538MOL0     H74212  12.678   4.444   2.528  1.4153 -0.2291 -0.1193
  538MOL0     H74213  12.525   4.372   2.562  0.1669  0.3356  0.7538
  538MOL0     H74214  12.622   4.185   2.466 -1.5902  0.0366  3.0459
  538MOL0     H74215  12.713   4.166   2.614  1.8843  0.2678  0.7581
  538MOL0     H74216  12.888   4.303   2.522 -0.9285 -1.1703  1.2228
  538MOL0     H74217  12.855   4.160   2.422  1.2238  0.2645 -0.0938
  538MOL0     H74218  12.794   4.451   2.354  1.1038 -0.8384  0.1254
  538MOL0     H74219  12.698   4.333   2.275  0.3090  2.2553 -1.9902
  538MOL0     H74220  12.887   4.283   2.129 -2.6570  0.6689  0.1830
  538MOL0     H74221  12.996   4.316   2.263  1.1317  2.1897 -0.1597
  538MOL0     H74222  12.958   4.564   2.213 -0.3174  2.0580 -0.9445
  538MOL0     H74223  12.829   4.520   2.099 -0.2240 -1.4893 -0.7657
  538MOL0     H74224  12.253   4.459   2.684 -2.7346  0.2664 -0.1745
  538MOL0     H74225  12.089   4.357   2.833  1.7017 -3.0368 -0.7406
  538MOL0     H74226  11.966   4.320   3.301  0.6025 -0.6060 -0.5341
  538MOL0     H74227  11.847   4.257   3.503  0.0842 -1.8141  1.5396
  538MOL0     H74228  10.174   4.095   4.445 -4.3706 -3.0979  2.4959
  538MOL0     H74229   9.953   4.037   4.468  0.5840 -0.3826 -0.3848
  538MOL0     H74230   9.479   4.283   4.411 -3.4612 -0.0808 -1.1400
  538MOL0     H74231   9.277   4.284   4.482 -0.3854  0.0617 -1.7652
  538MOL0     H74232   8.962   3.999   4.591  0.0092 -0.0444 -0.7965
  538MOL0     H74233   9.094   3.889   4.592 -3.5003 -1.7077  0.4588
  538MOL0     H74234   9.018   4.063   4.830  2.3693 -0.1935  1.0705
  538MOL0     H74235   9.141   3.946   4.834 -1.3070 -0.1136  1.8099
  538MOL0     H74236   8.900   3.903   4.925  0.3964  0.7329  0.2264
  538MOL0     H74237   8.848   3.878   4.771 -1.6254  1.0590  2.1780
  538MOL0     H74238   9.072   3.718   4.903  1.0909  1.1895 -0.0154
  538MOL0     H74239   9.041   3.696   4.734 -0.2601 -0.2514  1.0106
  538MOL0     H74240   8.757   3.451   4.917 -0.6014  0.4146  0.2442
  538MOL0     H74241   9.308   3.893   4.655 -0.6923 -0.0361  0.1042
  538MOL0     H74242   9.580   3.784   4.498 -1.7428 -1.4554 -0.1191
  538MOL0     H74243   9.652   3.855   4.645  0.4119 -5.8758  1.9302
  538MOL0     H74244   9.502   3.766   4.647 -0.1521  0.0330 -0.5657
  539MOL0     O74245   5.777   6.701   8.223  0.0823  0.1221  0.3561
  539MOL0     C74246   5.716   6.802   8.183 -0.0443 -0.2490 -0.2777
  539MOL0     O74247   5.713   6.831   8.048 -0.0991 -0.8369 -0.3412
  539MOL0     C74248   5.702   6.739   7.950  0.5326 -0.2229  0.0178
  539MOL0     C74249   5.642   6.619   7.966  0.4107  0.6718 -0.5365
  539MOL0     C74250   5.627   6.532   7.852 -0.0780  0.1590 -0.2095
  539MOL0     C74251   5.667   6.578   7.718  0.8095  0.1715  0.0167
  539MOL0     O74252   5.648   6.502   7.606 -0.5725  0.1908  0.0356
  539MOL0     C74253   5.595   6.368   7.624  0.7095 -0.9992  0.2869
  539MOL0     C74254   5.604   6.291   7.487  0.4917 -0.1858 -0.1992
  539MOL0     C74255   5.741   6.223   7.460  0.1530 -0.1581 -0.0441
  539MOL0     C74256   5.722   6.069   7.486  0.8180  0.1343  0.1017
  539MOL0     C74257   5.853   5.983   7.471 -0.9233 -0.6695 -0.7296
  539MOL0     C74258   5.906   5.928   7.605  0.0904 -0.1951 -0.0179
  539MOL0     C74259   5.808   5.819   7.644 -0.4641  0.5310  0.4066
  539MOL0     C74260   5.869   5.716   7.754  0.1188  0.3465 -0.3191
  539MOL0     N74261   5.771   5.624   7.800 -0.0186  0.3360  0.2578
  539MOL0     C74262   5.687   5.651   7.907 -0.1697  0.3466  0.1013
  539MOL0     C74263   5.591   5.566   7.907  0.7259 -0.0287 -0.1520
  539MOL0     C74264   5.471   5.567   8.003 -0.2372  0.4395  0.0095
  539MOL0     C74265   5.382   5.444   7.974 -0.5965 -0.0184  0.6329
  539MOL0     C74266   5.266   5.446   8.068 -0.1607 -0.3432  0.4838
  539MOL0     C74267   5.189   5.316   8.056 -0.1347  1.0099  1.2299
  539MOL0     O74268   5.142   5.309   7.919 -0.1742  0.4696  0.2563
  539MOL0     C74269   5.083   5.193   7.876  0.1002 -0.0061 -0.3376
  539MOL0     C74270   5.024   5.183   7.751  0.1481 -1.0302  0.3194
  539MOL0     C74271   4.965   5.064   7.704 -0.1668 -0.7886 -0.0172
  539MOL0     C74272   4.952   5.059   7.555 -0.0619  0.2611  0.3900
  539MOL0     C74273   4.926   4.961   7.796 -0.5341 -0.2514 -0.1048
  539MOL0     C74274   4.832   4.844   7.767  0.6692 -0.7272 -0.3775
  539MOL0     O74275   4.806   4.750   7.870 -0.2949  0.2335  0.1905
  539MOL0     C74276   4.748   4.631   7.856 -0.2576  1.6246 -0.1633
  539MOL0     C74277   4.721   4.578   7.731  0.4065 -0.5501  1.1329
  539MOL0     C74278   4.663   4.449   7.714  0.5996  0.2750 -0.0918
  539MOL0     C74279   4.627   4.378   7.827 -0.3874 -0.5584  0.7314
  539MOL0     O74280   4.559   4.258   7.798 -0.7153  0.2099  1.2056
  539MOL0     C74281   4.553   4.167   7.909  0.1835  0.5417 -0.8511
  539MOL0     C74282   4.475   4.047   7.860  0.2814 -0.8295  0.1069
  539MOL0     C74283   4.465   3.952   7.974 -0.0282  0.7421  0.0292
  539MOL0     C74284   4.571   3.840   7.957  0.4860 -0.4349 -0.3286
  539MOL0     C74285   4.525   3.735   7.862  0.3333  0.0740 -0.5758
  539MOL0     C74286   4.616   3.616   7.868 -1.1717  0.5073 -0.9324
  539MOL0     C74287   4.570   3.514   7.759  0.0662 -0.0109  0.4283
  539MOL0     C74288   4.664   3.413   7.715 -0.6447  0.6018 -0.5596
  539MOL0    Cl74289   4.779   3.482   7.604  0.2646  0.4724  0.5619
  539MOL0     C74290   4.660   4.432   7.953  0.3148 -0.0317 -0.8987
  539MOL0     C74291   4.727   4.555   7.960  0.5086  0.0531 -0.7241
  539MOL0     O74292   4.785   4.838   7.657  0.4251  0.0460  0.7037
  539MOL0     C74293   4.972   4.978   7.927  0.2459  0.1030  0.3152
  539MOL0     C74294   5.053   5.083   7.965 -0.0994 -0.8565  0.3500
  539MOL0     N74295   5.622   5.473   7.811  0.6468 -0.3220  0.7841
  539MOL0     N74296   5.732   5.509   7.742 -0.0306 -0.5878 -0.4806
  539MOL0     C74297   5.717   6.707   7.702  0.1029  0.1400  0.3036
  539MOL0     C74298   5.734   6.782   7.818 -0.4020 -0.2286 -0.4555
  539MOL0     C74299   5.649   6.891   8.281 -0.1625 -0.8407  0.8628
  539MOL0     C74300   5.583   7.001   8.227 -0.0135 -0.6134 -0.7237
  539MOL0     C74301   5.517   7.092   8.316  0.8550  0.2138  0.2571
  539MOL0     C74302   5.500   7.064   8.446  0.9527  1.0143  0.0099
  539MOL0     O74303   5.430   7.148   8.530  0.0788  0.2579  0.7843
  539MOL0     C74304   5.289   7.115   8.552 -1.0208  0.4372 -0.3332
  539MOL0     C74305   5.194   7.184   8.459  0.4600 -0.4778 -0.0754
  539MOL0     C74306   5.162   7.330   8.497 -0.6453 -0.7958 -0.4438
  539MOL0     C74307   5.289   7.407   8.549 -0.4035  0.0330 -0.1382
  539MOL0     C74308   5.390   7.427   8.438 -0.0098  0.6010  0.3006
  539MOL0     C74309   5.462   7.440   8.337 -0.4274  0.6656 -0.2868
  539MOL0     C74310   5.563   6.953   8.497  0.9952 -0.7324 -0.5488
  539MOL0     C74311   5.645   6.872   8.421  0.2272 -0.0249  1.0295
  539MOL0     C74312   5.710   6.758   8.493  0.2388  0.3178 -0.3230
  539MOL0     H74313   5.617   6.587   8.067  2.1070  2.7144  0.6045
  539MOL0     H74314   5.596   6.430   7.875 -0.6164  0.1713 -0.8477
  539MOL0     H74315   5.490   6.377   7.652  1.3744  2.1091  2.4429
  539MOL0     H74316   5.658   6.310   7.692  0.9687 -1.0587 -0.0013
  539MOL0     H74317   5.519   6.222   7.480  0.4819 -0.5092  2.2131
  539MOL0     H74318   5.594   6.376   7.419  0.6571  2.5758  2.9776
  539MOL0     H74319   5.766   6.256   7.359 -0.6610  1.3653  0.2163
  539MOL0     H74320   5.815   6.264   7.529 -0.0567  0.5103 -0.2155
  539MOL0     H74321   5.682   6.062   7.588  2.1029  0.4626  0.6380
  539MOL0     H74322   5.644   6.030   7.420  0.5365 -0.1563  0.5992
  539MOL0     H74323   5.929   6.048   7.426 -0.8418  1.4112  2.1685
  539MOL0     H74324   5.824   5.905   7.400 -1.0273 -2.9388  1.6547
  539MOL0     H74325   6.009   5.892   7.595  0.8742  0.4312  3.8793
  539MOL0     H74326   5.917   5.998   7.689  1.0479 -0.3350 -0.0215
  539MOL0     H74327   5.775   5.768   7.554 -4.0326 -0.0646  1.9054
  539MOL0     H74328   5.725   5.873   7.690 -0.2963  0.6815  0.5371
  539MOL0     H74329   5.951   5.661   7.705  0.1605  1.9555 -2.2006
  539MOL0     H74330   5.907   5.769   7.842 -0.1262 -0.4331  0.2655
  539MOL0     H74331   5.713   5.735   7.971 -0.8527  2.1917 -1.8901
  539MOL0     H74332   5.413   5.656   7.976 -0.4124  0.5137  0.6198
  539MOL0     H74333   5.503   5.569   8.107 -1.1925 -0.3893  0.3303
  539MOL0     H74334   5.347   5.443   7.870 -2.0119 -2.0592  1.0691
  539MOL0     H74335   5.425   5.345   7.993 -1.3364 -0.0341  2.4584
  539MOL0     H74336   5.308   5.455   8.169  1.7015 -0.1861 -0.2467
  539MOL0     H74337   5.193   5.523   8.041  0.3026 -0.7143 -2.0971
  539MOL0     H74338   5.241   5.223   8.079 -3.5269 -1.1612  0.8842
  539MOL0     H74339   5.096   5.310   8.113 -0.0998 -3.0252  1.0971
  539MOL0     H74340   5.040   5.265   7.681 -0.6628  0.3316  1.6731
  539MOL0     H74341   4.970   5.160   7.518 -0.3871  1.6249  3.5909
  539MOL0     H74342   4.854   5.022   7.525  1.7277 -2.2599 -3.0142
  539MOL0     H74343   5.024   4.981   7.527  0.0751 -0.2895  2.1612
  539MOL0     H74344   4.748   4.625   7.637  1.9858  1.4916  2.5169
  539MOL0     H74345   4.653   4.400   7.617 -3.6249  1.9843 -0.7456
  539MOL0     H74346   4.656   4.144   7.935  0.4606  2.9908  0.5142
  539MOL0     H74347   4.496   4.203   7.995  0.2290  0.2725 -0.7106
  539MOL0     H74348   4.377   4.091   7.840  0.5059  1.0900  2.6575
  539MOL0     H74349   4.526   4.001   7.775 -2.0478 -1.5702 -0.9588
  539MOL0     H74350   4.362   3.915   7.979 -0.1818  0.4278 -3.3025
  539MOL0     H74351   4.483   3.996   8.073 -1.0774 -0.9581  1.0179
  539MOL0     H74352   4.583   3.804   8.059 -2.2247  2.5447  1.2069
  539MOL0     H74353   4.668   3.880   7.926  1.1814  0.3067  2.4830
  539MOL0     H74354   4.423   3.707   7.889  0.4702 -1.3385 -1.4131
  539MOL0     H74355   4.517   3.763   7.757  1.9169  1.0198 -0.4711
  539MOL0     H74356   4.599   3.569   7.966  0.2943 -2.2465 -1.8981
  539MOL0     H74357   4.720   3.650   7.859 -0.9870  0.5175  0.8030
  539MOL0     H74358   4.543   3.571   7.670 -0.4645  0.2306  0.7396
  539MOL0     H74359   4.478   3.475   7.804 -0.3558  1.8906  1.3489
  539MOL0     H74360   4.599   3.346   7.659 -0.3739  1.9336 -2.5720
  539MOL0     H74361   4.709   3.348   7.790 -0.4003  0.3332 -0.9328
  539MOL0     H74362   4.632   4.380   8.044 -0.9081  1.5857 -0.2942
  539MOL0     H74363   4.764   4.584   8.058 -0.7869  1.9061 -0.7332
  539MOL0     H74364   4.934   4.912   8.004 -2.1146  3.6682  2.4760
  539MOL0     H74365   5.087   5.084   8.068  1.9049 -1.6247 -0.2418
  539MOL0     H74366   5.746   6.747   7.605 -0.8107  0.6211  0.2179
  539MOL0     H74367   5.787   6.875   7.805  0.4933 -1.0094 -3.0323
  539MOL0     H74368   5.593   7.025   8.121 -0.4536  2.7961 -0.1150
  539MOL0     H74369   5.464   7.178   8.276 -0.7146 -1.0753 -0.5564
  539MOL0     H74370   5.286   7.007   8.538  0.6484  0.4332 -0.8681
  539MOL0     H74371   5.258   7.159   8.648 -0.0985 -0.1103  0.2248
  539MOL0     H74372   5.106   7.119   8.469  2.9166 -4.3638 -1.2609
  539MOL0     H74373   5.233   7.178   8.357  1.1141 -3.9609  0.2347
  539MOL0     H74374   5.122   7.387   8.412  2.1717  0.5270 -0.9834
  539MOL0     H74375   5.084   7.341   8.573 -0.7043 -0.5355 -0.5405
  539MOL0     H74376   5.335   7.356   8.635  0.4099  1.4687  0.3091
  539MOL0     H74377   5.251   7.503   8.584 -1.2028 -0.2380 -0.2483
  539MOL0     H74378   5.524   7.459   8.251 -1.7897  1.6923 -1.0825
  539MOL0     H74379   5.557   6.935   8.604  0.5744  4.8440  0.6810
  539MOL0     H74380   5.705   6.660   8.444  3.5069 -0.1318  0.0187
  539MOL0     H74381   5.817   6.780   8.495  0.5203 -0.9867  0.0044
  539MOL0     H74382   5.671   6.757   8.595 -1.3403  1.3067 -0.8738
  540MOL0     O74383   8.680   2.820   7.130  0.5337 -0.2610 -0.7358
  540MOL0     C74384   8.605   2.797   7.224 -0.1972 -1.0157 -0.1956
  540MOL0     O74385   8.624   2.850   7.350 -0.5491  0.4582  0.4519
  540MOL0     C74386   8.719   2.945   7.384 -0.0215  0.0578 -0.6468
  540MOL0     C74387   8.786   3.025   7.297  0.6370 -0.0156  0.1390
  540MOL0     C74388   8.883   3.121   7.337  0.2126  0.5629  0.7170
  540MOL0     C74389   8.919   3.109   7.476 -0.9261  0.1205  0.4208
  540MOL0     O74390   9.014   3.186   7.532  0.0912 -0.2676 -0.0647
  540MOL0     C74391   9.065   3.310   7.462  0.8907  0.7770  0.0336
  540MOL0     C74392   9.139   3.395   7.551 -0.6032  0.1251 -0.2045
  540MOL0     C74393   9.246   3.319   7.632 -0.5593  0.4423  0.2933
  540MOL0     C74394   9.201   3.271   7.774  0.1479  0.4294  0.2911
  540MOL0     C74395   9.306   3.222   7.880  0.0893 -0.3852  0.0035
  540MOL0     C74396   9.371   3.089   7.862  0.2354  0.4269  0.1567
  540MOL0     C74397   9.501   3.088   7.784 -0.2581 -0.3571 -0.1653
  540MOL0     C74398   9.587   2.965   7.798  0.8666 -0.1810 -1.6703
  540MOL0     N74399   9.723   2.976   7.748 -0.5571  0.0552  1.0074
  540MOL0     C74400   9.768   2.916   7.635 -0.2184 -0.1184 -0.1789
  540MOL0     C74401   9.893   2.883   7.652 -0.0924  0.1684  0.0203
  540MOL0     C74402   9.987   2.816   7.564  0.5959 -0.1204 -0.0584
  540MOL0     C74403   9.993   2.662   7.597 -0.1715  0.2158 -0.1530
  540MOL0     C74404  10.010   2.624   7.744 -0.4785 -1.0518 -0.1041
  540MOL0     C74405  10.006   2.475   7.766 -0.5981 -0.6386  0.5985
  540MOL0     O74406  10.016   2.443   7.903 -0.2061 -0.3554 -0.7198
  540MOL0     C74407  10.135   2.407   7.965 -0.9621 -0.2352 -0.4119
  540MOL0     C74408  10.126   2.401   8.104  0.0986 -0.7111  0.6835
  540MOL0     C74409  10.240   2.364   8.185 -0.6032 -0.2498  0.8732
  540MOL0     C74410  10.216   2.335   8.334  0.3913 -0.0817  0.6383
  540MOL0     C74411  10.365   2.338   8.119 -0.1923 -0.5430 -0.1103
  540MOL0     C74412  10.498   2.301   8.190 -0.3316 -0.0684 -0.1541
  540MOL0     O74413  10.589   2.248   8.109  0.2937  0.1736  0.2819
  540MOL0     C74414  10.698   2.171   8.154  0.7163 -0.1723 -0.4008
  540MOL0     C74415  10.819   2.205   8.092 -0.3012 -0.6541  0.5186
  540MOL0     C74416  10.939   2.139   8.133  0.2106  0.4801  0.8057
  540MOL0     C74417  10.932   2.038   8.230 -0.3369  0.0620  0.7169
  540MOL0     O74418  11.048   1.987   8.252  0.2858  0.6501 -1.1287
  540MOL0     C74419  11.062   1.848   8.230  0.0279  0.2581 -0.0407
  540MOL0     C74420  11.197   1.789   8.200 -0.5986 -0.3045  0.1803
  540MOL0     C74421  11.243   1.803   8.053 -0.1651  0.2365  0.8530
  540MOL0     C74422  11.367   1.711   8.032 -0.3750 -1.0123  0.6034
  540MOL0     C74423  11.429   1.752   7.898  0.7346 -0.8951 -1.0959
  540MOL0     C74424  11.575   1.730   7.889  0.0837  0.1276 -0.5079
  540MOL0     C74425  11.636   1.802   7.773 -0.1606  0.2352  0.2493
  540MOL0     C74426  11.781   1.757   7.760 -0.0021 -0.0281 -0.5250
  540MOL0    Cl74427  11.892   1.809   7.892  0.0883  0.2784  0.5756
  540MOL0     C74428  10.806   2.004   8.288 -0.6103 -0.5707  0.1390
  540MOL0     C74429  10.689   2.074   8.255 -0.3779 -0.2978 -0.7107
  540MOL0     O74430  10.509   2.326   8.312  0.3024 -0.4760  0.1402
  540MOL0     C74431  10.369   2.354   7.983 -0.8707  0.3658 -0.5360
  540MOL0     C74432  10.267   2.394   7.907  0.7755  0.1011 -0.5456
  540MOL0     N74433   9.931   2.925   7.771 -0.0934 -0.6066  0.1819
  540MOL0     N74434   9.830   2.986   7.827  0.3161  0.0410  0.0742
  540MOL0     C74435   8.868   3.024   7.563 -0.0677 -0.4372  0.0630
  540MOL0     C74436   8.764   2.936   7.516  0.5524  0.0042 -0.1769
  540MOL0     C74437   8.475   2.721   7.206 -0.5289 -0.2490  0.0512
  540MOL0     C74438   8.409   2.674   7.318 -0.4434  0.1943  0.1911
  540MOL0     C74439   8.302   2.580   7.310  0.3238 -0.6073  1.0693
  540MOL0     C74440   8.246   2.538   7.184 -0.3941 -0.5586 -0.1444
  540MOL0     O74441   8.123   2.473   7.171 -0.0476  0.0086 -0.0875
  540MOL0     C74442   8.090   2.375   7.266  0.8599  0.3693  0.0067
  540MOL0     C74443   7.939   2.341   7.255  0.4891 -0.2945  0.0829
  540MOL0     C74444   7.886   2.233   7.348 -0.5500  0.3372 -0.1086
  540MOL0     C74445   7.942   2.089   7.331 -0.2725  0.0087  0.5424
  540MOL0     C74446   8.078   2.070   7.389  0.3247  0.7425  0.3160
  540MOL0     C74447   8.198   2.066   7.422  0.4257  0.2550 -0.3786
  540MOL0     C74448   8.302   2.608   7.077 -0.1843 -0.0852  0.1248
  540MOL0     C74449   8.409   2.695   7.080 -0.5657  0.1530  0.5210
  540MOL0     C74450   8.465   2.753   6.952  0.6733 -0.3164 -1.1051
  540MOL0     H74451   8.741   3.032   7.198  0.2984 -1.0943  0.2077
  540MOL0     H74452   8.942   3.183   7.272  2.1129 -2.0004 -0.1870
  540MOL0     H74453   8.973   3.359   7.430  0.9381  0.7097 -0.2056
  540MOL0     H74454   9.116   3.275   7.372 -0.6361  0.7600 -0.8562
  540MOL0     H74455   9.181   3.474   7.488 -0.9325 -0.0206 -0.6128
  540MOL0     H74456   9.066   3.446   7.614 -0.2711 -2.1912  2.2137
  540MOL0     H74457   9.287   3.235   7.575 -0.8550 -1.4606  2.7068
  540MOL0     H74458   9.331   3.387   7.643  2.3590 -2.1677 -3.3906
  540MOL0     H74459   9.146   3.356   7.815  0.0853  0.7759 -0.4806
  540MOL0     H74460   9.136   3.187   7.748 -1.3518  1.5031  0.4600
  540MOL0     H74461   9.249   3.217   7.973  1.0560  1.9284  0.7815
  540MOL0     H74462   9.381   3.300   7.891 -0.3060 -0.2536  2.2115
  540MOL0     H74463   9.393   3.051   7.962  0.0289  0.2026  0.1196
  540MOL0     H74464   9.296   3.022   7.818  1.7184  0.4283 -2.6495
  540MOL0     H74465   9.565   3.173   7.812 -1.0609  1.8536 -4.2090
  540MOL0     H74466   9.480   3.097   7.677 -1.4956  0.6788  0.1413
  540MOL0     H74467   9.589   2.941   7.905 -2.8070  0.0368 -1.4241
  540MOL0     H74468   9.535   2.880   7.754  0.9055 -0.4794 -1.1471
  540MOL0     H74469   9.712   2.895   7.544 -0.7820  0.2927  0.0657
  540MOL0     H74470  10.088   2.853   7.584  0.7452 -1.6963  2.5794
  540MOL0     H74471   9.959   2.826   7.458  2.1422 -1.3813 -0.6229
  540MOL0     H74472   9.906   2.609   7.558  0.0406 -0.9497  0.9250
  540MOL0     H74473  10.084   2.633   7.545 -0.5625  0.3427 -0.9250
  540MOL0     H74474  10.098   2.670   7.789 -1.2080  2.5027 -1.9339
  540MOL0     H74475   9.924   2.667   7.797  0.0633 -0.1535  0.0568
  540MOL0     H74476   9.911   2.433   7.732  0.1053 -1.2271 -0.6991
  540MOL0     H74477  10.084   2.427   7.706 -0.9522  0.9358 -1.1999
  540MOL0     H74478  10.027   2.422   8.142 -0.7910  0.4557 -2.0300
  540MOL0     H74479  10.110   2.335   8.361  0.3163 -1.7061  0.4698
  540MOL0     H74480  10.267   2.415   8.389  0.1076 -0.1192  0.9574
  540MOL0     H74481  10.266   2.245   8.370  0.1918  0.0262  1.1942
  540MOL0     H74482  10.821   2.282   8.015 -2.5150 -0.5970  0.4316
  540MOL0     H74483  11.036   2.141   8.083  0.2287 -2.9655  0.4227
  540MOL0     H74484  11.031   1.803   8.325 -0.7265 -0.8825 -0.7924
  540MOL0     H74485  10.997   1.812   8.149 -0.6797  1.8358 -0.2205
  540MOL0     H74486  11.256   1.828   8.283 -0.4305 -2.7113  1.2457
  540MOL0     H74487  11.198   1.684   8.228  0.6733  0.0892  1.7032
  540MOL0     H74488  11.266   1.909   8.044 -1.3228  0.4267 -0.2471
  540MOL0     H74489  11.160   1.776   7.986 -1.1055  2.0154  1.2378
  540MOL0     H74490  11.342   1.604   8.038  1.4032 -1.4248  1.1471
  540MOL0     H74491  11.432   1.728   8.119 -2.5821  1.7945  1.8721
  540MOL0     H74492  11.363   1.705   7.824 -1.7521  0.6087  0.0355
  540MOL0     H74493  11.420   1.861   7.891 -2.3679 -1.1406 -2.8191
  540MOL0     H74494  11.606   1.625   7.887 -1.9918 -0.5122 -0.7025
  540MOL0     H74495  11.615   1.765   7.985 -2.4462 -1.2831  1.1482
  540MOL0     H74496  11.621   1.910   7.781 -1.9907  0.0032  0.3581
  540MOL0     H74497  11.594   1.775   7.675 -0.9650 -1.7870  1.0987
  540MOL0     H74498  11.815   1.793   7.662  0.4068  2.3164  0.4219
  540MOL0     H74499  11.787   1.648   7.768  1.4762 -0.0441 -1.3789
  540MOL0     H74500  10.805   1.934   8.371  0.2094  1.9343  2.4104
  540MOL0     H74501  10.597   2.054   8.308 -0.9217 -0.2417 -1.6052
  540MOL0     H74502  10.464   2.346   7.932 -0.3412  2.6371 -0.0235
  540MOL0     H74503  10.280   2.397   7.799 -1.3664  1.6703 -0.8180
  540MOL0     H74504   8.899   3.035   7.666 -1.6142  0.5983  0.4522
  540MOL0     H74505   8.698   2.884   7.585  1.4213 -0.1690  0.5306
  540MOL0     H74506   8.458   2.696   7.412 -1.0503  0.3848  0.4702
  540MOL0     H74507   8.262   2.537   7.401 -0.8429 -2.9798 -0.4722
  540MOL0     H74508   8.150   2.284   7.252  2.2715  1.0722  1.1674
  540MOL0     H74509   8.108   2.412   7.368  0.5448 -2.5044  1.2118
  540MOL0     H74510   7.910   2.322   7.151 -4.2059  1.8267  0.7216
  540MOL0     H74511   7.885   2.429   7.291 -3.0136 -1.7414 -1.1825
  540MOL0     H74512   7.903   2.265   7.451  3.7377 -0.8289 -0.2903
  540MOL0     H74513   7.778   2.224   7.332 -1.0894 -1.2327  3.4888
  540MOL0     H74514   7.943   2.056   7.227  0.5385 -1.4573  0.9980
  540MOL0     H74515   7.878   2.024   7.392 -0.1966  0.6488  1.3229
  540MOL0     H74516   8.299   2.060   7.457  0.2479 -2.0969 -0.1201
  540MOL0     H74517   8.257   2.587   6.981 -1.5638 -0.7513  0.9023
  540MOL0     H74518   8.553   2.692   6.931 -0.2636 -1.4546 -1.8344
  540MOL0     H74519   8.398   2.751   6.865 -0.4596  0.5264 -0.2741
  540MOL0     H74520   8.497   2.853   6.982  0.1907  0.2083 -2.2914
  541MOL0     O74521   8.661   1.841   6.408 -0.3091 -0.4609  0.2880
  541MOL0     C74522   8.716   1.795   6.308  0.3534  0.0561 -0.5681
  541MOL0     O74523   8.827   1.710   6.306  0.7778 -0.4481  0.7576
  541MOL0     C74524   8.894   1.703   6.422 -0.0312 -0.4074 -0.6840
  541MOL0     C74525   9.024   1.762   6.436 -0.2157 -1.6143  0.4342
  541MOL0     C74526   9.088   1.764   6.562  0.3755  0.7931  0.3640
  541MOL0     C74527   9.038   1.692   6.667  0.6261  0.3351 -0.1833
  541MOL0     O74528   9.116   1.692   6.778 -0.6648  0.1436  0.0528
  541MOL0     C74529   9.138   1.561   6.845  1.0146 -0.5427 -0.6455
  541MOL0     C74530   9.284   1.542   6.883  0.3802  0.3583 -0.2800
  541MOL0     C74531   9.382   1.580   6.778 -0.1816 -0.5217 -0.2528
  541MOL0     C74532   9.528   1.519   6.796 -0.4482 -0.1280 -0.1425
  541MOL0     C74533   9.591   1.490   6.656  0.1916  0.2594 -0.3685
  541MOL0     C74534   9.620   1.612   6.565  0.6681  0.7604 -0.0192
  541MOL0     C74535   9.695   1.572   6.444 -0.7145 -1.2556 -0.1669
  541MOL0     C74536   9.605   1.528   6.321 -0.6424  0.9539 -0.8488
  541MOL0     N74537   9.512   1.636   6.279  0.9887  0.5616  0.2470
  541MOL0     C74538   9.544   1.765   6.249 -0.1744  0.5764  0.6879
  541MOL0     C74539   9.431   1.829   6.221 -0.3614  0.7533 -0.0722
  541MOL0     C74540   9.442   1.974   6.191 -0.0846  0.6444 -1.2701
  541MOL0     C74541   9.523   2.015   6.068 -0.4012 -0.9307 -0.1260
  541MOL0     C74542   9.479   2.155   6.020  0.2241  0.8254 -0.1284
  541MOL0     C74543   9.562   2.273   6.076 -0.1105 -0.3530 -0.0237
  541MOL0     O74544   9.705   2.243   6.070 -0.8683  0.4929 -0.2978
  541MOL0     C74545   9.784   2.349   6.038  0.1580  0.1423 -0.5705
  541MOL0     C74546   9.884   2.397   6.128 -0.5379  0.3542  0.2732
  541MOL0     C74547   9.977   2.496   6.101 -0.0996 -0.2923  0.1497
  541MOL0     C74548  10.093   2.516   6.200  0.3480 -0.3341 -0.2556
  541MOL0     C74549   9.955   2.571   5.977  0.1265 -0.3991  0.0028
  541MOL0     C74550  10.049   2.682   5.932 -0.0886 -0.3546 -0.0283
  541MOL0     O74551  10.044   2.723   5.799 -0.4681  0.0209 -0.1680
  541MOL0     C74552  10.135   2.809   5.750 -0.9312 -0.7472  0.2518
  541MOL0     C74553  10.098   2.941   5.716  0.1798  0.3838  0.1288
  541MOL0     C74554  10.193   3.039   5.688 -0.2734  0.6936 -0.5755
  541MOL0     C74555  10.329   2.996   5.675 -0.3697  0.5112  0.7121
  541MOL0     O74556  10.428   3.094   5.647  0.1302  0.4074 -0.2724
  541MOL0     C74557  10.386   3.188   5.544 -0.4434 -0.8098 -0.3646
  541MOL0     C74558  10.512   3.239   5.468 -0.7547 -0.0657  0.0848
  541MOL0     C74559  10.577   3.121   5.393 -0.2264 -0.6922  0.0447
  541MOL0     C74560  10.721   3.161   5.349 -0.4562 -1.1041  0.1972
  541MOL0     C74561  10.810   3.049   5.297  0.3074  0.0932  0.6096
  541MOL0     C74562  10.768   3.005   5.159 -0.3143 -0.3227  0.5947
  541MOL0     C74563  10.860   2.891   5.113  0.2784  0.9361  0.1039
  541MOL0     C74564  10.801   2.804   5.003  0.2068  1.2751 -0.1542
  541MOL0    Cl74565  10.926   2.709   4.928  0.0084  0.2181  0.5024
  541MOL0     C74566  10.371   2.860   5.687  0.2810  0.9817 -0.7282
  541MOL0     C74567  10.268   2.766   5.725 -0.3546  0.7651 -0.9939
  541MOL0     O74568  10.116   2.743   6.019  0.2460 -0.3826 -0.4053
  541MOL0     C74569   9.851   2.531   5.890 -0.3169 -0.2507  0.7773
  541MOL0     C74570   9.773   2.422   5.920  0.2760  0.0197  1.0709
  541MOL0     N74571   9.324   1.744   6.230 -0.3111  0.9701  0.7764
  541MOL0     N74572   9.374   1.626   6.270  0.3123 -0.0213 -0.1075
  541MOL0     C74573   8.920   1.617   6.654  0.4180  0.3733 -0.7356
  541MOL0     C74574   8.848   1.628   6.536 -0.1009  0.3941  0.4111
  541MOL0     C74575   8.633   1.811   6.174 -0.5195  0.6834 -0.7780
  541MOL0     C74576   8.496   1.833   6.183 -0.0651 -0.5592  1.6090
  541MOL0     C74577   8.414   1.823   6.064 -0.6106  0.1201 -0.3056
  541MOL0     C74578   8.474   1.802   5.941  0.0503 -0.0206  0.5057
  541MOL0     O74579   8.400   1.798   5.829  0.2151  0.0371  0.0893
  541MOL0     C74580   8.419   1.707   5.721  1.2477 -0.9807 -0.0868
  541MOL0     C74581   8.304   1.712   5.618  0.4330 -0.2461 -0.0451
  541MOL0     C74582   8.181   1.635   5.672 -0.5798  0.3948 -0.1908
  541MOL0     C74583   8.051   1.695   5.617 -0.1534 -0.2647  0.2749
  541MOL0     C74584   7.927   1.633   5.682 -0.1226 -0.5296 -0.6992
  541MOL0     C74585   7.856   1.564   5.757  0.0259  0.3590 -0.0796
  541MOL0     C74586   8.618   1.789   5.925  0.0673  0.2669  0.2888
  541MOL0     C74587   8.696   1.792   6.045 -0.9997 -0.1361 -0.1382
  541MOL0     C74588   8.849   1.764   6.037  0.4410  0.2456 -0.3688
  541MOL0     H74589   9.065   1.821   6.355  2.9016 -1.3198  2.0617
  541MOL0     H74590   9.183   1.815   6.573  0.1526  1.1216  0.7696
  541MOL0     H74591   9.109   1.486   6.772 -0.0764 -0.7620 -0.0143
  541MOL0     H74592   9.071   1.561   6.932 -0.4134  0.0943 -1.7014
  541MOL0     H74593   9.304   1.608   6.968 -1.4195  1.9950 -1.0385
  541MOL0     H74594   9.303   1.443   6.924  1.0200  1.2684  1.7509
  541MOL0     H74595   9.340   1.531   6.689 -0.1037 -1.7317  0.3607
  541MOL0     H74596   9.390   1.689   6.766 -3.6202 -0.3559 -2.6902
  541MOL0     H74597   9.597   1.583   6.852  1.0238 -0.7352 -1.1994
  541MOL0     H74598   9.521   1.428   6.855 -1.1798 -0.0196 -0.0568
  541MOL0     H74599   9.514   1.425   6.613  0.8584  1.0738 -2.9404
  541MOL0     H74600   9.685   1.435   6.666 -0.3049 -0.2869  2.0621
  541MOL0     H74601   9.529   1.664   6.534 -0.5979 -0.9328  0.7111
  541MOL0     H74602   9.679   1.683   6.624 -0.3575  0.5027  1.3630
  541MOL0     H74603   9.777   1.503   6.470  0.0964 -1.7077 -3.5240
  541MOL0     H74604   9.759   1.659   6.426 -0.0051 -1.3856  1.5247
  541MOL0     H74605   9.671   1.507   6.237  1.9660 -2.5621  1.7709
  541MOL0     H74606   9.556   1.434   6.345 -2.3615  1.6202 -1.5607
  541MOL0     H74607   9.643   1.810   6.248  0.9204 -1.6753  1.4323
  541MOL0     H74608   9.483   2.023   6.280 -0.7301  0.4683 -0.8648
  541MOL0     H74609   9.335   1.996   6.180 -0.8015 -1.6046  0.6080
  541MOL0     H74610   9.628   2.014   6.098 -0.8104  1.3441  1.7432
  541MOL0     H74611   9.514   1.949   5.982  1.7259 -2.0342  0.4375
  541MOL0     H74612   9.477   2.146   5.911  2.7852 -2.8591 -0.0379
  541MOL0     H74613   9.375   2.167   6.052 -0.0698 -0.0795 -0.7359
  541MOL0     H74614   9.543   2.369   6.026  1.3533 -0.1981 -0.3439
  541MOL0     H74615   9.528   2.285   6.179 -3.4841 -0.4045 -1.0003
  541MOL0     H74616   9.902   2.337   6.217  0.2882 -0.1605 -0.2148
  541MOL0     H74617  10.080   2.617   6.239 -3.7677 -0.5901 -0.5494
  541MOL0     H74618  10.194   2.510   6.156  0.2705  0.6777 -0.6020
  541MOL0     H74619  10.099   2.450   6.286  2.1622  2.4016  1.8877
  541MOL0     H74620   9.996   2.973   5.736  0.2195 -0.3099  1.4808
  541MOL0     H74621  10.163   3.142   5.675  1.6425  1.1782 -1.4190
  541MOL0     H74622  10.317   3.133   5.479  0.4892 -0.9449 -1.2551
  541MOL0     H74623  10.331   3.276   5.581 -0.8780 -0.9908 -0.5684
  541MOL0     H74624  10.471   3.308   5.394  1.1510 -0.7837 -1.7316
  541MOL0     H74625  10.579   3.274   5.547  2.1191 -1.6871 -1.4606
  541MOL0     H74626  10.512   3.084   5.313 -1.0271  0.3056  0.2226
  541MOL0     H74627  10.587   3.033   5.458 -2.9157 -2.5722 -1.8631
  541MOL0     H74628  10.774   3.207   5.433  0.3527  3.2486 -2.4227
  541MOL0     H74629  10.734   3.228   5.264  1.3006  0.4926  1.6316
  541MOL0     H74630  10.914   3.081   5.305  0.0733  0.6920  1.4014
  541MOL0     H74631  10.808   2.958   5.357 -0.3844 -0.2664  0.0643
  541MOL0     H74632  10.776   3.087   5.087 -1.5309  0.6199  1.4872
  541MOL0     H74633  10.665   2.967   5.163 -0.7389  0.5289 -1.1802
  541MOL0     H74634  10.885   2.830   5.201  0.2169 -2.5985 -2.1072
  541MOL0     H74635  10.953   2.936   5.078  0.7370  0.1218  0.2537
  541MOL0     H74636  10.749   2.863   4.927 -0.4488  2.3301  1.0768
  541MOL0     H74637  10.726   2.734   5.042 -0.2281  1.4587 -0.6435
  541MOL0     H74638  10.476   2.836   5.674  0.5983  1.3374  0.9029
  541MOL0     H74639  10.287   2.662   5.747 -3.1524  0.1304 -1.1591
  541MOL0     H74640   9.838   2.585   5.797  0.5788 -2.5835 -0.8021
  541MOL0     H74641   9.710   2.395   5.836  1.4558  3.6611 -1.2476
  541MOL0     H74642   8.892   1.536   6.721  0.5927 -0.7035 -1.9254
  541MOL0     H74643   8.747   1.591   6.524  0.0813 -0.2131  0.7467
  541MOL0     H74644   8.442   1.853   6.275  0.2003 -0.0839  1.6674
  541MOL0     H74645   8.307   1.836   6.075 -0.8307 -0.1150 -1.8908
  541MOL0     H74646   8.515   1.732   5.675  1.6842  0.1416  1.3494
  541MOL0     H74647   8.428   1.603   5.755 -0.5239 -0.8557  0.8545
  541MOL0     H74648   8.340   1.656   5.531 -0.4607 -0.3107 -0.3832
  541MOL0     H74649   8.281   1.813   5.582 -3.4992 -1.4283 -1.3495
  541MOL0     H74650   8.190   1.533   5.633  0.7085 -0.5535  2.3322
  541MOL0     H74651   8.174   1.644   5.781 -2.0918  0.0910 -0.2490
  541MOL0     H74652   8.048   1.701   5.508  1.9552  1.4418  0.2290
  541MOL0     H74653   8.055   1.803   5.638 -0.2478  0.1077 -1.4767
  541MOL0     H74654   7.793   1.500   5.816  1.0223  1.0612  1.8444
  541MOL0     H74655   8.657   1.762   5.828  1.4624  0.2972  0.8306
  541MOL0     H74656   8.882   1.777   5.934 -1.3000  2.1505 -0.7572
  541MOL0     H74657   8.906   1.829   6.104 -0.3674  0.0597  0.5245
  541MOL0     H74658   8.879   1.662   6.062  1.8757  0.8053  0.2954
  542MOL0     O74659   0.138   9.940   6.931  0.0628 -0.3081 -0.2696
  542MOL0     C74660   0.070   9.880   7.015 -0.6062  0.1118  0.6273
  542MOL0     O74661   0.112   9.841   7.137  0.0102 -0.2788 -0.4568
  542MOL0     C74662   0.245   9.857   7.175  0.0213 -0.2786 -0.4051
  542MOL0     C74663   0.278   9.909   7.302  0.3346  0.5667 -0.8375
  542MOL0     C74664   0.409   9.913   7.340  0.7265  0.8963 -0.7554
  542MOL0     C74665   0.516   9.871   7.259 -0.2076  0.1550 -1.2790
  542MOL0     O74666   0.648   9.874   7.305  0.1881  0.2045 -0.0743
  542MOL0     C74667   0.667   9.876   7.448  0.4906  0.0907 -0.9310
  542MOL0     C74668   0.819   9.852   7.482  0.3307 -0.2588  0.1155
  542MOL0     C74669   0.894   9.950   7.394 -0.2291  0.5563  0.0472
  542MOL0     C74670   1.049   9.939   7.426 -0.6388 -0.7271 -0.5933
  542MOL0     C74671   1.128  10.048   7.355 -0.0069 -0.4896  0.2645
  542MOL0     C74672   1.152  10.025   7.208  0.2130 -0.9011 -0.8701
  542MOL0     C74673   1.275  10.095   7.157 -0.4071 -0.1829 -0.3688
  542MOL0     C74674   1.399  10.020   7.190  0.1493  1.6048 -0.3359
  542MOL0     N74675   1.413   9.897   7.102  1.1168  0.1783  0.5657
  542MOL0     C74676   1.399   9.766   7.137 -0.9050 -0.5263  0.2246
  542MOL0     C74677   1.411   9.693   7.024 -0.8514 -0.3902 -0.6393
  542MOL0     C74678   1.397   9.537   7.026 -0.2927 -0.0342  0.0806
  542MOL0     C74679   1.521   9.471   7.072  1.0596 -0.0521 -0.4421
  542MOL0     C74680   1.484   9.328   7.143 -0.5681 -1.2589 -0.1349
  542MOL0     C74681   1.412   9.229   7.061  0.2510  0.0890 -0.4985
  542MOL0     O74682   1.372   9.124   7.152  0.1917 -0.6909  1.1631
  542MOL0     C74683   1.311   9.016   7.088 -0.0954  0.8669  0.4301
  542MOL0     C74684   1.256   8.921   7.171 -0.3227 -0.1527 -0.3564
  542MOL0     C74685   1.195   8.802   7.133  0.6100 -0.8494  0.6950
  542MOL0     C74686   1.137   8.712   7.240 -0.0675 -0.3866  0.5413
  542MOL0     C74687   1.183   8.781   6.988 -0.2347 -0.1564  0.2772
  542MOL0     C74688   1.119   8.667   6.923 -0.4266 -0.2734 -0.0432
  542MOL0     O74689   1.079   8.687   6.795 -0.8021 -0.4184  0.2585
  542MOL0     C74690   0.980   8.601   6.745 -0.0187 -0.5937  0.1630
  542MOL0     C74691   0.988   8.466   6.734 -0.1510  0.9323  0.5545
  542MOL0     C74692   0.884   8.389   6.683 -0.6732 -0.3212 -0.1125
  542MOL0     C74693   0.765   8.446   6.652  0.8302 -0.3343 -0.5914
  542MOL0     O74694   0.647   8.370   6.624 -0.5850  0.0276 -0.3898
  542MOL0     C74695   0.533   8.388   6.716 -0.4162 -0.4615  0.0705
  542MOL0     C74696   0.411   8.385   6.628 -0.3359 -0.0644  0.1046
  542MOL0     C74697   0.289   8.364   6.715  0.3680  0.1648  1.0131
  542MOL0     C74698   0.159   8.383   6.636  1.0788  0.1249 -0.9246
  542MOL0     C74699   0.041   8.392   6.735  0.6162 -0.4951  0.8321
  542MOL0     C74700  -0.047   8.503   6.685 -0.4317 -1.0740 -0.5134
  542MOL0     C74701  -0.180   8.506   6.760 -0.2559  0.2338  0.3537
  542MOL0     C74702  -0.279   8.599   6.695 -0.4730 -0.5627  0.0180
  542MOL0    Cl74703  -0.213   8.759   6.639 -0.0085  0.3937  0.2691
  542MOL0     C74704   0.750   8.588   6.663  0.6331  0.7654  0.0298
  542MOL0     C74705   0.863   8.673   6.708  1.1154  0.2789  0.0553
  542MOL0     O74706   1.119   8.561   6.987 -0.1342 -0.6690  0.1034
  542MOL0     C74707   1.245   8.877   6.893  0.4705 -0.2317 -0.2613
  542MOL0     C74708   1.305   9.000   6.947  0.2267  0.5380 -0.4282
  542MOL0     N74709   1.423   9.780   6.918  0.9580 -0.0293 -0.3275
  542MOL0     N74710   1.437   9.898   6.969  0.5599  0.0610 -0.0565
  542MOL0     C74711   0.486   9.822   7.138  0.6463  0.0303  0.0426
  542MOL0     C74712   0.351   9.811   7.091 -0.0447 -0.8685 -0.6001
  542MOL0     C74713  -0.060   9.838   6.968  0.2411 -0.2782 -0.8019
  542MOL0     C74714  -0.071   9.709   6.924  1.1998  1.0110  0.8763
  542MOL0     C74715  -0.188   9.662   6.866  0.0200  0.3004 -0.2310
  542MOL0     C74716  -0.297   9.737   6.858  0.3321  0.3074  0.2264
  542MOL0     O74717  -0.416   9.708   6.793  0.3166  0.0252  0.7209
  542MOL0     C74718  -0.443   9.572   6.762 -0.4835 -0.5899  0.0056
  542MOL0     C74719  -0.459   9.476   6.886  0.8518  0.2325 -0.3965
  542MOL0     C74720  -0.610   9.448   6.899  0.6488 -0.1781  0.0956
  542MOL0     C74721  -0.679   9.579   6.940 -0.4581 -0.1834 -0.3083
  542MOL0     C74722  -0.822   9.559   6.950  1.5001 -0.5738  0.3965
  542MOL0     C74723  -0.949   9.548   6.957  0.3707 -0.3014 -0.0319
  542MOL0     C74724  -0.284   9.868   6.906  0.6012 -0.1521 -0.3802
  542MOL0     C74725  -0.170   9.921   6.968  0.0621 -0.1177  0.5640
  542MOL0     C74726  -0.173  10.059   7.020 -0.6050  0.5057 -0.7465
  542MOL0     H74727   0.202   9.935   7.374  2.4324  3.2990  0.5782
  542MOL0     H74728   0.440   9.943   7.440 -0.7505  1.4586 -0.4406
  542MOL0     H74729   0.617   9.793   7.498  1.4083 -0.9966 -1.7674
  542MOL0     H74730   0.640   9.972   7.495 -0.6953 -0.6949  0.0583
  542MOL0     H74731   0.842   9.877   7.586 -0.7268 -0.0346  0.3100
  542MOL0     H74732   0.841   9.749   7.453 -0.1522  0.5470 -3.6198
  542MOL0     H74733   0.880   9.920   7.290  2.3708  0.4697 -0.3540
  542MOL0     H74734   0.847  10.049   7.398 -0.4410  0.4857 -0.5861
  542MOL0     H74735   1.054   9.965   7.532 -4.3369  1.3175 -0.7596
  542MOL0     H74736   1.085   9.837   7.407  0.3093 -0.4185 -0.5183
  542MOL0     H74737   1.226  10.053   7.405 -0.1469  1.9592  0.4249
  542MOL0     H74738   1.082  10.147   7.364  1.0240  0.0681 -0.3383
  542MOL0     H74739   1.151   9.921   7.174 -0.5056 -0.2599 -2.9864
  542MOL0     H74740   1.066  10.063   7.153 -0.0352  0.6209  0.5060
  542MOL0     H74741   1.284  10.194   7.203 -2.0797  0.1161 -0.6360
  542MOL0     H74742   1.274  10.100   7.048  2.9996 -0.1226 -0.5239
  542MOL0     H74743   1.480  10.092   7.180  1.4103  0.0571 -1.7443
  542MOL0     H74744   1.405   9.988   7.295 -0.2717 -1.1230 -1.0561
  542MOL0     H74745   1.395   9.727   7.239 -1.3362  1.0760  0.8519
  542MOL0     H74746   1.375   9.501   6.925 -0.3716  0.2840 -0.0152
  542MOL0     H74747   1.317   9.507   7.094  0.4819  2.7437  2.3769
  542MOL0     H74748   1.597   9.455   6.995  1.1542 -1.0613 -0.1605
  542MOL0     H74749   1.572   9.532   7.147  1.7138 -1.6357  0.4799
  542MOL0     H74750   1.580   9.293   7.182  1.4272  2.5083 -1.1312
  542MOL0     H74751   1.422   9.344   7.232  1.1912  1.0431  0.7818
  542MOL0     H74752   1.324   9.263   7.006 -1.4622 -1.7430  0.9446
  542MOL0     H74753   1.484   9.178   6.996  1.3849  0.5544  0.3414
  542MOL0     H74754   1.271   8.946   7.276  0.3573 -2.2982  0.0966
  542MOL0     H74755   1.038   8.678   7.209 -0.9017  0.9248  1.6427
  542MOL0     H74756   1.106   8.773   7.325 -1.2305 -1.9960  1.3275
  542MOL0     H74757   1.202   8.627   7.264  1.5507  0.7711  0.4575
  542MOL0     H74758   1.077   8.413   6.765  1.0125  0.6955 -2.7624
  542MOL0     H74759   0.899   8.282   6.695  1.9285  0.0497  0.5479
  542MOL0     H74760   0.541   8.303   6.784  1.6944 -1.8190 -1.7256
  542MOL0     H74761   0.546   8.480   6.773 -1.6039 -1.2620  1.6945
  542MOL0     H74762   0.400   8.478   6.571  0.9668  0.8881  1.3558
  542MOL0     H74763   0.423   8.301   6.558  3.3070 -1.2905  1.9313
  542MOL0     H74764   0.302   8.433   6.799  1.3841 -1.3552  2.1638
  542MOL0     H74765   0.301   8.264   6.758  2.9659  1.0604  2.5878
  542MOL0     H74766   0.141   8.294   6.574 -0.2595  1.6169 -2.7901
  542MOL0     H74767   0.160   8.470   6.570 -0.8582  0.6257 -0.3729
  542MOL0     H74768  -0.004   8.292   6.746 -0.6280 -0.4063 -2.3160
  542MOL0     H74769   0.084   8.415   6.833  0.5514 -0.7137  0.9130
  542MOL0     H74770  -0.062   8.479   6.579  0.4415  0.3603 -0.9958
  542MOL0     H74771   0.006   8.595   6.709  0.4705 -1.8999  0.8209
  542MOL0     H74772  -0.160   8.532   6.864 -1.5121  0.3573  0.5854
  542MOL0     H74773  -0.217   8.403   6.763  2.3129 -0.7662  0.6135
  542MOL0     H74774  -0.360   8.620   6.765 -1.3634  0.7807 -1.3431
  542MOL0     H74775  -0.314   8.546   6.606  1.8869  0.0563 -1.3822
  542MOL0     H74776   0.656   8.635   6.638  0.5050  0.5154  0.0428
  542MOL0     H74777   0.846   8.779   6.719 -0.2966  0.1089 -0.3223
  542MOL0     H74778   1.240   8.871   6.784 -1.5158 -1.9834 -0.1250
  542MOL0     H74779   1.330   9.073   6.870 -2.7215  1.3947 -0.7141
  542MOL0     H74780   0.570   9.786   7.079 -0.1546  1.3104 -1.9760
  542MOL0     H74781   0.320   9.755   7.004  0.1639  0.4268 -1.5227
  542MOL0     H74782   0.003   9.630   6.926 -0.8103 -1.4406 -3.9689
  542MOL0     H74783  -0.182   9.567   6.814  4.3931 -0.3382  1.0604
  542MOL0     H74784  -0.530   9.571   6.695 -2.2194  1.8689  2.0209
  542MOL0     H74785  -0.370   9.526   6.694 -2.8599 -1.5217 -2.1049
  542MOL0     H74786  -0.420   9.515   6.980  1.7595 -2.7042  0.5531
  542MOL0     H74787  -0.400   9.386   6.864  2.5411  1.2537 -0.2121
  542MOL0     H74788  -0.650   9.408   6.805 -2.3778  0.3267  1.0392
  542MOL0     H74789  -0.625   9.373   6.977  2.9150 -0.5504  0.2324
  542MOL0     H74790  -0.660   9.655   6.864 -3.2469  0.4413 -0.4873
  542MOL0     H74791  -0.647   9.608   7.041  2.5524 -0.8825 -0.9704
  542MOL0     H74792  -1.054   9.529   6.969  0.3865 -0.9534 -0.8201
  542MOL0     H74793  -0.369   9.935   6.916 -1.6062 -2.8318  0.2562
  542MOL0     H74794  -0.123  10.075   7.116  0.6793 -0.2981 -1.2607
  542MOL0     H74795  -0.117  10.122   6.951 -0.4244  0.8229 -0.3150
  542MOL0     H74796  -0.271  10.107   7.022 -1.1344 -0.5606  0.5266
  543MOL0     O74797   5.200   1.761   4.279 -0.2193 -0.3002 -0.4052
  543MOL0     C74798   5.165   1.840   4.190 -0.3307  0.6770  0.1502
  543MOL0     O74799   5.247   1.871   4.080 -0.3684 -0.1351 -0.0291
  543MOL0     C74800   5.384   1.838   4.079 -0.3660 -0.6540 -0.1914
  543MOL0     C74801   5.434   1.767   3.974 -0.3086  0.8285  0.0175
  543MOL0     C74802   5.571   1.753   3.964  0.1244 -0.4838 -0.3349
  543MOL0     C74803   5.654   1.806   4.060 -0.5278 -0.1813 -0.5569
  543MOL0     O74804   5.792   1.787   4.042 -0.4979  0.4280  0.3977
  543MOL0     C74805   5.870   1.907   4.015  1.7509 -0.2830  0.3671
  543MOL0     C74806   6.002   1.886   4.068 -0.0462  0.6615 -0.2772
  543MOL0     C74807   6.086   1.775   3.999  0.3514 -0.2296 -0.1952
  543MOL0     C74808   6.085   1.639   4.076  0.4111  0.4041  0.1280
  543MOL0     C74809   6.152   1.621   4.208  0.0797 -0.3331 -0.5276
  543MOL0     C74810   6.304   1.616   4.186  0.2616  0.5413 -0.3770
  543MOL0     C74811   6.369   1.635   4.327 -0.3542  0.7719 -0.4551
  543MOL0     C74812   6.427   1.511   4.386 -0.5037  0.0092 -0.7190
  543MOL0     N74813   6.541   1.457   4.309 -0.7616 -0.0171  0.0980
  543MOL0     C74814   6.545   1.339   4.241 -0.3267  0.3013  0.9545
  543MOL0     C74815   6.675   1.321   4.212  0.3071  0.1364 -0.7406
  543MOL0     C74816   6.715   1.195   4.141 -0.2450  0.1755 -0.0056
  543MOL0     C74817   6.858   1.203   4.101  0.4910  0.3443  0.3283
  543MOL0     C74818   6.904   1.087   4.012  0.3917  0.0793 -0.6388
  543MOL0     C74819   7.037   1.103   3.939  0.2910 -0.5722 -1.0463
  543MOL0     O74820   7.134   1.127   4.041 -0.0927  0.1623  0.2510
  543MOL0     C74821   7.265   1.095   4.003  0.5673  0.0543  0.3326
  543MOL0     C74822   7.307   1.017   3.889  0.0933 -0.3058  0.3878
  543MOL0     C74823   7.439   0.997   3.849 -0.1623 -0.3305 -0.1965
  543MOL0     C74824   7.457   0.940   3.712  0.1626 -0.5192 -0.2571
  543MOL0     C74825   7.542   1.056   3.937 -0.0692 -0.3897  0.6541
  543MOL0     C74826   7.693   1.052   3.905 -0.3873  0.9000 -0.1060
  543MOL0     O74827   7.778   1.078   4.000 -0.0542 -0.0261  0.2550
  543MOL0     C74828   7.912   1.042   3.974 -0.2124  0.2225  0.1571
  543MOL0     C74829   7.967   0.922   4.021 -0.1664  0.6148 -0.3404
  543MOL0     C74830   8.104   0.885   3.992  1.1101 -0.2460  0.3124
  543MOL0     C74831   8.189   0.970   3.910 -0.1276  0.1081  0.6253
  543MOL0     O74832   8.319   0.955   3.868  0.2364  0.6298  0.0551
  543MOL0     C74833   8.374   0.832   3.908 -0.3608  0.5260  0.5441
  543MOL0     C74834   8.525   0.830   3.875 -0.1691 -0.0124  0.8607
  543MOL0     C74835   8.606   0.700   3.901 -0.0300  0.7204  0.0053
  543MOL0     C74836   8.756   0.722   3.882 -0.0729 -0.3195 -0.2388
  543MOL0     C74837   8.836   0.596   3.908 -0.8073  0.0202 -0.1134
  543MOL0     C74838   8.983   0.633   3.907  0.3409 -0.8712  0.6360
  543MOL0     C74839   9.068   0.503   3.933 -1.0619 -0.4994  0.2481
  543MOL0     C74840   9.222   0.536   3.946  0.6640  0.3417 -0.3863
  543MOL0    Cl74841   9.301   0.369   3.978 -0.5706 -0.3035  0.2035
  543MOL0     C74842   8.132   1.092   3.866  0.5738  0.1915  0.0006
  543MOL0     C74843   8.000   1.126   3.899  0.2324 -0.1222 -1.2578
  543MOL0     O74844   7.723   1.025   3.784  0.5063 -0.3685 -0.1813
  543MOL0     C74845   7.509   1.107   4.053  0.6098  0.4901 -0.2593
  543MOL0     C74846   7.373   1.139   4.077 -0.4946 -0.1766  1.0408
  543MOL0     N74847   6.748   1.426   4.267  0.0240  0.5187  0.5131
  543MOL0     N74848   6.663   1.511   4.321 -0.1632  0.0435 -0.4664
  543MOL0     C74849   5.606   1.870   4.168 -0.0209  0.1887 -0.5710
  543MOL0     C74850   5.472   1.891   4.178 -0.0914 -0.9310  0.6495
  543MOL0     C74851   5.033   1.913   4.185  0.1275  0.0400 -0.2427
  543MOL0     C74852   5.016   2.013   4.081 -0.3708  0.5283 -0.3160
  543MOL0     C74853   4.896   2.083   4.071 -1.0627  0.2802  0.8131
  543MOL0     C74854   4.789   2.053   4.159  1.3225  0.0872 -0.0641
  543MOL0     O74855   4.668   2.120   4.156  0.3383  0.7870 -0.1454
  543MOL0     C74856   4.576   2.108   4.269  0.6428  0.5665  0.3987
  543MOL0     C74857   4.433   2.166   4.260 -0.0553  0.7051  0.5072
  543MOL0     C74858   4.347   2.124   4.136 -0.4448  1.1872 -0.5987
  543MOL0     C74859   4.298   1.974   4.152  0.5332 -0.7291  0.0516
  543MOL0     C74860   4.205   1.954   4.266 -0.4848 -0.7104 -0.7131
  543MOL0     C74861   4.121   1.935   4.351  0.0323  0.9770  0.5500
  543MOL0     C74862   4.809   1.951   4.263 -0.1570  0.0216  0.2011
  543MOL0     C74863   4.929   1.883   4.274 -0.6343  0.8112  0.3678
  543MOL0     C74864   4.933   1.780   4.388  0.1504  0.0582 -0.3582
  543MOL0     H74865   5.367   1.714   3.907 -3.1129  1.7339  1.8912
  543MOL0     H74866   5.607   1.700   3.876  2.0668  1.9586 -1.1013
  543MOL0     H74867   5.836   2.005   4.048 -0.8161 -1.0721  0.2433
  543MOL0     H74868   5.869   1.901   3.906 -1.6600 -3.6659  0.3741
  543MOL0     H74869   6.041   1.987   4.064 -1.8086  1.3956 -0.0336
  543MOL0     H74870   5.980   1.862   4.173 -1.3595  2.1098 -0.1835
  543MOL0     H74871   6.041   1.749   3.902 -2.9003  1.4364  0.7108
  543MOL0     H74872   6.186   1.816   3.982 -0.1367  2.1214  2.0160
  543MOL0     H74873   5.979   1.616   4.091  0.7961 -0.7441  1.2781
  543MOL0     H74874   6.119   1.554   4.016  0.3935 -0.9624  1.9507
  543MOL0     H74875   6.115   1.526   4.247  2.8485 -0.1855  2.9733
  543MOL0     H74876   6.124   1.708   4.268  0.3416  0.9709 -2.1963
  543MOL0     H74877   6.334   1.522   4.140 -1.9189 -0.9784  1.1103
  543MOL0     H74878   6.336   1.700   4.123 -1.3613  1.9002  0.5069
  543MOL0     H74879   6.306   1.692   4.397  1.1518  0.3236  1.3659
  543MOL0     H74880   6.451   1.707   4.328  0.2191  0.1339  0.9144
  543MOL0     H74881   6.465   1.544   4.483  0.3883 -0.5840 -0.8607
  543MOL0     H74882   6.351   1.436   4.411  0.6718 -0.5821  1.2882
  543MOL0     H74883   6.464   1.278   4.202  1.0488  0.0482 -1.6908
  543MOL0     H74884   6.647   1.179   4.056 -2.0556 -0.5175  1.5063
  543MOL0     H74885   6.700   1.107   4.205  3.0224 -1.7063 -1.5478
  543MOL0     H74886   6.874   1.302   4.057 -0.3496  0.4635  0.2695
  543MOL0     H74887   6.918   1.221   4.191  0.1007  0.2840  0.6013
  543MOL0     H74888   6.900   0.986   4.054  4.5377  0.9130  2.3434
  543MOL0     H74889   6.836   1.078   3.926  0.3684 -4.2290 -0.3742
  543MOL0     H74890   7.050   1.005   3.892 -1.8409 -2.1283  1.2923
  543MOL0     H74891   7.039   1.180   3.862  1.5128  0.3985 -0.0837
  543MOL0     H74892   7.231   0.986   3.818 -0.8133  1.2971  0.6048
  543MOL0     H74893   7.526   0.856   3.696 -0.2101 -0.5344 -1.9664
  543MOL0     H74894   7.506   1.014   3.648 -0.8637 -0.7967 -1.3830
  543MOL0     H74895   7.359   0.918   3.669  1.5987  1.5259 -5.3608
  543MOL0     H74896   7.907   0.854   4.081 -1.0527  2.3720  0.8518
  543MOL0     H74897   8.153   0.803   4.043 -0.4550 -1.4299  0.0075
  543MOL0     H74898   8.356   0.814   4.014  0.4401  0.2902  0.6398
  543MOL0     H74899   8.333   0.754   3.844 -0.9286  1.2834 -0.0470
  543MOL0     H74900   8.528   0.855   3.769  0.7620  0.7220  1.0540
  543MOL0     H74901   8.578   0.897   3.943  3.5726 -2.0728  0.2553
  543MOL0     H74902   8.574   0.620   3.833  0.9306 -0.9633  1.4634
  543MOL0     H74903   8.582   0.669   4.003 -0.0669  1.0768  0.1058
  543MOL0     H74904   8.791   0.795   3.955  1.7555 -0.8135 -0.5668
  543MOL0     H74905   8.764   0.766   3.782 -2.7117 -0.0329 -0.4068
  543MOL0     H74906   8.816   0.545   4.003 -0.9133 -0.2549 -0.2813
  543MOL0     H74907   8.810   0.527   3.827 -2.4768  2.0295 -1.4072
  543MOL0     H74908   9.003   0.715   3.977 -0.4037  1.6489 -1.8822
  543MOL0     H74909   9.011   0.676   3.810 -0.7385  1.8750  1.4257
  543MOL0     H74910   9.047   0.422   3.862  0.4313 -2.6312  2.0829
  543MOL0     H74911   9.045   0.472   4.035  0.4719 -0.6523  0.5711
  543MOL0     H74912   9.241   0.598   4.034  0.2195  2.0660 -1.4656
  543MOL0     H74913   9.268   0.579   3.857 -0.2874  0.3377 -0.8925
  543MOL0     H74914   8.183   1.147   3.788 -0.1128 -2.1708 -2.2601
  543MOL0     H74915   7.962   1.226   3.879  0.8356  0.4775  0.4199
  543MOL0     H74916   7.576   1.144   4.130 -1.1602  0.0782  1.5911
  543MOL0     H74917   7.348   1.194   4.167 -1.7401  4.5067 -1.8253
  543MOL0     H74918   5.666   1.916   4.246 -2.4115  1.3493  0.7137
  543MOL0     H74919   5.428   1.951   4.258 -4.3570 -2.0348 -0.6008
  543MOL0     H74920   5.097   2.044   4.016 -2.1147  0.2614 -2.7773
  543MOL0     H74921   4.883   2.165   4.000 -0.9228  0.3566  0.8759
  543MOL0     H74922   4.565   2.005   4.305  1.7856  0.9797  2.0898
  543MOL0     H74923   4.628   2.154   4.354 -0.6174 -1.0314  2.1280
  543MOL0     H74924   4.433   2.276   4.263 -1.4849  0.8063 -1.3499
  543MOL0     H74925   4.385   2.133   4.352 -0.4272 -1.4820 -0.4193
  543MOL0     H74926   4.266   2.195   4.118  1.7155  4.0605  0.2294
  543MOL0     H74927   4.412   2.134   4.048  1.2707 -0.1491  0.4469
  543MOL0     H74928   4.371   1.893   4.165 -0.5268 -1.1762  4.7386
  543MOL0     H74929   4.244   1.964   4.057  0.9594 -1.3047 -0.1403
  543MOL0     H74930   4.049   1.926   4.429  0.4481  1.0121  0.9459
  543MOL0     H74931   4.736   1.934   4.342  0.1152  1.9192  0.9065
  543MOL0     H74932   5.027   1.770   4.442 -0.4164  0.1127  0.6580
  543MOL0     H74933   4.858   1.796   4.466 -0.2776 -1.2147 -0.4942
  543MOL0     H74934   4.913   1.681   4.347  1.6287 -0.8005  0.8954
  544MOL0     O74935  10.337   3.189   9.032  0.1346 -0.1026 -0.0087
  544MOL0     C74936  10.250   3.111   9.075  0.5471  0.0916 -0.3414
  544MOL0     O74937  10.252   3.049   9.195  0.1893 -0.2259  0.2722
  544MOL0     C74938  10.328   3.088   9.303 -0.0213 -0.1107  0.3344
  544MOL0     C74939  10.466   3.046   9.322  0.0121  0.6114  0.8501
  544MOL0     C74940  10.540   3.082   9.432 -0.0404  0.7698  0.5650
  544MOL0     C74941  10.483   3.154   9.530 -0.9846 -0.5600 -0.2841
  544MOL0     O74942  10.555   3.168   9.645 -0.2104  0.1994  1.0406
  544MOL0     C74943  10.572   3.298   9.691  0.3997 -0.8249 -0.0797
  544MOL0     C74944  10.684   3.380   9.615 -0.2173 -0.0540 -1.0705
  544MOL0     C74945  10.724   3.524   9.670 -0.7663  0.1611  0.3258
  544MOL0     C74946  10.805   3.519   9.798 -0.3086 -0.5101  0.4977
  544MOL0     C74947  10.874   3.653   9.832 -0.3242  0.5597 -0.9764
  544MOL0     C74948  10.949   3.654   9.962 -0.3232 -0.4224  0.4810
  544MOL0     C74949  10.985   3.790  10.010 -0.1867 -0.1312 -0.0183
  544MOL0     C74950  11.064   3.809  10.145 -0.1771  0.1671 -0.5733
  544MOL0     N74951  11.188   3.735  10.155  0.0581  0.0099 -0.8005
  544MOL0     C74952  11.288   3.729  10.061  0.0753  0.3139  0.3051
  544MOL0     C74953  11.379   3.642  10.103  0.1784  0.9944  1.1684
  544MOL0     C74954  11.507   3.615  10.023 -0.7433 -0.1610 -0.7833
  544MOL0     C74955  11.572   3.487  10.068 -0.2984 -0.1533  0.3224
  544MOL0     C74956  11.700   3.459   9.996  0.4278 -0.2959  0.1647
  544MOL0     C74957  11.768   3.333  10.049 -0.0503  0.0729 -0.1904
  544MOL0     O74958  11.877   3.296   9.959 -0.2051  0.2894 -0.6850
  544MOL0     C74959  11.989   3.235  10.020 -0.2859 -0.3439  0.2527
  544MOL0     C74960  12.122   3.292   9.998  0.1156 -0.1407 -0.0590
  544MOL0     C74961  12.237   3.228  10.041  0.1415  0.4200 -0.4063
  544MOL0     C74962  12.376   3.277   9.993  0.3672 -0.3105  0.1423
  544MOL0     C74963  12.226   3.113  10.115  0.1298  0.8657 -0.9033
  544MOL0     C74964  12.338   3.051  10.183 -0.6136 -0.0670  0.8999
  544MOL0     O74965  12.352   2.916  10.168 -0.6498 -0.1891 -0.4213
  544MOL0     C74966  12.463   2.860  10.219 -0.8092 -0.2763  0.0916
  544MOL0     C74967  12.507   2.878  10.353  0.5052  0.2086  0.2557
  544MOL0     C74968  12.616   2.816  10.411  0.4543 -0.0875 -0.0293
  544MOL0     C74969  12.683   2.718  10.341 -0.4281 -0.5838 -0.3215
  544MOL0     O74970  12.794   2.659  10.401  0.6926 -0.1823 -0.5054
  544MOL0     C74971  12.905   2.606  10.332 -0.0254  0.2310  0.5219
  544MOL0     C74972  12.972   2.502  10.411 -0.7098  0.1625  0.3348
  544MOL0     C74973  13.103   2.551  10.479  0.3754  0.0696 -0.4400
  544MOL0     C74974  13.203   2.440  10.502 -0.5875 -0.6743  0.4283
  544MOL0     C74975  13.334   2.488  10.569 -0.2892 -0.4688  0.7846
  544MOL0     C74976  13.429   2.379  10.589  0.4131 -0.4905 -0.0684
  544MOL0     C74977  13.566   2.425  10.647  0.2340 -0.4427  0.5863
  544MOL0     C74978  13.653   2.316  10.697 -0.5884  0.3996 -0.5845
  544MOL0    Cl74979  13.800   2.395  10.773 -0.0502 -0.2477 -0.0896
  544MOL0     C74980  12.639   2.696  10.207  0.4613  0.4860 -0.7585
  544MOL0     C74981  12.537   2.768  10.147 -0.1264  0.0145 -0.7702
  544MOL0     O74982  12.412   3.131  10.237  0.1152 -0.1903  0.2511
  544MOL0     C74983  12.103   3.064  10.158  0.5765  0.3895  0.3232
  544MOL0     C74984  11.988   3.125  10.104 -0.3414  0.2120 -0.3407
  544MOL0     N74985  11.335   3.613  10.229  0.5846  0.0920  0.3840
  544MOL0     N74986  11.225   3.659  10.260  0.2749  0.3432 -0.1561
  544MOL0     C74987  10.344   3.167   9.528  0.2865  0.1282  0.1280
  544MOL0     C74988  10.269   3.147   9.415 -0.2179 -0.4313 -0.8650
  544MOL0     C74989  10.137   3.091   8.989  0.0445 -0.1457  0.1570
  544MOL0     C74990  10.131   3.169   8.874 -0.0691  0.1165 -0.0398
  544MOL0     C74991  10.037   3.166   8.771  0.2888  0.5582  0.4709
  544MOL0     C74992   9.926   3.089   8.798  0.6237  0.1479  0.2728
  544MOL0     O74993   9.822   3.094   8.701  0.1630  0.1450 -0.3620
  544MOL0     C74994   9.684   3.082   8.755 -0.5814  1.1267 -0.6277
  544MOL0     C74995   9.582   3.112   8.648 -0.3233 -0.3874 -0.0386
  544MOL0     C74996   9.444   3.073   8.672 -0.2029  0.6346  0.3474
  544MOL0     C74997   9.351   3.138   8.558  0.2138  0.0706 -0.1169
  544MOL0     C74998   9.211   3.107   8.582  1.3807  0.0195 -0.4120
  544MOL0     C74999   9.091   3.079   8.607 -0.6719 -1.1691  0.6814
  544MOL0     C75000   9.912   3.012   8.912 -0.6068  0.7704  0.0580
  544MOL0     C75001  10.018   3.019   9.009  0.8107 -0.8794  0.4349
  544MOL0     C75002   9.993   2.930   9.127  0.5548 -0.5224  0.4254
  544MOL0     H75003  10.512   2.981   9.248 -0.5515  0.0321  0.9981
  544MOL0     H75004  10.643   3.058   9.455 -0.5440  0.5145  2.7149
  544MOL0     H75005  10.611   3.291   9.793  0.5484 -1.2064 -0.1621
  544MOL0     H75006  10.480   3.356   9.702 -0.0029 -0.9203 -2.4100
  544MOL0     H75007  10.774   3.321   9.631  0.3107  0.6586 -1.3867
  544MOL0     H75008  10.649   3.392   9.512 -2.1577  2.7599 -0.2061
  544MOL0     H75009  10.793   3.566   9.597 -2.2034  1.1219 -0.5391
  544MOL0     H75010  10.637   3.591   9.677 -2.1949 -1.7314  2.1032
  544MOL0     H75011  10.749   3.494   9.889  3.6116 -0.5845  3.1483
  544MOL0     H75012  10.881   3.440   9.787  0.9206  0.5412  1.1427
  544MOL0     H75013  10.793   3.725   9.848 -2.2190 -1.6065 -0.0781
  544MOL0     H75014  10.939   3.682   9.750  0.9930  2.3144  0.6076
  544MOL0     H75015  10.892   3.591  10.031 -1.3560 -0.4327 -0.3653
  544MOL0     H75016  11.037   3.592   9.941 -1.9736 -1.9312 -2.5141
  544MOL0     H75017  10.900   3.858  10.016  1.8758  2.5971  0.7315
  544MOL0     H75018  11.056   3.838   9.942 -0.0068  0.9231  0.8747
  544MOL0     H75019  11.101   3.912  10.154  0.0624  0.2099 -1.8994
  544MOL0     H75020  10.996   3.769  10.220  0.7788 -0.3829  0.0284
  544MOL0     H75021  11.289   3.771   9.961  2.9343 -1.4744 -0.5308
  544MOL0     H75022  11.570   3.702  10.047 -0.1122 -1.2396  1.8094
  544MOL0     H75023  11.495   3.616   9.914 -0.5542 -3.0853 -0.8971
  544MOL0     H75024  11.605   3.506  10.171  1.9832  1.9293 -0.7008
  544MOL0     H75025  11.501   3.405  10.063 -0.3275 -0.3966  3.2136
  544MOL0     H75026  11.681   3.451   9.889 -0.2272  0.7731  0.1863
  544MOL0     H75027  11.761   3.549  10.007 -0.1945  0.1348  0.0945
  544MOL0     H75028  11.791   3.331  10.156 -1.9928 -1.4367  0.2616
  544MOL0     H75029  11.702   3.247  10.037 -0.2952 -0.0731  1.9178
  544MOL0     H75030  12.130   3.382   9.938  0.3395  0.9731  1.5767
  544MOL0     H75031  12.432   3.317  10.078 -2.1184  1.8762  0.8874
  544MOL0     H75032  12.362   3.370   9.936  0.8089 -0.5765 -0.4147
  544MOL0     H75033  12.430   3.203   9.933  0.7584 -1.1637  1.5111
  544MOL0     H75034  12.455   2.948  10.418 -2.1294 -1.3375 -0.0402
  544MOL0     H75035  12.641   2.851  10.511  0.5710 -1.3278  0.3975
  544MOL0     H75036  12.881   2.567  10.232  2.5164 -0.8153  0.2614
  544MOL0     H75037  12.978   2.686  10.321 -0.5106  0.3942 -2.0663
  544MOL0     H75038  12.907   2.453  10.484 -1.1051 -2.6810 -1.7310
  544MOL0     H75039  12.997   2.422  10.340  2.2839  1.7349 -0.5520
  544MOL0     H75040  13.078   2.599  10.574 -3.2653  1.4449 -1.8633
  544MOL0     H75041  13.149   2.629  10.417 -2.9595  1.3818 -1.5245
  544MOL0     H75042  13.227   2.390  10.407  0.8625 -0.3006  0.5716
  544MOL0     H75043  13.153   2.367  10.566 -0.6373  1.1183  2.5419
  544MOL0     H75044  13.381   2.565  10.508 -0.4751 -2.4371 -2.0369
  544MOL0     H75045  13.302   2.540  10.660 -2.9505  0.2332 -0.4373
  544MOL0     H75046  13.451   2.325  10.496  2.2735 -0.3984  0.2628
  544MOL0     H75047  13.374   2.306  10.650  1.7883 -3.0698 -1.6911
  544MOL0     H75048  13.544   2.499  10.724 -1.0925 -0.2958  0.0858
  544MOL0     H75049  13.609   2.474  10.559 -0.5780 -0.4857  0.1523
  544MOL0     H75050  13.681   2.250  10.615  0.2283 -0.7512  0.5765
  544MOL0     H75051  13.600   2.249  10.765  1.8797 -2.0847 -0.9462
  544MOL0     H75052  12.692   2.626  10.144  2.7765  1.5868 -0.1464
  544MOL0     H75053  12.506   2.749  10.045 -0.9662  2.3396 -1.0044
  544MOL0     H75054  12.106   2.977  10.222  1.2038 -0.0592 -0.3015
  544MOL0     H75055  11.891   3.085  10.132  0.0609 -2.5740 -2.3581
  544MOL0     H75056  10.291   3.190   9.621  1.3692 -1.6515  1.2325
  544MOL0     H75057  10.162   3.165   9.420 -1.1647 -4.8355 -0.9678
  544MOL0     H75058  10.206   3.243   8.845 -1.6785  1.8242 -0.0119
  544MOL0     H75059  10.041   3.224   8.680  1.5471  1.6145  1.1601
  544MOL0     H75060   9.671   2.975   8.774  1.0641  0.8285 -1.0190
  544MOL0     H75061   9.668   3.152   8.837 -0.0430  2.9691 -2.0394
  544MOL0     H75062   9.618   3.061   8.558  1.1711 -1.6692  1.2260
  544MOL0     H75063   9.578   3.218   8.620  0.9231  0.0355  1.2778
  544MOL0     H75064   9.440   2.964   8.671 -0.3418  0.6062  1.7314
  544MOL0     H75065   9.405   3.113   8.766  0.2165  1.4017  0.2078
  544MOL0     H75066   9.372   3.100   8.458  0.1551  2.1550 -0.9900
  544MOL0     H75067   9.366   3.246   8.548  0.5648  0.0288 -0.0672
  544MOL0     H75068   8.988   3.067   8.634 -0.1818 -0.9282  2.8779
  544MOL0     H75069   9.816   2.970   8.940 -1.1290  2.9139  1.7605
  544MOL0     H75070  10.014   2.987   9.217  0.5621 -1.0350  0.7503
  544MOL0     H75071   9.885   2.916   9.126  0.2173  1.7645 -0.4764
  544MOL0     H75072  10.042   2.832   9.116 -0.7241 -1.2228  0.7600
  545MOL0     O75073  10.231   0.207   3.692 -0.3278 -0.7055 -0.2271
  545MOL0     C75074  10.317   0.156   3.617 -0.3338  0.7937 -0.4132
  545MOL0     O75075  10.447   0.200   3.607 -0.4710  0.0993  0.3269
  545MOL0     C75076  10.494   0.319   3.665 -0.6538 -0.9840  0.4686
  545MOL0     C75077  10.617   0.365   3.608  0.8534 -0.1567 -0.0119
  545MOL0     C75078  10.681   0.475   3.646  0.0169  0.4348 -0.1236
  545MOL0     C75079  10.638   0.548   3.756 -0.0839  0.1115 -0.7543
  545MOL0     O75080  10.704   0.653   3.817 -0.1980 -0.2696  0.0425
  545MOL0     C75081  10.811   0.723   3.756  0.0853 -0.2127 -0.5225
  545MOL0     C75082  10.772   0.797   3.629  0.4038  0.7282  0.1799
  545MOL0     C75083  10.885   0.794   3.527  0.5185 -0.0913  0.1787
  545MOL0     C75084  11.008   0.856   3.597  0.1635 -0.6304  0.1794
  545MOL0     C75085  11.112   0.922   3.504  0.7988 -0.3639  0.0840
  545MOL0     C75086  11.232   0.981   3.579  0.8165 -0.5274 -0.1507
  545MOL0     C75087  11.292   1.095   3.505  0.3885 -0.1891  0.0503
  545MOL0     C75088  11.416   1.136   3.587  0.4196 -0.1802 -0.0054
  545MOL0     N75089  11.487   1.241   3.510 -0.2901  0.5497  0.0413
  545MOL0     C75090  11.604   1.231   3.442 -0.2666 -0.4093 -0.1745
  545MOL0     C75091  11.638   1.362   3.417  0.5340 -0.2541  0.3784
  545MOL0     C75092  11.766   1.395   3.341 -0.1404  0.5169 -0.0973
  545MOL0     C75093  11.792   1.545   3.352 -0.4361 -0.7642  0.1565
  545MOL0     C75094  11.909   1.589   3.266 -0.0621  0.3842 -0.0334
  545MOL0     C75095  12.037   1.631   3.345 -0.6241  0.0261 -0.4492
  545MOL0     O75096  12.070   1.509   3.422 -0.3555  0.4197  0.5448
  545MOL0     C75097  12.189   1.506   3.480 -1.0710 -0.4857 -0.4378
  545MOL0     C75098  12.195   1.459   3.612 -0.8115  0.2041 -0.2290
  545MOL0     C75099  12.316   1.449   3.684 -0.6396 -0.8368 -0.9641
  545MOL0     C75100  12.298   1.422   3.826 -1.0887  0.2286  0.2010
  545MOL0     C75101  12.441   1.474   3.621 -0.3126 -0.4516 -0.2721
  545MOL0     C75102  12.575   1.462   3.684 -0.1928 -0.5847  0.0104
  545MOL0     O75103  12.679   1.440   3.603  0.8288 -0.2381  0.2717
  545MOL0     C75104  12.802   1.421   3.669  0.9291  0.5518 -0.9225
  545MOL0     C75105  12.844   1.290   3.687 -0.1807  0.4227 -0.4137
  545MOL0     C75106  12.966   1.259   3.737 -0.6537  0.3961 -0.9799
  545MOL0     C75107  13.056   1.367   3.779  0.3992 -0.2578 -0.7289
  545MOL0     O75108  13.172   1.325   3.849 -0.5884  0.0052  0.0888
  545MOL0     C75109  13.262   1.430   3.887  0.7960 -0.1547  0.4958
  545MOL0     C75110  13.392   1.387   3.951 -0.6385  1.0194  0.2905
  545MOL0     C75111  13.476   1.505   4.002 -0.3297 -0.3014 -0.0114
  545MOL0     C75112  13.597   1.451   4.066 -0.3427  0.1980  0.3885
  545MOL0     C75113  13.692   1.557   4.129 -0.3850 -0.0348  0.3754
  545MOL0     C75114  13.826   1.495   4.169 -1.0248 -0.7037 -0.3081
  545MOL0     C75115  13.838   1.421   4.293  0.5368  0.5546  0.4633
  545MOL0     C75116  13.894   1.503   4.402  0.2008 -0.5717 -0.9679
  545MOL0    Cl75117  14.074   1.535   4.368  0.9456  0.4831  0.1627
  545MOL0     C75118  13.017   1.501   3.735 -0.8918  0.4102 -0.1485
  545MOL0     C75119  12.890   1.530   3.696 -0.1504 -0.3826 -0.4162
  545MOL0     O75120  12.579   1.466   3.804  0.1296 -0.2694 -0.3804
  545MOL0     C75121  12.428   1.511   3.482 -0.1313  0.2850  0.2937
  545MOL0     C75122  12.307   1.520   3.412 -0.0460 -0.4438  0.2365
  545MOL0     N75123  11.541   1.446   3.464  0.1488 -0.5493 -0.2192
  545MOL0     N75124  11.447   1.371   3.511  0.0109 -0.2422 -0.5456
  545MOL0     C75125  10.521   0.502   3.823  0.7451 -0.0202  0.1454
  545MOL0     C75126  10.450   0.394   3.778  0.1756 -0.2090 -0.0118
  545MOL0     C75127  10.291   0.028   3.545  1.3792  0.1866 -0.6355
  545MOL0     C75128  10.400  -0.060   3.512  0.1133  0.2249 -0.4292
  545MOL0     C75129  10.378  -0.165   3.423  0.7174 -0.1247  0.0966
  545MOL0     C75130  10.250  -0.187   3.368 -0.5881 -0.3144 -0.4687
  545MOL0     O75131  10.234  -0.280   3.275 -0.1672  0.4498  0.4814
  545MOL0     C75132  10.243  -0.229   3.145 -0.3783 -0.0834  0.4899
  545MOL0     C75133  10.306  -0.349   3.060  0.1388 -0.2705 -0.7727
  545MOL0     C75134  10.222  -0.473   3.060  1.1978 -0.9136  0.9557
  545MOL0     C75135  10.083  -0.427   3.027 -0.1833 -0.1828  0.0738
  545MOL0     C75136   9.990  -0.542   3.031  0.2748 -0.2606  0.4637
  545MOL0     C75137   9.909  -0.626   3.014  0.4458 -0.1287 -0.1572
  545MOL0     C75138  10.139  -0.111   3.413 -0.6818 -0.3413 -0.4212
  545MOL0     C75139  10.155   0.002   3.492 -0.1424  0.2351  0.1809
  545MOL0     C75140  10.031   0.078   3.521  0.1884 -0.2715  0.2380
  545MOL0     H75141  10.658   0.309   3.525 -0.5155 -0.8593 -0.2344
  545MOL0     H75142  10.777   0.509   3.611  0.9474 -0.8480  1.0825
  545MOL0     H75143  10.891   0.650   3.739  2.3601  1.8418  0.5558
  545MOL0     H75144  10.846   0.804   3.822 -1.9003 -0.1815  0.5505
  545MOL0     H75145  10.678   0.760   3.586 -0.1476  1.6962  0.5124
  545MOL0     H75146  10.754   0.901   3.656 -0.3400  0.2058  1.8088
  545MOL0     H75147  10.907   0.690   3.502  0.5843 -0.2870  1.0090
  545MOL0     H75148  10.860   0.855   3.440  0.2424 -0.8155 -0.2550
  545MOL0     H75149  10.995   0.928   3.678  2.3069 -0.7184  0.6645
  545MOL0     H75150  11.063   0.774   3.645 -2.9007 -3.1737 -0.3742
  545MOL0     H75151  11.062   1.007   3.455  1.1247 -0.4722 -0.4483
  545MOL0     H75152  11.141   0.852   3.425  2.4932  0.4858 -0.1123
  545MOL0     H75153  11.201   1.022   3.676  0.8049  2.5842 -1.3346
  545MOL0     H75154  11.304   0.902   3.599 -0.4325 -1.4144  1.0725
  545MOL0     H75155  11.227   1.184   3.508  0.0447 -0.4641  1.5080
  545MOL0     H75156  11.318   1.069   3.402  1.4193  2.1830 -0.3439
  545MOL0     H75157  11.392   1.178   3.684 -0.8294 -0.7644 -0.0386
  545MOL0     H75158  11.479   1.047   3.602 -0.3132 -0.4630  1.5288
  545MOL0     H75159  11.663   1.141   3.425  2.0451  0.9641  0.1097
  545MOL0     H75160  11.763   1.368   3.235 -1.8823  0.0239  0.0470
  545MOL0     H75161  11.856   1.354   3.387  2.1261  5.6431  0.8074
  545MOL0     H75162  11.696   1.577   3.310 -0.4149 -1.1573 -0.1954
  545MOL0     H75163  11.797   1.581   3.455  1.1909  1.0749 -0.5033
  545MOL0     H75164  11.937   1.509   3.197  0.3634 -0.5844  1.2224
  545MOL0     H75165  11.880   1.672   3.201 -0.6220 -0.4060 -0.8225
  545MOL0     H75166  12.117   1.659   3.276 -0.9021  1.9900 -0.0166
  545MOL0     H75167  12.014   1.716   3.409 -0.7228 -0.9794  0.8940
  545MOL0     H75168  12.105   1.431   3.665  0.1565 -2.6029  0.1253
  545MOL0     H75169  12.339   1.510   3.876  2.3261  0.3844 -2.4603
  545MOL0     H75170  12.368   1.346   3.862  1.0814  1.9898 -0.0152
  545MOL0     H75171  12.197   1.393   3.854 -0.5263 -2.1956 -0.0936
  545MOL0     H75172  12.767   1.214   3.692 -0.0795  0.3942  1.9912
  545MOL0     H75173  12.997   1.160   3.767  0.8756  1.2833  0.5316
  545MOL0     H75174  13.286   1.479   3.792 -2.5559 -2.6309 -1.8420
  545MOL0     H75175  13.217   1.501   3.957  0.5744 -0.3741  0.5749
  545MOL0     H75176  13.366   1.316   4.031 -0.7034 -2.1429 -2.3066
  545MOL0     H75177  13.453   1.322   3.888  2.9686  2.8071  1.6657
  545MOL0     H75178  13.416   1.572   4.064  0.2276  0.4846 -0.3093
  545MOL0     H75179  13.518   1.560   3.917  0.3763 -0.3075  0.3278
  545MOL0     H75180  13.653   1.395   3.990  0.2316  0.4288  0.6314
  545MOL0     H75181  13.558   1.381   4.140 -1.6490 -0.7544 -1.1546
  545MOL0     H75182  13.713   1.630   4.050  0.6325  0.0680  0.7268
  545MOL0     H75183  13.654   1.617   4.211 -0.7774 -0.9692  0.8933
  545MOL0     H75184  13.895   1.579   4.177 -2.1612  0.2316  0.1302
  545MOL0     H75185  13.867   1.432   4.090 -1.7736 -4.1964  1.8730
  545MOL0     H75186  13.915   1.346   4.274 -1.1167 -0.8676 -1.0059
  545MOL0     H75187  13.748   1.371   4.331  0.5320  0.9846  1.0246
  545MOL0     H75188  13.895   1.439   4.491 -1.3319 -1.8372 -1.7932
  545MOL0     H75189  13.848   1.600   4.421  1.5915 -0.2660  1.1552
  545MOL0     H75190  13.090   1.581   3.747 -0.2429 -0.2138  0.1323
  545MOL0     H75191  12.859   1.632   3.678 -1.3205 -0.6271  0.1347
  545MOL0     H75192  12.521   1.517   3.426  0.3508 -1.2922  0.8748
  545MOL0     H75193  12.299   1.537   3.305  0.0369 -1.0727  0.1241
  545MOL0     H75194  10.484   0.560   3.907 -0.2946  0.2351 -0.4638
  545MOL0     H75195  10.363   0.374   3.840  0.0327  1.0059  0.2163
  545MOL0     H75196  10.504  -0.043   3.538  0.5382  0.9605 -2.3626
  545MOL0     H75197  10.459  -0.236   3.405  0.4228 -0.3224 -0.4622
  545MOL0     H75198  10.142  -0.200   3.116 -1.8241 -2.3507  2.8122
  545MOL0     H75199  10.309  -0.141   3.145 -0.3487 -0.0971 -0.4785
  545MOL0     H75200  10.406  -0.380   3.089 -0.7727 -2.8821 -0.1321
  545MOL0     H75201  10.321  -0.309   2.959  2.2414  3.2150  0.7319
  545MOL0     H75202  10.260  -0.548   2.990  1.2290 -2.2221  2.3268
  545MOL0     H75203  10.211  -0.516   3.160 -0.3155 -0.7542  0.8785
  545MOL0     H75204  10.071  -0.376   2.931  2.8983  2.3328  0.8701
  545MOL0     H75205  10.041  -0.372   3.112 -1.5130 -1.1684  0.0785
  545MOL0     H75206   9.837  -0.705   3.005 -0.2641  0.3638  0.9480
  545MOL0     H75207  10.054  -0.142   3.354 -0.4713  1.1204 -1.5724
  545MOL0     H75208  10.040   0.185   3.500  2.3396 -0.8359 -2.1712
  545MOL0     H75209   9.950   0.042   3.457 -0.1139  0.2887  0.2951
  545MOL0     H75210  10.005   0.069   3.627  3.0172 -0.5748  0.9903
  546MOL0     O75211   4.903   0.874  10.072  0.2988 -0.0486 -0.9812
  546MOL0     C75212   4.912   0.919   9.955  0.4516 -0.4225 -1.0001
  546MOL0     O75213   5.016   0.992   9.915 -0.1887  0.2326  0.2189
  546MOL0     C75214   5.148   1.000   9.972  0.7144  1.3006 -0.7250
  546MOL0     C75215   5.214   1.121   9.949 -0.9984  0.5511 -0.1655
  546MOL0     C75216   5.341   1.144   9.990  0.6574  1.1529  0.2669
  546MOL0     C75217   5.406   1.049  10.055  0.5417  0.0682 -0.6915
  546MOL0     O75218   5.538   1.073  10.082  0.3535 -0.4952  0.3198
  546MOL0     C75219   5.633   0.964  10.092  0.0797 -0.1239  0.0879
  546MOL0     C75220   5.772   1.021  10.100 -0.4069 -0.0499 -1.1542
  546MOL0     C75221   5.877   0.908  10.104 -0.8598 -0.4902  0.4546
  546MOL0     C75222   6.012   0.950  10.160 -0.3931 -0.0319  0.5282
  546MOL0     C75223   6.115   0.841  10.117  0.1772 -0.2995  0.8703
  546MOL0     C75224   6.107   0.718  10.212 -0.3842  0.0138 -0.0324
  546MOL0     C75225   6.240   0.641  10.199 -0.0080  0.3806 -0.2026
  546MOL0     C75226   6.244   0.486  10.199 -0.0678 -0.1172  0.8322
  546MOL0     N75227   6.381   0.423  10.197  0.2226 -0.2008  0.8408
  546MOL0     C75228   6.461   0.445  10.087  0.0340  0.6949 -0.6309
  546MOL0     C75229   6.587   0.413  10.140 -0.1288 -0.2521  0.6203
  546MOL0     C75230   6.719   0.430  10.066 -0.1513  0.0774 -0.6235
  546MOL0     C75231   6.810   0.304  10.079  0.4095 -0.3959 -0.8818
  546MOL0     C75232   6.935   0.299   9.993  1.1391  0.2164  0.1475
  546MOL0     C75233   7.031   0.412  10.029 -0.5473  0.7070  0.5465
  546MOL0     O75234   7.117   0.452   9.920 -0.3691 -0.5077  0.1309
  546MOL0     C75235   7.231   0.534   9.942  0.7147 -0.4511 -0.3163
  546MOL0     C75236   7.254   0.602  10.067 -0.8912  0.7327  0.5697
  546MOL0     C75237   7.372   0.672  10.096  0.4901  0.2582  0.2152
  546MOL0     C75238   7.394   0.728  10.241 -0.1098 -0.3929  0.1325
  546MOL0     C75239   7.469   0.685   9.999  0.1751 -0.7837  0.5153
  546MOL0     C75240   7.571   0.788  10.007 -1.0787 -0.6901 -0.1479
  546MOL0     O75241   7.526   0.901  10.048  0.5734 -0.0312  0.6126
  546MOL0     C75242   7.625   1.001  10.043  0.4950  0.2585 -0.0331
  546MOL0     C75243   7.685   1.038  10.169 -0.1055 -0.3035  0.0988
  546MOL0     C75244   7.788   1.133  10.155 -0.4180 -0.3257  0.2407
  546MOL0     C75245   7.823   1.194  10.038 -0.4444  0.2234 -0.2698
  546MOL0     O75246   7.918   1.297  10.036 -1.1531  0.8313  0.7015
  546MOL0     C75247   8.035   1.261  10.120  0.0829 -0.6396  0.3630
  546MOL0     C75248   8.155   1.336  10.059  0.2594  0.2355 -0.6493
  546MOL0     C75249   8.126   1.477  10.029 -0.7287 -0.7370  0.2928
  546MOL0     C75250   8.236   1.542   9.940  0.3260 -0.1324 -0.4565
  546MOL0     C75251   8.170   1.646   9.838 -0.2512 -0.5695 -0.6260
  546MOL0     C75252   8.265   1.767   9.810  0.1489 -0.8959 -0.2579
  546MOL0     C75253   8.234   1.829   9.672  0.0362  0.0436  0.0877
  546MOL0     C75254   8.103   1.904   9.663  0.6336 -0.4502  0.0652
  546MOL0    Cl75255   8.081   1.998   9.514  0.0019 -0.1563 -0.3154
  546MOL0     C75256   7.741   1.170   9.921 -0.8823 -0.5582 -0.6537
  546MOL0     C75257   7.657   1.068   9.922 -0.2341 -0.5516  1.0822
  546MOL0     O75258   7.686   0.765   9.969 -0.0531  0.0273 -0.2511
  546MOL0     C75259   7.439   0.618   9.866  0.7042 -0.3611 -0.5502
  546MOL0     C75260   7.328   0.538   9.843  0.7511 -0.5888 -0.3041
  546MOL0     N75261   6.574   0.367  10.268 -0.9872 -0.3573  0.3068
  546MOL0     N75262   6.445   0.382  10.306  0.3266  0.2207  0.1703
  546MOL0     C75263   5.336   0.924  10.095  0.4677  0.6861 -0.5756
  546MOL0     C75264   5.211   0.894  10.048 -0.0098 -0.3749  1.1980
  546MOL0     C75265   4.792   0.911   9.870 -0.4813 -0.2614  0.3036
  546MOL0     C75266   4.665   0.927   9.923 -0.3840 -0.3526  0.4625
  546MOL0     C75267   4.559   0.953   9.843  0.7226  0.4462 -0.2341
  546MOL0     C75268   4.587   0.978   9.709  0.2209  0.6368  0.5500
  546MOL0     O75269   4.487   1.016   9.624  0.6963  1.2811  0.4990
  546MOL0     C75270   4.360   1.053   9.663  0.5630  0.3656 -0.0382
  546MOL0     C75271   4.285   1.092   9.533  0.1892 -0.5073 -0.1496
  546MOL0     C75272   4.140   1.129   9.546 -0.3477  0.0290  0.7882
  546MOL0     C75273   4.068   1.083   9.419  0.4793  0.3355  0.1454
  546MOL0     C75274   3.937   1.137   9.406  0.1384  0.7284 -0.0210
  546MOL0     C75275   3.824   1.191   9.392 -0.4675 -0.7535  0.1877
  546MOL0     C75276   4.713   0.949   9.647  1.0888 -0.9122 -0.9218
  546MOL0     C75277   4.812   0.909   9.731 -0.0861  0.9434 -0.2049
  546MOL0     C75278   4.943   0.892   9.654 -0.0109  0.0764 -0.2090
  546MOL0     H75279   5.160   1.193   9.888 -2.8411 -1.6106 -1.2498
  546MOL0     H75280   5.391   1.229   9.945  1.9698 -0.4717 -1.5634
  546MOL0     H75281   5.621   0.909   9.998 -2.8735  0.2173  0.1554
  546MOL0     H75282   5.604   0.901  10.177 -1.6934  1.6453  0.8958
  546MOL0     H75283   5.799   1.095  10.024  2.8467  0.6365  0.4822
  546MOL0     H75284   5.783   1.064  10.200 -2.6668  3.0556 -2.0940
  546MOL0     H75285   5.837   0.827  10.166 -0.8715 -2.4316 -1.9372
  546MOL0     H75286   5.890   0.877  10.000  3.6003 -0.7617  0.8980
  546MOL0     H75287   6.029   1.042  10.104 -3.9284 -1.2251 -2.9763
  546MOL0     H75288   6.013   0.955  10.269 -2.8701 -0.2668  0.6084
  546MOL0     H75289   6.218   0.875  10.128  1.1086 -2.6511  0.0351
  546MOL0     H75290   6.106   0.807  10.014  0.1167 -0.8244  1.0441
  546MOL0     H75291   6.103   0.758  10.313  1.9072  0.1705  0.0318
  546MOL0     H75292   6.025   0.646  10.200  0.5237 -1.2455  1.0518
  546MOL0     H75293   6.314   0.677  10.271  0.5025 -0.3991 -0.3185
  546MOL0     H75294   6.295   0.671  10.109  1.8394 -1.0239  0.3934
  546MOL0     H75295   6.187   0.443  10.281  0.6174 -0.2411  1.2568
  546MOL0     H75296   6.199   0.445  10.108  1.9217 -1.0898  0.2124
  546MOL0     H75297   6.437   0.464   9.983 -3.8733 -2.5091 -0.5599
  546MOL0     H75298   6.771   0.521  10.097 -0.9891  0.7193 -1.0451
  546MOL0     H75299   6.699   0.440   9.959 -1.8851  1.4078 -0.2213
  546MOL0     H75300   6.851   0.285  10.178  0.8712  4.0124 -0.0487
  546MOL0     H75301   6.743   0.219  10.057  1.4959 -1.1975 -1.1577
  546MOL0     H75302   6.991   0.207  10.010  2.1425  1.0289  1.4799
  546MOL0     H75303   6.900   0.313   9.890 -1.2965  1.0525  1.0236
  546MOL0     H75304   6.986   0.507  10.059  0.0509  0.9637  0.6572
  546MOL0     H75305   7.091   0.383  10.116 -0.2531  0.4616  0.2643
  546MOL0     H75306   7.183   0.586  10.147  0.0597 -0.4926  1.2096
  546MOL0     H75307   7.347   0.658  10.311  1.7873 -1.9867 -0.0912
  546MOL0     H75308   7.359   0.832  10.240  0.3109 -0.2452  0.4013
  546MOL0     H75309   7.502   0.726  10.260  0.3385 -4.6095 -1.7713
  546MOL0     H75310   7.660   0.988  10.261 -0.8525 -0.2062 -0.0438
  546MOL0     H75311   7.839   1.175  10.241  0.8439  1.1307 -1.1577
  546MOL0     H75312   8.020   1.283  10.226 -1.7954  1.1053 -0.2036
  546MOL0     H75313   8.059   1.154  10.120  1.9692 -0.2992 -1.5854
  546MOL0     H75314   8.242   1.321  10.123  0.3070 -0.3340 -0.8430
  546MOL0     H75315   8.170   1.282   9.965  2.6448 -0.9491  0.3395
  546MOL0     H75316   8.107   1.540  10.117 -1.1912  1.3822 -1.2271
  546MOL0     H75317   8.034   1.487   9.972 -0.8746 -2.8412  0.1049
  546MOL0     H75318   8.283   1.458   9.888  2.3834  0.8680 -0.3280
  546MOL0     H75319   8.321   1.582   9.997  0.9160 -0.9613 -0.7358
  546MOL0     H75320   8.142   1.603   9.742 -1.5073  1.8187 -1.4327
  546MOL0     H75321   8.080   1.698   9.874  0.0174  0.6280 -1.6023
  546MOL0     H75322   8.369   1.735   9.806  0.2142 -0.6184 -3.0667
  546MOL0     H75323   8.245   1.842   9.888 -1.4631 -1.8103  0.2531
  546MOL0     H75324   8.236   1.748   9.599 -0.3519 -1.2160  1.4174
  546MOL0     H75325   8.312   1.904   9.654 -1.9474  1.3569 -4.0755
  546MOL0     H75326   8.090   1.971   9.749  0.9160  1.5379 -1.3632
  546MOL0     H75327   8.019   1.834   9.663 -0.8930  1.2630 -2.0399
  546MOL0     H75328   7.751   1.226   9.829 -3.5621 -0.3663 -0.8982
  546MOL0     H75329   7.611   1.039   9.828  2.9007 -0.8094 -0.4765
  546MOL0     H75330   7.503   0.642   9.782  0.8631 -0.9382 -0.6040
  546MOL0     H75331   7.305   0.491   9.748 -0.4700 -0.9907  0.1726
  546MOL0     H75332   5.393   0.850  10.151 -0.0852  0.6562 -0.0431
  546MOL0     H75333   5.158   0.802  10.070  0.4773 -0.2810  2.9205
  546MOL0     H75334   4.662   0.918  10.031 -0.8285  0.4176  0.5193
  546MOL0     H75335   4.459   0.957   9.884  0.9011  3.4233  0.1496
  546MOL0     H75336   4.310   0.964   9.701  3.1332 -1.6011 -1.0083
  546MOL0     H75337   4.368   1.133   9.738 -1.2593  1.3591 -0.8467
  546MOL0     H75338   4.277   1.009   9.462 -1.3902  0.2408 -0.9044
  546MOL0     H75339   4.327   1.179   9.481 -1.2628 -0.3725 -1.1521
  546MOL0     H75340   4.093   1.078   9.630  3.8816  0.4192  3.6963
  546MOL0     H75341   4.135   1.238   9.550  1.9218  0.3736 -2.2023
  546MOL0     H75342   4.071   0.974   9.403 -1.2730  0.1847  0.6906
  546MOL0     H75343   4.124   1.123   9.334 -0.8249  0.0481 -0.8755
  546MOL0     H75344   3.733   1.241   9.365  1.8319  1.7535 -4.0222
  546MOL0     H75345   4.717   0.967   9.540  1.3348 -0.2216 -0.8014
  546MOL0     H75346   5.015   0.852   9.726  2.5510  1.4914 -1.8116
  546MOL0     H75347   4.922   0.821   9.573 -0.5563 -0.9182  0.7828
  546MOL0     H75348   4.987   0.979   9.605  1.3023 -0.6079 -0.2853
  547MOL0     O75349   9.669  11.270   5.055 -0.6757 -0.1835 -0.1438
  547MOL0     C75350   9.744  11.173   5.040  0.4665 -0.3339 -0.3305
  547MOL0     O75351   9.712  11.055   5.067 -0.2895  0.9877  0.0949
  547MOL0     C75352   9.602  11.013   5.131  0.3162 -0.1822 -1.0816
  547MOL0     C75353   9.612  10.891   5.213 -0.4046  0.6051  0.7092
  547MOL0     C75354   9.505  10.842   5.285  0.1539  0.0513 -0.3045
  547MOL0     C75355   9.379  10.894   5.276  0.0252 -0.1910  0.1392
  547MOL0     O75356   9.277  10.820   5.335  0.1300  0.1837 -0.3312
  547MOL0     C75357   9.139  10.856   5.301  0.0274  0.2857 -0.5790
  547MOL0     C75358   9.048  10.755   5.367 -0.1720 -0.1089  0.5334
  547MOL0     C75359   9.061  10.621   5.281  0.3154  0.0765  0.1886
  547MOL0     C75360   8.995  10.601   5.143 -0.3899 -0.6222 -0.4517
  547MOL0     C75361   8.846  10.580   5.162 -0.1201  0.0914 -0.2707
  547MOL0     C75362   8.807  10.431   5.197 -0.4381  0.1443  0.1467
  547MOL0     C75363   8.657  10.422   5.216 -0.1491 -0.8469  0.4462
  547MOL0     C75364   8.588  10.510   5.321 -0.3548  0.2589 -0.4813
  547MOL0     N75365   8.652  10.503   5.457  0.3750  0.6216  1.1146
  547MOL0     C75366   8.634  10.411   5.545  0.2381 -0.1809 -0.2096
  547MOL0     C75367   8.734  10.423   5.643 -0.6679  0.1493  0.6539
  547MOL0     C75368   8.744  10.346   5.768  0.3199 -0.5324  1.0259
  547MOL0     C75369   8.862  10.387   5.855  0.2689  0.4860 -0.4743
  547MOL0     C75370   8.863  10.317   5.986 -0.3551  0.4042 -0.2263
  547MOL0     C75371   9.005  10.328   6.047  0.7343 -0.6896 -0.0168
  547MOL0     O75372   9.101  10.286   5.952  0.2775 -0.3356  0.8678
  547MOL0     C75373   9.229  10.291   5.988  0.1298  0.1904  0.1776
  547MOL0     C75374   9.320  10.279   5.885  0.2447  0.7008 -0.1800
  547MOL0     C75375   9.459  10.257   5.904 -0.0179  0.2582 -0.7672
  547MOL0     C75376   9.543  10.221   5.780 -0.3014 -0.0595 -0.2991
  547MOL0     C75377   9.509  10.274   6.041 -0.3671  0.0794  0.1826
  547MOL0     C75378   9.648  10.241   6.084 -0.6499  0.2003  0.1277
  547MOL0     O75379   9.663  10.199   6.210  0.0957  0.4954 -0.0701
  547MOL0     C75380   9.788  10.167   6.244 -0.8447 -0.0382  0.2168
  547MOL0     C75381   9.842  10.043   6.201 -0.1663 -0.6400  0.6293
  547MOL0     C75382   9.967  10.010   6.244  0.3803  0.7124 -0.9008
  547MOL0     C75383  10.038  10.089   6.329 -0.6225 -0.8578 -0.1361
  547MOL0     O75384  10.161  10.037   6.358 -0.0800  0.5301  0.1286
  547MOL0     C75385  10.254  10.094   6.463 -0.2569 -0.5367 -0.5514
  547MOL0     C75386  10.193  10.074   6.604  0.5071  0.4176  0.1093
  547MOL0     C75387  10.297  10.113   6.720 -0.9971  0.5905  0.1766
  547MOL0     C75388  10.414  10.009   6.733  0.7620  0.5885 -0.0345
  547MOL0     C75389  10.552  10.061   6.767 -0.3906  0.1867 -0.2100
  547MOL0     C75390  10.656   9.951   6.741 -0.1936  0.4320 -0.6437
  547MOL0     C75391  10.802   9.999   6.776 -0.2586  0.2254 -0.0987
  547MOL0     C75392  10.844  10.114   6.683 -0.3344  0.5958 -0.0033
  547MOL0    Cl75393  11.002  10.181   6.728  0.4607 -0.0317 -0.0086
  547MOL0     C75394   9.979  10.206   6.383 -0.2230 -1.0771 -0.0664
  547MOL0     C75395   9.853  10.242   6.336 -0.1500  0.4005  0.0856
  547MOL0     O75396   9.732  10.237   5.993 -0.1208  0.3534 -0.2037
  547MOL0     C75397   9.417  10.304   6.140 -0.9550  1.3776  0.0538
  547MOL0     C75398   9.283  10.300   6.115 -0.1867  0.9586 -0.1747
  547MOL0     N75399   8.830  10.517   5.590 -0.5347 -0.0174  0.0116
  547MOL0     N75400   8.766  10.573   5.490  0.2696 -0.2670  0.1871
  547MOL0     C75401   9.371  11.015   5.201 -0.3661 -0.2228 -0.2507
  547MOL0     C75402   9.478  11.075   5.134  0.1056 -0.6723 -0.3748
  547MOL0     C75403   9.887  11.199   5.007  0.2883 -0.1458  0.1049
  547MOL0     C75404   9.990  11.126   5.063  0.2675 -0.3590 -0.1365
  547MOL0     C75405  10.127  11.158   5.036  0.6568  0.6128 -0.5652
  547MOL0     C75406  10.165  11.264   4.950 -0.4161 -0.7143  0.0384
  547MOL0     O75407  10.288  11.317   4.930  0.2545 -0.1307  0.9588
  547MOL0     C75408  10.399  11.249   4.989  0.2332  0.1554  0.2861
  547MOL0     C75409  10.516  11.341   4.948 -0.0929 -0.0286 -0.1016
  547MOL0     C75410  10.656  11.272   4.969 -0.2678 -0.6041  0.2051
  547MOL0     C75411  10.769  11.329   4.889  0.0161  0.9274  0.8202
  547MOL0     C75412  10.813  11.463   4.935  0.3889  0.6213 -0.0101
  547MOL0     C75413  10.857  11.573   4.960 -0.5359  0.1321  0.2971
  547MOL0     C75414  10.062  11.330   4.895 -0.4732 -0.0482  0.9162
  547MOL0     C75415   9.928  11.300   4.916  0.0343  0.0557 -0.7419
  547MOL0     C75416   9.826  11.393   4.856 -0.5965  0.2017 -0.1385
  547MOL0     H75417   9.708  10.841   5.216 -0.2369  0.9351  1.0135
  547MOL0     H75418   9.523  10.757   5.350  0.0571  1.8585  2.2230
  547MOL0     H75419   9.132  10.850   5.192 -0.5172 -0.1720 -0.5218
  547MOL0     H75420   9.108  10.956   5.335 -0.5133 -0.1623  0.2787
  547MOL0     H75421   9.083  10.737   5.469  2.6493  1.6705 -0.0241
  547MOL0     H75422   8.943  10.784   5.377 -0.5356 -1.4571  0.8461
  547MOL0     H75423   9.168  10.596   5.279  0.3002 -0.2399  1.9276
  547MOL0     H75424   9.029  10.543   5.351  2.3344 -0.5502  0.4932
  547MOL0     H75425   9.013  10.695   5.090  0.0760  1.0675  2.4663
  547MOL0     H75426   9.048  10.523   5.088  0.0040 -1.6101  1.2509
  547MOL0     H75427   8.796  10.593   5.065  2.2708  1.0432 -1.4560
  547MOL0     H75428   8.802  10.652   5.231 -1.9131 -0.1279 -1.0981
  547MOL0     H75429   8.844  10.356   5.127  2.8585 -1.6686  3.4952
  547MOL0     H75430   8.844  10.392   5.292 -2.6792 -0.1478  0.9448
  547MOL0     H75431   8.637  10.316   5.230  4.4106 -3.0079 -5.0967
  547MOL0     H75432   8.616  10.445   5.117  1.5042  2.4002  0.3519
  547MOL0     H75433   8.593  10.615   5.294  2.7897  1.6196  4.1385
  547MOL0     H75434   8.486  10.471   5.332  0.2778 -1.1033  1.0303
  547MOL0     H75435   8.543  10.355   5.561 -0.0033  0.7816  2.1495
  547MOL0     H75436   8.753  10.241   5.738 -1.9840 -0.5000 -0.0127
  547MOL0     H75437   8.647  10.373   5.812 -1.4450 -0.2713 -2.6842
  547MOL0     H75438   8.948  10.356   5.794 -0.3905  2.0657 -2.3224
  547MOL0     H75439   8.865  10.494   5.876 -0.3119  0.6480 -1.1753
  547MOL0     H75440   8.789  10.366   6.050 -0.3028  3.4515 -2.2837
  547MOL0     H75441   8.834  10.213   5.969 -1.4562  0.6281  0.1860
  547MOL0     H75442   9.023  10.426   6.091 -0.4873 -0.3017 -0.3650
  547MOL0     H75443   9.010  10.252   6.126  1.5446 -0.4208  0.1989
  547MOL0     H75444   9.282  10.269   5.784 -1.7988  0.8731  0.5325
  547MOL0     H75445   9.483  10.166   5.707 -2.2346 -0.4518  1.5117
  547MOL0     H75446   9.624  10.150   5.799 -0.2796 -0.0678 -0.4283
  547MOL0     H75447   9.582  10.315   5.739  0.7197 -0.5383 -0.4680
  547MOL0     H75448   9.778   9.975   6.145 -3.1389  0.8001  2.0680
  547MOL0     H75449  10.015   9.922   6.203 -0.1341 -0.6348  1.2446
  547MOL0     H75450  10.352  10.046   6.458  0.7402  1.3787 -0.0769
  547MOL0     H75451  10.265  10.202   6.446 -2.9878 -0.0414  0.2885
  547MOL0     H75452  10.109  10.144   6.607  2.1511  2.4713  0.3157
  547MOL0     H75453  10.160   9.970   6.613  0.8975 -0.2397 -3.9655
  547MOL0     H75454  10.243  10.101   6.815 -3.0407  2.6416 -0.6082
  547MOL0     H75455  10.326  10.219   6.718 -0.8230  0.5570 -2.2056
  547MOL0     H75456  10.420   9.954   6.638  2.7336 -0.4522  0.6378
  547MOL0     H75457  10.377   9.934   6.802 -1.1256  0.1283 -1.4727
  547MOL0     H75458  10.573  10.148   6.705  1.5469  0.8370  1.2494
  547MOL0     H75459  10.557  10.093   6.872  1.0286  1.9067 -0.7468
  547MOL0     H75460  10.661   9.924   6.635  0.0372  1.2327 -0.8396
  547MOL0     H75461  10.636   9.858   6.795 -1.0666  0.8738 -0.1783
  547MOL0     H75462  10.868   9.913   6.759 -0.3734  0.0172  0.4698
  547MOL0     H75463  10.813  10.037   6.878 -2.2500 -0.3701  0.3762
  547MOL0     H75464  10.768  10.192   6.695 -2.0162 -0.8630 -0.5752
  547MOL0     H75465  10.851  10.077   6.581 -2.1703 -2.1722  0.7520
  547MOL0     H75466  10.030  10.268   6.456  0.8270 -1.1944 -0.6751
  547MOL0     H75467   9.792  10.315   6.387  0.0535  0.0311  0.8738
  547MOL0     H75468   9.452  10.317   6.242 -1.2919  0.8747  0.2373
  547MOL0     H75469   9.226  10.303   6.208  0.8806  1.1838  0.4949
  547MOL0     H75470   9.276  11.066   5.196 -0.0233  0.4562  0.0608
  547MOL0     H75471   9.451  11.165   5.079 -1.5760 -0.2742  0.9872
  547MOL0     H75472   9.968  11.046   5.133  0.2487 -0.3379 -0.1186
  547MOL0     H75473  10.201  11.105   5.095 -1.5669  0.3674  2.2531
  547MOL0     H75474  10.391  11.250   5.098  0.5826 -0.6611  0.3288
  547MOL0     H75475  10.422  11.146   4.959  0.2976  0.1402  0.3866
  547MOL0     H75476  10.511  11.439   4.996  1.7830 -0.3961  0.9340
  547MOL0     H75477  10.495  11.371   4.845  0.7326  3.2200  0.5825
  547MOL0     H75478  10.672  11.281   5.077  0.8938 -1.0465  0.0900
  547MOL0     H75479  10.657  11.166   4.942 -4.0875 -0.5038 -0.8106
  547MOL0     H75480  10.745  11.325   4.783 -1.2165 -0.0487  1.1254
  547MOL0     H75481  10.855  11.264   4.908 -0.1474  0.0498 -1.2062
  547MOL0     H75482  10.896  11.669   4.989 -2.2704  0.7690  0.6245
  547MOL0     H75483  10.091  11.406   4.824 -0.0164  1.0173  2.1849
  547MOL0     H75484   9.742  11.341   4.808 -2.0160  2.3878 -0.1711
  547MOL0     H75485   9.781  11.462   4.927  1.6260 -0.6821  2.2737
  547MOL0     H75486   9.878  11.452   4.780  0.8615 -2.1158 -1.0302
  548MOL0     O75487   8.384   1.493   3.978  0.0387  0.9305  0.0125
  548MOL0     C75488   8.294   1.475   3.896  0.1292 -0.6614  0.0600
  548MOL0     O75489   8.327   1.433   3.759 -0.1945 -0.6320  0.8738
  548MOL0     C75490   8.456   1.416   3.722 -0.3185  0.0279 -0.2445
  548MOL0     C75491   8.523   1.527   3.680  0.0023  0.0769  0.2650
  548MOL0     C75492   8.652   1.512   3.640  0.9822 -0.0641  0.0927
  548MOL0     C75493   8.717   1.392   3.630 -0.0214 -0.5190 -0.5828
  548MOL0     O75494   8.846   1.409   3.573 -0.0622  0.0671 -0.7440
  548MOL0     C75495   8.946   1.344   3.654 -0.8621 -0.4172  0.2257
  548MOL0     C75496   8.982   1.415   3.784 -0.1577 -0.5967  0.4622
  548MOL0     C75497   9.052   1.547   3.747 -0.3004  0.7696  0.2059
  548MOL0     C75498   9.058   1.631   3.872  1.0310 -0.2192  0.0864
  548MOL0     C75499   9.141   1.758   3.865 -0.3365  0.0583  0.0279
  548MOL0     C75500   9.153   1.824   4.003 -0.1233  0.6429  0.4485
  548MOL0     C75501   9.193   1.975   3.981  0.1789  0.3090 -0.4494
  548MOL0     C75502   9.197   2.045   4.125  0.7032 -0.1434  0.3147
  548MOL0     N75503   9.253   2.174   4.102  0.1377  0.7096 -0.1644
  548MOL0     C75504   9.387   2.196   4.056  0.3003 -0.3730  0.2321
  548MOL0     C75505   9.399   2.328   4.051 -0.6383  0.2011  0.1260
  548MOL0     C75506   9.516   2.412   4.020 -0.1364  0.3472 -0.1592
  548MOL0     C75507   9.654   2.366   4.071  0.7377 -0.4475  0.0480
  548MOL0     C75508   9.774   2.416   3.985  0.0182  0.6389 -0.1166
  548MOL0     C75509   9.908   2.368   4.045 -0.5645 -0.5318 -0.2932
  548MOL0     O75510  10.019   2.437   3.990  0.0743 -0.1481 -0.2377
  548MOL0     C75511  10.033   2.413   3.849  0.0725 -0.2531 -0.8699
  548MOL0     C75512   9.998   2.291   3.780  0.7571  0.0681 -0.2249
  548MOL0     C75513  10.026   2.267   3.652 -0.7091 -0.6046 -0.6836
  548MOL0     C75514   9.991   2.126   3.607 -0.5144 -0.2849 -0.0249
  548MOL0     C75515  10.102   2.358   3.575  0.1511  0.3119 -1.2577
  548MOL0     C75516  10.164   2.337   3.440 -0.0003  0.1954  0.0517
  548MOL0     O75517  10.244   2.439   3.395  0.5810 -0.6029 -0.1143
  548MOL0     C75518  10.302   2.432   3.271  0.5349  0.4088 -0.0524
  548MOL0     C75519  10.316   2.559   3.215 -0.3364  1.3102 -0.6895
  548MOL0     C75520  10.375   2.582   3.089  0.6421 -0.5734  0.3297
  548MOL0     C75521  10.417   2.470   3.020 -0.3767  0.0337  0.5372
  548MOL0     O75522  10.470   2.477   2.894  0.1144 -0.2145  0.6103
  548MOL0     C75523  10.531   2.599   2.847 -0.1491  0.0093 -0.2442
  548MOL0     C75524  10.608   2.569   2.719 -0.1499 -0.1287 -0.3432
  548MOL0     C75525  10.644   2.692   2.644  0.3600 -0.5030 -0.3995
  548MOL0     C75526  10.722   2.650   2.522 -0.3678  0.0511 -0.6381
  548MOL0     C75527  10.829   2.746   2.473  0.1089 -0.3272 -0.4901
  548MOL0     C75528  10.890   2.704   2.344 -0.5936 -0.0237  0.6182
  548MOL0     C75529  11.009   2.780   2.296  0.4378 -0.8440 -0.0908
  548MOL0     C75530  10.969   2.927   2.275 -0.5202  0.3729  0.1311
  548MOL0    Cl75531  11.102   3.012   2.175 -0.1923 -0.2981  0.0420
  548MOL0     C75532  10.392   2.345   3.068 -0.3656 -0.9540  0.6670
  548MOL0     C75533  10.340   2.325   3.193 -0.4203 -0.3534  0.3951
  548MOL0     O75534  10.147   2.231   3.379 -0.7086 -0.4481 -0.0013
  548MOL0     C75535  10.134   2.475   3.644  0.4341  0.5822 -0.8281
  548MOL0     C75536  10.092   2.510   3.769 -0.0954  0.0626 -0.8258
  548MOL0     N75537   9.273   2.383   4.094  0.1899  0.5092 -0.1328
  548MOL0     N75538   9.190   2.291   4.124 -0.3523  0.0962 -0.4172
  548MOL0     C75539   8.648   1.277   3.667 -0.3817  0.1422 -0.5407
  548MOL0     C75540   8.518   1.290   3.722  0.2632 -0.1515 -0.1052
  548MOL0     C75541   8.151   1.486   3.934  0.2302 -0.4707  0.2663
  548MOL0     C75542   8.073   1.562   3.848  1.0474 -0.0652 -0.0014
  548MOL0     C75543   7.935   1.563   3.871 -0.2550  0.3850 -0.1868
  548MOL0     C75544   7.878   1.506   3.985  0.6614  0.2244  0.4352
  548MOL0     O75545   7.746   1.527   3.999 -0.8695 -0.0801 -0.2870
  548MOL0     C75546   7.667   1.444   4.084 -0.3111 -0.4068  0.1428
  548MOL0     C75547   7.513   1.500   4.083 -0.2698  0.8780 -0.5864
  548MOL0     C75548   7.466   1.541   3.938  0.0036 -0.3638  0.5423
  548MOL0     C75549   7.343   1.629   3.933  0.1173 -0.5414  0.9390
  548MOL0     C75550   7.216   1.556   3.951  0.2558 -0.5447  0.8734
  548MOL0     C75551   7.104   1.511   3.963  0.7778 -0.2736 -0.0231
  548MOL0     C75552   7.957   1.435   4.071 -0.7478 -0.4359  0.8958
  548MOL0     C75553   8.096   1.424   4.046  0.4906 -0.6016 -0.0700
  548MOL0     C75554   8.185   1.360   4.146 -1.0510  0.0296  0.0882
  548MOL0     H75555   8.467   1.619   3.695 -1.0992 -0.5245 -0.0491
  548MOL0     H75556   8.714   1.597   3.613  1.8569 -0.8875 -0.5670
  548MOL0     H75557   9.038   1.322   3.600 -1.5961 -2.6475 -0.2428
  548MOL0     H75558   8.917   1.240   3.670  3.2770 -1.5191  2.0477
  548MOL0     H75559   8.891   1.444   3.837  0.0423 -0.5262  0.7707
  548MOL0     H75560   9.046   1.359   3.854  0.2330 -0.7459 -0.0106
  548MOL0     H75561   9.153   1.525   3.710 -0.6628  1.1159 -1.0317
  548MOL0     H75562   9.011   1.594   3.657  1.6367  0.8272 -0.7127
  548MOL0     H75563   8.955   1.650   3.904  0.6261 -0.3851 -1.0642
  548MOL0     H75564   9.102   1.571   3.952  3.1388  0.8653 -0.1975
  548MOL0     H75565   9.094   1.831   3.799  2.1357  2.0675  0.3344
  548MOL0     H75566   9.236   1.741   3.815 -0.0322  5.4854 -1.9553
  548MOL0     H75567   9.056   1.827   4.053 -0.3555  1.9686 -0.0409
  548MOL0     H75568   9.222   1.780   4.077  0.9424  1.9046  0.2407
  548MOL0     H75569   9.118   2.022   3.917 -1.4086 -0.9461  0.4096
  548MOL0     H75570   9.292   1.981   3.937 -0.6399 -0.9588 -2.6508
  548MOL0     H75571   9.101   2.056   4.177  1.5160 -0.1311  1.8888
  548MOL0     H75572   9.264   1.986   4.188  3.2007 -1.0443 -2.8877
  548MOL0     H75573   9.454   2.114   4.030 -1.1576 -1.4171 -0.3432
  548MOL0     H75574   9.492   2.510   4.063 -0.7983 -0.1137  0.5507
  548MOL0     H75575   9.517   2.418   3.910 -2.3357 -0.6207 -0.2850
  548MOL0     H75576   9.656   2.410   4.171  0.3202  3.3186 -1.4262
  548MOL0     H75577   9.668   2.258   4.077 -1.9376 -0.7824  1.9491
  548MOL0     H75578   9.761   2.370   3.887  0.9692 -2.8691  1.2516
  548MOL0     H75579   9.775   2.525   3.972 -0.1596  0.6708  0.1316
  548MOL0     H75580   9.909   2.381   4.154  0.4160 -1.1071 -0.2303
  548MOL0     H75581   9.917   2.263   4.016 -3.9711 -0.8257 -0.7585
  548MOL0     H75582   9.938   2.208   3.816 -2.0801 -0.6842 -5.7752
  548MOL0     H75583   9.980   2.131   3.499  1.0069 -1.4566 -0.2707
  548MOL0     H75584   9.905   2.078   3.654  1.5621 -1.7160  2.6256
  548MOL0     H75585  10.072   2.055   3.625 -0.1644 -0.3592 -1.7190
  548MOL0     H75586  10.274   2.637   3.278 -0.1083 -1.1457  2.7932
  548MOL0     H75587  10.381   2.675   3.034 -0.7039 -1.5257 -1.5675
  548MOL0     H75588  10.462   2.682   2.826  2.2082  1.3395 -3.6033
  548MOL0     H75589  10.600   2.635   2.924  0.4588  1.0073 -1.2274
  548MOL0     H75590  10.698   2.513   2.746  1.3548  1.5299 -1.7039
  548MOL0     H75591  10.537   2.515   2.655 -3.4908  2.7490  0.6120
  548MOL0     H75592  10.715   2.742   2.710  0.8479 -0.6999 -0.7701
  548MOL0     H75593  10.554   2.748   2.617  0.8479  2.6199  3.5180
  548MOL0     H75594  10.644   2.625   2.448 -1.0242 -0.1280  0.1036
  548MOL0     H75595  10.773   2.555   2.534 -1.0685 -0.4485 -1.4289
  548MOL0     H75596  10.779   2.840   2.448  0.6513 -0.4435 -2.1201
  548MOL0     H75597  10.908   2.755   2.549 -0.3791  2.8349 -0.1873
  548MOL0     H75598  10.820   2.715   2.261 -0.3551  1.7157  0.6025
  548MOL0     H75599  10.910   2.598   2.360 -1.2479  0.0124  1.8514
  548MOL0     H75600  11.049   2.734   2.205  0.0832  1.3136 -1.4013
  548MOL0     H75601  11.095   2.784   2.364  3.1310 -1.5434 -3.1894
  548MOL0     H75602  10.951   2.981   2.368 -1.0977 -1.4754  1.1384
  548MOL0     H75603  10.878   2.936   2.214  0.3365  0.3157 -1.1832
  548MOL0     H75604  10.426   2.258   3.012 -2.0719 -0.7862 -0.7306
  548MOL0     H75605  10.328   2.224   3.231 -0.8682 -0.6388 -0.4753
  548MOL0     H75606  10.198   2.547   3.595 -0.0722  0.7970 -1.1801
  548MOL0     H75607  10.115   2.610   3.804 -0.2217 -0.8278  2.0032
  548MOL0     H75608   8.703   1.183   3.661 -0.0184  0.3820 -1.0528
  548MOL0     H75609   8.461   1.204   3.755  2.0691 -0.8856  1.2795
  548MOL0     H75610   8.104   1.611   3.756 -1.7703 -1.9470 -2.1239
  548MOL0     H75611   7.861   1.614   3.809 -1.6350 -3.1511 -1.6965
  548MOL0     H75612   7.684   1.341   4.054 -0.1278 -1.2326  2.8759
  548MOL0     H75613   7.702   1.451   4.187  1.8435  0.6630 -0.6019
  548MOL0     H75614   7.521   1.583   4.155  1.6168 -1.7423  2.4746
  548MOL0     H75615   7.452   1.422   4.128  2.4541  0.3420  2.6098
  548MOL0     H75616   7.540   1.601   3.884 -3.1275  1.7004 -1.8070
  548MOL0     H75617   7.457   1.447   3.882  1.8038  0.1337 -0.6946
  548MOL0     H75618   7.333   1.669   3.831 -1.8177  0.2401  1.3748
  548MOL0     H75619   7.348   1.711   4.005 -0.8243 -0.1758  0.6170
  548MOL0     H75620   7.006   1.470   3.980  1.3373 -1.7142 -0.1485
  548MOL0     H75621   7.907   1.380   4.150 -3.1798 -0.1721 -0.3719
  548MOL0     H75622   8.144   1.294   4.224 -0.3748 -0.2082  0.2510
  548MOL0     H75623   8.264   1.302   4.097 -0.5615  1.0172 -0.3046
  548MOL0     H75624   8.247   1.439   4.188  0.1952 -1.2896  0.8376
  549MOL0     O75625   0.534  10.578   2.082 -0.2433 -0.2641  0.4187
  549MOL0     C75626   0.564  10.458   2.085  0.1492 -0.4927 -0.5221
  549MOL0     O75627   0.695  10.414   2.102  0.2710  0.3241 -0.0087
  549MOL0     C75628   0.796  10.510   2.085  1.3822  0.3548 -0.9994
  549MOL0     C75629   0.807  10.618   2.169 -0.1099 -0.1873  0.2463
  549MOL0     C75630   0.924  10.702   2.163 -0.3963 -0.3305  0.2995
  549MOL0     C75631   1.025  10.677   2.067 -0.0496 -0.7662  0.1241
  549MOL0     O75632   1.135  10.749   2.064  0.2755 -0.3594 -0.2469
  549MOL0     C75633   1.146  10.869   2.134  0.9927  0.5943 -0.1213
  549MOL0     C75634   1.269  10.938   2.086 -0.1235 -0.1503  0.3623
  549MOL0     C75635   1.395  10.917   2.167  0.4605  0.2846 -0.2792
  549MOL0     C75636   1.450  10.771   2.148 -0.6152  0.2721  0.0111
  549MOL0     C75637   1.588  10.742   2.199 -0.4072 -0.5244 -0.6332
  549MOL0     C75638   1.692  10.839   2.153 -0.4883  0.0355  0.5793
  549MOL0     C75639   1.825  10.797   2.203  0.1601  0.6895 -0.0421
  549MOL0     C75640   1.937  10.882   2.138 -0.0078  0.0060 -0.0851
  549MOL0     N75641   2.070  10.856   2.189 -0.1994 -0.8252 -0.0840
  549MOL0     C75642   2.191  10.871   2.123  0.9436 -0.7003  0.1776
  549MOL0     C75643   2.294  10.849   2.212  0.0558 -0.1339  0.3968
  549MOL0     C75644   2.436  10.822   2.172  0.2934 -0.2143 -0.3155
  549MOL0     C75645   2.524  10.757   2.289 -0.2265  0.4365 -0.5023
  549MOL0     C75646   2.665  10.697   2.242  0.4164  0.7093 -1.1446
  549MOL0     C75647   2.653  10.573   2.163  0.5209 -0.4720 -0.1613
  549MOL0     O75648   2.773  10.504   2.147  1.1291  0.1562 -0.2832
  549MOL0     C75649   2.875  10.572   2.084  0.0723  0.1115  0.2575
  549MOL0     C75650   2.870  10.602   1.949  0.2705 -0.5084 -0.1782
  549MOL0     C75651   2.977  10.666   1.891 -0.1980 -0.3630  0.3513
  549MOL0     C75652   2.959  10.707   1.743 -0.5895  0.5793 -0.8525
  549MOL0     C75653   3.093  10.701   1.957  0.1631  0.5215 -0.3339
  549MOL0     C75654   3.222  10.751   1.899  0.1600 -0.0552  0.2440
  549MOL0     O75655   3.342  10.710   1.943 -0.4753  0.8677 -0.4301
  549MOL0     C75656   3.461  10.738   1.872 -0.2969  0.5322 -0.3078
  549MOL0     C75657   3.551  10.635   1.874 -0.4323  0.1296 -0.0533
  549MOL0     C75658   3.673  10.651   1.822 -1.2408 -0.8333 -0.2739
  549MOL0     C75659   3.707  10.774   1.760  0.0543 -0.9976  0.0421
  549MOL0     O75660   3.827  10.808   1.698  0.2823 -0.1266  0.7448
  549MOL0     C75661   3.953  10.737   1.726  0.9020  0.1445 -0.3588
  549MOL0     C75662   4.046  10.822   1.643 -0.4334 -0.3579  0.3002
  549MOL0     C75663   4.189  10.764   1.632  0.2274  0.6383 -0.2359
  549MOL0     C75664   4.267  10.792   1.769 -0.4690 -0.4974  0.3131
  549MOL0     C75665   4.426  10.746   1.752  0.4914 -0.2431 -0.5059
  549MOL0     C75666   4.508  10.804   1.866  0.5410 -0.2748 -0.2864
  549MOL0     C75667   4.649  10.752   1.870 -0.3327  0.4977 -0.5774
  549MOL0     C75668   4.754  10.839   1.796  0.0656  0.6037  0.0700
  549MOL0    Cl75669   4.743  10.835   1.618  0.0446 -0.1276 -0.0630
  549MOL0     C75670   3.621  10.881   1.766  0.4072 -0.1002  0.2297
  549MOL0     C75671   3.490  10.862   1.817 -0.1257  0.6303 -0.9360
  549MOL0     O75672   3.203  10.830   1.806  0.0064 -0.0725 -0.7827
  549MOL0     C75673   3.104  10.660   2.090  0.5715 -0.7423  0.5148
  549MOL0     C75674   2.990  10.602   2.156 -0.1855  0.1753  0.0118
  549MOL0     N75675   2.233  10.843   2.336 -0.4791 -0.6259 -0.1554
  549MOL0     N75676   2.107  10.848   2.322 -0.6000  1.0607  0.2265
  549MOL0     C75677   1.016  10.564   1.983 -0.3729  0.0734  0.1215
  549MOL0     C75678   0.897  10.483   1.994  0.3816  0.1506  0.2745
  549MOL0     C75679   0.450  10.365   2.092  0.2155 -0.4388  0.7035
  549MOL0     C75680   0.322  10.419   2.060 -0.3532  0.0186  0.5945
  549MOL0     C75681   0.207  10.346   2.070  0.6436  0.0613 -0.7193
  549MOL0     C75682   0.211  10.213   2.116  0.3615  0.4183 -0.3240
  549MOL0     O75683   0.089  10.138   2.108 -0.2976 -0.3666 -0.3180
  549MOL0     C75684   0.102   9.997   2.079 -0.8238 -0.1261  0.2565
  549MOL0     C75685  -0.038   9.937   2.057  0.5179  0.5519  0.8068
  549MOL0     C75686  -0.139   9.963   2.171 -1.6401 -0.1383 -0.1696
  549MOL0     C75687  -0.278   9.913   2.142 -0.0780  0.3204 -0.3249
  549MOL0     C75688  -0.365   9.919   2.260  0.1899  0.1517  0.6868
  549MOL0     C75689  -0.430   9.939   2.358 -0.0184  0.9176  0.0154
  549MOL0     C75690   0.332  10.156   2.159 -0.2590 -0.0968  0.0774
  549MOL0     C75691   0.451  10.232   2.140  0.6451  0.3013  1.3005
  549MOL0     C75692   0.581  10.155   2.157  0.4874 -0.2605  0.7255
  549MOL0     H75693   0.731  10.626   2.246 -1.0004  2.0268 -0.7944
  549MOL0     H75694   0.935  10.782   2.236 -1.3686  0.8106 -0.7688
  549MOL0     H75695   1.157  10.851   2.242  3.4023 -1.3682 -0.5905
  549MOL0     H75696   1.073  10.947   2.110  0.6640  0.7162  1.1684
  549MOL0     H75697   1.295  10.920   1.982  2.1001  0.3382  0.7782
  549MOL0     H75698   1.242  11.044   2.083  1.4953  0.3690  1.9613
  549MOL0     H75699   1.465  10.994   2.133 -0.9615  1.5134 -0.5508
  549MOL0     H75700   1.374  10.935   2.273 -2.3537  2.9483 -1.1213
  549MOL0     H75701   1.390  10.697   2.201 -0.3271 -0.8341 -1.1470
  549MOL0     H75702   1.441  10.735   2.045 -2.1993 -0.3612  0.3456
  549MOL0     H75703   1.616  10.643   2.161 -0.5519 -0.5209 -0.7497
  549MOL0     H75704   1.595  10.737   2.308  2.7048 -1.3493 -0.7783
  549MOL0     H75705   1.687  10.841   2.043 -1.3872 -1.4467  0.5595
  549MOL0     H75706   1.670  10.938   2.195 -2.4452  0.0974 -0.4603
  549MOL0     H75707   1.844  10.692   2.180 -2.2238  0.0964  0.3884
  549MOL0     H75708   1.839  10.814   2.310  0.6929  0.7281 -0.1188
  549MOL0     H75709   1.942  10.856   2.032 -2.1048 -1.4911  0.1181
  549MOL0     H75710   1.904  10.986   2.131 -0.5361 -0.2586 -4.6821
  549MOL0     H75711   2.207  10.900   2.019 -1.3350 -0.6006 -0.2050
  549MOL0     H75712   2.475  10.920   2.142  1.3212 -0.1320  1.1654
  549MOL0     H75713   2.442  10.755   2.086 -1.5480 -0.4937 -0.2712
  549MOL0     H75714   2.536  10.837   2.363 -0.9745  0.2029 -0.1192
  549MOL0     H75715   2.459  10.685   2.340  0.0363  1.1714  0.9291
  549MOL0     H75716   2.717  10.773   2.183  0.1748  1.5000 -0.3547
  549MOL0     H75717   2.730  10.672   2.326  0.2161 -2.6280 -1.8533
  549MOL0     H75718   2.601  10.504   2.231  0.4021  1.1236  1.4386
  549MOL0     H75719   2.594  10.593   2.073 -0.7713  2.2825  1.2045
  549MOL0     H75720   2.781  10.573   1.894 -0.4881 -2.9960  2.1421
  549MOL0     H75721   3.052  10.699   1.687  1.6119  1.7802  2.3060
  549MOL0     H75722   2.932  10.813   1.747  1.3548  1.1281 -1.2278
  549MOL0     H75723   2.877  10.652   1.696 -1.4659  0.9138  0.2179
  549MOL0     H75724   3.526  10.543   1.926  2.8054 -0.0012  1.5169
  549MOL0     H75725   3.744  10.569   1.827 -0.0399  0.1029 -1.0822
  549MOL0     H75726   3.980  10.735   1.832  2.7587 -2.9749 -0.7808
  549MOL0     H75727   3.952  10.637   1.683  1.2302 -2.1126  4.2490
  549MOL0     H75728   4.002  10.837   1.545 -1.8617  1.7183  1.1804
  549MOL0     H75729   4.068  10.915   1.697  0.9205 -0.8508  0.6629
  549MOL0     H75730   4.251  10.820   1.561  0.0531  2.0325  0.6584
  549MOL0     H75731   4.191  10.657   1.610  0.0776 -1.4294  7.0489
  549MOL0     H75732   4.215  10.745   1.853  0.5764 -1.3242  0.5137
  549MOL0     H75733   4.262  10.899   1.789  0.3284 -0.6216  1.2418
  549MOL0     H75734   4.445  10.638   1.742 -1.4903 -0.7710  0.9390
  549MOL0     H75735   4.463  10.793   1.660  2.1569 -0.4112  0.0280
  549MOL0     H75736   4.453  10.768   1.953 -1.5910  1.2030 -0.9600
  549MOL0     H75737   4.505  10.913   1.868  1.8867 -0.1260 -2.5591
  549MOL0     H75738   4.645  10.649   1.832  3.2509 -0.4905  1.2189
  549MOL0     H75739   4.679  10.745   1.975 -3.8969  2.7382  0.7608
  549MOL0     H75740   4.858  10.813   1.814  0.9706  3.3377 -0.6950
  549MOL0     H75741   4.750  10.943   1.830 -1.1751  0.4394  0.5073
  549MOL0     H75742   3.641  10.981   1.729  1.6747 -0.0139  1.0970
  549MOL0     H75743   3.426  10.949   1.816 -1.6789 -0.4873 -1.5727
  549MOL0     H75744   3.194  10.668   2.150  0.7905 -1.5155  0.2964
  549MOL0     H75745   2.999  10.578   2.261 -3.2882  2.2465  0.8936
  549MOL0     H75746   1.081  10.537   1.901 -0.0196 -1.9359  0.9995
  549MOL0     H75747   0.881  10.400   1.926  1.3320 -1.5268  1.9954
  549MOL0     H75748   0.327  10.525   2.037  2.6572  0.3968  2.4162
  549MOL0     H75749   0.110  10.388   2.048 -1.5897 -3.6834  1.1133
  549MOL0     H75750   0.173   9.978   1.997 -1.1158  2.4445 -0.6773
  549MOL0     H75751   0.141   9.952   2.170  0.6303 -5.0431 -2.3977
  549MOL0     H75752  -0.035   9.828   2.042 -1.7235  0.5878 -0.2408
  549MOL0     H75753  -0.089   9.990   1.976 -2.1907 -1.4934  1.0026
  549MOL0     H75754  -0.104   9.919   2.265  0.3695  1.4010 -0.1174
  549MOL0     H75755  -0.148  10.072   2.175  0.4173  0.2647 -3.1118
  549MOL0     H75756  -0.280   9.813   2.097  1.2620  0.5910 -1.0305
  549MOL0     H75757  -0.312   9.980   2.063 -0.8472  0.2359 -0.0736
  549MOL0     H75758  -0.497   9.945   2.441 -0.6342  0.1860 -0.4094
  549MOL0     H75759   0.329  10.054   2.197 -2.4819 -1.0991 -2.4879
  549MOL0     H75760   0.615  10.130   2.056  1.0448 -0.4419  0.9533
  549MOL0     H75761   0.649  10.217   2.216  2.1564 -0.4125 -0.9829
  549MOL0     H75762   0.567  10.058   2.207  1.7301 -1.8524 -1.8335
  550MOL0     O75763   1.536   9.622   4.950 -0.0254 -0.1628  0.3386
  550MOL0     C75764   1.624   9.600   5.027 -0.3120 -0.1539 -0.5046
  550MOL0     O75765   1.602   9.539   5.152  0.4512 -0.1491  0.1912
  550MOL0     C75766   1.482   9.492   5.197  0.6376 -0.2149 -0.3116
  550MOL0     C75767   1.484   9.374   5.272  0.1124  0.5347  0.4297
  550MOL0     C75768   1.365   9.318   5.309  0.6778 -0.5387 -0.3252
  550MOL0     C75769   1.235   9.371   5.279 -0.5612  0.1526  0.1835
  550MOL0     O75770   1.110   9.311   5.309  0.0112 -0.0898  0.7449
  550MOL0     C75771   1.107   9.173   5.359  1.9310 -0.1575  0.7542
  550MOL0     C75772   0.963   9.132   5.354 -0.6063  0.1357 -0.6152
  550MOL0     C75773   0.876   9.225   5.449  0.3810  0.0429  0.7251
  550MOL0     C75774   0.920   9.216   5.604  0.5017 -1.7443  0.3818
  550MOL0     C75775   0.813   9.266   5.706  0.1659 -0.7279  0.1151
  550MOL0     C75776   0.801   9.425   5.718 -0.7152  0.2945  0.0785
  550MOL0     C75777   0.653   9.456   5.750 -0.4549  0.5967  0.1193
  550MOL0     C75778   0.638   9.601   5.806  0.5183 -0.1166  0.3504
  550MOL0     N75779   0.718   9.658   5.911 -1.4596  0.3730 -1.1176
  550MOL0     C75780   0.806   9.765   5.883  0.5484  0.5184 -0.7284
  550MOL0     C75781   0.875   9.784   5.999 -0.8232 -0.0455  0.2299
  550MOL0     C75782   0.981   9.888   6.039  0.5432  0.0757  0.7936
  550MOL0     C75783   1.110   9.820   6.083  0.0870 -0.1904  0.3535
  550MOL0     C75784   1.195   9.760   5.963  0.9807  0.4511  0.0011
  550MOL0     C75785   1.321   9.696   6.023 -1.0400  0.2301 -0.0282
  550MOL0     O75786   1.402   9.802   6.075 -0.0431 -0.4066 -0.0831
  550MOL0     C75787   1.525   9.811   6.019 -0.2600 -0.3161  0.4000
  550MOL0     C75788   1.625   9.727   6.077  0.4563 -0.3089  0.3236
  550MOL0     C75789   1.755   9.718   6.016  0.1975 -0.0032 -0.8060
  550MOL0     C75790   1.857   9.641   6.099 -0.0170  0.1829  0.0550
  550MOL0     C75791   1.777   9.788   5.891 -0.2947 -0.0752 -0.2086
  550MOL0     C75792   1.907   9.799   5.830  0.5586 -0.0387 -0.2333
  550MOL0     O75793   1.926   9.917   5.782 -0.1999 -0.7769 -0.7699
  550MOL0     C75794   2.023   9.940   5.687  0.2906 -0.2049  0.4870
  550MOL0     C75795   2.092   9.842   5.611  0.6141 -0.1979 -0.4385
  550MOL0     C75796   2.185   9.878   5.514 -0.1268  0.6047  0.4925
  550MOL0     C75797   2.218  10.014   5.494  0.1771  0.4190  0.5449
  550MOL0     O75798   2.306  10.043   5.404 -0.6614  0.2840 -0.5372
  550MOL0     C75799   2.446  10.001   5.428  0.7037 -0.7459 -0.3372
  550MOL0     C75800   2.542  10.112   5.400 -0.0850  1.2105 -0.3124
  550MOL0     C75801   2.674  10.071   5.451 -0.4003  0.5765 -0.7978
  550MOL0     C75802   2.769  10.187   5.398 -0.2605 -0.1675  0.1344
  550MOL0     C75803   2.903  10.180   5.461  0.9525 -1.0410  0.7474
  550MOL0     C75804   2.999  10.292   5.423 -0.2445  0.4500 -0.1068
  550MOL0     C75805   3.130  10.277   5.498  0.7671 -0.2560  0.6232
  550MOL0     C75806   3.184  10.403   5.550 -0.0509 -0.0050  0.5073
  550MOL0    Cl75807   3.341  10.355   5.637  0.0697  0.4053 -0.1695
  550MOL0     C75808   2.161  10.105   5.578 -0.5292  0.3029  0.7367
  550MOL0     C75809   2.059  10.074   5.669  0.3784  0.3371  0.1997
  550MOL0     O75810   1.982   9.700   5.838  0.0196 -0.1052  0.6404
  550MOL0     C75811   1.666   9.866   5.840 -0.0826 -0.8397  1.2701
  550MOL0     C75812   1.546   9.879   5.903  1.0534 -0.3744  0.2911
  550MOL0     N75813   0.826   9.697   6.093 -0.3333 -0.0681  0.1996
  550MOL0     N75814   0.726   9.637   6.049 -0.0641 -0.3023 -0.1801
  550MOL0     C75815   1.236   9.490   5.199 -0.1982 -0.5399 -0.2197
  550MOL0     C75816   1.356   9.544   5.159 -0.5653  0.1646 -0.5536
  550MOL0     C75817   1.764   9.656   4.991  0.4658  0.6617  0.3302
  550MOL0     C75818   1.775   9.748   4.887  0.3212  0.0533 -0.6296
  550MOL0     C75819   1.898   9.797   4.849 -0.3964  0.2476 -0.1428
  550MOL0     C75820   2.016   9.768   4.909 -0.2047 -0.3522 -0.8736
  550MOL0     O75821   2.135   9.824   4.871  0.3599 -0.2910 -0.5585
  550MOL0     C75822   2.197   9.909   4.971  0.1429  0.3746 -0.3322
  550MOL0     C75823   2.282  10.007   4.896  0.3663  0.2657 -0.5841
  550MOL0     C75824   2.201  10.084   4.789 -0.6521 -0.4377  0.4052
  550MOL0     C75825   2.096  10.181   4.855  0.0386 -0.2458 -0.2858
  550MOL0     C75826   2.052  10.284   4.757 -0.0725  0.2446 -0.3244
  550MOL0     C75827   2.059  10.379   4.675  0.1584  0.4858 -0.8922
  550MOL0     C75828   2.016   9.669   5.011  0.0142 -1.1647  0.3568
  550MOL0     C75829   1.884   9.627   5.057  0.1475 -0.1339 -0.6974
  550MOL0     C75830   1.901   9.523   5.175  0.9660  0.0505  0.0333
  550MOL0     H75831   1.578   9.325   5.297  0.0648  0.7204  0.9974
  550MOL0     H75832   1.373   9.227   5.366 -0.2347 -0.3378  0.1480
  550MOL0     H75833   1.136   9.172   5.464 -1.2534  2.4963  1.8114
  550MOL0     H75834   1.168   9.121   5.284  1.1539 -0.9511  0.6621
  550MOL0     H75835   0.921   9.141   5.254  0.6375 -1.0385 -1.2653
  550MOL0     H75836   0.950   9.029   5.389 -1.0106  0.6952  0.9891
  550MOL0     H75837   0.873   9.328   5.414  1.1186 -0.4392 -0.8261
  550MOL0     H75838   0.768   9.204   5.450 -0.2841  2.8702 -0.6975
  550MOL0     H75839   0.936   9.111   5.630 -1.2237 -1.6106  2.3261
  550MOL0     H75840   1.000   9.290   5.617 -2.0773  1.6777 -1.5363
  550MOL0     H75841   0.845   9.234   5.805  3.4426 -0.9021 -0.8784
  550MOL0     H75842   0.714   9.225   5.685 -0.1640  0.9634 -2.0334
  550MOL0     H75843   0.864   9.460   5.800 -0.3086  2.3687 -1.0338
  550MOL0     H75844   0.836   9.474   5.626 -1.1698  2.1269  0.8265
  550MOL0     H75845   0.631   9.384   5.829  1.3158 -0.0665  0.0666
  550MOL0     H75846   0.594   9.444   5.658  1.0374  2.9008 -1.2390
  550MOL0     H75847   0.634   9.671   5.722 -1.4120  0.4887  0.8784
  550MOL0     H75848   0.536   9.591   5.845 -0.0508 -1.7862 -1.3922
  550MOL0     H75849   0.811   9.810   5.785  0.1826  2.7092  0.2100
  550MOL0     H75850   0.938   9.944   6.122 -0.2601 -2.6569  2.3497
  550MOL0     H75851   0.987   9.958   5.955 -1.7791  2.2742  2.3034
  550MOL0     H75852   1.171   9.889   6.141 -1.9705  1.5736  0.5414
  550MOL0     H75853   1.087   9.733   6.146 -1.2641 -1.0381 -1.2135
  550MOL0     H75854   1.129   9.684   5.919 -2.7526  2.4687  1.6078
  550MOL0     H75855   1.221   9.831   5.884 -0.8141  1.0109 -0.1294
  550MOL0     H75856   1.297   9.638   6.113  1.3260 -0.2646  0.3261
  550MOL0     H75857   1.371   9.632   5.950 -0.5541  0.2566  0.2803
  550MOL0     H75858   1.609   9.664   6.164  1.3693 -2.0917 -0.7671
  550MOL0     H75859   1.820   9.599   6.193  0.5910 -2.2949 -0.7359
  550MOL0     H75860   1.943   9.705   6.118 -1.6379  2.6905 -0.5340
  550MOL0     H75861   1.895   9.563   6.032 -0.5411 -1.9904  2.1478
  550MOL0     H75862   2.079   9.736   5.624 -1.2659  0.0757  0.1541
  550MOL0     H75863   2.245   9.811   5.453  1.5204 -0.1779  2.8344
  550MOL0     H75864   2.455   9.955   5.527  1.3820 -1.6492 -0.7962
  550MOL0     H75865   2.483   9.921   5.362  3.3850  0.5964 -0.5761
  550MOL0     H75866   2.542  10.140   5.294 -0.7405 -0.1304 -0.6921
  550MOL0     H75867   2.510  10.201   5.455 -1.1803  0.9224 -0.4598
  550MOL0     H75868   2.695   9.976   5.401  0.6259  0.9302 -1.0687
  550MOL0     H75869   2.672  10.065   5.560  1.0904 -0.7286 -0.8116
  550MOL0     H75870   2.725  10.283   5.428 -1.7210 -1.3425  2.0341
  550MOL0     H75871   2.778  10.181   5.289  0.6230 -1.7583  0.2726
  550MOL0     H75872   2.879  10.182   5.567  1.1454  1.8633  0.8174
  550MOL0     H75873   2.951  10.083   5.443  1.3516 -0.5964 -0.7613
  550MOL0     H75874   2.954  10.390   5.437 -0.4432  0.2950  0.3411
  550MOL0     H75875   3.037  10.280   5.321  0.4033 -1.4779  0.3214
  550MOL0     H75876   3.203  10.224   5.435  0.9673  0.7791 -0.0360
  550MOL0     H75877   3.107  10.219   5.588  0.4242  0.3008  0.8972
  550MOL0     H75878   3.118  10.435   5.632  1.7730 -0.5346  2.2481
  550MOL0     H75879   3.191  10.481   5.474  0.0114  0.8349  1.3557
  550MOL0     H75880   2.192  10.207   5.555 -0.1376  0.3041  1.2564
  550MOL0     H75881   2.009  10.152   5.726  1.9958  2.5261 -1.2486
  550MOL0     H75882   1.670   9.926   5.750 -2.1573  1.0239  2.3248
  550MOL0     H75883   1.469   9.938   5.856  0.5872 -1.4224 -0.2849
  550MOL0     H75884   1.141   9.537   5.175 -0.0499 -0.0875  0.0600
  550MOL0     H75885   1.343   9.631   5.096 -1.0483 -0.5367 -1.4567
  550MOL0     H75886   1.681   9.781   4.844 -0.0983  0.6997  0.7484
  550MOL0     H75887   1.898   9.865   4.764 -0.1399 -1.3946 -1.4972
  550MOL0     H75888   2.110   9.962   5.012  0.6755  0.2085  1.0463
  550MOL0     H75889   2.240   9.851   5.053 -1.3859 -1.2886 -0.6580
  550MOL0     H75890   2.363   9.955   4.844 -1.2666 -2.3338 -0.6834
  550MOL0     H75891   2.335  10.068   4.970  1.4359 -0.2225 -0.9353
  550MOL0     H75892   2.268  10.141   4.724  1.0009 -2.4818  0.2403
  550MOL0     H75893   2.142  10.030   4.714  1.3350  0.4678 -1.9246
  550MOL0     H75894   2.147  10.235   4.936  1.9666 -2.2064 -0.0971
  550MOL0     H75895   2.014  10.129   4.905  0.2782 -2.0268 -1.6370
  550MOL0     H75896   2.068  10.453   4.598 -1.3944  2.6071  0.8544
  550MOL0     H75897   2.108   9.651   5.066 -1.0292  0.5966  2.8578
  550MOL0     H75898   1.896   9.575   5.271 -1.3133 -2.5149  1.4563
  550MOL0     H75899   1.824   9.445   5.170 -0.0256  0.9704  0.5892
  550MOL0     H75900   1.994   9.465   5.169  0.3055 -0.9067 -1.3959
  551MOL0     O75901   2.717   6.686   3.786  0.0725  0.2944 -0.2832
  551MOL0     C75902   2.740   6.671   3.903 -0.4937  0.0195 -0.2356
  551MOL0     O75903   2.639   6.667   4.005  0.4380 -0.2285  0.2350
  551MOL0     C75904   2.509   6.673   3.964  0.1739  0.6466  0.1770
  551MOL0     C75905   2.422   6.761   4.019  0.2304 -0.2043 -0.1071
  551MOL0     C75906   2.291   6.777   3.973  0.3144  0.5919  0.5013
  551MOL0     C75907   2.246   6.705   3.867 -0.1151 -0.1166  0.1125
  551MOL0     O75908   2.111   6.707   3.838  0.0831  0.0998  0.6183
  551MOL0     C75909   2.081   6.711   3.699 -0.0499  0.2498 -0.1868
  551MOL0     C75910   1.939   6.769   3.672 -0.3554  0.4338  0.0681
  551MOL0     C75911   1.840   6.686   3.752 -0.7209  0.1441  0.0993
  551MOL0     C75912   1.702   6.710   3.700 -0.9420 -0.2295 -0.1963
  551MOL0     C75913   1.677   6.625   3.578 -0.1226  0.2659 -0.1689
  551MOL0     C75914   1.539   6.625   3.511  0.0811  0.2264  0.4480
  551MOL0     C75915   1.529   6.755   3.420 -0.2679  0.4558 -0.2136
  551MOL0     C75916   1.404   6.763   3.336  0.8709  0.0245 -0.7092
  551MOL0     N75917   1.283   6.774   3.419 -1.0387  0.7449  0.6824
  551MOL0     C75918   1.160   6.783   3.360  0.3915  0.3235 -0.8062
  551MOL0     C75919   1.069   6.782   3.461 -0.8209 -0.6061 -0.6476
  551MOL0     C75920   0.917   6.778   3.446 -0.5514  0.2089  0.1191
  551MOL0     C75921   0.845   6.639   3.471 -0.0877 -0.0156 -0.6570
  551MOL0     C75922   0.694   6.638   3.464 -0.0101  0.3072  0.4324
  551MOL0     C75923   0.632   6.502   3.488  0.3067 -0.8351  0.3844
  551MOL0     O75924   0.617   6.421   3.376  0.2014  0.3022  0.2435
  551MOL0     C75925   0.493   6.366   3.362  0.4334 -0.8682  0.5056
  551MOL0     C75926   0.420   6.359   3.243 -0.1671  0.6319 -0.1248
  551MOL0     C75927   0.289   6.306   3.233  0.2598  1.2987  0.8064
  551MOL0     C75928   0.234   6.290   3.092  1.3577  0.4265  1.0141
  551MOL0     C75929   0.218   6.254   3.346 -0.1754 -0.8298 -0.5103
  551MOL0     C75930   0.084   6.188   3.344  0.1861  0.2030 -0.7248
  551MOL0     O75931   0.020   6.161   3.225  0.5334  0.1522 -0.4300
  551MOL0     C75932  -0.104   6.096   3.242 -0.1032  0.3270 -0.1255
  551MOL0     C75933  -0.209   6.132   3.336  0.2557  1.5332  0.6869
  551MOL0     C75934  -0.330   6.059   3.346 -1.0028 -0.3335  0.3037
  551MOL0     C75935  -0.349   5.946   3.264 -0.0917  0.5865 -0.1672
  551MOL0     O75936  -0.472   5.883   3.259 -0.6017 -0.2205 -0.2124
  551MOL0     C75937  -0.496   5.795   3.144  0.2358 -0.6298 -0.6798
  551MOL0     C75938  -0.628   5.732   3.160 -0.9820  0.6073  0.6371
  551MOL0     C75939  -0.739   5.823   3.134 -0.0535 -0.4352 -0.0891
  551MOL0     C75940  -0.804   5.868   3.266 -1.1372 -0.4074 -0.2457
  551MOL0     C75941  -0.866   6.002   3.235  0.5115 -0.1458  0.6940
  551MOL0     C75942  -0.889   6.083   3.362  0.3541  0.1303  0.8152
  551MOL0     C75943  -0.759   6.121   3.428 -0.8858  0.0037  0.3042
  551MOL0     C75944  -0.696   6.255   3.384 -0.1943 -0.8879  0.0823
  551MOL0    Cl75945  -0.561   6.302   3.482  0.0157  0.2856 -0.0758
  551MOL0     C75946  -0.246   5.907   3.170 -0.6086 -0.1500 -0.2768
  551MOL0     C75947  -0.122   5.975   3.172 -0.2092 -0.7198  0.8038
  551MOL0     O75948   0.052   6.144   3.453 -0.0361  0.3560 -0.2267
  551MOL0     C75949   0.294   6.257   3.463 -0.2704 -0.1107  0.8205
  551MOL0     C75950   0.421   6.319   3.468 -0.2999  0.3568  0.0413
  551MOL0     N75951   1.142   6.797   3.581 -0.3356 -0.4080  0.3367
  551MOL0     N75952   1.268   6.798   3.552  0.3637  0.3354  0.0806
  551MOL0     C75953   2.333   6.607   3.811 -0.0663 -0.1830 -0.4837
  551MOL0     C75954   2.461   6.585   3.863  0.5043  0.7821  0.1385
  551MOL0     C75955   2.876   6.665   3.962  0.6823 -0.4201 -0.0204
  551MOL0     C75956   2.887   6.660   4.101  0.5427  0.0810  0.1885
  551MOL0     C75957   3.011   6.686   4.166  0.4215 -0.3642 -0.7147
  551MOL0     C75958   3.126   6.695   4.085 -0.0983 -1.7404 -0.3740
  551MOL0     O75959   3.239   6.733   4.141  0.0206 -0.5501 -0.3925
  551MOL0     C75960   3.329   6.624   4.181  0.1108 -0.5442  0.5355
  551MOL0     C75961   3.423   6.681   4.281 -0.7195 -0.0741 -0.0633
  551MOL0     C75962   3.531   6.580   4.324 -0.4786  0.3293 -0.1414
  551MOL0     C75963   3.661   6.627   4.255 -0.4428 -0.5052 -0.4377
  551MOL0     C75964   3.779   6.541   4.290 -0.3992 -0.4537  0.5654
  551MOL0     C75965   3.865   6.461   4.325  0.7672  0.3666  0.1815
  551MOL0     C75966   3.114   6.695   3.948 -0.2756 -0.3636 -0.3311
  551MOL0     C75967   2.995   6.671   3.885  0.5274  0.2653 -0.9382
  551MOL0     C75968   3.003   6.646   3.739 -0.9464 -0.4919 -0.0628
  551MOL0     H75969   2.460   6.823   4.099 -0.4037 -0.1819  0.1843
  551MOL0     H75970   2.225   6.850   4.019  0.3544  2.2708 -1.9379
  551MOL0     H75971   2.098   6.618   3.644  2.4010  0.9668 -0.7727
  551MOL0     H75972   2.151   6.784   3.656 -0.9122  2.5513  2.0713
  551MOL0     H75973   1.932   6.874   3.703  0.4078 -0.0118  1.8823
  551MOL0     H75974   1.921   6.763   3.565 -1.0823 -4.0228  0.2515
  551MOL0     H75975   1.869   6.581   3.746  1.0992  0.3542  2.9435
  551MOL0     H75976   1.842   6.712   3.859 -2.2570  0.7765  0.0053
  551MOL0     H75977   1.635   6.689   3.784  2.2106  1.4875  3.0066
  551MOL0     H75978   1.703   6.817   3.676  1.9392 -0.6640 -2.5880
  551MOL0     H75979   1.694   6.525   3.620 -0.1276  0.8611  1.3142
  551MOL0     H75980   1.756   6.644   3.504 -0.0281 -2.5049 -0.8974
  551MOL0     H75981   1.538   6.537   3.446 -0.1248  1.0461 -0.6772
  551MOL0     H75982   1.467   6.619   3.593 -0.4501 -2.5420 -0.1228
  551MOL0     H75983   1.624   6.761   3.366 -0.4559 -0.5810 -0.6843
  551MOL0     H75984   1.528   6.847   3.479  1.5057  1.0559 -1.0606
  551MOL0     H75985   1.417   6.836   3.255  1.3620  1.1365  0.3489
  551MOL0     H75986   1.390   6.666   3.287  0.4150 -0.2207 -0.0990
  551MOL0     H75987   1.142   6.776   3.253  1.0242 -0.1413 -0.8871
  551MOL0     H75988   0.885   6.812   3.347 -0.8735  0.3814  0.2817
  551MOL0     H75989   0.875   6.856   3.510 -0.3842  0.6794 -0.3365
  551MOL0     H75990   0.891   6.562   3.408  0.8717 -2.0801  2.3195
  551MOL0     H75991   0.867   6.598   3.570  0.3462  2.0962  0.1707
  551MOL0     H75992   0.662   6.700   3.548  1.5536 -1.3349  2.3485
  551MOL0     H75993   0.662   6.678   3.368 -0.2987  2.9344  1.5291
  551MOL0     H75994   0.686   6.449   3.567  1.7171  0.7436  0.5387
  551MOL0     H75995   0.530   6.523   3.523 -0.7073 -0.5800 -2.4518
  551MOL0     H75996   0.477   6.379   3.153 -1.5286 -0.5085 -1.2900
  551MOL0     H75997   0.261   6.198   3.040  0.4468  0.9589 -0.4861
  551MOL0     H75998   0.274   6.370   3.028  0.1580  0.0793 -0.2180
  551MOL0     H75999   0.125   6.302   3.094  1.5194  2.7314  0.1092
  551MOL0     H76000  -0.186   6.210   3.408  0.6307  1.4037  0.7124
  551MOL0     H76001  -0.408   6.081   3.417 -1.4188 -2.9186  0.7654
  551MOL0     H76002  -0.485   5.847   3.048 -1.2298 -1.0027 -1.0714
  551MOL0     H76003  -0.422   5.714   3.147 -1.1802 -2.0015 -1.2170
  551MOL0     H76004  -0.635   5.651   3.086 -1.0879  1.8444 -0.7317
  551MOL0     H76005  -0.641   5.698   3.263 -2.5706  1.3691  0.7078
  551MOL0     H76006  -0.810   5.765   3.074  0.4167 -1.2312  0.1141
  551MOL0     H76007  -0.713   5.908   3.070 -1.9254 -0.9473 -1.6089
  551MOL0     H76008  -0.719   5.870   3.336 -0.2552  3.5460 -1.1667
  551MOL0     H76009  -0.877   5.794   3.301  0.2160 -1.9163 -0.4781
  551MOL0     H76010  -0.803   6.066   3.172 -0.6271 -0.0576 -0.3754
  551MOL0     H76011  -0.953   5.988   3.171  2.3072  1.6077 -2.3457
  551MOL0     H76012  -0.946   6.034   3.442  1.3434 -0.0821  1.4120
  551MOL0     H76013  -0.940   6.175   3.331  0.5705 -0.0676 -0.1350
  551MOL0     H76014  -0.680   6.047   3.416  1.2540  2.1451  0.5089
  551MOL0     H76015  -0.786   6.130   3.534 -3.0890 -3.0052  0.1162
  551MOL0     H76016  -0.778   6.327   3.392 -0.0277 -0.9116  3.0869
  551MOL0     H76017  -0.664   6.261   3.279  1.3685  1.2330  0.6036
  551MOL0     H76018  -0.261   5.832   3.093 -0.1863 -1.8177  1.1968
  551MOL0     H76019  -0.047   5.939   3.102  1.7752  0.9208  1.9430
  551MOL0     H76020   0.250   6.226   3.557  0.6848 -1.0453  0.9840
  551MOL0     H76021   0.465   6.324   3.567  1.6076  0.0523 -0.7371
  551MOL0     H76022   2.294   6.551   3.727  1.8174 -1.8282 -0.3391
  551MOL0     H76023   2.531   6.518   3.814  0.3523  0.2196  0.6637
  551MOL0     H76024   2.807   6.659   4.175  2.4468  0.7416  2.3891
  551MOL0     H76025   3.029   6.673   4.272  0.6085 -1.9070 -0.9127
  551MOL0     H76026   3.270   6.541   4.221 -1.0301 -0.0318 -0.0382
  551MOL0     H76027   3.392   6.585   4.101  1.6580  0.5914  1.1686
  551MOL0     H76028   3.379   6.722   4.373  0.3201 -1.0931  0.9295
  551MOL0     H76029   3.471   6.768   4.235  2.2152 -2.3808 -1.6471
  551MOL0     H76030   3.540   6.580   4.433  1.2412  0.0733 -0.2569
  551MOL0     H76031   3.506   6.480   4.286 -1.4583 -0.0468  1.4140
  551MOL0     H76032   3.688   6.732   4.271  1.7574 -1.4019  2.5958
  551MOL0     H76033   3.647   6.634   4.147 -4.1029  2.6513 -0.0165
  551MOL0     H76034   3.931   6.380   4.348  0.6987 -0.6235 -2.6675
  551MOL0     H76035   3.209   6.701   3.896  0.5439 -1.5159  0.9750
  551MOL0     H76036   2.958   6.723   3.676 -0.9466 -1.4383 -1.2559
  551MOL0     H76037   3.105   6.636   3.698 -0.5697 -2.9288  1.2331
  551MOL0     H76038   2.957   6.548   3.722 -2.4865  0.2010 -0.0037
  552MOL0     O76039   5.533   4.161   5.972 -0.1270 -0.2970  0.2435
  552MOL0     C76040   5.521   4.150   5.847  0.4966 -0.0178 -0.4794
  552MOL0     O76041   5.589   4.061   5.772 -0.6593  0.1241  0.0845
  552MOL0     C76042   5.700   4.009   5.830  0.0957 -0.4683  0.1382
  552MOL0     C76043   5.706   3.873   5.826  0.5775  0.7928 -0.8362
  552MOL0     C76044   5.816   3.802   5.874  0.1319  0.0950  0.4518
  552MOL0     C76045   5.931   3.871   5.918 -0.0486  0.7577 -0.2387
  552MOL0     O76046   6.030   3.818   5.993 -0.1042  0.2211 -0.2841
  552MOL0     C76047   6.014   3.673   6.030 -0.6184 -0.2445 -0.2990
  552MOL0     C76048   6.134   3.625   6.124 -0.3007 -0.3246 -0.4229
  552MOL0     C76049   6.272   3.678   6.094  0.8237 -0.1287 -0.0500
  552MOL0     C76050   6.327   3.632   5.963 -0.9205 -0.0223 -0.1877
  552MOL0     C76051   6.471   3.675   5.931 -0.3455  0.0488  0.2956
  552MOL0     C76052   6.498   3.828   5.940  0.2502  0.1304  0.2432
  552MOL0     C76053   6.438   3.902   5.825 -0.4053  1.0106  0.2817
  552MOL0     C76054   6.299   3.951   5.861 -0.7957 -0.8873  0.8417
  552MOL0     N76055   6.261   4.050   5.766 -0.1362 -0.0388  0.2589
  552MOL0     C76056   6.149   4.031   5.686  0.3379 -0.0943  0.0781
  552MOL0     C76057   6.136   4.147   5.616 -0.1235  0.9241 -0.1781
  552MOL0     C76058   6.023   4.180   5.520  0.4046  0.0161  1.4943
  552MOL0     C76059   5.999   4.330   5.510 -0.6892 -0.4831  0.9085
  552MOL0     C76060   5.901   4.376   5.397 -0.2543 -0.2830 -0.3518
  552MOL0     C76061   5.770   4.318   5.398 -0.0090 -0.7217 -0.3037
  552MOL0     O76062   5.709   4.343   5.522 -0.1720 -0.0877  0.1181
  552MOL0     C76063   5.615   4.441   5.538 -0.4178  0.3298  0.5348
  552MOL0     C76064   5.545   4.511   5.441 -0.4347 -0.1075  0.1936
  552MOL0     C76065   5.449   4.601   5.477 -0.1062 -1.2521 -0.0808
  552MOL0     C76066   5.374   4.681   5.377 -0.5971 -0.2684 -0.1877
  552MOL0     C76067   5.435   4.638   5.615  0.4480  0.5179  0.0369
  552MOL0     C76068   5.342   4.739   5.667 -0.5733 -0.2542 -0.5468
  552MOL0     O76069   5.294   4.837   5.593  0.0113 -0.4363  0.4487
  552MOL0     C76070   5.222   4.936   5.653 -0.0407 -0.2578 -0.0305
  552MOL0     C76071   5.089   4.954   5.620  0.6196 -0.8770 -0.0714
  552MOL0     C76072   5.016   5.070   5.658 -0.1299  0.3846  0.2481
  552MOL0     C76073   5.070   5.163   5.750  0.7404  0.0867  0.6443
  552MOL0     O76074   4.988   5.270   5.785 -0.4458 -0.1931  0.0887
  552MOL0     C76075   4.990   5.310   5.923 -0.7950 -0.0754 -0.4273
  552MOL0     C76076   4.883   5.423   5.945 -0.1881 -0.0251  0.0364
  552MOL0     C76077   4.743   5.403   5.888  0.5345 -0.5581 -0.4266
  552MOL0     C76078   4.654   5.526   5.905 -0.7494 -1.5990  0.6776
  552MOL0     C76079   4.513   5.491   5.864  1.2664 -0.2617 -0.1546
  552MOL0     C76080   4.428   5.612   5.815 -0.0536 -0.5077 -0.6841
  552MOL0     C76081   4.279   5.597   5.840  0.0202 -0.6753 -0.6798
  552MOL0     C76082   4.195   5.694   5.753  0.3290  1.1152 -0.2735
  552MOL0    Cl76083   4.227   5.667   5.581  0.2823  0.0517 -0.1135
  552MOL0     C76084   5.200   5.140   5.794 -0.1455 -0.3067  0.6022
  552MOL0     C76085   5.275   5.028   5.747  0.0804 -0.2043 -0.3604
  552MOL0     O76086   5.330   4.732   5.789 -0.0364  0.0416  0.4367
  552MOL0     C76087   5.513   4.575   5.710 -0.1725  0.2823  0.2080
  552MOL0     C76088   5.601   4.472   5.671 -0.4733 -0.8251  0.4186
  552MOL0     N76089   6.245   4.228   5.645 -0.1783 -0.4240  0.2664
  552MOL0     N76090   6.318   4.165   5.732 -0.3563  0.5235 -0.2661
  552MOL0     C76091   5.925   4.013   5.919  0.0214  0.4873  0.1408
  552MOL0     C76092   5.813   4.079   5.875 -0.1853  0.6255 -0.5073
  552MOL0     C76093   5.412   4.217   5.783  0.9845 -0.0668 -0.5689
  552MOL0     C76094   5.321   4.280   5.867  0.6365 -0.6135  0.9443
  552MOL0     C76095   5.211   4.343   5.818 -0.4821 -0.7391  0.0401
  552MOL0     C76096   5.185   4.352   5.678  0.0008  0.5260  0.1617
  552MOL0     O76097   5.090   4.423   5.621  0.0496 -0.1794 -0.2093
  552MOL0     C76098   5.009   4.505   5.703 -0.6978 -0.5790  0.2208
  552MOL0     C76099   4.925   4.585   5.586  0.8587  1.0275  0.3072
  552MOL0     C76100   4.806   4.501   5.533 -0.3443  0.3307  0.1198
  552MOL0     C76101   4.840   4.371   5.452  0.1854 -0.8266  0.1658
  552MOL0     C76102   4.716   4.305   5.414 -0.3101 -0.2973 -1.0328
  552MOL0     C76103   4.614   4.240   5.411  0.3591  0.6257 -0.6239
  552MOL0     C76104   5.270   4.283   5.591 -0.5648 -0.8339 -0.2486
  552MOL0     C76105   5.383   4.212   5.641  0.3181  0.4121  0.3256
  552MOL0     C76106   5.455   4.135   5.544 -0.6248 -0.8271  0.7846
  552MOL0     H76107   5.624   3.812   5.789  1.1562 -0.0822 -0.6909
  552MOL0     H76108   5.806   3.695   5.885 -0.8283  0.1470  0.1641
  552MOL0     H76109   6.018   3.612   5.939  0.8231  1.4627 -1.4549
  552MOL0     H76110   5.921   3.662   6.086  0.6962  3.0405  2.9580
  552MOL0     H76111   6.111   3.656   6.226 -1.7244 -2.0391 -0.1669
  552MOL0     H76112   6.141   3.516   6.126  1.6632 -0.2490 -1.3229
  552MOL0     H76113   6.260   3.786   6.091  0.2770 -0.1913 -0.2325
  552MOL0     H76114   6.339   3.663   6.180  0.0329  1.5487  0.9068
  552MOL0     H76115   6.315   3.523   5.963 -3.3684  0.2006 -1.0616
  552MOL0     H76116   6.258   3.667   5.886  1.0787  0.4130 -1.8670
  552MOL0     H76117   6.496   3.638   5.831 -3.7098  1.7197 -1.3213
  552MOL0     H76118   6.533   3.622   6.004  1.7792  2.3372  0.2993
  552MOL0     H76119   6.461   3.872   6.033  0.2471 -3.6242  2.2194
  552MOL0     H76120   6.606   3.844   5.941  0.5851 -1.8872 -0.1394
  552MOL0     H76121   6.424   3.835   5.739 -1.5149 -0.2164  1.3628
  552MOL0     H76122   6.505   3.985   5.802  0.3969  0.5269  0.8149
  552MOL0     H76123   6.221   3.874   5.859 -0.5685 -1.1374  1.6587
  552MOL0     H76124   6.308   3.995   5.960 -1.4794  0.1275  0.4703
  552MOL0     H76125   6.079   3.949   5.694  1.2779 -0.8588  0.6906
  552MOL0     H76126   5.931   4.125   5.543 -0.1644 -0.3066 -1.2325
  552MOL0     H76127   6.048   4.136   5.423  2.8256 -2.0739  2.9294
  552MOL0     H76128   5.969   4.353   5.613  1.4355 -1.1622  1.7395
  552MOL0     H76129   6.097   4.375   5.492 -0.4075 -0.2388  2.8775
  552MOL0     H76130   5.895   4.485   5.411 -1.2669  0.1752 -3.5448
  552MOL0     H76131   5.927   4.366   5.291 -0.8468  1.1336 -0.6683
  552MOL0     H76132   5.714   4.354   5.311 -1.8263 -2.9578 -0.1642
  552MOL0     H76133   5.793   4.213   5.377  4.7572  0.3223 -1.5370
  552MOL0     H76134   5.573   4.490   5.338 -2.1551  1.5369 -0.6753
  552MOL0     H76135   5.266   4.694   5.388 -0.2474  0.8630  3.0925
  552MOL0     H76136   5.394   4.634   5.280  2.2727 -2.0139  1.1404
  552MOL0     H76137   5.421   4.779   5.365  0.2314 -0.6616 -0.1925
  552MOL0     H76138   5.050   4.889   5.543  0.4133  0.1187 -0.8389
  552MOL0     H76139   4.918   5.089   5.615 -1.4977 -0.5624  2.7025
  552MOL0     H76140   4.964   5.236   5.999 -0.7350 -1.4803 -1.7261
  552MOL0     H76141   5.090   5.349   5.943 -0.5153 -1.2860  0.6593
  552MOL0     H76142   4.874   5.442   6.053 -0.2942 -0.7417  0.1578
  552MOL0     H76143   4.913   5.519   5.901 -2.5635  1.6699  1.8624
  552MOL0     H76144   4.690   5.312   5.920 -1.4006  0.4661 -0.5780
  552MOL0     H76145   4.764   5.386   5.781 -1.1822  0.3769 -0.9474
  552MOL0     H76146   4.701   5.605   5.846  1.4855 -3.1742  0.2202
  552MOL0     H76147   4.659   5.567   6.006  0.9767  1.7564 -0.6343
  552MOL0     H76148   4.517   5.418   5.782  0.6384 -1.8817  1.1880
  552MOL0     H76149   4.472   5.441   5.952  0.0759  1.9217  0.5772
  552MOL0     H76150   4.446   5.622   5.707 -0.6284 -1.1724 -0.8446
  552MOL0     H76151   4.464   5.708   5.852  3.8624 -2.5107  1.3766
  552MOL0     H76152   4.256   5.641   5.938 -0.1093  1.4319 -1.6039
  552MOL0     H76153   4.251   5.492   5.839  2.7907 -1.4949 -1.7532
  552MOL0     H76154   4.240   5.793   5.769  1.4059  0.3127  2.0949
  552MOL0     H76155   4.089   5.687   5.779  0.0901  0.9225 -1.2887
  552MOL0     H76156   5.235   5.215   5.864 -0.9263 -1.1440  1.9236
  552MOL0     H76157   5.375   5.011   5.785 -0.1516 -2.2940 -0.5635
  552MOL0     H76158   5.515   4.596   5.817  3.8948 -1.8280  0.7733
  552MOL0     H76159   5.643   4.404   5.745 -0.9278 -0.8844  0.6295
  552MOL0     H76160   6.010   4.065   5.962  3.0529 -2.5423 -1.7377
  552MOL0     H76161   5.817   4.188   5.874  2.3948  0.5935 -0.5653
  552MOL0     H76162   5.325   4.272   5.975  0.6211 -1.8204  0.8698
  552MOL0     H76163   5.148   4.395   5.890 -0.9614 -1.5406  0.2159
  552MOL0     H76164   4.945   4.465   5.782  0.8402 -1.3327  1.1247
  552MOL0     H76165   5.069   4.582   5.752  2.3730 -2.1531 -0.8550
  552MOL0     H76166   4.992   4.613   5.504  0.5719  3.3843  0.8217
  552MOL0     H76167   4.874   4.673   5.625  0.5071  1.6413 -1.4599
  552MOL0     H76168   4.746   4.465   5.617  1.4682 -0.0780  1.3008
  552MOL0     H76169   4.751   4.565   5.464  2.3626 -0.6601 -3.1941
  552MOL0     H76170   4.899   4.307   5.519  2.4060 -1.3940 -2.1525
  552MOL0     H76171   4.908   4.405   5.373  0.3521 -0.8686  0.2891
  552MOL0     H76172   4.518   4.196   5.427  0.7774  0.3574  1.3916
  552MOL0     H76173   5.251   4.304   5.487  1.7776  2.2938 -0.1613
  552MOL0     H76174   5.417   4.141   5.441 -2.4450 -1.0485  1.4230
  552MOL0     H76175   5.558   4.171   5.554 -1.1785  1.6400 -1.3568
  552MOL0     H76176   5.467   4.028   5.566 -1.0209 -0.7631  1.3004
  553MOL0     O76177   9.172   0.038   2.922  0.1528 -0.0184  0.3764
  553MOL0     C76178   9.136  -0.072   2.963  0.3771 -0.2467 -0.8185
  553MOL0     O76179   9.002  -0.109   2.955 -0.4505  0.2938  0.3325
  553MOL0     C76180   8.898  -0.020   2.947  0.8911 -0.4761  0.3256
  553MOL0     C76181   8.901   0.122   2.957  0.4103  0.2703  0.5034
  553MOL0     C76182   8.783   0.198   2.942 -0.5199 -0.2466  0.1682
  553MOL0     C76183   8.660   0.141   2.915  0.3226 -0.0881  0.3413
  553MOL0     O76184   8.550   0.219   2.890 -0.0735  0.6960 -0.1783
  553MOL0     C76185   8.481   0.195   2.769 -0.0407  0.0309 -0.0589
  553MOL0     C76186   8.379   0.305   2.744  0.0337  1.1454 -0.1262
  553MOL0     C76187   8.463   0.440   2.714  0.3957  0.4362 -0.1084
  553MOL0     C76188   8.375   0.560   2.685 -0.0118  0.1679 -0.7865
  553MOL0     C76189   8.452   0.695   2.713 -0.1712  0.7144 -0.6929
  553MOL0     C76190   8.564   0.718   2.607 -0.9812 -0.7452 -0.8069
  553MOL0     C76191   8.628   0.858   2.635  0.1522 -0.0397  0.6714
  553MOL0     C76192   8.716   0.853   2.762 -0.1606 -0.2141  0.7133
  553MOL0     N76193   8.844   0.919   2.734  0.5626 -0.2064 -0.4135
  553MOL0     C76194   8.861   1.046   2.690  0.0264 -0.9784 -0.5728
  553MOL0     C76195   8.992   1.071   2.689 -0.5933 -0.2356 -0.8279
  553MOL0     C76196   9.061   1.196   2.645  0.6378 -0.4073  0.5021
  553MOL0     C76197   9.167   1.154   2.540  0.6528  0.0632 -0.1990
  553MOL0     C76198   9.248   1.288   2.498  0.2365 -0.5572  0.1325
  553MOL0     C76199   9.351   1.243   2.390 -0.4228  0.1974  0.0305
  553MOL0     O76200   9.428   1.136   2.449 -0.4587  0.1242  0.4861
  553MOL0     C76201   9.560   1.119   2.418  0.9048 -0.1821 -0.1912
  553MOL0     C76202   9.611   1.014   2.495  0.0716 -0.3113 -0.1603
  553MOL0     C76203   9.747   0.975   2.495 -0.9184 -0.5024  0.9101
  553MOL0     C76204   9.808   0.866   2.574 -1.5710  0.8630 -0.0166
  553MOL0     C76205   9.832   1.071   2.423 -0.1450  0.4701  0.5648
  553MOL0     C76206   9.979   1.059   2.402  0.1992  0.6316 -0.1885
  553MOL0     O76207  10.041   0.937   2.416  0.0882 -0.4166  0.1656
  553MOL0     C76208  10.170   0.903   2.398 -1.3808  0.8156 -0.5995
  553MOL0     C76209  10.279   0.979   2.353 -0.5934  0.7660 -0.7796
  553MOL0     C76210  10.405   0.922   2.332 -0.4607 -0.0518 -0.1490
  553MOL0     C76211  10.429   0.790   2.352 -0.3057  0.1524 -0.3463
  553MOL0     O76212  10.559   0.733   2.339  0.0009 -0.2850  0.3319
  553MOL0     C76213  10.591   0.615   2.407  0.3914 -0.1512  0.2071
  553MOL0     C76214  10.734   0.620   2.461  0.0853  0.3398  0.1901
  553MOL0     C76215  10.834   0.662   2.354 -0.5467 -0.2695 -0.3265
  553MOL0     C76216  10.973   0.641   2.411 -0.1048  0.3458  0.1437
  553MOL0     C76217  11.082   0.687   2.313  0.1980  1.0086 -0.0880
  553MOL0     C76218  11.217   0.650   2.382 -0.3066  0.0809  0.5030
  553MOL0     C76219  11.338   0.678   2.298 -0.4036 -0.4269  0.4398
  553MOL0     C76220  11.467   0.631   2.356 -0.5957  1.2486  0.5549
  553MOL0    Cl76221  11.604   0.658   2.245 -0.2300 -0.4023 -0.2357
  553MOL0     C76222  10.320   0.716   2.391  0.3127  0.1774  0.5227
  553MOL0     C76223  10.194   0.768   2.416 -0.8398 -0.5939  0.6077
  553MOL0     O76224  10.041   1.165   2.385  0.4298  0.5759 -0.1101
  553MOL0     C76225   9.773   1.171   2.351 -0.5661 -0.9256  0.1183
  553MOL0     C76226   9.639   1.203   2.349  0.1301  0.5664  0.9460
  553MOL0     N76227   9.058   0.953   2.735 -0.4652 -0.4323 -0.2153
  553MOL0     N76228   8.968   0.863   2.754  0.5944  0.0822 -0.2028
  553MOL0     C76229   8.656  -0.002   2.905  0.0391  0.3876 -1.2143
  553MOL0     C76230   8.769  -0.079   2.931 -0.4695 -0.1899  0.2590
  553MOL0     C76231   9.228  -0.163   3.031  0.6734 -0.5561  1.3848
  553MOL0     C76232   9.298  -0.121   3.151  0.4662 -0.4527 -0.1486
  553MOL0     C76233   9.388  -0.207   3.229 -0.1506  0.9849  0.1051
  553MOL0     C76234   9.412  -0.335   3.179  0.9847  0.0851 -0.4509
  553MOL0     O76235   9.476  -0.417   3.270 -0.7604 -0.2060  0.2007
  553MOL0     C76236   9.568  -0.517   3.207 -0.0393  0.3507  0.5216
  553MOL0     C76237   9.603  -0.627   3.305  0.8370  0.0732 -0.1884
  553MOL0     C76238   9.483  -0.697   3.379 -0.6807 -0.6359 -0.2364
  553MOL0     C76239   9.536  -0.800   3.490 -0.7310  0.1571 -0.7207
  553MOL0     C76240   9.438  -0.902   3.525  0.5414 -0.9431  0.6351
  553MOL0     C76241   9.345  -0.974   3.544 -0.3244 -0.4357 -0.1967
  553MOL0     C76242   9.327  -0.385   3.076 -0.8656 -0.8458 -0.4768
  553MOL0     C76243   9.247  -0.298   2.999  0.9928  0.3831  0.2489
  553MOL0     C76244   9.186  -0.367   2.880 -0.6236  0.4749  0.2395
  553MOL0     H76245   8.992   0.179   2.969 -1.1654  2.8049  1.3450
  553MOL0     H76246   8.780   0.307   2.937  1.9891 -0.1255 -0.2265
  553MOL0     H76247   8.435   0.096   2.766 -0.0580 -0.0243  1.3859
  553MOL0     H76248   8.558   0.205   2.692  0.3029  1.2265  0.4074
  553MOL0     H76249   8.317   0.274   2.660  1.3627  0.3029 -0.8296
  553MOL0     H76250   8.321   0.313   2.836  1.1176 -0.7584  0.7828
  553MOL0     H76251   8.523   0.470   2.800 -0.3430 -1.2844  1.0815
  553MOL0     H76252   8.528   0.424   2.628 -0.8086 -1.1081 -0.7814
  553MOL0     H76253   8.348   0.565   2.580 -1.8015  1.9176 -0.2879
  553MOL0     H76254   8.288   0.553   2.751 -1.2370 -1.9504 -2.5075
  553MOL0     H76255   8.499   0.701   2.812  0.5846 -0.7003 -0.9313
  553MOL0     H76256   8.384   0.780   2.715 -1.0327  0.0348  0.0414
  553MOL0     H76257   8.649   0.650   2.592  0.1709  0.4340  0.1466
  553MOL0     H76258   8.515   0.726   2.509 -1.9452 -1.1749 -0.3681
  553MOL0     H76259   8.546   0.930   2.652  0.9774  0.7383  1.4764
  553MOL0     H76260   8.688   0.886   2.548  1.6298 -0.8027  1.4170
  553MOL0     H76261   8.660   0.891   2.848 -1.9248 -0.9304 -0.0485
  553MOL0     H76262   8.725   0.745   2.780 -0.6038 -0.3338  0.2635
  553MOL0     H76263   8.788   1.118   2.657  0.4047 -0.8895 -1.2422
  553MOL0     H76264   9.084   1.239   2.743 -0.9926 -2.7543  2.0231
  553MOL0     H76265   9.001   1.262   2.583  0.6419 -2.8423 -2.3104
  553MOL0     H76266   9.235   1.073   2.569  1.5713  0.0445 -2.2243
  553MOL0     H76267   9.102   1.123   2.458  0.7915 -0.4566 -0.1178
  553MOL0     H76268   9.175   1.356   2.452  1.8558  0.7764 -0.5857
  553MOL0     H76269   9.292   1.344   2.581 -1.6167  0.5110  0.4578
  553MOL0     H76270   9.302   1.215   2.297 -0.0641  0.2643 -0.1798
  553MOL0     H76271   9.417   1.327   2.366 -0.4118 -0.3260 -1.9605
  553MOL0     H76272   9.534   0.965   2.554 -0.9954  0.2884 -1.0213
  553MOL0     H76273   9.906   0.893   2.615  0.0341 -0.1253 -2.9187
  553MOL0     H76274   9.819   0.787   2.500  0.5246  2.7200 -1.8619
  553MOL0     H76275   9.749   0.848   2.665 -1.3670 -0.6901 -0.1652
  553MOL0     H76276  10.266   1.086   2.338 -2.4794  0.9549  1.6077
  553MOL0     H76277  10.491   0.977   2.295  2.5127 -1.6085  3.7778
  553MOL0     H76278  10.529   0.606   2.496 -0.8692 -0.8095 -0.7132
  553MOL0     H76279  10.569   0.518   2.363 -1.5992  0.9215 -1.3227
  553MOL0     H76280  10.752   0.700   2.534  1.3055  0.8165 -0.6043
  553MOL0     H76281  10.754   0.522   2.504 -2.7420 -0.1113  0.6910
  553MOL0     H76282  10.831   0.770   2.333  0.8568  0.1852  1.5876
  553MOL0     H76283  10.828   0.599   2.265  1.3596 -3.7841  1.7891
  553MOL0     H76284  10.988   0.535   2.433 -0.7448  0.3735  0.7500
  553MOL0     H76285  10.973   0.690   2.509 -2.1576 -1.6213  1.2018
  553MOL0     H76286  11.067   0.620   2.228 -3.0288 -0.5802  1.5245
  553MOL0     H76287  11.073   0.793   2.291  0.9910  1.3544  1.1335
  553MOL0     H76288  11.214   0.544   2.409 -2.6322 -1.1195 -3.6097
  553MOL0     H76289  11.225   0.707   2.475  1.3146 -0.5563  0.7941
  553MOL0     H76290  11.355   0.785   2.283  0.8599 -0.8727 -1.7894
  553MOL0     H76291  11.323   0.629   2.201  1.3122  0.3801 -0.2683
  553MOL0     H76292  11.455   0.532   2.400 -1.6460  1.0484 -0.1342
  553MOL0     H76293  11.486   0.692   2.444  2.8437  1.1496  0.0229
  553MOL0     H76294  10.336   0.611   2.411  1.6613  0.2871  0.0878
  553MOL0     H76295  10.114   0.699   2.443 -0.8488 -0.6096  0.5419
  553MOL0     H76296   9.833   1.237   2.289 -0.2810  0.8356  2.1504
  553MOL0     H76297   9.606   1.294   2.300  0.1786 -0.1397 -0.4571
  553MOL0     H76298   8.572  -0.068   2.888  1.6827 -2.0049 -0.6844
  553MOL0     H76299   8.766  -0.187   2.921  0.6019 -0.5103  2.6990
  553MOL0     H76300   9.263  -0.023   3.182  1.9164 -0.4669  1.7002
  553MOL0     H76301   9.436  -0.176   3.321 -3.3270  2.6321  1.3645
  553MOL0     H76302   9.531  -0.569   3.118  0.9526  0.9054 -0.2336
  553MOL0     H76303   9.658  -0.463   3.176  0.1697 -0.5192 -0.4439
  553MOL0     H76304   9.661  -0.584   3.386  0.1689 -0.0214  0.3489
  553MOL0     H76305   9.657  -0.708   3.254 -0.6679 -1.0730 -0.0277
  553MOL0     H76306   9.418  -0.617   3.416 -0.6625 -1.5966  1.9930
  553MOL0     H76307   9.429  -0.739   3.294  1.5924 -0.5179 -1.8315
  553MOL0     H76308   9.563  -0.740   3.577  0.6803  0.0007 -1.0353
  553MOL0     H76309   9.623  -0.855   3.453 -0.4162 -0.7156  1.1786
  553MOL0     H76310   9.259  -1.033   3.567 -0.3328  0.0296  1.0479
  553MOL0     H76311   9.331  -0.489   3.048 -0.2178 -0.4221 -2.0984
  553MOL0     H76312   9.262  -0.387   2.804 -3.1273 -0.3395 -2.2400
  553MOL0     H76313   9.145  -0.466   2.900  0.3862  0.2253  1.1340
  553MOL0     H76314   9.115  -0.303   2.826 -0.0048 -0.1765 -1.4267
  554MOL0     O76315  10.601   9.949  10.521  0.1274  0.0615  0.1487
  554MOL0     C76316  10.488   9.994  10.494  0.1829 -0.1704  0.1533
  554MOL0     O76317  10.449  10.028  10.369  0.0635  0.2542  0.4769
  554MOL0     C76318  10.526  10.019  10.252  0.7716  0.2672 -0.4086
  554MOL0     C76319  10.664  10.016  10.251 -0.0842  0.2970  0.6936
  554MOL0     C76320  10.737  10.014  10.133  0.0681  0.1929  0.2202
  554MOL0     C76321  10.676  10.002  10.007 -0.2741  0.1540 -0.4532
  554MOL0     O76322  10.754   9.985   9.890  0.2864 -0.2641 -0.5097
  554MOL0     C76323  10.711   9.887   9.787 -0.5163  0.0430 -0.3664
  554MOL0     C76324  10.799   9.905   9.664  0.1183  0.6105  0.3906
  554MOL0     C76325  10.945   9.930   9.695 -0.0490  0.8602 -0.1907
  554MOL0     C76326  11.023   9.883   9.578 -1.0897  0.0239 -0.0581
  554MOL0     C76327  11.163   9.957   9.581  0.5461 -0.5659  0.1817
  554MOL0     C76328  11.249   9.903   9.696 -0.1751  0.4682  0.0923
  554MOL0     C76329  11.381   9.978   9.694  0.1418  0.0930 -0.5146
  554MOL0     C76330  11.482   9.921   9.798  0.1368 -0.7848 -0.2754
  554MOL0     N76331  11.616   9.943   9.759 -0.2467 -0.5613 -0.0671
  554MOL0     C76332  11.688   9.902   9.651 -0.0832 -0.3605 -0.0261
  554MOL0     C76333  11.812   9.949   9.661  0.0717  0.3688 -0.4541
  554MOL0     C76334  11.922   9.944   9.555 -0.6474 -0.0658 -0.4147
  554MOL0     C76335  12.030   9.856   9.607 -0.3219  0.0335  0.0527
  554MOL0     C76336  12.008   9.698   9.583  0.1076 -0.7772 -0.3490
  554MOL0     C76337  12.130   9.620   9.619 -0.7355  0.6435 -0.0369
  554MOL0     O76338  12.192   9.654   9.740 -0.0395 -0.3875 -0.0378
  554MOL0     C76339  12.319   9.603   9.756  0.2288  0.1387 -0.6444
  554MOL0     C76340  12.400   9.680   9.840  0.1205  0.0535  0.3589
  554MOL0     C76341  12.531   9.638   9.882  0.0320 -0.4133  0.2780
  554MOL0     C76342  12.617   9.738   9.959  0.4580 -0.0047 -0.0375
  554MOL0     C76343  12.583   9.520   9.822 -0.6437 -0.1901 -0.2368
  554MOL0     C76344  12.727   9.477   9.844  0.1193 -0.8244 -0.0521
  554MOL0     O76345  12.745   9.341   9.871 -0.1050 -0.0797  0.3656
  554MOL0     C76346  12.871   9.304   9.881  0.1837  0.2809 -0.1187
  554MOL0     C76347  12.961   9.313   9.771  0.6668  0.3650 -0.2411
  554MOL0     C76348  13.089   9.260   9.791 -0.1311  0.3359 -0.6451
  554MOL0     C76349  13.136   9.211   9.912  0.4836 -0.7360  0.2189
  554MOL0     O76350  13.264   9.163   9.936  0.2683 -0.3995 -0.4777
  554MOL0     C76351  13.355   9.135   9.818  0.6004 -0.2254  0.6445
  554MOL0     C76352  13.480   9.059   9.855  0.1143 -0.4525 -0.7264
  554MOL0     C76353  13.548   9.119   9.977  0.5942  0.2116 -0.3357
  554MOL0     C76354  13.655   9.032  10.025 -0.9542  0.3856 -0.5588
  554MOL0     C76355  13.737   9.088  10.139  0.3772 -0.3023 -0.0604
  554MOL0     C76356  13.669   9.053  10.272  0.6216 -1.0289 -0.8242
  554MOL0     C76357  13.769   9.095  10.385  1.1224 -0.4620 -0.4141
  554MOL0     C76358  13.722   9.079  10.529 -0.1959  0.2099  0.6468
  554MOL0    Cl76359  13.727   8.909  10.570 -0.4006 -0.2942  0.3788
  554MOL0     C76360  13.049   9.212  10.019 -0.4340 -0.1561  0.1489
  554MOL0     C76361  12.922   9.255  10.000  0.2307 -0.1606 -0.1392
  554MOL0     O76362  12.814   9.563   9.834  0.0472  0.6080  0.4125
  554MOL0     C76363  12.499   9.447   9.743  0.7548  0.5438  0.3071
  554MOL0     C76364  12.364   9.482   9.708 -0.4705 -0.3754  0.0508
  554MOL0     N76365  11.823  10.019   9.788 -0.3951 -0.2477  0.0032
  554MOL0     N76366  11.704  10.020   9.837  0.5170  0.1941  0.8142
  554MOL0     C76367  10.533  10.003   9.999  0.1804  0.5402  0.4936
  554MOL0     C76368  10.459  10.017  10.118  0.6605 -0.1111 -0.3742
  554MOL0     C76369  10.397  10.016  10.611  0.0370 -0.0060 -0.2337
  554MOL0     C76370  10.277  10.079  10.587  0.6855 -0.4109  0.7073
  554MOL0     C76371  10.177  10.103  10.680 -0.3359  0.6095  0.0778
  554MOL0     C76372  10.198  10.070  10.808  0.0509  1.0952 -0.0153
  554MOL0     O76373  10.100  10.070  10.909  0.5218 -0.4049  0.3739
  554MOL0     C76374   9.981  10.145  10.875 -1.4575  0.5473 -0.9074
  554MOL0     C76375   9.909  10.139  11.004 -0.6613 -0.4507 -0.6419
  554MOL0     C76376   9.762  10.183  11.011  0.4330  0.2160 -0.1562
  554MOL0     C76377   9.702  10.204  11.160  0.0769 -1.2169  0.1922
  554MOL0     C76378   9.563  10.251  11.154 -0.7218 -0.7341  0.1290
  554MOL0     C76379   9.446  10.275  11.137  0.2679 -0.7257 -0.3912
  554MOL0     C76380  10.322  10.010  10.842  0.1042 -0.4362 -1.1165
  554MOL0     C76381  10.419   9.978  10.741  0.5499 -0.1397 -1.1313
  554MOL0     C76382  10.540   9.910  10.801  0.5577  0.1572 -0.7237
  554MOL0     H76383  10.724  10.010  10.342 -0.3640  4.3048  1.3266
  554MOL0     H76384  10.846  10.011  10.130  0.0476 -0.9270 -0.0852
  554MOL0     H76385  10.609   9.899   9.750 -0.0543 -1.7778 -2.4550
  554MOL0     H76386  10.720   9.789   9.834  0.7332  1.1116  1.8010
  554MOL0     H76387  10.767   9.825   9.598 -2.8987  2.6745 -0.8523
  554MOL0     H76388  10.762   9.995   9.615 -1.5744 -0.6732 -0.7631
  554MOL0     H76389  10.962  10.037   9.712  0.6246  1.0835 -2.0593
  554MOL0     H76390  10.971   9.863   9.777  0.2827 -1.9944 -2.4873
  554MOL0     H76391  11.037   9.775   9.585 -0.9921  0.0852  0.8899
  554MOL0     H76392  10.979   9.902   9.480 -0.0447  2.0800 -0.1892
  554MOL0     H76393  11.147  10.065   9.584 -0.9672 -0.6913 -1.4651
  554MOL0     H76394  11.222   9.940   9.491 -0.2938 -1.0819 -0.2820
  554MOL0     H76395  11.201   9.926   9.791 -0.9843  2.3338 -0.7141
  554MOL0     H76396  11.271   9.797   9.687 -1.6959  0.0777  0.7771
  554MOL0     H76397  11.372  10.086   9.708 -1.0589 -0.0667  0.1454
  554MOL0     H76398  11.416   9.946   9.596  1.7852  0.4990 -0.0862
  554MOL0     H76399  11.468   9.973   9.893  3.4288  0.4984 -0.3679
  554MOL0     H76400  11.470   9.814   9.821  0.2124 -0.8761 -0.6457
  554MOL0     H76401  11.663   9.851   9.558 -1.0086 -0.6574  0.3724
  554MOL0     H76402  11.963  10.044   9.545  0.0610 -0.4496 -1.5155
  554MOL0     H76403  11.893   9.899   9.460  4.6357 -0.9500 -1.8968
  554MOL0     H76404  12.116   9.885   9.547 -2.9853  1.2119 -3.5454
  554MOL0     H76405  12.051   9.880   9.712 -1.0049 -0.0638  0.2222
  554MOL0     H76406  11.920   9.664   9.638 -1.5626  1.2332 -1.6359
  554MOL0     H76407  11.982   9.681   9.478 -1.3300  0.2598 -0.1883
  554MOL0     H76408  12.100   9.515   9.624  2.2718 -0.6616 -4.1839
  554MOL0     H76409  12.203   9.619   9.537 -1.6451  2.1951 -0.9168
  554MOL0     H76410  12.360   9.768   9.888 -0.6220 -2.4001  4.8198
  554MOL0     H76411  12.557   9.780  10.040 -0.1880 -1.5158  0.3095
  554MOL0     H76412  12.646   9.826   9.901 -0.7893  1.7725  1.8962
  554MOL0     H76413  12.706   9.692  10.003  2.5646  3.4900 -0.2917
  554MOL0     H76414  12.924   9.366   9.684 -1.5923  0.0153  0.4504
  554MOL0     H76415  13.158   9.267   9.707  1.6014 -1.7725  0.4938
  554MOL0     H76416  13.297   9.081   9.743  0.3723  1.0673 -0.1418
  554MOL0     H76417  13.390   9.225   9.766 -2.0992  0.8885  0.5483
  554MOL0     H76418  13.453   8.955   9.873  0.3834 -0.7561 -1.9783
  554MOL0     H76419  13.533   9.069   9.760  1.0554  2.2923 -0.0309
  554MOL0     H76420  13.472   9.128  10.056 -0.4126  2.3948 -1.4697
  554MOL0     H76421  13.576   9.224   9.967 -1.6432  1.0996  1.6153
  554MOL0     H76422  13.716   9.007   9.938  0.8190 -3.8271  1.5940
  554MOL0     H76423  13.621   8.933  10.060  2.1085 -0.1578  1.1894
  554MOL0     H76424  13.834   9.038  10.133 -0.6742 -2.7744  1.6937
  554MOL0     H76425  13.747   9.196  10.129 -0.3604 -0.3916 -2.4626
  554MOL0     H76426  13.660   8.944  10.268 -0.4245 -0.9738 -0.2495
  554MOL0     H76427  13.573   9.100  10.295  2.3118  2.4186 -0.2565
  554MOL0     H76428  13.791   9.201  10.379 -1.4814  0.0833 -1.6538
  554MOL0     H76429  13.858   9.031  10.382  1.0324 -0.5752 -0.7105
  554MOL0     H76430  13.618   9.112  10.540  0.2748  2.7549 -1.5902
  554MOL0     H76431  13.779   9.129  10.608 -2.7035  2.1371  1.3521
  554MOL0     H76432  13.082   9.172  10.115 -1.6084 -0.1986  0.5532
  554MOL0     H76433  12.852   9.274  10.081  0.2278  0.6600 -0.3235
  554MOL0     H76434  12.539   9.355   9.702  4.5348  2.2498 -0.2342
  554MOL0     H76435  12.307   9.418   9.640 -2.3565  1.3326 -0.0542
  554MOL0     H76436  10.483   9.975   9.907 -2.6690  0.2097  2.0307
  554MOL0     H76437  10.350  10.016  10.115  0.6082  0.1515  0.8356
  554MOL0     H76438  10.244  10.103  10.486 -1.0349  1.2249  1.5857
  554MOL0     H76439  10.096  10.168  10.649  0.8272  1.1920 -1.9491
  554MOL0     H76440   9.996  10.247  10.839  0.2541  0.5295 -0.3225
  554MOL0     H76441   9.933  10.076  10.805 -0.9897 -0.8537  0.1258
  554MOL0     H76442   9.967  10.200  11.074 -0.0212  0.7496 -2.1558
  554MOL0     H76443   9.907  10.034  11.035 -2.0473  0.4270  2.6408
  554MOL0     H76444   9.737  10.278  10.962 -0.6949 -0.2012 -0.4129
  554MOL0     H76445   9.707  10.101  10.963  1.9192 -0.7938 -0.2102
  554MOL0     H76446   9.765  10.285  11.197 -2.4427  1.9826 -2.0272
  554MOL0     H76447   9.704  10.107  11.211  0.5173 -1.6787 -0.6834
  554MOL0     H76448   9.349  10.319  11.136  1.2057  1.5888 -2.6366
  554MOL0     H76449  10.331   9.971  10.943 -2.7409 -1.4239 -1.1569
  554MOL0     H76450  10.532   9.900  10.910  0.6851  3.9028 -0.2355
  554MOL0     H76451  10.548   9.811  10.754 -1.0721 -0.2543 -0.2192
  554MOL0     H76452  10.611   9.992  10.796 -2.3787  2.9696  0.3969
  555MOL0     O76453   9.271   7.198   5.258 -0.2185  0.9166 -1.1517
  555MOL0     C76454   9.308   7.314   5.279 -0.3608 -1.3496  0.1907
  555MOL0     O76455   9.217   7.419   5.297 -0.7222 -0.5735 -0.0068
  555MOL0     C76456   9.118   7.436   5.197 -0.3387  0.2308 -0.1314
  555MOL0     C76457   9.125   7.391   5.063 -0.2183 -0.5317  0.1731
  555MOL0     C76458   9.021   7.416   4.974  0.7867  0.0310 -0.0865
  555MOL0     C76459   8.903   7.480   5.025 -0.2542  0.0846  0.8736
  555MOL0     O76460   8.805   7.489   4.926  0.1218  0.3468 -0.0190
  555MOL0     C76461   8.716   7.600   4.935 -0.1108  0.9215 -0.2158
  555MOL0     C76462   8.607   7.585   4.820  0.9988 -0.2669  0.4273
  555MOL0     C76463   8.480   7.671   4.854  0.1816  0.1643 -0.5251
  555MOL0     C76464   8.380   7.671   4.738  0.0563  0.4689  0.1459
  555MOL0     C76465   8.280   7.551   4.748 -0.3205 -0.3248 -0.0290
  555MOL0     C76466   8.163   7.558   4.649  0.0126  0.6442 -0.6903
  555MOL0     C76467   8.141   7.684   4.571  0.6398 -0.1538 -0.8371
  555MOL0     C76468   8.026   7.683   4.465 -0.4299 -1.1185 -0.9272
  555MOL0     N76469   8.040   7.574   4.366  0.2223 -0.8701  0.5409
  555MOL0     C76470   8.167   7.538   4.309 -0.3387 -0.2206  0.3627
  555MOL0     C76471   8.126   7.431   4.231 -0.5307  0.4532 -0.5024
  555MOL0     C76472   8.190   7.347   4.122 -0.1379 -0.1665  0.3695
  555MOL0     C76473   8.322   7.295   4.174  0.8527  0.7427  0.4573
  555MOL0     C76474   8.294   7.189   4.272  0.1814  0.6951 -0.6667
  555MOL0     C76475   8.417   7.107   4.313 -0.1197 -0.1623 -0.5162
  555MOL0     O76476   8.483   7.145   4.436 -0.3302 -0.1203  0.5403
  555MOL0     C76477   8.589   7.078   4.487 -0.7528 -0.1301  0.9840
  555MOL0     C76478   8.658   7.148   4.581  0.0191  0.2990 -0.3429
  555MOL0     C76479   8.783   7.100   4.628  0.0006 -0.0445 -0.1869
  555MOL0     C76480   8.836   7.164   4.752 -0.9933 -0.7883 -0.3902
  555MOL0     C76481   8.849   6.987   4.569 -0.0926  0.6693  0.1047
  555MOL0     C76482   8.999   6.963   4.594 -0.6977 -0.4378  0.2448
  555MOL0     O76483   9.073   7.045   4.667 -0.5200  0.2849 -0.2745
  555MOL0     C76484   9.201   7.017   4.709  0.4877  0.0775  0.4857
  555MOL0     C76485   9.230   7.053   4.837 -0.0238  0.8611  0.0534
  555MOL0     C76486   9.358   7.025   4.885  0.2006 -0.2648 -0.8508
  555MOL0     C76487   9.456   6.962   4.812 -0.5253  0.4002 -0.2641
  555MOL0     O76488   9.590   6.929   4.848  0.0592 -0.1114  0.2248
  555MOL0     C76489   9.635   6.983   4.978  0.8399 -0.3101 -0.2908
  555MOL0     C76490   9.783   6.950   5.006 -0.6035 -0.4288 -0.0903
  555MOL0     C76491   9.821   6.917   5.152  0.0105 -0.5253  0.0721
  555MOL0     C76492   9.973   6.888   5.155 -0.0235  0.3068 -0.4620
  555MOL0     C76493  10.008   6.814   5.288 -0.5144 -0.8651  0.6478
  555MOL0     C76494  10.015   6.919   5.409  0.8321 -0.0137  0.1271
  555MOL0     C76495  10.074   6.851   5.529  0.8551 -0.5940  0.3086
  555MOL0     C76496  10.103   6.944   5.644  0.1457 -1.6715  0.4317
  555MOL0    Cl76497   9.960   7.059   5.672  0.2724 -0.4969  0.0159
  555MOL0     C76498   9.423   6.922   4.686 -1.0972 -0.6074 -0.2950
  555MOL0     C76499   9.298   6.943   4.631  0.3745 -0.0821  0.5894
  555MOL0     O76500   9.040   6.859   4.535 -0.4842 -0.0038  0.0858
  555MOL0     C76501   8.774   6.916   4.474  0.1551 -0.0369  0.9172
  555MOL0     C76502   8.642   6.957   4.436  0.4870  0.6118  0.3092
  555MOL0     N76503   7.993   7.396   4.251  0.4883 -0.1224  0.2818
  555MOL0     N76504   7.951   7.489   4.329  0.1418  0.2083 -0.1179
  555MOL0     C76505   8.892   7.529   5.163 -0.4537  0.2583 -0.3682
  555MOL0     C76506   9.003   7.506   5.244  0.7373 -0.6718  0.2160
  555MOL0     C76507   9.450   7.339   5.319 -0.3496 -0.3090 -0.5859
  555MOL0     C76508   9.489   7.469   5.336 -0.4992 -0.2706 -0.5053
  555MOL0     C76509   9.613   7.503   5.386  0.1516  0.1496  0.3691
  555MOL0     C76510   9.706   7.406   5.421  0.1102  0.4368 -0.1155
  555MOL0     O76511   9.827   7.425   5.468  0.2081 -0.2664 -0.9286
  555MOL0     C76512   9.882   7.562   5.451 -0.6555  0.4514  0.5864
  555MOL0     C76513  10.022   7.578   5.491 -0.9359  0.3423 -0.1012
  555MOL0     C76514  10.114   7.532   5.377 -0.5456 -0.5334 -0.9550
  555MOL0     C76515  10.263   7.539   5.421 -0.3347  0.0275  0.4080
  555MOL0     C76516  10.309   7.447   5.526  0.1212  0.2604 -0.6752
  555MOL0     C76517  10.347   7.373   5.609  0.3258  0.0110 -0.1934
  555MOL0     C76518   9.667   7.270   5.405  0.5493 -1.0843 -0.6591
  555MOL0     C76519   9.543   7.240   5.349 -0.6013  0.3880 -0.3975
  555MOL0     C76520   9.527   7.098   5.307  0.6089  1.5195  0.6286
  555MOL0     H76521   9.213   7.343   5.022  1.4525  0.3288  2.5225
  555MOL0     H76522   9.030   7.386   4.870 -1.6693  0.9492 -0.6273
  555MOL0     H76523   8.763   7.698   4.920  1.2807  0.1903 -0.8368
  555MOL0     H76524   8.666   7.607   5.032 -0.9790 -0.5242 -0.5354
  555MOL0     H76525   8.649   7.603   4.721  0.2653 -0.2937  0.1041
  555MOL0     H76526   8.567   7.483   4.820 -0.9610  0.4514  0.6209
  555MOL0     H76527   8.441   7.631   4.948  1.1599 -0.6512 -0.4567
  555MOL0     H76528   8.511   7.774   4.878  1.7283 -0.7511  1.7666
  555MOL0     H76529   8.320   7.762   4.747 -0.5475  0.2956 -1.6472
  555MOL0     H76530   8.435   7.676   4.644 -0.7376  0.6159 -0.3175
  555MOL0     H76531   8.235   7.561   4.848 -0.4237 -0.4596 -0.0619
  555MOL0     H76532   8.341   7.461   4.743 -1.1187 -0.8119 -1.3401
  555MOL0     H76533   8.185   7.483   4.571  1.6914 -1.1662  1.4037
  555MOL0     H76534   8.075   7.509   4.692  0.1517  2.5238  1.9347
  555MOL0     H76535   8.231   7.723   4.522  0.6784 -0.7666 -1.2550
  555MOL0     H76536   8.130   7.762   4.648  1.3737 -1.0368  0.1960
  555MOL0     H76537   7.928   7.671   4.513  0.9165 -1.5713  1.9824
  555MOL0     H76538   8.039   7.777   4.411  1.8750  0.3966  1.9323
  555MOL0     H76539   8.267   7.579   4.321 -1.9252  3.8171  1.2650
  555MOL0     H76540   8.199   7.409   4.032 -4.5613  0.0418 -0.1676
  555MOL0     H76541   8.125   7.264   4.093 -0.9165  0.4915  0.1991
  555MOL0     H76542   8.387   7.260   4.093  1.7564  0.6190  1.2215
  555MOL0     H76543   8.378   7.373   4.227  0.5631  0.4813  1.1557
  555MOL0     H76544   8.252   7.232   4.363 -0.3726 -4.5823  1.9273
  555MOL0     H76545   8.217   7.114   4.250 -0.1851  0.6696  0.6368
  555MOL0     H76546   8.392   7.000   4.314  1.9257 -0.7017  0.9896
  555MOL0     H76547   8.492   7.132   4.238 -1.3392  4.7206 -0.4263
  555MOL0     H76548   8.594   7.225   4.623 -3.9362 -2.9637  0.2526
  555MOL0     H76549   8.758   7.226   4.797 -4.2457 -4.7885  0.0241
  555MOL0     H76550   8.926   7.220   4.724 -0.1631 -0.4829  2.5195
  555MOL0     H76551   8.869   7.094   4.829 -0.6646  1.3855  1.5589
  555MOL0     H76552   9.160   7.115   4.893 -2.6784  0.3169 -2.3964
  555MOL0     H76553   9.387   7.060   4.983  0.4846 -1.7428 -0.3844
  555MOL0     H76554   9.638   7.092   4.986  1.2619 -0.1732 -1.8496
  555MOL0     H76555   9.569   6.951   5.058 -0.8434  0.5889 -1.2611
  555MOL0     H76556   9.808   6.859   4.951  1.0814 -0.2223  0.2873
  555MOL0     H76557   9.841   7.036   4.971 -0.1780  0.3308  2.2767
  555MOL0     H76558   9.767   6.836   5.201  1.1061  0.1031  2.4656
  555MOL0     H76559   9.810   7.006   5.214  0.4242  1.0698 -2.0354
  555MOL0     H76560  10.039   6.976   5.150 -0.6966  0.9298  1.0341
  555MOL0     H76561   9.996   6.820   5.072  0.2909 -1.9205  1.3543
  555MOL0     H76562   9.937   6.737   5.319 -0.9061 -1.1753 -0.9415
  555MOL0     H76563  10.105   6.767   5.268  0.7053  1.0264  1.7717
  555MOL0     H76564   9.914   6.956   5.424 -0.1178 -3.2805  3.2326
  555MOL0     H76565  10.090   6.995   5.388 -1.5178  2.4801  0.2951
  555MOL0     H76566  10.163   6.800   5.491  0.4004  0.8601 -3.1091
  555MOL0     H76567  10.004   6.773   5.560  0.7177 -1.5151 -2.0762
  555MOL0     H76568  10.196   6.999   5.624 -0.0383 -0.2055  3.1035
  555MOL0     H76569  10.123   6.871   5.723  1.7019 -1.1273  0.5870
  555MOL0     H76570   9.506   6.881   4.630 -0.4261  0.4887 -0.1334
  555MOL0     H76571   9.278   6.915   4.528 -0.2163 -1.2527  1.0089
  555MOL0     H76572   8.812   6.826   4.427  1.0846 -0.4166  2.3428
  555MOL0     H76573   8.582   6.893   4.372 -0.1454 -0.9941  2.4094
  555MOL0     H76574   8.803   7.578   5.201 -2.2849 -4.1437  1.7242
  555MOL0     H76575   8.995   7.544   5.345  1.1409  0.3251 -0.1151
  555MOL0     H76576   9.423   7.551   5.309 -1.2984 -0.2773  1.2584
  555MOL0     H76577   9.639   7.606   5.407  0.6521  0.0076  0.4553
  555MOL0     H76578   9.868   7.582   5.344 -0.2897 -0.7908  0.2979
  555MOL0     H76579   9.826   7.633   5.513 -4.0819 -0.6235 -1.0358
  555MOL0     H76580  10.037   7.502   5.568  0.6646 -0.7979 -1.4526
  555MOL0     H76581  10.034   7.682   5.521 -1.6757  1.2622 -2.6755
  555MOL0     H76582  10.092   7.432   5.338 -2.3650  0.3287 -2.2961
  555MOL0     H76583  10.104   7.605   5.296  0.6787 -1.0745 -1.6120
  555MOL0     H76584  10.293   7.641   5.445 -0.4472 -0.4358  2.7983
  555MOL0     H76585  10.319   7.513   5.331  0.7705  0.9240  0.8129
  555MOL0     H76586  10.390   7.306   5.680 -0.8170 -3.2044 -2.2966
  555MOL0     H76587   9.733   7.186   5.425 -0.1546 -1.5942 -0.4164
  555MOL0     H76588   9.460   7.049   5.378  1.7245 -1.9611 -0.5105
  555MOL0     H76589   9.487   7.075   5.208 -2.8682 -1.5398  2.5012
  555MOL0     H76590   9.618   7.038   5.302 -1.3149 -1.5150 -0.6942
  556MOL0     O76591  10.268  11.058   6.993  0.8637  0.0442  0.5848
  556MOL0     C76592  10.216  10.985   7.081 -0.2795  0.4789  0.1660
  556MOL0     O76593  10.281  10.927   7.188 -0.2094  0.5110 -0.2838
  556MOL0     C76594  10.421  10.938   7.195 -0.8087 -1.0941 -0.3634
  556MOL0     C76595  10.511  10.880   7.104 -0.0201  0.0717 -0.0337
  556MOL0     C76596  10.654  10.884   7.132  1.5404 -0.6508 -0.2285
  556MOL0     C76597  10.699  10.953   7.241  0.2923 -0.3365 -0.9239
  556MOL0     O76598  10.832  10.973   7.264  0.1237  0.0603  0.4801
  556MOL0     C76599  10.922  10.892   7.189 -0.2708 -1.0234  0.4781
  556MOL0     C76600  11.061  10.918   7.248 -0.8932  0.1590 -0.0400
  556MOL0     C76601  11.165  10.825   7.169  0.6894 -0.1814 -0.0840
  556MOL0     C76602  11.302  10.876   7.201 -0.2164 -0.0649 -0.3794
  556MOL0     C76603  11.392  10.777   7.126 -0.3643  0.6731 -0.3474
  556MOL0     C76604  11.545  10.821   7.124 -1.0455 -0.5900 -0.4923
  556MOL0     C76605  11.558  10.963   7.062 -0.4188 -0.6601 -0.7369
  556MOL0     C76606  11.516  10.989   6.918  0.1404  0.1893 -0.0520
  556MOL0     N76607  11.625  10.947   6.822  0.0350  1.1762  0.6773
  556MOL0     C76608  11.627  10.853   6.730  0.3896  0.3555 -0.1042
  556MOL0     C76609  11.733  10.872   6.652 -0.2228  0.1005 -0.1081
  556MOL0     C76610  11.773  10.794   6.534 -0.4755  1.0109 -1.0031
  556MOL0     C76611  11.831  10.659   6.591  0.1320  0.9000 -1.1065
  556MOL0     C76612  11.885  10.562   6.488 -0.4254  0.4236 -0.3417
  556MOL0     C76613  12.038  10.561   6.487  0.3421  0.4455 -0.8606
  556MOL0     O76614  12.086  10.510   6.612  0.2164  0.2916 -0.0096
  556MOL0     C76615  12.204  10.448   6.625 -0.2916  0.2499 -0.4835
  556MOL0     C76616  12.300  10.436   6.520 -0.2464 -0.5569  0.3735
  556MOL0     C76617  12.427  10.383   6.549 -0.4646  0.3747  0.1220
  556MOL0     C76618  12.531  10.384   6.439 -0.1269  1.0228  0.7216
  556MOL0     C76619  12.458  10.336   6.686 -0.2215  0.8851  0.7323
  556MOL0     C76620  12.600  10.288   6.725 -0.3208  0.6439 -0.7780
  556MOL0     O76621  12.699  10.282   6.628  0.5870  0.2804  0.2023
  556MOL0     C76622  12.825  10.242   6.662 -0.5582  0.0332 -0.5293
  556MOL0     C76623  12.851  10.126   6.739  0.6035  0.5503  0.6014
  556MOL0     C76624  12.984  10.087   6.768  0.9317  0.6606  0.4587
  556MOL0     C76625  13.085  10.156   6.716 -0.4549 -0.0874  1.0112
  556MOL0     O76626  13.211  10.116   6.755 -0.0857  0.4444  0.0485
  556MOL0     C76627  13.330  10.188   6.727 -0.6947 -0.1637  0.7674
  556MOL0     C76628  13.459  10.120   6.771  0.5730  1.7877 -0.2958
  556MOL0     C76629  13.464   9.968   6.725  0.0825 -0.5071 -0.0986
  556MOL0     C76630  13.601   9.920   6.740  0.4329  0.5548 -1.0420
  556MOL0     C76631  13.629   9.848   6.877  1.0150 -1.1492 -0.0330
  556MOL0     C76632  13.768   9.798   6.873 -0.4078 -0.6638 -0.0356
  556MOL0     C76633  13.801   9.715   6.992 -0.6590  0.3884 -0.9129
  556MOL0     C76634  13.940   9.648   6.983  0.2883  0.0201  0.2359
  556MOL0    Cl76635  13.975   9.531   7.120  0.2015  0.3064  0.0130
  556MOL0     C76636  13.064  10.265   6.638  0.7752 -0.0076 -0.0186
  556MOL0     C76637  12.934  10.311   6.615  0.1186  0.2312 -0.2734
  556MOL0     O76638  12.618  10.279   6.847  0.3447  0.1513  0.5711
  556MOL0     C76639  12.357  10.340   6.784 -0.4193 -0.6512 -0.0477
  556MOL0     C76640  12.237  10.399   6.754  1.2049 -0.7836  0.2387
  556MOL0     N76641  11.801  10.979   6.706  1.2179  0.5245 -0.3570
  556MOL0     N76642  11.736  11.021   6.811  0.0201 -0.4216  0.5113
  556MOL0     C76643  10.609  11.023   7.327 -0.6299 -0.1894  0.3538
  556MOL0     C76644  10.468  11.018   7.304 -0.2990  0.0431  0.3760
  556MOL0     C76645  10.068  10.960   7.071  0.4913  0.7029 -0.1838
  556MOL0     C76646  10.016  10.912   6.948 -0.2653  0.3775  0.4133
  556MOL0     C76647   9.887  10.863   6.931  1.0592  0.2318 -0.4850
  556MOL0     C76648   9.794  10.865   7.042 -0.2782 -0.4040 -0.6915
  556MOL0     O76649   9.666  10.816   7.052 -0.8873 -0.6671 -0.2021
  556MOL0     C76650   9.620  10.706   6.968  0.4951  0.5612 -0.3633
  556MOL0     C76651   9.671  10.579   7.027  0.5474  1.5788  0.1014
  556MOL0     C76652   9.602  10.453   6.954  0.5179  0.0950  0.0938
  556MOL0     C76653   9.675  10.430   6.819 -0.3218  0.0932 -0.7664
  556MOL0     C76654   9.626  10.313   6.751  0.4635  1.2069  0.4188
  556MOL0     C76655   9.566  10.230   6.688 -0.4646  0.9434 -0.3782
  556MOL0     C76656   9.843  10.921   7.158 -0.2592  0.2591  0.2020
  556MOL0     C76657   9.970  10.963   7.180  0.3288  0.5413  0.2429
  556MOL0     C76658  10.009  10.998   7.323  0.6027  0.4441 -0.4698
  556MOL0     H76659  10.486  10.819   7.018  0.2814 -0.5669  0.3217
  556MOL0     H76660  10.720  10.824   7.070  1.0471 -1.7036  0.2465
  556MOL0     H76661  10.924  10.936   7.089  1.1065  0.3205  1.0700
  556MOL0     H76662  10.902  10.785   7.175  1.5283 -1.8815  3.5411
  556MOL0     H76663  11.081  11.026   7.243 -0.2786  0.1024  0.8860
  556MOL0     H76664  11.067  10.883   7.351 -1.6679  1.5181  0.4827
  556MOL0     H76665  11.155  10.720   7.199  0.4899 -0.3892 -0.8568
  556MOL0     H76666  11.138  10.830   7.063  0.5895  2.2896  0.0090
  556MOL0     H76667  11.304  10.978   7.160  0.0707 -0.6585 -1.9028
  556MOL0     H76668  11.331  10.872   7.307 -1.1934  1.4237 -0.0133
  556MOL0     H76669  11.355  10.757   7.025 -1.7651  2.1192 -0.1535
  556MOL0     H76670  11.386  10.677   7.171 -2.0504  1.4798  1.3729
  556MOL0     H76671  11.584  10.836   7.225  1.3059 -1.0896 -1.2764
  556MOL0     H76672  11.600  10.737   7.082 -2.7754 -2.8649  1.5161
  556MOL0     H76673  11.661  10.999   7.072 -1.7641  3.2781  1.0638
  556MOL0     H76674  11.504  11.040   7.118  2.8066  0.8214  0.5986
  556MOL0     H76675  11.424  10.933   6.899  0.6512 -0.5957 -0.2656
  556MOL0     H76676  11.497  11.096   6.903  0.7202  0.2898 -0.0795
  556MOL0     H76677  11.557  10.771   6.717  0.0934  0.7861 -1.3693
  556MOL0     H76678  11.840  10.860   6.479  1.6171  1.2833  1.6606
  556MOL0     H76679  11.686  10.762   6.476 -0.8448 -2.1300  1.0053
  556MOL0     H76680  11.911  10.675   6.664 -1.6300  1.7948  0.7321
  556MOL0     H76681  11.747  10.615   6.646 -1.6319  1.5096 -3.1861
  556MOL0     H76682  11.848  10.460   6.504 -1.6730  1.0249  0.9589
  556MOL0     H76683  11.840  10.591   6.393 -2.1676 -0.6028  0.1070
  556MOL0     H76684  12.065  10.495   6.405 -1.6149  1.0180 -2.0511
  556MOL0     H76685  12.071  10.664   6.471  0.6987  0.3101 -0.9730
  556MOL0     H76686  12.274  10.460   6.417  1.5933  0.9370  0.2057
  556MOL0     H76687  12.487  10.407   6.342  1.2340  2.6888  0.4420
  556MOL0     H76688  12.588  10.292   6.430  0.3502  1.3297  0.5587
  556MOL0     H76689  12.609  10.459   6.455 -0.9005  2.8296 -2.9841
  556MOL0     H76690  12.773  10.067   6.786  2.0594 -0.0136  2.4290
  556MOL0     H76691  13.008  10.013   6.842  1.0123 -1.4489 -1.5643
  556MOL0     H76692  13.336  10.198   6.618  0.7656  0.5059  0.8815
  556MOL0     H76693  13.330  10.286   6.776  2.4375  0.3467 -0.0736
  556MOL0     H76694  13.541  10.182   6.733  1.6703  0.5734  0.0064
  556MOL0     H76695  13.470  10.110   6.879 -1.6653 -0.6334 -0.2000
  556MOL0     H76696  13.421   9.955   6.625  1.4603  3.3668 -1.3890
  556MOL0     H76697  13.399   9.909   6.790  0.1728 -0.4523  0.0430
  556MOL0     H76698  13.663  10.009   6.725  2.3004 -1.0390 -3.5424
  556MOL0     H76699  13.625   9.856   6.655 -0.2635  0.7771 -1.4134
  556MOL0     H76700  13.629   9.925   6.954  2.0559  1.1753 -2.2099
  556MOL0     H76701  13.544   9.785   6.902  1.2682 -0.7702  1.9754
  556MOL0     H76702  13.842   9.878   6.877  3.9887 -4.3903  2.2357
  556MOL0     H76703  13.800   9.750   6.780 -1.5935  0.6040 -1.1489
  556MOL0     H76704  13.718   9.647   7.013 -0.9841  0.3477 -2.2594
  556MOL0     H76705  13.808   9.784   7.077  3.6377 -1.8251  0.8706
  556MOL0     H76706  14.015   9.727   6.990 -1.2290  1.7427 -1.4991
  556MOL0     H76707  13.951   9.594   6.889 -0.3975  0.6536 -0.2281
  556MOL0     H76708  13.138  10.313   6.575 -0.4868 -0.3504 -1.8206
  556MOL0     H76709  12.917  10.403   6.560  0.8624  1.2555  1.1378
  556MOL0     H76710  12.375  10.299   6.882 -1.1637  0.6634  0.6640
  556MOL0     H76711  12.165  10.421   6.832  1.3491  1.8891 -0.2561
  556MOL0     H76712  10.645  11.073   7.416 -0.4856 -0.9432  0.7271
  556MOL0     H76713  10.407  11.073   7.375  2.0749  1.9335  1.0937
  556MOL0     H76714  10.080  10.904   6.861  1.8622  3.4410  1.5428
  556MOL0     H76715   9.861  10.832   6.830  0.8165 -2.4325  0.3019
  556MOL0     H76716   9.510  10.706   6.961  0.1422  0.8898  3.2404
  556MOL0     H76717   9.647  10.717   6.863 -0.6250 -1.7966 -0.9483
  556MOL0     H76718   9.654  10.583   7.135  1.3183  0.5497  0.2743
  556MOL0     H76719   9.775  10.549   7.012  0.9829  0.6160  3.9812
  556MOL0     H76720   9.607  10.360   7.011 -2.3619 -1.5813 -2.1386
  556MOL0     H76721   9.496  10.472   6.938  0.5777 -1.0509 -2.1706
  556MOL0     H76722   9.782  10.417   6.833 -0.3881 -0.8261 -1.0756
  556MOL0     H76723   9.647  10.513   6.754  0.0812  1.1651  0.3759
  556MOL0     H76724   9.538  10.160   6.611  5.2086 -1.9448 -0.3947
  556MOL0     H76725   9.770  10.912   7.238  2.1944 -1.8446  2.3843
  556MOL0     H76726  10.075  10.921   7.362 -2.5991 -2.6915 -0.7504
  556MOL0     H76727  10.048  11.100   7.325  0.0817  0.6869 -1.7133
  556MOL0     H76728   9.924  11.008   7.392  0.3112  1.0086 -0.9019
  557MOL0     O76729   3.967   7.020   9.246  0.4099  0.0030 -0.3820
  557MOL0     C76730   3.919   7.117   9.192  0.2864 -0.6611 -1.1885
  557MOL0     O76731   3.987   7.228   9.149 -0.9284 -0.0175  0.2991
  557MOL0     C76732   4.122   7.245   9.149 -0.1096 -0.9212 -0.2107
  557MOL0     C76733   4.161   7.369   9.103 -0.4499 -0.2103 -0.0814
  557MOL0     C76734   4.293   7.407   9.103 -0.1311  0.1689  0.2449
  557MOL0     C76735   4.386   7.324   9.147 -0.5184  0.0997  0.5966
  557MOL0     O76736   4.516   7.375   9.131  0.0003  0.1743 -0.5677
  557MOL0     C76737   4.627   7.283   9.167  0.0982  0.3473  0.2265
  557MOL0     C76738   4.754   7.376   9.193 -0.3510 -0.4166 -0.4018
  557MOL0     C76739   4.882   7.298   9.209 -0.6194  0.6082 -0.4309
  557MOL0     C76740   5.007   7.392   9.242  0.1127  0.2435  0.1705
  557MOL0     C76741   5.125   7.304   9.276 -0.1491  0.7125  0.2036
  557MOL0     C76742   5.197   7.243   9.160 -0.0058 -0.0591  0.5043
  557MOL0     C76743   5.296   7.341   9.095 -0.1992 -0.3364  0.7949
  557MOL0     C76744   5.338   7.295   8.955 -0.3466  0.1762  0.0238
  557MOL0     N76745   5.442   7.380   8.899  0.1878  0.4554  0.0772
  557MOL0     C76746   5.541   7.330   8.809  0.2863  0.6180 -0.8594
  557MOL0     C76747   5.611   7.435   8.763  0.0555  1.2850  0.3187
  557MOL0     C76748   5.725   7.443   8.664 -0.1698 -0.1463 -0.1789
  557MOL0     C76749   5.802   7.316   8.665  0.7833  0.2281  0.4323
  557MOL0     C76750   5.882   7.269   8.544 -0.6961 -0.4099  0.8047
  557MOL0     C76751   5.958   7.146   8.564 -0.6587  0.6881  0.7007
  557MOL0     O76752   6.079   7.184   8.636  0.0355 -0.0872  0.4653
  557MOL0     C76753   6.152   7.093   8.701 -0.5339 -0.7719 -0.0067
  557MOL0     C76754   6.141   6.957   8.682  0.1396 -0.4076  0.2176
  557MOL0     C76755   6.229   6.866   8.751 -0.2749 -0.2226 -1.2788
  557MOL0     C76756   6.231   6.726   8.708  0.6780 -0.2770 -0.2386
  557MOL0     C76757   6.297   6.919   8.870  0.4280 -0.6207 -0.4229
  557MOL0     C76758   6.376   6.829   8.961  0.0545 -0.7035  1.1610
  557MOL0     O76759   6.311   6.743   9.040 -0.1724 -0.2578  0.1730
  557MOL0     C76760   6.375   6.642   9.111  0.6556 -0.1937 -0.4762
  557MOL0     C76761   6.326   6.612   9.235 -0.3154 -0.3181 -0.4886
  557MOL0     C76762   6.390   6.511   9.306 -0.2553  0.2874  0.0848
  557MOL0     C76763   6.493   6.434   9.252  0.0837 -0.0083 -0.0079
  557MOL0     O76764   6.571   6.342   9.322  0.0187 -0.5143  0.3325
  557MOL0     C76765   6.508   6.270   9.429 -0.6214  0.7395  0.1202
  557MOL0     C76766   6.409   6.169   9.365  0.3558 -0.9773 -0.0823
  557MOL0     C76767   6.366   6.062   9.469 -0.2701  0.0807  0.2113
  557MOL0     C76768   6.285   6.132   9.579 -0.8006 -0.5256 -0.1209
  557MOL0     C76769   6.273   6.041   9.706  0.8562  0.8671  0.2570
  557MOL0     C76770   6.157   6.104   9.791  0.4580  0.1129 -1.2810
  557MOL0     C76771   6.115   6.010   9.909  1.2168  0.0951 -0.1619
  557MOL0     C76772   6.033   6.079  10.025 -0.8363 -0.4898  0.8971
  557MOL0    Cl76773   5.894   6.152   9.937 -0.1545  0.3523  0.0619
  557MOL0     C76774   6.534   6.458   9.118  0.6298 -0.1759 -0.7673
  557MOL0     C76775   6.473   6.560   9.044 -0.1032  0.1359 -0.0744
  557MOL0     O76776   6.494   6.832   8.948  0.7821  0.1107  0.1656
  557MOL0     C76777   6.298   7.055   8.890  0.3491 -0.0351 -0.0247
  557MOL0     C76778   6.228   7.139   8.806  0.0592 -0.1548 -1.1501
  557MOL0     N76779   5.534   7.543   8.813 -0.1771  0.3547  0.6716
  557MOL0     N76780   5.436   7.518   8.892  0.2365  0.2832  0.4238
  557MOL0     C76781   4.352   7.203   9.198  0.3900  0.5769 -0.8114
  557MOL0     C76782   4.217   7.163   9.203  0.0401  0.3620  0.5303
  557MOL0     C76783   3.778   7.142   9.212 -0.3416 -0.7865 -0.9168
  557MOL0     C76784   3.735   7.256   9.290 -0.2186  0.1768 -0.6178
  557MOL0     C76785   3.612   7.284   9.315  1.2829  0.9421 -0.8073
  557MOL0     C76786   3.507   7.198   9.273  0.7866  0.1226 -0.1696
  557MOL0     O76787   3.374   7.218   9.298  0.4649  0.1261  0.7970
  557MOL0     C76788   3.331   7.340   9.363 -0.3188 -0.1303  0.1635
  557MOL0     C76789   3.192   7.383   9.313  0.4016  0.6440  0.7010
  557MOL0     C76790   3.072   7.298   9.366  0.3775  0.4165  0.9957
  557MOL0     C76791   2.937   7.366   9.328  0.2865  0.0315  0.2060
  557MOL0     C76792   2.815   7.305   9.372  0.7675  0.1633 -0.3245
  557MOL0     C76793   2.719   7.258   9.432 -0.0443 -0.0438  0.4653
  557MOL0     C76794   3.550   7.085   9.193  0.8601  0.7381 -0.7445
  557MOL0     C76795   3.686   7.057   9.171  1.0389 -0.1887  0.6931
  557MOL0     C76796   3.713   6.926   9.102 -0.0674  1.4012  0.2976
  557MOL0     H76797   4.097   7.440   9.051 -0.8556 -0.3572  0.2067
  557MOL0     H76798   4.331   7.503   9.068  1.3716  0.7452  3.1711
  557MOL0     H76799   4.655   7.210   9.091  4.8807  0.4486  1.5908
  557MOL0     H76800   4.600   7.227   9.257 -1.6095  2.2761  1.0195
  557MOL0     H76801   4.757   7.441   9.105 -2.0409  1.5553  0.9115
  557MOL0     H76802   4.734   7.443   9.277 -2.6486  0.1076 -1.2959
  557MOL0     H76803   4.877   7.218   9.284  0.2253 -0.4659 -1.4873
  557MOL0     H76804   4.902   7.239   9.120  2.0566  1.1301 -0.2731
  557MOL0     H76805   5.027   7.457   9.156 -1.2662  3.1539  1.9006
  557MOL0     H76806   4.982   7.451   9.330  2.3133 -1.5079  2.1002
  557MOL0     H76807   5.091   7.220   9.337  0.4379  1.1793  1.1946
  557MOL0     H76808   5.182   7.370   9.341 -0.0390  1.8429 -0.9989
  557MOL0     H76809   5.258   7.159   9.194  0.6327 -0.1387 -0.7746
  557MOL0     H76810   5.126   7.207   9.084  2.0636  1.1623 -2.1981
  557MOL0     H76811   5.386   7.341   9.157 -0.0356 -1.6688  0.5991
  557MOL0     H76812   5.255   7.442   9.094 -3.5599 -1.5874  1.1504
  557MOL0     H76813   5.374   7.192   8.959  4.0285  1.5328  1.2740
  557MOL0     H76814   5.248   7.304   8.892 -1.1699 -1.7041  0.8683
  557MOL0     H76815   5.558   7.225   8.785 -2.3547 -0.1741  0.2633
  557MOL0     H76816   5.785   7.529   8.691 -0.2371  0.0241 -0.5690
  557MOL0     H76817   5.676   7.451   8.566  0.2378  1.7304 -0.2621
  557MOL0     H76818   5.877   7.314   8.745 -0.6163  0.5189  1.8102
  557MOL0     H76819   5.736   7.229   8.672  0.5235  0.4409  0.6403
  557MOL0     H76820   5.811   7.251   8.463 -0.5981  0.2816  0.5570
  557MOL0     H76821   5.955   7.341   8.505 -0.9039 -1.0295 -0.8013
  557MOL0     H76822   5.906   7.075   8.629  0.7777  0.7883  2.0130
  557MOL0     H76823   6.003   7.108   8.472  1.2016  2.5658  0.7854
  557MOL0     H76824   6.065   6.923   8.613 -0.3858  1.2673 -0.0833
  557MOL0     H76825   6.177   6.717   8.614  0.8087  1.6563 -0.5472
  557MOL0     H76826   6.179   6.662   8.780 -1.9781  0.4486 -1.3872
  557MOL0     H76827   6.333   6.688   8.695  1.0854  0.2696  1.1259
  557MOL0     H76828   6.233   6.662   9.260 -0.1378 -0.1656 -0.1244
  557MOL0     H76829   6.361   6.496   9.410 -0.4184  2.5982  0.4321
  557MOL0     H76830   6.597   6.227   9.477  1.1898  0.4005 -3.2318
  557MOL0     H76831   6.470   6.338   9.506  0.5878  2.1619 -0.4954
  557MOL0     H76832   6.320   6.227   9.342  1.2415  0.4640  0.0008
  557MOL0     H76833   6.453   6.130   9.273  3.0427  1.5810 -0.0285
  557MOL0     H76834   6.450   6.006   9.512  2.3402  2.6175 -1.2211
  557MOL0     H76835   6.297   5.996   9.417 -3.7075  4.2162 -1.0678
  557MOL0     H76836   6.184   6.149   9.542 -1.5773 -1.5907  1.3993
  557MOL0     H76837   6.327   6.228   9.610 -1.6242 -0.4442  0.8089
  557MOL0     H76838   6.244   5.940   9.677  0.3364  0.3137  2.5587
  557MOL0     H76839   6.365   6.029   9.763  0.9070 -2.4229 -0.3452
  557MOL0     H76840   6.072   6.137   9.730 -1.5873 -0.6879  0.9732
  557MOL0     H76841   6.201   6.192   9.837 -0.3777  1.3527 -2.7580
  557MOL0     H76842   6.204   5.962   9.951 -0.9400 -1.3019  3.2498
  557MOL0     H76843   6.045   5.941   9.861  1.0617  1.5784 -2.1815
  557MOL0     H76844   6.098   6.157  10.066  2.7339  0.3782 -5.2458
  557MOL0     H76845   6.007   6.010  10.106 -0.6869  0.1745  1.5249
  557MOL0     H76846   6.615   6.409   9.065  2.1834  2.9285 -1.5201
  557MOL0     H76847   6.512   6.597   8.950  0.1236 -0.9093 -0.4083
  557MOL0     H76848   6.340   7.112   8.972 -0.7428  3.2010 -1.4995
  557MOL0     H76849   6.230   7.247   8.817 -1.7683 -0.0066 -1.9793
  557MOL0     H76850   4.435   7.136   9.219  0.8249  1.8069  1.7943
  557MOL0     H76851   4.191   7.062   9.234 -0.5200  0.7162  1.2311
  557MOL0     H76852   3.817   7.320   9.324 -3.0200  4.2266 -0.7576
  557MOL0     H76853   3.589   7.367   9.381  2.7716  1.7626 -1.2596
  557MOL0     H76854   3.328   7.312   9.469 -0.2236 -1.0727 -0.0712
  557MOL0     H76855   3.396   7.424   9.336  0.8165 -1.6995 -2.4469
  557MOL0     H76856   3.186   7.374   9.204 -0.5089 -1.2306  0.8593
  557MOL0     H76857   3.177   7.489   9.336 -0.6462  1.1085 -1.8116
  557MOL0     H76858   3.073   7.205   9.309  0.2214  1.5872 -1.0142
  557MOL0     H76859   3.069   7.282   9.474  1.2804 -2.2312  0.6911
  557MOL0     H76860   2.927   7.366   9.219  1.9902 -1.1907  0.0021
  557MOL0     H76861   2.927   7.471   9.357 -3.7310 -0.2391  0.3490
  557MOL0     H76862   2.629   7.218   9.474 -0.1852 -3.1097 -2.3346
  557MOL0     H76863   3.468   7.024   9.158 -0.4264  1.9586  0.0616
  557MOL0     H76864   3.815   6.924   9.063  0.7695 -1.0441  2.2900
  557MOL0     H76865   3.716   6.843   9.174  0.6681  0.6583 -0.5594
  557MOL0     H76866   3.648   6.897   9.019 -2.0658  3.5108  1.0025
  558MOL0     O76867   7.263   9.996   0.467  0.2991 -0.5597  0.2548
  558MOL0     C76868   7.188   9.900   0.501 -0.5112 -0.3074 -0.1114
  558MOL0     O76869   7.235   9.792   0.568 -0.6076 -0.6534 -0.1486
  558MOL0     C76870   7.362   9.786   0.618  1.0169  0.2537  0.3792
  558MOL0     C76871   7.473   9.803   0.542 -0.1024  0.3286  0.1557
  558MOL0     C76872   7.596   9.791   0.612  0.6654 -0.8134 -0.3149
  558MOL0     C76873   7.604   9.775   0.753 -0.5208 -0.2263 -0.1334
  558MOL0     O76874   7.730   9.779   0.808  0.0150 -1.3398 -0.7673
  558MOL0     C76875   7.744   9.703   0.935  0.3596  0.1409  0.4415
  558MOL0     C76876   7.890   9.701   0.982  0.4962 -0.1229 -0.2713
  558MOL0     C76877   7.917   9.572   1.060 -0.1510  0.5206 -0.4162
  558MOL0     C76878   8.051   9.559   1.133  0.1199 -0.1959  0.0944
  558MOL0     C76879   8.049   9.427   1.224  0.8397 -0.1544 -0.0785
  558MOL0     C76880   8.161   9.445   1.322 -0.0456  0.6023  0.3566
  558MOL0     C76881   8.184   9.318   1.413 -0.4609  0.1980  1.2702
  558MOL0     C76882   8.328   9.316   1.456  0.3085 -0.0365  0.0472
  558MOL0     N76883   8.365   9.206   1.545  0.0138 -0.4276 -0.2028
  558MOL0     C76884   8.488   9.191   1.601 -0.8465 -0.1591 -0.6694
  558MOL0     C76885   8.476   9.072   1.665 -0.3505 -0.3267  0.0347
  558MOL0     C76886   8.595   9.017   1.737 -0.2031 -0.4582 -0.5477
  558MOL0     C76887   8.587   9.040   1.890  0.9255  0.8675 -0.2111
  558MOL0     C76888   8.461   8.973   1.951  0.6651 -0.6983 -0.2235
  558MOL0     C76889   8.452   8.822   1.947 -0.0147  0.1678  0.1055
  558MOL0     O76890   8.322   8.779   1.994 -0.7892 -0.2650  0.1723
  558MOL0     C76891   8.217   8.758   1.914  0.0806 -0.6344  0.1169
  558MOL0     C76892   8.209   8.763   1.774 -0.6009  0.3571  0.2127
  558MOL0     C76893   8.096   8.716   1.699 -0.4138  0.3620 -0.5124
  558MOL0     C76894   8.110   8.724   1.553 -0.1277 -0.4300  0.5533
  558MOL0     C76895   7.986   8.667   1.775  0.4631 -0.8172 -0.5091
  558MOL0     C76896   7.867   8.609   1.705 -0.1557  0.7247  0.1029
  558MOL0     O76897   7.899   8.537   1.589  0.3423  0.4799 -0.3782
  558MOL0     C76898   7.794   8.478   1.525 -0.4514 -0.2526 -0.2336
  558MOL0     C76899   7.795   8.340   1.489  0.5717 -0.5110 -0.2331
  558MOL0     C76900   7.697   8.281   1.417  0.5913  0.0094  0.9759
  558MOL0     C76901   7.579   8.354   1.380  0.0757 -0.4579 -0.3919
  558MOL0     O76902   7.476   8.290   1.313  0.0575 -0.6204 -0.5108
  558MOL0     C76903   7.365   8.259   1.400  0.5965 -0.3988 -0.2241
  558MOL0     C76904   7.257   8.196   1.313  0.5492 -0.1814  0.5451
  558MOL0     C76905   7.123   8.157   1.388 -0.4902 -0.3784  0.5430
  558MOL0     C76906   7.039   8.069   1.302  0.1485  0.4131 -0.1524
  558MOL0     C76907   6.928   8.004   1.383 -0.2628  1.3618  0.3403
  558MOL0     C76908   6.861   7.893   1.297  0.4980  0.3279 -0.1733
  558MOL0     C76909   6.735   7.856   1.377 -0.2195 -0.3653 -0.3983
  558MOL0     C76910   6.711   7.701   1.365  0.1348  0.4627 -0.4877
  558MOL0    Cl76911   6.559   7.640   1.445  0.0750 -0.1670  0.4117
  558MOL0     C76912   7.571   8.492   1.416 -0.2153 -0.0640 -0.6527
  558MOL0     C76913   7.676   8.552   1.494  0.2525 -0.7985 -0.0935
  558MOL0     O76914   7.757   8.626   1.754  0.0167 -0.1584 -0.3281
  558MOL0     C76915   7.996   8.665   1.914  0.0982  0.0694  0.1398
  558MOL0     C76916   8.104   8.717   1.984 -0.3038  0.8081  0.1102
  558MOL0     N76917   8.350   9.022   1.647 -0.2326 -0.5628 -0.1928
  558MOL0     N76918   8.284   9.099   1.563  0.0007  0.1603 -1.1935
  558MOL0     C76919   7.481   9.776   0.827 -0.2609 -0.3523 -0.0268
  558MOL0     C76920   7.364   9.770   0.753 -0.0256 -0.8912  0.0198
  558MOL0     C76921   7.041   9.892   0.463  0.8076 -0.0342 -0.7714
  558MOL0     C76922   6.984   9.767   0.446  0.5937 -1.0356  0.9116
  558MOL0     C76923   6.851   9.744   0.404  0.5065 -0.1391 -0.3645
  558MOL0     C76924   6.771   9.852   0.381 -0.5359 -0.6596  0.2821
  558MOL0     O76925   6.640   9.833   0.341 -0.4690 -0.5790 -0.2976
  558MOL0     C76926   6.544   9.928   0.391 -0.4530 -0.6554 -0.2818
  558MOL0     C76927   6.399   9.872   0.405 -0.3414 -0.0696  0.5834
  558MOL0     C76928   6.348   9.779   0.286 -0.1848  0.5597 -0.4084
  558MOL0     C76929   6.393   9.822   0.143 -0.5265  0.0838  0.7127
  558MOL0     C76930   6.351   9.965   0.121 -0.1168 -0.4269 -0.4888
  558MOL0     C76931   6.320  10.089   0.107 -1.1132  0.6526 -0.3735
  558MOL0     C76932   6.832   9.984   0.384  0.1822 -0.2437  0.4444
  558MOL0     C76933   6.964  10.009   0.427  0.4329  0.0173 -0.0525
  558MOL0     C76934   7.014  10.150   0.440  0.2030  0.1873 -0.6527
  558MOL0     H76935   7.470   9.820   0.435 -1.8231  0.9979  0.2805
  558MOL0     H76936   7.685   9.792   0.548  0.0219 -1.9288 -1.2838
  558MOL0     H76937   7.709   9.603   0.911  0.9826  0.2320 -0.9612
  558MOL0     H76938   7.690   9.748   1.019  0.4517  0.6061  0.2547
  558MOL0     H76939   7.959   9.717   0.898  1.8227  0.0440  0.8164
  558MOL0     H76940   7.895   9.791   1.045 -1.1993 -0.1576 -0.0504
  558MOL0     H76941   7.830   9.570   1.127 -0.5842 -1.7081 -0.9726
  558MOL0     H76942   7.908   9.481   1.001  0.6148 -0.8378  1.4428
  558MOL0     H76943   8.134   9.555   1.062  0.2952 -0.6258  0.3187
  558MOL0     H76944   8.069   9.646   1.198  1.1942 -1.0893  1.0455
  558MOL0     H76945   8.064   9.343   1.155 -2.1725 -0.5709 -0.3785
  558MOL0     H76946   7.958   9.412   1.283  1.4150 -0.6335  0.6993
  558MOL0     H76947   8.256   9.471   1.275 -0.0777  3.7153  1.7667
  558MOL0     H76948   8.147   9.536   1.381 -2.9200 -1.4912  3.3267
  558MOL0     H76949   8.163   9.226   1.359  0.8011  0.2517  0.6548
  558MOL0     H76950   8.117   9.323   1.499 -1.2973 -2.6648  0.8763
  558MOL0     H76951   8.396   9.313   1.370  0.0260 -2.5085 -0.1713
  558MOL0     H76952   8.342   9.412   1.508  1.1577 -1.0117  1.7139
  558MOL0     H76953   8.566   9.267   1.601  1.8961 -2.7679 -0.2719
  558MOL0     H76954   8.686   9.057   1.693 -0.7518 -0.2668 -1.5390
  558MOL0     H76955   8.590   8.908   1.721 -0.0213 -0.4492 -0.6784
  558MOL0     H76956   8.673   9.002   1.946  0.3398  1.1057  0.8650
  558MOL0     H76957   8.594   9.148   1.902 -0.8584  1.1182 -1.1760
  558MOL0     H76958   8.461   8.995   2.058  2.4078  2.3812 -0.7440
  558MOL0     H76959   8.368   9.016   1.911  1.2044  1.7655  0.9977
  558MOL0     H76960   8.466   8.773   1.851 -0.3871 -1.3431  0.7889
  558MOL0     H76961   8.525   8.778   2.016  0.7427  2.3258  0.7485
  558MOL0     H76962   8.299   8.781   1.716 -0.7295 -0.5738 -0.2878
  558MOL0     H76963   8.190   8.792   1.521 -0.9352 -0.0581 -0.7524
  558MOL0     H76964   8.016   8.763   1.513  0.8134  1.2375 -0.1519
  558MOL0     H76965   8.125   8.626   1.508  1.1941  0.3141 -0.7425
  558MOL0     H76966   7.877   8.272   1.513  0.0313 -1.6895 -1.6353
  558MOL0     H76967   7.712   8.175   1.404 -0.5468  0.0320 -0.8570
  558MOL0     H76968   7.395   8.193   1.482  4.1495  1.0738 -0.1782
  558MOL0     H76969   7.333   8.356   1.438  2.1805 -1.2324  3.7465
  558MOL0     H76970   7.227   8.279   1.248 -4.0891 -0.1922  2.2808
  558MOL0     H76971   7.294   8.115   1.249  1.7603  1.4698 -0.9594
  558MOL0     H76972   7.074   8.254   1.394 -1.4849 -0.7057 -1.6579
  558MOL0     H76973   7.148   8.102   1.479  2.1766 -0.0855  0.0808
  558MOL0     H76974   7.098   7.993   1.250 -2.2982 -1.7542  0.0233
  558MOL0     H76975   6.994   8.134   1.226  2.0977  2.8826  0.6989
  558MOL0     H76976   6.957   7.962   1.479 -3.5613  0.7467  1.1877
  558MOL0     H76977   6.854   8.080   1.411  0.0048  1.2872  1.2655
  558MOL0     H76978   6.923   7.804   1.289  2.5155  1.8444 -3.6394
  558MOL0     H76979   6.818   7.914   1.198 -0.5971  0.3296  0.2916
  558MOL0     H76980   6.645   7.910   1.346 -0.2837 -1.1322 -1.5932
  558MOL0     H76981   6.748   7.898   1.478  0.0205 -0.4859 -0.3798
  558MOL0     H76982   6.801   7.672   1.421 -0.4613 -1.0021 -0.2547
  558MOL0     H76983   6.711   7.673   1.260 -2.8815 -3.0151  0.2610
  558MOL0     H76984   7.473   8.533   1.394 -1.9026 -1.5355  3.3102
  558MOL0     H76985   7.671   8.656   1.523  0.8114 -0.7123 -0.2963
  558MOL0     H76986   7.914   8.621   1.969  2.1754 -1.0753  2.5079
  558MOL0     H76987   8.118   8.729   2.091 -1.1238 -2.2840  0.6427
  558MOL0     H76988   7.471   9.780   0.934  0.3139 -1.7673  0.1018
  558MOL0     H76989   7.267   9.758   0.801  0.1229 -0.8395  0.3362
  558MOL0     H76990   7.045   9.678   0.458  0.0251 -1.5825 -0.1713
  558MOL0     H76991   6.801   9.647   0.406 -2.3222  1.2361  1.1797
  558MOL0     H76992   6.576   9.972   0.486 -2.4542 -0.3431  0.3039
  558MOL0     H76993   6.540  10.007   0.315 -4.0752 -0.1341  0.2751
  558MOL0     H76994   6.336   9.960   0.419  1.9915  1.4535  2.1316
  558MOL0     H76995   6.391   9.827   0.504 -0.9575  2.0096  1.5264
  558MOL0     H76996   6.386   9.678   0.304 -1.7889 -0.6017 -3.0384
  558MOL0     H76997   6.239   9.776   0.291 -0.1424 -1.7218  0.2780
  558MOL0     H76998   6.357   9.757   0.062  0.0842 -0.7283  1.0867
  558MOL0     H76999   6.502   9.818   0.137 -0.3646  2.4675  1.2111
  558MOL0     H77000   6.290  10.190   0.089 -0.8232  0.7875 -0.1139
  558MOL0     H77001   6.769  10.069   0.362 -0.6050 -0.8598  0.2698
  558MOL0     H77002   7.088  10.173   0.517  1.7379  4.8544 -3.1353
  558MOL0     H77003   7.051  10.176   0.340 -3.5801 -1.7037 -2.7691
  558MOL0     H77004   6.934  10.225   0.447  0.0085 -0.1738  2.8557
  559MOL0     O77005   3.767   1.266  11.402 -0.6120  0.3862  0.3163
  559MOL0     C77006   3.681   1.267  11.487 -0.3358 -0.5297  0.1351
  559MOL0     O77007   3.686   1.221  11.612 -0.1505 -0.2847  0.1754
  559MOL0     C77008   3.796   1.147  11.653 -0.5048 -0.3128  0.2954
  559MOL0     C77009   3.928   1.188  11.624  0.9835  0.1984  0.4339
  559MOL0     C77010   4.040   1.110  11.657  0.6364 -0.0734  0.3210
  559MOL0     C77011   4.028   0.992  11.725  1.1058 -1.0976 -0.1344
  559MOL0     O77012   4.137   0.926  11.776  0.3464  0.8715 -0.1378
  559MOL0     C77013   4.129   0.887  11.920 -0.7101  0.8808 -0.2618
  559MOL0     C77014   4.268   0.854  11.966 -0.2870 -0.4444 -0.4971
  559MOL0     C77015   4.366   0.972  11.985  0.3968  0.0854  0.1899
  559MOL0     C77016   4.507   0.924  11.990  0.1152  0.2088  0.6468
  559MOL0     C77017   4.571   0.887  11.861  0.5948  0.4362 -0.4213
  559MOL0     C77018   4.551   0.992  11.749 -0.5724 -0.0300 -0.3094
  559MOL0     C77019   4.620   1.127  11.773 -0.4059  0.2521  0.1816
  559MOL0     C77020   4.771   1.133  11.767 -0.2638  0.0256 -0.2236
  559MOL0     N77021   4.817   1.273  11.763  0.7375  0.7533  0.3481
  559MOL0     C77022   4.870   1.334  11.652  0.2668  0.3248 -0.0908
  559MOL0     C77023   4.881   1.460  11.689  0.7655 -0.6451 -0.9551
  559MOL0     C77024   4.921   1.572  11.601 -0.2533 -0.0017 -0.4632
  559MOL0     C77025   5.060   1.615  11.638  0.1832  0.0916  0.2667
  559MOL0     C77026   5.163   1.498  11.633  0.5947  0.3379  0.0485
  559MOL0     C77027   5.309   1.549  11.634 -0.3724 -0.4084 -0.4039
  559MOL0     O77028   5.340   1.593  11.769 -0.2064 -0.6202  0.6804
  559MOL0     C77029   5.405   1.711  11.782 -0.3249 -0.2739 -0.9181
  559MOL0     C77030   5.513   1.756  11.708 -0.0417  0.2483 -0.7301
  559MOL0     C77031   5.578   1.879  11.736  0.4329  0.1337  0.2959
  559MOL0     C77032   5.692   1.919  11.650 -0.6392 -0.4092  0.4060
  559MOL0     C77033   5.543   1.950  11.852 -0.8190 -0.3872 -0.3593
  559MOL0     C77034   5.599   2.084  11.884 -0.3227 -0.2966  0.0677
  559MOL0     O77035   5.672   2.082  11.994 -0.3293  0.1111 -0.4360
  559MOL0     C77036   5.706   2.197  12.065 -0.4756 -0.7626  0.3392
  559MOL0     C77037   5.823   2.204  12.139 -0.5492 -0.8287  0.7208
  559MOL0     C77038   5.855   2.319  12.215 -0.4787 -0.0192  0.2962
  559MOL0     C77039   5.764   2.431  12.220 -0.2013 -0.2198  0.5255
  559MOL0     O77040   5.811   2.546  12.282  0.0849  0.0085 -0.1394
  559MOL0     C77041   5.911   2.535  12.382  0.5621 -0.4668 -0.4994
  559MOL0     C77042   5.895   2.630  12.491  0.1616 -0.2042  0.1088
  559MOL0     C77043   6.040   2.654  12.551  0.5676  0.1487  0.3386
  559MOL0     C77044   6.108   2.529  12.623  0.3606  0.6999  0.0924
  559MOL0     C77045   6.253   2.547  12.669 -0.0914 -0.9251  0.3844
  559MOL0     C77046   6.301   2.418  12.733 -0.4010  0.0635  0.7003
  559MOL0     C77047   6.404   2.461  12.828 -0.3086  0.0937 -0.1885
  559MOL0     C77048   6.507   2.350  12.858 -0.0211 -0.0829 -0.3090
  559MOL0    Cl77049   6.414   2.196  12.876 -0.0104 -0.0521 -0.0870
  559MOL0     C77050   5.651   2.429  12.140  0.5312  0.5035  0.5344
  559MOL0     C77051   5.618   2.306  12.061  0.1697  0.7870 -0.0208
  559MOL0     O77052   5.594   2.176  11.800  0.3475 -0.1310  0.0036
  559MOL0     C77053   5.444   1.896  11.932  0.6671 -0.4171 -0.5520
  559MOL0     C77054   5.370   1.780  11.899 -0.3214  0.1560  0.3162
  559MOL0     N77055   4.841   1.474  11.825 -0.6787 -0.4148 -0.1412
  559MOL0     N77056   4.810   1.359  11.870 -0.0577  0.1382  0.5221
  559MOL0     C77057   3.895   0.958  11.762 -0.0690 -0.3821  0.2644
  559MOL0     C77058   3.783   1.034  11.724  0.7357  0.2950  0.2145
  559MOL0     C77059   3.558   1.338  11.453 -0.1754  0.4038 -0.8665
  559MOL0     C77060   3.489   1.389  11.563  0.0863  0.3751  0.0584
  559MOL0     C77061   3.372   1.462  11.544 -0.0839 -0.9863 -0.1421
  559MOL0     C77062   3.326   1.496  11.416  0.9059 -0.9014  0.3119
  559MOL0     O77063   3.216   1.572  11.386  0.3838 -0.0987 -0.0093
  559MOL0     C77064   3.119   1.610  11.485 -0.0641 -0.2042 -0.5923
  559MOL0     C77065   2.980   1.652  11.424  0.6145  0.1892  0.0045
  559MOL0     C77066   2.978   1.793  11.384  0.1409 -0.6497 -1.0953
  559MOL0     C77067   3.063   1.829  11.269  0.5328 -0.1947 -0.1735
  559MOL0     C77068   3.030   1.965  11.229  0.6127 -0.0653 -0.7836
  559MOL0     C77069   3.009   2.081  11.202  0.3739 -0.1351  0.4388
  559MOL0     C77070   3.404   1.462  11.307 -0.1526 -0.3352 -0.2801
  559MOL0     C77071   3.512   1.377  11.322 -0.6931  0.0685  0.1886
  559MOL0     C77072   3.593   1.338  11.195 -0.2083  0.1733  0.4702
  559MOL0     H77073   3.953   1.286  11.583  2.2442 -0.1248  0.3926
  559MOL0     H77074   4.133   1.145  11.614 -0.3627  0.0757 -1.8165
  559MOL0     H77075   4.067   0.801  11.944 -0.6968  1.3922  1.7463
  559MOL0     H77076   4.088   0.979  11.964 -0.3861 -0.8386  4.0936
  559MOL0     H77077   4.266   0.818  12.069  1.9412 -0.3412 -0.3683
  559MOL0     H77078   4.310   0.773  11.906  3.2648 -0.0799  1.2165
  559MOL0     H77079   4.345   1.042  11.903  2.8880 -1.2952 -1.7910
  559MOL0     H77080   4.330   1.033  12.069 -2.2754  0.2234 -0.9774
  559MOL0     H77081   4.571   0.996  12.042  0.6648 -0.4068  0.8386
  559MOL0     H77082   4.505   0.837  12.056  2.3120  1.0697  1.9599
  559MOL0     H77083   4.543   0.785  11.834  3.3709 -0.8171  1.0581
  559MOL0     H77084   4.679   0.874  11.872  0.8718  0.3667 -2.6901
  559MOL0     H77085   4.588   0.949  11.655  3.0643  1.4329  0.2829
  559MOL0     H77086   4.445   1.018  11.746 -0.1428  1.8956 -0.0696
  559MOL0     H77087   4.591   1.168  11.870  1.1566  0.7668  0.4666
  559MOL0     H77088   4.576   1.199  11.704 -0.9898  0.0920  0.3814
  559MOL0     H77089   4.826   1.093  11.853 -0.2694  0.7639  0.1272
  559MOL0     H77090   4.801   1.075  11.679  0.2852  1.9333 -1.3426
  559MOL0     H77091   4.886   1.293  11.553 -0.1706  1.3258 -0.5893
  559MOL0     H77092   4.855   1.658  11.613  1.7004  1.8835 -2.2680
  559MOL0     H77093   4.913   1.552  11.494  0.1596  0.3049 -0.5560
  559MOL0     H77094   5.090   1.692  11.567 -0.4808  0.0788 -0.0375
  559MOL0     H77095   5.059   1.649  11.742  0.8863  1.7949 -0.2537
  559MOL0     H77096   5.156   1.430  11.718  0.8861 -0.6944 -0.7363
  559MOL0     H77097   5.126   1.433  11.553 -0.8612  1.3390 -0.1288
  559MOL0     H77098   5.374   1.471  11.594  1.6037  0.4885  0.9478
  559MOL0     H77099   5.313   1.639  11.571 -0.1640 -1.2685 -1.6560
  559MOL0     H77100   5.537   1.710  11.613 -2.1448  0.9782 -1.6785
  559MOL0     H77101   5.724   1.831  11.593  1.6681 -0.6103  1.8854
  559MOL0     H77102   5.778   1.952  11.710  0.2443 -1.7333 -0.0883
  559MOL0     H77103   5.662   2.000  11.583 -0.8412  0.0708  1.0640
  559MOL0     H77104   5.894   2.122  12.145  0.9886  0.2129 -1.7862
  559MOL0     H77105   5.945   2.319  12.275 -2.2885  2.2247  3.3592
  559MOL0     H77106   5.911   2.434  12.424 -1.1206  0.6574  2.5014
  559MOL0     H77107   6.009   2.538  12.332  1.5502 -0.4964  1.3335
  559MOL0     H77108   5.854   2.723  12.450  0.6655  0.2071  0.5368
  559MOL0     H77109   5.831   2.590  12.570 -0.4993 -1.4468 -1.0052
  559MOL0     H77110   6.039   2.732  12.628  1.8284  2.4335 -1.8380
  559MOL0     H77111   6.102   2.702  12.475 -3.0593  2.8852 -1.2086
  559MOL0     H77112   6.125   2.466  12.535 -1.6463  1.9209 -1.2802
  559MOL0     H77113   6.052   2.480  12.703 -1.9666  1.5431 -0.9368
  559MOL0     H77114   6.315   2.568  12.581  1.8590  1.4338  2.2185
  559MOL0     H77115   6.251   2.636  12.732 -1.0442 -1.6678  1.4317
  559MOL0     H77116   6.335   2.357  12.649 -2.0137  1.7033 -1.2304
  559MOL0     H77117   6.224   2.363  12.788  0.5767 -0.5610  1.4891
  559MOL0     H77118   6.357   2.489  12.923  0.4737 -1.0027  0.5421
  559MOL0     H77119   6.455   2.547  12.784 -1.1401  0.4218 -0.5263
  559MOL0     H77120   6.561   2.386  12.946 -1.2283  0.4693  0.2225
  559MOL0     H77121   6.574   2.336  12.772  1.2742 -2.3746  0.9868
  559MOL0     H77122   5.570   2.501  12.147  0.0461  0.2046 -1.3362
  559MOL0     H77123   5.520   2.296  12.017 -1.0011  3.1588  1.8004
  559MOL0     H77124   5.405   1.962  12.008 -2.2568 -1.1073 -1.3120
  559MOL0     H77125   5.291   1.752  11.967 -0.3531  0.2905  0.3351
  559MOL0     H77126   3.878   0.864  11.814  0.5380 -0.8757 -0.4112
  559MOL0     H77127   3.682   1.007  11.751  0.3083  0.0144 -1.5817
  559MOL0     H77128   3.516   1.374  11.667  0.4975 -1.6398 -0.3017
  559MOL0     H77129   3.315   1.500  11.628 -2.4637 -1.0514 -1.6211
  559MOL0     H77130   3.088   1.527  11.549 -3.2263  1.9935  1.0342
  559MOL0     H77131   3.146   1.693  11.552  0.4074 -0.0647 -0.9443
  559MOL0     H77132   2.907   1.629  11.502 -1.9099  1.0004 -1.9902
  559MOL0     H77133   2.949   1.593  11.338 -0.6513 -1.7461  1.6851
  559MOL0     H77134   2.873   1.814  11.362 -0.8841 -0.7762  2.8921
  559MOL0     H77135   3.004   1.859  11.467  1.4689 -3.9653  1.3534
  559MOL0     H77136   3.029   1.759  11.192 -0.7454  1.4446 -1.1705
  559MOL0     H77137   3.170   1.813  11.285  0.6006 -1.5493 -1.7170
  559MOL0     H77138   2.983   2.184  11.193  0.3515 -0.1879 -0.1463
  559MOL0     H77139   3.367   1.491  11.209 -3.5834  0.4169  1.1160
  559MOL0     H77140   3.696   1.375  11.192 -0.5290  1.0595 -0.3990
  559MOL0     H77141   3.601   1.230  11.180  1.3484  0.3120  0.1598
  559MOL0     H77142   3.551   1.378  11.101  3.1246 -0.4979 -1.4456
  560MOL0     O77143   8.347   5.017   9.963  0.3823  0.0698 -0.0000
  560MOL0     C77144   8.282   5.085  10.046  0.4256  0.8996  0.1463
  560MOL0     O77145   8.331   5.149  10.151 -0.8661  0.3541 -0.2500
  560MOL0     C77146   8.472   5.129  10.177  0.6768 -0.9541 -0.6808
  560MOL0     C77147   8.523   5.048  10.275  0.2225 -0.5562  0.2977
  560MOL0     C77148   8.656   5.032  10.297 -0.5486 -0.1465  0.7719
  560MOL0     C77149   8.752   5.102  10.214  0.1412  1.2395 -0.2473
  560MOL0     O77150   8.884   5.094  10.239  0.1578 -0.0118  0.0862
  560MOL0     C77151   8.961   5.214  10.227  0.3042  0.6728  0.5866
  560MOL0     C77152   9.086   5.199  10.304 -0.8081 -1.3801  0.3472
  560MOL0     C77153   9.181   5.100  10.228  0.0347  0.1928  0.7766
  560MOL0     C77154   9.323   5.094  10.308 -0.6600 -0.3355 -0.1399
  560MOL0     C77155   9.427   4.984  10.266  0.0234 -0.1542 -1.0086
  560MOL0     C77156   9.472   5.000  10.122 -0.2586  0.1609  0.9723
  560MOL0     C77157   9.564   4.895  10.070 -0.3036  0.5917 -1.1641
  560MOL0     C77158   9.702   4.900  10.145  0.5607 -1.1721 -0.3959
  560MOL0     N77159   9.779   4.784  10.126 -0.0287 -0.5017  0.6459
  560MOL0     C77160   9.866   4.771  10.023  0.2455  0.1497 -0.5388
  560MOL0     C77161   9.925   4.650  10.050  0.2251  1.0139  0.2615
  560MOL0     C77162  10.038   4.601   9.957  1.0296 -0.0827 -0.1637
  560MOL0     C77163  10.109   4.477  10.009  0.4216  0.1263 -1.1694
  560MOL0     C77164  10.180   4.401   9.890  0.1514 -0.0034  0.0947
  560MOL0     C77165  10.235   4.263   9.927 -0.1373  0.5043  0.4776
  560MOL0     O77166  10.328   4.290  10.034  0.1425 -0.0045 -0.0616
  560MOL0     C77167  10.401   4.190  10.083  0.1814 -0.5802 -2.1013
  560MOL0     C77168  10.410   4.064  10.027 -0.4418  0.4017  0.6479
  560MOL0     C77169  10.490   3.964  10.085  0.3958 -0.4495 -0.1807
  560MOL0     C77170  10.484   3.821  10.030  0.0422 -0.1304  0.6147
  560MOL0     C77171  10.572   4.004  10.210  0.4819  0.5714 -0.2745
  560MOL0     C77172  10.667   3.912  10.271  0.4860 -0.2444  0.2798
  560MOL0     O77173  10.708   3.961  10.392  1.5523 -0.4942  0.2747
  560MOL0     C77174  10.771   3.867  10.471 -0.2764 -0.1366  0.0246
  560MOL0     C77175  10.896   3.897  10.518  0.5471  0.9617  0.1787
  560MOL0     C77176  10.971   3.798  10.594 -0.1767 -0.1524  0.4275
  560MOL0     C77177  10.922   3.678  10.626  0.1144 -0.3578 -0.3983
  560MOL0     O77178  10.989   3.582  10.703  0.4489  0.6455 -0.2418
  560MOL0     C77179  11.125   3.584  10.733 -0.1334 -0.0061  0.7998
  560MOL0     C77180  11.178   3.452  10.774  0.1667  0.0179 -0.1825
  560MOL0     C77181  11.316   3.463  10.830  0.0198  0.5898 -0.3175
  560MOL0     C77182  11.319   3.515  10.971 -0.3402 -0.4042  1.2221
  560MOL0     C77183  11.461   3.551  11.017  0.3392 -0.5345 -0.9685
  560MOL0     C77184  11.556   3.432  11.026 -0.4851 -0.1841  0.6583
  560MOL0     C77185  11.677   3.481  11.109  0.4292 -0.2415  0.2088
  560MOL0     C77186  11.790   3.377  11.116 -0.8577  0.3575 -0.0515
  560MOL0    Cl77187  11.744   3.217  11.170  0.0117  0.0629 -0.0410
  560MOL0     C77188  10.790   3.656  10.592  0.3525 -0.2759  0.0687
  560MOL0     C77189  10.707   3.751  10.531  0.1729  0.0372  0.7946
  560MOL0     O77190  10.694   3.799  10.224  0.4371 -0.1485  0.0251
  560MOL0     C77191  10.560   4.135  10.258  0.0665  0.4805  0.7422
  560MOL0     C77192  10.478   4.219  10.200 -0.3518 -0.2539  0.5201
  560MOL0     N77193   9.854   4.587  10.148 -0.0023 -0.3700 -0.3603
  560MOL0     N77194   9.763   4.667  10.195  0.2287 -0.9221  0.8375
  560MOL0     C77195   8.705   5.166  10.102  0.1324 -0.7773  0.3175
  560MOL0     C77196   8.567   5.188  10.090 -0.3185  0.3594 -0.4703
  560MOL0     C77197   8.134   5.098  10.023  0.5300 -0.5249  0.5409
  560MOL0     C77198   8.078   5.094   9.885 -0.2541  1.0960 -0.5631
  560MOL0     C77199   7.943   5.104   9.865  0.6488  0.1810  0.1170
  560MOL0     C77200   7.861   5.108   9.972 -0.2488  1.3406  0.0757
  560MOL0     O77201   7.735   5.105   9.923  0.0108  0.4653 -0.3946
  560MOL0     C77202   7.626   5.122  10.011 -0.2542  0.7096  0.0983
  560MOL0     C77203   7.516   5.196   9.921 -0.4928  0.1272  0.0756
  560MOL0     C77204   7.424   5.094   9.847 -0.2809 -0.1192 -0.1978
  560MOL0     C77205   7.505   5.014   9.745  0.4848 -0.7859 -0.1117
  560MOL0     C77206   7.573   5.104   9.645 -0.2708  0.4319  0.4802
  560MOL0     C77207   7.616   5.179   9.552 -0.4114  0.8046 -0.4593
  560MOL0     C77208   7.903   5.111  10.106 -0.2255  0.5007  0.5047
  560MOL0     C77209   8.040   5.107  10.133 -0.5915  0.7026  0.1812
  560MOL0     C77210   8.086   5.090  10.269  0.1465  0.2508  0.7091
  560MOL0     H77211   8.460   4.988  10.341  0.2951 -0.7438  0.1945
  560MOL0     H77212   8.683   4.956  10.369  0.0863 -0.6242  0.0480
  560MOL0     H77213   8.898   5.302  10.248 -0.6850  0.1057  0.0960
  560MOL0     H77214   8.984   5.221  10.120 -0.4379  1.1358  0.4447
  560MOL0     H77215   9.128   5.299  10.313 -1.2046 -1.0757 -1.0520
  560MOL0     H77216   9.062   5.162  10.404 -1.8809 -2.0111 -0.1327
  560MOL0     H77217   9.137   5.000  10.234  0.9966 -0.1671  2.2520
  560MOL0     H77218   9.196   5.124  10.122  0.0269 -1.5935  0.3337
  560MOL0     H77219   9.370   5.192  10.307  1.2775 -1.2057 -1.7317
  560MOL0     H77220   9.311   5.071  10.414  0.5981  0.5808  0.2302
  560MOL0     H77221   9.391   4.881  10.274  0.2470 -0.2467 -1.1697
  560MOL0     H77222   9.513   5.006  10.329 -1.2869  1.3612  0.3257
  560MOL0     H77223   9.387   5.020  10.056  0.0881 -0.4155  0.3392
  560MOL0     H77224   9.524   5.096  10.122  1.2122 -0.5925  1.9475
  560MOL0     H77225   9.587   4.913   9.965  2.4411  1.5144 -0.5123
  560MOL0     H77226   9.515   4.799  10.086 -0.6823  1.3878  4.8322
  560MOL0     H77227   9.761   4.988  10.120 -0.5675 -0.4513 -0.5721
  560MOL0     H77228   9.686   4.913  10.252  1.7892 -1.2055 -0.1924
  560MOL0     H77229   9.892   4.845   9.948 -1.9614  0.9607 -0.5855
  560MOL0     H77230  10.108   4.680   9.929  1.2345 -0.3037 -0.2839
  560MOL0     H77231   9.983   4.582   9.864 -0.5276  0.5565  0.5788
  560MOL0     H77232  10.187   4.499  10.082 -1.0464 -0.5383  0.6781
  560MOL0     H77233  10.044   4.401  10.053  0.8502 -0.4424 -1.4905
  560MOL0     H77234  10.113   4.378   9.807  2.6642 -0.2841 -1.9635
  560MOL0     H77235  10.258   4.463   9.846 -0.3099  0.6641  0.1914
  560MOL0     H77236  10.153   4.198   9.960  0.0682 -0.6964 -1.2332
  560MOL0     H77237  10.278   4.213   9.840 -1.9068  1.3499 -0.9390
  560MOL0     H77238  10.357   4.034   9.937  3.8612  1.9506 -2.8312
  560MOL0     H77239  10.584   3.788  10.000  0.0989  0.4429  0.1484
  560MOL0     H77240  10.430   3.804   9.936  0.9836 -0.5445  0.1300
  560MOL0     H77241  10.442   3.758  10.109  3.3791  0.2731  2.9575
  560MOL0     H77242  10.948   3.989  10.494 -0.5021  1.1744 -1.4483
  560MOL0     H77243  11.074   3.813  10.622  1.1459 -3.0171 -2.2478
  560MOL0     H77244  11.183   3.630  10.652 -0.3218  0.3513  0.8651
  560MOL0     H77245  11.147   3.656  10.812 -2.2672  1.8306 -0.1770
  560MOL0     H77246  11.117   3.388  10.838 -0.2431 -3.9929 -4.0773
  560MOL0     H77247  11.186   3.395  10.681  2.1249  0.2725 -0.2145
  560MOL0     H77248  11.375   3.531  10.767 -0.1037  0.4959 -0.5339
  560MOL0     H77249  11.362   3.365  10.819  0.5984  0.9306 -1.0543
  560MOL0     H77250  11.277   3.445  11.043  0.3029 -0.6901  1.3318
  560MOL0     H77251  11.265   3.609  10.989  0.7151  0.4275  0.2577
  560MOL0     H77252  11.506   3.624  10.949  0.5085  0.6093  0.3380
  560MOL0     H77253  11.451   3.610  11.109  1.3296  0.4412 -1.4642
  560MOL0     H77254  11.599   3.419  10.926  1.0901 -0.3687  1.3258
  560MOL0     H77255  11.522   3.335  11.062  0.5680 -1.4685 -1.5284
  560MOL0     H77256  11.639   3.515  11.205 -1.7535  0.9279 -0.9902
  560MOL0     H77257  11.723   3.572  11.068  0.5944  1.1069  3.1789
  560MOL0     H77258  11.857   3.411  11.195 -2.0774  2.4278  0.1552
  560MOL0     H77259  11.853   3.372  11.027 -0.0465 -0.4068  0.5456
  560MOL0     H77260  10.752   3.564  10.635 -1.0351  0.0546 -0.3990
  560MOL0     H77261  10.603   3.725  10.521  0.4802 -0.7202 -0.7533
  560MOL0     H77262  10.607   4.160  10.353 -0.5693 -0.8085  1.4204
  560MOL0     H77263  10.482   4.327  10.216  0.8780  0.4876 -3.5456
  560MOL0     H77264   8.776   5.210  10.033 -2.2194 -0.5464 -2.1165
  560MOL0     H77265   8.527   5.252  10.012 -2.2559 -1.9311 -1.5034
  560MOL0     H77266   8.136   5.089   9.793  1.8037  0.5900  0.6964
  560MOL0     H77267   7.899   5.094   9.766  1.1626 -1.1630  0.0031
  560MOL0     H77268   7.587   5.027  10.049 -0.8097  0.0362 -2.0350
  560MOL0     H77269   7.651   5.179  10.101  2.7938 -2.4027  1.4851
  560MOL0     H77270   7.562   5.273   9.858 -0.4358  2.2425  2.4902
  560MOL0     H77271   7.459   5.261   9.989 -1.4223  0.0082 -0.5807
  560MOL0     H77272   7.381   5.026   9.921 -0.2430  0.9384  0.8289
  560MOL0     H77273   7.340   5.144   9.796 -2.2576 -2.0801  0.9583
  560MOL0     H77274   7.432   4.945   9.700 -0.1511 -0.3073  0.1677
  560MOL0     H77275   7.579   4.956   9.800  1.2933  0.8720  0.6199
  560MOL0     H77276   7.640   5.247   9.473 -0.1500  1.5666  0.2641
  560MOL0     H77277   7.833   5.093  10.187  1.9373 -3.3064  1.7964
  560MOL0     H77278   8.005   5.055  10.333  1.7463 -1.9628  1.6513
  560MOL0     H77279   8.156   5.006  10.273  1.7529  1.4295 -0.7489
  560MOL0     H77280   8.140   5.178  10.305 -0.9628  0.7687  1.1508
  561MOL0     O77281   9.297   3.466   3.455  0.0563  0.1574 -0.4155
  561MOL0     C77282   9.189   3.438   3.502 -0.2165  0.3946  0.0833
  561MOL0     O77283   9.155   3.453   3.631 -0.1934 -0.2823  0.1589
  561MOL0     C77284   9.232   3.527   3.717 -0.1140 -0.1380 -0.0133
  561MOL0     C77285   9.199   3.521   3.855 -0.5070  0.4946  0.2182
  561MOL0     C77286   9.268   3.595   3.951 -0.2519  0.5993  0.1799
  561MOL0     C77287   9.384   3.664   3.921  0.2505 -0.4943 -0.2111
  561MOL0     O77288   9.467   3.720   4.025 -0.0052  0.7628  0.4821
  561MOL0     C77289   9.584   3.802   3.989 -0.2823  0.3390 -0.2103
  561MOL0     C77290   9.671   3.847   4.112 -0.3970 -1.1663  0.6136
  561MOL0     C77291   9.773   3.962   4.086  0.5637  0.3970 -0.5752
  561MOL0     C77292   9.876   3.914   3.981 -0.1679 -0.0465 -0.2313
  561MOL0     C77293   9.989   4.022   3.980 -0.1436 -0.1836  0.3377
  561MOL0     C77294  10.102   3.974   3.882  0.7734 -0.9834 -0.0544
  561MOL0     C77295  10.217   4.075   3.856 -0.1332 -1.3946  0.0104
  561MOL0     C77296  10.315   4.110   3.971  0.4693  0.0991  0.8850
  561MOL0     N77297  10.375   4.245   3.954  0.2272  0.0360  0.2176
  561MOL0     C77298  10.486   4.270   3.883  0.5720 -0.2070 -0.0873
  561MOL0     C77299  10.494   4.403   3.874  0.1866  0.0437  0.8642
  561MOL0     C77300  10.608   4.464   3.795 -0.5051 -1.4104 -0.8974
  561MOL0     C77301  10.680   4.569   3.881  0.2211  0.4209 -0.7339
  561MOL0     C77302  10.824   4.613   3.837  0.2507 -0.3833 -0.2353
  561MOL0     C77303  10.845   4.657   3.692  0.5152  0.3243  0.1140
  561MOL0     O77304  10.985   4.717   3.691 -0.0002  0.4957  0.1282
  561MOL0     C77305  11.065   4.719   3.572  0.3786 -0.3239  0.7133
  561MOL0     C77306  11.027   4.655   3.453 -1.1150 -0.6214  0.4776
  561MOL0     C77307  11.120   4.637   3.344 -0.0000  0.6632 -0.6618
  561MOL0     C77308  11.069   4.546   3.223  0.9722  0.5792  0.6524
  561MOL0     C77309  11.249   4.693   3.344  0.2813  0.1025 -0.1648
  561MOL0     C77310  11.353   4.671   3.242  0.1073 -0.1636 -0.7342
  561MOL0     O77311  11.461   4.755   3.258  0.3484 -0.4636  0.0721
  561MOL0     C77312  11.562   4.735   3.170  0.2911 -0.1063  0.1755
  561MOL0     C77313  11.654   4.629   3.183  0.3679 -0.3522 -0.5902
  561MOL0     C77314  11.774   4.627   3.121 -0.1308 -0.1615  0.0697
  561MOL0     C77315  11.801   4.728   3.028  0.2501  0.3835 -0.0690
  561MOL0     O77316  11.912   4.712   2.946 -0.0716 -0.2115 -0.4342
  561MOL0     C77317  11.931   4.796   2.830 -0.5292  0.4638  0.4556
  561MOL0     C77318  12.051   4.749   2.751 -0.4374  0.7419 -0.0367
  561MOL0     C77319  12.071   4.844   2.632  0.0472 -0.3545  0.2921
  561MOL0     C77320  12.219   4.887   2.612  0.1924  0.3521  0.5631
  561MOL0     C77321  12.229   4.986   2.489  0.0817  0.4974  0.3955
  561MOL0     C77322  12.355   4.961   2.405  0.0724  0.6208  0.4830
  561MOL0     C77323  12.358   4.817   2.350  0.3316  0.1453  0.9554
  561MOL0     C77324  12.463   4.723   2.410  0.0736 -0.2390  0.0287
  561MOL0    Cl77325  12.487   4.569   2.309  0.5218  0.0487 -0.1526
  561MOL0     C77326  11.711   4.832   3.012 -1.0974  0.4790  0.4088
  561MOL0     C77327  11.593   4.840   3.086 -0.2121 -0.0919  0.2356
  561MOL0     O77328  11.346   4.576   3.159  0.3443  0.9190 -0.5893
  561MOL0     C77329  11.280   4.764   3.464  0.0231  0.5475 -0.2771
  561MOL0     C77330  11.196   4.770   3.574  0.1860 -0.6304 -0.5458
  561MOL0     N77331  10.380   4.457   3.932  0.5105  0.8182 -0.3318
  561MOL0     N77332  10.301   4.355   3.971 -0.7007 -0.1918 -0.2277
  561MOL0     C77333   9.411   3.684   3.780  0.4730 -1.0771 -0.6481
  561MOL0     C77334   9.341   3.612   3.681 -0.4482  0.4221 -1.0602
  561MOL0     C77335   9.089   3.373   3.416 -1.3455  0.2256 -0.2819
  561MOL0     C77336   8.956   3.374   3.468 -0.0311 -0.1954  0.5164
  561MOL0     C77337   8.859   3.321   3.391 -0.4458  0.4903 -0.7677
  561MOL0     C77338   8.874   3.248   3.282 -0.1719 -0.1039  0.1855
  561MOL0     O77339   8.759   3.202   3.210  0.0523  0.4111  0.4377
  561MOL0     C77340   8.773   3.136   3.084 -1.2955 -0.0203 -0.1652
  561MOL0     C77341   8.649   3.058   3.055 -0.0722 -0.1330  0.1756
  561MOL0     C77342   8.652   2.991   2.918 -0.0474  0.0736  0.2973
  561MOL0     C77343   8.517   2.922   2.885 -0.2601 -0.3125 -0.5292
  561MOL0     C77344   8.529   2.837   2.760 -0.0470  0.4498 -0.4842
  561MOL0     C77345   8.536   2.751   2.672 -0.2834  0.3528  0.5831
  561MOL0     C77346   9.007   3.232   3.240  0.0355  0.2312  0.7101
  561MOL0     C77347   9.120   3.290   3.306 -0.2914 -0.8144 -0.4026
  561MOL0     C77348   9.263   3.246   3.262  0.7713  0.3632 -0.2568
  561MOL0     H77349   9.115   3.455   3.872  1.2707 -1.4805  1.8012
  561MOL0     H77350   9.246   3.598   4.058 -2.2191 -1.5396 -0.0954
  561MOL0     H77351   9.552   3.897   3.946 -0.0844 -0.0323 -1.1920
  561MOL0     H77352   9.641   3.738   3.922 -0.7790 -2.5986  1.9460
  561MOL0     H77353   9.612   3.889   4.194  0.1145  2.5202 -0.7403
  561MOL0     H77354   9.727   3.759   4.146  2.6876  0.8027  0.9504
  561MOL0     H77355   9.732   4.055   4.046  1.0254  1.5345  1.4188
  561MOL0     H77356   9.816   4.000   4.179 -2.8867  1.1359  0.8768
  561MOL0     H77357   9.916   3.818   4.015 -0.5569  0.9089  3.3231
  561MOL0     H77358   9.828   3.907   3.883  0.7775  1.1039 -0.8040
  561MOL0     H77359  10.036   4.028   4.079  0.1691  0.4299  0.1570
  561MOL0     H77360   9.954   4.122   3.952  0.1264  0.0515  0.8220
  561MOL0     H77361  10.153   3.886   3.922  1.5271 -0.5934 -0.1265
  561MOL0     H77362  10.054   3.940   3.790 -4.4868  1.4509  1.4147
  561MOL0     H77363  10.158   4.165   3.839 -3.4088 -2.5271  3.8170
  561MOL0     H77364  10.277   4.054   3.767  1.3517  1.8423  0.0937
  561MOL0     H77365  10.243   4.117   4.053  0.9117  1.4602  1.1891
  561MOL0     H77366  10.389   4.034   4.000  0.4849  0.0113  0.6175
  561MOL0     H77367  10.563   4.200   3.849  0.2504 -0.4981 -0.2234
  561MOL0     H77368  10.584   4.505   3.696  2.6192 -2.0938 -2.0445
  561MOL0     H77369  10.678   4.385   3.768  1.7303 -0.1821  0.9317
  561MOL0     H77370  10.620   4.657   3.904  1.9719  1.5011 -0.0861
  561MOL0     H77371  10.705   4.514   3.972  0.7702  1.1139 -0.4557
  561MOL0     H77372  10.847   4.694   3.907 -1.7069 -0.5928  0.7025
  561MOL0     H77373  10.898   4.533   3.849  1.7128  1.0622  0.8997
  561MOL0     H77374  10.826   4.567   3.632  1.6669 -1.8691  2.8327
  561MOL0     H77375  10.767   4.726   3.658 -0.1587 -0.2079  0.5541
  561MOL0     H77376  10.926   4.618   3.440 -1.7450  0.7934  1.0858
  561MOL0     H77377  11.064   4.444   3.263 -2.0317 -0.0244 -0.9914
  561MOL0     H77378  11.119   4.565   3.128 -3.3020  3.5038 -1.2738
  561MOL0     H77379  10.962   4.563   3.210  0.6333 -0.6211  1.6054
  561MOL0     H77380  11.630   4.544   3.246  2.3291 -0.8929 -0.4895
  561MOL0     H77381  11.836   4.544   3.154 -0.3516 -0.1998  0.3865
  561MOL0     H77382  11.854   4.792   2.753  1.2730  0.5266 -1.4643
  561MOL0     H77383  11.954   4.895   2.870  1.3898 -0.7348  2.5944
  561MOL0     H77384  12.137   4.747   2.818  1.2623 -1.5343 -2.0716
  561MOL0     H77385  12.040   4.646   2.715  0.4768  0.7202 -0.2803
  561MOL0     H77386  12.005   4.930   2.643  1.8066  1.3685 -1.7307
  561MOL0     H77387  12.036   4.791   2.543  1.3370 -1.2244  0.2762
  561MOL0     H77388  12.265   4.790   2.590  1.2095  1.3032 -1.9293
  561MOL0     H77389  12.267   4.922   2.704  1.8516 -3.4679  1.3204
  561MOL0     H77390  12.140   4.967   2.428  1.5438 -3.0005 -0.9320
  561MOL0     H77391  12.220   5.089   2.525  1.0604  0.4936  0.6741
  561MOL0     H77392  12.445   4.985   2.462 -1.2984 -0.5125  3.3189
  561MOL0     H77393  12.354   5.023   2.315 -0.9065 -0.5419 -0.3454
  561MOL0     H77394  12.388   4.830   2.246  2.8492  0.9183  1.7069
  561MOL0     H77395  12.261   4.769   2.360  1.1069 -1.1664  2.6457
  561MOL0     H77396  12.450   4.709   2.518  2.1774  1.8205  0.6297
  561MOL0     H77397  12.553   4.785   2.403 -0.8617  1.0074 -1.9364
  561MOL0     H77398  11.738   4.907   2.938  1.9250 -2.2985 -1.6098
  561MOL0     H77399  11.527   4.924   3.067  2.3812  2.0135 -0.0733
  561MOL0     H77400  11.380   4.804   3.476  0.3001 -0.1003 -0.3907
  561MOL0     H77401  11.220   4.828   3.663 -3.9377  0.8987 -0.2128
  561MOL0     H77402   9.494   3.748   3.752 -0.6480  1.1565  0.7927
  561MOL0     H77403   9.357   3.633   3.576 -2.2049  0.0007 -1.4458
  561MOL0     H77404   8.935   3.442   3.550  0.1811 -1.1031  1.3371
  561MOL0     H77405   8.764   3.323   3.444  0.4646 -1.3063  1.0772
  561MOL0     H77406   8.808   3.200   3.003  1.5986  1.8267  2.3404
  561MOL0     H77407   8.855   3.066   3.104 -0.9329  0.3285 -0.4146
  561MOL0     H77408   8.566   3.129   3.060 -0.0024  0.0021 -0.4714
  561MOL0     H77409   8.632   2.991   3.139 -0.4108 -0.0924  0.1402
  561MOL0     H77410   8.681   3.063   2.841  1.2852  0.7501  1.3996
  561MOL0     H77411   8.732   2.916   2.924  2.7122  2.8564  1.0642
  561MOL0     H77412   8.439   2.998   2.881 -1.7074 -1.5583  1.6065
  561MOL0     H77413   8.486   2.849   2.962  0.7204 -1.9894 -1.6546
  561MOL0     H77414   8.543   2.686   2.587 -2.5379 -0.6580  1.0892
  561MOL0     H77415   9.042   3.163   3.163 -0.1251 -1.0102  1.7309
  561MOL0     H77416   9.279   3.283   3.161  0.5888 -1.4554 -0.9953
  561MOL0     H77417   9.345   3.288   3.321 -0.7197  2.1764  0.6745
  561MOL0     H77418   9.262   3.137   3.269 -0.0117  0.4414  1.8512
  562MOL0     O77419   5.629  10.671   5.180  0.1141  0.7136  0.4173
  562MOL0     C77420   5.606  10.554   5.141 -0.6729  0.0129  0.5607
  562MOL0     O77421   5.704  10.458   5.125  0.0575 -0.5030  0.3410
  562MOL0     C77422   5.839  10.492   5.151  0.1329 -0.6206 -0.4842
  562MOL0     C77423   5.881  10.569   5.260 -0.7823  0.1832 -0.0136
  562MOL0     C77424   6.021  10.567   5.295  0.5354  0.3252  0.0490
  562MOL0     C77425   6.108  10.488   5.217 -0.2451  0.3710 -0.2560
  562MOL0     O77426   6.233  10.483   5.255  0.0352  1.0551 -0.3728
  562MOL0     C77427   6.264  10.354   5.309 -0.8520 -0.0858 -0.4650
  562MOL0     C77428   6.371  10.376   5.416  0.4918  0.2934 -0.8379
  562MOL0     C77429   6.509  10.387   5.353 -1.2196  0.2586 -0.2898
  562MOL0     C77430   6.594  10.442   5.476 -0.4563 -0.0291  0.3890
  562MOL0     C77431   6.722  10.509   5.424  0.4101  0.3544 -0.5630
  562MOL0     C77432   6.801  10.409   5.343  0.0388 -0.0550 -0.6228
  562MOL0     C77433   6.846  10.288   5.431  0.2152 -0.2733  0.1364
  562MOL0     C77434   6.939  10.321   5.547 -0.7353 -0.3855  0.3002
  562MOL0     N77435   7.053  10.402   5.516 -0.2295 -0.5213  0.1724
  562MOL0     C77436   7.168  10.363   5.450  0.1285  0.1257  0.4650
  562MOL0     C77437   7.244  10.477   5.441  0.7616  0.7162 -0.7189
  562MOL0     C77438   7.385  10.488   5.391 -0.8688 -0.2737  0.1616
  562MOL0     C77439   7.405  10.462   5.247  1.1376 -0.2608  0.5165
  562MOL0     C77440   7.533  10.520   5.185  0.1937  0.0701  0.3159
  562MOL0     C77441   7.666  10.461   5.233  0.1719  0.4037 -0.0506
  562MOL0     O77442   7.679  10.475   5.377 -0.0755  0.8715  0.5900
  562MOL0     C77443   7.809  10.456   5.425  0.1757  0.1671 -0.4829
  562MOL0     C77444   7.824  10.483   5.562  0.3967  0.1035  0.1686
  562MOL0     C77445   7.948  10.456   5.630  0.2236 -0.3861 -1.4520
  562MOL0     C77446   7.962  10.506   5.779  0.3185 -0.4327 -0.1378
  562MOL0     C77447   8.054  10.406   5.553  0.3998 -0.7846  0.3188
  562MOL0     C77448   8.180  10.357   5.607  0.1418 -0.0305  1.1191
  562MOL0     O77449   8.174  10.316   5.737  0.0712  0.1390 -0.2978
  562MOL0     C77450   8.289  10.271   5.800 -0.4363  0.1205  0.5794
  562MOL0     C77451   8.337  10.325   5.918 -0.2413  1.4263 -0.3331
  562MOL0     C77452   8.439  10.253   5.981  1.4003  0.5577  0.6697
  562MOL0     C77453   8.510  10.144   5.919 -0.5773  0.2112  0.1010
  562MOL0     O77454   8.612  10.080   5.990  0.3043  0.0437  0.1256
  562MOL0     C77455   8.669   9.967   5.926  0.2708 -0.0151 -0.2014
  562MOL0     C77456   8.757   9.886   6.018 -0.2876 -0.1842  0.5024
  562MOL0     C77457   8.882   9.965   6.073 -0.5497 -1.3518  0.2331
  562MOL0     C77458   8.985   9.868   6.123  0.0746  0.0368 -0.6028
  562MOL0     C77459   9.117   9.934   6.156 -0.2454 -1.0811 -0.2256
  562MOL0     C77460   9.202   9.846   6.251  0.1767  0.5708 -0.7381
  562MOL0     C77461   9.253   9.714   6.183  0.1953  0.3700 -0.1875
  562MOL0     C77462   9.340   9.630   6.276  0.0145 -0.5038 -1.0350
  562MOL0    Cl77463   9.258   9.572   6.419  0.5151  0.3134 -0.1530
  562MOL0     C77464   8.480  10.119   5.778  0.0823 -0.4104 -0.6468
  562MOL0     C77465   8.355  10.166   5.725 -0.9552  0.1880  0.3907
  562MOL0     O77466   8.287  10.376   5.544  0.8218 -0.2156  0.1406
  562MOL0     C77467   8.032  10.365   5.414  0.3789 -0.5037  0.2651
  562MOL0     C77468   7.910  10.393   5.356 -0.8766  0.8129  0.4525
  562MOL0     N77469   7.168  10.584   5.492 -0.1213  0.4447  0.4986
  562MOL0     N77470   7.057  10.536   5.544 -0.2308 -0.3828  0.0668
  562MOL0     C77471   6.061  10.418   5.103 -0.0812 -0.2860  0.4768
  562MOL0     C77472   5.924  10.416   5.075  0.3274 -0.9805  0.2981
  562MOL0     C77473   5.474  10.506   5.099  0.1384  0.9379  0.6637
  562MOL0     C77474   5.456  10.369   5.063 -1.6946 -1.5649 -0.8492
  562MOL0     C77475   5.336  10.319   5.024 -0.5913 -0.9053 -0.2022
  562MOL0     C77476   5.223  10.398   5.019  0.3335 -0.3351 -0.2186
  562MOL0     O77477   5.110  10.342   4.973 -0.6605 -0.6733  0.0218
  562MOL0     C77478   4.993  10.420   4.934 -0.6353 -0.7623 -0.4795
  562MOL0     C77479   4.906  10.352   4.829 -0.0471  0.1728 -1.1536
  562MOL0     C77480   4.757  10.324   4.871  0.1255 -0.2063 -0.5374
  562MOL0     C77481   4.673  10.287   4.745  0.0642  0.2403 -0.1317
  562MOL0     C77482   4.542  10.228   4.771 -0.0702 -0.7085  0.2703
  562MOL0     C77483   4.425  10.197   4.800 -0.5391 -0.2405  0.6080
  562MOL0     C77484   5.234  10.537   5.058  0.0935  0.3267 -0.4256
  562MOL0     C77485   5.357  10.591   5.095  0.4004 -0.2026  0.1179
  562MOL0     C77486   5.347  10.737   5.131 -0.0886  0.1179 -0.6293
  562MOL0     H77487   5.822  10.634   5.324 -1.1593 -0.4994  0.3355
  562MOL0     H77488   6.056  10.634   5.373  2.8370  1.2828 -1.6854
  562MOL0     H77489   6.293  10.282   5.232 -0.6897 -2.8685  2.0028
  562MOL0     H77490   6.170  10.310   5.345  0.4362 -1.5013  1.3895
  562MOL0     H77491   6.343  10.466   5.473  1.1342  0.9931 -1.6088
  562MOL0     H77492   6.363  10.286   5.477 -0.3195  0.6121 -0.4489
  562MOL0     H77493   6.536  10.287   5.318  1.7540 -0.0856  2.5298
  562MOL0     H77494   6.498  10.452   5.266 -2.8501 -0.7092 -0.8538
  562MOL0     H77495   6.529  10.518   5.519 -0.5051  0.2830 -0.2164
  562MOL0     H77496   6.618  10.367   5.551 -0.4183  0.4531  0.8689
  562MOL0     H77497   6.779  10.552   5.507 -4.6388  1.1012  3.0777
  562MOL0     H77498   6.697  10.592   5.358 -2.4867 -2.7455 -3.7911
  562MOL0     H77499   6.748  10.385   5.250  0.0017 -0.0201 -0.6113
  562MOL0     H77500   6.891  10.469   5.321 -0.1549  1.1363  1.5472
  562MOL0     H77501   6.901  10.230   5.356  0.0368 -2.7833  1.8252
  562MOL0     H77502   6.761  10.236   5.475 -0.4647 -0.3881 -1.2493
  562MOL0     H77503   6.899  10.371   5.635  2.1648  2.7005  0.0885
  562MOL0     H77504   6.977  10.220   5.569 -2.2116 -0.9767  0.2313
  562MOL0     H77505   7.181  10.260   5.420  1.6552  0.6943 -0.9570
  562MOL0     H77506   7.455  10.423   5.446 -1.5867  0.4431  2.0095
  562MOL0     H77507   7.432  10.583   5.418 -0.3381  0.6564 -3.5278
  562MOL0     H77508   7.410  10.354   5.233 -1.8923 -0.4748  0.5409
  562MOL0     H77509   7.318  10.508   5.201  0.5530  2.7083  4.1262
  562MOL0     H77510   7.534  10.514   5.076 -4.0170  0.0848  0.1243
  562MOL0     H77511   7.541  10.624   5.219 -2.1305 -0.0947  1.5779
  562MOL0     H77512   7.661  10.362   5.187  0.8296  0.1215  0.4667
  562MOL0     H77513   7.744  10.510   5.173  0.4403  0.5734  0.4269
  562MOL0     H77514   7.744  10.521   5.624 -0.0146 -0.4471 -0.0199
  562MOL0     H77515   7.873  10.556   5.818  0.1127 -1.0737  0.2273
  562MOL0     H77516   8.048  10.573   5.783  0.5885 -0.7500 -0.5986
  562MOL0     H77517   7.978  10.420   5.845 -0.7060 -1.2764 -0.9358
  562MOL0     H77518   8.293  10.409   5.973 -0.4976  2.8671 -2.6075
  562MOL0     H77519   8.447  10.275   6.088  0.0362 -0.5984  1.0429
  562MOL0     H77520   8.593   9.899   5.885 -1.2310  2.6215 -2.0569
  562MOL0     H77521   8.729   9.991   5.839 -1.1414 -1.4975 -1.6712
  562MOL0     H77522   8.691   9.850   6.098 -1.9635  1.3405 -0.1325
  562MOL0     H77523   8.795   9.793   5.974 -1.0399 -2.1027  3.5297
  562MOL0     H77524   8.857  10.039   6.149  1.6568 -1.9109  1.5981
  562MOL0     H77525   8.936  10.017   5.993  2.2178 -1.7723  1.7004
  562MOL0     H77526   9.006   9.789   6.050  0.6939 -0.8746  0.5214
  562MOL0     H77527   8.950   9.832   6.220  1.2122 -0.9690 -0.5367
  562MOL0     H77528   9.173   9.957   6.064 -0.6167  1.6089  0.1311
  562MOL0     H77529   9.102  10.029   6.207 -2.9764 -0.6350 -1.6480
  562MOL0     H77530   9.144   9.832   6.342  1.6333  0.3546  0.1840
  562MOL0     H77531   9.287   9.907   6.280  1.9657 -3.0390  2.4603
  562MOL0     H77532   9.281   9.736   6.080 -3.6660  0.6716 -1.2956
  562MOL0     H77533   9.164   9.652   6.177  1.1406 -1.1988  0.9956
  562MOL0     H77534   9.427   9.684   6.315 -1.1481  0.2385  0.6894
  562MOL0     H77535   9.368   9.536   6.229  1.0973 -0.2620 -0.8908
  562MOL0     H77536   8.542  10.049   5.724 -0.4099  0.9196 -3.0561
  562MOL0     H77537   8.320  10.119   5.634 -0.0035 -1.1988  0.7142
  562MOL0     H77538   8.108  10.323   5.349 -0.3442  0.4899 -1.2867
  562MOL0     H77539   7.887  10.336   5.267  0.7213 -2.2247  1.7867
  562MOL0     H77540   6.128  10.358   5.041 -1.4926 -0.8188 -0.5799
  562MOL0     H77541   5.891  10.349   4.996 -0.3751 -0.8935  0.5090
  562MOL0     H77542   5.542  10.303   5.072 -1.0208 -0.6191 -0.0748
  562MOL0     H77543   5.328  10.215   4.995 -1.9644 -0.0318 -3.5021
  562MOL0     H77544   4.936  10.439   5.025  1.6591  3.1042  0.3498
  562MOL0     H77545   5.025  10.520   4.902 -1.0773 -0.8176 -1.1211
  562MOL0     H77546   4.951  10.257   4.801 -0.2039 -0.2363 -0.0582
  562MOL0     H77547   4.900  10.397   4.729 -0.1020 -0.3326 -1.3789
  562MOL0     H77548   4.732  10.242   4.939 -2.5560  1.3951  0.5643
  562MOL0     H77549   4.704  10.410   4.913 -1.4893 -0.4024 -2.0971
  562MOL0     H77550   4.721  10.221   4.673 -3.1395 -1.1526 -1.1955
  562MOL0     H77551   4.670  10.375   4.681  2.5277  1.5042  1.3459
  562MOL0     H77552   4.324  10.170   4.824  0.2643 -3.7226  0.6335
  562MOL0     H77553   5.148  10.602   5.072  2.2798  2.9148  2.4784
  562MOL0     H77554   5.408  10.802   5.067 -1.8846  1.0602 -1.4633
  562MOL0     H77555   5.247  10.779   5.140 -0.1000 -0.3259  2.1255
  562MOL0     H77556   5.392  10.742   5.230 -0.9948 -1.1847 -0.1193
  563MOL0     O77557   8.379   9.726   1.464  0.4501 -1.0513  0.5489
  563MOL0     C77558   8.391   9.815   1.548  0.6859 -0.1263  0.1681
  563MOL0     O77559   8.299   9.902   1.582 -0.4825 -0.6870 -0.0233
  563MOL0     C77560   8.179   9.895   1.533 -0.7890  0.0618  0.0851
  563MOL0     C77561   8.084   9.859   1.627  0.2817  0.6983 -0.3337
  563MOL0     C77562   7.960   9.825   1.572  0.9026 -0.4214 -0.5652
  563MOL0     C77563   7.925   9.828   1.439  0.0807  0.2292  0.4529
  563MOL0     O77564   7.818   9.769   1.371  0.0865 -0.0132 -0.2453
  563MOL0     C77565   7.698   9.743   1.437 -0.0315  0.6460  1.1861
  563MOL0     C77566   7.641   9.603   1.379  0.7510 -0.4322  0.0443
  563MOL0     C77567   7.691   9.482   1.454  0.1082  0.3501  0.7333
  563MOL0     C77568   7.634   9.348   1.393 -0.5471  0.3306 -0.2993
  563MOL0     C77569   7.670   9.218   1.474  0.2449 -0.1166  0.3254
  563MOL0     C77570   7.813   9.195   1.512 -0.3428  0.2160 -0.2057
  563MOL0     C77571   7.841   9.085   1.620  0.0102 -0.4562  0.2681
  563MOL0     C77572   7.807   9.128   1.766 -0.1822  0.3510  0.4745
  563MOL0     N77573   7.880   9.244   1.806 -0.6254 -0.4962 -0.6806
  563MOL0     C77574   8.015   9.241   1.806 -0.1467 -0.4463  0.6852
  563MOL0     C77575   8.053   9.369   1.814 -0.5194  0.2303  1.3686
  563MOL0     C77576   8.197   9.409   1.791  0.5647 -0.6536  0.1959
  563MOL0     C77577   8.264   9.448   1.921  0.1199 -0.9373 -0.6273
  563MOL0     C77578   8.412   9.485   1.909 -0.1414  0.9789 -0.1738
  563MOL0     C77579   8.454   9.556   2.040  0.8483  0.3854  0.1083
  563MOL0     O77580   8.597   9.587   2.052  0.1372  0.3985  0.3328
  563MOL0     C77581   8.642   9.663   2.159  0.3751  0.9752  0.0153
  563MOL0     C77582   8.777   9.663   2.179  0.7919  0.4360 -0.1109
  563MOL0     C77583   8.841   9.726   2.291  1.0467  1.3589 -0.5041
  563MOL0     C77584   8.987   9.725   2.292  0.2136  0.6029 -0.2112
  563MOL0     C77585   8.756   9.793   2.385  1.0816  0.2854 -0.0078
  563MOL0     C77586   8.810   9.879   2.501  0.4776  0.3577  0.4619
  563MOL0     O77587   8.708   9.933   2.578  0.1502  0.5986 -0.0704
  563MOL0     C77588   8.722  10.060   2.620 -0.6987 -0.8851  0.2465
  563MOL0     C77589   8.745  10.086   2.764 -0.5219 -0.3051  1.0039
  563MOL0     C77590   8.739  10.217   2.814  0.3128  0.0290 -0.2329
  563MOL0     C77591   8.717  10.321   2.728  0.4742 -0.0962  0.0701
  563MOL0     O77592   8.717  10.449   2.772  0.4833 -0.4343 -0.6770
  563MOL0     C77593   8.591  10.518   2.750 -0.8397 -0.5038  1.0671
  563MOL0     C77594   8.588  10.665   2.792  0.2033  0.4085 -0.3427
  563MOL0     C77595   8.516  10.684   2.926 -0.5019 -0.1099  1.4699
  563MOL0     C77596   8.514  10.831   2.969 -0.1415 -0.3669  0.6537
  563MOL0     C77597   8.449  10.854   3.107  0.6632  0.4798  0.8772
  563MOL0     C77598   8.434  11.004   3.144  0.4730  0.1554 -0.3457
  563MOL0     C77599   8.320  11.014   3.243  0.1806 -0.3698 -0.0199
  563MOL0     C77600   8.303  11.165   3.288  0.3056  0.2943  0.0203
  563MOL0    Cl77601   8.230  11.151   3.456 -0.3739  0.2286  0.2406
  563MOL0     C77602   8.704  10.301   2.589  0.3014  0.2898 -0.0122
  563MOL0     C77603   8.706  10.174   2.535  0.4801 -0.8087 -0.1695
  563MOL0     O77604   8.926   9.908   2.505  0.1271 -0.6071 -0.6626
  563MOL0     C77605   8.613   9.791   2.363 -0.4566 -0.6025 -0.5208
  563MOL0     C77606   8.563   9.717   2.256  0.6816 -0.2864  0.2893
  563MOL0     N77607   7.938   9.453   1.809  0.5754  0.6060 -0.3877
  563MOL0     N77608   7.834   9.370   1.809 -0.3055  0.0595 -0.1415
  563MOL0     C77609   8.032   9.863   1.352 -1.2802 -0.6868 -1.3650
  563MOL0     C77610   8.160   9.899   1.395 -0.2398  0.2810  0.5192
  563MOL0     C77611   8.507   9.824   1.642  0.0927 -0.7690 -0.3127
  563MOL0     C77612   8.505   9.929   1.736 -0.7916  0.0420  0.0377
  563MOL0     C77613   8.607   9.936   1.834 -0.1425  0.3151  0.2640
  563MOL0     C77614   8.719   9.850   1.834  0.0118  0.4336 -0.2299
  563MOL0     O77615   8.836   9.867   1.910 -0.3036  0.3423 -0.2234
  563MOL0     C77616   8.844   9.965   2.017  0.1608 -0.1592 -0.0105
  563MOL0     C77617   8.874  10.109   1.965 -0.7665  0.4748  0.3655
  563MOL0     C77618   8.871  10.213   2.071  0.1138 -0.6597 -0.2551
  563MOL0     C77619   8.877  10.356   2.023 -0.3034  0.2896 -0.4560
  563MOL0     C77620   8.933  10.452   2.126  0.0927  0.4767 -0.5322
  563MOL0     C77621   8.984  10.526   2.204  0.2882  0.6996 -0.3456
  563MOL0     C77622   8.723   9.761   1.726 -0.3289 -0.0583 -0.3487
  563MOL0     C77623   8.619   9.739   1.641 -0.1071 -0.4432 -1.8850
  563MOL0     C77624   8.625   9.617   1.554  0.1159  0.3262 -0.7713
  563MOL0     H77625   8.109   9.843   1.731  0.9665 -0.3551 -0.6441
  563MOL0     H77626   7.893   9.794   1.652  1.1473 -0.3472 -0.3301
  563MOL0     H77627   7.633   9.824   1.403  0.1935 -0.1538 -1.3151
  563MOL0     H77628   7.696   9.745   1.546 -1.5992 -0.0325  1.2011
  563MOL0     H77629   7.531   9.605   1.383  0.7390  0.5182 -0.5135
  563MOL0     H77630   7.669   9.600   1.273 -1.7761  1.7446 -0.7972
  563MOL0     H77631   7.800   9.481   1.442  0.1695  1.5338  0.9844
  563MOL0     H77632   7.665   9.491   1.560  0.5054  1.3012  0.7664
  563MOL0     H77633   7.524   9.348   1.390 -0.5421 -0.3412 -0.6180
  563MOL0     H77634   7.676   9.335   1.293  0.7900  1.5181  0.0709
  563MOL0     H77635   7.634   9.127   1.426  1.3474 -1.0197  1.1677
  563MOL0     H77636   7.618   9.227   1.570  1.6648 -3.7153  1.5880
  563MOL0     H77637   7.868   9.164   1.423  1.7876  2.8983  0.0425
  563MOL0     H77638   7.867   9.282   1.552  1.2106 -2.1042  3.3495
  563MOL0     H77639   7.945   9.051   1.620  0.2744  0.2847 -1.3505
  563MOL0     H77640   7.776   9.000   1.596 -0.6254 -0.3080  1.3476
  563MOL0     H77641   7.701   9.157   1.770  0.0600  1.3982 -0.1510
  563MOL0     H77642   7.819   9.042   1.832  0.8687 -0.2043 -0.4157
  563MOL0     H77643   8.086   9.159   1.801 -0.5491 -1.0394  3.4823
  563MOL0     H77644   8.189   9.500   1.731 -1.5434  0.5572  2.1498
  563MOL0     H77645   8.244   9.327   1.734  3.7383 -0.0674  1.7608
  563MOL0     H77646   8.214   9.535   1.964  2.4375  0.6896 -0.9961
  563MOL0     H77647   8.254   9.360   1.985 -1.5141  1.6634  3.0201
  563MOL0     H77648   8.463   9.389   1.898 -0.6265  0.2779  2.7323
  563MOL0     H77649   8.438   9.551   1.826  1.1196  1.7946  0.8268
  563MOL0     H77650   8.417   9.658   2.030  0.0482  0.0943 -0.0087
  563MOL0     H77651   8.422   9.512   2.136  2.2745 -1.2937 -0.1384
  563MOL0     H77652   8.831   9.600   2.108 -1.0992 -4.1091  2.0715
  563MOL0     H77653   9.024   9.683   2.386 -1.0014 -1.9681 -0.7861
  563MOL0     H77654   9.018   9.827   2.268  0.8683  0.3407 -0.4687
  563MOL0     H77655   9.026   9.664   2.211  1.4849  0.3885  0.5418
  563MOL0     H77656   8.771  10.005   2.832 -0.6228 -0.7050  0.5709
  563MOL0     H77657   8.773  10.235   2.916 -0.4464  0.3858 -0.0326
  563MOL0     H77658   8.578  10.514   2.641 -2.1820  0.3774  1.1734
  563MOL0     H77659   8.517  10.462   2.808  0.2991 -2.3187  0.8472
  563MOL0     H77660   8.691  10.696   2.815  0.7299 -0.2154 -1.7715
  563MOL0     H77661   8.547  10.721   2.707 -1.3689  0.3575  0.3499
  563MOL0     H77662   8.569  10.620   2.997  0.5933 -0.0312  0.7471
  563MOL0     H77663   8.412  10.650   2.914 -0.2943  0.2558 -2.8541
  563MOL0     H77664   8.459  10.888   2.893 -1.2832  0.0123  1.7295
  563MOL0     H77665   8.618  10.863   2.960 -0.0009 -1.2580 -2.0587
  563MOL0     H77666   8.352  10.804   3.101  1.9617 -1.9991 -1.8030
  563MOL0     H77667   8.511  10.807   3.184 -0.7490 -2.9934  0.0626
  563MOL0     H77668   8.398  11.051   3.052 -5.5033 -0.7981  1.0362
  563MOL0     H77669   8.531  11.037   3.182  0.8281 -2.1281  0.9209
  563MOL0     H77670   8.330  10.950   3.331 -1.0021  2.0647  2.0502
  563MOL0     H77671   8.224  10.988   3.197 -0.0925  1.2893 -0.4670
  563MOL0     H77672   8.239  11.218   3.217  1.4237  0.4911 -0.8712
  563MOL0     H77673   8.395  11.224   3.279  1.0653 -0.5779  1.6560
  563MOL0     H77674   8.694  10.383   2.518  0.9313  0.8185  0.4873
  563MOL0     H77675   8.703  10.154   2.428  1.4132 -0.6272 -0.2405
  563MOL0     H77676   8.549   9.839   2.436  0.9108  0.7100 -0.1232
  563MOL0     H77677   8.455   9.720   2.252  0.6568  2.3388  0.8231
  563MOL0     H77678   8.018   9.867   1.244 -0.0492 -1.5853 -1.5827
  563MOL0     H77679   8.235   9.925   1.321 -1.5407  1.2252 -0.5182
  563MOL0     H77680   8.433  10.010   1.740  1.7041  2.4257 -0.4763
  563MOL0     H77681   8.598  10.019   1.903  0.3035 -0.4943  1.3220
  563MOL0     H77682   8.756   9.964   2.083  0.4364 -2.6943  0.4087
  563MOL0     H77683   8.933   9.933   2.072 -0.1110 -0.0288  0.5120
  563MOL0     H77684   8.803  10.139   1.887 -1.1755  1.2585  1.0238
  563MOL0     H77685   8.974  10.101   1.920 -0.8803 -3.8659  0.4233
  563MOL0     H77686   8.780  10.199   2.129  1.1957 -3.5141  0.9371
  563MOL0     H77687   8.956  10.200   2.139 -0.8472 -2.3697  0.6807
  563MOL0     H77688   8.778  10.389   1.989 -0.6787  2.1546  2.1765
  563MOL0     H77689   8.942  10.347   1.935  0.7737 -0.6886  0.4095
  563MOL0     H77690   9.035  10.592   2.271  1.0187  1.7460 -1.8738
  563MOL0     H77691   8.815   9.703   1.735  0.6674  1.6213  0.9702
  563MOL0     H77692   8.531   9.562   1.566 -0.2408  1.2607  1.2317
  563MOL0     H77693   8.641   9.641   1.449 -3.1057 -0.3862 -1.5530
  563MOL0     H77694   8.711   9.555   1.583  0.4813  1.5099  0.8581
  564MOL0     O77695  10.505   3.415   4.022  0.2205  0.1569  0.4329
  564MOL0     C77696  10.583   3.329   4.053  0.7023 -0.2403 -0.3037
  564MOL0     O77697  10.713   3.311   4.012 -0.1495  0.2712  0.4194
  564MOL0     C77698  10.775   3.392   3.919 -0.6433  0.4702  0.1886
  564MOL0     C77699  10.712   3.497   3.842 -0.6359  0.0083 -0.7950
  564MOL0     C77700  10.780   3.577   3.752 -0.3886 -0.0710  0.9174
  564MOL0     C77701  10.923   3.564   3.735 -0.4022 -0.0007 -0.2537
  564MOL0     O77702  11.000   3.635   3.647  0.6511 -0.2153  0.0173
  564MOL0     C77703  10.948   3.644   3.515 -1.1980 -0.3619 -0.3449
  564MOL0     C77704  11.056   3.611   3.412  0.1935  0.9944 -0.6848
  564MOL0     C77705  11.083   3.448   3.406  0.3975 -0.5216 -0.4519
  564MOL0     C77706  11.164   3.434   3.279  0.0734  0.9065  0.1022
  564MOL0     C77707  11.125   3.307   3.200 -0.4544  0.3236 -0.7732
  564MOL0     C77708  11.208   3.290   3.070  0.0166 -0.2595  0.2103
  564MOL0     C77709  11.354   3.272   3.104 -1.0353 -0.4489  0.6185
  564MOL0     C77710  11.416   3.183   2.995  0.1709  0.0976 -0.4500
  564MOL0     N77711  11.557   3.179   3.025  0.3102 -0.6808 -0.2828
  564MOL0     C77712  11.627   3.166   3.139  0.4085  0.6219  0.0890
  564MOL0     C77713  11.756   3.142   3.106 -0.3370  0.0095 -0.1540
  564MOL0     C77714  11.866   3.118   3.201  0.0709  0.1001 -0.4018
  564MOL0     C77715  11.849   3.015   3.315  0.2151  0.1117  0.1790
  564MOL0     C77716  11.980   3.007   3.408  0.3739 -0.8417 -0.1543
  564MOL0     C77717  12.116   2.960   3.353  0.3315  0.0207  0.8969
  564MOL0     O77718  12.222   2.973   3.453 -0.2300 -0.5865  0.2871
  564MOL0     C77719  12.342   2.936   3.423  0.3680  0.0738 -0.5788
  564MOL0     C77720  12.382   2.872   3.304 -0.4277 -0.4792  0.6136
  564MOL0     C77721  12.509   2.817   3.292 -0.8153 -0.0467 -0.5708
  564MOL0     C77722  12.541   2.746   3.161  0.3772  0.3470 -0.1677
  564MOL0     C77723  12.596   2.831   3.407 -0.4262 -0.4669 -0.8597
  564MOL0     C77724  12.744   2.783   3.400  0.6518  0.5686  0.4254
  564MOL0     O77725  12.825   2.846   3.482  0.0057 -0.3284  0.3817
  564MOL0     C77726  12.953   2.802   3.493 -0.3437 -0.1412 -0.1513
  564MOL0     C77727  13.054   2.873   3.421 -0.1573  0.5500  0.1314
  564MOL0     C77728  13.184   2.833   3.438 -0.1883 -0.5721 -0.1639
  564MOL0     C77729  13.223   2.715   3.513 -0.2183 -0.4145 -0.1361
  564MOL0     O77730  13.359   2.681   3.521 -0.5927 -1.0098 -0.0562
  564MOL0     C77731  13.405   2.581   3.615  0.7968 -0.6803  0.5251
  564MOL0     C77732  13.560   2.557   3.609  0.1479 -0.0587 -0.5309
  564MOL0     C77733  13.629   2.665   3.688 -0.1607 -0.5659 -0.0715
  564MOL0     C77734  13.782   2.674   3.676  0.4646 -0.5625  0.2019
  564MOL0     C77735  13.836   2.770   3.782 -0.8187 -0.0823 -0.1139
  564MOL0     C77736  13.990   2.778   3.760  0.3510 -0.0185  0.3712
  564MOL0     C77737  14.066   2.848   3.870  0.1038 -1.0142 -0.2715
  564MOL0     C77738  14.210   2.835   3.861 -1.0531  0.0981  0.2245
  564MOL0    Cl77739  14.278   2.940   3.996 -0.0175 -0.0601 -0.1333
  564MOL0     C77740  13.122   2.649   3.578 -0.9450 -0.2116  0.6168
  564MOL0     C77741  12.994   2.695   3.571 -0.1335  0.0692 -0.7123
  564MOL0     O77742  12.771   2.683   3.339 -0.7201  0.7746  0.0716
  564MOL0     C77743  12.560   2.906   3.521  0.2584 -0.0827  0.0337
  564MOL0     C77744  12.433   2.949   3.530 -0.0073 -0.3445  0.5296
  564MOL0     N77745  11.767   3.157   2.974 -0.4513 -0.1672 -0.0689
  564MOL0     N77746  11.650   3.164   2.922 -0.0169 -0.2715 -0.4953
  564MOL0     C77747  10.984   3.471   3.817  0.7153 -0.1808 -0.1543
  564MOL0     C77748  10.915   3.381   3.898  0.8932  0.3192 -0.4869
  564MOL0     C77749  10.529   3.221   4.149 -0.1728 -0.6575  0.0471
  564MOL0     C77750  10.624   3.120   4.181  0.2800 -0.3944 -0.3113
  564MOL0     C77751  10.586   3.019   4.275  0.4570 -0.1335  0.3807
  564MOL0     C77752  10.462   3.014   4.335 -0.1275 -0.5988 -0.3959
  564MOL0     O77753  10.439   2.928   4.437  0.5577 -0.4517 -0.4358
  564MOL0     C77754  10.315   2.930   4.504  0.3648 -0.7474  0.4693
  564MOL0     C77755  10.307   2.823   4.612 -0.1097 -0.0524 -0.5007
  564MOL0     C77756  10.185   2.847   4.696  0.0995 -0.4177  0.8132
  564MOL0     C77757  10.216   2.787   4.838 -0.4606  0.6817  0.4476
  564MOL0     C77758  10.107   2.809   4.930  0.4598  1.0273 -0.1126
  564MOL0     C77759  10.018   2.843   5.010  0.6676 -0.3190  0.1946
  564MOL0     C77760  10.372   3.117   4.303 -0.0937  0.3103  0.3712
  564MOL0     C77761  10.404   3.223   4.212 -0.1946  1.2954 -0.1834
  564MOL0     C77762  10.299   3.329   4.188  0.4533 -0.1103 -0.5158
  564MOL0     H77763  10.613   3.531   3.870 -0.3243 -1.1040  2.0695
  564MOL0     H77764  10.725   3.665   3.718  1.2930  1.9014  2.9430
  564MOL0     H77765  10.920   3.748   3.500  1.8455  0.5426 -0.3601
  564MOL0     H77766  10.862   3.580   3.495 -1.4324  0.4866 -2.3106
  564MOL0     H77767  11.017   3.650   3.317 -0.9829  0.3906 -0.4763
  564MOL0     H77768  11.149   3.662   3.437 -0.6658  2.5650 -0.5638
  564MOL0     H77769  11.149   3.421   3.489 -0.9095  0.2286  0.8966
  564MOL0     H77770  10.989   3.392   3.405 -1.3058  2.1492 -0.9612
  564MOL0     H77771  11.151   3.523   3.218  3.0448  3.0032  2.2494
  564MOL0     H77772  11.270   3.440   3.305  0.5568  1.1483 -1.7975
  564MOL0     H77773  11.019   3.303   3.173 -1.0270  0.8482  1.2249
  564MOL0     H77774  11.124   3.220   3.266 -2.7835  0.9266  0.0739
  564MOL0     H77775  11.172   3.200   3.020 -2.5443 -0.0697  1.5555
  564MOL0     H77776  11.185   3.379   3.011  0.7903  0.5713  1.1279
  564MOL0     H77777  11.357   3.215   3.197 -0.8245  0.1106  0.9536
  564MOL0     H77778  11.396   3.372   3.114 -1.6324 -0.1081 -0.1555
  564MOL0     H77779  11.379   3.081   3.001  0.4950  0.0778  2.1958
  564MOL0     H77780  11.398   3.227   2.896  3.0327  1.3282 -0.5242
  564MOL0     H77781  11.596   3.161   3.243 -2.0606  0.7006 -0.5708
  564MOL0     H77782  11.893   3.214   3.246  1.3066 -1.3431  2.1274
  564MOL0     H77783  11.948   3.072   3.147  1.8805 -0.4358  2.5855
  564MOL0     H77784  11.770   3.036   3.388 -0.4594 -2.2948  0.2223
  564MOL0     H77785  11.809   2.928   3.262 -3.0496  2.2342 -1.1764
  564MOL0     H77786  11.998   3.110   3.440 -0.3101 -0.8022  0.1169
  564MOL0     H77787  11.953   2.948   3.496 -3.4615  1.1937  0.2509
  564MOL0     H77788  12.098   2.859   3.314 -1.0436  1.0760 -1.4495
  564MOL0     H77789  12.150   3.023   3.270 -2.2943  1.2965  0.6662
  564MOL0     H77790  12.322   2.853   3.215  1.5248  0.0433 -0.8845
  564MOL0     H77791  12.600   2.814   3.099 -0.9236  1.4190 -0.2755
  564MOL0     H77792  12.458   2.710   3.100  0.3583 -0.1869  0.1682
  564MOL0     H77793  12.593   2.652   3.183  0.2035  0.1889 -0.4216
  564MOL0     H77794  13.036   2.956   3.354  1.8557 -0.4730 -1.8195
  564MOL0     H77795  13.266   2.897   3.409  0.8305 -1.8366 -0.1950
  564MOL0     H77796  13.374   2.607   3.716 -2.8854 -2.4259  0.0206
  564MOL0     H77797  13.351   2.487   3.597  1.1261 -1.6524  3.9725
  564MOL0     H77798  13.588   2.461   3.654  3.4317  0.3212 -1.5102
  564MOL0     H77799  13.596   2.557   3.506  0.1457  3.5845 -0.6768
  564MOL0     H77800  13.595   2.664   3.792  0.3540 -0.6564  0.1020
  564MOL0     H77801  13.596   2.762   3.649  2.5078  0.9482  1.0683
  564MOL0     H77802  13.805   2.710   3.576 -0.6670 -3.1209 -1.0780
  564MOL0     H77803  13.824   2.574   3.690 -1.8631 -1.6880 -0.3021
  564MOL0     H77804  13.802   2.871   3.758  2.8701  0.4684 -4.1550
  564MOL0     H77805  13.811   2.741   3.885 -0.1355 -0.0208  0.0711
  564MOL0     H77806  14.014   2.812   3.658  1.7344  0.6114  0.8835
  564MOL0     H77807  14.027   2.676   3.771 -0.5235 -0.1882  2.1456
  564MOL0     H77808  14.041   2.792   3.960 -0.1635 -2.0571 -0.9734
  564MOL0     H77809  14.031   2.950   3.890 -0.9114 -1.5723  0.9522
  564MOL0     H77810  14.258   2.860   3.766  0.4217 -2.6804  0.1440
  564MOL0     H77811  14.227   2.727   3.866  0.0345  0.2989  1.3395
  564MOL0     H77812  13.153   2.571   3.645 -0.6970  1.4042  2.4794
  564MOL0     H77813  12.916   2.639   3.622 -1.2711  1.2278 -1.1428
  564MOL0     H77814  12.633   2.934   3.597  0.6983  0.4764 -0.5882
  564MOL0     H77815  12.419   2.994   3.628 -0.3402  0.3890  0.1489
  564MOL0     H77816  11.091   3.461   3.806  0.8854  0.8279  0.4998
  564MOL0     H77817  10.969   3.315   3.965 -1.0671  0.1425  1.0327
  564MOL0     H77818  10.727   3.117   4.148  1.6778 -0.3143  3.5533
  564MOL0     H77819  10.663   2.946   4.297  0.3791 -0.3969 -0.1961
  564MOL0     H77820  10.298   3.025   4.554 -1.3108 -0.1102 -1.1874
  564MOL0     H77821  10.235   2.916   4.430  0.8004  0.0064 -0.1576
  564MOL0     H77822  10.403   2.837   4.664  0.8820  1.7513 -2.6346
  564MOL0     H77823  10.304   2.720   4.577  0.5430 -0.8729  1.7088
  564MOL0     H77824  10.174   2.955   4.704  1.3054 -0.1826 -0.3185
  564MOL0     H77825  10.098   2.796   4.654  0.0568 -0.4723  0.9662
  564MOL0     H77826  10.312   2.820   4.880  1.6463 -2.4865 -1.3586
  564MOL0     H77827  10.229   2.678   4.842  0.4066  0.7741  0.3370
  564MOL0     H77828   9.945   2.860   5.086  2.2756  2.4133  1.2730
  564MOL0     H77829  10.279   3.116   4.359 -0.4084 -2.2017 -0.0762
  564MOL0     H77830  10.336   3.420   4.236  2.6707 -1.5174  0.6166
  564MOL0     H77831  10.281   3.344   4.081 -1.6423  0.4891 -0.1295
  564MOL0     H77832  10.212   3.308   4.252  2.5242 -1.8406  1.9229
  565MOL0     O77833   5.359   5.888   6.961  0.1774 -0.2719  0.2453
  565MOL0     C77834   5.319   5.998   6.917  0.4130 -0.5890 -0.3333
  565MOL0     O77835   5.406   6.089   6.858  0.0507  0.0363 -0.3134
  565MOL0     C77836   5.533   6.077   6.904 -0.1516 -1.0487  0.3230
  565MOL0     C77837   5.568   6.095   7.032 -0.6081  0.3714 -1.5102
  565MOL0     C77838   5.700   6.068   7.075 -0.4255 -0.9170  0.0681
  565MOL0     C77839   5.795   6.027   6.984  1.0387  0.0108  0.0973
  565MOL0     O77840   5.916   5.999   7.030  0.1046 -0.4748 -0.1212
  565MOL0     C77841   6.015   5.955   6.933 -0.0251 -0.1291  0.1031
  565MOL0     C77842   6.153   5.940   6.998 -0.2687  0.3019 -0.7467
  565MOL0     C77843   6.209   6.079   7.024  0.6857 -0.4524 -0.4605
  565MOL0     C77844   6.320   6.084   7.128 -0.2605  0.5967 -0.7299
  565MOL0     C77845   6.386   6.222   7.128 -1.1984 -0.2187 -0.0559
  565MOL0     C77846   6.474   6.247   7.252  0.5011  0.0969  0.2572
  565MOL0     C77847   6.577   6.361   7.236  0.6517  0.6090  0.5428
  565MOL0     C77848   6.651   6.382   7.367 -0.5231  0.3937 -0.3650
  565MOL0     N77849   6.774   6.467   7.348 -0.0180 -0.2587 -0.0597
  565MOL0     C77850   6.879   6.417   7.274  0.5257 -0.0097 -0.0552
  565MOL0     C77851   6.972   6.512   7.282 -0.3884  0.3042  1.0703
  565MOL0     C77852   7.115   6.511   7.215  0.1654  1.4755  0.2925
  565MOL0     C77853   7.204   6.638   7.255  1.5126  0.7751 -1.2489
  565MOL0     C77854   7.336   6.667   7.174 -0.4769 -0.2615 -0.1145
  565MOL0     C77855   7.418   6.779   7.217 -0.3140  0.4184  0.2753
  565MOL0     O77856   7.490   6.760   7.344  0.3330 -0.1018 -0.1052
  565MOL0     C77857   7.620   6.725   7.334  0.6837 -0.0159  0.9859
  565MOL0     C77858   7.718   6.824   7.317  0.5629 -0.0248  0.1652
  565MOL0     C77859   7.851   6.794   7.297  0.1529  0.6228 -1.0285
  565MOL0     C77860   7.956   6.898   7.299 -0.3021  0.6737  0.4255
  565MOL0     C77861   7.888   6.660   7.286  0.6268  1.1367  0.2236
  565MOL0     C77862   8.021   6.607   7.253 -0.1311  0.7529 -0.0029
  565MOL0     O77863   8.102   6.684   7.181  0.4090  1.1690  0.4036
  565MOL0     C77864   8.231   6.652   7.170  0.2332 -0.9235 -0.6162
  565MOL0     C77865   8.319   6.762   7.185  0.3820  0.8388 -0.5200
  565MOL0     C77866   8.454   6.740   7.181 -0.4607 -0.2858 -0.3206
  565MOL0     C77867   8.510   6.618   7.155 -0.3161  0.3232  0.2007
  565MOL0     O77868   8.647   6.626   7.146  0.3545 -0.1450 -0.5018
  565MOL0     C77869   8.712   6.506   7.110  0.6890 -0.2158  0.1803
  565MOL0     C77870   8.865   6.518   7.103 -0.9890  0.2403  0.5070
  565MOL0     C77871   8.937   6.394   7.052 -0.0551  0.3007  0.2008
  565MOL0     C77872   8.947   6.286   7.162 -0.1785  0.2002 -0.5358
  565MOL0     C77873   8.830   6.188   7.142 -1.2219 -0.0990 -0.2756
  565MOL0     C77874   8.849   6.052   7.213 -0.7624 -0.0295  0.7609
  565MOL0     C77875   8.915   6.054   7.354 -0.5755  0.4555  0.3366
  565MOL0     C77876   8.963   5.911   7.403  0.1784 -0.2349  0.5417
  565MOL0    Cl77877   8.826   5.813   7.409  0.5416  0.6269  0.5016
  565MOL0     C77878   8.420   6.511   7.132  0.2160 -0.7764 -0.1677
  565MOL0     C77879   8.279   6.525   7.140 -0.8876  0.5847  0.0096
  565MOL0     O77880   8.043   6.489   7.286  0.0783 -0.4614 -0.1821
  565MOL0     C77881   7.787   6.558   7.313 -0.1792  0.7617 -0.3621
  565MOL0     C77882   7.654   6.595   7.337  0.1382 -0.5739 -0.1614
  565MOL0     N77883   6.924   6.619   7.356  0.2597 -0.3772 -0.9564
  565MOL0     N77884   6.808   6.589   7.393 -0.0123  0.2762  0.2158
  565MOL0     C77885   5.758   6.032   6.851 -0.0136  0.4333  0.2026
  565MOL0     C77886   5.624   6.039   6.810 -0.2940 -1.0008  0.0749
  565MOL0     C77887   5.169   6.036   6.900  0.2454  0.3875 -0.5828
  565MOL0     C77888   5.132   6.170   6.866 -0.0401 -0.6989 -0.4913
  565MOL0     C77889   5.004   6.222   6.876  0.0889  0.5106  0.2266
  565MOL0     C77890   4.908   6.126   6.913 -0.7710  0.1432  0.1411
  565MOL0     O77891   4.778   6.153   6.928  0.1517 -0.0615  0.5850
  565MOL0     C77892   4.744   6.278   6.995  0.4732 -0.0027  0.6838
  565MOL0     C77893   4.586   6.306   7.007  0.3841 -0.2661  0.4550
  565MOL0     C77894   4.525   6.322   6.864 -0.3479  0.5780 -0.0476
  565MOL0     C77895   4.471   6.191   6.800 -0.0533 -0.1597  0.1115
  565MOL0     C77896   4.375   6.126   6.882  0.0645  0.5018 -0.4227
  565MOL0     C77897   4.287   6.058   6.940 -0.0373 -0.1547 -0.0403
  565MOL0     C77898   4.937   5.992   6.932  0.0260  0.2706 -0.1633
  565MOL0     C77899   5.068   5.940   6.921  0.2496  0.2323 -0.0732
  565MOL0     C77900   5.091   5.789   6.912 -0.7872 -0.6711 -0.0312
  565MOL0     H77901   5.493   6.109   7.109  0.5039 -1.1017 -0.0770
  565MOL0     H77902   5.724   6.073   7.181  3.1265  1.1595 -0.6826
  565MOL0     H77903   6.024   6.019   6.845  0.3153 -2.9378 -2.0100
  565MOL0     H77904   5.984   5.855   6.905  1.3517 -1.5069  3.0268
  565MOL0     H77905   6.148   5.893   7.097 -1.5865  2.4885  0.2991
  565MOL0     H77906   6.219   5.876   6.939  1.2062 -0.1956  1.3381
  565MOL0     H77907   6.233   6.124   6.928 -0.2745 -2.1935 -1.5724
  565MOL0     H77908   6.133   6.148   7.061  2.6488  0.8852  1.3820
  565MOL0     H77909   6.275   6.069   7.227 -2.0277  0.5338 -1.4945
  565MOL0     H77910   6.397   6.007   7.124  1.2978  1.4857  4.5192
  565MOL0     H77911   6.312   6.303   7.121 -1.9077 -0.7838  0.6041
  565MOL0     H77912   6.451   6.227   7.041 -0.5087  1.5278  0.5082
  565MOL0     H77913   6.404   6.270   7.333 -0.2826  0.4898 -0.5178
  565MOL0     H77914   6.529   6.154   7.267  1.2751  0.3101 -1.0572
  565MOL0     H77915   6.521   6.455   7.228 -0.7451 -0.3404 -1.9926
  565MOL0     H77916   6.638   6.340   7.148 -2.0354 -0.5503 -1.1906
  565MOL0     H77917   6.590   6.434   7.442 -0.7647  0.7468 -0.8022
  565MOL0     H77918   6.686   6.287   7.409  3.6641 -1.2603 -6.2976
  565MOL0     H77919   6.885   6.319   7.227 -4.0753 -0.7272  0.3430
  565MOL0     H77920   7.105   6.520   7.107  1.8724  1.6354  0.1144
  565MOL0     H77921   7.156   6.411   7.234 -0.8501  1.1007  0.5640
  565MOL0     H77922   7.146   6.730   7.245  0.6265  0.7644  2.4152
  565MOL0     H77923   7.209   6.631   7.365 -0.4823 -2.9581 -1.2289
  565MOL0     H77924   7.397   6.576   7.167  1.4245  1.0793 -3.1630
  565MOL0     H77925   7.312   6.683   7.068  3.0797 -1.0563 -1.1977
  565MOL0     H77926   7.479   6.808   7.131 -0.8993 -2.4681 -1.2520
  565MOL0     H77927   7.347   6.862   7.221 -1.6034 -0.6001 -0.4619
  565MOL0     H77928   7.687   6.927   7.306  0.9053 -0.1932 -4.2751
  565MOL0     H77929   8.046   6.877   7.357  0.7056 -0.6168 -1.5167
  565MOL0     H77930   7.908   6.990   7.334 -2.1832 -0.0052 -0.2313
  565MOL0     H77931   7.984   6.917   7.195  0.5864  0.1434  0.5588
  565MOL0     H77932   8.284   6.863   7.205  1.1477  1.0535 -0.2043
  565MOL0     H77933   8.524   6.822   7.192 -1.9583  0.9577  0.3789
  565MOL0     H77934   8.681   6.431   7.184 -0.7639  1.3898  1.3183
  565MOL0     H77935   8.675   6.489   7.009 -2.0204 -0.9432  1.1793
  565MOL0     H77936   8.886   6.602   7.036 -1.5595 -1.0300 -1.3617
  565MOL0     H77937   8.900   6.544   7.203  0.7318 -2.6737  0.7594
  565MOL0     H77938   9.043   6.416   7.040  1.0508 -2.7679  2.9020
  565MOL0     H77939   8.896   6.357   6.957 -0.0195 -2.2392  1.0974
  565MOL0     H77940   8.955   6.324   7.264 -0.0473 -0.9199 -0.1124
  565MOL0     H77941   9.044   6.238   7.149  1.0072  1.8146  1.7502
  565MOL0     H77942   8.738   6.238   7.173 -0.3429  1.8526 -0.6759
  565MOL0     H77943   8.817   6.180   7.033  0.2904  4.4925 -1.0063
  565MOL0     H77944   8.914   5.992   7.148 -0.0947  1.1256  0.3275
  565MOL0     H77945   8.753   6.001   7.225 -1.0442  0.5461  0.9516
  565MOL0     H77946   8.845   6.101   7.424  0.4225  0.2321  1.5308
  565MOL0     H77947   9.001   6.121   7.359  0.2521 -0.4099 -1.5497
  565MOL0     H77948   9.024   5.921   7.494 -0.3074 -1.1817  0.9904
  565MOL0     H77949   9.029   5.877   7.322 -1.0604  1.6710 -1.3509
  565MOL0     H77950   8.466   6.413   7.123 -2.2130 -2.1020  1.0521
  565MOL0     H77951   8.230   6.429   7.130  1.3961 -0.6463 -0.1270
  565MOL0     H77952   7.812   6.453   7.311 -0.8927  0.5933 -0.7884
  565MOL0     H77953   7.580   6.521   7.365  1.4289 -1.1667  1.9079
  565MOL0     H77954   5.829   6.003   6.775 -1.0273  2.5782 -1.6798
  565MOL0     H77955   5.591   6.029   6.708 -1.3222  1.4523  0.0972
  565MOL0     H77956   5.209   6.235   6.828 -0.4651  0.3812  0.4465
  565MOL0     H77957   4.988   6.326   6.852  4.0876  0.5584 -3.6092
  565MOL0     H77958   4.789   6.276   7.094 -1.1528  1.6783  1.5026
  565MOL0     H77959   4.792   6.360   6.940 -2.0233 -0.3716 -2.3219
  565MOL0     H77960   4.572   6.405   7.050  1.7648  0.6749 -1.1263
  565MOL0     H77961   4.538   6.228   7.067 -2.6241  0.8270 -0.3804
  565MOL0     H77962   4.443   6.393   6.856 -1.9404 -1.2240 -0.5535
  565MOL0     H77963   4.596   6.356   6.788 -2.8409  3.6165 -1.2069
  565MOL0     H77964   4.554   6.121   6.784 -2.0513 -3.1875  1.8825
  565MOL0     H77965   4.430   6.203   6.699 -1.3300 -0.2557  0.5973
  565MOL0     H77966   4.224   5.994   6.997  0.9312 -1.0348  0.0698
  565MOL0     H77967   4.856   5.923   6.954  0.8745 -0.0088  2.4088
  565MOL0     H77968   5.161   5.763   6.991 -0.8910  0.7445  0.5576
  565MOL0     H77969   4.998   5.736   6.934 -1.6611  0.9536  0.3756
  565MOL0     H77970   5.133   5.755   6.817 -2.6648 -1.2821 -0.6866
  566MOL0     O77971   3.236  10.050   0.726 -0.3865  0.8009  0.3444
  566MOL0     C77972   3.143  10.007   0.788 -0.1921  0.2137  0.4451
  566MOL0     O77973   3.152   9.907   0.877  0.1177 -0.0820 -0.2010
  566MOL0     C77974   3.267   9.835   0.904  0.2121  0.0751  0.1670
  566MOL0     C77975   3.358   9.865   0.997 -0.1728  0.0730 -1.1938
  566MOL0     C77976   3.474   9.787   1.024  0.3534 -1.2477  0.1569
  566MOL0     C77977   3.509   9.684   0.935 -0.5878  0.6462 -0.3050
  566MOL0     O77978   3.616   9.593   0.942  0.0832 -0.4151 -0.1191
  566MOL0     C77979   3.717   9.631   1.035  0.3003 -0.1811 -0.0839
  566MOL0     C77980   3.843   9.565   0.999  0.4430  0.3748 -0.5222
  566MOL0     C77981   3.964   9.630   1.074  0.2157  0.2296 -0.2039
  566MOL0     C77982   3.992   9.563   1.214 -0.0714  0.3163  0.3472
  566MOL0     C77983   4.134   9.602   1.264 -0.4468  0.4635 -0.8709
  566MOL0     C77984   4.178   9.524   1.395  0.6458  0.2529  0.3960
  566MOL0     C77985   4.308   9.591   1.442 -0.0112 -0.4832  0.5166
  566MOL0     C77986   4.441   9.511   1.396 -0.2099 -0.6809  0.6647
  566MOL0     N77987   4.555   9.538   1.486  0.1136  0.0819  0.2302
  566MOL0     C77988   4.684   9.572   1.454 -0.8910  0.8850  0.3427
  566MOL0     C77989   4.748   9.557   1.572 -0.4731  0.5374  0.3693
  566MOL0     C77990   4.897   9.570   1.597  0.7662 -0.8411 -0.2211
  566MOL0     C77991   4.956   9.711   1.602 -0.3670  0.2575 -1.7496
  566MOL0     C77992   4.915   9.781   1.734 -0.0818 -0.2879  0.3561
  566MOL0     C77993   4.998   9.911   1.730  0.2300  0.4564 -0.3938
  566MOL0     O77994   5.135   9.867   1.733 -0.1086  0.0356 -0.3390
  566MOL0     C77995   5.229   9.967   1.733 -0.5087  1.2333  0.0185
  566MOL0     C77996   5.233  10.068   1.832 -0.2389 -0.1473 -0.1324
  566MOL0     C77997   5.345  10.154   1.836 -0.5671 -0.2810 -0.3808
  566MOL0     C77998   5.340  10.272   1.936 -0.1332 -0.1017  0.4551
  566MOL0     C77999   5.463  10.122   1.752 -0.6672  0.2355  0.9855
  566MOL0     C78000   5.590  10.194   1.760 -0.2296 -0.8216 -0.3450
  566MOL0     O78001   5.690  10.113   1.729 -0.1090 -0.7242  0.8647
  566MOL0     C78002   5.815  10.146   1.758  0.1036  0.9112 -0.6139
  566MOL0     C78003   5.862  10.086   1.888  0.2181  0.7538 -0.2751
  566MOL0     C78004   5.990  10.121   1.936 -0.7599  0.3073 -0.1949
  566MOL0     C78005   6.070  10.218   1.862 -0.8463  0.5346 -0.6578
  566MOL0     O78006   6.198  10.264   1.891  0.1634 -0.3596  0.0546
  566MOL0     C78007   6.262  10.193   1.996 -0.0053 -0.2296  0.0680
  566MOL0     C78008   6.394  10.265   2.021 -0.2248 -1.0059  0.6747
  566MOL0     C78009   6.376  10.421   2.048 -0.1776  0.0449  0.3334
  566MOL0     C78010   6.494  10.495   2.107  0.0150  0.4847  0.6932
  566MOL0     C78011   6.464  10.641   2.150 -0.2109  0.2928 -0.5006
  566MOL0     C78012   6.592  10.711   2.211 -0.2687 -0.0258 -0.5012
  566MOL0     C78013   6.709  10.737   2.108  0.9643  0.5745 -0.8002
  566MOL0     C78014   6.809  10.841   2.145  0.4906  0.2455 -0.5205
  566MOL0    Cl78015   6.729  11.011   2.146 -0.2888 -0.0424 -0.0934
  566MOL0     C78016   6.031  10.256   1.733  0.5697  0.2199 -0.6964
  566MOL0     C78017   5.902  10.224   1.686  0.0387  0.3078 -0.0962
  566MOL0     O78018   5.599  10.309   1.794 -0.0976  0.4706 -0.0542
  566MOL0     C78019   5.448  10.019   1.656 -0.5438  0.9096 -0.0616
  566MOL0     C78020   5.335   9.942   1.641  0.0820 -0.5269 -0.6753
  566MOL0     N78021   4.650   9.504   1.670  0.0932 -0.0431  0.5021
  566MOL0     N78022   4.538   9.495   1.611  0.4135  0.2669 -0.0815
  566MOL0     C78023   3.410   9.651   0.842  0.0766 -0.2239 -0.3967
  566MOL0     C78024   3.285   9.725   0.824 -0.3495  0.5541 -0.0445
  566MOL0     C78025   3.006  10.058   0.769 -1.1312  1.0095  0.9487
  566MOL0     C78026   2.910  10.002   0.852  0.3391 -0.4117 -1.2194
  566MOL0     C78027   2.777  10.024   0.828 -0.5880  0.0838 -0.6381
  566MOL0     C78028   2.735  10.096   0.717 -0.3989 -0.2511 -0.3675
  566MOL0     O78029   2.601  10.122   0.706 -0.4433  0.0592 -0.0642
  566MOL0     C78030   2.548  10.217   0.613  0.1353 -0.6158  0.0279
  566MOL0     C78031   2.439  10.296   0.681  0.4780 -0.0754 -0.5709
  566MOL0     C78032   2.400  10.419   0.598  0.4433 -0.0260  0.2501
  566MOL0     C78033   2.494  10.535   0.646 -0.9220 -0.1772  0.0579
  566MOL0     C78034   2.471  10.600   0.776 -0.2416  0.4467  0.3245
  566MOL0     C78035   2.444  10.644   0.886 -0.2774  0.4042 -0.8631
  566MOL0     C78036   2.832  10.161   0.637  0.6655 -0.6126 -0.0331
  566MOL0     C78037   2.967  10.148   0.665  0.4527 -0.4446  0.1946
  566MOL0     C78038   3.053  10.235   0.579 -0.2494  0.7917 -0.3040
  566MOL0     H78039   3.339   9.949   1.062  1.1352 -1.3600  1.1706
  566MOL0     H78040   3.544   9.810   1.104  1.2732 -1.8387 -0.4482
  566MOL0     H78041   3.690   9.606   1.138 -1.8491  3.3667  0.3745
  566MOL0     H78042   3.735   9.738   1.043  0.3635 -0.3234  3.1427
  566MOL0     H78043   3.849   9.456   1.006  1.9297  0.4478 -0.3262
  566MOL0     H78044   3.858   9.587   0.893 -1.7861  0.1900 -0.9308
  566MOL0     H78045   4.048   9.618   1.004 -0.9276  0.7880 -1.7100
  566MOL0     H78046   3.959   9.739   1.076  0.8240  0.4166 -3.4010
  566MOL0     H78047   3.906   9.593   1.276 -1.6139 -0.3084 -1.3912
  566MOL0     H78048   3.988   9.454   1.204 -0.5358  0.1954  1.5809
  566MOL0     H78049   4.131   9.709   1.286 -0.6499  0.4875 -1.0064
  566MOL0     H78050   4.210   9.591   1.186 -1.2763  0.4195 -1.6959
  566MOL0     H78051   4.098   9.525   1.469  0.4437  0.0568  0.1822
  566MOL0     H78052   4.196   9.418   1.373  0.4179  0.3419 -0.2327
  566MOL0     H78053   4.306   9.589   1.551 -1.7721  0.6104  0.5364
  566MOL0     H78054   4.305   9.697   1.415 -0.8956 -0.1535  1.8318
  566MOL0     H78055   4.413   9.406   1.406 -1.5275 -0.4593 -0.4965
  566MOL0     H78056   4.464   9.540   1.293 -1.5769 -1.1190  0.2246
  566MOL0     H78057   4.729   9.607   1.362  1.5503 -2.2658  0.1422
  566MOL0     H78058   4.948   9.522   1.513  1.3080 -2.4075  0.9547
  566MOL0     H78059   4.909   9.509   1.687 -0.2153  1.3647  1.5362
  566MOL0     H78060   5.064   9.706   1.584  0.1474 -1.3294  1.1211
  566MOL0     H78061   4.908   9.761   1.517 -0.9075  0.0908 -1.5458
  566MOL0     H78062   4.806   9.793   1.739 -0.9046 -5.0105 -1.2150
  566MOL0     H78063   4.949   9.728   1.823 -0.0647  0.4180  0.7758
  566MOL0     H78064   4.992   9.970   1.638  1.2492 -1.7298 -1.9507
  566MOL0     H78065   4.969   9.971   1.817  0.1817 -0.2943  0.1134
  566MOL0     H78066   5.149  10.062   1.901 -0.1686  0.2642 -0.0104
  566MOL0     H78067   5.235  10.300   1.944 -0.6104 -1.7929  0.4883
  566MOL0     H78068   5.405  10.352   1.899 -0.6632 -0.6375 -1.8443
  566MOL0     H78069   5.369  10.232   2.033  0.6840 -1.1908 -0.2095
  566MOL0     H78070   5.795  10.018   1.939  0.3999  1.3597  0.8019
  566MOL0     H78071   6.030  10.068   2.022  0.4712 -2.2941 -2.2068
  566MOL0     H78072   6.203  10.199   2.088 -1.8573 -1.9567 -0.9230
  566MOL0     H78073   6.278  10.086   1.977  0.0722  0.2508 -3.1985
  566MOL0     H78074   6.429  10.227   2.118  0.6441  0.7200  1.0833
  566MOL0     H78075   6.456  10.243   1.934 -0.7400 -0.3172  0.1305
  566MOL0     H78076   6.289  10.430   2.113 -0.8025  2.8033 -0.7329
  566MOL0     H78077   6.351  10.470   1.954  2.3117 -1.0600 -0.9977
  566MOL0     H78078   6.580  10.499   2.040 -1.3966  2.3814 -1.1217
  566MOL0     H78079   6.537  10.437   2.190  1.3854 -0.6752 -0.7512
  566MOL0     H78080   6.426  10.700   2.067 -2.8130  0.2212  0.5554
  566MOL0     H78081   6.385  10.646   2.226 -0.2142  1.0767 -0.5484
  566MOL0     H78082   6.630  10.643   2.288 -0.3615 -1.1968 -1.4549
  566MOL0     H78083   6.562  10.806   2.254 -1.3661  0.0566 -1.3928
  566MOL0     H78084   6.677  10.750   2.004 -0.0116 -0.9381 -0.7144
  566MOL0     H78085   6.755  10.638   2.103 -0.8901 -0.3047 -1.3709
  566MOL0     H78086   6.907  10.838   2.097 -0.3552 -1.4137 -2.2915
  566MOL0     H78087   6.839  10.830   2.250 -1.3975  1.3594  0.1984
  566MOL0     H78088   6.099  10.310   1.668  0.9317 -0.0707 -0.5549
  566MOL0     H78089   5.874  10.240   1.582 -0.7098 -0.5505 -0.0435
  566MOL0     H78090   5.535   9.988   1.598 -0.7485 -1.3605  0.7308
  566MOL0     H78091   5.325   9.858   1.573  0.5906 -1.5210  0.4487
  566MOL0     H78092   3.426   9.566   0.777 -0.2317 -0.2957 -0.3808
  566MOL0     H78093   3.214   9.693   0.749  0.0155  2.1737 -1.1459
  566MOL0     H78094   2.928   9.957   0.950  0.4243  0.6077 -0.7542
  566MOL0     H78095   2.706   9.986   0.901 -0.2369  0.2503 -0.2033
  566MOL0     H78096   2.612  10.299   0.578 -3.1837  0.6751 -3.8721
  566MOL0     H78097   2.505  10.169   0.524 -1.0638  1.0004 -0.3187
  566MOL0     H78098   2.470  10.318   0.783 -2.4000  2.0875 -0.0458
  566MOL0     H78099   2.356  10.228   0.699  0.7993 -0.1754  0.6172
  566MOL0     H78100   2.417  10.396   0.492  1.1471 -3.0889  0.9412
  566MOL0     H78101   2.298  10.454   0.617  1.2201  2.5447  0.0548
  566MOL0     H78102   2.488  10.623   0.581 -3.7321  0.7244  1.3585
  566MOL0     H78103   2.596  10.497   0.641 -1.8264 -2.7662 -0.6524
  566MOL0     H78104   2.425  10.680   0.986  4.1173  3.9573 -0.9533
  566MOL0     H78105   2.799  10.232   0.562  1.6647 -2.7268 -2.6419
  566MOL0     H78106   3.104  10.184   0.497  4.2848  1.5021  1.7542
  566MOL0     H78107   2.989  10.317   0.544 -3.0239 -0.9029  0.5077
  566MOL0     H78108   3.132  10.274   0.645  1.0605  0.1235 -1.4255
  567MOL0     O78109   2.518   9.480   8.363 -0.1932  0.4779  0.0655
  567MOL0     C78110   2.619   9.459   8.294  0.5150  0.0133  0.5620
  567MOL0     O78111   2.654   9.342   8.238 -0.2323 -0.1850  0.6614
  567MOL0     C78112   2.593   9.225   8.276  0.2446  0.5087 -0.6519
  567MOL0     C78113   2.556   9.132   8.185  0.2864  0.1152 -0.1581
  567MOL0     C78114   2.506   9.001   8.218  0.2959  0.5977  0.0278
  567MOL0     C78115   2.480   8.966   8.349 -0.0067  0.2585 -0.4644
  567MOL0     O78116   2.422   8.851   8.397 -0.1324 -0.0961  0.2430
  567MOL0     C78117   2.331   8.775   8.308  0.2435  0.4973  0.3465
  567MOL0     C78118   2.389   8.656   8.225  0.5655  0.1522 -0.0605
  567MOL0     C78119   2.273   8.559   8.183  0.3046 -0.9453  0.3820
  567MOL0     C78120   2.226   8.607   8.042 -1.3953  1.3072 -0.5691
  567MOL0     C78121   2.117   8.520   7.975  0.7085  0.8495  0.8306
  567MOL0     C78122   2.082   8.604   7.853 -0.2802 -0.0857  1.0892
  567MOL0     C78123   1.968   8.545   7.765 -0.2906  0.3497  0.2824
  567MOL0     C78124   2.024   8.436   7.672  0.4704  0.3112  0.3061
  567MOL0     N78125   1.920   8.379   7.587  0.8618 -0.4202 -0.0140
  567MOL0     C78126   1.864   8.440   7.475  0.5828  0.1984  0.0814
  567MOL0     C78127   1.775   8.346   7.422  1.1615 -0.4445 -0.6921
  567MOL0     C78128   1.689   8.360   7.301 -0.4488 -0.7658  0.0590
  567MOL0     C78129   1.557   8.291   7.300 -1.1366  0.4611 -0.0072
  567MOL0     C78130   1.500   8.295   7.155 -0.7459 -1.0462 -0.3102
  567MOL0     C78131   1.345   8.286   7.165  0.3565  0.2134 -0.0276
  567MOL0     O78132   1.313   8.157   7.216 -0.0423 -0.4350  0.5835
  567MOL0     C78133   1.184   8.112   7.189  0.5307 -0.5930  0.2127
  567MOL0     C78134   1.076   8.191   7.150  0.6937 -0.0909 -0.7298
  567MOL0     C78135   0.954   8.141   7.107 -1.3462  0.0221  0.5431
  567MOL0     C78136   0.846   8.237   7.067 -0.0483  0.8462 -0.5018
  567MOL0     C78137   0.939   8.004   7.092  0.2819 -0.1041  0.0043
  567MOL0     C78138   0.822   7.937   7.031 -0.0436 -1.1882  0.4031
  567MOL0     O78139   0.691   7.969   7.066 -0.1691 -0.5227  0.3079
  567MOL0     C78140   0.588   7.947   6.971 -0.3433  0.7925 -0.5043
  567MOL0     C78141   0.484   7.861   7.021 -0.8068  0.4346 -0.5799
  567MOL0     C78142   0.375   7.832   6.936 -0.2188  0.2434  0.8022
  567MOL0     C78143   0.362   7.897   6.812 -0.4766 -0.0397  0.4920
  567MOL0     O78144   0.264   7.878   6.725 -0.1115  0.1209 -0.1206
  567MOL0     C78145   0.177   7.768   6.745  0.2442 -0.6488 -0.8109
  567MOL0     C78146   0.073   7.782   6.636  0.1395 -0.1958  0.0821
  567MOL0     C78147  -0.025   7.665   6.648  0.5022  0.5002  0.2980
  567MOL0     C78148  -0.142   7.693   6.557  0.3259 -0.7243 -0.1509
  567MOL0     C78149  -0.110   7.650   6.416 -0.1479 -0.2041 -0.2438
  567MOL0     C78150  -0.224   7.685   6.313  0.5314  0.0053  0.1943
  567MOL0     C78151  -0.160   7.729   6.182 -0.1682 -0.6900  0.5710
  567MOL0     C78152  -0.247   7.819   6.100 -1.1193  0.3367 -0.8069
  567MOL0    Cl78153  -0.405   7.727   6.055 -0.2235 -0.3260 -0.2667
  567MOL0     C78154   0.465   7.987   6.770  0.3427  1.3154 -0.4139
  567MOL0     C78155   0.572   8.018   6.853  0.6149 -0.1446 -0.2706
  567MOL0     O78156   0.850   7.839   6.960  0.2552 -0.1344 -0.5497
  567MOL0     C78157   1.041   7.920   7.154  0.1207  0.2527  0.1076
  567MOL0     C78158   1.164   7.979   7.199 -0.1689 -0.3710 -0.5200
  567MOL0     N78159   1.775   8.238   7.513  1.1589 -0.0576  0.2424
  567MOL0     N78160   1.860   8.262   7.604  0.2198  0.6895 -0.6409
  567MOL0     C78161   2.529   9.055   8.447 -0.0467 -0.1092  0.1549
  567MOL0     C78162   2.576   9.179   8.411 -0.0624 -0.6598 -0.0517
  567MOL0     C78163   2.691   9.574   8.232 -0.4217 -0.3512  0.1929
  567MOL0     C78164   2.665   9.597   8.096 -0.3801  0.0402 -0.4338
  567MOL0     C78165   2.715   9.708   8.024  0.4760  0.1505 -0.3595
  567MOL0     C78166   2.778   9.811   8.087  0.3616 -0.1923  0.1307
  567MOL0     O78167   2.818   9.922   8.012 -0.4117  0.1671  0.5230
  567MOL0     C78168   2.905  10.020   8.061 -0.1239 -0.3297  0.6632
  567MOL0     C78169   2.842  10.152   8.089  0.1595  0.0257  0.4303
  567MOL0     C78170   2.712  10.144   8.172 -0.4626  0.1692  0.3452
  567MOL0     C78171   2.660  10.267   8.248 -0.1698  0.0525 -0.0442
  567MOL0     C78172   2.762  10.316   8.340  0.2649  0.1185  0.3184
  567MOL0     C78173   2.836  10.355   8.418 -0.2064 -0.0506 -0.0546
  567MOL0     C78174   2.818   9.788   8.224 -0.0252  0.0747  0.3844
  567MOL0     C78175   2.767   9.671   8.297 -0.8040  0.5214 -0.9343
  567MOL0     C78176   2.780   9.670   8.448 -0.0745  0.2581  0.2826
  567MOL0     H78177   2.567   9.148   8.078  0.6337 -0.8598 -0.2731
  567MOL0     H78178   2.491   8.935   8.133 -1.2765 -1.4857  1.7754
  567MOL0     H78179   2.287   8.856   8.249  1.6178  0.8533 -0.2303
  567MOL0     H78180   2.248   8.739   8.369 -0.2598 -1.3344 -1.3337
  567MOL0     H78181   2.443   8.693   8.138  0.7919  1.0586  0.4546
  567MOL0     H78182   2.457   8.596   8.287 -0.4846 -1.0225  0.0116
  567MOL0     H78183   2.309   8.455   8.184  2.3762 -0.3023 -0.8462
  567MOL0     H78184   2.190   8.560   8.254 -0.4997 -0.7740 -0.5402
  567MOL0     H78185   2.188   8.708   8.060 -1.0316  1.6942 -1.8632
  567MOL0     H78186   2.317   8.615   7.981 -1.5621  0.7016 -0.9095
  567MOL0     H78187   2.029   8.499   8.037 -0.1352 -0.5772 -0.7467
  567MOL0     H78188   2.145   8.418   7.945 -1.2960  0.1873  1.0538
  567MOL0     H78189   2.053   8.704   7.885  0.1792  0.6492 -0.6893
  567MOL0     H78190   2.174   8.613   7.794  1.1452  1.8431  3.4601
  567MOL0     H78191   1.935   8.622   7.695 -0.9220 -2.5577 -2.8694
  567MOL0     H78192   1.881   8.516   7.824 -0.5621 -0.5052 -0.5119
  567MOL0     H78193   2.107   8.480   7.617  1.0831 -1.5707 -0.3506
  567MOL0     H78194   2.068   8.353   7.729  0.2807 -1.3158 -1.7940
  567MOL0     H78195   1.889   8.538   7.435  1.2012 -0.1323 -0.3397
  567MOL0     H78196   1.740   8.331   7.209 -3.0184  1.5976 -2.3185
  567MOL0     H78197   1.666   8.465   7.281 -1.8120 -1.0849 -0.1437
  567MOL0     H78198   1.578   8.187   7.326 -2.2870 -0.1436 -1.3611
  567MOL0     H78199   1.486   8.338   7.370 -0.4488  0.4894  0.6788
  567MOL0     H78200   1.542   8.383   7.105 -0.6653 -2.5165 -3.0450
  567MOL0     H78201   1.531   8.210   7.093  0.9661 -1.3856  0.9275
  567MOL0     H78202   1.310   8.362   7.235  0.3334  2.1011 -1.9672
  567MOL0     H78203   1.299   8.298   7.066  0.7300 -1.2142 -0.4035
  567MOL0     H78204   1.083   8.299   7.161  0.3607  0.0128 -1.4624
  567MOL0     H78205   0.774   8.190   6.999  0.5611 -1.5439  0.4163
  567MOL0     H78206   0.886   8.326   7.016  1.1552  0.9619  0.5841
  567MOL0     H78207   0.799   8.281   7.155 -0.4072  1.8897 -1.1914
  567MOL0     H78208   0.494   7.812   7.117 -0.0888  2.7595  0.5919
  567MOL0     H78209   0.304   7.759   6.973  1.2038 -0.5022  2.1815
  567MOL0     H78210   0.223   7.669   6.742  1.4824 -0.4636  3.9929
  567MOL0     H78211   0.137   7.775   6.846  2.7444 -0.0766  0.1920
  567MOL0     H78212   0.017   7.874   6.649  1.7044  1.0977 -1.7423
  567MOL0     H78213   0.113   7.780   6.534  0.2654  0.0849  0.1255
  567MOL0     H78214  -0.066   7.663   6.749  2.3950  2.4435  1.1877
  567MOL0     H78215   0.017   7.567   6.625  0.9193  1.0557 -1.4838
  567MOL0     H78216  -0.158   7.801   6.554  0.1602 -0.7030  1.0509
  567MOL0     H78217  -0.236   7.650   6.593  1.1832 -0.5660  2.5047
  567MOL0     H78218  -0.021   7.706   6.385 -1.3874  2.8344  1.2705
  567MOL0     H78219  -0.084   7.544   6.418 -0.8332 -0.4045 -1.2322
  567MOL0     H78220  -0.275   7.770   6.359  1.6352 -0.8948  3.3408
  567MOL0     H78221  -0.283   7.596   6.292  1.1951 -0.1329 -1.2294
  567MOL0     H78222  -0.137   7.631   6.139  1.5494 -0.7902  1.6582
  567MOL0     H78223  -0.066   7.781   6.201  0.0286 -1.7170  2.7831
  567MOL0     H78224  -0.189   7.861   6.018  1.6090  1.1399  1.3746
  567MOL0     H78225  -0.275   7.906   6.159 -1.6730 -1.8606  2.4107
  567MOL0     H78226   0.451   8.029   6.671  4.7977  2.5236 -0.7247
  567MOL0     H78227   0.641   8.098   6.830  0.2182  0.1346 -0.5002
  567MOL0     H78228   1.024   7.812   7.152 -2.4237  0.5760  0.5938
  567MOL0     H78229   1.247   7.919   7.235  0.0374 -0.6524 -1.4329
  567MOL0     H78230   2.506   9.035   8.551  1.3621  1.0888  0.7410
  567MOL0     H78231   2.612   9.243   8.491 -1.3082  0.1509 -0.1179
  567MOL0     H78232   2.601   9.533   8.035 -0.2140 -1.0876  0.5358
  567MOL0     H78233   2.698   9.709   7.917  0.8695 -2.4796 -0.5285
  567MOL0     H78234   2.966   9.969   8.136 -0.3226  0.2981  1.2632
  567MOL0     H78235   2.971  10.039   7.976 -1.7179 -0.2443 -0.5993
  567MOL0     H78236   2.813  10.196   7.993 -0.3177  3.1320  1.8760
  567MOL0     H78237   2.924  10.209   8.133 -0.6472  2.9697 -1.5975
  567MOL0     H78238   2.638  10.107   8.101  0.6422  1.0695 -1.3431
  567MOL0     H78239   2.732  10.060   8.240 -0.2130 -0.4301 -0.4501
  567MOL0     H78240   2.568  10.247   8.306  1.0993 -0.7542  1.7956
  567MOL0     H78241   2.617  10.338   8.177 -0.9889 -2.0694 -1.8009
  567MOL0     H78242   2.908  10.393   8.487  1.1434  0.3687 -1.6266
  567MOL0     H78243   2.874   9.860   8.284 -0.9590 -0.7426  2.3135
  567MOL0     H78244   2.858   9.739   8.481 -1.2015  0.7915  2.0159
  567MOL0     H78245   2.683   9.708   8.482 -0.2620  0.1100 -0.0799
  567MOL0     H78246   2.793   9.575   8.501  2.1191  1.4263  2.0054
  568MOL0     O78247  10.318   5.954   6.999 -0.8247  0.7393 -0.2701
  568MOL0     C78248  10.235   6.006   7.073 -0.5251  1.0894  1.3897
  568MOL0     O78249  10.259   6.109   7.158 -0.4092  1.1045 -0.0240
  568MOL0     C78250  10.370   6.185   7.165  0.5686 -0.5546  1.0377
  568MOL0     C78251  10.379   6.272   7.275  0.5751  0.0363 -0.2747
  568MOL0     C78252  10.482   6.359   7.296 -0.3142 -0.0733  0.3263
  568MOL0     C78253  10.596   6.352   7.214 -0.0960  0.0972  0.2398
  568MOL0     O78254  10.710   6.429   7.242  0.1818 -0.6069 -0.4744
  568MOL0     C78255  10.749   6.536   7.154  0.5600  0.7630 -0.2533
  568MOL0     C78256  10.892   6.565   7.179 -0.6974 -0.0011  0.1368
  568MOL0     C78257  10.934   6.697   7.122  0.7506 -0.0399 -0.7741
  568MOL0     C78258  10.869   6.818   7.207 -0.3019  0.7625  0.6243
  568MOL0     C78259  10.939   6.953   7.191 -0.1689  0.7612  0.6016
  568MOL0     C78260  10.869   7.060   7.275 -0.4615 -0.4658 -0.0988
  568MOL0     C78261  10.923   7.203   7.250 -0.1494 -0.1615  0.7921
  568MOL0     C78262  10.939   7.286   7.375 -0.0570 -1.1211  0.0056
  568MOL0     N78263  11.019   7.409   7.354  0.4591  1.0645  0.1170
  568MOL0     C78264  10.984   7.527   7.411  0.6560  0.1078  0.0493
  568MOL0     C78265  11.105   7.591   7.429  0.2797  0.2663  0.1451
  568MOL0     C78266  11.118   7.726   7.501  0.0496 -0.3948  0.3473
  568MOL0     C78267  11.237   7.718   7.595 -0.3671 -0.4102  0.8911
  568MOL0     C78268  11.274   7.863   7.642  1.0222  0.0035 -0.1323
  568MOL0     C78269  11.169   7.924   7.741 -0.1385  0.0116 -0.0824
  568MOL0     O78270  11.169   7.839   7.856  0.3908 -0.1262 -0.7061
  568MOL0     C78271  11.049   7.789   7.899 -0.4882  0.3284  0.0600
  568MOL0     C78272  10.928   7.854   7.892 -0.5047 -0.8095 -0.3508
  568MOL0     C78273  10.805   7.795   7.937 -0.0091  0.5618  1.9155
  568MOL0     C78274  10.681   7.874   7.915  0.4304 -0.3917 -0.4349
  568MOL0     C78275  10.808   7.664   7.990  0.8468  1.6482  0.2275
  568MOL0     C78276  10.685   7.582   8.032 -0.3222  0.4238  0.2236
  568MOL0     O78277  10.562   7.621   7.991  0.1224  0.3213  0.3397
  568MOL0     C78278  10.454   7.547   8.036  0.1052 -0.7342 -0.5621
  568MOL0     C78279  10.364   7.610   8.122  0.4324 -0.2017 -0.6500
  568MOL0     C78280  10.252   7.538   8.162  0.2810  1.3062 -0.5297
  568MOL0     C78281  10.217   7.416   8.108  1.4694  0.1667 -0.2178
  568MOL0     O78282  10.106   7.338   8.140 -0.3701  0.1439 -1.0444
  568MOL0     C78283  10.014   7.399   8.229  0.0048  0.7999  0.2751
  568MOL0     C78284   9.905   7.299   8.257  0.3795  0.6517 -0.1674
  568MOL0     C78285   9.833   7.246   8.136 -0.1960 -0.1599  0.0872
  568MOL0     C78286   9.744   7.122   8.171 -0.0798 -0.0120  0.2462
  568MOL0     C78287   9.637   7.105   8.059 -0.3185 -0.4517  0.3734
  568MOL0     C78288   9.681   7.042   7.926 -0.2068 -0.4186 -0.5368
  568MOL0     C78289   9.554   7.037   7.841  0.0868  0.2072  0.7045
  568MOL0     C78290   9.587   6.988   7.698 -0.2171  0.4009 -0.2678
  568MOL0    Cl78291   9.585   6.810   7.686 -0.1701  0.2719  0.1519
  568MOL0     C78292  10.305   7.354   8.018 -0.2760  0.3583  0.4979
  568MOL0     C78293  10.416   7.423   7.988 -0.3182  0.2457  0.1311
  568MOL0     O78294  10.707   7.485   8.105  0.0167  0.1477 -0.0765
  568MOL0     C78295  10.934   7.597   7.998 -0.4527 -0.7483 -0.6958
  568MOL0     C78296  11.051   7.664   7.958  1.2223 -0.0869 -0.1683
  568MOL0     N78297  11.205   7.517   7.376 -0.2619 -1.2019  0.0572
  568MOL0     N78298  11.158   7.408   7.331 -0.2459  0.1520  0.1832
  568MOL0     C78299  10.597   6.272   7.092  0.3221  0.0072 -0.4801
  568MOL0     C78300  10.485   6.186   7.073 -0.0464  0.0484  0.7922
  568MOL0     C78301  10.096   5.961   7.071  0.4452 -0.6434 -0.0087
  568MOL0     C78302  10.007   6.043   7.149  0.3834  0.2142  0.5879
  568MOL0     C78303   9.876   6.006   7.151 -0.8798  0.1245 -0.1245
  568MOL0     C78304   9.820   5.905   7.071  0.0367  0.2619  0.4197
  568MOL0     O78305   9.691   5.870   7.072 -0.1959  0.0186  0.1352
  568MOL0     C78306   9.614   5.860   7.193  0.1635 -0.2974 -0.7538
  568MOL0     C78307   9.463   5.827   7.166 -0.4338  0.5168  0.3237
  568MOL0     C78308   9.381   5.946   7.115 -0.4134  0.2691  0.3732
  568MOL0     C78309   9.396   6.075   7.199 -0.2277 -0.0752  0.1062
  568MOL0     C78310   9.357   6.060   7.341 -0.9868 -0.2063  0.5944
  568MOL0     C78311   9.335   6.061   7.463  0.2362 -0.2299  0.3291
  568MOL0     C78312   9.903   5.823   6.998 -0.4425  0.5355  0.5625
  568MOL0     C78313  10.045   5.844   7.005 -0.1241 -0.0436 -0.4812
  568MOL0     C78314  10.142   5.746   6.932 -0.1661  0.1364 -0.0195
  568MOL0     H78315  10.297   6.278   7.346  0.6677 -0.8621 -0.0885
  568MOL0     H78316  10.479   6.429   7.380 -0.7726  0.8104 -0.4070
  568MOL0     H78317  10.683   6.618   7.181 -0.5938 -0.0621 -0.4913
  568MOL0     H78318  10.727   6.501   7.052 -2.4056  1.9576 -0.1113
  568MOL0     H78319  10.904   6.556   7.287  2.2666  3.2133  0.2465
  568MOL0     H78320  10.956   6.494   7.126  0.3233  1.3933 -0.5575
  568MOL0     H78321  11.044   6.701   7.124  0.9499 -3.2775  0.8884
  568MOL0     H78322  10.901   6.696   7.018  0.0748 -0.3248 -0.5598
  568MOL0     H78323  10.762   6.819   7.184 -0.7902  0.0783  2.6283
  568MOL0     H78324  10.889   6.801   7.313 -0.6287  0.5015  0.6461
  568MOL0     H78325  10.940   6.979   7.085  0.3762 -0.6943  0.2283
  568MOL0     H78326  11.047   6.963   7.208 -0.6111  3.8206  2.5529
  568MOL0     H78327  10.760   7.055   7.265 -0.4314 -1.1379 -0.1540
  568MOL0     H78328  10.894   7.025   7.375  1.4415  0.7784 -0.1029
  568MOL0     H78329  10.858   7.260   7.183 -0.4593 -1.3765  0.0168
  568MOL0     H78330  11.022   7.188   7.206 -1.4202 -1.6405 -1.7757
  568MOL0     H78331  10.839   7.318   7.407  0.4605  2.2661 -1.3529
  568MOL0     H78332  10.987   7.237   7.460 -1.1223 -1.0196  0.6809
  568MOL0     H78333  10.883   7.556   7.436  0.1892 -0.2482 -1.3124
  568MOL0     H78334  11.028   7.751   7.557 -0.9351 -1.5300 -0.6782
  568MOL0     H78335  11.133   7.789   7.413  2.9806 -2.1906 -0.5783
  568MOL0     H78336  11.222   7.642   7.673  0.7496  0.7318  2.2691
  568MOL0     H78337  11.326   7.688   7.539  0.3525  3.1615 -0.0979
  568MOL0     H78338  11.362   7.860   7.707  0.7406  0.3074  0.2658
  568MOL0     H78339  11.294   7.918   7.549 -0.6558 -1.0095 -1.1672
  568MOL0     H78340  11.204   8.026   7.761  0.7721 -0.0006 -1.4703
  568MOL0     H78341  11.069   7.924   7.698  0.1109  1.3829 -0.7259
  568MOL0     H78342  10.926   7.957   7.858 -2.7519 -1.1299 -1.3427
  568MOL0     H78343  10.630   7.829   7.829 -1.5512  2.4709 -0.9239
  568MOL0     H78344  10.703   7.978   7.887 -0.7434 -0.1189 -0.3643
  568MOL0     H78345  10.619   7.873   8.004  1.4114  0.5375  0.2878
  568MOL0     H78346  10.369   7.711   8.163  0.9889  0.5204 -2.3965
  568MOL0     H78347  10.192   7.588   8.237  1.8098  0.7247  1.1538
  568MOL0     H78348  10.058   7.420   8.327 -1.7290  2.0219  0.8460
  568MOL0     H78349   9.981   7.497   8.193  2.9472  1.6107 -0.5129
  568MOL0     H78350   9.938   7.211   8.313 -0.7833 -0.3485 -1.0233
  568MOL0     H78351   9.821   7.344   8.310  1.0317 -1.4977  2.9331
  568MOL0     H78352   9.904   7.206   8.064  0.8346 -4.1877  2.9859
  568MOL0     H78353   9.776   7.331   8.097  2.7499  1.3550 -1.2128
  568MOL0     H78354   9.696   7.133   8.269  1.9984  0.9780  1.2126
  568MOL0     H78355   9.805   7.032   8.177  0.3751  0.3788  2.4621
  568MOL0     H78356   9.563   7.034   8.096 -1.2338 -0.0168 -0.5890
  568MOL0     H78357   9.586   7.199   8.038 -1.0263 -0.2524  2.7329
  568MOL0     H78358   9.718   6.941   7.947  1.2927  0.1535 -0.3413
  568MOL0     H78359   9.757   7.103   7.877 -2.2785  0.4485 -2.9110
  568MOL0     H78360   9.505   7.134   7.843 -1.3532 -0.4971  0.4363
  568MOL0     H78361   9.478   6.976   7.890  1.8858 -2.1698  0.7004
  568MOL0     H78362   9.685   7.027   7.667 -0.6377  0.7156 -1.2355
  568MOL0     H78363   9.509   7.025   7.631 -2.1762 -1.3742  0.9068
  568MOL0     H78364  10.292   7.253   7.982  2.5801 -0.2967  1.0382
  568MOL0     H78365  10.468   7.367   7.911 -0.1238 -0.8402  1.0338
  568MOL0     H78366  10.950   7.498   8.039 -2.0294  0.3106  2.8782
  568MOL0     H78367  11.145   7.610   7.968 -1.1788 -4.7741  0.1771
  568MOL0     H78368  10.683   6.262   7.027 -2.1505 -0.4401 -3.9499
  568MOL0     H78369  10.494   6.119   6.988  0.1994 -1.0563  1.6578
  568MOL0     H78370  10.033   6.128   7.210 -1.4461  1.5561 -0.4059
  568MOL0     H78371   9.815   6.050   7.229  1.7776  3.4686  0.3123
  568MOL0     H78372   9.654   5.783   7.260 -0.5804  0.1552  0.2303
  568MOL0     H78373   9.627   5.956   7.244 -0.5118 -0.2393 -0.6926
  568MOL0     H78374   9.435   5.789   7.264  3.7392  1.0187  1.9486
  568MOL0     H78375   9.449   5.743   7.098 -0.8220 -0.4809  1.6010
  568MOL0     H78376   9.409   5.959   7.010 -0.2060  1.2626  0.5425
  568MOL0     H78377   9.279   5.907   7.101 -0.3200  0.5562 -1.3021
  568MOL0     H78378   9.319   6.138   7.152 -2.6353 -1.2291  2.2561
  568MOL0     H78379   9.493   6.125   7.195 -0.0886  0.0322  3.1172
  568MOL0     H78380   9.323   6.060   7.569  2.5786 -5.5679  0.8810
  568MOL0     H78381   9.867   5.733   6.949  1.5745 -0.0437  0.0463
  568MOL0     H78382  10.097   5.647   6.922  1.0925 -0.8245  2.6265
  568MOL0     H78383  10.178   5.781   6.835  0.3173 -0.0088  0.1041
  568MOL0     H78384  10.230   5.735   6.996 -0.4632 -1.4946  0.1508
  569MOL0     O78385   5.675   3.619  10.004 -0.0179 -0.1199 -0.7053
  569MOL0     C78386   5.578   3.551  10.010  0.7024 -0.1962  0.1941
  569MOL0     O78387   5.570   3.412  10.006  0.1314 -0.3584  0.2395
  569MOL0     C78388   5.673   3.319  10.008 -0.7169  0.3861 -0.2374
  569MOL0     C78389   5.641   3.175  10.031  0.6693 -0.0913  1.0952
  569MOL0     C78390   5.743   3.092  10.048 -0.5666  0.2585  0.0764
  569MOL0     C78391   5.879   3.129  10.022  0.1911 -0.7873 -0.0378
  569MOL0     O78392   5.982   3.042  10.040 -0.5237 -0.3553 -0.5746
  569MOL0     C78393   6.025   2.978   9.917 -0.7917  0.2140  0.2061
  569MOL0     C78394   6.175   2.955   9.929 -0.3245 -0.1478  0.0719
  569MOL0     C78395   6.237   2.868   9.818 -0.0382 -0.8014 -0.3560
  569MOL0     C78396   6.389   2.896   9.800  0.3277  0.0512  0.8602
  569MOL0     C78397   6.454   2.823   9.688  0.2478  0.1098  0.8035
  569MOL0     C78398   6.604   2.864   9.653 -0.5325 -0.8570 -0.4803
  569MOL0     C78399   6.644   2.782   9.537 -0.4487  0.5975  0.1152
  569MOL0     C78400   6.791   2.808   9.495  0.4294 -0.2052  0.6058
  569MOL0     N78401   6.843   2.706   9.403  0.6646 -0.0093  0.6208
  569MOL0     C78402   6.971   2.694   9.378 -0.5516 -0.1235  0.8009
  569MOL0     C78403   6.987   2.586   9.304 -0.4384  0.0071  0.4401
  569MOL0     C78404   7.109   2.538   9.231  0.2233  0.4000 -0.7803
  569MOL0     C78405   7.083   2.506   9.079  0.1939 -0.2650 -0.1746
  569MOL0     C78406   7.208   2.444   9.015  1.2187 -0.7186  0.6303
  569MOL0     C78407   7.312   2.551   8.988 -0.2373 -0.8184 -0.0809
  569MOL0     O78408   7.252   2.645   8.894 -0.3390  0.5935 -0.1863
  569MOL0     C78409   7.341   2.739   8.838  0.7664  0.3793 -1.1561
  569MOL0     C78410   7.278   2.836   8.759  0.1023 -0.3950 -0.5976
  569MOL0     C78411   7.358   2.939   8.699 -0.1232  0.6723 -0.6124
  569MOL0     C78412   7.294   3.055   8.630 -0.9062  0.0098  1.1818
  569MOL0     C78413   7.492   2.946   8.734 -0.6351  0.6320  0.0779
  569MOL0     C78414   7.578   3.058   8.684  0.2796 -0.2345 -0.3920
  569MOL0     O78415   7.599   3.151   8.779  0.2000 -0.4242  0.1722
  569MOL0     C78416   7.698   3.241   8.753 -0.4956  1.1796  0.0663
  569MOL0     C78417   7.829   3.190   8.728  0.2505 -0.2808  0.6292
  569MOL0     C78418   7.935   3.277   8.718  0.3829  0.5196  0.6418
  569MOL0     C78419   7.921   3.408   8.729 -0.8240 -0.9949 -0.5559
  569MOL0     O78420   8.041   3.487   8.743  0.1789 -0.1175  0.0748
  569MOL0     C78421   8.019   3.619   8.794 -0.0130  0.1662 -0.3668
  569MOL0     C78422   8.146   3.700   8.845  0.6933  0.6655  0.0015
  569MOL0     C78423   8.209   3.615   8.961  0.4243  0.1939 -0.4059
  569MOL0     C78424   8.334   3.667   9.033 -0.5744 -0.0791 -0.0237
  569MOL0     C78425   8.468   3.629   8.955 -0.2447 -0.5749 -0.2385
  569MOL0     C78426   8.588   3.697   9.031  0.4638 -0.0718  0.4022
  569MOL0     C78427   8.714   3.629   8.981 -0.2854 -1.0181  0.0967
  569MOL0     C78428   8.838   3.696   9.029  0.4588  0.0102  0.7238
  569MOL0    Cl78429   8.971   3.620   8.930 -0.0316 -0.1150 -0.5959
  569MOL0     C78430   7.792   3.463   8.739  0.5935  0.7612  0.6361
  569MOL0     C78431   7.684   3.376   8.773 -0.9200 -0.4048  0.1010
  569MOL0     O78432   7.626   3.060   8.574 -0.1319  0.2531  0.9157
  569MOL0     C78433   7.553   2.849   8.820  0.7907  0.4555  0.1912
  569MOL0     C78434   7.478   2.747   8.867  0.7615  0.0851  0.0750
  569MOL0     N78435   6.863   2.523   9.302  0.7058 -0.0721 -0.2177
  569MOL0     N78436   6.771   2.590   9.368 -0.0855  0.4970  0.1129
  569MOL0     C78437   5.911   3.258   9.990 -0.6848 -0.0037  0.4377
  569MOL0     C78438   5.804   3.352   9.984 -0.2907 -0.7487 -0.2599
  569MOL0     C78439   5.459   3.632  10.033  0.3354  0.3047  0.2283
  569MOL0     C78440   5.371   3.569  10.125  0.5025 -0.5480 -0.7685
  569MOL0     C78441   5.243   3.621  10.158 -0.2240 -0.1687  0.6254
  569MOL0     C78442   5.200   3.741  10.101  0.3411  0.6639  0.2965
  569MOL0     O78443   5.081   3.795  10.136  0.2077  0.6786  1.0840
  569MOL0     C78444   5.015   3.875  10.028 -0.6308 -0.5838 -0.0305
  569MOL0     C78445   4.868   3.827  10.006 -0.9400 -0.4624 -0.2601
  569MOL0     C78446   4.884   3.700   9.928 -0.7400  0.6751 -0.2895
  569MOL0     C78447   4.749   3.661   9.884  0.4146  0.9785  0.5180
  569MOL0     C78448   4.672   3.592   9.987 -0.5708  0.5358 -0.0698
  569MOL0     C78449   4.616   3.553  10.083  0.3787  0.6982 -0.0037
  569MOL0     C78450   5.291   3.808  10.015 -0.9727  0.2933 -0.3413
  569MOL0     C78451   5.422   3.760   9.988  0.2021 -0.0986  0.0685
  569MOL0     C78452   5.511   3.847   9.905 -0.3028 -1.1032  0.1365
  569MOL0     H78453   5.537   3.144  10.029  0.1598  1.4962  1.5878
  569MOL0     H78454   5.713   2.988  10.057 -1.0161  0.3569 -0.2488
  569MOL0     H78455   6.001   3.032   9.825  2.1823  1.1498 -0.1299
  569MOL0     H78456   5.977   2.880   9.916  1.8877 -1.2123  0.6180
  569MOL0     H78457   6.218   3.056   9.931 -0.9880  0.1618  2.9184
  569MOL0     H78458   6.199   2.925  10.032 -0.4498  2.7244  1.0355
  569MOL0     H78459   6.219   2.763   9.843 -4.8753 -0.2488 -0.6968
  569MOL0     H78460   6.185   2.873   9.723 -0.9888 -3.5049 -0.0448
  569MOL0     H78461   6.415   3.000   9.775 -0.1770 -0.5219 -2.5646
  569MOL0     H78462   6.442   2.886   9.896  0.3549 -2.6944  0.6233
  569MOL0     H78463   6.393   2.835   9.598 -0.6203 -2.0846  1.0531
  569MOL0     H78464   6.462   2.717   9.714 -0.4623 -0.6961 -1.9688
  569MOL0     H78465   6.614   2.967   9.617  0.2670 -1.0166 -0.7262
  569MOL0     H78466   6.674   2.846   9.735 -2.0537 -0.6872  0.8968
  569MOL0     H78467   6.582   2.796   9.447  2.1937 -0.8214 -2.0696
  569MOL0     H78468   6.630   2.681   9.577 -1.2116  0.6811  0.0740
  569MOL0     H78469   6.794   2.903   9.440 -1.9552  0.0817  0.8416
  569MOL0     H78470   6.858   2.803   9.581  0.9747  0.0271  0.2051
  569MOL0     H78471   7.042   2.775   9.387 -0.8473 -0.0086  2.3057
  569MOL0     H78472   7.127   2.446   9.288 -2.2518  0.2194 -0.1911
  569MOL0     H78473   7.191   2.606   9.255 -1.4335  1.7967  1.2238
  569MOL0     H78474   7.000   2.436   9.062 -0.6377  0.1297  1.9627
  569MOL0     H78475   7.051   2.589   9.015  1.1916  0.3627  0.1124
  569MOL0     H78476   7.245   2.378   9.094 -1.8279 -0.3916  2.5106
  569MOL0     H78477   7.196   2.382   8.926  1.4217 -0.2311  0.2638
  569MOL0     H78478   7.347   2.603   9.078 -0.8191  1.0244 -0.8743
  569MOL0     H78479   7.395   2.501   8.937  0.3960  2.8914 -3.1857
  569MOL0     H78480   7.170   2.836   8.747  0.1210 -0.9745 -0.7899
  569MOL0     H78481   7.338   3.091   8.536 -2.4293  2.0930  1.2003
  569MOL0     H78482   7.298   3.137   8.703 -0.0305 -0.1177  1.2884
  569MOL0     H78483   7.194   3.020   8.602  0.4014 -2.4463 -0.7285
  569MOL0     H78484   7.843   3.082   8.724  0.3414 -0.2836  0.9619
  569MOL0     H78485   8.031   3.228   8.712  1.6014  2.5218  2.3180
  569MOL0     H78486   7.971   3.673   8.712 -1.2356  0.9325  0.8155
  569MOL0     H78487   7.942   3.618   8.871  0.1827 -0.9057 -0.1606
  569MOL0     H78488   8.212   3.729   8.762  1.3152  1.8057  0.8617
  569MOL0     H78489   8.114   3.794   8.892  0.8251 -0.1384  1.7618
  569MOL0     H78490   8.236   3.516   8.922 -1.9186  0.0541 -1.8931
  569MOL0     H78491   8.136   3.601   9.041  0.3275 -0.0556 -0.5353
  569MOL0     H78492   8.332   3.632   9.136 -3.8724 -0.2131 -0.0307
  569MOL0     H78493   8.319   3.776   9.033 -0.4893 -0.0086 -2.5931
  569MOL0     H78494   8.479   3.520   8.953  1.7531 -0.3991 -1.3356
  569MOL0     H78495   8.457   3.665   8.853 -1.9757  3.6170  1.1996
  569MOL0     H78496   8.566   3.677   9.137 -2.6586 -2.8619 -0.5579
  569MOL0     H78497   8.589   3.805   9.015 -2.0325  0.1685  1.3420
  569MOL0     H78498   8.710   3.633   8.871  0.5724 -0.3687  0.0783
  569MOL0     H78499   8.729   3.525   9.014  3.8342 -0.1857  1.4843
  569MOL0     H78500   8.850   3.670   9.135 -1.9047  2.9626  1.8464
  569MOL0     H78501   8.844   3.805   9.022 -2.4260  0.1547 -1.4994
  569MOL0     H78502   7.766   3.567   8.726  3.2128  1.6822  2.0673
  569MOL0     H78503   7.583   3.416   8.777 -0.5541  0.8949 -2.1400
  569MOL0     H78504   7.658   2.835   8.844  0.6293  1.2197  1.4344
  569MOL0     H78505   7.526   2.671   8.927  2.2335 -0.0047 -1.1282
  569MOL0     H78506   6.015   3.274   9.968 -0.8112 -0.5851 -0.6578
  569MOL0     H78507   5.834   3.451   9.954  2.1482 -1.5827 -0.8262
  569MOL0     H78508   5.396   3.474  10.170  3.2233 -0.7370 -2.4543
  569MOL0     H78509   5.184   3.562  10.227 -0.4765 -0.7102 -0.0382
  569MOL0     H78510   5.016   3.973  10.078  1.1478 -0.5946  0.0337
  569MOL0     H78511   5.057   3.880   9.927 -3.4976 -0.2654 -1.2988
  569MOL0     H78512   4.816   3.911   9.959  1.4597  2.0504  1.2338
  569MOL0     H78513   4.827   3.816  10.107  2.3440  0.5384  1.3197
  569MOL0     H78514   4.940   3.722   9.837  0.0383 -3.8442 -1.1500
  569MOL0     H78515   4.953   3.628   9.973 -0.1545  0.3970 -1.5759
  569MOL0     H78516   4.742   3.607   9.789 -1.5672 -1.3361  1.8650
  569MOL0     H78517   4.695   3.753   9.860 -0.5385  0.3567  0.2085
  569MOL0     H78518   4.580   3.512  10.174  0.6379 -2.9850 -1.4023
  569MOL0     H78519   5.267   3.898   9.960 -0.6983  3.0681  3.6955
  569MOL0     H78520   5.455   3.893   9.823  0.0113  1.9957  1.5061
  569MOL0     H78521   5.565   3.930   9.954  1.7603  1.1670 -5.2177
  569MOL0     H78522   5.586   3.790   9.850  0.7353  2.9851 -3.2756
  570MOL0     O78523   3.707   7.792   0.971 -0.3140 -0.0422 -0.0168
  570MOL0     C78524   3.663   7.903   0.932  0.4445  0.9488 -0.3352
  570MOL0     O78525   3.739   8.014   0.914 -0.2110 -0.4715  0.5417
  570MOL0     C78526   3.869   8.004   0.958  0.3609 -0.5512  0.7964
  570MOL0     C78527   3.960   7.917   0.896  0.9290  0.3397 -0.7439
  570MOL0     C78528   4.089   7.910   0.943  0.6128  0.0363  0.1608
  570MOL0     C78529   4.140   7.994   1.045 -0.4770 -0.0530  0.3964
  570MOL0     O78530   4.273   7.995   1.074  0.5944 -0.6676 -0.4501
  570MOL0     C78531   4.345   8.105   1.141  0.7019  1.7875  0.2461
  570MOL0     C78532   4.479   8.051   1.176 -0.3102 -0.2773  0.1572
  570MOL0     C78533   4.575   8.164   1.227 -0.0294 -0.4308  0.4671
  570MOL0     C78534   4.623   8.259   1.122  0.0921 -0.4939 -0.1644
  570MOL0     C78535   4.731   8.354   1.170  0.7442 -0.3642  0.4502
  570MOL0     C78536   4.767   8.462   1.074 -0.9090  0.0863 -0.0007
  570MOL0     C78537   4.875   8.551   1.144  0.8224 -0.0678  0.0630
  570MOL0     C78538   4.924   8.651   1.043 -0.3633 -0.2400  0.4145
  570MOL0     N78539   5.025   8.739   1.097  0.3048 -0.7091  0.2925
  570MOL0     C78540   5.162   8.738   1.072 -0.5408 -0.2291  0.1015
  570MOL0     C78541   5.219   8.837   1.147  0.0415  0.0604 -0.8137
  570MOL0     C78542   5.369   8.852   1.152  1.2908 -0.3157 -0.5453
  570MOL0     C78543   5.417   8.986   1.217 -0.2983 -0.3506 -0.5837
  570MOL0     C78544   5.573   8.973   1.223 -0.1445  0.4137  0.2077
  570MOL0     C78545   5.642   9.105   1.248  0.0873 -1.0109  0.4982
  570MOL0     O78546   5.774   9.073   1.295 -0.4715 -0.0177 -0.6571
  570MOL0     C78547   5.866   9.171   1.327 -0.1679 -0.4636  0.0966
  570MOL0     C78548   5.847   9.306   1.317  0.0208 -0.3901  0.6751
  570MOL0     C78549   5.946   9.395   1.362  1.3096 -0.6642  0.4173
  570MOL0     C78550   5.901   9.549   1.336 -0.8025  0.8315  0.4038
  570MOL0     C78551   6.074   9.357   1.402 -1.3956  0.1398 -0.0430
  570MOL0     C78552   6.192   9.450   1.419  0.3494 -0.2109 -0.5078
  570MOL0     O78553   6.308   9.383   1.445  0.9347 -0.1725 -0.5737
  570MOL0     C78554   6.418   9.441   1.502  0.5862  0.1314  0.0868
  570MOL0     C78555   6.428   9.468   1.637  0.7028 -0.2810  0.5725
  570MOL0     C78556   6.540   9.543   1.682  0.6818  0.4402 -0.8238
  570MOL0     C78557   6.635   9.585   1.591 -0.2342  0.3161  0.4719
  570MOL0     O78558   6.735   9.672   1.620  0.4679  0.6179 -1.0884
  570MOL0     C78559   6.717   9.802   1.564  1.1264 -0.7694 -0.0110
  570MOL0     C78560   6.778   9.902   1.657 -0.7351  0.5456  0.6202
  570MOL0     C78561   6.933   9.899   1.655  0.5445  0.0608 -0.4015
  570MOL0     C78562   6.986  10.009   1.763  0.0320 -0.1040 -0.6015
  570MOL0     C78563   7.132   9.984   1.792  0.0873  0.4197  0.1854
  570MOL0     C78564   7.225  10.019   1.672  0.6569 -0.7573  0.3868
  570MOL0     C78565   7.377  10.050   1.708 -0.2854  0.2599 -0.8622
  570MOL0     C78566   7.453  10.055   1.579 -1.0996 -0.0176 -0.6215
  570MOL0    Cl78567   7.623  10.119   1.605  0.4270 -0.5839  0.0515
  570MOL0     C78568   6.622   9.559   1.450  0.0831  0.3361 -0.0003
  570MOL0     C78569   6.519   9.482   1.407  0.3813 -0.6209  0.3794
  570MOL0     O78570   6.187   9.573   1.422  0.0091 -0.1528 -0.5732
  570MOL0     C78571   6.097   9.220   1.390 -0.4269 -0.3988  0.0467
  570MOL0     C78572   5.991   9.133   1.360  0.3186 -0.0886  0.8344
  570MOL0     N78573   5.118   8.893   1.223 -0.1822 -0.6330 -0.0420
  570MOL0     N78574   5.003   8.847   1.182 -0.4478  0.8760 -0.1932
  570MOL0     C78575   4.045   8.077   1.106  0.8483  0.1592 -0.1802
  570MOL0     C78576   3.909   8.076   1.068 -0.6031  0.5172 -0.2098
  570MOL0     C78577   3.515   7.913   0.902 -0.5481 -0.3993  0.0485
  570MOL0     C78578   3.475   8.044   0.871 -0.0237 -0.0867 -0.3227
  570MOL0     C78579   3.343   8.065   0.832 -0.4961 -0.0367 -0.1275
  570MOL0     C78580   3.240   7.974   0.848  0.6474 -0.2379 -0.0125
  570MOL0     O78581   3.108   8.004   0.821  0.1933 -0.4787  0.4571
  570MOL0     C78582   3.008   7.931   0.893  0.1753 -0.5026 -0.5493
  570MOL0     C78583   2.868   7.991   0.874  0.7330  0.3013  0.1721
  570MOL0     C78584   2.795   7.963   0.741  0.3479  0.1042  0.6007
  570MOL0     C78585   2.748   7.814   0.736  0.3195 -0.9408 -0.5371
  570MOL0     C78586   2.849   7.731   0.679 -0.2592  0.9482  0.6065
  570MOL0     C78587   2.934   7.669   0.635 -0.5699 -0.5015 -0.1011
  570MOL0     C78588   3.281   7.849   0.886 -0.3133  1.3235 -0.7724
  570MOL0     C78589   3.416   7.813   0.911 -1.1594 -0.0883  0.3343
  570MOL0     C78590   3.448   7.662   0.948  0.0871 -0.1325  0.4832
  570MOL0     H78591   3.922   7.846   0.823  1.1307  0.7899 -1.2869
  570MOL0     H78592   4.159   7.832   0.915 -2.0070 -2.5703  0.3624
  570MOL0     H78593   4.292   8.129   1.234 -1.5727 -0.3590 -0.4045
  570MOL0     H78594   4.339   8.178   1.060  1.0834 -0.4362 -1.9017
  570MOL0     H78595   4.465   7.971   1.250  1.8031 -3.6389 -2.7212
  570MOL0     H78596   4.521   8.003   1.087  0.3332 -1.6293  1.1554
  570MOL0     H78597   4.509   8.213   1.300 -0.7446 -1.8705  0.8218
  570MOL0     H78598   4.664   8.122   1.273  1.1270  1.3581 -0.0372
  570MOL0     H78599   4.663   8.194   1.044 -1.1929 -1.9000  0.2940
  570MOL0     H78600   4.547   8.325   1.080  0.8240  0.0994 -0.5788
  570MOL0     H78601   4.818   8.292   1.192  0.3041 -0.1722  3.0214
  570MOL0     H78602   4.703   8.400   1.265 -0.5087  4.0993 -1.8128
  570MOL0     H78603   4.801   8.404   0.988 -1.3044 -0.1656  0.0072
  570MOL0     H78604   4.682   8.522   1.040  0.0109  0.2448 -2.1350
  570MOL0     H78605   4.964   8.497   1.179  1.7369 -0.3134 -2.4622
  570MOL0     H78606   4.832   8.601   1.231  1.2113 -2.0036  1.4390
  570MOL0     H78607   4.955   8.598   0.953 -0.3617 -3.0202  1.9548
  570MOL0     H78608   4.835   8.712   1.023  0.3816  1.0389  0.8740
  570MOL0     H78609   5.210   8.659   1.014  1.4087 -1.4773  3.1769
  570MOL0     H78610   5.401   8.841   1.048  1.3676  0.5796 -0.6184
  570MOL0     H78611   5.414   8.763   1.197  2.3248  0.7306  0.5307
  570MOL0     H78612   5.377   9.076   1.169  1.8012  1.4329  0.7642
  570MOL0     H78613   5.383   8.997   1.321  2.5230  0.8783  0.3333
  570MOL0     H78614   5.609   8.893   1.288  1.1027 -0.5538 -1.5803
  570MOL0     H78615   5.602   8.939   1.123  0.9036 -1.1592  1.0017
  570MOL0     H78616   5.644   9.170   1.160 -1.8938 -1.3833  0.1214
  570MOL0     H78617   5.572   9.145   1.322 -1.6231 -1.0568 -1.0034
  570MOL0     H78618   5.758   9.339   1.263  1.3978 -1.0816 -2.2377
  570MOL0     H78619   5.943   9.604   1.251  0.0408  1.4198  1.1862
  570MOL0     H78620   5.934   9.605   1.424  2.0956  2.3672 -1.5131
  570MOL0     H78621   5.792   9.559   1.332 -0.8319  0.2234 -1.5510
  570MOL0     H78622   6.347   9.424   1.695 -3.2333  2.0225 -2.6694
  570MOL0     H78623   6.545   9.567   1.787 -1.3423 -2.0445 -0.0824
  570MOL0     H78624   6.751   9.818   1.461  0.5866  0.7838  0.0292
  570MOL0     H78625   6.609   9.818   1.564  0.9549 -1.8333 -0.9820
  570MOL0     H78626   6.742  10.000   1.622 -1.2304 -0.3064 -1.4156
  570MOL0     H78627   6.758   9.875   1.761 -0.0674 -1.6720  0.2273
  570MOL0     H78628   6.971   9.915   1.554 -0.5710  0.3775 -0.7862
  570MOL0     H78629   6.970   9.805   1.697  3.1076  1.4853  0.7648
  570MOL0     H78630   6.938   9.992   1.860 -0.4847 -1.9080 -1.1370
  570MOL0     H78631   6.951  10.107   1.729 -1.7195 -0.9900 -1.5210
  570MOL0     H78632   7.161  10.038   1.882 -3.6438  2.5831  0.2565
  570MOL0     H78633   7.148   9.877   1.812  0.2583 -0.2520 -3.0179
  570MOL0     H78634   7.184  10.115   1.636 -2.4554 -2.1089 -0.0536
  570MOL0     H78635   7.208   9.941   1.597  1.4926  0.1379 -0.7842
  570MOL0     H78636   7.422   9.980   1.780  1.1696 -1.2272 -3.0874
  570MOL0     H78637   7.386  10.147   1.758 -0.6637 -0.8371  1.4762
  570MOL0     H78638   7.401  10.122   1.510  2.0423  4.4537  0.9080
  570MOL0     H78639   7.465   9.954   1.539 -0.3316  0.4824 -1.6847
  570MOL0     H78640   6.690   9.593   1.372  0.2926  0.7143  0.3418
  570MOL0     H78641   6.517   9.455   1.302 -1.3645  1.2710 -0.1356
  570MOL0     H78642   6.196   9.175   1.402  0.3001  1.1482  0.1531
  570MOL0     H78643   6.003   9.026   1.348  0.5577  0.1368 -1.3001
  570MOL0     H78644   4.074   8.132   1.194 -1.4785  0.2245  0.6238
  570MOL0     H78645   3.844   8.142   1.124  0.1640 -0.4058  1.8703
  570MOL0     H78646   3.549   8.123   0.868  2.0664 -1.9052  0.8163
  570MOL0     H78647   3.325   8.165   0.794 -2.2079  0.4952  1.9040
  570MOL0     H78648   3.007   7.826   0.863  0.9365 -0.7916  0.3884
  570MOL0     H78649   3.028   7.935   1.001  1.0231 -1.9178 -0.6290
  570MOL0     H78650   2.875   8.100   0.883  4.3063  0.3855 -1.6025
  570MOL0     H78651   2.812   7.950   0.958  0.1826  1.1603  0.2314
  570MOL0     H78652   2.712   8.034   0.730 -0.9377 -1.3040  0.9865
  570MOL0     H78653   2.861   7.968   0.654 -1.3429 -0.6533 -0.7694
  570MOL0     H78654   2.660   7.804   0.673 -0.5639 -1.7679  0.7782
  570MOL0     H78655   2.713   7.779   0.833  0.3093  1.8308  0.5477
  570MOL0     H78656   3.013   7.610   0.594 -1.7625 -1.7910 -0.6229
  570MOL0     H78657   3.209   7.768   0.886  1.0297  0.0904 -0.4680
  570MOL0     H78658   3.518   7.653   1.031  2.0131 -1.8427 -1.1953
  570MOL0     H78659   3.362   7.599   0.972 -0.7614  2.0451  3.8201
  570MOL0     H78660   3.506   7.610   0.871 -0.4063  1.3897 -0.9648
  571MOL0     O78661   9.367   7.059   3.312  0.3338  0.4661 -0.0234
  571MOL0     C78662   9.316   7.122   3.400  0.6914  0.0096  0.4227
  571MOL0     O78663   9.373   7.195   3.497  0.0112 -0.4118  0.0907
  571MOL0     C78664   9.502   7.179   3.528 -0.0180 -0.5626 -0.2646
  571MOL0     C78665   9.583   7.286   3.546  0.5017  0.6003  0.0631
  571MOL0     C78666   9.721   7.265   3.567 -0.5065 -0.1473  0.6333
  571MOL0     C78667   9.782   7.136   3.564 -0.4165 -0.4776  0.0786
  571MOL0     O78668   9.919   7.109   3.568  0.0492 -0.1882  0.2853
  571MOL0     C78669   9.988   7.216   3.626  0.2482  0.0394  0.6445
  571MOL0     C78670  10.128   7.171   3.665  0.0359  0.4348  0.9153
  571MOL0     C78671  10.208   7.169   3.539  0.3017 -0.1146 -0.1233
  571MOL0     C78672  10.347   7.154   3.581 -1.3210 -0.4101  0.7395
  571MOL0     C78673  10.444   7.202   3.460 -0.1187 -0.2625  1.3830
  571MOL0     C78674  10.421   7.106   3.338 -0.4313 -0.7946  1.3395
  571MOL0     C78675  10.544   7.114   3.241 -0.5841  0.3561  0.2501
  571MOL0     C78676  10.550   6.986   3.150  0.0678 -0.1339 -0.2879
  571MOL0     N78677  10.643   7.007   3.034  0.2498  0.0666  0.2354
  571MOL0     C78678  10.780   7.012   3.055 -0.1658 -0.2589  0.1031
  571MOL0     C78679  10.833   7.010   2.933  0.4822  0.3737  0.3043
  571MOL0     C78680  10.976   7.004   2.888 -0.2142 -0.2910  0.4027
  571MOL0     C78681  11.052   6.869   2.934 -0.1379  0.5141  0.3580
  571MOL0     C78682  11.204   6.867   2.948  0.2264  0.2212 -0.5254
  571MOL0     C78683  11.264   7.005   2.987  0.4550 -0.6937 -0.7004
  571MOL0     O78684  11.409   7.006   2.994  0.1726 -0.6068  0.4442
  571MOL0     C78685  11.480   7.105   2.928 -0.0402  0.1622 -0.6860
  571MOL0     C78686  11.473   7.236   2.977 -0.4473  0.6920  0.1540
  571MOL0     C78687  11.528   7.340   2.905  0.8372 -0.5704  0.8118
  571MOL0     C78688  11.491   7.478   2.958 -0.2291  0.1598 -0.2000
  571MOL0     C78689  11.604   7.316   2.784  0.2571 -0.9546 -1.1560
  571MOL0     C78690  11.683   7.419   2.715  0.2772 -0.1238 -0.4639
  571MOL0     O78691  11.668   7.547   2.760 -0.5473 -0.3062  0.0531
  571MOL0     C78692  11.762   7.639   2.724  1.1885 -0.7913  1.1097
  571MOL0     C78693  11.775   7.684   2.591  0.4140 -0.3714  1.0836
  571MOL0     C78694  11.870   7.772   2.556 -0.3939 -0.5577  0.3560
  571MOL0     C78695  11.955   7.827   2.652  0.3035 -0.1548  0.4494
  571MOL0     O78696  12.043   7.923   2.617 -0.3625  0.1372 -0.1027
  571MOL0     C78697  12.042   7.986   2.490 -0.4574  0.2302  0.4929
  571MOL0     C78698  12.114   8.118   2.507  0.1212  0.4883 -1.3322
  571MOL0     C78699  12.267   8.087   2.496 -0.7817 -0.6564 -0.3857
  571MOL0     C78700  12.341   8.214   2.529 -1.2060 -0.7386 -1.1599
  571MOL0     C78701  12.494   8.185   2.524 -0.1098  0.0482  0.6284
  571MOL0     C78702  12.576   8.298   2.594  1.4099 -0.0868 -0.2763
  571MOL0     C78703  12.725   8.294   2.555 -0.6599  0.5298 -0.0056
  571MOL0     C78704  12.822   8.334   2.667  0.9206  0.2560 -0.2911
  571MOL0    Cl78705  12.993   8.324   2.599  0.3479  0.4335 -0.1001
  571MOL0     C78706  11.938   7.785   2.778  0.4885  0.4149 -0.6213
  571MOL0     C78707  11.849   7.692   2.820 -0.4117 -0.1394  0.2417
  571MOL0     O78708  11.768   7.383   2.629 -0.1173 -0.4798  0.4942
  571MOL0     C78709  11.613   7.184   2.743  0.2218 -0.2609  0.3777
  571MOL0     C78710  11.555   7.080   2.813  0.5517 -0.3721 -0.9607
  571MOL0     N78711  10.731   6.994   2.842 -0.4352 -0.0525  0.6311
  571MOL0     N78712  10.616   7.002   2.902 -0.0068 -1.0473  0.5126
  571MOL0     C78713   9.701   7.027   3.554  0.1056 -0.2885 -0.0877
  571MOL0     C78714   9.564   7.050   3.539 -0.3197  0.3458 -0.3773
  571MOL0     C78715   9.180   7.157   3.378  0.3576  0.4013  0.0134
  571MOL0     C78716   9.132   7.288   3.421 -0.5439  0.5035 -0.9072
  571MOL0     C78717   9.004   7.321   3.398  0.0143 -1.2032  0.2516
  571MOL0     C78718   8.907   7.237   3.341 -0.5751 -0.8287 -0.3379
  571MOL0     O78719   8.778   7.275   3.329  0.2080 -0.1729  0.3986
  571MOL0     C78720   8.689   7.206   3.244  0.1873  1.1725  1.3425
  571MOL0     C78721   8.719   7.245   3.089 -0.2479  0.3719  0.4859
  571MOL0     C78722   8.726   7.393   3.051  0.3997 -0.6956  0.0670
  571MOL0     C78723   8.702   7.424   2.902  0.3210  0.3543 -0.6642
  571MOL0     C78724   8.560   7.395   2.855  0.0577 -0.4863 -0.4369
  571MOL0     C78725   8.450   7.368   2.835  0.5414 -0.9431 -0.3970
  571MOL0     C78726   8.953   7.113   3.298  0.5365  0.2256 -0.1938
  571MOL0     C78727   9.080   7.074   3.317 -1.2583 -0.2531 -0.0793
  571MOL0     C78728   9.120   6.941   3.254  0.3800 -0.5202  0.1164
  571MOL0     H78729   9.538   7.383   3.527  1.4842  0.7138 -1.9668
  571MOL0     H78730   9.771   7.361   3.574 -0.5131  0.0051 -1.1504
  571MOL0     H78731   9.937   7.251   3.717  1.1226 -1.5049  1.7824
  571MOL0     H78732  10.004   7.305   3.564 -0.0865 -0.3415  0.0050
  571MOL0     H78733  10.175   7.245   3.731  2.1959  0.9038 -0.9977
  571MOL0     H78734  10.128   7.078   3.721  1.4717 -0.3144 -0.2521
  571MOL0     H78735  10.172   7.094   3.468  2.0378  1.7057 -3.2045
  571MOL0     H78736  10.191   7.263   3.484 -0.7800 -2.2846 -3.8332
  571MOL0     H78737  10.383   7.230   3.651 -0.5255  0.3866 -0.4785
  571MOL0     H78738  10.371   7.051   3.607 -2.9891 -1.5859 -1.9542
  571MOL0     H78739  10.548   7.192   3.491  0.3440  1.3069  0.4599
  571MOL0     H78740  10.444   7.304   3.420  1.0323 -0.8871 -0.3423
  571MOL0     H78741  10.398   7.004   3.371 -0.4590 -0.7595  1.4278
  571MOL0     H78742  10.339   7.145   3.276  1.4766  1.6450  0.2196
  571MOL0     H78743  10.643   7.130   3.286 -1.1163  2.7236  0.6558
  571MOL0     H78744  10.532   7.200   3.175  1.6568  0.4198 -0.1717
  571MOL0     H78745  10.576   6.891   3.199  0.6034 -1.0542 -2.2604
  571MOL0     H78746  10.452   6.967   3.106  0.6836 -3.2975 -0.5380
  571MOL0     H78747  10.833   7.010   3.150 -0.7377 -1.5006  0.4130
  571MOL0     H78748  11.022   7.095   2.928  0.3776  0.0151 -0.9372
  571MOL0     H78749  10.968   7.016   2.779 -1.7031  1.6771  0.6695
  571MOL0     H78750  11.016   6.846   3.035 -0.4785 -0.6931 -0.0222
  571MOL0     H78751  11.020   6.788   2.868 -2.9045  0.7913  1.2019
  571MOL0     H78752  11.238   6.795   3.023  4.3003  1.7232 -0.6569
  571MOL0     H78753  11.243   6.833   2.851 -0.4082 -0.7930 -0.4399
  571MOL0     H78754  11.230   7.086   2.921  1.7358 -0.0053 -0.5484
  571MOL0     H78755  11.236   7.025   3.091  0.8859 -0.8371 -0.5546
  571MOL0     H78756  11.413   7.253   3.066 -1.3324  1.4860 -0.5721
  571MOL0     H78757  11.469   7.548   2.877  2.7760 -0.2619 -1.4798
  571MOL0     H78758  11.576   7.516   3.016 -0.6276  1.7586 -0.6315
  571MOL0     H78759  11.406   7.475   3.028 -1.4670  2.4712 -1.5137
  571MOL0     H78760  11.710   7.663   2.506  1.5864  2.0857 -0.5335
  571MOL0     H78761  11.888   7.797   2.452 -3.3081 -1.7614 -0.5313
  571MOL0     H78762  12.086   7.925   2.410  0.4940 -4.4016  4.0819
  571MOL0     H78763  11.942   8.020   2.462 -0.2531  0.5784  0.1703
  571MOL0     H78764  12.087   8.183   2.423 -1.3310  0.9073 -0.5602
  571MOL0     H78765  12.074   8.163   2.598  0.6504 -0.4147 -0.6353
  571MOL0     H78766  12.286   8.048   2.396  0.8018 -0.2826 -0.2602
  571MOL0     H78767  12.305   8.017   2.571  0.0543  1.5786  1.3888
  571MOL0     H78768  12.305   8.242   2.628 -2.5145 -3.7525 -0.6951
  571MOL0     H78769  12.318   8.290   2.453  1.4424 -0.5520 -1.8700
  571MOL0     H78770  12.522   8.089   2.568 -0.4635 -0.5396 -0.3958
  571MOL0     H78771  12.532   8.192   2.421  0.1879  1.5448  0.8245
  571MOL0     H78772  12.568   8.278   2.701 -0.3598  1.4750 -0.0900
  571MOL0     H78773  12.530   8.395   2.577  1.6534  0.7697  3.1474
  571MOL0     H78774  12.730   8.355   2.464 -1.3621  0.3707 -0.1591
  571MOL0     H78775  12.750   8.189   2.536 -0.9456  0.7851 -2.0030
  571MOL0     H78776  12.799   8.263   2.747 -2.9280 -0.6422 -1.9431
  571MOL0     H78777  12.786   8.433   2.695 -3.5131 -1.2387  0.1570
  571MOL0     H78778  11.989   7.836   2.859  1.3685 -1.3571 -0.0327
  571MOL0     H78779  11.856   7.655   2.921 -0.7115 -0.3119  0.2028
  571MOL0     H78780  11.674   7.165   2.656  2.0941 -0.7982  1.7475
  571MOL0     H78781  11.576   6.982   2.771  1.3096 -0.7076  0.1612
  571MOL0     H78782   9.735   6.926   3.575 -0.6442 -0.3209  1.0702
  571MOL0     H78783   9.498   6.965   3.528  0.3737 -0.5380  1.7593
  571MOL0     H78784   9.203   7.354   3.469  0.6307 -2.1595  1.2969
  571MOL0     H78785   8.967   7.420   3.425 -1.8645  0.0044 -5.2804
  571MOL0     H78786   8.698   7.097   3.242  1.8304  1.2735 -1.5688
  571MOL0     H78787   8.588   7.226   3.280 -0.1689 -0.7694  1.5671
  571MOL0     H78788   8.654   7.188   3.021  1.2439  0.0114 -0.6874
  571MOL0     H78789   8.820   7.218   3.057 -0.5019  2.1620 -2.1586
  571MOL0     H78790   8.646   7.449   3.102  0.4890  0.3398 -0.8903
  571MOL0     H78791   8.829   7.427   3.063  0.6515  0.0240 -3.1009
  571MOL0     H78792   8.775   7.370   2.841  0.3123 -1.3446  0.7408
  571MOL0     H78793   8.703   7.533   2.895 -0.9276  0.7286  2.8325
  571MOL0     H78794   8.349   7.335   2.825 -0.1903 -0.6468  4.0340
  571MOL0     H78795   8.886   7.057   3.233 -1.4846  1.5217  0.6647
  571MOL0     H78796   9.150   6.976   3.155 -1.2174  1.9924  0.4339
  571MOL0     H78797   9.197   6.887   3.310 -0.9768 -3.1539 -0.3924
  571MOL0     H78798   9.034   6.873   3.244 -1.2862  1.3506  0.8926
  572MOL0     O78799   2.641   5.853   2.864  0.1673  0.6582  0.2500
  572MOL0     C78800   2.665   5.861   2.987  0.1388 -0.0018  0.0224
  572MOL0     O78801   2.793   5.865   3.046 -0.4801  0.4101 -0.1300
  572MOL0     C78802   2.915   5.869   2.982 -0.4346  0.5030 -0.6749
  572MOL0     C78803   2.937   5.824   2.853  0.4571 -1.0106  0.0313
  572MOL0     C78804   3.062   5.834   2.790 -1.0383  0.7251  0.0687
  572MOL0     C78805   3.169   5.886   2.868 -0.5673  0.3559 -0.9614
  572MOL0     O78806   3.293   5.894   2.805 -0.6520  0.5355  0.2601
  572MOL0     C78807   3.366   6.015   2.822 -0.8924 -0.4256 -0.3093
  572MOL0     C78808   3.487   6.028   2.734  0.5783  0.0116  0.7153
  572MOL0     C78809   3.565   6.150   2.780  0.2734 -0.5339 -0.3993
  572MOL0     C78810   3.695   6.138   2.712 -0.6480 -0.7123  0.3691
  572MOL0     C78811   3.763   6.274   2.707  0.1158  0.0983 -0.2776
  572MOL0     C78812   3.905   6.264   2.669 -0.2917 -0.5239  0.2569
  572MOL0     C78813   4.004   6.326   2.759  0.5757 -1.3581  0.2542
  572MOL0     C78814   4.058   6.244   2.876 -0.0192 -0.5289 -0.7210
  572MOL0     N78815   4.182   6.306   2.934  0.1904 -0.8583  0.0365
  572MOL0     C78816   4.181   6.428   2.993  0.0497 -0.2016  0.5920
  572MOL0     C78817   4.301   6.440   3.046 -0.7338 -0.2195 -0.0792
  572MOL0     C78818   4.368   6.552   3.128  0.0049  0.5277  0.0194
  572MOL0     C78819   4.501   6.590   3.059  1.1260  0.2422 -1.2291
  572MOL0     C78820   4.569   6.703   3.127 -0.2174 -0.3242 -0.2246
  572MOL0     C78821   4.603   6.695   3.273  0.3272 -0.0155 -0.2215
  572MOL0     O78822   4.713   6.597   3.284 -0.9391  0.4138 -0.1127
  572MOL0     C78823   4.756   6.574   3.412 -0.9838 -0.3124 -0.1003
  572MOL0     C78824   4.873   6.494   3.425 -0.3861 -0.3457  1.2648
  572MOL0     C78825   4.921   6.462   3.557  0.2965  0.2692 -0.3176
  572MOL0     C78826   5.059   6.407   3.550  0.4980 -0.3560 -0.8887
  572MOL0     C78827   4.856   6.506   3.672  1.0350  0.0351  0.6072
  572MOL0     C78828   4.905   6.469   3.803 -0.1582  0.1012  0.5967
  572MOL0     O78829   4.848   6.535   3.911  0.1773 -0.3585  0.8480
  572MOL0     C78830   4.876   6.489   4.038 -0.3442  0.0910 -1.0033
  572MOL0     C78831   4.842   6.361   4.090  0.8259 -0.3437  0.3848
  572MOL0     C78832   4.843   6.331   4.227  0.5030  0.2428 -0.9710
  572MOL0     C78833   4.890   6.427   4.316  0.3190 -0.0912 -0.1895
  572MOL0     O78834   4.904   6.397   4.450  0.4760 -0.2914 -0.0821
  572MOL0     C78835   5.019   6.442   4.519 -0.0780  0.0036 -0.3101
  572MOL0     C78836   5.076   6.335   4.615  0.9120  0.7097  0.3881
  572MOL0     C78837   4.998   6.331   4.748  0.1599  0.2630 -0.1400
  572MOL0     C78838   5.074   6.253   4.861  0.0659  0.2234  0.0834
  572MOL0     C78839   5.006   6.281   4.995  0.3277 -0.1984 -0.2293
  572MOL0     C78840   5.088   6.204   5.106 -0.2209 -0.3463 -0.0494
  572MOL0     C78841   4.994   6.181   5.226  0.1935  0.2428  0.7373
  572MOL0     C78842   5.059   6.103   5.348  0.0844  0.1764  0.1233
  572MOL0    Cl78843   5.211   6.180   5.378 -0.0855  0.1058 -0.0769
  572MOL0     C78844   4.917   6.560   4.264  0.2969  0.5969  0.0657
  572MOL0     C78845   4.916   6.587   4.131  0.3452 -0.3332  0.8525
  572MOL0     O78846   4.980   6.372   3.815  0.4103 -0.1858 -0.2738
  572MOL0     C78847   4.750   6.593   3.656  0.2955 -0.3533  0.0712
  572MOL0     C78848   4.698   6.626   3.529 -0.4993 -0.1612  0.5020
  572MOL0     N78849   4.370   6.322   3.024 -0.1202 -0.1111  0.5189
  572MOL0     N78850   4.291   6.236   2.959 -0.8402  0.0638 -0.5895
  572MOL0     C78851   3.149   5.934   2.997 -0.0522 -1.0260 -0.4347
  572MOL0     C78852   3.022   5.927   3.055 -0.5191 -0.1537  0.6653
  572MOL0     C78853   2.560   5.901   3.084 -0.2269  0.5913  0.7923
  572MOL0     C78854   2.593   6.005   3.170  0.9394 -0.6042 -0.6188
  572MOL0     C78855   2.496   6.076   3.249  0.1324 -0.2910  0.2631
  572MOL0     C78856   2.370   6.014   3.256  0.4602 -0.0099 -0.0475
  572MOL0     O78857   2.276   6.048   3.353  0.2810 -0.5846 -0.6489
  572MOL0     C78858   2.306   6.163   3.443  0.4787  0.4537 -0.4362
  572MOL0     C78859   2.189   6.180   3.548 -0.1520 -0.1662 -0.5428
  572MOL0     C78860   2.056   6.182   3.471 -0.0679 -0.1494 -0.5208
  572MOL0     C78861   1.944   6.241   3.563  0.6444  0.5883 -0.3390
  572MOL0     C78862   1.895   6.149   3.666  0.4455 -0.4113  0.9866
  572MOL0     C78863   1.850   6.077   3.754 -0.8403  0.0416 -0.9009
  572MOL0     C78864   2.338   5.909   3.172 -0.1432 -0.3123 -0.0961
  572MOL0     C78865   2.428   5.851   3.082  0.2168  0.5594 -0.2329
  572MOL0     C78866   2.387   5.734   3.002 -0.5456 -0.0205  0.3606
  572MOL0     H78867   2.854   5.773   2.804 -0.4137 -0.8631  1.3107
  572MOL0     H78868   3.083   5.804   2.688  1.0936 -0.5125  0.8066
  572MOL0     H78869   3.407   6.013   2.923  0.7422 -0.8435 -0.9486
  572MOL0     H78870   3.297   6.100   2.811  1.8125  1.9247 -0.3121
  572MOL0     H78871   3.540   5.933   2.745 -1.2826 -0.9259  2.1329
  572MOL0     H78872   3.448   6.046   2.634  0.3128 -0.0408  0.8087
  572MOL0     H78873   3.506   6.239   2.757  0.1227 -0.6710 -0.5514
  572MOL0     H78874   3.584   6.154   2.887 -1.3168  1.9849 -0.1491
  572MOL0     H78875   3.759   6.069   2.768 -2.2807 -0.0046  3.2960
  572MOL0     H78876   3.673   6.107   2.609  0.0324 -0.1472  0.0378
  572MOL0     H78877   3.751   6.310   2.810  2.0375 -0.8741  0.3309
  572MOL0     H78878   3.707   6.346   2.647 -0.1154  0.4277  0.3186
  572MOL0     H78879   3.937   6.162   2.645 -3.5946 -1.6713  0.1993
  572MOL0     H78880   3.901   6.320   2.576 -0.4186 -0.4867  0.2850
  572MOL0     H78881   3.961   6.418   2.798  1.5870  1.8614 -5.2467
  572MOL0     H78882   4.080   6.370   2.693 -0.5005 -2.5136 -1.8673
  572MOL0     H78883   3.976   6.230   2.948 -0.1087 -1.3827 -0.9763
  572MOL0     H78884   4.091   6.145   2.844 -0.5010 -0.6945 -0.7229
  572MOL0     H78885   4.100   6.498   3.004  0.2954  0.2513 -0.3807
  572MOL0     H78886   4.397   6.519   3.228  0.4559  1.7631  0.3103
  572MOL0     H78887   4.291   6.629   3.141 -3.2072 -2.2824 -0.8822
  572MOL0     H78888   4.560   6.498   3.062  1.1986  0.3182  0.7346
  572MOL0     H78889   4.487   6.612   2.952 -1.5730  0.6186 -0.8658
  572MOL0     H78890   4.661   6.711   3.069  0.9037 -4.0359  0.7005
  572MOL0     H78891   4.507   6.792   3.121 -2.9704 -2.2217 -2.7602
  572MOL0     H78892   4.647   6.792   3.299 -0.3421  1.2878 -3.5016
  572MOL0     H78893   4.518   6.665   3.335 -0.5531 -1.8384 -2.1719
  572MOL0     H78894   4.916   6.457   3.333 -1.3515  1.2127  0.1301
  572MOL0     H78895   5.123   6.459   3.622  1.3036 -1.7798 -0.5370
  572MOL0     H78896   5.103   6.404   3.450  1.0334 -0.5846 -0.6525
  572MOL0     H78897   5.061   6.307   3.595  2.6326  1.2117  3.0513
  572MOL0     H78898   4.797   6.289   4.022 -0.3391 -0.7182  1.5271
  572MOL0     H78899   4.828   6.230   4.263 -0.0202  0.9215  0.8201
  572MOL0     H78900   5.092   6.472   4.443 -1.0981 -1.3710 -1.9022
  572MOL0     H78901   4.995   6.534   4.574 -0.5276  0.7621 -1.7193
  572MOL0     H78902   5.076   6.235   4.570 -0.6441 -0.4613  2.8377
  572MOL0     H78903   5.179   6.365   4.636  1.0168  2.0537 -1.6867
  572MOL0     H78904   4.899   6.290   4.730 -1.6448  3.7784  0.8805
  572MOL0     H78905   4.989   6.436   4.778  1.2406  0.4557 -0.4448
  572MOL0     H78906   5.179   6.280   4.875  0.3121 -0.9622  0.6391
  572MOL0     H78907   5.078   6.145   4.845 -1.2318 -0.2471  2.4677
  572MOL0     H78908   5.005   6.387   5.022  2.4819 -0.5109  1.3279
  572MOL0     H78909   4.899   6.256   4.997 -0.5577  2.5081 -3.5638
  572MOL0     H78910   5.176   6.266   5.126  1.7059 -2.3501 -1.6662
  572MOL0     H78911   5.119   6.103   5.074  2.6531  0.3420  0.2419
  572MOL0     H78912   4.904   6.128   5.194  0.6086 -0.5619  0.8696
  572MOL0     H78913   4.960   6.277   5.265 -2.6119 -0.3576  0.0140
  572MOL0     H78914   5.064   5.996   5.328  0.0797  0.0154  0.9501
  572MOL0     H78915   4.997   6.105   5.438  1.6135 -5.0444  1.6006
  572MOL0     H78916   4.949   6.645   4.324  0.5137  0.7347 -0.2399
  572MOL0     H78917   4.936   6.686   4.093 -1.2664  0.1793  1.2518
  572MOL0     H78918   4.695   6.633   3.741 -0.1507 -0.6682 -0.0636
  572MOL0     H78919   4.605   6.681   3.530  1.5597  3.8648 -1.9277
  572MOL0     H78920   3.226   5.985   3.054 -1.2434  0.9745 -0.5210
  572MOL0     H78921   2.996   5.960   3.155 -3.8789  1.7028 -0.6326
  572MOL0     H78922   2.695   6.041   3.170  0.5613  0.8560  2.9123
  572MOL0     H78923   2.521   6.165   3.305  0.8500 -0.9226  0.9733
  572MOL0     H78924   2.405   6.151   3.488  0.1225 -0.3834  0.1401
  572MOL0     H78925   2.317   6.253   3.382  0.9128 -1.1046 -2.7882
  572MOL0     H78926   2.209   6.266   3.613 -2.5635 -1.5737  2.2786
  572MOL0     H78927   2.193   6.095   3.617 -1.0459 -0.0129 -0.2938
  572MOL0     H78928   2.070   6.237   3.378  0.3458  0.1198 -0.3017
  572MOL0     H78929   2.042   6.077   3.444  5.5041 -1.6958  1.1804
  572MOL0     H78930   1.861   6.265   3.496  0.0877 -0.2750  0.0177
  572MOL0     H78931   1.969   6.339   3.603 -1.0627  1.0001 -0.2047
  572MOL0     H78932   1.812   6.011   3.829 -0.3398  4.3754  3.7086
  572MOL0     H78933   2.236   5.872   3.178  0.3265 -1.5643  0.5709
  572MOL0     H78934   2.470   5.664   3.011  1.3949  1.9881 -0.9946
  572MOL0     H78935   2.299   5.676   3.031 -1.0553 -0.3944 -1.7264
  572MOL0     H78936   2.377   5.757   2.895 -2.8276  2.0247  0.9226
  573MOL0     O78937   1.919   6.899   9.277  0.8004 -0.2585  0.6287
  573MOL0     C78938   1.835   6.985   9.309 -0.3002 -0.2633  0.2485
  573MOL0     O78939   1.708   6.954   9.346 -0.6399 -0.1578 -0.4717
  573MOL0     C78940   1.663   6.835   9.289  0.0239 -0.7377  0.3577
  573MOL0     C78941   1.588   6.847   9.169 -0.0943  0.7214 -0.1775
  573MOL0     C78942   1.537   6.728   9.108 -0.6744 -0.7294  0.7878
  573MOL0     C78943   1.544   6.605   9.178 -0.4590 -0.1876 -0.0352
  573MOL0     O78944   1.501   6.485   9.123 -0.6503  0.0124  0.0745
  573MOL0     C78945   1.544   6.458   8.994 -0.5309  0.4238  0.3323
  573MOL0     C78946   1.546   6.304   8.990 -0.0009  0.0031  0.0294
  573MOL0     C78947   1.586   6.251   8.855 -0.8769  0.3615  0.0778
  573MOL0     C78948   1.634   6.111   8.889  0.5029 -0.3245  0.3417
  573MOL0     C78949   1.660   6.041   8.753 -0.0362  0.5141 -0.6729
  573MOL0     C78950   1.727   5.902   8.776  0.7467 -1.1750  0.5354
  573MOL0     C78951   1.785   5.849   8.643 -0.1409  0.0307  0.3623
  573MOL0     C78952   1.843   5.711   8.670 -0.3023  0.1760 -0.6197
  573MOL0     N78953   1.924   5.650   8.567  0.3708  0.0506  0.0695
  573MOL0     C78954   1.918   5.526   8.516  0.1877  0.6665  0.5000
  573MOL0     C78955   2.009   5.525   8.414  0.2267  0.1440  0.1503
  573MOL0     C78956   2.053   5.405   8.335  0.5321 -0.3338  0.4560
  573MOL0     C78957   2.195   5.362   8.367 -0.4395  0.3896 -0.2452
  573MOL0     C78958   2.261   5.301   8.247 -0.3005  0.3074 -0.2394
  573MOL0     C78959   2.296   5.396   8.133  0.0872  1.0583  0.1087
  573MOL0     O78960   2.340   5.307   8.036  0.0644 -0.0888 -0.0233
  573MOL0     C78961   2.443   5.368   7.965  0.1831 -0.4556  1.1710
  573MOL0     C78962   2.461   5.509   7.945  0.6566  0.4125 -0.2362
  573MOL0     C78963   2.572   5.555   7.872 -0.6507 -0.2497  0.7322
  573MOL0     C78964   2.567   5.709   7.853  0.2033 -0.2752 -0.2112
  573MOL0     C78965   2.664   5.466   7.825 -0.4786 -0.0085  1.0466
  573MOL0     C78966   2.788   5.504   7.751  0.3873  0.1107 -0.5005
  573MOL0     O78967   2.823   5.636   7.755  0.3286  0.0718  0.3535
  573MOL0     C78968   2.932   5.674   7.683  0.3085 -0.2058 -0.2552
  573MOL0     C78969   2.905   5.737   7.565  0.1953 -0.5964  1.3017
  573MOL0     C78970   3.018   5.796   7.503 -0.2090  0.8795  0.7036
  573MOL0     C78971   3.147   5.763   7.546  0.1178 -0.8276 -0.8470
  573MOL0     O78972   3.241   5.796   7.456 -0.8784 -0.2783  0.0208
  573MOL0     C78973   3.380   5.771   7.481  0.9598 -0.3004 -0.5309
  573MOL0     C78974   3.463   5.802   7.365 -0.5929  0.0740  0.3464
  573MOL0     C78975   3.618   5.791   7.404  0.0034 -0.1108 -0.1610
  573MOL0     C78976   3.658   5.681   7.503  0.3835  0.3711 -0.0950
  573MOL0     C78977   3.802   5.684   7.554 -0.2603  0.1954  0.1300
  573MOL0     C78978   3.906   5.639   7.449  0.1161  0.4277 -0.1628
  573MOL0     C78979   4.042   5.694   7.472 -0.7464 -0.1634 -0.3880
  573MOL0     C78980   4.154   5.626   7.388 -0.1499 -0.6981  0.8037
  573MOL0    Cl78981   4.212   5.475   7.461  0.4187  0.0847 -0.7602
  573MOL0     C78982   3.171   5.701   7.676  0.1886 -0.2625 -0.2964
  573MOL0     C78983   3.055   5.656   7.739  0.5669 -0.2485 -1.1546
  573MOL0     O78984   2.860   5.411   7.697 -0.2748 -0.1314 -0.1191
  573MOL0     C78985   2.650   5.327   7.845  0.6612 -0.9565 -0.8758
  573MOL0     C78986   2.546   5.285   7.922 -0.6359 -0.1621 -0.1527
  573MOL0     N78987   2.069   5.644   8.408 -0.1862  0.1112 -0.5445
  573MOL0     N78988   2.021   5.720   8.497 -0.6198 -0.7319 -0.0993
  573MOL0     C78989   1.601   6.605   9.307  0.1442 -0.0248  0.4425
  573MOL0     C78990   1.661   6.716   9.360  0.8322 -0.0439  0.5574
  573MOL0     C78991   1.882   7.127   9.351  0.2321  0.1998  0.0122
  573MOL0     C78992   1.979   7.145   9.435 -0.3478 -0.2092 -0.3968
  573MOL0     C78993   2.003   7.271   9.491  0.3147  0.9562 -0.0690
  573MOL0     C78994   1.938   7.385   9.445  0.0366  0.3290  0.2180
  573MOL0     O78995   1.972   7.510   9.495 -0.2005 -0.5277  0.0261
  573MOL0     C78996   1.899   7.620   9.450  0.6556 -0.1453 -0.7247
  573MOL0     C78997   1.961   7.745   9.513 -0.6880 -0.0638  0.3878
  573MOL0     C78998   1.925   7.886   9.455 -0.3880 -0.2302  0.5348
  573MOL0     C78999   1.997   8.001   9.528 -0.2623  0.3338  0.4547
  573MOL0     C79000   1.937   8.012   9.662 -0.2151  0.3053  0.1764
  573MOL0     C79001   1.893   8.026   9.776 -0.0073 -0.4506  0.6407
  573MOL0     C79002   1.839   7.365   9.344 -0.9872  0.7878 -0.5602
  573MOL0     C79003   1.805   7.234   9.304 -0.0639 -0.5689 -0.6840
  573MOL0     C79004   1.694   7.226   9.210  0.7569 -0.1723  0.4450
  573MOL0     H79005   1.584   6.943   9.119  1.3231 -0.1382 -2.0708
  573MOL0     H79006   1.484   6.730   9.013 -0.0514  1.0312  0.4456
  573MOL0     H79007   1.643   6.503   8.978  0.3538 -1.1888  1.0043
  573MOL0     H79008   1.473   6.504   8.925 -1.7240 -0.4811  0.9199
  573MOL0     H79009   1.594   6.268   9.082 -1.7821 -0.9323  0.6561
  573MOL0     H79010   1.442   6.270   8.999  0.5485 -2.2507 -1.1635
  573MOL0     H79011   1.510   6.238   8.777 -0.7020  0.3262 -0.0871
  573MOL0     H79012   1.668   6.311   8.817 -1.1889  0.4606 -0.4506
  573MOL0     H79013   1.724   6.112   8.951 -0.0009 -1.0247  1.1020
  573MOL0     H79014   1.568   6.053   8.954  3.4051 -1.4354  2.5524
  573MOL0     H79015   1.727   6.112   8.704 -0.8539  2.6922  1.1782
  573MOL0     H79016   1.571   6.025   8.691 -0.4815 -1.9424  0.4614
  573MOL0     H79017   1.812   5.928   8.841 -0.1356  0.5684  1.0585
  573MOL0     H79018   1.659   5.837   8.831 -0.3836 -0.9159 -0.5305
  573MOL0     H79019   1.867   5.912   8.606 -0.4764 -0.2210 -0.8464
  573MOL0     H79020   1.711   5.837   8.564 -1.3215 -2.2458  1.7085
  573MOL0     H79021   1.923   5.727   8.743  1.4310 -2.3195 -1.8095
  573MOL0     H79022   1.765   5.641   8.701 -1.1385  1.2303 -0.2926
  573MOL0     H79023   1.862   5.441   8.555 -1.8105  0.9216 -1.5967
  573MOL0     H79024   2.045   5.436   8.230 -1.6293  1.0839  0.9796
  573MOL0     H79025   1.991   5.316   8.347 -1.3364  0.8084 -0.2742
  573MOL0     H79026   2.244   5.453   8.403 -3.8939  2.5917 -0.6383
  573MOL0     H79027   2.199   5.291   8.450  2.0703  0.9211  0.1820
  573MOL0     H79028   2.351   5.250   8.281 -1.3530 -0.0588  2.2293
  573MOL0     H79029   2.192   5.221   8.218 -0.0679 -0.4544  1.2078
  573MOL0     H79030   2.205   5.446   8.095  0.0558  1.1772  0.3412
  573MOL0     H79031   2.366   5.467   8.177  0.8051 -0.0279  0.7567
  573MOL0     H79032   2.388   5.586   7.969  1.7049  1.8258 -1.4114
  573MOL0     H79033   2.621   5.731   7.760 -1.2154  0.2600 -0.9411
  573MOL0     H79034   2.605   5.759   7.942  0.1752 -1.5011  0.5104
  573MOL0     H79035   2.471   5.758   7.836  1.3363  2.7721  1.4690
  573MOL0     H79036   2.802   5.741   7.530 -0.3641 -2.9544  2.5031
  573MOL0     H79037   2.992   5.850   7.413 -3.1825 -0.2499  0.7721
  573MOL0     H79038   3.420   5.817   7.572  1.0502 -1.0133 -0.2041
  573MOL0     H79039   3.397   5.664   7.492  2.0646  0.0175  1.3143
  573MOL0     H79040   3.433   5.743   7.279  2.1881 -0.5586 -0.3053
  573MOL0     H79041   3.448   5.906   7.335  1.1767 -0.2506 -1.9611
  573MOL0     H79042   3.646   5.891   7.439  0.4242  0.1705 -1.2735
  573MOL0     H79043   3.670   5.775   7.309  1.9572  0.5745  0.7388
  573MOL0     H79044   3.639   5.584   7.457  3.4526  0.3432 -1.5505
  573MOL0     H79045   3.602   5.697   7.596  2.9102 -0.7702  1.7557
  573MOL0     H79046   3.826   5.786   7.585  0.8910 -0.6188  2.1304
  573MOL0     H79047   3.819   5.629   7.647 -0.0504  0.0515  0.0083
  573MOL0     H79048   3.865   5.673   7.354 -2.0497  0.5086  0.7485
  573MOL0     H79049   3.909   5.529   7.448  0.7915  0.3725  1.7817
  573MOL0     H79050   4.071   5.681   7.577  2.2605 -2.1638 -1.3187
  573MOL0     H79051   4.033   5.802   7.459  0.2352  0.0742  0.7766
  573MOL0     H79052   4.240   5.694   7.379  1.6762 -2.5399  2.9532
  573MOL0     H79053   4.128   5.627   7.282  1.1338  2.0319  0.4128
  573MOL0     H79054   3.274   5.687   7.707  0.6144  3.7799  0.7282
  573MOL0     H79055   3.055   5.610   7.837 -1.9769 -0.7188 -1.3181
  573MOL0     H79056   2.727   5.254   7.822  0.5392 -0.8417 -1.6903
  573MOL0     H79057   2.542   5.178   7.936  1.4668 -0.4798 -1.5574
  573MOL0     H79058   1.584   6.523   9.376 -2.1218 -0.1545 -0.2186
  573MOL0     H79059   1.706   6.711   9.459  1.6481 -0.7595  0.1652
  573MOL0     H79060   2.030   7.055   9.467  0.6850 -0.2657 -2.1223
  573MOL0     H79061   2.081   7.279   9.567  0.4756 -2.1562  0.2016
  573MOL0     H79062   1.912   7.638   9.343 -1.1577  0.7623 -0.8272
  573MOL0     H79063   1.793   7.612   9.473  0.8639 -0.3659  0.2172
  573MOL0     H79064   2.070   7.743   9.505 -0.7316  0.6033 -0.4709
  573MOL0     H79065   1.926   7.751   9.617 -2.1223  1.8011 -0.1515
  573MOL0     H79066   1.965   7.886   9.353  0.2914  1.9296  0.7668
  573MOL0     H79067   1.816   7.896   9.446 -0.5668 -0.9462  1.6607
  573MOL0     H79068   1.971   8.092   9.473 -1.2095  0.6864  1.4360
  573MOL0     H79069   2.104   7.979   9.530 -0.4839 -1.2834 -1.6968
  573MOL0     H79070   1.856   8.036   9.877 -2.4285 -3.2518  0.2051
  573MOL0     H79071   1.782   7.451   9.311  1.6437  2.3067 -1.4848
  573MOL0     H79072   1.730   7.171   9.122 -0.4967 -0.9011  0.3554
  573MOL0     H79073   1.612   7.163   9.247 -1.0730 -0.2650 -3.2720
  573MOL0     H79074   1.642   7.320   9.186 -1.2036 -0.6583  2.4663
  574MOL0     O79075   3.008  10.322   3.001 -0.0071 -0.1992  0.5582
  574MOL0     C79076   2.903  10.264   3.000  0.9875 -0.7869  0.3467
  574MOL0     O79077   2.885  10.123   2.973  0.2229 -0.8079 -0.1371
  574MOL0     C79078   2.986  10.021   2.993 -0.7726 -0.2588 -0.8760
  574MOL0     C79079   2.940   9.883   2.998 -0.0530 -0.2656  0.5589
  574MOL0     C79080   3.037   9.783   3.034 -0.3610 -0.3315  0.1999
  574MOL0     C79081   3.175   9.819   3.039 -0.5863 -0.1139 -0.0378
  574MOL0     O79082   3.269   9.718   3.069  0.3840 -0.4704  0.3782
  574MOL0     C79083   3.290   9.617   2.962 -0.7408 -0.3049 -0.0567
  574MOL0     C79084   3.387   9.493   3.020 -0.0064 -0.0510  0.9645
  574MOL0     C79085   3.535   9.518   2.991  0.4352  0.1970 -0.3793
  574MOL0     C79086   3.620   9.410   3.059  0.4968  1.8232 -0.1074
  574MOL0     C79087   3.765   9.442   3.033 -0.5259  0.0516  0.0261
  574MOL0     C79088   3.851   9.325   3.074 -0.1686  0.8263  0.0864
  574MOL0     C79089   3.997   9.364   3.113  0.7071  0.0914 -0.2921
  574MOL0     C79090   4.074   9.393   2.985 -0.6733 -0.0914  0.3419
  574MOL0     N79091   4.221   9.370   3.009  0.5077 -0.0330 -0.4184
  574MOL0     C79092   4.286   9.257   2.967 -0.9907  0.4691 -0.1165
  574MOL0     C79093   4.414   9.276   2.993  0.2722  0.5362  0.5419
  574MOL0     C79094   4.534   9.170   2.988 -0.0100 -0.3128 -0.1344
  574MOL0     C79095   4.598   9.160   2.851  0.3975  0.1706  0.1326
  574MOL0     C79096   4.721   9.077   2.841 -1.0747  0.5755 -0.4274
  574MOL0     C79097   4.764   9.043   2.694  0.3651  0.8283 -0.5751
  574MOL0     O79098   4.873   8.946   2.681 -0.2191 -0.0069 -0.1119
  574MOL0     C79099   5.004   8.980   2.721  0.4658  0.9110  0.0533
  574MOL0     C79100   5.099   8.876   2.713 -0.0866 -0.0564  0.0216
  574MOL0     C79101   5.228   8.900   2.753 -1.0904  0.8069 -0.2083
  574MOL0     C79102   5.333   8.787   2.742 -0.1831  1.2771 -0.0402
  574MOL0     C79103   5.279   9.027   2.794 -0.2777 -0.2389 -0.2748
  574MOL0     C79104   5.420   9.043   2.840  0.2863 -0.0672  0.0520
  574MOL0     O79105   5.479   9.151   2.781  0.8287  0.3183 -0.0968
  574MOL0     C79106   5.609   9.163   2.801 -0.7289  0.0218 -0.2230
  574MOL0     C79107   5.708   9.110   2.718  0.5287  0.1048 -1.1877
  574MOL0     C79108   5.841   9.145   2.735 -0.5572  0.6383  0.0339
  574MOL0     C79109   5.881   9.223   2.841 -0.3932 -0.8319  0.0214
  574MOL0     O79110   6.005   9.262   2.880  0.0917 -0.7228 -0.1446
  574MOL0     C79111   6.109   9.221   2.791  0.4175 -1.2060 -0.5228
  574MOL0     C79112   6.162   9.084   2.838  0.5211  0.3966 -0.2536
  574MOL0     C79113   6.280   9.025   2.779 -0.7660  0.4845 -0.2196
  574MOL0     C79114   6.266   9.005   2.638 -0.4807 -0.4695  0.3746
  574MOL0     C79115   6.387   8.940   2.567 -0.5070  0.1982  0.2312
  574MOL0     C79116   6.499   9.030   2.548  0.1491 -0.1038  0.2796
  574MOL0     C79117   6.581   8.992   2.425  0.0505 -0.1281 -1.2459
  574MOL0     C79118   6.696   9.085   2.409  0.4246  0.1454  0.4069
  574MOL0    Cl79119   6.804   9.056   2.549  0.2011  0.5379 -0.3299
  574MOL0     C79120   5.784   9.282   2.934  0.6661  0.0974  0.5770
  574MOL0     C79121   5.647   9.248   2.913 -1.3422 -0.2108 -0.2886
  574MOL0     O79122   5.466   8.977   2.935 -0.1662  0.0801  0.0424
  574MOL0     C79123   5.187   9.129   2.783  0.2235 -0.4009 -0.0326
  574MOL0     C79124   5.044   9.109   2.753 -0.3214  0.2622 -0.2190
  574MOL0     N79125   4.425   9.402   3.054 -0.3187 -0.6763 -0.4941
  574MOL0     N79126   4.310   9.462   3.059  0.7973  0.3174 -0.2632
  574MOL0     C79127   3.219   9.954   3.026  0.5432  1.0203  0.5047
  574MOL0     C79128   3.121  10.052   3.008 -0.0773  0.5436  0.5778
  574MOL0     C79129   2.781  10.353   3.016  0.1766 -0.3389 -0.1824
  574MOL0     C79130   2.658  10.297   2.974 -0.3949 -0.8023  0.3863
  574MOL0     C79131   2.534  10.349   3.002  0.3845 -1.5743  0.5161
  574MOL0     C79132   2.531  10.450   3.097 -0.2857  0.3099 -0.2171
  574MOL0     O79133   2.424  10.508   3.159  0.9518 -0.3493  0.4006
  574MOL0     C79134   2.297  10.437   3.161  0.2341  0.7320  0.2030
  574MOL0     C79135   2.188  10.509   3.074 -0.9820  0.5259 -0.4008
  574MOL0     C79136   2.047  10.445   3.108 -0.0651 -0.3021 -0.0422
  574MOL0     C79137   2.012  10.312   3.035 -0.0914 -0.8452  0.6710
  574MOL0     C79138   1.985  10.323   2.891  0.3189  0.1805  0.1290
  574MOL0     C79139   1.957  10.349   2.774 -0.2194  0.1388 -0.4589
  574MOL0     C79140   2.651  10.506   3.138  0.0707 -0.8232 -0.5662
  574MOL0     C79141   2.779  10.472   3.099 -0.2085 -0.4354  0.2320
  574MOL0     C79142   2.896  10.527   3.166  0.3670 -0.5590  0.6341
  574MOL0     H79143   2.832   9.876   2.988 -0.5624  3.4506  1.9856
  574MOL0     H79144   3.000   9.682   3.046 -1.4823 -0.2320 -1.8515
  574MOL0     H79145   3.330   9.654   2.867 -0.4510 -2.1313 -0.6798
  574MOL0     H79146   3.191   9.573   2.952 -1.1427 -0.0767  2.3375
  574MOL0     H79147   3.367   9.484   3.127 -1.2781 -1.3498  0.6550
  574MOL0     H79148   3.363   9.401   2.965  1.5532  0.4247 -0.5846
  574MOL0     H79149   3.551   9.522   2.883  1.0102  2.6283 -0.2433
  574MOL0     H79150   3.563   9.611   3.042 -2.5769  0.2688  1.3918
  574MOL0     H79151   3.601   9.411   3.167 -2.5344  2.1133 -0.5525
  574MOL0     H79152   3.599   9.310   3.020 -3.3929  2.0943  0.8847
  574MOL0     H79153   3.787   9.533   3.090  0.7627  1.3004 -2.2944
  574MOL0     H79154   3.782   9.460   2.926  1.2504  1.7769  0.5184
  574MOL0     H79155   3.796   9.292   3.162 -1.0796  2.3255  0.1060
  574MOL0     H79156   3.847   9.239   3.006  0.4944  0.2873  0.7119
  574MOL0     H79157   4.049   9.290   3.174 -0.2929 -0.7133 -0.3863
  574MOL0     H79158   3.993   9.458   3.168  0.0253  1.0830 -1.9767
  574MOL0     H79159   4.052   9.322   2.905  3.0826  0.8995 -1.8087
  574MOL0     H79160   4.059   9.492   2.941  1.8202 -0.4262 -1.4733
  574MOL0     H79161   4.250   9.165   2.922  0.0864  0.1601 -0.3618
  574MOL0     H79162   4.500   9.071   3.019 -0.1293 -0.3123 -0.2624
  574MOL0     H79163   4.613   9.209   3.052  0.2878  0.3682 -0.8975
  574MOL0     H79164   4.524   9.130   2.775  0.4317  1.5398 -0.4746
  574MOL0     H79165   4.631   9.258   2.816  3.1132 -1.3562 -1.9390
  574MOL0     H79166   4.802   9.133   2.891 -0.2965 -1.7263  1.0688
  574MOL0     H79167   4.716   8.983   2.897  0.3923  0.4929 -0.3795
  574MOL0     H79168   4.678   8.988   2.653  1.2752 -0.4680 -0.7792
  574MOL0     H79169   4.781   9.131   2.631 -4.7472  0.5463 -2.8687
  574MOL0     H79170   5.076   8.774   2.682 -1.2412  0.3589 -0.5738
  574MOL0     H79171   5.391   8.776   2.834  0.9213 -1.3958 -0.9458
  574MOL0     H79172   5.398   8.798   2.655 -2.3359  0.0240 -1.9117
  574MOL0     H79173   5.288   8.689   2.724 -0.8234  1.0095  2.6057
  574MOL0     H79174   5.673   9.057   2.630 -4.0511  0.9312 -0.1361
  574MOL0     H79175   5.916   9.124   2.660 -2.3607 -1.9464 -1.1721
  574MOL0     H79176   6.082   9.224   2.685 -2.2123 -1.9670  0.0542
  574MOL0     H79177   6.192   9.292   2.796 -2.2261  2.0575  0.3106
  574MOL0     H79178   6.161   9.088   2.947 -3.1616  0.9213 -0.1714
  574MOL0     H79179   6.080   9.017   2.811  0.8269  0.8839 -2.6108
  574MOL0     H79180   6.306   8.929   2.825 -0.5950 -0.7393 -2.7394
  574MOL0     H79181   6.370   9.088   2.786 -1.3964  1.2583  2.7197
  574MOL0     H79182   6.236   9.097   2.586  3.1477  1.1594  0.8521
  574MOL0     H79183   6.188   8.929   2.630 -0.3373 -0.5730 -0.0626
  574MOL0     H79184   6.415   8.847   2.618  2.3854  1.1657  0.5950
  574MOL0     H79185   6.354   8.914   2.466 -1.5808  2.9847 -0.2208
  574MOL0     H79186   6.547   9.035   2.646 -1.7724  2.8629  1.2022
  574MOL0     H79187   6.465   9.134   2.542  0.5978 -0.0140 -1.2147
  574MOL0     H79188   6.517   8.981   2.337  0.5308 -1.9201 -1.4065
  574MOL0     H79189   6.631   8.895   2.431  0.0305 -0.0612  0.7912
  574MOL0     H79190   6.665   9.190   2.410 -2.0669 -0.5113 -0.8015
  574MOL0     H79191   6.753   9.065   2.318 -1.2461 -0.2927 -0.5954
  574MOL0     H79192   5.814   9.345   3.018  1.0238 -0.0030  0.5278
  574MOL0     H79193   5.558   9.286   2.962 -1.1990 -2.0090  1.4823
  574MOL0     H79194   5.215   9.230   2.812 -1.3827 -0.7283  3.1062
  574MOL0     H79195   4.981   9.196   2.738  2.0205  1.7949 -1.8290
  574MOL0     H79196   3.321   9.989   3.036  0.7296 -0.1531  3.8509
  574MOL0     H79197   3.165  10.150   2.996  1.5530 -0.2808 -0.6230
  574MOL0     H79198   2.652  10.204   2.919 -3.5375 -1.6952  1.9661
  574MOL0     H79199   2.451  10.306   2.948  2.5661 -2.3023 -2.5325
  574MOL0     H79200   2.316  10.331   3.142  1.8773  1.0091  0.1210
  574MOL0     H79201   2.258  10.433   3.263  0.9620  0.7499  0.4897
  574MOL0     H79202   2.220  10.507   2.969 -0.5027  0.0833 -0.2511
  574MOL0     H79203   2.187  10.613   3.108 -1.9354  0.4909 -0.3111
  574MOL0     H79204   2.043  10.429   3.216  1.2751  1.4603  0.2986
  574MOL0     H79205   1.975  10.525   3.089  1.7439  1.7510  1.3588
  574MOL0     H79206   1.924  10.268   3.083 -2.3355  1.9460 -0.5915
  574MOL0     H79207   2.087  10.234   3.050 -0.2146 -1.3016 -0.8952
  574MOL0     H79208   1.941  10.373   2.670  2.9162 -0.0162 -1.0664
  574MOL0     H79209   2.638  10.595   3.200 -1.5298 -1.9811  0.8572
  574MOL0     H79210   2.874  10.620   3.219 -0.2214 -0.5120  0.3149
  574MOL0     H79211   2.943  10.465   3.242  1.0039  0.3618  1.0163
  574MOL0     H79212   2.970  10.548   3.088 -0.3160  1.3955  0.4411
  575MOL0     O79213  10.159   3.493   3.941  0.4549  0.4502 -0.3879
  575MOL0     C79214  10.233   3.511   3.846 -0.4496 -1.0647  0.3321
  575MOL0     O79215  10.263   3.420   3.746  0.7822  0.0290  0.5567
  575MOL0     C79216  10.197   3.296   3.751 -0.6447 -0.1864  0.0619
  575MOL0     C79217  10.244   3.190   3.830  0.9808  0.1675  0.8673
  575MOL0     C79218  10.170   3.066   3.831 -0.1591  0.0237  0.5236
  575MOL0     C79219  10.051   3.045   3.749 -0.3484  0.5321 -0.1316
  575MOL0     O79220   9.982   2.920   3.755 -0.0211  0.0910  0.7430
  575MOL0     C79221   9.853   2.921   3.688 -0.4822  0.3818 -0.8436
  575MOL0     C79222   9.811   2.779   3.699 -0.3512  0.3523 -0.2546
  575MOL0     C79223   9.658   2.756   3.674 -0.0767 -0.5399  0.1790
  575MOL0     C79224   9.608   2.615   3.693 -0.3756 -0.6254 -0.7023
  575MOL0     C79225   9.634   2.523   3.574 -0.3642  0.5000 -0.3327
  575MOL0     C79226   9.551   2.392   3.591 -0.0979 -0.4334 -0.1912
  575MOL0     C79227   9.545   2.314   3.455 -0.4187 -0.0687 -0.3133
  575MOL0     C79228   9.681   2.259   3.407 -0.2176  0.7410 -0.5527
  575MOL0     N79229   9.668   2.208   3.270 -0.0649  0.2372 -0.3360
  575MOL0     C79230   9.750   2.225   3.166 -0.6087 -0.6278 -0.0092
  575MOL0     C79231   9.706   2.141   3.068  0.6681 -0.6940  0.2103
  575MOL0     C79232   9.777   2.126   2.926 -0.1258 -0.4487  0.5360
  575MOL0     C79233   9.863   2.009   2.916  0.2444 -0.0159  0.4662
  575MOL0     C79234   9.994   2.018   2.995 -0.8181 -0.1256  0.6661
  575MOL0     C79235  10.074   1.890   2.966 -0.0574 -0.4634 -0.2252
  575MOL0     O79236  10.201   1.885   3.027  0.3274 -0.1231  0.1304
  575MOL0     C79237  10.317   1.937   2.975  0.0143 -0.0515 -0.7683
  575MOL0     C79238  10.450   1.912   3.036 -0.1452 -0.2230  0.1086
  575MOL0     C79239  10.568   1.971   2.991 -0.6177 -0.1541  0.0586
  575MOL0     C79240  10.694   1.954   3.069 -0.7747  0.6749 -0.6129
  575MOL0     C79241  10.565   2.040   2.867  0.5104 -0.3348  0.2413
  575MOL0     C79242  10.691   2.101   2.805  0.6466 -0.0512 -0.4370
  575MOL0     O79243  10.661   2.195   2.713 -0.4291  0.5184  0.4346
  575MOL0     C79244  10.773   2.255   2.656 -0.3201  0.0107 -1.4490
  575MOL0     C79245  10.805   2.231   2.521 -0.6472 -0.5917  0.6432
  575MOL0     C79246  10.909   2.308   2.461 -0.5811  0.2235  0.0326
  575MOL0     C79247  10.994   2.395   2.532 -0.1261 -0.0291  0.1340
  575MOL0     O79248  11.101   2.466   2.485  0.1862 -0.8454  0.6489
  575MOL0     C79249  11.176   2.424   2.362  0.5020 -0.7379  0.0844
  575MOL0     C79250  11.287   2.520   2.331 -0.1961 -0.1414  0.1334
  575MOL0     C79251  11.365   2.488   2.196 -0.1896  0.4708 -0.2777
  575MOL0     C79252  11.433   2.356   2.192  0.7273 -0.1387  0.0818
  575MOL0     C79253  11.534   2.359   2.068  0.4381 -0.6656  0.1867
  575MOL0     C79254  11.558   2.217   2.026  0.1572  1.0928  0.0883
  575MOL0     C79255  11.657   2.207   1.915  0.5166 -0.4898  0.5442
  575MOL0     C79256  11.798   2.211   1.985 -1.1668 -0.0927 -0.1390
  575MOL0    Cl79257  11.943   2.232   1.878  0.3771 -0.0270 -0.4573
  575MOL0     C79258  10.965   2.408   2.672  0.8107 -0.6895 -0.4815
  575MOL0     C79259  10.854   2.341   2.732 -0.2811 -0.3552  0.2981
  575MOL0     O79260  10.804   2.053   2.821  0.4614  0.0205 -0.0142
  575MOL0     C79261  10.437   2.060   2.802  0.6489 -0.5159 -0.1175
  575MOL0     C79262  10.314   2.017   2.856  0.1317 -0.4460 -0.4367
  575MOL0     N79263   9.592   2.076   3.114  0.5509 -0.3697 -0.5483
  575MOL0     N79264   9.568   2.124   3.236  0.2541 -0.1937 -0.2619
  575MOL0     C79265  10.015   3.157   3.669 -0.0107  0.0428 -0.2247
  575MOL0     C79266  10.088   3.276   3.672 -0.2984  0.1229 -0.6592
  575MOL0     C79267  10.312   3.640   3.827  0.1466  0.1692  0.3197
  575MOL0     C79268  10.380   3.679   3.939 -0.8799  1.0891  0.0797
  575MOL0     C79269  10.471   3.788   3.923  0.2009  0.7479  0.4758
  575MOL0     C79270  10.495   3.844   3.795  0.7136 -1.4595 -0.6259
  575MOL0     O79271  10.598   3.933   3.779 -0.1152 -0.3547  0.1031
  575MOL0     C79272  10.701   3.944   3.866  0.9497 -0.5161  0.2623
  575MOL0     C79273  10.819   4.025   3.817 -0.4127 -0.1764 -0.0132
  575MOL0     C79274  10.908   3.968   3.700  0.2118  0.1468  0.0838
  575MOL0     C79275  11.037   4.042   3.664 -0.4017  0.2386 -0.5446
  575MOL0     C79276  11.027   4.188   3.637  0.0967  1.1554  0.8659
  575MOL0     C79277  11.008   4.306   3.609 -0.2701 -0.0372 -0.3262
  575MOL0     C79278  10.417   3.807   3.686 -0.8466  0.1066 -0.4904
  575MOL0     C79279  10.328   3.708   3.700  0.4262  1.1315  0.2294
  575MOL0     C79280  10.241   3.679   3.579  0.3864 -0.1170 -0.1792
  575MOL0     H79281  10.336   3.205   3.886  0.5354 -2.9160  2.6245
  575MOL0     H79282  10.213   2.994   3.899  0.4913  0.4333  0.5579
  575MOL0     H79283   9.864   2.952   3.584  0.7662  0.3543 -0.7378
  575MOL0     H79284   9.779   2.991   3.728 -1.0415  0.6894 -2.3573
  575MOL0     H79285   9.865   2.721   3.624 -3.0069 -2.0204 -0.5053
  575MOL0     H79286   9.839   2.735   3.795  2.9734  1.2384 -0.6926
  575MOL0     H79287   9.609   2.825   3.744  2.9753  0.4596  1.5069
  575MOL0     H79288   9.643   2.805   3.577 -0.1984  3.5596  2.0314
  575MOL0     H79289   9.662   2.573   3.779  0.2059 -0.7606 -1.1276
  575MOL0     H79290   9.504   2.602   3.723 -0.9855  1.3355 -1.8468
  575MOL0     H79291   9.741   2.502   3.568 -0.3094 -1.3029  3.5715
  575MOL0     H79292   9.602   2.575   3.484 -1.0872 -0.8966 -0.9198
  575MOL0     H79293   9.602   2.327   3.663 -0.5803 -2.2510 -1.4378
  575MOL0     H79294   9.452   2.414   3.631  0.0817 -0.5797  0.3375
  575MOL0     H79295   9.507   2.378   3.376 -1.9114  0.0631  0.4866
  575MOL0     H79296   9.487   2.222   3.471  1.4929 -1.1821  0.6742
  575MOL0     H79297   9.760   2.335   3.408  0.6999 -0.1556  1.6217
  575MOL0     H79298   9.725   2.179   3.466  1.0517 -0.7279 -3.2922
  575MOL0     H79299   9.834   2.294   3.162  0.4638 -1.8461  0.6477
  575MOL0     H79300   9.850   2.205   2.907 -0.1059 -0.6478 -0.2156
  575MOL0     H79301   9.699   2.128   2.850 -0.6914 -1.1682  1.0803
  575MOL0     H79302   9.805   1.919   2.940 -1.0981 -0.4645 -3.6195
  575MOL0     H79303   9.901   1.995   2.814  1.1231 -0.7157  0.8856
  575MOL0     H79304  10.044   2.105   2.951 -2.0067 -0.6828 -1.9395
  575MOL0     H79305   9.983   2.033   3.103 -1.1406 -2.6352  1.0421
  575MOL0     H79306  10.004   1.820   3.013 -1.7507  1.9122  0.9718
  575MOL0     H79307  10.081   1.862   2.861 -0.0590 -3.7593  0.5320
  575MOL0     H79308  10.451   1.849   3.125  2.5717  1.2166  1.2217
  575MOL0     H79309  10.684   1.874   3.142  1.7230 -0.6443 -1.5734
  575MOL0     H79310  10.719   2.051   3.112 -0.2999  1.0493 -1.6937
  575MOL0     H79311  10.775   1.926   3.001 -1.3237  2.5306 -2.1083
  575MOL0     H79312  10.747   2.165   2.457 -1.3654  1.2545 -0.7329
  575MOL0     H79313  10.921   2.300   2.354 -1.6714 -1.6106  0.0008
  575MOL0     H79314  11.219   2.325   2.381  1.5746 -0.6427 -1.6535
  575MOL0     H79315  11.112   2.411   2.274  0.0512  0.3630  0.2285
  575MOL0     H79316  11.245   2.620   2.321  1.2723  0.4669 -0.0240
  575MOL0     H79317  11.361   2.518   2.411  1.3645  3.9144 -0.9722
  575MOL0     H79318  11.445   2.562   2.188  2.2918 -1.5946  3.0414
  575MOL0     H79319  11.296   2.496   2.111 -0.6819 -0.2520  0.0385
  575MOL0     H79320  11.351   2.288   2.166  0.4533 -0.4129  1.5828
  575MOL0     H79321  11.472   2.323   2.289 -3.0121  1.1769  2.2407
  575MOL0     H79322  11.493   2.419   1.986  3.7117  0.9360 -0.4110
  575MOL0     H79323  11.620   2.417   2.102  1.7247 -0.3883 -3.2019
  575MOL0     H79324  11.467   2.173   1.985 -0.4965  0.6504  1.9210
  575MOL0     H79325  11.587   2.169   2.121  2.3073  1.5306 -0.2980
  575MOL0     H79326  11.642   2.289   1.844  0.5867 -1.3708 -0.5070
  575MOL0     H79327  11.649   2.105   1.878  0.3473 -0.7894  1.4032
  575MOL0     H79328  11.807   2.119   2.043 -2.8737  0.2921  0.8092
  575MOL0     H79329  11.801   2.291   2.060 -1.7487  0.2506 -0.4769
  575MOL0     H79330  11.031   2.477   2.725  0.1362  0.8833 -1.6163
  575MOL0     H79331  10.827   2.355   2.836 -1.4624 -1.9061  0.2379
  575MOL0     H79332  10.426   2.093   2.700 -1.9844 -2.1978 -0.4761
  575MOL0     H79333  10.225   2.036   2.798 -1.4080 -2.1707  1.2294
  575MOL0     H79334   9.926   3.155   3.607 -0.4202 -0.1917  0.3618
  575MOL0     H79335  10.062   3.352   3.599  1.5563  1.1558 -0.3160
  575MOL0     H79336  10.373   3.624   4.033 -1.0983 -0.9995 -1.1149
  575MOL0     H79337  10.541   3.825   3.997 -2.2802  1.7386  2.4891
  575MOL0     H79338  10.680   3.984   3.966  1.7219  1.3555 -0.2871
  575MOL0     H79339  10.733   3.840   3.880  0.4688 -0.8937 -1.3061
  575MOL0     H79340  10.885   4.059   3.898 -0.1129 -0.3732 -0.1737
  575MOL0     H79341  10.773   4.118   3.782  0.0782  0.8235  1.8548
  575MOL0     H79342  10.928   3.863   3.723 -2.4227 -0.5202 -0.3827
  575MOL0     H79343  10.853   3.957   3.606 -0.2148  0.9192  0.2328
  575MOL0     H79344  11.079   3.988   3.579  1.5432  0.4191  0.2259
  575MOL0     H79345  11.102   4.043   3.753  0.1775  2.6705 -0.8966
  575MOL0     H79346  10.980   4.405   3.583 -0.4252  0.3516  1.2071
  575MOL0     H79347  10.436   3.860   3.593  1.7483 -0.0695 -0.1251
  575MOL0     H79348  10.302   3.667   3.489  0.8807 -2.7844  0.4122
  575MOL0     H79349  10.183   3.587   3.591  0.2877  0.2148  2.6690
  575MOL0     H79350  10.173   3.763   3.565 -0.2696 -0.4659  0.8215
  576MOL0     O79351   8.520   8.640   3.790 -0.6339 -0.1017 -0.9581
  576MOL0     C79352   8.504   8.528   3.748 -0.3895 -0.2816  0.5661
  576MOL0     O79353   8.590   8.448   3.676  0.3767  0.0540 -0.1093
  576MOL0     C79354   8.706   8.498   3.656 -0.7804 -0.0185 -0.3163
  576MOL0     C79355   8.741   8.532   3.529 -0.8528 -0.5760  0.2494
  576MOL0     C79356   8.873   8.591   3.506 -0.2093 -0.7273  0.6869
  576MOL0     C79357   8.956   8.626   3.611  0.2878  0.5316 -0.0432
  576MOL0     O79358   9.078   8.689   3.587 -0.5079  0.7096 -0.5350
  576MOL0     C79359   9.157   8.742   3.687 -0.6131  0.4267  0.2003
  576MOL0     C79360   9.292   8.793   3.628  0.0097 -0.9884  0.1576
  576MOL0     C79361   9.380   8.679   3.580  0.4008 -0.4230 -0.3785
  576MOL0     C79362   9.520   8.724   3.565 -0.0760  0.0824 -0.3643
  576MOL0     C79363   9.590   8.728   3.701  0.5926 -0.1650  0.0469
  576MOL0     C79364   9.585   8.598   3.777  0.7177 -0.6696  0.4629
  576MOL0     C79365   9.700   8.580   3.877 -0.4451 -0.0408  0.3905
  576MOL0     C79366   9.720   8.683   3.986  0.2075  0.1375  0.0359
  576MOL0     N79367   9.607   8.688   4.081 -0.3862  0.2793  0.1226
  576MOL0     C79368   9.583   8.601   4.188  0.2364 -0.3987 -0.4158
  576MOL0     C79369   9.477   8.663   4.250  0.5513 -0.9420 -0.2779
  576MOL0     C79370   9.421   8.625   4.384  0.2861  0.2864 -0.1399
  576MOL0     C79371   9.502   8.676   4.496 -0.7666 -0.1213  0.0246
  576MOL0     C79372   9.515   8.831   4.505 -0.0434  0.1986  0.4097
  576MOL0     C79373   9.614   8.878   4.620 -0.1601 -0.6856  0.5271
  576MOL0     O79374   9.736   8.803   4.624  0.3651 -0.1245 -0.2909
  576MOL0     C79375   9.820   8.802   4.510 -0.8943  0.4626  0.2046
  576MOL0     C79376   9.815   8.900   4.403  0.2002 -0.5435 -0.8764
  576MOL0     C79377   9.895   8.883   4.289  0.0662  0.5285  0.1314
  576MOL0     C79378   9.862   8.983   4.175  0.0421 -0.3059  0.8088
  576MOL0     C79379   9.991   8.784   4.277  0.3220 -0.5693  0.7095
  576MOL0     C79380  10.090   8.779   4.165 -1.0378  0.1841 -0.6905
  576MOL0     O79381  10.163   8.664   4.159  0.4058  0.3659 -0.0183
  576MOL0     C79382  10.224   8.638   4.043 -0.8775 -1.1338 -0.6019
  576MOL0     C79383  10.362   8.637   4.056 -0.4602  0.5726  0.1065
  576MOL0     C79384  10.441   8.619   3.943  1.1610 -0.2288 -0.1724
  576MOL0     C79385  10.385   8.602   3.814 -0.7700  1.3370  0.0730
  576MOL0     O79386  10.462   8.590   3.705  0.0734  0.0194  0.5426
  576MOL0     C79387  10.606   8.639   3.706 -0.3778 -0.8858 -0.1404
  576MOL0     C79388  10.640   8.714   3.575 -1.0856 -0.7102  0.3693
  576MOL0     C79389  10.640   8.621   3.446 -0.2959  0.0529  0.5669
  576MOL0     C79390  10.755   8.517   3.457 -0.0161  0.2648 -0.3963
  576MOL0     C79391  10.762   8.444   3.327  0.4237 -0.5242 -0.4706
  576MOL0     C79392  10.842   8.518   3.212  0.7660 -0.2850  0.1154
  576MOL0     C79393  10.839   8.438   3.085 -0.6016  0.0703 -0.7088
  576MOL0     C79394  10.918   8.494   2.970 -0.1013  0.6886 -0.2025
  576MOL0    Cl79395  10.896   8.397   2.817 -0.1593 -0.5840  0.1015
  576MOL0     C79396  10.247   8.595   3.804  0.5205 -0.0632 -0.3714
  576MOL0     C79397  10.163   8.624   3.917 -0.3669  0.4927 -0.3185
  576MOL0     O79398  10.104   8.867   4.085 -1.0268 -0.3027  0.3762
  576MOL0     C79399  10.009   8.700   4.390 -0.5132 -0.5194 -0.4850
  576MOL0     C79400   9.916   8.706   4.500  0.3507  0.6044  0.2081
  576MOL0     N79401   9.434   8.775   4.178 -0.3465 -0.1236  0.2072
  576MOL0     N79402   9.513   8.783   4.079  0.1453  0.1565  0.5233
  576MOL0     C79403   8.916   8.605   3.741 -0.3669 -0.7403  0.0265
  576MOL0     C79404   8.791   8.549   3.761 -0.1721 -0.4317 -0.2667
  576MOL0     C79405   8.370   8.466   3.777  0.0949 -0.7048  0.2441
  576MOL0     C79406   8.316   8.486   3.902  0.6975 -0.5224  0.2472
  576MOL0     C79407   8.212   8.400   3.945  0.3849 -0.3073 -0.7843
  576MOL0     C79408   8.138   8.334   3.854  0.2009 -0.2403 -0.7458
  576MOL0     O79409   8.024   8.262   3.894  0.2427  0.9388 -0.8584
  576MOL0     C79410   7.936   8.330   3.984  0.5580 -0.5222 -0.9455
  576MOL0     C79411   7.792   8.266   3.982 -1.0688 -0.2375  0.4805
  576MOL0     C79412   7.679   8.348   4.048  0.1285  0.2191  0.4610
  576MOL0     C79413   7.655   8.468   3.959  0.4586  0.2306  1.2482
  576MOL0     C79414   7.531   8.542   4.004 -1.2567 -0.7337  0.2597
  576MOL0     C79415   7.430   8.600   4.021  0.4634  0.8085 -0.3998
  576MOL0     C79416   8.184   8.331   3.720  0.1959  0.5732 -0.0936
  576MOL0     C79417   8.304   8.381   3.678 -0.1385 -0.2965 -1.5689
  576MOL0     C79418   8.337   8.375   3.532 -0.5367 -1.3134 -0.0388
  576MOL0     H79419   8.668   8.523   3.449 -0.3581 -0.1196 -0.2616
  576MOL0     H79420   8.912   8.630   3.413 -1.9328  0.7960  0.5446
  576MOL0     H79421   9.175   8.677   3.773  0.2351  2.4427  1.6340
  576MOL0     H79422   9.108   8.836   3.715 -2.2829 -0.8896  1.8949
  576MOL0     H79423   9.268   8.847   3.535 -0.3464 -1.8195 -0.2434
  576MOL0     H79424   9.330   8.860   3.705 -0.5202  0.5594 -0.8586
  576MOL0     H79425   9.375   8.588   3.642 -0.7778 -0.1624 -0.0738
  576MOL0     H79426   9.349   8.648   3.480 -0.8624 -1.2810  0.2424
  576MOL0     H79427   9.564   8.641   3.509 -1.1712 -1.7119  1.3133
  576MOL0     H79428   9.513   8.825   3.523 -1.0702  1.2509  2.3740
  576MOL0     H79429   9.551   8.806   3.767  1.0223 -0.5957  0.8233
  576MOL0     H79430   9.694   8.755   3.679  0.4078  0.4151 -0.1260
  576MOL0     H79431   9.486   8.591   3.824 -0.0443 -0.7296 -1.0765
  576MOL0     H79432   9.599   8.512   3.710 -0.4069 -0.1064 -0.5253
  576MOL0     H79433   9.791   8.580   3.817  0.4164 -2.0538  1.5647
  576MOL0     H79434   9.679   8.484   3.925  1.3358 -0.1027  1.1544
  576MOL0     H79435   9.813   8.668   4.042 -0.2825 -3.1827  0.1475
  576MOL0     H79436   9.739   8.784   3.949  0.2357  0.5890  1.2377
  576MOL0     H79437   9.649   8.525   4.227 -1.3587 -1.2774  0.6485
  576MOL0     H79438   9.398   8.518   4.391 -1.6732  0.7835  2.4120
  576MOL0     H79439   9.317   8.657   4.395 -0.0788 -1.6563  3.4116
  576MOL0     H79440   9.465   8.658   4.597 -0.7241 -2.7462 -0.3499
  576MOL0     H79441   9.603   8.633   4.491  0.2812  1.9832  1.7409
  576MOL0     H79442   9.549   8.867   4.407  0.2386  0.7724  0.7143
  576MOL0     H79443   9.418   8.877   4.528 -0.4043 -1.7749  3.3139
  576MOL0     H79444   9.636   8.985   4.615  1.2183 -0.9375  0.8922
  576MOL0     H79445   9.573   8.855   4.719  0.6052 -1.7783  0.6185
  576MOL0     H79446   9.738   8.976   4.414  0.6149 -0.4592  2.8983
  576MOL0     H79447   9.856   8.925   4.083 -1.1533  1.4681 -0.2918
  576MOL0     H79448   9.940   9.059   4.174  0.9805 -1.2466 -0.1486
  576MOL0     H79449   9.771   9.039   4.199  0.7735  1.8830 -1.2088
  576MOL0     H79450  10.395   8.648   4.159 -0.8754 -0.1777  0.3275
  576MOL0     H79451  10.549   8.613   3.959  1.4008 -1.9896 -2.0750
  576MOL0     H79452  10.619   8.719   3.779  0.2076 -1.0385 -0.0709
  576MOL0     H79453  10.681   8.562   3.729 -0.3786 -1.0157 -0.5620
  576MOL0     H79454  10.566   8.794   3.561  2.0155  2.6122  1.4593
  576MOL0     H79455  10.730   8.775   3.591 -1.6641  0.6844 -1.3512
  576MOL0     H79456  10.645   8.684   3.357  0.7981 -2.0654 -0.9322
  576MOL0     H79457  10.550   8.559   3.445  0.0567 -0.4777 -1.3691
  576MOL0     H79458  10.743   8.451   3.543 -0.6638 -0.0495 -0.7212
  576MOL0     H79459  10.848   8.574   3.464 -1.6350  3.2530 -1.4001
  576MOL0     H79460  10.812   8.349   3.345 -1.5194 -1.8399 -1.6588
  576MOL0     H79461  10.664   8.415   3.289 -0.3918 -2.4001  2.7767
  576MOL0     H79462  10.944   8.526   3.251  0.4174  1.1607  0.7891
  576MOL0     H79463  10.806   8.619   3.192 -1.6012 -1.4866 -2.3300
  576MOL0     H79464  10.735   8.419   3.058 -0.1254 -2.7346 -0.8566
  576MOL0     H79465  10.879   8.340   3.114  1.3911  0.8238 -0.7252
  576MOL0     H79466  11.022   8.513   2.995 -0.7267 -0.4885  4.2631
  576MOL0     H79467  10.875   8.592   2.949 -2.6750 -0.1264  0.7252
  576MOL0     H79468  10.188   8.585   3.713 -2.0050  2.2643  0.8546
  576MOL0     H79469  10.055   8.630   3.903 -0.1588  0.7232 -2.0661
  576MOL0     H79470  10.091   8.630   4.401  0.4426  0.5260 -0.7505
  576MOL0     H79471   9.938   8.640   4.583  0.1868  2.0491  1.4398
  576MOL0     H79472   8.978   8.644   3.821  1.1311  0.5399 -1.6642
  576MOL0     H79473   8.760   8.549   3.865  1.9429  2.1799  0.4849
  576MOL0     H79474   8.356   8.552   3.978 -0.4311  1.4784 -0.8245
  576MOL0     H79475   8.185   8.400   4.050 -0.2112  1.8208 -0.8926
  576MOL0     H79476   7.983   8.335   4.083  1.2039  0.9425 -1.3037
  576MOL0     H79477   7.923   8.431   3.943 -1.5318 -1.3139 -2.4011
  576MOL0     H79478   7.805   8.170   4.032  2.4706 -0.1747 -0.0851
  576MOL0     H79479   7.770   8.252   3.875  0.1305  5.7401 -0.9269
  576MOL0     H79480   7.599   8.276   4.034 -0.8073  1.4582 -0.8683
  576MOL0     H79481   7.715   8.368   4.149 -0.0355  0.6010  0.4424
  576MOL0     H79482   7.632   8.436   3.857  0.1421  1.5650  0.8836
  576MOL0     H79483   7.734   8.543   3.966 -1.0964  2.4390 -2.1242
  576MOL0     H79484   7.356   8.672   4.050  1.8509  0.9122  3.4841
  576MOL0     H79485   8.122   8.275   3.650  1.0917  1.3863 -1.5840
  576MOL0     H79486   8.428   8.314   3.525  0.0010 -0.4765 -0.4466
  576MOL0     H79487   8.254   8.338   3.471 -1.1771  0.0825 -0.0522
  576MOL0     H79488   8.372   8.467   3.485 -4.5713  0.5915  0.2093
  577MOL0     O79489   1.259   4.999  10.591 -0.3754 -0.2802  0.3649
  577MOL0     C79490   1.209   5.097  10.531 -0.9229  0.0387 -0.0397
  577MOL0     O79491   1.278   5.202  10.479 -0.0048 -0.9541  0.1796
  577MOL0     C79492   1.415   5.191  10.493 -0.1462 -0.0409 -0.0929
  577MOL0     C79493   1.490   5.151  10.375  0.0657 -0.1656  0.1400
  577MOL0     C79494   1.626   5.146  10.388  0.2730 -0.5081 -0.1861
  577MOL0     C79495   1.693   5.167  10.503 -0.2356  0.0351  0.3635
  577MOL0     O79496   1.834   5.153  10.494 -0.0123  0.4776  0.3971
  577MOL0     C79497   1.922   5.164  10.617  0.2852 -0.2457  0.5284
  577MOL0     C79498   2.059   5.106  10.593  0.0088  0.2557  0.2897
  577MOL0     C79499   2.161   5.166  10.689 -0.5566  0.2371  0.7480
  577MOL0     C79500   2.283   5.232  10.614 -0.2189 -0.7353  0.2249
  577MOL0     C79501   2.406   5.278  10.697  0.2096  0.1972 -0.4413
  577MOL0     C79502   2.515   5.326  10.600 -0.3363 -0.9306 -0.2654
  577MOL0     C79503   2.643   5.379  10.671 -0.2363 -0.2074  0.1118
  577MOL0     C79504   2.741   5.448  10.589  0.4138 -1.0365 -0.3314
  577MOL0     N79505   2.835   5.369  10.513 -0.1449  0.3968  0.1244
  577MOL0     C79506   2.837   5.330  10.383  0.3591 -0.0041  0.7211
  577MOL0     C79507   2.947   5.254  10.352  0.6437 -1.0394  0.7384
  577MOL0     C79508   2.994   5.198  10.217  0.3628  0.1118  0.3626
  577MOL0     C79509   2.982   5.303  10.107 -0.7246  0.2101 -0.2350
  577MOL0     C79510   3.061   5.266   9.976 -0.2550 -0.0319 -0.2766
  577MOL0     C79511   3.207   5.315   9.978 -0.4156  0.2208 -0.3023
  577MOL0     O79512   3.273   5.254   9.869 -0.0299  0.2757  0.1203
  577MOL0     C79513   3.407   5.243   9.878 -0.3420 -0.0236  0.1936
  577MOL0     C79514   3.465   5.148   9.791  0.4784 -0.6412  0.1090
  577MOL0     C79515   3.604   5.118   9.798  0.0796 -0.4435  1.0482
  577MOL0     C79516   3.653   5.013   9.694 -0.0077  0.5473  0.4136
  577MOL0     C79517   3.687   5.199   9.873  0.0080 -0.5761  0.7137
  577MOL0     C79518   3.831   5.191   9.878  0.1604  0.3737 -0.1715
  577MOL0     O79519   3.901   5.313   9.869  0.0531 -0.0848  0.2701
  577MOL0     C79520   4.030   5.317   9.889 -0.1080 -0.2882  1.4116
  577MOL0     C79521   4.115   5.251   9.802  0.4863  0.8756 -0.2549
  577MOL0     C79522   4.252   5.266   9.822 -0.0196 -0.1979  0.4685
  577MOL0     C79523   4.298   5.316   9.946  0.0242  0.1465 -0.0605
  577MOL0     O79524   4.436   5.321   9.976 -0.2415  0.0558 -0.1911
  577MOL0     C79525   4.516   5.369   9.872 -0.0573  0.2208  0.7523
  577MOL0     C79526   4.650   5.399   9.930 -1.1393  0.0991  0.3611
  577MOL0     C79527   4.746   5.453   9.821  0.4259  0.5404 -0.3603
  577MOL0     C79528   4.874   5.492   9.885 -0.4479 -0.0247 -0.3436
  577MOL0     C79529   5.000   5.502   9.806  0.1333  0.0270  0.1262
  577MOL0     C79530   5.028   5.369   9.743 -0.6978 -0.2590  0.0522
  577MOL0     C79531   5.177   5.361   9.700 -0.0172  0.6306  0.0765
  577MOL0     C79532   5.195   5.402   9.555  0.3663 -0.1040 -0.1664
  577MOL0    Cl79533   5.364   5.370   9.509  0.1434  0.0269 -0.1684
  577MOL0     C79534   4.205   5.342  10.048  0.2725  0.4685 -0.2169
  577MOL0     C79535   4.074   5.352  10.012 -0.3126 -0.3495 -0.3871
  577MOL0     O79536   3.878   5.080   9.892 -0.4306 -0.3168  0.0254
  577MOL0     C79537   3.624   5.298   9.956  0.3158 -0.0468 -0.5448
  577MOL0     C79538   3.490   5.319   9.957  0.3518 -0.2967  0.2117
  577MOL0     N79539   3.013   5.250  10.469 -0.7487  0.2763 -0.5170
  577MOL0     N79540   2.952   5.322  10.564 -0.0531  0.0217 -0.0869
  577MOL0     C79541   1.623   5.190  10.626 -0.1300  0.0009  0.3460
  577MOL0     C79542   1.480   5.210  10.621 -0.3986 -0.0377 -0.1673
  577MOL0     C79543   1.063   5.106  10.526  0.1275 -0.4577  0.4169
  577MOL0     C79544   1.004   5.221  10.465  0.1669 -0.1004  0.2077
  577MOL0     C79545   0.864   5.236  10.436 -0.3058  0.5592  0.2017
  577MOL0     C79546   0.770   5.141  10.489 -0.2076 -0.0969 -0.5418
  577MOL0     O79547   0.630   5.139  10.481  0.0865 -0.1379  0.4256
  577MOL0     C79548   0.555   5.215  10.378 -0.2843 -0.5650  0.2651
  577MOL0     C79549   0.537   5.355  10.441  0.3249  0.4686 -0.0280
  577MOL0     C79550   0.427   5.360  10.547 -0.4672  0.5798  0.1774
  577MOL0     C79551   0.406   5.501  10.603  0.4953  0.6883 -0.3796
  577MOL0     C79552   0.314   5.510  10.720  0.5728  0.6082 -0.4305
  577MOL0     C79553   0.221   5.506  10.798  0.4793 -0.3417 -0.5103
  577MOL0     C79554   0.824   5.029  10.559  0.6095  0.3201  0.7602
  577MOL0     C79555   0.967   5.012  10.578  0.5506 -0.9455 -0.4254
  577MOL0     C79556   1.005   4.888  10.650  0.0929  0.3055 -0.3258
  577MOL0     H79557   1.439   5.134  10.282 -3.4191 -0.6308  1.9640
  577MOL0     H79558   1.683   5.128  10.297 -1.1297 -1.5826 -0.8980
  577MOL0     H79559   1.884   5.098  10.696 -0.1217 -0.9565 -0.2427
  577MOL0     H79560   1.921   5.268  10.649 -3.0373 -0.2186  0.6984
  577MOL0     H79561   2.058   4.997  10.601  1.8623  0.2646  1.2496
  577MOL0     H79562   2.098   5.125  10.493 -0.5034 -0.3169 -0.0284
  577MOL0     H79563   2.119   5.245  10.754  1.2246  1.5412  0.3838
  577MOL0     H79564   2.201   5.093  10.760  1.5107  2.1325  1.6473
  577MOL0     H79565   2.318   5.150  10.550  0.0815  0.1342 -0.7663
  577MOL0     H79566   2.257   5.315  10.547  1.1214  1.0386  1.7695
  577MOL0     H79567   2.442   5.191  10.753  0.8068  0.5940 -0.2066
  577MOL0     H79568   2.368   5.361  10.756  0.2398 -0.4937  0.5669
  577MOL0     H79569   2.539   5.239  10.538 -2.7716 -3.2749  1.8508
  577MOL0     H79570   2.470   5.403  10.537  1.5179 -0.3409 -0.9239
  577MOL0     H79571   2.700   5.300  10.722  0.8068  1.9960  2.6115
  577MOL0     H79572   2.610   5.451  10.746 -0.6685 -0.2555 -0.0324
  577MOL0     H79573   2.694   5.512  10.513  1.7825  2.9003  1.8428
  577MOL0     H79574   2.798   5.518  10.651  2.0941 -0.9256 -1.8922
  577MOL0     H79575   2.761   5.368  10.315  2.3595  2.6491 -0.1584
  577MOL0     H79576   2.938   5.105  10.200  0.7606  0.3212 -2.6350
  577MOL0     H79577   3.099   5.173  10.233 -0.1913 -2.4102  0.6119
  577MOL0     H79578   2.876   5.304  10.080 -0.2667  1.0682 -2.2154
  577MOL0     H79579   3.019   5.400  10.144  0.1162 -0.7191  1.4808
  577MOL0     H79580   3.033   5.163   9.952 -3.1981  0.8682 -1.0566
  577MOL0     H79581   3.021   5.318   9.889  1.7856 -3.0055 -3.2333
  577MOL0     H79582   3.198   5.423   9.967  0.8791  0.2624 -1.1113
  577MOL0     H79583   3.250   5.281  10.072 -0.5886  0.5809 -0.0905
  577MOL0     H79584   3.393   5.091   9.734  0.3598 -0.9136  0.5269
  577MOL0     H79585   3.641   4.914   9.739  0.1191  0.1870 -0.3362
  577MOL0     H79586   3.758   5.018   9.665  0.2736 -3.2115  0.3387
  577MOL0     H79587   3.591   5.021   9.604 -0.4589 -1.7284  0.4755
  577MOL0     H79588   4.075   5.208   9.711  2.8798 -0.1308 -0.9136
  577MOL0     H79589   4.308   5.224   9.739 -0.6267  1.6397 -0.9503
  577MOL0     H79590   4.532   5.299   9.790  1.4257 -0.7811  1.8287
  577MOL0     H79591   4.461   5.455   9.832 -1.1551 -1.1810 -0.9062
  577MOL0     H79592   4.650   5.479  10.005  1.1471  1.4036 -0.8943
  577MOL0     H79593   4.682   5.309   9.983 -2.3605 -0.4926  0.1295
  577MOL0     H79594   4.697   5.539   9.773 -1.1169 -0.4434 -0.6401
  577MOL0     H79595   4.755   5.368   9.754  0.7394  1.6491 -1.7724
  577MOL0     H79596   4.884   5.424   9.970 -1.1649 -0.6982 -0.7929
  577MOL0     H79597   4.868   5.592   9.930 -0.4277 -0.7923  1.4792
  577MOL0     H79598   4.983   5.569   9.721 -2.0634  2.3085  2.1720
  577MOL0     H79599   5.074   5.549   9.872  0.5368  0.8263 -0.8697
  577MOL0     H79600   4.968   5.353   9.653  0.2789  4.8850 -1.8028
  577MOL0     H79601   5.008   5.289   9.816 -2.2998 -1.2525 -1.3969
  577MOL0     H79602   5.220   5.262   9.719 -1.0076  0.3561  1.0210
  577MOL0     H79603   5.232   5.432   9.762  1.0970 -1.4154  1.5711
  577MOL0     H79604   5.175   5.510   9.555  0.6006 -0.0329  1.5184
  577MOL0     H79605   5.124   5.349   9.492  0.8608 -0.4650 -0.4247
  577MOL0     H79606   4.240   5.369  10.147  2.5605 -1.7073 -0.3351
  577MOL0     H79607   3.992   5.385  10.075 -1.9260 -0.0731 -2.5436
  577MOL0     H79608   3.687   5.365  10.014 -3.7825  2.3756  1.5467
  577MOL0     H79609   3.437   5.390  10.021  2.2954  0.4741  1.0531
  577MOL0     H79610   1.676   5.176  10.720  0.7745 -0.0501 -0.1697
  577MOL0     H79611   1.424   5.210  10.714 -1.0801  0.3807 -0.5681
  577MOL0     H79612   1.071   5.296  10.424 -0.4802  0.3864  0.0245
  577MOL0     H79613   0.821   5.308  10.367 -1.7174  1.5097  2.0139
  577MOL0     H79614   0.615   5.213  10.287  1.5959  1.4515  1.3596
  577MOL0     H79615   0.456   5.171  10.363 -0.3203 -0.0472 -1.1672
  577MOL0     H79616   0.508   5.422  10.360  0.3477 -1.2541 -1.5452
  577MOL0     H79617   0.629   5.383  10.491 -0.1888  3.5605 -0.6529
  577MOL0     H79618   0.335   5.323  10.499  1.2716 -3.2061 -0.6046
  577MOL0     H79619   0.456   5.283  10.619 -0.4656 -0.2587 -0.7018
  577MOL0     H79620   0.376   5.569  10.523  3.1258  0.9821 -1.2307
  577MOL0     H79621   0.503   5.535  10.640  1.0121 -1.4399  0.3437
  577MOL0     H79622   0.132   5.495  10.858 -0.7612  2.8847 -1.5276
  577MOL0     H79623   0.754   4.951  10.586 -3.2066  2.3672 -2.3279
  577MOL0     H79624   1.058   4.819  10.584 -1.4471 -0.4335 -0.8419
  577MOL0     H79625   1.073   4.910  10.732  0.6419 -0.5680 -0.5286
  577MOL0     H79626   0.915   4.841  10.691  0.7510 -1.9539 -1.2856
  578MOL0     O79627   9.521   9.247   6.801  0.4113  0.2136 -0.0771
  578MOL0     C79628   9.546   9.346   6.859  0.2534 -1.0324 -0.1898
  578MOL0     O79629   9.669   9.397   6.874 -0.1883 -0.4044  0.1157
  578MOL0     C79630   9.779   9.312   6.906 -1.2344  0.6549  0.8045
  578MOL0     C79631   9.769   9.217   7.007 -1.0561 -0.1500 -0.1354
  578MOL0     C79632   9.889   9.156   7.054  1.1208 -0.4039  0.3286
  578MOL0     C79633  10.022   9.179   7.004 -0.5138  0.5873  0.0193
  578MOL0     O79634  10.122   9.110   7.064 -0.4990 -0.1987  0.4167
  578MOL0     C79635  10.254   9.153   7.042  0.0086 -1.0300 -0.1673
  578MOL0     C79636  10.326   9.078   6.928 -0.7733 -0.1543 -0.0493
  578MOL0     C79637  10.467   9.139   6.903  0.1455  0.7728  1.0460
  578MOL0     C79638  10.525   9.077   6.773 -0.7179 -0.1897 -0.5493
  578MOL0     C79639  10.659   9.145   6.734  0.7376  0.1561 -0.0099
  578MOL0     C79640  10.731   9.067   6.621 -1.0115  0.2533  0.1846
  578MOL0     C79641  10.851   9.161   6.601  0.0983 -0.0510  0.3174
  578MOL0     C79642  10.923   9.081   6.489 -0.2114  0.0850 -0.7726
  578MOL0     N79643  11.044   9.155   6.446  0.3333 -0.6036 -0.7016
  578MOL0     C79644  11.164   9.099   6.429  0.5955 -0.7387 -0.1350
  578MOL0     C79645  11.240   9.203   6.372  0.5897 -0.1834 -0.4003
  578MOL0     C79646  11.380   9.190   6.323 -0.4037  0.3634 -0.0722
  578MOL0     C79647  11.472   9.186   6.448  0.0859 -0.0990  0.5759
  578MOL0     C79648  11.623   9.158   6.411 -1.2092 -0.3163 -0.3467
  578MOL0     C79649  11.687   9.265   6.318  0.1022  0.1281 -0.0859
  578MOL0     O79650  11.704   9.391   6.391 -0.1110  0.9733 -0.2045
  578MOL0     C79651  11.719   9.498   6.310  0.0052 -0.0313 -0.7519
  578MOL0     C79652  11.610   9.553   6.243  0.6173  0.1148 -0.8096
  578MOL0     C79653  11.610   9.660   6.154 -0.0037 -0.1032  0.5324
  578MOL0     C79654  11.480   9.690   6.080 -0.1997 -0.1264  0.7489
  578MOL0     C79655  11.736   9.724   6.137  0.6133  0.0680 -0.0972
  578MOL0     C79656  11.766   9.842   6.043 -0.4392 -0.1097 -0.4857
  578MOL0     O79657  11.898   9.878   6.035 -0.6469  0.2742  0.7576
  578MOL0     C79658  11.936   9.945   5.922  0.0529 -0.8662  0.5081
  578MOL0     C79659  11.903   9.925   5.784  0.4982 -0.9139 -0.8698
  578MOL0     C79660  11.961  10.007   5.680  0.3229 -0.6116  0.1036
  578MOL0     C79661  12.061  10.103   5.711 -0.9985  0.1951 -0.8582
  578MOL0     O79662  12.133  10.169   5.613 -0.1911 -0.7520  0.6368
  578MOL0     C79663  12.262  10.228   5.649 -0.4207 -0.3326  0.1934
  578MOL0     C79664  12.320  10.290   5.523  0.4483  0.3037 -0.2105
  578MOL0     C79665  12.391  10.185   5.438 -0.4133 -0.1417 -0.4371
  578MOL0     C79666  12.445  10.258   5.309 -0.0774 -0.2644 -0.6477
  578MOL0     C79667  12.532  10.176   5.214 -0.2843  1.0430 -0.0421
  578MOL0     C79668  12.610  10.252   5.113  1.1228 -0.0672 -0.6167
  578MOL0     C79669  12.699  10.163   5.030  0.5294 -0.0037  0.8940
  578MOL0     C79670  12.839  10.140   5.109 -0.0129  0.6431  1.0847
  578MOL0    Cl79671  12.888   9.976   5.076  0.5684  0.2700  0.1135
  578MOL0     C79672  12.094  10.118   5.849  0.1477 -0.3524  0.0441
  578MOL0     C79673  12.027  10.048   5.952  0.0376  0.1266 -0.1653
  578MOL0     O79674  11.669   9.891   5.972 -0.0487 -0.7773  0.2381
  578MOL0     C79675  11.846   9.684   6.215 -0.0725  0.6711  0.3737
  578MOL0     C79676  11.836   9.570   6.300 -0.5235 -0.2523 -0.4839
  578MOL0     N79677  11.157   9.319   6.357 -0.0227 -0.2704  0.8233
  578MOL0     N79678  11.044   9.283   6.404  0.5621 -0.3896  0.9749
  578MOL0     C79679  10.032   9.273   6.896  0.5695 -0.1129 -0.4006
  578MOL0     C79680   9.912   9.332   6.853 -0.0088 -0.2014 -0.6502
  578MOL0     C79681   9.433   9.414   6.935  0.1892  0.3624 -0.2362
  578MOL0     C79682   9.467   9.483   7.051  0.5811  0.2466 -0.3206
  578MOL0     C79683   9.369   9.521   7.146 -0.4646 -0.4577  0.4814
  578MOL0     C79684   9.231   9.516   7.114  0.0074  0.6993  0.6342
  578MOL0     O79685   9.139   9.583   7.195 -0.8025  0.6676 -0.6020
  578MOL0     C79686   9.125   9.533   7.325  0.2096  0.3490  0.3782
  578MOL0     C79687   9.022   9.608   7.404 -0.2808  0.8723  0.3941
  578MOL0     C79688   8.877   9.582   7.360  0.6390 -0.2652  0.0013
  578MOL0     C79689   8.792   9.689   7.431 -0.2820 -0.6805 -0.1652
  578MOL0     C79690   8.642   9.666   7.412 -0.2246 -0.3072 -0.3095
  578MOL0     C79691   8.529   9.625   7.403 -0.0847  0.5094  0.2568
  578MOL0     C79692   9.196   9.460   6.991 -0.3735  0.1654 -0.1941
  578MOL0     C79693   9.293   9.404   6.902 -0.0037 -0.0328 -0.5694
  578MOL0     C79694   9.249   9.330   6.782  0.3562  0.2519 -0.8892
  578MOL0     H79695   9.677   9.186   7.055 -1.6420  2.0259  0.2540
  578MOL0     H79696   9.877   9.099   7.145  0.1201 -0.5886  0.1000
  578MOL0     H79697  10.302   9.135   7.139  1.5769  0.9181 -0.5229
  578MOL0     H79698  10.260   9.261   7.028 -0.6909 -0.3107  3.8175
  578MOL0     H79699  10.334   8.969   6.940  0.6621 -0.1389 -0.6436
  578MOL0     H79700  10.260   9.086   6.842 -2.1073  2.1415  1.0982
  578MOL0     H79701  10.447   9.246   6.900  2.4137  1.2549  0.8196
  578MOL0     H79702  10.531   9.116   6.989  0.0549  1.1326  1.2132
  578MOL0     H79703  10.531   8.970   6.792  0.5184 -0.5236 -2.4967
  578MOL0     H79704  10.462   9.102   6.687 -0.0276 -0.4282 -1.1367
  578MOL0     H79705  10.719   9.145   6.826  1.3164  0.3446 -0.3857
  578MOL0     H79706  10.634   9.244   6.696 -1.2387  0.5816  2.1814
  578MOL0     H79707  10.759   8.967   6.657  0.8042 -0.2203 -2.3345
  578MOL0     H79708  10.674   9.068   6.528 -1.3536  1.6892  0.3812
  578MOL0     H79709  10.912   9.172   6.691  1.5827 -0.6716 -0.5873
  578MOL0     H79710  10.817   9.260   6.569 -0.8402 -0.4463  0.0517
  578MOL0     H79711  10.962   8.984   6.520 -0.5832 -0.4170 -1.8508
  578MOL0     H79712  10.868   9.069   6.395  2.4161  0.4278 -2.4548
  578MOL0     H79713  11.193   8.999   6.460  3.2517  0.8602  3.2870
  578MOL0     H79714  11.405   9.269   6.252  0.9998  0.4162  0.4597
  578MOL0     H79715  11.387   9.093   6.274 -0.4249  0.0280  0.5714
  578MOL0     H79716  11.485   9.279   6.504  2.8449 -0.8619  1.3980
  578MOL0     H79717  11.436   9.108   6.515 -1.8547 -0.8296 -1.2329
  578MOL0     H79718  11.677   9.156   6.506  0.9204 -2.3076 -1.4986
  578MOL0     H79719  11.623   9.054   6.379 -2.6597 -0.5824  0.4413
  578MOL0     H79720  11.787   9.234   6.288 -0.6513 -1.8377 -0.7837
  578MOL0     H79721  11.637   9.282   6.223  0.2236  0.9731 -0.0038
  578MOL0     H79722  11.517   9.497   6.252 -0.3919  1.4328 -2.3701
  578MOL0     H79723  11.498   9.710   5.974  0.9388 -0.1240  0.9298
  578MOL0     H79724  11.427   9.771   6.132  0.7365  0.6889  0.4711
  578MOL0     H79725  11.418   9.600   6.084  0.4327 -0.7355 -1.5137
  578MOL0     H79726  11.827   9.852   5.760 -2.5776  1.8710 -0.2924
  578MOL0     H79727  11.940   9.992   5.575 -0.2614 -3.0866  0.5280
  578MOL0     H79728  12.264  10.308   5.724 -0.3169 -0.8956  0.7904
  578MOL0     H79729  12.331  10.160   5.700  1.0631  0.2768 -0.9129
  578MOL0     H79730  12.251  10.357   5.472  1.9378  2.2199  0.1620
  578MOL0     H79731  12.401  10.355   5.557  0.7091  0.5793 -1.3103
  578MOL0     H79732  12.318  10.110   5.408 -0.1013 -0.3382 -0.7122
  578MOL0     H79733  12.469  10.136   5.499  0.2206  0.6405 -0.6055
  578MOL0     H79734  12.488  10.353   5.341 -5.6035  2.2762  0.3717
  578MOL0     H79735  12.358  10.291   5.252 -0.2298  1.1077  0.3450
  578MOL0     H79736  12.611  10.122   5.267  2.1608  2.3394 -2.1661
  578MOL0     H79737  12.468  10.104   5.163 -2.0653  3.0079 -0.7218
  578MOL0     H79738  12.664  10.336   5.159  0.6264 -0.1229  0.0815
  578MOL0     H79739  12.529  10.280   5.045 -0.6439 -3.5337 -0.1843
  578MOL0     H79740  12.731  10.223   4.944  1.6487  0.6368  1.7321
  578MOL0     H79741  12.651  10.068   5.002  1.1989  0.0043 -0.3784
  578MOL0     H79742  12.817  10.141   5.216 -0.7943  2.1819  0.9444
  578MOL0     H79743  12.930  10.200   5.095  1.4131 -1.7146 -0.6083
  578MOL0     H79744  12.166  10.189   5.889 -4.3023  2.7253  3.6620
  578MOL0     H79745  12.060  10.066   6.054  1.6261  0.0213 -0.6223
  578MOL0     H79746  11.941   9.736   6.202 -0.7507  1.3660 -2.5220
  578MOL0     H79747  11.927   9.550   6.357 -1.1526 -2.5759 -0.1978
  578MOL0     H79748  10.121   9.303   6.842  1.0387  0.0642  0.4487
  578MOL0     H79749   9.924   9.409   6.778 -1.1850 -0.8574 -1.5452
  578MOL0     H79750   9.569   9.507   7.079  1.1817 -2.9576  0.6491
  578MOL0     H79751   9.397   9.578   7.234  1.1996  1.4255 -1.1528
  578MOL0     H79752   9.084   9.431   7.331 -1.1041  0.9556  4.3879
  578MOL0     H79753   9.212   9.548   7.389 -1.0703  0.2027  2.2238
  578MOL0     H79754   9.031   9.716   7.389 -0.5259  1.2039  2.4414
  578MOL0     H79755   9.029   9.587   7.511 -0.6924 -2.1707 -0.0934
  578MOL0     H79756   8.865   9.584   7.251  1.3699 -0.6021 -0.0949
  578MOL0     H79757   8.835   9.484   7.384  2.5551 -0.9747  0.6833
  578MOL0     H79758   8.820   9.791   7.405  0.1638  0.7599  4.8719
  578MOL0     H79759   8.811   9.689   7.539 -0.1763 -0.8628 -0.1832
  578MOL0     H79760   8.431   9.590   7.377  0.8968 -1.4590 -1.0087
  578MOL0     H79761   9.090   9.454   6.970 -0.4196 -0.0653  0.1012
  578MOL0     H79762   9.282   9.226   6.785  0.9402  0.4034 -1.5814
  578MOL0     H79763   9.141   9.315   6.771  0.5975 -2.9753  0.1760
  578MOL0     H79764   9.283   9.372   6.686 -1.3478 -0.1583 -1.7084
  579MOL0     O79765   1.251   4.310   4.393 -0.4090 -0.5103 -0.4812
  579MOL0     C79766   1.179   4.387   4.460 -0.6166 -0.3258 -1.0152
  579MOL0     O79767   1.222   4.484   4.537  0.0219 -0.5127 -0.6130
  579MOL0     C79768   1.349   4.526   4.514  0.7935  0.1286 -0.5762
  579MOL0     C79769   1.460   4.461   4.574  0.8113  0.0538  0.6054
  579MOL0     C79770   1.587   4.515   4.561 -0.1962  0.3580  0.0419
  579MOL0     C79771   1.617   4.621   4.479  1.5693 -1.0371 -0.1124
  579MOL0     O79772   1.741   4.666   4.486 -0.4951  0.1462  0.2221
  579MOL0     C79773   1.766   4.804   4.447  0.2828  0.9509 -0.6319
  579MOL0     C79774   1.891   4.846   4.519 -0.7627 -0.7754  0.2819
  579MOL0     C79775   2.017   4.762   4.503  0.4797 -0.1003  0.9313
  579MOL0     C79776   2.148   4.817   4.560  0.1676  0.3708  0.2757
  579MOL0     C79777   2.267   4.731   4.505  0.4504  0.0547  0.4273
  579MOL0     C79778   2.276   4.585   4.559  0.0150  0.5463 -0.1266
  579MOL0     C79779   2.392   4.501   4.505  0.1055 -0.4881 -0.0728
  579MOL0     C79780   2.356   4.357   4.533  0.5972  0.4662  0.2815
  579MOL0     N79781   2.466   4.267   4.482 -0.1298 -0.0222 -0.1206
  579MOL0     C79782   2.495   4.238   4.350  1.5164  0.1996 -0.6541
  579MOL0     C79783   2.607   4.172   4.354 -0.0590  0.2701 -0.5366
  579MOL0     C79784   2.678   4.114   4.240  0.6159  0.1096  0.6356
  579MOL0     C79785   2.792   4.011   4.267 -0.3269 -0.1519 -0.1777
  579MOL0     C79786   2.786   3.899   4.165  0.2269 -0.3067 -0.5567
  579MOL0     C79787   2.762   3.929   4.013 -0.7097 -0.2794 -0.3217
  579MOL0     O79788   2.825   4.053   3.970  0.0781  0.1562 -0.3709
  579MOL0     C79789   2.960   4.057   3.972  0.1194  0.4258  0.6010
  579MOL0     C79790   3.022   4.168   4.037 -0.2597 -0.7179 -0.9198
  579MOL0     C79791   3.154   4.175   4.068  0.2997 -0.3587 -0.0258
  579MOL0     C79792   3.194   4.286   4.153 -0.4845 -0.3713 -1.1087
  579MOL0     C79793   3.241   4.070   4.023  0.3828 -0.8620 -0.1429
  579MOL0     C79794   3.391   4.079   4.018 -0.8268  0.1381 -0.3508
  579MOL0     O79795   3.446   3.997   3.920  0.4352 -0.0472  0.0479
  579MOL0     C79796   3.577   4.006   3.878  0.6081  0.0207  0.2150
  579MOL0     C79797   3.647   4.128   3.879 -0.4303  0.0247 -0.3770
  579MOL0     C79798   3.779   4.134   3.840  0.2651  0.8503  0.2929
  579MOL0     C79799   3.847   4.018   3.799 -0.3025  0.3901 -0.3584
  579MOL0     O79800   3.984   4.024   3.765 -0.7969  0.3213  0.4188
  579MOL0     C79801   4.041   4.150   3.759  0.2187 -0.0216 -0.4623
  579MOL0     C79802   4.188   4.133   3.732 -0.6970  0.8292 -0.1946
  579MOL0     C79803   4.277   4.242   3.790 -1.0864  0.9221  1.0713
  579MOL0     C79804   4.242   4.384   3.745  0.3992  0.2757  0.2107
  579MOL0     C79805   4.335   4.493   3.794  0.3077  0.8485  1.0358
  579MOL0     C79806   4.471   4.468   3.721 -0.5503 -0.0158  0.5441
  579MOL0     C79807   4.581   4.566   3.751 -0.0408  0.1949 -0.4302
  579MOL0     C79808   4.697   4.576   3.649 -0.4884  0.7588 -0.4045
  579MOL0    Cl79809   4.754   4.418   3.601 -0.2716  0.0148 -0.1390
  579MOL0     C79810   3.775   3.894   3.793  0.4794 -0.3385 -0.4346
  579MOL0     C79811   3.644   3.891   3.835  0.5834 -0.4809  0.2553
  579MOL0     O79812   3.448   4.160   4.088  0.3292 -0.3259  0.0152
  579MOL0     C79813   3.177   3.957   3.964 -0.2889  0.4383  0.4747
  579MOL0     C79814   3.042   3.952   3.929 -0.1906 -0.6156 -0.6721
  579MOL0     N79815   2.647   4.140   4.485  0.3829 -0.5047  0.2878
  579MOL0     N79816   2.565   4.208   4.562  0.4625  0.1199 -0.7043
  579MOL0     C79817   1.506   4.684   4.412  0.4375  0.2619  0.9664
  579MOL0     C79818   1.378   4.639   4.440  0.6711 -0.5847  0.6275
  579MOL0     C79819   1.034   4.352   4.486  0.3013 -0.1779 -0.1561
  579MOL0     C79820   0.929   4.438   4.437  0.1806 -0.3312  0.6626
  579MOL0     C79821   0.799   4.410   4.465  0.3298 -0.0254 -0.0554
  579MOL0     C79822   0.763   4.296   4.542  0.0647 -0.0765 -0.2027
  579MOL0     O79823   0.628   4.273   4.557 -0.6149  0.0129  0.5707
  579MOL0     C79824   0.587   4.171   4.644  0.1521  0.0959 -0.2966
  579MOL0     C79825   0.616   4.209   4.789  0.7581  1.0155 -0.1930
  579MOL0     C79826   0.575   4.100   4.893 -0.6447 -0.7546 -0.1194
  579MOL0     C79827   0.627   3.957   4.874 -0.1902  0.6213  0.0616
  579MOL0     C79828   0.766   3.938   4.908 -0.2740  0.7766  0.2743
  579MOL0     C79829   0.884   3.932   4.940  0.6946 -0.5346  0.0580
  579MOL0     C79830   0.861   4.215   4.589 -0.1534  0.5737 -0.4093
  579MOL0     C79831   0.995   4.240   4.558 -0.0770  0.6312 -0.6484
  579MOL0     C79832   1.112   4.155   4.613 -0.4934  0.0885  0.0998
  579MOL0     H79833   1.442   4.365   4.622  1.0990  0.4072  1.4263
  579MOL0     H79834   1.673   4.470   4.608  1.3767  0.5611 -2.4504
  579MOL0     H79835   1.686   4.870   4.483 -1.1740 -0.7399 -0.6258
  579MOL0     H79836   1.777   4.810   4.338  4.5212 -1.3995 -0.5370
  579MOL0     H79837   1.914   4.951   4.496  0.2626 -1.2922 -1.2435
  579MOL0     H79838   1.876   4.859   4.626  2.3189 -0.1198  0.7519
  579MOL0     H79839   2.004   4.666   4.553  0.2054 -2.0686 -2.5784
  579MOL0     H79840   2.033   4.743   4.396  0.0180 -2.2240  1.2039
  579MOL0     H79841   2.160   4.920   4.524 -0.0634 -0.0779 -1.1198
  579MOL0     H79842   2.147   4.814   4.670 -0.0002 -1.7801  0.2557
  579MOL0     H79843   2.356   4.789   4.528 -0.2238  2.1745 -1.8536
  579MOL0     H79844   2.265   4.727   4.395  0.9961 -0.4334  0.4358
  579MOL0     H79845   2.282   4.591   4.669  1.3719  1.9849 -0.2433
  579MOL0     H79846   2.180   4.537   4.538  0.7068 -0.0411 -2.0944
  579MOL0     H79847   2.483   4.525   4.560  0.2821 -3.8327  1.3057
  579MOL0     H79848   2.409   4.521   4.398 -0.0674  1.6274  0.2535
  579MOL0     H79849   2.332   4.353   4.640  2.2098 -3.3202  0.6411
  579MOL0     H79850   2.260   4.331   4.487 -0.2324  2.4814  0.7550
  579MOL0     H79851   2.432   4.251   4.263  0.1084  1.8369  0.5426
  579MOL0     H79852   2.716   4.181   4.162 -2.9086  1.3516 -0.1974
  579MOL0     H79853   2.600   4.053   4.194 -0.7345  1.1815  1.4550
  579MOL0     H79854   2.886   4.067   4.260 -0.6677  0.2753 -1.8744
  579MOL0     H79855   2.793   3.973   4.370 -1.7782 -1.9701 -0.7734
  579MOL0     H79856   2.883   3.850   4.175  1.4127  2.1046  0.3903
  579MOL0     H79857   2.708   3.829   4.195 -1.7081  1.9169 -0.0969
  579MOL0     H79858   2.797   3.846   3.951 -0.9924 -1.3089  0.8633
  579MOL0     H79859   2.654   3.940   3.994 -0.6729 -2.8648 -2.7367
  579MOL0     H79860   2.961   4.252   4.068 -0.1530 -1.1268  0.4458
  579MOL0     H79861   3.200   4.242   4.253  3.4667 -1.2948 -1.5774
  579MOL0     H79862   3.126   4.371   4.168 -1.4126 -1.5240  1.8140
  579MOL0     H79863   3.291   4.328   4.126 -0.9386 -0.4257 -2.9789
  579MOL0     H79864   3.608   4.222   3.917  0.4681  0.1406  0.2741
  579MOL0     H79865   3.833   4.228   3.838  2.1052 -0.1545 -1.3391
  579MOL0     H79866   4.006   4.216   3.679 -1.2136  1.2258  1.1063
  579MOL0     H79867   4.040   4.212   3.849  0.9260  0.7108 -0.9430
  579MOL0     H79868   4.211   4.037   3.780 -0.1393  0.1822 -1.6927
  579MOL0     H79869   4.202   4.113   3.625 -0.6025 -1.1965  0.1518
  579MOL0     H79870   4.382   4.220   3.767 -1.3659  0.0895  0.5086
  579MOL0     H79871   4.266   4.253   3.898 -0.7533 -0.3861  1.2524
  579MOL0     H79872   4.147   4.406   3.794  0.5609 -0.4416  0.8738
  579MOL0     H79873   4.233   4.393   3.636 -0.1149 -1.8414  0.0218
  579MOL0     H79874   4.297   4.592   3.767  0.2295  0.3049 -0.9991
  579MOL0     H79875   4.352   4.495   3.902  0.9445  0.0859  0.9607
  579MOL0     H79876   4.456   4.473   3.612 -1.6027  1.7533  0.7430
  579MOL0     H79877   4.510   4.368   3.744  1.2075  0.6941  0.8296
  579MOL0     H79878   4.625   4.531   3.844 -0.4872  0.7509 -0.0042
  579MOL0     H79879   4.532   4.664   3.755 -0.1033  0.4772 -4.0112
  579MOL0     H79880   4.788   4.610   3.699 -0.4865 -0.6679  0.6256
  579MOL0     H79881   4.671   4.637   3.562  3.5776  1.1740 -1.5375
  579MOL0     H79882   3.820   3.800   3.762  1.5794 -0.4575  1.3586
  579MOL0     H79883   3.590   3.796   3.835  0.2119 -0.2727  0.4940
  579MOL0     H79884   3.238   3.876   3.924  0.1793  1.7644 -1.7061
  579MOL0     H79885   2.987   3.877   3.873 -0.8277  0.5431 -1.6504
  579MOL0     H79886   1.519   4.773   4.351 -2.9341 -0.0241 -0.3890
  579MOL0     H79887   1.304   4.706   4.397  3.1756  1.4995 -0.7503
  579MOL0     H79888   0.963   4.533   4.396 -1.6602  0.5389  1.0563
  579MOL0     H79889   0.713   4.467   4.433  0.6045  0.4509  0.0570
  579MOL0     H79890   0.479   4.157   4.649  0.2388 -0.0202  2.4578
  579MOL0     H79891   0.630   4.077   4.610  3.6942  1.8667 -1.2782
  579MOL0     H79892   0.563   4.303   4.804  2.3043  1.8211  0.5177
  579MOL0     H79893   0.721   4.231   4.810  1.2690 -0.9166 -0.4605
  579MOL0     H79894   0.621   4.138   4.985 -1.9701  1.5001 -0.3164
  579MOL0     H79895   0.466   4.103   4.898 -0.5576  1.9011  3.1353
  579MOL0     H79896   0.599   3.929   4.772 -0.5494 -0.8527  0.5357
  579MOL0     H79897   0.574   3.884   4.936  1.0765 -0.8211 -0.4796
  579MOL0     H79898   0.988   3.938   4.963  0.5921  0.3692  0.3254
  579MOL0     H79899   0.837   4.132   4.655  1.0246  1.2963  0.9766
  579MOL0     H79900   1.162   4.104   4.529 -2.9050  2.2226 -2.8805
  579MOL0     H79901   1.172   4.229   4.667  0.3176 -1.6950  1.7793
  579MOL0     H79902   1.090   4.079   4.688  0.3118 -0.4721 -0.2162
  580MOL0     O79903  10.864  10.211   7.618 -0.4039  0.6149  0.0506
  580MOL0     C79904  10.815  10.103   7.646 -0.7155  1.0288 -0.4313
  580MOL0     O79905  10.889   9.993   7.696 -0.5996 -0.3195 -0.8017
  580MOL0     C79906  11.024  10.002   7.744 -0.2396  0.4108 -0.1482
  580MOL0     C79907  11.101   9.895   7.718  0.1204 -0.0670  0.6431
  580MOL0     C79908  11.242   9.900   7.756 -0.7803  0.0857 -0.4435
  580MOL0     C79909  11.299  10.012   7.822  0.1928  1.4440 -0.5862
  580MOL0     O79910  11.430  10.042   7.856 -0.6721  0.5262 -0.4976
  580MOL0     C79911  11.531   9.958   7.800  0.2456 -0.2152 -0.0860
  580MOL0     C79912  11.669  10.014   7.832  1.0541 -0.4817  0.1393
  580MOL0     C79913  11.772   9.922   7.768  0.1073 -0.1624  0.3335
  580MOL0     C79914  11.906   9.929   7.840  0.2109 -0.2476 -0.0132
  580MOL0     C79915  12.005   9.819   7.789  0.2935 -0.3088  0.2209
  580MOL0     C79916  12.129   9.802   7.880  0.1276 -0.0752  0.0406
  580MOL0     C79917  12.195   9.661   7.848 -0.6051  0.6371 -0.2065
  580MOL0     C79918  12.322   9.633   7.929  0.1882 -0.5666  0.0396
  580MOL0     N79919  12.297   9.631   8.073  0.1317 -0.2637  0.2566
  580MOL0     C79920  12.208   9.551   8.139 -0.0494 -0.1365 -0.0425
  580MOL0     C79921  12.224   9.600   8.266 -0.6902  0.6386  0.4756
  580MOL0     C79922  12.153   9.555   8.389  0.9240 -0.5347 -0.2941
  580MOL0     C79923  12.015   9.609   8.399  0.7775 -0.5749 -0.3197
  580MOL0     C79924  11.958   9.579   8.539 -0.5542  0.0769 -0.5022
  580MOL0     C79925  11.816   9.640   8.563  0.7470  0.7163 -0.1764
  580MOL0     O79926  11.762   9.579   8.682 -0.3933  0.0460  0.5639
  580MOL0     C79927  11.629   9.611   8.719  0.1100 -0.5145 -0.8301
  580MOL0     C79928  11.565   9.530   8.812  0.3712  0.3778 -0.7995
  580MOL0     C79929  11.431   9.549   8.851 -0.5179 -0.3382  0.1603
  580MOL0     C79930  11.369   9.450   8.943  0.8431  0.6670 -0.3390
  580MOL0     C79931  11.367   9.662   8.801  0.3166  0.1881  0.3477
  580MOL0     C79932  11.220   9.683   8.826 -0.4531 -0.2161 -0.2564
  580MOL0     O79933  11.159   9.764   8.733  0.0244  0.3452 -0.3072
  580MOL0     C79934  11.015   9.772   8.724  0.1081 -0.1793  0.0492
  580MOL0     C79935  10.962   9.903   8.690 -0.6689  0.2051 -0.7270
  580MOL0     C79936  10.825   9.926   8.682 -0.5020 -0.3508 -0.1361
  580MOL0     C79937  10.738   9.816   8.701  0.4417 -0.5997 -0.2435
  580MOL0     O79938  10.607   9.823   8.687  0.9945 -0.0739 -0.5900
  580MOL0     C79939  10.536   9.952   8.694 -0.3960  0.2420  0.4885
  580MOL0     C79940  10.400   9.934   8.761  0.4085  0.8293  0.8284
  580MOL0     C79941  10.298   9.875   8.660  0.5116 -0.6066  0.5914
  580MOL0     C79942  10.150   9.907   8.691 -0.0816  1.0573 -0.0114
  580MOL0     C79943  10.109  10.053   8.683 -0.1502 -1.0231 -0.3817
  580MOL0     C79944  10.148  10.117   8.546 -0.5057  0.1437 -0.1636
  580MOL0     C79945  10.098  10.262   8.524  0.5136 -0.2552 -0.9544
  580MOL0     C79946  10.115  10.286   8.371 -0.4611  0.3635 -0.0677
  580MOL0    Cl79947  10.285  10.289   8.319 -0.1259  0.1634 -0.1418
  580MOL0     C79948  10.789   9.686   8.722 -0.0040  0.7809 -1.2725
  580MOL0     C79949  10.927   9.665   8.739  0.4622  0.4287  1.0719
  580MOL0     O79950  11.162   9.629   8.913  0.4530  0.5927 -0.2198
  580MOL0     C79951  11.433   9.746   8.709 -0.7091  0.2785  1.4504
  580MOL0     C79952  11.562   9.713   8.662 -0.2920  0.4235  0.1805
  580MOL0     N79953  12.330   9.690   8.276  0.8300 -0.1620  0.6501
  580MOL0     N79954  12.372   9.710   8.154  0.7625 -0.0263 -0.2886
  580MOL0     C79955  11.212  10.115   7.868  0.8818 -1.0218 -0.4601
  580MOL0     C79956  11.073  10.109   7.819 -1.0891  0.5242  0.2321
  580MOL0     C79957  10.675  10.089   7.638  0.2182 -0.1659  0.6020
  580MOL0     C79958  10.614  10.125   7.520  0.2593 -0.3999  0.3552
  580MOL0     C79959  10.474  10.113   7.501 -0.3351  0.7418 -0.1947
  580MOL0     C79960  10.393  10.064   7.603 -0.7149  0.2662 -0.1106
  580MOL0     O79961  10.257  10.039   7.587 -0.0121  0.2011  0.2618
  580MOL0     C79962  10.211  10.050   7.447  0.0323  0.5323  0.3792
  580MOL0     C79963  10.067   9.990   7.415 -0.0094 -0.7169 -0.4936
  580MOL0     C79964   9.966  10.080   7.487 -0.2184 -0.4086 -0.0016
  580MOL0     C79965   9.828  10.021   7.465 -0.0468 -0.6568 -0.0810
  580MOL0     C79966   9.730  10.116   7.530 -0.1736  0.0724 -0.2445
  580MOL0     C79967   9.644  10.195   7.555 -0.3083  0.6129 -0.6032
  580MOL0     C79968  10.452  10.035   7.725  0.4232 -0.6399  0.6254
  580MOL0     C79969  10.594  10.049   7.749  0.1447 -1.0561  0.1552
  580MOL0     C79970  10.657  10.018   7.880  0.1740  0.8561 -0.4803
  580MOL0     H79971  11.065   9.820   7.649 -1.6971  2.3469 -1.2397
  580MOL0     H79972  11.315   9.822   7.732  2.1093  1.7317  2.2953
  580MOL0     H79973  11.530   9.955   7.690 -2.0115 -2.4356 -0.0719
  580MOL0     H79974  11.506   9.858   7.836 -2.0359  0.2122 -0.3337
  580MOL0     H79975  11.682  10.113   7.789 -0.1954 -0.8615 -1.2197
  580MOL0     H79976  11.694  10.014   7.938  3.1460  1.8249 -0.2652
  580MOL0     H79977  11.743   9.817   7.776 -1.0812  0.1447  0.1601
  580MOL0     H79978  11.778   9.939   7.660  0.3741  0.3189  0.4235
  580MOL0     H79979  11.943  10.032   7.832 -0.8722  0.1365 -0.3988
  580MOL0     H79980  11.896   9.926   7.949  4.0013  2.1551  0.5771
  580MOL0     H79981  12.051   9.853   7.695  1.7444  0.8623  1.3055
  580MOL0     H79982  11.950   9.725   7.779 -0.0306 -0.2076  1.0415
  580MOL0     H79983  12.191   9.892   7.874 -3.5433  2.8389  1.5621
  580MOL0     H79984  12.090   9.796   7.982 -2.5499  0.3605 -0.8800
  580MOL0     H79985  12.216   9.646   7.742 -2.6298 -0.9737 -0.4377
  580MOL0     H79986  12.118   9.586   7.871  0.0657  0.4223  1.5031
  580MOL0     H79987  12.367   9.536   7.905 -0.4974 -0.8382 -0.1764
  580MOL0     H79988  12.395   9.711   7.904  0.1049 -0.4892  0.0391
  580MOL0     H79989  12.138   9.478   8.100 -1.8236  1.6401 -0.4218
  580MOL0     H79990  12.209   9.572   8.481  0.9354 -0.4069 -0.3247
  580MOL0     H79991  12.149   9.446   8.396 -1.1771 -0.4356  0.7060
  580MOL0     H79992  12.016   9.718   8.385  0.4917 -0.2080  2.0931
  580MOL0     H79993  11.949   9.569   8.321  0.7662  1.7773 -1.6369
  580MOL0     H79994  11.952   9.470   8.541 -2.8884  0.1566 -0.6503
  580MOL0     H79995  12.011   9.627   8.622 -0.2073 -1.1704  0.0060
  580MOL0     H79996  11.830   9.749   8.557 -0.6844  0.8735 -1.3811
  580MOL0     H79997  11.758   9.606   8.477 -0.2032  1.8306 -0.0043
  580MOL0     H79998  11.621   9.449   8.858  0.0300 -1.2791 -3.1450
  580MOL0     H79999  11.282   9.400   8.900  2.4212 -3.3334  0.6844
  580MOL0     H80000  11.334   9.497   9.035  1.7453 -1.4965  1.1975
  580MOL0     H80001  11.439   9.376   8.981  0.8888  1.1571  0.5639
  580MOL0     H80002  11.036   9.981   8.679 -1.0227  0.1786 -4.2560
  580MOL0     H80003  10.813  10.031   8.654  0.5220  0.4418  2.1283
  580MOL0     H80004  10.592  10.027   8.751 -0.0701 -1.1779  2.1017
  580MOL0     H80005  10.518   9.978   8.589 -1.0646 -4.7924 -0.9356
  580MOL0     H80006  10.402   9.869   8.849 -1.1929  1.8398  1.6590
  580MOL0     H80007  10.357  10.030   8.789 -1.6487  0.6584 -1.3792
  580MOL0     H80008  10.300   9.766   8.652  0.4983 -0.7849  2.5692
  580MOL0     H80009  10.329   9.890   8.556  1.0430 -1.4503  0.6131
  580MOL0     H80010  10.126   9.876   8.793 -0.3070  1.9595  0.2248
  580MOL0     H80011  10.078   9.856   8.626 -2.4852  4.8597 -0.6658
  580MOL0     H80012  10.000  10.058   8.691 -0.0200  1.4956  0.8100
  580MOL0     H80013  10.140  10.113   8.769 -2.1947  0.3255 -0.5417
  580MOL0     H80014  10.106  10.051   8.469  0.2909 -1.8513  1.0356
  580MOL0     H80015  10.256  10.113   8.534 -0.4390  1.3167 -0.0829
  580MOL0     H80016  10.154  10.335   8.583 -0.9903 -1.8654  2.8340
  580MOL0     H80017   9.991  10.262   8.547  1.0094 -1.6009  1.8163
  580MOL0     H80018  10.074  10.386   8.361  0.4093  0.8027  0.6671
  580MOL0     H80019  10.060  10.208   8.316  1.4355 -0.3946 -1.0259
  580MOL0     H80020  10.725   9.600   8.736 -0.2145  1.4564  3.1752
  580MOL0     H80021  10.967   9.565   8.752  0.1025  0.2594  0.9098
  580MOL0     H80022  11.373   9.825   8.663 -1.2435 -2.3362 -2.9161
  580MOL0     H80023  11.605   9.775   8.585 -0.7186  2.1741  1.3028
  580MOL0     H80024  11.255  10.181   7.943 -2.4382 -0.7671  1.4287
  580MOL0     H80025  11.023  10.201   7.848  0.0791  1.2470  0.0629
  580MOL0     H80026  10.668  10.158   7.432  0.5870  2.0019  1.3724
  580MOL0     H80027  10.431  10.162   7.414 -2.1481 -0.1556  0.1539
  580MOL0     H80028  10.216  10.152   7.408 -1.8411  0.8800  0.9498
  580MOL0     H80029  10.278   9.980   7.395 -0.9587 -1.6233  1.8501
  580MOL0     H80030  10.064   9.901   7.478  2.1785 -0.8432 -0.4857
  580MOL0     H80031  10.037   9.978   7.311 -3.3340 -2.3969  0.5464
  580MOL0     H80032   9.999  10.077   7.591  0.6073 -2.4267 -0.2815
  580MOL0     H80033   9.978  10.177   7.438  0.5799  0.1035  1.1687
  580MOL0     H80034   9.820   9.921   7.510 -0.2435 -1.9262 -2.7369
  580MOL0     H80035   9.798  10.014   7.360  2.3780 -1.8336 -0.7608
  580MOL0     H80036   9.566  10.256   7.596 -2.0495 -2.0556  0.2658
  580MOL0     H80037  10.380   9.983   7.788 -2.4427  0.6124 -1.3863
  580MOL0     H80038  10.706   9.920   7.871 -2.6458 -0.6893 -0.1043
  580MOL0     H80039  10.733  10.095   7.898  0.2865  0.2746  1.8535
  580MOL0     H80040  10.592  10.016   7.967 -0.4240 -4.5679 -0.6841
  581MOL0     O80041   6.662   7.218   5.222  0.4549  0.6795 -1.4206
  581MOL0     C80042   6.668   7.199   5.102  0.0717 -0.3493  0.7014
  581MOL0     O80043   6.785   7.167   5.041  0.2214  0.0371 -0.3541
  581MOL0     C80044   6.902   7.218   5.092 -0.2970 -0.5500  0.0946
  581MOL0     C80045   6.968   7.331   5.045  0.5625  0.1014 -0.1289
  581MOL0     C80046   7.088   7.369   5.086 -0.3565  0.6020  0.0804
  581MOL0     C80047   7.153   7.306   5.197 -0.2173  0.3605 -0.5810
  581MOL0     O80048   7.279   7.351   5.226  0.0576 -0.4021 -0.0522
  581MOL0     C80049   7.316   7.341   5.363  0.0433 -0.8329 -0.2895
  581MOL0     C80050   7.408   7.222   5.391 -0.3306 -0.1338 -0.7360
  581MOL0     C80051   7.548   7.243   5.330  0.2237  1.3391 -1.0866
  581MOL0     C80052   7.637   7.118   5.354 -0.2424 -0.4335  0.5261
  581MOL0     C80053   7.780   7.139   5.304  1.1608  0.8640  0.2481
  581MOL0     C80054   7.880   7.046   5.368 -0.3330  0.6815  0.6902
  581MOL0     C80055   8.014   7.076   5.297 -0.7783  0.2581 -0.4412
  581MOL0     C80056   8.113   6.970   5.329  0.4102  0.5847 -0.6986
  581MOL0     N80057   8.253   7.008   5.297  0.3482 -0.0239 -0.1248
  581MOL0     C80058   8.327   6.953   5.197  0.4262  0.2292  0.2567
  581MOL0     C80059   8.455   6.990   5.226  0.3312 -0.5154  0.1111
  581MOL0     C80060   8.569   6.930   5.157  0.0920  0.0969 -0.2026
  581MOL0     C80061   8.648   7.035   5.073 -0.7401 -0.1695 -0.7910
  581MOL0     C80062   8.750   7.123   5.149 -0.5279  0.3784 -0.0549
  581MOL0     C80063   8.852   7.045   5.244 -0.2519  0.2151  0.4177
  581MOL0     O80064   8.916   6.946   5.164  0.2107  0.2216  0.5644
  581MOL0     C80065   9.032   6.887   5.195  0.2500 -0.3364  0.8598
  581MOL0     C80066   9.096   6.805   5.100 -0.0812  0.1598 -0.0999
  581MOL0     C80067   9.223   6.750   5.126  0.1211 -0.2275 -0.1898
  581MOL0     C80068   9.288   6.652   5.034 -0.1428  0.0731  0.2314
  581MOL0     C80069   9.293   6.787   5.249  0.6270  0.6026  0.5226
  581MOL0     C80070   9.430   6.752   5.269  0.0774  0.3606 -1.0762
  581MOL0     O80071   9.465   6.760   5.398  0.0876 -0.2175 -0.3425
  581MOL0     C80072   9.579   6.696   5.449 -0.5885  0.8948  0.2162
  581MOL0     C80073   9.635   6.755   5.556 -0.6999 -0.4409 -0.8059
  581MOL0     C80074   9.738   6.694   5.630  0.1287  0.3523 -0.3816
  581MOL0     C80075   9.785   6.567   5.589 -0.1030 -0.8716 -0.0176
  581MOL0     O80076   9.900   6.528   5.651 -0.0602 -0.0883 -0.0808
  581MOL0     C80077   9.985   6.440   5.574 -0.0917  0.5559 -0.1636
  581MOL0     C80078  10.127   6.457   5.630  0.6908 -0.2014 -0.6875
  581MOL0     C80079  10.136   6.442   5.783 -0.3271  0.3923  0.2575
  581MOL0     C80080  10.276   6.466   5.841 -0.7430 -0.7572 -0.5447
  581MOL0     C80081  10.271   6.488   5.994 -0.7677  0.2465  1.1177
  581MOL0     C80082  10.419   6.513   6.036 -0.4364  0.2177  0.1294
  581MOL0     C80083  10.435   6.574   6.170 -0.7172 -0.8393  0.4174
  581MOL0     C80084  10.367   6.497   6.277 -0.1747  0.9240 -0.7476
  581MOL0    Cl80085  10.443   6.332   6.277 -0.2344  0.2200  0.3130
  581MOL0     C80086   9.718   6.499   5.486 -1.0003 -0.3406  0.2953
  581MOL0     C80087   9.624   6.569   5.412 -1.0178  0.3690  0.0184
  581MOL0     O80088   9.515   6.744   5.179 -0.3186  0.5725 -0.1734
  581MOL0     C80089   9.227   6.863   5.340 -0.1588 -0.0212 -0.0093
  581MOL0     C80090   9.097   6.905   5.321  0.8348 -0.5185 -0.1917
  581MOL0     N80091   8.452   7.079   5.326  0.0248 -0.3264  0.2946
  581MOL0     N80092   8.335   7.088   5.377 -0.4769 -0.5024 -0.4781
  581MOL0     C80093   7.088   7.189   5.244 -0.4399  0.6998  0.0439
  581MOL0     C80094   6.973   7.144   5.192  0.2989  0.0603  0.5094
  581MOL0     C80095   6.547   7.203   5.015  0.0945 -0.2104  0.2785
  581MOL0     C80096   6.561   7.203   4.873 -0.1038 -0.9325  0.2742
  581MOL0     C80097   6.455   7.206   4.784  1.2341  0.2581  0.4459
  581MOL0     C80098   6.331   7.179   4.832 -0.1282 -0.8100  0.2323
  581MOL0     O80099   6.230   7.188   4.746 -0.4555 -0.1267  0.9874
  581MOL0     C80100   6.084   7.176   4.786  0.3310  0.9636  0.2895
  581MOL0     C80101   6.003   7.165   4.655 -0.2552  0.7222 -0.2569
  581MOL0     C80102   6.008   7.047   4.555 -0.3776  0.1071 -0.8542
  581MOL0     C80103   6.139   7.055   4.463 -0.0107  0.7153 -0.6544
  581MOL0     C80104   6.191   6.923   4.443 -1.3579  0.0345  0.0440
  581MOL0     C80105   6.247   6.816   4.422 -0.3017 -0.6477  0.1222
  581MOL0     C80106   6.305   7.176   4.970  0.4670  0.4083 -0.1119
  581MOL0     C80107   6.412   7.189   5.064  0.7160 -0.4655 -0.4227
  581MOL0     C80108   6.374   7.182   5.208 -0.0649 -0.4358  0.2556
  581MOL0     H80109   6.927   7.391   4.965  0.7126  2.9096  1.7293
  581MOL0     H80110   7.136   7.451   5.034 -4.5005  2.3773 -1.4004
  581MOL0     H80111   7.228   7.329   5.428  0.5177  1.8496  1.0008
  581MOL0     H80112   7.362   7.435   5.393 -1.9442  0.5977 -1.4708
  581MOL0     H80113   7.419   7.207   5.498 -2.5111  1.1256 -0.2772
  581MOL0     H80114   7.367   7.131   5.346 -0.5620  0.1091 -1.0248
  581MOL0     H80115   7.543   7.272   5.225  1.2726  0.9564 -1.2512
  581MOL0     H80116   7.584   7.332   5.382 -4.7084  3.0407 -0.0666
  581MOL0     H80117   7.635   7.104   5.463 -2.2267 -1.0227  0.4593
  581MOL0     H80118   7.596   7.024   5.314 -0.0040 -0.8951  1.3287
  581MOL0     H80119   7.816   7.238   5.333  3.2785 -0.0853  1.0565
  581MOL0     H80120   7.770   7.129   5.196 -2.4409  2.9963  0.2306
  581MOL0     H80121   7.893   7.077   5.472  1.2867 -1.6533  1.2447
  581MOL0     H80122   7.851   6.942   5.349  2.5231 -0.5020  2.2059
  581MOL0     H80123   8.057   7.170   5.334  0.0308 -0.9789  1.9600
  581MOL0     H80124   7.999   7.083   5.189  1.1400  1.2733 -0.6968
  581MOL0     H80125   8.107   6.956   5.437 -2.2317 -0.8613 -0.9479
  581MOL0     H80126   8.078   6.883   5.273 -0.7370  1.3854 -1.2659
  581MOL0     H80127   8.312   6.883   5.116  1.1189 -1.3690  1.4594
  581MOL0     H80128   8.542   6.853   5.084  3.6322 -1.1680 -0.3686
  581MOL0     H80129   8.642   6.886   5.225  0.9015  0.4183 -0.8583
  581MOL0     H80130   8.704   6.979   4.997 -2.1408 -0.6435 -1.5220
  581MOL0     H80131   8.582   7.100   5.015 -1.6539 -1.1993 -0.9420
  581MOL0     H80132   8.820   7.170   5.079  1.3768 -3.2047 -0.7861
  581MOL0     H80133   8.699   7.207   5.197  0.1769  1.4640 -1.1496
  581MOL0     H80134   8.925   7.114   5.287  0.4759 -0.3892  0.1742
  581MOL0     H80135   8.795   7.011   5.331 -0.1998  2.1631  1.2459
  581MOL0     H80136   9.050   6.787   5.003  2.9033  1.4628 -1.8853
  581MOL0     H80137   9.212   6.610   4.968 -2.7100  1.9816  1.8083
  581MOL0     H80138   9.329   6.571   5.095  1.0751  0.6188  0.1826
  581MOL0     H80139   9.369   6.688   4.969  0.0114 -0.8219 -0.0880
  581MOL0     H80140   9.588   6.851   5.577  0.5951  0.4266 -1.6791
  581MOL0     H80141   9.781   6.755   5.708 -0.5323 -0.7671  0.9006
  581MOL0     H80142   9.950   6.338   5.592 -2.4512  1.4501  0.6518
  581MOL0     H80143   9.987   6.457   5.466 -1.9539  2.0777  0.0003
  581MOL0     H80144  10.206   6.396   5.585  0.1398 -2.2202  0.9140
  581MOL0     H80145  10.144   6.562   5.605 -0.4120 -0.1394 -1.2505
  581MOL0     H80146  10.101   6.345   5.818  0.4666  0.7800  2.2430
  581MOL0     H80147  10.064   6.507   5.833 -0.4327  2.3452 -2.2359
  581MOL0     H80148  10.316   6.554   5.790 -2.5494  1.2134  1.2181
  581MOL0     H80149  10.340   6.382   5.815 -1.7152 -1.4219 -0.8715
  581MOL0     H80150  10.208   6.574   6.020  1.9487  2.7258  0.0354
  581MOL0     H80151  10.219   6.403   6.039 -1.5414  0.4566  0.6506
  581MOL0     H80152  10.464   6.577   5.959  1.0529  0.6221  1.2959
  581MOL0     H80153  10.478   6.422   6.024  0.0139  0.7194 -1.8158
  581MOL0     H80154  10.397   6.677   6.171  2.6869  0.5280  1.8372
  581MOL0     H80155  10.542   6.578   6.189 -0.0494  1.3524 -2.9447
  581MOL0     H80156  10.259   6.502   6.264 -0.5889  3.1066  2.3724
  581MOL0     H80157  10.395   6.547   6.371  0.3403 -1.8456  0.6903
  581MOL0     H80158   9.755   6.400   5.460  1.4572 -1.3422  6.1205
  581MOL0     H80159   9.562   6.508   5.347 -0.6052 -1.3202  1.1438
  581MOL0     H80160   9.282   6.873   5.433  1.1722 -2.7885 -0.4089
  581MOL0     H80161   9.048   6.966   5.397  1.5253  4.6749 -3.3819
  581MOL0     H80162   7.141   7.126   5.314 -0.7915  1.8186  1.3562
  581MOL0     H80163   6.929   7.052   5.232 -1.1778  1.0766  1.3157
  581MOL0     H80164   6.662   7.212   4.835  0.1576  0.9715  1.3383
  581MOL0     H80165   6.472   7.215   4.677 -3.0891 -1.4048 -0.6094
  581MOL0     H80166   6.069   7.086   4.848 -1.5017  0.5578 -0.6655
  581MOL0     H80167   6.054   7.264   4.844 -0.8959  0.4934  0.4098
  581MOL0     H80168   6.030   7.257   4.602  2.4724  0.7596  1.0256
  581MOL0     H80169   5.904   7.169   4.701 -0.0272  0.6629  0.2375
  581MOL0     H80170   6.013   6.952   4.610 -0.0491  0.1229 -0.8511
  581MOL0     H80171   5.925   7.047   4.484  0.0868  0.2137 -1.4049
  581MOL0     H80172   6.219   7.116   4.505 -0.3022  1.9064 -1.7589
  581MOL0     H80173   6.115   7.096   4.364 -1.4553 -0.9588 -1.0535
  581MOL0     H80174   6.295   6.720   4.415  0.7624 -0.2114  1.0538
  581MOL0     H80175   6.204   7.166   5.007  0.7084 -0.4326  0.3213
  581MOL0     H80176   6.437   7.110   5.260 -2.4487 -3.2389 -0.4978
  581MOL0     H80177   6.388   7.280   5.256 -0.5181  0.4612 -1.3607
  581MOL0     H80178   6.271   7.152   5.228  0.7100 -1.8958  2.3667
  582MOL0     O80179   1.793   2.758  10.838 -0.8468 -0.0022 -0.3152
  582MOL0     C80180   1.685   2.704  10.842  0.8382  0.3704  0.4582
  582MOL0     O80181   1.661   2.579  10.896 -0.3062  0.3250 -0.2889
  582MOL0     C80182   1.776   2.505  10.926  0.3986 -0.4136 -0.8796
  582MOL0     C80183   1.857   2.550  11.026 -0.5818 -0.5713 -0.1677
  582MOL0     C80184   1.963   2.470  11.068 -0.1092  0.1809 -0.5161
  582MOL0     C80185   1.996   2.349  11.004 -0.8894  0.2568 -0.0864
  582MOL0     O80186   2.113   2.278  11.022  0.4803  0.5591  0.4567
  582MOL0     C80187   2.188   2.315  11.139  0.4153  0.3225  0.4696
  582MOL0     C80188   2.288   2.204  11.183  0.2737 -0.5518  0.3224
  582MOL0     C80189   2.417   2.208  11.101  0.3413  0.3341 -0.8720
  582MOL0     C80190   2.527   2.138  11.179 -0.0319 -0.3778 -0.8567
  582MOL0     C80191   2.670   2.128  11.112  0.0269  0.6644  1.0968
  582MOL0     C80192   2.677   2.045  10.978  0.0557 -0.1521 -0.1700
  582MOL0     C80193   2.689   2.144  10.864 -0.3911  0.0776  1.1511
  582MOL0     C80194   2.711   2.062  10.737  0.5272 -0.0179  0.5195
  582MOL0     N80195   2.836   2.000  10.741  0.0147 -0.4239  0.1014
  582MOL0     C80196   2.959   2.068  10.748  0.8614  0.2634  0.4813
  582MOL0     C80197   3.046   1.964  10.748 -0.0701  0.9911 -0.8821
  582MOL0     C80198   3.193   1.968  10.744 -0.6965  0.3844  1.1216
  582MOL0     C80199   3.265   1.914  10.863 -0.7463  0.1881  1.3343
  582MOL0     C80200   3.248   1.766  10.887  0.0373  0.2825 -0.4909
  582MOL0     C80201   3.333   1.708  11.006  0.0694  0.3253 -0.0803
  582MOL0     O80202   3.476   1.720  10.997 -0.0756  0.4748 -1.5037
  582MOL0     C80203   3.538   1.826  11.049  0.9188  0.3168 -0.4706
  582MOL0     C80204   3.477   1.926  11.119 -0.1462 -0.8301 -0.1950
  582MOL0     C80205   3.548   2.036  11.168 -0.1994 -0.2376 -0.4412
  582MOL0     C80206   3.469   2.146  11.240  1.1407  0.6113 -0.2430
  582MOL0     C80207   3.689   2.038  11.143  0.8875  0.2932  0.3529
  582MOL0     C80208   3.762   2.159  11.189 -0.6443 -0.2737  0.2987
  582MOL0     O80209   3.889   2.162  11.141  0.2397  0.5087 -0.0769
  582MOL0     C80210   3.978   2.249  11.197 -1.2714 -0.2397  0.2782
  582MOL0     C80211   4.033   2.244  11.325 -0.3271  0.2092 -0.1932
  582MOL0     C80212   4.131   2.330  11.376 -0.3734 -0.4903  0.7462
  582MOL0     C80213   4.175   2.434  11.286  0.2848 -0.4644 -0.7897
  582MOL0     O80214   4.291   2.494  11.333  0.0910  0.0725  0.1947
  582MOL0     C80215   4.332   2.614  11.263 -0.3047  0.4955 -0.7073
  582MOL0     C80216   4.464   2.664  11.320 -0.1815 -0.1035 -0.8361
  582MOL0     C80217   4.420   2.739  11.448 -0.3939  0.0387  0.5689
  582MOL0     C80218   4.521   2.835  11.510  0.1616  0.3287 -0.3359
  582MOL0     C80219   4.460   2.927  11.613 -0.1857 -0.3597  0.4263
  582MOL0     C80220   4.565   2.975  11.717  0.5932  0.3790  0.3614
  582MOL0     C80221   4.674   3.063  11.655  0.2580  0.1827  0.3532
  582MOL0     C80222   4.765   3.144  11.747  0.1824  0.8135  0.3217
  582MOL0    Cl80223   4.664   3.234  11.864  0.5105 -0.1674  0.2357
  582MOL0     C80224   4.098   2.452  11.171  0.5504  0.0921 -0.3052
  582MOL0     C80225   4.013   2.359  11.124  0.0837  0.6337  0.0519
  582MOL0     O80226   3.720   2.246  11.268  0.7153  0.1420 -1.4125
  582MOL0     C80227   3.752   1.939  11.070 -0.3107  0.0952  0.5008
  582MOL0     C80228   3.673   1.834  11.020 -0.3696 -0.1235 -0.1234
  582MOL0     N80229   2.979   1.843  10.735 -0.0967 -0.1484 -0.1724
  582MOL0     N80230   2.853   1.867  10.728 -0.1997  0.4102 -0.1264
  582MOL0     C80231   1.905   2.305  10.904 -0.2121 -0.0285  0.0529
  582MOL0     C80232   1.794   2.383  10.868 -0.6937  0.4350  0.0504
  582MOL0     C80233   1.561   2.769  10.799  0.6134 -0.6540 -0.2041
  582MOL0     C80234   1.435   2.701  10.827  0.5288  0.0214 -0.1083
  582MOL0     C80235   1.313   2.767  10.811  0.3629  0.7704 -0.0764
  582MOL0     C80236   1.308   2.896  10.758 -0.1241 -0.1444 -0.3510
  582MOL0     O80237   1.191   2.962  10.761  1.0436 -0.2694 -0.0238
  582MOL0     C80238   1.160   3.087  10.689  0.6490 -0.0618  0.5833
  582MOL0     C80239   1.022   3.139  10.745  0.0316 -0.1623 -0.2975
  582MOL0     C80240   0.911   3.054  10.672 -0.1528 -0.1030 -0.0224
  582MOL0     C80241   0.774   3.125  10.688 -0.0064 -0.1573  0.8423
  582MOL0     C80242   0.721   3.126  10.828 -0.1193  0.0943  0.3488
  582MOL0     C80243   0.666   3.140  10.934  0.3376 -0.1610  0.4153
  582MOL0     C80244   1.427   2.956  10.707  0.5974  0.4059 -1.7216
  582MOL0     C80245   1.556   2.905  10.745  0.5063  0.1147 -0.2635
  582MOL0     C80246   1.686   2.983  10.705 -0.3752 -1.1651  0.2957
  582MOL0     H80247   1.833   2.645  11.074 -0.6970 -0.4622 -0.4396
  582MOL0     H80248   2.029   2.514  11.142  1.2454 -1.6479 -0.5646
  582MOL0     H80249   2.120   2.326  11.224 -0.1188 -1.3881  0.2988
  582MOL0     H80250   2.240   2.410  11.122  0.2493  0.0124 -2.2675
  582MOL0     H80251   2.317   2.223  11.287  1.5024  0.9190 -0.2487
  582MOL0     H80252   2.243   2.106  11.168 -2.4913  0.3131  2.1395
  582MOL0     H80253   2.402   2.156  11.006  1.3089  0.0187 -0.8660
  582MOL0     H80254   2.444   2.312  11.085 -2.1467  1.0979 -0.4006
  582MOL0     H80255   2.544   2.185  11.276  1.7834  0.2538 -1.4470
  582MOL0     H80256   2.488   2.039  11.203 -1.1724  0.4140  0.7116
  582MOL0     H80257   2.741   2.087  11.185 -1.1203  0.8969  2.3851
  582MOL0     H80258   2.701   2.229  11.085 -1.6622  1.2861  1.3684
  582MOL0     H80259   2.752   1.966  10.984  0.1621 -0.0378  0.0144
  582MOL0     H80260   2.580   1.995  10.963 -0.8523  1.1689  1.0002
  582MOL0     H80261   2.771   2.216  10.877 -1.9847  2.7350 -2.0998
  582MOL0     H80262   2.604   2.211  10.847 -0.1329  0.3313  0.8321
  582MOL0     H80263   2.641   1.979  10.734  1.7727 -1.1064  0.7290
  582MOL0     H80264   2.698   2.122  10.646 -0.1575 -0.2434  0.4609
  582MOL0     H80265   2.978   2.175  10.753 -1.0031  0.9132 -2.9015
  582MOL0     H80266   3.216   2.075  10.735 -1.3938  0.5156  0.8427
  582MOL0     H80267   3.231   1.925  10.651 -1.1388  2.2430  0.0265
  582MOL0     H80268   3.369   1.934  10.837 -1.3457  0.0410 -1.5471
  582MOL0     H80269   3.241   1.976  10.950  1.1499  1.3790  1.0540
  582MOL0     H80270   3.144   1.746  10.915  0.6604  0.5381  2.2443
  582MOL0     H80271   3.270   1.718  10.791 -2.3741  1.1927 -1.5749
  582MOL0     H80272   3.299   1.743  11.104  0.0102 -0.2727  0.1188
  582MOL0     H80273   3.310   1.601  11.002 -1.4832  0.6702 -1.1092
  582MOL0     H80274   3.373   1.934  11.149  0.0946  3.4306  0.1420
  582MOL0     H80275   3.361   2.130  11.250  0.9237  2.6458  1.4667
  582MOL0     H80276   3.488   2.237  11.183  3.6426 -0.5241 -1.3895
  582MOL0     H80277   3.501   2.159  11.344  0.7413 -0.4516  0.0218
  582MOL0     H80278   3.988   2.170  11.390 -4.5312  1.3795 -1.4630
  582MOL0     H80279   4.171   2.320  11.477 -1.0764 -0.6442  1.0176
  582MOL0     H80280   4.351   2.582  11.161 -0.1218  0.4833 -0.6696
  582MOL0     H80281   4.259   2.696  11.272  1.9239  2.5951 -0.6090
  582MOL0     H80282   4.542   2.593  11.347 -1.7958 -1.4286  0.5630
  582MOL0     H80283   4.506   2.728  11.242 -2.2781  0.0147 -1.9485
  582MOL0     H80284   4.403   2.670  11.531 -0.2713 -4.1273 -2.5525
  582MOL0     H80285   4.329   2.786  11.410  0.4111  0.1658 -1.3188
  582MOL0     H80286   4.571   2.905  11.443 -0.6560  1.1953 -0.0540
  582MOL0     H80287   4.606   2.782  11.555  1.1526  2.0585 -0.0974
  582MOL0     H80288   4.441   3.023  11.565  1.3796 -0.7112 -0.9673
  582MOL0     H80289   4.366   2.885  11.652  0.5931 -0.8323  1.8743
  582MOL0     H80290   4.606   2.879  11.752  1.3394 -0.4040 -2.4545
  582MOL0     H80291   4.520   3.016  11.808  2.5414  0.5649  1.2847
  582MOL0     H80292   4.623   3.136  11.591  0.2457 -0.8550 -0.8549
  582MOL0     H80293   4.740   3.009  11.587 -1.8851  0.4285 -2.0844
  582MOL0     H80294   4.827   3.207  11.683  1.1661  2.8482  3.0522
  582MOL0     H80295   4.841   3.092  11.807 -0.1177  0.5532  0.4813
  582MOL0     H80296   4.130   2.536  11.111 -0.1748  1.9072  1.7334
  582MOL0     H80297   3.962   2.379  11.030  0.4683  0.3768 -0.2114
  582MOL0     H80298   3.859   1.936  11.055 -0.3856 -0.6861  0.1004
  582MOL0     H80299   3.730   1.752  10.979  2.1877 -0.5018  3.6859
  582MOL0     H80300   1.927   2.209  10.857  2.2548  1.8043 -2.8719
  582MOL0     H80301   1.732   2.334  10.793  0.8848  0.5238 -1.3797
  582MOL0     H80302   1.441   2.611  10.887  2.1470 -0.4707 -0.9286
  582MOL0     H80303   1.224   2.711  10.838 -1.1468  3.4202  0.8488
  582MOL0     H80304   1.234   3.165  10.709  0.2904  0.8731 -1.5232
  582MOL0     H80305   1.149   3.081  10.581  0.2748  0.3558  0.5951
  582MOL0     H80306   1.014   3.244  10.716 -2.0213 -0.0604  0.4028
  582MOL0     H80307   1.025   3.128  10.854 -0.2997 -0.6197 -0.3348
  582MOL0     H80308   0.934   3.058  10.565  1.7503  0.3652  0.3574
  582MOL0     H80309   0.906   2.950  10.705 -0.7455 -0.5831 -1.5684
  582MOL0     H80310   0.702   3.084  10.616  0.7751  1.4955 -0.9772
  582MOL0     H80311   0.789   3.227  10.652  2.7548 -0.3152  1.3137
  582MOL0     H80312   0.603   3.155  11.020 -0.2192 -1.3981  0.2423
  582MOL0     H80313   1.427   3.052  10.655 -0.6407  2.1853  1.2635
  582MOL0     H80314   1.732   2.930  10.621 -0.1457  0.4432 -0.6252
  582MOL0     H80315   1.657   3.085  10.680 -2.0282 -1.6561  0.1258
  582MOL0     H80316   1.765   2.989  10.781  0.5084 -0.5836 -0.6494
  583MOL0     O80317   2.254  11.059   3.038 -0.0689  0.2280 -0.3762
  583MOL0     C80318   2.290  11.130   2.944 -0.5891 -0.8646 -0.5640
  583MOL0     O80319   2.217  11.230   2.893  0.3828  0.2585 -0.1838
  583MOL0     C80320   2.090  11.228   2.941 -0.0603 -0.5084 -0.1226
  583MOL0     C80321   2.007  11.115   2.918 -0.0016 -0.2627  0.9558
  583MOL0     C80322   1.873  11.119   2.957 -0.5641 -0.2294 -0.0541
  583MOL0     C80323   1.819  11.236   3.019  0.2043 -1.0360  0.4408
  583MOL0     O80324   1.686  11.242   3.052  0.6507 -0.1422  0.0133
  583MOL0     C80325   1.595  11.137   3.031  0.7712  0.1341  0.8834
  583MOL0     C80326   1.452  11.196   3.050 -0.2353 -0.3235 -0.4938
  583MOL0     C80327   1.343  11.082   3.052  0.5133 -0.1605  0.2321
  583MOL0     C80328   1.352  10.998   3.180 -0.6365 -0.5426 -0.3467
  583MOL0     C80329   1.228  10.904   3.203 -0.3436 -0.6943  0.2534
  583MOL0     C80330   1.246  10.782   3.112  0.4575 -0.4385 -0.5720
  583MOL0     C80331   1.118  10.691   3.130  0.3694  0.8081  0.3007
  583MOL0     C80332   1.108  10.583   3.017  0.4786 -0.0569 -0.4697
  583MOL0     N80333   1.206  10.480   3.018  0.1959  0.0852 -0.2487
  583MOL0     C80334   1.344  10.480   2.998 -0.0903  0.2555  0.6415
  583MOL0     C80335   1.387  10.366   3.051 -0.3545  0.8261 -1.0886
  583MOL0     C80336   1.526  10.313   3.045  0.3828  0.1483 -1.0537
  583MOL0     C80337   1.579  10.269   2.911 -0.1041  1.1193  0.2452
  583MOL0     C80338   1.522  10.148   2.855  0.2955  0.4094  0.3850
  583MOL0     C80339   1.580  10.095   2.726  0.2742 -0.5993  0.0359
  583MOL0     O80340   1.719  10.056   2.744  0.3043  0.1233 -0.1132
  583MOL0     C80341   1.789  10.033   2.627 -0.0627  0.2057 -0.5844
  583MOL0     C80342   1.735  10.005   2.497 -0.3178 -0.2052 -0.8547
  583MOL0     C80343   1.817   9.976   2.387  0.0943  0.8190  0.5570
  583MOL0     C80344   1.739   9.947   2.256 -0.3346 -0.4992 -0.6844
  583MOL0     C80345   1.962   9.983   2.396  0.4557  0.5715 -0.2873
  583MOL0     C80346   2.058   9.956   2.283  0.3015  0.5819  0.4397
  583MOL0     O80347   2.179   9.999   2.297 -0.2064 -0.2740  0.2829
  583MOL0     C80348   2.266   9.979   2.195  0.0463  0.0125 -0.2504
  583MOL0     C80349   2.399   9.948   2.231  0.5143  0.1476 -0.5844
  583MOL0     C80350   2.492   9.924   2.128  0.5846  0.3739 -0.2227
  583MOL0     C80351   2.458   9.941   1.992  0.2799  0.3126 -0.2561
  583MOL0     O80352   2.542   9.924   1.889 -0.6090  0.8947  0.1658
  583MOL0     C80353   2.678   9.902   1.934 -0.4608  0.0552  0.1315
  583MOL0     C80354   2.756   9.889   1.805 -0.1814 -0.0236  0.7900
  583MOL0     C80355   2.906   9.885   1.813 -0.0337 -0.3867  0.1024
  583MOL0     C80356   2.977   9.752   1.770 -0.1407  0.5158 -0.8198
  583MOL0     C80357   2.938   9.648   1.880 -0.3983 -0.8089  0.1845
  583MOL0     C80358   2.975   9.508   1.849  0.2450 -0.2677  0.7119
  583MOL0     C80359   2.984   9.410   1.965  0.4575  0.3004  0.8648
  583MOL0     C80360   3.064   9.283   1.926  0.3686 -0.2166 -0.0851
  583MOL0    Cl80361   2.965   9.136   1.902 -0.2631  0.0342  0.2998
  583MOL0     C80362   2.331   9.981   1.962 -0.1602 -0.4972 -0.5342
  583MOL0     C80363   2.235   9.999   2.060 -0.4023 -0.9517  0.4146
  583MOL0     O80364   2.018   9.873   2.199 -1.0833 -0.3044  0.8325
  583MOL0     C80365   2.012  10.002   2.532  0.0389 -0.3676  0.0869
  583MOL0     C80366   1.925  10.023   2.638 -0.2511  0.2809 -0.1940
  583MOL0     N80367   1.281  10.286   3.088  0.3968 -0.7957 -0.5798
  583MOL0     N80368   1.175  10.358   3.067 -0.1027 -0.7028  0.7332
  583MOL0     C80369   1.900  11.350   3.030 -0.1647  0.5805 -0.1405
  583MOL0     C80370   2.029  11.351   2.986 -0.1721  0.1597  0.0321
  583MOL0     C80371   2.426  11.104   2.896  0.0402 -1.0949  0.3120
  583MOL0     C80372   2.481  11.193   2.793  1.0150 -0.2666  0.0760
  583MOL0     C80373   2.594  11.172   2.731 -0.2035 -0.8803 -0.8215
  583MOL0     C80374   2.686  11.072   2.770 -1.0267  0.4122 -0.2665
  583MOL0     O80375   2.806  11.043   2.706  0.4933  0.1248  0.4741
  583MOL0     C80376   2.831  11.071   2.565 -0.0593 -0.3289  0.1250
  583MOL0     C80377   2.959  11.006   2.530 -0.8132  0.8383  0.0762
  583MOL0     C80378   2.972  10.983   2.377 -0.3495 -0.3414  0.3541
  583MOL0     C80379   3.116  10.944   2.332 -0.0602  0.1214 -0.0648
  583MOL0     C80380   3.174  10.838   2.412  0.3903 -0.2523  0.1434
  583MOL0     C80381   3.225  10.751   2.477  0.5668 -0.7659 -0.3361
  583MOL0     C80382   2.656  10.992   2.882 -0.1482 -0.5975 -0.3288
  583MOL0     C80383   2.518  11.001   2.940  0.0289  0.1015  0.4909
  583MOL0     C80384   2.487  10.888   3.035 -0.0847 -0.5616 -0.1393
  583MOL0     H80385   2.049  11.029   2.867 -0.5448 -1.1768  2.0354
  583MOL0     H80386   1.805  11.041   2.923  1.0391 -1.7495  0.0442
  583MOL0     H80387   1.618  11.066   3.111  2.1740  1.5709  1.8042
  583MOL0     H80388   1.606  11.104   2.927 -0.5270  3.3311 -0.4057
  583MOL0     H80389   1.451  11.250   3.145  1.7549 -0.0556 -0.5837
  583MOL0     H80390   1.422  11.269   2.974 -1.7466 -0.1727  0.2145
  583MOL0     H80391   1.242  11.123   3.051  0.4653  0.0631  3.4256
  583MOL0     H80392   1.356  11.012   2.969 -1.3758  1.6769 -1.7413
  583MOL0     H80393   1.436  10.928   3.174 -0.6675 -0.5536 -0.6334
  583MOL0     H80394   1.365  11.064   3.266  0.4331 -1.6148  0.3641
  583MOL0     H80395   1.134  10.954   3.177 -0.3838 -1.0574 -0.3271
  583MOL0     H80396   1.219  10.878   3.308  0.1737 -2.8932 -0.2118
  583MOL0     H80397   1.258  10.813   3.008  1.0340  1.8352  0.1093
  583MOL0     H80398   1.341  10.733   3.136  0.3547  0.2593  1.5048
  583MOL0     H80399   1.027  10.751   3.121 -1.2437 -1.3416  1.0966
  583MOL0     H80400   1.113  10.646   3.230  3.5386  1.2256  0.7392
  583MOL0     H80401   1.007  10.543   3.009  0.2292  0.0156  1.8176
  583MOL0     H80402   1.118  10.641   2.925 -2.0422  0.0888 -0.7119
  583MOL0     H80403   1.410  10.553   2.951 -0.5966  0.9386  0.9841
  583MOL0     H80404   1.529  10.221   3.104 -1.8304 -0.0011 -1.0921
  583MOL0     H80405   1.598  10.374   3.100  1.5875 -2.5811  0.6335
  583MOL0     H80406   1.573  10.348   2.835  1.2486 -0.3421 -1.4498
  583MOL0     H80407   1.686  10.250   2.924 -0.3404  1.1674  2.6637
  583MOL0     H80408   1.530  10.068   2.929 -0.3746 -2.3206 -2.2890
  583MOL0     H80409   1.414  10.162   2.848  0.3325  0.7750  0.5258
  583MOL0     H80410   1.527  10.006   2.692 -1.2035  0.2219  0.0880
  583MOL0     H80411   1.563  10.172   2.650  2.4186 -0.8856 -0.8101
  583MOL0     H80412   1.628  10.024   2.494  0.0997  3.5817  1.7988
  583MOL0     H80413   1.631   9.951   2.273 -0.5690 -0.3825 -2.0786
  583MOL0     H80414   1.754   9.844   2.224  1.6786 -0.6940  0.7605
  583MOL0     H80415   1.765  10.026   2.184  1.1250  1.4023  1.7582
  583MOL0     H80416   2.423   9.934   2.336 -2.0610  0.5808  0.1164
  583MOL0     H80417   2.591   9.893   2.160 -0.1888  0.3969  2.4722
  583MOL0     H80418   2.720   9.979   1.999 -1.1908 -0.8701  1.7482
  583MOL0     H80419   2.677   9.805   1.983  0.3089  0.7862  1.6460
  583MOL0     H80420   2.714   9.800   1.758  1.9920 -0.6840 -0.0153
  583MOL0     H80421   2.729   9.968   1.734  0.6593 -1.3131 -1.0414
  583MOL0     H80422   2.946   9.912   1.911 -0.4658 -1.4440  0.5711
  583MOL0     H80423   2.945   9.966   1.750  2.0372 -1.8992 -0.6726
  583MOL0     H80424   3.086   9.759   1.779 -0.4043  2.7006  2.7365
  583MOL0     H80425   2.942   9.726   1.670 -2.2573 -2.3918  0.5217
  583MOL0     H80426   2.977   9.673   1.980  0.2070  4.5824 -1.1052
  583MOL0     H80427   2.830   9.647   1.895 -0.4819 -0.9566 -0.4186
  583MOL0     H80428   3.071   9.497   1.797  0.1460  2.8490 -0.4003
  583MOL0     H80429   2.904   9.457   1.782 -1.0456 -1.8431  3.1451
  583MOL0     H80430   2.892   9.371   2.009  1.3220 -1.3775  1.2635
  583MOL0     H80431   3.043   9.462   2.041  2.7717 -1.4455  0.3833
  583MOL0     H80432   3.130   9.245   2.005  1.6900 -1.9005 -1.8970
  583MOL0     H80433   3.125   9.299   1.837  1.1162  0.1165  0.4769
  583MOL0     H80434   2.324   9.994   1.855  0.4507 -1.9566 -0.7654
  583MOL0     H80435   2.132  10.028   2.039  0.9970  3.9846 -0.9724
  583MOL0     H80436   2.120   9.999   2.535  0.0118 -0.5263  1.7182
  583MOL0     H80437   1.971  10.021   2.736 -0.3155 -0.6533 -0.1708
  583MOL0     H80438   1.855  11.442   3.067 -0.1958  0.6360 -0.3174
  583MOL0     H80439   2.088  11.439   3.009  3.7911 -1.9462 -1.1120
  583MOL0     H80440   2.413  11.268   2.753 -1.8650 -1.0561  3.0849
  583MOL0     H80441   2.642  11.227   2.651  3.6014 -1.8663  0.5557
  583MOL0     H80442   2.752  11.027   2.504 -1.3078 -1.5135  2.4527
  583MOL0     H80443   2.849  11.174   2.534  3.3940 -1.4546 -2.1918
  583MOL0     H80444   2.964  10.908   2.577 -0.2982  0.2080 -1.2315
  583MOL0     H80445   3.046  11.064   2.561 -0.4785  2.5050 -3.4512
  583MOL0     H80446   2.900  10.909   2.342 -1.2291  0.3427  0.6783
  583MOL0     H80447   2.937  11.077   2.333  0.1925 -0.1624  0.2921
  583MOL0     H80448   3.179  11.033   2.339  2.1902 -1.0942 -3.0449
  583MOL0     H80449   3.106  10.919   2.226  0.4014 -0.3669  0.0078
  583MOL0     H80450   3.253  10.679   2.551 -1.2031 -0.2704  0.8673
  583MOL0     H80451   2.729  10.919   2.916  0.4094 -0.1081 -0.4726
  583MOL0     H80452   2.392  10.850   2.998  1.3770 -1.1049 -3.7400
  583MOL0     H80453   2.564  10.811   3.023  0.8066  0.4089 -0.8124
  583MOL0     H80454   2.484  10.929   3.137  1.8495 -0.2345 -0.1673
  584MOL0     O80455  10.325   3.495  10.002  0.1990  0.4454  0.1802
  584MOL0     C80456  10.249   3.442  10.086 -0.2670 -0.3666 -0.8658
  584MOL0     O80457  10.282   3.405  10.214 -0.3177  0.1154 -0.0980
  584MOL0     C80458  10.408   3.380  10.231 -1.2066  0.3293  0.5315
  584MOL0     C80459  10.509   3.484  10.236  1.0977  0.0606 -0.1530
  584MOL0     C80460  10.644   3.446  10.255 -0.5410 -0.6752 -0.3909
  584MOL0     C80461  10.691   3.313  10.276  0.6168 -0.1321 -0.3496
  584MOL0     O80462  10.820   3.271  10.294 -0.2223  0.3024  0.0996
  584MOL0     C80463  10.909   3.382  10.308 -0.8165  0.1655 -0.1832
  584MOL0     C80464  11.039   3.318  10.367 -0.9764 -0.0341 -0.3576
  584MOL0     C80465  11.109   3.231  10.282 -0.5881 -0.3083  1.1970
  584MOL0     C80466  11.253   3.207  10.321 -0.9165 -0.4538 -0.3824
  584MOL0     C80467  11.336   3.163  10.208 -0.8055  0.2037  0.0863
  584MOL0     C80468  11.298   3.028  10.148 -0.5328  0.3233 -0.1316
  584MOL0     C80469  11.318   2.909  10.232 -0.6396 -0.5865  0.1750
  584MOL0     C80470  11.452   2.876  10.288  0.1174 -0.4900 -1.1938
  584MOL0     N80471  11.557   2.843  10.185  0.1224 -0.7662 -0.6362
  584MOL0     C80472  11.580   2.719  10.139 -0.5392  1.5038 -0.3644
  584MOL0     C80473  11.692   2.734  10.063 -0.2777 -0.3737 -0.1021
  584MOL0     C80474  11.750   2.617   9.984  1.0249  0.8215 -0.5269
  584MOL0     C80475  11.888   2.567  10.036  0.0034 -0.3888 -0.4710
  584MOL0     C80476  11.996   2.676  10.044 -0.5225 -0.5185 -0.6370
  584MOL0     C80477  12.129   2.626  10.110  0.4820 -0.8437 -0.3942
  584MOL0     O80478  12.113   2.503  10.184 -1.1277  0.1028  0.1629
  584MOL0     C80479  12.219   2.424  10.198 -0.2357 -0.3550 -0.5835
  584MOL0     C80480  12.189   2.293  10.232  0.6269 -1.4017  0.0484
  584MOL0     C80481  12.286   2.205  10.261  1.1727 -0.1787 -0.2054
  584MOL0     C80482  12.231   2.063  10.280  0.4773 -0.0262 -0.2970
  584MOL0     C80483  12.420   2.246  10.274 -0.1421  0.0017 -0.1836
  584MOL0     C80484  12.536   2.168  10.335 -0.8296 -0.6536 -0.4749
  584MOL0     O80485  12.654   2.232  10.366 -0.3518  0.2163  0.7315
  584MOL0     C80486  12.742   2.171  10.451 -0.6405  0.2628  0.5597
  584MOL0     C80487  12.721   2.167  10.586  0.4389  0.3094 -1.6000
  584MOL0     C80488  12.824   2.126  10.674  0.3828  0.1275  0.0448
  584MOL0     C80489  12.951   2.086  10.630 -0.4511  0.2611  0.2643
  584MOL0     O80490  13.037   2.058  10.726  0.0471 -0.6651  0.5931
  584MOL0     C80491  13.168   2.024  10.679  0.1254  0.6195  0.0766
  584MOL0     C80492  13.239   1.962  10.797 -0.1586  0.5692 -0.2421
  584MOL0     C80493  13.394   1.936  10.757  1.1602  0.1811 -0.2299
  584MOL0     C80494  13.477   1.923  10.884 -0.1575 -0.3330 -0.0279
  584MOL0     C80495  13.424   1.824  10.992  0.9210 -0.7128 -0.2674
  584MOL0     C80496  13.533   1.798  11.103  0.7464 -0.1208 -0.6207
  584MOL0     C80497  13.486   1.695  11.203 -0.8406  1.1362 -0.3695
  584MOL0     C80498  13.597   1.660  11.305 -0.0577 -0.3383  0.1073
  584MOL0    Cl80499  13.523   1.561  11.435  0.3794  0.0678 -0.3425
  584MOL0     C80500  12.969   2.091  10.489  0.3092 -0.7666 -0.2461
  584MOL0     C80501  12.869   2.142  10.405 -0.0114 -0.2676 -0.2054
  584MOL0     O80502  12.502   2.061  10.381 -0.5498  0.5243 -0.3910
  584MOL0     C80503  12.452   2.382  10.256  0.5108  0.7054  0.2605
  584MOL0     C80504  12.351   2.471  10.219  0.3992  0.3298 -0.4987
  584MOL0     N80505  11.732   2.870  10.060 -0.2493  0.1195  0.3262
  584MOL0     N80506  11.640   2.930  10.134  0.6721  0.1916  0.0906
  584MOL0     C80507  10.580   3.215  10.267 -0.0478 -0.0494 -0.2071
  584MOL0     C80508  10.448   3.246  10.251 -0.4674 -0.3191  0.1416
  584MOL0     C80509  10.114   3.411  10.041 -0.0143  0.3573 -0.0103
  584MOL0     C80510  10.108   3.361   9.911  0.5419 -0.0109  0.3883
  584MOL0     C80511   9.987   3.325   9.852 -0.0277  0.2052  0.8790
  584MOL0     C80512   9.867   3.353   9.911  0.8672  0.2968 -0.8854
  584MOL0     O80513   9.750   3.332   9.843 -0.2711  1.1104  0.8451
  584MOL0     C80514   9.632   3.411   9.869 -0.1931  0.5386 -0.2293
  584MOL0     C80515   9.649   3.563   9.845  0.1540 -0.1152 -1.1693
  584MOL0     C80516   9.727   3.592   9.717 -0.3498 -0.3764  0.5145
  584MOL0     C80517   9.711   3.731   9.656 -0.3996  0.6286  0.6790
  584MOL0     C80518   9.744   3.735   9.513 -0.4201 -1.0312 -0.6085
  584MOL0     C80519   9.777   3.758   9.397  0.2126 -0.2475 -0.6316
  584MOL0     C80520   9.871   3.407  10.043 -0.7403 -0.3815  0.9145
  584MOL0     C80521   9.989   3.443  10.105  0.2011 -0.4369  0.2070
  584MOL0     C80522   9.990   3.542  10.215 -0.0215 -0.4192 -0.5426
  584MOL0     H80523  10.483   3.588  10.220  0.2085 -0.3985 -1.9457
  584MOL0     H80524  10.704   3.536  10.262 -4.9628  2.5678  0.7468
  584MOL0     H80525  10.873   3.449  10.386  0.5012  0.0790  0.5392
  584MOL0     H80526  10.940   3.430  10.215 -0.8002  0.2609 -0.1281
  584MOL0     H80527  11.104   3.403  10.388  2.7406 -3.0018  1.3615
  584MOL0     H80528  11.017   3.275  10.466 -1.0156  0.2867 -0.2256
  584MOL0     H80529  11.062   3.133  10.265  0.6947 -0.7091 -0.3368
  584MOL0     H80530  11.114   3.274  10.182 -3.3208 -1.7921  0.3276
  584MOL0     H80531  11.280   3.299  10.373 -2.5101 -0.2832  0.2121
  584MOL0     H80532  11.259   3.123  10.391  3.5295 -1.7875 -2.0087
  584MOL0     H80533  11.440   3.146  10.237 -1.1636 -4.5001 -0.5758
  584MOL0     H80534  11.330   3.234  10.126 -0.5063 -2.2781 -2.2294
  584MOL0     H80535  11.196   3.038  10.109  0.6385  2.1456 -3.1034
  584MOL0     H80536  11.355   3.016  10.056 -2.1765  1.1460 -1.3257
  584MOL0     H80537  11.294   2.816  10.179 -0.9053 -0.4202 -0.0011
  584MOL0     H80538  11.243   2.911  10.312 -0.4022 -1.3340  0.4258
  584MOL0     H80539  11.493   2.951  10.357  1.7102 -1.2059 -1.3294
  584MOL0     H80540  11.437   2.784  10.345  1.2968 -0.9689 -1.6176
  584MOL0     H80541  11.526   2.626  10.153 -0.9674  1.5865 -1.3505
  584MOL0     H80542  11.755   2.658   9.883 -0.6036 -2.3774 -2.0401
  584MOL0     H80543  11.683   2.531   9.988  1.1928  0.7268  0.5728
  584MOL0     H80544  11.877   2.522  10.135  1.1822 -0.5365 -0.3916
  584MOL0     H80545  11.935   2.492   9.971  1.3885 -0.3064  0.3814
  584MOL0     H80546  12.019   2.703   9.940 -0.6630  0.5192 -0.4043
  584MOL0     H80547  11.961   2.762  10.101  1.0818 -0.7331  0.7549
  584MOL0     H80548  12.202   2.622  10.029 -1.6848  1.5106 -2.6406
  584MOL0     H80549  12.172   2.708  10.168  0.3385  0.2010 -1.7401
  584MOL0     H80550  12.085   2.263  10.230 -0.1046  0.9244  0.2798
  584MOL0     H80551  12.299   1.988  10.238  0.3591 -0.5091  0.3543
  584MOL0     H80552  12.141   2.053  10.219  1.2877 -0.9003 -1.4067
  584MOL0     H80553  12.207   2.048  10.386 -2.7315  1.0638 -0.7889
  584MOL0     H80554  12.620   2.191  10.620  0.3756  0.0956 -1.6368
  584MOL0     H80555  12.794   2.121  10.779 -1.0601 -1.3832 -0.3825
  584MOL0     H80556  13.151   1.948  10.602 -4.0863  1.4834 -0.0991
  584MOL0     H80557  13.228   2.106  10.641 -0.0731 -0.1260 -2.0077
  584MOL0     H80558  13.226   2.019  10.890  0.1347 -0.4281  0.4243
  584MOL0     H80559  13.183   1.871  10.819  0.0600  1.2173  3.7236
  584MOL0     H80560  13.442   1.997  10.680 -1.6026  0.0760 -2.2012
  584MOL0     H80561  13.400   1.835  10.714 -0.6808  0.1026 -0.4124
  584MOL0     H80562  13.494   2.026  10.915  0.4390 -0.3086 -0.4167
  584MOL0     H80563  13.573   1.884  10.849 -0.3655 -0.1750 -0.7999
  584MOL0     H80564  13.333   1.860  11.040  3.1138  0.4280  3.4456
  584MOL0     H80565  13.389   1.728  10.951  0.4395 -0.1191 -1.2961
  584MOL0     H80566  13.555   1.891  11.156  1.5160 -0.6537  0.0342
  584MOL0     H80567  13.618   1.755  11.049  0.6729 -3.3684  1.5252
  584MOL0     H80568  13.458   1.605  11.148  2.9225  0.9517 -2.2420
  584MOL0     H80569  13.395   1.730  11.253 -0.7233 -1.9652  2.2923
  584MOL0     H80570  13.628   1.755  11.351 -1.2186 -0.7060  1.7167
  584MOL0     H80571  13.681   1.613  11.253 -0.8374 -1.4522 -0.1720
  584MOL0     H80572  13.064   2.079  10.437  0.1031  3.1751 -1.9217
  584MOL0     H80573  12.908   2.165  10.307  3.2592 -1.2872  0.6942
  584MOL0     H80574  12.548   2.428  10.275 -0.1604  1.6321  1.6025
  584MOL0     H80575  12.373   2.577  10.215  0.7564  0.2903  0.2390
  584MOL0     H80576  10.603   3.109  10.276  3.1621  0.5511 -0.2613
  584MOL0     H80577  10.380   3.162  10.239 -2.3137  0.9307  1.3745
  584MOL0     H80578  10.202   3.338   9.862  0.1371 -2.4965  0.6090
  584MOL0     H80579   9.996   3.291   9.749 -0.1953  1.5335  0.4078
  584MOL0     H80580   9.553   3.376   9.801 -0.3806  0.8796 -0.1875
  584MOL0     H80581   9.603   3.401   9.974  1.8208 -1.6310  0.2128
  584MOL0     H80582   9.701   3.606   9.931 -2.3542 -0.0023  0.4174
  584MOL0     H80583   9.555   3.618   9.839 -0.2539 -0.9456 -3.5192
  584MOL0     H80584   9.835   3.583   9.731 -0.1417  2.6137  1.6755
  584MOL0     H80585   9.704   3.518   9.639 -1.6250 -0.6992  1.1730
  584MOL0     H80586   9.770   3.808   9.707  0.7657  0.3196 -0.1627
  584MOL0     H80587   9.606   3.759   9.668  0.0262  1.8496  1.7867
  584MOL0     H80588   9.809   3.774   9.296 -1.3429 -0.0604 -1.1100
  584MOL0     H80589   9.782   3.427  10.102 -0.1425  2.8105  0.8904
  584MOL0     H80590  10.081   3.539  10.277 -0.0432  0.6587 -0.4360
  584MOL0     H80591  10.000   3.644  10.176 -1.7408 -0.1343 -0.2917
  584MOL0     H80592   9.896   3.531  10.270 -1.1184 -0.7390 -2.3979
  585MOL0     O80593  10.264  11.231   4.583  0.5063  0.4184 -0.1995
  585MOL0     C80594  10.233  11.125   4.633 -0.0230 -0.3283 -0.9262
  585MOL0     O80595  10.325  11.043   4.683  0.5287 -0.1230  0.3549
  585MOL0     C80596  10.461  11.058   4.684  0.1593  0.3278 -0.3631
  585MOL0     C80597  10.534  11.140   4.600 -0.1768 -0.1595 -0.2789
  585MOL0     C80598  10.669  11.139   4.592  0.2359  1.1343  0.9722
  585MOL0     C80599  10.743  11.064   4.680  0.4716 -0.0322 -0.5979
  585MOL0     O80600  10.883  11.073   4.669  0.4708  0.0649 -0.3220
  585MOL0     C80601  10.960  11.001   4.765  0.2499  0.2462 -0.4907
  585MOL0     C80602  11.094  10.971   4.699 -0.3669 -0.7078  0.4776
  585MOL0     C80603  11.166  11.097   4.655 -0.7867 -0.2849  0.5177
  585MOL0     C80604  11.296  11.062   4.579  0.2907  0.4790 -0.5226
  585MOL0     C80605  11.345  11.191   4.507 -0.2328  0.2950  0.8202
  585MOL0     C80606  11.466  11.154   4.405  0.3225  0.3396 -0.5865
  585MOL0     C80607  11.499  11.263   4.304  0.4442 -0.0934  0.5243
  585MOL0     C80608  11.572  11.375   4.369 -0.2001  0.1562 -0.1190
  585MOL0     N80609  11.708  11.368   4.326 -0.1254  0.8013 -0.9120
  585MOL0     C80610  11.774  11.457   4.251 -0.3304 -0.3022 -0.5942
  585MOL0     C80611  11.897  11.406   4.233 -0.0777  0.0577 -0.3287
  585MOL0     C80612  12.005  11.486   4.173  0.2413  1.1180 -0.7111
  585MOL0     C80613  12.020  11.623   4.244  0.4367 -0.5539  0.5126
  585MOL0     C80614  12.117  11.704   4.169 -0.4614 -1.0113  0.8497
  585MOL0     C80615  12.109  11.849   4.204 -0.8414  0.0697 -0.3348
  585MOL0     O80616  12.206  11.924   4.123  0.2178 -0.3097  0.0218
  585MOL0     C80617  12.324  11.944   4.185  0.6184  0.1138  0.7536
  585MOL0     C80618  12.419  12.006   4.105 -0.2413  0.5407  0.3757
  585MOL0     C80619  12.545  12.038   4.155  0.3458 -1.1701 -0.5607
  585MOL0     C80620  12.641  12.097   4.054 -0.0809  0.3889 -1.4173
  585MOL0     C80621  12.581  12.018   4.289  0.0462 -0.7774 -0.5780
  585MOL0     C80622  12.713  12.060   4.345 -0.2204  0.1206 -0.0144
  585MOL0     O80623  12.797  11.962   4.391 -0.8957 -0.2742  0.2771
  585MOL0     C80624  12.922  12.001   4.415 -1.0493 -0.4845 -0.0395
  585MOL0     C80625  13.014  12.062   4.324 -0.4342 -0.9635  0.0425
  585MOL0     C80626  13.143  12.061   4.352 -0.0958  0.6871 -0.0201
  585MOL0     C80627  13.200  12.012   4.468 -0.0326 -0.1096  0.0805
  585MOL0     O80628  13.335  11.992   4.476 -0.7824  0.0061  0.1659
  585MOL0     C80629  13.399  12.009   4.604  0.1652 -0.0706  1.0024
  585MOL0     C80630  13.557  11.989   4.588  0.0702 -0.4214  0.4190
  585MOL0     C80631  13.593  11.849   4.538 -0.5283 -0.1237  0.4733
  585MOL0     C80632  13.740  11.828   4.534 -0.2186  0.1263  0.4738
  585MOL0     C80633  13.782  11.707   4.438  0.6329  0.1239 -0.4896
  585MOL0     C80634  13.729  11.578   4.494  0.2303  0.5166 -0.5487
  585MOL0     C80635  13.728  11.468   4.383 -0.4343 -0.1811 -1.2297
  585MOL0     C80636  13.655  11.347   4.440 -0.5828 -0.3841  0.8084
  585MOL0    Cl80637  13.768  11.264   4.571 -0.1910  0.1598  0.8708
  585MOL0     C80638  13.116  11.957   4.562 -0.4825 -0.9408 -0.5779
  585MOL0     C80639  12.977  11.959   4.537 -0.2351  0.9781  0.4412
  585MOL0     O80640  12.730  12.186   4.357  0.0896  0.0911 -0.3287
  585MOL0     C80641  12.485  11.948   4.367 -0.1627  0.2254 -0.3260
  585MOL0     C80642  12.363  11.909   4.311 -0.0066  0.1919  0.0457
  585MOL0     N80643  11.902  11.276   4.293 -0.3078 -0.0612  0.4258
  585MOL0     N80644  11.790  11.263   4.359 -0.5068  0.4239 -0.2882
  585MOL0     C80645  10.668  10.981   4.772 -0.5120 -0.1899 -0.4505
  585MOL0     C80646  10.534  10.978   4.769 -0.0816  1.1282  0.3087
  585MOL0     C80647  10.090  11.094   4.654  0.8046 -0.3731  0.2418
  585MOL0     C80648  10.054  10.969   4.706  0.5829 -0.2254 -0.3857
  585MOL0     C80649   9.919  10.931   4.728  0.4718  0.2242 -0.5055
  585MOL0     C80650   9.811  11.014   4.690  0.2865  0.9159  0.8263
  585MOL0     O80651   9.674  10.973   4.705  0.4515  0.4790 -0.6442
  585MOL0     C80652   9.642  10.858   4.787  0.1841 -0.1957  0.7885
  585MOL0     C80653   9.498  10.867   4.833  0.2171  0.8090 -0.0671
  585MOL0     C80654   9.463  10.745   4.919 -0.9114  0.3327  0.5949
  585MOL0     C80655   9.317  10.737   4.976 -0.5248 -0.3080  0.3830
  585MOL0     C80656   9.211  10.729   4.875 -0.7887  0.2210 -0.4110
  585MOL0     C80657   9.107  10.725   4.808 -0.7205 -0.8447 -0.4836
  585MOL0     C80658   9.851  11.135   4.630 -0.6133  0.0312 -0.5793
  585MOL0     C80659   9.987  11.183   4.617  0.1482  0.0997 -0.1476
  585MOL0     C80660   9.987  11.323   4.559 -0.1237  0.0005 -0.1422
  585MOL0     H80661  10.488  11.204   4.526 -0.2064  0.8350  0.5811
  585MOL0     H80662  10.716  11.214   4.529 -3.0685  1.0431 -1.9193
  585MOL0     H80663  10.917  10.904   4.795 -0.0042  0.5018 -0.0206
  585MOL0     H80664  10.967  11.055   4.860 -1.7588 -3.8203  2.2802
  585MOL0     H80665  11.161  10.909   4.760  1.1422 -0.4177 -0.8163
  585MOL0     H80666  11.062  10.905   4.617 -1.5159  1.5205 -0.9622
  585MOL0     H80667  11.094  11.158   4.600 -2.4475 -0.5674  2.2888
  585MOL0     H80668  11.192  11.153   4.745  0.5012 -2.5889  1.6498
  585MOL0     H80669  11.368  11.024   4.652 -0.6192  0.1629  0.2366
  585MOL0     H80670  11.277  10.983   4.506 -0.0642 -1.9590  2.0572
  585MOL0     H80671  11.379  11.262   4.583  1.3787  1.5906 -1.0213
  585MOL0     H80672  11.264  11.230   4.444  0.1997 -2.2113 -1.4591
  585MOL0     H80673  11.552  11.119   4.462  1.8479  1.6537 -1.9832
  585MOL0     H80674  11.438  11.065   4.348  3.7689 -0.2389 -1.5655
  585MOL0     H80675  11.415  11.307   4.250 -0.0807 -2.3897 -0.6184
  585MOL0     H80676  11.559  11.219   4.224 -1.3734  1.8342 -2.0718
  585MOL0     H80677  11.534  11.473   4.336  0.6074  1.4624  2.4929
  585MOL0     H80678  11.548  11.380   4.476  2.6488  1.0164  0.5685
  585MOL0     H80679  11.734  11.553   4.219 -2.4477 -0.7085  0.6735
  585MOL0     H80680  11.990  11.511   4.067  0.7249  3.4169 -0.3002
  585MOL0     H80681  12.094  11.422   4.177  0.6860  1.4071 -3.4234
  585MOL0     H80682  11.922  11.672   4.243  0.9402  0.6969 -3.6307
  585MOL0     H80683  12.058  11.609   4.346  1.2133  0.0757  0.3148
  585MOL0     H80684  12.215  11.663   4.193  0.1017 -0.5746 -0.6113
  585MOL0     H80685  12.104  11.692   4.061 -2.0300 -2.4137  1.1574
  585MOL0     H80686  12.010  11.879   4.165 -1.0327 -1.5782 -1.2039
  585MOL0     H80687  12.103  11.867   4.311 -1.3101 -0.8723 -0.1901
  585MOL0     H80688  12.387  12.035   4.005 -0.0918 -0.2773  0.0859
  585MOL0     H80689  12.654  12.026   3.972  2.0876 -1.9777  0.7781
  585MOL0     H80690  12.737  12.115   4.103 -0.8576  1.4498 -0.2185
  585MOL0     H80691  12.596  12.190   4.017 -1.1662  1.2270  1.6884
  585MOL0     H80692  12.958  12.097   4.238 -2.0100  1.1636  1.7879
  585MOL0     H80693  13.206  12.100   4.273 -2.8658  2.7897 -1.3458
  585MOL0     H80694  13.381  12.104   4.655  1.6586 -1.1663  3.7484
  585MOL0     H80695  13.362  11.932   4.671  1.5579 -3.6851 -2.0336
  585MOL0     H80696  13.590  12.061   4.512  1.9457 -2.1722 -0.5005
  585MOL0     H80697  13.611  12.011   4.680  1.3480  0.1134 -0.4301
  585MOL0     H80698  13.557  11.836   4.436  0.1925  2.5772 -0.2023
  585MOL0     H80699  13.563  11.774   4.612 -0.1910 -0.8380 -0.1031
  585MOL0     H80700  13.797  11.825   4.628  1.1649 -0.0994 -0.3350
  585MOL0     H80701  13.774  11.913   4.474 -0.8303 -0.0322 -0.1090
  585MOL0     H80702  13.738  11.729   4.341  0.9444  2.0289 -0.2438
  585MOL0     H80703  13.891  11.694   4.437  0.6171 -0.0702 -0.0880
  585MOL0     H80704  13.633  11.583   4.546  0.5448 -0.4283  0.1440
  585MOL0     H80705  13.803  11.556   4.571 -2.3052  0.8968  2.1745
  585MOL0     H80706  13.832  11.443   4.360 -0.4952  0.2362 -2.0012
  585MOL0     H80707  13.687  11.514   4.292 -1.7936  2.1672  0.4629
  585MOL0     H80708  13.633  11.277   4.359  0.0115  1.6719 -1.2317
  585MOL0     H80709  13.553  11.367   4.474 -0.1849  0.7395  1.4001
  585MOL0     H80710  13.150  11.908   4.652  0.6662  1.7302  0.5561
  585MOL0     H80711  12.911  11.913   4.610  1.4904 -0.0598  1.4068
  585MOL0     H80712  12.505  11.918   4.470 -1.3594 -2.5293 -0.8149
  585MOL0     H80713  12.301  11.848   4.376  1.3419 -0.1596  1.0352
  585MOL0     H80714  10.708  10.920   4.852  1.7090 -0.1024 -1.3986
  585MOL0     H80715  10.476  10.901   4.819  1.9024 -2.4770 -2.4278
  585MOL0     H80716  10.135  10.901   4.731  0.6291 -0.3278 -0.8129
  585MOL0     H80717   9.878  10.834   4.755 -1.0458  0.6275 -1.3101
  585MOL0     H80718   9.656  10.768   4.727  2.7034 -0.7220  2.0596
  585MOL0     H80719   9.698  10.852   4.881 -2.3655 -1.3295  2.3660
  585MOL0     H80720   9.433  10.882   4.746 -1.6721  0.5103  1.2343
  585MOL0     H80721   9.476  10.961   4.885  2.2537  1.3554 -0.1111
  585MOL0     H80722   9.481  10.658   4.855  1.4355  1.8831 -1.0214
  585MOL0     H80723   9.529  10.725   5.004  0.3205  0.9315 -0.1983
  585MOL0     H80724   9.300  10.821   5.043 -0.0121 -0.1486  0.3201
  585MOL0     H80725   9.298  10.645   5.033  0.1848 -1.4003 -1.0760
  585MOL0     H80726   9.026  10.744   4.741  1.1079  0.7049 -2.3779
  585MOL0     H80727   9.767  11.200   4.609 -2.7904 -1.7113  2.1646
  585MOL0     H80728   9.893  11.379   4.560 -1.0619 -1.5181  0.3054
  585MOL0     H80729  10.051  11.385   4.623 -1.7000 -1.7570  3.4138
  585MOL0     H80730  10.024  11.316   4.456 -0.4978  1.8970 -0.4444
  586MOL0     O80731   0.681   5.700   6.909  0.1544 -0.3045 -0.2703
  586MOL0     C80732   0.649   5.614   6.990 -0.7620  0.1088  0.5577
  586MOL0     O80733   0.727   5.510   7.022 -0.1248 -0.2299  0.0904
  586MOL0     C80734   0.858   5.512   6.974  0.0943 -0.3717 -0.2410
  586MOL0     C80735   0.961   5.505   7.067  0.8593  0.2894  0.1138
  586MOL0     C80736   1.090   5.508   7.030  0.3714 -0.4070  0.5477
  586MOL0     C80737   1.134   5.503   6.899 -0.0895 -0.5694 -0.8770
  586MOL0     O80738   1.272   5.511   6.878 -0.3611  0.1677  0.3953
  586MOL0     C80739   1.312   5.500   6.742 -0.1717 -0.0710  0.4067
  586MOL0     C80740   1.465   5.479   6.733 -0.5409  0.2330  0.0561
  586MOL0     C80741   1.518   5.359   6.813  0.0368 -0.4878  0.5724
  586MOL0     C80742   1.659   5.334   6.761  0.1206  0.2478  0.0827
  586MOL0     C80743   1.739   5.255   6.865 -0.0324  0.0072 -0.7691
  586MOL0     C80744   1.692   5.109   6.879 -0.3920  1.4738  0.4998
  586MOL0     C80745   1.784   5.055   6.989 -0.2891  0.3014  0.6017
  586MOL0     C80746   1.779   4.907   7.021  0.3128 -0.3233 -0.2568
  586MOL0     N80747   1.635   4.867   7.015 -0.4190  0.7721  0.2237
  586MOL0     C80748   1.574   4.832   6.898  0.2978 -0.4718 -0.0476
  586MOL0     C80749   1.446   4.803   6.937  0.1050 -0.2687 -1.1268
  586MOL0     C80750   1.331   4.764   6.851 -0.8353 -0.9962 -1.1014
  586MOL0     C80751   1.346   4.801   6.711  0.2293  0.0078  0.4231
  586MOL0     C80752   1.326   4.955   6.685  1.0854  0.5621 -0.9628
  586MOL0     C80753   1.303   4.988   6.536 -0.7854  0.0702  0.3673
  586MOL0     O80754   1.398   4.943   6.440 -0.5405  0.1258 -0.3107
  586MOL0     C80755   1.511   5.023   6.417  0.4901 -0.0177  0.1926
  586MOL0     C80756   1.504   5.125   6.322  0.5364  0.1911 -1.0220
  586MOL0     C80757   1.612   5.207   6.282 -0.8097  0.0246 -0.4364
  586MOL0     C80758   1.594   5.321   6.179  0.2245  0.4621 -0.5478
  586MOL0     C80759   1.735   5.189   6.354 -0.1573 -0.0390  0.8487
  586MOL0     C80760   1.862   5.266   6.334 -0.7528  0.6788 -0.3359
  586MOL0     O80761   1.876   5.351   6.227  0.6701  0.3390 -0.0309
  586MOL0     C80762   1.991   5.403   6.194 -0.3521  0.5629  0.0944
  586MOL0     C80763   2.103   5.334   6.149 -0.3802  1.0448 -0.2583
  586MOL0     C80764   2.225   5.403   6.127 -0.1441  0.3676  0.3951
  586MOL0     C80765   2.239   5.542   6.134 -0.0950 -0.6122 -0.9849
  586MOL0     O80766   2.363   5.597   6.123  0.0749 -0.4180  0.6537
  586MOL0     C80767   2.393   5.736   6.119 -0.5876 -0.0302  0.4323
  586MOL0     C80768   2.539   5.758   6.104  0.2968  0.1326 -0.7248
  586MOL0     C80769   2.548   5.880   6.015 -0.6212  0.2658 -0.2403
  586MOL0     C80770   2.693   5.914   6.000  0.8458 -0.1933  0.4073
  586MOL0     C80771   2.701   6.067   5.970 -0.6911 -0.8310  0.7030
  586MOL0     C80772   2.650   6.110   5.840  1.3162  0.3710  0.4162
  586MOL0     C80773   2.749   6.071   5.734  0.2203 -0.1375 -0.2111
  586MOL0     C80774   2.687   6.050   5.583  0.7801  0.5264 -0.3775
  586MOL0    Cl80775   2.819   6.035   5.470  0.2954  0.7554  0.4002
  586MOL0     C80776   2.124   5.614   6.157  0.9835 -0.1689 -0.3291
  586MOL0     C80777   2.003   5.545   6.194  0.4811 -0.1592  0.3476
  586MOL0     O80778   1.941   5.254   6.429  0.5716  0.4386 -0.3878
  586MOL0     C80779   1.743   5.085   6.452 -0.5251 -0.5031  0.6035
  586MOL0     C80780   1.636   5.000   6.481 -1.2569 -0.3888 -0.5951
  586MOL0     N80781   1.435   4.823   7.079  0.6745  0.5988  0.0991
  586MOL0     N80782   1.548   4.855   7.122  0.6567  0.2058  0.5638
  586MOL0     C80783   1.035   5.505   6.793 -0.1506 -0.5828  1.2464
  586MOL0     C80784   0.895   5.500   6.830  0.6364 -0.5442 -0.9437
  586MOL0     C80785   0.514   5.619   7.039 -0.1506 -0.5889 -0.1106
  586MOL0     C80786   0.408   5.658   6.958  0.4925  0.9003  0.5664
  586MOL0     C80787   0.276   5.658   7.005  0.5854 -0.2514 -0.8583
  586MOL0     C80788   0.246   5.637   7.146  0.5841  0.0261  0.2765
  586MOL0     O80789   0.122   5.647   7.200  0.2221 -0.5227 -0.3832
  586MOL0     C80790   0.060   5.773   7.180  0.4193 -0.9768 -0.6635
  586MOL0     C80791   0.094   5.864   7.302 -0.3030 -0.3242 -0.1572
  586MOL0     C80792   0.058   6.015   7.282 -0.1308  0.4435  0.0160
  586MOL0     C80793   0.139   6.105   7.385 -0.0113 -0.0307  0.4520
  586MOL0     C80794   0.102   6.077   7.526  0.5685 -0.7624 -0.0355
  586MOL0     C80795   0.058   6.076   7.639 -0.7651  0.7748  1.2660
  586MOL0     C80796   0.356   5.610   7.231  0.6555  0.7743 -0.3485
  586MOL0     C80797   0.484   5.599   7.180 -0.5147  0.9132  0.5279
  586MOL0     C80798   0.590   5.557   7.274 -0.2902 -0.2350 -0.0002
  586MOL0     H80799   0.943   5.499   7.174 -0.6397  0.2305 -0.1253
  586MOL0     H80800   1.167   5.517   7.105  0.4453  2.6407  0.2171
  586MOL0     H80801   1.274   5.591   6.695 -1.9657  0.5629  2.8864
  586MOL0     H80802   1.273   5.411   6.691  1.3720 -1.4228  1.4860
  586MOL0     H80803   1.484   5.464   6.626 -0.3495  0.9266 -0.0128
  586MOL0     H80804   1.519   5.572   6.755  0.3099 -0.7921  2.5797
  586MOL0     H80805   1.532   5.378   6.919  2.8813 -1.2177  0.4068
  586MOL0     H80806   1.462   5.269   6.789  0.6741 -1.3669  2.2452
  586MOL0     H80807   1.668   5.284   6.664 -2.5690 -2.1679  0.9315
  586MOL0     H80808   1.708   5.431   6.753  1.0874 -0.0080  2.3290
  586MOL0     H80809   1.739   5.303   6.963 -0.6471  1.7118 -1.5733
  586MOL0     H80810   1.839   5.248   6.822  0.5357  0.3416  0.4772
  586MOL0     H80811   1.588   5.102   6.912 -1.0039  1.9915 -1.2152
  586MOL0     H80812   1.692   5.046   6.789 -0.4577 -0.7954  2.0037
  586MOL0     H80813   1.752   5.108   7.080 -1.1283  0.6404  0.1151
  586MOL0     H80814   1.890   5.079   6.976 -0.5033  3.5928  3.3465
  586MOL0     H80815   1.844   4.848   6.956  2.2137 -1.1666  2.2799
  586MOL0     H80816   1.823   4.890   7.119  0.3394 -2.2487 -0.5702
  586MOL0     H80817   1.603   4.817   6.794 -2.0175 -0.3149 -0.7838
  586MOL0     H80818   1.239   4.809   6.889 -1.6593 -0.6765 -3.3196
  586MOL0     H80819   1.324   4.655   6.854  1.4804 -1.2615 -2.5401
  586MOL0     H80820   1.437   4.766   6.662 -1.4832 -0.8953 -2.3376
  586MOL0     H80821   1.269   4.738   6.666  1.4199  0.0779 -1.8449
  586MOL0     H80822   1.239   4.991   6.740  1.1943  3.0036 -2.2632
  586MOL0     H80823   1.415   5.009   6.719  0.9570 -0.4637  1.1686
  586MOL0     H80824   1.207   4.939   6.517  0.0593 -0.5241 -3.0956
  586MOL0     H80825   1.294   5.097   6.537  1.7399  0.3596  2.3604
  586MOL0     H80826   1.407   5.140   6.277  0.9985  0.4250 -1.9481
  586MOL0     H80827   1.667   5.327   6.098  0.4483  1.2871 -0.3030
  586MOL0     H80828   1.605   5.421   6.223  3.2495  0.7707 -1.7632
  586MOL0     H80829   1.493   5.314   6.137 -0.8830  0.0027  1.9600
  586MOL0     H80830   2.103   5.228   6.127  1.9730  0.4174  2.2418
  586MOL0     H80831   2.312   5.345   6.097 -1.4980  0.2878 -4.2496
  586MOL0     H80832   2.332   5.784   6.042 -0.9443 -0.0229  0.7165
  586MOL0     H80833   2.353   5.785   6.208 -0.7306  3.0158 -1.1708
  586MOL0     H80834   2.586   5.777   6.201 -0.8666 -3.4951  0.7282
  586MOL0     H80835   2.583   5.667   6.064 -0.6661 -0.8311  0.3431
  586MOL0     H80836   2.498   5.967   6.059  0.9906  0.3496  1.5133
  586MOL0     H80837   2.499   5.862   5.918  0.9813 -2.6933 -0.6209
  586MOL0     H80838   2.738   5.857   5.919 -0.9772 -0.5158 -0.4104
  586MOL0     H80839   2.747   5.897   6.094 -0.2712 -2.3991  0.7086
  586MOL0     H80840   2.653   6.115   6.056 -0.5928  0.2135  0.1919
  586MOL0     H80841   2.804   6.102   5.978 -1.0332  0.1994  0.7624
  586MOL0     H80842   2.625   6.216   5.836  2.4180  0.6338 -2.9668
  586MOL0     H80843   2.557   6.054   5.822  1.4730  0.2928 -0.1832
  586MOL0     H80844   2.808   5.982   5.756 -1.4469 -1.3766 -0.4944
  586MOL0     H80845   2.818   6.156   5.727  0.5549 -0.4179 -0.3390
  586MOL0     H80846   2.628   6.140   5.562 -0.9327  0.4249  3.1370
  586MOL0     H80847   2.623   5.961   5.580  3.1015 -1.2406 -0.2913
  586MOL0     H80848   2.115   5.723   6.152 -1.2731 -0.2731  0.1915
  586MOL0     H80849   1.907   5.589   6.216 -0.2561 -1.6033  0.1086
  586MOL0     H80850   1.837   5.075   6.507  0.3009  0.6177 -0.5533
  586MOL0     H80851   1.647   4.918   6.552 -2.5261 -1.3885 -1.4960
  586MOL0     H80852   1.063   5.525   6.690 -0.6957 -0.8205  1.0428
  586MOL0     H80853   0.817   5.500   6.754 -1.1515 -1.5127  0.8077
  586MOL0     H80854   0.429   5.684   6.854  2.3690  0.6184  0.8426
  586MOL0     H80855   0.201   5.677   6.928  0.5946  2.2281 -0.3362
  586MOL0     H80856   0.099   5.825   7.092  3.4779  1.2593  1.7928
  586MOL0     H80857  -0.049   5.767   7.181  0.3960 -0.6878  0.8472
  586MOL0     H80858   0.200   5.857   7.327 -0.6533 -0.6800  1.3294
  586MOL0     H80859   0.049   5.839   7.398  0.0950  2.3470  0.8077
  586MOL0     H80860   0.083   6.048   7.181  0.9208  3.0663  1.0733
  586MOL0     H80861  -0.051   6.027   7.294 -0.0090  2.8176 -0.8463
  586MOL0     H80862   0.097   6.204   7.366  4.9116  1.9689 -1.5646
  586MOL0     H80863   0.247   6.102   7.368 -0.0910  0.3581 -0.1480
  586MOL0     H80864   0.046   6.091   7.744  2.8889  0.3117  1.8812
  586MOL0     H80865   0.347   5.585   7.336  0.1554 -0.0378 -0.5755
  586MOL0     H80866   0.559   5.546   7.378 -0.9292  1.9434  0.0891
  586MOL0     H80867   0.651   5.474   7.235  3.2234  1.9307  0.4326
  586MOL0     H80868   0.657   5.643   7.274  0.6046 -0.8858 -1.2835
  587MOL0     O80869   4.625   0.517   6.008  0.5047 -0.3557 -0.0895
  587MOL0     C80870   4.615   0.554   5.886  0.5021 -0.1086 -0.0853
  587MOL0     O80871   4.714   0.596   5.805 -0.3071  0.8281  0.9323
  587MOL0     C80872   4.853   0.604   5.838  0.3293  0.3350  0.8270
  587MOL0     C80873   4.937   0.591   5.729 -0.2848  0.3860  0.3196
  587MOL0     C80874   5.074   0.576   5.751 -0.4335 -0.6994  0.3685
  587MOL0     C80875   5.128   0.582   5.880 -0.2373  0.4052  0.5268
  587MOL0     O80876   5.263   0.564   5.878 -0.4853 -1.2034  0.3739
  587MOL0     C80877   5.342   0.548   5.994  0.3382 -0.2366  0.9232
  587MOL0     C80878   5.393   0.688   6.041 -0.1199  0.4365  0.2090
  587MOL0     C80879   5.490   0.756   5.942  0.0138  0.5521 -0.2368
  587MOL0     C80880   5.587   0.841   6.023 -0.0321 -0.0801  0.4732
  587MOL0     C80881   5.704   0.913   5.944 -0.3964  0.3470 -1.0452
  587MOL0     C80882   5.777   1.005   6.039 -1.1647 -1.1974  0.2387
  587MOL0     C80883   5.881   1.095   5.965  0.6985 -0.0765 -0.0974
  587MOL0     C80884   5.950   1.190   6.057  0.6694 -0.2477 -0.3811
  587MOL0     N80885   6.063   1.263   5.991 -0.0097  0.0254 -0.4363
  587MOL0     C80886   6.108   1.263   5.856  0.5012  0.8006 -0.5197
  587MOL0     C80887   6.207   1.349   5.857  0.2457  0.6190 -0.1664
  587MOL0     C80888   6.297   1.372   5.740  0.0284  0.4679  0.1111
  587MOL0     C80889   6.442   1.340   5.753  0.2207  0.9763  0.1879
  587MOL0     C80890   6.500   1.403   5.882 -0.1111  0.1882 -0.4068
  587MOL0     C80891   6.657   1.393   5.894 -0.4476 -0.4521 -0.7642
  587MOL0     O80892   6.718   1.475   5.795  0.2604  0.6424 -0.2451
  587MOL0     C80893   6.850   1.508   5.813  0.2838  0.1621 -0.0505
  587MOL0     C80894   6.932   1.478   5.924 -0.2146  0.1371 -0.7165
  587MOL0     C80895   7.067   1.527   5.940 -1.1337 -0.0945  0.7476
  587MOL0     C80896   7.145   1.480   6.062 -0.0123  0.2269  0.0156
  587MOL0     C80897   7.123   1.584   5.823 -0.0380 -0.6309 -0.3447
  587MOL0     C80898   7.260   1.635   5.810 -0.7570 -0.4129  0.2985
  587MOL0     O80899   7.316   1.649   5.683  0.2402  0.5050 -1.0686
  587MOL0     C80900   7.431   1.721   5.668  0.0197  0.7924 -0.1221
  587MOL0     C80901   7.456   1.844   5.736  0.7261  0.2544  0.0741
  587MOL0     C80902   7.573   1.918   5.710  0.6410  0.5198  0.4512
  587MOL0     C80903   7.660   1.873   5.606 -0.6261  1.3589  0.2824
  587MOL0     O80904   7.772   1.944   5.567 -0.5127 -0.0951 -0.0674
  587MOL0     C80905   7.828   1.922   5.438  0.0279 -0.2168 -0.0570
  587MOL0     C80906   7.958   2.013   5.428 -0.2422 -0.4443  0.2391
  587MOL0     C80907   8.065   1.958   5.330 -0.1224 -0.4949 -0.1058
  587MOL0     C80908   8.193   2.043   5.344 -0.4054  0.1366  0.2861
  587MOL0     C80909   8.330   1.994   5.295 -0.6975 -0.3584 -1.0118
  587MOL0     C80910   8.371   2.040   5.159  0.0404 -0.6868 -0.0329
  587MOL0     C80911   8.516   2.015   5.124  0.1058  0.2979  0.5337
  587MOL0     C80912   8.545   1.866   5.125  0.0986  0.4965 -0.2206
  587MOL0    Cl80913   8.707   1.846   5.046 -0.0227  0.1242  0.5921
  587MOL0     C80914   7.629   1.749   5.544 -0.1631 -0.8188 -0.7414
  587MOL0     C80915   7.518   1.672   5.573 -0.3591 -0.0247  0.3688
  587MOL0     O80916   7.313   1.676   5.913 -0.6781 -0.1270 -0.1599
  587MOL0     C80917   7.047   1.597   5.708 -0.0239  0.3364 -0.7323
  587MOL0     C80918   6.917   1.563   5.706  0.1679 -0.9037  1.3668
  587MOL0     N80919   6.219   1.415   5.984  0.1782  0.5030  0.1892
  587MOL0     N80920   6.126   1.361   6.061  0.4975 -0.3283  1.4928
  587MOL0     C80921   5.051   0.597   5.990  1.3989 -0.7095  0.9215
  587MOL0     C80922   4.907   0.612   5.970 -0.0176  0.4143  0.2459
  587MOL0     C80923   4.487   0.526   5.814 -0.5059 -0.2373  0.4307
  587MOL0     C80924   4.489   0.485   5.678  0.2443 -0.2360 -0.1310
  587MOL0     C80925   4.369   0.459   5.609  0.3030  0.6031  0.5637
  587MOL0     C80926   4.244   0.488   5.672 -0.3891  0.5727 -0.0770
  587MOL0     O80927   4.132   0.454   5.600 -0.0847 -1.1041  0.0919
  587MOL0     C80928   4.007   0.430   5.670 -0.0132 -0.1135  0.2419
  587MOL0     C80929   4.012   0.320   5.781  0.1024 -0.5258 -0.1422
  587MOL0     C80930   4.090   0.205   5.738  0.1022  0.0153 -0.2834
  587MOL0     C80931   4.111   0.099   5.855 -0.4149 -0.1392 -0.2407
  587MOL0     C80932   4.193  -0.013   5.801 -0.0397 -0.5946  0.0539
  587MOL0     C80933   4.266  -0.103   5.761  0.3928 -0.0723 -0.9058
  587MOL0     C80934   4.244   0.546   5.803 -0.1768 -0.4846  0.4277
  587MOL0     C80935   4.364   0.558   5.874  0.3939  0.8395 -0.0538
  587MOL0     C80936   4.358   0.616   6.016 -0.7501 -0.4075  0.6166
  587MOL0     H80937   4.902   0.592   5.627  0.5810  1.5056  0.0178
  587MOL0     H80938   5.140   0.549   5.669 -1.6426 -3.3349  0.1636
  587MOL0     H80939   5.426   0.494   5.948 -2.2225 -1.0888 -3.3323
  587MOL0     H80940   5.291   0.488   6.070 -1.9392 -2.2813 -1.9810
  587MOL0     H80941   5.304   0.746   6.067  0.4088  1.6008 -0.5209
  587MOL0     H80942   5.452   0.683   6.133  0.6127  2.7932 -0.0774
  587MOL0     H80943   5.549   0.686   5.882 -3.6603 -2.1410 -1.0753
  587MOL0     H80944   5.432   0.822   5.877 -0.2993  0.3895 -0.1251
  587MOL0     H80945   5.531   0.922   6.072 -0.8774  0.6201 -1.5612
  587MOL0     H80946   5.634   0.772   6.093  4.9861  0.8886 -1.5550
  587MOL0     H80947   5.665   0.975   5.863 -2.4319  0.1335 -0.2836
  587MOL0     H80948   5.766   0.832   5.906  1.2754  0.7870  0.6042
  587MOL0     H80949   5.700   1.071   6.081 -1.9512  0.3090 -3.2116
  587MOL0     H80950   5.822   0.953   6.124 -0.5221  0.2094  0.7735
  587MOL0     H80951   5.834   1.147   5.881 -0.9661  2.1293  2.0741
  587MOL0     H80952   5.956   1.028   5.922  0.6505 -0.6978  0.7554
  587MOL0     H80953   5.880   1.270   6.079  0.7143  0.2238 -1.8126
  587MOL0     H80954   5.969   1.141   6.153 -1.1950 -2.5917 -1.1107
  587MOL0     H80955   6.075   1.194   5.780 -0.9067 -0.6053  1.2801
  587MOL0     H80956   6.292   1.481   5.734 -0.0948  0.4543 -0.0562
  587MOL0     H80957   6.253   1.333   5.648  2.0568 -0.6707 -0.4251
  587MOL0     H80958   6.446   1.231   5.757 -0.2752  0.9746  0.8432
  587MOL0     H80959   6.497   1.377   5.666 -0.9676  0.3871 -0.8499
  587MOL0     H80960   6.473   1.508   5.891 -1.9822  0.2571 -4.5236
  587MOL0     H80961   6.454   1.351   5.967  0.2109 -0.5372 -0.6624
  587MOL0     H80962   6.683   1.430   5.994  0.6032  1.8749 -1.8183
  587MOL0     H80963   6.695   1.291   5.884  0.3797  0.0504 -4.0719
  587MOL0     H80964   6.885   1.431   6.010 -0.4743  0.3299 -0.7530
  587MOL0     H80965   7.065   1.467   6.136 -1.3586  1.6287 -1.1079
  587MOL0     H80966   7.208   1.561   6.100 -0.0235  0.7095 -0.9506
  587MOL0     H80967   7.201   1.387   6.055 -1.7847 -0.8882 -0.0952
  587MOL0     H80968   7.377   1.882   5.800  0.4532  1.6240 -1.0439
  587MOL0     H80969   7.599   2.014   5.754 -1.1514  0.6132  1.3557
  587MOL0     H80970   7.859   1.817   5.441  1.9899  0.3502  0.9751
  587MOL0     H80971   7.750   1.946   5.366 -0.2800 -0.6054  0.1379
  587MOL0     H80972   7.930   2.115   5.403  1.9701 -0.0634 -0.9097
  587MOL0     H80973   8.008   2.020   5.526  1.9112  2.4367 -0.9165
  587MOL0     H80974   8.029   1.960   5.227 -0.0081  2.0751 -0.1554
  587MOL0     H80975   8.085   1.854   5.357 -0.7967 -0.9271 -1.1665
  587MOL0     H80976   8.214   2.042   5.452  0.9016 -2.6805  0.0885
  587MOL0     H80977   8.158   2.133   5.293  0.1563  0.1982  0.0014
  587MOL0     H80978   8.394   2.042   5.369 -0.6261 -2.0901  0.1003
  587MOL0     H80979   8.340   1.885   5.300 -0.1060 -0.2724  0.1902
  587MOL0     H80980   8.354   2.146   5.139  1.4204 -0.8027 -2.1106
  587MOL0     H80981   8.307   1.983   5.090 -1.1766  0.7192 -0.1173
  587MOL0     H80982   8.575   2.067   5.200 -0.8776 -0.4724  1.8731
  587MOL0     H80983   8.535   2.064   5.028 -2.0728  1.3772  0.5998
  587MOL0     H80984   8.470   1.811   5.068  0.3080  1.8101 -1.8317
  587MOL0     H80985   8.552   1.827   5.227 -2.6946 -1.0606 -0.5188
  587MOL0     H80986   7.688   1.718   5.458 -0.2240 -1.0897 -0.6884
  587MOL0     H80987   7.491   1.589   5.508  0.8330 -1.1206  1.2169
  587MOL0     H80988   7.096   1.643   5.622 -0.5725  1.2707 -0.5636
  587MOL0     H80989   6.858   1.580   5.616 -0.0638  1.6844  1.9116
  587MOL0     H80990   5.104   0.593   6.085  1.2828 -1.4467  0.9658
  587MOL0     H80991   4.849   0.624   6.061 -2.4648  0.3025 -1.2135
  587MOL0     H80992   4.577   0.459   5.622 -0.7625 -1.7247 -1.0865
  587MOL0     H80993   4.375   0.415   5.510  1.1341  2.1003 -0.0643
  587MOL0     H80994   3.965   0.520   5.716 -1.2665 -0.2239 -0.6389
  587MOL0     H80995   3.936   0.415   5.588  0.3923  1.1048 -0.3541
  587MOL0     H80996   3.915   0.286   5.818  0.4528 -0.3866  0.9290
  587MOL0     H80997   4.049   0.366   5.873  0.5341  1.2412 -1.1550
  587MOL0     H80998   4.041   0.155   5.654  0.7088 -0.4920 -0.3434
  587MOL0     H80999   4.186   0.236   5.695 -0.7436 -1.1076 -3.2071
  587MOL0     H81000   4.011   0.067   5.887  0.0289 -0.2494  1.1185
  587MOL0     H81001   4.173   0.147   5.931  0.7444 -0.6325 -0.8657
  587MOL0     H81002   4.328  -0.179   5.720  0.6764  0.2649 -1.1089
  587MOL0     H81003   4.157   0.581   5.858 -0.4604 -1.8504  0.8844
  587MOL0     H81004   4.254   0.641   6.039 -1.5620 -2.4485 -0.5616
  587MOL0     H81005   4.396   0.543   6.088 -0.3882 -2.7090 -1.7418
  587MOL0     H81006   4.422   0.704   6.025 -0.3248 -0.3187 -2.3366
  588MOL0     O81007   9.194  10.892   0.742  0.4460 -0.8418  0.2593
  588MOL0     C81008   9.114  10.934   0.661 -0.8516  1.3236 -0.1171
  588MOL0     O81009   9.033  11.046   0.688 -0.0169  0.4370 -0.0064
  588MOL0     C81010   9.049  11.091   0.819  0.0678 -0.0650 -1.1975
  588MOL0     C81011   9.151  11.185   0.849 -0.2513 -0.8064  0.3696
  588MOL0     C81012   9.150  11.258   0.970  0.3367 -0.0168  0.1416
  588MOL0     C81013   9.055  11.233   1.062  0.3544  0.5403 -0.3332
  588MOL0     O81014   9.044  11.315   1.167 -0.3577 -0.6050  0.2329
  588MOL0     C81015   8.984  11.284   1.288 -0.4403  0.9269  0.0629
  588MOL0     C81016   8.847  11.353   1.317 -0.2574  0.2973  0.3055
  588MOL0     C81017   8.777  11.289   1.436 -0.9690 -0.3280  0.7431
  588MOL0     C81018   8.638  11.341   1.446 -0.1175 -0.0843 -0.1850
  588MOL0     C81019   8.542  11.237   1.510 -0.3017 -0.0251 -0.6703
  588MOL0     C81020   8.495  11.127   1.426 -0.3175  0.5827  0.3213
  588MOL0     C81021   8.405  11.020   1.491  0.2239  0.1329  0.0931
  588MOL0     C81022   8.493  10.920   1.584  0.0165 -0.2221 -0.8288
  588MOL0     N81023   8.620  10.863   1.522 -0.3134  1.0686 -1.0063
  588MOL0     C81024   8.610  10.797   1.405  0.9851  0.0171  0.6367
  588MOL0     C81025   8.728  10.800   1.354 -0.3661  0.4021 -0.5980
  588MOL0     C81026   8.774  10.730   1.229 -0.2677  0.4153  0.1242
  588MOL0     C81027   8.893  10.805   1.166 -0.0840 -1.0056  0.1755
  588MOL0     C81028   9.024  10.763   1.219 -0.4118 -0.4884  0.2922
  588MOL0     C81029   9.133  10.867   1.178 -0.8966  0.2674  0.6216
  588MOL0     O81030   9.256  10.794   1.228  0.4753 -0.1736  0.4102
  588MOL0     C81031   9.379  10.858   1.208  0.1661  0.0108  0.4938
  588MOL0     C81032   9.398  10.985   1.143  0.9521 -0.5393 -0.0972
  588MOL0     C81033   9.531  11.041   1.136  1.6575 -0.4001  0.0478
  588MOL0     C81034   9.533  11.186   1.092  0.2037  0.0606 -0.8492
  588MOL0     C81035   9.643  10.955   1.162 -0.0607 -0.1257 -0.9719
  588MOL0     C81036   9.778  11.011   1.165  0.4287 -0.4217  0.1193
  588MOL0     O81037   9.852  10.997   1.277  0.3679 -0.2994  0.5704
  588MOL0     C81038   9.950  11.084   1.312  0.8161  0.6035 -0.0346
  588MOL0     C81039  10.085  11.052   1.302  0.0081  0.2158  0.2763
  588MOL0     C81040  10.187  11.138   1.348  0.4320 -0.1124  0.3479
  588MOL0     C81041  10.147  11.264   1.402 -0.5307  0.5077  0.2311
  588MOL0     O81042  10.234  11.354   1.456 -0.6044 -0.4901  0.0845
  588MOL0     C81043  10.378  11.327   1.440 -0.3773 -0.3826  0.5026
  588MOL0     C81044  10.464  11.429   1.503  0.1042  0.5737  0.0693
  588MOL0     C81045  10.469  11.394   1.656 -0.2278  0.2563  0.0329
  588MOL0     C81046  10.561  11.479   1.740 -0.2213 -1.3461 -0.0438
  588MOL0     C81047  10.681  11.550   1.665 -0.1114  0.1249  1.2189
  588MOL0     C81048  10.769  11.634   1.763  0.3278  0.1784  0.0996
  588MOL0     C81049  10.882  11.710   1.692 -0.8496  0.1570  0.2679
  588MOL0     C81050  10.978  11.780   1.784  0.3680  0.2301 -0.3192
  588MOL0    Cl81051  11.108  11.841   1.689  0.4481 -0.3245  0.6476
  588MOL0     C81052  10.014  11.293   1.421 -0.1172  0.5269  0.3821
  588MOL0     C81053   9.914  11.201   1.380  0.7780  0.4444  0.4335
  588MOL0     O81054   9.808  11.080   1.068 -0.0611  0.1806 -0.4160
  588MOL0     C81055   9.620  10.829   1.224 -0.1986 -0.3455 -0.5521
  588MOL0     C81056   9.492  10.784   1.249 -0.4576 -0.6407  0.6901
  588MOL0     N81057   8.814  10.874   1.438  1.1466  0.2142  0.0793
  588MOL0     N81058   8.745  10.916   1.539  0.2024  0.1343  0.3390
  588MOL0     C81059   8.960  11.132   1.042 -0.5446 -0.8219  0.2677
  588MOL0     C81060   8.952  11.068   0.921 -0.3323  0.7403 -0.2748
  588MOL0     C81061   9.114  10.862   0.529  0.6157 -0.3410 -0.7232
  588MOL0     C81062   9.228  10.792   0.484  0.0964 -0.0852  0.4248
  588MOL0     C81063   9.223  10.724   0.366  0.1542  0.4094 -0.3651
  588MOL0     C81064   9.101  10.727   0.290  0.3486 -0.4168  0.4102
  588MOL0     O81065   9.100  10.663   0.167  0.3428 -0.3552 -0.3954
  588MOL0     C81066   9.032  10.538   0.174  0.4980  0.1400  0.1589
  588MOL0     C81067   8.994  10.493   0.031 -0.2475  0.1081  0.5507
  588MOL0     C81068   8.884  10.591  -0.034  0.5673  0.0040 -0.0153
  588MOL0     C81069   8.737  10.556   0.009  0.3194  0.7584 -0.4785
  588MOL0     C81070   8.711  10.418  -0.035  0.7093 -0.1094 -0.2493
  588MOL0     C81071   8.707  10.306  -0.086  0.3576  0.1409 -0.2143
  588MOL0     C81072   8.987  10.797   0.332  0.2158 -0.2354 -0.6805
  588MOL0     C81073   8.996  10.867   0.452  0.4014 -0.0104  0.1333
  588MOL0     C81074   8.860  10.927   0.508 -0.2950 -0.8205  0.7284
  588MOL0     H81075   9.230  11.207   0.778 -0.3404 -0.0723  0.4848
  588MOL0     H81076   9.225  11.334   0.986  1.0746 -0.9728  1.4648
  588MOL0     H81077   9.049  11.325   1.365 -0.1013  0.8507 -0.1794
  588MOL0     H81078   8.975  11.175   1.296  1.0308  0.6732 -1.2259
  588MOL0     H81079   8.866  11.459   1.335  0.6958  0.3686 -0.9555
  588MOL0     H81080   8.789  11.342   1.224  2.2822  1.5525 -1.5582
  588MOL0     H81081   8.766  11.181   1.423  2.8322 -1.5935  5.2273
  588MOL0     H81082   8.833  11.311   1.527  0.4531 -1.0559  0.0791
  588MOL0     H81083   8.640  11.433   1.506  2.6261  0.1502 -0.4950
  588MOL0     H81084   8.588  11.364   1.351 -3.0346  0.9778  1.4758
  588MOL0     H81085   8.456  11.288   1.553 -0.2469 -0.4090 -0.0879
  588MOL0     H81086   8.586  11.179   1.592 -1.1467 -1.0901 -0.9389
  588MOL0     H81087   8.434  11.173   1.347  2.1252  3.1249 -0.2591
  588MOL0     H81088   8.575  11.074   1.374 -1.5782  0.0846 -1.1898
  588MOL0     H81089   8.360  10.964   1.408  0.7132  2.4871 -1.8666
  588MOL0     H81090   8.323  11.068   1.545  0.5329 -0.4022  1.0776
  588MOL0     H81091   8.532  10.981   1.666  0.4964  0.6169 -1.6658
  588MOL0     H81092   8.429  10.837   1.615  1.3617 -0.9647  0.0546
  588MOL0     H81093   8.521  10.751   1.364  1.7446  0.6453 -1.9074
  588MOL0     H81094   8.689  10.738   1.162  0.1023 -2.2038 -0.7697
  588MOL0     H81095   8.795  10.627   1.260 -2.3544 -0.6662 -1.8143
  588MOL0     H81096   8.904  10.802   1.057  0.3470 -0.3235  0.1919
  588MOL0     H81097   8.895  10.910   1.197  1.9154 -0.6072 -1.0997
  588MOL0     H81098   9.024  10.752   1.328 -1.0134  1.0178  0.4691
  588MOL0     H81099   9.033  10.662   1.179 -2.2448  0.3861 -2.5800
  588MOL0     H81100   9.140  10.876   1.069  1.5350 -2.2566  0.4613
  588MOL0     H81101   9.129  10.967   1.222 -1.6408 -0.0728  1.3338
  588MOL0     H81102   9.308  11.042   1.124 -0.5321 -3.1775 -1.6034
  588MOL0     H81103   9.626  11.236   1.120  1.1948 -2.2597  0.2865
  588MOL0     H81104   9.449  11.240   1.136  2.7759  1.7280  2.4548
  588MOL0     H81105   9.526  11.187   0.983  1.5663  1.7456 -0.9605
  588MOL0     H81106  10.103  10.960   1.248 -3.5469  1.2899 -3.2319
  588MOL0     H81107  10.292  11.113   1.337  0.7331  1.0634  0.3851
  588MOL0     H81108  10.410  11.228   1.473 -1.6552 -0.9724  0.0379
  588MOL0     H81109  10.401  11.343   1.334  0.8488  1.7825  1.0233
  588MOL0     H81110  10.562  11.417   1.456 -0.5392 -0.7696 -0.9962
  588MOL0     H81111  10.427  11.531   1.492  1.2007  1.1230  1.1613
  588MOL0     H81112  10.512  11.294   1.663 -0.5915 -0.0298 -1.4643
  588MOL0     H81113  10.371  11.383   1.702 -0.5765 -0.8106 -0.9229
  588MOL0     H81114  10.597  11.419   1.824  2.5865  0.9951  0.5859
  588MOL0     H81115  10.495  11.553   1.786 -1.6860 -0.6463 -3.0128
  588MOL0     H81116  10.744  11.471   1.623 -0.2304  0.9326 -0.5362
  588MOL0     H81117  10.637  11.601   1.579 -0.0742  1.1686  1.7925
  588MOL0     H81118  10.810  11.561   1.834  1.8853  1.5805  0.6743
  588MOL0     H81119  10.705  11.706   1.816 -2.7835 -1.7434 -0.7274
  588MOL0     H81120  10.840  11.788   1.627 -0.8903 -0.4904 -0.5007
  588MOL0     H81121  10.929  11.639   1.623 -1.1945  1.4078 -1.3391
  588MOL0     H81122  11.015  11.712   1.862 -5.0560 -2.0258  0.7848
  588MOL0     H81123  10.923  11.859   1.837 -0.0493 -0.5265  0.4065
  588MOL0     H81124   9.984  11.380   1.478  0.2461 -0.5435  2.2949
  588MOL0     H81125   9.807  11.215   1.396  0.8627  1.1172  0.4513
  588MOL0     H81126   9.702  10.780   1.276 -0.5583  0.6949  1.0766
  588MOL0     H81127   9.490  10.690   1.302  1.7169 -0.9039  0.3922
  588MOL0     H81128   8.875  11.116   1.107 -1.5783 -0.4842 -0.9531
  588MOL0     H81129   8.859  11.012   0.912 -0.7129  1.0337  1.4755
  588MOL0     H81130   9.317  10.781   0.545 -0.4913 -2.8930  0.9051
  588MOL0     H81131   9.310  10.667   0.336 -0.8868 -0.1635 -2.4624
  588MOL0     H81132   9.093  10.461   0.223  0.9696  0.3198 -0.1310
  588MOL0     H81133   8.946  10.550   0.240  2.2893  3.6505  2.0807
  588MOL0     H81134   8.947  10.394   0.034 -0.0090 -0.0122  0.3011
  588MOL0     H81135   9.082  10.487  -0.033 -0.6548  0.5005 -0.0570
  588MOL0     H81136   8.904  10.695  -0.008 -3.5061  1.0269 -0.2593
  588MOL0     H81137   8.892  10.592  -0.143 -0.4623 -0.3287 -0.1014
  588MOL0     H81138   8.664  10.624  -0.036 -1.3408  0.6572  1.8551
  588MOL0     H81139   8.738  10.559   0.118  0.3589 -1.3385 -0.3876
  588MOL0     H81140   8.724  10.214  -0.136 -0.7819  0.6004 -1.5175
  588MOL0     H81141   8.900  10.807   0.268  1.0090  0.2662 -1.7203
  588MOL0     H81142   8.876  11.036   0.510 -1.2738 -0.6735  0.7150
  588MOL0     H81143   8.776  10.915   0.439  0.8687  2.4954 -1.5592
  588MOL0     H81144   8.831  10.904   0.610 -0.4801  3.8565  1.9707
  589MOL0     O81145   4.798   3.488   0.923  0.1567  0.3446  0.5080
  589MOL0     C81146   4.775   3.523   0.807 -0.6846  0.1610  1.3818
  589MOL0     O81147   4.870   3.575   0.712  0.3276 -0.3940  0.2567
  589MOL0     C81148   4.999   3.560   0.759  0.2261  0.0787 -0.1480
  589MOL0     C81149   5.068   3.681   0.791  0.2867  0.5092  0.5197
  589MOL0     C81150   5.197   3.669   0.842 -0.9892 -0.1779  0.8153
  589MOL0     C81151   5.253   3.543   0.883  0.3946 -1.0912  1.0364
  589MOL0     O81152   5.377   3.531   0.952  0.1340 -0.1988 -0.5199
  589MOL0     C81153   5.455   3.649   0.974 -0.8455 -0.1082  0.2430
  589MOL0     C81154   5.601   3.613   1.017  0.5065  0.9571 -0.3764
  589MOL0     C81155   5.689   3.743   1.023  0.5876 -0.4528 -0.2898
  589MOL0     C81156   5.798   3.722   1.130  0.3830 -0.1577  0.5529
  589MOL0     C81157   5.891   3.832   1.126  0.2362 -0.3078 -0.5881
  589MOL0     C81158   6.006   3.805   1.221  0.4748 -0.5697 -0.5317
  589MOL0     C81159   6.094   3.925   1.232 -1.1216 -0.3077  0.5174
  589MOL0     C81160   6.162   3.918   1.366  0.2423 -0.5836  0.1401
  589MOL0     N81161   6.268   4.021   1.376 -0.9800  0.2847  0.4375
  589MOL0     C81162   6.405   4.012   1.343  0.0650  0.5255  0.3724
  589MOL0     C81163   6.445   4.140   1.361 -0.6658  0.3132  0.4639
  589MOL0     C81164   6.591   4.181   1.356 -0.1390  0.0007 -1.0230
  589MOL0     C81165   6.630   4.240   1.221 -0.3643  0.7326 -0.3930
  589MOL0     C81166   6.778   4.261   1.212 -1.3621 -0.2028  0.3283
  589MOL0     C81167   6.824   4.303   1.070 -0.2768 -0.7191 -0.2598
  589MOL0     O81168   6.960   4.346   1.082  0.2885 -0.7942 -0.4931
  589MOL0     C81169   7.057   4.251   1.053 -0.0603 -0.7537 -0.9681
  589MOL0     C81170   7.190   4.297   1.038 -0.1062  0.4187 -0.4406
  589MOL0     C81171   7.305   4.210   1.017  0.0900  0.0553  0.2442
  589MOL0     C81172   7.444   4.282   1.013  0.0584  0.1190  0.3468
  589MOL0     C81173   7.282   4.070   1.005 -0.7488  0.5193 -0.5988
  589MOL0     C81174   7.388   3.968   0.991 -0.3190 -0.3125  0.3400
  589MOL0     O81175   7.354   3.839   1.002  0.1917 -0.0428 -0.5918
  589MOL0     C81176   7.443   3.738   1.034 -1.6514 -0.2936 -1.2357
  589MOL0     C81177   7.569   3.731   0.976  0.0668 -0.0249 -0.2077
  589MOL0     C81178   7.643   3.613   0.996 -0.2910  0.0623 -0.3078
  589MOL0     C81179   7.618   3.509   1.082 -0.1148 -0.8169  1.1035
  589MOL0     O81180   7.691   3.404   1.118  0.6714  0.6300 -0.4940
  589MOL0     C81181   7.832   3.422   1.110  0.9019 -0.4840 -0.2825
  589MOL0     C81182   7.905   3.302   1.166  0.5162  0.3245 -0.1998
  589MOL0     C81183   8.050   3.294   1.115  0.2581  0.2889 -0.3648
  589MOL0     C81184   8.112   3.170   1.176 -0.4515 -0.7106  0.4417
  589MOL0     C81185   8.236   3.119   1.102  0.4085  0.2816  0.1181
  589MOL0     C81186   8.361   3.196   1.130 -1.1624  0.3508 -0.6190
  589MOL0     C81187   8.478   3.123   1.076  0.4148 -0.6038 -0.1653
  589MOL0     C81188   8.606   3.205   1.052  0.3494 -0.2593  0.1126
  589MOL0    Cl81189   8.616   3.268   0.883  0.6154 -0.6944  0.0656
  589MOL0     C81190   7.494   3.524   1.147 -0.4099  1.0864  0.2570
  589MOL0     C81191   7.403   3.628   1.120  0.1702 -0.9360  0.1615
  589MOL0     O81192   7.503   4.010   0.967 -0.2300 -0.0404 -0.2853
  589MOL0     C81193   7.143   4.031   1.011 -0.2326  0.3446  0.0128
  589MOL0     C81194   7.038   4.113   1.041  0.4653  0.0592 -0.1220
  589MOL0     N81195   6.338   4.217   1.387  0.0655 -0.4617  0.0244
  589MOL0     N81196   6.233   4.145   1.400  0.3002 -0.1140 -0.8832
  589MOL0     C81197   5.179   3.426   0.844  0.2165  0.3239  1.2156
  589MOL0     C81198   5.048   3.432   0.778 -0.2639  0.4623 -0.1225
  589MOL0     C81199   4.639   3.516   0.756  0.9998  0.4829 -0.1765
  589MOL0     C81200   4.552   3.411   0.813  0.1440 -0.1268  0.6700
  589MOL0     C81201   4.416   3.392   0.779 -0.8907 -0.1275 -0.3503
  589MOL0     C81202   4.371   3.479   0.686  0.5451 -0.6184  1.1506
  589MOL0     O81203   4.236   3.454   0.656  0.2317  0.1573  0.1948
  589MOL0     C81204   4.177   3.509   0.540 -0.3944 -0.6517 -0.1090
  589MOL0     C81205   4.059   3.421   0.495  0.2071 -0.2035 -0.3542
  589MOL0     C81206   4.115   3.301   0.405 -1.0564 -0.1578  0.3400
  589MOL0     C81207   4.196   3.193   0.480  0.9355  0.4046  0.0260
  589MOL0     C81208   4.114   3.109   0.571 -0.2109  0.2916  0.5434
  589MOL0     C81209   4.037   3.061   0.655  0.3905 -0.1399 -0.3321
  589MOL0     C81210   4.443   3.580   0.631 -0.0726  0.7421 -0.1499
  589MOL0     C81211   4.576   3.605   0.663  0.0172 -0.0781 -0.2315
  589MOL0     C81212   4.635   3.726   0.607 -0.7521 -0.2833 -0.5792
  589MOL0     H81213   5.018   3.774   0.767  1.0047  0.3914 -1.7093
  589MOL0     H81214   5.256   3.759   0.858  0.9188 -0.8727 -1.7714
  589MOL0     H81215   5.404   3.712   1.047  0.3507  0.3164  0.7333
  589MOL0     H81216   5.466   3.705   0.881  0.7552  1.6524  1.4225
  589MOL0     H81217   5.586   3.575   1.119 -1.8166  2.9051  0.0715
  589MOL0     H81218   5.651   3.537   0.955 -1.3748  0.4412 -1.3357
  589MOL0     H81219   5.734   3.763   0.925  1.2262  0.1836  0.1255
  589MOL0     H81220   5.633   3.835   1.043  4.3105  1.8845  0.3781
  589MOL0     H81221   5.750   3.716   1.228 -1.6652  0.5686 -0.3527
  589MOL0     H81222   5.847   3.627   1.110 -2.3530 -0.9239 -3.8397
  589MOL0     H81223   5.845   3.928   1.152  0.7939 -0.0468 -0.5348
  589MOL0     H81224   5.935   3.849   1.027  3.1136  0.3170  0.6784
  589MOL0     H81225   5.966   3.787   1.321 -2.8403  5.8738 -0.1843
  589MOL0     H81226   6.064   3.720   1.181 -0.7718 -1.4351 -0.5575
  589MOL0     H81227   6.036   4.018   1.221 -2.8609 -1.5890 -2.9138
  589MOL0     H81228   6.167   3.937   1.152  0.0910 -0.1345  1.6255
  589MOL0     H81229   6.082   3.945   1.436  1.5385 -2.9144  2.7269
  589MOL0     H81230   6.196   3.816   1.387  1.3416 -0.0913  0.7964
  589MOL0     H81231   6.457   3.925   1.305 -0.8280 -0.6398  1.7253
  589MOL0     H81232   6.645   4.095   1.397  1.0040  0.2647 -1.9435
  589MOL0     H81233   6.594   4.260   1.432 -3.2828  0.4581 -1.2246
  589MOL0     H81234   6.596   4.174   1.140 -0.1674 -3.4776  2.6006
  589MOL0     H81235   6.584   4.339   1.212  0.9770  1.1947 -2.8840
  589MOL0     H81236   6.806   4.331   1.291  0.7660 -0.0863 -0.4558
  589MOL0     H81237   6.828   4.165   1.231 -1.9059 -0.9688 -1.7942
  589MOL0     H81238   6.802   4.220   1.003  1.5492 -0.3051 -1.4632
  589MOL0     H81239   6.771   4.390   1.029  2.6951  1.1026 -0.5815
  589MOL0     H81240   7.216   4.400   1.060  1.5647 -0.2350  0.8373
  589MOL0     H81241   7.433   4.390   1.002 -2.6035 -0.1572 -0.4885
  589MOL0     H81242   7.512   4.261   0.929  0.4985  4.1448 -0.4821
  589MOL0     H81243   7.501   4.261   1.104 -0.1611  0.3725  0.5440
  589MOL0     H81244   7.596   3.803   0.900  0.1348  1.9805  1.6424
  589MOL0     H81245   7.734   3.605   0.937 -1.4768  0.6686 -2.3121
  589MOL0     H81246   7.870   3.437   1.009  2.9830  1.8963  0.7421
  589MOL0     H81247   7.864   3.509   1.169 -0.1287 -1.0706  1.2148
  589MOL0     H81248   7.913   3.303   1.275  3.4823 -0.3563 -0.3291
  589MOL0     H81249   7.857   3.208   1.138  1.1165  0.2277 -0.9393
  589MOL0     H81250   8.110   3.380   1.147 -0.3900  0.3522  0.7666
  589MOL0     H81251   8.054   3.289   1.006  0.9418  0.9127 -0.3754
  589MOL0     H81252   8.039   3.091   1.198 -1.1150  0.4621  2.7750
  589MOL0     H81253   8.150   3.199   1.274  1.8699 -2.8777  0.2913
  589MOL0     H81254   8.254   3.012   1.112  2.2149  0.2149 -2.6352
  589MOL0     H81255   8.217   3.126   0.994  0.4510 -1.5880 -0.0397
  589MOL0     H81256   8.371   3.211   1.238 -2.1076 -0.0056 -0.4722
  589MOL0     H81257   8.344   3.295   1.086  1.3301  1.2041  0.1501
  589MOL0     H81258   8.462   3.082   0.976  0.5478  1.0230 -0.8880
  589MOL0     H81259   8.499   3.034   1.137 -0.6172 -3.6995 -3.9156
  589MOL0     H81260   8.697   3.145   1.070  0.5115 -0.5496 -1.5229
  589MOL0     H81261   8.604   3.291   1.120  0.4491  1.4655 -1.9819
  589MOL0     H81262   7.452   3.446   1.211 -0.7333 -0.4019 -1.6505
  589MOL0     H81263   7.306   3.635   1.167 -0.0183  1.0600 -0.4109
  589MOL0     H81264   7.124   3.925   1.000 -1.2330  0.5801 -0.6616
  589MOL0     H81265   6.941   4.070   1.061  0.4787 -0.0750 -0.3459
  589MOL0     H81266   5.220   3.326   0.848  0.9342  0.5698  0.2083
  589MOL0     H81267   4.986   3.345   0.760  1.8333 -1.1416  0.0208
  589MOL0     H81268   4.594   3.345   0.888 -2.3606 -2.8772 -0.1686
  589MOL0     H81269   4.342   3.323   0.818 -0.7968 -2.8954 -4.4343
  589MOL0     H81270   4.147   3.610   0.570  0.3258 -1.4125  3.7353
  589MOL0     H81271   4.253   3.525   0.463  1.5072  0.5460  1.8831
  589MOL0     H81272   4.002   3.477   0.421  0.0049  2.1260  1.4767
  589MOL0     H81273   4.003   3.380   0.579 -0.5231  0.3189 -0.5794
  589MOL0     H81274   4.030   3.249   0.360 -1.6280  2.1215 -1.3632
  589MOL0     H81275   4.171   3.341   0.321 -0.6862 -1.7179 -0.1808
  589MOL0     H81276   4.274   3.241   0.539  2.5918 -0.3266 -1.4692
  589MOL0     H81277   4.235   3.127   0.401 -0.3023  1.8893 -1.9236
  589MOL0     H81278   3.977   3.009   0.726  1.2351 -1.3188 -0.4642
  589MOL0     H81279   4.389   3.654   0.573 -1.3701  0.4238  0.5898
  589MOL0     H81280   4.709   3.704   0.529  1.2829 -0.3706  1.2636
  589MOL0     H81281   4.562   3.790   0.557 -1.6858  0.1837  1.2944
  589MOL0     H81282   4.680   3.774   0.694 -1.4382 -2.1491  0.8730
  590MOL0     O81283   2.038   7.034   8.213  0.5188  0.2645  0.1812
  590MOL0     C81284   2.135   7.043   8.136 -0.0243 -0.6935  0.4199
  590MOL0     O81285   2.143   7.130   8.029 -0.7127 -0.0272 -0.1934
  590MOL0     C81286   2.032   7.200   7.999 -0.3896 -0.6219  0.0254
  590MOL0     C81287   1.918   7.135   7.935  0.3126 -0.4182 -0.3258
  590MOL0     C81288   1.790   7.203   7.929  0.1885  0.5180 -0.2294
  590MOL0     C81289   1.782   7.336   7.965  0.3793  0.1902 -0.3319
  590MOL0     O81290   1.656   7.395   7.954 -0.1374  0.3570  0.5816
  590MOL0     C81291   1.621   7.481   8.064  0.0250 -0.1764  0.6113
  590MOL0     C81292   1.485   7.545   8.023  0.0912 -0.2516  0.0279
  590MOL0     C81293   1.376   7.432   8.006  0.1656  0.1570  0.1262
  590MOL0     C81294   1.251   7.453   8.094  0.2227 -0.1828  0.0095
  590MOL0     C81295   1.163   7.326   8.126 -0.0953 -0.9064 -0.2380
  590MOL0     C81296   1.252   7.203   8.158 -0.4841  0.2244  0.3358
  590MOL0     C81297   1.174   7.094   8.214  0.5449 -0.1792 -0.3435
  590MOL0     C81298   1.260   6.957   8.239 -0.3428 -0.2518 -0.0609
  590MOL0     N81299   1.379   6.985   8.319  0.0421 -0.7470  0.3098
  590MOL0     C81300   1.506   6.979   8.277  0.9814 -0.0311  0.5592
  590MOL0     C81301   1.579   7.000   8.386 -0.6414 -0.4864  0.1973
  590MOL0     C81302   1.724   6.997   8.382  0.4918 -0.5065 -0.8628
  590MOL0     C81303   1.796   7.091   8.478  0.1325 -0.3094 -0.2778
  590MOL0     C81304   1.825   7.226   8.409  0.6736 -0.2749 -0.0197
  590MOL0     C81305   1.885   7.330   8.507 -0.4966 -0.5436  0.2405
  590MOL0     O81306   1.925   7.450   8.435 -0.2725  0.1678  0.1684
  590MOL0     C81307   2.058   7.460   8.400  0.1484 -0.2046 -0.5113
  590MOL0     C81308   2.116   7.591   8.402 -0.3196 -0.3226  0.2131
  590MOL0     C81309   2.256   7.611   8.386 -0.3916 -0.7952 -0.0613
  590MOL0     C81310   2.299   7.748   8.428  0.5408  0.1880  0.1107
  590MOL0     C81311   2.339   7.496   8.347  0.1584 -0.2370 -0.4393
  590MOL0     C81312   2.480   7.495   8.335 -0.4687 -1.0325 -1.1882
  590MOL0     O81313   2.548   7.378   8.328 -0.0999 -0.0808 -0.5327
  590MOL0     C81314   2.684   7.368   8.298  0.3410 -0.5242 -0.9937
  590MOL0     C81315   2.732   7.333   8.171  0.2236  0.5303 -0.1914
  590MOL0     C81316   2.865   7.317   8.153  0.1590  0.5737 -0.1333
  590MOL0     C81317   2.960   7.338   8.258  0.8765 -0.3558  0.6478
  590MOL0     O81318   3.093   7.325   8.247 -0.4277 -0.6998 -0.0777
  590MOL0     C81319   3.160   7.316   8.117 -0.9438 -0.2045 -0.1140
  590MOL0     C81320   3.311   7.308   8.158 -1.2054 -0.4793 -0.0015
  590MOL0     C81321   3.415   7.337   8.048 -0.1133 -0.1356 -0.0804
  590MOL0     C81322   3.560   7.360   8.104 -0.3137  0.6512  0.1685
  590MOL0     C81323   3.674   7.383   8.003  0.4432 -0.1123 -1.1813
  590MOL0     C81324   3.818   7.389   8.056 -0.1120 -0.6151  0.0073
  590MOL0     C81325   3.928   7.416   7.942  1.4972  0.3105  0.0285
  590MOL0     C81326   3.911   7.311   7.824  0.1286 -0.3865 -0.2839
  590MOL0    Cl81327   3.946   7.149   7.899 -0.0753 -0.1746 -0.1205
  590MOL0     C81328   2.912   7.382   8.379 -0.9838 -0.2743 -0.1975
  590MOL0     C81329   2.775   7.394   8.402 -0.1328  0.4320 -0.0937
  590MOL0     O81330   2.542   7.603   8.323 -0.5799  0.5279 -0.4633
  590MOL0     C81331   2.269   7.370   8.338 -0.4037 -0.0039 -0.4479
  590MOL0     C81332   2.142   7.351   8.379 -0.6225  0.6754  0.3346
  590MOL0     N81333   1.499   7.005   8.497 -0.5413  0.7109  1.0303
  590MOL0     N81334   1.376   7.007   8.458  0.2958  0.2664  0.8175
  590MOL0     C81335   1.893   7.402   8.018 -0.1541 -0.1970  0.4318
  590MOL0     C81336   2.012   7.332   8.037 -0.2841  0.0659 -0.2632
  590MOL0     C81337   2.251   6.966   8.151 -0.1092 -0.6983  0.4336
  590MOL0     C81338   2.304   6.956   8.292  0.7005 -0.0185  0.2121
  590MOL0     C81339   2.411   6.878   8.314 -0.1268  0.4059 -0.0825
  590MOL0     C81340   2.477   6.811   8.213  0.4984  0.5165  1.3949
  590MOL0     O81341   2.590   6.746   8.257  0.2955  0.4518  0.4828
  590MOL0     C81342   2.703   6.740   8.167 -0.0951 -0.3076 -0.2474
  590MOL0     C81343   2.827   6.664   8.221 -0.1927  0.1299 -0.3239
  590MOL0     C81344   2.948   6.661   8.117  0.7959 -0.3537 -0.6194
  590MOL0     C81345   3.076   6.609   8.188 -0.6916 -0.0999 -0.0208
  590MOL0     C81346   3.046   6.494   8.272 -0.0766  0.1509 -0.0024
  590MOL0     C81347   3.026   6.410   8.350 -0.1089  0.3735 -0.1364
  590MOL0     C81348   2.431   6.821   8.080 -0.3889  0.3644 -0.2776
  590MOL0     C81349   2.321   6.900   8.047 -0.2843  0.7664  0.1060
  590MOL0     C81350   2.276   6.890   7.905  0.4439  0.8207  0.3632
  590MOL0     H81351   1.917   7.028   7.914 -1.0443 -1.2643  3.3030
  590MOL0     H81352   1.703   7.159   7.881 -2.0392  2.3017  1.9166
  590MOL0     H81353   1.691   7.565   8.074  2.4826 -1.9513 -0.7115
  590MOL0     H81354   1.603   7.426   8.156  0.2197 -0.9156  0.2158
  590MOL0     H81355   1.445   7.613   8.099 -2.3237  0.5139 -1.7796
  590MOL0     H81356   1.502   7.602   7.931 -1.9441  2.1738  1.0201
  590MOL0     H81357   1.347   7.428   7.900 -0.9397  1.1787  0.3662
  590MOL0     H81358   1.420   7.333   8.017 -1.7929 -1.1205 -2.3032
  590MOL0     H81359   1.278   7.503   8.187  0.0172  1.4174 -0.7490
  590MOL0     H81360   1.191   7.522   8.033 -0.3910 -0.4976  0.2454
  590MOL0     H81361   1.098   7.299   8.042 -0.1241 -1.3110 -0.0902
  590MOL0     H81362   1.107   7.352   8.217 -2.0566  1.3233 -1.9706
  590MOL0     H81363   1.310   7.168   8.072  0.7918  3.1833 -0.1356
  590MOL0     H81364   1.321   7.229   8.238 -0.8210  3.9402 -0.4137
  590MOL0     H81365   1.086   7.069   8.153 -0.6892  0.7533  0.9766
  590MOL0     H81366   1.131   7.125   8.310  1.0338  0.4312 -0.3230
  590MOL0     H81367   1.194   6.888   8.291 -0.2574  0.0837  0.5014
  590MOL0     H81368   1.298   6.915   8.146  1.2379 -2.4935  1.5011
  590MOL0     H81369   1.541   6.956   8.176  0.0786 -2.0617  0.6591
  590MOL0     H81370   1.771   7.023   8.287  0.3442  2.8842 -0.1311
  590MOL0     H81371   1.763   6.897   8.402  0.0317 -0.4035  0.7247
  590MOL0     H81372   1.737   7.114   8.567  0.3835  0.9287 -0.4059
  590MOL0     H81373   1.890   7.051   8.518 -0.2568  1.0738  2.2236
  590MOL0     H81374   1.901   7.210   8.332  0.2852 -0.7712 -0.3079
  590MOL0     H81375   1.750   7.273   8.346  0.5420 -0.9639 -0.3933
  590MOL0     H81376   1.813   7.344   8.588 -0.3251  0.1312  0.2893
  590MOL0     H81377   1.972   7.293   8.562  0.6892 -0.1606 -1.2895
  590MOL0     H81378   2.053   7.677   8.425  0.4243  0.4035 -0.3916
  590MOL0     H81379   2.354   7.805   8.353 -0.2317 -0.0411 -0.6496
  590MOL0     H81380   2.354   7.733   8.521  1.3733 -1.0560 -0.5525
  590MOL0     H81381   2.221   7.815   8.464  1.5363  2.0840 -1.1130
  590MOL0     H81382   2.666   7.294   8.094 -0.2930 -1.5031  1.1881
  590MOL0     H81383   2.907   7.288   8.057 -0.9278 -1.3775 -0.0737
  590MOL0     H81384   3.135   7.220   8.073 -0.1946 -0.5754  0.2503
  590MOL0     H81385   3.155   7.392   8.038  0.0518 -0.5536 -0.5338
  590MOL0     H81386   3.344   7.370   8.242  0.7647 -0.5741 -0.6688
  590MOL0     H81387   3.326   7.203   8.186  1.7317 -0.1803 -0.1637
  590MOL0     H81388   3.372   7.415   7.984 -1.3313 -0.7442 -0.0365
  590MOL0     H81389   3.422   7.242   7.995 -0.1553  0.3699 -1.0184
  590MOL0     H81390   3.581   7.274   8.169  0.7253  1.1636  0.5425
  590MOL0     H81391   3.567   7.447   8.170  3.1485  0.0206  0.8388
  590MOL0     H81392   3.674   7.291   7.944  2.6474 -2.8420  2.6305
  590MOL0     H81393   3.650   7.471   7.942  0.8381 -1.2791 -3.1232
  590MOL0     H81394   3.841   7.287   8.091  1.2362 -0.7902 -1.2689
  590MOL0     H81395   3.827   7.461   8.138 -0.5719 -1.6687  1.0118
  590MOL0     H81396   4.019   7.407   8.001  0.8679 -0.5241  0.9131
  590MOL0     H81397   3.924   7.516   7.898 -2.9787 -0.2250 -1.3985
  590MOL0     H81398   3.986   7.326   7.745 -0.6739  1.1328 -0.7935
  590MOL0     H81399   3.810   7.321   7.783  0.0689  1.8288  0.3055
  590MOL0     H81400   2.981   7.395   8.461 -2.2981  0.0426  0.8856
  590MOL0     H81401   2.738   7.421   8.500  2.5249 -0.8546  1.4068
  590MOL0     H81402   2.330   7.282   8.321  3.6866  2.5197 -0.3450
  590MOL0     H81403   2.090   7.256   8.377  0.1777  0.2411 -0.2290
  590MOL0     H81404   1.889   7.507   8.047 -1.7654 -0.6543  2.0411
  590MOL0     H81405   2.100   7.387   8.071 -0.3687 -0.8371  1.5323
  590MOL0     H81406   2.256   7.014   8.370  0.0225  0.8885 -0.8484
  590MOL0     H81407   2.450   6.875   8.415  0.2721  2.2387 -0.1410
  590MOL0     H81408   2.672   6.696   8.071  0.9247  0.3504 -0.8914
  590MOL0     H81409   2.729   6.842   8.139 -3.7233  0.6782 -0.5438
  590MOL0     H81410   2.800   6.561   8.247  1.3704  0.2079  1.9338
  590MOL0     H81411   2.857   6.720   8.311  1.7440  1.0031 -1.4597
  590MOL0     H81412   2.932   6.592   8.034  0.9044  1.3776 -2.1401
  590MOL0     H81413   2.962   6.763   8.081 -0.4600  0.2904  0.6459
  590MOL0     H81414   3.120   6.672   8.266  0.4248 -1.8501  0.8176
  590MOL0     H81415   3.151   6.577   8.115  0.7679  2.2790  0.3348
  590MOL0     H81416   3.001   6.329   8.415 -0.6989 -0.7317 -1.6581
  590MOL0     H81417   2.489   6.769   8.004 -0.0550 -0.3534  0.4564
  590MOL0     H81418   2.272   6.790   7.861 -0.4416  1.7088 -1.6787
  590MOL0     H81419   2.174   6.929   7.898  0.4244  0.4581 -1.8930
  590MOL0     H81420   2.334   6.956   7.840  0.1207  0.4279 -0.3337
  591MOL0     O81421   6.918   7.486   4.711 -0.4926  0.2204 -0.1471
  591MOL0     C81422   6.900   7.589   4.649  0.6226  0.3657  0.4139
  591MOL0     O81423   6.996   7.684   4.637 -0.7925 -0.1698 -0.3466
  591MOL0     C81424   7.129   7.654   4.661 -0.0841  0.2594  0.0602
  591MOL0     C81425   7.209   7.621   4.549 -0.5170 -0.8347 -0.6617
  591MOL0     C81426   7.352   7.621   4.571 -0.2845  0.2956 -0.0190
  591MOL0     C81427   7.411   7.653   4.687 -0.4660  0.8801 -0.1443
  591MOL0     O81428   7.552   7.664   4.695 -0.5146 -0.0540  0.0512
  591MOL0     C81429   7.608   7.724   4.808 -0.1463 -0.5852  0.5904
  591MOL0     C81430   7.755   7.735   4.780  0.3625 -0.6058  0.8660
  591MOL0     C81431   7.821   7.782   4.920  0.2139 -0.0341 -0.0359
  591MOL0     C81432   7.969   7.766   4.926  0.2245  0.3788  0.8141
  591MOL0     C81433   8.023   7.850   5.038 -1.1831 -0.1291 -0.7407
  591MOL0     C81434   8.173   7.835   5.031  0.0070  0.3300  0.4377
  591MOL0     C81435   8.239   7.900   5.152 -0.5379 -0.3384  0.9313
  591MOL0     C81436   8.379   7.957   5.132 -1.0556 -0.2776 -0.2216
  591MOL0     N81437   8.374   8.082   5.042  0.2714  0.1544  0.6708
  591MOL0     C81438   8.406   8.089   4.904  0.0834  0.0473 -0.4648
  591MOL0     C81439   8.361   8.216   4.879 -0.1139 -0.7742  0.3214
  591MOL0     C81440   8.372   8.269   4.734  0.2763 -0.7883 -0.2877
  591MOL0     C81441   8.412   8.415   4.726  0.2740 -0.9399  0.0902
  591MOL0     C81442   8.455   8.448   4.584 -1.2487 -0.3745  0.1256
  591MOL0     C81443   8.435   8.597   4.541  0.3483 -0.7195 -0.7318
  591MOL0     O81444   8.460   8.596   4.397  0.2300  0.6039 -0.0496
  591MOL0     C81445   8.585   8.566   4.344 -0.4069  0.3855  0.2199
  591MOL0     C81446   8.706   8.618   4.392 -0.2338 -0.1900 -0.7235
  591MOL0     C81447   8.827   8.580   4.345 -0.9070 -0.9538  0.2839
  591MOL0     C81448   8.951   8.648   4.410  0.8676 -0.2676  0.5052
  591MOL0     C81449   8.834   8.493   4.236 -0.0110  0.1549 -0.5840
  591MOL0     C81450   8.957   8.429   4.187  0.0425  0.2138 -1.0245
  591MOL0     O81451   8.975   8.433   4.055 -0.0095 -0.3132  0.6220
  591MOL0     C81452   9.088   8.389   3.997 -0.5223  0.2313 -0.1130
  591MOL0     C81453   9.074   8.298   3.897 -1.0878 -0.2417 -0.1903
  591MOL0     C81454   9.187   8.261   3.819 -0.1123  0.7721 -0.2785
  591MOL0     C81455   9.322   8.289   3.864  0.4021 -0.4080 -1.2680
  591MOL0     O81456   9.438   8.256   3.810  0.2652 -0.1176  0.0679
  591MOL0     C81457   9.426   8.168   3.698 -0.5441 -0.9320 -0.3321
  591MOL0     C81458   9.564   8.104   3.661  0.2136  0.6237 -0.3066
  591MOL0     C81459   9.672   8.187   3.607 -0.4548 -0.2145 -0.0662
  591MOL0     C81460   9.797   8.105   3.593 -0.7223  0.2867  0.4503
  591MOL0     C81461   9.919   8.197   3.561  0.0672  0.2185  0.0846
  591MOL0     C81462  10.045   8.106   3.550 -0.1086  0.0032 -0.2416
  591MOL0     C81463  10.163   8.195   3.527 -1.0473 -0.0226 -0.1030
  591MOL0     C81464  10.291   8.114   3.501  0.1122  0.2575 -0.4999
  591MOL0    Cl81465  10.425   8.213   3.465  0.2703 -0.2845 -0.3911
  591MOL0     C81466   9.329   8.377   3.974 -0.3012  0.1821 -0.8738
  591MOL0     C81467   9.217   8.427   4.038  0.2383  0.0736 -0.0307
  591MOL0     O81468   9.036   8.385   4.271  0.1902 -0.1897 -0.0143
  591MOL0     C81469   8.717   8.433   4.183  0.3683 -0.3522  0.0030
  591MOL0     C81470   8.593   8.470   4.242  0.5733  0.8511  0.1085
  591MOL0     N81471   8.304   8.279   4.990 -0.0170  0.2349 -0.1710
  591MOL0     N81472   8.302   8.192   5.087 -0.0166 -0.5946 -0.1035
  591MOL0     C81473   7.327   7.678   4.796 -0.3187  0.5153  0.1916
  591MOL0     C81474   7.187   7.680   4.789 -0.3104 -0.8546  0.1354
  591MOL0     C81475   6.763   7.619   4.604 -0.0722 -0.6502  0.2606
  591MOL0     C81476   6.660   7.568   4.678 -0.3412 -0.1165  0.6968
  591MOL0     C81477   6.533   7.613   4.664  0.4228  0.3377 -0.0408
  591MOL0     C81478   6.495   7.704   4.565  0.9783  0.2689  0.1879
  591MOL0     O81479   6.371   7.758   4.548 -0.5003  0.2456 -0.1297
  591MOL0     C81480   6.262   7.720   4.637 -0.2963  0.0083 -0.5337
  591MOL0     C81481   6.130   7.776   4.588  0.3518 -0.2453 -0.5603
  591MOL0     C81482   6.146   7.914   4.519  0.2555  0.4338 -0.7846
  591MOL0     C81483   6.010   7.946   4.448 -0.6109  0.1030  0.2100
  591MOL0     C81484   6.000   8.090   4.426  0.1012 -0.2337 -0.7038
  591MOL0     C81485   5.994   8.208   4.406 -0.2533 -0.4352  0.6190
  591MOL0     C81486   6.598   7.755   4.481  0.1027  0.2101  0.5179
  591MOL0     C81487   6.735   7.714   4.498  0.0151  0.3059  0.6896
  591MOL0     C81488   6.843   7.762   4.411  0.0236  0.2670  0.5437
  591MOL0     H81489   7.167   7.605   4.450  1.1730  0.2117 -1.5905
  591MOL0     H81490   7.416   7.613   4.484  0.0396  0.8442  0.1646
  591MOL0     H81491   7.593   7.667   4.900  0.0397 -2.6921 -0.6280
  591MOL0     H81492   7.580   7.830   4.804 -0.1039 -0.6074 -0.8264
  591MOL0     H81493   7.783   7.630   4.764 -2.4970 -1.8365  3.0834
  591MOL0     H81494   7.780   7.803   4.698 -0.1584 -0.9396  0.4254
  591MOL0     H81495   7.792   7.887   4.921 -0.8313 -0.3198  0.5982
  591MOL0     H81496   7.770   7.732   5.003 -0.4524 -1.3600 -1.1838
  591MOL0     H81497   7.988   7.659   4.938  3.5855  0.8279  0.2514
  591MOL0     H81498   8.012   7.783   4.827  1.4934 -1.1065  1.0787
  591MOL0     H81499   7.983   7.812   5.133  0.3903  2.5679  1.1624
  591MOL0     H81500   7.990   7.954   5.040  1.1916  0.6790 -0.0041
  591MOL0     H81501   8.198   7.729   5.030 -1.6688 -0.1132  1.3835
  591MOL0     H81502   8.215   7.893   4.948  1.2828  1.8355  2.0476
  591MOL0     H81503   8.248   7.820   5.226 -1.3599 -5.7542 -4.0749
  591MOL0     H81504   8.173   7.978   5.192  0.6900  0.9627  0.5179
  591MOL0     H81505   8.427   7.978   5.228 -0.2343 -1.3958 -0.3676
  591MOL0     H81506   8.443   7.886   5.079  0.7719  3.1017 -3.0097
  591MOL0     H81507   8.441   8.010   4.838  0.9377  0.0992 -0.0816
  591MOL0     H81508   8.275   8.265   4.683  0.1484 -0.5153 -0.0653
  591MOL0     H81509   8.453   8.206   4.698  0.8491 -1.1042  1.4748
  591MOL0     H81510   8.324   8.472   4.757  0.4036 -1.8868  2.3825
  591MOL0     H81511   8.499   8.442   4.786 -0.5248 -1.0984  1.3679
  591MOL0     H81512   8.556   8.409   4.569 -0.5460  1.8992 -1.6602
  591MOL0     H81513   8.392   8.387   4.518 -0.0228 -0.1581 -1.3166
  591MOL0     H81514   8.328   8.618   4.545  0.2514  0.0903 -4.2670
  591MOL0     H81515   8.493   8.663   4.606 -1.5905  0.3896 -0.0313
  591MOL0     H81516   8.702   8.690   4.473  0.5361 -1.4267  0.4591
  591MOL0     H81517   8.934   8.755   4.403 -2.7621 -0.8204 -1.5730
  591MOL0     H81518   9.047   8.626   4.362  0.5426  0.9708 -0.7737
  591MOL0     H81519   8.963   8.617   4.514 -2.1380  0.2434  1.1043
  591MOL0     H81520   8.975   8.264   3.870 -0.7810 -1.6796  0.4296
  591MOL0     H81521   9.170   8.202   3.729  2.6616 -0.1355 -0.2888
  591MOL0     H81522   9.349   8.093   3.718 -0.2784 -0.3243  3.7297
  591MOL0     H81523   9.382   8.224   3.614  0.0881  2.4058  1.3618
  591MOL0     H81524   9.596   8.051   3.751  0.6125 -1.6172 -1.6877
  591MOL0     H81525   9.529   8.025   3.593  0.2754 -2.2232  2.6810
  591MOL0     H81526   9.689   8.266   3.681 -0.1388 -2.2372  2.1029
  591MOL0     H81527   9.655   8.233   3.509  3.1576 -2.4513 -1.9778
  591MOL0     H81528   9.785   8.031   3.514  1.5509 -1.8967  1.9946
  591MOL0     H81529   9.831   8.055   3.684  3.1045  0.0199 -0.9223
  591MOL0     H81530   9.900   8.255   3.470 -0.2135  1.2450  0.7697
  591MOL0     H81531   9.924   8.273   3.640 -2.6096  1.3455 -0.6956
  591MOL0     H81532  10.039   8.034   3.468 -0.5388 -2.1424  1.5609
  591MOL0     H81533  10.062   8.053   3.644 -0.9820  0.5916  0.2654
  591MOL0     H81534  10.199   8.260   3.607  0.4243  1.3836 -1.8244
  591MOL0     H81535  10.140   8.250   3.435  2.6900  0.2832 -1.0297
  591MOL0     H81536  10.278   8.045   3.417  1.4137  1.1079 -1.4446
  591MOL0     H81537  10.317   8.050   3.586  2.3055 -0.3300 -1.5306
  591MOL0     H81538   9.428   8.402   4.011 -0.2401 -0.8198 -0.2986
  591MOL0     H81539   9.241   8.488   4.124 -1.1831 -3.3341  3.0454
  591MOL0     H81540   8.721   8.358   4.105  2.7610 -0.0930 -0.2037
  591MOL0     H81541   8.496   8.426   4.222  0.9752  0.6361 -1.4987
  591MOL0     H81542   7.369   7.715   4.888 -2.5046  0.7624  1.1520
  591MOL0     H81543   7.132   7.722   4.872  1.5856 -0.4686  1.2533
  591MOL0     H81544   6.694   7.505   4.760  1.5266 -1.5256 -1.0369
  591MOL0     H81545   6.470   7.585   4.748  0.6384 -3.2802 -0.9022
  591MOL0     H81546   6.247   7.614   4.658  2.9736 -0.0908  2.0779
  591MOL0     H81547   6.282   7.765   4.734 -1.0664 -3.0510  1.1736
  591MOL0     H81548   6.058   7.798   4.668 -2.4981  2.0273 -3.4407
  591MOL0     H81549   6.083   7.710   4.515 -0.2290 -1.3015  0.7254
  591MOL0     H81550   6.167   7.982   4.602 -0.4547 -0.6878  0.3735
  591MOL0     H81551   6.221   7.916   4.440  1.0584 -2.4379 -0.2432
  591MOL0     H81552   5.931   7.904   4.512  0.2220 -3.0081 -0.6021
  591MOL0     H81553   5.991   7.900   4.350 -2.9413  1.4674 -0.0581
  591MOL0     H81554   5.996   8.313   4.387  0.7708 -0.5930 -0.2104
  591MOL0     H81555   6.578   7.814   4.392 -1.0859 -0.7585  0.1106
  591MOL0     H81556   6.799   7.813   4.325 -0.6198 -0.5623  0.3638
  591MOL0     H81557   6.904   7.843   4.453  0.8472  0.3124 -0.6806
  591MOL0     H81558   6.910   7.685   4.372  1.9160  0.5443  2.9681
  592MOL0     O81559   4.663   5.988  11.123  0.6843  0.4099  0.0878
  592MOL0     C81560   4.609   6.079  11.059 -0.2901  0.3460  0.0531
  592MOL0     O81561   4.675   6.190  11.018 -0.3494  0.6364  0.0982
  592MOL0     C81562   4.804   6.197  11.047 -0.0871  0.8362 -0.2225
  592MOL0     C81563   4.844   6.304  11.124 -0.4751  0.4323  0.0271
  592MOL0     C81564   4.982   6.329  11.141  0.0156  0.7292  0.0498
  592MOL0     C81565   5.080   6.250  11.077  0.8929  0.9438  0.4614
  592MOL0     O81566   5.209   6.265  11.101  0.0026 -0.1824  0.3879
  592MOL0     C81567   5.264   6.368  11.182 -0.3716 -0.0561 -0.6815
  592MOL0     C81568   5.409   6.336  11.209 -0.3761 -0.7779  0.5872
  592MOL0     C81569   5.491   6.446  11.284  0.3153 -0.2931  0.6460
  592MOL0     C81570   5.484   6.592  11.222 -0.2071 -0.5389 -0.4052
  592MOL0     C81571   5.557   6.692  11.306 -0.1218  0.2048  0.1252
  592MOL0     C81572   5.703   6.666  11.326  0.6699 -0.2780 -0.1670
  592MOL0     C81573   5.774   6.792  11.364  0.0706  0.4198  1.0702
  592MOL0     C81574   5.926   6.773  11.355  0.8031 -0.2703 -0.1014
  592MOL0     N81575   5.994   6.908  11.371  0.3704 -0.1091  0.0352
  592MOL0     C81576   5.991   7.022  11.293 -0.2045  0.3268 -0.1012
  592MOL0     C81577   6.049   7.119  11.369  0.3828  0.6773  0.1650
  592MOL0     C81578   6.055   7.262  11.341  1.1533 -0.6542  0.5173
  592MOL0     C81579   6.199   7.324  11.331  0.6792  0.2398  0.5620
  592MOL0     C81580   6.250   7.353  11.470 -0.3570 -0.1664 -0.3401
  592MOL0     C81581   6.384   7.420  11.462  0.1369 -0.6677  0.0673
  592MOL0     O81582   6.496   7.342  11.429  0.6617 -0.0442 -0.1519
  592MOL0     C81583   6.614   7.406  11.433 -0.1321  0.0498  0.1789
  592MOL0     C81584   6.656   7.521  11.374  0.3813 -0.4718 -0.1733
  592MOL0     C81585   6.784   7.573  11.375 -0.1246  0.7023 -0.7016
  592MOL0     C81586   6.810   7.692  11.291  0.1415  1.1803  0.4650
  592MOL0     C81587   6.886   7.494  11.427 -0.2573 -0.3938 -0.3904
  592MOL0     C81588   7.031   7.537  11.425  0.6465 -0.3779  0.1140
  592MOL0     O81589   7.060   7.672  11.420  0.2686  0.3633  0.0998
  592MOL0     C81590   7.185   7.718  11.458 -1.1362 -0.3310  0.0934
  592MOL0     C81591   7.257   7.677  11.573  0.2160 -0.3546  0.4540
  592MOL0     C81592   7.391   7.719  11.575  0.6818  0.0541  0.2048
  592MOL0     C81593   7.446   7.819  11.490  0.2218  0.1973  0.2166
  592MOL0     O81594   7.569   7.858  11.519 -0.1282 -0.0512  0.3338
  592MOL0     C81595   7.653   7.924  11.427  0.1353  0.1065  0.0556
  592MOL0     C81596   7.650   8.078  11.463  0.2693  0.8049  0.1700
  592MOL0     C81597   7.767   8.153  11.392  0.5955 -0.3755 -0.1643
  592MOL0     C81598   7.906   8.122  11.452  0.0119 -0.0626 -0.3095
  592MOL0     C81599   8.000   8.241  11.441  0.2105 -0.4967 -0.0484
  592MOL0     C81600   8.136   8.200  11.488 -0.9986 -0.0061  0.3788
  592MOL0     C81601   8.226   8.323  11.484 -0.1782 -0.0041 -0.0799
  592MOL0     C81602   8.373   8.276  11.485  0.1487 -0.1480  0.1089
  592MOL0    Cl81603   8.432   8.180  11.355  0.0192  0.0064  0.0417
  592MOL0     C81604   7.370   7.861  11.379  0.0628  0.8243 -0.8442
  592MOL0     C81605   7.242   7.812  11.364  0.0081  0.6172 -0.5653
  592MOL0     O81606   7.112   7.450  11.431 -0.5550  0.1527 -0.2666
  592MOL0     C81607   6.843   7.368  11.484  0.2755 -0.2434 -1.4267
  592MOL0     C81608   6.710   7.322  11.482 -0.7943 -0.9884 -0.5061
  592MOL0     N81609   6.099   7.064  11.486 -0.4865 -0.3931  0.5067
  592MOL0     N81610   6.056   6.945  11.487 -0.2261 -0.6048  1.0600
  592MOL0     C81611   5.041   6.142  11.003 -1.0762 -0.3245  0.8536
  592MOL0     C81612   4.907   6.113  10.990  0.7555 -0.0346 -1.1221
  592MOL0     C81613   4.470   6.075  11.006  0.4444 -0.1166 -1.0131
  592MOL0     C81614   4.423   6.169  10.910  0.9201  0.2630 -0.2192
  592MOL0     C81615   4.294   6.168  10.864 -0.3267  0.5076 -0.1823
  592MOL0     C81616   4.198   6.078  10.905 -0.5340 -0.4438 -0.1189
  592MOL0     O81617   4.070   6.072  10.862  0.2903 -0.6171  0.3315
  592MOL0     C81618   4.060   6.021  10.722  0.3645 -0.1388 -1.0104
  592MOL0     C81619   3.916   6.008  10.667  0.2930  0.0959  0.0323
  592MOL0     C81620   3.845   5.907  10.755  0.2101 -0.5514  0.2318
  592MOL0     C81621   3.686   5.926  10.743 -0.4387  0.2583  1.0510
  592MOL0     C81622   3.625   5.938  10.609  0.2859 -1.1466  0.3139
  592MOL0     C81623   3.561   5.953  10.510 -0.0108  0.0948 -0.1608
  592MOL0     C81624   4.235   5.988  11.004 -0.4312 -0.2571  1.2261
  592MOL0     C81625   4.368   5.978  11.048  0.2777  0.4629 -0.0914
  592MOL0     C81626   4.395   5.857  11.141 -0.5073  0.4284 -0.1518
  592MOL0     H81627   4.765   6.366  11.167  0.5331  0.5120  1.8660
  592MOL0     H81628   4.998   6.419  11.200  2.0892 -1.3408  2.9304
  592MOL0     H81629   5.204   6.367  11.273 -3.5905 -0.7188 -2.6419
  592MOL0     H81630   5.244   6.463  11.131 -0.3615  1.3973  1.8429
  592MOL0     H81631   5.424   6.254  11.280 -1.1915  0.3693  2.1398
  592MOL0     H81632   5.456   6.296  11.119  0.3511 -0.2401  0.7181
  592MOL0     H81633   5.458   6.447  11.389 -0.1789 -3.5709  0.6078
  592MOL0     H81634   5.594   6.410  11.283  0.6543  0.6269  0.8742
  592MOL0     H81635   5.532   6.591  11.123 -0.9521  1.3855 -0.8257
  592MOL0     H81636   5.384   6.634  11.216  0.4860  2.3533  3.9977
  592MOL0     H81637   5.511   6.716  11.403 -2.2733 -0.7638 -0.5977
  592MOL0     H81638   5.548   6.781  11.243 -1.3232 -0.4368 -0.6361
  592MOL0     H81639   5.710   6.601  11.414 -0.0270  1.7828  1.5094
  592MOL0     H81640   5.741   6.620  11.234 -1.1442 -4.9394  1.0922
  592MOL0     H81641   5.745   6.816  11.467  2.9182  0.1443  2.0254
  592MOL0     H81642   5.738   6.868  11.294 -2.1036 -0.8613  0.7049
  592MOL0     H81643   5.958   6.711  11.439  0.3558  0.8726  0.9421
  592MOL0     H81644   5.958   6.740  11.256  4.1003  1.2228  0.3637
  592MOL0     H81645   5.936   7.032  11.200 -0.9069 -1.7849  0.0472
  592MOL0     H81646   6.010   7.312  11.427  2.6068  1.1020  0.3196
  592MOL0     H81647   5.985   7.290  11.261  1.8847 -0.4441 -0.0604
  592MOL0     H81648   6.261   7.253  11.275  0.0042 -1.7329  2.1804
  592MOL0     H81649   6.206   7.420  11.279  0.7524  0.8644  1.7073
  592MOL0     H81650   6.183   7.420  11.524  0.0371  0.7733 -0.9968
  592MOL0     H81651   6.259   7.260  11.528  2.9228  0.0120 -0.4082
  592MOL0     H81652   6.378   7.494  11.381  0.2906 -0.7952 -0.0604
  592MOL0     H81653   6.409   7.475  11.553 -3.9768 -0.7062  1.4222
  592MOL0     H81654   6.584   7.581  11.319  1.3973  1.3382  0.3845
  592MOL0     H81655   6.899   7.679  11.228 -1.3454 -0.0491 -1.4913
  592MOL0     H81656   6.818   7.775  11.361 -0.1154 -0.0888  2.0478
  592MOL0     H81657   6.728   7.708  11.221  0.6666 -1.5138 -0.9202
  592MOL0     H81658   7.223   7.607  11.649 -0.4831  0.4845  0.9462
  592MOL0     H81659   7.459   7.677  11.649 -1.0106 -1.8019  0.7813
  592MOL0     H81660   7.751   7.878  11.441 -0.4257 -0.6762  1.5912
  592MOL0     H81661   7.616   7.921  11.323 -1.6033  3.3340  0.4392
  592MOL0     H81662   7.556   8.110  11.418  0.9080 -0.7771 -2.5369
  592MOL0     H81663   7.653   8.087  11.572 -2.9926 -0.5972  0.4812
  592MOL0     H81664   7.741   8.259  11.394 -3.0254 -1.0046 -3.5231
  592MOL0     H81665   7.775   8.141  11.284 -0.7795  1.1458 -0.4733
  592MOL0     H81666   7.944   8.033  11.401 -1.5131 -0.6479 -0.4951
  592MOL0     H81667   7.895   8.087  11.555  0.8102 -1.3162 -0.6221
  592MOL0     H81668   8.003   8.275  11.336 -0.4231 -2.4979 -0.7537
  592MOL0     H81669   7.956   8.321  11.502  0.8794 -0.1265 -0.0382
  592MOL0     H81670   8.179   8.136  11.410 -0.4030 -0.6318  1.2048
  592MOL0     H81671   8.134   8.153  11.586 -4.6891 -0.3450  0.2820
  592MOL0     H81672   8.214   8.385  11.574 -0.2140  1.0254 -0.7780
  592MOL0     H81673   8.216   8.384  11.394  3.2672  0.3042 -0.3974
  592MOL0     H81674   8.389   8.218  11.577  2.6990 -1.7472 -1.2211
  592MOL0     H81675   8.443   8.359  11.501 -0.2324  0.0189  0.9493
  592MOL0     H81676   7.412   7.943  11.320  0.0121 -0.3865 -2.6291
  592MOL0     H81677   7.174   7.832  11.281 -1.4123  0.9475  0.6172
  592MOL0     H81678   6.916   7.305  11.535 -1.3755  1.1969  3.2957
  592MOL0     H81679   6.681   7.219  11.502 -0.0862 -1.3865 -1.4122
  592MOL0     H81680   5.115   6.075  10.959  0.3628  2.2027 -0.8099
  592MOL0     H81681   4.872   6.027  10.933  0.1410 -0.9534  0.5826
  592MOL0     H81682   4.494   6.243  10.875  1.7186 -1.0324 -1.4249
  592MOL0     H81683   4.275   6.249  10.794 -0.9095 -0.4423 -1.1457
  592MOL0     H81684   4.116   6.083  10.651  0.9067  0.3037 -0.2125
  592MOL0     H81685   4.109   5.923  10.724 -1.2745 -0.9831  0.9149
  592MOL0     H81686   3.922   5.964  10.567 -1.5353 -0.5804  0.1774
  592MOL0     H81687   3.867   6.106  10.662  2.7096  1.3565 -0.8020
  592MOL0     H81688   3.866   5.804  10.726 -3.7124 -0.9455 -1.9033
  592MOL0     H81689   3.881   5.908  10.858 -1.4579 -2.5769  0.8920
  592MOL0     H81690   3.673   6.014  10.806  0.2739 -0.4389  2.2133
  592MOL0     H81691   3.642   5.841  10.795 -0.3268 -2.1217 -2.3883
  592MOL0     H81692   3.516   5.960  10.413 -1.3754 -1.5434  0.3021
  592MOL0     H81693   4.167   5.920  11.054  1.6175 -1.6765  2.2280
  592MOL0     H81694   4.408   5.896  11.243  2.1858  2.8138 -1.2548
  592MOL0     H81695   4.314   5.785  11.155 -3.2458  3.1869 -0.7409
  592MOL0     H81696   4.491   5.811  11.115  0.6869  2.5975  0.1680
  593MOL0     O81697   9.465   7.332   9.693  0.6403  0.2465 -0.3854
  593MOL0     C81698   9.458   7.423   9.778  0.5028  0.8651 -0.0831
  593MOL0     O81699   9.560   7.471   9.852  0.3082 -0.2098  0.0577
  593MOL0     C81700   9.677   7.405   9.837 -0.1776 -0.5199  0.2864
  593MOL0     C81701   9.769   7.470   9.750 -0.6427 -0.3456 -0.1849
  593MOL0     C81702   9.898   7.428   9.732  0.8887  0.1206 -0.0859
  593MOL0     C81703   9.939   7.314   9.797  0.7647  0.2367 -0.8534
  593MOL0     O81704  10.064   7.271   9.763 -0.3041 -0.3489  0.7213
  593MOL0     C81705  10.141   7.205   9.859  0.1026 -0.5954 -0.2649
  593MOL0     C81706  10.280   7.250   9.819 -0.0014 -0.9053 -0.6085
  593MOL0     C81707  10.380   7.185   9.909 -0.5434  0.7722  0.3778
  593MOL0     C81708  10.527   7.241   9.882 -0.0362  0.9578  0.4864
  593MOL0     C81709  10.633   7.189   9.978  0.4605  0.5110 -0.8520
  593MOL0     C81710  10.767   7.245   9.946  0.5251 -0.0080 -0.8500
  593MOL0     C81711  10.876   7.233  10.055 -0.0934  0.2369  0.0375
  593MOL0     C81712  10.920   7.074  10.080 -0.5408  0.4236  0.0576
  593MOL0     N81713  11.024   7.046  10.180  0.4979 -0.6044 -0.4155
  593MOL0     C81714  11.026   6.957  10.289 -0.2842  0.7016  0.6770
  593MOL0     C81715  11.151   6.979  10.347 -0.6770 -0.5294  0.3853
  593MOL0     C81716  11.204   6.877  10.441 -0.5514  0.2430 -0.1286
  593MOL0     C81717  11.302   6.783  10.380  0.2986 -0.4908 -0.3943
  593MOL0     C81718  11.430   6.867  10.348  1.1878 -1.1226 -0.4239
  593MOL0     C81719  11.534   6.802  10.270  0.4220 -0.1343  0.0025
  593MOL0     O81720  11.646   6.886  10.249  0.4501  0.0834 -0.2537
  593MOL0     C81721  11.768   6.828  10.247 -0.6781  0.2865 -0.8827
  593MOL0     C81722  11.801   6.691  10.281  0.3079  0.8074 -0.9140
  593MOL0     C81723  11.931   6.648  10.284  0.1850  0.7624  0.2317
  593MOL0     C81724  11.956   6.503  10.341 -0.2996  0.0065 -0.4486
  593MOL0     C81725  12.031   6.737  10.236 -0.9058  0.4201  0.3943
  593MOL0     C81726  12.173   6.692  10.214 -0.8233 -0.6019 -0.1228
  593MOL0     O81727  12.270   6.792  10.198  0.1945 -0.2790 -1.0776
  593MOL0     C81728  12.397   6.777  10.151  0.1158 -0.4758 -0.5272
  593MOL0     C81729  12.457   6.654  10.171 -0.5764  0.2489  0.5441
  593MOL0     C81730  12.589   6.636  10.126 -1.2606  0.8208 -0.0452
  593MOL0     C81731  12.661   6.744  10.066 -0.6195 -0.2032  0.2864
  593MOL0     O81732  12.777   6.710  10.002  0.3991  0.3688 -0.1997
  593MOL0     C81733  12.779   6.740   9.864 -0.5135 -0.1899 -0.8495
  593MOL0     C81734  12.917   6.699   9.810  0.3642  0.2087 -0.1575
  593MOL0     C81735  13.016   6.815   9.816  0.2063  0.1029  0.0560
  593MOL0     C81736  13.164   6.764   9.813 -0.0557  0.3654  0.3477
  593MOL0     C81737  13.265   6.858   9.882  0.3655 -0.3371  0.1926
  593MOL0     C81738  13.316   6.966   9.786  0.1390 -0.9547 -0.1627
  593MOL0     C81739  13.391   7.075   9.859  0.3501  1.5403  0.3984
  593MOL0     C81740  13.546   7.053   9.867  0.3609 -0.6295 -0.2243
  593MOL0    Cl81741  13.638   7.126   9.728 -0.3381  0.2053  0.1886
  593MOL0     C81742  12.601   6.870  10.064 -0.5446  0.7605  0.5112
  593MOL0     C81743  12.466   6.884  10.100 -0.9826  0.3703  0.2015
  593MOL0     O81744  12.178   6.576  10.159  0.0661  0.2251  0.0133
  593MOL0     C81745  12.006   6.871  10.205  0.1393  0.0537  0.6820
  593MOL0     C81746  11.878   6.918  10.218 -0.6649  0.0987 -1.0104
  593MOL0     N81747  11.201   7.096  10.298 -0.5539  0.2499 -0.1607
  593MOL0     N81748  11.124   7.137  10.206  1.0654  0.0483  0.4364
  593MOL0     C81749   9.845   7.242   9.876  0.4300 -0.0157  0.5774
  593MOL0     C81750   9.712   7.290   9.906 -0.1181  0.0928  0.1765
  593MOL0     C81751   9.324   7.478   9.809  0.3166 -1.1373 -0.4857
  593MOL0     C81752   9.324   7.597   9.897 -0.6293  0.4356  0.2644
  593MOL0     C81753   9.213   7.662   9.937 -0.4668  0.1652  0.3386
  593MOL0     C81754   9.088   7.622   9.888  0.0440  0.3029  0.8962
  593MOL0     O81755   8.985   7.707   9.923 -0.1897 -1.0844 -0.1963
  593MOL0     C81756   8.854   7.684   9.864 -0.2487 -0.8142  0.4964
  593MOL0     C81757   8.770   7.591   9.948 -0.4903  0.2058 -0.1950
  593MOL0     C81758   8.718   7.645  10.088  0.2490  0.8845  0.5363
  593MOL0     C81759   8.651   7.550  10.193  0.7331 -0.5135 -0.3183
  593MOL0     C81760   8.529   7.481  10.135  0.1781 -0.7085 -0.9240
  593MOL0     C81761   8.431   7.439  10.071 -0.5444 -0.2527  0.2954
  593MOL0     C81762   9.071   7.511   9.799 -0.3988 -0.1544 -0.5594
  593MOL0     C81763   9.190   7.438   9.767  0.3910 -0.9024  1.1661
  593MOL0     C81764   9.157   7.312   9.695 -0.5909 -0.5034 -0.4447
  593MOL0     H81765   9.731   7.560   9.703 -1.7803 -0.3582  0.6781
  593MOL0     H81766   9.972   7.482   9.675  1.9927  0.2942  1.4708
  593MOL0     H81767  10.132   7.098   9.839  1.4452 -0.6523 -0.6573
  593MOL0     H81768  10.122   7.239   9.961 -0.8492  1.2706 -1.0137
  593MOL0     H81769  10.312   7.247   9.714  1.6586  0.7707 -0.2079
  593MOL0     H81770  10.278   7.358   9.838  1.0996 -0.9823  0.0354
  593MOL0     H81771  10.354   7.198  10.015  1.5367 -0.3194  1.0960
  593MOL0     H81772  10.380   7.077   9.888  0.4021  0.7128  0.6085
  593MOL0     H81773  10.555   7.216   9.780  1.8453 -0.2308  1.2424
  593MOL0     H81774  10.508   7.349   9.889 -0.1890  0.9044  0.9423
  593MOL0     H81775  10.615   7.081   9.977 -1.2167  0.7353  0.3840
  593MOL0     H81776  10.596   7.209  10.079  0.8506 -3.3111  0.2042
  593MOL0     H81777  10.795   7.190   9.856 -1.9878 -3.3883  0.2284
  593MOL0     H81778  10.748   7.351   9.929 -1.3097 -0.0870  0.3606
  593MOL0     H81779  10.853   7.290  10.146 -0.4588 -2.2915  1.6165
  593MOL0     H81780  10.970   7.282  10.026  0.6849 -2.0088 -1.5586
  593MOL0     H81781  10.832   7.017  10.112  1.6791 -2.2246  1.9426
  593MOL0     H81782  10.955   7.037   9.983 -1.0769  1.3712 -0.5142
  593MOL0     H81783  10.958   6.875  10.311 -0.8284  1.1008  0.5090
  593MOL0     H81784  11.121   6.817  10.479  0.5072 -1.0227  0.2632
  593MOL0     H81785  11.260   6.918  10.525 -0.5806 -1.2472  0.6592
  593MOL0     H81786  11.326   6.706  10.455  0.1497 -1.3020 -1.1675
  593MOL0     H81787  11.259   6.723  10.300 -1.9560 -1.1511  1.1921
  593MOL0     H81788  11.391   6.940  10.277 -0.2965  0.0228  1.4747
  593MOL0     H81789  11.472   6.924  10.431 -1.5277  1.9742 -0.9982
  593MOL0     H81790  11.565   6.708  10.317  3.5787 -0.6540 -2.7635
  593MOL0     H81791  11.476   6.773  10.182 -3.6760  0.2703  2.2927
  593MOL0     H81792  11.733   6.615  10.318  3.3053 -2.4301 -1.4449
  593MOL0     H81793  12.028   6.508  10.422 -0.5044  2.3629 -0.3425
  593MOL0     H81794  11.992   6.435  10.263 -2.9980 -1.9318 -0.1514
  593MOL0     H81795  11.867   6.449  10.376 -0.8778  0.9996 -0.3333
  593MOL0     H81796  12.429   6.566  10.227  2.1923  0.0938  1.8523
  593MOL0     H81797  12.649   6.545  10.139  1.2302  2.3320 -0.2300
  593MOL0     H81798  12.696   6.686   9.817 -1.2088 -1.1432  1.3310
  593MOL0     H81799  12.765   6.847   9.847 -2.0642 -0.1853  0.2438
  593MOL0     H81800  12.951   6.608   9.861 -1.5257 -0.4174  0.0580
  593MOL0     H81801  12.898   6.677   9.704  0.5556  2.9356 -0.8334
  593MOL0     H81802  13.005   6.874   9.907 -2.0305 -0.6741  0.3579
  593MOL0     H81803  13.005   6.886   9.733  1.0389 -0.0331 -0.1756
  593MOL0     H81804  13.189   6.742   9.708 -2.1679 -0.2665 -0.0743
  593MOL0     H81805  13.168   6.671   9.870 -0.7872 -0.0186 -0.2154
  593MOL0     H81806  13.213   6.908   9.963  0.0464  2.4364 -1.6027
  593MOL0     H81807  13.351   6.807   9.926 -0.9027 -1.2393  1.7100
  593MOL0     H81808  13.230   7.010   9.734 -0.5593 -0.7401  1.1209
  593MOL0     H81809  13.381   6.923   9.710  2.2311 -1.7396  1.9539
  593MOL0     H81810  13.350   7.078   9.960 -0.7950 -1.1656  0.1047
  593MOL0     H81811  13.362   7.167   9.807 -2.7472 -1.3387 -3.6676
  593MOL0     H81812  13.575   6.948   9.881  0.8035 -0.5111 -0.2446
  593MOL0     H81813  13.563   7.107   9.960 -4.3960 -3.1067  2.4889
  593MOL0     H81814  12.652   6.953  10.018  0.7800 -0.2018  0.1933
  593MOL0     H81815  12.418   6.981  10.094  0.0583  0.9051  0.1820
  593MOL0     H81816  12.076   6.937  10.154 -2.2838  0.9008 -1.7541
  593MOL0     H81817  11.852   7.018  10.186 -0.0378 -0.5316 -3.7444
  593MOL0     H81818   9.860   7.144   9.920 -2.7618 -0.2727  1.4011
  593MOL0     H81819   9.647   7.234   9.972 -0.4758 -1.4917 -1.4418
  593MOL0     H81820   9.421   7.643   9.916 -1.4709  2.6476 -0.5521
  593MOL0     H81821   9.220   7.762   9.978 -2.1874  0.4530 -0.0026
  593MOL0     H81822   8.790   7.773   9.849 -0.7436 -0.8928  2.0387
  593MOL0     H81823   8.860   7.647   9.761 -0.1132 -0.3836  0.3450
  593MOL0     H81824   8.835   7.507   9.976 -1.0718  0.4174  1.9853
  593MOL0     H81825   8.688   7.553   9.888  1.2559  0.1511 -2.6866
  593MOL0     H81826   8.792   7.701  10.145 -1.2560  3.4411  0.1508
  593MOL0     H81827   8.637   7.716  10.066  0.3608  0.5626 -1.0398
  593MOL0     H81828   8.629   7.614  10.279 -2.1334 -0.7232 -0.8265
  593MOL0     H81829   8.725   7.476  10.226 -1.2669 -2.8414 -0.8010
  593MOL0     H81830   8.344   7.406  10.018 -0.8108  1.0118 -0.0757
  593MOL0     H81831   8.979   7.468   9.760 -0.4908  0.3625 -0.9143
  593MOL0     H81832   9.088   7.252   9.755  1.5659 -2.1136  0.5493
  593MOL0     H81833   9.107   7.339   9.601  1.6080 -2.2277 -2.2422
  593MOL0     H81834   9.244   7.251   9.669 -0.0344 -0.1405  0.5431
  594MOL0     O81835   9.170   2.168   2.385  0.7064  0.3839  0.1526
  594MOL0     C81836   9.207   2.261   2.319 -0.2875  0.4047 -0.0793
  594MOL0     O81837   9.339   2.297   2.304  0.7621  0.6926  0.5457
  594MOL0     C81838   9.436   2.221   2.364  0.2176  0.0407  0.9527
  594MOL0     C81839   9.509   2.140   2.281  0.6226  0.3073 -0.2752
  594MOL0     C81840   9.608   2.055   2.338 -0.0511  0.0024 -0.0139
  594MOL0     C81841   9.643   2.068   2.471  0.4613  1.1430 -0.5973
  594MOL0     O81842   9.746   2.005   2.531 -0.1663  0.2359 -0.4246
  594MOL0     C81843   9.877   2.028   2.480 -0.5247 -0.1929  0.2776
  594MOL0     C81844   9.965   2.136   2.547  0.0626 -0.2936  0.0735
  594MOL0     C81845   9.876   2.254   2.576  0.5249  0.1363  0.3013
  594MOL0     C81846   9.947   2.380   2.626 -0.1872 -0.7797 -0.9487
  594MOL0     C81847   9.845   2.485   2.664  0.2716  0.1183 -0.0090
  594MOL0     C81848   9.762   2.444   2.799 -0.7268 -1.0841 -0.4128
  594MOL0     C81849   9.705   2.581   2.855  0.3210  0.1759 -0.1718
  594MOL0     C81850   9.575   2.601   2.786  0.6249  0.0197 -0.0728
  594MOL0     N81851   9.509   2.726   2.824 -0.4739  0.2888  0.4636
  594MOL0     C81852   9.386   2.731   2.880  0.6527 -0.3708 -0.0565
  594MOL0     C81853   9.365   2.872   2.896 -1.1009 -0.1170  0.3257
  594MOL0     C81854   9.246   2.935   2.951  0.6242 -0.2641 -0.0197
  594MOL0     C81855   9.118   2.871   2.905  0.1426  0.5131 -0.0386
  594MOL0     C81856   9.103   2.834   2.763 -0.0030  0.7854  0.0396
  594MOL0     C81857   9.131   2.941   2.655 -0.2709 -0.7443 -0.6838
  594MOL0     O81858   9.043   3.057   2.676 -0.9999  0.4442  0.2053
  594MOL0     C81859   8.910   3.063   2.635 -0.6059  0.3031  0.0536
  594MOL0     C81860   8.843   3.193   2.649  0.0232  0.6904 -0.4977
  594MOL0     C81861   8.709   3.216   2.601  0.1472 -0.7913 -0.7974
  594MOL0     C81862   8.668   3.363   2.606  0.4295 -0.1681 -0.2951
  594MOL0     C81863   8.639   3.108   2.551  0.4521 -0.3462 -0.4776
  594MOL0     C81864   8.491   3.119   2.514  0.7591 -0.7879  0.3809
  594MOL0     O81865   8.439   3.026   2.432 -0.1288  0.1191  0.0106
  594MOL0     C81866   8.316   3.042   2.379  0.5086 -0.5578 -0.0874
  594MOL0     C81867   8.301   3.132   2.270  0.0739  0.6960  0.7461
  594MOL0     C81868   8.180   3.153   2.203 -0.2637 -0.3093 -0.1843
  594MOL0     C81869   8.066   3.098   2.246 -0.1383  0.3124 -0.3519
  594MOL0     O81870   7.938   3.113   2.202  0.5280  0.3239 -0.2901
  594MOL0     C81871   7.906   3.198   2.096 -0.0760  0.4314  0.0648
  594MOL0     C81872   7.763   3.173   2.039 -1.1470  0.3312  0.0796
  594MOL0     C81873   7.650   3.199   2.144 -0.3103 -0.2451 -0.1955
  594MOL0     C81874   7.609   3.347   2.139  0.1909  1.0733  0.5805
  594MOL0     C81875   7.514   3.374   2.253 -0.2455  0.6381  0.2882
  594MOL0     C81876   7.407   3.479   2.238  0.7911  0.3630  0.5289
  594MOL0     C81877   7.329   3.487   2.367 -0.1181  0.2413  0.3325
  594MOL0     C81878   7.178   3.519   2.346 -0.3461 -0.2034  0.2006
  594MOL0    Cl81879   7.166   3.680   2.278  0.1684  0.5044 -0.0739
  594MOL0     C81880   8.076   3.011   2.357  1.3800  0.0520 -0.2005
  594MOL0     C81881   8.199   2.974   2.420 -0.1040 -0.2595  0.3792
  594MOL0     O81882   8.421   3.193   2.580 -0.2303 -1.2971 -0.6563
  594MOL0     C81883   8.708   2.986   2.530  0.8623  0.5832 -0.3180
  594MOL0     C81884   8.839   2.966   2.576 -0.1147 -0.3950  0.2646
  594MOL0     N81885   9.477   2.935   2.846 -0.5270 -0.2808 -0.0308
  594MOL0     N81886   9.555   2.845   2.797  0.3378  0.1745 -0.4441
  594MOL0     C81887   9.554   2.139   2.562 -0.4034  0.1616  0.0416
  594MOL0     C81888   9.458   2.219   2.507  1.1581  0.2072 -0.1224
  594MOL0     C81889   9.115   2.341   2.235  0.6537  0.2996  0.8066
  594MOL0     C81890   9.174   2.444   2.160 -0.2516 -0.2558  0.2498
  594MOL0     C81891   9.100   2.520   2.074 -0.3538 -0.1752  0.2175
  594MOL0     C81892   8.963   2.503   2.062  0.0185 -0.0888 -0.3304
  594MOL0     O81893   8.888   2.591   1.987  0.5709 -0.6060 -0.6330
  594MOL0     C81894   8.914   2.574   1.844  0.1069  0.5399 -0.1353
  594MOL0     C81895   8.848   2.447   1.786 -0.1264 -0.6058  0.4931
  594MOL0     C81896   8.695   2.475   1.780 -0.8002  0.5279  1.0229
  594MOL0     C81897   8.610   2.359   1.736 -0.5908  0.6296  0.0429
  594MOL0     C81898   8.469   2.369   1.742 -0.5168  0.3028  0.3607
  594MOL0     C81899   8.350   2.357   1.761 -0.7556  0.1250  0.0220
  594MOL0     C81900   8.902   2.406   2.137 -0.1062  0.0603 -0.5823
  594MOL0     C81901   8.973   2.314   2.211  0.2843 -0.2308  0.0117
  594MOL0     C81902   8.893   2.210   2.284  0.0132 -0.2526  0.8269
  594MOL0     H81903   9.481   2.147   2.177  1.5976 -1.0351 -0.6547
  594MOL0     H81904   9.659   1.979   2.279 -1.3260  0.3370 -1.6064
  594MOL0     H81905   9.867   2.047   2.373  0.0454  2.2886  0.5997
  594MOL0     H81906   9.936   1.938   2.497 -0.7265 -0.8418 -2.1538
  594MOL0     H81907  10.003   2.097   2.641  0.4302 -2.4536 -0.8972
  594MOL0     H81908  10.054   2.172   2.494  0.0438 -1.8208 -1.0930
  594MOL0     H81909   9.810   2.267   2.489  0.6531 -3.8295 -0.5826
  594MOL0     H81910   9.815   2.219   2.660  3.2824  0.4641  2.5672
  594MOL0     H81911  10.017   2.364   2.709 -1.2079 -0.5601 -0.0253
  594MOL0     H81912  10.010   2.419   2.545  4.0814 -0.1073  2.3641
  594MOL0     H81913   9.776   2.502   2.580 -0.4765 -0.6309  0.4393
  594MOL0     H81914   9.899   2.578   2.682 -0.3411  1.0683 -2.6426
  594MOL0     H81915   9.684   2.373   2.770  0.7372 -2.0073 -2.2558
  594MOL0     H81916   9.836   2.407   2.870 -0.4608  1.7730  0.9655
  594MOL0     H81917   9.779   2.659   2.832  0.1547  0.5761  0.6091
  594MOL0     H81918   9.702   2.580   2.964  1.9641 -0.5603 -0.1031
  594MOL0     H81919   9.603   2.602   2.680 -0.1690 -0.9472 -0.2952
  594MOL0     H81920   9.507   2.517   2.803 -0.0287  1.2248  4.9240
  594MOL0     H81921   9.307   2.659   2.896 -0.1864 -0.1226 -2.6348
  594MOL0     H81922   9.226   3.033   2.908  1.1664  1.1636  2.7230
  594MOL0     H81923   9.245   2.956   3.059  0.8995  0.0799 -0.0826
  594MOL0     H81924   9.108   2.787   2.975 -0.6970  1.8629  1.5149
  594MOL0     H81925   9.030   2.933   2.922 -1.9853 -2.4742  0.7499
  594MOL0     H81926   9.179   2.757   2.747  1.9732  2.2019  2.0204
  594MOL0     H81927   9.010   2.779   2.750  1.2474 -0.8688 -2.9111
  594MOL0     H81928   9.234   2.979   2.651 -0.8467  0.7531 -2.1326
  594MOL0     H81929   9.105   2.896   2.559  0.9062 -0.1028 -1.3267
  594MOL0     H81930   8.898   3.277   2.690  1.1972 -0.0303 -0.5289
  594MOL0     H81931   8.595   3.388   2.529 -3.0889 -0.6980  2.5819
  594MOL0     H81932   8.747   3.438   2.607  1.0512 -0.5523  4.3540
  594MOL0     H81933   8.610   3.386   2.697 -0.3226  0.3834 -0.8985
  594MOL0     H81934   8.398   3.173   2.243 -0.2925  0.1793 -1.5226
  594MOL0     H81935   8.185   3.220   2.118 -0.6110  0.9810  0.7750
  594MOL0     H81936   7.918   3.303   2.124 -1.1088  0.8952 -1.1745
  594MOL0     H81937   7.976   3.172   2.017  0.7937  0.3506  0.8394
  594MOL0     H81938   7.753   3.234   1.948  4.6987  0.5421 -0.8097
  594MOL0     H81939   7.766   3.067   2.015  0.3565 -0.2036  2.3494
  594MOL0     H81940   7.692   3.181   2.243  1.4025  2.1224 -0.4164
  594MOL0     H81941   7.571   3.133   2.106  0.1424  0.1823 -2.0019
  594MOL0     H81942   7.549   3.364   2.049  0.8657 -1.2946 -0.3947
  594MOL0     H81943   7.691   3.419   2.135 -1.7573  3.3682 -0.7090
  594MOL0     H81944   7.448   3.289   2.272 -0.9208  0.8800 -0.9205
  594MOL0     H81945   7.573   3.398   2.342 -0.0882 -1.1371  0.6980
  594MOL0     H81946   7.348   3.452   2.151  2.0926 -0.3458 -0.1614
  594MOL0     H81947   7.445   3.578   2.209 -2.1815  1.3031 -0.4539
  594MOL0     H81948   7.375   3.571   2.420  0.2729  2.6813 -3.5195
  594MOL0     H81949   7.346   3.398   2.429 -1.5473  2.7085  4.7048
  594MOL0     H81950   7.130   3.520   2.444  0.5996  3.8713  0.7835
  594MOL0     H81951   7.134   3.446   2.277 -0.7068  1.6088 -1.5589
  594MOL0     H81952   7.983   2.967   2.391  0.3912  0.5466 -2.1192
  594MOL0     H81953   8.202   2.902   2.501 -2.3990 -0.5218  0.2996
  594MOL0     H81954   8.659   2.901   2.485  0.8802  0.1428  0.4735
  594MOL0     H81955   8.879   2.865   2.569  2.3035  0.3529  2.1105
  594MOL0     H81956   9.567   2.124   2.669 -2.9328  0.0224  0.3988
  594MOL0     H81957   9.404   2.282   2.576 -0.8655 -2.1844  0.6152
  594MOL0     H81958   9.279   2.470   2.175 -0.3621 -0.0537  0.7052
  594MOL0     H81959   9.147   2.599   2.018 -0.0371 -0.0202  0.6942
  594MOL0     H81960   8.865   2.657   1.792 -2.4186  0.5421  1.9942
  594MOL0     H81961   9.018   2.575   1.811 -0.3725 -0.4267 -1.7352
  594MOL0     H81962   8.878   2.357   1.841 -4.1508 -2.5529 -0.0560
  594MOL0     H81963   8.886   2.435   1.684 -0.9843  1.8445 -0.1717
  594MOL0     H81964   8.657   2.488   1.882 -1.0586 -0.7206  1.0991
  594MOL0     H81965   8.668   2.553   1.709  3.1478 -0.3559 -1.7620
  594MOL0     H81966   8.638   2.282   1.809  2.0490  0.5350 -0.9418
  594MOL0     H81967   8.650   2.328   1.639  0.9904 -1.2122  1.1934
  594MOL0     H81968   8.244   2.352   1.782 -1.0532  1.2435 -1.1384
  594MOL0     H81969   8.798   2.394   2.109 -0.6796  0.2486  1.3649
  594MOL0     H81970   8.863   2.237   2.386 -1.5484  0.7626  0.1299
  594MOL0     H81971   8.800   2.194   2.230  0.6395  2.3942 -1.2614
  594MOL0     H81972   8.944   2.113   2.281  1.2524  0.3907 -1.8288
  595MOL0     O81973   6.731   1.221  11.404 -0.6466 -0.4953  0.3722
  595MOL0     C81974   6.689   1.336  11.377  0.2176  0.6459 -0.0624
  595MOL0     O81975   6.761   1.456  11.399  0.4810 -0.0860 -0.2787
  595MOL0     C81976   6.885   1.456  11.455 -0.1121  0.1732  0.3290
  595MOL0     C81977   6.930   1.373  11.561  0.5459  0.5981 -0.1222
  595MOL0     C81978   7.060   1.376  11.604  0.1466  0.3121  0.0703
  595MOL0     C81979   7.153   1.474  11.558 -0.9141  0.5625  0.0344
  595MOL0     O81980   7.278   1.494  11.611 -0.2057 -0.2096 -0.1605
  595MOL0     C81981   7.330   1.386  11.686 -0.9885 -0.2134  0.0173
  595MOL0     C81982   7.479   1.353  11.642  0.3031 -0.1719  0.2677
  595MOL0     C81983   7.479   1.314  11.486 -0.6204  1.4633  0.2841
  595MOL0     C81984   7.456   1.158  11.474  0.3930 -1.1286 -0.0317
  595MOL0     C81985   7.463   1.095  11.336  0.2362 -1.2786  0.1931
  595MOL0     C81986   7.612   1.096  11.286 -0.1110  0.3926 -0.1841
  595MOL0     C81987   7.631   0.986  11.179  0.6223  0.6280 -0.4593
  595MOL0     C81988   7.770   0.959  11.129  0.7632 -0.0999  0.7603
  595MOL0     N81989   7.823   1.056  11.029 -0.1657  0.4967 -0.3369
  595MOL0     C81990   7.849   1.188  11.063 -0.2110 -0.3872  0.4482
  595MOL0     C81991   7.910   1.242  10.954  0.4678  0.9362  0.7540
  595MOL0     C81992   7.965   1.386  10.921 -0.1978  0.9481 -0.6053
  595MOL0     C81993   8.087   1.391  10.831  0.4798  0.0878 -0.1577
  595MOL0     C81994   8.205   1.319  10.885 -0.1686 -0.4031  0.2504
  595MOL0     C81995   8.309   1.286  10.775  0.0839 -0.3348 -0.5266
  595MOL0     O81996   8.407   1.212  10.840  0.3581 -0.6937  0.3508
  595MOL0     C81997   8.535   1.197  10.786  0.4122  0.5489 -0.6221
  595MOL0     C81998   8.623   1.121  10.864 -0.1763 -0.2822  0.5223
  595MOL0     C81999   8.757   1.096  10.824  0.1123 -0.1671 -0.4706
  595MOL0     C82000   8.837   1.015  10.924 -0.1226 -0.5755 -0.8124
  595MOL0     C82001   8.800   1.148  10.697 -0.4994  0.1683  0.0173
  595MOL0     C82002   8.928   1.137  10.648 -0.0099 -0.6170  0.9527
  595MOL0     O82003   8.981   1.250  10.570 -0.3200 -0.0344 -0.0131
  595MOL0     C82004   9.106   1.240  10.523 -0.9501 -0.6063  1.1398
  595MOL0     C82005   9.213   1.316  10.576  0.2771  0.1930  0.2483
  595MOL0     C82006   9.342   1.302  10.532 -0.5282  0.5791  0.4403
  595MOL0     C82007   9.376   1.203  10.434 -0.4059 -0.0086  0.3431
  595MOL0     O82008   9.502   1.226  10.373  0.2222  0.3880 -1.1123
  595MOL0     C82009   9.575   1.118  10.307  0.5714  0.0689  0.0365
  595MOL0     C82010   9.724   1.142  10.302  0.0816 -0.2508 -0.2043
  595MOL0     C82011   9.805   1.013  10.263 -0.2704  0.1216 -0.3330
  595MOL0     C82012   9.951   1.046  10.265 -0.6491  0.7168  0.3709
  595MOL0     C82013  10.027   0.936  10.188  0.1163 -0.9585  0.3225
  595MOL0     C82014  10.181   0.963  10.208 -0.7730 -0.0498 -0.4497
  595MOL0     C82015  10.277   0.873  10.122  0.0221 -0.0621  0.0039
  595MOL0     C82016  10.417   0.913  10.136 -1.3404 -0.6369 -0.0102
  595MOL0    Cl82017  10.525   0.801  10.055  0.1291 -0.4028 -0.3226
  595MOL0     C82018   9.278   1.126  10.374  0.2796  0.3043 -0.1411
  595MOL0     C82019   9.141   1.136  10.430  0.3699 -0.4199  0.3262
  595MOL0     O82020   9.000   1.047  10.680 -0.3529 -0.2666  0.0434
  595MOL0     C82021   8.706   1.224  10.621  0.0251  0.0641  0.0135
  595MOL0     C82022   8.576   1.243  10.663 -0.2740  0.0026  0.1056
  595MOL0     N82023   7.930   1.139  10.860 -0.7191  0.2288 -0.5046
  595MOL0     N82024   7.887   1.035  10.911 -0.5884 -0.2622  1.1185
  595MOL0     C82025   7.103   1.554  11.456 -1.1355  0.3774  0.0509
  595MOL0     C82026   6.982   1.539  11.402 -0.1559 -0.5313  0.4556
  595MOL0     C82027   6.546   1.348  11.325 -0.2703 -0.2474 -0.7250
  595MOL0     C82028   6.462   1.242  11.335  0.1367  0.0163 -1.0216
  595MOL0     C82029   6.325   1.244  11.297  0.0044  0.6630 -0.6039
  595MOL0     C82030   6.269   1.360  11.242 -1.0802 -0.3029 -0.0152
  595MOL0     O82031   6.136   1.369  11.219 -0.5197 -0.0016  0.2260
  595MOL0     C82032   6.091   1.296  11.097  0.8969  0.2853 -0.6495
  595MOL0     C82033   6.111   1.368  10.958 -0.7799  0.5227 -0.4221
  595MOL0     C82034   6.041   1.504  10.974  0.0057  1.1769 -0.7122
  595MOL0     C82035   6.059   1.577  10.842 -0.4577 -0.2989 -0.2187
  595MOL0     C82036   5.985   1.703  10.840  0.8312  0.6399 -0.0979
  595MOL0     C82037   5.934   1.812  10.845  0.4734 -0.2322 -0.6842
  595MOL0     C82038   6.363   1.464  11.212 -0.5084  0.4241 -0.6283
  595MOL0     C82039   6.498   1.462  11.254  0.7454 -0.2232  0.1469
  595MOL0     C82040   6.583   1.590  11.230 -0.1921  0.4952  0.1474
  595MOL0     H82041   6.861   1.301  11.605  1.2911 -0.4048 -0.5601
  595MOL0     H82042   7.084   1.315  11.691 -0.9720  2.2985  1.8930
  595MOL0     H82043   7.278   1.292  11.667  0.8515 -1.1558 -0.5996
  595MOL0     H82044   7.320   1.412  11.791 -5.3204  4.3943 -1.1002
  595MOL0     H82045   7.537   1.445  11.646 -0.3984  0.5738 -3.0079
  595MOL0     H82046   7.520   1.275  11.705  0.5303 -0.1700  0.1224
  595MOL0     H82047   7.408   1.369  11.424 -1.0050 -0.8600 -1.4791
  595MOL0     H82048   7.578   1.339  11.447 -0.4644 -1.1841 -1.2742
  595MOL0     H82049   7.524   1.102  11.539  0.6163  0.4859  1.2034
  595MOL0     H82050   7.355   1.139  11.512  0.7619 -2.2748  0.4196
  595MOL0     H82051   7.394   1.151  11.273 -0.6792 -2.4920  0.0889
  595MOL0     H82052   7.433   0.991  11.342 -0.9016 -0.9152  1.0807
  595MOL0     H82053   7.634   1.187  11.229  0.7761  0.0262 -0.4557
  595MOL0     H82054   7.683   1.085  11.368 -0.5491 -0.1488  0.1293
  595MOL0     H82055   7.566   1.012  11.095  0.0070 -2.9736 -1.2518
  595MOL0     H82056   7.587   0.896  11.222 -0.8255  0.6094 -1.9250
  595MOL0     H82057   7.836   0.967  11.216  0.6870 -1.9740  1.0210
  595MOL0     H82058   7.771   0.855  11.095 -2.4523  0.3268 -0.9751
  595MOL0     H82059   7.821   1.251  11.147 -1.2404 -1.0418  0.6068
  595MOL0     H82060   7.985   1.440  11.014  1.3870  0.7375 -0.7950
  595MOL0     H82061   7.886   1.446  10.874 -2.5537  0.1061  1.9601
  595MOL0     H82062   8.068   1.347  10.733  1.5926 -3.0351  0.9099
  595MOL0     H82063   8.120   1.494  10.817  2.4720 -0.3084  1.1627
  595MOL0     H82064   8.246   1.383  10.964  2.2265 -1.8217  0.2451
  595MOL0     H82065   8.168   1.233  10.943 -0.4827 -1.0166 -0.8327
  595MOL0     H82066   8.274   1.217  10.698  0.4219 -1.6660  0.4691
  595MOL0     H82067   8.340   1.382  10.733  2.5611 -0.5802  0.5929
  595MOL0     H82068   8.589   1.093  10.963  0.5499  2.3585  1.6137
  595MOL0     H82069   8.831   0.908  10.899 -1.3983 -1.4644  2.7652
  595MOL0     H82070   8.789   1.043  11.018 -0.0937 -1.0443 -0.6550
  595MOL0     H82071   8.939   1.056  10.925  0.4640 -1.9826 -0.1693
  595MOL0     H82072   9.200   1.381  10.662  1.5846  2.3684 -1.1037
  595MOL0     H82073   9.418   1.375  10.558 -0.9192  1.7228 -1.3431
  595MOL0     H82074   9.566   1.029  10.371  2.2890 -0.3002 -0.1857
  595MOL0     H82075   9.538   1.107  10.205 -3.7212 -2.2803  1.6094
  595MOL0     H82076   9.746   1.218  10.226  0.9852 -0.1251  0.1732
  595MOL0     H82077   9.759   1.182  10.398 -1.1464 -1.2239  0.6826
  595MOL0     H82078   9.779   0.981  10.162  0.4106 -1.9305  0.1006
  595MOL0     H82079   9.784   0.937  10.339 -1.3423  0.5802 -0.1625
  595MOL0     H82080   9.987   1.057  10.367  3.1627  1.1257 -0.8618
  595MOL0     H82081   9.967   1.138  10.208  2.8715 -0.3955 -0.6687
  595MOL0     H82082  10.000   0.837  10.226 -2.5326 -0.0386  1.0838
  595MOL0     H82083  10.001   0.950  10.083  2.4408  1.2125 -0.0542
  595MOL0     H82084  10.199   0.963  10.316  0.8301 -0.4275 -0.6930
  595MOL0     H82085  10.204   1.066  10.179 -1.4244 -0.1982 -1.5099
  595MOL0     H82086  10.243   0.858  10.020 -0.4572 -0.9413  0.2785
  595MOL0     H82087  10.268   0.771  10.161 -0.0850  0.7197  2.1697
  595MOL0     H82088  10.446   0.903  10.241  0.0215 -0.6718 -0.3657
  595MOL0     H82089  10.429   1.018  10.107 -2.4560 -0.0480  1.5828
  595MOL0     H82090   9.292   1.050  10.298 -1.2887  1.6292 -1.8489
  595MOL0     H82091   9.060   1.072  10.397  0.6062  0.1930 -1.5933
  595MOL0     H82092   8.732   1.263  10.523  3.4604 -0.6855  0.5210
  595MOL0     H82093   8.509   1.313  10.613 -3.1313 -0.3683  3.1396
  595MOL0     H82094   7.177   1.614  11.404 -1.3552  0.6699  0.0790
  595MOL0     H82095   6.959   1.612  11.325  0.0102  0.6265  1.4698
  595MOL0     H82096   6.504   1.155  11.384  0.6027 -0.1560 -1.7136
  595MOL0     H82097   6.265   1.157  11.323  1.2988  0.9353  4.4662
  595MOL0     H82098   6.136   1.196  11.105  0.7390  0.2494 -0.1787
  595MOL0     H82099   5.982   1.294  11.107  0.9727 -0.6150  0.1677
  595MOL0     H82100   6.060   1.295  10.894  0.5722 -2.6756  1.8666
  595MOL0     H82101   6.215   1.378  10.927 -0.6247 -0.9944 -0.4854
  595MOL0     H82102   5.937   1.496  11.005  0.1627  3.4797  0.6413
  595MOL0     H82103   6.088   1.563  11.053 -2.4953  3.1733 -0.6246
  595MOL0     H82104   6.026   1.515  10.759  0.8548 -0.0808 -0.9307
  595MOL0     H82105   6.164   1.604  10.825 -0.0034 -1.9372 -0.2558
  595MOL0     H82106   5.890   1.909  10.852  0.1920 -0.3014 -1.3902
  595MOL0     H82107   6.325   1.555  11.167  0.1621 -0.2859 -2.7345
  595MOL0     H82108   6.611   1.636  11.325  3.3897  0.3330 -0.7081
  595MOL0     H82109   6.676   1.573  11.175  2.3803  0.0666  4.1967
  595MOL0     H82110   6.525   1.666  11.177 -1.9267 -1.9789 -1.7471
  596MOL0     O82111   8.374  11.129   8.801 -0.2910  0.7955 -0.2825
  596MOL0     C82112   8.372  11.249   8.827  0.2182 -0.2796  0.2516
  596MOL0     O82113   8.482  11.323   8.816 -0.0334 -0.3742 -0.7419
  596MOL0     C82114   8.577  11.316   8.713  0.7586 -0.1829  0.6902
  596MOL0     C82115   8.695  11.397   8.729 -0.1242  0.3120  0.1470
  596MOL0     C82116   8.784  11.413   8.617 -0.1609 -0.1889 -0.3813
  596MOL0     C82117   8.761  11.350   8.500 -0.4875  0.0531 -0.3930
  596MOL0     O82118   8.848  11.384   8.405 -0.1568 -0.5936 -0.2917
  596MOL0     C82119   8.864  11.299   8.295  0.5904 -0.4098  0.0096
  596MOL0     C82120   8.949  11.369   8.179  0.3583 -0.3808 -0.0057
  596MOL0     C82121   9.068  11.274   8.139 -0.2746  0.3935 -0.0348
  596MOL0     C82122   9.116  11.299   7.997 -0.3956  0.1561 -1.1344
  596MOL0     C82123   9.225  11.204   7.948 -0.3556  0.0327 -0.6278
  596MOL0     C82124   9.300  11.245   7.816 -0.2102 -1.0315 -0.5232
  596MOL0     C82125   9.400  11.137   7.771  0.2741  0.1887 -0.1015
  596MOL0     C82126   9.468  11.174   7.645 -0.3623  0.0559 -0.5829
  596MOL0     N82127   9.551  11.070   7.592 -0.3381  0.4139  0.0314
  596MOL0     C82128   9.490  10.970   7.516 -0.7986 -0.5493 -0.2650
  596MOL0     C82129   9.585  10.879   7.497  0.0973 -0.4881 -0.2899
  596MOL0     C82130   9.549  10.749   7.430 -0.0665 -0.1368 -0.1921
  596MOL0     C82131   9.463  10.674   7.528 -0.7267 -0.0743  0.2898
  596MOL0     C82132   9.446  10.527   7.474 -0.6717  0.0985  0.0368
  596MOL0     C82133   9.354  10.540   7.351  0.3680  0.0246 -0.4593
  596MOL0     O82134   9.306  10.414   7.307  0.5487 -0.3800 -0.6902
  596MOL0     C82135   9.218  10.352   7.390 -0.5336 -0.5623  0.3941
  596MOL0     C82136   9.198  10.222   7.363  0.2713 -0.0418  0.2204
  596MOL0     C82137   9.095  10.146   7.424  0.0873  0.5917 -0.3605
  596MOL0     C82138   9.093  10.004   7.364  0.3012 -0.5518  0.2391
  596MOL0     C82139   9.008  10.210   7.517 -0.0690 -0.4156  1.0725
  596MOL0     C82140   8.886  10.149   7.584 -0.9409  0.1481  0.3521
  596MOL0     O82141   8.806  10.240   7.651  0.2905 -0.3785 -0.2076
  596MOL0     C82142   8.677  10.196   7.693  0.3607  1.0417 -0.5484
  596MOL0     C82143   8.649  10.138   7.817  0.1188 -0.1759 -0.3845
  596MOL0     C82144   8.519  10.119   7.849  0.1785  0.0507 -0.0026
  596MOL0     C82145   8.405  10.151   7.765 -0.5507 -0.6229 -0.6211
  596MOL0     O82146   8.273  10.139   7.800  0.4052 -0.1090 -0.3818
  596MOL0     C82147   8.187  10.065   7.705 -0.2139 -1.0446 -0.4232
  596MOL0     C82148   8.043  10.120   7.693  0.5576  0.5255  0.1915
  596MOL0     C82149   7.968  10.098   7.824  0.1683  0.5556  0.2543
  596MOL0     C82150   7.895   9.958   7.830 -0.0148 -0.3250 -0.2891
  596MOL0     C82151   7.750   9.964   7.780  1.4795 -1.0072  0.5642
  596MOL0     C82152   7.675   9.836   7.820  0.5632 -0.3022  0.4689
  596MOL0     C82153   7.524   9.853   7.795  0.0840  0.1776 -0.0575
  596MOL0     C82154   7.454   9.724   7.843 -0.8734 -0.6271  0.2576
  596MOL0    Cl82155   7.514   9.576   7.770 -0.1178 -0.2010  0.1677
  596MOL0     C82156   8.439  10.202   7.637  0.5821 -0.5057 -1.4455
  596MOL0     C82157   8.575  10.212   7.603  0.6040 -0.1807 -0.1309
  596MOL0     O82158   8.862  10.032   7.554  0.1620  0.5002 -0.1600
  596MOL0     C82159   9.035  10.347   7.551 -0.3275  1.2032  0.8221
  596MOL0     C82160   9.134  10.418   7.485 -0.4269  0.0033  0.6789
  596MOL0     N82161   9.701  10.918   7.570  1.1206  0.0684  0.0328
  596MOL0     N82162   9.682  11.032   7.626  0.0599 -0.5396 -0.3114
  596MOL0     C82163   8.655  11.262   8.487  0.1589 -0.2702  0.5272
  596MOL0     C82164   8.563  11.249   8.592  0.5105 -0.0354 -0.1757
  596MOL0     C82165   8.248  11.308   8.896 -0.8447 -0.3459 -0.1424
  596MOL0     C82166   8.268  11.392   9.003  0.2613 -0.5281  0.0259
  596MOL0     C82167   8.163  11.475   9.045 -0.8506  0.8120 -0.0186
  596MOL0     C82168   8.033  11.451   8.994  0.1369 -0.1136  0.2583
  596MOL0     O82169   7.913  11.507   9.036 -0.2548 -1.2563 -0.4925
  596MOL0     C82170   7.924  11.639   9.081  1.1281  0.3352  0.0994
  596MOL0     C82171   7.780  11.689   9.056 -0.1204  0.3117  0.3922
  596MOL0     C82172   7.663  11.637   9.146  1.1193  0.1044 -0.6160
  596MOL0     C82173   7.526  11.674   9.086 -0.4703 -0.1610  0.3120
  596MOL0     C82174   7.501  11.804   9.136  0.2781  0.4963  1.2224
  596MOL0     C82175   7.491  11.922   9.165  0.2619  0.5021 -0.4266
  596MOL0     C82176   8.016  11.355   8.898  0.1537  0.1609 -1.0100
  596MOL0     C82177   8.120  11.287   8.843  0.0440 -0.1699  0.1475
  596MOL0     C82178   8.091  11.188   8.729 -0.4837 -0.0665 -0.4440
  596MOL0     H82179   8.713  11.446   8.824 -0.0015 -0.8976  0.7739
  596MOL0     H82180   8.865  11.485   8.625 -1.3164  1.2870 -1.5043
  596MOL0     H82181   8.768  11.264   8.257 -0.2029  2.3950 -0.8112
  596MOL0     H82182   8.920  11.216   8.339 -0.1789 -0.7979  0.2697
  596MOL0     H82183   8.890  11.387   8.089  0.3308  1.6815  0.3781
  596MOL0     H82184   8.978  11.473   8.199 -2.6391  0.7971 -1.1780
  596MOL0     H82185   9.152  11.276   8.210 -0.4274  0.3634  0.1469
  596MOL0     H82186   9.035  11.170   8.135 -3.2857  1.1841  1.3261
  596MOL0     H82187   9.034  11.289   7.926 -2.1727  1.0290  0.6844
  596MOL0     H82188   9.150  11.403   7.987 -0.4317  0.5884  2.2462
  596MOL0     H82189   9.180  11.105   7.939  2.9576 -1.6434 -0.2755
  596MOL0     H82190   9.305  11.206   8.023  0.5246  1.1437 -1.5537
  596MOL0     H82191   9.215  11.257   7.748 -2.3266 -0.9023  2.0031
  596MOL0     H82192   9.345  11.343   7.834  2.1998 -2.5347  2.3164
  596MOL0     H82193   9.345  11.045   7.748 -0.2077  0.4014  0.1895
  596MOL0     H82194   9.473  11.121   7.851 -2.4184  0.0195  2.4893
  596MOL0     H82195   9.392  11.203   7.571 -3.5033 -1.3549  1.8507
  596MOL0     H82196   9.534  11.255   7.677  0.7837 -1.1390  0.1239
  596MOL0     H82197   9.389  10.973   7.476 -0.1336 -1.3625 -2.1170
  596MOL0     H82198   9.636  10.693   7.396 -1.8222 -1.4820 -2.7641
  596MOL0     H82199   9.491  10.774   7.341 -1.1400  0.4737  0.6535
  596MOL0     H82200   9.518  10.662   7.622  0.5422  0.1259 -0.4072
  596MOL0     H82201   9.366  10.717   7.554 -2.2384 -3.1236  0.1120
  596MOL0     H82202   9.546  10.488   7.454 -1.3818 -1.7136 -0.1328
  596MOL0     H82203   9.401  10.454   7.541 -3.0844  1.3169 -0.1711
  596MOL0     H82204   9.279  10.621   7.352  1.0048  0.6250  0.3830
  596MOL0     H82205   9.417  10.569   7.266  2.6213 -0.8927  0.8170
  596MOL0     H82206   9.281  10.180   7.306  1.7967  2.0237  0.7767
  596MOL0     H82207   9.157   9.997   7.276  1.4387  2.3459  0.7439
  596MOL0     H82208   8.992   9.972   7.335 -0.0636 -0.9543  1.8549
  596MOL0     H82209   9.131   9.934   7.439 -0.7286 -1.8339 -0.3816
  596MOL0     H82210   8.724  10.118   7.893  0.0714  3.4123  0.8149
  596MOL0     H82211   8.484  10.061   7.935  1.0441  1.4979  1.3672
  596MOL0     H82212   8.230  10.062   7.605 -0.3536  0.8651 -0.5800
  596MOL0     H82213   8.189   9.959   7.731 -1.4136 -1.3108 -1.2927
  596MOL0     H82214   8.049  10.227   7.670 -2.6266  0.8155  0.3166
  596MOL0     H82215   7.985  10.074   7.612 -1.1861  0.4217  1.4554
  596MOL0     H82216   7.893  10.176   7.841 -0.3137 -0.3788  2.9416
  596MOL0     H82217   8.028  10.112   7.914 -0.1940  3.9650  0.0631
  596MOL0     H82218   7.882   9.920   7.932 -0.6011  1.5623  0.3839
  596MOL0     H82219   7.956   9.887   7.773 -4.3171 -2.6537 -2.4566
  596MOL0     H82220   7.698  10.048   7.827 -1.9955 -3.5434  1.6848
  596MOL0     H82221   7.747   9.973   7.671  1.2653 -0.0262  0.6382
  596MOL0     H82222   7.693   9.827   7.927 -0.5076 -0.1266  0.6785
  596MOL0     H82223   7.710   9.745   7.770  1.4397 -0.6073  1.5983
  596MOL0     H82224   7.503   9.863   7.688  2.2187  0.3858 -0.4953
  596MOL0     H82225   7.493   9.939   7.854  1.7211  0.8696 -0.1550
  596MOL0     H82226   7.353   9.739   7.805  0.7748  1.9815 -3.6782
  596MOL0     H82227   7.469   9.715   7.951  3.1099 -1.2164 -0.1862
  596MOL0     H82228   8.364  10.236   7.566  0.2730 -2.2447 -2.0238
  596MOL0     H82229   8.598  10.254   7.506 -1.1994  0.8432 -0.1535
  596MOL0     H82230   8.978  10.407   7.620  1.6586  0.3056  3.3847
  596MOL0     H82231   9.135  10.525   7.502  1.6246  0.1425 -0.0798
  596MOL0     H82232   8.646  11.198   8.400  0.8822 -0.7904  0.8261
  596MOL0     H82233   8.472  11.192   8.577 -2.5797  4.2860  0.5326
  596MOL0     H82234   8.364  11.394   9.053 -0.2649  2.4093  1.1059
  596MOL0     H82235   8.187  11.546   9.123 -1.4512  1.6343 -0.5630
  596MOL0     H82236   7.954  11.641   9.186 -1.2484 -0.5748  0.8704
  596MOL0     H82237   7.998  11.685   9.015  0.9545 -0.1979 -0.4891
  596MOL0     H82238   7.756  11.676   8.950  0.6047  0.9715  0.1360
  596MOL0     H82239   7.772  11.797   9.069  0.3430  0.2213  1.5619
  596MOL0     H82240   7.660  11.527   9.150 -0.4766  0.1684  2.0159
  596MOL0     H82241   7.681  11.687   9.241  3.1840  0.4271 -1.1313
  596MOL0     H82242   7.456  11.594   9.109 -1.2054  0.2330 -0.5128
  596MOL0     H82243   7.524  11.687   8.977  2.0125 -0.8509  0.1067
  596MOL0     H82244   7.480  12.027   9.188 -1.7742  0.5164 -1.1971
  596MOL0     H82245   7.922  11.337   8.846  0.1004  0.4923 -1.0295
  596MOL0     H82246   8.132  11.091   8.760 -1.3735 -0.4790 -0.5306
  596MOL0     H82247   7.985  11.168   8.712  0.1676 -1.8479 -2.8752
  596MOL0     H82248   8.136  11.229   8.638  3.2730  0.6337  1.5285
  597MOL0     O82249   9.590   4.389   5.273 -0.7732 -0.5093  0.7263
  597MOL0     C82250   9.507   4.356   5.353 -0.1723 -0.6952  0.5381
  597MOL0     O82251   9.509   4.239   5.421  0.2286 -1.1899 -0.2950
  597MOL0     C82252   9.620   4.159   5.404 -1.0510  0.3760  0.3863
  597MOL0     C82253   9.748   4.194   5.457  0.9344  0.1726 -0.2241
  597MOL0     C82254   9.863   4.112   5.442  0.2748 -0.0083  0.0804
  597MOL0     C82255   9.855   3.987   5.371 -0.0992 -0.7129 -1.0402
  597MOL0     O82256   9.956   3.905   5.351 -0.2406 -0.5106 -0.4647
  597MOL0     C82257  10.078   3.927   5.421 -0.5923  0.4445  0.2150
  597MOL0     C82258  10.167   3.799   5.423  0.4450  0.0886 -0.2465
  597MOL0     C82259  10.189   3.736   5.286  0.0076  0.0615  0.2028
  597MOL0     C82260  10.310   3.644   5.296  0.1349 -0.6085 -0.3691
  597MOL0     C82261  10.341   3.583   5.156 -0.3142  0.8283  0.4898
  597MOL0     C82262  10.483   3.517   5.156 -0.7046 -0.0851  1.2542
  597MOL0     C82263  10.510   3.402   5.054 -0.6727 -0.1665  0.4616
  597MOL0     C82264  10.515   3.458   4.912  0.0750 -0.3927 -0.5736
  597MOL0     N82265  10.652   3.502   4.897  0.0769  0.7237  0.2121
  597MOL0     C82266  10.748   3.431   4.831 -0.0357 -0.6062 -0.2004
  597MOL0     C82267  10.853   3.520   4.819  0.6462 -0.7546  0.0865
  597MOL0     C82268  10.975   3.508   4.738 -0.2586 -0.4472 -0.1212
  597MOL0     C82269  11.108   3.541   4.811  0.3693 -0.7034 -0.0535
  597MOL0     C82270  11.233   3.502   4.720 -0.1980  0.1822  0.2318
  597MOL0     C82271  11.241   3.579   4.588  1.5094 -0.1519 -0.0499
  597MOL0     O82272  11.249   3.716   4.618 -0.0298  0.1091  0.8182
  597MOL0     C82273  11.369   3.770   4.584 -0.0531 -0.5169  0.0157
  597MOL0     C82274  11.470   3.786   4.674  0.4771  0.4895 -0.1346
  597MOL0     C82275  11.596   3.838   4.642 -0.1476 -0.8444 -0.0629
  597MOL0     C82276  11.694   3.857   4.763 -0.2620  0.5333 -0.3935
  597MOL0     C82277  11.621   3.868   4.510  0.0806 -0.0650  0.0773
  597MOL0     C82278  11.741   3.930   4.455  0.3172 -0.3099 -0.4928
  597MOL0     O82279  11.742   3.992   4.333 -0.3210 -0.0414  0.8276
  597MOL0     C82280  11.858   4.046   4.280 -0.1862 -0.3620 -0.7637
  597MOL0     C82281  11.951   3.959   4.220  0.1147 -0.0372  0.6372
  597MOL0     C82282  12.066   4.006   4.170 -0.5576 -0.6406 -0.5371
  597MOL0     C82283  12.103   4.145   4.191 -0.4477  0.5277  0.1189
  597MOL0     O82284  12.213   4.202   4.143  0.3066  0.4258  0.1564
  597MOL0     C82285  12.327   4.134   4.200 -0.0317  0.0294  0.9461
  597MOL0     C82286  12.423   4.128   4.088 -1.1643  0.1916  0.8910
  597MOL0     C82287  12.548   4.064   4.130 -0.5885  0.0650  0.3316
  597MOL0     C82288  12.647   4.064   4.018 -0.0669  0.4756  0.3927
  597MOL0     C82289  12.789   4.041   4.079  0.8839  0.2902 -0.4201
  597MOL0     C82290  12.877   4.043   3.959 -0.8256 -0.0513 -0.6251
  597MOL0     C82291  13.015   3.979   3.995  0.3114 -0.4686 -0.0041
  597MOL0     C82292  13.114   3.984   3.884  0.4850 -0.8743  0.9707
  597MOL0    Cl82293  13.266   3.927   3.957  0.2685  0.2735  0.1325
  597MOL0     C82294  12.003   4.238   4.242 -1.5404  0.8959 -0.0015
  597MOL0     C82295  11.883   4.186   4.291  0.4296 -0.0170 -0.0142
  597MOL0     O82296  11.839   3.908   4.522 -0.4075 -0.4296  0.8765
  597MOL0     C82297  11.525   3.846   4.416 -0.1447 -0.2345 -0.3776
  597MOL0     C82298  11.399   3.803   4.451 -1.0411 -0.1213  0.4843
  597MOL0     N82299  10.814   3.639   4.883  0.5646  0.4519 -0.5753
  597MOL0     N82300  10.693   3.626   4.925  0.7091  0.0141  0.1424
  597MOL0     C82301   9.729   3.948   5.326  0.4403  0.7835  0.0610
  597MOL0     C82302   9.614   4.035   5.341  0.1643 -0.2806  0.7608
  597MOL0     C82303   9.387   4.445   5.375 -0.4428 -0.7769 -0.3205
  597MOL0     C82304   9.317   4.416   5.498  0.5265 -0.1712  0.0405
  597MOL0     C82305   9.220   4.508   5.540 -0.1919 -0.8190  0.1938
  597MOL0     C82306   9.194   4.622   5.462  0.7102 -0.4390 -0.4704
  597MOL0     O82307   9.101   4.715   5.522  0.0081  0.2273  0.1554
  597MOL0     C82308   9.048   4.823   5.451 -0.4021 -0.0494  1.1703
  597MOL0     C82309   8.926   4.864   5.529  0.3018 -0.2150 -0.9378
  597MOL0     C82310   8.804   4.765   5.516 -0.0438  0.3928  0.1896
  597MOL0     C82311   8.693   4.816   5.599  0.6585 -0.0784 -0.4886
  597MOL0     C82312   8.587   4.718   5.602  0.1462  0.0578  0.5232
  597MOL0     C82313   8.492   4.646   5.614  0.0490 -0.3058  0.6434
  597MOL0     C82314   9.265   4.642   5.342 -0.4359 -0.0860 -0.5973
  597MOL0     C82315   9.357   4.553   5.293 -0.4607  0.2816  0.0117
  597MOL0     C82316   9.418   4.572   5.153  0.7905 -0.1486 -1.3275
  597MOL0     H82317   9.754   4.280   5.522  0.6286 -0.1569  0.2479
  597MOL0     H82318   9.958   4.142   5.485 -0.3512  1.6662  0.3934
  597MOL0     H82319  10.059   3.959   5.524 -0.6998  2.3658 -0.3625
  597MOL0     H82320  10.137   3.999   5.364  0.8169 -2.2044 -1.9097
  597MOL0     H82321  10.257   3.814   5.483 -0.0165 -1.6526  0.9662
  597MOL0     H82322  10.108   3.727   5.482  2.5250 -1.3119  0.2147
  597MOL0     H82323  10.095   3.691   5.255 -0.6686 -0.1281  2.3730
  597MOL0     H82324  10.215   3.806   5.206 -1.5446  0.2548 -0.1600
  597MOL0     H82325  10.387   3.702   5.347 -2.1612 -1.5957  4.9557
  597MOL0     H82326  10.277   3.562   5.361 -0.1456 -0.5956 -0.4969
  597MOL0     H82327  10.343   3.657   5.076  2.8581  1.5944  1.1471
  597MOL0     H82328  10.264   3.506   5.151  1.4878 -0.9953 -1.8192
  597MOL0     H82329  10.559   3.594   5.145  0.5737 -1.3729  0.8193
  597MOL0     H82330  10.507   3.469   5.251  1.7920 -0.9182  0.2682
  597MOL0     H82331  10.428   3.330   5.053  0.9790 -2.1082  0.1367
  597MOL0     H82332  10.598   3.347   5.088 -0.0714  2.6799  4.1589
  597MOL0     H82333  10.483   3.384   4.839 -0.9986  2.3580 -3.0821
  597MOL0     H82334  10.454   3.547   4.898  2.0450  0.8668 -1.6002
  597MOL0     H82335  10.739   3.326   4.805  0.0189 -0.3129 -1.4447
  597MOL0     H82336  10.956   3.576   4.654  0.5116  0.7093  0.6186
  597MOL0     H82337  10.971   3.408   4.694  1.7898 -0.8615  0.5627
  597MOL0     H82338  11.112   3.648   4.833  0.2717  0.0209 -3.1750
  597MOL0     H82339  11.105   3.491   4.908 -2.3240 -0.8847 -0.1673
  597MOL0     H82340  11.319   3.514   4.787  0.2891 -0.7751 -0.1965
  597MOL0     H82341  11.227   3.394   4.706  0.0574  0.0516  1.0743
  597MOL0     H82342  11.312   3.541   4.514  0.7097 -2.1500  0.1397
  597MOL0     H82343  11.142   3.583   4.541  0.9841  2.6597  1.0752
  597MOL0     H82344  11.454   3.749   4.775 -0.6903 -1.9489 -1.1180
  597MOL0     H82345  11.750   3.764   4.776 -1.0470  0.2843  1.4808
  597MOL0     H82346  11.644   3.868   4.859  0.7252  0.3660  0.1421
  597MOL0     H82347  11.765   3.937   4.741 -1.3052  1.6778  0.2782
  597MOL0     H82348  11.919   3.856   4.203 -0.9177  0.2806  0.6021
  597MOL0     H82349  12.125   3.931   4.119  0.5323 -2.6612  3.3003
  597MOL0     H82350  12.360   4.197   4.283 -0.4557  1.0214  0.3739
  597MOL0     H82351  12.313   4.031   4.236 -0.4168 -0.0132  0.6817
  597MOL0     H82352  12.372   4.065   4.014 -0.2186 -1.3753  1.5225
  597MOL0     H82353  12.434   4.227   4.042 -0.3200 -0.1686  0.2834
  597MOL0     H82354  12.518   3.970   4.178  0.6747  0.8315  2.8188
  597MOL0     H82355  12.593   4.124   4.210 -0.6119  0.9419 -0.3019
  597MOL0     H82356  12.646   4.157   3.962  2.2549 -0.0658 -0.6526
  597MOL0     H82357  12.617   3.996   3.938  1.2860 -0.4673  0.6552
  597MOL0     H82358  12.816   4.123   4.146 -1.4665  1.0069 -0.2781
  597MOL0     H82359  12.784   3.943   4.128 -3.2296 -0.9465 -2.7937
  597MOL0     H82360  12.884   4.140   3.909 -1.2578 -1.0739 -2.7831
  597MOL0     H82361  12.829   3.969   3.895 -3.1004 -1.9185  2.9273
  597MOL0     H82362  13.003   3.876   4.030 -1.9181 -0.2233  0.0835
  597MOL0     H82363  13.060   4.041   4.074 -1.3639  1.3728 -0.4023
  597MOL0     H82364  13.137   4.083   3.842 -0.0891 -0.5187  1.4759
  597MOL0     H82365  13.098   3.921   3.796  0.7254  0.2659  0.0805
  597MOL0     H82366  12.013   4.346   4.237 -1.3953  0.9280  0.9051
  597MOL0     H82367  11.808   4.252   4.332  0.2792  1.6053 -2.6700
  597MOL0     H82368  11.547   3.880   4.315 -0.3927  0.9141 -0.0564
  597MOL0     H82369  11.316   3.794   4.382  0.6495 -0.8316 -1.5776
  597MOL0     H82370   9.704   3.847   5.294 -2.7197  0.7831  2.0123
  597MOL0     H82371   9.514   4.003   5.314 -1.0140  1.3817  2.7623
  597MOL0     H82372   9.346   4.325   5.550  1.6038 -1.9374 -3.3266
  597MOL0     H82373   9.163   4.496   5.632 -1.7600  0.0899 -0.6135
  597MOL0     H82374   9.118   4.902   5.423 -1.3445  0.0884 -1.0453
  597MOL0     H82375   8.999   4.800   5.356 -1.3261  1.0615  1.3402
  597MOL0     H82376   8.905   4.968   5.502  1.9426  0.1656 -0.8818
  597MOL0     H82377   8.949   4.868   5.636  2.0593 -3.0963 -1.0890
  597MOL0     H82378   8.771   4.776   5.412 -0.6383  1.3565  0.4714
  597MOL0     H82379   8.830   4.660   5.535 -0.6012  0.3743  0.8660
  597MOL0     H82380   8.657   4.915   5.569  2.2109  1.0058  1.0661
  597MOL0     H82381   8.736   4.830   5.698  0.4165  0.6297 -0.4794
  597MOL0     H82382   8.400   4.592   5.625  1.1044 -2.0031  1.5515
  597MOL0     H82383   9.232   4.729   5.286  0.1943 -0.3321 -1.3692
  597MOL0     H82384   9.527   4.573   5.163  0.7126 -3.1200  1.2164
  597MOL0     H82385   9.380   4.486   5.098 -2.2593  1.1966 -1.5055
  597MOL0     H82386   9.391   4.664   5.100 -0.0283 -0.0852 -0.8139
  598MOL0     O82387   0.742   1.220  10.326 -0.1765 -0.3357 -0.1619
  598MOL0     C82388   0.683   1.132  10.271 -0.0677  0.1693  0.5410
  598MOL0     O82389   0.733   1.056  10.172  0.0584  0.7862  0.1646
  598MOL0     C82390   0.873   1.041  10.146 -0.3988 -0.0786 -0.6543
  598MOL0     C82391   0.912   0.972  10.029  0.1288  0.6442 -0.3547
  598MOL0     C82392   1.046   0.964   9.995 -0.1058 -0.1104  0.6260
  598MOL0     C82393   1.150   1.011  10.075  0.6435  0.4526  0.2817
  598MOL0     O82394   1.282   1.006  10.034  0.0313 -0.1425  1.4032
  598MOL0     C82395   1.378   0.955  10.132 -0.2479  0.3563  0.3293
  598MOL0     C82396   1.429   0.814  10.086  0.5492  0.0118 -0.3222
  598MOL0     C82397   1.519   0.729  10.174  0.3383 -0.4164 -0.0260
  598MOL0     C82398   1.550   0.780  10.317 -0.1578 -1.0315 -0.0097
  598MOL0     C82399   1.642   0.692  10.399  0.9116 -0.3062 -0.0403
  598MOL0     C82400   1.781   0.689  10.338  0.3833  0.3623  0.6449
  598MOL0     C82401   1.877   0.611  10.423 -0.4709  0.0805 -0.4825
  598MOL0     C82402   2.013   0.615  10.357  0.0737  0.1444  0.0103
  598MOL0     N82403   2.118   0.656  10.450 -0.3029  0.2639  0.3985
  598MOL0     C82404   2.168   0.777  10.466 -0.5631  0.5201  0.6755
  598MOL0     C82405   2.290   0.752  10.533  0.1252 -0.4426  0.0955
  598MOL0     C82406   2.390   0.855  10.574 -0.2653 -0.0178  0.4977
  598MOL0     C82407   2.471   0.818  10.694  0.8756 -0.0081  0.5157
  598MOL0     C82408   2.593   0.911  10.714 -0.2696 -0.0302  0.3136
  598MOL0     C82409   2.672   0.889  10.842  0.3030  0.4951  0.0116
  598MOL0     O82410   2.734   1.013  10.885  0.6936  0.1032  0.0079
  598MOL0     C82411   2.872   1.014  10.897 -0.6852 -0.2232 -0.0023
  598MOL0     C82412   2.918   1.109  10.994 -0.6332 -0.3643  0.0761
  598MOL0     C82413   3.058   1.124  11.022 -0.0284  0.8942  1.0879
  598MOL0     C82414   3.094   1.228  11.118  0.4712  0.1042  0.3281
  598MOL0     C82415   3.153   1.032  10.965 -0.1575  0.1245 -0.4001
  598MOL0     C82416   3.298   1.046  10.989 -0.4450  0.5743  0.5400
  598MOL0     O82417   3.379   1.010  10.887 -0.0481  0.3294 -0.3788
  598MOL0     C82418   3.514   1.019  10.912 -0.8421 -0.7056 -0.4733
  598MOL0     C82419   3.573   1.142  10.893 -0.3522  0.0616  0.0385
  598MOL0     C82420   3.706   1.174  10.912  0.0819  1.0106  0.2412
  598MOL0     C82421   3.800   1.079  10.959 -0.0248  0.3750 -0.3911
  598MOL0     O82422   3.935   1.112  10.987 -0.2660  0.4677 -0.1950
  598MOL0     C82423   3.957   1.164  11.120  0.4645 -0.6080  0.0675
  598MOL0     C82424   4.075   1.080  11.180  0.6548 -0.1641  0.5127
  598MOL0     C82425   4.205   1.099  11.106 -0.7052  0.3665  0.0454
  598MOL0     C82426   4.269   1.233  11.149  0.2496 -0.3051  0.2972
  598MOL0     C82427   4.399   1.246  11.078 -0.4646  0.2089 -0.3101
  598MOL0     C82428   4.482   1.362  11.143  0.0864 -0.7238 -0.0333
  598MOL0     C82429   4.612   1.405  11.062 -0.2752  0.2492 -0.3909
  598MOL0     C82430   4.666   1.534  11.120  0.2298  0.1786  0.4425
  598MOL0    Cl82431   4.717   1.507  11.296  0.4447 -0.2148 -0.1167
  598MOL0     C82432   3.741   0.946  10.977 -0.7278 -0.9515 -0.2323
  598MOL0     C82433   3.608   0.918  10.948  1.1534 -0.7429  0.5280
  598MOL0     O82434   3.345   1.066  11.099 -0.2302  0.1339  0.0059
  598MOL0     C82435   3.103   0.956  10.864 -0.2890  0.6124 -0.0030
  598MOL0     C82436   2.972   0.941  10.828  0.1132  0.6551  0.3549
  598MOL0     N82437   2.304   0.621  10.569  0.4799  0.0923 -0.4196
  598MOL0     N82438   2.193   0.564  10.518 -0.4774  0.1576 -0.3010
  598MOL0     C82439   1.108   1.072  10.194 -0.0557  0.1804 -0.1737
  598MOL0     C82440   0.973   1.089  10.230  0.6823 -0.1047  0.0877
  598MOL0     C82441   0.536   1.131  10.321  0.1991  0.7451  0.3220
  598MOL0     C82442   0.496   1.199  10.439 -0.8120 -0.4971  0.0855
  598MOL0     C82443   0.365   1.197  10.481  0.4348  0.4087  1.0597
  598MOL0     C82444   0.273   1.123  10.407 -0.1169  0.6653  1.1535
  598MOL0     O82445   0.145   1.106  10.457  0.3852  0.0505  0.4656
  598MOL0     C82446   0.080   0.984  10.426 -0.1954  0.2382 -0.0305
  598MOL0     C82447  -0.034   0.953  10.517 -0.2003 -1.1046  0.0266
  598MOL0     C82448  -0.153   1.042  10.491  0.5144  0.8730  0.0937
  598MOL0     C82449  -0.141   1.187  10.546  0.3598  0.4805  0.7656
  598MOL0     C82450  -0.272   1.235  10.575  0.7135  0.1119  0.6324
  598MOL0     C82451  -0.384   1.284  10.593  0.3563 -0.6341 -0.1515
  598MOL0     C82452   0.306   1.059  10.285  0.4236 -0.2917 -0.6635
  598MOL0     C82453   0.441   1.063  10.244 -0.3710  1.0337  0.8012
  598MOL0     C82454   0.467   1.015  10.102 -0.3815  0.0345  0.3940
  598MOL0     H82455   0.837   0.920   9.971  1.4435 -0.0453 -1.4955
  598MOL0     H82456   1.089   0.914   9.909  2.1685  0.0465  1.5876
  598MOL0     H82457   1.331   0.943  10.230  1.2065 -2.6598  0.7834
  598MOL0     H82458   1.465   1.021  10.139  1.0091 -1.1657 -0.1868
  598MOL0     H82459   1.339   0.752  10.087  0.1361  0.5464  1.8050
  598MOL0     H82460   1.470   0.827   9.986  0.0208 -0.3006 -0.5798
  598MOL0     H82461   1.473   0.630  10.172 -0.5873 -0.0500  1.4561
  598MOL0     H82462   1.621   0.733  10.134  1.3493  2.3069  2.4361
  598MOL0     H82463   1.590   0.881  10.312 -0.0698 -1.0271  0.6790
  598MOL0     H82464   1.453   0.775  10.367 -1.1647 -0.0147 -1.7688
  598MOL0     H82465   1.600   0.592  10.413 -2.7965  0.8432 -1.6416
  598MOL0     H82466   1.650   0.750  10.491 -0.1961 -0.9201  0.4741
  598MOL0     H82467   1.790   0.648  10.237  1.6932  2.5594 -0.2042
  598MOL0     H82468   1.819   0.791  10.325  1.5516 -0.2519 -1.0960
  598MOL0     H82469   1.842   0.508  10.439  0.8904 -0.2422  0.6439
  598MOL0     H82470   1.881   0.656  10.523 -3.0820 -2.2562  0.8465
  598MOL0     H82471   2.040   0.516  10.321  2.1780 -0.4784  2.9639
  598MOL0     H82472   2.020   0.675  10.265 -1.6360  0.9775  0.3746
  598MOL0     H82473   2.131   0.872  10.430  2.1290  1.6002  0.5217
  598MOL0     H82474   2.348   0.955  10.588 -2.7693 -1.0038  0.6429
  598MOL0     H82475   2.462   0.866  10.492 -0.8664  0.5489  0.0264
  598MOL0     H82476   2.399   0.812  10.775 -1.8706 -0.3763 -1.8085
  598MOL0     H82477   2.515   0.722  10.666 -0.6925 -0.1342 -1.8738
  598MOL0     H82478   2.666   0.896  10.635 -2.0046  0.8509 -1.5429
  598MOL0     H82479   2.554   1.014  10.710  3.3064  1.6730  2.8699
  598MOL0     H82480   2.595   0.857  10.913 -0.0759 -1.2538 -1.1047
  598MOL0     H82481   2.749   0.814  10.822 -2.1887 -1.6918 -2.2824
  598MOL0     H82482   2.850   1.168  11.054 -1.6095 -2.6074  1.2936
  598MOL0     H82483   3.020   1.308  11.125  4.2085  3.9381  0.4356
  598MOL0     H82484   3.186   1.285  11.100  0.9320 -0.5138  0.6488
  598MOL0     H82485   3.108   1.176  11.213  0.4917 -2.0273 -0.7874
  598MOL0     H82486   3.501   1.218  10.864  0.0020 -0.4135 -2.2575
  598MOL0     H82487   3.738   1.273  10.882  2.9420 -0.2599 -1.3486
  598MOL0     H82488   3.982   1.269  11.135  1.0569 -0.6757 -0.3995
  598MOL0     H82489   3.863   1.147  11.173 -0.7349  0.2759 -1.7028
  598MOL0     H82490   4.091   1.099  11.287  1.1931  1.1222  0.2247
  598MOL0     H82491   4.049   0.974  11.172  0.9747 -0.3786  1.9743
  598MOL0     H82492   4.192   1.089  10.998 -0.1325 -2.1231  0.1274
  598MOL0     H82493   4.264   1.009  11.127 -4.2907 -2.1687  0.2754
  598MOL0     H82494   4.294   1.235  11.255 -0.1408  1.3288  0.3846
  598MOL0     H82495   4.185   1.303  11.138 -1.0876 -1.7330  1.0410
  598MOL0     H82496   4.454   1.152  11.080  1.0524  1.0683  1.0003
  598MOL0     H82497   4.380   1.261  10.971  2.9209 -2.2593 -1.4237
  598MOL0     H82498   4.518   1.325  11.240  1.6226 -0.4915 -0.4912
  598MOL0     H82499   4.408   1.439  11.164  1.7613  0.8475  0.3296
  598MOL0     H82500   4.594   1.430  10.958 -1.8052  1.1399  0.0569
  598MOL0     H82501   4.693   1.331  11.069 -0.0497  0.5251 -0.0610
  598MOL0     H82502   4.595   1.617  11.123  2.4802  2.3409 -1.5489
  598MOL0     H82503   4.751   1.571  11.062 -0.8290  1.2703 -0.4465
  598MOL0     H82504   3.808   0.868  11.013 -0.1315 -0.5845 -0.5207
  598MOL0     H82505   3.576   0.814  10.954 -1.9070  0.0824  0.0594
  598MOL0     H82506   3.173   0.899  10.803  0.9968  2.9382 -0.8484
  598MOL0     H82507   2.946   0.871  10.749 -3.0854  0.4597  1.4161
  598MOL0     H82508   1.189   1.123  10.245  0.1319  1.9104 -2.0925
  598MOL0     H82509   0.953   1.140  10.324 -2.3408  0.6899 -0.8725
  598MOL0     H82510   0.572   1.247  10.501 -0.3406 -0.4507 -0.5184
  598MOL0     H82511   0.321   1.227  10.576 -1.1239 -0.1334  0.5471
  598MOL0     H82512   0.030   0.973  10.329 -3.5218  0.6807  1.4797
  598MOL0     H82513   0.146   0.897  10.429  1.0029  0.9183 -2.9027
  598MOL0     H82514   0.003   0.967  10.620 -0.0902 -1.5063  0.0439
  598MOL0     H82515  -0.075   0.855  10.492 -1.2015 -0.2826 -1.7418
  598MOL0     H82516  -0.171   1.048  10.383 -3.6732 -1.4978  0.4548
  598MOL0     H82517  -0.245   1.001  10.533  0.9936 -1.2041 -0.7565
  598MOL0     H82518  -0.093   1.246  10.467 -1.2495  1.6770  0.6347
  598MOL0     H82519  -0.083   1.204  10.637  3.2406 -0.7519 -0.7124
  598MOL0     H82520  -0.478   1.334  10.610  1.5837  1.3768  1.0642
  598MOL0     H82521   0.229   0.999  10.239 -0.2645  0.2159 -0.1919
  598MOL0     H82522   0.551   0.947  10.085 -1.1423 -0.7630 -0.2682
  598MOL0     H82523   0.381   0.958  10.067 -1.6923  3.1858 -1.9766
  598MOL0     H82524   0.473   1.094  10.026  5.2326 -1.0963 -0.8255
  599MOL0     O82525   1.375   4.175   9.280 -0.2282  0.4615  0.4791
  599MOL0     C82526   1.407   4.127   9.170  0.6508  0.4028  0.6856
  599MOL0     O82527   1.532   4.083   9.141 -0.2433 -0.1398 -0.6957
  599MOL0     C82528   1.614   4.019   9.230 -0.5917 -1.3941  0.1996
  599MOL0     C82529   1.563   3.947   9.343 -0.9749  0.7289  0.3607
  599MOL0     C82530   1.649   3.863   9.413  0.3207  0.4263  0.8357
  599MOL0     C82531   1.785   3.864   9.391  1.3751  0.5514  0.2772
  599MOL0     O82532   1.864   3.793   9.477  0.2480  0.4082 -0.5390
  599MOL0     C82533   1.994   3.748   9.434 -0.6061 -0.7342  0.1464
  599MOL0     C82534   2.065   3.676   9.551  0.1760 -0.1444 -0.5595
  599MOL0     C82535   2.199   3.627   9.510 -0.1686 -0.2233  0.1576
  599MOL0     C82536   2.267   3.551   9.633  1.0310 -0.3307 -0.7041
  599MOL0     C82537   2.408   3.509   9.599  0.2631 -0.4570 -0.1748
  599MOL0     C82538   2.478   3.395   9.678  0.2245  0.1278  0.4335
  599MOL0     C82539   2.450   3.407   9.832  0.4115  0.3047 -0.4272
  599MOL0     C82540   2.512   3.528   9.894 -0.6805 -0.6727 -0.2627
  599MOL0     N82541   2.659   3.536   9.882  0.2132  0.4710  0.3284
  599MOL0     C82542   2.729   3.607   9.792  1.2061  0.5788  0.6826
  599MOL0     C82543   2.855   3.558   9.798  0.0065 -0.1255  0.4847
  599MOL0     C82544   2.960   3.577   9.694 -0.2903  0.9794 -0.2310
  599MOL0     C82545   3.053   3.693   9.714  0.5126  0.0193  0.0941
  599MOL0     C82546   3.150   3.737   9.599 -0.6084  0.0544 -0.3355
  599MOL0     C82547   3.273   3.645   9.578  0.8126  0.4414 -0.1980
  599MOL0     O82548   3.381   3.725   9.529  1.2716  0.1433 -0.7284
  599MOL0     C82549   3.496   3.661   9.493 -0.3655  0.6671 -0.4018
  599MOL0     C82550   3.520   3.523   9.490  0.7384  0.7398  1.2164
  599MOL0     C82551   3.646   3.469   9.445  0.2961 -0.4139  0.3368
  599MOL0     C82552   3.662   3.321   9.451 -0.1014 -0.4475 -0.5371
  599MOL0     C82553   3.760   3.562   9.411  0.3744  0.0557  0.8272
  599MOL0     C82554   3.899   3.521   9.390 -0.0095  0.5530 -0.6178
  599MOL0     O82555   3.961   3.571   9.274  0.7695 -0.2976  0.2979
  599MOL0     C82556   4.092   3.542   9.235  0.2728 -0.4862  0.0496
  599MOL0     C82557   4.162   3.430   9.270  0.1133 -0.2364  0.3513
  599MOL0     C82558   4.294   3.406   9.230  0.4329  0.3386  0.0604
  599MOL0     C82559   4.365   3.495   9.143  0.2168 -1.2948 -0.0320
  599MOL0     O82560   4.495   3.475   9.099 -0.4013  0.2647 -0.0845
  599MOL0     C82561   4.567   3.358   9.139 -0.4524 -0.2626 -0.0740
  599MOL0     C82562   4.705   3.347   9.085 -0.7594  0.3471 -0.0454
  599MOL0     C82563   4.780   3.479   9.076  0.3426 -0.0734  0.3379
  599MOL0     C82564   4.792   3.510   8.933  0.0140  0.4844  0.3929
  599MOL0     C82565   4.858   3.638   8.908 -0.1740 -0.2932 -0.2608
  599MOL0     C82566   4.856   3.679   8.767 -0.2556  0.3349  0.3442
  599MOL0     C82567   4.915   3.819   8.735  0.4063 -0.8382 -0.0503
  599MOL0     C82568   4.897   3.850   8.590 -0.4645  0.1468 -0.1251
  599MOL0    Cl82569   5.008   3.759   8.481 -0.3056  0.3783  0.2331
  599MOL0     C82570   4.292   3.610   9.100  0.0812 -0.2679 -0.2771
  599MOL0     C82571   4.156   3.630   9.151 -0.7301 -0.1410  0.7169
  599MOL0     O82572   3.944   3.432   9.464 -0.1943 -0.3661  0.3603
  599MOL0     C82573   3.731   3.695   9.422 -0.3654 -0.7275 -0.0460
  599MOL0     C82574   3.597   3.742   9.449 -0.4930 -0.0375 -0.2295
  599MOL0     N82575   2.857   3.455   9.887 -0.3114  0.0400 -0.8226
  599MOL0     N82576   2.740   3.442   9.949 -0.1337 -0.6412 -0.5345
  599MOL0     C82577   1.836   3.941   9.293 -0.6249  0.8161 -0.1782
  599MOL0     C82578   1.752   4.005   9.204  0.5738 -0.6665 -0.0540
  599MOL0     C82579   1.301   4.105   9.073  0.7924 -0.0276 -0.1407
  599MOL0     C82580   1.343   4.065   8.944  0.3039 -0.5750  0.2124
  599MOL0     C82581   1.252   4.070   8.833 -0.9374  0.6632 -1.0531
  599MOL0     C82582   1.117   4.089   8.856 -0.4992  0.0217  0.0489
  599MOL0     O82583   1.028   4.084   8.749 -0.5224 -0.5474 -0.6638
  599MOL0     C82584   0.984   3.950   8.723  0.0637  1.0519 -0.1406
  599MOL0     C82585   0.963   3.924   8.576  0.0645  0.1291 -0.3464
  599MOL0     C82586   0.817   3.985   8.537 -0.6124  0.3650  0.3083
  599MOL0     C82587   0.762   3.934   8.397 -0.4310  0.2388 -0.6840
  599MOL0     C82588   0.743   3.791   8.411 -1.0076 -0.0579 -0.8060
  599MOL0     C82589   0.745   3.669   8.415 -0.1623  0.0039 -0.1171
  599MOL0     C82590   1.075   4.110   8.987  0.4560 -0.0993 -0.7901
  599MOL0     C82591   1.162   4.126   9.097 -0.0646 -0.7150  0.7535
  599MOL0     C82592   1.096   4.176   9.226 -0.0283  0.1887 -0.7173
  599MOL0     H82593   1.459   3.949   9.374 -1.5576  0.8848 -1.4797
  599MOL0     H82594   1.618   3.803   9.499  1.7367  0.9565  1.7474
  599MOL0     H82595   2.063   3.830   9.412  2.8211 -2.8198  2.3042
  599MOL0     H82596   1.979   3.678   9.351 -2.6477 -3.8267  2.8540
  599MOL0     H82597   2.055   3.728   9.646 -0.8131 -2.6828  0.8214
  599MOL0     H82598   2.001   3.590   9.573  0.4722 -0.7596 -1.9738
  599MOL0     H82599   2.179   3.559   9.426 -1.3026 -0.4309  0.5701
  599MOL0     H82600   2.269   3.704   9.475 -0.2095 -1.2217 -2.3988
  599MOL0     H82601   2.273   3.619   9.718  0.5609 -1.7149  0.4735
  599MOL0     H82602   2.211   3.462   9.663 -0.5064  0.1083 -2.0944
  599MOL0     H82603   2.471   3.598   9.604 -0.0933 -0.2527  1.1056
  599MOL0     H82604   2.408   3.482   9.493 -1.5185  2.3284 -0.9811
  599MOL0     H82605   2.430   3.299   9.655 -0.0335 -0.0004  1.4660
  599MOL0     H82606   2.585   3.379   9.660  0.4511 -0.3142  2.0033
  599MOL0     H82607   2.499   3.319   9.876  1.3627  0.2623 -1.5267
  599MOL0     H82608   2.342   3.403   9.850  0.4757 -1.3417 -0.2584
  599MOL0     H82609   2.477   3.618   9.843 -0.0487  0.9795  2.0311
  599MOL0     H82610   2.492   3.535  10.002 -0.4539 -2.1448 -0.1005
  599MOL0     H82611   2.680   3.670   9.719  0.4712 -1.5611 -0.7578
  599MOL0     H82612   2.920   3.598   9.594  0.9933  2.0462 -0.5524
  599MOL0     H82613   3.027   3.491   9.696 -0.3177  0.8229 -2.6094
  599MOL0     H82614   2.989   3.781   9.720  0.4365 -0.1177  1.5120
  599MOL0     H82615   3.123   3.682   9.798  0.8632 -1.3215 -0.3444
  599MOL0     H82616   3.090   3.745   9.508 -0.7500  1.4393 -0.1568
  599MOL0     H82617   3.194   3.837   9.610  2.3775 -1.0228 -1.4723
  599MOL0     H82618   3.293   3.585   9.667 -0.2764 -1.7968 -1.3750
  599MOL0     H82619   3.246   3.573   9.500  2.2348  1.9670 -2.2343
  599MOL0     H82620   3.445   3.458   9.533 -0.1326  2.8421  3.1093
  599MOL0     H82621   3.572   3.265   9.476  1.3534 -2.6830 -0.0180
  599MOL0     H82622   3.731   3.299   9.533  1.4168  0.9206 -1.3784
  599MOL0     H82623   3.696   3.291   9.352  0.5541  1.2379 -0.8577
  599MOL0     H82624   4.125   3.358   9.343 -1.1111  1.7534  1.7774
  599MOL0     H82625   4.349   3.321   9.269  2.3441  1.2850 -0.4321
  599MOL0     H82626   4.575   3.356   9.248 -0.0571 -0.0515 -0.0991
  599MOL0     H82627   4.514   3.266   9.113  1.2121 -1.5401  0.8931
  599MOL0     H82628   4.761   3.284   9.155 -2.3384  0.5316  1.4856
  599MOL0     H82629   4.696   3.305   8.985  0.3472 -1.0645  0.4238
  599MOL0     H82630   4.880   3.493   9.118  0.6958  3.1191 -1.2556
  599MOL0     H82631   4.726   3.557   9.131 -1.3035 -3.3132  3.8369
  599MOL0     H82632   4.690   3.502   8.896  0.8354 -5.4760 -1.8410
  599MOL0     H82633   4.851   3.431   8.885 -0.9060 -0.9227  1.4757
  599MOL0     H82634   4.803   3.712   8.967  0.0217  0.0146 -0.4648
  599MOL0     H82635   4.961   3.640   8.947 -0.6189 -0.5129  0.9811
  599MOL0     H82636   4.750   3.688   8.742  0.1998 -0.2896 -2.0410
  599MOL0     H82637   4.902   3.603   8.703 -1.0063  0.2508 -0.1009
  599MOL0     H82638   5.023   3.820   8.754 -0.0021  0.3280  2.7458
  599MOL0     H82639   4.873   3.899   8.797 -0.0850 -1.1003 -0.0478
  599MOL0     H82640   4.922   3.955   8.576  2.1919 -0.2436  1.0543
  599MOL0     H82641   4.792   3.839   8.560 -1.2140  0.4875  2.1670
  599MOL0     H82642   4.349   3.668   9.029 -3.3108 -0.3892 -3.3435
  599MOL0     H82643   4.106   3.714   9.104 -1.2563 -0.4217  0.7679
  599MOL0     H82644   3.799   3.777   9.398  0.2277 -1.6423 -1.6379
  599MOL0     H82645   3.561   3.844   9.456 -1.4629 -0.5055  3.3057
  599MOL0     H82646   1.944   3.945   9.277 -0.7181  1.1736 -0.7694
  599MOL0     H82647   1.788   4.046   9.110  2.1706 -3.1199 -0.6103
  599MOL0     H82648   1.449   4.061   8.918 -0.1062 -0.6833 -1.5866
  599MOL0     H82649   1.291   4.035   8.738  0.4349 -0.9659  0.0512
  599MOL0     H82650   1.061   3.884   8.763  1.3854  1.0408 -2.4973
  599MOL0     H82651   0.890   3.948   8.779  1.3105  2.9541  2.1676
  599MOL0     H82652   0.964   3.820   8.543  0.2726 -0.2323  0.7879
  599MOL0     H82653   1.045   3.970   8.520 -1.1272  2.0401 -0.6107
  599MOL0     H82654   0.738   3.950   8.605 -0.6355 -0.0171  0.0907
  599MOL0     H82655   0.824   4.094   8.534  1.7751  0.2345 -1.2050
  599MOL0     H82656   0.834   3.952   8.317  3.3705 -1.8470  1.9952
  599MOL0     H82657   0.661   3.966   8.368 -1.1263  0.9990  2.1951
  599MOL0     H82658   0.748   3.563   8.424 -0.7624 -0.0886 -0.9269
  599MOL0     H82659   0.967   4.118   8.997  0.4107  0.0911 -1.4197
  599MOL0     H82660   1.122   4.103   9.303  3.0365 -3.3346 -4.5964
  599MOL0     H82661   1.129   4.272   9.266  0.3114 -0.7613  1.4032
  599MOL0     H82662   0.987   4.163   9.220  0.2964 -3.0940 -2.0826
  600MOL0     O82663   7.573   4.124   8.951 -1.2993 -0.0219 -0.3427
  600MOL0     C82664   7.504   4.026   8.927  0.3387 -0.0756  0.0719
  600MOL0     O82665   7.548   3.894   8.939 -0.2572  0.2986  0.4576
  600MOL0     C82666   7.641   3.869   9.038 -0.0161  1.0461 -0.2664
  600MOL0     C82667   7.665   3.946   9.149 -0.8875  0.0740  0.8820
  600MOL0     C82668   7.759   3.899   9.248  0.6487  0.1420  0.5301
  600MOL0     C82669   7.831   3.781   9.229 -0.1022  0.3961  0.1629
  600MOL0     O82670   7.936   3.746   9.313  0.4309  0.5937  0.6033
  600MOL0     C82671   7.963   3.816   9.436  0.1666 -0.0720 -0.4492
  600MOL0     C82672   8.034   3.949   9.425 -0.0557  0.1554  0.2902
  600MOL0     C82673   8.168   3.924   9.360  0.1039 -0.0822  0.2266
  600MOL0     C82674   8.264   4.047   9.353 -0.2988 -0.1626 -0.2803
  600MOL0     C82675   8.405   4.009   9.300  1.1353 -0.9964  0.2300
  600MOL0     C82676   8.507   4.131   9.308  0.1292  0.4746  0.5691
  600MOL0     C82677   8.483   4.255   9.222  1.0354  0.5460  0.3282
  600MOL0     C82678   8.482   4.219   9.072 -0.0947 -0.2411  0.2493
  600MOL0     N82679   8.610   4.170   9.020  0.2839  0.4721  0.5302
  600MOL0     C82680   8.709   4.265   8.987 -0.0230  0.6521 -0.3492
  600MOL0     C82681   8.766   4.217   8.868  0.4817 -0.4252  0.2406
  600MOL0     C82682   8.884   4.279   8.792 -0.4822  0.3398 -0.2325
  600MOL0     C82683   8.973   4.187   8.713  0.4475  0.5272 -0.9899
  600MOL0     C82684   9.014   4.065   8.803 -0.3685  0.2115 -0.0536
  600MOL0     C82685   9.146   4.015   8.739 -0.5964 -0.2082  0.6137
  600MOL0     O82686   9.256   4.108   8.770  0.0382 -0.6664  0.1226
  600MOL0     C82687   9.392   4.079   8.754  1.3090 -0.0315  0.5633
  600MOL0     C82688   9.437   3.963   8.696 -0.4219 -0.0042 -0.3921
  600MOL0     C82689   9.580   3.941   8.673  0.5802  0.2925 -0.1974
  600MOL0     C82690   9.623   3.800   8.630 -0.5209 -0.3788 -0.1578
  600MOL0     C82691   9.677   4.049   8.710  0.3539  0.2223  1.3521
  600MOL0     C82692   9.827   4.042   8.691 -0.5144 -0.1084 -0.0941
  600MOL0     O82693   9.891   4.156   8.670 -0.2824  0.0980 -0.1271
  600MOL0     C82694  10.029   4.159   8.631 -0.1314  0.4182  0.3049
  600MOL0     C82695  10.126   4.056   8.642  0.0295 -0.8712  0.6039
  600MOL0     C82696  10.260   4.064   8.596  0.5912  0.0895 -0.5948
  600MOL0     C82697  10.297   4.179   8.533  0.3151 -0.3976  0.2370
  600MOL0     O82698  10.425   4.203   8.495 -0.0129  0.6887 -0.2680
  600MOL0     C82699  10.529   4.106   8.511  1.2811  0.1562 -0.2083
  600MOL0     C82700  10.522   3.984   8.409  0.4125  0.2327  0.4606
  600MOL0     C82701  10.619   3.871   8.448 -0.1104 -0.7161  0.5071
  600MOL0     C82702  10.760   3.923   8.407 -0.9959 -0.3100  0.0313
  600MOL0     C82703  10.863   3.819   8.456  0.6336 -0.2562 -0.5205
  600MOL0     C82704  10.872   3.686   8.372 -0.4093 -0.9927  0.1812
  600MOL0     C82705  10.984   3.594   8.415  0.6496 -0.1462  0.1227
  600MOL0     C82706  10.976   3.465   8.341  0.3551 -0.2774  0.7269
  600MOL0    Cl82707  11.078   3.337   8.409  0.2444  0.1907  0.2981
  600MOL0     C82708  10.208   4.282   8.522 -0.0416 -0.8441  1.3105
  600MOL0     C82709  10.073   4.279   8.569  0.2861  0.2935  0.4277
  600MOL0     O82710   9.873   3.925   8.690 -0.7194 -0.4518 -0.3312
  600MOL0     C82711   9.621   4.165   8.763 -0.3501 -0.2241 -0.1993
  600MOL0     C82712   9.487   4.175   8.793 -0.2158 -0.2714 -0.0600
  600MOL0     N82713   8.715   4.091   8.849 -0.9361 -0.3475  0.3617
  600MOL0     N82714   8.619   4.078   8.928  0.2228  0.5259  0.5746
  600MOL0     C82715   7.822   3.720   9.110  0.3678  0.3778  0.1986
  600MOL0     C82716   7.729   3.762   9.014  0.4477  0.1022  0.7142
  600MOL0     C82717   7.367   4.042   8.873 -1.2137 -0.9645 -0.2417
  600MOL0     C82718   7.314   3.930   8.808 -0.5481  0.2537 -0.3173
  600MOL0     C82719   7.192   3.941   8.738  0.1563 -0.9492 -0.1388
  600MOL0     C82720   7.116   4.061   8.737 -0.3503 -0.6776 -0.2069
  600MOL0     O82721   7.001   4.073   8.666  0.1770 -0.4735  0.3313
  600MOL0     C82722   6.887   4.035   8.749 -0.0595 -0.4129 -0.5116
  600MOL0     C82723   6.795   3.941   8.670 -0.1756  0.2210  0.7011
  600MOL0     C82724   6.681   3.870   8.751  0.8134  0.2271 -0.0733
  600MOL0     C82725   6.560   3.832   8.662 -0.3232 -0.3480  0.4862
  600MOL0     C82726   6.466   3.762   8.758  0.5542 -0.2527 -0.1249
  600MOL0     C82727   6.383   3.695   8.822 -0.0836  0.0628 -0.2060
  600MOL0     C82728   7.170   4.178   8.806  0.1343  0.5923 -0.9180
  600MOL0     C82729   7.287   4.162   8.876  0.4233 -0.2680  0.2800
  600MOL0     C82730   7.331   4.290   8.946 -0.2144  0.3412  0.5351
  600MOL0     H82731   7.598   4.029   9.166  0.1697  1.0706  0.3520
  600MOL0     H82732   7.775   3.973   9.326 -1.6565 -0.6387  1.8429
  600MOL0     H82733   8.021   3.749   9.499  1.4231 -0.4557 -1.9293
  600MOL0     H82734   7.865   3.833   9.483  1.5323 -0.2915  2.6785
  600MOL0     H82735   7.980   4.018   9.361  1.5222 -1.1697 -2.6495
  600MOL0     H82736   8.040   3.990   9.527 -1.5981 -0.9992  0.9033
  600MOL0     H82737   8.221   3.851   9.422 -1.5601 -0.8720  0.7757
  600MOL0     H82738   8.156   3.876   9.262  1.9809  2.4101 -1.3421
  600MOL0     H82739   8.215   4.133   9.305 -1.3564 -0.3918  0.3527
  600MOL0     H82740   8.261   4.081   9.457 -0.5991 -1.3396  0.1115
  600MOL0     H82741   8.393   3.963   9.201  4.1132 -0.9631 -0.2468
  600MOL0     H82742   8.458   3.940   9.366  1.3192 -1.7151 -0.6361
  600MOL0     H82743   8.510   4.162   9.413 -1.7828 -0.2760  0.8846
  600MOL0     H82744   8.604   4.090   9.280  1.1538  1.2796  2.7085
  600MOL0     H82745   8.564   4.326   9.238  1.4654  0.0282  0.4854
  600MOL0     H82746   8.396   4.308   9.262  0.2776 -2.7924  3.6986
  600MOL0     H82747   8.401   4.148   9.050 -2.3023  2.3810 -0.6989
  600MOL0     H82748   8.449   4.310   9.021  2.5604  1.7538  1.8875
  600MOL0     H82749   8.745   4.353   9.038 -1.3520 -0.1344  2.1420
  600MOL0     H82750   8.946   4.336   8.862  0.9703  1.4713 -2.3177
  600MOL0     H82751   8.849   4.358   8.726 -1.3523  0.3457  0.2306
  600MOL0     H82752   8.921   4.150   8.624 -0.4204 -1.3936  0.2558
  600MOL0     H82753   9.057   4.249   8.680 -1.0245  4.3302  1.6543
  600MOL0     H82754   9.040   4.098   8.904  1.5068 -0.3508 -0.3092
  600MOL0     H82755   8.942   3.983   8.799  1.5995 -1.6618  0.5724
  600MOL0     H82756   9.154   3.913   8.779 -2.5018 -0.3127  0.7974
  600MOL0     H82757   9.137   4.014   8.630 -0.3384  3.0069  0.4584
  600MOL0     H82758   9.369   3.882   8.673  0.6244 -0.5180 -1.7615
  600MOL0     H82759   9.666   3.759   8.721  0.4176  3.1447  1.1665
  600MOL0     H82760   9.692   3.797   8.545 -0.4249 -3.9465 -0.0951
  600MOL0     H82761   9.534   3.740   8.610  0.3780 -1.7157 -0.2817
  600MOL0     H82762  10.104   3.968   8.700 -2.8926  0.0523  1.0741
  600MOL0     H82763  10.328   3.985   8.626 -1.6854 -1.6367  0.4136
  600MOL0     H82764  10.619   4.158   8.480  0.5815  0.9739 -0.9191
  600MOL0     H82765  10.532   4.070   8.615 -0.0585 -0.4736 -0.3701
  600MOL0     H82766  10.424   3.942   8.431  0.0818  0.0859 -1.2128
  600MOL0     H82767  10.530   4.008   8.303  0.5014 -0.3317  0.3331
  600MOL0     H82768  10.604   3.774   8.400 -1.1973 -0.2411 -0.1602
  600MOL0     H82769  10.609   3.846   8.553 -1.8803  2.1900  1.1512
  600MOL0     H82770  10.782   4.017   8.458  0.6240 -0.1108 -0.9486
  600MOL0     H82771  10.763   3.947   8.301  1.2552 -1.2968 -0.1980
  600MOL0     H82772  10.962   3.865   8.448  0.6520 -0.4309 -1.3375
  600MOL0     H82773  10.833   3.800   8.560  0.7118 -0.3487 -0.5149
  600MOL0     H82774  10.876   3.708   8.265 -1.3452 -0.1054  0.3019
  600MOL0     H82775  10.782   3.625   8.384 -0.6381 -0.9249 -1.0758
  600MOL0     H82776  10.964   3.577   8.522 -4.5589  1.7451 -0.2427
  600MOL0     H82777  11.081   3.640   8.393  0.3191  0.2543 -0.5440
  600MOL0     H82778  11.012   3.481   8.239  0.5550 -2.1081  0.4727
  600MOL0     H82779  10.872   3.434   8.326 -1.1366  3.3071  2.5951
  600MOL0     H82780  10.244   4.375   8.479 -2.7844  0.2634  1.2333
  600MOL0     H82781  10.007   4.365   8.565  0.7364  0.7253  1.8197
  600MOL0     H82782   9.688   4.250   8.773 -0.0138 -0.3871 -1.0465
  600MOL0     H82783   9.468   4.275   8.831  1.9585 -0.0249  0.5276
  600MOL0     H82784   7.887   3.639   9.078  1.1739  0.9837  0.2433
  600MOL0     H82785   7.697   3.697   8.934 -1.1674  0.9042  0.6782
  600MOL0     H82786   7.361   3.832   8.801 -1.6039 -0.2925 -0.0327
  600MOL0     H82787   7.144   3.863   8.680  1.0783 -0.7765 -1.1803
  600MOL0     H82788   6.921   3.991   8.843 -0.4083  0.8888  0.2361
  600MOL0     H82789   6.829   4.124   8.774 -1.5876 -0.8915 -2.1389
  600MOL0     H82790   6.849   3.862   8.616 -1.8718 -0.0004 -0.8008
  600MOL0     H82791   6.753   4.008   8.594 -0.3411 -0.1525  0.4572
  600MOL0     H82792   6.725   3.780   8.794  0.2606  0.2029  0.4493
  600MOL0     H82793   6.650   3.933   8.835  0.9658  0.0437  0.1215
  600MOL0     H82794   6.584   3.755   8.588 -1.7579 -0.2951 -0.0787
  600MOL0     H82795   6.505   3.909   8.606 -0.6019 -0.2465  0.8950
  600MOL0     H82796   6.303   3.647   8.875 -0.7058 -0.6830 -1.7614
  600MOL0     H82797   7.135   4.281   8.806  0.0387  0.6654  2.3906
  600MOL0     H82798   7.256   4.369   8.954 -1.9669 -0.7713 -2.9695
  600MOL0     H82799   7.347   4.253   9.048  2.0804 -0.3064 -0.0132
  600MOL0     H82800   7.412   4.331   8.886  0.5018 -0.4096  0.9658
  601MOL0     O82801   4.078   3.716   5.868 -0.1236  0.0954 -0.4351
  601MOL0     C82802   4.003   3.820   5.882  0.2936  0.2928  0.2909
  601MOL0     O82803   3.989   3.908   5.786  0.0817  0.2533  0.1944
  601MOL0     C82804   4.079   3.914   5.678 -0.1902 -0.1191  0.1222
  601MOL0     C82805   4.214   3.877   5.671  0.2417  0.3967  0.1396
  601MOL0     C82806   4.285   3.881   5.550 -0.1684 -0.5851 -0.1319
  601MOL0     C82807   4.237   3.933   5.429  0.3528 -0.3318 -1.1575
  601MOL0     O82808   4.299   3.944   5.304 -0.1405 -0.1708  0.0119
  601MOL0     C82809   4.433   3.891   5.280  0.5511  0.0534 -0.2400
  601MOL0     C82810   4.487   3.898   5.137 -0.6840 -0.3312 -1.3057
  601MOL0     C82811   4.637   3.861   5.132  0.3850  0.2879 -0.0720
  601MOL0     C82812   4.721   3.955   5.229 -0.8823 -0.2344 -0.3349
  601MOL0     C82813   4.871   3.925   5.205 -0.8485  0.2986 -0.2593
  601MOL0     C82814   4.960   4.021   5.285  0.5001 -0.4113  0.9558
  601MOL0     C82815   4.967   3.974   5.429 -0.0545 -0.3371 -0.6923
  601MOL0     C82816   5.092   4.023   5.496 -0.2057  0.0619  0.2819
  601MOL0     N82817   5.102   3.981   5.631  0.2278  0.2207 -0.5640
  601MOL0     C82818   5.171   3.884   5.691 -0.1175 -0.1858  1.4313
  601MOL0     C82819   5.137   3.883   5.823  0.3849 -0.4190  0.0238
  601MOL0     C82820   5.197   3.794   5.927  0.0258  0.2642  0.4157
  601MOL0     C82821   5.338   3.829   5.969 -0.2267 -0.5053  0.3402
  601MOL0     C82822   5.359   3.900   6.102 -0.3885 -0.7365 -0.1928
  601MOL0     C82823   5.501   3.915   6.143  0.3003 -0.2992  0.5447
  601MOL0     O82824   5.541   3.792   6.204  0.1758  0.1067  0.4589
  601MOL0     C82825   5.665   3.800   6.269  0.3024  0.2132 -0.2466
  601MOL0     C82826   5.688   3.712   6.371 -1.0593  0.1828  0.7139
  601MOL0     C82827   5.795   3.717   6.451 -0.0701  0.4809 -0.0537
  601MOL0     C82828   5.785   3.623   6.572 -0.2783 -0.2951 -0.6216
  601MOL0     C82829   5.902   3.807   6.427  0.4478  0.6054  0.3551
  601MOL0     C82830   6.027   3.808   6.496  0.1145  0.0350  0.0283
  601MOL0     O82831   6.129   3.872   6.429  0.0795 -0.6318  0.8425
  601MOL0     C82832   6.264   3.875   6.472  0.4522 -0.0814  0.3969
  601MOL0     C82833   6.334   3.765   6.526  0.2218 -0.1988 -0.6548
  601MOL0     C82834   6.463   3.786   6.564 -0.3150 -0.0563  0.6721
  601MOL0     C82835   6.532   3.903   6.551 -0.4780 -0.1739  0.5554
  601MOL0     O82836   6.663   3.906   6.599  0.1885 -0.0363  0.5580
  601MOL0     C82837   6.686   3.882   6.742  0.0911 -0.2734  0.4008
  601MOL0     C82838   6.812   3.803   6.759  0.0527 -0.0928 -0.6096
  601MOL0     C82839   6.944   3.869   6.722  0.2660 -0.5925  0.0411
  601MOL0     C82840   7.015   3.909   6.851  0.9292  0.9607  0.0118
  601MOL0     C82841   7.133   3.990   6.793  1.0935  0.7046  0.4796
  601MOL0     C82842   7.237   4.020   6.900  0.1520  0.4270  0.7556
  601MOL0     C82843   7.370   4.107   6.847 -0.1968  0.0873 -0.0044
  601MOL0     C82844   7.497   4.085   6.934  0.4532 -1.0877 -0.0461
  601MOL0    Cl82845   7.620   4.181   6.848 -0.0367 -0.2786 -0.3943
  601MOL0     C82846   6.467   4.010   6.483  0.5132 -0.1085 -0.4011
  601MOL0     C82847   6.328   3.997   6.452  0.4440  0.3616 -0.0477
  601MOL0     O82848   6.035   3.742   6.603  0.3644 -0.7317  0.5120
  601MOL0     C82849   5.886   3.887   6.308 -0.6984  0.0429  0.2386
  601MOL0     C82850   5.765   3.884   6.238  0.0470  0.1463  0.0167
  601MOL0     N82851   5.029   3.968   5.839 -0.2139 -1.0085  0.0164
  601MOL0     N82852   5.011   4.034   5.723 -0.6398  0.2468  0.0431
  601MOL0     C82853   4.097   3.971   5.435 -0.3810 -0.0839 -0.5848
  601MOL0     C82854   4.024   3.965   5.559  0.0668 -0.7389  0.1317
  601MOL0     C82855   3.943   3.832   6.015  0.1535 -1.0134 -0.5071
  601MOL0     C82856   3.874   3.946   6.038 -1.3320  0.2853  0.1831
  601MOL0     C82857   3.799   3.965   6.147 -0.3659 -0.2249 -0.6115
  601MOL0     C82858   3.788   3.871   6.251 -0.7297 -0.0166 -0.2881
  601MOL0     O82859   3.732   3.889   6.378 -0.4159  0.1304 -0.3490
  601MOL0     C82860   3.672   4.018   6.406  0.5687  0.3166  0.4442
  601MOL0     C82861   3.527   4.028   6.365  0.5237  0.5081  1.4115
  601MOL0     C82862   3.461   4.159   6.408 -0.3402  0.5814  0.2879
  601MOL0     C82863   3.512   4.279   6.341  0.7881 -0.1958  0.5306
  601MOL0     C82864   3.434   4.389   6.391 -0.4220 -0.5483  0.0258
  601MOL0     C82865   3.403   4.505   6.426  0.0979  0.3080 -0.1318
  601MOL0     C82866   3.864   3.754   6.233 -0.0939 -0.2940  0.3569
  601MOL0     C82867   3.945   3.734   6.123  0.5357  0.0860  1.0599
  601MOL0     C82868   4.009   3.599   6.105 -0.4155  0.6645  0.5211
  601MOL0     H82869   4.262   3.825   5.754 -0.0050 -2.7802 -1.5826
  601MOL0     H82870   4.386   3.842   5.558 -0.2550 -1.4194 -2.2801
  601MOL0     H82871   4.429   3.787   5.316 -1.7533  0.8174  2.0390
  601MOL0     H82872   4.505   3.929   5.353  0.5211 -0.7926  0.2470
  601MOL0     H82873   4.431   3.831   5.072  0.8503 -0.9009 -2.1066
  601MOL0     H82874   4.478   3.996   5.090 -0.5136 -0.9168 -2.5959
  601MOL0     H82875   4.657   3.757   5.160  1.6136  1.2583  3.1910
  601MOL0     H82876   4.680   3.886   5.035 -0.3990  1.6880 -0.0963
  601MOL0     H82877   4.699   4.062   5.223  0.2341 -0.0864 -2.8657
  601MOL0     H82878   4.708   3.929   5.335  1.0433  0.6261  0.1700
  601MOL0     H82879   4.894   3.938   5.099  3.3262 -0.3429  0.3906
  601MOL0     H82880   4.896   3.819   5.220 -1.5911 -0.3970 -3.2546
  601MOL0     H82881   5.061   4.015   5.244 -0.2713  1.5987 -1.4595
  601MOL0     H82882   4.915   4.121   5.280  1.4273 -0.0016  0.6355
  601MOL0     H82883   4.967   3.866   5.440 -1.2960 -0.0762  3.7366
  601MOL0     H82884   4.882   4.008   5.488  2.2122  1.1724  1.9535
  601MOL0     H82885   5.180   3.995   5.437 -0.3811  1.4064 -0.6605
  601MOL0     H82886   5.072   4.131   5.491 -0.8301 -0.0851 -0.5485
  601MOL0     H82887   5.239   3.820   5.635 -2.3418 -1.5506  0.1642
  601MOL0     H82888   5.196   3.691   5.890  1.1008  0.3230  0.1864
  601MOL0     H82889   5.145   3.797   6.022 -0.0250  0.0345  0.3959
  601MOL0     H82890   5.389   3.733   5.983 -0.4702 -0.3932  2.2351
  601MOL0     H82891   5.383   3.886   5.888  0.6289  0.1292  1.2380
  601MOL0     H82892   5.311   3.997   6.084  0.4398  0.0123  1.4588
  601MOL0     H82893   5.311   3.846   6.184  3.4544 -2.8749  0.9364
  601MOL0     H82894   5.566   3.938   6.058  2.6766 -0.7502  2.1527
  601MOL0     H82895   5.514   3.999   6.211 -2.2607 -0.4395  1.3045
  601MOL0     H82896   5.601   3.650   6.387 -0.9586 -0.9256 -2.2624
  601MOL0     H82897   5.689   3.573   6.585  0.9010 -2.2321  1.1115
  601MOL0     H82898   5.803   3.667   6.670  1.4365 -0.1777 -0.9640
  601MOL0     H82899   5.865   3.551   6.555  0.7723  0.9515 -1.1561
  601MOL0     H82900   6.291   3.668   6.549  2.0912 -0.5220  1.9867
  601MOL0     H82901   6.520   3.713   6.621 -0.0115  0.9119  1.6391
  601MOL0     H82902   6.699   3.979   6.791  0.2153  1.0787 -2.1523
  601MOL0     H82903   6.606   3.830   6.796  0.2780 -0.9537  0.0349
  601MOL0     H82904   6.817   3.756   6.858 -0.6997 -0.7807 -0.8872
  601MOL0     H82905   6.795   3.715   6.696 -1.7853  0.8006 -1.4262
  601MOL0     H82906   6.931   3.957   6.658 -0.6940 -0.3282  0.5763
  601MOL0     H82907   7.004   3.795   6.669  1.4978  1.2086 -1.2220
  601MOL0     H82908   7.041   3.818   6.905 -0.3163  1.1137  0.9142
  601MOL0     H82909   6.952   3.966   6.920  0.4415  1.2423 -0.6544
  601MOL0     H82910   7.178   3.933   6.711  2.3864  1.8080  0.3769
  601MOL0     H82911   7.096   4.079   6.742 -0.2291 -1.6626 -3.0356
  601MOL0     H82912   7.262   3.937   6.966 -0.3216  0.4989  1.0266
  601MOL0     H82913   7.183   4.090   6.965 -1.0676 -0.1000  0.3366
  601MOL0     H82914   7.347   4.214   6.844 -0.5036  0.0323  0.3543
  601MOL0     H82915   7.399   4.073   6.747  1.4373 -1.3838  0.9329
  601MOL0     H82916   7.521   3.979   6.936 -1.7796 -1.6325  1.1732
  601MOL0     H82917   7.466   4.114   7.035 -1.0253 -2.7770  0.0295
  601MOL0     H82918   6.521   4.104   6.485  0.3607 -0.0062 -1.0113
  601MOL0     H82919   6.285   4.080   6.396  2.7742  1.1606 -0.7770
  601MOL0     H82920   5.968   3.952   6.279  0.6736 -1.6758  0.1143
  601MOL0     H82921   5.759   3.936   6.142  0.0015 -0.8479 -0.5275
  601MOL0     H82922   4.052   4.021   5.351  0.3360  1.7612  0.0648
  601MOL0     H82923   3.924   4.007   5.554  1.0945  1.8967 -4.6324
  601MOL0     H82924   3.869   4.018   5.957  1.7735  0.5155  0.0833
  601MOL0     H82925   3.743   4.058   6.141 -1.7000 -1.0318 -1.1141
  601MOL0     H82926   3.693   4.043   6.510  1.4400 -1.1252  0.6402
  601MOL0     H82927   3.733   4.094   6.356  2.1631 -1.5381 -0.5350
  601MOL0     H82928   3.471   3.942   6.403  1.3086 -0.2705  0.8406
  601MOL0     H82929   3.506   4.019   6.258 -0.5169 -0.7506  1.6952
  601MOL0     H82930   3.353   4.151   6.394 -0.4302 -0.0719  1.2727
  601MOL0     H82931   3.479   4.155   6.516  0.5553 -0.6560  0.1211
  601MOL0     H82932   3.504   4.260   6.233 -2.7671  0.5313  0.5370
  601MOL0     H82933   3.615   4.303   6.368  1.4099 -0.8548 -1.1317
  601MOL0     H82934   3.383   4.602   6.466  0.2747  0.6685 -0.9125
  601MOL0     H82935   3.859   3.679   6.312 -1.4072  1.2570  1.8162
  601MOL0     H82936   4.117   3.613   6.094 -0.2561 -1.1844 -0.8969
  601MOL0     H82937   3.995   3.531   6.190  0.3946  0.2394  0.3346
  601MOL0     H82938   3.961   3.541   6.025 -3.8405 -0.0566  2.8818
  602MOL0     O82939  11.147   6.434  10.974 -0.0975 -0.1394  0.2185
  602MOL0     C82940  11.090   6.412  10.864  0.1630 -0.3130  0.6195
  602MOL0     O82941  11.151   6.392  10.746 -0.8719  0.1514  0.5840
  602MOL0     C82942  11.283   6.383  10.740 -0.3731 -0.8633  1.1961
  602MOL0     C82943  11.342   6.270  10.802  0.2698 -0.0514 -0.5986
  602MOL0     C82944  11.487   6.258  10.802 -0.3126  0.8696  0.2167
  602MOL0     C82945  11.568   6.346  10.729  0.6537 -0.6392  0.5975
  602MOL0     O82946  11.706   6.338  10.731 -0.3421 -0.4688 -0.3578
  602MOL0     C82947  11.766   6.403  10.840 -0.0023 -0.5288 -0.5359
  602MOL0     C82948  11.889   6.337  10.900 -0.9553 -0.2585  0.1602
  602MOL0     C82949  12.011   6.353  10.803 -0.8545 -0.5220  0.2625
  602MOL0     C82950  12.120   6.229  10.794  0.3338  0.8292 -0.4155
  602MOL0     C82951  12.159   6.186  10.940  0.7058  0.4171 -0.3369
  602MOL0     C82952  12.230   6.310  11.002 -0.8655 -0.0396  0.5608
  602MOL0     C82953  12.282   6.285  11.149  0.1510 -0.1820 -0.1820
  602MOL0     C82954  12.411   6.203  11.156  0.1559 -0.4553 -0.2641
  602MOL0     N82955  12.512   6.226  11.054 -0.6574 -0.0782  0.4299
  602MOL0     C82956  12.591   6.125  10.997 -0.5021  0.0027 -0.2670
  602MOL0     C82957  12.689   6.199  10.941  0.4199  0.5362 -0.3437
  602MOL0     C82958  12.798   6.129  10.873 -0.0091 -0.6407  0.7535
  602MOL0     C82959  12.875   6.226  10.778  0.6587 -0.4855 -0.6886
  602MOL0     C82960  12.979   6.171  10.700 -0.2837 -0.5901 -0.7176
  602MOL0     C82961  13.089   6.107  10.786  0.1432 -0.7902  0.3517
  602MOL0     O82962  13.149   6.009  10.705  0.2186  0.0992  0.8322
  602MOL0     C82963  13.275   6.046  10.653 -0.7927 -0.0507  0.0120
  602MOL0     C82964  13.289   6.022  10.514  0.3867  0.3765  0.1863
  602MOL0     C82965  13.401   6.073  10.449 -0.7499 -0.7208 -0.0789
  602MOL0     C82966  13.406   6.067  10.298 -0.2142  0.4265 -0.2506
  602MOL0     C82967  13.495   6.155  10.520  0.1586 -0.4870 -0.2434
  602MOL0     C82968  13.591   6.232  10.457  0.6681 -0.2567 -0.1844
  602MOL0     O82969  13.707   6.166  10.402  0.0142  0.0282  0.0595
  602MOL0     C82970  13.810   6.244  10.348  0.5819  0.2759  0.9059
  602MOL0     C82971  13.788   6.307  10.225  0.3868  0.0743  0.2306
  602MOL0     C82972  13.892   6.390  10.176  0.4757 -0.1384 -0.5190
  602MOL0     C82973  14.003   6.414  10.257 -0.3608 -0.0047  0.0459
  602MOL0     O82974  14.118   6.474  10.216  1.2640  0.1530 -0.4400
  602MOL0     C82975  14.102   6.589  10.135  0.2857 -0.6282 -0.2629
  602MOL0     C82976  14.224   6.684  10.149  0.1984 -0.5100 -0.7159
  602MOL0     C82977  14.188   6.837  10.152  0.0314 -0.1172 -0.6177
  602MOL0     C82978  14.306   6.923  10.160  0.2172  0.1660  0.2569
  602MOL0     C82979  14.258   7.067  10.167  0.6657  0.0082 -0.5593
  602MOL0     C82980  14.370   7.168  10.144 -0.3371 -0.5551 -0.2086
  602MOL0     C82981  14.475   7.167  10.259  0.4003  0.5534 -0.2519
  602MOL0     C82982  14.595   7.243  10.207 -0.8798  0.9377  0.7315
  602MOL0    Cl82983  14.679   7.155  10.073  0.1529  0.0032  0.1008
  602MOL0     C82984  14.017   6.357  10.381 -0.0256 -0.2692  0.2566
  602MOL0     C82985  13.919   6.264  10.428 -0.2328  0.4847  0.2615
  602MOL0     O82986  13.569   6.354  10.453  0.2112  0.3187 -0.2631
  602MOL0     C82987  13.485   6.173  10.661  0.8477  0.5310  0.4332
  602MOL0     C82988  13.369   6.117  10.719 -0.1474 -0.5828  0.0336
  602MOL0     N82989  12.660   6.335  10.943 -0.4744  0.5888 -0.0581
  602MOL0     N82990  12.556   6.352  11.018 -0.0530  0.4255 -0.1237
  602MOL0     C82991  11.502   6.462  10.662 -0.1066 -0.3996  0.4715
  602MOL0     C82992  11.365   6.476  10.662  0.8197  0.2878 -0.0744
  602MOL0     C82993  10.944   6.396  10.873 -0.2259  0.1215  0.3218
  602MOL0     C82994  10.888   6.319  10.969  0.6208  0.5262 -0.3089
  602MOL0     C82995  10.751   6.340  10.994 -0.6635 -0.2647  0.3405
  602MOL0     C82996  10.675   6.421  10.925  1.0476 -0.1131  0.4929
  602MOL0     O82997  10.545   6.426  10.969 -0.1113 -0.2152 -0.0638
  602MOL0     C82998  10.451   6.505  10.895 -1.5287  0.0699  0.0186
  602MOL0     C82999  10.307   6.509  10.953  0.6316  0.0053  0.5589
  602MOL0     C83000  10.251   6.365  10.980  0.2017 -0.0108  0.4337
  602MOL0     C83001  10.142   6.354  11.086  0.1733  0.1662 -0.1283
  602MOL0     C83002  10.018   6.299  11.034  0.3262 -0.1091 -0.2065
  602MOL0     C83003   9.920   6.262  10.978 -0.5095  0.1226 -0.1659
  602MOL0     C83004  10.726   6.482  10.813  0.2122 -0.3244  0.2672
  602MOL0     C83005  10.861   6.471  10.784 -0.7178 -0.4773 -0.1559
  602MOL0     C83006  10.902   6.551  10.669 -0.5167 -1.7267  0.4182
  602MOL0     H83007  11.275   6.204  10.857  1.1164 -2.1085 -1.9411
  602MOL0     H83008  11.521   6.162  10.840 -5.6428 -0.4938  2.5964
  602MOL0     H83009  11.694   6.408  10.922 -0.5226  0.1340 -1.0184
  602MOL0     H83010  11.781   6.507  10.809  1.8292 -0.4980  0.3243
  602MOL0     H83011  11.920   6.376  10.998 -0.3774  0.6901 -0.3839
  602MOL0     H83012  11.864   6.232  10.918  1.0851 -1.5038 -3.2339
  602MOL0     H83013  11.979   6.370  10.700 -1.2727  0.2140  0.5121
  602MOL0     H83014  12.080   6.436  10.822  3.8269 -3.5511 -1.5811
  602MOL0     H83015  12.070   6.144  10.747  2.2756 -1.3041  1.1062
  602MOL0     H83016  12.213   6.241  10.736 -0.9120  0.1126 -2.6937
  602MOL0     H83017  12.222   6.098  10.948  3.1866  2.1382  0.0120
  602MOL0     H83018  12.066   6.166  10.993  0.3397  1.9669 -0.3233
  602MOL0     H83019  12.312   6.342  10.937 -2.9384 -0.5925 -2.5824
  602MOL0     H83020  12.160   6.394  11.001 -0.3306  0.4143  0.6723
  602MOL0     H83021  12.201   6.239  11.206  0.0678 -0.8275 -0.8029
  602MOL0     H83022  12.298   6.389  11.180 -0.2688  0.6628 -2.5562
  602MOL0     H83023  12.457   6.223  11.253  2.2697  4.2713 -1.8922
  602MOL0     H83024  12.389   6.096  11.162  0.0706 -0.4316 -0.1471
  602MOL0     H83025  12.574   6.018  10.997  1.7511 -0.4120  0.7571
  602MOL0     H83026  12.762   6.044  10.814 -1.4303 -0.4731  1.3522
  602MOL0     H83027  12.873   6.089  10.943  3.8524  0.5745 -2.3088
  602MOL0     H83028  12.799   6.279  10.720 -1.3159 -0.9835  1.3097
  602MOL0     H83029  12.919   6.310  10.833 -1.2340 -0.5233  0.9913
  602MOL0     H83030  12.935   6.095  10.634 -2.6114  2.2476 -2.6871
  602MOL0     H83031  13.017   6.246  10.631 -0.2291 -0.8722 -0.9964
  602MOL0     H83032  13.145   6.196  10.818 -2.2930  1.2938 -0.7846
  602MOL0     H83033  13.057   6.051  10.874  1.4951  1.2389  2.2457
  602MOL0     H83034  13.225   5.952  10.461  1.8120 -0.4472 -0.5078
  602MOL0     H83035  13.375   6.160  10.250 -0.2399  1.1646  1.1590
  602MOL0     H83036  13.365   5.971  10.265 -1.0959  0.2877  1.1956
  602MOL0     H83037  13.511   6.049  10.272  0.2141 -0.1832  1.7480
  602MOL0     H83038  13.699   6.288  10.166  0.0175 -0.8282  1.0441
  602MOL0     H83039  13.892   6.438  10.078  0.6324  1.1329  0.0823
  602MOL0     H83040  14.090   6.571  10.027 -2.0661  0.7667 -0.3141
  602MOL0     H83041  14.015   6.652  10.155 -0.1492 -0.9319 -1.1657
  602MOL0     H83042  14.271   6.647  10.240 -0.5893 -1.9004 -0.8442
  602MOL0     H83043  14.287   6.652  10.065 -0.9328 -2.0533 -1.0422
  602MOL0     H83044  14.128   6.868  10.238  1.0427  2.4976 -0.7454
  602MOL0     H83045  14.137   6.860  10.058 -1.0268 -2.4934 -0.7058
  602MOL0     H83046  14.366   6.922  10.069 -1.3245  0.4351 -0.7997
  602MOL0     H83047  14.377   6.896  10.239 -1.1976 -0.1839  1.4514
  602MOL0     H83048  14.168   7.078  10.106 -1.7239  0.0537  2.7205
  602MOL0     H83049  14.217   7.087  10.267 -0.2124 -3.1664 -0.1534
  602MOL0     H83050  14.337   7.272  10.137 -1.3332 -0.7221  1.4149
  602MOL0     H83051  14.412   7.133  10.049 -2.5363 -1.0682 -1.0637
  602MOL0     H83052  14.503   7.065  10.288 -2.6426 -0.4206 -0.3674
  602MOL0     H83053  14.427   7.220  10.342 -0.1441 -2.3911  1.4445
  602MOL0     H83054  14.671   7.258  10.284 -0.3049  0.5446  0.2443
  602MOL0     H83055  14.560   7.344  10.181 -1.6700  0.7277  0.9453
  602MOL0     H83056  14.113   6.376  10.428  0.3395 -2.7776  0.6597
  602MOL0     H83057  13.934   6.208  10.520 -1.9211 -0.1395  0.1935
  602MOL0     H83058  13.548   6.237  10.721  1.4633  0.6277 -0.2995
  602MOL0     H83059  13.354   6.139  10.824 -0.1854  1.3207 -0.3386
  602MOL0     H83060  11.563   6.535  10.609  0.3063 -2.3713 -1.9002
  602MOL0     H83061  11.317   6.558  10.609 -1.6218 -0.8169  0.3012
  602MOL0     H83062  10.935   6.241  11.027 -1.8588 -1.0625 -0.2990
  602MOL0     H83063  10.706   6.291  11.080 -1.8697  1.4118  0.7181
  602MOL0     H83064  10.492   6.606  10.888  1.7161 -1.0630  1.0035
  602MOL0     H83065  10.429   6.464  10.796 -2.4358 -0.4730  0.4315
  602MOL0     H83066  10.238   6.561  10.886  1.9427 -1.5905 -2.1848
  602MOL0     H83067  10.314   6.563  11.048  2.1772 -0.7908  0.9186
  602MOL0     H83068  10.205   6.318  10.893 -4.1490 -1.1009  2.9587
  602MOL0     H83069  10.331   6.294  11.000  0.2044  0.1867  1.1622
  602MOL0     H83070  10.133   6.449  11.140  3.5994 -0.6562  2.1952
  602MOL0     H83071  10.172   6.286  11.167  1.9310 -0.6372 -1.4064
  602MOL0     H83072   9.835   6.215  10.932 -1.9465  0.0071  2.4448
  602MOL0     H83073  10.674   6.545  10.741  2.5169 -2.0762 -3.1821
  602MOL0     H83074  10.825   6.574  10.595  4.5286 -1.4160 -5.6598
  602MOL0     H83075  10.947   6.640  10.714 -0.2643 -1.5868 -0.1006
  602MOL0     H83076  10.979   6.497  10.612  2.4807  0.5490  2.0208
  603MOL0     O83077   2.517   7.322   6.552  0.1003  0.1335  0.2517
  603MOL0     C83078   2.523   7.363   6.435 -0.8300  0.3437  0.4081
  603MOL0     O83079   2.636   7.423   6.378  0.2801 -0.0482 -0.5773
  603MOL0     C83080   2.739   7.478   6.449 -0.3188 -0.6712 -0.6462
  603MOL0     C83081   2.807   7.598   6.421  0.1397  0.3357 -0.3594
  603MOL0     C83082   2.917   7.650   6.493  0.0443  0.3948 -0.5275
  603MOL0     C83083   2.978   7.570   6.592  0.5447 -0.5278 -0.8981
  603MOL0     O83084   3.095   7.602   6.657  0.0150 -0.2707  0.1928
  603MOL0     C83085   3.180   7.701   6.597  0.4430 -0.0045  0.2121
  603MOL0     C83086   3.308   7.712   6.686 -0.1534 -1.0920 -0.0318
  603MOL0     C83087   3.416   7.799   6.638 -0.6126  0.2668 -0.0877
  603MOL0     C83088   3.536   7.796   6.732  0.4569 -0.7785  0.3686
  603MOL0     C83089   3.641   7.894   6.690 -0.9546 -0.7384 -0.6285
  603MOL0     C83090   3.766   7.869   6.785 -0.3632 -0.1854 -0.4959
  603MOL0     C83091   3.888   7.941   6.734 -0.3672 -0.3525  0.0790
  603MOL0     C83092   4.010   7.891   6.810  0.2052 -0.2492  0.0711
  603MOL0     N83093   4.123   7.976   6.766  0.7804 -0.2841 -0.1953
  603MOL0     C83094   4.147   8.100   6.829 -0.7980 -0.4088 -0.0611
  603MOL0     C83095   4.255   8.152   6.758  0.3867 -0.6813 -0.1319
  603MOL0     C83096   4.325   8.281   6.803  0.2830 -0.1308 -0.2050
  603MOL0     C83097   4.263   8.396   6.727  0.6073  0.5065  0.7704
  603MOL0     C83098   4.311   8.524   6.784 -0.3809 -0.7991  0.1876
  603MOL0     C83099   4.271   8.650   6.705 -0.6775  0.8734 -0.7287
  603MOL0     O83100   4.155   8.637   6.624  0.2540 -0.4880 -0.3608
  603MOL0     C83101   4.116   8.740   6.535  1.3027 -0.5068 -0.6277
  603MOL0     C83102   3.981   8.735   6.502 -0.6815 -0.2544 -0.4471
  603MOL0     C83103   3.926   8.837   6.424 -0.9205  0.0163 -0.3104
  603MOL0     C83104   3.776   8.828   6.413 -0.3358 -0.5304 -0.0948
  603MOL0     C83105   4.007   8.949   6.374  0.5875 -0.5715 -0.1433
  603MOL0     C83106   3.956   9.054   6.275 -0.5879 -0.0126  0.3680
  603MOL0     O83107   4.050   9.144   6.236 -0.4048 -0.5273 -0.6507
  603MOL0     C83108   4.016   9.261   6.175 -0.0844  0.2223  0.1107
  603MOL0     C83109   4.092   9.370   6.211  0.6793 -0.1124  0.5908
  603MOL0     C83110   4.070   9.494   6.155  0.3191 -0.2057  0.2839
  603MOL0     C83111   3.977   9.514   6.057  1.2856 -0.3715 -0.7040
  603MOL0     O83112   3.968   9.646   6.006 -0.3672  0.7809 -0.9554
  603MOL0     C83113   3.863   9.659   5.914  0.0697 -0.1410  0.4053
  603MOL0     C83114   3.854   9.802   5.869 -0.6297 -0.2578 -0.5731
  603MOL0     C83115   3.818   9.891   5.990 -0.6139  0.2006 -0.8426
  603MOL0     C83116   3.857  10.042   5.985 -0.1393  0.3459 -0.5237
  603MOL0     C83117   3.786  10.107   5.863 -0.3905  0.2779 -0.2124
  603MOL0     C83118   3.781  10.262   5.880 -0.3880  0.0309 -0.2361
  603MOL0     C83119   3.723  10.321   5.757  0.2375  0.0636  0.0695
  603MOL0     C83120   3.677  10.464   5.774 -0.4582  0.0590 -0.8286
  603MOL0    Cl83121   3.832  10.566   5.793 -0.0240  0.3988  0.4925
  603MOL0     C83122   3.905   9.399   6.013  0.1253  0.0296 -0.7715
  603MOL0     C83123   3.917   9.275   6.075  0.1475 -0.0156 -1.0249
  603MOL0     O83124   3.837   9.057   6.246 -0.0861  0.6863 -0.1369
  603MOL0     C83125   4.139   8.952   6.417 -0.0552  0.1507 -0.6182
  603MOL0     C83126   4.189   8.849   6.500  0.5869  0.0715 -0.3367
  603MOL0     N83127   4.298   8.051   6.668 -0.0262 -0.1312  0.5844
  603MOL0     N83128   4.214   7.950   6.673 -0.9350 -0.6605 -0.3890
  603MOL0     C83129   2.904   7.459   6.634 -0.8765 -0.7269  0.3336
  603MOL0     C83130   2.798   7.410   6.559  0.0083  0.3168  0.8075
  603MOL0     C83131   2.400   7.351   6.348 -0.1725 -0.0702  0.4187
  603MOL0     C83132   2.408   7.410   6.215  0.3387 -0.2758 -0.6344
  603MOL0     C83133   2.293   7.417   6.144  0.2749 -0.5485  0.4221
  603MOL0     C83134   2.164   7.379   6.190  0.0954  1.0796 -0.9085
  603MOL0     O83135   2.057   7.387   6.107  0.4195  0.9780  0.5009
  603MOL0     C83136   1.925   7.355   6.147  0.4392 -0.3253  0.1520
  603MOL0     C83137   1.830   7.426   6.062 -0.3454 -0.0101 -0.7319
  603MOL0     C83138   1.694   7.383   6.118 -0.9037  0.7668 -0.0814
  603MOL0     C83139   1.586   7.443   6.033 -0.6909  0.1129 -0.4253
  603MOL0     C83140   1.454   7.398   6.085  0.1073 -0.5750  0.1347
  603MOL0     C83141   1.342   7.373   6.123  0.3755  0.2786 -0.5138
  603MOL0     C83142   2.154   7.310   6.312 -0.0363  0.0772  0.0236
  603MOL0     C83143   2.275   7.293   6.389 -0.7569 -0.6889  0.1705
  603MOL0     C83144   2.251   7.212   6.519 -0.7761  0.1447  0.3120
  603MOL0     H83145   2.756   7.656   6.343 -2.4314 -0.0735  0.9083
  603MOL0     H83146   2.941   7.753   6.468 -0.2946  0.3012 -1.2701
  603MOL0     H83147   3.131   7.799   6.594  0.3178 -0.0802 -1.9073
  603MOL0     H83148   3.206   7.677   6.493  1.6055 -0.5676  0.6201
  603MOL0     H83149   3.275   7.745   6.785  1.5227 -1.2272  0.6073
  603MOL0     H83150   3.342   7.611   6.714 -0.6348 -0.1029  5.0794
  603MOL0     H83151   3.450   7.761   6.541 -0.8229  3.8882 -1.7579
  603MOL0     H83152   3.373   7.898   6.620 -3.1118 -1.0972 -2.1841
  603MOL0     H83153   3.509   7.847   6.825 -0.9891 -0.7076 -0.0595
  603MOL0     H83154   3.569   7.692   6.741  1.2372 -0.7125 -1.3827
  603MOL0     H83155   3.604   7.996   6.705 -1.5790 -0.8577 -1.2870
  603MOL0     H83156   3.669   7.888   6.584  2.5468  1.1847  0.0557
  603MOL0     H83157   3.743   7.908   6.884  0.2005  0.5641 -0.6517
  603MOL0     H83158   3.782   7.761   6.778 -1.6791 -0.4924  0.7398
  603MOL0     H83159   3.877   8.049   6.749 -0.7169 -0.1899 -1.1957
  603MOL0     H83160   3.907   7.923   6.627 -2.1960  1.3745 -0.5956
  603MOL0     H83161   4.004   7.899   6.919  0.5294  0.2600  0.0529
  603MOL0     H83162   4.023   7.786   6.781 -4.9041 -1.0285 -0.2132
  603MOL0     H83163   4.096   8.152   6.909 -1.5569  1.6153 -1.7549
  603MOL0     H83164   4.430   8.257   6.788 -0.1153 -3.1460  1.1910
  603MOL0     H83165   4.314   8.300   6.911 -0.2378 -0.0179 -0.2726
  603MOL0     H83166   4.288   8.396   6.620  1.0182  1.9170  0.8521
  603MOL0     H83167   4.155   8.395   6.743  0.0400  2.9008 -2.0779
  603MOL0     H83168   4.262   8.535   6.881 -1.7280 -0.8491 -0.4601
  603MOL0     H83169   4.418   8.525   6.803 -0.0856 -1.7146 -1.2757
  603MOL0     H83170   4.259   8.728   6.780  1.1825  1.5083 -1.0259
  603MOL0     H83171   4.360   8.662   6.643 -0.3893 -0.7634 -0.6830
  603MOL0     H83172   3.922   8.650   6.535  0.1955 -0.5721  0.3562
  603MOL0     H83173   3.737   8.758   6.488 -0.1433 -1.1802 -0.5965
  603MOL0     H83174   3.744   8.794   6.315 -2.2398 -1.0124  0.6482
  603MOL0     H83175   3.743   8.930   6.436  1.5825  0.0855  0.0830
  603MOL0     H83176   4.165   9.369   6.291 -0.2257 -0.3435  1.4370
  603MOL0     H83177   4.115   9.586   6.190 -0.5212  0.1537  0.4258
  603MOL0     H83178   3.880   9.601   5.822 -1.8535 -0.2995  0.1021
  603MOL0     H83179   3.763   9.632   5.951 -1.2776 -0.4444 -3.0421
  603MOL0     H83180   3.951   9.825   5.824  1.7332  0.3845  4.2139
  603MOL0     H83181   3.775   9.811   5.794 -0.7051  2.3546 -0.2905
  603MOL0     H83182   3.878   9.857   6.075 -1.5510 -0.5035 -0.4446
  603MOL0     H83183   3.710   9.885   6.005 -0.7953 -0.9067 -2.3930
  603MOL0     H83184   3.966  10.055   5.978 -0.0398  0.2701  0.6779
  603MOL0     H83185   3.841  10.095   6.079 -2.0264  1.3047 -1.3341
  603MOL0     H83186   3.842  10.088   5.771  1.0012  1.0220  0.4445
  603MOL0     H83187   3.687  10.070   5.835 -2.1601  3.0708  1.8179
  603MOL0     H83188   3.877  10.311   5.904 -0.0732 -1.0421  0.8179
  603MOL0     H83189   3.705  10.281   5.956  0.3948 -2.2402  1.2306
  603MOL0     H83190   3.625  10.272   5.746  0.7700 -0.7279 -1.5609
  603MOL0     H83191   3.771  10.301   5.661 -0.8685  1.6332 -0.8580
  603MOL0     H83192   3.599  10.474   5.850 -2.5600 -1.4737 -2.6509
  603MOL0     H83193   3.625  10.492   5.682  0.5448 -0.2965 -1.5271
  603MOL0     H83194   3.836   9.410   5.931  0.2884 -1.7021 -1.1608
  603MOL0     H83195   3.849   9.194   6.052 -1.8264  0.9987  0.8907
  603MOL0     H83196   4.213   9.030   6.396 -2.0150  1.7543 -2.0264
  603MOL0     H83197   4.291   8.844   6.537 -0.0312 -1.0431  1.3365
  603MOL0     H83198   2.964   7.400   6.703  0.5515  0.6548  0.3323
  603MOL0     H83199   2.765   7.311   6.586  0.7815 -0.7577 -1.8769
  603MOL0     H83200   2.497   7.460   6.179  0.7660 -0.9782 -0.5703
  603MOL0     H83201   2.290   7.463   6.046 -1.1919  1.1781  1.2106
  603MOL0     H83202   1.907   7.247   6.147  0.1020 -0.2763  0.7689
  603MOL0     H83203   1.909   7.387   6.251 -0.0789 -1.4839  0.4468
  603MOL0     H83204   1.839   7.389   5.960 -1.7049 -0.7258 -0.6236
  603MOL0     H83205   1.831   7.535   6.065 -1.4179  0.0013 -0.0410
  603MOL0     H83206   1.677   7.275   6.123 -0.3744  0.5755 -1.8469
  603MOL0     H83207   1.692   7.423   6.220  3.5247 -0.3296  0.6399
  603MOL0     H83208   1.594   7.406   5.930  0.6270 -2.5678  0.5336
  603MOL0     H83209   1.607   7.550   6.031  0.2370 -0.0662 -0.8671
  603MOL0     H83210   1.240   7.365   6.153  1.2511  0.8113  3.0582
  603MOL0     H83211   2.057   7.277   6.346 -0.8457  3.4719  1.4237
  603MOL0     H83212   2.235   7.273   6.608  0.0151  0.6299  0.1335
  603MOL0     H83213   2.162   7.149   6.513 -1.1110  0.6154  0.2315
  603MOL0     H83214   2.338   7.147   6.530 -1.4195 -1.6081 -3.4062
  604MOL0     O83215   1.939   1.277   6.864  0.4131  0.1867  0.4381
  604MOL0     C83216   1.964   1.274   6.984 -0.1077  1.0341  0.5293
  604MOL0     O83217   1.875   1.241   7.080 -0.1785 -0.0943  0.1349
  604MOL0     C83218   1.751   1.309   7.067 -0.4683  1.2198  0.2504
  604MOL0     C83219   1.720   1.429   7.140 -0.0308 -0.1120  0.5144
  604MOL0     C83220   1.589   1.476   7.136  0.4918  0.5317  1.1848
  604MOL0     C83221   1.490   1.402   7.060  0.5089 -0.2302  0.3987
  604MOL0     O83222   1.363   1.462   7.044 -0.2739  0.7065 -0.0749
  604MOL0     C83223   1.324   1.502   6.910 -0.5033 -0.0679  0.3088
  604MOL0     C83224   1.245   1.640   6.897 -0.1368 -1.0108  0.2684
  604MOL0     C83225   1.314   1.742   6.976 -0.0534 -0.2419  0.2141
  604MOL0     C83226   1.452   1.783   6.906 -0.1942 -0.2969  0.3227
  604MOL0     C83227   1.524   1.891   7.000 -1.0065  0.2290 -0.1775
  604MOL0     C83228   1.653   1.943   6.931  0.6467  1.3152  0.2901
  604MOL0     C83229   1.731   2.046   7.017  0.2216  0.4644  0.1808
  604MOL0     C83230   1.809   1.971   7.134 -0.4352  0.8918  0.1051
  604MOL0     N83231   1.896   1.862   7.077  0.2320  0.4912 -0.4190
  604MOL0     C83232   2.021   1.893   7.018 -0.3015 -0.0226 -0.2140
  604MOL0     C83233   2.073   1.776   6.992 -0.3858  0.3614 -0.4117
  604MOL0     C83234   2.211   1.763   6.915 -0.2901  0.6782  0.0086
  604MOL0     C83235   2.312   1.703   7.006  0.1967 -0.7142 -0.0176
  604MOL0     C83236   2.454   1.748   6.971 -0.7449  0.7113  0.0789
  604MOL0     C83237   2.564   1.695   7.060 -0.3209  0.2556 -0.1181
  604MOL0     O83238   2.689   1.738   7.011  0.3934  0.1301 -0.3617
  604MOL0     C83239   2.806   1.697   7.072  0.0495 -0.0670  0.5899
  604MOL0     C83240   2.925   1.745   7.024 -0.6003  0.5660 -0.7885
  604MOL0     C83241   3.048   1.716   7.091  0.4882 -0.1625  0.3025
  604MOL0     C83242   3.169   1.779   7.037 -0.1827 -1.8092  0.7420
  604MOL0     C83243   3.050   1.650   7.220  0.0237 -0.4298 -0.4992
  604MOL0     C83244   3.170   1.643   7.310  0.2219  0.0739  0.1722
  604MOL0     O83245   3.227   1.759   7.326 -0.7766  0.5081 -0.3511
  604MOL0     C83246   3.352   1.775   7.393 -0.1313  0.1259 -0.1085
  604MOL0     C83247   3.421   1.691   7.469 -0.3699 -0.5285  0.4675
  604MOL0     C83248   3.545   1.724   7.523  0.0113  0.4072  0.6861
  604MOL0     C83249   3.603   1.854   7.506  1.2817  1.4012 -0.3202
  604MOL0     O83250   3.717   1.889   7.570  0.4908 -0.0675  0.7297
  604MOL0     C83251   3.687   1.948   7.699  0.2536 -0.4623  0.3912
  604MOL0     C83252   3.723   1.848   7.812  0.5436  0.7639  0.3748
  604MOL0     C83253   3.872   1.855   7.843 -0.1979  0.0198 -0.4286
  604MOL0     C83254   3.898   1.941   7.974 -0.6005  0.0812 -0.0234
  604MOL0     C83255   4.047   1.932   8.014  1.1255  0.3998  0.9819
  604MOL0     C83256   4.081   2.037   8.119 -0.3635  1.0156  0.2045
  604MOL0     C83257   4.003   2.043   8.254 -0.8552  0.6930 -0.3638
  604MOL0     C83258   4.052   2.152   8.355 -0.5107 -0.6750  0.7085
  604MOL0    Cl83259   4.169   2.091   8.475  0.1606  0.3670 -0.6411
  604MOL0     C83260   3.527   1.943   7.430 -0.5935 -0.9083 -0.7547
  604MOL0     C83261   3.403   1.904   7.374 -0.1273  0.2268  0.2873
  604MOL0     O83262   3.189   1.538   7.366  0.6841 -0.3300 -0.2949
  604MOL0     C83263   2.930   1.604   7.263  0.4445 -0.1285 -0.5059
  604MOL0     C83264   2.811   1.619   7.190  0.4583  1.2504 -0.1484
  604MOL0     N83265   1.986   1.678   7.031 -0.5136  0.7778  0.7703
  604MOL0     N83266   1.878   1.729   7.085 -0.0958  0.1045 -0.5443
  604MOL0     C83267   1.525   1.295   6.979 -0.3277 -1.1550 -0.4127
  604MOL0     C83268   1.652   1.241   6.997  0.2675  0.2123 -0.4681
  604MOL0     C83269   2.115   1.271   7.035 -0.0761 -0.6856 -0.2662
  604MOL0     C83270   2.204   1.267   6.934  0.1769  0.1071 -0.2955
  604MOL0     C83271   2.341   1.281   6.956 -0.0753 -0.0363 -0.4542
  604MOL0     C83272   2.392   1.302   7.083  0.2634  0.3739 -0.1664
  604MOL0     O83273   2.530   1.304   7.106  0.2775  0.6164  0.0655
  604MOL0     C83274   2.623   1.285   6.996 -0.0663  0.2949  1.2009
  604MOL0     C83275   2.757   1.270   7.066 -0.3929 -0.1741 -0.4732
  604MOL0     C83276   2.765   1.183   7.190  0.6191 -0.4851 -0.0880
  604MOL0     C83277   2.896   1.105   7.232  0.5708 -0.2587 -0.4880
  604MOL0     C83278   2.902   1.059   7.373 -0.4864 -0.0593  0.2263
  604MOL0     C83279   2.907   1.019   7.493  0.3716  0.0721  0.9649
  604MOL0     C83280   2.296   1.321   7.179 -0.6602 -0.2364  0.2175
  604MOL0     C83281   2.156   1.306   7.166  0.0311  0.3009 -0.2512
  604MOL0     C83282   2.070   1.309   7.285 -0.1731  0.2426 -0.9702
  604MOL0     H83283   1.801   1.480   7.191 -1.5564  1.7090  1.2346
  604MOL0     H83284   1.558   1.568   7.184 -2.6832 -0.3862  1.1163
  604MOL0     H83285   1.262   1.428   6.859  1.6319 -0.4629 -1.9542
  604MOL0     H83286   1.412   1.505   6.845 -1.6700  0.1185 -1.3458
  604MOL0     H83287   1.239   1.674   6.794  1.6625  1.3070  0.8469
  604MOL0     H83288   1.141   1.628   6.930 -0.5959  0.0961 -0.7360
  604MOL0     H83289   1.252   1.831   6.991  0.7121  0.2883  0.2521
  604MOL0     H83290   1.346   1.709   7.075  2.9998  0.3519 -0.4664
  604MOL0     H83291   1.515   1.693   6.901 -1.2455 -1.1344  1.4847
  604MOL0     H83292   1.426   1.816   6.805  1.3607  0.1458  0.0468
  604MOL0     H83293   1.545   1.857   7.102 -1.6732  1.8503  0.5476
  604MOL0     H83294   1.458   1.978   7.001 -1.4080 -0.0324 -1.7473
  604MOL0     H83295   1.723   1.865   6.899  2.4349  3.4890 -1.4379
  604MOL0     H83296   1.618   1.992   6.839  2.2297 -1.0413 -1.7261
  604MOL0     H83297   1.678   2.133   7.056 -1.4766  0.7175 -2.4267
  604MOL0     H83298   1.803   2.078   6.941 -0.9737 -1.9198 -2.1573
  604MOL0     H83299   1.875   2.049   7.173  1.4198  0.0475 -1.2112
  604MOL0     H83300   1.736   1.935   7.208 -2.0010  5.6644  1.2567
  604MOL0     H83301   2.064   1.992   7.010 -0.5946  0.0777 -0.5828
  604MOL0     H83302   2.243   1.858   6.871  1.3984  0.2719  0.2945
  604MOL0     H83303   2.201   1.706   6.822  2.2597 -1.7916  1.1054
  604MOL0     H83304   2.296   1.744   7.106  2.1319  0.8243 -0.2820
  604MOL0     H83305   2.299   1.594   7.016 -0.8476 -0.6897 -0.9372
  604MOL0     H83306   2.469   1.709   6.870  1.1709 -0.5005  0.7806
  604MOL0     H83307   2.461   1.855   6.953  1.0933  0.5554 -0.2730
  604MOL0     H83308   2.545   1.721   7.165 -0.0362  1.3303 -0.3197
  604MOL0     H83309   2.563   1.586   7.061  0.4015  0.2302 -1.0333
  604MOL0     H83310   2.921   1.800   6.930  0.9623  0.3028 -1.0354
  604MOL0     H83311   3.152   1.784   6.929 -3.5711  0.6048  1.2018
  604MOL0     H83312   3.262   1.727   7.060  1.6011  0.0561 -1.6227
  604MOL0     H83313   3.184   1.880   7.078 -0.6704 -0.0405 -2.9656
  604MOL0     H83314   3.377   1.595   7.494 -2.9469 -0.5876 -3.4589
  604MOL0     H83315   3.594   1.648   7.582 -1.2312 -0.8173  0.2068
  604MOL0     H83316   3.742   2.042   7.712 -0.2467  0.1853 -1.8015
  604MOL0     H83317   3.581   1.976   7.706  0.3032 -0.0323 -0.4243
  604MOL0     H83318   3.657   1.865   7.898 -1.5133  1.1665 -1.1979
  604MOL0     H83319   3.703   1.750   7.768  2.6190  0.8586 -0.9143
  604MOL0     H83320   3.921   1.882   7.749 -1.8569 -3.7586 -2.6092
  604MOL0     H83321   3.910   1.754   7.861  3.0134  1.2612  0.6102
  604MOL0     H83322   3.833   1.887   8.044  0.5454 -0.1662  0.8850
  604MOL0     H83323   3.858   2.043   7.964  1.5979  0.8835 -1.2227
  604MOL0     H83324   4.081   1.831   8.039  1.8242 -0.0866 -1.5963
  604MOL0     H83325   4.115   1.944   7.929 -0.4374  0.2031 -0.3431
  604MOL0     H83326   4.081   2.133   8.066  4.3256  1.1697  0.1266
  604MOL0     H83327   4.185   2.026   8.150 -0.3848  2.0581  0.7127
  604MOL0     H83328   4.006   1.942   8.298  2.4614  1.0276  0.4298
  604MOL0     H83329   3.898   2.066   8.233 -0.1778  0.7584 -4.5293
  604MOL0     H83330   3.963   2.200   8.399 -2.6992 -1.5226 -2.4606
  604MOL0     H83331   4.103   2.227   8.294 -2.0011  1.8145  2.2878
  604MOL0     H83332   3.569   2.042   7.440 -0.3740 -1.2156  2.4060
  604MOL0     H83333   3.356   1.971   7.303 -1.1102  0.1645  0.8564
  604MOL0     H83334   2.931   1.562   7.363  4.5271  2.8963  1.0199
  604MOL0     H83335   2.722   1.574   7.232  0.8675 -0.8867 -1.4077
  604MOL0     H83336   1.463   1.256   6.899 -2.1170  1.4439 -0.4173
  604MOL0     H83337   1.676   1.150   6.943 -0.0850  0.2550 -0.6971
  604MOL0     H83338   2.166   1.240   6.836  0.5649  0.1953 -0.4705
  604MOL0     H83339   2.404   1.283   6.868  0.5908  0.1189  0.0125
  604MOL0     H83340   2.602   1.188   6.950  1.5255 -0.4314  1.9384
  604MOL0     H83341   2.629   1.362   6.918  1.5943 -0.4443  0.5558
  604MOL0     H83342   2.799   1.367   7.094  0.6754 -0.0463 -2.3539
  604MOL0     H83343   2.821   1.221   6.992 -1.3183  2.8555 -3.5241
  604MOL0     H83344   2.733   1.252   7.269 -2.4575  0.7050 -2.1850
  604MOL0     H83345   2.685   1.110   7.179 -1.8067  2.1451 -1.2008
  604MOL0     H83346   2.977   1.177   7.223 -0.3011  0.7450 -0.4811
  604MOL0     H83347   2.913   1.016   7.171 -0.3039 -1.4651  0.9489
  604MOL0     H83348   2.913   0.980   7.593  0.5869  0.4139  1.0837
  604MOL0     H83349   2.337   1.342   7.277 -1.6750  3.5884 -0.0395
  604MOL0     H83350   2.109   1.342   7.382 -1.6777 -1.2296  0.1844
  604MOL0     H83351   1.986   1.376   7.266 -1.3595 -0.2443  2.0839
  604MOL0     H83352   2.051   1.203   7.305  1.1131  0.5248  2.4671
  605MOL0     O83353   7.034   1.197   7.733  0.1993  0.1060  0.6890
  605MOL0     C83354   7.052   1.320   7.718 -0.4831  0.3863 -0.3122
  605MOL0     O83355   7.171   1.387   7.737  0.1812  0.2755  0.1793
  605MOL0     C83356   7.292   1.323   7.767  0.1582 -0.8459 -0.2948
  605MOL0     C83357   7.394   1.398   7.828 -0.4504 -1.1604 -0.2981
  605MOL0     C83358   7.522   1.349   7.846  0.2242 -0.2997 -0.4849
  605MOL0     C83359   7.556   1.221   7.811  0.5906  0.6786 -0.5124
  605MOL0     O83360   7.681   1.163   7.826  0.0356 -0.0419  0.2169
  605MOL0     C83361   7.790   1.249   7.851 -0.1816 -0.6112 -0.2531
  605MOL0     C83362   7.924   1.179   7.839  0.1716  0.7463  0.1797
  605MOL0     C83363   8.041   1.282   7.835  1.1804  0.2534  0.5364
  605MOL0     C83364   8.177   1.221   7.888 -0.5385 -0.2607  0.0497
  605MOL0     C83365   8.270   1.334   7.863 -0.7735  0.4516 -0.2209
  605MOL0     C83366   8.402   1.298   7.935  0.4304  0.1021 -0.3623
  605MOL0     C83367   8.515   1.378   7.866  0.2643 -0.1887 -0.6446
  605MOL0     C83368   8.649   1.327   7.925  0.0055  0.4223  0.3303
  605MOL0     N83369   8.774   1.395   7.878 -0.1634 -0.5878  0.4644
  605MOL0     C83370   8.880   1.415   7.960  0.2463  0.2920  0.1146
  605MOL0     C83371   8.951   1.501   7.880 -0.1282 -0.1493 -0.5003
  605MOL0     C83372   9.059   1.591   7.940  0.4132 -0.3841  0.2882
  605MOL0     C83373   9.188   1.522   7.998 -0.5873  0.0746 -0.3514
  605MOL0     C83374   9.294   1.629   8.025  0.5906  0.6811 -0.0629
  605MOL0     C83375   9.407   1.583   8.114 -0.2953 -0.3509  0.2447
  605MOL0     O83376   9.469   1.461   8.076 -0.3384  0.2845 -0.1740
  605MOL0     C83377   9.605   1.457   8.057 -0.0859  0.1516  0.1844
  605MOL0     C83378   9.680   1.564   8.008 -0.1598  0.3074 -1.1494
  605MOL0     C83379   9.818   1.562   7.978  0.8161  0.2798 -0.3468
  605MOL0     C83380   9.886   1.690   7.926  0.0573  0.2547 -0.9359
  605MOL0     C83381   9.887   1.438   7.999  0.2339 -0.5365 -1.3554
  605MOL0     C83382  10.033   1.416   7.965 -0.1035  0.2746  0.3559
  605MOL0     O83383  10.097   1.507   7.884  0.0644  0.5549  0.2163
  605MOL0     C83384  10.218   1.481   7.828 -0.1733  0.6436 -0.7646
  605MOL0     C83385  10.334   1.450   7.910  0.0175 -0.1528  0.7789
  605MOL0     C83386  10.454   1.428   7.848 -0.2243 -0.1396 -0.5670
  605MOL0     C83387  10.472   1.427   7.709  0.0851 -0.3430  0.0185
  605MOL0     O83388  10.598   1.397   7.665 -0.3455 -0.4735  0.7497
  605MOL0     C83389  10.622   1.414   7.521  0.4746 -0.3630  0.1880
  605MOL0     C83390  10.763   1.352   7.491 -0.2706 -0.3925 -0.0607
  605MOL0     C83391  10.766   1.196   7.520  0.2245 -1.2061 -0.9833
  605MOL0     C83392  10.912   1.138   7.509 -0.3342  0.3251 -0.3153
  605MOL0     C83393  10.926   0.983   7.532 -0.0627  0.4454  0.3239
  605MOL0     C83394  11.071   0.949   7.551 -0.8549 -0.0680 -0.4333
  605MOL0     C83395  11.102   0.803   7.574 -1.1422  0.2204  0.4322
  605MOL0     C83396  11.109   0.718   7.441  0.0605  0.2470  0.3447
  605MOL0    Cl83397  11.253   0.773   7.354 -0.1373  0.0711  0.1135
  605MOL0     C83398  10.362   1.475   7.637  0.1154  0.4773 -0.3294
  605MOL0     C83399  10.239   1.495   7.695  0.7293  0.6360  0.4964
  605MOL0     O83400  10.083   1.311   7.996  0.9993  0.0157  0.3325
  605MOL0     C83401   9.812   1.331   8.059  0.4838 -0.4901 -0.3849
  605MOL0     C83402   9.676   1.342   8.097  0.4888  0.4002  0.3433
  605MOL0     N83403   8.896   1.518   7.755 -0.0380  0.1032  0.2588
  605MOL0     N83404   8.787   1.458   7.755 -0.1390 -0.5409  0.4020
  605MOL0     C83405   7.451   1.142   7.757 -1.1974 -0.5194 -0.2231
  605MOL0     C83406   7.329   1.198   7.729  0.6253 -0.8107  0.1247
  605MOL0     C83407   6.945   1.409   7.684  1.2103  0.3540  0.1596
  605MOL0     C83408   6.882   1.414   7.560 -0.1458  0.1896  0.1520
  605MOL0     C83409   6.769   1.495   7.540 -0.7592 -0.0210  0.0225
  605MOL0     C83410   6.709   1.563   7.643  0.1310  0.0125  0.6151
  605MOL0     O83411   6.586   1.618   7.638  0.8727  0.1490 -0.3650
  605MOL0     C83412   6.469   1.536   7.619 -0.0743 -0.4062 -0.0711
  605MOL0     C83413   6.373   1.532   7.743  0.7856 -0.8929 -0.3193
  605MOL0     C83414   6.262   1.430   7.734 -0.4543  0.1968  0.1630
  605MOL0     C83415   6.198   1.393   7.874  0.1134 -0.3702  0.1069
  605MOL0     C83416   6.126   1.266   7.866 -0.0851  0.6894 -0.2997
  605MOL0     C83417   6.067   1.161   7.861 -0.1927  0.3480 -0.1684
  605MOL0     C83418   6.775   1.561   7.769  0.8031 -0.3958  0.7799
  605MOL0     C83419   6.891   1.482   7.784 -0.6474 -0.1239  0.1415
  605MOL0     C83420   6.949   1.476   7.923  0.0611 -0.5077  0.6412
  605MOL0     H83421   7.375   1.498   7.866 -0.0745 -0.9002 -0.7792
  605MOL0     H83422   7.594   1.413   7.896 -0.0478 -0.4725  0.1248
  605MOL0     H83423   7.781   1.294   7.950  0.6450  1.8814 -1.2243
  605MOL0     H83424   7.783   1.323   7.771 -2.9379 -0.6705 -0.1768
  605MOL0     H83425   7.941   1.110   7.922 -1.3743  0.1565  0.0501
  605MOL0     H83426   7.943   1.127   7.745  0.0705 -1.9090  1.5344
  605MOL0     H83427   8.055   1.311   7.730  2.1101 -2.6369 -0.2304
  605MOL0     H83428   8.018   1.373   7.891 -1.3512  2.0331 -3.0511
  605MOL0     H83429   8.160   1.190   7.992 -2.6830  1.1628  0.1723
  605MOL0     H83430   8.206   1.138   7.822 -1.3061 -1.1266  0.7630
  605MOL0     H83431   8.236   1.437   7.870 -1.9049 -0.0005  1.4188
  605MOL0     H83432   8.285   1.333   7.754 -1.7317 -1.5279 -0.3728
  605MOL0     H83433   8.399   1.316   8.043  2.1903  2.0210 -0.5555
  605MOL0     H83434   8.417   1.190   7.929  0.0744 -0.1295  1.9834
  605MOL0     H83435   8.503   1.485   7.889  0.7771 -0.0844 -0.8572
  605MOL0     H83436   8.504   1.380   7.757 -0.9046  2.2564 -0.5750
  605MOL0     H83437   8.642   1.321   8.034 -1.5405  1.9954  0.3680
  605MOL0     H83438   8.659   1.222   7.896 -2.8829  0.1058  0.2029
  605MOL0     H83439   8.893   1.396   8.067 -1.7233  0.9399  0.5086
  605MOL0     H83440   9.013   1.653   8.018  0.0031  2.1126 -1.8172
  605MOL0     H83441   9.086   1.662   7.862 -1.4420  0.4111  0.3051
  605MOL0     H83442   9.153   1.484   8.094 -0.9646 -0.0361 -0.5335
  605MOL0     H83443   9.227   1.445   7.930  2.9628  1.9119 -0.6348
  605MOL0     H83444   9.334   1.655   7.926  0.4408  0.8019 -0.0923
  605MOL0     H83445   9.251   1.718   8.071  2.3280  0.3821  2.3111
  605MOL0     H83446   9.474   1.669   8.128  0.2878 -0.8163  0.3708
  605MOL0     H83447   9.363   1.565   8.212  0.8062 -2.1789  0.4526
  605MOL0     H83448   9.633   1.662   8.002  1.3799  1.1406 -0.1680
  605MOL0     H83449   9.807   1.766   7.922 -1.1592 -0.9496 -0.5101
  605MOL0     H83450   9.931   1.678   7.828  2.3086 -1.0551  0.1712
  605MOL0     H83451   9.967   1.728   7.989  1.0595  0.4147 -2.2848
  605MOL0     H83452  10.337   1.447   8.019 -0.0965  1.1263  0.8370
  605MOL0     H83453  10.538   1.399   7.910 -0.3358 -1.3858 -0.9747
  605MOL0     H83454  10.537   1.375   7.464 -1.9800  0.3086  3.1336
  605MOL0     H83455  10.621   1.520   7.494  0.5153 -0.3413  0.2699
  605MOL0     H83456  10.782   1.362   7.384 -1.3125 -1.1725 -0.3341
  605MOL0     H83457  10.847   1.399   7.543  2.9675 -1.7379 -3.5448
  605MOL0     H83458  10.704   1.155   7.440  0.0710  0.4733 -1.7437
  605MOL0     H83459  10.729   1.163   7.618  0.9145 -0.3275 -0.4163
  605MOL0     H83460  10.979   1.190   7.577  3.7211 -2.7242 -1.5904
  605MOL0     H83461  10.955   1.171   7.414  0.4975 -0.0390 -0.0717
  605MOL0     H83462  10.866   0.958   7.621 -1.3969  1.8524 -0.1399
  605MOL0     H83463  10.869   0.930   7.455  0.3959 -1.9087  1.4904
  605MOL0     H83464  11.114   1.005   7.635 -1.2119 -1.2775  0.6068
  605MOL0     H83465  11.130   0.984   7.467  0.7658  0.6008  0.9295
  605MOL0     H83466  11.019   0.777   7.640  0.2112  1.0481  2.5457
  605MOL0     H83467  11.197   0.776   7.621 -0.3934 -2.2572 -2.2075
  605MOL0     H83468  11.012   0.736   7.394  0.7065 -0.2414 -1.2142
  605MOL0     H83469  11.121   0.610   7.453  0.4028  0.2033 -0.3438
  605MOL0     H83470  10.364   1.482   7.529 -0.4249  2.2179 -0.2606
  605MOL0     H83471  10.150   1.520   7.638  0.9913  1.2787  0.3666
  605MOL0     H83472   9.861   1.244   8.102 -0.6801 -0.0320  2.0299
  605MOL0     H83473   9.632   1.266   8.161  2.2883 -0.5611  0.5150
  605MOL0     H83474   7.471   1.041   7.723  3.0351  0.5082 -1.3902
  605MOL0     H83475   7.259   1.138   7.672  2.2540 -1.8519 -0.8520
  605MOL0     H83476   6.927   1.362   7.476 -0.0682  0.7006 -0.1290
  605MOL0     H83477   6.722   1.495   7.442 -0.3972 -1.8093 -0.1833
  605MOL0     H83478   6.412   1.569   7.531 -1.5727 -1.2516  0.5495
  605MOL0     H83479   6.500   1.437   7.583 -0.1254 -0.6754  0.6036
  605MOL0     H83480   6.344   1.634   7.768 -0.7399 -0.7787 -2.2772
  605MOL0     H83481   6.432   1.494   7.827 -0.5951  0.1372  1.1722
  605MOL0     H83482   6.195   1.480   7.664  0.6452 -0.4082 -1.3749
  605MOL0     H83483   6.300   1.344   7.679  0.2229  0.8729 -0.4619
  605MOL0     H83484   6.121   1.461   7.913 -1.0800 -0.6331 -1.6535
  605MOL0     H83485   6.274   1.377   7.951 -1.3746 -2.7612  1.2035
  605MOL0     H83486   6.004   1.075   7.865  0.4420 -0.2392 -1.9098
  605MOL0     H83487   6.738   1.620   7.852  1.6336 -1.3002  1.8320
  605MOL0     H83488   6.907   1.546   7.996  2.9471 -1.2208  3.2289
  605MOL0     H83489   6.928   1.379   7.969  1.6734 -0.1158  2.3567
  605MOL0     H83490   7.056   1.497   7.909 -0.3020  0.4617 -1.0064
  606MOL0     O83491  10.059   9.919   3.228  0.4382 -0.0163  0.6951
  606MOL0     C83492  10.132  10.013   3.207 -0.5268 -0.1923  0.4652
  606MOL0     O83493  10.140  10.118   3.285 -0.4087 -0.7706 -0.3536
  606MOL0     C83494  10.062  10.134   3.400  0.0945 -0.0132 -0.2766
  606MOL0     C83495  10.056  10.031   3.493 -0.0690 -0.5213 -0.4274
  606MOL0     C83496   9.972  10.041   3.604  0.7861 -0.2220 -0.3448
  606MOL0     C83497   9.898  10.152   3.626 -0.0212  0.6272  0.1945
  606MOL0     O83498   9.837  10.157   3.742 -0.2341  0.0875 -0.4671
  606MOL0     C83499   9.692  10.158   3.746  0.4072 -0.0992  0.1772
  606MOL0     C83500   9.622  10.168   3.889 -0.0761  0.5071 -0.7397
  606MOL0     C83501   9.660  10.046   3.982  0.4400 -0.2573 -0.6260
  606MOL0     C83502   9.799  10.064   4.060  0.3103 -0.4431  0.9007
  606MOL0     C83503   9.816   9.958   4.171 -0.0644 -0.9233  0.3023
  606MOL0     C83504   9.957   9.963   4.231  0.5419  0.4004  1.0458
  606MOL0     C83505   9.986   9.841   4.316  0.0498 -0.6192 -0.3213
  606MOL0     C83506  10.132   9.847   4.365 -0.0020 -0.2779 -0.1809
  606MOL0     N83507  10.155   9.784   4.493 -0.1177 -0.9118 -0.1261
  606MOL0     C83508  10.181   9.658   4.529  0.6699 -0.9328 -0.0687
  606MOL0     C83509  10.189   9.661   4.665  0.8917  0.1880 -0.0189
  606MOL0     C83510  10.221   9.539   4.757  0.3889 -0.5033  0.5429
  606MOL0     C83511  10.313   9.430   4.710  0.5774  0.4539 -0.6323
  606MOL0     C83512  10.361   9.345   4.829 -0.2684 -0.0150 -0.1703
  606MOL0     C83513  10.457   9.233   4.792 -0.5962  0.1133 -0.1770
  606MOL0     O83514  10.542   9.272   4.680  0.0418 -0.3371 -0.2683
  606MOL0     C83515  10.646   9.197   4.644  0.0240  0.5503  0.2178
  606MOL0     C83516  10.731   9.248   4.553  0.1191  0.3817 -0.0939
  606MOL0     C83517  10.841   9.171   4.504  0.3639 -0.2511 -0.1253
  606MOL0     C83518  10.914   9.232   4.395  0.2095  0.3480 -0.0899
  606MOL0     C83519  10.864   9.040   4.548  0.3280  0.0131 -0.0460
  606MOL0     C83520  10.963   8.944   4.506  0.7568  0.0855 -0.4721
  606MOL0     O83521  10.931   8.810   4.485 -0.4246 -0.0901  0.0942
  606MOL0     C83522  11.024   8.735   4.413 -0.4835  0.1009  0.6851
  606MOL0     C83523  11.059   8.774   4.282 -0.1650 -0.5985 -0.0167
  606MOL0     C83524  11.153   8.690   4.212 -0.0023 -0.2566  0.2102
  606MOL0     C83525  11.200   8.562   4.271  0.4630  0.5626  0.0794
  606MOL0     O83526  11.285   8.478   4.203 -0.1842 -0.8586  0.3351
  606MOL0     C83527  11.351   8.381   4.278 -0.1028  0.6743  0.4319
  606MOL0     C83528  11.447   8.302   4.189  0.1717 -0.1091  0.5445
  606MOL0     C83529  11.556   8.227   4.263 -0.3749 -0.0428 -0.4777
  606MOL0     C83530  11.638   8.316   4.356  0.0492 -0.5418 -0.4979
  606MOL0     C83531  11.759   8.255   4.416 -0.4475  0.1803 -0.4977
  606MOL0     C83532  11.737   8.125   4.502 -0.2875  0.0278 -0.2860
  606MOL0     C83533  11.674   8.145   4.641  0.0842  0.0358  0.2517
  606MOL0     C83534  11.680   8.024   4.739 -0.8126 -0.0062 -0.0805
  606MOL0    Cl83535  11.849   8.004   4.786  0.1064  0.1241 -0.1644
  606MOL0     C83536  11.163   8.537   4.404 -0.4123  0.6473  0.4388
  606MOL0     C83537  11.075   8.616   4.471  0.3090  0.3490  0.1871
  606MOL0     O83538  11.073   8.996   4.494  0.7995 -0.8218 -0.4504
  606MOL0     C83539  10.775   8.993   4.643 -0.3754 -0.7416 -0.0431
  606MOL0     C83540  10.663   9.067   4.691  0.8248  0.6256 -0.4137
  606MOL0     N83541  10.150   9.784   4.709 -0.4496  0.1356  0.4918
  606MOL0     N83542  10.134   9.856   4.603  0.8280 -0.1340  0.5537
  606MOL0     C83543   9.903  10.261   3.538 -0.7285 -0.2829 -0.6822
  606MOL0     C83544   9.985  10.252   3.423 -0.3688  0.4065 -0.4791
  606MOL0     C83545  10.215  10.022   3.081 -0.6767  0.1139  0.2316
  606MOL0     C83546  10.340  10.085   3.103 -0.3948 -0.0612 -0.0147
  606MOL0     C83547  10.427  10.086   2.988 -0.1802 -0.3355  0.3479
  606MOL0     C83548  10.400  10.039   2.861 -0.2800  0.0909  0.1305
  606MOL0     O83549  10.475  10.058   2.754 -0.1259  0.1545  0.6021
  606MOL0     C83550  10.581   9.971   2.749 -0.3643  0.2470  0.0990
  606MOL0     C83551  10.702  10.051   2.689 -0.0021 -0.4064 -0.1789
  606MOL0     C83552  10.831   9.985   2.729 -0.1758  0.3587 -0.2053
  606MOL0     C83553  10.959  10.063   2.698 -0.1851 -0.5355  0.5108
  606MOL0     C83554  11.083   9.995   2.740  0.0936 -0.2158  0.4515
  606MOL0     C83555  11.185   9.942   2.781  0.4061 -0.3022  1.0402
  606MOL0     C83556  10.272   9.988   2.849 -0.6785  0.0397 -0.1058
  606MOL0     C83557  10.185   9.973   2.961 -0.5337  0.3946  0.9397
  606MOL0     C83558  10.053   9.918   2.926 -0.3249 -0.0065  0.1784
  606MOL0     H83559  10.126   9.950   3.477  0.6307  0.1324 -0.7364
  606MOL0     H83560   9.969   9.958   3.674 -3.6164 -2.3669 -2.6549
  606MOL0     H83561   9.663  10.066   3.694 -0.6357 -0.2533  1.0038
  606MOL0     H83562   9.651  10.240   3.687  0.2764  1.5307  2.3884
  606MOL0     H83563   9.642  10.263   3.939  1.4236  0.1987 -0.7277
  606MOL0     H83564   9.515  10.156   3.868  0.1271 -0.6740 -1.1739
  606MOL0     H83565   9.576  10.031   4.050  1.8842 -0.9850  1.0730
  606MOL0     H83566   9.669   9.959   3.917 -0.4034  1.4316 -3.1626
  606MOL0     H83567   9.890  10.055   4.000 -2.3947 -1.2901 -3.4942
  606MOL0     H83568   9.797  10.165   4.102 -0.7244  0.2345 -0.6836
  606MOL0     H83569   9.795   9.855   4.142 -4.0415 -0.3184  0.4704
  606MOL0     H83570   9.751   9.988   4.254  1.8841 -0.4338  1.7252
  606MOL0     H83571  10.032   9.964   4.151  1.4497 -1.2544  1.8406
  606MOL0     H83572   9.969  10.058   4.285  2.8322  0.9171 -0.2170
  606MOL0     H83573   9.975   9.752   4.253 -0.9319 -1.1048  0.5105
  606MOL0     H83574   9.917   9.836   4.400  0.7085 -3.3280  0.1416
  606MOL0     H83575  10.186   9.797   4.284  0.7074 -1.7016  1.1266
  606MOL0     H83576  10.156   9.952   4.387 -1.9951  0.0486  0.6824
  606MOL0     H83577  10.191   9.569   4.467  2.6891  0.3771 -1.7485
  606MOL0     H83578  10.132   9.490   4.797  0.5972 -1.2212  0.1339
  606MOL0     H83579  10.277   9.571   4.845 -0.1083 -2.0758  1.4559
  606MOL0     H83580  10.265   9.374   4.629 -0.3286 -0.5501  0.5631
  606MOL0     H83581  10.404   9.481   4.676  0.3041  2.7871  1.7816
  606MOL0     H83582  10.412   9.410   4.901 -0.1978 -1.7160  1.3845
  606MOL0     H83583  10.276   9.297   4.879  1.1924 -0.9757  1.5109
  606MOL0     H83584  10.516   9.201   4.878  0.8939  0.1587 -1.1506
  606MOL0     H83585  10.397   9.152   4.750 -0.9953  0.0954  0.4169
  606MOL0     H83586  10.703   9.343   4.508  0.1512 -0.1376 -1.2662
  606MOL0     H83587  10.895   9.185   4.299  1.5218 -2.6470  0.9874
  606MOL0     H83588  11.021   9.212   4.399  0.4792  1.6686 -0.1329
  606MOL0     H83589  10.909   9.341   4.404 -0.7048  0.3758 -0.8196
  606MOL0     H83590  11.008   8.860   4.239 -1.9314 -1.0993  0.9850
  606MOL0     H83591  11.168   8.724   4.110 -1.8313  1.3635  0.4311
  606MOL0     H83592  11.399   8.425   4.366  3.2585 -1.8513  0.0575
  606MOL0     H83593  11.274   8.316   4.322  2.1022 -1.4682  1.3697
  606MOL0     H83594  11.392   8.245   4.113  0.4542 -0.6305  0.7280
  606MOL0     H83595  11.500   8.380   4.134 -0.5636 -0.8325 -1.2670
  606MOL0     H83596  11.620   8.180   4.188 -1.1372 -2.6356  0.3857
  606MOL0     H83597  11.505   8.157   4.329  0.6685  0.0268  0.4317
  606MOL0     H83598  11.575   8.357   4.436  1.3508 -0.9623  0.7823
  606MOL0     H83599  11.680   8.389   4.288  1.4565  0.5094  1.4010
  606MOL0     H83600  11.828   8.238   4.332 -1.1462  0.2804 -1.1024
  606MOL0     H83601  11.806   8.336   4.474  1.4003 -0.4569 -1.0142
  606MOL0     H83602  11.834   8.076   4.515 -1.0768 -1.6390 -0.5229
  606MOL0     H83603  11.677   8.061   4.438 -0.8677  2.7836 -2.6992
  606MOL0     H83604  11.569   8.172   4.628 -0.7789 -2.6905  0.8747
  606MOL0     H83605  11.724   8.228   4.692 -0.7604  0.8276 -0.1857
  606MOL0     H83606  11.636   7.935   4.693  1.4422 -1.1394 -0.1963
  606MOL0     H83607  11.623   8.048   4.829 -2.6319 -0.6495 -1.0191
  606MOL0     H83608  11.200   8.454   4.464 -0.1940  1.2812  1.1894
  606MOL0     H83609  11.032   8.580   4.564 -0.1969 -1.2878 -0.6419
  606MOL0     H83610  10.789   8.893   4.685  2.1282 -1.1347 -1.6240
  606MOL0     H83611  10.603   9.014   4.764  0.8608  0.3627 -0.5739
  606MOL0     H83612   9.851  10.353   3.564 -0.0721  0.2613 -1.2606
  606MOL0     H83613   9.978  10.333   3.351 -0.8938  2.0775  1.3575
  606MOL0     H83614  10.379  10.112   3.200 -0.2463 -0.8118  0.1462
  606MOL0     H83615  10.522  10.138   3.000  0.8893 -1.8253 -1.1273
  606MOL0     H83616  10.604   9.929   2.847  1.8436  2.2655  0.5595
  606MOL0     H83617  10.555   9.888   2.683 -0.7325  1.7839 -1.7951
  606MOL0     H83618  10.693  10.149   2.737 -2.3496  0.1083 -1.5107
  606MOL0     H83619  10.707  10.055   2.580  1.9269  1.4701 -0.0955
  606MOL0     H83620  10.830   9.957   2.835 -1.0413 -0.7126 -0.4723
  606MOL0     H83621  10.835   9.889   2.677 -1.6104  0.0784  0.1640
  606MOL0     H83622  10.944  10.155   2.755 -3.0582 -0.0361 -0.8696
  606MOL0     H83623  10.956  10.086   2.591 -1.6065 -1.7384  0.2535
  606MOL0     H83624  11.262   9.880   2.821  0.1979 -0.2187  1.5666
  606MOL0     H83625  10.235   9.954   2.753 -0.7566  1.3131 -0.5559
  606MOL0     H83626  10.034   9.897   2.821  0.2904 -1.8684  0.3985
  606MOL0     H83627  10.039   9.823   2.979  1.1057 -0.3458 -0.0184
  606MOL0     H83628   9.977   9.988   2.964 -1.6106 -2.2598  2.0991
  607MOL0     O83629   1.770  11.242   1.162  0.2450 -0.6010  0.0233
  607MOL0     C83630   1.670  11.235   1.237  0.9660  0.1159  0.7334
  607MOL0     O83631   1.665  11.283   1.368 -0.5727 -0.6181  0.1068
  607MOL0     C83632   1.779  11.330   1.432  0.6389  0.0394 -0.9120
  607MOL0     C83633   1.758  11.413   1.545  0.0183  0.2713  0.0114
  607MOL0     C83634   1.862  11.468   1.614  0.3279 -0.3692  0.1696
  607MOL0     C83635   1.993  11.436   1.576  0.2383 -0.1437 -0.6149
  607MOL0     O83636   2.094  11.496   1.650 -0.1123  0.1211  0.1663
  607MOL0     C83637   2.217  11.517   1.578  0.5151 -0.3420  0.1396
  607MOL0     C83638   2.285  11.639   1.641  0.3632  0.0181 -0.6404
  607MOL0     C83639   2.429  11.662   1.598  0.1127  0.1615 -0.3530
  607MOL0     C83640   2.523  11.542   1.648  1.0155  0.1727  0.1532
  607MOL0     C83641   2.677  11.574   1.635  0.3809  0.1676 -0.4308
  607MOL0     C83642   2.772  11.464   1.650  0.3247 -0.3012  0.0306
  607MOL0     C83643   2.918  11.524   1.668 -0.3633  0.4666 -0.7592
  607MOL0     C83644   3.017  11.429   1.745 -0.2401 -0.4205 -0.8372
  607MOL0     N83645   3.159  11.473   1.754  0.3803 -0.1700  0.4895
  607MOL0     C83646   3.224  11.498   1.875  0.1136  0.2890 -0.4055
  607MOL0     C83647   3.338  11.556   1.835  0.4845 -0.4290  1.3145
  607MOL0     C83648   3.438  11.599   1.933  0.3658  0.6855  0.1762
  607MOL0     C83649   3.582  11.551   1.890 -0.0466 -0.0216  0.2454
  607MOL0     C83650   3.678  11.542   2.014 -0.0553 -0.4545 -0.2785
  607MOL0     C83651   3.704  11.681   2.069  0.6429 -0.6585 -0.3997
  607MOL0     O83652   3.805  11.681   2.165 -0.4030 -0.5491  0.1114
  607MOL0     C83653   3.934  11.648   2.132 -0.7193 -0.0566  0.1547
  607MOL0     C83654   3.986  11.674   2.006 -0.3843  0.4253  0.3849
  607MOL0     C83655   4.122  11.638   1.978  0.7857  0.0615  0.9597
  607MOL0     C83656   4.167  11.687   1.836  0.7496 -0.1498 -0.8512
  607MOL0     C83657   4.201  11.569   2.073 -0.0133 -0.4784  0.1955
  607MOL0     C83658   4.333  11.513   2.038 -0.3218 -0.9750 -0.0985
  607MOL0     O83659   4.401  11.466   2.151  0.5301 -0.4402  0.3266
  607MOL0     C83660   4.534  11.438   2.141 -1.0422  0.2273  0.9970
  607MOL0     C83661   4.577  11.307   2.109  0.1861  0.4077  0.7750
  607MOL0     C83662   4.706  11.273   2.151  0.0945 -0.3643 -0.2182
  607MOL0     C83663   4.796  11.363   2.209 -0.3200 -0.2575  0.4399
  607MOL0     O83664   4.926  11.327   2.249 -0.2471 -1.0121 -0.3774
  607MOL0     C83665   4.970  11.354   2.381 -0.3171  0.7877 -0.6991
  607MOL0     C83666   5.128  11.363   2.372 -0.2517 -0.4501  0.2836
  607MOL0     C83667   5.214  11.245   2.319 -0.4925  0.7342 -0.6391
  607MOL0     C83668   5.361  11.273   2.324  1.1225 -0.3469 -0.4015
  607MOL0     C83669   5.441  11.146   2.348 -0.2251  0.3488 -0.2364
  607MOL0     C83670   5.587  11.164   2.341 -0.8327  0.3311 -1.3981
  607MOL0     C83671   5.672  11.036   2.367  0.2155 -0.2883 -0.3201
  607MOL0     C83672   5.680  10.951   2.241 -0.2289 -0.5532 -0.4839
  607MOL0    Cl83673   5.771  11.019   2.103  0.0815 -0.0433 -0.3413
  607MOL0     C83674   4.753  11.493   2.222 -0.1421 -0.3809  0.4453
  607MOL0     C83675   4.620  11.532   2.202 -0.3226  1.1398 -0.3065
  607MOL0     O83676   4.375  11.508   1.923 -0.0336  0.0987 -0.5782
  607MOL0     C83677   4.144  11.563   2.204  0.0682  0.7033  0.1334
  607MOL0     C83678   4.021  11.599   2.233 -0.0703 -0.7812 -0.6377
  607MOL0     N83679   3.349  11.564   1.695  0.4603 -0.3980 -0.0630
  607MOL0     N83680   3.247  11.495   1.654  0.4300  0.1975  0.0951
  607MOL0     C83681   2.019  11.346   1.477 -0.2061  0.0372 -0.0532
  607MOL0     C83682   1.909  11.295   1.403 -0.7913 -0.3291  0.4265
  607MOL0     C83683   1.540  11.186   1.178  0.1133 -0.2788 -0.2538
  607MOL0     C83684   1.522  11.178   1.037  0.1327 -0.0430 -0.1470
  607MOL0     C83685   1.404  11.136   0.972 -0.4676 -0.4083 -0.0945
  607MOL0     C83686   1.300  11.105   1.054 -0.5191  0.0355  0.0086
  607MOL0     O83687   1.167  11.069   1.019 -0.1960  0.9641 -0.2019
  607MOL0     C83688   1.135  11.101   0.882  0.1832  0.1339  0.0950
  607MOL0     C83689   1.140  11.258   0.856 -0.3242  0.5634  1.4862
  607MOL0     C83690   1.060  11.330   0.962 -1.1898  0.9062  0.2297
  607MOL0     C83691   0.904  11.344   0.935  0.5630 -0.2927  0.4686
  607MOL0     C83692   0.833  11.231   0.989  0.0259 -0.5204 -0.7334
  607MOL0     C83693   0.779  11.140   1.051  0.6360  0.3113 -0.3770
  607MOL0     C83694   1.309  11.113   1.194  1.3680 -0.0917  0.5513
  607MOL0     C83695   1.429  11.156   1.258 -0.7957 -0.6756  0.4746
  607MOL0     C83696   1.405  11.176   1.408  0.3044  0.4667  0.9193
  607MOL0     H83697   1.654  11.433   1.568  0.2420 -0.0025  1.3840
  607MOL0     H83698   1.839  11.543   1.689 -1.2489 -0.9180  0.2789
  607MOL0     H83699   2.206  11.539   1.472  1.6681 -3.7081 -0.8117
  607MOL0     H83700   2.281  11.428   1.584  0.3201 -0.4666  0.4110
  607MOL0     H83701   2.230  11.733   1.625  1.4677  0.6718 -0.7017
  607MOL0     H83702   2.284  11.620   1.748 -0.7447  2.4620 -0.1289
  607MOL0     H83703   2.438  11.673   1.489  0.4516  1.3497 -0.2205
  607MOL0     H83704   2.472  11.752   1.643 -0.7264  1.4236 -1.9433
  607MOL0     H83705   2.501  11.511   1.750  1.9491 -1.5834 -0.1484
  607MOL0     H83706   2.497  11.453   1.591 -0.9769 -1.5429  3.4778
  607MOL0     H83707   2.706  11.662   1.693  1.6190 -0.3564 -0.2229
  607MOL0     H83708   2.691  11.604   1.531 -0.4885  0.5462 -0.4490
  607MOL0     H83709   2.749  11.408   1.741  0.5176  0.5726  0.6317
  607MOL0     H83710   2.758  11.396   1.565 -2.8064 -0.6593  0.7146
  607MOL0     H83711   2.915  11.622   1.717  1.7981 -0.7858  2.1808
  607MOL0     H83712   2.948  11.532   1.563 -0.9550  2.1444 -0.8253
  607MOL0     H83713   2.978  11.420   1.847 -3.0866  0.0124 -1.7980
  607MOL0     H83714   3.005  11.332   1.698 -0.5480 -0.5628 -0.4653
  607MOL0     H83715   3.181  11.478   1.973 -3.0435  3.4737 -0.9298
  607MOL0     H83716   3.401  11.561   2.029 -1.3633  0.9149 -0.3564
  607MOL0     H83717   3.441  11.708   1.941  2.3446  0.7256 -0.6258
  607MOL0     H83718   3.579  11.449   1.849  3.0195  0.8395 -2.5599
  607MOL0     H83719   3.614  11.615   1.808 -0.3020  0.8746  0.8378
  607MOL0     H83720   3.629  11.478   2.088 -0.6576  0.0975 -0.1943
  607MOL0     H83721   3.768  11.489   1.981  1.6649  1.5232  0.9440
  607MOL0     H83722   3.729  11.755   1.992  2.3596 -0.0727  0.6798
  607MOL0     H83723   3.617  11.717   2.125 -0.0664 -3.7617  0.7064
  607MOL0     H83724   3.922  11.705   1.924 -1.5186  0.7844  1.3778
  607MOL0     H83725   4.267  11.731   1.837 -0.0562  2.2069 -4.1599
  607MOL0     H83726   4.107  11.772   1.801  0.4105 -0.5823 -1.3290
  607MOL0     H83727   4.164  11.608   1.760  2.4217  1.2994 -2.5364
  607MOL0     H83728   4.510  11.226   2.083  2.2758 -0.8813 -0.8861
  607MOL0     H83729   4.733  11.168   2.145 -1.1801 -0.8864  1.9395
  607MOL0     H83730   4.930  11.448   2.419 -1.1829  0.2358 -0.2016
  607MOL0     H83731   4.929  11.280   2.450 -0.5699 -0.2741 -1.9307
  607MOL0     H83732   5.157  11.447   2.307  1.0001 -1.0630  0.0058
  607MOL0     H83733   5.156  11.382   2.476 -1.7956 -1.7811  0.9742
  607MOL0     H83734   5.184  11.224   2.216  0.6629  3.0709 -1.5406
  607MOL0     H83735   5.187  11.162   2.384  3.4217  0.1158  0.4519
  607MOL0     H83736   5.372  11.333   2.416  0.3695 -2.3466  1.0649
  607MOL0     H83737   5.391  11.336   2.240 -0.1587 -2.6092 -2.6741
  607MOL0     H83738   5.402  11.104   2.442 -0.5944  1.4064  0.1028
  607MOL0     H83739   5.417  11.084   2.261  1.4594  2.8191 -2.6097
  607MOL0     H83740   5.619  11.245   2.406  0.4533  0.1562 -1.7945
  607MOL0     H83741   5.614  11.191   2.239 -0.6201 -2.0024 -2.0297
  607MOL0     H83742   5.637  10.988   2.458  1.0581  0.4761  0.4305
  607MOL0     H83743   5.770  11.070   2.403  0.7966 -1.9570 -0.2293
  607MOL0     H83744   5.585  10.920   2.195  0.4911 -2.1387 -0.9694
  607MOL0     H83745   5.727  10.861   2.282 -1.4433 -0.8484  0.3350
  607MOL0     H83746   4.822  11.567   2.262 -1.9608  1.3073  0.5680
  607MOL0     H83747   4.571  11.627   2.218 -1.2782  1.0860 -2.5378
  607MOL0     H83748   4.203  11.521   2.285 -1.8733 -2.3788  0.1289
  607MOL0     H83749   3.982  11.614   2.333 -0.7862 -0.8414 -0.9022
  607MOL0     H83750   2.115  11.312   1.439 -2.6502 -4.1516 -3.4412
  607MOL0     H83751   1.946  11.231   1.323  0.0780  0.8350 -0.1460
  607MOL0     H83752   1.612  11.196   0.978  1.0888 -2.1625  0.5501
  607MOL0     H83753   1.404  11.131   0.864  1.2507 -2.3888 -0.0470
  607MOL0     H83754   1.196  11.051   0.806 -2.2553 -1.3243 -1.0334
  607MOL0     H83755   1.031  11.075   0.857  0.0658 -0.8655  1.5274
  607MOL0     H83756   1.116  11.272   0.750 -1.1880 -1.0866  1.4411
  607MOL0     H83757   1.239  11.302   0.871 -0.1859  0.1840  1.6949
  607MOL0     H83758   1.081  11.280   1.056  0.2987  1.6170  0.3043
  607MOL0     H83759   1.096  11.433   0.973  1.3670 -0.1329  2.7982
  607MOL0     H83760   0.875  11.352   0.830  0.1158 -2.3472  0.3863
  607MOL0     H83761   0.857  11.422   0.994  1.0982 -0.9536  1.8186
  607MOL0     H83762   0.731  11.063   1.108  1.0962 -0.6573 -1.2658
  607MOL0     H83763   1.216  11.100   1.250  0.0482 -2.1883 -1.9232
  607MOL0     H83764   1.333  11.101   1.443  3.1416 -3.8252 -1.4145
  607MOL0     H83765   1.494  11.164   1.470  0.9047 -4.5537 -0.4281
  607MOL0     H83766   1.378  11.281   1.422  0.2490  0.9010 -1.9065
  608MOL0     O83767   0.743   5.356   5.092 -0.6272  0.9083 -0.0222
  608MOL0     C83768   0.725   5.476   5.124  0.4360  0.8549 -0.4503
  608MOL0     O83769   0.819   5.566   5.135 -0.5091 -0.8010  0.1262
  608MOL0     C83770   0.954   5.520   5.131  0.1715  0.3640 -0.1173
  608MOL0     C83771   1.051   5.585   5.054 -0.1198 -0.5414  0.4372
  608MOL0     C83772   1.186   5.549   5.069  1.0989 -0.3197 -0.5000
  608MOL0     C83773   1.226   5.455   5.171 -0.8581  0.0910  0.4061
  608MOL0     O83774   1.354   5.423   5.192 -0.1872  0.6139 -0.2152
  608MOL0     C83775   1.460   5.509   5.149 -0.6698 -1.5350 -0.1241
  608MOL0     C83776   1.597   5.454   5.207 -0.0204  0.1629  0.5513
  608MOL0     C83777   1.650   5.336   5.126 -0.0044 -0.5485 -0.3133
  608MOL0     C83778   1.744   5.254   5.202 -0.3406  0.5563 -0.1986
  608MOL0     C83779   1.823   5.147   5.130 -0.4896 -0.0778  0.7219
  608MOL0     C83780   1.949   5.099   5.204 -0.3444  0.2350  0.2025
  608MOL0     C83781   2.032   5.005   5.122  0.1440 -0.2013  0.0422
  608MOL0     C83782   2.174   5.004   5.189  0.0812  0.4276 -0.5180
  608MOL0     N83783   2.240   4.881   5.137  0.8083 -0.5340  0.4228
  608MOL0     C83784   2.353   4.833   5.192 -0.2198  0.4020  0.2703
  608MOL0     C83785   2.400   4.745   5.103 -1.0362 -0.5051 -1.2889
  608MOL0     C83786   2.519   4.654   5.120  0.6012  0.8787 -0.7052
  608MOL0     C83787   2.624   4.662   5.001 -0.1334 -0.0427 -0.0135
  608MOL0     C83788   2.743   4.566   5.025  0.7705  1.4856 -0.2658
  608MOL0     C83789   2.849   4.596   4.913  0.8450  0.5471 -0.7531
  608MOL0     O83790   2.919   4.472   4.901 -1.6752  0.5778 -0.5658
  608MOL0     C83791   3.050   4.454   4.908 -0.2645 -0.6127  0.1849
  608MOL0     C83792   3.141   4.558   4.942  0.2835  0.1270 -1.0200
  608MOL0     C83793   3.280   4.528   4.949  0.3645 -0.3046 -0.5526
  608MOL0     C83794   3.359   4.655   4.971  0.4282 -0.7583  0.2323
  608MOL0     C83795   3.334   4.400   4.932 -1.1499  0.0049 -0.3510
  608MOL0     C83796   3.476   4.366   4.957 -0.5759 -0.3617  0.2838
  608MOL0     O83797   3.569   4.467   4.947 -0.3745  0.4741  0.2614
  608MOL0     C83798   3.697   4.445   4.995  0.0946 -0.8094  0.4968
  608MOL0     C83799   3.726   4.396   5.122 -0.2630  0.5114 -0.1405
  608MOL0     C83800   3.858   4.377   5.161  0.1520 -0.3781  0.5277
  608MOL0     C83801   3.965   4.423   5.081 -0.2999  0.2959 -0.2595
  608MOL0     O83802   4.091   4.424   5.130 -0.7267  0.0360  0.2960
  608MOL0     C83803   4.170   4.321   5.067  0.0338  0.4386 -0.0891
  608MOL0     C83804   4.313   4.317   5.126 -0.2284 -0.1521  0.5894
  608MOL0     C83805   4.391   4.434   5.065  0.1273 -0.1319 -0.7173
  608MOL0     C83806   4.531   4.433   5.115 -0.3328  0.4110  0.5647
  608MOL0     C83807   4.609   4.543   5.054  0.0738 -0.3267  0.0128
  608MOL0     C83808   4.755   4.544   5.101 -1.0249 -0.6946  0.1856
  608MOL0     C83809   4.838   4.653   5.027 -0.3454  0.3966 -0.3262
  608MOL0     C83810   4.955   4.709   5.106  0.2612 -0.4712 -0.8744
  608MOL0    Cl83811   5.064   4.585   5.180  0.1974 -0.4535  0.4359
  608MOL0     C83812   3.934   4.479   4.961  0.1932  0.3607  0.9556
  608MOL0     C83813   3.806   4.489   4.916 -0.4884  0.3098  0.5068
  608MOL0     O83814   3.501   4.245   4.980  0.2952 -0.2954  0.0953
  608MOL0     C83815   3.234   4.296   4.913 -0.0203  0.3919 -0.8460
  608MOL0     C83816   3.094   4.324   4.893 -0.1560  0.5107  1.1844
  608MOL0     N83817   2.329   4.758   4.986  0.6547  0.4520 -0.3708
  608MOL0     N83818   2.232   4.837   5.011  0.4307 -0.8981  0.0849
  608MOL0     C83819   1.128   5.380   5.241 -1.3409  0.4651  1.0733
  608MOL0     C83820   0.998   5.415   5.221  0.1289 -0.3635 -0.3932
  608MOL0     C83821   0.591   5.530   5.141  0.1333 -0.0982  1.2462
  608MOL0     C83822   0.564   5.657   5.089 -0.4553 -0.5543  0.2290
  608MOL0     C83823   0.426   5.701   5.100 -0.4963 -0.5400 -0.3193
  608MOL0     C83824   0.335   5.633   5.166  0.3959  0.5532  0.3085
  608MOL0     O83825   0.210   5.686   5.186 -0.0483  0.3521 -0.0172
  608MOL0     C83826   0.107   5.622   5.259 -1.0091  0.1992  0.7744
  608MOL0     C83827  -0.014   5.694   5.207 -0.2506  0.6160  0.2001
  608MOL0     C83828  -0.134   5.691   5.305  0.0685 -0.9362 -0.9065
  608MOL0     C83829  -0.116   5.778   5.435 -0.8510 -0.0850 -0.4047
  608MOL0     C83830  -0.097   5.924   5.422 -0.2219 -0.0398 -0.2237
  608MOL0     C83831  -0.098   6.048   5.416  0.6040 -0.1064 -0.1103
  608MOL0     C83832   0.366   5.510   5.213 -0.3584  0.0938 -0.6004
  608MOL0     C83833   0.486   5.453   5.198 -1.2711 -0.8190 -0.1883
  608MOL0     C83834   0.511   5.310   5.250  0.0057 -0.0253 -1.2022
  608MOL0     H83835   1.032   5.665   4.983 -0.7797  0.5288  1.7520
  608MOL0     H83836   1.263   5.585   5.002  2.5209 -0.0223  1.2289
  608MOL0     H83837   1.451   5.614   5.180 -1.0245 -1.8287  0.8249
  608MOL0     H83838   1.458   5.503   5.040 -0.4536  0.9071 -0.3157
  608MOL0     H83839   1.678   5.526   5.189 -0.4602 -0.0424 -3.0078
  608MOL0     H83840   1.591   5.430   5.314 -2.3992  0.3581  0.5278
  608MOL0     H83841   1.569   5.268   5.100  1.4092 -1.2990 -3.1441
  608MOL0     H83842   1.710   5.373   5.042 -1.5387  0.9796 -0.7771
  608MOL0     H83843   1.813   5.319   5.257 -1.4237  2.3791 -0.9041
  608MOL0     H83844   1.695   5.195   5.281  2.6960  1.1484  2.3464
  608MOL0     H83845   1.850   5.190   5.033  2.1821  0.8453  1.7657
  608MOL0     H83846   1.769   5.052   5.122  0.5577 -0.7224  1.0328
  608MOL0     H83847   2.014   5.186   5.220 -1.6537  1.0835  1.1855
  608MOL0     H83848   1.921   5.063   5.303  0.6469 -1.1392 -0.0038
  608MOL0     H83849   2.047   5.035   5.018  0.7710  2.4656  0.8404
  608MOL0     H83850   1.981   4.908   5.118 -1.3545  0.5190 -4.4554
  608MOL0     H83851   2.236   5.091   5.166 -2.0343  1.8057 -1.4150
  608MOL0     H83852   2.169   4.996   5.298 -0.4844 -1.1557 -0.6294
  608MOL0     H83853   2.387   4.859   5.292  0.1987 -0.5425  0.3824
  608MOL0     H83854   2.484   4.551   5.127  1.7463  0.5162 -0.0476
  608MOL0     H83855   2.567   4.680   5.215  1.4874  0.5818 -1.0641
  608MOL0     H83856   2.577   4.650   4.903 -1.5759  1.7551  0.4139
  608MOL0     H83857   2.660   4.765   5.007  0.3582 -0.2553  0.8519
  608MOL0     H83858   2.788   4.573   5.124  0.9479  1.6026 -0.3540
  608MOL0     H83859   2.710   4.462   5.017  1.8826  1.0480  0.5727
  608MOL0     H83860   2.801   4.629   4.821 -2.3936 -0.6335  0.3875
  608MOL0     H83861   2.905   4.685   4.944  0.7977  0.6421 -0.9373
  608MOL0     H83862   3.104   4.656   4.970 -0.4320 -0.8155  1.5919
  608MOL0     H83863   3.436   4.672   4.895  2.4194 -1.0583  2.0767
  608MOL0     H83864   3.404   4.655   5.071  0.4206  1.2507  0.2653
  608MOL0     H83865   3.298   4.746   4.966 -0.6426 -1.5566 -2.4886
  608MOL0     H83866   3.640   4.373   5.185  1.2626 -1.9231  1.1973
  608MOL0     H83867   3.878   4.320   5.252 -1.9016 -2.4462 -0.2115
  608MOL0     H83868   4.121   4.226   5.089  0.0789  0.6718  1.1009
  608MOL0     H83869   4.158   4.330   4.959  0.5109 -0.4469 -0.2242
  608MOL0     H83870   4.324   4.322   5.234  1.7535  4.8482  0.4626
  608MOL0     H83871   4.368   4.228   5.095  1.4640  1.0211 -0.0010
  608MOL0     H83872   4.343   4.527   5.098 -0.3310  0.1120 -2.0367
  608MOL0     H83873   4.401   4.432   4.956  1.3833 -0.1409 -0.6067
  608MOL0     H83874   4.588   4.343   5.088  2.0060  1.8522  0.3930
  608MOL0     H83875   4.537   4.439   5.224 -1.2031 -2.2698  0.8506
  608MOL0     H83876   4.613   4.528   4.946  0.3626  0.5813 -0.1177
  608MOL0     H83877   4.557   4.639   5.068  0.4882 -0.4658  3.1382
  608MOL0     H83878   4.793   4.442   5.105  1.6148  0.1323 -1.5769
  608MOL0     H83879   4.752   4.581   5.204  0.4054  1.3024 -0.4426
  608MOL0     H83880   4.775   4.740   5.004  0.2035  0.8245 -0.2042
  608MOL0     H83881   4.872   4.603   4.935 -0.6707 -1.1518  0.3573
  608MOL0     H83882   4.908   4.760   5.191  1.6579 -0.6431  0.0187
  608MOL0     H83883   5.017   4.778   5.049 -1.0570  1.4162 -0.1313
  608MOL0     H83884   4.012   4.509   4.892  0.7544 -0.8630  1.0469
  608MOL0     H83885   3.786   4.525   4.816 -1.3179 -0.8465  0.2377
  608MOL0     H83886   3.281   4.198   4.906 -0.5659  0.1118 -0.6028
  608MOL0     H83887   3.025   4.243   4.876 -0.5523  0.9086  0.8623
  608MOL0     H83888   1.159   5.296   5.302  0.1945  0.5285  0.4193
  608MOL0     H83889   0.926   5.366   5.286 -1.7845  1.2193 -1.1718
  608MOL0     H83890   0.641   5.716   5.041 -1.9884  0.2098 -1.4077
  608MOL0     H83891   0.403   5.801   5.065 -1.9202 -0.2465  1.3364
  608MOL0     H83892   0.097   5.514   5.245  0.2600  0.1265  0.2456
  608MOL0     H83893   0.115   5.640   5.366  0.3956 -1.9737  1.0890
  608MOL0     H83894  -0.041   5.656   5.107  1.9310 -0.5242 -0.0284
  608MOL0     H83895   0.009   5.800   5.194 -1.2783  0.8967  0.5654
  608MOL0     H83896  -0.217   5.730   5.245  0.9819  0.3340 -1.4096
  608MOL0     H83897  -0.164   5.595   5.348  0.7756 -0.9394 -0.4057
  608MOL0     H83898  -0.031   5.742   5.492  0.7973 -0.4974 -2.9425
  608MOL0     H83899  -0.209   5.769   5.492 -0.0317 -1.0292  0.8096
  608MOL0     H83900  -0.091   6.155   5.414  1.0819 -0.1473 -1.5185
  608MOL0     H83901   0.290   5.443   5.254 -0.1564  0.8544  1.0691
  608MOL0     H83902   0.434   5.284   5.324 -0.7411 -0.6841 -2.1879
  608MOL0     H83903   0.509   5.237   5.169 -1.8863 -0.4379 -0.8340
  608MOL0     H83904   0.601   5.310   5.312 -0.8865  2.9388  0.2779
  609MOL0     O83905   2.637  11.133   0.541  0.0177  0.1483  0.1275
  609MOL0     C83906   2.597  11.193   0.643  0.4567 -0.0923  0.1057
  609MOL0     O83907   2.497  11.172   0.723 -0.4454  0.2116  0.6567
  609MOL0     C83908   2.398  11.093   0.681  0.6491  0.3669  0.6656
  609MOL0     C83909   2.419  10.949   0.671  0.3305  0.5496  0.3524
  609MOL0     C83910   2.311  10.870   0.633  0.1288 -0.7390  0.5512
  609MOL0     C83911   2.185  10.932   0.616 -0.3802 -0.0390  0.5375
  609MOL0     O83912   2.087  10.858   0.559  0.5637 -0.1435  0.3110
  609MOL0     C83913   1.962  10.838   0.631  0.3879 -0.1303 -0.1527
  609MOL0     C83914   1.928  10.694   0.658 -0.4741 -0.9626 -0.3197
  609MOL0     C83915   2.024  10.635   0.758 -0.9329  0.9107 -0.2805
  609MOL0     C83916   2.004  10.480   0.762  0.1902 -0.1431  0.6977
  609MOL0     C83917   2.087  10.414   0.876  0.2062 -0.6495  0.2149
  609MOL0     C83918   2.111  10.271   0.834  0.0948  0.4210 -0.2584
  609MOL0     C83919   2.202  10.190   0.928  0.4076  0.6958  0.4585
  609MOL0     C83920   2.215  10.042   0.887  0.0821 -0.2963 -1.0222
  609MOL0     N83921   2.303   9.985   1.000 -0.4088  0.3947 -0.0792
  609MOL0     C83922   2.439   9.997   1.011  0.5003 -0.0354  1.2136
  609MOL0     C83923   2.459   9.941   1.131 -0.2403  0.5075  0.5304
  609MOL0     C83924   2.602   9.938   1.182  0.1695 -0.8407  0.9435
  609MOL0     C83925   2.581   9.907   1.335 -0.4474 -1.2021  0.0128
  609MOL0     C83926   2.705   9.935   1.419 -0.8784  0.4943  0.6757
  609MOL0     C83927   2.825   9.848   1.381 -0.6443 -0.5291 -0.6564
  609MOL0     O83928   2.930   9.939   1.342 -0.0812  0.1220 -0.0545
  609MOL0     C83929   3.056   9.885   1.355 -0.3796 -0.3209 -0.2178
  609MOL0     C83930   3.108   9.769   1.299 -0.4325  0.0417 -0.1832
  609MOL0     C83931   3.237   9.721   1.323  0.5610 -0.0069 -0.1591
  609MOL0     C83932   3.264   9.594   1.252 -0.3271 -0.4334  0.3011
  609MOL0     C83933   3.326   9.799   1.397 -0.4658 -0.3932 -0.4966
  609MOL0     C83934   3.465   9.770   1.426  0.3215 -0.0733  0.3009
  609MOL0     O83935   3.524   9.835   1.527  0.3337 -0.6800  0.4221
  609MOL0     C83936   3.647   9.817   1.577 -0.2531  0.6770  0.2688
  609MOL0     C83937   3.727   9.697   1.552  0.6131 -0.1612  0.7363
  609MOL0     C83938   3.853   9.680   1.599 -0.2254  0.4871 -0.6919
  609MOL0     C83939   3.916   9.785   1.657 -0.3753  0.1890 -0.1707
  609MOL0     O83940   4.048   9.762   1.678 -0.2463  0.5581  0.3196
  609MOL0     C83941   4.136   9.851   1.746  0.4565  0.3441  0.7245
  609MOL0     C83942   4.122   9.831   1.896 -0.5483 -0.5840  0.9539
  609MOL0     C83943   4.163   9.960   1.965  0.6105  0.6066  0.9675
  609MOL0     C83944   4.178   9.924   2.111 -1.0618 -0.0728 -0.8674
  609MOL0     C83945   4.075   9.844   2.186 -0.5238 -0.3324  0.4242
  609MOL0     C83946   3.948   9.928   2.192 -0.2113 -0.5304 -0.4069
  609MOL0     C83947   3.813   9.857   2.234  0.0556  0.1345 -0.0957
  609MOL0     C83948   3.690   9.951   2.205 -0.4600 -0.0425  0.0152
  609MOL0    Cl83949   3.680  10.034   2.042  0.1608  0.1073 -0.3003
  609MOL0     C83950   3.848   9.910   1.683 -0.1120  0.1850  0.5812
  609MOL0     C83951   3.719   9.925   1.642 -0.2072  0.5282  0.1226
  609MOL0     O83952   3.512   9.676   1.366 -0.0720 -0.7477 -0.3694
  609MOL0     C83953   3.270   9.912   1.464 -0.4761 -0.3442 -0.5635
  609MOL0     C83954   3.141   9.955   1.442 -0.1712  0.0082  0.3389
  609MOL0     N83955   2.343   9.893   1.193  0.2185  0.4738 -0.0338
  609MOL0     N83956   2.247   9.908   1.105 -0.3363 -0.5163 -0.1440
  609MOL0     C83957   2.160  11.065   0.630  0.2405 -0.2798 -0.7138
  609MOL0     C83958   2.274  11.146   0.657  0.6004 -0.0009  0.4246
  609MOL0     C83959   2.688  11.306   0.673 -0.3694  0.4421  0.4513
  609MOL0     C83960   2.823  11.289   0.646  0.3583 -0.2633  0.5057
  609MOL0     C83961   2.920  11.388   0.655 -0.3007 -0.5475 -1.0006
  609MOL0     C83962   2.885  11.514   0.710  1.0084 -0.3220 -0.0860
  609MOL0     O83963   2.978  11.620   0.746  0.3463  0.3722  0.8205
  609MOL0     C83964   3.118  11.605   0.719  0.3107  0.4951  0.0273
  609MOL0     C83965   3.191  11.727   0.752  0.1620 -0.1021 -0.4169
  609MOL0     C83966   3.342  11.711   0.722 -0.2586  0.2909  0.3230
  609MOL0     C83967   3.431  11.820   0.787 -0.6963 -0.6106  0.2807
  609MOL0     C83968   3.574  11.772   0.780  0.1305 -0.7846  0.1239
  609MOL0     C83969   3.690  11.734   0.765 -0.1867  0.7173 -0.1731
  609MOL0     C83970   2.751  11.531   0.749 -0.4176  0.3192 -0.6016
  609MOL0     C83971   2.649  11.432   0.723  0.9917 -0.3945 -0.1316
  609MOL0     C83972   2.504  11.468   0.754 -0.3912 -0.2963  1.0196
  609MOL0     H83973   2.519  10.910   0.679  0.2385  0.4856  1.4611
  609MOL0     H83974   2.312  10.768   0.594 -0.6624 -0.8653  0.8588
  609MOL0     H83975   1.878  10.881   0.576  0.1861  0.5275  0.6467
  609MOL0     H83976   1.959  10.882   0.731 -0.0412 -1.4424  0.4439
  609MOL0     H83977   1.829  10.682   0.702  0.2937 -2.5055  1.0881
  609MOL0     H83978   1.921  10.642   0.562 -1.5435 -0.1402 -0.7076
  609MOL0     H83979   2.128  10.657   0.732 -0.3282 -0.1704  1.0739
  609MOL0     H83980   2.017  10.677   0.859 -1.1768 -2.7324  1.3786
  609MOL0     H83981   1.898  10.458   0.779  0.3213 -1.3630  0.0570
  609MOL0     H83982   2.027  10.442   0.662  0.7802  0.6578  0.5168
  609MOL0     H83983   2.030  10.414   0.969 -3.5959 -2.8108 -1.8519
  609MOL0     H83984   2.183  10.462   0.895 -0.6093  0.9250  0.5740
  609MOL0     H83985   2.017  10.214   0.833 -0.0055  0.4961  1.3621
  609MOL0     H83986   2.146  10.277   0.731 -3.4237 -0.9671 -1.6892
  609MOL0     H83987   2.150  10.199   1.024  2.5366  0.0533  1.7427
  609MOL0     H83988   2.305  10.222   0.948  1.2387 -1.1676 -0.6476
  609MOL0     H83989   2.113  10.003   0.894  0.1363 -0.1433  2.0107
  609MOL0     H83990   2.255  10.047   0.786  1.1126 -0.9086 -0.6552
  609MOL0     H83991   2.505  10.038   0.935  1.5849 -4.0269 -0.2284
  609MOL0     H83992   2.644  10.038   1.170 -3.5960  1.6179  5.1560
  609MOL0     H83993   2.663   9.860   1.136 -0.3973 -0.8839  0.2320
  609MOL0     H83994   2.509   9.977   1.376 -1.7401 -3.0040  0.9284
  609MOL0     H83995   2.536   9.807   1.342 -1.2588 -0.7705  1.2555
  609MOL0     H83996   2.733  10.040   1.403  1.3311 -0.0521  0.6093
  609MOL0     H83997   2.686   9.920   1.525  0.3886  0.7445  0.9542
  609MOL0     H83998   2.848   9.771   1.456 -1.0203  1.6225  1.7926
  609MOL0     H83999   2.804   9.786   1.294 -0.6035 -1.2905 -0.1345
  609MOL0     H84000   3.052   9.706   1.231  0.3525 -0.1913 -0.6283
  609MOL0     H84001   3.334   9.529   1.305 -2.2846 -1.5554  1.6210
  609MOL0     H84002   3.296   9.616   1.150 -3.2926  1.0734 -0.4373
  609MOL0     H84003   3.179   9.527   1.232  0.3097 -1.2602  0.3213
  609MOL0     H84004   3.685   9.613   1.498 -0.6651  2.2438 -2.2922
  609MOL0     H84005   3.903   9.585   1.581  0.0324 -0.5782  4.3025
  609MOL0     H84006   4.239   9.836   1.712 -0.1808 -0.9928 -0.7917
  609MOL0     H84007   4.111   9.955   1.724  1.4497  0.2453 -1.1235
  609MOL0     H84008   4.017   9.807   1.914 -1.1344  1.5596  0.6199
  609MOL0     H84009   4.182   9.743   1.924  0.8482 -0.5361 -1.6073
  609MOL0     H84010   4.087  10.038   1.950 -0.9892 -1.0377  0.1861
  609MOL0     H84011   4.262   9.989   1.928 -0.3659  0.2514 -2.2324
  609MOL0     H84012   4.188  10.018   2.165  3.0382 -0.0397 -1.3975
  609MOL0     H84013   4.274   9.875   2.124 -1.7335 -1.2524 -0.1752
  609MOL0     H84014   4.060   9.745   2.140 -1.7668  0.8022 -1.7567
  609MOL0     H84015   4.096   9.827   2.292 -2.7240  0.4087  1.0401
  609MOL0     H84016   3.938   9.963   2.089 -0.8151  0.1580 -0.1272
  609MOL0     H84017   3.962  10.015   2.257 -0.2180 -1.0515  0.3126
  609MOL0     H84018   3.824   9.825   2.338 -0.0051 -0.4956 -0.2819
  609MOL0     H84019   3.803   9.772   2.167  2.0616  0.7404 -1.2375
  609MOL0     H84020   3.684  10.030   2.280  0.1659  0.2398 -0.2274
  609MOL0     H84021   3.594   9.901   2.224 -0.1501 -0.2627  1.0277
  609MOL0     H84022   3.914   9.988   1.719  0.8968  0.9228 -2.5500
  609MOL0     H84023   3.661  10.008   1.681 -4.1716 -2.3842  1.0814
  609MOL0     H84024   3.332   9.967   1.534 -1.9701 -2.0428  2.3311
  609MOL0     H84025   3.101  10.033   1.508  1.1367  0.5124  0.5634
  609MOL0     H84026   2.068  11.110   0.595  0.5939 -0.1884 -1.5368
  609MOL0     H84027   2.276  11.254   0.659  1.5786 -0.0196  2.1264
  609MOL0     H84028   2.856  11.197   0.600 -1.3709 -0.4499 -0.4577
  609MOL0     H84029   3.022  11.386   0.619  0.0105  0.3029 -0.2179
  609MOL0     H84030   3.151  11.526   0.787 -2.0843  1.9812  3.1182
  609MOL0     H84031   3.139  11.585   0.613 -0.0699 -1.2984  0.2530
  609MOL0     H84032   3.183  11.738   0.861  1.8020 -2.9386  0.0962
  609MOL0     H84033   3.150  11.817   0.705 -0.8758 -0.0369  0.5689
  609MOL0     H84034   3.386  11.619   0.760  1.8514  2.0162  2.3481
  609MOL0     H84035   3.346  11.714   0.613 -0.7830 -1.4659  0.2283
  609MOL0     H84036   3.392  11.837   0.888 -0.5776 -1.7860  0.5347
  609MOL0     H84037   3.442  11.919   0.742  3.7971  0.0878  2.4256
  609MOL0     H84038   3.793  11.713   0.745 -0.4742 -0.7201 -0.2323
  609MOL0     H84039   2.728  11.624   0.800 -2.3113 -0.5430  0.2535
  609MOL0     H84040   2.496  11.434   0.858  0.5563  1.2002  1.6175
  609MOL0     H84041   2.510  11.577   0.748  1.7917 -0.3016  1.8698
  609MOL0     H84042   2.429  11.420   0.690 -0.0080  0.1686  0.2092
  610MOL0     O84043  10.016   7.470   8.762  0.3438 -0.5747 -0.4497
  610MOL0     C84044   9.977   7.367   8.811 -0.0699 -0.2319  0.0168
  610MOL0     O84045  10.052   7.255   8.828 -0.5157 -0.0215 -0.3567
  610MOL0     C84046  10.182   7.247   8.795 -1.2605  0.5442 -0.6216
  610MOL0     C84047  10.278   7.339   8.847 -0.1262  0.3485  0.1189
  610MOL0     C84048  10.416   7.339   8.809  0.5903  0.7374 -0.5919
  610MOL0     C84049  10.464   7.227   8.741  0.9402  0.5013  0.1987
  610MOL0     O84050  10.599   7.195   8.712  0.1037 -0.0985 -0.2965
  610MOL0     C84051  10.698   7.232   8.813 -0.9230 -0.1745  0.7622
  610MOL0     C84052  10.830   7.151   8.790  0.5797  1.0865  0.0357
  610MOL0     C84053  10.957   7.207   8.861  0.0292  0.1809 -0.3991
  610MOL0     C84054  11.085   7.148   8.794  0.3374  0.5897  0.1450
  610MOL0     C84055  11.210   7.184   8.871  0.1098  1.0482 -0.2635
  610MOL0     C84056  11.346   7.170   8.792 -0.3154  0.5329  0.1095
  610MOL0     C84057  11.470   7.237   8.857  0.7065  0.0200 -0.3371
  610MOL0     C84058  11.521   7.169   8.988  0.0483  0.1115  0.2354
  610MOL0     N84059  11.433   7.189   9.112  0.2886  0.4093 -0.1742
  610MOL0     C84060  11.400   7.306   9.178 -0.0996  0.4298  0.3274
  610MOL0     C84061  11.308   7.270   9.273 -0.1814 -0.1473 -0.8109
  610MOL0     C84062  11.285   7.342   9.402  0.1332  0.2136 -1.2862
  610MOL0     C84063  11.407   7.384   9.475 -0.7663 -0.4013 -1.1601
  610MOL0     C84064  11.466   7.268   9.559 -0.0889  0.2613  0.3445
  610MOL0     C84065  11.573   7.325   9.654 -0.1461 -0.7276 -0.5897
  610MOL0     O84066  11.681   7.339   9.566 -0.4247 -0.1186 -0.0293
  610MOL0     C84067  11.781   7.428   9.605 -0.2135 -0.4448 -0.7643
  610MOL0     C84068  11.860   7.481   9.503  0.8133  0.7989 -1.3074
  610MOL0     C84069  11.963   7.577   9.528  0.8429 -0.2436 -0.4514
  610MOL0     C84070  12.040   7.611   9.403 -1.0858 -0.2034  0.4800
  610MOL0     C84071  11.983   7.633   9.658  0.6011  1.0408  0.7183
  610MOL0     C84072  12.081   7.741   9.681 -0.3605  0.4925 -0.7649
  610MOL0     O84073  12.088   7.787   9.810 -0.8274 -0.0013  0.3870
  610MOL0     C84074  12.177   7.881   9.842  0.2869  0.6300 -0.3997
  610MOL0     C84075  12.313   7.847   9.866  0.2005  0.0105  0.6078
  610MOL0     C84076  12.410   7.938   9.914  0.5178 -0.7407  0.0820
  610MOL0     C84077  12.367   8.073   9.945  0.3397 -0.0100 -0.6143
  610MOL0     O84078  12.458   8.148  10.016  0.2065 -0.0249 -0.3496
  610MOL0     C84079  12.435   8.136  10.162 -0.6695  0.6355 -0.6389
  610MOL0     C84080  12.541   8.048  10.235  0.2265 -0.2241 -0.3779
  610MOL0     C84081  12.676   8.103  10.224 -0.8389  0.9424  0.3965
  610MOL0     C84082  12.792   8.014  10.280 -0.4445  0.4704  0.6104
  610MOL0     C84083  12.904   7.973  10.177 -0.0421 -0.5802  0.4282
  610MOL0     C84084  12.855   7.891  10.053  0.3049 -0.6201  0.5390
  610MOL0     C84085  12.958   7.866   9.949 -0.4516  0.4711  0.6694
  610MOL0     C84086  13.053   7.749   9.990  0.3599 -0.8281 -0.5495
  610MOL0    Cl84087  13.212   7.816  10.053 -0.4014  0.1106 -0.2971
  610MOL0     C84088  12.242   8.113   9.904 -0.1768 -0.0232 -0.3430
  610MOL0     C84089  12.147   8.015   9.863 -0.1730  0.2731  0.3773
  610MOL0     O84090  12.147   7.791   9.590 -0.3209 -0.1160  0.2321
  610MOL0     C84091  11.903   7.578   9.759  1.4514  0.5068  0.0499
  610MOL0     C84092  11.807   7.479   9.739 -0.5789  0.6021 -0.4151
  610MOL0     N84093  11.281   7.132   9.258  0.4195 -0.2161 -0.1097
  610MOL0     N84094  11.349   7.092   9.156  0.8301 -0.1700  0.0940
  610MOL0     C84095  10.369   7.131   8.693  0.5039  0.6758  1.1788
  610MOL0     C84096  10.232   7.142   8.711  0.2076  0.6546 -0.2901
  610MOL0     C84097   9.827   7.357   8.852 -0.7537 -1.2433 -0.3401
  610MOL0     C84098   9.794   7.238   8.927  0.1143 -0.6216 -0.4651
  610MOL0     C84099   9.659   7.210   8.949  0.6734 -0.0616 -0.4034
  610MOL0     C84100   9.557   7.308   8.911  0.2990  0.5004  0.5963
  610MOL0     O84101   9.433   7.268   8.948  0.4132  0.0634 -0.1642
  610MOL0     C84102   9.369   7.181   8.852  0.5887 -0.7625  0.4533
  610MOL0     C84103   9.264   7.101   8.938 -0.2771  0.1704 -0.0590
  610MOL0     C84104   9.317   6.983   9.018  0.2114  0.0149  0.2661
  610MOL0     C84105   9.320   6.859   8.919 -0.6819 -0.9451 -0.6526
  610MOL0     C84106   9.428   6.767   8.957  1.1926 -0.5532  0.4908
  610MOL0     C84107   9.511   6.702   8.996 -0.0556  0.4557  0.2361
  610MOL0     C84108   9.585   7.426   8.847  0.4078  1.5942 -0.5654
  610MOL0     C84109   9.721   7.450   8.812  0.4418  0.6058 -1.3143
  610MOL0     C84110   9.740   7.566   8.719 -0.3913  1.0632 -0.6277
  610MOL0     H84111  10.230   7.404   8.919 -1.0692 -0.9224  0.6687
  610MOL0     H84112  10.491   7.413   8.836 -0.5447  0.8700  2.6857
  610MOL0     H84113  10.663   7.225   8.916  0.9171 -0.1103  1.4353
  610MOL0     H84114  10.728   7.334   8.786 -0.3119 -0.1900  1.3400
  610MOL0     H84115  10.806   7.053   8.832 -1.4613  1.6515  0.2925
  610MOL0     H84116  10.854   7.127   8.686  2.3703 -1.5105  0.9377
  610MOL0     H84117  10.963   7.317   8.862 -0.0225  0.1826 -0.0375
  610MOL0     H84118  10.959   7.171   8.964  2.2600  1.3203  0.0156
  610MOL0     H84119  11.076   7.039   8.790 -3.6501  0.7962 -3.1436
  610MOL0     H84120  11.088   7.194   8.695  1.1966  0.2759  0.0167
  610MOL0     H84121  11.207   7.112   8.953 -0.7013  0.4503 -0.8050
  610MOL0     H84122  11.198   7.286   8.910  0.3148  1.3535 -0.9855
  610MOL0     H84123  11.380   7.074   8.753  0.1315 -0.2267  2.2689
  610MOL0     H84124  11.337   7.227   8.698  0.6842  1.7105  0.6986
  610MOL0     H84125  11.451   7.343   8.877  1.4555  0.1862 -0.4572
  610MOL0     H84126  11.551   7.233   8.783  1.8110  2.1117  0.6551
  610MOL0     H84127  11.534   7.061   8.975  2.2704  0.3663 -0.0347
  610MOL0     H84128  11.622   7.210   8.993 -0.3060  1.2804 -1.2753
  610MOL0     H84129  11.445   7.403   9.163  1.7062 -0.2628  1.0030
  610MOL0     H84130  11.226   7.275   9.466 -2.7727  1.7546 -2.1525
  610MOL0     H84131  11.235   7.438   9.388 -0.0273  0.4416  0.6254
  610MOL0     H84132  11.481   7.433   9.411  1.2321  0.1633  1.4395
  610MOL0     H84133  11.370   7.461   9.543 -0.0473  0.9003 -2.2037
  610MOL0     H84134  11.381   7.228   9.615  0.2764 -1.8428 -0.5178
  610MOL0     H84135  11.499   7.199   9.481  1.0743  0.6076  0.5124
  610MOL0     H84136  11.544   7.423   9.694  3.6240  1.1841 -2.0475
  610MOL0     H84137  11.599   7.250   9.730  0.9236 -1.1706 -1.3676
  610MOL0     H84138  11.841   7.445   9.402 -1.0840 -2.3855  0.0235
  610MOL0     H84139  12.147   7.597   9.418 -0.5090 -0.1320 -2.9226
  610MOL0     H84140  12.032   7.715   9.372  1.1787 -0.6041 -1.7527
  610MOL0     H84141  12.000   7.563   9.313  1.2473  0.8893 -1.2267
  610MOL0     H84142  12.346   7.744   9.854 -1.6873 -0.5155 -0.4587
  610MOL0     H84143  12.516   7.923   9.931  0.8887  1.0747 -0.3865
  610MOL0     H84144  12.443   8.232  10.214  1.1949 -0.5517  1.4743
  610MOL0     H84145  12.344   8.081  10.191 -0.2157  1.5690  3.0792
  610MOL0     H84146  12.524   8.032  10.342  1.3068 -0.3387 -0.2150
  610MOL0     H84147  12.541   7.948  10.189  2.0047  0.1185 -1.2019
  610MOL0     H84148  12.677   8.204  10.265 -2.3634  0.4795  1.6603
  610MOL0     H84149  12.699   8.118  10.118 -1.8235  0.2079  0.0650
  610MOL0     H84150  12.743   7.923  10.317  1.1277  0.9655  4.3203
  610MOL0     H84151  12.846   8.067  10.359 -0.4407  1.4389 -0.0257
  610MOL0     H84152  12.963   8.062  10.152  0.6989 -1.7229 -2.2364
  610MOL0     H84153  12.957   7.895  10.232  2.1046 -0.6526 -1.5586
  610MOL0     H84154  12.776   7.949  10.005  0.9020  0.0443  0.3245
  610MOL0     H84155  12.805   7.802  10.090 -0.8784 -0.6822 -1.0994
  610MOL0     H84156  13.006   7.963   9.932 -0.0136  0.2018  0.3550
  610MOL0     H84157  12.914   7.862   9.849 -0.3854  2.4010  0.5202
  610MOL0     H84158  13.093   7.689   9.908  1.5173 -0.9160  0.0519
  610MOL0     H84159  13.007   7.675  10.055  0.6061  0.4974  1.1926
  610MOL0     H84160  12.201   8.213   9.919 -3.8179 -1.7054  2.6811
  610MOL0     H84161  12.047   8.047   9.838  0.0150 -0.0100 -0.7858
  610MOL0     H84162  11.922   7.612   9.860  1.3403 -0.6411  0.4710
  610MOL0     H84163  11.748   7.454   9.826 -1.3825  0.9513 -0.8472
  610MOL0     H84164  10.397   7.053   8.624 -0.3334  0.9305  0.5324
  610MOL0     H84165  10.164   7.074   8.660  0.7477  0.4612 -0.7645
  610MOL0     H84166   9.872   7.167   8.951 -0.7544 -1.6860 -0.6766
  610MOL0     H84167   9.629   7.117   8.997  2.8360 -0.4738  0.2592
  610MOL0     H84168   9.320   7.238   8.773  0.5899 -2.9057 -1.1707
  610MOL0     H84169   9.442   7.112   8.808  1.5768 -0.1196  1.0410
  610MOL0     H84170   9.181   7.065   8.876 -0.6966 -0.4670  0.8371
  610MOL0     H84171   9.207   7.174   8.996 -0.6156  0.3166 -0.5711
  610MOL0     H84172   9.410   7.005   9.072 -1.0648  0.0835  2.5329
  610MOL0     H84173   9.244   6.958   9.096 -2.7184 -0.9484 -2.5466
  610MOL0     H84174   9.341   6.890   8.817  0.4905 -3.5286 -1.2843
  610MOL0     H84175   9.224   6.807   8.907 -1.9130  1.5847 -2.9850
  610MOL0     H84176   9.588   6.634   9.026 -0.3922  0.1563  0.4330
  610MOL0     H84177   9.512   7.491   8.800 -0.5701  1.3262  0.5447
  610MOL0     H84178   9.756   7.520   8.621 -0.4696 -0.1814 -0.0754
  610MOL0     H84179   9.654   7.633   8.723 -0.0719  1.4361  0.0712
  610MOL0     H84180   9.831   7.617   8.751  0.8583 -1.0487 -0.6140
  611MOL0     O84181  10.716   2.423   2.227  0.2200 -0.4680 -0.0804
  611MOL0     C84182  10.637   2.413   2.133  0.3488 -0.6499  0.4270
  611MOL0     O84183  10.668   2.411   1.996  0.0111 -0.5454  0.3469
  611MOL0     C84184  10.797   2.435   1.969 -0.3288  0.0322  0.0301
  611MOL0     C84185  10.871   2.536   2.022 -0.5431 -0.4742 -1.0096
  611MOL0     C84186  11.008   2.542   1.999 -1.2657 -0.1392  0.6474
  611MOL0     C84187  11.069   2.459   1.906  0.1132 -0.0398 -0.0799
  611MOL0     O84188  11.202   2.479   1.872  0.4172  0.1008 -0.0348
  611MOL0     C84189  11.227   2.535   1.744 -0.0472  0.3629  0.0722
  611MOL0     C84190  11.373   2.496   1.703  0.5447 -0.3257  0.0307
  611MOL0     C84191  11.422   2.560   1.572  0.6827 -1.0276 -0.0666
  611MOL0     C84192  11.579   2.560   1.558 -0.2391 -0.0908 -0.0122
  611MOL0     C84193  11.636   2.664   1.454 -0.4130  0.5819  0.2704
  611MOL0     C84194  11.608   2.620   1.312  0.2793  1.0085 -0.5720
  611MOL0     C84195  11.622   2.720   1.201 -0.2985 -0.2758  0.6484
  611MOL0     C84196  11.568   2.856   1.225 -0.1267 -0.8771  0.2226
  611MOL0     N84197  11.597   2.956   1.123 -0.1652  0.8319  0.3658
  611MOL0     C84198  11.719   2.998   1.096 -0.5877 -0.1659 -1.0341
  611MOL0     C84199  11.703   3.105   1.015 -0.7680 -0.0505 -0.3162
  611MOL0     C84200  11.813   3.190   0.948 -0.6462  0.8331  0.7046
  611MOL0     C84201  11.884   3.281   1.050  0.3461 -0.8963 -0.4502
  611MOL0     C84202  11.794   3.372   1.128 -0.0657  0.2296 -0.3199
  611MOL0     C84203  11.879   3.475   1.210 -0.3147  0.0014 -0.4217
  611MOL0     O84204  11.982   3.551   1.138  0.5220  0.6508  0.3350
  611MOL0     C84205  12.069   3.614   1.221 -0.3267 -0.5011  1.1076
  611MOL0     C84206  12.023   3.706   1.320 -0.4059  0.2244 -0.3662
  611MOL0     C84207  12.112   3.776   1.396 -0.1017  0.5936  0.7528
  611MOL0     C84208  12.060   3.893   1.461  0.3311 -0.5552 -0.1542
  611MOL0     C84209  12.257   3.743   1.393  1.2892 -0.1621 -0.1892
  611MOL0     C84210  12.355   3.800   1.480 -0.3191 -0.3534  0.3351
  611MOL0     O84211  12.486   3.779   1.443  1.2316 -0.6396  0.2816
  611MOL0     C84212  12.599   3.830   1.503  0.6507  0.1351  0.5302
  611MOL0     C84213  12.615   3.862   1.638  0.4641  0.3063  0.1248
  611MOL0     C84214  12.740   3.897   1.699  0.2667  0.8495 -0.0170
  611MOL0     C84215  12.850   3.908   1.617  0.0382  0.7721 -0.0212
  611MOL0     O84216  12.978   3.947   1.651 -0.4089 -0.9639  0.5570
  611MOL0     C84217  12.987   4.022   1.768  0.1045  0.0056 -0.7465
  611MOL0     C84218  13.121   4.088   1.773 -0.2078  1.1071  0.0116
  611MOL0     C84219  13.232   3.985   1.785 -0.4912 -0.7121  0.1467
  611MOL0     C84220  13.369   4.057   1.806 -0.0591 -0.2144 -0.3681
  611MOL0     C84221  13.490   3.970   1.850 -0.3878  0.4258  0.5331
  611MOL0     C84222  13.521   3.865   1.745 -0.2494  0.4163  0.3369
  611MOL0     C84223  13.618   3.756   1.786  0.4253 -0.2577  0.0366
  611MOL0     C84224  13.755   3.811   1.821  0.6973  0.0037  0.2963
  611MOL0    Cl84225  13.830   3.916   1.686 -0.2370 -0.0630 -0.2021
  611MOL0     C84226  12.840   3.866   1.483  1.0966  0.1539 -0.4659
  611MOL0     C84227  12.717   3.826   1.423  0.3584  0.3165  0.3212
  611MOL0     O84228  12.323   3.859   1.580 -0.2134 -0.2980  0.1961
  611MOL0     C84229  12.294   3.649   1.299 -0.1969 -0.5947 -0.2383
  611MOL0     C84230  12.205   3.585   1.217 -0.4032 -0.2391  0.4654
  611MOL0     N84231  11.567   3.129   0.991 -0.0278  0.0157  0.4246
  611MOL0     N84232  11.510   3.039   1.059 -0.5698  0.2451  0.0060
  611MOL0     C84233  10.998   2.348   1.852  0.4749 -0.0972 -0.3680
  611MOL0     C84234  10.861   2.345   1.882  0.1522  1.0116 -0.5334
  611MOL0     C84235  10.488   2.417   2.170 -0.0337  0.1900  0.1420
  611MOL0     C84236  10.397   2.477   2.084  0.7454  0.3472 -0.3140
  611MOL0     C84237  10.264   2.493   2.118  0.5386 -0.3614 -0.2771
  611MOL0     C84238  10.214   2.441   2.236  0.0889 -0.3297 -0.9030
  611MOL0     O84239  10.088   2.461   2.291 -0.2934  0.2933  0.5521
  611MOL0     C84240   9.981   2.531   2.217 -0.3913  0.0470  0.2242
  611MOL0     C84241   9.915   2.457   2.097 -0.3417  0.4764  0.3906
  611MOL0     C84242   9.870   2.315   2.139 -0.5231  0.8338 -0.3979
  611MOL0     C84243   9.801   2.232   2.031  0.5246  0.2963 -0.2734
  611MOL0     C84244   9.670   2.288   2.009  0.2594 -0.4252  0.1176
  611MOL0     C84245   9.551   2.328   1.996 -0.8200  0.4385 -1.1001
  611MOL0     C84246  10.296   2.374   2.330  0.0656 -0.5219  0.3108
  611MOL0     C84247  10.431   2.359   2.289  0.1346 -1.2104 -0.3352
  611MOL0     C84248  10.516   2.271   2.376  0.3572 -0.1180 -0.8549
  611MOL0     H84249  10.823   2.591   2.103  0.5817  0.7159 -1.1066
  611MOL0     H84250  11.071   2.617   2.044 -0.7277 -1.0834  1.5150
  611MOL0     H84251  11.210   2.643   1.744 -0.0837  0.4736  3.5655
  611MOL0     H84252  11.154   2.504   1.669  1.2747  1.5358 -1.8040
  611MOL0     H84253  11.433   2.518   1.792  0.2145 -1.8329  0.6674
  611MOL0     H84254  11.382   2.387   1.693  0.3097 -0.4062  0.6781
  611MOL0     H84255  11.367   2.514   1.489 -1.5613  1.4626 -0.0724
  611MOL0     H84256  11.395   2.665   1.579 -0.9451 -1.5338  2.5816
  611MOL0     H84257  11.623   2.587   1.655  0.6225 -0.3324 -0.3270
  611MOL0     H84258  11.618   2.461   1.534 -2.7210 -1.2647  0.4635
  611MOL0     H84259  11.745   2.661   1.458 -0.4324 -2.6214  0.4409
  611MOL0     H84260  11.595   2.762   1.484 -0.2241  1.0312 -0.8918
  611MOL0     H84261  11.675   2.536   1.290 -0.4844  0.1163  0.3941
  611MOL0     H84262  11.509   2.574   1.316  0.5931  0.3488  2.5312
  611MOL0     H84263  11.585   2.679   1.106  2.6522 -1.6665 -0.0420
  611MOL0     H84264  11.730   2.717   1.185 -0.2863 -0.3127  0.7361
  611MOL0     H84265  11.458   2.851   1.232 -0.0832 -1.6734  0.4640
  611MOL0     H84266  11.600   2.907   1.317 -3.0885 -0.4017  1.1124
  611MOL0     H84267  11.813   2.951   1.122 -0.9287  0.9693  2.8600
  611MOL0     H84268  11.770   3.252   0.869 -2.1803 -0.8634  0.1702
  611MOL0     H84269  11.894   3.124   0.916  0.0486  0.0130  3.8031
  611MOL0     H84270  11.953   3.221   1.111  1.2263 -0.4319 -0.9548
  611MOL0     H84271  11.954   3.342   0.991 -2.4676  1.1858 -1.8599
  611MOL0     H84272  11.737   3.428   1.053 -3.0369 -1.5648  0.4357
  611MOL0     H84273  11.712   3.321   1.180  0.0400 -1.8793 -2.1014
  611MOL0     H84274  11.800   3.545   1.237  1.4553  2.3435 -1.0005
  611MOL0     H84275  11.923   3.423   1.295  0.5439 -1.5755 -1.7550
  611MOL0     H84276  11.916   3.724   1.319 -0.3840  0.4963  0.8562
  611MOL0     H84277  11.976   3.933   1.404  1.6036 -1.5843 -2.9162
  611MOL0     H84278  12.137   3.970   1.469  0.5204 -0.7747  0.1788
  611MOL0     H84279  12.028   3.862   1.561  0.3160 -0.8279 -0.2434
  611MOL0     H84280  12.532   3.852   1.707  0.9483 -2.2721  0.4226
  611MOL0     H84281  12.748   3.921   1.805  0.7168  1.3433 -0.1627
  611MOL0     H84282  12.911   4.101   1.765 -0.3375 -0.4325 -1.7582
  611MOL0     H84283  12.979   3.964   1.860  3.3146 -0.0343 -0.3840
  611MOL0     H84284  13.145   4.141   1.680 -0.8815 -0.4118 -1.0737
  611MOL0     H84285  13.132   4.155   1.858 -3.2605  0.2587  1.1814
  611MOL0     H84286  13.251   3.917   1.701  1.3673 -2.6464  2.0071
  611MOL0     H84287  13.207   3.925   1.873  0.0019 -0.9169  0.1519
  611MOL0     H84288  13.372   4.142   1.874  0.5674  0.3622 -1.0961
  611MOL0     H84289  13.401   4.102   1.711 -0.0827  1.3986  0.3686
  611MOL0     H84290  13.581   4.029   1.864 -0.5978  0.9786 -0.3505
  611MOL0     H84291  13.462   3.919   1.942 -1.5765 -1.3505 -0.7353
  611MOL0     H84292  13.561   3.913   1.655 -0.3857 -0.0536  0.0203
  611MOL0     H84293  13.434   3.813   1.704  1.9698 -1.6459 -2.1097
  611MOL0     H84294  13.627   3.679   1.708 -0.0972 -1.9637  1.5776
  611MOL0     H84295  13.570   3.708   1.872  1.7135  0.1033  0.9823
  611MOL0     H84296  13.819   3.723   1.839  0.8406 -0.0223 -0.3103
  611MOL0     H84297  13.751   3.872   1.911  2.2304  2.0545 -0.9465
  611MOL0     H84298  12.929   3.876   1.422  1.0723 -0.7183 -0.6598
  611MOL0     H84299  12.698   3.810   1.318 -2.4274  1.5598  0.5534
  611MOL0     H84300  12.396   3.611   1.293  0.1781  0.4068 -0.4073
  611MOL0     H84301  12.237   3.498   1.160  2.0821 -0.5064  2.1201
  611MOL0     H84302  11.025   2.275   1.776  0.5494  0.4026 -0.8289
  611MOL0     H84303  10.803   2.258   1.853  3.0219 -1.4447  0.5308
  611MOL0     H84304  10.437   2.521   1.993  0.3766  0.8621 -0.2334
  611MOL0     H84305  10.205   2.562   2.058 -2.0516 -2.1742  0.0282
  611MOL0     H84306   9.900   2.534   2.291 -0.8079 -0.4832 -0.1904
  611MOL0     H84307  10.010   2.632   2.187  0.5784 -1.0503 -3.0484
  611MOL0     H84308   9.977   2.454   2.007 -3.4380  0.9714 -1.9169
  611MOL0     H84309   9.831   2.512   2.053  0.9136  1.6502 -0.6786
  611MOL0     H84310   9.968   2.280   2.172 -0.6495 -0.4673 -1.3376
  611MOL0     H84311   9.817   2.322   2.235  3.3430  0.1857  2.0124
  611MOL0     H84312   9.800   2.129   2.068  2.3527  0.7991  1.3159
  611MOL0     H84313   9.851   2.231   1.933  0.9354 -1.5074 -0.0682
  611MOL0     H84314   9.453   2.368   1.985 -0.9380  0.3612 -0.3199
  611MOL0     H84315  10.257   2.325   2.418 -3.7214  1.3066 -0.1698
  611MOL0     H84316  10.461   2.180   2.401 -2.6447  1.2608 -1.9609
  611MOL0     H84317  10.607   2.229   2.333  1.3685  0.8153  0.2689
  611MOL0     H84318  10.544   2.348   2.449 -0.5087  1.1732 -1.8190
  612MOL0     O84319   1.675   5.033   4.808 -0.1571  0.6885  0.1029
  612MOL0     C84320   1.601   5.130   4.796  0.7877  0.2363 -0.0656
  612MOL0     O84321   1.642   5.255   4.811  0.8716 -0.4908 -0.0564
  612MOL0     C84322   1.754   5.302   4.745 -0.6284  0.7013 -0.1513
  612MOL0     C84323   1.785   5.443   4.757  0.3944 -0.5694 -0.6233
  612MOL0     C84324   1.883   5.504   4.685  0.8550  0.0394 -0.0917
  612MOL0     C84325   1.980   5.430   4.623  0.1061 -0.2892 -0.8887
  612MOL0     O84326   2.084   5.495   4.565  0.5720  0.0655 -0.3170
  612MOL0     C84327   2.198   5.415   4.518 -0.1463 -0.5412 -0.1961
  612MOL0     C84328   2.314   5.504   4.489 -0.1429 -0.4820  0.5143
  612MOL0     C84329   2.440   5.435   4.436 -0.3043 -0.5421 -0.1714
  612MOL0     C84330   2.497   5.325   4.526 -0.8507 -0.3648 -0.5613
  612MOL0     C84331   2.613   5.258   4.467 -0.3991 -0.3313 -0.0589
  612MOL0     C84332   2.582   5.139   4.376 -0.1952 -0.2115  0.2913
  612MOL0     C84333   2.714   5.085   4.310  0.3156 -0.3220  0.1514
  612MOL0     C84334   2.775   5.204   4.232 -0.8304 -0.3783  0.0324
  612MOL0     N84335   2.880   5.137   4.147 -1.0025 -0.5748  0.4513
  612MOL0     C84336   2.991   5.072   4.199 -0.1297  0.6463  0.3228
  612MOL0     C84337   3.029   4.990   4.097  0.6429  0.6836  0.2200
  612MOL0     C84338   3.163   4.907   4.082 -0.2539 -0.5862 -0.5034
  612MOL0     C84339   3.189   4.833   3.949  0.1494  0.2744  0.0711
  612MOL0     C84340   3.081   4.730   3.904  0.9174 -0.2210  0.6768
  612MOL0     C84341   3.053   4.635   4.013  0.7925  0.9276 -0.1041
  612MOL0     O84342   2.961   4.527   3.983  0.6458 -0.1154  0.4590
  612MOL0     C84343   2.825   4.551   3.975  0.3729 -0.4564 -1.0568
  612MOL0     C84344   2.747   4.438   3.949 -0.2545  0.2467 -0.1353
  612MOL0     C84345   2.610   4.442   3.960 -0.1978 -1.0692  0.6110
  612MOL0     C84346   2.551   4.303   3.949  0.2232 -0.0735 -1.0909
  612MOL0     C84347   2.536   4.561   3.986  0.4557  0.4048 -0.9643
  612MOL0     C84348   2.391   4.570   4.000  0.1978 -0.1786  0.1872
  612MOL0     O84349   2.340   4.689   4.057  0.2753 -0.4268 -0.4218
  612MOL0     C84350   2.208   4.712   4.040 -0.2986  0.5082 -0.9836
  612MOL0     C84351   2.171   4.784   3.928 -0.2231 -1.0190 -0.4762
  612MOL0     C84352   2.029   4.804   3.910 -0.2885 -0.5985  0.8167
  612MOL0     C84353   1.942   4.762   4.003  0.4288  0.2781 -0.0349
  612MOL0     O84354   1.810   4.790   4.004 -0.0845  0.7310 -0.0425
  612MOL0     C84355   1.739   4.843   3.890  0.8382  0.6027 -0.3403
  612MOL0     C84356   1.592   4.858   3.919 -0.7512  0.1090 -1.3891
  612MOL0     C84357   1.556   4.916   4.052 -0.5185 -0.0586  0.1711
  612MOL0     C84358   1.405   4.919   4.083  0.1774 -0.0165  0.2807
  612MOL0     C84359   1.376   5.014   4.199  0.1652 -0.6133 -0.1547
  612MOL0     C84360   1.230   5.003   4.228  0.6770 -0.4798 -0.1322
  612MOL0     C84361   1.193   5.084   4.352  0.6249 -0.5267 -0.5068
  612MOL0     C84362   1.046   5.071   4.387  0.6899 -0.2258 -0.4938
  612MOL0    Cl84363   0.986   5.202   4.490  0.1799  0.2627  0.1340
  612MOL0     C84364   1.980   4.692   4.110 -0.8930  0.1225 -0.0111
  612MOL0     C84365   2.116   4.659   4.134 -0.0025 -0.2406 -0.4115
  612MOL0     O84366   2.318   4.483   3.953  0.2269  0.1920 -0.0088
  612MOL0     C84367   2.616   4.674   4.002 -0.2600 -0.3989 -0.5017
  612MOL0     C84368   2.756   4.673   4.004 -0.2825 -0.4049 -0.2400
  612MOL0     N84369   2.940   5.016   3.992 -0.3103  0.3120  0.4556
  612MOL0     N84370   2.848   5.095   4.024 -0.5827 -0.3602 -0.1935
  612MOL0     C84371   1.948   5.293   4.604  0.1398 -0.0933  0.9768
  612MOL0     C84372   1.844   5.226   4.662  1.0514  0.4751 -0.1927
  612MOL0     C84373   1.449   5.121   4.795  0.2438 -0.3511 -0.0752
  612MOL0     C84374   1.378   5.230   4.853 -0.9927  0.8697 -0.7540
  612MOL0     C84375   1.236   5.236   4.861  0.2295 -0.5969  0.0501
  612MOL0     C84376   1.164   5.129   4.804  0.1475  0.2385 -0.0136
  612MOL0     O84377   1.025   5.127   4.807 -0.3819  0.2015  0.3691
  612MOL0     C84378   0.946   5.232   4.876 -0.2510  0.4302  0.7701
  612MOL0     C84379   0.805   5.249   4.804  0.5809  0.3263 -1.0254
  612MOL0     C84380   0.729   5.118   4.836  0.1009 -0.4996  0.0657
  612MOL0     C84381   0.578   5.135   4.805 -0.3183  0.0824  0.5005
  612MOL0     C84382   0.505   5.009   4.823 -0.8481  0.0037 -0.2205
  612MOL0     C84383   0.431   4.919   4.845 -0.5000  0.9712 -0.4841
  612MOL0     C84384   1.235   5.023   4.749  0.4002  0.7793  0.0799
  612MOL0     C84385   1.372   5.017   4.743 -0.6484 -0.3182 -0.3314
  612MOL0     C84386   1.440   4.908   4.657  0.7383  1.1024 -0.6298
  612MOL0     H84387   1.717   5.506   4.814  0.7909 -2.2557  1.8920
  612MOL0     H84388   1.899   5.611   4.696  0.0059  0.4063 -1.9495
  612MOL0     H84389   2.174   5.373   4.420 -0.1755  0.7917 -0.7768
  612MOL0     H84390   2.214   5.339   4.595 -2.2894  2.0310  3.0776
  612MOL0     H84391   2.281   5.580   4.417 -0.1248 -0.4391  0.5510
  612MOL0     H84392   2.328   5.553   4.585 -0.0905 -0.3197  0.4239
  612MOL0     H84393   2.416   5.399   4.336  0.1020 -0.2396 -0.3789
  612MOL0     H84394   2.526   5.501   4.421  0.2729 -1.1552  0.3490
  612MOL0     H84395   2.537   5.358   4.623 -1.4786 -2.6115  0.5390
  612MOL0     H84396   2.427   5.250   4.566 -0.2662 -0.5670  0.1158
  612MOL0     H84397   2.692   5.231   4.537  0.2854 -0.6780 -0.9399
  612MOL0     H84398   2.665   5.334   4.409  2.5866 -0.4301  2.2651
  612MOL0     H84399   2.517   5.068   4.427 -4.3429  2.0446 -1.3327
  612MOL0     H84400   2.510   5.168   4.299 -1.0011 -1.4018  0.5669
  612MOL0     H84401   2.692   5.004   4.240  0.8283  1.1633 -1.8199
  612MOL0     H84402   2.784   5.050   4.386 -1.1490 -1.4253  1.0248
  612MOL0     H84403   2.705   5.265   4.175  1.4948  0.2202 -2.3844
  612MOL0     H84404   2.832   5.273   4.295  0.6504 -1.4457 -0.0940
  612MOL0     H84405   3.051   5.106   4.282 -1.4730  3.0993  0.3648
  612MOL0     H84406   3.168   4.834   4.164  0.2688  2.0494  1.9493
  612MOL0     H84407   3.245   4.977   4.097 -0.9067  0.2068 -0.6077
  612MOL0     H84408   3.196   4.914   3.876 -1.2644  0.7415  0.4129
  612MOL0     H84409   3.287   4.785   3.948  0.8472  1.6157  1.1756
  612MOL0     H84410   2.989   4.781   3.872 -0.4600 -3.2107 -0.5658
  612MOL0     H84411   3.114   4.679   3.813 -1.3096 -1.2462  0.3722
  612MOL0     H84412   3.143   4.594   4.060  0.6688 -0.0596 -0.7024
  612MOL0     H84413   3.009   4.699   4.090  1.1125  0.5886  0.3663
  612MOL0     H84414   2.793   4.342   3.927 -1.3163 -0.5076  0.7600
  612MOL0     H84415   2.504   4.287   3.852  2.4792 -3.5140 -1.8180
  612MOL0     H84416   2.472   4.288   4.024  1.9884 -0.0492  0.8670
  612MOL0     H84417   2.627   4.224   3.954  1.5274  1.2173  1.3764
  612MOL0     H84418   2.242   4.800   3.847 -0.0149 -1.2308 -0.3369
  612MOL0     H84419   2.006   4.852   3.816  3.0616  2.0477  1.1269
  612MOL0     H84420   1.786   4.935   3.854  1.4994 -0.4133 -2.2158
  612MOL0     H84421   1.754   4.780   3.802  0.0087  1.8985 -1.4542
  612MOL0     H84422   1.549   4.925   3.844 -0.6473  2.4056  0.5014
  612MOL0     H84423   1.543   4.760   3.920 -1.6654  0.4995  1.6656
  612MOL0     H84424   1.594   5.018   4.065  4.5739 -1.5733 -0.4837
  612MOL0     H84425   1.606   4.853   4.127  0.4876 -1.5546 -1.6471
  612MOL0     H84426   1.369   4.816   4.087  2.4049 -0.9557 -1.4486
  612MOL0     H84427   1.354   4.956   3.993 -1.6352 -2.1869  0.3342
  612MOL0     H84428   1.436   4.966   4.277  1.4235 -0.8313 -1.2324
  612MOL0     H84429   1.417   5.114   4.181 -1.8302  0.5021  1.0964
  612MOL0     H84430   1.207   4.898   4.246 -2.7794  0.1519 -0.0953
  612MOL0     H84431   1.165   5.029   4.144 -0.9726  1.7276  1.7037
  612MOL0     H84432   1.209   5.189   4.328  0.3929 -0.6867 -1.4273
  612MOL0     H84433   1.253   5.059   4.439  0.7473  1.7170  0.0967
  612MOL0     H84434   1.028   4.976   4.438  1.1485  0.3048  0.6997
  612MOL0     H84435   0.993   5.074   4.291 -3.1743  2.6613  1.4464
  612MOL0     H84436   1.911   4.649   4.181 -0.4830  1.5046  1.2924
  612MOL0     H84437   2.148   4.604   4.222  0.3022 -0.0495 -0.3989
  612MOL0     H84438   2.565   4.762   4.041  2.5295 -0.4439  3.8942
  612MOL0     H84439   2.814   4.761   4.027 -1.2544  0.1608  0.1061
  612MOL0     H84440   2.016   5.230   4.547 -0.6074 -0.1810  0.1512
  612MOL0     H84441   1.821   5.123   4.639  0.8587  0.7471 -1.2905
  612MOL0     H84442   1.432   5.310   4.901  1.5509 -1.0776 -0.1908
  612MOL0     H84443   1.182   5.323   4.898 -0.1084 -1.6576  2.2341
  612MOL0     H84444   0.934   5.205   4.981 -1.3293 -1.3624  0.2428
  612MOL0     H84445   0.986   5.333   4.880 -0.2477  0.5552 -1.3398
  612MOL0     H84446   0.827   5.255   4.697  1.1250 -2.1428 -1.1125
  612MOL0     H84447   0.753   5.334   4.849 -2.7077 -1.2348 -1.6391
  612MOL0     H84448   0.754   5.038   4.766  0.7754 -0.6863  0.5169
  612MOL0     H84449   0.738   5.083   4.939 -1.3894 -0.1815  0.3342
  612MOL0     H84450   0.551   5.173   4.706 -1.3585 -1.3355  0.2062
  612MOL0     H84451   0.531   5.202   4.877  1.7501 -1.1207  3.1210
  612MOL0     H84452   0.365   4.836   4.862  1.1752 -0.1512  0.8429
  612MOL0     H84453   1.185   4.932   4.719  0.4600  0.9090 -0.4222
  612MOL0     H84454   1.502   4.841   4.717  0.3457  1.0522 -0.2735
  612MOL0     H84455   1.374   4.843   4.598  1.1106 -0.5221  0.6682
  612MOL0     H84456   1.503   4.953   4.580  3.2695 -0.0516  0.6653
  613MOL0     O84457   0.202   1.193   5.430  0.4733 -0.5875  0.3350
  613MOL0     C84458   0.127   1.117   5.373  0.5787  0.2916 -0.4946
  613MOL0     O84459   0.160   1.049   5.264 -0.4153  0.4271  0.2607
  613MOL0     C84460   0.281   1.078   5.211 -0.3832  0.8252  0.1811
  613MOL0     C84461   0.391   0.990   5.243 -0.4711  0.4671  0.0022
  613MOL0     C84462   0.499   0.990   5.161 -0.5061  0.8300  1.2376
  613MOL0     C84463   0.513   1.098   5.068 -0.2542 -0.4734 -0.1129
  613MOL0     O84464   0.626   1.115   4.987 -0.0468 -0.1820  0.2414
  613MOL0     C84465   0.766   1.112   5.018 -0.1197 -0.5927 -0.5275
  613MOL0     C84466   0.816   0.967   5.000 -0.7229 -0.5235  0.0441
  613MOL0     C84467   0.943   0.933   5.068 -0.4867  0.4995 -1.5469
  613MOL0     C84468   1.066   1.024   5.038  0.1271 -0.6596  0.1260
  613MOL0     C84469   1.195   0.971   5.110  0.9461 -0.2273  0.7456
  613MOL0     C84470   1.191   0.978   5.268  0.4896  0.3224  0.4597
  613MOL0     C84471   1.317   0.937   5.343 -0.5121  0.0926 -0.7772
  613MOL0     C84472   1.430   1.031   5.314 -0.0004 -0.2743 -0.0497
  613MOL0     N84473   1.534   1.022   5.421  0.4300  0.1432  0.3930
  613MOL0     C84474   1.516   1.054   5.557  0.0909 -0.0820 -0.4750
  613MOL0     C84475   1.638   1.060   5.608  0.0830  0.9199 -1.6318
  613MOL0     C84476   1.669   1.083   5.757  0.0567  0.7799 -0.1228
  613MOL0     C84477   1.807   1.036   5.798 -0.7967  0.2292 -0.8391
  613MOL0     C84478   1.819   1.048   5.953  1.0150 -0.5365 -0.6046
  613MOL0     C84479   1.943   0.979   6.011  0.1675  0.0152 -0.5515
  613MOL0     O84480   1.923   0.835   6.022  0.5226  0.3647  0.6581
  613MOL0     C84481   2.025   0.769   6.076 -0.6132  0.2716 -0.9749
  613MOL0     C84482   2.035   0.626   6.069  0.5317 -0.2225 -0.5337
  613MOL0     C84483   2.139   0.552   6.123 -0.1814  0.0516  0.0675
  613MOL0     C84484   2.116   0.403   6.114 -1.2827  0.0799 -0.4022
  613MOL0     C84485   2.240   0.606   6.197 -0.6839 -0.6699  0.7938
  613MOL0     C84486   2.342   0.538   6.273 -0.1368 -0.2130  0.2378
  613MOL0     O84487   2.467   0.604   6.292  0.5081  0.2054 -0.8434
  613MOL0     C84488   2.538   0.557   6.399  0.2419 -0.6291  0.6108
  613MOL0     C84489   2.481   0.525   6.523 -0.2911 -0.5055 -0.5270
  613MOL0     C84490   2.569   0.500   6.637  0.7254 -0.5465  0.1050
  613MOL0     C84491   2.709   0.488   6.618 -0.0154  0.1894  0.6161
  613MOL0     O84492   2.801   0.461   6.720 -0.4713 -0.6067 -0.4714
  613MOL0     C84493   2.772   0.441   6.861 -0.1382  0.2166 -0.6446
  613MOL0     C84494   2.901   0.407   6.948 -0.6425 -0.2746  0.9017
  613MOL0     C84495   2.981   0.283   6.887 -0.0902  0.1269  0.4748
  613MOL0     C84496   3.114   0.262   6.956 -1.2528 -0.2706  0.2039
  613MOL0     C84497   3.201   0.148   6.894 -0.0581 -0.3408  0.0035
  613MOL0     C84498   3.278   0.182   6.764 -0.3619 -0.4137  0.0911
  613MOL0     C84499   3.353   0.057   6.706 -0.3450 -0.4040  0.3622
  613MOL0     C84500   3.404   0.074   6.566 -0.2506  0.0528 -0.3323
  613MOL0    Cl84501   3.490  -0.078   6.520  0.0991 -0.1534 -0.1115
  613MOL0     C84502   2.757   0.517   6.491  0.4107 -0.6597  0.1273
  613MOL0     C84503   2.677   0.559   6.380  0.3873 -0.1238 -0.9026
  613MOL0     O84504   2.309   0.428   6.312  0.2704  0.3447 -0.2091
  613MOL0     C84505   2.241   0.745   6.209 -0.8622 -0.4593  0.1439
  613MOL0     C84506   2.140   0.822   6.151  0.0715 -0.0900 -0.3491
  613MOL0     N84507   1.721   1.041   5.503 -0.4153 -0.3347 -0.3139
  613MOL0     N84508   1.660   1.016   5.395 -0.5008  0.7324 -0.2432
  613MOL0     C84509   0.416   1.194   5.059  0.1757  0.8342 -0.3986
  613MOL0     C84510   0.298   1.190   5.132  0.0148  0.3288 -0.7822
  613MOL0     C84511  -0.007   1.088   5.419  0.4092  0.0434 -0.2643
  613MOL0     C84512  -0.062   0.963   5.421  0.3019 -0.5172  0.2375
  613MOL0     C84513  -0.194   0.938   5.472 -0.7883 -0.5262 -0.0988
  613MOL0     C84514  -0.273   1.039   5.517 -0.2612  0.8675 -0.4136
  613MOL0     O84515  -0.390   1.010   5.594 -0.1120  0.2606  0.1655
  613MOL0     C84516  -0.476   0.891   5.562 -0.8818 -0.6795  0.8166
  613MOL0     C84517  -0.577   0.861   5.661 -0.4546 -0.4751  0.2438
  613MOL0     C84518  -0.507   0.881   5.796  0.4186  0.5796 -0.6272
  613MOL0     C84519  -0.602   0.848   5.910 -0.5419 -0.4385 -0.4835
  613MOL0     C84520  -0.709   0.951   5.928  0.3657 -0.0064 -0.4827
  613MOL0     C84521  -0.804   1.022   5.952  0.3957  0.2087  0.4679
  613MOL0     C84522  -0.223   1.172   5.515  0.3800  0.5187  0.0516
  613MOL0     C84523  -0.094   1.191   5.457  0.0531  0.7307  0.0082
  613MOL0     C84524  -0.058   1.336   5.441 -0.5874 -0.0273 -1.0627
  613MOL0     H84525   0.376   0.921   5.325  1.1262  1.4812  1.2090
  613MOL0     H84526   0.580   0.920   5.170 -0.1452  0.6722 -2.1611
  613MOL0     H84527   0.788   1.154   5.117  1.3727  1.5163 -1.6629
  613MOL0     H84528   0.822   1.172   4.946 -1.7132  1.2742 -0.3174
  613MOL0     H84529   0.737   0.895   5.023 -0.9669 -0.5840 -0.9583
  613MOL0     H84530   0.846   0.958   4.895 -1.0721 -0.7033 -0.0400
  613MOL0     H84531   0.940   0.935   5.178  1.5178 -0.1473 -1.4462
  613MOL0     H84532   0.968   0.830   5.042 -0.9587 -0.1948  0.5119
  613MOL0     H84533   1.070   1.040   4.930 -1.8638 -2.8415 -0.3473
  613MOL0     H84534   1.048   1.126   5.074  0.1856 -0.4014 -0.5588
  613MOL0     H84535   1.283   1.031   5.083  0.4271  0.3247  0.2535
  613MOL0     H84536   1.210   0.866   5.084 -1.5557 -0.5015  0.1693
  613MOL0     H84537   1.153   1.079   5.288 -1.1630 -0.0230 -0.6532
  613MOL0     H84538   1.117   0.903   5.298 -0.2713 -0.4582 -2.8967
  613MOL0     H84539   1.345   0.831   5.340 -0.5638  0.1013 -2.7446
  613MOL0     H84540   1.288   0.944   5.448  1.0239 -1.9487 -0.1656
  613MOL0     H84541   1.471   1.011   5.215  0.2439 -2.6332  0.4498
  613MOL0     H84542   1.397   1.135   5.322  0.5762  0.1531 -2.5168
  613MOL0     H84543   1.422   1.063   5.611 -0.5026 -0.6701 -1.3916
  613MOL0     H84544   1.593   1.027   5.812  0.1321  1.6862  0.9179
  613MOL0     H84545   1.654   1.190   5.770  1.0766  0.8564  0.4475
  613MOL0     H84546   1.815   0.929   5.779  2.2775  0.1915  0.0957
  613MOL0     H84547   1.890   1.079   5.741 -1.8620  0.6446 -2.1238
  613MOL0     H84548   1.842   1.153   5.973  2.6463 -0.9324 -0.2562
  613MOL0     H84549   1.719   1.018   5.987  0.9212 -1.7826 -1.9028
  613MOL0     H84550   2.028   1.006   5.948 -0.0356  4.4114  0.7079
  613MOL0     H84551   1.975   1.032   6.101 -1.4724 -1.1570  0.7822
  613MOL0     H84552   1.958   0.567   6.021 -1.3519  0.4812  1.4087
  613MOL0     H84553   2.216   0.359   6.114  0.0953  2.8882  1.9655
  613MOL0     H84554   2.065   0.361   6.027  2.1100 -1.1369 -1.9766
  613MOL0     H84555   2.060   0.376   6.204 -0.0631  0.7582  0.5789
  613MOL0     H84556   2.373   0.522   6.529 -0.2032 -2.5153  3.1598
  613MOL0     H84557   2.528   0.476   6.734 -1.5195  2.6634  0.1128
  613MOL0     H84558   2.723   0.525   6.910  1.6261  1.8888 -1.5979
  613MOL0     H84559   2.702   0.357   6.861 -0.4657  0.4864 -0.7534
  613MOL0     H84560   2.965   0.496   6.943  0.4781 -1.0022  1.9852
  613MOL0     H84561   2.878   0.389   7.053 -3.8295  1.6431  0.6678
  613MOL0     H84562   2.999   0.307   6.782 -0.5427  2.3264  0.8570
  613MOL0     H84563   2.914   0.197   6.890  1.1231 -1.0295 -1.9819
  613MOL0     H84564   3.097   0.239   7.062  0.0071 -1.8912  0.0994
  613MOL0     H84565   3.172   0.353   6.938 -2.0596  0.1528 -0.2565
  613MOL0     H84566   3.279   0.118   6.964 -0.1855  0.0277  0.3046
  613MOL0     H84567   3.140   0.059   6.873  1.2108 -1.1070 -0.5751
  613MOL0     H84568   3.348   0.266   6.780  1.1351 -1.3883 -1.0421
  613MOL0     H84569   3.206   0.222   6.691 -0.0419  1.5823  0.8081
  613MOL0     H84570   3.292  -0.033   6.699 -1.5391  0.3524  0.5954
  613MOL0     H84571   3.437   0.035   6.772  1.4916  1.2833 -1.2884
  613MOL0     H84572   3.477   0.156   6.560 -0.5300  0.6986  3.0351
  613MOL0     H84573   3.313   0.096   6.509  0.3927  3.2111 -0.3439
  613MOL0     H84574   2.865   0.520   6.475  0.5929  1.2375  1.3845
  613MOL0     H84575   2.707   0.582   6.278 -2.6483  2.5654 -1.3135
  613MOL0     H84576   2.322   0.795   6.263  2.1393 -1.9732 -2.6139
  613MOL0     H84577   2.142   0.926   6.182  1.5362 -0.5245  1.1594
  613MOL0     H84578   0.425   1.278   4.991  2.7805  0.1743 -0.9749
  613MOL0     H84579   0.209   1.250   5.118  1.8870  3.2834 -1.0574
  613MOL0     H84580  -0.002   0.883   5.381 -0.1503  0.0679 -1.6938
  613MOL0     H84581  -0.220   0.834   5.461  1.7064 -0.9873 -2.9953
  613MOL0     H84582  -0.521   0.900   5.462  1.8342 -0.8078 -0.5126
  613MOL0     H84583  -0.416   0.800   5.553  0.5586  0.4220 -2.3715
  613MOL0     H84584  -0.620   0.760   5.652 -1.4929 -0.0973  0.7777
  613MOL0     H84585  -0.655   0.937   5.653 -0.6352 -0.6052  0.7362
  613MOL0     H84586  -0.421   0.815   5.813  0.7775  1.4585  1.2780
  613MOL0     H84587  -0.455   0.973   5.823  2.9728 -1.3231  1.6274
  613MOL0     H84588  -0.543   0.838   6.001  2.1986  2.1011 -1.7999
  613MOL0     H84589  -0.647   0.751   5.889 -0.1312 -0.6229 -0.5138
  613MOL0     H84590  -0.890   1.086   5.953  2.2340  2.9950 -1.7168
  613MOL0     H84591  -0.294   1.247   5.550  0.0383  0.8536 -1.3218
  613MOL0     H84592  -0.009   1.356   5.345  1.2571 -1.9963 -0.5970
  613MOL0     H84593  -0.151   1.395   5.440 -1.0928 -0.8213 -2.0028
  613MOL0     H84594   0.016   1.359   5.518  0.3942 -0.0662 -1.9717
  614MOL0     O84595   5.228   4.494   1.960 -0.1183  0.6625  0.8425
  614MOL0     C84596   5.347   4.498   1.930 -1.0513  0.2707  0.2547
  614MOL0     O84597   5.444   4.585   1.988 -0.9094  0.7110  0.4619
  614MOL0     C84598   5.415   4.699   2.068 -0.6808 -0.0724 -0.9400
  614MOL0     C84599   5.502   4.813   2.064  0.7277  0.2089  0.9256
  614MOL0     C84600   5.477   4.935   2.144  0.1945  0.8199 -0.0641
  614MOL0     C84601   5.360   4.940   2.218 -0.0576  0.1177 -0.0305
  614MOL0     O84602   5.347   5.046   2.300 -0.4539  0.0165  0.3963
  614MOL0     C84603   5.227   5.073   2.365 -1.0613 -0.3494  0.4746
  614MOL0     C84604   5.227   5.020   2.511 -0.1025  0.4084  0.2301
  614MOL0     C84605   5.350   5.051   2.594  0.0904 -0.4151  0.0994
  614MOL0     C84606   5.357   4.965   2.716  0.7289  0.6839  0.1204
  614MOL0     C84607   5.460   5.003   2.825  0.9508 -0.4566 -0.4662
  614MOL0     C84608   5.595   4.976   2.772 -0.0725 -0.2394 -0.2979
  614MOL0     C84609   5.683   5.006   2.893 -0.0217 -0.7314  0.3904
  614MOL0     C84610   5.703   5.161   2.923 -0.1219 -0.5953 -1.1889
  614MOL0     N84611   5.806   5.191   3.025  0.1864 -0.2008  0.3071
  614MOL0     C84612   5.859   5.098   3.110  0.5484 -0.3302 -0.2603
  614MOL0     C84613   5.966   5.167   3.180  0.0538  0.8016  0.7375
  614MOL0     C84614   6.075   5.126   3.276  0.3192  0.6701 -0.3823
  614MOL0     C84615   6.021   5.123   3.424 -0.0501 -0.0655 -0.0579
  614MOL0     C84616   5.967   5.260   3.487 -0.6794  0.2914  0.0317
  614MOL0     C84617   6.077   5.325   3.579  0.2281  0.6487  0.2908
  614MOL0     O84618   6.083   5.247   3.700  0.0132  0.0581  0.3682
  614MOL0     C84619   6.179   5.280   3.793 -0.5215 -0.3905  0.3688
  614MOL0     C84620   6.157   5.224   3.921 -0.9749  0.1787 -1.3448
  614MOL0     C84621   6.230   5.262   4.039 -0.0269  0.0242 -0.7962
  614MOL0     C84622   6.196   5.192   4.170 -0.4269 -0.4796  0.5563
  614MOL0     C84623   6.319   5.376   4.018  0.2803  0.2196  1.0330
  614MOL0     C84624   6.374   5.453   4.127  0.8271  0.2051  0.0113
  614MOL0     O84625   6.476   5.539   4.106 -0.1528  0.1583  0.5032
  614MOL0     C84626   6.518   5.602   4.219  0.4380  0.1025  0.4423
  614MOL0     C84627   6.464   5.730   4.246  0.5884 -0.3731 -0.2930
  614MOL0     C84628   6.496   5.789   4.372 -0.0677 -0.3190  0.0030
  614MOL0     C84629   6.574   5.719   4.470 -0.4129  0.4225 -0.6149
  614MOL0     O84630   6.605   5.755   4.599 -0.0204  0.0470  0.1522
  614MOL0     C84631   6.600   5.895   4.636  0.8698 -0.2109 -0.1233
  614MOL0     C84632   6.450   5.909   4.689 -0.4488 -0.1957 -1.4866
  614MOL0     C84633   6.433   6.045   4.751  0.2622 -0.7880  0.1692
  614MOL0     C84634   6.280   6.060   4.802 -0.3101  0.4332  0.0937
  614MOL0     C84635   6.244   6.185   4.890  0.0858  0.1086 -0.4000
  614MOL0     C84636   6.097   6.218   4.886  0.2284  0.5352  0.2377
  614MOL0     C84637   6.077   6.354   4.957  0.2563 -0.7416  0.4134
  614MOL0     C84638   5.933   6.402   4.997  0.6266 -0.6964 -0.3705
  614MOL0    Cl84639   5.868   6.317   5.143 -0.1438  0.5058 -0.3315
  614MOL0     C84640   6.620   5.591   4.440 -0.2255 -0.2531 -0.5405
  614MOL0     C84641   6.592   5.535   4.316 -0.7758 -0.4227 -0.8108
  614MOL0     O84642   6.324   5.433   4.234  0.1367  0.6402  0.4876
  614MOL0     C84643   6.344   5.425   3.885 -0.3298  0.5344 -0.6949
  614MOL0     C84644   6.287   5.370   3.779  0.8231 -0.5951 -0.7117
  614MOL0     N84645   5.976   5.287   3.117 -0.4005 -1.0818 -0.1867
  614MOL0     N84646   5.891   5.298   3.023  0.0724  0.7984  0.2423
  614MOL0     C84647   5.274   4.833   2.222  0.1506  0.5096  1.1976
  614MOL0     C84648   5.304   4.711   2.154 -0.1155 -0.7035  0.7009
  614MOL0     C84649   5.396   4.397   1.821  0.0105 -0.2097 -0.1287
  614MOL0     C84650   5.534   4.391   1.806 -0.5405 -0.4825 -0.7574
  614MOL0     C84651   5.586   4.302   1.713  0.4800  0.1873  0.0390
  614MOL0     C84652   5.506   4.235   1.621  0.0433 -0.4067  0.2790
  614MOL0     O84653   5.572   4.173   1.518 -0.5090  0.5069 -0.2449
  614MOL0     C84654   5.508   4.102   1.412  0.2805  0.0290  0.5659
  614MOL0     C84655   5.583   4.037   1.303  0.9388  0.2400 -0.1335
  614MOL0     C84656   5.638   4.140   1.210 -0.3416 -0.1535  0.4282
  614MOL0     C84657   5.768   4.199   1.264 -0.1666 -0.6856  0.9825
  614MOL0     C84658   5.767   4.338   1.205  0.4952  0.2989  0.0806
  614MOL0     C84659   5.751   4.441   1.142 -0.4888  0.3251  0.2384
  614MOL0     C84660   5.370   4.232   1.636  1.1168 -0.9660  0.4669
  614MOL0     C84661   5.315   4.318   1.734  0.3062 -0.1700  0.4648
  614MOL0     C84662   5.157   4.322   1.751  1.0163  0.3604 -0.4692
  614MOL0     H84663   5.592   4.822   2.005  1.2238  1.4641  1.8336
  614MOL0     H84664   5.548   5.016   2.146 -0.6947  1.6595  3.0129
  614MOL0     H84665   5.134   5.046   2.314 -1.6419  1.8467  0.2743
  614MOL0     H84666   5.217   5.182   2.369 -1.1598 -0.2160 -2.0403
  614MOL0     H84667   5.144   5.072   2.560  0.7799  1.8671  0.2439
  614MOL0     H84668   5.207   4.913   2.510 -3.1011  0.8418  2.3767
  614MOL0     H84669   5.443   5.044   2.537 -1.3145  3.0476 -3.0557
  614MOL0     H84670   5.342   5.155   2.629  1.4813 -0.0473 -0.6013
  614MOL0     H84671   5.260   4.962   2.768  0.3783 -0.2861 -0.5418
  614MOL0     H84672   5.376   4.862   2.683  1.3479  1.1964 -1.1995
  614MOL0     H84673   5.429   4.948   2.915  0.3836  0.8450  0.1523
  614MOL0     H84674   5.456   5.108   2.853  2.7975 -0.7163  0.9940
  614MOL0     H84675   5.612   4.871   2.745  3.1577  0.0626  0.2303
  614MOL0     H84676   5.614   5.043   2.687  2.0181  1.7351  1.5855
  614MOL0     H84677   5.784   4.972   2.870  0.7981  1.9109 -0.3188
  614MOL0     H84678   5.648   4.950   2.980  0.9084  0.5421  1.6169
  614MOL0     H84679   5.729   5.209   2.828 -0.6213 -3.0704 -2.6739
  614MOL0     H84680   5.615   5.216   2.956  1.2526  0.3222  1.1611
  614MOL0     H84681   5.827   4.998   3.140  0.2836 -0.0087  0.5814
  614MOL0     H84682   6.161   5.194   3.283 -0.2373  1.2329  1.9498
  614MOL0     H84683   6.121   5.034   3.239  0.3580  0.8827 -0.8781
  614MOL0     H84684   5.942   5.048   3.429 -0.6138  0.3396 -2.2729
  614MOL0     H84685   6.109   5.095   3.484  0.4497  2.0305  0.2640
  614MOL0     H84686   5.955   5.326   3.401 -1.3719 -1.9315 -1.6903
  614MOL0     H84687   5.870   5.247   3.536 -0.0780 -0.6728  1.0130
  614MOL0     H84688   6.173   5.320   3.527 -1.2044  1.5122 -2.5881
  614MOL0     H84689   6.056   5.431   3.595  0.9136  0.6328  1.4960
  614MOL0     H84690   6.097   5.134   3.930  1.9679 -1.8204  0.3306
  614MOL0     H84691   6.150   5.261   4.242 -1.8706 -1.4770  0.6500
  614MOL0     H84692   6.291   5.163   4.214  0.0095  1.2644  0.8237
  614MOL0     H84693   6.128   5.111   4.143  0.5560 -0.8859 -0.7489
  614MOL0     H84694   6.399   5.778   4.174 -1.8502  1.2961  2.7323
  614MOL0     H84695   6.448   5.882   4.403 -0.2323 -0.6199  0.6672
  614MOL0     H84696   6.675   5.905   4.715 -0.0462 -2.1403  1.0781
  614MOL0     H84697   6.607   5.962   4.551 -0.2441  0.2639  0.1372
  614MOL0     H84698   6.371   5.907   4.613 -1.3546  2.0676 -0.7041
  614MOL0     H84699   6.436   5.826   4.758 -2.6151  0.9340 -0.4667
  614MOL0     H84700   6.463   6.118   4.675  0.9145 -0.8862  0.3273
  614MOL0     H84701   6.494   6.056   4.841  0.7757  0.8450 -0.3357
  614MOL0     H84702   6.260   5.970   4.861  0.7737  0.5048  0.5838
  614MOL0     H84703   6.224   6.070   4.709  0.5960  0.1715 -0.4888
  614MOL0     H84704   6.283   6.176   4.992 -2.2496  0.4975  0.6001
  614MOL0     H84705   6.296   6.274   4.856  1.0160  1.7529  4.5069
  614MOL0     H84706   6.040   6.134   4.927  1.0731 -1.7883 -2.9359
  614MOL0     H84707   6.068   6.224   4.781  0.4408 -2.0143 -0.0339
  614MOL0     H84708   6.112   6.441   4.900 -0.4747  1.4064  3.0160
  614MOL0     H84709   6.131   6.343   5.052 -1.9337  0.0494  1.8343
  614MOL0     H84710   5.867   6.389   4.910  0.2931  0.2612 -0.2699
  614MOL0     H84711   5.950   6.506   5.025  5.8954 -1.6212  1.1028
  614MOL0     H84712   6.678   5.543   4.518 -1.0542  1.3304  1.1309
  614MOL0     H84713   6.639   5.438   4.298 -1.4108 -1.7480  3.5496
  614MOL0     H84714   6.400   5.517   3.872 -0.6227  1.5934  3.8832
  614MOL0     H84715   6.308   5.425   3.687 -0.7894  3.0711  0.9041
  614MOL0     H84716   5.192   4.841   2.292 -1.1436  3.3610 -0.4691
  614MOL0     H84717   5.240   4.624   2.165 -2.6895  1.2802  3.2481
  614MOL0     H84718   5.594   4.456   1.870  0.4741 -0.2829 -1.8654
  614MOL0     H84719   5.690   4.272   1.707 -0.7060 -4.6291 -1.4714
  614MOL0     H84720   5.458   4.011   1.449  1.3049 -1.0328 -0.5792
  614MOL0     H84721   5.439   4.170   1.362  2.7148  3.1628  1.1741
  614MOL0     H84722   5.527   3.968   1.239 -1.7052  1.6836  0.4735
  614MOL0     H84723   5.663   3.975   1.343  1.4186 -0.5326 -2.1582
  614MOL0     H84724   5.664   4.092   1.115 -1.1840  0.8478 -0.3303
  614MOL0     H84725   5.558   4.210   1.188 -0.9719 -1.2803 -1.0879
  614MOL0     H84726   5.851   4.146   1.216  0.2351  1.0825 -0.3948
  614MOL0     H84727   5.782   4.210   1.371 -0.8606  1.6331  0.8835
  614MOL0     H84728   5.727   4.524   1.080  1.3760  0.2794 -0.6192
  614MOL0     H84729   5.309   4.193   1.556  1.6533 -0.8743  0.0070
  614MOL0     H84730   5.126   4.280   1.846  0.2190  1.9571  0.0065
  614MOL0     H84731   5.110   4.416   1.721  1.6678  0.6295 -0.6787
  614MOL0     H84732   5.123   4.241   1.685 -0.1473 -1.7041  2.4578
  615MOL0     O84733   6.787   4.458   4.277  0.0863 -0.2095  0.3137
  615MOL0     C84734   6.726   4.412   4.381 -0.8111 -0.0858  0.6021
  615MOL0     O84735   6.789   4.410   4.504 -0.2144  0.7169 -0.2377
  615MOL0     C84736   6.921   4.454   4.524  0.2760 -0.6872 -0.7177
  615MOL0     C84737   7.041   4.439   4.440  0.4848  0.1161 -0.7654
  615MOL0     C84738   7.169   4.475   4.491  0.4760 -0.0350  0.5905
  615MOL0     C84739   7.184   4.529   4.619 -0.3926 -0.1416  1.0889
  615MOL0     O84740   7.300   4.582   4.673  0.6721 -1.0790  0.4374
  615MOL0     C84741   7.406   4.613   4.592 -0.0904  0.2280 -0.4880
  615MOL0     C84742   7.510   4.673   4.679 -0.0642 -0.0699  0.3684
  615MOL0     C84743   7.480   4.822   4.704 -0.3058  0.8070  0.7370
  615MOL0     C84744   7.597   4.914   4.730 -1.0310  0.0769 -0.0529
  615MOL0     C84745   7.662   4.880   4.870 -0.5829  0.3204  0.0018
  615MOL0     C84746   7.771   4.986   4.917  0.4041  0.4678 -0.2689
  615MOL0     C84747   7.831   4.957   5.058 -0.6024 -0.3319 -0.2969
  615MOL0     C84748   7.974   5.013   5.055 -0.0476  0.2836 -1.1895
  615MOL0     N84749   8.015   5.046   5.196 -0.2270 -0.2134 -0.0107
  615MOL0     C84750   8.048   4.962   5.297  0.3584  0.4943 -0.3035
  615MOL0     C84751   8.087   5.048   5.397 -0.7345  0.6088  0.5818
  615MOL0     C84752   8.121   4.990   5.538 -1.0965 -0.3265 -0.3272
  615MOL0     C84753   8.267   5.017   5.569 -0.0691  0.3689  0.8059
  615MOL0     C84754   8.293   5.174   5.603  0.8343  0.5368 -0.5624
  615MOL0     C84755   8.432   5.204   5.659 -0.3768 -0.3576  1.2906
  615MOL0     O84756   8.459   5.132   5.775 -0.2964 -0.1351 -0.3893
  615MOL0     C84757   8.583   5.171   5.843  1.3047  0.5341  0.7919
  615MOL0     C84758   8.587   5.164   5.979 -0.5409  0.9398  0.2401
  615MOL0     C84759   8.708   5.193   6.050  0.1369  0.9991 -0.3608
  615MOL0     C84760   8.690   5.190   6.203  0.0309  0.0905  0.2321
  615MOL0     C84761   8.816   5.240   5.981  0.1642  0.1298  0.2012
  615MOL0     C84762   8.933   5.308   6.047 -0.3965  0.4506 -0.8428
  615MOL0     O84763   8.996   5.408   5.981  0.4301  0.0026 -1.0116
  615MOL0     C84764   9.131   5.435   6.015 -0.5135  0.3905 -0.8541
  615MOL0     C84765   9.177   5.562   5.972  0.4339 -0.5310 -0.5126
  615MOL0     C84766   9.314   5.589   5.978 -1.0207 -0.1494  0.0474
  615MOL0     C84767   9.406   5.498   6.035 -0.1009  0.3613 -0.3497
  615MOL0     O84768   9.541   5.512   6.033  0.3297 -0.0766 -0.5478
  615MOL0     C84769   9.597   5.578   5.920  0.2803 -0.2241  0.8675
  615MOL0     C84770   9.748   5.552   5.893 -0.7768 -0.0399  0.6264
  615MOL0     C84771   9.792   5.633   5.772  0.3312  0.9869  0.0435
  615MOL0     C84772   9.935   5.593   5.728 -0.3998  0.0544 -0.4228
  615MOL0     C84773   9.995   5.684   5.629 -0.6699  0.3871  0.9711
  615MOL0     C84774  10.146   5.651   5.633  0.7924 -0.4351  0.1644
  615MOL0     C84775  10.217   5.709   5.508 -0.4339  0.3971 -0.1781
  615MOL0     C84776  10.373   5.670   5.512  0.1754 -0.3588 -0.1791
  615MOL0    Cl84777  10.454   5.772   5.639  0.1143  0.0526  0.4185
  615MOL0     C84778   9.365   5.377   6.086 -0.0093 -0.6932  0.1887
  615MOL0     C84779   9.222   5.341   6.074 -0.2112 -0.7475  0.9965
  615MOL0     O84780   8.957   5.268   6.162  0.0183  0.4601  0.3539
  615MOL0     C84781   8.809   5.248   5.840  0.9296 -0.7585  0.6276
  615MOL0     C84782   8.696   5.207   5.771  0.0032  0.3789 -0.0901
  615MOL0     N84783   8.073   5.178   5.356 -0.1433  0.6633  0.1431
  615MOL0     N84784   8.014   5.175   5.243  0.0375  0.3568  0.3257
  615MOL0     C84785   7.068   4.553   4.695  0.1024  0.6705 -0.0516
  615MOL0     C84786   6.947   4.502   4.649 -0.8481  0.1868  0.0083
  615MOL0     C84787   6.589   4.353   4.361 -0.1855 -1.0077 -0.2261
  615MOL0     C84788   6.493   4.383   4.450  0.0698  0.5816  0.3685
  615MOL0     C84789   6.360   4.334   4.434 -0.9474 -1.2577 -0.9014
  615MOL0     C84790   6.325   4.256   4.319 -0.5428  0.9166  0.1739
  615MOL0     O84791   6.200   4.209   4.294  0.2657  0.7602 -0.3766
  615MOL0     C84792   6.168   4.097   4.204 -0.3706 -0.4336 -0.1884
  615MOL0     C84793   6.017   4.087   4.188  0.4870 -0.2952  0.3855
  615MOL0     C84794   5.940   4.212   4.126 -0.2998  0.4537 -0.1634
  615MOL0     C84795   5.789   4.185   4.098  0.4711  0.4218  0.3946
  615MOL0     C84796   5.746   4.254   3.972 -1.0124 -0.9602  0.4242
  615MOL0     C84797   5.723   4.296   3.862 -0.1100  0.6809 -0.3505
  615MOL0     C84798   6.423   4.238   4.230 -1.5225  0.7169 -0.0257
  615MOL0     C84799   6.553   4.282   4.247 -0.3014 -0.8727  0.0822
  615MOL0     C84800   6.639   4.233   4.130  0.1912  0.6289  0.4723
  615MOL0     H84801   7.038   4.390   4.342  1.3259 -0.0967 -0.6880
  615MOL0     H84802   7.253   4.457   4.425 -1.1474 -2.0252 -1.0864
  615MOL0     H84803   7.383   4.685   4.513 -1.1402 -1.8927 -2.2458
  615MOL0     H84804   7.442   4.519   4.548  1.5157  0.7876 -0.4442
  615MOL0     H84805   7.509   4.612   4.771 -1.6933 -0.3355  0.2033
  615MOL0     H84806   7.609   4.665   4.632  1.2630 -0.8285  3.0689
  615MOL0     H84807   7.426   4.864   4.619  0.5285 -1.0523 -0.7981
  615MOL0     H84808   7.417   4.833   4.793 -1.8415  3.4768 -0.5788
  615MOL0     H84809   7.674   4.901   4.653 -1.2982  0.4324 -0.3831
  615MOL0     H84810   7.573   5.020   4.721  1.2851  0.5829 -1.1747
  615MOL0     H84811   7.709   4.782   4.871 -3.1211 -1.1014 -3.0338
  615MOL0     H84812   7.592   4.871   4.954  0.1758 -1.3693  0.4964
  615MOL0     H84813   7.847   4.982   4.839  0.5245 -1.1187 -0.0937
  615MOL0     H84814   7.730   5.088   4.915 -2.0888 -0.4756 -0.3153
  615MOL0     H84815   7.833   4.852   5.088 -1.6830 -0.4698 -0.6742
  615MOL0     H84816   7.777   5.017   5.133 -1.2961 -0.0951 -0.9732
  615MOL0     H84817   8.046   4.941   5.015  2.0353  1.4679  0.2655
  615MOL0     H84818   7.980   5.102   4.992 -1.3667  0.6597 -0.8224
  615MOL0     H84819   8.057   4.854   5.296 -0.2966  0.4304 -1.5591
  615MOL0     H84820   8.106   4.882   5.538 -0.4022 -0.4647 -2.4933
  615MOL0     H84821   8.055   5.038   5.611 -1.7348  0.5317 -1.4437
  615MOL0     H84822   8.309   4.961   5.653 -1.4746 -2.2962 -0.1486
  615MOL0     H84823   8.334   4.996   5.485 -0.8646 -1.3506  0.5596
  615MOL0     H84824   8.274   5.229   5.511  0.1796  1.0755 -0.1091
  615MOL0     H84825   8.213   5.206   5.670 -0.0873 -4.7879  1.3780
  615MOL0     H84826   8.504   5.178   5.581 -1.5343 -0.4321  0.2107
  615MOL0     H84827   8.424   5.311   5.680  1.1368 -0.0805  0.5635
  615MOL0     H84828   8.493   5.152   6.032  0.3961 -2.2355  1.4144
  615MOL0     H84829   8.724   5.280   6.255  1.1075 -0.5696  0.7000
  615MOL0     H84830   8.743   5.105   6.246  1.6484  1.0142  0.1174
  615MOL0     H84831   8.583   5.180   6.227 -0.3784  0.9542 -1.0960
  615MOL0     H84832   9.108   5.632   5.927  1.7310  0.6986 -0.6569
  615MOL0     H84833   9.356   5.682   5.940 -0.9573 -1.0904 -2.3786
  615MOL0     H84834   9.543   5.557   5.827  0.6707  0.7869  0.3963
  615MOL0     H84835   9.580   5.683   5.947 -1.6341 -0.1542 -0.4044
  615MOL0     H84836   9.811   5.581   5.977 -2.0984 -1.9087  2.3387
  615MOL0     H84837   9.765   5.448   5.863 -2.3896 -0.1044 -0.1640
  615MOL0     H84838   9.797   5.739   5.799  3.2253  0.8172  0.4897
  615MOL0     H84839   9.726   5.611   5.687  0.3257  0.1465  0.2625
  615MOL0     H84840   9.955   5.493   5.689  0.3091  0.2737 -0.6460
  615MOL0     H84841   9.998   5.599   5.817  0.0973 -2.6785 -0.4899
  615MOL0     H84842   9.947   5.659   5.535  2.0105 -1.0804 -0.1308
  615MOL0     H84843   9.981   5.790   5.652 -1.2503  0.9566 -1.7091
  615MOL0     H84844  10.160   5.543   5.641 -2.2938 -0.9531 -0.3039
  615MOL0     H84845  10.187   5.702   5.720 -0.5832 -0.5274  0.9062
  615MOL0     H84846  10.214   5.818   5.505  0.1934  0.3932 -1.5120
  615MOL0     H84847  10.174   5.669   5.416  1.8317  0.2837 -1.2710
  615MOL0     H84848  10.428   5.686   5.419 -0.6141 -0.9601 -0.7661
  615MOL0     H84849  10.387   5.563   5.529 -0.4393 -0.7708 -1.9771
  615MOL0     H84850   9.445   5.320   6.132  1.3736  0.1313 -1.0885
  615MOL0     H84851   9.197   5.236   6.088  1.1088 -1.5226 -1.8825
  615MOL0     H84852   8.894   5.280   5.781  1.1222 -1.8972  0.2552
  615MOL0     H84853   8.692   5.206   5.663  2.0080  2.5757 -0.2595
  615MOL0     H84854   7.063   4.598   4.794  1.5051 -0.6931  0.6925
  615MOL0     H84855   6.852   4.513   4.701 -1.3105 -1.4399 -0.4358
  615MOL0     H84856   6.515   4.449   4.533  0.3576  1.8729 -0.7000
  615MOL0     H84857   6.280   4.356   4.505 -0.2776 -2.3577  0.2105
  615MOL0     H84858   6.214   4.117   4.106  1.5804 -0.2682  0.7180
  615MOL0     H84859   6.208   4.004   4.244 -2.3228 -2.0893 -1.8876
  615MOL0     H84860   5.973   4.070   4.287  2.9158 -0.8749  1.4454
  615MOL0     H84861   6.006   4.001   4.121  0.9338  0.8070 -1.1504
  615MOL0     H84862   5.943   4.295   4.197 -0.7751  1.3220 -1.1189
  615MOL0     H84863   5.991   4.248   4.036  0.3904  0.0356  0.0537
  615MOL0     H84864   5.720   4.227   4.171 -1.5270  0.7187 -1.5569
  615MOL0     H84865   5.762   4.080   4.086 -2.0104  1.1306 -0.9106
  615MOL0     H84866   5.696   4.336   3.766 -0.5035  0.7158 -0.2279
  615MOL0     H84867   6.398   4.188   4.137  2.1860  1.1421 -1.4067
  615MOL0     H84868   6.607   4.139   4.084  0.2412  0.2648  1.1810
  615MOL0     H84869   6.629   4.303   4.046 -1.8999 -1.8345 -1.5155
  615MOL0     H84870   6.745   4.222   4.155 -0.3111 -1.2756  2.0397
  616MOL0     O84871   6.119   4.389   6.763  0.1292  0.5748 -0.0158
  616MOL0     C84872   6.137   4.323   6.658 -0.6322  0.1109 -0.0439
  616MOL0     O84873   6.198   4.201   6.651 -0.1422  0.0094  0.1599
  616MOL0     C84874   6.287   4.162   6.754 -0.2826  0.4276  0.0747
  616MOL0     C84875   6.270   4.027   6.801 -0.1752  0.1708 -1.0387
  616MOL0     C84876   6.357   3.961   6.887 -0.1038  1.0231 -0.3921
  616MOL0     C84877   6.456   4.036   6.944  0.0033  0.1504 -0.7536
  616MOL0     O84878   6.546   3.991   7.029  0.3660 -0.0158  0.0500
  616MOL0     C84879   6.522   3.866   7.086  0.5968 -0.0108  0.2834
  616MOL0     C84880   6.623   3.852   7.205 -0.0519 -0.1184  0.1440
  616MOL0     C84881   6.768   3.870   7.166 -0.0271 -0.1198 -0.9245
  616MOL0     C84882   6.860   3.780   7.256  1.1647 -0.8305  0.5247
  616MOL0     C84883   7.011   3.805   7.230 -0.0803  0.2564 -0.5575
  616MOL0     C84884   7.072   3.701   7.320  0.6478 -0.4848 -0.4263
  616MOL0     C84885   7.226   3.702   7.313 -0.0206  0.9280  0.4576
  616MOL0     C84886   7.274   3.676   7.171 -0.1815  0.9253 -0.1462
  616MOL0     N84887   7.423   3.679   7.166 -0.3340  0.0248  0.5876
  616MOL0     C84888   7.505   3.789   7.161  0.4851 -0.2152 -0.5674
  616MOL0     C84889   7.634   3.748   7.147 -0.6249 -0.7242  0.7407
  616MOL0     C84890   7.748   3.839   7.179 -0.4730 -0.5703 -1.1294
  616MOL0     C84891   7.876   3.768   7.165 -0.3526  0.5495 -0.4463
  616MOL0     C84892   8.008   3.840   7.226 -0.2665 -0.6165 -0.3141
  616MOL0     C84893   8.052   3.952   7.139 -0.4381  0.2573 -0.3324
  616MOL0     O84894   8.170   4.022   7.186 -0.4710 -0.2892  0.1884
  616MOL0     C84895   8.297   3.985   7.158 -0.8428 -0.1105 -0.0629
  616MOL0     C84896   8.407   4.054   7.215  0.3085  0.4680 -0.0546
  616MOL0     C84897   8.537   4.020   7.192 -0.2442 -0.4350  0.3571
  616MOL0     C84898   8.635   4.123   7.240  0.4624  0.5924  0.1741
  616MOL0     C84899   8.564   3.927   7.089 -0.5490  0.2833  0.3875
  616MOL0     C84900   8.700   3.887   7.037  0.1371  0.1848  0.1142
  616MOL0     O84901   8.812   3.947   7.082  0.2740 -0.5823 -0.1275
  616MOL0     C84902   8.932   3.942   7.024  0.1160  0.3845  0.3276
  616MOL0     C84903   8.957   3.906   6.889  0.0616 -0.1362 -0.0101
  616MOL0     C84904   9.097   3.898   6.843  0.0587 -0.9034  0.0177
  616MOL0     C84905   9.199   3.947   6.924 -0.7748 -0.4459  0.3021
  616MOL0     O84906   9.330   3.949   6.878 -0.3689 -0.1606  0.1199
  616MOL0     C84907   9.382   3.841   6.790 -0.0556 -0.0728 -0.1544
  616MOL0     C84908   9.414   3.900   6.647 -0.1736  0.2107 -0.5261
  616MOL0     C84909   9.435   3.790   6.537 -0.8976  1.0870  0.9861
  616MOL0     C84910   9.532   3.672   6.556  0.2197 -0.0342 -0.1198
  616MOL0     C84911   9.680   3.713   6.574 -0.5468  0.0523  0.3828
  616MOL0     C84912   9.775   3.601   6.603 -0.7898  0.1331 -0.0235
  616MOL0     C84913   9.799   3.504   6.485 -0.4784 -0.0929  0.2060
  616MOL0     C84914   9.870   3.571   6.371 -0.6498  0.1864 -0.5420
  616MOL0    Cl84915   9.911   3.442   6.255 -0.1777 -0.0912  0.5054
  616MOL0     C84916   9.166   4.000   7.057 -0.1995  1.4321 -0.2441
  616MOL0     C84917   9.037   3.995   7.103 -0.4046 -0.0686 -0.5881
  616MOL0     O84918   8.706   3.782   6.969 -0.2601 -0.1309  0.2060
  616MOL0     C84919   8.463   3.844   7.032  0.4446 -0.1632 -0.0237
  616MOL0     C84920   8.332   3.866   7.080 -0.2324 -0.5374  0.9825
  616MOL0     N84921   7.630   3.618   7.148 -0.3597 -0.1499  0.7819
  616MOL0     N84922   7.511   3.572   7.155  1.0633 -0.0856 -0.8058
  616MOL0     C84923   6.472   4.169   6.912 -0.0594  0.0237 -0.7795
  616MOL0     C84924   6.384   4.232   6.819 -0.5063 -0.7169  0.3857
  616MOL0     C84925   6.057   4.360   6.539 -0.1863  0.3334  0.3836
  616MOL0     C84926   6.019   4.263   6.449  0.8929 -0.2618  0.3292
  616MOL0     C84927   5.936   4.296   6.332 -0.4762  0.5584 -0.7095
  616MOL0     C84928   5.889   4.427   6.330 -0.6310 -0.8504  0.6288
  616MOL0     O84929   5.797   4.481   6.245 -0.0069 -0.7354 -0.0848
  616MOL0     C84930   5.740   4.398   6.141  0.3871  0.1965 -0.0284
  616MOL0     C84931   5.640   4.483   6.063  0.6092  0.1417 -0.0820
  616MOL0     C84932   5.512   4.519   6.125  0.0373  0.5459 -0.3101
  616MOL0     C84933   5.433   4.412   6.209 -0.1305  0.4526 -0.0186
  616MOL0     C84934   5.308   4.476   6.261  0.0793  0.2929 -0.1794
  616MOL0     C84935   5.213   4.523   6.312 -0.2309 -0.6178  0.6397
  616MOL0     C84936   5.922   4.524   6.419 -0.8863  0.3441  0.3000
  616MOL0     C84937   6.010   4.495   6.529 -0.8925  0.0713  0.0251
  616MOL0     C84938   6.055   4.608   6.612 -1.1833  0.4695  0.1470
  616MOL0     H84939   6.189   3.974   6.751 -0.8717 -0.8625  1.0487
  616MOL0     H84940   6.335   3.857   6.909  2.1667  1.0239  2.4731
  616MOL0     H84941   6.535   3.788   7.010 -3.3890 -2.4062  1.7919
  616MOL0     H84942   6.421   3.858   7.127 -0.5376 -4.4087 -2.6736
  616MOL0     H84943   6.599   3.920   7.287 -0.7646  0.5335 -0.5867
  616MOL0     H84944   6.609   3.751   7.247 -1.9542  0.7905  1.9164
  616MOL0     H84945   6.782   3.836   7.063  2.4712  0.2700 -0.7840
  616MOL0     H84946   6.796   3.975   7.179 -1.7519  0.6381 -2.8806
  616MOL0     H84947   6.845   3.798   7.363  0.6685 -2.0557  0.6859
  616MOL0     H84948   6.834   3.674   7.246 -4.1302  0.1786  0.5874
  616MOL0     H84949   7.043   3.905   7.261 -0.9358  0.5088 -0.4654
  616MOL0     H84950   7.039   3.802   7.124 -0.1847  0.4947 -0.5936
  616MOL0     H84951   7.051   3.716   7.427 -0.4784  1.4782 -0.8779
  616MOL0     H84952   7.039   3.600   7.298 -0.6981 -0.2197  0.2747
  616MOL0     H84953   7.265   3.619   7.373  3.2380  3.1673  1.7460
  616MOL0     H84954   7.267   3.795   7.355 -0.4980  0.6636  1.5465
  616MOL0     H84955   7.238   3.577   7.140  0.9412  0.6603 -0.6859
  616MOL0     H84956   7.230   3.738   7.093 -0.7306  1.1868  0.3655
  616MOL0     H84957   7.482   3.893   7.182 -0.9505 -0.8348  1.2226
  616MOL0     H84958   7.748   3.879   7.281  5.2592 -0.8411 -0.7334
  616MOL0     H84959   7.739   3.925   7.111  0.0649  1.2283  0.9526
  616MOL0     H84960   7.875   3.675   7.223  0.8979  0.4392 -0.5832
  616MOL0     H84961   7.893   3.744   7.060 -0.2081 -0.8654 -0.1210
  616MOL0     H84962   7.991   3.865   7.331  0.0864  0.0344 -0.4018
  616MOL0     H84963   8.090   3.769   7.221  0.9527  0.8209 -2.2179
  616MOL0     H84964   8.071   3.914   7.038  2.8982  3.2418 -1.0330
  616MOL0     H84965   7.976   4.029   7.131 -1.0165 -0.3097 -0.3539
  616MOL0     H84966   8.393   4.140   7.279  2.4844  0.8046  0.0543
  616MOL0     H84967   8.681   4.088   7.332  0.9425 -0.9775 -0.6373
  616MOL0     H84968   8.598   4.224   7.261  1.6169  0.9057  0.7487
  616MOL0     H84969   8.712   4.142   7.164  1.1277  2.1713  1.1888
  616MOL0     H84970   8.885   3.875   6.814  2.1019  0.2904 -2.2726
  616MOL0     H84971   9.109   3.861   6.741  0.6719  2.8161 -1.4511
  616MOL0     H84972   9.474   3.802   6.835  0.0187 -0.4951 -0.6693
  616MOL0     H84973   9.305   3.764   6.783 -1.9117  1.8104 -1.5210
  616MOL0     H84974   9.322   3.955   6.624 -0.0299 -0.1768 -2.1837
  616MOL0     H84975   9.501   3.966   6.653  0.0221 -0.1564  0.8392
  616MOL0     H84976   9.474   3.841   6.448  1.4994  0.9354  1.8875
  616MOL0     H84977   9.340   3.744   6.508 -0.3991  0.2091  0.7024
  616MOL0     H84978   9.531   3.605   6.470  2.3259  0.2836 -0.4472
  616MOL0     H84979   9.498   3.621   6.647  0.9131  2.3126  1.5487
  616MOL0     H84980   9.713   3.754   6.478  0.1198 -0.4247  0.4009
  616MOL0     H84981   9.678   3.785   6.657 -0.2005  1.1089 -0.5012
  616MOL0     H84982   9.743   3.543   6.690 -1.8045 -1.3148 -1.2965
  616MOL0     H84983   9.868   3.646   6.637  1.4187 -3.5717 -0.5913
  616MOL0     H84984   9.701   3.466   6.454 -1.2481  1.3313  0.7868
  616MOL0     H84985   9.870   3.434   6.528 -0.8964 -0.1366  0.8294
  616MOL0     H84986   9.963   3.624   6.394 -0.1461 -1.2849  1.0159
  616MOL0     H84987   9.808   3.643   6.317  0.6483  0.7609 -1.3305
  616MOL0     H84988   9.244   4.038   7.122 -2.3565  1.1685  2.7339
  616MOL0     H84989   8.998   4.031   7.197 -3.6118 -2.0577 -0.9867
  616MOL0     H84990   8.469   3.755   6.970 -1.4353 -1.6402  1.7625
  616MOL0     H84991   8.253   3.804   7.040 -0.3821  0.1578  0.1756
  616MOL0     H84992   6.557   4.221   6.955 -1.1678 -0.3902  2.1357
  616MOL0     H84993   6.403   4.334   6.786 -0.3061 -0.7700  0.3298
  616MOL0     H84994   6.059   4.163   6.456 -1.5431 -1.4173 -0.8884
  616MOL0     H84995   5.910   4.207   6.275 -0.1182 -0.5551  0.7837
  616MOL0     H84996   5.823   4.361   6.079  1.5695 -1.4582  2.3930
  616MOL0     H84997   5.694   4.309   6.185 -2.6375  1.7352  0.1692
  616MOL0     H84998   5.615   4.421   5.976  1.5425 -2.4203  1.3536
  616MOL0     H84999   5.694   4.572   6.029 -1.1536  0.4422 -2.3384
  616MOL0     H85000   5.537   4.599   6.196  0.1525 -0.9621  1.4174
  616MOL0     H85001   5.447   4.552   6.043  1.4370  0.5361 -1.4744
  616MOL0     H85002   5.493   4.385   6.297  3.8349 -1.3176 -2.9823
  616MOL0     H85003   5.406   4.325   6.149  1.9123 -0.5009  0.3701
  616MOL0     H85004   5.137   4.579   6.362  0.7795 -0.5434  2.1329
  616MOL0     H85005   5.872   4.617   6.395  0.0089 -0.0746 -4.0278
  616MOL0     H85006   6.040   4.700   6.555 -1.4975  2.2161  2.9116
  616MOL0     H85007   6.007   4.623   6.709 -1.9078 -0.7758  0.0092
  616MOL0     H85008   6.163   4.602   6.624 -1.2639 -3.0041  0.3355
  617MOL0     O85009   2.905   9.278   6.465  1.3570 -0.2423  0.3275
  617MOL0     C85010   2.827   9.207   6.395 -0.0029  0.0263 -0.3655
  617MOL0     O85011   2.829   9.072   6.400  0.0200  0.0028 -0.1136
  617MOL0     C85012   2.927   9.012   6.477 -0.5017  0.5006 -0.5945
  617MOL0     C85013   3.064   9.032   6.464 -0.5730 -0.5745  0.4500
  617MOL0     C85014   3.155   8.970   6.548  0.5934  0.4195 -0.4929
  617MOL0     C85015   3.114   8.873   6.649  0.9472  0.9033  0.2111
  617MOL0     O85016   3.203   8.798   6.728  0.8035  0.5403  0.4702
  617MOL0     C85017   3.331   8.756   6.674 -0.0700 -0.4557  0.1229
  617MOL0     C85018   3.447   8.848   6.703  0.3728 -1.2918  0.0182
  617MOL0     C85019   3.473   8.851   6.864  0.0445  0.7151  0.3417
  617MOL0     C85020   3.578   8.960   6.897  0.5193 -0.1691 -0.3065
  617MOL0     C85021   3.716   8.931   6.834  0.4637 -0.4844  0.1192
  617MOL0     C85022   3.824   9.010   6.915 -0.5981  0.4127  0.4625
  617MOL0     C85023   3.959   8.964   6.861 -0.0326 -0.3984  0.3963
  617MOL0     C85024   4.061   9.029   6.959  0.2221  0.1899 -0.0176
  617MOL0     N85025   4.200   9.002   6.924  0.5695 -0.0579  0.1557
  617MOL0     C85026   4.284   9.060   6.835 -0.1405  0.4796 -0.3184
  617MOL0     C85027   4.395   8.981   6.831  1.3527 -0.0439  0.0293
  617MOL0     C85028   4.503   8.985   6.737  0.1556  0.3618 -0.3338
  617MOL0     C85029   4.642   9.035   6.792  0.2985 -0.2124  0.1373
  617MOL0     C85030   4.625   9.183   6.840  0.2539 -0.0984  0.4310
  617MOL0     C85031   4.744   9.254   6.898 -0.9484 -0.0368  0.6963
  617MOL0     O85032   4.856   9.228   6.813 -0.2831  0.1455 -1.1564
  617MOL0     C85033   4.966   9.302   6.818 -0.2978 -0.0355 -0.4081
  617MOL0     C85034   5.012   9.380   6.929  0.4325  1.1221 -0.0285
  617MOL0     C85035   5.128   9.456   6.921  0.0600 -0.2147 -0.3807
  617MOL0     C85036   5.181   9.540   7.035  0.3487 -0.4947  0.1961
  617MOL0     C85037   5.199   9.463   6.806 -0.2798 -0.2149  0.5920
  617MOL0     C85038   5.323   9.542   6.801 -0.3209  0.7375 -0.1464
  617MOL0     O85039   5.437   9.479   6.845 -0.5649 -0.6708 -0.5507
  617MOL0     C85040   5.548   9.520   6.771  0.1155  0.3345 -1.2787
  617MOL0     C85041   5.601   9.450   6.661  1.1350 -0.9803  1.1084
  617MOL0     C85042   5.726   9.478   6.610  0.4370  0.4699 -0.3430
  617MOL0     C85043   5.797   9.586   6.660 -1.2438 -0.8894 -0.3377
  617MOL0     O85044   5.926   9.621   6.617  0.8493 -0.1260  1.5003
  617MOL0     C85045   5.992   9.519   6.548  0.0299 -0.2740 -0.4283
  617MOL0     C85046   6.141   9.561   6.542  0.0349 -0.4176  0.0949
  617MOL0     C85047   6.212   9.521   6.666  0.4070 -0.6004  0.0787
  617MOL0     C85048   6.348   9.577   6.677 -0.7271  0.1822  0.2588
  617MOL0     C85049   6.405   9.549   6.817 -0.4450  0.3619  0.8823
  617MOL0     C85050   6.552   9.592   6.822  0.4631  0.7917 -0.0583
  617MOL0     C85051   6.602   9.576   6.966 -0.4353 -0.3892 -0.1720
  617MOL0     C85052   6.756   9.600   6.982 -0.7611  0.0619 -0.2876
  617MOL0    Cl85053   6.799   9.622   7.153  0.1119 -0.6280 -0.5408
  617MOL0     C85054   5.742   9.663   6.763 -0.0942  0.8079 -0.4348
  617MOL0     C85055   5.622   9.627   6.823  0.0002 -0.7527  0.5479
  617MOL0     O85056   5.319   9.652   6.745 -0.1610 -0.5137 -0.2474
  617MOL0     C85057   5.163   9.392   6.697 -0.3537 -0.2430 -1.3940
  617MOL0     C85058   5.053   9.309   6.706  0.3137  0.9422  0.7202
  617MOL0     N85059   4.385   8.888   6.928 -0.2682 -0.1218  0.5535
  617MOL0     N85060   4.269   8.896   6.978  0.1675 -0.3485 -0.5005
  617MOL0     C85061   2.976   8.851   6.651 -0.2771  0.6177 -0.1850
  617MOL0     C85062   2.886   8.913   6.564 -0.5912  0.0323 -0.4208
  617MOL0     C85063   2.729   9.273   6.296 -0.6764  0.1359 -0.5490
  617MOL0     C85064   2.640   9.191   6.230  0.3097  0.3982  0.1059
  617MOL0     C85065   2.561   9.235   6.118 -0.8627  0.6912 -0.2456
  617MOL0     C85066   2.561   9.364   6.079 -0.3149 -0.0785 -0.8104
  617MOL0     O85067   2.476   9.411   5.979  0.1896 -0.0905 -0.2718
  617MOL0     C85068   2.443   9.549   5.972  0.4733  0.0472 -0.1449
  617MOL0     C85069   2.534   9.611   5.863 -0.1277  0.5899  0.0730
  617MOL0     C85070   2.483   9.746   5.822 -0.1504 -0.2247 -0.5071
  617MOL0     C85071   2.584   9.824   5.732  0.8857  0.5363  0.6472
  617MOL0     C85072   2.602   9.752   5.604  0.1543  0.9379  0.1132
  617MOL0     C85073   2.625   9.695   5.496 -0.0931  0.6687 -0.8050
  617MOL0     C85074   2.655   9.454   6.150  0.4095 -0.0188  0.1692
  617MOL0     C85075   2.735   9.409   6.255  0.5805 -0.1955 -0.0524
  617MOL0     C85076   2.835   9.504   6.317  0.4910 -0.3191 -0.1196
  617MOL0     H85077   3.088   9.107   6.389 -3.7186 -0.3006 -0.4378
  617MOL0     H85078   3.258   8.997   6.531  0.4702  1.9268  0.9416
  617MOL0     H85079   3.329   8.748   6.565  3.3019  1.8446 -0.2584
  617MOL0     H85080   3.348   8.655   6.712 -3.9492 -0.5642  2.0749
  617MOL0     H85081   3.537   8.811   6.655 -0.0127  0.0408 -1.8337
  617MOL0     H85082   3.428   8.950   6.669  0.3283 -1.6047 -0.9199
  617MOL0     H85083   3.381   8.871   6.920 -0.0520 -1.6870  1.1797
  617MOL0     H85084   3.504   8.753   6.903 -2.3436  0.3681  1.5383
  617MOL0     H85085   3.534   9.057   6.870 -1.8560 -0.8572  0.8235
  617MOL0     H85086   3.587   8.966   7.006  0.3392  0.3658 -0.3163
  617MOL0     H85087   3.712   8.971   6.732 -3.8364 -0.0106  0.2829
  617MOL0     H85088   3.737   8.825   6.846  3.4650  0.0909  0.8390
  617MOL0     H85089   3.821   9.119   6.911  0.4958  0.5603  2.4535
  617MOL0     H85090   3.813   8.981   7.020  1.3288 -1.2189  0.2766
  617MOL0     H85091   3.967   9.000   6.758 -1.6472  3.3276  1.3946
  617MOL0     H85092   3.965   8.855   6.869  0.2396 -0.3574  0.7949
  617MOL0     H85093   4.033   9.134   6.967 -1.4719 -0.2564  0.2981
  617MOL0     H85094   4.037   8.992   7.060 -0.0047  3.2478  1.1586
  617MOL0     H85095   4.269   9.146   6.770 -0.9878 -0.3116 -1.1863
  617MOL0     H85096   4.483   9.045   6.648 -0.2702 -0.8036 -1.0545
  617MOL0     H85097   4.506   8.887   6.688 -1.9318 -0.8559  1.7592
  617MOL0     H85098   4.676   8.982   6.882 -0.0425 -1.3166 -0.3621
  617MOL0     H85099   4.712   9.037   6.708 -0.2860 -0.9096 -0.3834
  617MOL0     H85100   4.593   9.235   6.749  0.5716  0.7961  0.8271
  617MOL0     H85101   4.543   9.205   6.908 -0.4041  1.0207 -0.6873
  617MOL0     H85102   4.724   9.360   6.878  2.0461  0.2546 -1.3655
  617MOL0     H85103   4.760   9.221   7.001 -3.2213 -1.5542  0.6207
  617MOL0     H85104   4.956   9.377   7.022 -0.2991  1.2601 -0.4586
  617MOL0     H85105   5.286   9.523   7.063  0.0759 -2.3261  0.2222
  617MOL0     H85106   5.128   9.519   7.128  1.9034 -1.3410  0.9335
  617MOL0     H85107   5.161   9.643   7.006  1.8814  0.1680  1.3315
  617MOL0     H85108   5.536   9.371   6.624 -0.4779  1.3186 -1.3732
  617MOL0     H85109   5.758   9.417   6.526  0.6358  0.1866 -0.0658
  617MOL0     H85110   5.983   9.421   6.596 -1.7095 -0.8463 -1.8344
  617MOL0     H85111   5.949   9.506   6.448  0.4348 -0.3325 -0.5974
  617MOL0     H85112   6.190   9.515   6.456  2.2989  0.1336  1.0398
  617MOL0     H85113   6.142   9.669   6.528 -0.0791 -0.5423 -1.0441
  617MOL0     H85114   6.221   9.413   6.675  2.2225 -0.5504 -0.6177
  617MOL0     H85115   6.147   9.565   6.742  1.8773 -1.4405  1.8873
  617MOL0     H85116   6.359   9.684   6.659  3.5341 -0.1804 -0.5586
  617MOL0     H85117   6.420   9.534   6.606  0.7917  2.0216  0.5871
  617MOL0     H85118   6.346   9.610   6.886 -2.4286 -1.0300  0.5145
  617MOL0     H85119   6.403   9.442   6.842  2.1641  0.3775  1.5512
  617MOL0     H85120   6.563   9.695   6.787  0.7750  0.6233 -0.4551
  617MOL0     H85121   6.601   9.525   6.751  1.8126  0.0860  1.4593
  617MOL0     H85122   6.584   9.477   7.009  1.4615 -0.2993  0.9430
  617MOL0     H85123   6.543   9.643   7.030  1.5246  0.4924  0.7874
  617MOL0     H85124   6.791   9.693   6.937 -0.7578 -0.0899 -0.5978
  617MOL0     H85125   6.800   9.509   6.941 -0.7636 -0.7892  1.4814
  617MOL0     H85126   5.797   9.734   6.825  0.1193  0.2699 -0.0025
  617MOL0     H85127   5.595   9.680   6.914  1.5449  0.2303  0.4713
  617MOL0     H85128   5.216   9.409   6.604  1.5201  2.4760  0.0183
  617MOL0     H85129   5.034   9.257   6.612 -0.5076  1.7641  0.4147
  617MOL0     H85130   2.938   8.775   6.719  1.5056 -0.3101 -0.1503
  617MOL0     H85131   2.782   8.883   6.554 -0.0203 -1.1978 -4.5190
  617MOL0     H85132   2.646   9.090   6.269  1.0577  0.2857 -0.2690
  617MOL0     H85133   2.500   9.156   6.076 -1.2965 -0.2099  1.9196
  617MOL0     H85134   2.338   9.562   5.946  0.5864  3.2197  0.5024
  617MOL0     H85135   2.452   9.596   6.070  2.4185 -0.1383 -0.1924
  617MOL0     H85136   2.531   9.535   5.784 -3.2988  0.2344  0.3973
  617MOL0     H85137   2.629   9.630   5.914 -1.3911  4.1446  1.3979
  617MOL0     H85138   2.389   9.730   5.767 -0.3598  0.6176 -0.4036
  617MOL0     H85139   2.463   9.809   5.909 -0.3943  0.4016 -1.0059
  617MOL0     H85140   2.680   9.824   5.784  1.4937 -2.2361 -0.2722
  617MOL0     H85141   2.553   9.927   5.711  0.5272 -0.2414 -3.6672
  617MOL0     H85142   2.647   9.648   5.403 -0.8144 -0.1601 -0.5669
  617MOL0     H85143   2.657   9.558   6.118 -1.5442 -0.2091 -0.6696
  617MOL0     H85144   2.810   9.607   6.289 -1.2164 -0.8109 -0.4780
  617MOL0     H85145   2.827   9.484   6.424 -2.5479 -0.1381 -0.2287
  617MOL0     H85146   2.936   9.484   6.279  0.4411  2.5614 -2.0824
  618MOL0     O85147   5.250   6.919   6.434 -0.1217  0.3834  0.1006
  618MOL0     C85148   5.162   6.971   6.355  0.4733 -0.1902  0.2864
  618MOL0     O85149   5.180   7.007   6.221 -0.1253  0.5356  0.2815
  618MOL0     C85150   5.292   6.996   6.151 -0.2119  0.4633 -0.6356
  618MOL0     C85151   5.415   6.935   6.192 -0.2318 -0.2057 -0.3504
  618MOL0     C85152   5.530   6.933   6.108  0.6654 -0.1533 -0.3991
  618MOL0     C85153   5.518   6.985   5.972 -0.0466  0.4943 -0.2626
  618MOL0     O85154   5.611   6.979   5.874  0.1036  0.5087  0.6664
  618MOL0     C85155   5.740   6.998   5.915 -0.3836  0.8388  0.8965
  618MOL0     C85156   5.836   7.053   5.807  0.6736 -0.5105 -0.0347
  618MOL0     C85157   5.979   7.030   5.859 -0.1403 -0.0026  0.0635
  618MOL0     C85158   6.069   7.093   5.746  0.2464 -0.0088 -0.3501
  618MOL0     C85159   6.221   7.067   5.788 -0.6365  0.0788  0.0722
  618MOL0     C85160   6.312   7.159   5.701  0.1454  0.3206  0.4038
  618MOL0     C85161   6.461   7.136   5.731 -0.1652  0.4366 -0.3205
  618MOL0     C85162   6.543   7.198   5.615  0.1667  0.1785 -0.0910
  618MOL0     N85163   6.688   7.175   5.635  0.8506 -0.5874  0.4393
  618MOL0     C85164   6.760   7.092   5.560 -0.3658  0.5341  0.6166
  618MOL0     C85165   6.880   7.081   5.629  0.5843 -0.1096 -0.0446
  618MOL0     C85166   7.002   7.001   5.582  0.3507  0.4050  0.3155
  618MOL0     C85167   7.142   7.036   5.630 -0.7242 -0.5153  0.2274
  618MOL0     C85168   7.170   6.987   5.774 -0.3923  0.2987 -0.1850
  618MOL0     C85169   7.319   6.953   5.801 -0.7916 -0.5964  0.1067
  618MOL0     O85170   7.395   7.064   5.767  0.0009  0.1624  0.1109
  618MOL0     C85171   7.531   7.043   5.774 -0.3030 -0.0743  0.8962
  618MOL0     C85172   7.608   6.932   5.820  0.1077 -0.4683 -0.0856
  618MOL0     C85173   7.747   6.929   5.825 -0.6760  0.4757  0.7707
  618MOL0     C85174   7.818   6.796   5.855  0.3082 -0.1774  0.7534
  618MOL0     C85175   7.818   7.045   5.789  0.4060  0.0142  0.5419
  618MOL0     C85176   7.965   7.068   5.797  0.4092  0.7530 -0.1973
  618MOL0     O85177   8.004   7.196   5.830 -0.0900  0.2226 -0.3005
  618MOL0     C85178   8.136   7.232   5.812 -0.3368 -0.3915  0.6908
  618MOL0     C85179   8.200   7.235   5.685  0.7792 -0.5887  0.9784
  618MOL0     C85180   8.332   7.281   5.662 -0.1117 -0.3412  0.1929
  618MOL0     C85181   8.402   7.343   5.763  0.1915 -0.1354  0.0107
  618MOL0     O85182   8.528   7.389   5.745  0.2539 -0.2410 -0.1836
  618MOL0     C85183   8.590   7.499   5.817 -0.4514  0.3771 -0.5828
  618MOL0     C85184   8.671   7.454   5.941 -0.6175  0.6070  0.5484
  618MOL0     C85185   8.789   7.374   5.887  0.1285  0.4894 -0.6200
  618MOL0     C85186   8.861   7.313   6.007  0.3790  0.8646  0.2514
  618MOL0     C85187   8.947   7.197   5.956  0.3150  0.2513  0.7114
  618MOL0     C85188   9.025   7.140   6.076 -0.4026 -0.8133  0.8485
  618MOL0     C85189   9.109   7.020   6.030  0.2683  0.4472 -0.3470
  618MOL0     C85190   9.154   6.934   6.150  1.2348 -0.7277  0.5710
  618MOL0    Cl85191   9.186   6.766   6.096 -0.4315  0.1795 -0.4049
  618MOL0     C85192   8.338   7.347   5.889 -0.4085 -0.1596  0.3459
  618MOL0     C85193   8.209   7.283   5.916 -1.1060  0.1291 -0.4698
  618MOL0     O85194   8.038   6.977   5.762  0.1598 -0.0512  0.8459
  618MOL0     C85195   7.738   7.150   5.739 -0.6008 -0.1685  0.4395
  618MOL0     C85196   7.597   7.151   5.733 -0.6774 -0.6727  0.4177
  618MOL0     N85197   6.877   7.165   5.744  0.0206  0.2007  0.1776
  618MOL0     N85198   6.758   7.212   5.739  0.5482  0.0924  0.0973
  618MOL0     C85199   5.393   7.043   5.943  0.0051  0.0479  0.7258
  618MOL0     C85200   5.281   7.051   6.026  0.0013  0.2888  0.2110
  618MOL0     C85201   5.023   6.986   6.411  0.7971 -1.1671  0.4273
  618MOL0     C85202   4.920   7.021   6.327 -0.2216  0.1004 -0.7940
  618MOL0     C85203   4.788   7.031   6.361 -0.4699 -0.4036  0.4153
  618MOL0     C85204   4.743   7.012   6.495  0.1927  0.5740  0.3302
  618MOL0     O85205   4.618   7.037   6.543 -0.0334  0.0418  0.2951
  618MOL0     C85206   4.522   6.975   6.465  0.2914 -0.1040  0.2033
  618MOL0     C85207   4.387   6.999   6.528 -0.2434 -0.4206 -0.1771
  618MOL0     C85208   4.279   6.899   6.482 -0.4908 -1.0597  0.2432
  618MOL0     C85209   4.139   6.919   6.536 -0.8612 -0.1014  0.3220
  618MOL0     C85210   4.085   7.041   6.473 -0.4861  0.6385 -0.2189
  618MOL0     C85211   4.031   7.144   6.440  0.0837 -0.0161  0.6992
  618MOL0     C85212   4.844   6.985   6.583  0.5034  0.0135  0.0203
  618MOL0     C85213   4.987   6.976   6.550 -0.4988 -1.3255  0.2891
  618MOL0     C85214   5.075   6.937   6.662  0.1549 -0.7256 -0.0644
  618MOL0     H85215   5.439   6.875   6.280 -1.3194 -0.9849 -0.5594
  618MOL0     H85216   5.619   6.880   6.141  0.3869  0.3083  1.1700
  618MOL0     H85217   5.789   6.908   5.955  0.5715  0.0268 -1.8402
  618MOL0     H85218   5.738   7.060   6.005  0.8420  0.1396  1.4366
  618MOL0     H85219   5.832   6.991   5.717  2.1516  0.1941 -0.6287
  618MOL0     H85220   5.825   7.156   5.773  3.5131 -0.5568 -1.3721
  618MOL0     H85221   6.000   7.100   5.941  1.6156 -1.3024  0.7885
  618MOL0     H85222   6.004   6.927   5.886  1.0690 -0.0435 -1.1138
  618MOL0     H85223   6.043   7.046   5.651 -1.2537 -0.5792  0.3191
  618MOL0     H85224   6.050   7.201   5.742  0.7159  0.2705  2.6429
  618MOL0     H85225   6.248   6.961   5.773 -1.5873 -0.1000 -0.4415
  618MOL0     H85226   6.236   7.086   5.895  1.0986 -1.4756  0.1598
  618MOL0     H85227   6.285   7.144   5.597 -0.0896  0.4992  0.4402
  618MOL0     H85228   6.281   7.262   5.722 -1.8807  0.3764 -2.3204
  618MOL0     H85229   6.468   7.027   5.729 -3.2796  0.1664 -0.8084
  618MOL0     H85230   6.492   7.162   5.832 -0.9057  0.9506 -0.2183
  618MOL0     H85231   6.522   7.144   5.522 -0.2651 -1.7090  1.0351
  618MOL0     H85232   6.520   7.304   5.614  0.3450  0.2156 -0.3005
  618MOL0     H85233   6.730   7.036   5.472  1.6028  0.4289 -0.0498
  618MOL0     H85234   7.006   7.003   5.472  1.8570  0.5362  0.3568
  618MOL0     H85235   6.977   6.899   5.611 -2.6841 -0.0946 -3.3264
  618MOL0     H85236   7.214   6.991   5.561 -1.8689  1.0612 -2.1532
  618MOL0     H85237   7.152   7.145   5.624 -0.8891 -0.5802 -1.8779
  618MOL0     H85238   7.133   7.064   5.842  0.9177  0.2731  0.6078
  618MOL0     H85239   7.121   6.892   5.797  0.3903 -0.2738 -0.8286
  618MOL0     H85240   7.335   6.937   5.908  0.2103  1.8791  0.4139
  618MOL0     H85241   7.366   6.866   5.754  2.9087  0.8309  0.7485
  618MOL0     H85242   7.564   6.842   5.861  1.5397 -0.9707  0.4107
  618MOL0     H85243   7.741   6.718   5.860 -0.6362  0.3662 -2.8053
  618MOL0     H85244   7.862   6.803   5.955  0.8967  1.2195  0.4263
  618MOL0     H85245   7.889   6.759   5.781  0.0260 -0.4955  0.6391
  618MOL0     H85246   8.129   7.193   5.615  0.2821 -0.5093  1.4227
  618MOL0     H85247   8.384   7.274   5.567  0.2555 -0.0942  0.3740
  618MOL0     H85248   8.637   7.563   5.742 -1.3270  1.1343 -0.5002
  618MOL0     H85249   8.512   7.567   5.852  0.5780  1.6173 -0.6139
  618MOL0     H85250   8.709   7.546   5.986  1.6928  0.7020 -1.3843
  618MOL0     H85251   8.616   7.406   6.022  1.3752 -0.8540  1.1227
  618MOL0     H85252   8.848   7.440   5.823  0.7190 -0.4053 -1.0192
  618MOL0     H85253   8.745   7.286   5.839 -0.4422 -0.1772  1.0578
  618MOL0     H85254   8.799   7.269   6.085  1.6423 -0.2050  0.6935
  618MOL0     H85255   8.920   7.397   6.045  0.9889  1.8872 -2.6595
  618MOL0     H85256   8.888   7.112   5.921 -0.9424  0.9744  0.9801
  618MOL0     H85257   9.004   7.239   5.873 -2.6240 -0.2150 -1.7261
  618MOL0     H85258   8.953   7.107   6.151  0.1473  1.3340  2.4248
  618MOL0     H85259   9.090   7.216   6.121  1.4483 -1.9790  0.2661
  618MOL0     H85260   9.200   7.056   5.982 -1.3385  2.7147 -1.9052
  618MOL0     H85261   9.054   6.958   5.959  0.6505  0.1514 -0.3878
  618MOL0     H85262   9.077   6.928   6.228  0.0781 -2.9729 -0.6715
  618MOL0     H85263   9.242   6.984   6.191 -0.5207 -0.8661  5.1684
  618MOL0     H85264   8.387   7.395   5.973 -0.6851 -0.0237  0.4328
  618MOL0     H85265   8.164   7.298   6.013 -1.4670  1.0056 -0.7681
  618MOL0     H85266   7.787   7.241   5.705 -3.9227  0.8261 -2.3348
  618MOL0     H85267   7.550   7.242   5.697  2.4401 -0.8063 -5.0472
  618MOL0     H85268   5.392   7.088   5.844 -1.2325 -0.3349  0.5480
  618MOL0     H85269   5.186   7.091   5.993 -0.9733 -1.7477  0.4017
  618MOL0     H85270   4.938   7.033   6.220  1.0607 -0.9266 -0.7101
  618MOL0     H85271   4.711   7.052   6.287  1.3276  0.1206 -1.3821
  618MOL0     H85272   4.502   7.020   6.368 -3.0321  0.4622  1.0172
  618MOL0     H85273   4.548   6.869   6.464  2.6920  0.4147 -0.1081
  618MOL0     H85274   4.363   7.104   6.514 -3.1446 -0.6210  2.2166
  618MOL0     H85275   4.414   6.981   6.633  2.9510 -0.6212 -0.9272
  618MOL0     H85276   4.274   6.901   6.372  2.6305  1.3126 -0.0118
  618MOL0     H85277   4.320   6.801   6.506  0.1756 -0.5634  1.2363
  618MOL0     H85278   4.136   6.940   6.644 -0.3126  2.7215 -0.1349
  618MOL0     H85279   4.070   6.842   6.501 -3.8226  1.7251  1.7562
  618MOL0     H85280   3.977   7.232   6.411  1.2428  0.1129 -1.2457
  618MOL0     H85281   4.811   6.971   6.685  1.8648 -0.1506  0.4665
  618MOL0     H85282   5.004   6.940   6.746  0.8633  3.0120  0.5763
  618MOL0     H85283   5.117   6.836   6.658  0.9502 -0.7378  3.9536
  618MOL0     H85284   5.147   7.018   6.673  0.7049 -1.2295  0.1568
  619MOL0     O85285   7.191   8.575   2.200 -0.4151 -0.5509 -0.1580
  619MOL0     C85286   7.174   8.650   2.106 -0.5905  0.0977  0.8065
  619MOL0     O85287   7.269   8.680   2.010  0.4608  0.6471  0.0448
  619MOL0     C85288   7.394   8.629   2.037  0.0865  0.3376 -0.8199
  619MOL0     C85289   7.497   8.726   2.034 -0.7498  0.4726  0.4952
  619MOL0     C85290   7.627   8.703   2.076 -1.1104 -0.1044 -0.2152
  619MOL0     C85291   7.658   8.581   2.123 -0.4053 -0.6146 -0.1460
  619MOL0     O85292   7.787   8.568   2.178  0.3387  0.5629 -0.3476
  619MOL0     C85293   7.820   8.455   2.268 -0.8350  0.4347 -1.1387
  619MOL0     C85294   7.966   8.479   2.301 -0.3377  0.6971 -0.4439
  619MOL0     C85295   8.013   8.373   2.406  0.4193 -0.5701  0.7022
  619MOL0     C85296   8.152   8.408   2.446 -0.0590  0.1468 -1.0203
  619MOL0     C85297   8.217   8.309   2.543 -0.0755 -1.1155  0.2462
  619MOL0     C85298   8.358   8.358   2.593  0.3612  0.0328 -0.4957
  619MOL0     C85299   8.415   8.258   2.690  0.3302  0.0618  0.6270
  619MOL0     C85300   8.523   8.299   2.792 -0.5131 -0.2987 -0.2053
  619MOL0     N85301   8.631   8.368   2.717 -0.0856  0.3251  0.2292
  619MOL0     C85302   8.700   8.336   2.602  0.1875  1.0936 -0.0473
  619MOL0     C85303   8.779   8.441   2.576 -0.5759  0.6886 -0.1549
  619MOL0     C85304   8.864   8.463   2.456  0.3102  0.8571  0.3338
  619MOL0     C85305   9.002   8.500   2.486 -0.2360  0.1505  0.1135
  619MOL0     C85306   9.078   8.486   2.355 -0.3110  0.0980 -0.0974
  619MOL0     C85307   9.223   8.504   2.377  0.3988  0.5851 -0.4476
  619MOL0     O85308   9.243   8.643   2.423  0.0417  0.5584 -0.1716
  619MOL0     C85309   9.371   8.694   2.429 -0.0152 -0.7351 -0.3413
  619MOL0     C85310   9.383   8.835   2.421  0.8169  0.8117 -0.1629
  619MOL0     C85311   9.507   8.894   2.410 -0.1619  0.9428  0.2543
  619MOL0     C85312   9.499   9.035   2.374 -0.1690  1.2159 -0.3814
  619MOL0     C85313   9.629   8.819   2.415  0.0391  0.4833  0.5035
  619MOL0     C85314   9.760   8.884   2.399 -0.2690  0.1987  1.1489
  619MOL0     O85315   9.861   8.797   2.440 -0.4545  0.1319  0.4749
  619MOL0     C85316   9.987   8.845   2.437 -0.4744  0.2515 -0.0935
  619MOL0     C85317  10.034   8.955   2.513 -0.5146 -0.5858 -0.2583
  619MOL0     C85318  10.167   9.002   2.503  0.1168 -0.0031  0.6898
  619MOL0     C85319  10.256   8.941   2.414  0.6820 -0.7233 -0.0042
  619MOL0     O85320  10.379   8.999   2.394  0.0171  0.1201  0.6311
  619MOL0     C85321  10.481   8.927   2.322  0.2620 -0.1848  0.1115
  619MOL0     C85322  10.617   9.007   2.310 -0.3534 -0.6632  0.9851
  619MOL0     C85323  10.612   9.133   2.220  0.8197  0.0978 -0.1691
  619MOL0     C85324  10.725   9.225   2.246 -0.4362  0.2067  0.1968
  619MOL0     C85325  10.721   9.360   2.180 -0.8653 -0.6021  0.0190
  619MOL0     C85326  10.643   9.467   2.263 -0.1571 -0.0510  1.2273
  619MOL0     C85327  10.665   9.597   2.179  0.5963 -0.2912 -0.7452
  619MOL0     C85328  10.617   9.721   2.256  0.6475  0.1100 -0.4431
  619MOL0    Cl85329  10.438   9.724   2.276  0.1563 -0.1409  0.9969
  619MOL0     C85330  10.209   8.838   2.332  0.0223 -0.1101 -0.0786
  619MOL0     C85331  10.077   8.790   2.345 -1.1326 -0.1543  1.0329
  619MOL0     O85332   9.776   9.001   2.367  0.4982 -0.3499  0.9032
  619MOL0     C85333   9.614   8.679   2.436  0.3764 -0.6569 -0.1303
  619MOL0     C85334   9.490   8.615   2.437 -0.5862 -0.0189 -0.1322
  619MOL0     N85335   8.763   8.524   2.684 -0.2468 -0.1710 -0.1985
  619MOL0     N85336   8.672   8.492   2.765  0.4155  0.2558 -0.0868
  619MOL0     C85337   7.565   8.477   2.122 -0.5685 -0.0857 -0.3784
  619MOL0     C85338   7.434   8.498   2.083  0.1029 -0.5566  0.0821
  619MOL0     C85339   7.037   8.698   2.102  0.4108  0.2637  0.9240
  619MOL0     C85340   6.986   8.723   1.975  0.4610  0.6110 -1.4412
  619MOL0     C85341   6.855   8.766   1.958 -0.1268  0.7313  0.5114
  619MOL0     C85342   6.765   8.783   2.067 -0.0692 -0.4691  0.5079
  619MOL0     O85343   6.643   8.841   2.058  0.6147  0.0021  0.1468
  619MOL0     C85344   6.574   8.866   1.935 -0.5055 -1.1905 -0.0383
  619MOL0     C85345   6.507   8.737   1.897 -0.2995  0.3201 -0.0055
  619MOL0     C85346   6.402   8.688   1.993 -0.3114  0.2552 -0.0895
  619MOL0     C85347   6.376   8.538   1.973 -0.1277 -0.6843 -0.1783
  619MOL0     C85348   6.308   8.502   1.844 -0.6256 -0.5575  0.0302
  619MOL0     C85349   6.256   8.482   1.739 -0.6644  0.2487  0.7098
  619MOL0     C85350   6.815   8.749   2.187  0.0040 -0.1512  0.2391
  619MOL0     C85351   6.948   8.713   2.212 -1.3035  1.1002 -0.0285
  619MOL0     C85352   6.998   8.704   2.358 -0.3996  0.7003  0.0480
  619MOL0     H85353   7.472   8.826   2.001 -2.7991  0.0179  0.5073
  619MOL0     H85354   7.700   8.783   2.081 -1.4371  0.1473  0.5840
  619MOL0     H85355   7.808   8.368   2.203 -2.3146 -0.0590 -0.2450
  619MOL0     H85356   7.752   8.454   2.354  1.4944 -1.2507  0.8409
  619MOL0     H85357   8.015   8.475   2.204 -1.3860  4.4618 -1.2695
  619MOL0     H85358   7.973   8.577   2.349 -2.0133 -0.3468  2.2006
  619MOL0     H85359   7.949   8.382   2.494 -1.6127  0.9768 -0.8224
  619MOL0     H85360   8.005   8.273   2.362  0.9374 -1.1591  1.9018
  619MOL0     H85361   8.205   8.407   2.350  1.9216 -0.0537  0.0245
  619MOL0     H85362   8.146   8.505   2.496  0.5008  0.2350 -1.1253
  619MOL0     H85363   8.233   8.212   2.495 -1.6171 -1.3012  0.0649
  619MOL0     H85364   8.151   8.299   2.629  1.7024  3.0955  2.3780
  619MOL0     H85365   8.430   8.369   2.511  3.2661  0.7187  1.9441
  619MOL0     H85366   8.352   8.452   2.648  2.9676 -0.1297  0.2139
  619MOL0     H85367   8.461   8.172   2.640  2.5248  0.4487  1.8303
  619MOL0     H85368   8.333   8.219   2.750 -1.0379 -0.9393 -1.7402
  619MOL0     H85369   8.478   8.360   2.870 -0.6613 -0.9708  0.2515
  619MOL0     H85370   8.561   8.208   2.841 -1.1949 -1.1315 -1.1708
  619MOL0     H85371   8.693   8.241   2.549  0.6452  0.6215  0.7236
  619MOL0     H85372   8.818   8.549   2.407 -1.2486 -0.3954 -0.4725
  619MOL0     H85373   8.860   8.373   2.393  2.6646  0.1709  1.0293
  619MOL0     H85374   9.000   8.602   2.527 -1.2311  0.0607  0.3221
  619MOL0     H85375   9.033   8.435   2.568 -0.8334 -0.2154  0.0496
  619MOL0     H85376   9.053   8.387   2.316 -1.1736  0.4620 -0.4897
  619MOL0     H85377   9.052   8.560   2.279 -3.0565 -0.7871 -0.1323
  619MOL0     H85378   9.259   8.433   2.452  0.5531  0.1753 -0.9053
  619MOL0     H85379   9.281   8.481   2.288  0.9306 -1.9135  0.4498
  619MOL0     H85380   9.294   8.895   2.406 -0.9261 -2.0159 -2.2586
  619MOL0     H85381   9.401   9.083   2.366 -0.4375  0.7179 -0.1761
  619MOL0     H85382   9.543   9.045   2.275 -0.5455 -1.0461 -0.8307
  619MOL0     H85383   9.546   9.082   2.461 -1.7178 -0.6853  1.6049
  619MOL0     H85384   9.961   9.007   2.575 -1.2918  0.9305 -2.3050
  619MOL0     H85385  10.206   9.083   2.563  2.9920  0.2299 -1.2653
  619MOL0     H85386  10.495   8.835   2.379  0.6564 -0.4058 -0.3323
  619MOL0     H85387  10.439   8.892   2.227 -1.5168 -1.6647  1.3863
  619MOL0     H85388  10.645   9.037   2.411 -2.2923  0.8453  1.1234
  619MOL0     H85389  10.687   8.933   2.269  0.1737 -0.5570  1.6756
  619MOL0     H85390  10.519   9.182   2.252  2.9781  3.1425  2.1009
  619MOL0     H85391  10.599   9.094   2.119 -6.3660 -3.0497  1.3052
  619MOL0     H85392  10.814   9.170   2.213  0.1146 -0.2647  2.3539
  619MOL0     H85393  10.737   9.251   2.351  0.7153  0.0913  0.1057
  619MOL0     H85394  10.825   9.386   2.158 -1.0056 -0.1373 -0.1223
  619MOL0     H85395  10.677   9.349   2.081  0.6910  1.4432 -0.9819
  619MOL0     H85396  10.698   9.484   2.356  2.0985 -1.0565  0.1509
  619MOL0     H85397  10.538   9.437   2.263 -0.3476  0.3823 -1.2486
  619MOL0     H85398  10.610   9.602   2.085 -3.6128  0.7270  1.5174
  619MOL0     H85399  10.769   9.622   2.158  0.0436  2.7185 -0.4499
  619MOL0     H85400  10.643   9.808   2.194 -0.1429 -0.2527 -1.3016
  619MOL0     H85401  10.665   9.730   2.354 -0.5746  2.2613  0.0341
  619MOL0     H85402  10.269   8.792   2.254  1.0405  1.1608 -0.0756
  619MOL0     H85403  10.044   8.706   2.284 -0.8321  0.5545 -0.1373
  619MOL0     H85404   9.712   8.634   2.451  2.2509  2.7627 -1.0402
  619MOL0     H85405   9.483   8.507   2.442 -0.9621 -0.1212 -1.9159
  619MOL0     H85406   7.594   8.382   2.166 -0.1540  0.7698  1.3086
  619MOL0     H85407   7.364   8.415   2.091  0.1387 -0.6672 -0.6979
  619MOL0     H85408   7.043   8.706   1.884  0.5030 -2.3775 -0.9771
  619MOL0     H85409   6.818   8.781   1.857 -1.7821  1.4116  1.1725
  619MOL0     H85410   6.495   8.942   1.944  2.4147  1.8239  2.4967
  619MOL0     H85411   6.645   8.889   1.855  0.1877 -0.6144  0.7313
  619MOL0     H85412   6.580   8.659   1.876 -0.4601  1.2086 -4.9438
  619MOL0     H85413   6.457   8.749   1.800  0.5262  0.5394 -0.4113
  619MOL0     H85414   6.435   8.695   2.097 -0.4961 -1.2409  0.0915
  619MOL0     H85415   6.314   8.753   1.984 -0.7374 -0.2670  0.2334
  619MOL0     H85416   6.311   8.511   2.057 -0.6514  1.0825  0.0190
  619MOL0     H85417   6.466   8.477   1.985  0.8499  0.4914 -1.2644
  619MOL0     H85418   6.209   8.462   1.645 -0.0778  0.1169  0.4412
  619MOL0     H85419   6.753   8.746   2.277  2.5487 -1.4852  2.0659
  619MOL0     H85420   7.025   8.603   2.392 -1.0106  0.2628 -0.7449
  619MOL0     H85421   7.083   8.771   2.376  2.5332 -2.3605 -1.1544
  619MOL0     H85422   6.918   8.741   2.422 -0.3304  1.3943 -0.2612
  620MOL0     O85423   4.008   9.852  11.043 -0.4882  0.5856 -0.2849
  620MOL0     C85424   4.034   9.846  10.926 -0.2344  0.5592 -0.2920
  620MOL0     O85425   4.160   9.844  10.874  0.5058 -0.3858  0.0361
  620MOL0     C85426   4.259   9.850  10.969  0.4888  0.3672 -0.3035
  620MOL0     C85427   4.281   9.740  11.051  0.3516 -0.2154  0.2520
  620MOL0     C85428   4.377   9.738  11.156 -0.2791 -0.2085  0.3855
  620MOL0     C85429   4.465   9.853  11.153  1.0705 -0.4590 -0.5758
  620MOL0     O85430   4.569   9.855  11.235 -0.4513  0.3945  0.1518
  620MOL0     C85431   4.602   9.741  11.308 -0.8781 -0.1338 -0.5258
  620MOL0     C85432   4.728   9.777  11.394 -0.6294  0.2421 -0.4871
  620MOL0     C85433   4.742   9.700  11.522 -0.9333 -0.2088  0.9706
  620MOL0     C85434   4.893   9.728  11.573  0.2362 -0.1016 -0.0416
  620MOL0     C85435   4.910   9.632  11.691 -0.4139 -0.0739 -0.0355
  620MOL0     C85436   5.049   9.656  11.741  0.0999 -0.8213  0.5946
  620MOL0     C85437   5.081   9.560  11.859  0.1386  0.7060 -0.5268
  620MOL0     C85438   5.228   9.561  11.890 -0.6037 -0.0171 -0.9318
  620MOL0     N85439   5.294   9.689  11.915  0.6175  0.7456  0.4334
  620MOL0     C85440   5.286   9.748  12.037  0.4283 -0.4312 -0.3743
  620MOL0     C85441   5.380   9.841  12.025  0.6974  0.6785 -0.1712
  620MOL0     C85442   5.436   9.931  12.128 -0.9009 -0.5641 -0.1158
  620MOL0     C85443   5.487  10.067  12.072  0.5996 -0.1491 -0.2414
  620MOL0     C85444   5.559  10.141  12.179  0.7633  1.4514  0.4485
  620MOL0     C85445   5.609  10.269  12.135 -0.7125 -0.1323 -0.4706
  620MOL0     O85446   5.729  10.251  12.050 -1.2006 -0.3880 -0.6716
  620MOL0     C85447   5.864  10.244  12.098  1.0221  0.3214 -0.4125
  620MOL0     C85448   5.893  10.282  12.229 -0.8379 -0.0525  0.2924
  620MOL0     C85449   6.027  10.267  12.275  0.1386  0.1628  0.1740
  620MOL0     C85450   6.062  10.300  12.418  0.6409  0.0068  0.3313
  620MOL0     C85451   6.128  10.235  12.179 -0.4828  0.3111  0.7448
  620MOL0     C85452   6.277  10.242  12.214 -0.2148 -1.0042  0.4297
  620MOL0     O85453   6.356  10.212  12.105 -0.1558 -0.3149  0.2996
  620MOL0     C85454   6.491  10.249  12.118  0.1656  0.1455 -0.6585
  620MOL0     C85455   6.575  10.193  12.216 -0.3743 -0.1105  1.2286
  620MOL0     C85456   6.704  10.241  12.233  0.0124 -0.8870  0.2040
  620MOL0     C85457   6.771  10.321  12.140  0.9338 -0.1666  0.4803
  620MOL0     O85458   6.906  10.341  12.160 -0.4945 -0.4933 -0.0419
  620MOL0     C85459   6.974  10.441  12.080  0.6025  0.0509  0.2159
  620MOL0     C85460   7.114  10.449  12.139 -0.0943  0.5228 -0.3861
  620MOL0     C85461   7.117  10.491  12.282 -0.1271 -0.1511  0.4110
  620MOL0     C85462   7.149  10.645  12.288  0.1687  0.6608  1.3678
  620MOL0     C85463   7.153  10.688  12.439 -0.1597  0.0177  0.0823
  620MOL0     C85464   7.154  10.847  12.443  0.1375  0.1327 -1.1894
  620MOL0     C85465   7.172  10.927  12.580  0.5380 -0.6647 -0.3913
  620MOL0     C85466   7.227  11.065  12.564  0.4385 -0.2833 -0.0274
  620MOL0    Cl85467   7.202  11.168  12.705 -0.1719 -0.1811  0.3752
  620MOL0     C85468   6.688  10.384  12.040 -0.2487 -0.0397 -0.2989
  620MOL0     C85469   6.560  10.336  12.028  0.5765 -0.4351 -0.1987
  620MOL0     O85470   6.314  10.299  12.318  0.2635 -0.4705  0.3198
  620MOL0     C85471   6.089  10.199  12.049 -0.1222 -0.4170  0.5368
  620MOL0     C85472   5.962  10.209  12.008  0.3947  1.3497  0.8630
  620MOL0     N85473   5.430   9.841  11.893  0.2047  0.0645  0.6321
  620MOL0     N85474   5.374   9.744  11.830  0.1999  0.8185  0.9217
  620MOL0     C85475   4.447   9.968  11.067  0.4043  0.1751  0.2306
  620MOL0     C85476   4.343   9.961  10.973  0.2656 -0.1246 -0.0019
  620MOL0     C85477   3.919   9.845  10.833 -0.2086  0.2855  0.1504
  620MOL0     C85478   3.945   9.878  10.695 -0.1428 -0.7679  0.1126
  620MOL0     C85479   3.844   9.887  10.601  1.0615  0.3438 -0.0278
  620MOL0     C85480   3.712   9.867  10.637 -0.1526 -0.7204 -0.0708
  620MOL0     O85481   3.599   9.882  10.560  0.1750 -0.9083 -0.7426
  620MOL0     C85482   3.617   9.914  10.421  0.1036 -0.5830  0.4259
  620MOL0     C85483   3.480   9.901  10.356 -0.6836 -0.0497 -0.1876
  620MOL0     C85484   3.432   9.754  10.352 -0.5657  0.0998 -0.6245
  620MOL0     C85485   3.295   9.749  10.290 -0.0742 -0.8709 -0.0161
  620MOL0     C85486   3.273   9.611  10.240  0.0984 -0.3010 -0.7682
  620MOL0     C85487   3.267   9.500  10.200  0.5401 -0.1553  0.4773
  620MOL0     C85488   3.682   9.828  10.768  0.0739  0.4133  0.7635
  620MOL0     C85489   3.783   9.822  10.863 -0.3393  0.3617  0.1886
  620MOL0     C85490   3.735   9.784  11.002  0.5041  0.5890  0.2930
  620MOL0     H85491   4.228   9.646  11.037  0.6512  0.1589 -5.5037
  620MOL0     H85492   4.396   9.646  11.210 -0.1818 -1.1644 -1.2079
  620MOL0     H85493   4.624   9.659  11.239  1.2602 -0.9715  1.0289
  620MOL0     H85494   4.517   9.718  11.374  0.3531 -3.1610  0.1679
  620MOL0     H85495   4.815   9.760  11.331 -1.2070  2.6102 -2.0690
  620MOL0     H85496   4.719   9.883  11.419  3.3384  0.2981  1.4500
  620MOL0     H85497   4.668   9.723  11.600 -0.3491  1.4607  1.0761
  620MOL0     H85498   4.735   9.592  11.506  2.1181 -0.1557 -1.8860
  620MOL0     H85499   4.973   9.705  11.501  0.1555 -0.2394 -0.0889
  620MOL0     H85500   4.904   9.828  11.614 -0.0462  1.1208 -2.7453
  620MOL0     H85501   4.903   9.529  11.655  2.1957 -0.1968 -0.3880
  620MOL0     H85502   4.839   9.657  11.770  2.1792 -1.5495  2.9649
  620MOL0     H85503   5.117   9.650  11.655  0.2831  1.4966  0.5200
  620MOL0     H85504   5.055   9.761  11.770 -0.1834 -0.2787 -1.1649
  620MOL0     H85505   5.051   9.458  11.833  0.9762  0.1657  0.5473
  620MOL0     H85506   5.021   9.584  11.946  0.3315 -0.8444  0.0734
  620MOL0     H85507   5.248   9.493  11.973 -0.4541 -0.6275 -1.4616
  620MOL0     H85508   5.278   9.514  11.805  0.2965  0.1139 -0.4897
  620MOL0     H85509   5.228   9.717  12.124  0.3128 -1.1550 -0.6967
  620MOL0     H85510   5.518   9.871  12.168 -1.5313 -0.9499  0.6249
  620MOL0     H85511   5.363   9.945  12.208 -1.0149  1.6948 -0.5374
  620MOL0     H85512   5.557  10.059  11.988  1.1490 -1.5466  0.3129
  620MOL0     H85513   5.406  10.132  12.038 -0.8527 -1.9758 -0.4201
  620MOL0     H85514   5.495  10.149  12.267  0.6014  0.7654  0.3968
  620MOL0     H85515   5.648  10.086  12.212 -1.2625 -1.5035  1.4300
  620MOL0     H85516   5.526  10.308  12.074  0.7086  2.8470 -0.6500
  620MOL0     H85517   5.609  10.346  12.212 -1.6432  1.1238 -1.6578
  620MOL0     H85518   5.818  10.310  12.302 -0.2489 -2.8348  2.1626
  620MOL0     H85519   5.965  10.318  12.465 -0.2639 -0.2067 -1.3880
  620MOL0     H85520   6.120  10.391  12.438  0.0077  0.4320  0.2925
  620MOL0     H85521   6.103  10.212  12.468 -0.1511 -0.4020  0.2838
  620MOL0     H85522   6.533  10.122  12.287 -2.6294 -0.7164 -0.6015
  620MOL0     H85523   6.755  10.204  12.322  1.6076  0.7080  0.0133
  620MOL0     H85524   6.982  10.405  11.977 -0.7786 -3.0485  1.0678
  620MOL0     H85525   6.916  10.534  12.089 -0.8311 -0.6660 -1.1375
  620MOL0     H85526   7.157  10.350  12.118 -0.0149  0.6679 -0.9355
  620MOL0     H85527   7.174  10.514  12.073 -1.2975  1.0253 -1.0223
  620MOL0     H85528   7.207  10.443  12.323 -0.8432 -0.5193  1.6066
  620MOL0     H85529   7.032  10.481  12.350  0.8899  0.2634  1.7932
  620MOL0     H85530   7.066  10.697  12.240  0.3307  0.6791  1.1065
  620MOL0     H85531   7.242  10.666  12.234 -0.8298  0.7972 -0.3746
  620MOL0     H85532   7.074  10.645  12.502 -0.0443  1.3591  1.1964
  620MOL0     H85533   7.247  10.656  12.485  0.0727  1.1361  0.4019
  620MOL0     H85534   7.060  10.882  12.398 -0.0957 -0.1488 -0.9321
  620MOL0     H85535   7.227  10.886  12.372 -2.3594  2.7784 -2.5124
  620MOL0     H85536   7.234  10.868  12.648 -0.7821  0.8142  2.2230
  620MOL0     H85537   7.071  10.934  12.620 -0.2994 -0.0108 -2.4514
  620MOL0     H85538   7.164  11.109  12.486  1.7547 -0.1141 -1.0377
  620MOL0     H85539   7.331  11.065  12.530  1.5470 -1.3988  3.0231
  620MOL0     H85540   6.733  10.454  11.969  3.1757  2.2854  3.7016
  620MOL0     H85541   6.501  10.374  11.945  0.0339 -2.6133 -0.8625
  620MOL0     H85542   6.166  10.175  11.976 -0.4268 -0.9392  0.3806
  620MOL0     H85543   5.933  10.194  11.905 -0.5388  1.1974  1.1355
  620MOL0     H85544   4.506  10.059  11.072  0.9041 -0.1784  0.8359
  620MOL0     H85545   4.320  10.034  10.897  0.9586 -0.6380 -0.7159
  620MOL0     H85546   4.044   9.907  10.662 -0.5180  0.8030  0.2750
  620MOL0     H85547   3.877   9.912  10.501  2.1989  0.5020  0.3707
  620MOL0     H85548   3.659  10.014  10.428  1.0771 -0.9481  0.0138
  620MOL0     H85549   3.695   9.851  10.376 -0.4590 -1.2390  0.3552
  620MOL0     H85550   3.482   9.940  10.254 -0.7255 -3.3481 -1.5451
  620MOL0     H85551   3.409   9.968  10.406 -2.0717 -0.4354 -1.5834
  620MOL0     H85552   3.503   9.691  10.299 -0.5351 -1.0828  0.7935
  620MOL0     H85553   3.422   9.721  10.455 -2.2009 -1.3850 -1.2091
  620MOL0     H85554   3.295   9.811  10.200  1.0379  0.5739  0.9259
  620MOL0     H85555   3.224   9.774  10.369  1.7286 -0.8006  1.6761
  620MOL0     H85556   3.253   9.401  10.163  1.1201 -0.1022  0.1055
  620MOL0     H85557   3.582   9.804  10.804  0.1861 -1.6159 -0.1481
  620MOL0     H85558   3.790   9.698  11.041  0.3238  0.3226 -0.0293
  620MOL0     H85559   3.754   9.863  11.075 -0.5069  1.6985 -0.5869
  620MOL0     H85560   3.631   9.750  11.005  1.1308 -1.6376 -0.7359
  621MOL0     O85561   4.450   5.471   9.154 -0.2630 -0.4149 -0.1027
  621MOL0     C85562   4.471   5.361   9.206 -0.2840  0.5216  0.3306
  621MOL0     O85563   4.580   5.341   9.288  0.2030  0.7973 -0.6905
  621MOL0     C85564   4.691   5.426   9.283 -0.2932 -0.5484 -0.4418
  621MOL0     C85565   4.764   5.439   9.403 -0.0036 -0.3184 -0.1250
  621MOL0     C85566   4.856   5.537   9.423  0.0900  0.0007  0.0427
  621MOL0     C85567   4.887   5.635   9.322 -0.0420  1.0934 -0.3934
  621MOL0     O85568   4.977   5.739   9.338  0.1581 -0.8197 -0.1807
  621MOL0     C85569   5.013   5.787   9.469  0.0222  0.3740  0.6164
  621MOL0     C85570   5.152   5.858   9.456  0.7487  0.1489  0.6768
  621MOL0     C85571   5.228   5.839   9.580 -0.2076 -0.6887  0.6260
  621MOL0     C85572   5.192   5.944   9.685 -0.3767  0.5462  0.4462
  621MOL0     C85573   5.215   5.896   9.822  0.6359 -0.1614  0.0060
  621MOL0     C85574   5.366   5.864   9.862  0.2035 -0.1349  0.6108
  621MOL0     C85575   5.423   5.982   9.940  0.1708  0.2057  0.0930
  621MOL0     C85576   5.577   5.978   9.959  0.3770 -0.2157  1.1934
  621MOL0     N85577   5.603   5.896  10.079 -0.1860 -0.5283 -0.1120
  621MOL0     C85578   5.581   5.763  10.086  0.2263  0.8194 -0.0838
  621MOL0     C85579   5.637   5.724  10.201  0.1940 -0.6923 -0.6190
  621MOL0     C85580   5.641   5.587  10.256 -0.0312 -0.0024 -0.4028
  621MOL0     C85581   5.546   5.571  10.373  0.4832  0.8109  0.1840
  621MOL0     C85582   5.622   5.613  10.495  0.2536  0.1768 -0.4663
  621MOL0     C85583   5.546   5.587  10.620 -0.1565 -0.5382  0.9941
  621MOL0     O85584   5.553   5.452  10.664  0.0164 -0.2202 -0.3893
  621MOL0     C85585   5.481   5.430  10.780  0.2741  0.9012 -0.0855
  621MOL0     C85586   5.480   5.288  10.804 -0.2251  0.9636 -0.3307
  621MOL0     C85587   5.392   5.243  10.908 -0.4372  0.3891 -0.4958
  621MOL0     C85588   5.409   5.098  10.943 -0.4176 -0.2342 -0.7611
  621MOL0     C85589   5.312   5.334  10.990 -0.7199  0.1170  0.4888
  621MOL0     C85590   5.219   5.299  11.100 -0.3635 -0.5460  0.4361
  621MOL0     O85591   5.212   5.167  11.146 -0.2969  0.0906  0.8841
  621MOL0     C85592   5.121   5.124  11.237 -0.0255 -0.5043 -0.3760
  621MOL0     C85593   5.000   5.184  11.261 -0.5933 -0.4665  0.3437
  621MOL0     C85594   4.906   5.110  11.336 -0.4598 -0.4029  0.3105
  621MOL0     C85595   4.929   4.978  11.386  0.3087 -0.7990  0.2314
  621MOL0     O85596   4.827   4.918  11.449 -0.6899  0.8926 -0.0488
  621MOL0     C85597   4.863   4.817  11.553  0.2399 -1.1071 -0.2531
  621MOL0     C85598   4.732   4.783  11.629  0.1254 -0.5026  0.0505
  621MOL0     C85599   4.605   4.761  11.529 -0.3861 -1.0476 -0.5237
  621MOL0     C85600   4.477   4.743  11.612  0.9429 -0.3335  0.1878
  621MOL0     C85601   4.487   4.634  11.716 -0.6323  0.5115  0.0544
  621MOL0     C85602   4.357   4.594  11.787  0.0598 -0.2936 -0.3957
  621MOL0     C85603   4.300   4.709  11.871  0.2247 -0.0278  0.3622
  621MOL0     C85604   4.395   4.770  11.962 -0.3368 -0.5891  0.0341
  621MOL0    Cl85605   4.319   4.860  12.101 -0.2535  0.0721 -0.5704
  621MOL0     C85606   5.056   4.921  11.361 -0.0193 -0.3318 -0.4558
  621MOL0     C85607   5.147   4.995  11.286 -0.0120  0.4874 -0.9183
  621MOL0     O85608   5.169   5.390  11.161 -0.7171  0.3400  0.9742
  621MOL0     C85609   5.319   5.470  10.953  0.1484 -0.8646 -0.2534
  621MOL0     C85610   5.396   5.513  10.849  0.3616 -0.4003 -0.0023
  621MOL0     N85611   5.716   5.827  10.245 -0.0368 -0.5901  0.3732
  621MOL0     N85612   5.693   5.938  10.179  0.1710  1.0155 -0.4203
  621MOL0     C85613   4.824   5.609   9.195  0.3957 -1.1671 -0.1353
  621MOL0     C85614   4.726   5.515   9.177  0.7158  0.5036 -0.8373
  621MOL0     C85615   4.395   5.244   9.158 -0.5971  0.1735  0.9862
  621MOL0     C85616   4.354   5.236   9.022  0.0692  0.0419  0.1556
  621MOL0     C85617   4.274   5.126   8.987  0.2867 -0.5704 -0.0207
  621MOL0     C85618   4.235   5.026   9.079  0.1421 -0.3169  0.7924
  621MOL0     O85619   4.140   4.935   9.021  0.1669  0.0392 -0.1460
  621MOL0     C85620   4.079   4.840   9.116 -0.4889 -0.2149 -0.1249
  621MOL0     C85621   4.153   4.704   9.127  0.1825  0.1309  0.1612
  621MOL0     C85622   4.141   4.628   8.997  0.6114 -0.3556  1.1406
  621MOL0     C85623   4.253   4.642   8.902  0.2913 -0.4511 -0.4196
  621MOL0     C85624   4.373   4.561   8.954  0.1344 -0.6651  0.1946
  621MOL0     C85625   4.481   4.506   8.984 -0.5115 -0.8749  0.4345
  621MOL0     C85626   4.280   5.033   9.203 -0.0803 -0.4979 -1.0506
  621MOL0     C85627   4.359   5.146   9.243 -0.1059  0.0026 -0.3941
  621MOL0     C85628   4.396   5.165   9.395  0.2100 -0.1470 -1.1459
  621MOL0     H85629   4.728   5.373   9.481  2.9193  0.5101  2.0978
  621MOL0     H85630   4.885   5.530   9.527  0.6320 -0.2838 -0.1229
  621MOL0     H85631   5.028   5.699   9.533  1.2834  0.0129 -0.1228
  621MOL0     H85632   4.929   5.847   9.504 -0.8956 -1.1889  1.1856
  621MOL0     H85633   5.200   5.805   9.373  1.5817 -0.3244  1.4396
  621MOL0     H85634   5.141   5.963   9.428  0.5601  0.3417  1.4474
  621MOL0     H85635   5.201   5.740   9.618  0.3829 -0.8025  0.7558
  621MOL0     H85636   5.329   5.830   9.540 -1.4033 -2.4581 -2.3582
  621MOL0     H85637   5.246   6.038   9.670 -1.3463  1.1542  0.6365
  621MOL0     H85638   5.087   5.976   9.682  0.7050  4.5288 -1.5987
  621MOL0     H85639   5.163   5.803   9.849  0.6225  0.0375  0.6902
  621MOL0     H85640   5.181   5.972   9.893 -2.7622 -1.6183  0.1585
  621MOL0     H85641   5.383   5.774   9.921  1.7953 -0.6783 -0.6013
  621MOL0     H85642   5.420   5.853   9.767 -0.6839 -3.1792  0.3719
  621MOL0     H85643   5.372   5.985  10.037  1.2374  2.0883  0.6422
  621MOL0     H85644   5.395   6.074   9.888 -2.1562 -0.2519  0.3905
  621MOL0     H85645   5.622   5.927   9.873 -1.0813  0.6127 -0.1123
  621MOL0     H85646   5.624   6.076   9.968 -0.0165  0.1738 -0.6095
  621MOL0     H85647   5.519   5.695  10.029  1.9595  0.3169 -1.4771
  621MOL0     H85648   5.745   5.558  10.273 -1.2382 -3.9942  1.4814
  621MOL0     H85649   5.601   5.528  10.173 -0.7021 -1.7983  1.1133
  621MOL0     H85650   5.457   5.635  10.375  1.1338  1.7459  2.3665
  621MOL0     H85651   5.511   5.468  10.385 -4.0155  1.8054 -2.2176
  621MOL0     H85652   5.713   5.553  10.502 -1.1447 -1.8870  1.5990
  621MOL0     H85653   5.630   5.722  10.494 -2.2085  0.4201 -0.1075
  621MOL0     H85654   5.583   5.647  10.703  2.7835  0.4509 -0.8757
  621MOL0     H85655   5.442   5.613  10.599 -1.1828 -1.3739  4.3834
  621MOL0     H85656   5.539   5.227  10.737 -1.3955 -0.8727  0.2543
  621MOL0     H85657   5.316   5.043  10.929 -1.2053 -0.0185  2.7793
  621MOL0     H85658   5.442   5.089  11.047  0.2735  2.2332 -0.6884
  621MOL0     H85659   5.495   5.060  10.887 -0.0945  1.6421 -1.6292
  621MOL0     H85660   4.972   5.287  11.244 -0.9181 -0.5417  0.4133
  621MOL0     H85661   4.820   5.176  11.345  2.0287  3.2872 -0.8520
  621MOL0     H85662   4.911   4.729  11.510  2.4837 -0.8247  1.4891
  621MOL0     H85663   4.940   4.863  11.616 -1.0247  2.0376 -0.8077
  621MOL0     H85664   4.764   4.693  11.682 -0.2769 -1.1714 -0.8127
  621MOL0     H85665   4.707   4.856  11.706 -2.5416  0.7762 -1.8492
  621MOL0     H85666   4.623   4.669  11.473 -2.5309 -1.5701 -0.4145
  621MOL0     H85667   4.597   4.847  11.462  0.0842  0.5084  1.3137
  621MOL0     H85668   4.391   4.721  11.549 -0.0904  0.9222  1.1174
  621MOL0     H85669   4.453   4.841  11.653 -0.8607 -1.1742  1.2727
  621MOL0     H85670   4.520   4.543  11.664 -0.2451  0.3522  0.5775
  621MOL0     H85671   4.567   4.658  11.786  0.3493 -0.5281 -0.6731
  621MOL0     H85672   4.378   4.516  11.861 -0.3687  1.6775  1.9602
  621MOL0     H85673   4.295   4.557  11.705  0.5643  1.1609 -1.4856
  621MOL0     H85674   4.218   4.666  11.930  0.4265 -1.6326 -0.4647
  621MOL0     H85675   4.261   4.787  11.805  1.0469 -1.1920 -1.6015
  621MOL0     H85676   4.461   4.828  11.896 -2.3772 -0.5992 -2.1242
  621MOL0     H85677   4.456   4.687  12.000  0.5798 -0.7724 -1.7681
  621MOL0     H85678   5.075   4.819  11.391  1.4490 -0.5171 -1.8525
  621MOL0     H85679   5.239   4.941  11.266 -1.1501 -1.9237 -0.0966
  621MOL0     H85680   5.262   5.555  10.988 -1.0261 -0.5557 -2.7017
  621MOL0     H85681   5.399   5.621  10.839 -2.5074 -0.2731 -0.2786
  621MOL0     H85682   4.844   5.673   9.110  0.5498 -0.9382  0.0738
  621MOL0     H85683   4.676   5.506   9.081 -2.4232  0.9951  0.5956
  621MOL0     H85684   4.391   5.299   8.943 -0.1839 -1.5982 -1.3227
  621MOL0     H85685   4.231   5.121   8.888  0.4604  0.1232 -0.1332
  621MOL0     H85686   4.048   4.888   9.209 -1.0896  0.6811 -0.7743
  621MOL0     H85687   3.982   4.827   9.068  0.4585 -1.1659 -1.9138
  621MOL0     H85688   4.107   4.648   9.209 -0.7046  1.1849  0.4167
  621MOL0     H85689   4.258   4.719   9.155 -0.2018 -0.5980  2.1468
  621MOL0     H85690   4.127   4.521   9.016  1.0270 -0.2527  2.0950
  621MOL0     H85691   4.058   4.658   8.933 -2.8053 -1.9037  4.4732
  621MOL0     H85692   4.282   4.747   8.894 -2.0510  0.6952  3.1609
  621MOL0     H85693   4.232   4.610   8.800  5.2955  2.1317 -2.5916
  621MOL0     H85694   4.571   4.457   9.015 -1.1931 -1.7007  1.1899
  621MOL0     H85695   4.229   4.965   9.271 -0.2235  0.1627 -0.4893
  621MOL0     H85696   4.306   5.133   9.448 -0.7169  2.7344 -0.8127
  621MOL0     H85697   4.486   5.105   9.411  1.5005  1.7723 -0.9134
  621MOL0     H85698   4.407   5.267   9.431 -0.8251 -0.7728  1.1222
  622MOL0     O85699   6.768   7.892   6.938  0.5248  0.0945  0.1672
  622MOL0     C85700   6.728   7.973   7.019  0.3474 -0.3834  0.1264
  622MOL0     O85701   6.804   8.015   7.121 -0.3692 -0.3784 -0.2501
  622MOL0     C85702   6.931   7.962   7.146  0.9267 -0.2120 -0.4033
  622MOL0     C85703   6.964   7.824   7.139 -0.0923 -0.1658 -0.2947
  622MOL0     C85704   7.084   7.772   7.174 -0.5134  0.7833 -0.3752
  622MOL0     C85705   7.194   7.852   7.212 -0.2912  0.0950 -0.5768
  622MOL0     O85706   7.326   7.823   7.239 -0.0504  0.6640  0.0089
  622MOL0     C85707   7.343   7.686   7.281 -0.2615 -0.2345 -0.6081
  622MOL0     C85708   7.494   7.673   7.297  0.9074 -0.2477 -0.0040
  622MOL0     C85709   7.558   7.774   7.389  0.4150  0.8020 -0.1900
  622MOL0     C85710   7.710   7.774   7.368  0.0942 -0.4611 -0.0135
  622MOL0     C85711   7.773   7.884   7.461 -0.1134 -0.6847 -0.0123
  622MOL0     C85712   7.923   7.894   7.432  0.7985  0.1925  0.6611
  622MOL0     C85713   7.993   8.011   7.505  0.5033  0.2475 -0.1445
  622MOL0     C85714   7.975   8.153   7.440  0.4981  0.1158  0.3977
  622MOL0     N85715   8.054   8.257   7.518 -0.6799  0.5834  0.4542
  622MOL0     C85716   8.075   8.379   7.466 -0.5632 -0.1387  0.2152
  622MOL0     C85717   8.135   8.447   7.567  0.5081 -0.6581  0.0701
  622MOL0     C85718   8.183   8.588   7.550  0.3833  0.4626  0.5326
  622MOL0     C85719   8.307   8.621   7.623 -0.3744  0.5485  1.1694
  622MOL0     C85720   8.436   8.553   7.575 -0.9563 -0.2621 -0.6039
  622MOL0     C85721   8.473   8.583   7.433 -1.0799 -0.3406 -0.1586
  622MOL0     O85722   8.520   8.719   7.408  0.5976  0.2076  0.1850
  622MOL0     C85723   8.657   8.748   7.426  0.0024 -0.0126  0.0108
  622MOL0     C85724   8.746   8.749   7.318  0.2227 -0.3061 -0.1185
  622MOL0     C85725   8.882   8.785   7.336 -0.6367  0.5210  0.2716
  622MOL0     C85726   8.976   8.775   7.214 -0.9360 -0.1162 -0.6434
  622MOL0     C85727   8.937   8.826   7.456 -0.1372  0.3120  0.1022
  622MOL0     C85728   9.085   8.869   7.487  0.2527  1.0508 -0.2623
  622MOL0     O85729   9.121   8.860   7.620  0.0328 -0.4207  0.7818
  622MOL0     C85730   9.243   8.809   7.665 -0.0187 -0.4370 -0.2396
  622MOL0     C85731   9.341   8.755   7.578  0.8065  0.3228 -0.2460
  622MOL0     C85732   9.466   8.715   7.632  0.8121  0.4425  0.5705
  622MOL0     C85733   9.492   8.719   7.764 -0.3255 -1.1682  0.0867
  622MOL0     O85734   9.622   8.683   7.805  0.0965  0.6953  0.2016
  622MOL0     C85735   9.637   8.572   7.893  0.5280 -0.3802  0.0191
  622MOL0     C85736   9.788   8.547   7.895  0.0376  0.0007 -0.9538
  622MOL0     C85737   9.866   8.639   7.982 -0.2226 -0.4787 -0.7148
  622MOL0     C85738   9.994   8.567   8.023 -0.1671 -0.5391  0.6286
  622MOL0     C85739  10.087   8.658   8.107  0.2619 -0.3856 -0.4527
  622MOL0     C85740  10.233   8.597   8.138 -0.1797  0.2093  0.7871
  622MOL0     C85741  10.322   8.680   8.240  0.5362 -0.0404  0.5332
  622MOL0     C85742  10.457   8.614   8.261  0.0265  0.1846  0.1551
  622MOL0    Cl85743  10.577   8.732   8.332  0.0010  0.3606 -0.1746
  622MOL0     C85744   9.387   8.769   7.852 -0.0127  0.2036 -0.2144
  622MOL0     C85745   9.272   8.813   7.802  0.2686 -0.9439  0.0086
  622MOL0     O85746   9.148   8.927   7.399  0.3162 -0.7404 -0.3703
  622MOL0     C85747   8.849   8.833   7.565 -0.1820  0.7894  0.4326
  622MOL0     C85748   8.712   8.789   7.551 -0.0285  0.4194 -0.2176
  622MOL0     N85749   8.147   8.358   7.675  0.6215  0.7015 -0.3194
  622MOL0     N85750   8.097   8.244   7.643 -1.2095  0.2468 -0.0892
  622MOL0     C85751   7.164   7.988   7.209 -0.0950  0.8980  0.4447
  622MOL0     C85752   7.038   8.041   7.185 -0.3347  0.1813 -0.6525
  622MOL0     C85753   6.596   8.034   7.001 -0.1547 -0.2297  0.2002
  622MOL0     C85754   6.558   8.133   7.099 -0.3744  0.6101  1.3403
  622MOL0     C85755   6.429   8.189   7.108  1.0155  0.5046  0.6637
  622MOL0     C85756   6.338   8.158   7.006 -1.2934 -0.3090 -0.4796
  622MOL0     O85757   6.218   8.221   7.003  0.1077  0.3648  0.0706
  622MOL0     C85758   6.136   8.211   7.117  0.4191  0.4413  0.6997
  622MOL0     C85759   6.024   8.299   7.095  0.4848  0.7139  0.9554
  622MOL0     C85760   6.055   8.440   7.046 -0.1183 -0.3772  0.0663
  622MOL0     C85761   6.164   8.527   7.111 -0.3284  0.0358 -1.4636
  622MOL0     C85762   6.183   8.643   7.034 -0.2098  0.5928  0.8562
  622MOL0     C85763   6.200   8.747   6.973 -0.3553 -0.5876 -0.3217
  622MOL0     C85764   6.374   8.069   6.907  0.0067  0.0172 -0.3325
  622MOL0     C85765   6.495   8.005   6.903  0.2060  0.9605 -0.1246
  622MOL0     C85766   6.522   7.906   6.787  0.8229  0.3279 -0.5137
  622MOL0     H85767   6.896   7.742   7.116  1.1446 -1.3979  0.2370
  622MOL0     H85768   7.104   7.665   7.173  0.4093  0.9495 -0.1859
  622MOL0     H85769   7.305   7.620   7.202  0.3277 -1.8923  0.4515
  622MOL0     H85770   7.297   7.655   7.375  0.7219  1.1569  0.3817
  622MOL0     H85771   7.513   7.572   7.332 -5.7089 -1.5620  1.0490
  622MOL0     H85772   7.538   7.682   7.197  0.1512  0.8930 -0.2555
  622MOL0     H85773   7.515   7.875   7.394 -0.0383  0.5638  3.8544
  622MOL0     H85774   7.544   7.743   7.493 -2.5852  1.1474 -0.3898
  622MOL0     H85775   7.755   7.675   7.382  0.7578 -0.2592 -0.6536
  622MOL0     H85776   7.740   7.795   7.265  2.5991 -1.2383  0.4924
  622MOL0     H85777   7.756   7.854   7.565 -0.3089  0.5650  0.3328
  622MOL0     H85778   7.723   7.976   7.431  1.0344 -0.1857 -0.4748
  622MOL0     H85779   7.975   7.801   7.457 -0.6116 -0.5729  0.8909
  622MOL0     H85780   7.939   7.920   7.327  2.8942  2.7202  1.4844
  622MOL0     H85781   8.095   7.972   7.496 -0.4158 -2.0684 -1.4442
  622MOL0     H85782   7.958   8.022   7.608 -3.1186 -0.1519 -1.2038
  622MOL0     H85783   7.997   8.143   7.333  1.6784 -0.8521  0.7120
  622MOL0     H85784   7.870   8.183   7.442  0.2031 -0.8095 -0.5441
  622MOL0     H85785   8.052   8.421   7.368 -0.8913  0.4528  0.5378
  622MOL0     H85786   8.102   8.651   7.588 -1.6972  0.0174 -2.7440
  622MOL0     H85787   8.196   8.609   7.443  1.8378  3.7087  1.2335
  622MOL0     H85788   8.314   8.730   7.630 -1.1525  0.7136 -0.3209
  622MOL0     H85789   8.295   8.589   7.727  0.8377  0.9787  1.4553
  622MOL0     H85790   8.514   8.589   7.644 -3.1406 -0.7075  2.3022
  622MOL0     H85791   8.407   8.448   7.584 -1.8057  0.0229  0.1879
  622MOL0     H85792   8.549   8.515   7.394 -0.6640 -1.4132  2.3279
  622MOL0     H85793   8.384   8.568   7.373 -1.2392 -2.9764  0.6118
  622MOL0     H85794   8.701   8.713   7.226 -1.5814 -0.4361  0.7637
  622MOL0     H85795   8.929   8.736   7.124  2.1062 -1.4867 -1.7828
  622MOL0     H85796   9.056   8.703   7.229 -1.4849 -0.6444 -0.2138
  622MOL0     H85797   9.030   8.865   7.183  1.5998 -2.0196 -2.1228
  622MOL0     H85798   9.331   8.743   7.471  0.5504  0.7111 -0.2681
  622MOL0     H85799   9.538   8.674   7.563  0.6741  1.2877 -0.0953
  622MOL0     H85800   9.603   8.604   7.992  1.5202  0.3387  0.1416
  622MOL0     H85801   9.585   8.480   7.864  0.0283  0.7506 -2.9785
  622MOL0     H85802   9.794   8.445   7.935 -1.1187  0.4906  0.5451
  622MOL0     H85803   9.819   8.552   7.790 -2.1582  1.5262 -1.6022
  622MOL0     H85804   9.807   8.666   8.070 -0.6874  1.4920 -1.5767
  622MOL0     H85805   9.883   8.727   7.919  0.0378 -0.5738 -0.7793
  622MOL0     H85806  10.054   8.540   7.935  0.1142 -1.1916  1.0170
  622MOL0     H85807   9.971   8.473   8.074 -1.5360 -0.2527  0.5651
  622MOL0     H85808  10.107   8.741   8.039  3.6040 -0.1137  0.6655
  622MOL0     H85809  10.042   8.684   8.203 -1.2065 -2.4846 -0.5000
  622MOL0     H85810  10.261   8.588   8.032 -1.8115  1.0039  0.2550
  622MOL0     H85811  10.219   8.499   8.185  0.3583  1.8908  4.8941
  622MOL0     H85812  10.263   8.691   8.331 -1.9912  3.4161 -1.2688
  622MOL0     H85813  10.331   8.785   8.210 -1.0842 -0.1752 -0.5377
  622MOL0     H85814  10.488   8.578   8.163  3.0058  1.0940  0.6496
  622MOL0     H85815  10.437   8.524   8.320  1.2976 -0.3571 -0.2105
  622MOL0     H85816   9.413   8.758   7.957  0.6724  0.1533 -0.3796
  622MOL0     H85817   9.192   8.847   7.867  0.6387 -0.7189  0.3435
  622MOL0     H85818   8.891   8.859   7.662  4.5785 -0.7515 -0.9480
  622MOL0     H85819   8.642   8.802   7.633 -0.4464  0.7784 -0.6255
  622MOL0     H85820   7.248   8.048   7.243  0.0240  1.8021 -1.3089
  622MOL0     H85821   7.036   8.149   7.194 -1.4992  0.2563 -1.5350
  622MOL0     H85822   6.624   8.173   7.175  0.7038 -2.5010  2.1702
  622MOL0     H85823   6.416   8.277   7.170  1.5124  1.4180 -0.4844
  622MOL0     H85824   6.098   8.108   7.123 -0.7101  0.8188  0.3011
  622MOL0     H85825   6.186   8.234   7.211  2.1104 -0.4071  0.0687
  622MOL0     H85826   5.961   8.315   7.183  0.2713 -1.4570  1.2432
  622MOL0     H85827   5.953   8.258   7.023 -1.7550  3.0187  1.6827
  622MOL0     H85828   6.080   8.418   6.942  4.5904 -1.8629  1.2556
  622MOL0     H85829   5.960   8.493   7.040  1.1286  1.7456 -2.6434
  622MOL0     H85830   6.254   8.466   7.119  0.8065  1.8115  0.4761
  622MOL0     H85831   6.142   8.551   7.216  2.9665 -0.1745 -0.6067
  622MOL0     H85832   6.223   8.839   6.922  0.4390 -1.7455 -2.1480
  622MOL0     H85833   6.302   8.039   6.831  2.5994 -0.8827 -2.6409
  622MOL0     H85834   6.454   7.902   6.702 -2.3428 -0.7524  1.8523
  622MOL0     H85835   6.619   7.932   6.745  0.4616  1.2727 -0.7781
  622MOL0     H85836   6.535   7.811   6.840 -2.8445  0.2560  0.5528
  623MOL0     O85837   2.433   8.865   7.324  0.2785 -0.4230  0.0760
  623MOL0     C85838   2.391   8.757   7.374  0.0300 -0.1825 -0.6423
  623MOL0     O85839   2.400   8.726   7.507  0.0124  0.8860  0.1315
  623MOL0     C85840   2.477   8.811   7.584  0.0487  0.1452  0.6501
  623MOL0     C85841   2.614   8.820   7.580  0.2593  0.2197  0.6733
  623MOL0     C85842   2.684   8.903   7.663 -0.1613 -0.0611 -0.0037
  623MOL0     C85843   2.621   8.990   7.755 -0.5425  0.6778 -0.8477
  623MOL0     O85844   2.683   9.069   7.847 -0.3190  0.0182  0.1525
  623MOL0     C85845   2.805   9.018   7.909 -0.4951 -0.8775  0.2347
  623MOL0     C85846   2.802   8.892   8.004 -0.3224  0.0690  0.0492
  623MOL0     C85847   2.938   8.881   8.081 -0.2398  0.1380  0.0406
  623MOL0     C85848   2.928   8.763   8.178 -0.2499  0.3044 -0.2088
  623MOL0     C85849   3.066   8.727   8.234  0.5246  0.0822 -0.1467
  623MOL0     C85850   3.127   8.600   8.158  0.0210  0.1921 -0.6451
  623MOL0     C85851   3.270   8.577   8.212 -0.1317 -0.7274  0.7046
  623MOL0     C85852   3.348   8.490   8.121 -0.4233 -0.5561 -0.2245
  623MOL0     N85853   3.479   8.443   8.173  0.2687 -0.5133 -0.3078
  623MOL0     C85854   3.588   8.512   8.205 -0.9330  0.5401 -0.1122
  623MOL0     C85855   3.683   8.424   8.256  0.3181  0.1904 -0.0862
  623MOL0     C85856   3.822   8.449   8.307 -0.3259 -0.0014 -0.8946
  623MOL0     C85857   3.883   8.356   8.417 -0.3092  0.3507 -0.2891
  623MOL0     C85858   3.797   8.343   8.534  0.2495  0.5042 -0.1745
  623MOL0     C85859   3.856   8.261   8.645 -0.9526 -0.0886 -0.7389
  623MOL0     O85860   3.753   8.251   8.753 -0.1825 -0.5693 -0.1129
  623MOL0     C85861   3.781   8.173   8.855  0.3277  0.7769 -0.4920
  623MOL0     C85862   3.687   8.165   8.954  0.6070  0.5613  0.3118
  623MOL0     C85863   3.702   8.089   9.069  0.4144 -0.1721 -0.7061
  623MOL0     C85864   3.586   8.105   9.167  0.1812  0.6039 -0.8972
  623MOL0     C85865   3.816   8.006   9.092  1.5309 -0.4017  0.0172
  623MOL0     C85866   3.821   7.910   9.199 -0.5522 -1.2080  0.0646
  623MOL0     O85867   3.892   7.793   9.158 -0.1388 -0.1251  0.4992
  623MOL0     C85868   3.949   7.715   9.261  0.1319 -0.1190  0.1687
  623MOL0     C85869   4.083   7.689   9.244 -0.3386 -0.1622 -0.3537
  623MOL0     C85870   4.158   7.627   9.337 -0.4713  0.7578  0.6535
  623MOL0     C85871   4.091   7.577   9.454  0.3179 -0.2346  0.8233
  623MOL0     O85872   4.155   7.494   9.542  0.1702 -0.2393 -0.5568
  623MOL0     C85873   4.125   7.358   9.523 -0.2417  0.1840  0.1738
  623MOL0     C85874   4.104   7.273   9.651  0.2950  0.5750  0.6129
  623MOL0     C85875   3.997   7.342   9.737  0.0391  0.2195  0.6116
  623MOL0     C85876   3.976   7.251   9.862  0.0164  0.7657 -0.1961
  623MOL0     C85877   3.904   7.317   9.982 -0.0396  0.4028 -0.4063
  623MOL0     C85878   3.759   7.313   9.967  0.4173 -0.3576 -0.1080
  623MOL0     C85879   3.705   7.459   9.975  0.4990  0.3599 -0.2079
  623MOL0     C85880   3.723   7.544   9.846 -0.4341  0.2527  0.6037
  623MOL0    Cl85881   3.663   7.444   9.702 -0.0929  0.0098 -0.0703
  623MOL0     C85882   3.958   7.606   9.471 -0.4831 -0.2784 -1.4956
  623MOL0     C85883   3.884   7.668   9.371 -0.1786 -0.6011 -1.1361
  623MOL0     O85884   3.785   7.949   9.313 -0.3472  0.5004  0.1927
  623MOL0     C85885   3.910   8.009   8.994 -0.0512 -0.1423  0.8829
  623MOL0     C85886   3.895   8.096   8.882 -0.6574  0.5496 -0.6539
  623MOL0     N85887   3.630   8.295   8.240  0.0504  0.5143 -0.0301
  623MOL0     N85888   3.509   8.311   8.196 -0.1850  0.9704 -0.0506
  623MOL0     C85889   2.485   8.988   7.758 -0.0632 -0.2358  0.2607
  623MOL0     C85890   2.417   8.897   7.677  0.7457 -0.0928 -0.5577
  623MOL0     C85891   2.316   8.660   7.286  0.4180 -0.4456  0.6131
  623MOL0     C85892   2.263   8.548   7.345  0.1837  1.1362 -0.1806
  623MOL0     C85893   2.180   8.458   7.279  0.2938 -0.0198  0.3859
  623MOL0     C85894   2.159   8.475   7.142  0.3186  0.8056  0.1680
  623MOL0     O85895   2.092   8.391   7.059  0.6184 -0.2644  0.7250
  623MOL0     C85896   2.061   8.257   7.102  0.6593  0.4643  1.0708
  623MOL0     C85897   1.999   8.165   6.991 -0.1314 -0.6637 -0.4815
  623MOL0     C85898   1.857   8.211   6.964 -0.3962  0.1961 -0.4754
  623MOL0     C85899   1.805   8.146   6.840  0.5662  0.0714  0.3197
  623MOL0     C85900   1.872   8.192   6.722  0.8471 -0.6688 -0.0082
  623MOL0     C85901   1.931   8.253   6.631  0.3896  0.0261 -0.4915
  623MOL0     C85902   2.201   8.594   7.084 -0.3421 -0.2874 -0.1283
  623MOL0     C85903   2.286   8.688   7.150  0.0004  0.3800 -0.3524
  623MOL0     C85904   2.349   8.799   7.070  0.8329 -0.2516 -0.0499
  623MOL0     H85905   2.665   8.751   7.512  1.1002  0.9967  0.4948
  623MOL0     H85906   2.791   8.922   7.652 -0.6569  2.2524 -1.6337
  623MOL0     H85907   2.850   9.101   7.964 -0.3610 -0.5386 -0.3733
  623MOL0     H85908   2.871   9.004   7.823  0.9759 -0.3637  1.2408
  623MOL0     H85909   2.722   8.902   8.078  0.4859  0.5540  0.8722
  623MOL0     H85910   2.787   8.804   7.940 -0.9531  1.9696 -2.5528
  623MOL0     H85911   3.027   8.875   8.017  1.0342  0.4506  1.6938
  623MOL0     H85912   2.958   8.968   8.145 -1.1466 -0.0647  0.6134
  623MOL0     H85913   2.853   8.787   8.254  0.5851  0.8971  0.4511
  623MOL0     H85914   2.876   8.678   8.132 -0.0569  0.8239 -1.4309
  623MOL0     H85915   3.055   8.699   8.339  0.3228 -2.9508 -0.8851
  623MOL0     H85916   3.132   8.814   8.227 -0.9046  1.2982  0.8634
  623MOL0     H85917   3.072   8.507   8.171  2.0680 -0.7684  2.3046
  623MOL0     H85918   3.119   8.622   8.051 -2.0191  0.1083 -0.5311
  623MOL0     H85919   3.258   8.526   8.308 -2.4021 -0.8314  0.4393
  623MOL0     H85920   3.329   8.668   8.223 -2.0596  1.1138 -2.6242
  623MOL0     H85921   3.294   8.399   8.096  1.2528 -1.6045 -0.2221
  623MOL0     H85922   3.371   8.547   8.030  0.7271  1.0451  1.0215
  623MOL0     H85923   3.597   8.620   8.202  1.7312  0.3614 -2.7790
  623MOL0     H85924   3.811   8.551   8.346  0.8301  0.9776 -2.9418
  623MOL0     H85925   3.904   8.468   8.238  0.9923  1.9384  1.0506
  623MOL0     H85926   3.891   8.259   8.367 -0.1440 -1.2128  2.6078
  623MOL0     H85927   3.984   8.391   8.443 -1.0531  0.5849  2.6407
  623MOL0     H85928   3.777   8.444   8.573  1.2395  0.3851  0.6871
  623MOL0     H85929   3.700   8.308   8.500  1.2997 -1.3858 -1.3723
  623MOL0     H85930   3.896   8.167   8.606  1.7813  1.1066 -1.0899
  623MOL0     H85931   3.938   8.319   8.688 -1.5886 -0.4451  1.0174
  623MOL0     H85932   3.592   8.216   8.943 -0.0625 -0.8757 -1.0125
  623MOL0     H85933   3.548   8.005   9.189 -2.2751  2.0662  2.3695
  623MOL0     H85934   3.507   8.172   9.134  0.4961  1.4710  0.0352
  623MOL0     H85935   3.618   8.140   9.266 -0.6204 -0.1073 -0.3733
  623MOL0     H85936   4.136   7.727   9.157 -2.6868  0.2692 -1.6859
  623MOL0     H85937   4.265   7.608   9.327 -0.3807  1.9434 -1.0748
  623MOL0     H85938   4.034   7.350   9.464  0.1444 -0.0252 -0.3998
  623MOL0     H85939   4.202   7.311   9.462 -1.1658 -1.3284  0.1185
  623MOL0     H85940   4.059   7.176   9.630 -0.1771  0.8419  0.3836
  623MOL0     H85941   4.199   7.263   9.705  1.1726 -2.1061 -1.1951
  623MOL0     H85942   3.903   7.355   9.683  0.5554 -0.9596 -0.6165
  623MOL0     H85943   4.042   7.439   9.760 -0.9233  0.4150  1.7618
  623MOL0     H85944   4.071   7.217   9.903 -0.0755 -0.4525 -0.9400
  623MOL0     H85945   3.930   7.159   9.826  0.7106 -0.5271  2.0329
  623MOL0     H85946   3.936   7.259  10.069 -0.3570 -0.3756 -0.7969
  623MOL0     H85947   3.943   7.416  10.007 -1.3980  0.4383  1.8596
  623MOL0     H85948   3.710   7.261  10.050  0.0979 -1.1021 -0.7556
  623MOL0     H85949   3.723   7.272   9.872 -1.6906  2.7049 -0.7848
  623MOL0     H85950   3.742   7.510  10.065 -0.7365  0.6099  0.1782
  623MOL0     H85951   3.595   7.459   9.977  0.4837  1.3737 -0.5894
  623MOL0     H85952   3.826   7.575   9.827 -0.7910  0.6762 -0.7767
  623MOL0     H85953   3.673   7.641   9.847  3.4321  2.4015  1.2437
  623MOL0     H85954   3.911   7.574   9.564  0.8703  1.3295 -0.2012
  623MOL0     H85955   3.778   7.689   9.383 -0.1501 -1.1265  0.3221
  623MOL0     H85956   3.993   7.940   9.000  0.4577  0.5651  2.8665
  623MOL0     H85957   3.976   8.092   8.810  0.0253 -0.9507  0.1585
  623MOL0     H85958   2.436   9.058   7.825  2.5931  0.8748  1.1702
  623MOL0     H85959   2.309   8.892   7.689  1.0439 -2.1411  2.1811
  623MOL0     H85960   2.259   8.534   7.453  1.1404 -2.7476 -0.5011
  623MOL0     H85961   2.146   8.373   7.337 -1.2330  1.6388  2.0248
  623MOL0     H85962   2.153   8.210   7.137  1.4704  2.5875  1.9904
  623MOL0     H85963   1.987   8.256   7.181  0.0668 -1.5568  0.5362
  623MOL0     H85964   1.995   8.064   7.032 -0.3530 -0.6339 -0.4318
  623MOL0     H85965   2.056   8.160   6.897 -0.4603  2.7421 -0.9842
  623MOL0     H85966   1.794   8.186   7.050  0.4952  1.1343  0.4724
  623MOL0     H85967   1.852   8.320   6.955  0.9547  0.4854  1.5976
  623MOL0     H85968   1.702   8.179   6.828 -0.6356 -3.4615 -0.1543
  623MOL0     H85969   1.792   8.038   6.854 -1.6058  0.4813  2.0684
  623MOL0     H85970   1.981   8.308   6.554 -1.0006 -1.8292 -2.8599
  623MOL0     H85971   2.174   8.624   6.983  1.1587  0.2844 -0.3876
  623MOL0     H85972   2.458   8.793   7.071  0.8255 -0.4023  0.5947
  623MOL0     H85973   2.310   8.806   6.968  2.5791 -1.2389 -0.8351
  623MOL0     H85974   2.325   8.897   7.113 -0.4273  0.1103 -1.5120
  624MOL0     O85975   2.543   3.126  11.247  0.1022 -0.6490 -0.2864
  624MOL0     C85976   2.444   3.098  11.304  0.7854 -0.1696 -0.2774
  624MOL0     O85977   2.437   3.020  11.416  0.5929  0.0659  0.4718
  624MOL0     C85978   2.557   2.984  11.482  0.6651 -0.2110 -0.4550
  624MOL0     C85979   2.613   2.855  11.485 -0.2055  0.1429  0.2573
  624MOL0     C85980   2.738   2.834  11.548 -0.9426  0.8975  0.4290
  624MOL0     C85981   2.804   2.933  11.616  0.2769  0.4128 -0.3477
  624MOL0     O85982   2.923   2.926  11.683  0.2812 -0.0445 -0.6550
  624MOL0     C85983   2.973   2.796  11.716 -0.3321  0.3744  0.0908
  624MOL0     C85984   3.095   2.790  11.805 -0.0706  0.3565 -0.6995
  624MOL0     C85985   3.217   2.791  11.717  0.4742  0.5405 -1.0804
  624MOL0     C85986   3.352   2.755  11.777 -0.1205 -0.8985  0.3737
  624MOL0     C85987   3.473   2.738  11.684 -0.6007  0.3674 -0.1882
  624MOL0     C85988   3.447   2.639  11.580  0.2282  0.0632 -0.0987
  624MOL0     C85989   3.428   2.498  11.638  0.7908  0.2416 -0.4581
  624MOL0     C85990   3.431   2.381  11.541 -0.0506 -0.0148  0.1309
  624MOL0     N85991   3.342   2.411  11.432  0.0251 -0.6766 -0.2932
  624MOL0     C85992   3.386   2.450  11.308 -0.6629 -0.5009 -0.3534
  624MOL0     C85993   3.269   2.475  11.233 -0.1335  0.8392  0.2066
  624MOL0     C85994   3.269   2.511  11.085  0.5915  0.1952  0.9054
  624MOL0     C85995   3.248   2.375  11.002  0.8123  0.2158  0.6703
  624MOL0     C85996   3.264   2.406  10.857  0.4460  0.7420  0.4017
  624MOL0     C85997   3.138   2.475  10.802  0.4263  0.2874  0.5551
  624MOL0     O85998   3.040   2.371  10.796  0.0224  0.1578 -0.3087
  624MOL0     C85999   2.943   2.409  10.706  0.9702  1.0079  0.0803
  624MOL0     C86000   2.954   2.392  10.563 -0.0247 -0.3423 -0.3450
  624MOL0     C86001   2.844   2.441  10.485 -0.0133  0.5102 -0.1284
  624MOL0     C86002   2.850   2.438  10.337 -0.6392 -0.4500  0.4557
  624MOL0     C86003   2.730   2.497  10.544 -0.6687  0.1709 -0.0473
  624MOL0     C86004   2.612   2.559  10.476 -0.0816 -0.4458  0.6587
  624MOL0     O86005   2.546   2.474  10.396 -0.9521 -0.6086 -0.2993
  624MOL0     C86006   2.469   2.512  10.285 -1.0345 -0.6545 -0.0553
  624MOL0     C86007   2.523   2.606  10.197  0.3148  0.8255 -0.0335
  624MOL0     C86008   2.452   2.650  10.083  0.4949 -0.2960 -0.7460
  624MOL0     C86009   2.315   2.604  10.065  0.3493  0.7693  0.2668
  624MOL0     O86010   2.231   2.631   9.956 -0.1828 -1.5182  0.2610
  624MOL0     C86011   2.221   2.530   9.857 -0.7676  0.1368 -0.6835
  624MOL0     C86012   2.168   2.575   9.723  0.8007 -0.1004 -0.6950
  624MOL0     C86013   2.025   2.647   9.730  0.0183  0.1947 -0.3589
  624MOL0     C86014   1.991   2.727   9.601  0.2762 -0.0226  0.1390
  624MOL0     C86015   1.860   2.814   9.605  0.8079 -0.2641  0.1287
  624MOL0     C86016   1.738   2.722   9.629 -0.9133 -0.4811  0.1125
  624MOL0     C86017   1.610   2.801   9.639  0.6560 -0.5588 -0.6479
  624MOL0     C86018   1.489   2.716   9.648  0.2282 -0.9860 -0.3763
  624MOL0    Cl86019   1.346   2.826   9.653 -0.2395 -0.3543  0.0110
  624MOL0     C86020   2.266   2.518  10.162 -0.3629  0.1886  0.4235
  624MOL0     C86021   2.339   2.476  10.269 -0.0910 -0.7413 -1.2989
  624MOL0     O86022   2.590   2.676  10.487 -0.3820 -0.2979 -0.3393
  624MOL0     C86023   2.724   2.509  10.687  0.9620  0.4370 -0.1928
  624MOL0     C86024   2.828   2.473  10.760  0.6304  0.2495 -0.5051
  624MOL0     N86025   3.162   2.463  11.322  0.7163  0.5204 -0.0966
  624MOL0     N86026   3.200   2.417  11.440 -1.7077 -0.7159 -0.0538
  624MOL0     C86027   2.746   3.054  11.601 -0.2263 -0.5124 -0.2375
  624MOL0     C86028   2.632   3.090  11.537  0.6956  0.5243 -0.2641
  624MOL0     C86029   2.316   3.142  11.245 -0.1212 -0.4017  0.8500
  624MOL0     C86030   2.204   3.057  11.252 -0.5796  0.3485 -1.4133
  624MOL0     C86031   2.083   3.098  11.208  0.4164 -0.1300  0.8309
  624MOL0     C86032   2.061   3.226  11.157 -0.4725 -0.3788 -0.5247
  624MOL0     O86033   1.936   3.255  11.110 -0.0585 -0.2980  0.6649
  624MOL0     C86034   1.906   3.394  11.074 -0.5770 -0.0177 -0.1540
  624MOL0     C86035   1.765   3.414  11.009  0.3955  0.1071 -0.4596
  624MOL0     C86036   1.740   3.313  10.892  0.9053 -0.1393 -0.0722
  624MOL0     C86037   1.610   3.342  10.812 -0.3562 -0.2225  0.8784
  624MOL0     C86038   1.496   3.280  10.874  0.5806 -0.4631  0.4184
  624MOL0     C86039   1.408   3.212  10.921  0.1907 -0.5764 -0.1531
  624MOL0     C86040   2.167   3.313  11.151 -1.2692  0.3308 -0.7476
  624MOL0     C86041   2.295   3.274  11.188 -0.4841  0.0055 -0.7816
  624MOL0     C86042   2.396   3.377  11.171  0.2614 -1.2271  0.2611
  624MOL0     H86043   2.560   2.780  11.427 -2.0409  0.1875  1.7799
  624MOL0     H86044   2.772   2.730  11.549 -0.4826  1.0456  0.3788
  624MOL0     H86045   2.990   2.750  11.618 -3.0913  0.0525 -0.3148
  624MOL0     H86046   2.888   2.746  11.763 -0.5725  0.6451 -0.0503
  624MOL0     H86047   3.100   2.875  11.873 -3.5843 -0.7408  1.1832
  624MOL0     H86048   3.085   2.694  11.857 -1.9778  0.0625 -1.5141
  624MOL0     H86049   3.203   2.719  11.635  0.6423 -1.7139  0.7690
  624MOL0     H86050   3.228   2.892  11.676 -0.5470  0.5088 -1.4696
  624MOL0     H86051   3.372   2.830  11.855 -1.6522  0.1253 -0.1748
  624MOL0     H86052   3.340   2.664  11.836  0.0883 -1.9476 -1.1484
  624MOL0     H86053   3.559   2.709  11.745 -0.9808  3.0293  1.7464
  624MOL0     H86054   3.499   2.831  11.633  1.2637  1.0457  1.8653
  624MOL0     H86055   3.359   2.667  11.521 -0.7601  1.2251  1.8100
  624MOL0     H86056   3.538   2.641  11.520  0.1587  1.3399 -0.1858
  624MOL0     H86057   3.333   2.499  11.691 -0.2223 -0.5835 -2.1551
  624MOL0     H86058   3.499   2.480  11.719 -0.4966  0.5489  0.7705
  624MOL0     H86059   3.534   2.361  11.509 -0.3973  0.2458 -1.2000
  624MOL0     H86060   3.398   2.292  11.596 -3.4642  0.4538 -0.9337
  624MOL0     H86061   3.491   2.456  11.282 -1.0025 -4.2775 -3.5485
  624MOL0     H86062   3.364   2.554  11.054 -0.1730  0.4252 -1.3058
  624MOL0     H86063   3.189   2.582  11.062  2.0488  3.0158  3.6863
  624MOL0     H86064   3.326   2.302  11.027 -2.4724 -3.4447  1.1630
  624MOL0     H86065   3.160   2.319  11.035  3.3339 -2.8504  2.6741
  624MOL0     H86066   3.348   2.474  10.846  0.7416  0.3079 -0.0314
  624MOL0     H86067   3.286   2.326  10.786  2.5784  2.3096 -0.7939
  624MOL0     H86068   3.099   2.562  10.855 -0.8331 -0.0167  0.1804
  624MOL0     H86069   3.154   2.511  10.700 -0.1661  1.6390  0.9190
  624MOL0     H86070   3.040   2.342  10.520  0.0149 -0.9153  0.3641
  624MOL0     H86071   2.759   2.411  10.283  0.6206 -0.1537 -1.9362
  624MOL0     H86072   2.923   2.365  10.299 -0.0863 -0.1319  0.8829
  624MOL0     H86073   2.876   2.532  10.288  1.8032 -2.3431 -2.2388
  624MOL0     H86074   2.627   2.637  10.198  0.9384 -1.1973  0.3935
  624MOL0     H86075   2.491   2.688   9.989 -2.6689 -0.5621 -2.2850
  624MOL0     H86076   2.325   2.502   9.837 -0.6761  0.4083 -0.5816
  624MOL0     H86077   2.155   2.450   9.892 -1.8232  0.9001 -0.8832
  624MOL0     H86078   2.236   2.656   9.692 -1.1306  1.6807 -0.5025
  624MOL0     H86079   2.181   2.500   9.644 -1.5567 -0.2357 -1.0013
  624MOL0     H86080   2.020   2.705   9.823 -0.6966 -1.6466  0.8031
  624MOL0     H86081   1.947   2.570   9.734 -0.0332  0.2436 -0.4106
  624MOL0     H86082   1.975   2.653   9.523 -2.7526 -1.0226  1.5372
  624MOL0     H86083   2.073   2.795   9.574 -1.1881  1.3632 -0.9956
  624MOL0     H86084   1.877   2.886   9.686  1.8768  1.7082 -1.7323
  624MOL0     H86085   1.848   2.871   9.512 -0.8963  0.1852  0.5900
  624MOL0     H86086   1.743   2.657   9.718 -2.6865 -2.2419 -0.9883
  624MOL0     H86087   1.735   2.658   9.541  0.4116 -2.8062  1.6397
  624MOL0     H86088   1.595   2.871   9.556  0.2404 -0.8758 -0.8405
  624MOL0     H86089   1.619   2.854   9.734 -1.9006 -0.0350 -0.6438
  624MOL0     H86090   1.491   2.653   9.736 -3.3198 -0.5264  0.1743
  624MOL0     H86091   1.486   2.656   9.556  3.4612 -0.4906 -0.9544
  624MOL0     H86092   2.165   2.479  10.161 -0.1925 -0.3724  2.3375
  624MOL0     H86093   2.293   2.424  10.353  1.0572 -0.7406 -0.6458
  624MOL0     H86094   2.637   2.549  10.738 -2.8609 -2.5057 -3.7713
  624MOL0     H86095   2.818   2.505  10.863 -0.8397 -0.2439 -0.4647
  624MOL0     H86096   2.812   3.134  11.634 -0.6491  0.1537 -0.9848
  624MOL0     H86097   2.607   3.195  11.541 -0.2361  0.3505 -1.2292
  624MOL0     H86098   2.207   2.963  11.306 -2.3621  1.2046  0.2769
  624MOL0     H86099   1.998   3.030  11.203 -3.5534  4.3059 -4.0840
  624MOL0     H86100   1.912   3.455  11.165 -1.1994  0.0259 -0.1381
  624MOL0     H86101   1.977   3.433  11.000  0.8888 -0.7655  0.8055
  624MOL0     H86102   1.757   3.517  10.973 -1.0893  0.2053  0.0860
  624MOL0     H86103   1.687   3.406  11.085 -0.6363  2.5548 -1.1462
  624MOL0     H86104   1.821   3.307  10.818  1.6853 -1.0870  0.8365
  624MOL0     H86105   1.742   3.217  10.944  3.8016 -0.1532 -0.0628
  624MOL0     H86106   1.608   3.290  10.716  0.9757 -1.2026  1.3534
  624MOL0     H86107   1.600   3.450  10.796  0.8239 -0.3748 -1.3383
  624MOL0     H86108   1.330   3.147  10.958  0.2830  0.5518  2.1998
  624MOL0     H86109   2.160   3.417  11.119 -1.7499  0.7212  0.5670
  624MOL0     H86110   2.360   3.479  11.188  2.7409  0.2344 -2.2782
  624MOL0     H86111   2.490   3.359  11.223 -0.4299 -0.6748  1.7536
  624MOL0     H86112   2.421   3.385  11.064 -0.4437  2.2199  0.2237
  625MOL0     O86113   5.671   9.331   8.308  0.1818  0.1577  0.1448
  625MOL0     C86114   5.710   9.447   8.306 -0.4067 -0.6148 -0.1837
  625MOL0     O86115   5.845   9.489   8.308 -0.3757 -0.6712  0.2458
  625MOL0     C86116   5.933   9.406   8.246  0.4962  0.1924 -0.6445
  625MOL0     C86117   5.951   9.394   8.109 -0.3690  0.3552 -0.4543
  625MOL0     C86118   6.052   9.321   8.058 -0.9770  0.4229 -0.3632
  625MOL0     C86119   6.140   9.259   8.147  0.5440  0.0759  0.7518
  625MOL0     O86120   6.245   9.183   8.103  0.4852  0.0908 -0.1062
  625MOL0     C86121   6.346   9.239   8.013  0.6630 -0.0634 -0.2706
  625MOL0     C86122   6.386   9.130   7.925  0.8904 -0.0682  0.3429
  625MOL0     C86123   6.497   9.166   7.830 -0.1499  0.2180  0.0963
  625MOL0     C86124   6.547   9.037   7.761 -0.5117  0.1276 -0.8337
  625MOL0     C86125   6.588   9.066   7.615  0.3640 -0.9343 -0.1192
  625MOL0     C86126   6.636   8.944   7.532 -0.0507  0.3827  0.3028
  625MOL0     C86127   6.758   8.871   7.585 -0.5447 -0.6173 -0.3379
  625MOL0     C86128   6.874   8.954   7.633 -0.2875 -0.3532  0.2716
  625MOL0     N86129   6.903   9.062   7.537  0.3229  0.5815 -0.2487
  625MOL0     C86130   6.926   9.191   7.571 -0.1367  0.5211  0.4707
  625MOL0     C86131   6.979   9.251   7.459  0.2639 -0.1223 -0.0234
  625MOL0     C86132   7.036   9.391   7.442 -0.1862  0.3568  0.1607
  625MOL0     C86133   7.189   9.394   7.443 -0.6272  0.2182  0.1444
  625MOL0     C86134   7.261   9.530   7.409 -0.2776  0.2857 -0.2388
  625MOL0     C86135   7.410   9.516   7.441  1.4291  0.5169  0.1630
  625MOL0     O86136   7.458   9.646   7.418  0.0946 -0.1202 -0.1857
  625MOL0     C86137   7.584   9.681   7.409  0.4357  0.2741 -0.2625
  625MOL0     C86138   7.621   9.813   7.402 -0.5186 -0.0667  0.0258
  625MOL0     C86139   7.752   9.860   7.383 -0.3579  0.8367 -0.0086
  625MOL0     C86140   7.762  10.012   7.380  0.0076 -0.1656 -0.1143
  625MOL0     C86141   7.859   9.773   7.401  0.2393 -0.1751 -1.1683
  625MOL0     C86142   7.995   9.807   7.390 -0.1232 -0.0139  0.5803
  625MOL0     O86143   8.032   9.932   7.347  0.7874  0.2917 -0.2976
  625MOL0     C86144   8.168   9.973   7.322  0.4670 -0.1659  0.8848
  625MOL0     C86145   8.281   9.928   7.391  0.7817  1.3075  0.6705
  625MOL0     C86146   8.408   9.987   7.370  0.4690 -0.3312 -0.2110
  625MOL0     C86147   8.427  10.096   7.277  0.5477  1.1448  0.1901
  625MOL0     O86148   8.546  10.141   7.233  0.4932  0.4549 -1.0210
  625MOL0     C86149   8.648  10.045   7.223  0.1654 -0.2841  0.7215
  625MOL0     C86150   8.781  10.116   7.183 -0.2207 -0.2911 -0.7862
  625MOL0     C86151   8.763  10.220   7.078 -0.1963 -0.4909  0.1164
  625MOL0     C86152   8.880  10.234   6.973  0.6250 -0.3851 -0.5703
  625MOL0     C86153   9.022  10.210   7.035  0.3858 -0.4909  0.8421
  625MOL0     C86154   9.126  10.239   6.930  0.5670 -0.6013 -0.3325
  625MOL0     C86155   9.141  10.391   6.901 -0.0397  0.3416 -0.6541
  625MOL0     C86156   9.204  10.402   6.763  0.1836 -0.5425 -0.9858
  625MOL0    Cl86157   9.251  10.578   6.743  0.4924  0.2028  0.0885
  625MOL0     C86158   8.305  10.152   7.227  0.1986 -0.0259  0.5840
  625MOL0     C86159   8.176  10.095   7.242 -1.0155 -0.1634 -0.2864
  625MOL0     O86160   8.078   9.723   7.416 -0.2281 -0.2166  0.5248
  625MOL0     C86161   7.822   9.633   7.430 -0.4119 -0.3506  0.2585
  625MOL0     C86162   7.690   9.586   7.415  0.1532  0.4355 -0.2498
  625MOL0     N86163   6.988   9.147   7.360 -0.4666  0.1101 -0.1222
  625MOL0     N86164   6.948   9.037   7.407  0.4582 -0.3362  0.5004
  625MOL0     C86165   6.134   9.279   8.284  0.4191  0.6718  0.0492
  625MOL0     C86166   6.034   9.357   8.337  0.3745 -0.0636  0.3888
  625MOL0     C86167   5.616   9.556   8.299  0.4022  0.5886  0.0164
  625MOL0     C86168   5.635   9.642   8.186  0.4197  0.0892 -0.8271
  625MOL0     C86169   5.543   9.743   8.158  0.5098 -0.7449  0.9962
  625MOL0     C86170   5.428   9.759   8.235 -0.7300 -0.5061  0.3442
  625MOL0     O86171   5.341   9.850   8.189  0.0316 -0.4952  0.1775
  625MOL0     C86172   5.229   9.893   8.266 -0.4509  0.3432 -0.5099
  625MOL0     C86173   5.270   9.989   8.381 -0.1635  0.2387 -0.5888
  625MOL0     C86174   5.367  10.096   8.322  0.1627 -0.0515 -0.9716
  625MOL0     C86175   5.370  10.221   8.423  0.1057 -0.2916  0.0037
  625MOL0     C86176   5.244  10.291   8.437 -0.0610  0.2568  0.8088
  625MOL0     C86177   5.148  10.351   8.474  0.3726  0.3692  0.0462
  625MOL0     C86178   5.406   9.663   8.340  0.5728 -0.4010 -0.6404
  625MOL0     C86179   5.501   9.567   8.382 -0.2292 -0.6949  0.1115
  625MOL0     C86180   5.466   9.457   8.476 -0.3439 -0.8083  0.3241
  625MOL0     H86181   5.883   9.456   8.050 -0.1983  0.3719 -0.6344
  625MOL0     H86182   6.065   9.306   7.951  1.0294 -2.2776  0.1347
  625MOL0     H86183   6.428   9.277   8.076 -0.0277  0.1531  0.5218
  625MOL0     H86184   6.309   9.324   7.956 -1.2536 -0.4771  0.2801
  625MOL0     H86185   6.419   9.043   7.983  0.8212  0.1011  0.6356
  625MOL0     H86186   6.299   9.101   7.865  2.5541 -0.4500 -2.0421
  625MOL0     H86187   6.471   9.240   7.753 -0.4524  4.4960  3.8904
  625MOL0     H86188   6.580   9.213   7.884  0.5208 -0.6543 -0.1619
  625MOL0     H86189   6.622   8.989   7.825 -1.3903 -1.3396 -0.8799
  625MOL0     H86190   6.467   8.964   7.748  1.0359 -1.3446 -2.7575
  625MOL0     H86191   6.673   9.133   7.627 -0.7371  0.5993 -0.5706
  625MOL0     H86192   6.512   9.123   7.561  0.4688  0.9099  1.5331
  625MOL0     H86193   6.555   8.871   7.523  0.1299  0.1514  0.5455
  625MOL0     H86194   6.661   8.983   7.432 -1.4043  1.4823  0.3533
  625MOL0     H86195   6.790   8.800   7.508  2.0880 -1.2334  1.1831
  625MOL0     H86196   6.734   8.815   7.676  0.8149 -1.3467 -0.4020
  625MOL0     H86197   6.850   9.010   7.724 -1.8825  1.0185 -0.9477
  625MOL0     H86198   6.956   8.884   7.651  0.0962 -0.9304 -3.1350
  625MOL0     H86199   6.896   9.233   7.667  0.0316 -2.9869  2.1921
  625MOL0     H86200   6.998   9.463   7.514  0.9609  1.8630 -0.6816
  625MOL0     H86201   6.990   9.430   7.351  1.9269 -0.6907 -1.4626
  625MOL0     H86202   7.219   9.347   7.537 -0.0160  0.6621  0.1789
  625MOL0     H86203   7.218   9.324   7.364 -0.6442  0.2832  0.0806
  625MOL0     H86204   7.251   9.547   7.301  1.4627 -2.0261 -0.8355
  625MOL0     H86205   7.215   9.610   7.467  0.1146  1.7926 -1.9193
  625MOL0     H86206   7.431   9.492   7.545 -0.3731 -1.9981  0.0441
  625MOL0     H86207   7.445   9.440   7.370 -1.3089 -0.1600 -0.6089
  625MOL0     H86208   7.550   9.896   7.408  0.4581  1.1300 -3.0952
  625MOL0     H86209   7.665  10.062   7.381 -0.3888 -0.9000  1.4522
  625MOL0     H86210   7.818  10.049   7.293  2.0392  2.1767  2.0272
  625MOL0     H86211   7.817  10.048   7.468 -1.2189  0.2014  0.5180
  625MOL0     H86212   8.271   9.851   7.467  1.4793  0.2963 -0.2382
  625MOL0     H86213   8.497   9.961   7.427  0.2745 -0.6112 -0.0271
  625MOL0     H86214   8.661   9.990   7.316  1.4286 -0.7827  0.2692
  625MOL0     H86215   8.629   9.980   7.137 -0.0663 -0.9596  1.2833
  625MOL0     H86216   8.809  10.165   7.277 -1.2168 -1.7384  0.3289
  625MOL0     H86217   8.862  10.043   7.171  2.5502  2.5113 -0.2596
  625MOL0     H86218   8.732  10.316   7.122 -3.1960 -1.1390 -0.3508
  625MOL0     H86219   8.674  10.202   7.017 -0.5824 -1.7495  1.0025
  625MOL0     H86220   8.871  10.335   6.932  0.8193 -0.4291 -0.7219
  625MOL0     H86221   8.855  10.164   6.893 -1.5987 -0.0012 -0.2631
  625MOL0     H86222   9.037  10.270   7.125  2.1187  1.2353 -0.5066
  625MOL0     H86223   9.046  10.108   7.063  2.1027 -1.1881 -2.6568
  625MOL0     H86224   9.095  10.185   6.840 -0.4167 -0.9095  0.1778
  625MOL0     H86225   9.223  10.209   6.971  2.3130  3.2169 -1.2204
  625MOL0     H86226   9.210  10.435   6.973  0.8858  0.7233 -1.7411
  625MOL0     H86227   9.043  10.436   6.916 -1.4431 -3.1429  1.9979
  625MOL0     H86228   9.139  10.370   6.681 -0.6092 -1.4016 -0.0507
  625MOL0     H86229   9.291  10.339   6.745 -1.4007 -2.6429 -1.7052
  625MOL0     H86230   8.316  10.233   7.155 -3.2525 -1.8713 -2.4040
  625MOL0     H86231   8.088  10.150   7.209 -1.2186  0.0206  0.5586
  625MOL0     H86232   7.900   9.558   7.428 -0.4860 -0.4405 -1.8890
  625MOL0     H86233   7.674   9.481   7.437  0.2896  0.5557  0.4396
  625MOL0     H86234   6.206   9.248   8.359 -0.6123  1.1988  1.3048
  625MOL0     H86235   6.024   9.368   8.444 -0.4357  1.0154  0.2219
  625MOL0     H86236   5.722   9.623   8.123 -0.4449 -2.4340 -1.3950
  625MOL0     H86237   5.563   9.807   8.072  1.1038 -2.5276 -0.2585
  625MOL0     H86238   5.166   9.948   8.196 -1.4367  1.4228  1.1277
  625MOL0     H86239   5.178   9.806   8.309  1.3678 -1.4694 -1.8474
  625MOL0     H86240   5.311   9.923   8.458 -2.4479 -0.8428 -0.2268
  625MOL0     H86241   5.177  10.027   8.423 -1.3457 -2.6712 -0.3307
  625MOL0     H86242   5.466  10.049   8.314  0.6102 -0.7631  4.5886
  625MOL0     H86243   5.339  10.139   8.226  0.2591  2.4023  0.0277
  625MOL0     H86244   5.434  10.293   8.371  0.1877 -1.3023 -1.3419
  625MOL0     H86245   5.414  10.195   8.519 -1.9049 -0.4975  0.9358
  625MOL0     H86246   5.058  10.406   8.494 -0.2695 -0.6153 -0.0705
  625MOL0     H86247   5.314   9.677   8.395  1.9620  2.3462  1.2042
  625MOL0     H86248   5.413   9.382   8.416 -1.8751  0.5959 -0.1232
  625MOL0     H86249   5.559   9.416   8.518  0.3220  0.9305  0.6228
  625MOL0     H86250   5.412   9.488   8.566 -2.6998  1.2600 -1.6571
  626MOL0     O86251   7.133   8.734  10.531  0.2444  0.0791  0.8128
  626MOL0     C86252   7.024   8.770  10.584 -0.7304  0.4338 -0.4886
  626MOL0     O86253   7.021   8.815  10.716  0.6702  0.2692  0.9599
  626MOL0     C86254   7.142   8.803  10.787  0.5368  0.0486  0.6334
  626MOL0     C86255   7.198   8.922  10.830 -0.5550  0.6617  0.7397
  626MOL0     C86256   7.311   8.915  10.916  0.8219 -0.0258 -0.1765
  626MOL0     C86257   7.374   8.789  10.948  0.2692 -0.6528  0.1191
  626MOL0     O86258   7.478   8.778  11.035  0.0900  0.9412 -0.1647
  626MOL0     C86259   7.551   8.895  11.073 -0.1641  0.6381  0.4086
  626MOL0     C86260   7.664   8.865  11.168  1.5501 -0.7266  0.5050
  626MOL0     C86261   7.785   8.806  11.099 -0.7767  0.8389  0.1841
  626MOL0     C86262   7.785   8.651  11.098 -0.4130 -0.3334  0.7550
  626MOL0     C86263   7.918   8.584  11.039 -0.6263 -0.5385 -0.1218
  626MOL0     C86264   7.916   8.435  11.041  1.1521 -0.7176 -0.1460
  626MOL0     C86265   8.057   8.375  11.034  1.4986  0.1091  0.3127
  626MOL0     C86266   8.145   8.412  10.918  0.4754  0.2641 -0.6410
  626MOL0     N86267   8.279   8.371  10.937 -0.1996  0.4447  0.2791
  626MOL0     C86268   8.303   8.242  10.977 -0.0994  0.1485 -0.6112
  626MOL0     C86269   8.432   8.261  11.006 -0.2982  0.0028 -0.1972
  626MOL0     C86270   8.525   8.144  11.013 -0.7495  0.3547  0.3372
  626MOL0     C86271   8.585   8.111  10.874  0.6864 -0.0005 -0.1876
  626MOL0     C86272   8.690   8.203  10.822  0.3076 -0.2186  0.2846
  626MOL0     C86273   8.739   8.157  10.686  0.2016  0.1746 -0.1542
  626MOL0     O86274   8.787   8.022  10.682 -0.4236  0.3880 -0.4924
  626MOL0     C86275   8.915   7.988  10.726 -0.5448  0.0291 -0.3986
  626MOL0     C86276   8.938   7.848  10.730  0.8463  0.4680  0.2438
  626MOL0     C86277   9.055   7.795  10.772  0.9429  0.5108  0.2789
  626MOL0     C86278   9.043   7.643  10.767 -0.3309 -0.4216  0.2939
  626MOL0     C86279   9.168   7.869  10.807  0.2932 -0.4020 -0.2157
  626MOL0     C86280   9.304   7.824  10.836 -0.0582 -0.5365  0.7449
  626MOL0     O86281   9.383   7.924  10.890  0.2024 -0.1530  0.3309
  626MOL0     C86282   9.504   7.886  10.935 -0.3065  0.2824 -0.7208
  626MOL0     C86283   9.615   7.905  10.857  0.7470  0.7781 -0.8611
  626MOL0     C86284   9.735   7.865  10.906  0.0683  0.0387  0.6487
  626MOL0     C86285   9.746   7.799  11.031  0.3603  0.5508  0.1902
  626MOL0     O86286   9.864   7.754  11.080  0.5004 -0.2900  0.0223
  626MOL0     C86287   9.935   7.817  11.193  1.5341  0.6975 -0.1982
  626MOL0     C86288  10.076   7.768  11.201 -0.0433  0.4495 -0.1405
  626MOL0     C86289  10.086   7.624  11.259 -0.1856 -0.3029 -0.1497
  626MOL0     C86290  10.218   7.552  11.254  0.3879  0.3647  0.2341
  626MOL0     C86291  10.234   7.492  11.106  0.4649 -0.4157 -0.6084
  626MOL0     C86292  10.345   7.392  11.094 -0.4186  0.7463  0.2022
  626MOL0     C86293  10.356   7.326  10.945  0.5462 -0.5181  0.0046
  626MOL0     C86294  10.458   7.210  10.961 -0.5190 -0.7218  0.2837
  626MOL0    Cl86295  10.627   7.269  10.990  0.4166  0.3218  0.1278
  626MOL0     C86296   9.636   7.775  11.112  0.2015  0.0978  0.2357
  626MOL0     C86297   9.518   7.827  11.065 -0.5651  0.1648 -0.1174
  626MOL0     O86298   9.333   7.706  10.842  0.1934 -0.7462  0.4639
  626MOL0     C86299   9.148   8.014  10.805  0.3731  0.7982 -0.6025
  626MOL0     C86300   9.022   8.068  10.772 -0.0476  0.7657 -0.0896
  626MOL0     N86301   8.479   8.395  11.008  0.3063 -0.1023  0.2126
  626MOL0     N86302   8.383   8.462  10.960  0.9204 -0.0504 -0.0165
  626MOL0     C86303   7.322   8.670  10.900 -0.2540  0.1791 -1.0315
  626MOL0     C86304   7.208   8.679  10.817 -0.9019 -0.0885 -0.3882
  626MOL0     C86305   6.896   8.753  10.515 -0.3840 -0.0303 -0.1376
  626MOL0     C86306   6.774   8.800  10.568 -0.5193  0.7028  0.3320
  626MOL0     C86307   6.650   8.789  10.504  0.0505 -0.3936 -0.4050
  626MOL0     C86308   6.641   8.736  10.377  0.4418  0.2147 -0.1776
  626MOL0     O86309   6.520   8.746  10.308 -0.4268  0.3559  0.4067
  626MOL0     C86310   6.400   8.754  10.384  0.0695 -0.6708 -0.4454
  626MOL0     C86311   6.282   8.711  10.299  0.6981  0.1453  0.2317
  626MOL0     C86312   6.272   8.776  10.157 -0.1922 -0.5305  0.0271
  626MOL0     C86313   6.123   8.779  10.103 -0.1865  0.7727  0.2870
  626MOL0     C86314   6.106   8.772   9.953 -0.0944  0.5014 -0.8371
  626MOL0     C86315   6.113   8.781   9.826 -1.1343 -0.4013 -0.3611
  626MOL0     C86316   6.762   8.682  10.320  0.4286 -0.3543 -0.3399
  626MOL0     C86317   6.893   8.692  10.383 -0.5087 -0.5648  0.6504
  626MOL0     C86318   7.004   8.634  10.301 -0.2834 -0.6269 -0.1015
  626MOL0     H86319   7.154   9.019  10.811 -0.7835  0.1351 -1.7408
  626MOL0     H86320   7.355   9.011  10.938 -1.1377  1.3142 -1.7589
  626MOL0     H86321   7.488   8.975  11.113  2.2129  2.9595 -0.2024
  626MOL0     H86322   7.593   8.934  10.981  1.2450 -1.9547 -0.1523
  626MOL0     H86323   7.696   8.956  11.221 -0.0118  0.3644 -0.3518
  626MOL0     H86324   7.631   8.793  11.243  1.9089 -0.4489  0.9397
  626MOL0     H86325   7.804   8.833  10.994  0.0170 -0.6741 -0.0774
  626MOL0     H86326   7.874   8.852  11.141 -0.4831  3.6544 -3.0161
  626MOL0     H86327   7.764   8.631  11.203  0.0275  1.6350  1.2446
  626MOL0     H86328   7.707   8.610  11.033  0.1211 -2.3791  1.3419
  626MOL0     H86329   7.998   8.629  11.098 -0.3931  0.5333 -1.2122
  626MOL0     H86330   7.942   8.620  10.938 -0.3249 -1.3023 -0.3302
  626MOL0     H86331   7.871   8.406  11.137 -2.1856  1.4834 -0.8452
  626MOL0     H86332   7.862   8.390  10.957 -1.1387 -0.3593  1.0454
  626MOL0     H86333   8.036   8.268  11.033  0.6187  0.2777  0.3592
  626MOL0     H86334   8.108   8.394  11.130  0.9416  2.0919  0.2570
  626MOL0     H86335   8.104   8.352  10.836  1.4853 -0.6276 -0.5121
  626MOL0     H86336   8.124   8.519  10.903 -3.9789 -0.0347  1.8728
  626MOL0     H86337   8.254   8.148  10.952 -1.8974  1.7168 -3.5576
  626MOL0     H86338   8.457   8.065  11.046 -3.4496  2.6487  0.7221
  626MOL0     H86339   8.602   8.154  11.090  1.4464 -1.0112 -1.5709
  626MOL0     H86340   8.630   8.012  10.879  2.8370  0.8698 -0.8612
  626MOL0     H86341   8.503   8.123  10.802 -1.7187 -0.4145  2.3258
  626MOL0     H86342   8.643   8.301  10.813  1.4727  0.2532 -1.1099
  626MOL0     H86343   8.775   8.202  10.892  1.1716  0.8681 -0.7138
  626MOL0     H86344   8.663   8.167  10.608 -0.0343 -1.2684 -0.1383
  626MOL0     H86345   8.826   8.217  10.657  1.1318 -0.5134  1.1142
  626MOL0     H86346   8.871   7.779  10.680  1.5469  0.6962 -1.0359
  626MOL0     H86347   9.135   7.591  10.794  0.2890  0.0080 -0.9305
  626MOL0     H86348   9.024   7.607  10.665  2.7025  1.4474 -1.0758
  626MOL0     H86349   8.966   7.611  10.838  2.1171 -0.1110  3.3129
  626MOL0     H86350   9.612   7.961  10.764  1.0018  1.0190 -0.7284
  626MOL0     H86351   9.827   7.894  10.855 -0.2224  1.6444  0.9799
  626MOL0     H86352   9.941   7.923  11.168  2.1664 -0.1184 -4.1962
  626MOL0     H86353   9.889   7.796  11.290 -0.8935  1.8893 -1.0117
  626MOL0     H86354  10.113   7.761  11.098 -0.7884  1.2803 -0.4825
  626MOL0     H86355  10.138   7.845  11.246 -0.9071  0.3489  1.2573
  626MOL0     H86356  10.005   7.556  11.230 -1.2439  0.6081  0.5895
  626MOL0     H86357  10.074   7.648  11.365  1.3316 -0.3545  0.0601
  626MOL0     H86358  10.221   7.467  11.323  1.6460 -0.8370 -1.2178
  626MOL0     H86359  10.294   7.630  11.260  1.3924 -0.2209 -3.0064
  626MOL0     H86360  10.138   7.446  11.079 -0.7409  3.3742 -3.7323
  626MOL0     H86361  10.256   7.580  11.045 -1.1975 -0.0424 -0.7118
  626MOL0     H86362  10.337   7.313  11.169  1.8044 -3.2123 -3.3049
  626MOL0     H86363  10.437   7.438  11.129  0.5400 -1.8908  1.4077
  626MOL0     H86364  10.396   7.399  10.874  0.5396  1.1850  1.6521
  626MOL0     H86365  10.251   7.304  10.924 -0.1707  1.9837  0.6341
  626MOL0     H86366  10.466   7.172  10.858  2.5972 -1.3142  0.6473
  626MOL0     H86367  10.429   7.137  11.037 -0.6656  0.1488  1.0833
  626MOL0     H86368   9.638   7.731  11.211 -2.1198 -0.9173 -0.0997
  626MOL0     H86369   9.435   7.811  11.133  1.3969  3.0679  3.3332
  626MOL0     H86370   9.223   8.088  10.831 -0.3889  1.0680  1.0179
  626MOL0     H86371   9.006   8.175  10.775 -0.8340  0.6602 -0.0918
  626MOL0     H86372   7.361   8.572  10.926 -1.9910 -1.0481 -2.7855
  626MOL0     H86373   7.153   8.587  10.796 -0.1716 -0.4975 -0.5600
  626MOL0     H86374   6.772   8.838  10.669  2.5820  0.8707  0.4083
  626MOL0     H86375   6.565   8.821  10.563  0.9438 -1.2893  1.4815
  626MOL0     H86376   6.403   8.697  10.477  0.5413 -1.5690 -1.0010
  626MOL0     H86377   6.382   8.861  10.398  0.7771 -0.9254  3.8393
  626MOL0     H86378   6.187   8.732  10.349  0.9960  2.3140 -0.0091
  626MOL0     H86379   6.287   8.602  10.295  1.4419  0.1325  1.2564
  626MOL0     H86380   6.309   8.880  10.155 -1.1523 -0.1703  0.4554
  626MOL0     H86381   6.327   8.705  10.095  2.5841 -0.0219  1.7070
  626MOL0     H86382   6.061   8.860  10.139 -3.9723 -0.5748 -2.5716
  626MOL0     H86383   6.076   8.687  10.139  2.6288 -0.5778  0.8410
  626MOL0     H86384   6.117   8.792   9.719 -1.2104 -0.7949 -0.4060
  626MOL0     H86385   6.758   8.641  10.220  0.2545 -0.4776 -0.2836
  626MOL0     H86386   7.061   8.555  10.351  0.0770  0.1080  0.6806
  626MOL0     H86387   6.964   8.600  10.206  1.5588 -3.0570 -0.1149
  626MOL0     H86388   7.065   8.723  10.280 -2.3851  1.0643  0.6360
  627MOL0     O86389   0.255   3.395   1.413 -0.5104  0.0469  0.0823
  627MOL0     C86390   0.166   3.306   1.406  0.4469 -0.0238  0.4131
  627MOL0     O86391   0.188   3.173   1.442  0.5155  0.1648 -0.2331
  627MOL0     C86392   0.310   3.133   1.481 -0.7545 -0.5137  0.3758
  627MOL0     C86393   0.333   3.093   1.611 -0.1374 -0.6410 -0.5301
  627MOL0     C86394   0.456   3.034   1.651  0.2574  0.5265  0.0504
  627MOL0     C86395   0.560   3.028   1.558  0.0179  0.6268  0.6328
  627MOL0     O86396   0.692   3.005   1.592 -0.4744 -1.0739  0.0511
  627MOL0     C86397   0.733   2.928   1.706  1.0392 -0.8908 -0.6330
  627MOL0     C86398   0.886   2.907   1.730  0.3711 -0.8497  0.5239
  627MOL0     C86399   0.900   2.911   1.883  0.5750  0.2670 -0.6783
  627MOL0     C86400   1.047   2.889   1.920 -0.4506 -0.1305  0.4726
  627MOL0     C86401   1.064   2.928   2.065  0.2511  0.1071 -0.6766
  627MOL0     C86402   1.218   2.936   2.095 -0.1641  0.1550 -1.1137
  627MOL0     C86403   1.277   2.796   2.123  0.1910  0.0405  0.8345
  627MOL0     C86404   1.425   2.822   2.145  0.0514 -1.3031 -0.3023
  627MOL0     N86405   1.495   2.694   2.183  0.6801 -0.3107 -0.1581
  627MOL0     C86406   1.515   2.637   2.309  0.5335 -0.5142  0.3994
  627MOL0     C86407   1.574   2.516   2.294 -0.2197  0.4346  0.1379
  627MOL0     C86408   1.625   2.435   2.403  0.7101 -0.3618  0.0361
  627MOL0     C86409   1.777   2.413   2.395 -0.6116  0.1539 -0.2424
  627MOL0     C86410   1.829   2.343   2.518 -0.6676 -0.2896 -0.5194
  627MOL0     C86411   1.975   2.310   2.500  0.2705 -0.1153  0.2910
  627MOL0     O86412   2.033   2.275   2.620 -0.6116  0.0306  0.0638
  627MOL0     C86413   2.172   2.276   2.617  0.8530 -0.8276  0.3760
  627MOL0     C86414   2.233   2.299   2.741 -0.2283  0.1245 -0.4280
  627MOL0     C86415   2.371   2.313   2.761 -1.1253  0.9288  0.9785
  627MOL0     C86416   2.425   2.339   2.894 -0.1144  0.1067 -0.2277
  627MOL0     C86417   2.459   2.298   2.643  0.9601 -0.1386  0.2854
  627MOL0     C86418   2.604   2.310   2.640  0.2358  0.8631 -0.4702
  627MOL0     O86419   2.664   2.312   2.522  0.4032  0.0932  0.1091
  627MOL0     C86420   2.801   2.346   2.525 -0.4375 -0.4888 -0.8099
  627MOL0     C86421   2.844   2.470   2.500 -1.0849  0.0445  0.5399
  627MOL0     C86422   2.983   2.496   2.493  0.5516 -0.1810 -0.7921
  627MOL0     C86423   3.076   2.401   2.507 -1.0313  0.7469  0.4639
  627MOL0     O86424   3.206   2.448   2.506  0.1043  0.7859 -0.5714
  627MOL0     C86425   3.286   2.394   2.609 -0.6005 -1.0678 -0.2983
  627MOL0     C86426   3.414   2.484   2.636  0.0097 -0.4119 -0.9574
  627MOL0     C86427   3.490   2.502   2.506 -0.1256 -0.3055  0.5661
  627MOL0     C86428   3.565   2.363   2.460  0.3547  0.6915 -0.5066
  627MOL0     C86429   3.637   2.392   2.319  0.1976  0.2442  0.2831
  627MOL0     C86430   3.659   2.263   2.234 -0.8120 -0.8181 -0.1355
  627MOL0     C86431   3.546   2.152   2.226 -0.7727  0.0102  0.3803
  627MOL0     C86432   3.585   2.028   2.136 -0.0104  0.5027  0.2197
  627MOL0    Cl86433   3.698   1.913   2.222 -0.3498 -0.1382  0.2397
  627MOL0     C86434   3.036   2.265   2.526  0.0729 -0.7555  0.5528
  627MOL0     C86435   2.899   2.243   2.528 -0.0997 -0.0202 -0.9373
  627MOL0     O86436   2.660   2.314   2.747 -0.5358  0.1987 -0.2729
  627MOL0     C86437   2.395   2.268   2.520  0.5520  0.6266 -0.1912
  627MOL0     C86438   2.253   2.262   2.511  0.0832  0.1090 -0.0468
  627MOL0     N86439   1.580   2.497   2.154  0.5109  0.4587  0.1974
  627MOL0     N86440   1.533   2.602   2.091 -0.2468 -0.2654  0.4239
  627MOL0     C86441   0.541   3.076   1.425 -0.2722  0.2423  0.7762
  627MOL0     C86442   0.412   3.121   1.386 -0.4121  0.0853 -0.4538
  627MOL0     C86443   0.029   3.358   1.376  0.5095  0.4407 -0.4652
  627MOL0     C86444   0.010   3.489   1.319 -0.4241  0.2307  0.9553
  627MOL0     C86445  -0.117   3.545   1.310 -0.4018 -0.2937 -0.5695
  627MOL0     C86446  -0.230   3.465   1.352  0.2191 -0.6940  0.7077
  627MOL0     O86447  -0.359   3.502   1.339  0.8768  0.0398  0.1353
  627MOL0     C86448  -0.399   3.635   1.287 -1.0222  0.0174  0.4007
  627MOL0     C86449  -0.551   3.628   1.299 -0.6656 -0.0327  0.4693
  627MOL0     C86450  -0.607   3.769   1.277  0.6966  0.2579 -0.1870
  627MOL0     C86451  -0.756   3.784   1.261  0.3090  0.1787 -0.3360
  627MOL0     C86452  -0.790   3.923   1.243 -0.7181 -0.8592  0.5440
  627MOL0     C86453  -0.797   4.045   1.231 -0.2147  0.6862  0.4935
  627MOL0     C86454  -0.215   3.341   1.393  0.5052  0.7316  1.6165
  627MOL0     C86455  -0.091   3.281   1.399  0.0363 -0.2400 -0.2990
  627MOL0     C86456  -0.094   3.134   1.435  1.3560 -0.7029  0.7811
  627MOL0     H86457   0.252   3.099   1.682 -0.7132  0.1950 -1.2435
  627MOL0     H86458   0.476   3.028   1.758  2.7528  2.2430 -0.2473
  627MOL0     H86459   0.688   2.828   1.702 -0.7122 -0.3320  2.4019
  627MOL0     H86460   0.695   2.991   1.786 -0.0152 -0.1876 -1.6610
  627MOL0     H86461   0.916   2.816   1.678  1.3124  0.9830 -2.3779
  627MOL0     H86462   0.933   2.998   1.692 -1.0099  1.1582  3.2917
  627MOL0     H86463   0.883   3.013   1.920  1.1041 -0.0323  0.4299
  627MOL0     H86464   0.828   2.844   1.931  0.9929  1.5461  1.9203
  627MOL0     H86465   1.076   2.784   1.910  1.6387  0.2426  2.0660
  627MOL0     H86466   1.111   2.948   1.854 -0.8113 -0.6774 -0.3860
  627MOL0     H86467   1.019   2.855   2.133 -1.4006 -1.9819 -3.7758
  627MOL0     H86468   1.015   3.025   2.076  2.2150  1.3688 -2.3478
  627MOL0     H86469   1.271   2.984   2.012 -2.6083  1.4208 -2.0644
  627MOL0     H86470   1.228   3.003   2.181 -1.4848  1.5011 -1.9660
  627MOL0     H86471   1.260   2.729   2.038 -0.6594  1.1771  0.0755
  627MOL0     H86472   1.229   2.755   2.212  0.2575 -0.8425  0.4727
  627MOL0     H86473   1.459   2.875   2.056  2.2284  0.9700  1.7051
  627MOL0     H86474   1.440   2.880   2.237 -0.9521 -2.2427  0.4752
  627MOL0     H86475   1.489   2.686   2.402 -2.8714  0.0844 -0.7113
  627MOL0     H86476   1.575   2.337   2.403  3.4916 -2.0788 -4.0102
  627MOL0     H86477   1.618   2.483   2.500  1.5018 -2.6254  1.2924
  627MOL0     H86478   1.787   2.340   2.314  1.2139 -0.9103  0.8857
  627MOL0     H86479   1.818   2.515   2.389 -0.3413  0.0019 -1.2749
  627MOL0     H86480   1.822   2.392   2.615  4.7674  1.3239 -0.6186
  627MOL0     H86481   1.763   2.257   2.537 -0.7237 -0.3505 -0.9780
  627MOL0     H86482   1.985   2.235   2.420  4.2295  0.1922  0.2941
  627MOL0     H86483   2.024   2.403   2.471  2.1459 -0.8538  0.9054
  627MOL0     H86484   2.167   2.310   2.826 -1.9024 -0.5191 -1.5992
  627MOL0     H86485   2.352   2.366   2.970 -1.4234 -1.7822 -0.7506
  627MOL0     H86486   2.502   2.417   2.891 -1.4588  1.5071  0.5784
  627MOL0     H86487   2.483   2.250   2.920  1.3331  1.8940  3.2297
  627MOL0     H86488   2.774   2.552   2.488 -0.5790  0.1094 -4.4659
  627MOL0     H86489   3.000   2.600   2.465 -0.1383 -0.3726 -2.0279
  627MOL0     H86490   3.233   2.385   2.704 -0.2635 -0.2226 -0.0190
  627MOL0     H86491   3.326   2.295   2.583  0.6493 -1.3185  2.2151
  627MOL0     H86492   3.390   2.584   2.672  2.7011  0.8913 -2.4764
  627MOL0     H86493   3.481   2.438   2.710  0.5525  1.9937  0.1277
  627MOL0     H86494   3.557   2.586   2.524 -1.2707  0.5507  0.8877
  627MOL0     H86495   3.413   2.525   2.431  0.1323 -0.6263  0.2002
  627MOL0     H86496   3.494   2.280   2.463  2.0828 -0.9102  2.8576
  627MOL0     H86497   3.641   2.336   2.535  0.4498 -0.9610 -1.1438
  627MOL0     H86498   3.570   2.461   2.268 -0.4204  0.0461  0.8195
  627MOL0     H86499   3.731   2.442   2.341  0.0960  1.1593 -1.2115
  627MOL0     H86500   3.733   2.208   2.293 -1.8637 -2.0041  0.1222
  627MOL0     H86501   3.698   2.286   2.135 -1.1223  2.3946  0.4051
  627MOL0     H86502   3.459   2.198   2.179 -0.5301  2.0340  1.7705
  627MOL0     H86503   3.524   2.115   2.327 -0.6314 -0.3810  0.2713
  627MOL0     H86504   3.642   2.069   2.051  2.4923 -1.9564  0.5883
  627MOL0     H86505   3.497   1.976   2.098 -1.0724 -0.0596  3.2027
  627MOL0     H86506   3.117   2.194   2.536  0.2814 -0.4583  0.9907
  627MOL0     H86507   2.870   2.144   2.558  0.3601  0.1094 -0.0476
  627MOL0     H86508   2.458   2.261   2.432 -2.3606 -0.9597 -2.3167
  627MOL0     H86509   2.205   2.253   2.414  0.4175 -4.5791 -0.0314
  627MOL0     H86510   0.629   3.077   1.362 -0.8961 -1.7479 -0.2131
  627MOL0     H86511   0.392   3.155   1.285 -0.9967  1.9629  0.2520
  627MOL0     H86512   0.099   3.550   1.304 -0.7449  0.7104  0.9818
  627MOL0     H86513  -0.136   3.645   1.274 -1.1836 -0.2995 -0.1919
  627MOL0     H86514  -0.353   3.721   1.337 -0.5877 -1.2606  2.2904
  627MOL0     H86515  -0.366   3.643   1.183  2.3798  2.7068  1.4864
  627MOL0     H86516  -0.589   3.593   1.395 -0.1242 -0.5164  0.5092
  627MOL0     H86517  -0.585   3.559   1.222  1.4867 -0.2121 -0.4044
  627MOL0     H86518  -0.564   3.829   1.358  2.7319 -2.5404  0.9684
  627MOL0     H86519  -0.560   3.805   1.185  0.9035  3.5462  1.0759
  627MOL0     H86520  -0.801   3.745   1.353  2.7779  0.5615  1.1250
  627MOL0     H86521  -0.788   3.741   1.166  2.2124  1.4734 -1.6286
  627MOL0     H86522  -0.807   4.151   1.228 -2.0060  0.5653  1.2042
  627MOL0     H86523  -0.305   3.283   1.411 -2.2248  4.8138  2.3557
  627MOL0     H86524  -0.048   3.071   1.359 -1.8979 -1.0706 -1.0647
  627MOL0     H86525  -0.062   3.115   1.538 -2.1591  0.3045  2.1999
  627MOL0     H86526  -0.196   3.097   1.428  0.7103  1.1874 -0.6444
  628MOL0     O86527   8.452   2.847   3.831  0.0469 -0.2619  0.4984
  628MOL0     C86528   8.356   2.908   3.822  0.5709  0.7755 -0.0279
  628MOL0     O86529   8.335   3.025   3.893 -0.2478  0.8494  0.1287
  628MOL0     C86530   8.414   3.064   3.999 -1.7612 -0.3769  0.2121
  628MOL0     C86531   8.373   3.069   4.132  0.0201  0.3389 -0.3462
  628MOL0     C86532   8.456   3.103   4.235 -0.1187  0.2452 -0.2407
  628MOL0     C86533   8.583   3.144   4.210 -0.6882 -0.0998  0.2553
  628MOL0     O86534   8.649   3.190   4.319 -0.7183 -0.0963  0.1842
  628MOL0     C86535   8.774   3.255   4.293 -0.4066 -0.5639 -0.2385
  628MOL0     C86536   8.836   3.311   4.419  0.2517 -0.4935 -0.4794
  628MOL0     C86537   8.876   3.218   4.535 -0.0392 -0.0338  0.2227
  628MOL0     C86538   8.960   3.290   4.648  0.5689 -0.6400  0.1426
  628MOL0     C86539   9.031   3.195   4.737  0.7664 -0.6029  0.1838
  628MOL0     C86540   9.081   3.255   4.870 -0.5331 -0.3349  0.2798
  628MOL0     C86541   9.191   3.358   4.851  0.7914  0.6434  0.1022
  628MOL0     C86542   9.230   3.420   4.993 -0.0849  0.3780  0.3877
  628MOL0     N86543   9.340   3.505   4.961 -0.3975  0.1777 -0.3752
  628MOL0     C86544   9.473   3.478   4.979  0.1682 -0.8269 -0.1444
  628MOL0     C86545   9.546   3.584   4.941 -0.3591 -0.5383  0.1267
  628MOL0     C86546   9.694   3.590   4.972 -0.9569 -0.1840  0.5372
  628MOL0     C86547   9.773   3.655   4.856  0.9545  0.7782 -0.3030
  628MOL0     C86548   9.782   3.547   4.739  0.5758 -0.0087  0.0579
  628MOL0     C86549   9.862   3.620   4.624  0.5742 -0.2009  0.5157
  628MOL0     O86550   9.996   3.638   4.674  0.1729  0.2310  0.0511
  628MOL0     C86551  10.095   3.689   4.591  0.8977 -0.3744  0.1159
  628MOL0     C86552  10.069   3.718   4.460 -0.3405 -0.0958 -0.1143
  628MOL0     C86553  10.178   3.772   4.384 -1.0651 -0.9010  1.1706
  628MOL0     C86554  10.136   3.801   4.245  0.1006 -0.4365  0.4021
  628MOL0     C86555  10.312   3.784   4.435  0.3777  0.0887  0.8419
  628MOL0     C86556  10.425   3.810   4.344  0.6096  0.0311  0.2651
  628MOL0     O86557  10.532   3.722   4.365  0.5071 -0.4092  0.6273
  628MOL0     C86558  10.645   3.749   4.293  0.3177 -0.3947  0.4626
  628MOL0     C86559  10.733   3.850   4.330  0.7548 -0.5826 -0.7626
  628MOL0     C86560  10.861   3.873   4.266  0.5601 -0.3504  0.1703
  628MOL0     C86561  10.894   3.794   4.159  0.0412 -0.3554 -0.6475
  628MOL0     O86562  11.008   3.844   4.098 -0.5364  0.1630 -0.2952
  628MOL0     C86563  11.069   3.767   3.998 -1.1090 -0.0360 -0.8797
  628MOL0     C86564  11.216   3.815   3.990 -0.7157 -0.1122 -0.3498
  628MOL0     C86565  11.302   3.718   3.902 -0.3614 -0.0681  0.4915
  628MOL0     C86566  11.447   3.762   3.888 -0.4563 -0.1133  0.1249
  628MOL0     C86567  11.502   3.681   3.769  0.1625 -0.7435  0.1265
  628MOL0     C86568  11.468   3.739   3.633  0.2556 -0.2535  0.3724
  628MOL0     C86569  11.556   3.659   3.529  0.7643  0.4917 -0.6481
  628MOL0     C86570  11.507   3.703   3.387  0.0199 -0.0797  1.0001
  628MOL0    Cl86571  11.599   3.618   3.258 -0.0300 -0.1580 -0.6016
  628MOL0     C86572  10.804   3.692   4.118  0.2664 -0.5058 -1.0208
  628MOL0     C86573  10.682   3.663   4.191  0.3122 -0.7971 -0.0490
  628MOL0     O86574  10.416   3.903   4.260  0.1250 -0.7530 -0.4349
  628MOL0     C86575  10.336   3.745   4.565 -0.1200  0.5617  0.2828
  628MOL0     C86576  10.228   3.693   4.642 -0.0499 -0.2044  0.5352
  628MOL0     N86577   9.456   3.677   4.889  0.4227  0.0734 -0.4498
  628MOL0     N86578   9.331   3.629   4.902 -0.1263  0.1623  0.3723
  628MOL0     C86579   8.633   3.138   4.076 -0.2894 -0.0094  0.2977
  628MOL0     C86580   8.548   3.100   3.973  0.1898  0.1826 -1.5207
  628MOL0     C86581   8.268   2.883   3.710  0.1511 -0.2538  0.0850
  628MOL0     C86582   8.199   3.000   3.670  0.4880  0.3459  0.6023
  628MOL0     C86583   8.110   2.992   3.566 -0.7108  0.1307 -0.6512
  628MOL0     C86584   8.071   2.876   3.502  0.7635 -0.0700 -0.1307
  628MOL0     O86585   7.971   2.886   3.411 -0.4877  0.4260 -0.7575
  628MOL0     C86586   7.874   2.788   3.431 -0.1870 -0.9869 -0.5726
  628MOL0     C86587   7.757   2.846   3.343  0.1011 -0.3612  0.2656
  628MOL0     C86588   7.628   2.761   3.345  0.2485  0.5791 -0.3042
  628MOL0     C86589   7.621   2.628   3.283  0.0938  0.7540  0.2864
  628MOL0     C86590   7.683   2.608   3.149 -0.7303 -0.3913 -0.1211
  628MOL0     C86591   7.729   2.573   3.040 -0.7413  0.4848 -0.3050
  628MOL0     C86592   8.138   2.760   3.547 -0.6089  0.4207  0.0478
  628MOL0     C86593   8.241   2.762   3.643 -0.5742 -0.2606  0.0522
  628MOL0     C86594   8.303   2.634   3.688 -0.2079 -0.3360  0.2357
  628MOL0     H86595   8.278   3.022   4.154  0.8428 -0.8146  0.9509
  628MOL0     H86596   8.419   3.110   4.336  0.6334 -0.9764  0.1421
  628MOL0     H86597   8.752   3.339   4.226 -0.7961 -0.1525  0.3934
  628MOL0     H86598   8.843   3.186   4.243  1.1741  0.0675  1.0270
  628MOL0     H86599   8.923   3.365   4.383 -0.8436  0.2056 -2.1970
  628MOL0     H86600   8.763   3.385   4.453  0.4213 -0.5292 -0.0222
  628MOL0     H86601   8.784   3.186   4.585  1.2159  0.9393  3.4127
  628MOL0     H86602   8.926   3.127   4.503  0.0910 -0.0519  0.4758
  628MOL0     H86603   9.036   3.361   4.615 -0.4334  0.3623 -0.0537
  628MOL0     H86604   8.884   3.339   4.709 -1.1877 -1.1316 -1.5613
  628MOL0     H86605   9.116   3.153   4.682  1.1823  2.5910 -1.8572
  628MOL0     H86606   8.967   3.110   4.763  1.2506 -1.5051 -1.4676
  628MOL0     H86607   8.996   3.290   4.929 -0.2128  0.1430  0.4603
  628MOL0     H86608   9.122   3.168   4.923  1.5484  1.3175  1.5195
  628MOL0     H86609   9.155   3.440   4.788 -1.3452 -0.6731 -0.4806
  628MOL0     H86610   9.279   3.313   4.805  0.9594  2.4805 -1.4689
  628MOL0     H86611   9.152   3.478   5.043  0.9182  0.8926  1.4025
  628MOL0     H86612   9.259   3.342   5.064  0.3243  1.7077  1.7448
  628MOL0     H86613   9.516   3.385   5.016 -2.3633 -1.7890  0.6306
  628MOL0     H86614   9.743   3.494   4.986  5.1490  2.5090  0.9159
  628MOL0     H86615   9.706   3.650   5.063  1.6036  0.5312 -0.2015
  628MOL0     H86616   9.712   3.741   4.827 -0.9888 -0.9262 -1.5735
  628MOL0     H86617   9.875   3.678   4.888 -0.0632  1.4736  2.7926
  628MOL0     H86618   9.833   3.455   4.770  0.2975 -0.4765 -0.8484
  628MOL0     H86619   9.683   3.515   4.707  0.5879  0.4294 -0.4210
  628MOL0     H86620   9.859   3.570   4.527 -0.4071 -0.0032  0.4295
  628MOL0     H86621   9.819   3.720   4.610  1.0452 -0.0557  0.0566
  628MOL0     H86622   9.971   3.717   4.413  0.5738 -1.4791 -2.1939
  628MOL0     H86623  10.118   3.909   4.247 -1.9767 -0.7019  4.0665
  628MOL0     H86624  10.050   3.737   4.221  0.6657 -1.6618  1.5215
  628MOL0     H86625  10.216   3.776   4.175 -0.3174 -2.2743  0.5217
  628MOL0     H86626  10.719   3.913   4.418  1.5230 -0.1317 -0.9608
  628MOL0     H86627  10.930   3.949   4.300  0.7704  0.9692 -2.8820
  628MOL0     H86628  11.088   3.661   4.020 -0.0639  0.3335  0.1647
  628MOL0     H86629  11.022   3.770   3.900 -0.5023 -0.0801 -1.1816
  628MOL0     H86630  11.228   3.916   3.952  0.9266  1.0452  2.8384
  628MOL0     H86631  11.262   3.815   4.089  0.3302  0.4754 -0.8243
  628MOL0     H86632  11.261   3.730   3.801  2.4133 -1.3651 -0.8999
  628MOL0     H86633  11.290   3.614   3.934  1.2043 -0.7557 -1.0321
  628MOL0     H86634  11.498   3.746   3.983 -1.4498  1.8656  1.0481
  628MOL0     H86635  11.459   3.869   3.875 -3.9692  0.9662  3.7439
  628MOL0     H86636  11.610   3.688   3.783 -0.1901 -0.1067  3.0163
  628MOL0     H86637  11.478   3.575   3.768 -1.3439 -0.4199 -0.5879
  628MOL0     H86638  11.497   3.844   3.619  0.2042 -0.4711 -1.6076
  628MOL0     H86639  11.360   3.727   3.618  0.6266 -3.2504 -0.4720
  628MOL0     H86640  11.540   3.554   3.551 -0.6654  1.0280  1.0741
  628MOL0     H86641  11.662   3.688   3.527  1.4606 -1.6927  0.8675
  628MOL0     H86642  11.531   3.809   3.370 -1.8531 -0.0098 -1.8928
  628MOL0     H86643  11.401   3.678   3.377  0.6577 -2.0780 -1.9065
  628MOL0     H86644  10.840   3.632   4.035  1.1919 -0.0510 -0.9554
  628MOL0     H86645  10.628   3.572   4.168 -2.7481  1.0120 -0.4877
  628MOL0     H86646  10.434   3.763   4.609  0.3165 -1.0981  0.0872
  628MOL0     H86647  10.252   3.670   4.745  1.6371  0.4962  0.3366
  628MOL0     H86648   8.738   3.163   4.062 -0.0016 -1.4088 -0.3162
  628MOL0     H86649   8.587   3.101   3.872  3.6808 -3.1541 -0.4211
  628MOL0     H86650   8.209   3.104   3.702  1.6280  0.1672  0.8797
  628MOL0     H86651   8.062   3.084   3.536  0.7232  0.2769 -2.7246
  628MOL0     H86652   7.907   2.692   3.391 -1.8518 -1.4412 -0.9517
  628MOL0     H86653   7.841   2.768   3.533 -1.9694  1.3224 -0.6250
  628MOL0     H86654   7.796   2.855   3.241 -2.0386 -1.4380 -0.7246
  628MOL0     H86655   7.744   2.947   3.383  1.3020  0.4156 -1.1765
  628MOL0     H86656   7.606   2.746   3.451  1.8256 -0.2531 -0.0664
  628MOL0     H86657   7.550   2.822   3.298  0.3615  0.8191 -0.1821
  628MOL0     H86658   7.519   2.587   3.282  0.0550  0.7961  1.2126
  628MOL0     H86659   7.679   2.569   3.355  0.9278 -0.1945 -1.1172
  628MOL0     H86660   7.757   2.550   2.939 -2.3211 -5.6258  0.2509
  628MOL0     H86661   8.111   2.665   3.504  0.0533 -0.4885  1.5699
  628MOL0     H86662   8.268   2.616   3.790  1.6007  0.8515  1.1014
  628MOL0     H86663   8.264   2.552   3.626  0.7536 -0.8906  0.3427
  628MOL0     H86664   8.412   2.626   3.694 -0.1127 -1.3052 -1.8358
  629MOL0     O86665   9.663   1.028   6.622  0.1456 -0.3414 -1.1366
  629MOL0     C86666   9.604   1.121   6.562  0.5719  0.6532  0.0348
  629MOL0     O86667   9.661   1.204   6.466 -0.3946  0.4683 -0.1707
  629MOL0     C86668   9.786   1.191   6.433 -0.6458  0.4959  0.5724
  629MOL0     C86669   9.893   1.162   6.523  0.8291 -0.1850  0.4653
  629MOL0     C86670  10.016   1.143   6.472  0.1194  0.3889  0.6196
  629MOL0     C86671  10.048   1.171   6.338  0.0611 -0.0448  0.6583
  629MOL0     O86672  10.174   1.200   6.289  0.6816  0.6817  0.7551
  629MOL0     C86673  10.282   1.161   6.375 -0.0808 -0.2001  0.0022
  629MOL0     C86674  10.409   1.155   6.299  0.4899 -0.5063  0.4567
  629MOL0     C86675  10.465   1.296   6.248  0.2475 -0.2694 -0.2521
  629MOL0     C86676  10.619   1.279   6.240 -0.2676 -0.3811 -0.0309
  629MOL0     C86677  10.699   1.387   6.148  0.9385  0.2009  1.0106
  629MOL0     C86678  10.699   1.526   6.216  0.2884 -1.1984 -0.0048
  629MOL0     C86679  10.783   1.637   6.141  0.1353 -0.7539  0.5909
  629MOL0     C86680  10.933   1.603   6.113 -0.1890  0.1854  0.6078
  629MOL0     N86681  10.999   1.727   6.089  0.0770  0.4300  0.0346
  629MOL0     C86682  11.081   1.746   5.983 -0.2245  0.0079  0.3427
  629MOL0     C86683  11.159   1.851   6.026  0.6354 -0.0246  0.4260
  629MOL0     C86684  11.279   1.909   5.942 -0.7227  0.1644  0.0428
  629MOL0     C86685  11.407   1.923   6.028  0.4831 -0.3591 -0.3968
  629MOL0     C86686  11.532   1.985   5.958  0.0239  1.0132 -0.1927
  629MOL0     C86687  11.550   1.937   5.818  0.1193 -0.1154 -0.1841
  629MOL0     O86688  11.668   1.981   5.749 -0.0975 -0.0219 -0.0439
  629MOL0     C86689  11.697   2.103   5.699  0.0495 -0.0460  0.4329
  629MOL0     C86690  11.597   2.199   5.665 -0.6030 -0.6051  0.8634
  629MOL0     C86691  11.623   2.326   5.627 -0.1817  0.2610 -0.7498
  629MOL0     C86692  11.513   2.420   5.601  0.2980  0.7206 -0.8091
  629MOL0     C86693  11.758   2.358   5.601 -0.0194  0.3632 -0.3051
  629MOL0     C86694  11.809   2.498   5.559  0.2166  0.8423 -0.0442
  629MOL0     O86695  11.938   2.503   5.516 -0.3809 -0.2765 -0.1359
  629MOL0     C86696  11.992   2.625   5.487 -0.5886  1.2206 -0.6149
  629MOL0     C86697  11.950   2.752   5.536 -0.1580  0.1553 -0.0776
  629MOL0     C86698  12.027   2.869   5.505  0.5823  1.4090 -0.4690
  629MOL0     C86699  12.129   2.862   5.414  0.3276 -0.0585  0.4076
  629MOL0     O86700  12.220   2.954   5.375  0.1789 -0.0727  0.5852
  629MOL0     C86701  12.206   3.085   5.424  0.5726  0.4665 -0.3315
  629MOL0     C86702  12.312   3.187   5.391 -0.6871  0.4425 -0.3226
  629MOL0     C86703  12.456   3.151   5.413 -0.2086  0.6296  0.1316
  629MOL0     C86704  12.541   3.282   5.407 -0.3456  0.3591  0.3735
  629MOL0     C86705  12.687   3.268   5.445 -0.2931 -0.6193 -0.9267
  629MOL0     C86706  12.710   3.229   5.596  0.1897  0.3820  1.0698
  629MOL0     C86707  12.646   3.344   5.684 -0.2271  0.7388  0.5463
  629MOL0     C86708  12.667   3.319   5.838  0.3092  0.4774 -0.2536
  629MOL0    Cl86709  12.835   3.332   5.885  0.0304  0.3412 -0.6842
  629MOL0     C86710  12.166   2.741   5.363 -0.5990  0.9664  0.5965
  629MOL0     C86711  12.102   2.616   5.402  0.6297 -0.5234 -0.2196
  629MOL0     O86712  11.727   2.593   5.574  0.1874  0.0509  0.7848
  629MOL0     C86713  11.861   2.256   5.617  0.2545  0.0220  0.1506
  629MOL0     C86714  11.826   2.129   5.656 -0.3061 -0.2987  0.4435
  629MOL0     N86715  11.120   1.886   6.152  0.1577 -0.0701  0.1386
  629MOL0     N86716  11.030   1.811   6.188  0.0263  0.2365 -0.5244
  629MOL0     C86717   9.945   1.198   6.248 -0.2528  0.7049 -1.2944
  629MOL0     C86718   9.811   1.203   6.292 -0.1325  0.7006  0.0540
  629MOL0     C86719   9.468   1.152   6.600  0.9207  0.2558  0.6756
  629MOL0     C86720   9.379   1.204   6.500 -0.8234  0.5610  0.5265
  629MOL0     C86721   9.241   1.216   6.530 -0.5563 -0.0980 -0.4229
  629MOL0     C86722   9.197   1.207   6.657  0.0889  0.3476 -1.4240
  629MOL0     O86723   9.075   1.254   6.706  0.3044  0.1538  0.1026
  629MOL0     C86724   8.959   1.249   6.625  0.9762 -0.0372 -0.5641
  629MOL0     C86725   8.899   1.122   6.574 -0.5294 -0.1521  0.3037
  629MOL0     C86726   8.850   1.016   6.667 -0.4295 -0.2343  0.7339
  629MOL0     C86727   8.731   1.067   6.750 -0.2186 -0.5598 -0.0614
  629MOL0     C86728   8.646   0.957   6.807 -0.8708  0.0606 -0.1096
  629MOL0     C86729   8.573   0.868   6.833  0.7944  0.6090 -0.1448
  629MOL0     C86730   9.289   1.167   6.757  0.0874  0.3758 -0.8748
  629MOL0     C86731   9.419   1.134   6.732 -0.3488  0.2741  0.0670
  629MOL0     C86732   9.511   1.108   6.849 -0.0920 -0.1814  0.3559
  629MOL0     H86733   9.875   1.162   6.630 -0.2846 -0.5051  0.2944
  629MOL0     H86734  10.100   1.140   6.542  2.5888  3.6020 -1.8903
  629MOL0     H86735  10.283   1.061   6.419  2.0905  1.0678  3.1414
  629MOL0     H86736  10.295   1.237   6.453 -1.0036  0.8751 -0.8444
  629MOL0     H86737  10.478   1.111   6.372 -1.1979  0.3255  2.6684
  629MOL0     H86738  10.406   1.086   6.215  0.8945 -1.9639  1.5790
  629MOL0     H86739  10.432   1.313   6.145 -2.4921  0.8754  0.7252
  629MOL0     H86740  10.431   1.382   6.306  2.4534  0.6713 -0.2302
  629MOL0     H86741  10.660   1.272   6.341 -0.6027 -0.8928  0.0755
  629MOL0     H86742  10.633   1.179   6.198 -2.7979 -1.1288  0.7146
  629MOL0     H86743  10.649   1.390   6.051  2.9594  0.4220 -0.0782
  629MOL0     H86744  10.802   1.355   6.128  0.8483  1.0920 -1.1510
  629MOL0     H86745  10.593   1.550   6.230  0.3861 -0.2030 -0.8538
  629MOL0     H86746  10.742   1.522   6.317  0.6992  2.6240  0.1227
  629MOL0     H86747  10.777   1.726   6.205  0.5273 -0.8296  0.7337
  629MOL0     H86748  10.735   1.656   6.044 -1.5991  0.9044  1.6851
  629MOL0     H86749  10.982   1.560   6.201  1.7070 -1.2879 -1.0884
  629MOL0     H86750  10.936   1.535   6.027  2.2708  1.1609 -0.1518
  629MOL0     H86751  11.078   1.691   5.890  2.3133 -0.1368  0.2789
  629MOL0     H86752  11.247   2.004   5.898  0.0579  1.5881  2.3914
  629MOL0     H86753  11.303   1.831   5.868  0.2121 -0.7731  1.2843
  629MOL0     H86754  11.377   1.985   6.112 -0.3476 -2.9148  1.3179
  629MOL0     H86755  11.432   1.834   6.086  0.0788  0.1296  0.5339
  629MOL0     H86756  11.530   2.094   5.965  0.2909  0.8974  2.8165
  629MOL0     H86757  11.625   1.956   6.006 -0.1104  0.2576 -0.3836
  629MOL0     H86758  11.557   1.828   5.826 -0.8367 -0.3432 -1.9781
  629MOL0     H86759  11.458   1.951   5.759 -0.6203 -1.5964  0.5557
  629MOL0     H86760  11.495   2.167   5.682 -0.5547 -1.1702  0.1524
  629MOL0     H86761  11.423   2.360   5.614  2.8392 -3.0295  1.5459
  629MOL0     H86762  11.513   2.456   5.498 -3.1996 -0.9530 -1.5433
  629MOL0     H86763  11.512   2.505   5.670  2.3061 -0.9522  1.4553
  629MOL0     H86764  11.865   2.767   5.602  0.0350 -0.5529  0.3468
  629MOL0     H86765  12.000   2.960   5.558 -1.2836  1.5371 -1.5599
  629MOL0     H86766  12.114   3.135   5.392  0.9928  2.0513  0.7837
  629MOL0     H86767  12.190   3.082   5.532  1.1571 -3.9061 -0.2013
  629MOL0     H86768  12.311   3.216   5.285  4.0724  0.6768 -0.5215
  629MOL0     H86769  12.294   3.277   5.450 -3.0558 -0.5924  0.6489
  629MOL0     H86770  12.484   3.073   5.342  1.6400  1.8472 -0.5457
  629MOL0     H86771  12.449   3.110   5.514  2.4180 -1.7398 -0.5409
  629MOL0     H86772  12.503   3.376   5.450  2.1539  2.5061 -1.7817
  629MOL0     H86773  12.535   3.304   5.300 -0.2045  0.0393  0.2982
  629MOL0     H86774  12.740   3.195   5.382 -2.6777 -2.1657 -1.2599
  629MOL0     H86775  12.723   3.370   5.432 -3.0440  0.7483  1.2955
  629MOL0     H86776  12.817   3.232   5.617  0.4928  0.2702 -0.3712
  629MOL0     H86777  12.680   3.125   5.611  0.2139  0.1510 -0.3365
  629MOL0     H86778  12.543   3.345   5.647  0.1803 -0.6780 -0.7372
  629MOL0     H86779  12.689   3.443   5.666 -2.3065  1.7084  0.5576
  629MOL0     H86780  12.626   3.221   5.866  0.6728  0.0458 -1.1585
  629MOL0     H86781  12.622   3.400   5.895  2.6268  1.6988 -0.0182
  629MOL0     H86782  12.241   2.731   5.286  0.7605 -0.0389  1.9754
  629MOL0     H86783  12.149   2.527   5.362  1.2994  0.3950 -1.5610
  629MOL0     H86784  11.968   2.269   5.606 -0.0753  3.0532 -0.2246
  629MOL0     H86785  11.902   2.053   5.670 -1.7116 -1.5460  1.6376
  629MOL0     H86786   9.961   1.221   6.143  2.7998  0.9882 -0.8778
  629MOL0     H86787   9.727   1.233   6.231 -0.1661 -0.5854 -0.5461
  629MOL0     H86788   9.407   1.236   6.400 -1.9249  1.4675  0.4896
  629MOL0     H86789   9.160   1.254   6.468 -0.8083 -1.3685 -0.9016
  629MOL0     H86790   8.888   1.295   6.694  0.8252 -1.9566  0.6185
  629MOL0     H86791   8.972   1.315   6.538  0.7447  1.3595  0.4204
  629MOL0     H86792   8.984   1.077   6.522 -0.6917  2.1567 -2.1850
  629MOL0     H86793   8.821   1.151   6.503 -0.5998  1.0684  0.8459
  629MOL0     H86794   8.820   0.936   6.599  3.0367 -2.1038  1.1346
  629MOL0     H86795   8.927   0.964   6.725 -0.9914 -1.8511  0.0694
  629MOL0     H86796   8.670   1.124   6.678 -0.0435 -1.6214 -1.0779
  629MOL0     H86797   8.765   1.122   6.838 -0.0481 -4.0845  2.2414
  629MOL0     H86798   8.510   0.785   6.856  0.1792  1.3836  1.0881
  629MOL0     H86799   9.252   1.182   6.857 -0.6712  1.9902 -1.3558
  629MOL0     H86800   9.543   1.004   6.841 -0.3541 -0.1214 -2.8295
  629MOL0     H86801   9.598   1.174   6.848  0.2911 -0.6573  1.1665
  629MOL0     H86802   9.471   1.129   6.948  0.9561  0.0651  0.7376
  630MOL0     O86803   5.319   4.368   8.232  0.0757  0.1180  0.6641
  630MOL0     C86804   5.408   4.295   8.187 -0.5724 -1.1815  0.5751
  630MOL0     O86805   5.530   4.344   8.151  0.1539 -0.3342  0.3978
  630MOL0     C86806   5.566   4.471   8.159 -0.7177 -0.6919  0.2584
  630MOL0     C86807   5.498   4.576   8.105 -0.3566  0.1530  0.2768
  630MOL0     C86808   5.550   4.709   8.116 -0.4278  0.1406  0.4212
  630MOL0     C86809   5.678   4.733   8.171 -0.6074 -0.6576 -0.0286
  630MOL0     O86810   5.726   4.862   8.182  0.4154  0.6669 -0.5432
  630MOL0     C86811   5.865   4.900   8.160 -0.9968 -0.0403 -0.7447
  630MOL0     C86812   5.904   4.931   8.020 -0.0077  0.2156 -0.6556
  630MOL0     C86813   5.938   4.804   7.940  0.0327 -0.2084 -0.1764
  630MOL0     C86814   6.055   4.831   7.844 -0.5568  0.3114  0.4105
  630MOL0     C86815   6.099   4.701   7.779 -0.3196  0.5138  0.6254
  630MOL0     C86816   6.203   4.726   7.665 -0.6752  0.6890  0.2084
  630MOL0     C86817   6.266   4.597   7.606  0.0381 -0.0134 -0.3919
  630MOL0     C86818   6.382   4.607   7.509 -0.4620  0.0950 -0.4279
  630MOL0     N86819   6.487   4.697   7.548  0.2312  0.2199  0.0010
  630MOL0     C86820   6.547   4.696   7.672 -0.2617  0.5591 -0.5096
  630MOL0     C86821   6.629   4.801   7.678  0.0958 -0.4302 -1.0458
  630MOL0     C86822   6.717   4.835   7.797  0.6891 -0.1179  0.1358
  630MOL0     C86823   6.850   4.752   7.797 -0.1737  0.6325 -0.4011
  630MOL0     C86824   6.936   4.789   7.916  0.1549 -0.1504 -0.7211
  630MOL0     C86825   6.979   4.941   7.931 -0.3247 -0.0273 -0.2119
  630MOL0     O86826   6.930   4.998   8.056  0.2953 -0.1790 -0.3334
  630MOL0     C86827   6.997   4.975   8.173 -0.5065 -0.2881  0.1205
  630MOL0     C86828   6.963   5.055   8.280  0.5282 -0.0720  0.0530
  630MOL0     C86829   7.023   5.050   8.409 -0.4943 -0.3241  0.1738
  630MOL0     C86830   6.977   5.142   8.515 -0.0880  0.1193 -0.6301
  630MOL0     C86831   7.124   4.949   8.429  0.3408 -0.4213 -0.3185
  630MOL0     C86832   7.192   4.927   8.558 -0.3765 -1.3663  0.3234
  630MOL0     O86833   7.290   4.826   8.562 -0.7049 -0.3770  0.0777
  630MOL0     C86834   7.361   4.810   8.678  0.4217 -0.3410 -0.0612
  630MOL0     C86835   7.473   4.892   8.704  0.1538  0.1758  0.3147
  630MOL0     C86836   7.540   4.877   8.823  0.1833 -0.5791  0.3346
  630MOL0     C86837   7.487   4.793   8.919  0.4115 -0.5646 -0.2759
  630MOL0     O86838   7.544   4.787   9.047  0.1442  0.7289  0.8620
  630MOL0     C86839   7.521   4.895   9.128 -0.6006  0.5348  0.2953
  630MOL0     C86840   7.387   4.903   9.188 -0.2124  0.1477  0.3513
  630MOL0     C86841   7.385   5.015   9.293  0.3250  0.5445  0.2797
  630MOL0     C86842   7.246   5.066   9.313 -1.1966  0.5354  0.1816
  630MOL0     C86843   7.237   5.141   9.453  0.3365 -0.8155 -0.2439
  630MOL0     C86844   7.294   5.288   9.442  0.0871  0.7834 -0.1845
  630MOL0     C86845   7.265   5.358   9.569 -0.9350 -0.4044 -0.4832
  630MOL0     C86846   7.310   5.499   9.554  0.2232  0.0800 -0.6813
  630MOL0    Cl86847   7.478   5.539   9.496  0.0120 -0.4277  0.2203
  630MOL0     C86848   7.378   4.709   8.894  0.0571 -0.4623 -0.2225
  630MOL0     C86849   7.315   4.716   8.771  1.1303 -0.0079 -0.6448
  630MOL0     O86850   7.163   4.994   8.659  0.2744 -0.1261 -0.1125
  630MOL0     C86851   7.159   4.865   8.323  0.4527  0.5285 -0.7226
  630MOL0     C86852   7.094   4.879   8.197 -1.3881  0.1771 -0.5510
  630MOL0     N86853   6.612   4.871   7.563 -0.7512 -0.5255 -0.0095
  630MOL0     N86854   6.539   4.810   7.478  0.4552 -0.4103 -0.3050
  630MOL0     C86855   5.755   4.626   8.208 -0.6363 -0.4268  0.4170
  630MOL0     C86856   5.694   4.499   8.205 -0.0316 -0.2763 -1.3008
  630MOL0     C86857   5.364   4.152   8.176  0.3051  0.2195 -0.3629
  630MOL0     C86858   5.231   4.123   8.194  0.5889 -0.4232 -0.1486
  630MOL0     C86859   5.189   3.986   8.183 -0.0576 -1.2264 -0.3085
  630MOL0     C86860   5.265   3.890   8.132 -0.0125 -0.5798 -0.3167
  630MOL0     O86861   5.199   3.773   8.107  0.9065 -0.4225 -0.1059
  630MOL0     C86862   5.283   3.658   8.091 -1.2005  0.1720 -0.2455
  630MOL0     C86863   5.186   3.537   8.098  0.5996  0.6494 -0.5002
  630MOL0     C86864   5.081   3.545   7.986 -0.0999  0.6875  0.8634
  630MOL0     C86865   5.001   3.413   7.973  0.1315 -0.0843 -0.0918
  630MOL0     C86866   5.084   3.302   7.929 -0.1004  0.3373 -0.5302
  630MOL0     C86867   5.162   3.210   7.906 -0.0259  0.0244 -0.9919
  630MOL0     C86868   5.398   3.911   8.117  0.8824  0.6200 -0.1974
  630MOL0     C86869   5.447   4.035   8.153  0.3181  0.5279 -0.2040
  630MOL0     C86870   5.597   4.044   8.178  0.2499 -0.6596  0.0430
  630MOL0     H86871   5.400   4.559   8.062 -1.2751  0.2560  2.2390
  630MOL0     H86872   5.486   4.789   8.080  1.9687  1.2926 -1.6545
  630MOL0     H86873   5.932   4.833   8.215 -1.5910 -0.1123 -0.0857
  630MOL0     H86874   5.862   4.995   8.213  1.5600 -0.3375  0.0624
  630MOL0     H86875   5.827   4.990   7.970 -0.6640 -0.4761 -0.4806
  630MOL0     H86876   5.979   5.009   8.032 -2.4113  2.2218  3.5880
  630MOL0     H86877   5.957   4.725   8.013  1.5448  1.3962  1.2642
  630MOL0     H86878   5.849   4.779   7.881  0.5666 -1.6238 -0.4097
  630MOL0     H86879   6.028   4.909   7.773  0.2262  2.1752  2.0354
  630MOL0     H86880   6.138   4.861   7.909 -0.2072 -1.7516  1.0163
  630MOL0     H86881   6.011   4.661   7.727  2.0695 -2.5234 -1.4640
  630MOL0     H86882   6.139   4.628   7.850 -1.0930 -0.8772 -0.3111
  630MOL0     H86883   6.155   4.790   7.591 -2.7514  0.6335  1.4346
  630MOL0     H86884   6.285   4.782   7.711  0.5641  1.0953 -2.3059
  630MOL0     H86885   6.179   4.540   7.573 -2.6501  2.3004  2.0555
  630MOL0     H86886   6.308   4.547   7.694  4.4765  0.3204 -2.0570
  630MOL0     H86887   6.425   4.506   7.503  1.9450  0.9113  1.3559
  630MOL0     H86888   6.337   4.634   7.413  0.0552 -2.1025 -1.3680
  630MOL0     H86889   6.540   4.617   7.746 -1.5533  0.5322 -0.6424
  630MOL0     H86890   6.668   4.813   7.892  1.8381  1.2572  1.0810
  630MOL0     H86891   6.746   4.941   7.797  2.6121 -0.6124 -0.2372
  630MOL0     H86892   6.811   4.650   7.797 -2.1851  1.3649 -0.6054
  630MOL0     H86893   6.905   4.758   7.703  1.7478 -2.9799  0.3123
  630MOL0     H86894   6.882   4.758   8.006  0.2128  2.2259  0.2113
  630MOL0     H86895   7.028   4.730   7.911 -0.3431 -0.9557 -0.5178
  630MOL0     H86896   7.088   4.948   7.937 -0.0744 -0.9796 -2.4402
  630MOL0     H86897   6.951   4.995   7.839 -0.8692 -1.0648 -0.6769
  630MOL0     H86898   6.899   5.140   8.259 -0.0043 -0.6728 -0.8129
  630MOL0     H86899   7.061   5.189   8.566 -1.4147  2.4872 -0.4912
  630MOL0     H86900   6.918   5.086   8.588 -0.3066  0.9287 -0.1761
  630MOL0     H86901   6.913   5.215   8.465 -1.0321  3.4994  4.7318
  630MOL0     H86902   7.494   4.965   8.626  3.0673  0.5875  1.3712
  630MOL0     H86903   7.627   4.937   8.845  0.6236 -1.4549  1.0009
  630MOL0     H86904   7.592   4.879   9.210 -1.6795 -2.4759  0.7497
  630MOL0     H86905   7.552   4.986   9.076 -2.1969  0.9713  0.0430
  630MOL0     H86906   7.310   4.928   9.115  0.5492  0.9766 -0.1976
  630MOL0     H86907   7.368   4.813   9.247 -0.7984  0.4868  0.6816
  630MOL0     H86908   7.443   5.101   9.258  2.4404 -1.8492 -2.6314
  630MOL0     H86909   7.431   4.983   9.387  1.5523  0.2148 -0.4057
  630MOL0     H86910   7.173   4.985   9.304 -2.0631  1.1062  1.7615
  630MOL0     H86911   7.226   5.143   9.237 -0.1355 -0.4160 -1.1214
  630MOL0     H86912   7.131   5.155   9.478  0.0972 -1.5282 -0.8108
  630MOL0     H86913   7.291   5.078   9.524 -0.9618 -0.4013  1.1717
  630MOL0     H86914   7.239   5.336   9.361 -0.3116  0.1081 -0.3246
  630MOL0     H86915   7.401   5.276   9.425 -0.1379 -2.5344  0.0756
  630MOL0     H86916   7.334   5.306   9.637  1.8229  2.1188 -1.1580
  630MOL0     H86917   7.163   5.351   9.609  0.2219  1.7990  3.4580
  630MOL0     H86918   7.280   5.559   9.640 -0.4060  1.4509 -1.8012
  630MOL0     H86919   7.249   5.539   9.472 -1.1671 -0.3166  0.1230
  630MOL0     H86920   7.340   4.650   8.977  1.5047  0.5822  1.2690
  630MOL0     H86921   7.230   4.650   8.751 -0.1250  1.4057 -0.1533
  630MOL0     H86922   7.227   4.782   8.338 -0.3174 -0.4897 -2.5528
  630MOL0     H86923   7.112   4.801   8.123  2.8902  1.4771 -1.1334
  630MOL0     H86924   5.858   4.628   8.243  0.2005 -1.8039 -1.7233
  630MOL0     H86925   5.752   4.418   8.248  2.6579  2.0580 -0.2278
  630MOL0     H86926   5.152   4.198   8.202 -1.0820 -2.1146 -0.2283
  630MOL0     H86927   5.086   3.956   8.172 -0.8667  0.8635  0.8965
  630MOL0     H86928   5.354   3.658   8.008  0.7927 -4.3383  1.1694
  630MOL0     H86929   5.348   3.656   8.178  0.8244 -1.0113 -1.7161
  630MOL0     H86930   5.151   3.526   8.201 -0.7159 -1.3992 -1.1118
  630MOL0     H86931   5.249   3.449   8.082  3.0620  2.0835  0.6945
  630MOL0     H86932   5.014   3.630   8.000 -0.0709  0.7961  0.3731
  630MOL0     H86933   5.128   3.558   7.888  0.7746 -0.5953  1.0775
  630MOL0     H86934   4.921   3.438   7.903  1.3783  3.2338 -0.5177
  630MOL0     H86935   4.957   3.390   8.071  2.0447 -0.0150  0.8258
  630MOL0     H86936   5.245   3.142   7.898  0.3796 -0.2827  3.5226
  630MOL0     H86937   5.469   3.840   8.076 -0.8729 -0.8675 -0.8031
  630MOL0     H86938   5.645   4.079   8.086 -0.3859 -0.1775 -0.1219
  630MOL0     H86939   5.606   4.132   8.243 -2.8093  1.5448 -2.1669
  630MOL0     H86940   5.629   3.949   8.221 -0.0963 -0.3947  0.9132
  631MOL0     O86941   9.346   4.529   8.407 -0.5942  1.1496 -0.6573
  631MOL0     C86942   9.266   4.468   8.476 -0.7928 -0.1724 -0.1914
  631MOL0     O86943   9.256   4.331   8.490 -0.1823  1.0095  0.2238
  631MOL0     C86944   9.360   4.256   8.450  0.4168 -0.0812  0.2211
  631MOL0     C86945   9.329   4.139   8.375  0.4513 -0.6391  0.3131
  631MOL0     C86946   9.430   4.060   8.316 -0.0805 -1.3983  0.1422
  631MOL0     C86947   9.567   4.081   8.352  0.6694 -0.4082 -0.4845
  631MOL0     O86948   9.651   3.986   8.304 -0.4809  0.5121 -0.9591
  631MOL0     C86949   9.796   4.001   8.311  0.3916 -0.1616 -0.4239
  631MOL0     C86950   9.852   4.053   8.181  0.5516 -0.1654 -0.6064
  631MOL0     C86951  10.000   4.082   8.183 -0.3656  1.6110 -0.0326
  631MOL0     C86952  10.039   4.170   8.071 -0.5500 -0.0644  0.1020
  631MOL0     C86953  10.200   4.169   8.066  0.3938 -0.1417  1.0383
  631MOL0     C86954  10.255   4.059   7.996 -0.2655  0.7393  0.6083
  631MOL0     C86955  10.412   4.053   7.994  0.3679 -0.5469 -0.1097
  631MOL0     C86956  10.467   3.940   7.909 -0.7555 -0.5263  0.1060
  631MOL0     N86957  10.494   3.968   7.765 -0.6927  0.4285 -0.5214
  631MOL0     C86958  10.417   4.037   7.680  0.2784  0.1453  0.0981
  631MOL0     C86959  10.470   4.014   7.562 -0.2902  0.3354 -0.1532
  631MOL0     C86960  10.431   4.101   7.439 -0.5411 -0.2223  0.3442
  631MOL0     C86961  10.539   4.204   7.392 -0.8871 -0.6590  0.1197
  631MOL0     C86962  10.552   4.319   7.497  0.0362  0.1607  0.0969
  631MOL0     C86963  10.645   4.436   7.441  0.0481  0.3049 -0.5116
  631MOL0     O86964  10.780   4.383   7.401  0.1326 -0.0936  0.0171
  631MOL0     C86965  10.885   4.365   7.490  0.3124 -0.2261  0.9584
  631MOL0     C86966  10.904   4.251   7.564  0.3565  0.5366  0.1219
  631MOL0     C86967  11.024   4.231   7.622  0.6393  0.5984 -0.4735
  631MOL0     C86968  11.044   4.091   7.674 -0.3215  0.6551  0.8680
  631MOL0     C86969  11.126   4.324   7.626 -0.1238 -0.1928  0.3796
  631MOL0     C86970  11.261   4.315   7.695 -0.6875  0.8876 -0.5996
  631MOL0     O86971  11.354   4.412   7.664  0.1580 -0.1258  0.3066
  631MOL0     C86972  11.477   4.402   7.715  0.6039  0.0151  0.9934
  631MOL0     C86973  11.556   4.301   7.670  0.0890  0.1171  1.1485
  631MOL0     C86974  11.687   4.294   7.709 -0.3333 -0.2502 -0.4692
  631MOL0     C86975  11.748   4.389   7.796  0.3138  1.2174  0.3002
  631MOL0     O86976  11.881   4.370   7.834 -0.4157  0.3064  0.4144
  631MOL0     C86977  11.950   4.498   7.872 -0.4732  0.0074  0.7156
  631MOL0     C86978  12.104   4.464   7.889 -0.1073 -0.4881  0.1637
  631MOL0     C86979  12.136   4.407   8.029 -0.4749  0.0296  0.3950
  631MOL0     C86980  12.296   4.377   8.036 -0.5956 -0.1660  0.2908
  631MOL0     C86981  12.325   4.289   8.165 -0.8440 -0.0571 -0.1979
  631MOL0     C86982  12.481   4.266   8.179 -0.1005  0.2379 -0.1206
  631MOL0     C86983  12.522   4.209   8.314  0.5531 -1.1455 -0.0350
  631MOL0     C86984  12.653   4.149   8.293  0.1559 -0.4248 -0.6508
  631MOL0    Cl86985  12.769   4.264   8.216 -0.0251  0.0828 -0.0513
  631MOL0     C86986  11.667   4.495   7.836 -0.3223 -0.3602 -0.3528
  631MOL0     C86987  11.532   4.501   7.799  0.1481  0.9496  0.6499
  631MOL0     O86988  11.283   4.224   7.776  0.0534  0.0982 -0.0651
  631MOL0     C86989  11.096   4.441   7.564 -1.1679  0.5955  0.1779
  631MOL0     C86990  10.987   4.457   7.491  0.5552 -0.2924  0.0459
  631MOL0     N86991  10.576   3.932   7.568  0.8548 -0.1201 -0.4602
  631MOL0     N86992  10.587   3.896   7.696 -0.9045 -0.3878 -0.5480
  631MOL0     C86993   9.600   4.198   8.422  0.1962  0.3428  0.2560
  631MOL0     C86994   9.498   4.282   8.469 -0.3591  0.6722 -0.4208
  631MOL0     C86995   9.180   4.551   8.567 -0.3053 -0.1638 -0.5015
  631MOL0     C86996   9.168   4.509   8.703  0.5351  0.3015  0.0436
  631MOL0     C86997   9.107   4.592   8.796  0.2160  0.3915 -0.1590
  631MOL0     C86998   9.027   4.698   8.757  0.0667 -0.5705 -0.2658
  631MOL0     O86999   8.947   4.771   8.845  0.8354  0.0863 -0.1632
  631MOL0     C87000   8.932   4.713   8.982  0.2978  0.1575  0.4691
  631MOL0     C87001   8.824   4.788   9.060  0.3597  0.5619 -0.2480
  631MOL0     C87002   8.864   4.929   9.093 -0.7689  0.0163 -0.1132
  631MOL0     C87003   8.753   4.992   9.186 -1.4116  1.1071  0.0322
  631MOL0     C87004   8.625   5.016   9.132 -0.1965 -0.7410  0.1954
  631MOL0     C87005   8.517   5.027   9.079 -1.4240  0.9829  0.7477
  631MOL0     C87006   9.032   4.734   8.622  0.2787 -0.4997 -0.6304
  631MOL0     C87007   9.115   4.672   8.531 -0.3327  0.2455  0.6911
  631MOL0     C87008   9.130   4.730   8.388  1.2030  0.5998 -0.5449
  631MOL0     H87009   9.225   4.114   8.355  0.8832 -1.2585 -1.2890
  631MOL0     H87010   9.400   3.965   8.273  1.4339 -1.9402  0.2260
  631MOL0     H87011   9.831   3.899   8.326  0.0290 -0.1439  0.5988
  631MOL0     H87012   9.838   4.065   8.389  0.2293  2.6230 -2.4588
  631MOL0     H87013   9.836   3.991   8.092  0.6851 -2.6043  0.9932
  631MOL0     H87014   9.796   4.142   8.148  0.3141 -0.1957 -0.2938
  631MOL0     H87015  10.039   4.109   8.281 -0.7585  1.8026  0.0746
  631MOL0     H87016  10.050   3.985   8.169 -1.8575  0.3809  2.4746
  631MOL0     H87017   9.988   4.159   7.975  1.6380  1.2389 -1.2972
  631MOL0     H87018  10.014   4.268   8.113  0.6693 -0.3207  1.5413
  631MOL0     H87019  10.236   4.152   8.168 -0.8918 -0.3657  1.4756
  631MOL0     H87020  10.222   4.270   8.028  0.4001 -0.7473 -0.6187
  631MOL0     H87021  10.200   3.968   8.024 -3.1165  1.1604 -2.9079
  631MOL0     H87022  10.233   4.076   7.890  1.6293  3.2484  0.5492
  631MOL0     H87023  10.442   4.044   8.099 -2.8355 -1.2851  0.8566
  631MOL0     H87024  10.455   4.144   7.952  2.1114 -2.1953 -2.1235
  631MOL0     H87025  10.566   3.911   7.944 -0.2491 -0.3920 -1.1703
  631MOL0     H87026  10.398   3.856   7.896 -0.1750 -0.5223 -5.1186
  631MOL0     H87027  10.325   4.093   7.695 -1.5851 -2.6014 -0.4395
  631MOL0     H87028  10.339   4.155   7.466 -0.3537  1.3761 -1.9505
  631MOL0     H87029  10.404   4.031   7.360 -2.9776 -0.8952  1.6522
  631MOL0     H87030  10.632   4.145   7.392 -2.5121 -3.4895 -2.0777
  631MOL0     H87031  10.517   4.245   7.293 -1.2066 -0.0187  0.4508
  631MOL0     H87032  10.454   4.356   7.529 -1.3597 -3.7539  0.9194
  631MOL0     H87033  10.603   4.288   7.588  0.1874 -0.3088 -0.1471
  631MOL0     H87034  10.596   4.476   7.352  1.6560 -1.0712 -2.0767
  631MOL0     H87035  10.663   4.512   7.518 -1.5819 -0.1990  0.4372
  631MOL0     H87036  10.828   4.174   7.558  1.0506 -0.0564 -2.3928
  631MOL0     H87037  11.142   4.049   7.650 -1.2644 -1.9794  1.2734
  631MOL0     H87038  10.977   4.013   7.638 -0.3288  0.7119  0.7558
  631MOL0     H87039  11.036   4.087   7.783  0.8516 -3.5637  0.9547
  631MOL0     H87040  11.520   4.228   7.598 -3.0608  2.6275 -0.0876
  631MOL0     H87041  11.746   4.209   7.677 -0.6763 -1.0699  1.0111
  631MOL0     H87042  11.930   4.565   7.788  1.4773 -1.5002 -1.0746
  631MOL0     H87043  11.922   4.542   7.968 -0.7166  1.9461 -0.2042
  631MOL0     H87044  12.143   4.390   7.819  1.9609 -1.7695  2.4776
  631MOL0     H87045  12.162   4.557   7.884 -0.5385  0.0103  2.7792
  631MOL0     H87046  12.098   4.306   8.049  1.5175 -0.5826  1.2497
  631MOL0     H87047  12.103   4.472   8.110 -2.2757 -1.7243  1.1552
  631MOL0     H87048  12.333   4.478   8.053 -1.4407  0.6859 -2.3526
  631MOL0     H87049  12.337   4.331   7.946 -1.7693 -1.2163  0.2582
  631MOL0     H87050  12.295   4.354   8.248  0.3753  0.8412 -0.4173
  631MOL0     H87051  12.273   4.193   8.170  1.0610 -1.1319  0.0375
  631MOL0     H87052  12.520   4.367   8.160 -1.3181  0.7144 -0.2114
  631MOL0     H87053  12.513   4.199   8.099  0.7972  2.0454 -1.3598
  631MOL0     H87054  12.445   4.141   8.350 -0.5264  0.5066  0.9028
  631MOL0     H87055  12.525   4.294   8.383 -2.0951 -0.5090 -0.5566
  631MOL0     H87056  12.650   4.056   8.235  1.9610 -0.6721 -0.4188
  631MOL0     H87057  12.698   4.111   8.385 -1.4613 -1.2880 -0.1722
  631MOL0     H87058  11.723   4.577   7.881 -1.4606  0.7621 -0.9098
  631MOL0     H87059  11.464   4.573   7.842 -0.4835 -0.2825  1.7925
  631MOL0     H87060  11.171   4.511   7.532 -1.0759 -1.1447 -4.0365
  631MOL0     H87061  10.969   4.550   7.438 -0.4030  0.3950  1.5244
  631MOL0     H87062   9.697   4.217   8.466  0.9555 -1.6302 -0.4579
  631MOL0     H87063   9.524   4.368   8.530 -0.4645  1.0577 -0.9184
  631MOL0     H87064   9.221   4.422   8.740  2.5534  1.3326 -0.2699
  631MOL0     H87065   9.112   4.552   8.897  3.8461  3.2919  1.0228
  631MOL0     H87066   8.884   4.615   8.971 -0.2440  0.0058  3.4940
  631MOL0     H87067   9.021   4.700   9.045 -0.5233 -1.7690  1.2934
  631MOL0     H87068   8.806   4.738   9.156 -0.0719 -1.3646 -1.2726
  631MOL0     H87069   8.738   4.804   8.995  1.8109  4.8080 -1.4340
  631MOL0     H87070   8.962   4.929   9.141 -0.4253  1.8033 -0.7090
  631MOL0     H87071   8.871   4.991   9.003  1.6495  0.3995  0.2683
  631MOL0     H87072   8.792   5.089   9.217  1.3513  0.3918 -0.9144
  631MOL0     H87073   8.755   4.936   9.280  0.5615 -1.9732 -1.6485
  631MOL0     H87074   8.430   5.024   9.016 -0.5316 -0.5053 -0.4697
  631MOL0     H87075   8.969   4.813   8.584  0.0977 -0.3591 -0.0473
  631MOL0     H87076   9.104   4.651   8.316  2.3428  0.8008 -1.1962
  631MOL0     H87077   9.070   4.820   8.372  1.1918  0.3350 -2.2222
  631MOL0     H87078   9.231   4.761   8.359  0.4844  2.9620 -0.7279
  632MOL0     O87079   3.012   6.156   8.960 -0.3413  0.0328 -0.7140
  632MOL0     C87080   3.066   6.260   8.932 -0.0588  0.1425  0.9618
  632MOL0     O87081   3.199   6.279   8.920  0.6536 -0.1919  0.3963
  632MOL0     C87082   3.285   6.176   8.956  0.0458  0.7816 -0.9566
  632MOL0     C87083   3.307   6.143   9.090  0.4125 -0.3481  0.0720
  632MOL0     C87084   3.390   6.033   9.129  1.3782 -0.2925  0.3905
  632MOL0     C87085   3.449   5.949   9.029  0.6491 -0.3265  0.2379
  632MOL0     O87086   3.512   5.835   9.072  1.0802  0.8265  1.0293
  632MOL0     C87087   3.611   5.782   8.985 -0.6236 -0.6442  1.1252
  632MOL0     C87088   3.716   5.724   9.081  0.3612  0.0866 -0.2639
  632MOL0     C87089   3.795   5.836   9.140 -0.0440 -0.9389  0.0752
  632MOL0     C87090   3.909   5.785   9.234 -0.2477 -0.2988 -0.0062
  632MOL0     C87091   4.014   5.886   9.259  0.0387 -0.4940  0.5307
  632MOL0     C87092   4.003   5.997   9.362  0.8871 -0.1147 -0.1948
  632MOL0     C87093   4.124   6.080   9.356 -0.6571  0.2209 -0.0244
  632MOL0     C87094   4.120   6.173   9.475  0.2050  1.0365 -0.0512
  632MOL0     N87095   4.221   6.268   9.491 -0.4063 -0.3439 -0.6626
  632MOL0     C87096   4.331   6.241   9.576  0.1543  0.3407 -0.1762
  632MOL0     C87097   4.391   6.360   9.589 -0.1192  0.3365  0.6285
  632MOL0     C87098   4.522   6.376   9.657 -0.1573  0.3204 -0.5435
  632MOL0     C87099   4.565   6.521   9.642 -0.6441 -0.2504 -0.5620
  632MOL0     C87100   4.681   6.538   9.744  0.1487  0.6890  0.1225
  632MOL0     C87101   4.736   6.679   9.732  0.4722  0.7218  1.0511
  632MOL0     O87102   4.779   6.735   9.856 -0.0682 -0.4910 -0.0358
  632MOL0     C87103   4.679   6.804   9.927 -1.0129 -0.2363 -0.9128
  632MOL0     C87104   4.549   6.820   9.895 -0.3824  0.5883  0.2235
  632MOL0     C87105   4.468   6.910   9.955 -0.6390  1.1740 -0.2212
  632MOL0     C87106   4.323   6.906   9.919  1.0932 -0.7605  1.4060
  632MOL0     C87107   4.524   6.997  10.054 -1.0488  0.5946 -0.3466
  632MOL0     C87108   4.449   7.120  10.110  0.5721 -0.0667 -0.2856
  632MOL0     O87109   4.336   7.174  10.045  0.3872 -0.0299 -0.9254
  632MOL0     C87110   4.288   7.296  10.091 -0.6215 -0.9150  0.6562
  632MOL0     C87111   4.256   7.311  10.225  0.1198  0.2307 -0.3427
  632MOL0     C87112   4.196   7.429  10.278 -0.4700 -0.3752 -0.0634
  632MOL0     C87113   4.175   7.539  10.194 -0.1130  0.4762 -0.8969
  632MOL0     O87114   4.119   7.653  10.227 -0.2693  0.5725  0.0588
  632MOL0     C87115   4.169   7.704  10.355 -0.2022  0.4010 -0.5666
  632MOL0     C87116   4.099   7.834  10.394 -0.0002  0.9504  0.5529
  632MOL0     C87117   3.954   7.820  10.369  0.6802  0.8998  0.1955
  632MOL0     C87118   3.871   7.926  10.447  0.0715 -0.3763 -0.5650
  632MOL0     C87119   3.719   7.888  10.459  0.5286 -0.5084  0.1488
  632MOL0     C87120   3.634   7.880  10.338 -0.2301 -0.8994  0.7893
  632MOL0     C87121   3.508   7.810  10.380  0.7890 -0.9652  0.4875
  632MOL0     C87122   3.413   7.769  10.265  0.5691  0.3899  0.2686
  632MOL0    Cl87123   3.469   7.643  10.166  0.1831  0.1023 -0.5216
  632MOL0     C87124   4.198   7.521  10.057  0.0177  0.0126 -0.3289
  632MOL0     C87125   4.252   7.401   9.999 -0.2071 -0.1681 -0.7033
  632MOL0     O87126   4.497   7.166  10.214  0.0050 -0.0046  0.1759
  632MOL0     C87127   4.660   6.980  10.084  0.3600 -0.9543  0.1909
  632MOL0     C87128   4.739   6.883  10.031  0.0073  0.0779 -0.0262
  632MOL0     N87129   4.329   6.448   9.503  0.8660 -0.0853 -0.0752
  632MOL0     N87130   4.228   6.397   9.444  0.0894 -0.0128  0.0671
  632MOL0     C87131   3.435   5.992   8.898  0.2138  0.1479 -0.3178
  632MOL0     C87132   3.366   6.110   8.861 -1.0685  0.9105  0.4212
  632MOL0     C87133   2.974   6.354   8.858 -0.4421 -1.3469 -0.5762
  632MOL0     C87134   2.844   6.365   8.897 -0.5224 -0.2381 -0.3632
  632MOL0     C87135   2.750   6.456   8.836 -0.5932 -0.8620  0.2627
  632MOL0     C87136   2.786   6.524   8.722 -0.7355  0.3652  1.0770
  632MOL0     O87137   2.704   6.613   8.656  0.2125  0.4993 -0.0058
  632MOL0     C87138   2.598   6.547   8.576 -0.9620 -0.7656 -1.0430
  632MOL0     C87139   2.461   6.579   8.641  0.8257  0.5163  0.0380
  632MOL0     C87140   2.419   6.722   8.688 -0.2177  0.1296 -0.0805
  632MOL0     C87141   2.268   6.718   8.727 -0.1887 -0.2951 -0.6315
  632MOL0     C87142   2.168   6.729   8.621 -0.1575 -0.3127 -0.9986
  632MOL0     C87143   2.108   6.754   8.519 -0.2296  0.7962  0.1123
  632MOL0     C87144   2.924   6.518   8.686 -0.2739 -0.6258 -0.9960
  632MOL0     C87145   3.020   6.439   8.756 -0.0908 -0.2358  0.2199
  632MOL0     C87146   3.156   6.454   8.709 -0.3107  0.4518  0.7082
  632MOL0     H87147   3.260   6.193   9.173  0.1920 -0.6469  0.1269
  632MOL0     H87148   3.402   6.008   9.234  2.0689 -1.2192  0.1096
  632MOL0     H87149   3.665   5.855   8.924  0.7792 -1.4391  1.3836
  632MOL0     H87150   3.566   5.709   8.918  0.1040  0.6726 -0.8751
  632MOL0     H87151   3.672   5.663   9.160  2.1927 -0.0778  0.6543
  632MOL0     H87152   3.786   5.664   9.024 -0.6905 -1.3064 -0.1366
  632MOL0     H87153   3.841   5.898   9.063 -0.1188  0.3459  1.0353
  632MOL0     H87154   3.735   5.910   9.193  2.9390  2.7047 -1.2011
  632MOL0     H87155   3.873   5.763   9.335  2.6197  0.3723  1.2447
  632MOL0     H87156   3.960   5.702   9.184 -3.0587 -1.6046 -0.9331
  632MOL0     H87157   4.048   5.925   9.162 -0.9668 -1.0753 -0.0683
  632MOL0     H87158   4.103   5.827   9.284  0.6056 -0.0800 -0.4253
  632MOL0     H87159   3.908   6.052   9.357 -1.0536 -2.9131  2.2854
  632MOL0     H87160   4.005   5.950   9.461  1.0109 -0.8321 -0.5321
  632MOL0     H87161   4.125   6.137   9.263  3.1568 -1.6213 -1.3442
  632MOL0     H87162   4.220   6.028   9.362 -1.3461 -0.9382  1.5588
  632MOL0     H87163   4.026   6.225   9.455 -0.5244  0.1085  0.8272
  632MOL0     H87164   4.105   6.131   9.575 -0.7945  0.2918 -0.4895
  632MOL0     H87165   4.348   6.151   9.635  0.5451  1.4083  1.3771
  632MOL0     H87166   4.589   6.298   9.620 -0.3647 -0.8651  1.4415
  632MOL0     H87167   4.512   6.358   9.765  1.6411 -0.9293 -0.5439
  632MOL0     H87168   4.601   6.542   9.541 -0.3837  1.9760 -0.0512
  632MOL0     H87169   4.478   6.586   9.654 -0.0138  0.6147 -0.6440
  632MOL0     H87170   4.655   6.527   9.850  1.5092  1.8701  0.6221
  632MOL0     H87171   4.764   6.471   9.722  1.4988  1.9179  1.2367
  632MOL0     H87172   4.824   6.664   9.669 -0.2201 -1.3375  0.4914
  632MOL0     H87173   4.664   6.746   9.685 -0.8554 -0.3807  1.4408
  632MOL0     H87174   4.496   6.762   9.820  0.1997 -0.9623  0.9801
  632MOL0     H87175   4.285   6.812   9.877 -5.2813  1.2903  1.5090
  632MOL0     H87176   4.306   6.980   9.840 -3.2342  1.1037  3.7057
  632MOL0     H87177   4.260   6.928  10.006 -3.3169 -1.7913 -1.2047
  632MOL0     H87178   4.273   7.227  10.291  0.5985  0.1175 -0.5979
  632MOL0     H87179   4.176   7.435  10.385 -0.7882  5.1833 -0.1378
  632MOL0     H87180   4.158   7.633  10.437 -2.3823 -0.2778 -1.3669
  632MOL0     H87181   4.274   7.733  10.365 -0.3520  1.8397 -2.6497
  632MOL0     H87182   4.118   7.856  10.500  0.6251 -1.4514  0.9998
  632MOL0     H87183   4.147   7.913  10.336 -0.1762 -0.7707 -2.1205
  632MOL0     H87184   3.916   7.718  10.382  0.3794  1.0338  0.4003
  632MOL0     H87185   3.936   7.842  10.263 -0.8238 -3.5958 -0.6794
  632MOL0     H87186   3.882   8.026  10.402 -2.0772  0.0592 -0.2282
  632MOL0     H87187   3.904   7.920  10.551  1.2436 -4.0955 -1.0334
  632MOL0     H87188   3.723   7.792  10.513 -2.8580 -0.8320  0.0582
  632MOL0     H87189   3.674   7.956  10.532  0.8280  0.4170 -0.5260
  632MOL0     H87190   3.687   7.831  10.255 -1.9463 -0.3260 -0.7048
  632MOL0     H87191   3.616   7.982  10.301 -0.7728 -1.3272 -0.1702
  632MOL0     H87192   3.444   7.886  10.427 -2.3701 -1.4517 -2.6041
  632MOL0     H87193   3.542   7.732  10.449  1.6905  1.4603  2.9737
  632MOL0     H87194   3.370   7.852  10.207  2.1773  0.7435 -0.4734
  632MOL0     H87195   3.333   7.711  10.313  0.3491  1.4014  1.1648
  632MOL0     H87196   4.193   7.606   9.989  3.2430 -0.8091 -1.8143
  632MOL0     H87197   4.271   7.393   9.892  0.0438 -1.0967 -0.5969
  632MOL0     H87198   4.706   7.054  10.148 -0.1677  0.8170 -1.3987
  632MOL0     H87199   4.847   6.880  10.043  0.0804 -2.4074 -0.6910
  632MOL0     H87200   3.476   5.928   8.820 -0.7078 -0.4449 -0.3422
  632MOL0     H87201   3.357   6.127   8.754  1.6635 -1.3199 -0.3035
  632MOL0     H87202   2.811   6.306   8.981 -1.4276  2.0456  0.9814
  632MOL0     H87203   2.648   6.451   8.872 -0.4845 -3.7193  0.3640
  632MOL0     H87204   2.599   6.605   8.483 -1.2717 -1.0792 -1.2441
  632MOL0     H87205   2.609   6.440   8.556 -2.5757 -1.7669  2.5765
  632MOL0     H87206   2.454   6.515   8.729 -0.7397 -1.1893 -1.2482
  632MOL0     H87207   2.393   6.532   8.569 -0.8717  2.7931  0.0428
  632MOL0     H87208   2.476   6.762   8.772 -0.2741 -0.3706  0.1948
  632MOL0     H87209   2.437   6.789   8.603  0.6232  2.1273  1.5768
  632MOL0     H87210   2.244   6.787   8.809 -2.1527 -0.6910 -0.8204
  632MOL0     H87211   2.232   6.628   8.778 -1.8548  0.2814 -0.7030
  632MOL0     H87212   2.067   6.765   8.421 -1.3492  0.2824  0.5022
  632MOL0     H87213   2.945   6.590   8.607 -1.4922  1.2771  0.3462
  632MOL0     H87214   3.227   6.474   8.790 -1.6823  0.6203  1.9206
  632MOL0     H87215   3.181   6.365   8.652 -1.4270  0.8284 -0.4288
  632MOL0     H87216   3.156   6.540   8.641  0.7039  1.2355  1.6702
  633MOL0     O87217  10.222   0.206   2.891  0.2466 -0.2729 -0.4728
  633MOL0     C87218  10.138   0.125   2.920  0.5666  0.0985 -0.3574
  633MOL0     O87219  10.070   0.123   3.034  0.1137 -0.9915 -0.5870
  633MOL0     C87220  10.092   0.231   3.125 -0.3662 -0.1979 -0.5624
  633MOL0     C87221  10.204   0.245   3.204  0.0837  0.8812  0.4383
  633MOL0     C87222  10.201   0.338   3.307 -1.7253 -0.6413  0.3272
  633MOL0     C87223  10.096   0.427   3.335 -0.0971 -0.4310 -0.3718
  633MOL0     O87224  10.082   0.522   3.432 -0.1602 -0.2153 -0.4481
  633MOL0     C87225  10.175   0.514   3.546  0.1291  0.2134  0.1780
  633MOL0     C87226  10.153   0.649   3.621  0.1611  0.1194  0.5648
  633MOL0     C87227  10.276   0.736   3.596  0.9848 -0.4203 -1.0594
  633MOL0     C87228  10.250   0.880   3.630 -0.0689 -0.0186  0.0164
  633MOL0     C87229  10.365   0.977   3.581  0.8072  0.0047  0.5551
  633MOL0     C87230  10.349   1.114   3.641  0.7551 -0.1660 -0.1304
  633MOL0     C87231  10.474   1.211   3.623 -0.6096  0.4672 -0.4425
  633MOL0     C87232  10.592   1.164   3.708 -0.2313 -0.2856 -0.3724
  633MOL0     N87233  10.721   1.237   3.680  0.1449  0.5211 -0.7763
  633MOL0     C87234  10.746   1.374   3.680 -0.2381 -0.7843  0.3067
  633MOL0     C87235  10.866   1.385   3.622 -0.5889  0.0732 -0.5181
  633MOL0     C87236  10.941   1.515   3.595  0.1428 -0.9162 -0.6731
  633MOL0     C87237  10.977   1.531   3.439  0.2272 -0.2665  0.2984
  633MOL0     C87238  11.111   1.463   3.401 -0.4215 -1.3076  0.6552
  633MOL0     C87239  11.171   1.529   3.271 -1.7951  0.1045  0.2836
  633MOL0     O87240  11.292   1.455   3.233 -0.2642  0.4845 -0.2802
  633MOL0     C87241  11.379   1.520   3.144  0.2321  0.7561  0.8201
  633MOL0     C87242  11.367   1.636   3.071 -0.2965  0.1713 -0.4277
  633MOL0     C87243  11.466   1.693   2.993 -0.0180 -0.3353  0.7191
  633MOL0     C87244  11.442   1.813   2.919  0.0961  1.2807  0.1410
  633MOL0     C87245  11.594   1.623   2.989  0.1308 -0.3861 -0.3334
  633MOL0     C87246  11.718   1.678   2.919  0.4398 -1.2523 -0.5088
  633MOL0     O87247  11.837   1.613   2.939 -0.5977  0.0389  0.3410
  633MOL0     C87248  11.950   1.662   2.873  0.2948 -0.1386  0.1439
  633MOL0     C87249  11.997   1.791   2.894 -0.4878 -0.1384 -0.2785
  633MOL0     C87250  12.111   1.835   2.831  0.1169 -0.0819 -0.6435
  633MOL0     C87251  12.176   1.761   2.729  1.0861  0.2985 -0.3563
  633MOL0     O87252  12.285   1.817   2.677 -0.7559  0.3861  0.7904
  633MOL0     C87253  12.366   1.731   2.586  0.8785  0.4922  0.9609
  633MOL0     C87254  12.471   1.675   2.676 -0.8107  0.9228  0.4682
  633MOL0     C87255  12.603   1.652   2.595 -0.1899 -0.1112 -0.2078
  633MOL0     C87256  12.690   1.779   2.576  0.1511  1.3673  0.1288
  633MOL0     C87257  12.842   1.749   2.576 -0.3056 -0.1059  0.4402
  633MOL0     C87258  12.930   1.875   2.551 -1.1415 -0.3313 -0.3983
  633MOL0     C87259  13.083   1.831   2.529  0.0785  0.5799  0.3167
  633MOL0     C87260  13.178   1.953   2.529  0.4764 -0.9585 -0.1670
  633MOL0    Cl87261  13.184   2.050   2.386 -0.4844 -0.2529  0.3948
  633MOL0     C87262  12.131   1.633   2.704  0.9128  0.1046 -0.1834
  633MOL0     C87263  12.008   1.590   2.764 -0.2013  0.5311 -0.4546
  633MOL0     O87264  11.705   1.778   2.843  0.4438  0.1551  0.4728
  633MOL0     C87265  11.612   1.498   3.054  0.1487 -0.1789 -0.4012
  633MOL0     C87266  11.499   1.449   3.132 -0.8668  0.1199  0.5128
  633MOL0     N87267  10.913   1.267   3.581  0.4942 -0.6668 -0.2310
  633MOL0     N87268  10.837   1.174   3.623  0.2911 -0.0874  0.2831
  633MOL0     C87269   9.993   0.423   3.242  0.0200  0.3176  0.5107
  633MOL0     C87270   9.988   0.326   3.141  0.3157 -0.2946  0.0014
  633MOL0     C87271  10.122   0.013   2.829  0.5005 -0.1397 -0.3302
  633MOL0     C87272   9.988  -0.032   2.789 -0.6478  0.6963  0.5667
  633MOL0     C87273   9.965  -0.148   2.716  1.0755 -0.9207  0.1851
  633MOL0     C87274  10.066  -0.218   2.668 -0.1741  0.3560 -0.6225
  633MOL0     O87275  10.041  -0.315   2.575 -0.4214 -0.1696 -0.8207
  633MOL0     C87276  10.075  -0.449   2.603 -0.1943  0.6695  0.0046
  633MOL0     C87277  10.062  -0.546   2.490 -0.5615 -0.0410  0.2518
  633MOL0     C87278  10.076  -0.685   2.551 -0.3513 -0.2225  0.6948
  633MOL0     C87279  10.218  -0.747   2.510  0.9793  0.3895  0.5720
  633MOL0     C87280  10.332  -0.680   2.566 -0.0466  0.3074  0.2968
  633MOL0     C87281  10.429  -0.628   2.611  0.3034  0.0435 -0.2299
  633MOL0     C87282  10.194  -0.177   2.701 -0.2789  0.1635  0.1699
  633MOL0     C87283  10.227  -0.068   2.783  0.4795  0.5594 -0.1696
  633MOL0     C87284  10.371  -0.051   2.813  0.3713 -0.9041  0.4317
  633MOL0     H87285  10.281   0.173   3.176 -1.3085 -0.2552 -0.6525
  633MOL0     H87286  10.292   0.355   3.362 -2.8922  0.2859  2.0623
  633MOL0     H87287  10.279   0.510   3.512 -0.5358  0.0477 -2.0244
  633MOL0     H87288  10.143   0.426   3.603  0.3686  0.7890  1.2241
  633MOL0     H87289  10.055   0.695   3.609 -0.7983 -1.6284  1.4243
  633MOL0     H87290  10.163   0.614   3.724 -1.3760 -1.7169  0.1402
  633MOL0     H87291  10.355   0.696   3.660 -0.0765 -2.9991 -1.2219
  633MOL0     H87292  10.314   0.730   3.494  1.2010 -2.6340 -0.8990
  633MOL0     H87293  10.154   0.902   3.582 -1.2484  0.0288  2.2581
  633MOL0     H87294  10.233   0.897   3.737 -4.1046 -1.0327 -0.3032
  633MOL0     H87295  10.373   0.972   3.472  1.3481 -2.9677  0.6492
  633MOL0     H87296  10.460   0.936   3.616  0.4290 -0.1286  1.4320
  633MOL0     H87297  10.266   1.167   3.594  0.5121  0.0815  0.5553
  633MOL0     H87298  10.305   1.111   3.742 -2.2353 -1.1888 -1.3601
  633MOL0     H87299  10.435   1.310   3.651 -0.0104  1.0806 -1.6865
  633MOL0     H87300  10.494   1.222   3.516 -1.8628  1.4733 -0.6081
  633MOL0     H87301  10.565   1.185   3.812  0.0410  3.7389 -0.9353
  633MOL0     H87302  10.611   1.058   3.690  0.5310 -0.6734  2.2680
  633MOL0     H87303  10.696   1.465   3.712  5.3352  2.6499  0.5583
  633MOL0     H87304  11.028   1.515   3.661  1.0073 -3.9058 -1.6626
  633MOL0     H87305  10.876   1.600   3.619  1.5769  0.6600 -2.1323
  633MOL0     H87306  10.893   1.494   3.380  1.4526  0.5076 -2.0649
  633MOL0     H87307  10.996   1.637   3.415 -0.6366 -0.5288 -1.7310
  633MOL0     H87308  11.194   1.468   3.472 -0.4006  0.7949  0.5639
  633MOL0     H87309  11.088   1.359   3.377 -1.8055 -0.9143  0.1832
  633MOL0     H87310  11.111   1.531   3.179  2.8709 -0.4982 -3.1637
  633MOL0     H87311  11.198   1.633   3.288 -2.4845  1.0500 -3.3974
  633MOL0     H87312  11.280   1.697   3.089  0.2448  0.4191  1.5926
  633MOL0     H87313  11.502   1.898   2.953 -0.6682  1.7646  0.3039
  633MOL0     H87314  11.336   1.838   2.933 -0.0838  0.3890  0.4187
  633MOL0     H87315  11.456   1.795   2.812 -2.0936  1.0959 -0.1589
  633MOL0     H87316  11.950   1.852   2.970  0.9037  0.9948 -0.2937
  633MOL0     H87317  12.164   1.924   2.863 -0.3621 -0.5467  1.5999
  633MOL0     H87318  12.327   1.647   2.527  3.6921 -0.7328  0.6639
  633MOL0     H87319  12.410   1.807   2.522 -0.1109 -0.6402 -1.2022
  633MOL0     H87320  12.493   1.749   2.753 -1.5252  0.4548  1.1301
  633MOL0     H87321  12.439   1.580   2.720  2.1031 -1.3632 -1.9393
  633MOL0     H87322  12.584   1.596   2.503  1.2873 -0.6293 -0.2217
  633MOL0     H87323  12.664   1.575   2.644 -0.1434 -0.4886 -0.8416
  633MOL0     H87324  12.667   1.846   2.659 -3.4647  0.5674 -0.1012
  633MOL0     H87325  12.665   1.819   2.477  1.1525 -3.2841 -2.2885
  633MOL0     H87326  12.871   1.701   2.670 -1.2385  0.6118  1.1080
  633MOL0     H87327  12.865   1.682   2.492 -0.7183  0.0866  0.1703
  633MOL0     H87328  12.923   1.953   2.627 -0.3912 -0.8215  0.1944
  633MOL0     H87329  12.894   1.930   2.464  0.8976  2.3032  0.2763
  633MOL0     H87330  13.090   1.772   2.437  0.4535  1.2068 -0.0612
  633MOL0     H87331  13.112   1.764   2.610  1.0571 -1.0944 -1.3445
  633MOL0     H87332  13.281   1.923   2.548  0.7022  0.9042  1.8534
  633MOL0     H87333  13.149   2.015   2.614  1.0572  0.7438 -1.1701
  633MOL0     H87334  12.175   1.564   2.634  1.2206  1.4972 -1.4265
  633MOL0     H87335  11.975   1.487   2.751 -0.3016  0.2407  1.7239
  633MOL0     H87336  11.699   1.433   3.045 -0.5484 -0.9428 -2.0098
  633MOL0     H87337  11.500   1.349   3.175  2.5458  0.6049  1.8795
  633MOL0     H87338   9.911   0.493   3.256  1.8166  2.4201  1.2258
  633MOL0     H87339   9.891   0.308   3.096  0.1239  1.0664 -0.1765
  633MOL0     H87340   9.903   0.028   2.820 -0.1126  0.6005  2.3849
  633MOL0     H87341   9.860  -0.162   2.694  0.4560 -1.0783  2.9261
  633MOL0     H87342  10.176  -0.465   2.642 -0.6668 -4.1648 -0.1240
  633MOL0     H87343  10.015  -0.472   2.691 -1.2829  0.8184 -0.6766
  633MOL0     H87344  10.147  -0.526   2.423  0.6231 -0.8986  1.4657
  633MOL0     H87345   9.971  -0.542   2.429 -0.3296 -1.0647 -0.1656
  633MOL0     H87346  10.077  -0.692   2.660 -0.5006 -2.0419  0.6164
  633MOL0     H87347   9.988  -0.734   2.509 -0.7585 -0.3243  1.6409
  633MOL0     H87348  10.229  -0.734   2.402 -1.6303  2.1530  0.4219
  633MOL0     H87349  10.224  -0.854   2.532  2.6644  0.5661  1.0794
  633MOL0     H87350  10.521  -0.581   2.639  0.2849 -0.6645  1.0933
  633MOL0     H87351  10.272  -0.230   2.649  0.5600  2.2719 -0.8410
  633MOL0     H87352  10.415   0.002   2.728 -2.2586 -0.8054 -0.9915
  633MOL0     H87353  10.381  -0.011   2.914  0.2245  1.1366 -0.3119
  633MOL0     H87354  10.426  -0.145   2.820 -2.7711 -2.7929  4.0383
  634MOL0     O87355   7.847   9.005   6.378  0.3542  0.0994  0.9212
  634MOL0     C87356   7.752   9.006   6.454 -0.2481 -0.6048 -0.8113
  634MOL0     O87357   7.761   8.993   6.589 -0.3944  0.0326  0.4556
  634MOL0     C87358   7.878   8.998   6.657 -0.5302 -0.7970  0.3265
  634MOL0     C87359   7.901   8.912   6.761  0.2631 -0.0613  0.9300
  634MOL0     C87360   8.014   8.924   6.844 -0.2958  0.5246  0.3468
  634MOL0     C87361   8.119   9.014   6.802  0.8199  0.6786  0.4190
  634MOL0     O87362   8.238   9.017   6.864 -0.2455  0.9343  0.0054
  634MOL0     C87363   8.363   9.015   6.785  0.9726  0.6589  1.0363
  634MOL0     C87364   8.473   8.937   6.858  0.2168  0.0935  0.5849
  634MOL0     C87365   8.584   8.895   6.759  0.8526 -1.1067  0.0130
  634MOL0     C87366   8.717   8.854   6.836  0.0470 -0.7799 -0.0369
  634MOL0     C87367   8.826   8.810   6.735  0.8237 -0.7618 -1.0188
  634MOL0     C87368   8.958   8.766   6.803  0.1520  0.1673 -0.2861
  634MOL0     C87369   9.082   8.780   6.711 -0.8626 -0.7573 -0.1611
  634MOL0     C87370   9.203   8.730   6.794 -0.1995  0.3431 -0.6913
  634MOL0     N87371   9.322   8.768   6.724  0.0939  0.4032  0.0622
  634MOL0     C87372   9.390   8.890   6.727 -0.2483  1.8772  0.1530
  634MOL0     C87373   9.476   8.868   6.617 -0.1766  0.7860  0.5039
  634MOL0     C87374   9.571   8.975   6.569  0.0398 -0.1115  0.7931
  634MOL0     C87375   9.498   9.067   6.470  0.3178  0.0002  0.3401
  634MOL0     C87376   9.579   9.197   6.455  0.1930 -0.6228  0.1990
  634MOL0     C87377   9.721   9.192   6.392  0.6567  0.5188 -0.3601
  634MOL0     O87378   9.821   9.176   6.495  0.0798 -0.3052 -0.7615
  634MOL0     C87379   9.946   9.183   6.440  0.1769  0.2475 -0.2585
  634MOL0     C87380   9.983   9.181   6.298  0.3334  0.0853 -0.3390
  634MOL0     C87381  10.121   9.187   6.262  0.7435 -0.6969 -0.8808
  634MOL0     C87382  10.152   9.191   6.122  0.0885  0.1446  1.0244
  634MOL0     C87383  10.224   9.177   6.357 -1.0024 -0.8450 -0.4397
  634MOL0     C87384  10.371   9.188   6.336 -0.5466  0.9190  0.2683
  634MOL0     O87385  10.410   9.204   6.213 -0.7070  0.0024 -0.0151
  634MOL0     C87386  10.537   9.145   6.173  0.9038 -0.0258 -0.5807
  634MOL0     C87387  10.659   9.218   6.203  0.4008  0.6838 -0.3603
  634MOL0     C87388  10.784   9.159   6.171 -0.5340 -0.4657  0.1009
  634MOL0     C87389  10.794   9.049   6.084  0.0011  0.1195 -0.3707
  634MOL0     O87390  10.905   8.999   6.025  0.2751  0.4312 -0.0398
  634MOL0     C87391  11.015   9.077   6.048  0.7647 -0.8735  0.4269
  634MOL0     C87392  11.124   9.016   5.970  0.4009 -0.1023 -0.4502
  634MOL0     C87393  11.251   9.104   5.968 -0.8430 -0.2108  0.0554
  634MOL0     C87394  11.386   9.022   5.947  0.0922 -0.9404  0.3519
  634MOL0     C87395  11.512   9.115   5.948 -1.1655  0.6974 -0.4523
  634MOL0     C87396  11.499   9.226   5.846 -0.0540  0.1466  0.3755
  634MOL0     C87397  11.628   9.311   5.831 -0.1501  0.2810 -0.3801
  634MOL0     C87398  11.629   9.405   5.709 -0.0612 -0.4943 -0.7418
  634MOL0    Cl87399  11.479   9.507   5.727  0.2451  0.0525  0.2856
  634MOL0     C87400  10.680   8.980   6.061  0.9368 -0.4428 -0.2370
  634MOL0     C87401  10.551   9.027   6.098  0.2361  0.0471 -0.3665
  634MOL0     O87402  10.449   9.185   6.435 -0.4578 -0.8628  0.4588
  634MOL0     C87403  10.179   9.180   6.492 -1.0588 -0.0125 -0.3941
  634MOL0     C87404  10.054   9.201   6.533  0.6272 -0.0046  0.7130
  634MOL0     N87405   9.472   8.733   6.571 -0.1384 -0.0315  0.0350
  634MOL0     N87406   9.376   8.676   6.636  0.8531  0.0644 -0.5196
  634MOL0     C87407   8.098   9.091   6.692 -0.5998 -0.0484  0.3128
  634MOL0     C87408   7.977   9.091   6.623  0.5876  0.3696  0.2212
  634MOL0     C87409   7.619   9.004   6.387  0.3853 -0.9857  0.3287
  634MOL0     C87410   7.613   9.030   6.251  0.3997 -0.4015 -0.3124
  634MOL0     C87411   7.486   9.036   6.188 -1.1094 -0.5568  0.1754
  634MOL0     C87412   7.369   9.019   6.260  0.0446 -0.0311  1.0937
  634MOL0     O87413   7.253   9.045   6.188 -0.4644 -1.4001  0.2680
  634MOL0     C87414   7.125   9.012   6.236 -0.6201  0.1419 -0.2804
  634MOL0     C87415   7.026   9.088   6.138  0.1050  0.7809  0.0624
  634MOL0     C87416   7.008   9.234   6.177 -0.1960  0.7624 -0.9826
  634MOL0     C87417   6.889   9.304   6.105 -1.3663 -0.2503  0.2208
  634MOL0     C87418   6.765   9.269   6.170 -0.4137  0.3406  0.5200
  634MOL0     C87419   6.656   9.229   6.212 -0.2128  0.4901 -0.5747
  634MOL0     C87420   7.376   8.981   6.396 -1.0887  0.0427 -0.3828
  634MOL0     C87421   7.497   8.975   6.462  0.1410  0.5036 -0.0641
  634MOL0     C87422   7.486   8.927   6.598 -0.1722  0.8183 -0.0466
  634MOL0     H87423   7.821   8.840   6.774  0.3178  0.0796  2.1020
  634MOL0     H87424   8.033   8.855   6.926 -1.7799 -2.6084 -1.7399
  634MOL0     H87425   8.407   9.113   6.762 -0.1143  0.4613 -2.4054
  634MOL0     H87426   8.354   8.966   6.688  1.9308  0.9609  0.7822
  634MOL0     H87427   8.505   8.993   6.946 -3.9332  0.3601  2.1318
  634MOL0     H87428   8.435   8.839   6.888 -0.2693 -0.2553 -1.0409
  634MOL0     H87429   8.541   8.810   6.705 -0.5833 -2.7928  3.4513
  634MOL0     H87430   8.605   8.977   6.691 -3.5242 -1.3684 -1.9666
  634MOL0     H87431   8.763   8.927   6.903 -0.5771  0.5065 -0.9663
  634MOL0     H87432   8.675   8.766   6.886  1.0121 -1.6983 -0.8101
  634MOL0     H87433   8.842   8.894   6.667  3.0703 -0.2839  0.0191
  634MOL0     H87434   8.787   8.727   6.675 -1.2134  0.6091 -1.7238
  634MOL0     H87435   8.969   8.825   6.894 -2.0599  0.6693 -0.2873
  634MOL0     H87436   8.941   8.663   6.836 -1.0386 -0.0859 -1.5906
  634MOL0     H87437   9.096   8.886   6.688 -1.3114 -0.4896  0.7365
  634MOL0     H87438   9.066   8.721   6.620 -1.1819 -0.2301 -0.4498
  634MOL0     H87439   9.196   8.766   6.897 -0.0774 -2.1321  0.2399
  634MOL0     H87440   9.195   8.622   6.804  0.2415  0.3144 -0.6311
  634MOL0     H87441   9.357   8.976   6.784 -0.7420  0.5569  1.9505
  634MOL0     H87442   9.649   8.920   6.515 -0.4099 -0.0611  0.0823
  634MOL0     H87443   9.624   9.030   6.647  1.4130  2.1801 -1.6137
  634MOL0     H87444   9.479   9.012   6.378  1.8987 -0.2185  0.1093
  634MOL0     H87445   9.398   9.094   6.504 -1.5301 -2.6249 -2.5345
  634MOL0     H87446   9.534   9.269   6.387  4.3367 -0.6565 -3.0070
  634MOL0     H87447   9.582   9.243   6.554 -2.8685 -2.4803  1.2925
  634MOL0     H87448   9.734   9.101   6.332  2.0858 -0.1226  0.8613
  634MOL0     H87449   9.742   9.278   6.328 -1.3035 -0.1186 -1.9894
  634MOL0     H87450   9.901   9.168   6.228 -0.9608 -0.9118  1.2685
  634MOL0     H87451  10.212   9.279   6.098 -0.0453 -0.4721 -1.9874
  634MOL0     H87452  10.065   9.186   6.055  0.5735  2.3919  0.1191
  634MOL0     H87453  10.210   9.105   6.089 -3.5616 -1.7836 -1.0472
  634MOL0     H87454  10.644   9.311   6.257  0.5396  0.1320  0.6498
  634MOL0     H87455  10.867   9.218   6.208 -0.2074 -1.4812  1.0271
  634MOL0     H87456  10.991   9.174   6.004  1.0070 -1.7788 -1.8558
  634MOL0     H87457  11.028   9.089   6.156 -2.5721  0.1599  0.8122
  634MOL0     H87458  11.138   8.916   6.012 -0.7001 -0.6574 -1.3449
  634MOL0     H87459  11.090   9.007   5.866  0.8715 -0.6433 -0.5620
  634MOL0     H87460  11.261   9.151   6.066 -0.0428 -1.7022  0.7173
  634MOL0     H87461  11.236   9.174   5.885 -1.2236 -1.0353 -0.5761
  634MOL0     H87462  11.371   8.961   5.857 -1.5573 -0.2535  0.1391
  634MOL0     H87463  11.396   8.949   6.028 -1.5622 -0.3178  1.1507
  634MOL0     H87464  11.531   9.159   6.046  1.4615  2.0267 -1.4538
  634MOL0     H87465  11.609   9.070   5.924  0.3880  3.0730  0.9987
  634MOL0     H87466  11.418   9.296   5.871 -0.6021  1.2865 -3.7950
  634MOL0     H87467  11.466   9.183   5.751  0.2957 -0.4781  0.5342
  634MOL0     H87468  11.723   9.259   5.814  0.7462  2.4188 -2.5225
  634MOL0     H87469  11.652   9.358   5.926 -0.5110 -0.3955  0.0526
  634MOL0     H87470  11.619   9.356   5.612  4.9344 -0.3915 -1.5410
  634MOL0     H87471  11.718   9.468   5.707 -1.1178  1.0625 -1.3387
  634MOL0     H87472  10.683   8.890   6.001  0.0138 -0.6738  0.0479
  634MOL0     H87473  10.461   8.977   6.063  2.4260 -2.0743 -3.4243
  634MOL0     H87474  10.251   9.175   6.573 -1.4869 -2.0859 -0.0688
  634MOL0     H87475  10.028   9.217   6.638  0.4430 -1.8672  0.9879
  634MOL0     H87476   8.174   9.157   6.654 -1.1168 -0.3235 -1.2605
  634MOL0     H87477   7.956   9.162   6.543 -2.5095 -0.3090  0.3154
  634MOL0     H87478   7.708   9.052   6.203  1.2590  1.0621  1.9127
  634MOL0     H87479   7.488   9.058   6.082 -3.0960 -2.3822 -0.3084
  634MOL0     H87480   7.111   8.904   6.229  2.5677 -0.4486  0.7229
  634MOL0     H87481   7.119   9.046   6.339  2.2084 -0.2566  0.1123
  634MOL0     H87482   6.936   9.027   6.127  1.8502 -1.7346 -0.8413
  634MOL0     H87483   7.077   9.088   6.042 -0.2979  0.1569 -0.1548
  634MOL0     H87484   6.982   9.234   6.283 -0.3383 -0.9455 -0.9944
  634MOL0     H87485   7.101   9.289   6.160  0.7563 -0.0797  1.1350
  634MOL0     H87486   6.887   9.274   6.000  1.5147  1.2565 -0.3616
  634MOL0     H87487   6.913   9.410   6.105  2.1921 -0.9109  1.1139
  634MOL0     H87488   6.568   9.180   6.248  0.4875  0.5430  1.3246
  634MOL0     H87489   7.285   8.964   6.453 -2.3188 -2.6975 -2.9275
  634MOL0     H87490   7.538   8.830   6.598 -1.2366  0.2192  1.3971
  634MOL0     H87491   7.538   8.994   6.666  1.2244  1.5197 -1.7147
  634MOL0     H87492   7.385   8.907   6.633 -0.0861  0.5640  0.0632
  635MOL0     O87493   2.213  10.033   4.162  1.2302 -0.0963 -0.4059
  635MOL0     C87494   2.164  10.122   4.092 -0.0388 -0.0911  0.1169
  635MOL0     O87495   2.207  10.161   3.979 -0.3839 -0.6144 -0.3348
  635MOL0     C87496   2.326  10.109   3.944 -0.8025 -0.3906 -0.3025
  635MOL0     C87497   2.330   9.994   3.850  0.4308  0.2341  0.2842
  635MOL0     C87498   2.453   9.949   3.803  0.5899  0.7328  0.4530
  635MOL0     C87499   2.579  10.001   3.846 -0.7003 -0.0207  0.6596
  635MOL0     O87500   2.694   9.958   3.804 -0.5172 -0.5105  0.3167
  635MOL0     C87501   2.691   9.823   3.745 -0.7755 -0.1338 -0.2088
  635MOL0     C87502   2.837   9.769   3.745 -0.2162 -0.4051 -1.0465
  635MOL0     C87503   2.844   9.612   3.709  0.2904 -0.8112  0.7562
  635MOL0     C87504   2.977   9.577   3.642 -0.6915  0.5194 -0.2724
  635MOL0     C87505   2.984   9.439   3.590  0.9346  0.0223 -0.1907
  635MOL0     C87506   3.113   9.385   3.519  0.4482 -1.0167  0.1114
  635MOL0     C87507   3.172   9.476   3.411  0.1134  0.1241 -0.3969
  635MOL0     C87508   3.092   9.494   3.279 -0.4059  0.5925  0.3246
  635MOL0     N87509   2.970   9.567   3.297  0.2529 -0.3586 -0.1917
  635MOL0     C87510   2.954   9.708   3.319 -1.0338  0.5245  0.4743
  635MOL0     C87511   2.824   9.718   3.316  0.9384  0.6768  0.0039
  635MOL0     C87512   2.741   9.842   3.357 -0.0843 -0.3758  0.2362
  635MOL0     C87513   2.635   9.882   3.255  0.3874 -0.1120  0.6089
  635MOL0     C87514   2.563  10.006   3.311  0.4313  0.8679  1.0485
  635MOL0     C87515   2.455  10.060   3.217 -0.1051  0.2534  1.3372
  635MOL0     O87516   2.330  10.004   3.232 -0.2990 -0.1070  0.4432
  635MOL0     C87517   2.246  10.030   3.332  0.3766 -1.2157 -0.0743
  635MOL0     C87518   2.233  10.159   3.391  1.2709 -0.5462 -0.4343
  635MOL0     C87519   2.132  10.190   3.483  0.0408 -0.0415  0.0645
  635MOL0     C87520   2.136  10.334   3.532 -0.2116  0.0131  0.1411
  635MOL0     C87521   2.050  10.080   3.525 -0.0243  0.0475 -0.2237
  635MOL0     C87522   1.944  10.093   3.629 -0.2658  0.6240  0.2408
  635MOL0     O87523   1.874   9.980   3.648 -0.0208 -0.0982 -0.0094
  635MOL0     C87524   1.783   9.990   3.756  0.7172 -0.5060  0.7457
  635MOL0     C87525   1.650  10.010   3.728 -0.5324  0.0904 -0.0140
  635MOL0     C87526   1.551  10.025   3.833 -0.0661  0.3388  0.7220
  635MOL0     C87527   1.597  10.028   3.965  0.2882  0.1669 -0.5738
  635MOL0     O87528   1.507  10.046   4.072  0.0087 -0.0483 -0.1550
  635MOL0     C87529   1.525   9.970   4.198  0.8663  0.3109 -0.1104
  635MOL0     C87530   1.433  10.015   4.311  0.8594 -0.3163  0.6228
  635MOL0     C87531   1.412   9.912   4.414  0.1556 -0.2990 -0.7116
  635MOL0     C87532   1.335   9.957   4.528  0.6174 -0.0298  0.0731
  635MOL0     C87533   1.318   9.838   4.627 -0.4827  0.2326  0.3613
  635MOL0     C87534   1.245   9.879   4.752  0.4324  0.2890 -0.3745
  635MOL0     C87535   1.203   9.751   4.816  0.5456  0.0093 -0.5119
  635MOL0     C87536   1.137   9.761   4.960  0.1048  0.2423 -0.8485
  635MOL0    Cl87537   0.981   9.851   4.937  0.0441 -0.1405 -0.0818
  635MOL0     C87538   1.737  10.010   3.999  0.4634 -0.1476  0.5433
  635MOL0     C87539   1.824   9.990   3.891  0.7336  0.8839  0.4211
  635MOL0     O87540   1.940  10.189   3.697 -0.8852  0.2229 -0.5305
  635MOL0     C87541   2.062   9.957   3.462  0.3863 -0.5693  0.9574
  635MOL0     C87542   2.157   9.929   3.363 -0.1342 -0.0442  0.5223
  635MOL0     N87543   2.760   9.602   3.287  0.0924  0.4867  0.5450
  635MOL0     N87544   2.849   9.505   3.280 -0.0834  0.5315 -0.8607
  635MOL0     C87545   2.561  10.117   3.931 -0.3594 -0.0519 -0.5803
  635MOL0     C87546   2.446  10.177   3.974 -0.3208  0.2027  0.8140
  635MOL0     C87547   2.033  10.192   4.125 -0.8232 -0.3437  0.0224
  635MOL0     C87548   1.961  10.256   4.023 -0.4814  0.5941 -0.3464
  635MOL0     C87549   1.829  10.302   4.044  0.6284 -0.1736  0.4014
  635MOL0     C87550   1.760  10.299   4.164  0.1138 -0.1309  0.0330
  635MOL0     O87551   1.631  10.341   4.192 -0.2969  0.0842 -0.2667
  635MOL0     C87552   1.558  10.399   4.080  1.0443  0.2551 -0.8700
  635MOL0     C87553   1.415  10.446   4.120 -0.7589  0.4446 -0.5098
  635MOL0     C87554   1.335  10.344   4.192  1.0271  0.0034  0.0178
  635MOL0     C87555   1.182  10.387   4.223 -1.1100  0.5490 -0.5263
  635MOL0     C87556   1.114  10.264   4.264  0.3486  0.1655  1.2887
  635MOL0     C87557   1.047  10.174   4.305 -0.1767  0.3429 -0.8439
  635MOL0     C87558   1.835  10.248   4.264 -0.2248 -0.6664  0.4277
  635MOL0     C87559   1.963  10.182   4.247 -0.6768  0.5895  0.1022
  635MOL0     C87560   2.018  10.115   4.366  0.2580 -1.1033  0.0531
  635MOL0     H87561   2.237   9.954   3.813 -0.5670  4.4195 -2.4816
  635MOL0     H87562   2.440   9.867   3.733 -1.6997  0.2235  1.3689
  635MOL0     H87563   2.644   9.828   3.647  2.3885  2.2895 -1.7766
  635MOL0     H87564   2.643   9.743   3.802  0.3494 -1.2437 -0.7830
  635MOL0     H87565   2.882   9.830   3.665 -0.6070  2.5652  0.8250
  635MOL0     H87566   2.877   9.790   3.844 -0.2059 -0.4104 -1.0495
  635MOL0     H87567   2.840   9.560   3.805  0.3170  1.3423  2.0047
  635MOL0     H87568   2.754   9.596   3.650  0.0696  0.7804  0.6218
  635MOL0     H87569   3.009   9.648   3.565  6.0313 -0.3053  1.1087
  635MOL0     H87570   3.053   9.593   3.719 -0.1146 -0.0557 -0.7142
  635MOL0     H87571   2.897   9.430   3.524  0.7894 -3.4634  0.2686
  635MOL0     H87572   2.967   9.373   3.676  0.5036  1.0659  0.5598
  635MOL0     H87573   3.194   9.369   3.590  1.8447 -0.3038 -1.2590
  635MOL0     H87574   3.088   9.288   3.474 -1.4541 -0.1701 -0.7564
  635MOL0     H87575   3.274   9.442   3.391  0.5383  0.8323  0.5040
  635MOL0     H87576   3.201   9.575   3.448 -0.3010  0.0850  0.0459
  635MOL0     H87577   3.161   9.539   3.207  1.6941 -0.0161  1.8369
  635MOL0     H87578   3.066   9.393   3.248 -0.0608  0.8757 -0.9264
  635MOL0     H87579   3.029   9.785   3.334  1.7995 -1.7814 -0.8603
  635MOL0     H87580   2.815   9.923   3.359  1.0324 -1.2339 -2.2792
  635MOL0     H87581   2.685   9.826   3.449 -0.2754  1.8539  0.5485
  635MOL0     H87582   2.672   9.890   3.152  0.6608  2.2012  0.8304
  635MOL0     H87583   2.554   9.808   3.245  0.0843  0.3802 -0.9994
  635MOL0     H87584   2.513   9.983   3.406  1.1454  0.4515  1.3359
  635MOL0     H87585   2.627  10.094   3.324  1.3822  0.2478  0.6605
  635MOL0     H87586   2.447  10.169   3.224  0.4164  0.3252  0.8471
  635MOL0     H87587   2.475  10.037   3.112  1.8903 -1.7009  2.0707
  635MOL0     H87588   2.298  10.241   3.361 -3.0404  1.9161 -4.3957
  635MOL0     H87589   2.035  10.376   3.538 -2.0811 -4.1222  2.5849
  635MOL0     H87590   2.195  10.399   3.468  0.8110 -0.0960  0.9434
  635MOL0     H87591   2.180  10.339   3.633 -0.8596  1.1238  0.3863
  635MOL0     H87592   1.619  10.019   3.624 -3.0427  3.0185  0.8383
  635MOL0     H87593   1.443  10.032   3.825  0.0725  2.2570 -0.1935
  635MOL0     H87594   1.516   9.865   4.169  1.6721  0.0687  0.5138
  635MOL0     H87595   1.622   9.992   4.243  0.4190  0.5340  0.7626
  635MOL0     H87596   1.474  10.097   4.371  0.5187 -0.7594  1.4802
  635MOL0     H87597   1.337  10.048   4.270  0.0086 -0.9763  1.9986
  635MOL0     H87598   1.506   9.866   4.445 -0.4491  0.3507  2.4136
  635MOL0     H87599   1.359   9.824   4.376  0.6240  0.2006 -2.6611
  635MOL0     H87600   1.237   9.997   4.501 -0.9960 -2.3811  1.9692
  635MOL0     H87601   1.386  10.038   4.579 -1.5862  1.5020  0.0038
  635MOL0     H87602   1.258   9.768   4.569 -1.9924  1.8671 -0.1300
  635MOL0     H87603   1.418   9.805   4.660 -1.5898 -1.9140  1.8475
  635MOL0     H87604   1.150   9.927   4.732 -0.1490 -0.0631  1.3602
  635MOL0     H87605   1.306   9.946   4.813  0.9008  0.2820 -0.8278
  635MOL0     H87606   1.292   9.687   4.825 -1.0763 -2.5795 -1.5888
  635MOL0     H87607   1.142   9.688   4.751  3.2629 -0.0622 -3.2192
  635MOL0     H87608   1.202   9.826   5.019 -0.0586  0.7239 -1.1926
  635MOL0     H87609   1.124   9.664   5.008 -1.3317  0.5292 -0.6145
  635MOL0     H87610   1.778  10.021   4.099  1.6753  0.6615 -0.0152
  635MOL0     H87611   1.929   9.974   3.912  0.4964 -3.7451 -0.6864
  635MOL0     H87612   1.995   9.871   3.470  0.5449 -1.1894 -2.7230
  635MOL0     H87613   2.165   9.835   3.310  1.4744 -0.2245  1.0346
  635MOL0     H87614   2.656  10.165   3.950  0.5573 -1.5757 -1.1073
  635MOL0     H87615   2.443  10.270   4.030  0.4885  1.4736 -1.1205
  635MOL0     H87616   2.004  10.271   3.925 -3.9152 -0.8998 -2.2391
  635MOL0     H87617   1.776  10.331   3.954 -1.7270 -1.7449  1.1738
  635MOL0     H87618   1.613  10.490   4.053  3.5208 -1.1768 -0.9191
  635MOL0     H87619   1.551  10.332   3.993  0.0712  2.4474 -2.5814
  635MOL0     H87620   1.355  10.469   4.031 -1.0414  0.6017 -0.2779
  635MOL0     H87621   1.418  10.534   4.185 -1.7821 -0.9858  1.5772
  635MOL0     H87622   1.335  10.249   4.139 -3.1786 -0.9061  1.2230
  635MOL0     H87623   1.378  10.342   4.292 -0.5895 -0.1593  0.7483
  635MOL0     H87624   1.130  10.429   4.136 -0.8846 -2.5364 -2.2675
  635MOL0     H87625   1.180  10.459   4.305 -0.3176 -1.9820  1.8507
  635MOL0     H87626   1.002  10.086   4.345 -0.0901  0.4926 -0.4141
  635MOL0     H87627   1.799  10.250   4.366  0.3080  1.8096  0.6330
  635MOL0     H87628   1.953  10.100   4.453 -2.8631 -0.3158 -1.9818
  635MOL0     H87629   2.032  10.014   4.325 -0.4016 -0.9248 -0.6240
  635MOL0     H87630   2.113  10.162   4.393  0.1757  0.2709 -1.8928
  636MOL0     O87631  10.939   0.575   5.975  0.0581  0.6128 -0.2001
  636MOL0     C87632  10.920   0.454   5.984 -0.5504 -0.4831 -0.4343
  636MOL0     O87633  11.004   0.357   5.940 -0.1855  0.1323  0.3612
  636MOL0     C87634  11.118   0.395   5.880 -0.5136  0.9122 -1.0106
  636MOL0     C87635  11.112   0.475   5.762  0.4252 -0.1273 -1.0682
  636MOL0     C87636  11.229   0.512   5.705 -0.2015  1.1911  0.5646
  636MOL0     C87637  11.354   0.445   5.739 -0.2106  0.0137  0.0643
  636MOL0     O87638  11.476   0.486   5.681  0.0330  0.7072  0.2204
  636MOL0     C87639  11.502   0.438   5.552 -0.5766 -0.4210 -0.0140
  636MOL0     C87640  11.544   0.295   5.547 -0.3303  0.8860  0.3954
  636MOL0     C87641  11.658   0.265   5.654  0.1355 -0.6269  0.6528
  636MOL0     C87642  11.664   0.112   5.686 -0.2057 -0.1353  0.4498
  636MOL0     C87643  11.791   0.084   5.759 -0.5089  0.8286 -0.1113
  636MOL0     C87644  11.797   0.146   5.899 -0.0730 -0.2285 -0.2656
  636MOL0     C87645  11.919   0.109   5.984  0.8369 -0.7134 -0.6492
  636MOL0     C87646  12.051   0.143   5.928 -0.1027 -0.6595 -0.2140
  636MOL0     N87647  12.175   0.139   6.015  0.1677  0.5342 -0.5101
  636MOL0     C87648  12.171   0.166   6.151  0.0915  0.5304  0.9537
  636MOL0     C87649  12.295   0.136   6.191 -0.0379 -0.1152  1.1599
  636MOL0     C87650  12.354   0.151   6.327  0.4388 -0.7611  0.6248
  636MOL0     C87651  12.415   0.293   6.344 -0.5142 -0.4101  0.1798
  636MOL0     C87652  12.489   0.296   6.476  0.0975  0.5390 -0.6542
  636MOL0     C87653  12.613   0.205   6.478 -0.1222 -0.0557  0.0215
  636MOL0     O87654  12.707   0.250   6.376  0.1929  0.1398 -0.6861
  636MOL0     C87655  12.842   0.210   6.383  0.9371 -0.6085 -0.0048
  636MOL0     C87656  12.937   0.306   6.337 -0.4025  0.8628  0.3501
  636MOL0     C87657  13.073   0.278   6.337 -0.1050  0.7997 -0.2272
  636MOL0     C87658  13.159   0.383   6.287 -0.0439  0.1317  0.9104
  636MOL0     C87659  13.114   0.149   6.387  0.3250  0.1372 -0.0830
  636MOL0     C87660  13.251   0.103   6.383 -0.1975  0.1512 -0.1960
  636MOL0     O87661  13.349   0.192   6.368 -0.4492  0.3315  0.8744
  636MOL0     C87662  13.478   0.157   6.381  0.5288  0.1367 -0.8278
  636MOL0     C87663  13.551   0.229   6.481  0.4642 -0.1805  0.3287
  636MOL0     C87664  13.685   0.192   6.521  0.6246  0.3673  0.4575
  636MOL0     C87665  13.744   0.089   6.449  0.6916  0.0103 -0.3752
  636MOL0     O87666  13.871   0.056   6.455  0.0700 -0.1834 -0.1828
  636MOL0     C87667  13.968   0.137   6.522  0.1945 -0.6709 -0.4660
  636MOL0     C87668  14.112   0.084   6.486  0.0411  0.5416 -0.1842
  636MOL0     C87669  14.144  -0.031   6.578 -0.4885  0.5612  1.3046
  636MOL0     C87670  14.291  -0.071   6.564  0.3265  0.4197 -0.2021
  636MOL0     C87671  14.316  -0.220   6.591 -0.1101 -0.4523  0.2164
  636MOL0     C87672  14.431  -0.262   6.505 -0.2326  0.2576 -0.6228
  636MOL0     C87673  14.456  -0.414   6.509 -0.1662  0.3278 -0.8519
  636MOL0     C87674  14.567  -0.452   6.402  0.5706 -0.0937 -0.4407
  636MOL0    Cl87675  14.727  -0.390   6.443 -0.5157 -0.0189 -0.5015
  636MOL0     C87676  13.673   0.015   6.356 -0.6072  2.0945 -0.0003
  636MOL0     C87677  13.542   0.042   6.321  0.4223 -0.1646 -1.1648
  636MOL0     O87678  13.271  -0.015   6.397  0.4674  0.2787  0.6195
  636MOL0     C87679  13.016   0.063   6.432  0.2433 -0.1490 -0.4830
  636MOL0     C87680  12.876   0.089   6.441 -0.1498 -0.3995 -0.1784
  636MOL0     N87681  12.374   0.087   6.090  0.4170  0.1808 -0.2188
  636MOL0     N87682  12.297   0.085   5.978  0.5405  0.3921  0.1876
  636MOL0     C87683  11.360   0.357   5.845  0.7769  0.4355  0.2623
  636MOL0     C87684  11.242   0.328   5.915 -0.1836  0.3572 -0.4100
  636MOL0     C87685  10.792   0.411   6.053  0.2263 -0.2735 -0.2901
  636MOL0     C87686  10.709   0.506   6.118 -0.1592  0.0420 -0.9083
  636MOL0     C87687  10.588   0.480   6.158 -0.8221 -0.1746 -0.1791
  636MOL0     C87688  10.533   0.350   6.148 -0.6574 -0.3576 -0.7106
  636MOL0     O87689  10.404   0.313   6.198 -0.5431 -0.3064  0.2473
  636MOL0     C87690  10.348   0.410   6.284 -0.8689 -0.2096  0.5107
  636MOL0     C87691  10.237   0.340   6.359  0.3588  0.3783 -0.8192
  636MOL0     C87692  10.128   0.256   6.285  0.0496  0.0309  0.3676
  636MOL0     C87693  10.032   0.174   6.378 -0.0323  0.4059 -0.0762
  636MOL0     C87694   9.945   0.098   6.295  0.2104  0.3488 -0.0881
  636MOL0     C87695   9.876   0.041   6.212  0.1483  0.2270 -0.1813
  636MOL0     C87696  10.608   0.255   6.089  0.6899 -0.3146  0.5799
  636MOL0     C87697  10.739   0.281   6.042  0.4533 -0.4017  0.3989
  636MOL0     C87698  10.805   0.160   5.993 -0.3468  0.0563 -0.0286
  636MOL0     H87699  11.022   0.525   5.727 -0.2318 -1.4550 -1.3319
  636MOL0     H87700  11.233   0.582   5.622  1.9769 -0.1552 -0.5513
  636MOL0     H87701  11.576   0.503   5.505  0.6771  0.1009  2.5119
  636MOL0     H87702  11.410   0.457   5.495 -0.7445 -0.6982  0.1622
  636MOL0     H87703  11.465   0.220   5.556 -0.6073  1.1294  0.0466
  636MOL0     H87704  11.585   0.271   5.448  2.1008  1.3030  1.2380
  636MOL0     H87705  11.754   0.291   5.609 -0.5213 -0.5662 -0.7993
  636MOL0     H87706  11.636   0.318   5.747 -1.2384 -0.0965  0.0609
  636MOL0     H87707  11.572   0.084   5.738  0.5522  0.0132  1.9223
  636MOL0     H87708  11.658   0.050   5.596 -1.3972  0.3307  0.1836
  636MOL0     H87709  11.869   0.138   5.704 -0.7358  1.5781  0.2957
  636MOL0     H87710  11.816  -0.022   5.764 -0.8336  0.8146  2.1985
  636MOL0     H87711  11.785   0.254   5.896  4.0806  0.4799  1.1546
  636MOL0     H87712  11.707   0.118   5.954  0.1088 -1.5023 -0.5834
  636MOL0     H87713  11.912   0.004   6.016 -1.8707 -0.6602 -0.8601
  636MOL0     H87714  11.912   0.159   6.081  1.9758 -0.4819 -0.6664
  636MOL0     H87715  12.067   0.070   5.849  3.3079 -0.2890 -0.0248
  636MOL0     H87716  12.056   0.245   5.887  1.5803 -1.1800 -1.4317
  636MOL0     H87717  12.082   0.193   6.208 -0.9123  0.2671 -0.4224
  636MOL0     H87718  12.431   0.073   6.333  1.2062 -0.2577 -1.7352
  636MOL0     H87719  12.276   0.126   6.400  0.3282 -0.4403  0.6192
  636MOL0     H87720  12.478   0.310   6.256  1.1615  0.1499  1.4312
  636MOL0     H87721  12.340   0.372   6.358  0.9270  0.8200  1.3168
  636MOL0     H87722  12.520   0.398   6.499  1.0467 -0.2613  1.9671
  636MOL0     H87723  12.415   0.262   6.550 -0.4497 -1.7232 -2.1400
  636MOL0     H87724  12.664   0.193   6.575  0.4993 -1.9680 -0.4963
  636MOL0     H87725  12.580   0.102   6.461 -1.6554  0.2021  1.2228
  636MOL0     H87726  12.893   0.386   6.278 -1.4793 -2.0749 -3.2296
  636MOL0     H87727  13.102   0.475   6.271 -3.1790 -1.6610  0.9834
  636MOL0     H87728  13.194   0.346   6.190 -2.2524  2.8693 -1.0805
  636MOL0     H87729  13.240   0.408   6.355 -0.3565  0.5543  1.1304
  636MOL0     H87730  13.494   0.299   6.541 -3.7680 -3.4429  0.5751
  636MOL0     H87731  13.722   0.246   6.608 -4.4653  1.3933  2.3142
  636MOL0     H87732  13.961   0.237   6.478 -1.6727 -1.4358 -2.0381
  636MOL0     H87733  13.951   0.149   6.630  0.0121 -0.8071 -0.4778
  636MOL0     H87734  14.115   0.067   6.378 -0.2758  0.3164 -0.1598
  636MOL0     H87735  14.184   0.163   6.511  0.9304  0.1932 -1.5363
  636MOL0     H87736  14.080  -0.114   6.549  0.0368 -0.5725  3.2473
  636MOL0     H87737  14.120  -0.011   6.682 -3.8337  0.1696  0.7173
  636MOL0     H87738  14.360  -0.012   6.625 -0.0859  0.6767  0.0119
  636MOL0     H87739  14.329  -0.035   6.467  2.2730  2.4248  1.2119
  636MOL0     H87740  14.335  -0.245   6.696  2.1020 -2.6987 -0.6056
  636MOL0     H87741  14.228  -0.274   6.555  1.3129 -0.6336 -3.4032
  636MOL0     H87742  14.522  -0.209   6.532  0.2110 -1.8414  2.5270
  636MOL0     H87743  14.400  -0.238   6.403 -1.3611  2.2840  0.1413
  636MOL0     H87744  14.364  -0.470   6.491  1.8951 -3.7604  0.1685
  636MOL0     H87745  14.497  -0.429   6.609  0.0564 -0.3669 -1.0404
  636MOL0     H87746  14.535  -0.414   6.305 -0.4830  1.7148  0.5584
  636MOL0     H87747  14.582  -0.560   6.394 -1.3624 -0.3716 -0.7049
  636MOL0     H87748  13.730  -0.065   6.310  0.0390  2.6251 -0.1351
  636MOL0     H87749  13.481  -0.030   6.266  0.1965 -1.0173  0.1524
  636MOL0     H87750  13.039  -0.036   6.470 -0.9431 -2.4941 -5.0839
  636MOL0     H87751  12.808   0.014   6.482  0.4390 -0.1817  1.2681
  636MOL0     H87752  11.447   0.302   5.881  1.4894  0.6443 -1.0959
  636MOL0     H87753  11.239   0.254   5.993 -1.4757 -1.0701 -1.7330
  636MOL0     H87754  10.763   0.599   6.125  0.0602 -0.1786  3.7217
  636MOL0     H87755  10.535   0.564   6.201 -1.2046 -1.7415  2.6913
  636MOL0     H87756  10.424   0.440   6.357 -1.6810  0.5693  1.0556
  636MOL0     H87757  10.306   0.493   6.227  1.7656  0.4082 -0.7099
  636MOL0     H87758  10.188   0.417   6.419 -0.8710  3.3648 -5.1519
  636MOL0     H87759  10.291   0.267   6.420  1.0372 -0.2473 -2.1261
  636MOL0     H87760  10.066   0.311   6.214 -0.4875 -0.6173  0.3182
  636MOL0     H87761  10.191   0.186   6.229 -1.6768  1.7318 -4.1400
  636MOL0     H87762   9.978   0.231   6.453 -4.0647 -2.6364 -0.3274
  636MOL0     H87763  10.092   0.100   6.433 -0.6883 -1.0990 -1.3033
  636MOL0     H87764   9.827  -0.023   6.142 -0.0027  1.7480 -1.5369
  636MOL0     H87765  10.571   0.153   6.083  1.4677 -0.5479 -0.4965
  636MOL0     H87766  10.885   0.123   6.057  0.8814 -0.1411 -1.6123
  636MOL0     H87767  10.734   0.080   5.974 -0.1310 -0.1456  0.0099
  636MOL0     H87768  10.849   0.171   5.893 -1.2349  1.0176 -0.3366
  637MOL0     O87769   7.135   9.046   4.312 -1.0328 -0.3166 -0.1466
  637MOL0     C87770   7.128   8.938   4.264 -1.0522 -0.9369 -0.5099
  637MOL0     O87771   7.213   8.834   4.293  0.4082 -0.7929 -0.0108
  637MOL0     C87772   7.296   8.852   4.398  0.2669  0.3435  0.0259
  637MOL0     C87773   7.242   8.875   4.526 -0.1915 -0.4483 -0.7496
  637MOL0     C87774   7.329   8.915   4.636 -0.0755  0.1989  1.4648
  637MOL0     C87775   7.471   8.932   4.611 -0.0790  0.0646 -0.3274
  637MOL0     O87776   7.561   8.963   4.711  0.3364  0.4827  0.1851
  637MOL0     C87777   7.663   8.865   4.749  0.0687 -0.0009 -0.2569
  637MOL0     C87778   7.804   8.915   4.787 -0.3788  0.0841 -0.3411
  637MOL0     C87779   7.889   8.806   4.848 -0.3765  0.0205  0.0365
  637MOL0     C87780   8.036   8.857   4.853  0.7600  0.3488 -0.0548
  637MOL0     C87781   8.134   8.753   4.916 -0.4722 -0.3648  0.0426
  637MOL0     C87782   8.278   8.771   4.868  0.8993 -0.2221 -1.1192
  637MOL0     C87783   8.337   8.905   4.921 -0.3063 -0.1802  0.4617
  637MOL0     C87784   8.475   8.933   4.862 -0.6944  0.6127 -0.1353
  637MOL0     N87785   8.573   8.832   4.909 -0.3877 -0.5593  0.2525
  637MOL0     C87786   8.629   8.837   5.035 -0.1964 -0.2097 -0.3022
  637MOL0     C87787   8.718   8.727   5.041  0.5424 -0.3495  0.1498
  637MOL0     C87788   8.785   8.667   5.157  0.7752  0.2438 -1.2228
  637MOL0     C87789   8.934   8.701   5.172  0.5434 -0.3168  0.0420
  637MOL0     C87790   8.964   8.853   5.182  0.3574 -0.0433 -0.2011
  637MOL0     C87791   9.110   8.863   5.211  0.4941 -0.3479 -0.5560
  637MOL0     O87792   9.157   8.996   5.193  0.3597 -0.5829 -0.1151
  637MOL0     C87793   9.275   9.040   5.262  0.6172 -0.2836 -0.3321
  637MOL0     C87794   9.306   9.178   5.255 -0.2745 -0.2670  0.4565
  637MOL0     C87795   9.422   9.244   5.311 -0.4882  0.2307  0.3269
  637MOL0     C87796   9.418   9.388   5.305  0.1098  0.5052 -0.2262
  637MOL0     C87797   9.526   9.159   5.349  0.1775  0.1390  0.2380
  637MOL0     C87798   9.662   9.204   5.395 -0.4941  0.4733  1.0545
  637MOL0     O87799   9.754   9.104   5.419  0.8944  0.2037  0.1629
  637MOL0     C87800   9.878   9.139   5.458  0.3893  0.2216 -0.5441
  637MOL0     C87801   9.927   9.100   5.585  0.1887  0.5140 -0.0551
  637MOL0     C87802  10.058   9.114   5.631  0.2577 -0.0885  0.0837
  637MOL0     C87803  10.150   9.175   5.545  0.6843  0.3170  0.4954
  637MOL0     O87804  10.271   9.223   5.587 -0.0121 -0.6300 -0.5160
  637MOL0     C87805  10.341   9.152   5.687 -0.6098  0.2575 -0.2344
  637MOL0     C87806  10.483   9.206   5.713  0.8856 -0.4385 -0.4934
  637MOL0     C87807  10.577   9.093   5.749  0.9725  0.2285 -0.4142
  637MOL0     C87808  10.632   9.012   5.635  0.4351  0.4257  0.4716
  637MOL0     C87809  10.720   8.900   5.673  0.6397  0.5417 -0.5292
  637MOL0     C87810  10.791   8.843   5.546  0.3485  0.0712  0.1788
  637MOL0     C87811  10.908   8.930   5.491 -0.6087  0.4171  0.1627
  637MOL0     C87812  11.010   8.943   5.601  0.2118  0.3694  0.0009
  637MOL0    Cl87813  11.149   9.029   5.539  0.0992  0.4338 -0.0974
  637MOL0     C87814  10.110   9.212   5.414  0.1423  0.7289 -0.5654
  637MOL0     C87815   9.982   9.189   5.376 -0.1068  0.3545  0.0780
  637MOL0     O87816   9.699   9.324   5.387  0.0208  0.1968 -0.1931
  637MOL0     C87817   9.499   9.020   5.354 -0.0311  1.2635  1.0029
  637MOL0     C87818   9.367   8.959   5.314 -0.0120 -0.5808 -0.0366
  637MOL0     N87819   8.707   8.671   4.916  0.2202  0.5789 -0.0838
  637MOL0     N87820   8.648   8.747   4.834  0.3108 -0.1507 -0.5821
  637MOL0     C87821   7.520   8.909   4.482  1.2412 -0.4107  0.1762
  637MOL0     C87822   7.436   8.872   4.378  0.5410 -0.2754  0.1233
  637MOL0     C87823   7.025   8.913   4.161  0.3159  0.8231 -0.0213
  637MOL0     C87824   7.003   8.784   4.114 -0.0864  0.3310 -0.4228
  637MOL0     C87825   6.899   8.744   4.028 -0.8396 -0.1418 -0.7354
  637MOL0     C87826   6.805   8.838   3.984 -0.7184  0.5864 -0.3641
  637MOL0     O87827   6.700   8.783   3.914  0.5065 -0.4900 -0.3399
  637MOL0     C87828   6.581   8.862   3.880 -0.5521 -0.5215  0.0162
  637MOL0     C87829   6.482   8.886   3.992  0.6494  0.3980  0.0207
  637MOL0     C87830   6.412   8.757   4.020 -0.0137  0.5425 -0.1964
  637MOL0     C87831   6.297   8.771   4.126 -0.3827  0.2340  0.1634
  637MOL0     C87832   6.199   8.879   4.100 -0.1340 -0.1799  0.4688
  637MOL0     C87833   6.106   8.960   4.097  1.3287  0.1397  1.1230
  637MOL0     C87834   6.824   8.973   4.033 -0.7844 -0.0631 -0.1379
  637MOL0     C87835   6.935   9.012   4.113 -0.6221 -0.2146  1.0207
  637MOL0     C87836   6.943   9.164   4.140  0.0890  0.5037 -0.6856
  637MOL0     H87837   7.135   8.875   4.543  0.2045 -0.0045  2.2799
  637MOL0     H87838   7.278   8.936   4.729 -1.7260  1.2116  0.3854
  637MOL0     H87839   7.683   8.794   4.669  1.7411 -1.0817  1.0410
  637MOL0     H87840   7.623   8.815   4.838  0.1340 -1.6846 -1.1319
  637MOL0     H87841   7.857   8.961   4.703 -0.5966 -0.0907 -0.5729
  637MOL0     H87842   7.790   8.995   4.861  0.6925 -0.7833  0.8387
  637MOL0     H87843   7.855   8.780   4.949 -0.6132 -2.5409 -0.6293
  637MOL0     H87844   7.892   8.714   4.789  0.5327  0.9850 -1.4824
  637MOL0     H87845   8.070   8.884   4.752  0.5200 -1.2713 -0.5993
  637MOL0     H87846   8.052   8.947   4.913  2.7251  0.6941 -1.0168
  637MOL0     H87847   8.101   8.653   4.887 -1.6988  0.1835 -0.5239
  637MOL0     H87848   8.129   8.763   5.025 -0.9527  2.7769 -0.1874
  637MOL0     H87849   8.330   8.684   4.910 -1.3545 -0.3952  1.5830
  637MOL0     H87850   8.279   8.771   4.758  2.6681  3.2127 -1.2648
  637MOL0     H87851   8.334   8.907   5.030  0.0378 -1.8018  0.5199
  637MOL0     H87852   8.286   8.994   4.884 -1.4403 -0.7792  0.5305
  637MOL0     H87853   8.482   8.928   4.753  2.0601  2.3244 -0.1465
  637MOL0     H87854   8.495   9.035   4.897 -0.3119  0.1991  0.8766
  637MOL0     H87855   8.602   8.909   5.111  3.1718  0.2551  0.6292
  637MOL0     H87856   8.762   8.560   5.150  2.0343  0.0949 -4.4244
  637MOL0     H87857   8.736   8.702   5.249  0.5536 -1.0204 -0.8364
  637MOL0     H87858   8.984   8.645   5.251  1.7221 -1.1366 -1.2523
  637MOL0     H87859   8.984   8.668   5.081  1.1500 -3.2646  1.3397
  637MOL0     H87860   8.935   8.901   5.088 -0.7555 -1.3186 -0.5383
  637MOL0     H87861   8.903   8.903   5.258  0.2523 -1.5443  0.7399
  637MOL0     H87862   9.128   8.824   5.312 -1.4238  0.1833  0.0360
  637MOL0     H87863   9.174   8.803   5.146  3.4251  0.5832  1.2705
  637MOL0     H87864   9.224   9.237   5.217  0.9578  0.6710 -0.8335
  637MOL0     H87865   9.491   9.432   5.373  2.8365 -1.5996 -1.5847
  637MOL0     H87866   9.319   9.429   5.327  0.1689  2.4142 -2.9373
  637MOL0     H87867   9.443   9.413   5.201 -1.4659 -1.7128 -1.2157
  637MOL0     H87868   9.850   9.067   5.655  0.1685 -1.1793 -0.8247
  637MOL0     H87869  10.072   9.089   5.735  0.4332  2.5215  0.7538
  637MOL0     H87870  10.288   9.163   5.782 -0.1719  1.7360 -0.1357
  637MOL0     H87871  10.346   9.047   5.658  2.6626  0.4021 -0.5251
  637MOL0     H87872  10.514   9.255   5.620  3.7135 -0.7531  0.1738
  637MOL0     H87873  10.501   9.277   5.794 -0.7130  1.9201 -2.0901
  637MOL0     H87874  10.519   9.020   5.806  2.6911  0.6469  2.0409
  637MOL0     H87875  10.655   9.133   5.815  1.7264 -2.2430  0.2815
  637MOL0     H87876  10.691   9.076   5.569  2.5787 -1.9758 -0.0903
  637MOL0     H87877  10.548   8.978   5.574  1.0969 -2.1547  0.8802
  637MOL0     H87878  10.788   8.911   5.758 -0.0519 -2.9466  0.6582
  637MOL0     H87879  10.648   8.823   5.703  1.3141  0.0233 -0.2349
  637MOL0     H87880  10.714   8.825   5.470 -0.9373 -0.5899  1.5977
  637MOL0     H87881  10.825   8.742   5.573 -2.6601 -1.8054 -2.3443
  637MOL0     H87882  10.867   9.024   5.453 -0.5528  0.4290  0.1322
  637MOL0     H87883  10.961   8.891   5.403 -1.7991 -1.2100  0.1388
  637MOL0     H87884  11.045   8.842   5.626  1.9523  0.5021 -1.6642
  637MOL0     H87885  10.968   8.993   5.689 -0.4147 -0.8054  0.3905
  637MOL0     H87886  10.180   9.248   5.340  0.3484  0.1654 -0.6527
  637MOL0     H87887   9.953   9.204   5.272  0.9014 -0.2008 -0.2998
  637MOL0     H87888   9.574   8.945   5.378 -3.1464 -1.6462  2.4509
  637MOL0     H87889   9.360   8.851   5.320 -0.3170 -0.6363 -1.2152
  637MOL0     H87890   7.624   8.924   4.454 -0.4516  2.5641 -6.0345
  637MOL0     H87891   7.478   8.868   4.278 -0.5048  1.2071 -0.4114
  637MOL0     H87892   7.072   8.705   4.139 -0.9640 -0.2911  0.0781
  637MOL0     H87893   6.898   8.640   3.996 -2.6675 -0.4351  0.0983
  637MOL0     H87894   6.617   8.962   3.853 -1.2726  0.1674  1.4671
  637MOL0     H87895   6.534   8.818   3.791  0.9470  1.8820 -2.1070
  637MOL0     H87896   6.409   8.960   3.956 -2.2954 -1.5802  1.5102
  637MOL0     H87897   6.534   8.933   4.076  4.4616  2.8690 -3.3168
  637MOL0     H87898   6.375   8.704   3.931  0.4556 -1.2894  0.6622
  637MOL0     H87899   6.490   8.704   4.075 -0.7972  1.1162  1.5448
  637MOL0     H87900   6.346   8.797   4.221  2.3167 -0.1805 -1.0172
  637MOL0     H87901   6.242   8.677   4.137  0.3789 -0.2414  0.0014
  637MOL0     H87902   6.039   9.044   4.100  2.2312  0.9390 -0.3837
  637MOL0     H87903   6.754   9.054   4.014 -0.4806  0.1117 -0.5264
  637MOL0     H87904   6.919   9.189   4.244 -0.7871  2.6492 -1.3412
  637MOL0     H87905   7.048   9.190   4.126  0.7317 -1.4278  0.2005
  637MOL0     H87906   6.879   9.226   4.076  0.1849 -1.3481 -2.7056
  638MOL0     O87907   2.088   8.652   4.714 -0.5525 -0.4969  0.3039
  638MOL0     C87908   2.075   8.767   4.749  0.8953 -1.2003  0.7049
  638MOL0     O87909   1.960   8.827   4.780  0.3968 -0.1723  0.3457
  638MOL0     C87910   1.844   8.754   4.776  1.2377 -0.2123 -1.1317
  638MOL0     C87911   1.790   8.741   4.647  0.4712 -0.0357 -0.7018
  638MOL0     C87912   1.665   8.689   4.633  0.0280  0.5002  0.1852
  638MOL0     C87913   1.585   8.646   4.741  0.4152 -0.3386  0.0119
  638MOL0     O87914   1.463   8.588   4.728  0.0551  0.2734 -0.2754
  638MOL0     C87915   1.386   8.644   4.619  0.2207 -0.0071  0.5485
  638MOL0     C87916   1.243   8.619   4.657 -0.5212 -1.0117 -0.3090
  638MOL0     C87917   1.144   8.661   4.539  0.3698 -0.2687  0.4047
  638MOL0     C87918   1.123   8.538   4.449  0.7564  0.2225 -0.0581
  638MOL0     C87919   0.978   8.537   4.404 -0.2649 -0.9166 -0.5016
  638MOL0     C87920   0.975   8.478   4.265  1.1206  0.0628 -0.7475
  638MOL0     C87921   0.830   8.477   4.210 -0.4642  0.9121  0.0601
  638MOL0     C87922   0.769   8.618   4.175 -0.2673 -0.2348  0.6763
  638MOL0     N87923   0.842   8.695   4.073 -0.1806  0.4279 -0.2323
  638MOL0     C87924   0.831   8.673   3.937 -0.0686 -0.8562 -0.5932
  638MOL0     C87925   0.927   8.755   3.881  0.3005  0.3959  0.4984
  638MOL0     C87926   0.926   8.785   3.728 -1.2451  0.0221 -1.2148
  638MOL0     C87927   0.830   8.900   3.688 -1.0163 -0.1195  0.0695
  638MOL0     C87928   0.884   8.981   3.573 -0.2212 -0.0687  0.4791
  638MOL0     C87929   0.762   9.063   3.517  0.2641  0.3690  0.7589
  638MOL0     O87930   0.733   9.164   3.614  0.0706 -0.3705 -0.9259
  638MOL0     C87931   0.623   9.245   3.587  0.1027 -0.0622 -0.0905
  638MOL0     C87932   0.600   9.354   3.679  0.3224 -0.1629 -0.4733
  638MOL0     C87933   0.489   9.447   3.668  0.2295 -0.2906  0.6563
  638MOL0     C87934   0.456   9.538   3.782 -0.5857  0.1882  0.4151
  638MOL0     C87935   0.437   9.466   3.535 -0.2092  0.4522 -0.3754
  638MOL0     C87936   0.344   9.568   3.488  0.0314 -0.7470 -0.4054
  638MOL0     O87937   0.363   9.615   3.359 -0.0162  0.1726  0.0364
  638MOL0     C87938   0.262   9.694   3.306 -0.2350  1.0314 -0.8381
  638MOL0     C87939   0.203   9.646   3.196  1.2032  1.2407 -0.3351
  638MOL0     C87940   0.090   9.716   3.135  0.0024  0.0681 -1.1504
  638MOL0     C87941   0.038   9.828   3.202  0.5945  0.8079  0.4045
  638MOL0     O87942  -0.065   9.887   3.133  0.2424  0.3838  0.0867
  638MOL0     C87943  -0.184   9.807   3.149  0.2523 -0.0950 -0.2187
  638MOL0     C87944  -0.295   9.896   3.218 -0.5579  0.5893  0.2048
  638MOL0     C87945  -0.427   9.826   3.231  0.0587  0.8882  0.1769
  638MOL0     C87946  -0.535   9.911   3.292 -0.0327 -0.3097 -0.5807
  638MOL0     C87947  -0.660   9.821   3.323 -0.4522 -0.4478  0.1530
  638MOL0     C87948  -0.775   9.887   3.388  0.3381  0.5689 -0.0281
  638MOL0     C87949  -0.899   9.805   3.364  0.0823  0.3669  0.1237
  638MOL0     C87950  -1.032   9.864   3.407 -0.5197  0.4742  0.2111
  638MOL0    Cl87951  -1.027   9.882   3.588 -0.2266 -0.0580  0.0000
  638MOL0     C87952   0.091   9.873   3.316 -0.0296 -0.5299 -0.3723
  638MOL0     C87953   0.205   9.808   3.365 -0.6267 -0.1567 -0.1901
  638MOL0     O87954   0.252   9.590   3.563  0.5654 -0.3991 -0.9125
  638MOL0     C87955   0.462   9.360   3.445 -1.2170 -0.3420  0.1351
  638MOL0     C87956   0.555   9.254   3.473  0.3939 -0.3454  0.6174
  638MOL0     N87957   1.001   8.815   3.981  0.2769  0.1690  0.6235
  638MOL0     N87958   0.958   8.769   4.102 -0.3443  0.9974  0.0502
  638MOL0     C87959   1.640   8.667   4.875 -0.8132  0.6343  0.4687
  638MOL0     C87960   1.768   8.725   4.890 -0.9318  0.0848  0.1928
  638MOL0     C87961   2.187   8.847   4.776  0.6054  0.2688  0.5528
  638MOL0     C87962   2.200   8.899   4.906 -0.8193  0.3896  0.1613
  638MOL0     C87963   2.313   8.977   4.941  0.0118 -0.0263  0.5741
  638MOL0     C87964   2.404   9.017   4.842  0.4040  0.1835 -0.8531
  638MOL0     O87965   2.510   9.097   4.887  0.5742 -0.3176  0.5010
  638MOL0     C87966   2.614   9.126   4.793  1.1811  0.8850 -0.0293
  638MOL0     C87967   2.717   9.218   4.855  0.1507 -0.6558  0.1952
  638MOL0     C87968   2.775   9.167   4.989  0.3738 -0.0230 -0.1438
  638MOL0     C87969   2.894   9.235   5.056 -0.0739 -0.1938  0.1801
  638MOL0     C87970   2.866   9.376   5.079 -0.3294  0.0563 -0.1480
  638MOL0     C87971   2.828   9.487   5.093 -0.5592  0.0518  0.6655
  638MOL0     C87972   2.392   8.956   4.718  0.8356 -0.4244  0.4798
  638MOL0     C87973   2.288   8.871   4.680 -0.2325 -0.3272 -1.2925
  638MOL0     C87974   2.302   8.815   4.536  0.2920  0.6250 -0.8606
  638MOL0     H87975   1.846   8.769   4.558  1.4275 -2.0040 -0.7678
  638MOL0     H87976   1.638   8.674   4.529  0.3500  0.4576  0.1066
  638MOL0     H87977   1.409   8.588   4.528 -0.4602 -1.3236  1.1546
  638MOL0     H87978   1.405   8.750   4.600  0.2697 -0.4368 -2.2373
  638MOL0     H87979   1.231   8.516   4.693 -1.1433  0.2200  3.5326
  638MOL0     H87980   1.226   8.683   4.745 -1.6524 -1.0644 -0.4778
  638MOL0     H87981   1.048   8.700   4.574 -0.9061 -0.0150 -2.9540
  638MOL0     H87982   1.179   8.739   4.470 -0.2253 -2.3942 -2.4735
  638MOL0     H87983   1.198   8.525   4.370  1.1488 -1.0348  0.4962
  638MOL0     H87984   1.138   8.443   4.502 -0.7948 -1.1537 -1.9649
  638MOL0     H87985   0.939   8.639   4.395  1.5283 -0.3101 -2.2472
  638MOL0     H87986   0.908   8.487   4.471 -1.8213  2.5041  0.6243
  638MOL0     H87987   1.054   8.529   4.208  4.2982  2.7866  5.1618
  638MOL0     H87988   1.011   8.375   4.276  0.8516  0.0539  0.0790
  638MOL0     H87989   0.785   8.427   4.295  3.7187  1.0271  2.6353
  638MOL0     H87990   0.816   8.408   4.127 -0.1721  1.6660 -0.6390
  638MOL0     H87991   0.669   8.603   4.134  0.1731 -0.4441 -0.3705
  638MOL0     H87992   0.771   8.675   4.268  1.4139  0.5565  0.2024
  638MOL0     H87993   0.758   8.620   3.876  2.0612 -1.2761 -2.9598
  638MOL0     H87994   0.897   8.691   3.679 -0.4039 -0.7455 -0.2840
  638MOL0     H87995   1.030   8.803   3.702 -0.9758 -0.6139 -0.6102
  638MOL0     H87996   0.741   8.846   3.654 -0.5187 -0.2634 -1.0402
  638MOL0     H87997   0.811   8.968   3.772  1.1595  1.7927 -0.8805
  638MOL0     H87998   0.959   9.043   3.625 -0.2200 -0.7766  1.3399
  638MOL0     H87999   0.933   8.919   3.498  0.8113  0.1908  0.9045
  638MOL0     H88000   0.776   9.116   3.423 -0.3883  0.7516  0.8690
  638MOL0     H88001   0.684   8.991   3.490  1.3862 -0.6246  0.1084
  638MOL0     H88002   0.677   9.345   3.755  0.0915 -3.5566 -0.4716
  638MOL0     H88003   0.377   9.492   3.841 -3.0872  3.0728 -0.4128
  638MOL0     H88004   0.424   9.637   3.748 -4.1711 -0.2185  2.1416
  638MOL0     H88005   0.549   9.552   3.838 -0.6443 -0.3238  0.6366
  638MOL0     H88006   0.247   9.559   3.149  0.7209  0.3237  0.8603
  638MOL0     H88007   0.035   9.679   3.049  1.2692 -2.4052 -0.9936
  638MOL0     H88008  -0.216   9.774   3.050 -0.7036 -0.3930  0.1728
  638MOL0     H88009  -0.178   9.709   3.198  0.0121  0.3992  0.8198
  638MOL0     H88010  -0.261   9.912   3.321 -2.4647  2.2694  0.6245
  638MOL0     H88011  -0.305   9.990   3.163 -1.3478  1.2237  1.4053
  638MOL0     H88012  -0.411   9.733   3.286  0.0303 -0.2868 -1.7144
  638MOL0     H88013  -0.455   9.792   3.131  0.6865 -0.8460  0.5454
  638MOL0     H88014  -0.567   9.992   3.226 -1.9175  0.2853  0.9722
  638MOL0     H88015  -0.489   9.956   3.381  0.6607 -1.9874 -0.0515
  638MOL0     H88016  -0.694   9.784   3.226 -0.6519 -2.5024  0.9406
  638MOL0     H88017  -0.630   9.736   3.386 -0.7937  0.2318  1.2550
  638MOL0     H88018  -0.796   9.990   3.358 -1.2604  0.4459  0.5629
  638MOL0     H88019  -0.753   9.883   3.495  1.5227 -1.1692 -0.2889
  638MOL0     H88020  -0.878   9.705   3.403  1.0351  0.5350  0.0596
  638MOL0     H88021  -0.915   9.790   3.257 -4.3782 -1.6129  0.8319
  638MOL0     H88022  -1.116   9.798   3.383  1.1890 -2.1333  0.9853
  638MOL0     H88023  -1.049   9.959   3.356  0.2250 -0.6345 -2.2695
  638MOL0     H88024   0.046   9.961   3.362 -1.3917 -1.0088 -0.7604
  638MOL0     H88025   0.250   9.847   3.457 -2.0076 -0.3644  0.6012
  638MOL0     H88026   0.416   9.351   3.347  1.1458  0.2853 -1.1263
  638MOL0     H88027   0.572   9.182   3.394 -0.3334 -0.3411  0.4516
  638MOL0     H88028   1.592   8.638   4.967 -1.3307  2.1910  0.7208
  638MOL0     H88029   1.804   8.741   4.991  1.0306  0.4083 -0.5133
  638MOL0     H88030   2.130   8.880   4.987  0.2904 -0.0574  1.0457
  638MOL0     H88031   2.318   9.014   5.042 -1.2129  0.3401  0.5209
  638MOL0     H88032   2.667   9.033   4.771  1.3176  1.2058 -1.0881
  638MOL0     H88033   2.581   9.162   4.696  0.2780 -2.5441 -1.1455
  638MOL0     H88034   2.660   9.311   4.869  2.6575  1.2866 -1.5385
  638MOL0     H88035   2.801   9.241   4.788  1.1575  0.4843  1.7653
  638MOL0     H88036   2.691   9.168   5.058  1.6029  1.9008  1.4627
  638MOL0     H88037   2.813   9.066   4.971  0.9893  0.0948  0.4557
  638MOL0     H88038   2.983   9.232   4.992  0.3597  3.0156  0.4690
  638MOL0     H88039   2.912   9.173   5.144 -0.9366  0.5612  0.9102
  638MOL0     H88040   2.811   9.592   5.102 -1.4210 -0.0657  0.4806
  638MOL0     H88041   2.465   8.968   4.639 -2.4052 -1.2053 -2.9339
  638MOL0     H88042   2.382   8.860   4.477  0.5779  2.2510  0.6855
  638MOL0     H88043   2.299   8.705   4.539 -2.4076  0.6545  0.0083
  638MOL0     H88044   2.214   8.831   4.473  0.4474 -1.1584 -1.5895
  639MOL0     O88045  10.808   2.392   3.683  0.5118  0.2698 -0.3494
  639MOL0     C88046  10.699   2.361   3.643  0.0269 -0.7944  0.6578
  639MOL0     O88047  10.655   2.388   3.521  0.1501 -0.6461  0.0486
  639MOL0     C88048  10.735   2.412   3.415  0.1022  0.2844 -1.0720
  639MOL0     C88049  10.871   2.360   3.406  0.7997  0.4541 -0.1515
  639MOL0     C88050  10.949   2.389   3.295 -0.6296  0.0028 -0.5983
  639MOL0     C88051  10.909   2.477   3.196  0.4996  0.2497  0.4577
  639MOL0     O88052  10.988   2.500   3.081  0.3019  0.9971 -0.8757
  639MOL0     C88053  11.129   2.523   3.103 -0.3880  0.0074  0.5323
  639MOL0     C88054  11.194   2.551   2.965 -0.0826  0.3860  0.1616
  639MOL0     C88055  11.347   2.548   2.976  0.0761  0.2431  0.1751
  639MOL0     C88056  11.404   2.634   2.866  0.4001  0.4114  0.3088
  639MOL0     C88057  11.563   2.639   2.885 -0.3699  0.4760  0.2622
  639MOL0     C88058  11.612   2.744   2.992  0.5850  0.8652  0.3157
  639MOL0     C88059  11.761   2.774   2.980  0.4773 -0.5216 -0.5675
  639MOL0     C88060  11.845   2.663   3.035 -0.2917 -0.1695 -0.1096
  639MOL0     N88061  11.993   2.671   2.996  0.4051 -0.3257 -0.1288
  639MOL0     C88062  12.034   2.631   2.868  0.2030 -0.3908 -0.2928
  639MOL0     C88063  12.170   2.660   2.873 -0.3080 -0.3636 -0.1043
  639MOL0     C88064  12.259   2.609   2.764  0.0681 -0.0361 -0.4677
  639MOL0     C88065  12.401   2.573   2.819  0.2273 -0.2170  0.0170
  639MOL0     C88066  12.498   2.555   2.699  0.6642  0.3163  0.3991
  639MOL0     C88067  12.622   2.483   2.743 -0.9374 -0.5898  0.3670
  639MOL0     O88068  12.689   2.563   2.839 -0.4431 -0.3959 -0.3519
  639MOL0     C88069  12.821   2.530   2.879  0.3370 -0.1664  0.3037
  639MOL0     C88070  12.872   2.592   2.993  0.4711 -0.2374  0.3880
  639MOL0     C88071  12.998   2.569   3.047  0.3813  0.4503  0.1287
  639MOL0     C88072  13.043   2.661   3.163  0.0979  0.1190 -0.1317
  639MOL0     C88073  13.079   2.475   2.985  0.2542  0.6470  0.4800
  639MOL0     C88074  13.222   2.446   3.017  0.1206 -0.2853 -0.1604
  639MOL0     O88075  13.266   2.454   3.143 -0.6762  0.5460  0.4067
  639MOL0     C88076  13.396   2.464   3.174 -0.1040 -1.1471 -0.1129
  639MOL0     C88077  13.490   2.358   3.168 -0.1731 -0.3051  1.0476
  639MOL0     C88078  13.624   2.385   3.210 -0.2518  0.2196 -0.2022
  639MOL0     C88079  13.666   2.508   3.243 -0.0328 -0.0195 -1.1863
  639MOL0     O88080  13.793   2.545   3.280 -0.5909  0.6043 -0.2348
  639MOL0     C88081  13.862   2.458   3.366  0.3368  0.4485 -0.1702
  639MOL0     C88082  14.009   2.503   3.397 -0.6180 -0.2453 -0.2369
  639MOL0     C88083  14.074   2.432   3.510 -0.0363  0.4905 -0.3557
  639MOL0     C88084  14.208   2.497   3.559 -0.5059 -0.1630  0.1333
  639MOL0     C88085  14.326   2.494   3.456 -0.2498  0.1447  0.5597
  639MOL0     C88086  14.461   2.530   3.518  0.4706  0.6574  0.0381
  639MOL0     C88087  14.466   2.671   3.564  0.4830  0.2010 -0.3738
  639MOL0     C88088  14.613   2.713   3.564 -0.7847 -0.2457  0.1741
  639MOL0    Cl88089  14.717   2.618   3.675  0.0642 -0.3000  0.4899
  639MOL0     C88090  13.576   2.616   3.233  0.2422  0.1097 -0.0046
  639MOL0     C88091  13.447   2.596   3.187  0.9063 -0.4946 -0.5343
  639MOL0     O88092  13.293   2.431   2.915 -0.6231 -0.0382  0.3385
  639MOL0     C88093  13.018   2.393   2.881 -0.4460  0.3143 -0.6661
  639MOL0     C88094  12.896   2.420   2.834  0.2474 -0.3753  0.5348
  639MOL0     N88095  12.203   2.727   2.992  0.0693  0.3002 -0.1179
  639MOL0     N88096  12.096   2.739   3.062  0.1590 -0.3912 -0.4180
  639MOL0     C88097  10.775   2.526   3.198  0.3685  0.1934 -0.4380
  639MOL0     C88098  10.694   2.490   3.308 -0.2373  0.0447 -0.3299
  639MOL0     C88099  10.604   2.287   3.740  0.7137  0.2556 -0.4934
  639MOL0     C88100  10.495   2.221   3.683  0.0073  0.5047 -0.0439
  639MOL0     C88101  10.416   2.134   3.761  0.0524  0.5446  0.5977
  639MOL0     C88102  10.426   2.134   3.901 -0.1359 -0.1024  0.1911
  639MOL0     O88103  10.337   2.072   3.983  0.0491 -0.1430  0.3166
  639MOL0     C88104  10.200   2.048   3.938  0.8100  0.0055  0.2515
  639MOL0     C88105  10.104   2.044   4.058 -0.9758  0.3596 -0.2599
  639MOL0     C88106  10.152   1.929   4.155  0.6322  0.2991  0.2917
  639MOL0     C88107  10.085   1.797   4.107 -0.1284 -0.0143  0.1904
  639MOL0     C88108  10.143   1.679   4.173  0.5669 -0.0493  0.4742
  639MOL0     C88109  10.206   1.591   4.225  0.2118  0.9638 -0.3135
  639MOL0     C88110  10.530   2.210   3.960  0.5750 -0.5872  1.3708
  639MOL0     C88111  10.611   2.289   3.886 -0.1333 -0.3638 -0.4391
  639MOL0     C88112  10.705   2.380   3.969 -1.4294 -0.2001 -0.2428
  639MOL0     H88113  10.896   2.288   3.483 -1.4082  0.5150  0.7233
  639MOL0     H88114  11.048   2.345   3.299  0.2550  1.8767 -0.8741
  639MOL0     H88115  11.177   2.436   3.149  0.3736 -0.1344 -0.5004
  639MOL0     H88116  11.127   2.610   3.169 -2.8674 -1.4503  2.5866
  639MOL0     H88117  11.154   2.483   2.889 -0.0385  1.3474 -0.7329
  639MOL0     H88118  11.156   2.644   2.923 -1.2827 -0.2684 -0.2605
  639MOL0     H88119  11.384   2.577   3.075 -0.7593 -1.9493  1.2025
  639MOL0     H88120  11.378   2.446   2.953 -1.8610  0.1564 -2.4755
  639MOL0     H88121  11.398   2.580   2.771  1.5432  1.2638 -0.2866
  639MOL0     H88122  11.352   2.731   2.859 -1.6515 -0.6591  0.0658
  639MOL0     H88123  11.614   2.665   2.792  2.6361  1.6449  2.0806
  639MOL0     H88124  11.595   2.536   2.902  1.3602  0.8184 -0.6638
  639MOL0     H88125  11.551   2.834   2.980 -0.6627 -0.0399 -0.3516
  639MOL0     H88126  11.601   2.696   3.090 -0.3935 -3.5194 -1.7137
  639MOL0     H88127  11.784   2.867   3.033 -0.5012 -1.1369  0.9778
  639MOL0     H88128  11.798   2.795   2.879  4.9798  0.1175  0.9968
  639MOL0     H88129  11.843   2.662   3.144 -0.0175  0.3475 -0.0966
  639MOL0     H88130  11.803   2.572   2.991 -1.5815  0.8591 -1.0796
  639MOL0     H88131  11.978   2.588   2.786 -3.1948 -0.3516  1.8334
  639MOL0     H88132  12.272   2.699   2.702  3.2588 -1.1994 -1.7104
  639MOL0     H88133  12.214   2.531   2.702  2.8990 -1.4948 -0.8667
  639MOL0     H88134  12.443   2.648   2.887  1.2649  0.3628 -1.2204
  639MOL0     H88135  12.388   2.476   2.868 -2.1372  0.3059  0.5201
  639MOL0     H88136  12.459   2.500   2.613  3.1834  1.0151 -1.3053
  639MOL0     H88137  12.530   2.653   2.663 -3.0963  2.0620  1.3187
  639MOL0     H88138  12.600   2.392   2.800 -0.1201 -0.3656  1.0614
  639MOL0     H88139  12.679   2.470   2.651 -1.4216  1.7553 -0.3184
  639MOL0     H88140  12.820   2.672   3.045 -0.4935 -1.0710  0.7193
  639MOL0     H88141  12.963   2.725   3.200 -1.0962  0.4588 -3.0217
  639MOL0     H88142  13.123   2.724   3.125 -1.5486  3.4014  1.4558
  639MOL0     H88143  13.076   2.602   3.249 -1.2646 -0.8895 -0.2620
  639MOL0     H88144  13.459   2.258   3.140 -1.5689  0.2710  0.4722
  639MOL0     H88145  13.704   2.311   3.209  1.0809  1.5411  1.3017
  639MOL0     H88146  13.806   2.454   3.459 -1.7874 -0.2860 -1.3982
  639MOL0     H88147  13.872   2.354   3.333 -0.5787 -0.0222  0.9849
  639MOL0     H88148  14.065   2.483   3.305 -0.6270 -0.6670 -0.1520
  639MOL0     H88149  14.013   2.612   3.397  1.5269 -0.1604 -3.6030
  639MOL0     H88150  14.104   2.330   3.485 -3.3541 -0.8678  0.7289
  639MOL0     H88151  13.993   2.421   3.583 -1.2229  2.3102 -1.3299
  639MOL0     H88152  14.230   2.440   3.650  1.5297 -1.8616 -1.3088
  639MOL0     H88153  14.183   2.601   3.583 -1.0800 -0.8117  2.6141
  639MOL0     H88154  14.334   2.390   3.424 -0.1037 -0.2415  1.7949
  639MOL0     H88155  14.309   2.563   3.373 -2.4962  0.8169  1.5215
  639MOL0     H88156  14.535   2.514   3.439  1.7750 -2.0993  1.6842
  639MOL0     H88157  14.488   2.452   3.590  0.6734 -1.7395 -2.4712
  639MOL0     H88158  14.420   2.679   3.663  0.3271 -0.1515 -0.4187
  639MOL0     H88159  14.420   2.741   3.493  0.0619  0.8228  0.4853
  639MOL0     H88160  14.618   2.818   3.596 -0.9830  0.0323 -0.6755
  639MOL0     H88161  14.650   2.709   3.461 -1.7806 -0.4238 -0.1924
  639MOL0     H88162  13.616   2.716   3.249  1.2539 -0.6696  2.9052
  639MOL0     H88163  13.378   2.679   3.176  2.2104  0.6889 -0.1480
  639MOL0     H88164  13.078   2.315   2.834 -0.6044  0.4910 -1.1605
  639MOL0     H88165  12.861   2.365   2.748 -0.9330 -0.3241  0.9733
  639MOL0     H88166  10.734   2.580   3.113 -1.9153 -0.1461  0.3884
  639MOL0     H88167  10.593   2.531   3.308 -0.6597 -0.8961 -2.0951
  639MOL0     H88168  10.483   2.224   3.575  2.5785 -0.5259 -0.4246
  639MOL0     H88169  10.333   2.085   3.712  0.7546 -1.2779  1.1104
  639MOL0     H88170  10.163   2.135   3.883  1.0227 -0.3189 -0.4150
  639MOL0     H88171  10.207   1.958   3.876  4.1922 -1.8112  2.9402
  639MOL0     H88172  10.000   2.028   4.029 -0.8009 -2.3712  0.3715
  639MOL0     H88173  10.103   2.134   4.120  1.4523 -0.7910  1.6108
  639MOL0     H88174  10.261   1.925   4.161  0.8819 -0.3304 -3.0246
  639MOL0     H88175  10.127   1.944   4.261 -3.3467  0.0507 -0.4495
  639MOL0     H88176  10.096   1.785   3.999  0.6613  2.1628 -0.0258
  639MOL0     H88177   9.979   1.801   4.130 -0.3832  1.5023 -1.0774
  639MOL0     H88178  10.256   1.506   4.267  0.8493  0.0505 -2.7606
  639MOL0     H88179  10.538   2.215   4.068 -0.4388 -0.1556  1.4388
  639MOL0     H88180  10.800   2.381   3.915 -1.3521  1.9861 -0.1603
  639MOL0     H88181  10.664   2.482   3.969 -1.5629 -0.2547 -0.2254
  639MOL0     H88182  10.728   2.342   4.069 -0.0703  1.6904  0.2340
  640MOL0     O88183   6.176   2.635  10.334  0.3418 -1.3772  0.0603
  640MOL0     C88184   6.128   2.599  10.442 -0.8813 -0.2978  0.5557
  640MOL0     O88185   6.190   2.614  10.560 -0.4721  0.5478 -0.5563
  640MOL0     C88186   6.327   2.634  10.553  0.2027  0.1928  0.3980
  640MOL0     C88187   6.418   2.532  10.508 -0.2766 -0.2905 -0.4416
  640MOL0     C88188   6.551   2.561  10.483 -0.3351  0.9947  0.0024
  640MOL0     C88189   6.593   2.687  10.518  0.5201 -0.6938 -0.0181
  640MOL0     O88190   6.725   2.736  10.503 -0.9273  0.3273  0.0111
  640MOL0     C88191   6.832   2.651  10.469  0.1994  0.0727 -0.1044
  640MOL0     C88192   6.960   2.742  10.487  0.1450 -0.6142  0.0307
  640MOL0     C88193   7.078   2.664  10.430 -0.0715  0.1344 -0.3269
  640MOL0     C88194   7.168   2.609  10.543 -1.0727  0.6737 -0.3604
  640MOL0     C88195   7.299   2.686  10.547  0.7027  0.2439 -0.8475
  640MOL0     C88196   7.390   2.661  10.668 -0.0974 -0.2365 -0.0161
  640MOL0     C88197   7.521   2.736  10.649  0.4036  0.7584 -1.1783
  640MOL0     C88198   7.612   2.685  10.765 -0.3454  0.3067  0.0922
  640MOL0     N88199   7.731   2.765  10.786 -0.6648 -0.0839 -0.5320
  640MOL0     C88200   7.843   2.762  10.706 -0.3101 -0.2127  0.3103
  640MOL0     C88201   7.943   2.829  10.767 -0.0203  0.6909 -0.0741
  640MOL0     C88202   8.079   2.839  10.689  0.4585 -0.2624  0.6280
  640MOL0     C88203   8.169   2.926  10.773 -0.5142 -0.2781 -0.9055
  640MOL0     C88204   8.303   2.931  10.693  0.2573  0.3782  0.3512
  640MOL0     C88205   8.396   3.030  10.765  0.2483 -0.1385  0.3282
  640MOL0     O88206   8.528   3.027  10.714  0.5598 -0.0328 -0.2859
  640MOL0     C88207   8.622   3.075  10.799  0.9299  0.2827  0.3691
  640MOL0     C88208   8.608   3.186  10.878  0.6893 -0.5150  0.2560
  640MOL0     C88209   8.702   3.237  10.973 -0.2587  0.3507  0.7874
  640MOL0     C88210   8.668   3.366  11.051 -0.0897  0.7277  0.1995
  640MOL0     C88211   8.832   3.179  10.972  0.5299  1.1096  0.4844
  640MOL0     C88212   8.934   3.214  11.064 -1.0796  0.6183 -0.6557
  640MOL0     O88213   9.047   3.266  11.017 -0.1208  0.5359 -0.3966
  640MOL0     C88214   9.131   3.331  11.098  0.2881 -0.7379 -0.6657
  640MOL0     C88215   9.263   3.298  11.108 -0.9819 -0.2435  0.1636
  640MOL0     C88216   9.355   3.377  11.183 -0.3395  0.4399  0.1690
  640MOL0     C88217   9.311   3.480  11.269  0.3007  0.0395 -0.0251
  640MOL0     O88218   9.379   3.547  11.366 -0.0722 -0.1463  0.4712
  640MOL0     C88219   9.523   3.525  11.380 -0.1587  0.3721 -0.6075
  640MOL0     C88220   9.574   3.610  11.488 -0.1242 -0.2387 -0.1553
  640MOL0     C88221   9.734   3.628  11.477 -0.3540  0.1984 -0.7909
  640MOL0     C88222   9.784   3.721  11.590 -0.4535 -0.3142  0.5037
  640MOL0     C88223   9.933   3.754  11.573  0.7349 -0.9202  0.7244
  640MOL0     C88224   9.986   3.808  11.700 -0.0141 -0.2348 -0.7279
  640MOL0     C88225  10.112   3.892  11.675  0.2302 -0.1482 -0.2567
  640MOL0     C88226  10.161   3.978  11.797 -0.0164  0.5098  0.1411
  640MOL0    Cl88227  10.033   4.108  11.827 -0.5167 -0.3489 -0.0867
  640MOL0     C88228   9.176   3.505  11.268 -0.1702 -0.8348 -0.3994
  640MOL0     C88229   9.080   3.437  11.181  0.4371  0.2267  0.1621
  640MOL0     O88230   8.900   3.202  11.188  0.0622 -0.7229  0.1122
  640MOL0     C88231   8.847   3.064  10.885  0.5979  0.5682  0.3115
  640MOL0     C88232   8.744   3.006  10.810 -0.3809  0.0747  0.0239
  640MOL0     N88233   7.890   2.883  10.875  0.8652 -0.5000  0.0400
  640MOL0     N88234   7.766   2.853  10.886  0.0262  0.1626 -0.1600
  640MOL0     C88235   6.505   2.788  10.556  0.2388 -0.0213 -0.1522
  640MOL0     C88236   6.367   2.768  10.569 -0.2308 -0.3693 -0.8548
  640MOL0     C88237   5.992   2.565  10.442 -0.3700  0.7993  0.3242
  640MOL0     C88238   5.954   2.435  10.478 -0.7447 -0.0838  0.1272
  640MOL0     C88239   5.825   2.403  10.531  0.5071 -0.2481 -0.6734
  640MOL0     C88240   5.719   2.496  10.507  0.3093  0.0467  0.0528
  640MOL0     O88241   5.584   2.473  10.514 -0.0408 -0.4643  0.2736
  640MOL0     C88242   5.530   2.342  10.518  1.5173  0.6741 -0.0139
  640MOL0     C88243   5.378   2.346  10.483 -0.2298 -0.1391 -0.8941
  640MOL0     C88244   5.361   2.383  10.340  0.4065  0.0864  0.3768
  640MOL0     C88245   5.217   2.393  10.291 -0.0168 -0.2551  0.1369
  640MOL0     C88246   5.140   2.478  10.368  0.3823 -0.1786  0.3646
  640MOL0     C88247   5.084   2.559  10.450 -0.7525  0.5128 -0.1163
  640MOL0     C88248   5.756   2.624  10.464 -0.3453 -0.1104 -1.2599
  640MOL0     C88249   5.887   2.659  10.428  0.6741 -0.5873 -0.0144
  640MOL0     C88250   5.919   2.801  10.372  0.5411  0.1436 -0.2638
  640MOL0     H88251   6.385   2.434  10.475  1.1245 -0.9256 -0.0111
  640MOL0     H88252   6.612   2.477  10.451 -1.0434  0.1102  0.9155
  640MOL0     H88253   6.827   2.617  10.365 -0.7400  1.0458 -0.4054
  640MOL0     H88254   6.838   2.570  10.542  1.5698  1.3032  1.2105
  640MOL0     H88255   6.959   2.843  10.445  1.4084 -0.9368 -0.8166
  640MOL0     H88256   6.971   2.756  10.595 -1.3255 -1.3287  0.3054
  640MOL0     H88257   7.047   2.585  10.361 -0.1188 -0.6491  0.5735
  640MOL0     H88258   7.141   2.727  10.367 -2.4362  2.2203 -0.7561
  640MOL0     H88259   7.113   2.612  10.638 -1.6495  1.0392 -0.6935
  640MOL0     H88260   7.195   2.507  10.515 -0.1134  1.5187 -2.7612
  640MOL0     H88261   7.275   2.792  10.551 -3.2257 -0.5424  0.5923
  640MOL0     H88262   7.358   2.660  10.458  0.7616 -0.5298 -0.5941
  640MOL0     H88263   7.340   2.690  10.760  0.6623  0.8038  0.0898
  640MOL0     H88264   7.424   2.558  10.680  0.2151 -0.1570 -0.2059
  640MOL0     H88265   7.509   2.844  10.659  1.4150  0.8784 -1.1616
  640MOL0     H88266   7.564   2.721  10.550 -0.6991  2.4129 -1.9412
  640MOL0     H88267   7.548   2.686  10.853 -2.3262 -1.1483 -1.2295
  640MOL0     H88268   7.643   2.582  10.743 -1.5165  0.4294 -2.5451
  640MOL0     H88269   7.844   2.749  10.598 -0.6777  1.5717  0.0540
  640MOL0     H88270   8.057   2.880  10.590  1.2028  0.0976  0.6019
  640MOL0     H88271   8.120   2.738  10.680  1.1732  0.0525  0.2658
  640MOL0     H88272   8.140   3.031  10.786  0.9811 -0.1916  4.2470
  640MOL0     H88273   8.181   2.887  10.875  0.0587 -1.2406 -1.3289
  640MOL0     H88274   8.348   2.832  10.685  1.0848  0.8754 -2.4702
  640MOL0     H88275   8.285   2.954  10.588 -2.0963 -1.1742  0.3412
  640MOL0     H88276   8.354   3.129  10.744 -2.6025 -1.2167  0.4341
  640MOL0     H88277   8.396   3.011  10.873 -0.1129  1.3588  0.6056
  640MOL0     H88278   8.519   3.242  10.849 -0.0726 -2.7295 -2.1620
  640MOL0     H88279   8.655   3.353  11.159  1.1368  0.5494  0.3375
  640MOL0     H88280   8.582   3.416  11.006  0.3806  0.1385 -1.4309
  640MOL0     H88281   8.753   3.434  11.054  0.2883  0.2995 -0.6710
  640MOL0     H88282   9.300   3.218  11.045 -0.6974 -0.9194  1.1675
  640MOL0     H88283   9.463   3.368  11.170 -0.0957  3.1035 -0.2218
  640MOL0     H88284   9.536   3.422  11.414 -1.7123  0.0802 -0.8212
  640MOL0     H88285   9.572   3.549  11.285  1.3133 -0.8917 -0.2009
  640MOL0     H88286   9.524   3.707  11.489  0.7508  0.2314  1.3669
  640MOL0     H88287   9.548   3.563  11.583 -1.9010  0.3257 -0.3296
  640MOL0     H88288   9.755   3.673  11.379 -0.7080  3.0262  0.3435
  640MOL0     H88289   9.785   3.532  11.481 -0.9926 -0.1055  2.0599
  640MOL0     H88290   9.779   3.662  11.682 -1.6921  1.4760  1.6593
  640MOL0     H88291   9.715   3.805  11.597 -1.4345 -0.9374 -1.1019
  640MOL0     H88292   9.997   3.670  11.545  0.4533 -0.6381 -0.8437
  640MOL0     H88293   9.936   3.826  11.490  0.9590  0.0636  1.5647
  640MOL0     H88294  10.006   3.723  11.766 -0.2056 -0.1050 -0.5025
  640MOL0     H88295   9.906   3.871  11.737 -0.9330 -3.0739  2.6532
  640MOL0     H88296  10.096   3.970  11.599  1.0390 -0.5900 -0.8941
  640MOL0     H88297  10.195   3.831  11.641 -1.2398 -1.3984 -1.7604
  640MOL0     H88298  10.248   4.032  11.759 -1.8417  3.1111 -0.6058
  640MOL0     H88299  10.187   3.909  11.877 -0.4206 -3.7149 -3.0193
  640MOL0     H88300   9.137   3.585  11.329 -0.5539 -0.0019 -1.6921
  640MOL0     H88301   8.978   3.472  11.191 -1.3463 -4.1949 -0.1143
  640MOL0     H88302   8.944   3.014  10.883  0.0353 -0.5250 -0.3417
  640MOL0     H88303   8.764   2.923  10.743  1.8992  0.5212  0.0708
  640MOL0     H88304   6.559   2.880  10.579 -2.5475  1.4343  1.0681
  640MOL0     H88305   6.294   2.841  10.603 -2.9507 -3.7179  1.1829
  640MOL0     H88306   6.029   2.357  10.469 -1.9707 -1.0717 -2.8475
  640MOL0     H88307   5.809   2.301  10.563  0.1826 -0.1427 -0.4867
  640MOL0     H88308   5.579   2.268  10.454  0.7944 -0.4792  0.7207
  640MOL0     H88309   5.542   2.303  10.620  0.8823  0.3402 -0.0567
  640MOL0     H88310   5.329   2.421  10.545  0.2054 -0.4378 -0.1877
  640MOL0     H88311   5.327   2.252  10.508  0.2759  0.0442  0.9491
  640MOL0     H88312   5.394   2.483  10.309  1.4522 -1.0707 -2.6322
  640MOL0     H88313   5.416   2.310  10.279 -1.4740 -1.1227  0.0296
  640MOL0     H88314   5.164   2.297  10.293 -1.8609  0.6911  2.4835
  640MOL0     H88315   5.202   2.425  10.188 -2.0507 -2.0727 -0.2140
  640MOL0     H88316   5.029   2.635  10.502 -0.1130  2.6142 -2.3072
  640MOL0     H88317   5.677   2.697  10.452  0.8805  1.7239  1.0891
  640MOL0     H88318   5.948   2.861  10.459 -4.3231  0.7044  1.3000
  640MOL0     H88319   6.001   2.796  10.301 -0.1600  2.7465 -1.3649
  640MOL0     H88320   5.834   2.844  10.318  2.0328 -0.3058 -3.1474
  641MOL0     O88321   2.698   0.866   5.786 -0.1216 -0.1868 -0.2220
  641MOL0     C88322   2.669   0.969   5.731 -0.3804  0.2304  0.8295
  641MOL0     O88323   2.735   1.031   5.630 -0.1212  0.5395 -0.6177
  641MOL0     C88324   2.856   0.982   5.594 -0.2964  0.5865  1.0875
  641MOL0     C88325   2.887   0.977   5.458 -0.2520  1.2538  0.3855
  641MOL0     C88326   3.010   0.929   5.414 -0.8019 -0.8606  0.1839
  641MOL0     C88327   3.111   0.893   5.506  0.0509 -0.0434  0.0881
  641MOL0     O88328   3.226   0.857   5.458  0.2151 -0.0439  1.2868
  641MOL0     C88329   3.265   0.728   5.511  0.6379  0.2677  0.4016
  641MOL0     C88330   3.399   0.698   5.438  0.8167  0.5903  0.3182
  641MOL0     C88331   3.506   0.722   5.540  0.1618  0.8060 -1.0755
  641MOL0     C88332   3.645   0.724   5.482  0.6446 -0.0891 -0.3762
  641MOL0     C88333   3.757   0.749   5.576 -0.7026 -0.2846  0.0045
  641MOL0     C88334   3.874   0.752   5.480 -0.4254  0.1892  0.5212
  641MOL0     C88335   3.983   0.803   5.564 -0.4062  0.5236  0.0918
  641MOL0     C88336   3.973   0.957   5.580 -0.0242 -0.1146  1.0975
  641MOL0     N88337   4.097   1.017   5.626  0.8380  0.1537 -0.9906
  641MOL0     C88338   4.173   0.973   5.741 -0.4680 -1.4129 -0.1441
  641MOL0     C88339   4.290   1.047   5.733 -0.0163 -0.0467  0.9667
  641MOL0     C88340   4.414   1.039   5.810  0.1870  0.0517  0.1730
  641MOL0     C88341   4.473   0.905   5.797  0.0318 -0.1157  0.6838
  641MOL0     C88342   4.536   0.873   5.666  0.3875  0.5380  0.2831
  641MOL0     C88343   4.688   0.908   5.660 -0.1433  0.9702  0.2825
  641MOL0     O88344   4.723   1.049   5.662 -0.1912 -0.0187  0.1969
  641MOL0     C88345   4.745   1.120   5.543  0.8914  0.0018  0.1798
  641MOL0     C88346   4.803   1.250   5.562 -0.1776  0.1957 -0.5347
  641MOL0     C88347   4.835   1.338   5.455  0.6689 -0.0273 -0.1965
  641MOL0     C88348   4.893   1.478   5.484 -0.0981 -0.6068  0.4983
  641MOL0     C88349   4.813   1.286   5.329  0.2759 -0.3028  0.2814
  641MOL0     C88350   4.848   1.349   5.205  0.0398 -0.2003  0.3252
  641MOL0     O88351   4.764   1.329   5.097  0.1484  0.3370  0.2456
  641MOL0     C88352   4.800   1.370   4.970 -0.5148 -0.4442  0.5311
  641MOL0     C88353   4.860   1.494   4.931  0.3345 -0.0115  0.4489
  641MOL0     C88354   4.899   1.514   4.787 -0.1194  0.1595 -0.9232
  641MOL0     C88355   4.864   1.411   4.696 -0.4132  0.5454  0.8523
  641MOL0     O88356   4.918   1.431   4.572 -0.2724 -0.7132  0.1175
  641MOL0     C88357   5.039   1.357   4.528  0.4016  0.7244 -0.1259
  641MOL0     C88358   5.062   1.381   4.378  0.5864 -0.6873 -0.3467
  641MOL0     C88359   4.942   1.353   4.287 -0.3284  0.4915 -0.6559
  641MOL0     C88360   4.905   1.203   4.286 -0.0427 -0.1346  0.3904
  641MOL0     C88361   4.832   1.168   4.160  0.3468 -0.0201 -0.6541
  641MOL0     C88362   4.694   1.243   4.151 -0.3733  0.2172 -0.6811
  641MOL0     C88363   4.596   1.211   4.270  0.1881  1.0501 -0.3118
  641MOL0     C88364   4.521   1.337   4.324 -0.5244  0.0275  0.3371
  641MOL0    Cl88365   4.403   1.279   4.446 -0.1669  0.1382  0.6467
  641MOL0     C88366   4.788   1.297   4.740  0.2636 -0.0739  0.1076
  641MOL0     C88367   4.765   1.270   4.875 -0.2135 -0.1095 -0.6958
  641MOL0     O88368   4.955   1.415   5.207 -0.1110 -0.0377 -0.0483
  641MOL0     C88369   4.746   1.168   5.306  0.5307  0.9464  0.2095
  641MOL0     C88370   4.717   1.083   5.413 -0.1369  0.2376 -0.0171
  641MOL0     N88371   4.280   1.124   5.619 -0.7545 -1.0139 -0.1255
  641MOL0     N88372   4.170   1.107   5.551 -0.1222  0.3182 -0.5239
  641MOL0     C88373   3.086   0.904   5.645  0.2630  0.4522  0.4282
  641MOL0     C88374   2.960   0.950   5.684  0.2761 -0.0466 -0.2658
  641MOL0     C88375   2.548   1.048   5.786  0.1816 -0.1350  0.2491
  641MOL0     C88376   2.549   1.185   5.756  0.1993 -0.4125  0.0041
  641MOL0     C88377   2.444   1.263   5.797  0.6285 -0.6028 -0.0488
  641MOL0     C88378   2.327   1.208   5.851  0.0099 -0.5273  0.3232
  641MOL0     O88379   2.219   1.290   5.888 -0.1795  0.3842 -0.2590
  641MOL0     C88380   2.123   1.297   5.783  0.3594  0.4558 -0.0330
  641MOL0     C88381   2.018   1.405   5.800  0.2842  1.1021 -0.3773
  641MOL0     C88382   1.932   1.405   5.682 -0.3912  0.7570 -0.0032
  641MOL0     C88383   1.795   1.436   5.714  0.3418  0.1727 -0.6827
  641MOL0     C88384   1.699   1.416   5.599  0.4152  0.1194 -0.6891
  641MOL0     C88385   1.637   1.395   5.504 -1.2815 -0.4063  0.2990
  641MOL0     C88386   2.325   1.079   5.881 -1.4585  0.6624 -0.4365
  641MOL0     C88387   2.440   0.999   5.860  0.4888  0.0478 -0.6659
  641MOL0     C88388   2.438   0.858   5.917  0.1532  0.0374 -0.1700
  641MOL0     H88389   2.816   1.018   5.387  0.4818  2.5972  0.3934
  641MOL0     H88390   3.021   0.929   5.306  2.0135  0.3839  0.3543
  641MOL0     H88391   3.193   0.654   5.476 -0.7117  1.4859  0.5164
  641MOL0     H88392   3.273   0.723   5.620 -3.0184  1.4281  0.8566
  641MOL0     H88393   3.397   0.591   5.414 -1.2013  1.1545 -2.5647
  641MOL0     H88394   3.401   0.746   5.339 -0.7817 -3.0687 -1.6869
  641MOL0     H88395   3.487   0.808   5.604  0.7508  0.7783 -0.8509
  641MOL0     H88396   3.503   0.635   5.607  0.4713  1.6136  0.0153
  641MOL0     H88397   3.666   0.627   5.436  3.3899  0.5138 -0.5646
  641MOL0     H88398   3.646   0.803   5.407  1.2900 -0.3710 -0.6736
  641MOL0     H88399   3.757   0.666   5.647 -3.2099  0.0528  0.4865
  641MOL0     H88400   3.737   0.842   5.630 -0.7284  1.0471 -2.1783
  641MOL0     H88401   3.898   0.647   5.461  3.2482  1.3973 -2.8614
  641MOL0     H88402   3.855   0.812   5.390 -0.9001  0.4847  0.8088
  641MOL0     H88403   4.079   0.775   5.520  0.3310 -0.1804  2.0498
  641MOL0     H88404   3.976   0.756   5.663 -1.5539 -0.1166 -0.2717
  641MOL0     H88405   3.954   1.007   5.485  1.1013 -0.3914  0.7152
  641MOL0     H88406   3.898   0.980   5.656 -0.7104 -0.4184  0.5195
  641MOL0     H88407   4.149   0.901   5.818 -0.6181  0.7465  1.9469
  641MOL0     H88408   4.391   1.065   5.913  0.4277  1.2269 -0.0538
  641MOL0     H88409   4.485   1.109   5.766 -0.5924 -0.5387 -2.1745
  641MOL0     H88410   4.547   0.900   5.877  0.2311 -2.1765  0.4433
  641MOL0     H88411   4.400   0.824   5.809 -1.5394  1.2845  0.9104
  641MOL0     H88412   4.519   0.767   5.647 -0.1094  1.1850 -3.6436
  641MOL0     H88413   4.488   0.916   5.578 -3.1021 -1.1031  1.2177
  641MOL0     H88414   4.732   0.861   5.748 -0.1519 -0.2152 -0.3230
  641MOL0     H88415   4.739   0.855   5.579 -0.8402  1.4355 -0.4856
  641MOL0     H88416   4.833   1.282   5.661 -0.9514  3.3051 -1.2190
  641MOL0     H88417   4.863   1.531   5.575  0.3291  2.6595 -1.0971
  641MOL0     H88418   4.870   1.542   5.398 -0.5983 -1.4278  0.0005
  641MOL0     H88419   5.002   1.478   5.481 -0.0985  0.3198 -1.2570
  641MOL0     H88420   4.865   1.575   5.003 -1.1622  2.3649 -1.9268
  641MOL0     H88421   4.944   1.607   4.755 -0.2791  0.0573 -1.4414
  641MOL0     H88422   5.129   1.398   4.574  1.1328 -1.3674  0.4219
  641MOL0     H88423   5.034   1.248   4.544 -0.4373  0.9337  1.1852
  641MOL0     H88424   5.089   1.486   4.365 -0.9855 -0.1070  0.8029
  641MOL0     H88425   5.149   1.322   4.348  0.6944  0.3069 -2.0682
  641MOL0     H88426   4.971   1.395   4.190  1.8013  1.3726  0.2808
  641MOL0     H88427   4.863   1.424   4.314  1.1908  1.6492  1.0321
  641MOL0     H88428   4.858   1.176   4.381  1.3042 -0.1596  1.0671
  641MOL0     H88429   4.994   1.141   4.276 -0.0608  0.2063 -3.2394
  641MOL0     H88430   4.886   1.179   4.066  2.1327 -0.3024  0.2899
  641MOL0     H88431   4.808   1.062   4.175  1.7998 -0.4873 -1.4591
  641MOL0     H88432   4.640   1.208   4.063 -1.2737 -0.7585  0.2323
  641MOL0     H88433   4.697   1.351   4.130 -1.8653 -0.0423 -2.4067
  641MOL0     H88434   4.650   1.160   4.350  1.2689  2.1659 -0.2945
  641MOL0     H88435   4.528   1.143   4.218  0.6314  0.3430  0.0288
  641MOL0     H88436   4.459   1.391   4.251 -1.5081 -1.8151 -0.2663
  641MOL0     H88437   4.598   1.393   4.376 -0.5019  0.3739 -0.0650
  641MOL0     H88438   4.761   1.230   4.659 -0.4369  1.2947 -0.8306
  641MOL0     H88439   4.718   1.180   4.911  0.3469  0.0167  0.3945
  641MOL0     H88440   4.732   1.129   5.205  2.5220 -0.8007  0.5447
  641MOL0     H88441   4.665   0.990   5.398 -2.0626  1.5291 -1.8075
  641MOL0     H88442   3.156   0.883   5.725  0.2950  1.3276  0.6382
  641MOL0     H88443   2.944   0.965   5.790 -1.4215 -1.8956 -0.2001
  641MOL0     H88444   2.637   1.232   5.711  0.8020 -0.5965  0.9549
  641MOL0     H88445   2.442   1.371   5.788  1.9244 -0.2549  2.7480
  641MOL0     H88446   2.173   1.291   5.686 -0.5019  1.1748 -0.5334
  641MOL0     H88447   2.066   1.203   5.781 -0.0695  0.5463  3.0724
  641MOL0     H88448   2.068   1.502   5.791 -2.9247  2.7464 -2.2272
  641MOL0     H88449   1.966   1.397   5.896  0.7445 -1.0287 -0.2683
  641MOL0     H88450   1.956   1.476   5.602 -1.2254  0.9612 -0.0787
  641MOL0     H88451   1.936   1.303   5.642 -0.1052  1.7129 -2.6112
  641MOL0     H88452   1.787   1.531   5.767 -2.0788 -1.0566  1.4148
  641MOL0     H88453   1.755   1.365   5.786  1.1902  0.5395  0.1664
  641MOL0     H88454   1.579   1.372   5.416  2.6899 -1.1517 -2.3791
  641MOL0     H88455   2.243   1.038   5.938 -1.8017  0.5073 -1.0300
  641MOL0     H88456   2.507   0.844   6.000 -0.5279  2.3636  0.8762
  641MOL0     H88457   2.343   0.821   5.956  1.5033 -0.7392  2.6431
  641MOL0     H88458   2.467   0.781   5.845  1.0419  0.2309 -0.0254
  642MOL0     O88459   4.833   7.195   1.937  0.6226  0.0965 -0.5667
  642MOL0     C88460   4.879   7.302   1.973  0.3730  0.4523 -0.2614
  642MOL0     O88461   4.821   7.428   1.963  0.1755  0.1068  0.5339
  642MOL0     C88462   4.700   7.429   1.904 -0.7901  0.1720 -0.4472
  642MOL0     C88463   4.589   7.473   1.982 -0.0223 -0.6983 -0.5074
  642MOL0     C88464   4.465   7.503   1.924  0.2737 -0.3350 -0.4957
  642MOL0     C88465   4.443   7.479   1.791  0.4406 -1.1531  0.2863
  642MOL0     O88466   4.323   7.520   1.741 -0.0237  0.0847 -0.4260
  642MOL0     C88467   4.255   7.400   1.702 -0.1444  0.5218 -0.3210
  642MOL0     C88468   4.122   7.411   1.777 -0.2386 -0.0339  0.5109
  642MOL0     C88469   4.025   7.496   1.707  0.7398 -0.6485  0.5231
  642MOL0     C88470   3.899   7.518   1.791 -0.6428 -0.2151 -0.2943
  642MOL0     C88471   3.821   7.636   1.739  0.3649  0.4781 -0.1258
  642MOL0     C88472   3.711   7.676   1.843 -0.7967 -0.1582  0.3059
  642MOL0     C88473   3.629   7.796   1.789 -0.4981 -0.0071  1.0185
  642MOL0     C88474   3.537   7.781   1.661 -0.2458 -0.2297  0.0356
  642MOL0     N88475   3.453   7.657   1.665  0.4427  0.0320 -0.3702
  642MOL0     C88476   3.375   7.620   1.770 -0.2418  0.0936 -0.1761
  642MOL0     C88477   3.369   7.484   1.754  0.3258 -0.6279  0.0083
  642MOL0     C88478   3.315   7.402   1.865  0.4566  0.0536  0.8087
  642MOL0     C88479   3.433   7.377   1.962  1.6440  0.2944  0.1761
  642MOL0     C88480   3.384   7.309   2.085 -0.3909 -0.0534  0.0309
  642MOL0     C88481   3.477   7.291   2.208 -0.2477 -0.7018  0.7579
  642MOL0     O88482   3.578   7.194   2.168 -0.4464  0.0191 -0.2136
  642MOL0     C88483   3.700   7.176   2.229 -0.1079 -0.6352  0.6789
  642MOL0     C88484   3.782   7.076   2.183 -0.3048 -0.2507  0.1295
  642MOL0     C88485   3.905   7.049   2.248  0.6203 -0.3242 -0.5461
  642MOL0     C88486   3.992   6.952   2.185  0.8350 -0.2424 -0.4112
  642MOL0     C88487   3.935   7.121   2.359  0.4608  0.7439 -0.4467
  642MOL0     C88488   4.058   7.097   2.447  0.5066  0.7660  0.4632
  642MOL0     O88489   4.173   7.054   2.394 -0.8996 -0.5207  0.2906
  642MOL0     C88490   4.281   7.129   2.412 -0.3349 -1.9839  0.6117
  642MOL0     C88491   4.278   7.271   2.431 -0.1055 -1.0278  0.0360
  642MOL0     C88492   4.396   7.355   2.438 -0.2382  0.2643  0.1415
  642MOL0     C88493   4.525   7.291   2.427  0.0218 -0.6932  0.3322
  642MOL0     O88494   4.648   7.355   2.421 -0.4381  0.4594  0.2142
  642MOL0     C88495   4.657   7.495   2.464  0.0183  0.0605  0.5287
  642MOL0     C88496   4.791   7.538   2.514  0.7561 -0.4405  0.0090
  642MOL0     C88497   4.893   7.517   2.401  0.0711 -0.5643  0.8476
  642MOL0     C88498   5.042   7.555   2.440 -1.3612 -0.3931  1.2739
  642MOL0     C88499   5.125   7.548   2.309  0.4881 -0.5686  0.0525
  642MOL0     C88500   5.272   7.595   2.312 -0.2573 -0.4116 -0.1343
  642MOL0     C88501   5.357   7.526   2.419  1.1350 -0.0909  0.3570
  642MOL0     C88502   5.485   7.609   2.445 -0.5904  0.1837 -0.8510
  642MOL0    Cl88503   5.600   7.614   2.302  0.2353  0.0601  0.1335
  642MOL0     C88504   4.529   7.151   2.415 -0.0264  0.8122  0.0033
  642MOL0     C88505   4.408   7.081   2.391  0.2826  0.5737 -0.2930
  642MOL0     O88506   4.046   7.115   2.566 -0.5769 -0.2257  0.0457
  642MOL0     C88507   3.853   7.219   2.411  0.9061 -0.2399  0.6854
  642MOL0     C88508   3.728   7.239   2.346  0.3260  1.1729 -0.3801
  642MOL0     N88509   3.446   7.445   1.647 -0.1684  0.0700 -0.0529
  642MOL0     N88510   3.492   7.549   1.595  0.6002 -0.0284 -0.5748
  642MOL0     C88511   4.549   7.419   1.718  0.7715 -0.0810 -0.1533
  642MOL0     C88512   4.677   7.404   1.769  0.2778  0.2624 -0.4513
  642MOL0     C88513   5.009   7.289   2.037  0.4682 -0.1698 -0.4808
  642MOL0     C88514   5.026   7.193   2.142 -0.5853  0.4941  0.2478
  642MOL0     C88515   5.155   7.158   2.184 -0.4569 -0.0990 -0.0547
  642MOL0     C88516   5.269   7.217   2.127  0.6083 -1.0016 -0.6655
  642MOL0     O88517   5.389   7.170   2.175  1.0368 -0.0032 -0.2577
  642MOL0     C88518   5.512   7.243   2.182  1.4409  1.1225  0.9877
  642MOL0     C88519   5.632   7.181   2.248 -0.1484 -0.0221 -0.1029
  642MOL0     C88520   5.654   7.032   2.201  0.0978 -0.5354 -0.2706
  642MOL0     C88521   5.798   6.993   2.223  0.5302 -0.6396  0.1065
  642MOL0     C88522   5.891   7.071   2.137 -0.4024 -0.3742  0.5078
  642MOL0     C88523   5.972   7.131   2.069 -0.2914 -0.2586 -0.4781
  642MOL0     C88524   5.249   7.320   2.036 -0.2180  1.3737  0.3076
  642MOL0     C88525   5.128   7.360   1.986  0.2631 -0.0707 -0.3449
  642MOL0     C88526   5.110   7.477   1.884 -0.2050  0.1467 -0.3114
  642MOL0     H88527   4.601   7.509   2.084  0.9683  0.4830 -1.0038
  642MOL0     H88528   4.384   7.555   1.975  1.2621  3.9859 -2.8900
  642MOL0     H88529   4.297   7.310   1.747 -1.8492  1.3003  3.1851
  642MOL0     H88530   4.248   7.386   1.594  1.3127 -3.0993 -0.0928
  642MOL0     H88531   4.082   7.309   1.776  1.1007 -0.5805 -0.5672
  642MOL0     H88532   4.149   7.456   1.873  1.1501 -0.2066  0.2162
  642MOL0     H88533   4.074   7.589   1.677 -1.9381  0.0479 -2.1377
  642MOL0     H88534   3.998   7.449   1.612  0.0233 -1.4321  1.0970
  642MOL0     H88535   3.823   7.439   1.796  0.0060 -0.9311 -1.3536
  642MOL0     H88536   3.935   7.533   1.893  0.7722 -2.7334 -0.3502
  642MOL0     H88537   3.782   7.601   1.643  0.5402  0.3457 -0.1484
  642MOL0     H88538   3.893   7.717   1.724  3.5691 -2.0311  0.4775
  642MOL0     H88539   3.647   7.593   1.871 -0.1750 -0.8928 -0.4117
  642MOL0     H88540   3.766   7.702   1.935  0.5320 -1.2352 -0.1572
  642MOL0     H88541   3.707   7.869   1.763 -0.2798 -1.1899 -2.1593
  642MOL0     H88542   3.564   7.827   1.870 -0.4000 -3.4754  2.6030
  642MOL0     H88543   3.469   7.864   1.637 -0.1576 -0.1766 -0.0310
  642MOL0     H88544   3.602   7.767   1.574 -2.0811 -1.2072 -1.2752
  642MOL0     H88545   3.320   7.673   1.847 -2.0171 -1.0267 -0.6143
  642MOL0     H88546   3.267   7.307   1.839 -0.2857 -0.2886  3.1651
  642MOL0     H88547   3.232   7.465   1.897  1.5781  1.9165  0.2124
  642MOL0     H88548   3.507   7.316   1.908 -0.2979 -0.1007 -2.2415
  642MOL0     H88549   3.483   7.466   2.001 -1.0982  1.6217  0.8780
  642MOL0     H88550   3.303   7.363   2.134 -1.0515 -0.5873 -0.4617
  642MOL0     H88551   3.341   7.211   2.065  0.5813 -0.1707 -1.7906
  642MOL0     H88552   3.516   7.384   2.252 -1.8391  0.7204 -0.7157
  642MOL0     H88553   3.416   7.257   2.292  0.8954  0.8391  2.3082
  642MOL0     H88554   3.762   7.033   2.086  0.6915 -0.1007 -0.1557
  642MOL0     H88555   4.075   7.000   2.132  1.4050 -1.0363 -0.2610
  642MOL0     H88556   3.933   6.889   2.117  1.9717 -1.5751 -0.2144
  642MOL0     H88557   4.037   6.892   2.264  0.3771 -0.0388  0.0111
  642MOL0     H88558   4.186   7.327   2.441  0.1337 -0.1238 -2.1482
  642MOL0     H88559   4.389   7.462   2.455 -1.7911  0.1427  0.4193
  642MOL0     H88560   4.618   7.555   2.381 -0.6743  0.7580  1.3398
  642MOL0     H88561   4.590   7.505   2.550 -0.4427  1.6216  0.0083
  642MOL0     H88562   4.781   7.641   2.549  1.4585 -1.0926  2.3520
  642MOL0     H88563   4.829   7.478   2.597  1.8988  0.4587  0.1713
  642MOL0     H88564   4.866   7.578   2.314  0.2155 -2.1691 -0.3819
  642MOL0     H88565   4.888   7.414   2.364 -3.1889 -0.0445 -0.4301
  642MOL0     H88566   5.090   7.487   2.511 -0.9849 -2.6577 -1.0348
  642MOL0     H88567   5.048   7.656   2.482  0.0811  1.3017 -2.5528
  642MOL0     H88568   5.115   7.446   2.268 -2.3010 -0.8577  1.2353
  642MOL0     H88569   5.089   7.623   2.238  2.8247  0.3853 -0.2185
  642MOL0     H88570   5.282   7.704   2.311  1.1690 -0.4611 -3.0017
  642MOL0     H88571   5.322   7.559   2.221  2.8977  0.1665  1.2256
  642MOL0     H88572   5.382   7.423   2.392  1.8525 -0.5261  2.5178
  642MOL0     H88573   5.313   7.517   2.518 -2.4881  0.6303 -1.0458
  642MOL0     H88574   5.535   7.561   2.530 -2.4900 -2.4087 -1.0709
  642MOL0     H88575   5.476   7.713   2.475  1.8796  0.1685  0.2026
  642MOL0     H88576   4.619   7.092   2.399 -0.1021 -0.7746  4.1346
  642MOL0     H88577   4.415   6.976   2.367  0.0669  0.4018  0.3930
  642MOL0     H88578   3.863   7.266   2.508  3.8826 -0.4603  0.5731
  642MOL0     H88579   3.672   7.314   2.400  0.1448 -0.4880  1.9192
  642MOL0     H88580   4.521   7.370   1.625 -0.0860 -0.0397  0.0741
  642MOL0     H88581   4.757   7.358   1.712 -1.3420 -0.1449 -2.5215
  642MOL0     H88582   4.941   7.140   2.185  0.3609  0.5006  2.2221
  642MOL0     H88583   5.152   7.100   2.276 -1.9657  1.9970  1.3201
  642MOL0     H88584   5.544   7.276   2.082  0.9960  3.1787  1.4708
  642MOL0     H88585   5.497   7.334   2.241 -3.2395  1.6074 -0.5559
  642MOL0     H88586   5.619   7.185   2.357 -3.3778 -0.6574 -0.3576
  642MOL0     H88587   5.706   7.256   2.219 -0.3217 -0.1090 -0.7678
  642MOL0     H88588   5.583   6.964   2.250  0.0520 -0.0989  0.2751
  642MOL0     H88589   5.634   7.016   2.094  2.5671 -3.3415 -0.4590
  642MOL0     H88590   5.811   6.886   2.207 -2.0318 -1.0399  0.2727
  642MOL0     H88591   5.821   7.010   2.329  3.3544 -1.1258 -0.3531
  642MOL0     H88592   6.040   7.175   1.999  0.0002 -1.5818 -1.0637
  642MOL0     H88593   5.343   7.363   2.001 -1.1703  2.7238 -0.6717
  642MOL0     H88594   5.067   7.437   1.792  2.0999 -1.1650 -0.8811
  642MOL0     H88595   5.047   7.555   1.931  1.3251 -0.3317  2.8026
  642MOL0     H88596   5.207   7.519   1.856  0.3095 -1.1076 -0.4400
  643MOL0     O88597   4.487   3.071   2.930  0.4505  0.8477 -0.6319
  643MOL0     C88598   4.404   3.154   2.908  0.2287 -0.8773 -0.2706
  643MOL0     O88599   4.429   3.290   2.873 -0.4071 -0.0596  0.6639
  643MOL0     C88600   4.567   3.313   2.860 -0.7726  0.3716  0.2420
  643MOL0     C88601   4.645   3.252   2.757 -0.6053 -0.4980 -0.0496
  643MOL0     C88602   4.784   3.275   2.745  0.3336 -0.0728  0.1004
  643MOL0     C88603   4.846   3.349   2.844 -0.4205 -1.0088 -0.7042
  643MOL0     O88604   4.978   3.372   2.845 -0.5547 -0.4580 -0.9157
  643MOL0     C88605   5.033   3.493   2.910 -0.3966 -0.6649 -0.0951
  643MOL0     C88606   5.177   3.517   2.861 -0.6748 -0.2470 -0.5555
  643MOL0     C88607   5.250   3.629   2.940 -0.4877 -0.6120 -0.3938
  643MOL0     C88608   5.395   3.643   2.882  0.6399 -0.2043 -0.0580
  643MOL0     C88609   5.471   3.750   2.966  0.3356  0.7616 -0.2715
  643MOL0     C88610   5.603   3.795   2.889  0.8109 -0.6466 -0.5580
  643MOL0     C88611   5.692   3.887   2.976  0.6619 -0.5826  0.2862
  643MOL0     C88612   5.659   4.040   2.939 -0.4689 -0.4899 -0.5761
  643MOL0     N88613   5.706   4.146   3.031  0.2004  0.9275 -0.5935
  643MOL0     C88614   5.644   4.161   3.150  0.0499  0.7263  0.2625
  643MOL0     C88615   5.694   4.274   3.206 -1.0451 -0.4583 -0.3182
  643MOL0     C88616   5.663   4.325   3.344  0.4739  0.4047 -0.9737
  643MOL0     C88617   5.782   4.342   3.431 -0.4084  0.4284 -0.9651
  643MOL0     C88618   5.869   4.217   3.459  0.5965 -0.1536  0.8100
  643MOL0     C88619   5.989   4.253   3.543  0.0903  0.6640 -0.3585
  643MOL0     O88620   5.970   4.315   3.679 -0.2094 -0.2362  0.2290
  643MOL0     C88621   6.089   4.357   3.737  0.4450 -0.6986 -0.5645
  643MOL0     C88622   6.071   4.430   3.857 -0.6686 -0.6856  0.6377
  643MOL0     C88623   6.180   4.490   3.922  0.4188 -0.2174 -0.9392
  643MOL0     C88624   6.146   4.581   4.045 -0.0770 -0.1712  0.3803
  643MOL0     C88625   6.312   4.470   3.867 -0.1921 -0.8409  0.3938
  643MOL0     C88626   6.437   4.517   3.925 -0.7215 -1.1490  0.1286
  643MOL0     O88627   6.552   4.530   3.838  0.4954  0.0612  0.0616
  643MOL0     C88628   6.649   4.619   3.871 -0.5355  0.1946 -0.0741
  643MOL0     C88629   6.676   4.725   3.784  0.3755 -1.1176  0.1972
  643MOL0     C88630   6.789   4.799   3.813 -0.0644  0.0657 -0.2289
  643MOL0     C88631   6.875   4.788   3.929  1.1408 -0.2806 -0.0736
  643MOL0     O88632   6.990   4.852   3.958 -0.7556  0.2236 -0.9310
  643MOL0     C88633   7.017   4.975   3.894  0.6510 -0.3575  0.5565
  643MOL0     C88634   7.143   5.055   3.924  0.2421  0.2282 -0.4163
  643MOL0     C88635   7.140   5.087   4.069 -0.2891  0.0210  0.0486
  643MOL0     C88636   7.250   5.185   4.115 -1.3840 -0.0233 -0.3307
  643MOL0     C88637   7.219   5.244   4.266  0.0829 -0.4631  0.6427
  643MOL0     C88638   7.190   5.137   4.362 -0.7385 -0.1372  0.2128
  643MOL0     C88639   7.180   5.186   4.505  0.0021  0.8390 -0.1463
  643MOL0     C88640   7.296   5.271   4.541 -0.1250 -0.2013  0.3231
  643MOL0    Cl88641   7.457   5.199   4.495  0.2538 -0.2066  0.3027
  643MOL0     C88642   6.835   4.688   4.021 -0.0803  0.7792 -0.3155
  643MOL0     C88643   6.724   4.605   3.988  0.2816 -0.1947 -0.8643
  643MOL0     O88644   6.443   4.532   4.051  0.0154  0.3770 -0.0775
  643MOL0     C88645   6.329   4.392   3.749 -0.9252  0.3543  0.4825
  643MOL0     C88646   6.217   4.340   3.681  0.3648 -0.0149 -0.6076
  643MOL0     N88647   5.794   4.312   3.123  1.0658  0.2801 -0.5801
  643MOL0     N88648   5.790   4.247   3.016  0.3158 -0.2763  0.2944
  643MOL0     C88649   4.769   3.415   2.942 -0.5500 -0.5068  0.6898
  643MOL0     C88650   4.633   3.389   2.954 -0.1838  0.4043  0.6108
  643MOL0     C88651   4.257   3.121   2.878 -0.4466  0.3657  0.0344
  643MOL0     C88652   4.160   3.233   2.880  0.1538  1.2199  0.0787
  643MOL0     C88653   4.023   3.207   2.865  0.6996 -0.0062  0.5051
  643MOL0     C88654   3.975   3.073   2.850 -0.9796  0.2892 -0.1680
  643MOL0     O88655   3.835   3.053   2.847 -1.2162 -0.3667  0.2098
  643MOL0     C88656   3.803   2.915   2.819  0.1913 -0.4704 -0.6353
  643MOL0     C88657   3.656   2.905   2.779  0.8214 -0.1526 -0.5047
  643MOL0     C88658   3.560   2.966   2.890  1.1578  1.0400  1.5309
  643MOL0     C88659   3.418   2.905   2.867  0.0071 -0.0812  0.6076
  643MOL0     C88660   3.315   2.983   2.946 -1.3746  1.0463  0.9340
  643MOL0     C88661   3.232   3.058   2.995 -0.1749  0.5807  0.8177
  643MOL0     C88662   4.069   2.966   2.849 -0.5950 -0.5120 -1.0739
  643MOL0     C88663   4.214   2.993   2.865  1.2562  0.2583 -0.5877
  643MOL0     C88664   4.303   2.875   2.836 -0.4366 -0.3116 -0.1462
  643MOL0     H88665   4.603   3.168   2.702 -1.1572 -2.7539  3.5531
  643MOL0     H88666   4.858   3.232   2.679  0.8785  0.9140  0.0559
  643MOL0     H88667   5.032   3.482   3.019  1.5136 -0.1308  0.0048
  643MOL0     H88668   4.971   3.577   2.876 -0.8628 -0.4157  1.3045
  643MOL0     H88669   5.228   3.421   2.877  0.7857  0.8727  2.3451
  643MOL0     H88670   5.166   3.556   2.760 -0.8378  0.1347 -0.3932
  643MOL0     H88671   5.193   3.722   2.941 -1.5204 -1.2408 -0.2610
  643MOL0     H88672   5.253   3.597   3.045 -1.9455  0.8185  0.1138
  643MOL0     H88673   5.455   3.552   2.876 -0.6965 -1.0651 -0.5944
  643MOL0     H88674   5.387   3.682   2.780 -2.8797 -2.5081 -0.8377
  643MOL0     H88675   5.488   3.710   3.067  0.8124  2.1918  0.2276
  643MOL0     H88676   5.412   3.841   2.981  0.3678  0.4027  2.6555
  643MOL0     H88677   5.662   3.704   2.873 -0.2061 -1.6098  0.9697
  643MOL0     H88678   5.592   3.848   2.794  1.2694 -2.4931 -1.6914
  643MOL0     H88679   5.798   3.860   2.967  0.9341  0.1836  0.9851
  643MOL0     H88680   5.672   3.872   3.082 -0.1672 -0.9459  0.0791
  643MOL0     H88681   5.705   4.063   2.843 -0.7132 -1.3392 -0.9105
  643MOL0     H88682   5.549   4.047   2.937 -0.3791  1.0803 -2.3248
  643MOL0     H88683   5.566   4.090   3.180  0.7526 -0.6472 -1.0267
  643MOL0     H88684   5.608   4.256   3.408  1.2085  1.8768  1.4065
  643MOL0     H88685   5.600   4.415   3.348 -1.7558 -1.0896  2.3725
  643MOL0     H88686   5.842   4.420   3.384  2.4924 -1.5626 -0.8907
  643MOL0     H88687   5.741   4.367   3.529  1.1742 -1.5785  0.2931
  643MOL0     H88688   5.803   4.157   3.522 -1.7445  1.1257 -0.2682
  643MOL0     H88689   5.883   4.160   3.366 -5.9992 -0.8594 -0.2186
  643MOL0     H88690   6.049   4.162   3.548  0.4779  0.7682 -2.3837
  643MOL0     H88691   6.045   4.332   3.492  0.7348  0.9475  0.7339
  643MOL0     H88692   5.970   4.439   3.896 -1.1266 -4.8571  0.8547
  643MOL0     H88693   6.046   4.554   4.080 -0.4002 -0.9121 -1.0474
  643MOL0     H88694   6.151   4.687   4.017  0.4255 -0.5272 -0.9824
  643MOL0     H88695   6.218   4.560   4.124 -0.2886 -0.0980  0.5944
  643MOL0     H88696   6.613   4.742   3.698  1.1630  1.1632  0.0106
  643MOL0     H88697   6.816   4.882   3.749 -2.2139  2.2839  1.5218
  643MOL0     H88698   7.025   4.931   3.794  0.8472  0.8289  0.0342
  643MOL0     H88699   6.926   5.037   3.890 -0.0690 -1.3914  0.6045
  643MOL0     H88700   7.237   5.000   3.917  1.6896  2.4420  0.6035
  643MOL0     H88701   7.139   5.136   3.851  0.2071  0.2782 -0.3589
  643MOL0     H88702   7.147   4.996   4.130 -1.4721  1.8754  3.1980
  643MOL0     H88703   7.046   5.142   4.079  0.4022  1.7043 -2.0013
  643MOL0     H88704   7.259   5.272   4.049  2.8926  0.8776  1.0905
  643MOL0     H88705   7.351   5.143   4.110 -1.2478  0.4148 -1.3146
  643MOL0     H88706   7.311   5.301   4.286 -0.8638  0.4275  2.8040
  643MOL0     H88707   7.134   5.313   4.269 -2.1767 -3.0914  0.1197
  643MOL0     H88708   7.278   5.073   4.350 -0.2305  0.8517 -2.0001
  643MOL0     H88709   7.102   5.075   4.345 -0.2879 -1.7091  3.0942
  643MOL0     H88710   7.186   5.098   4.569 -0.8228  0.9298  0.0714
  643MOL0     H88711   7.080   5.229   4.522 -0.9620 -1.6586  1.0816
  643MOL0     H88712   7.300   5.298   4.647  0.2548  0.0742  0.2405
  643MOL0     H88713   7.280   5.361   4.482 -0.6620  0.6442  1.7112
  643MOL0     H88714   6.888   4.666   4.113  1.3465 -0.1202 -1.3150
  643MOL0     H88715   6.697   4.528   4.059 -0.9367  1.0307  0.0482
  643MOL0     H88716   6.424   4.355   3.712 -2.2127 -2.9301  0.1769
  643MOL0     H88717   6.235   4.306   3.579 -0.4443 -2.0019 -0.1463
  643MOL0     H88718   4.816   3.485   3.011 -2.4446  3.5600 -1.7549
  643MOL0     H88719   4.573   3.420   3.039 -1.4024  1.4396 -0.5806
  643MOL0     H88720   4.195   3.334   2.899  1.6929  0.9216 -0.9924
  643MOL0     H88721   3.947   3.281   2.888  1.1181  1.1453 -1.6346
  643MOL0     H88722   3.858   2.882   2.730  0.8952 -0.6739 -0.1289
  643MOL0     H88723   3.806   2.862   2.915 -0.9295  1.6376  0.6380
  643MOL0     H88724   3.628   2.802   2.759 -4.4280  0.2415  3.0384
  643MOL0     H88725   3.647   2.962   2.686  2.1653 -0.0753 -0.6137
  643MOL0     H88726   3.592   2.937   2.991 -0.3050  0.0991  1.7568
  643MOL0     H88727   3.553   3.075   2.892  1.2653  1.0476  1.4651
  643MOL0     H88728   3.415   2.798   2.891 -1.3461  0.0373  1.0530
  643MOL0     H88729   3.393   2.916   2.761  1.9393 -0.3974  0.0842
  643MOL0     H88730   3.163   3.115   3.054  0.7060  0.4976  1.9663
  643MOL0     H88731   4.038   2.862   2.842 -2.7455  0.1199 -1.8311
  643MOL0     H88732   4.397   2.874   2.893  1.4749  0.6916 -3.0145
  643MOL0     H88733   4.253   2.782   2.861 -1.8427 -0.0898 -1.9204
  643MOL0     H88734   4.347   2.878   2.735  1.5438  0.1507  0.6795
  644MOL0     O88735   6.818   2.125   8.688 -0.3527  0.1627 -0.2388
  644MOL0     C88736   6.872   2.163   8.792 -0.4191 -0.6236  0.2734
  644MOL0     O88737   6.994   2.216   8.801  0.3883 -0.4329 -0.1448
  644MOL0     C88738   7.050   2.286   8.697 -0.1215 -0.0406  0.6609
  644MOL0     C88739   6.983   2.394   8.634  0.6294  1.1329 -0.4091
  644MOL0     C88740   7.052   2.473   8.539  0.2610 -0.6267 -0.4856
  644MOL0     C88741   7.177   2.439   8.498  0.0715 -0.0518  0.8018
  644MOL0     O88742   7.224   2.527   8.406 -1.0670  0.1435 -0.3847
  644MOL0     C88743   7.362   2.513   8.373  0.7145 -0.6877  0.0183
  644MOL0     C88744   7.392   2.394   8.268 -0.1192  0.0054  0.2961
  644MOL0     C88745   7.550   2.383   8.242  0.1144  0.2036 -0.1669
  644MOL0     C88746   7.594   2.231   8.270 -0.4343 -0.3188 -0.2195
  644MOL0     C88747   7.744   2.217   8.277 -0.7752  0.2412  0.2969
  644MOL0     C88748   7.810   2.215   8.134 -1.2969  0.2913 -0.6475
  644MOL0     C88749   7.962   2.171   8.146 -0.2398 -0.0223  0.1168
  644MOL0     C88750   8.042   2.132   8.026 -0.1106 -0.1030  0.4458
  644MOL0     N88751   8.162   2.067   8.072  0.1106 -0.7823  0.2834
  644MOL0     C88752   8.249   2.104   8.171  0.2514  0.2429 -0.4454
  644MOL0     C88753   8.354   2.027   8.167  0.0189 -0.2109 -0.1161
  644MOL0     C88754   8.480   2.030   8.242 -0.4121  0.6881 -0.0239
  644MOL0     C88755   8.463   1.932   8.365 -0.2464  0.2917  0.6330
  644MOL0     C88756   8.566   1.942   8.474  0.3553 -0.4390 -0.3501
  644MOL0     C88757   8.709   1.911   8.433 -0.3243 -0.2607  0.3697
  644MOL0     O88758   8.799   1.951   8.535  0.0081 -0.2561  0.1568
  644MOL0     C88759   8.928   1.910   8.526 -0.5261 -0.9973 -0.7637
  644MOL0     C88760   9.011   1.925   8.636  0.1971 -0.1048 -0.7599
  644MOL0     C88761   9.145   1.883   8.652  0.1970 -0.1078  0.1585
  644MOL0     C88762   9.215   1.924   8.775  0.2552  0.8744 -0.1249
  644MOL0     C88763   9.197   1.798   8.549  0.2749  1.2084 -0.4833
  644MOL0     C88764   9.342   1.745   8.538  0.7467 -0.2172  0.1116
  644MOL0     O88765   9.385   1.684   8.424 -0.5662  0.5851 -0.2313
  644MOL0     C88766   9.513   1.623   8.443  1.2715 -0.4308  0.2192
  644MOL0     C88767   9.616   1.674   8.370 -0.0863  0.5758  0.7715
  644MOL0     C88768   9.745   1.610   8.387  0.1300  0.3084  1.0079
  644MOL0     C88769   9.768   1.497   8.458 -0.5477 -0.2454  0.4732
  644MOL0     O88770   9.899   1.445   8.450  0.5005 -0.2482  0.0088
  644MOL0     C88771   9.931   1.350   8.549 -1.5014  0.0446  0.0584
  644MOL0     C88772   9.996   1.417   8.672  0.3939 -0.1305  0.1592
  644MOL0     C88773  10.133   1.476   8.629  0.4653 -0.0932  0.2171
  644MOL0     C88774  10.217   1.530   8.743 -0.3277 -0.6086  0.0573
  644MOL0     C88775  10.336   1.614   8.690 -0.3834 -0.5961 -0.7091
  644MOL0     C88776  10.420   1.687   8.800 -0.0075 -0.9995  0.1910
  644MOL0     C88777  10.550   1.740   8.734 -0.6191  0.2035 -0.7072
  644MOL0     C88778  10.547   1.895   8.710 -0.2647  0.2995 -0.2611
  644MOL0    Cl88779  10.691   1.950   8.608 -0.2798  0.2463 -0.0911
  644MOL0     C88780   9.659   1.452   8.541 -0.5658 -0.0109  0.2377
  644MOL0     C88781   9.538   1.515   8.533 -0.0371 -0.3996 -0.1902
  644MOL0     O88782   9.404   1.758   8.643 -0.0816  0.3578  0.1865
  644MOL0     C88783   9.111   1.770   8.436  0.2419 -0.6201 -0.2178
  644MOL0     C88784   8.982   1.822   8.426  0.2189 -0.5607  0.4868
  644MOL0     N88785   8.326   1.929   8.071 -0.5679 -0.0601  0.4056
  644MOL0     N88786   8.209   1.951   8.018  0.1565  0.5066  0.0258
  644MOL0     C88787   7.245   2.326   8.555  0.9069 -0.7535 -0.3602
  644MOL0     C88788   7.171   2.245   8.651  0.2053  0.0603 -0.3655
  644MOL0     C88789   6.796   2.148   8.917  0.1103  0.0993 -0.0621
  644MOL0     C88790   6.856   2.205   9.029 -0.2920 -1.3582 -0.1104
  644MOL0     C88791   6.793   2.220   9.155  0.0928  0.0373 -0.6276
  644MOL0     C88792   6.659   2.172   9.174 -0.3029 -0.5372 -0.0036
  644MOL0     O88793   6.592   2.189   9.299 -0.3403 -1.0652  0.4371
  644MOL0     C88794   6.641   2.275   9.401 -0.9068 -0.2931  0.0236
  644MOL0     C88795   6.534   2.296   9.504  0.0009 -0.1905 -0.1341
  644MOL0     C88796   6.427   2.403   9.480 -0.5188  0.4188 -0.0092
  644MOL0     C88797   6.323   2.402   9.592 -0.1992  0.2222  0.5584
  644MOL0     C88798   6.231   2.287   9.592 -0.0447 -0.3408  0.2670
  644MOL0     C88799   6.158   2.191   9.601 -0.1883 -0.6642  0.1023
  644MOL0     C88800   6.602   2.100   9.062  0.4467  0.4839  0.2141
  644MOL0     C88801   6.667   2.088   8.942  0.3316 -0.2260 -1.3915
  644MOL0     C88802   6.594   2.017   8.830  0.0534  0.6818 -0.9215
  644MOL0     H88803   6.884   2.429   8.662 -0.6632 -1.0758 -1.9074
  644MOL0     H88804   7.018   2.564   8.490 -0.0831 -1.3635 -1.6440
  644MOL0     H88805   7.422   2.510   8.464  1.5438 -0.5525 -0.5049
  644MOL0     H88806   7.393   2.606   8.323  0.8348 -1.7267 -1.9643
  644MOL0     H88807   7.354   2.300   8.309 -0.4329 -0.1419 -0.3283
  644MOL0     H88808   7.337   2.406   8.175 -0.7861  0.3025  0.7173
  644MOL0     H88809   7.578   2.408   8.140  1.7446  1.8761  0.6411
  644MOL0     H88810   7.605   2.447   8.311 -0.1163 -0.4922  0.6827
  644MOL0     H88811   7.550   2.191   8.361 -1.3969  1.1217 -0.0125
  644MOL0     H88812   7.545   2.175   8.189 -0.0107 -0.0547 -0.6649
  644MOL0     H88813   7.762   2.118   8.321  1.4301 -1.1592 -3.3518
  644MOL0     H88814   7.790   2.289   8.345 -1.7870  0.8580  0.3445
  644MOL0     H88815   7.758   2.142   8.071  0.5869 -1.8700  0.1455
  644MOL0     H88816   7.803   2.316   8.093  0.5073  0.7548  0.0866
  644MOL0     H88817   7.959   2.082   8.211  0.6951  0.1634  0.4300
  644MOL0     H88818   8.012   2.251   8.201 -0.5149  0.2467 -0.0235
  644MOL0     H88819   7.981   2.063   7.966 -0.0538  1.3641 -1.4035
  644MOL0     H88820   8.065   2.215   7.958 -1.9970 -0.3956 -0.6418
  644MOL0     H88821   8.244   2.193   8.232 -1.0521  1.8544 -2.7217
  644MOL0     H88822   8.495   2.131   8.281  2.2484  1.4038 -2.4935
  644MOL0     H88823   8.556   1.995   8.171  1.5874 -0.6944  2.6329
  644MOL0     H88824   8.372   1.954   8.422  1.2945  3.1633  2.2399
  644MOL0     H88825   8.458   1.832   8.322  2.0481 -0.8265  2.7029
  644MOL0     H88826   8.554   2.040   8.521  1.3700 -0.8911  0.9298
  644MOL0     H88827   8.549   1.866   8.551 -0.3458  1.7056  1.7417
  644MOL0     H88828   8.716   1.802   8.423  1.4786 -0.0957 -0.7027
  644MOL0     H88829   8.738   1.954   8.336 -1.8379  0.5466  0.2514
  644MOL0     H88830   8.973   1.975   8.725  3.1296 -1.4220  1.3728
  644MOL0     H88831   9.305   1.983   8.757 -0.1820  1.4383 -0.5223
  644MOL0     H88832   9.249   1.835   8.828  0.5383  0.8480 -0.3502
  644MOL0     H88833   9.152   1.981   8.844  0.6965  2.2074 -0.7915
  644MOL0     H88834   9.599   1.765   8.315 -0.2956  0.6847  1.0123
  644MOL0     H88835   9.824   1.657   8.329  2.4492 -3.9051  0.3725
  644MOL0     H88836   9.850   1.283   8.582  0.0259 -1.5105  0.7860
  644MOL0     H88837  10.006   1.286   8.504  0.7941  0.0094  3.5345
  644MOL0     H88838   9.923   1.484   8.718 -0.3597 -0.1631 -0.9473
  644MOL0     H88839  10.025   1.345   8.750  0.2190 -0.3502  0.0194
  644MOL0     H88840  10.111   1.557   8.558  1.2424  0.1102  0.1981
  644MOL0     H88841  10.202   1.407   8.580 -0.4864 -1.5622  0.8705
  644MOL0     H88842  10.248   1.447   8.807 -1.8343 -2.4403 -1.4656
  644MOL0     H88843  10.165   1.604   8.805  0.9731  0.7081 -0.3593
  644MOL0     H88844  10.400   1.545   8.636  0.0607  2.1616 -4.0448
  644MOL0     H88845  10.312   1.690   8.615 -0.2195  0.4186  0.2338
  644MOL0     H88846  10.446   1.608   8.872  1.4397 -1.5953 -0.9226
  644MOL0     H88847  10.360   1.767   8.844 -0.7308 -1.1645 -0.4897
  644MOL0     H88848  10.582   1.677   8.651  2.1834 -0.0409  0.4447
  644MOL0     H88849  10.629   1.716   8.806 -0.7972 -0.3123 -0.6783
  644MOL0     H88850  10.556   1.945   8.807 -0.5348 -0.8850  0.3943
  644MOL0     H88851  10.454   1.923   8.660 -0.0533  1.9514  0.2262
  644MOL0     H88852   9.674   1.373   8.614 -0.0181  0.4303  0.6140
  644MOL0     H88853   9.458   1.474   8.595  3.1347  0.7934  5.3283
  644MOL0     H88854   9.151   1.715   8.351  0.4153 -0.1382 -0.4546
  644MOL0     H88855   8.921   1.791   8.343 -1.2375 -1.0335  1.6813
  644MOL0     H88856   7.342   2.292   8.519 -0.4241 -2.3075 -2.7795
  644MOL0     H88857   7.215   2.157   8.698 -0.9291 -0.1311  0.3728
  644MOL0     H88858   6.958   2.241   9.023 -0.5829 -0.3792  0.5231
  644MOL0     H88859   6.847   2.261   9.240 -0.9743 -0.5900  0.3788
  644MOL0     H88860   6.719   2.225   9.458 -0.1293  0.1561 -0.6252
  644MOL0     H88861   6.670   2.377   9.375  0.5052  0.1197  2.8896
  644MOL0     H88862   6.581   2.314   9.601 -2.6757  1.1827  0.9919
  644MOL0     H88863   6.471   2.207   9.513 -1.5035  0.4768 -2.9076
  644MOL0     H88864   6.485   2.496   9.486 -3.0733  2.0381  1.0475
  644MOL0     H88865   6.382   2.384   9.383  0.3387  1.0369 -0.5446
  644MOL0     H88866   6.263   2.492   9.577  0.2673  0.4805  0.2372
  644MOL0     H88867   6.376   2.415   9.687 -0.3278 -0.9582  0.8033
  644MOL0     H88868   6.109   2.096   9.609  1.0488 -1.4563 -1.1766
  644MOL0     H88869   6.506   2.050   9.077  0.5160  0.4714  0.6531
  644MOL0     H88870   6.557   2.085   8.753  0.1161 -0.3160 -1.8542
  644MOL0     H88871   6.655   1.939   8.784 -2.0270  0.2726 -3.1913
  644MOL0     H88872   6.506   1.965   8.870  0.0076  0.7085 -0.9876
  645MOL0     O88873   9.178   5.106   1.550  0.0328  0.3805  0.5354
  645MOL0     C88874   9.281   5.093   1.480 -0.4217 -0.7801 -0.6263
  645MOL0     O88875   9.337   4.978   1.454 -0.0058  0.6230  0.3587
  645MOL0     C88876   9.279   4.864   1.499  0.1101 -0.2130  0.2720
  645MOL0     C88877   9.251   4.830   1.634 -0.8313  0.6268 -0.4125
  645MOL0     C88878   9.194   4.705   1.658  0.6318  0.2450 -0.3032
  645MOL0     C88879   9.169   4.620   1.553 -0.3919  0.2637 -0.8573
  645MOL0     O88880   9.132   4.485   1.581 -0.0926  0.2064 -0.3887
  645MOL0     C88881   9.176   4.376   1.497  0.7418  0.3688 -0.3080
  645MOL0     C88882   9.181   4.247   1.586  1.0380  0.0052  0.3247
  645MOL0     C88883   9.223   4.134   1.498 -0.8941 -0.1310 -0.9374
  645MOL0     C88884   9.231   4.000   1.573  0.1797 -0.1764 -0.2996
  645MOL0     C88885   9.255   3.885   1.472 -0.5015 -0.8957  0.0129
  645MOL0     C88886   9.280   3.750   1.548 -0.2176 -0.1843 -0.0048
  645MOL0     C88887   9.422   3.734   1.618  1.0758  0.7564  0.7964
  645MOL0     C88888   9.411   3.704   1.766  0.3166 -0.4150  0.0699
  645MOL0     N88889   9.536   3.658   1.820  0.2364  0.2268 -0.4016
  645MOL0     C88890   9.558   3.525   1.849 -0.3858  0.7223  0.1003
  645MOL0     C88891   9.677   3.532   1.918  1.0188 -0.0448  1.1873
  645MOL0     C88892   9.757   3.431   1.982  0.4134 -0.3828 -0.3481
  645MOL0     C88893   9.863   3.363   1.896  0.2911 -0.2737  0.2549
  645MOL0     C88894   9.814   3.322   1.752 -0.5964  0.4274 -0.0445
  645MOL0     C88895   9.939   3.248   1.690  0.4529 -1.0078 -0.0546
  645MOL0     O88896  10.023   3.357   1.652  0.4478 -0.6752 -0.2053
  645MOL0     C88897  10.149   3.329   1.600 -0.5234 -0.9463  0.3292
  645MOL0     C88898  10.240   3.437   1.563  0.3637  0.3852  0.2782
  645MOL0     C88899  10.361   3.421   1.501  0.6989 -0.1776  0.7230
  645MOL0     C88900  10.433   3.546   1.451 -0.8826 -0.1426  0.4060
  645MOL0     C88901  10.413   3.289   1.469  0.7903  0.1672 -0.1706
  645MOL0     C88902  10.543   3.258   1.406 -0.8043 -0.3102 -0.2586
  645MOL0     O88903  10.567   3.124   1.380 -0.2551  0.5461 -0.3691
  645MOL0     C88904  10.677   3.091   1.306  0.6216 -0.6685 -0.5473
  645MOL0     C88905  10.802   3.083   1.362 -0.4152  0.2428 -0.7043
  645MOL0     C88906  10.917   3.068   1.286  0.6693 -0.1877 -0.2066
  645MOL0     C88907  10.909   3.053   1.145  0.3320 -0.5237 -0.8536
  645MOL0     O88908  11.037   3.056   1.076 -0.3135  0.3678 -0.5043
  645MOL0     C88909  11.026   2.996   0.948 -0.4060  0.4495 -0.2145
  645MOL0     C88910  11.171   2.980   0.909  0.0997 -0.0476  0.6932
  645MOL0     C88911  11.221   3.107   0.831 -0.0699 -0.1168 -0.1806
  645MOL0     C88912  11.158   3.145   0.702  0.0459  0.2816 -0.3190
  645MOL0     C88913  11.231   3.266   0.642 -0.3015  0.3126 -0.7104
  645MOL0     C88914  11.360   3.213   0.558 -0.2967 -0.0218  0.4608
  645MOL0     C88915  11.469   3.331   0.536 -0.0345  0.8932 -0.3586
  645MOL0     C88916  11.517   3.414   0.662 -0.1213  0.4548  0.6891
  645MOL0    Cl88917  11.648   3.533   0.603  0.7636 -0.1613 -0.2969
  645MOL0     C88918  10.777   3.046   1.089  0.1444 -0.6944 -0.5348
  645MOL0     C88919  10.660   3.065   1.171 -0.2644  0.4385  0.2855
  645MOL0     O88920  10.627   3.345   1.382 -0.3549 -0.5473 -0.4377
  645MOL0     C88921  10.323   3.177   1.503  0.6021  0.7961  1.1102
  645MOL0     C88922  10.199   3.200   1.579 -0.7244  0.4493  0.3977
  645MOL0     N88923   9.707   3.661   1.934 -0.0596 -0.2129 -0.1915
  645MOL0     N88924   9.622   3.738   1.889 -0.2797  0.1425  0.6626
  645MOL0     C88925   9.193   4.657   1.424 -0.3714 -0.3655 -0.6039
  645MOL0     C88926   9.239   4.782   1.395 -0.0687 -0.6649  0.0713
  645MOL0     C88927   9.360   5.210   1.437  0.9204 -0.7894  0.2291
  645MOL0     C88928   9.332   5.338   1.499 -0.2559  0.1154  0.6817
  645MOL0     C88929   9.388   5.458   1.467 -1.3477  0.2168  1.0486
  645MOL0     C88930   9.489   5.455   1.367  0.7238  0.3263 -0.2692
  645MOL0     O88931   9.558   5.568   1.337 -0.5363 -0.2664 -0.0557
  645MOL0     C88932   9.657   5.607   1.429 -0.4330  0.1147  0.2308
  645MOL0     C88933   9.798   5.646   1.361  0.4214 -0.6358 -0.4826
  645MOL0     C88934   9.853   5.522   1.302 -0.3814 -0.0242 -0.5170
  645MOL0     C88935   9.989   5.542   1.243 -0.3766 -0.3540  0.2923
  645MOL0     C88936   9.979   5.645   1.132 -0.1375  0.3061 -0.0791
  645MOL0     C88937   9.979   5.713   1.033  0.0682 -0.8497 -0.4560
  645MOL0     C88938   9.520   5.334   1.302 -0.6332  0.6618  0.3345
  645MOL0     C88939   9.447   5.211   1.325 -0.6160  0.4281  0.2802
  645MOL0     C88940   9.480   5.097   1.241 -0.7706  0.4622  0.0648
  645MOL0     H88941   9.283   4.892   1.717 -0.3417  1.5141 -1.2483
  645MOL0     H88942   9.194   4.680   1.763 -2.4508  1.1709  0.0188
  645MOL0     H88943   9.280   4.401   1.474  2.0236 -1.9157  2.4336
  645MOL0     H88944   9.108   4.370   1.411 -1.4006  2.3754  1.1332
  645MOL0     H88945   9.249   4.266   1.670 -0.2506 -3.0502  2.2332
  645MOL0     H88946   9.079   4.232   1.621  0.0362  1.8698 -1.5864
  645MOL0     H88947   9.158   4.120   1.411 -3.4667 -2.4581  1.1695
  645MOL0     H88948   9.322   4.156   1.456  0.3936 -1.2824  1.2876
  645MOL0     H88949   9.311   4.002   1.648  1.0433 -1.3445 -1.1428
  645MOL0     H88950   9.133   3.982   1.619 -0.8645  2.5695 -1.2879
  645MOL0     H88951   9.351   3.916   1.430  0.0685 -4.0646 -1.3288
  645MOL0     H88952   9.176   3.878   1.396 -1.2033  1.4326  0.4619
  645MOL0     H88953   9.195   3.746   1.617 -0.6036 -1.3343 -0.5290
  645MOL0     H88954   9.262   3.672   1.474  0.9586  0.4105 -0.9485
  645MOL0     H88955   9.473   3.828   1.594 -0.4269  0.8697 -2.6537
  645MOL0     H88956   9.466   3.655   1.556 -1.4255 -0.1385  0.0333
  645MOL0     H88957   9.388   3.794   1.823 -0.0653 -1.8708  2.3373
  645MOL0     H88958   9.335   3.625   1.774 -0.2314 -0.0438 -1.1420
  645MOL0     H88959   9.505   3.433   1.827 -0.2959  0.7896 -0.4078
  645MOL0     H88960   9.688   3.354   2.015 -1.4900  0.1197 -2.8136
  645MOL0     H88961   9.810   3.474   2.067  0.3962  1.3471 -1.1670
  645MOL0     H88962   9.938   3.440   1.876 -1.2375  0.8807 -1.3064
  645MOL0     H88963   9.905   3.274   1.944  1.9655  0.6425  0.5438
  645MOL0     H88964   9.731   3.251   1.751 -0.4093  0.1515 -2.2292
  645MOL0     H88965   9.796   3.409   1.688 -0.8851  0.1371 -0.3628
  645MOL0     H88966   9.990   3.179   1.757 -1.0044 -2.8243 -0.7165
  645MOL0     H88967   9.903   3.197   1.599 -1.7708 -1.8078  1.1872
  645MOL0     H88968  10.204   3.538   1.576 -0.4704  0.1926 -0.4084
  645MOL0     H88969  10.533   3.561   1.493 -1.1910 -0.1024  1.1427
  645MOL0     H88970  10.366   3.627   1.478 -1.2057 -0.3562  0.2538
  645MOL0     H88971  10.435   3.531   1.342 -3.0094 -2.4181  0.5850
  645MOL0     H88972  10.809   3.098   1.469 -4.6362  1.2279 -0.3783
  645MOL0     H88973  11.016   3.078   1.328  1.3455 -1.3382 -1.4385
  645MOL0     H88974  10.981   2.897   0.961 -1.2687  1.0160  1.3167
  645MOL0     H88975  10.968   3.063   0.883  2.4902  3.3911  0.0101
  645MOL0     H88976  11.233   2.946   0.992  0.2136 -2.8523 -0.4287
  645MOL0     H88977  11.167   2.894   0.841 -3.6777 -0.0891  0.7851
  645MOL0     H88978  11.325   3.077   0.814  0.6742  2.3580 -0.3420
  645MOL0     H88979  11.225   3.187   0.906 -0.6203 -0.4482  0.2147
  645MOL0     H88980  11.052   3.166   0.721 -0.7363 -2.8673 -0.6756
  645MOL0     H88981  11.158   3.056   0.640  2.0938 -0.2344  0.3341
  645MOL0     H88982  11.171   3.332   0.579 -0.5263  1.7303  0.9288
  645MOL0     H88983  11.267   3.331   0.722  0.5825 -0.5168 -0.4038
  645MOL0     H88984  11.325   3.180   0.460  3.3124  0.7866 -1.2749
  645MOL0     H88985  11.415   3.131   0.606 -1.4898 -1.8292 -1.0668
  645MOL0     H88986  11.430   3.403   0.464 -1.1104  0.4026 -0.2831
  645MOL0     H88987  11.559   3.288   0.489  1.2040  1.5524  1.3292
  645MOL0     H88988  11.547   3.341   0.738  1.3535 -1.0246 -1.1779
  645MOL0     H88989  11.430   3.476   0.686 -1.6955 -0.2846 -2.5415
  645MOL0     H88990  10.765   3.010   0.988 -0.6239 -1.0409 -0.3247
  645MOL0     H88991  10.561   3.065   1.126  0.8129  1.0613 -2.2310
  645MOL0     H88992  10.341   3.073   1.478 -1.1599  0.8246 -0.5456
  645MOL0     H88993  10.137   3.115   1.607 -0.7082  0.5892  0.8541
  645MOL0     H88994   9.157   4.597   1.341  0.1551 -1.6020  0.0445
  645MOL0     H88995   9.253   4.810   1.291  1.8517 -0.8613  0.2491
  645MOL0     H88996   9.263   5.341   1.583 -0.8052 -0.2961  0.2549
  645MOL0     H88997   9.369   5.547   1.526 -4.2641  0.6525 -0.3393
  645MOL0     H88998   9.612   5.694   1.477  0.0542 -1.1425  3.2342
  645MOL0     H88999   9.681   5.525   1.498  0.5947  1.1373  1.1270
  645MOL0     H89000   9.860   5.677   1.445 -2.5672 -3.9074  3.3552
  645MOL0     H89001   9.776   5.726   1.290  0.1446 -2.1752 -2.2225
  645MOL0     H89002   9.859   5.443   1.377 -1.4473 -1.1004 -1.5295
  645MOL0     H89003   9.789   5.488   1.220 -0.2315  1.1185 -1.1332
  645MOL0     H89004  10.036   5.445   1.226 -1.1555 -0.4425 -1.6027
  645MOL0     H89005  10.053   5.591   1.317  1.3150 -0.8342 -0.7903
  645MOL0     H89006   9.957   5.764   0.941  1.2176  0.0231 -0.2798
  645MOL0     H89007   9.595   5.325   1.224 -1.3228 -2.4823 -0.1099
  645MOL0     H89008   9.539   5.026   1.300  0.7853 -0.2495 -2.2555
  645MOL0     H89009   9.390   5.050   1.200 -0.6659 -0.5809  0.9784
  645MOL0     H89010   9.530   5.138   1.153  0.3316 -0.8253  0.0648
  646MOL0     O89011  10.930   3.420   7.171  0.5026 -0.8670  0.2963
  646MOL0     C89012  10.889   3.346   7.252 -0.5706 -0.0548 -0.4821
  646MOL0     O89013  10.872   3.210   7.240 -0.1635  0.0158  0.3216
  646MOL0     C89014  10.940   3.146   7.140  0.1133  0.1343  0.1870
  646MOL0     C89015  11.081   3.145   7.147 -0.2356  0.0221 -0.1380
  646MOL0     C89016  11.154   3.057   7.065 -0.9301 -0.4295 -0.2487
  646MOL0     C89017  11.092   2.980   6.963  1.0713  0.3499 -0.4587
  646MOL0     O89018  11.150   2.898   6.871 -0.4001 -0.2268  0.2475
  646MOL0     C89019  11.282   2.852   6.898 -0.1582 -0.4699 -0.2838
  646MOL0     C89020  11.315   2.746   6.797 -0.3010  0.5256 -0.6759
  646MOL0     C89021  11.306   2.807   6.648 -0.0912  0.0919 -0.8998
  646MOL0     C89022  11.366   2.714   6.542  0.5402 -0.2682  0.0033
  646MOL0     C89023  11.523   2.698   6.550 -0.4467 -0.5019  0.2181
  646MOL0     C89024  11.583   2.608   6.436 -0.3601  0.2519  0.9421
  646MOL0     C89025  11.734   2.572   6.467 -0.0375 -0.3314  0.2556
  646MOL0     C89026  11.763   2.472   6.583  0.5725 -0.5509  1.0886
  646MOL0     N89027  11.908   2.424   6.592  0.1348 -0.0053  0.4459
  646MOL0     C89028  11.966   2.348   6.497 -0.4302 -1.0809  1.2990
  646MOL0     C89029  12.090   2.330   6.542 -0.2720  0.0636  0.6205
  646MOL0     C89030  12.167   2.221   6.480 -0.1448 -0.1090  0.6498
  646MOL0     C89031  12.316   2.242   6.510  0.0967  0.0505 -0.4517
  646MOL0     C89032  12.386   2.346   6.417  0.6224 -0.5673 -0.2524
  646MOL0     C89033  12.536   2.365   6.445 -0.2305 -0.3751  0.2250
  646MOL0     O89034  12.580   2.459   6.337 -0.5382  0.0319 -0.4760
  646MOL0     C89035  12.661   2.565   6.376  0.5121 -0.3721  0.0722
  646MOL0     C89036  12.701   2.642   6.269  0.9651 -0.0649  0.2256
  646MOL0     C89037  12.784   2.755   6.290 -0.0397 -0.7873 -0.9418
  646MOL0     C89038  12.823   2.826   6.165  0.0910 -0.2046  0.0779
  646MOL0     C89039  12.846   2.780   6.420 -0.1451  0.0929 -0.4429
  646MOL0     C89040  12.972   2.872   6.442  0.3042  0.3696 -0.6465
  646MOL0     O89041  12.999   2.909   6.569 -0.0049  0.2023 -0.1028
  646MOL0     C89042  13.127   2.948   6.605  0.1703  0.1780 -0.3324
  646MOL0     C89043  13.203   2.873   6.696  0.6311 -0.0096 -0.3467
  646MOL0     C89044  13.333   2.904   6.725 -0.8405 -0.2615 -0.0822
  646MOL0     C89045  13.397   3.018   6.657 -0.1158 -0.1692 -0.0988
  646MOL0     O89046  13.524   3.058   6.689  0.3233  0.5133 -0.3833
  646MOL0     C89047  13.626   2.993   6.616  0.2357  0.0525 -1.0231
  646MOL0     C89048  13.630   3.042   6.476 -0.3066  0.2126 -0.1961
  646MOL0     C89049  13.760   3.003   6.416  0.3461 -0.2791  0.0800
  646MOL0     C89050  13.806   2.861   6.428 -0.5641 -0.5703  0.4050
  646MOL0     C89051  13.934   2.839   6.350  0.2865  0.0183 -0.1705
  646MOL0     C89052  13.975   2.692   6.352  0.2483 -0.1548 -0.3380
  646MOL0     C89053  14.054   2.639   6.230  0.3759 -0.1689 -0.4989
  646MOL0     C89054  14.178   2.561   6.268 -0.2529 -0.6447 -0.9318
  646MOL0    Cl89055  14.303   2.678   6.330 -0.0604 -0.2012  0.1812
  646MOL0     C89056  13.316   3.093   6.569  0.4406 -0.0427  1.0757
  646MOL0     C89057  13.189   3.057   6.548 -0.1650  0.7910 -0.3688
  646MOL0     O89058  13.045   2.883   6.345 -0.4594 -0.7274 -0.3008
  646MOL0     C89059  12.778   2.709   6.521 -1.1557  0.0336  0.1601
  646MOL0     C89060  12.701   2.600   6.505 -0.5168  0.7229  0.6306
  646MOL0     N89061  12.096   2.380   6.667 -0.4538 -0.7443 -0.1389
  646MOL0     N89062  11.985   2.436   6.700 -0.2388 -0.7065  0.0510
  646MOL0     C89063  10.948   2.988   6.965 -0.1631 -0.5420  0.0046
  646MOL0     C89064  10.871   3.062   7.055  0.7460 -0.4559  0.1517
  646MOL0     C89065  10.877   3.403   7.392 -0.2191  0.7216 -0.2188
  646MOL0     C89066  10.946   3.332   7.496 -0.3846 -0.0116  0.4525
  646MOL0     C89067  10.953   3.386   7.627  0.2080 -0.3049 -0.3300
  646MOL0     C89068  10.882   3.498   7.653 -0.6492  0.1262 -0.2179
  646MOL0     O89069  10.873   3.548   7.779 -0.4276 -0.0211 -0.7564
  646MOL0     C89070  10.981   3.543   7.882  1.1479  0.6765 -0.3718
  646MOL0     C89071  11.066   3.666   7.872  0.0292  0.3982  0.6426
  646MOL0     C89072  10.987   3.800   7.839 -0.1945 -0.8645  0.3250
  646MOL0     C89073  10.928   3.858   7.975 -0.2953  1.5332  0.2523
  646MOL0     C89074  10.852   3.984   7.952  0.1226 -0.5212 -0.4531
  646MOL0     C89075  10.786   4.089   7.942  0.5044  0.5298  0.8280
  646MOL0     C89076  10.826   3.571   7.547  0.3314  0.1967 -0.1166
  646MOL0     C89077  10.823   3.532   7.418 -0.0375  0.4229 -0.0547
  646MOL0     C89078  10.784   3.625   7.316  0.1136 -0.2152  0.1745
  646MOL0     H89079  11.130   3.214   7.214 -2.9986  3.5154 -1.4025
  646MOL0     H89080  11.262   3.058   7.069 -0.5980  5.6529 -0.7882
  646MOL0     H89081  11.285   2.808   6.998  1.7801  0.5071  0.1267
  646MOL0     H89082  11.355   2.933   6.891 -2.0539  1.2156 -1.9714
  646MOL0     H89083  11.419   2.716   6.808  0.0143  1.4710 -0.9828
  646MOL0     H89084  11.257   2.653   6.804  1.7902 -0.7336  0.8412
  646MOL0     H89085  11.203   2.833   6.624 -0.3385 -1.2441 -1.3399
  646MOL0     H89086  11.365   2.899   6.641 -0.8437  0.5014 -2.1904
  646MOL0     H89087  11.320   2.616   6.554 -0.3696  0.2100  0.4932
  646MOL0     H89088  11.331   2.753   6.446  0.5242 -0.2598  0.0123
  646MOL0     H89089  11.546   2.656   6.648  2.6775 -0.3308 -0.3420
  646MOL0     H89090  11.573   2.795   6.540 -0.4346 -0.4694  0.5926
  646MOL0     H89091  11.529   2.513   6.437 -1.8134  0.9922  3.8774
  646MOL0     H89092  11.574   2.653   6.337 -1.8395 -1.4787  0.2323
  646MOL0     H89093  11.799   2.658   6.490  1.7636 -0.7286 -2.7822
  646MOL0     H89094  11.775   2.531   6.374 -1.0475  0.3712 -0.5253
  646MOL0     H89095  11.729   2.525   6.672 -0.6621  0.2866  0.1534
  646MOL0     H89096  11.694   2.386   6.580  0.7069 -0.6393 -1.1597
  646MOL0     H89097  11.922   2.316   6.403  0.1251 -0.4872  0.8295
  646MOL0     H89098  12.133   2.231   6.377 -1.1548 -1.7480  0.7962
  646MOL0     H89099  12.139   2.120   6.513 -1.7888  0.0468 -0.1823
  646MOL0     H89100  12.338   2.254   6.617 -0.1210 -1.7920 -0.1645
  646MOL0     H89101  12.359   2.144   6.484  0.5664  0.2724 -0.5162
  646MOL0     H89102  12.367   2.327   6.311 -0.8424 -0.8678  0.0412
  646MOL0     H89103  12.346   2.445   6.441  3.4473  0.1200  2.3059
  646MOL0     H89104  12.566   2.388   6.547 -0.2613 -0.0862  0.1714
  646MOL0     H89105  12.575   2.266   6.420  1.9108  0.5099 -0.1456
  646MOL0     H89106  12.666   2.618   6.169 -2.3636 -0.9443  1.4660
  646MOL0     H89107  12.896   2.755   6.126 -0.1700  0.0271 -0.8808
  646MOL0     H89108  12.853   2.931   6.179  2.6127 -0.9804  0.9268
  646MOL0     H89109  12.741   2.835   6.093  0.4792  0.6021 -0.2783
  646MOL0     H89110  13.152   2.786   6.738 -2.9750  0.3176 -3.5218
  646MOL0     H89111  13.384   2.848   6.802  1.7833 -0.3433 -1.7696
  646MOL0     H89112  13.724   3.026   6.654 -0.3697  2.3426 -1.2865
  646MOL0     H89113  13.618   2.884   6.615 -1.6504  0.1697 -1.0911
  646MOL0     H89114  13.541   3.009   6.421 -1.0658 -0.5591  1.4398
  646MOL0     H89115  13.622   3.151   6.470 -0.3043  0.1697 -1.1160
  646MOL0     H89116  13.832   3.070   6.465 -1.6788  0.8913  1.6144
  646MOL0     H89117  13.758   3.031   6.310 -0.0238 -0.5550  0.0136
  646MOL0     H89118  13.735   2.799   6.372  0.9342 -2.3056  0.3402
  646MOL0     H89119  13.815   2.848   6.536  2.8841 -1.7496  0.0804
  646MOL0     H89120  13.926   2.871   6.246  0.1737 -1.0266 -0.4939
  646MOL0     H89121  14.016   2.899   6.391  0.7932 -0.3150 -0.6873
  646MOL0     H89122  13.884   2.631   6.350 -1.6975  2.5950 -1.4379
  646MOL0     H89123  14.034   2.679   6.443  1.0613  0.5286 -0.7551
  646MOL0     H89124  14.094   2.721   6.170 -0.7230  0.7274 -0.0549
  646MOL0     H89125  13.987   2.578   6.168 -0.1938 -0.5375  0.4501
  646MOL0     H89126  14.210   2.516   6.173 -0.7938  0.1105 -1.4861
  646MOL0     H89127  14.154   2.484   6.342 -0.2782  1.4258  1.3583
  646MOL0     H89128  13.341   3.187   6.520  0.5894  0.2661  1.7374
  646MOL0     H89129  13.124   3.113   6.482 -2.0994  1.1321  1.7076
  646MOL0     H89130  12.808   2.735   6.622 -1.3552 -0.6070  0.3892
  646MOL0     H89131  12.664   2.549   6.594  2.2390 -0.1768  1.3394
  646MOL0     H89132  10.895   2.936   6.885 -0.6005 -1.3816  0.8269
  646MOL0     H89133  10.763   3.069   7.062  0.7822  0.2785  0.0689
  646MOL0     H89134  11.005   3.243   7.476  0.2067  0.4713  0.0091
  646MOL0     H89135  10.995   3.322   7.704 -0.9872  0.6963  1.1997
  646MOL0     H89136  10.928   3.537   7.977 -1.6314  0.7950 -1.8180
  646MOL0     H89137  11.034   3.448   7.872 -0.6796 -0.5321  0.9059
  646MOL0     H89138  11.133   3.656   7.786 -1.1220 -0.4334 -0.2030
  646MOL0     H89139  11.129   3.679   7.960  1.3744  0.3092 -0.2793
  646MOL0     H89140  11.066   3.864   7.798 -1.0029  0.5371  0.8893
  646MOL0     H89141  10.918   3.781   7.757  2.8839 -1.0410 -2.4104
  646MOL0     H89142  11.017   3.871   8.037  0.7124  0.9598 -1.0456
  646MOL0     H89143  10.861   3.784   8.021  0.8383  0.1233 -0.2817
  646MOL0     H89144  10.721   4.171   7.918  1.4417  0.7481 -1.1234
  646MOL0     H89145  10.779   3.667   7.568 -3.2445 -1.7143  1.6681
  646MOL0     H89146  10.764   3.722   7.362  4.7653  0.9460  0.1896
  646MOL0     H89147  10.868   3.637   7.248 -0.0188 -2.5452 -0.4706
  646MOL0     H89148  10.692   3.586   7.272  0.1166 -0.6656  0.5611
  647MOL0     O89149   4.510   0.447   2.139 -0.0334  0.0926  0.3368
  647MOL0     C89150   4.498   0.530   2.048  1.1058  0.6864  0.3543
  647MOL0     O89151   4.584   0.550   1.942 -0.4425 -0.0670  0.4927
  647MOL0     C89152   4.681   0.466   1.907 -0.0069  0.4529 -0.4621
  647MOL0     C89153   4.813   0.518   1.901 -0.8768  0.4836  0.2679
  647MOL0     C89154   4.923   0.429   1.900 -0.1426  0.8964  0.8683
  647MOL0     C89155   4.909   0.289   1.904  1.0395 -0.0425 -0.0054
  647MOL0     O89156   5.028   0.220   1.912 -0.1976 -0.3447 -0.0992
  647MOL0     C89157   5.023   0.082   1.934  0.4128  0.3565  0.8155
  647MOL0     C89158   5.155   0.014   1.919  0.0502 -0.3793  0.2661
  647MOL0     C89159   5.265   0.070   2.007 -0.3090  0.1367  0.2148
  647MOL0     C89160   5.397   0.061   1.933  0.5917 -0.7025  0.2995
  647MOL0     C89161   5.437  -0.077   1.877  0.3599  0.5878  0.3616
  647MOL0     C89162   5.582  -0.090   1.841 -0.1569 -0.1431 -0.7807
  647MOL0     C89163   5.617  -0.213   1.772  0.3470  1.1592 -0.2977
  647MOL0     C89164   5.762  -0.230   1.742 -0.3613  0.5284  0.1907
  647MOL0     N89165   5.815  -0.114   1.667  0.3644  0.0956 -0.5322
  647MOL0     C89166   5.779  -0.077   1.543 -0.7497 -0.0440 -0.0503
  647MOL0     C89167   5.854   0.036   1.517  0.0593  0.1094  0.2470
  647MOL0     C89168   5.841   0.122   1.396 -0.3842  0.1673  0.7193
  647MOL0     C89169   5.891   0.050   1.272 -0.4560 -0.9191 -0.1022
  647MOL0     C89170   5.857   0.114   1.137  0.3880  0.0331  0.0252
  647MOL0     C89171   5.899   0.261   1.125  1.0490 -0.0887 -0.1664
  647MOL0     O89172   6.035   0.279   1.150  0.2246 -0.4482 -0.2524
  647MOL0     C89173   6.123   0.254   1.047 -0.4151  0.7050  0.2620
  647MOL0     C89174   6.249   0.249   1.091 -0.3918 -0.4157  0.7282
  647MOL0     C89175   6.356   0.229   1.004  0.8078 -0.0470 -0.4427
  647MOL0     C89176   6.486   0.224   1.069 -0.2070 -0.7522 -0.3845
  647MOL0     C89177   6.331   0.216   0.866  0.1735 -1.0842  0.4525
  647MOL0     C89178   6.436   0.197   0.768  0.0497  0.0992 -0.1868
  647MOL0     O89179   6.568   0.243   0.793  0.4970 -0.5344  0.2202
  647MOL0     C89180   6.664   0.237   0.692  0.0563  0.3041 -1.0324
  647MOL0     C89181   6.768   0.323   0.716 -0.1352 -0.7670  0.7681
  647MOL0     C89182   6.879   0.327   0.630 -0.4596 -0.6075 -0.0193
  647MOL0     C89183   6.891   0.242   0.526  0.7467  0.1058  0.0791
  647MOL0     O89184   7.010   0.259   0.454 -0.1648  0.0346  0.5912
  647MOL0     C89185   7.051   0.138   0.377  0.0960 -0.3140  0.7029
  647MOL0     C89186   7.192   0.145   0.324 -0.1517 -0.6953  0.2049
  647MOL0     C89187   7.264   0.015   0.262 -0.9961 -0.8503 -0.2477
  647MOL0     C89188   7.424   0.030   0.278  0.3198 -0.0824  0.0817
  647MOL0     C89189   7.507  -0.094   0.235  0.3660  0.1765  0.3977
  647MOL0     C89190   7.636  -0.105   0.322 -0.6709 -0.4911 -0.2695
  647MOL0     C89191   7.749  -0.204   0.282 -0.4626 -0.2232 -0.5965
  647MOL0     C89192   7.713  -0.329   0.356 -0.1737  0.6664 -0.2496
  647MOL0    Cl89193   7.797  -0.470   0.300  0.0762 -0.0325  0.0871
  647MOL0     C89194   6.796   0.149   0.508 -0.6558  0.9281 -0.1599
  647MOL0     C89195   6.685   0.137   0.589 -0.4621 -0.7768  0.2572
  647MOL0     O89196   6.400   0.151   0.664  0.5040 -0.2983  0.2657
  647MOL0     C89197   6.198   0.215   0.825  0.2140 -0.4138  0.1075
  647MOL0     C89198   6.095   0.237   0.919 -0.0491 -0.2332  0.3937
  647MOL0     N89199   5.924   0.061   1.635  0.0931  0.9294  0.0215
  647MOL0     N89200   5.904  -0.036   1.715  0.0592 -0.0200 -0.3083
  647MOL0     C89201   4.777   0.242   1.917  0.2994 -0.5343  0.3204
  647MOL0     C89202   4.666   0.331   1.914 -0.7108 -0.3996  0.3035
  647MOL0     C89203   4.371   0.607   2.052  0.4924  0.5367 -0.8019
  647MOL0     C89204   4.254   0.539   2.096 -0.3649  0.3420 -0.1523
  647MOL0     C89205   4.136   0.606   2.110  0.6601  0.5079  0.7015
  647MOL0     C89206   4.120   0.739   2.068  0.1951  0.8526 -0.1932
  647MOL0     O89207   3.987   0.792   2.067 -0.1628  0.3154 -0.7250
  647MOL0     C89208   3.961   0.921   2.005 -0.3940 -0.2728  0.2027
  647MOL0     C89209   3.820   0.947   2.032 -0.0224  0.6312  0.8019
  647MOL0     C89210   3.806   0.959   2.188 -0.3786  0.7894 -0.4639
  647MOL0     C89211   3.661   0.944   2.219 -0.3162 -0.3928 -0.2705
  647MOL0     C89212   3.625   0.963   2.364 -0.0591  0.8142  0.5545
  647MOL0     C89213   3.591   0.963   2.485  0.2839 -0.3138 -0.2065
  647MOL0     C89214   4.232   0.811   2.013 -0.0033 -0.0225  0.0017
  647MOL0     C89215   4.359   0.743   2.010  1.0642 -0.4686  0.2020
  647MOL0     C89216   4.477   0.828   1.961 -0.1742 -0.8053 -0.1910
  647MOL0     H89217   4.836   0.623   1.894 -0.0241  0.1943 -2.6885
  647MOL0     H89218   5.024   0.468   1.894 -0.4719  1.6150 -0.4308
  647MOL0     H89219   4.951   0.039   1.863  3.1539 -2.3612 -0.5714
  647MOL0     H89220   4.986   0.054   2.033  1.4884 -2.1997  0.5673
  647MOL0     H89221   5.142  -0.093   1.935  0.3494 -0.2995  1.0657
  647MOL0     H89222   5.181   0.022   1.813 -2.7550  0.4078 -0.4589
  647MOL0     H89223   5.240   0.175   2.026 -3.7896 -0.8619  2.1484
  647MOL0     H89224   5.260   0.027   2.108 -0.2601 -3.2616 -1.1065
  647MOL0     H89225   5.390   0.137   1.855  1.1156 -0.3698  0.5657
  647MOL0     H89226   5.470   0.097   2.006  0.3407 -1.5632  0.9816
  647MOL0     H89227   5.377  -0.096   1.787  1.4979  0.7119 -0.4442
  647MOL0     H89228   5.414  -0.153   1.952  1.4399  0.4652  0.5885
  647MOL0     H89229   5.606  -0.004   1.776 -0.1765 -0.1004 -0.7312
  647MOL0     H89230   5.641  -0.080   1.933 -0.5244  0.2733 -0.5854
  647MOL0     H89231   5.562  -0.217   1.678 -0.3186  0.4753  0.1032
  647MOL0     H89232   5.592  -0.292   1.844  2.0177 -0.5583 -1.5044
  647MOL0     H89233   5.802  -0.230   1.844 -2.1814  1.3171  0.9501
  647MOL0     H89234   5.791  -0.324   1.693  1.1862  1.5108 -0.8691
  647MOL0     H89235   5.713  -0.130   1.476  3.1003 -2.5446 -2.2065
  647MOL0     H89236   5.891   0.219   1.406 -0.9992  0.6872 -0.9512
  647MOL0     H89237   5.736   0.149   1.384 -0.1300  0.7083 -0.3900
  647MOL0     H89238   6.000   0.036   1.277 -0.3084  0.5533  2.3909
  647MOL0     H89239   5.855  -0.053   1.281  2.7590 -2.0102  2.2800
  647MOL0     H89240   5.902   0.056   1.056 -1.4556 -0.1523 -0.9453
  647MOL0     H89241   5.749   0.097   1.123  0.7633 -1.7897 -0.8937
  647MOL0     H89242   5.862   0.311   1.035  1.2650  0.2887 -0.0476
  647MOL0     H89243   5.839   0.309   1.203  0.0566 -3.8163  1.5754
  647MOL0     H89244   6.271   0.275   1.194  0.1805  1.9625  0.0764
  647MOL0     H89245   6.490   0.192   1.174 -0.5303 -2.8987 -0.9774
  647MOL0     H89246   6.538   0.321   1.066 -2.4922  0.5285 -1.2838
  647MOL0     H89247   6.539   0.144   1.017 -1.2273 -1.1649 -0.8227
  647MOL0     H89248   6.766   0.394   0.797  2.2940 -0.1615  0.3714
  647MOL0     H89249   6.955   0.404   0.632 -0.2542 -0.8048 -0.2480
  647MOL0     H89250   7.034   0.046   0.434  2.6849  0.1410  2.3912
  647MOL0     H89251   6.983   0.133   0.292 -1.8668  0.5452  2.1547
  647MOL0     H89252   7.194   0.229   0.254 -1.2013  0.6401  1.6779
  647MOL0     H89253   7.248   0.173   0.414 -1.1859 -0.8426  0.9166
  647MOL0     H89254   7.243  -0.002   0.156 -0.5619 -3.7650  0.0491
  647MOL0     H89255   7.228  -0.073   0.316  0.6215 -1.3401  0.0801
  647MOL0     H89256   7.431   0.054   0.385  2.7264  3.4378 -0.7092
  647MOL0     H89257   7.463   0.119   0.229 -0.0968 -0.0927 -0.2708
  647MOL0     H89258   7.444  -0.182   0.253 -2.2375  1.4096 -1.9041
  647MOL0     H89259   7.536  -0.105   0.130  3.5916 -2.9628  1.3904
  647MOL0     H89260   7.624  -0.111   0.431 -0.3756  0.1815 -0.1956
  647MOL0     H89261   7.684  -0.010   0.299  0.9459 -1.7217 -2.2555
  647MOL0     H89262   7.853  -0.181   0.304 -0.4491 -2.4377  2.1500
  647MOL0     H89263   7.739  -0.235   0.177  0.7738 -3.1796  0.0416
  647MOL0     H89264   7.609  -0.358   0.339  0.4080 -0.7832 -1.5655
  647MOL0     H89265   7.724  -0.305   0.462 -1.8331 -2.5472  0.7590
  647MOL0     H89266   6.802   0.071   0.433 -3.7069 -0.1583  0.5902
  647MOL0     H89267   6.605   0.065   0.579 -1.0311  0.0585 -1.5675
  647MOL0     H89268   6.174   0.202   0.720  1.4830 -2.0162 -0.0122
  647MOL0     H89269   5.993   0.253   0.886 -0.1486 -0.0685  0.7802
  647MOL0     H89270   4.763   0.134   1.910  1.5864 -0.6574 -1.1380
  647MOL0     H89271   4.561   0.304   1.918 -1.6305  2.8804  3.0310
  647MOL0     H89272   4.263   0.432   2.112  3.3802  0.6055  0.5947
  647MOL0     H89273   4.052   0.553   2.154  1.6704 -0.6076  1.3589
  647MOL0     H89274   4.031   0.989   2.054  0.9265 -1.0915 -0.5055
  647MOL0     H89275   3.981   0.916   1.898  1.5677 -1.7276  0.5873
  647MOL0     H89276   3.768   0.860   1.991 -2.2180  2.1577  0.1731
  647MOL0     H89277   3.778   1.028   1.972 -0.4051 -1.4288 -1.9240
  647MOL0     H89278   3.859   0.884   2.247 -0.8080  0.8332 -0.0219
  647MOL0     H89279   3.840   1.055   2.227  1.3658 -0.1063  0.3344
  647MOL0     H89280   3.637   0.845   2.178 -1.2445  0.1992 -1.2134
  647MOL0     H89281   3.608   1.021   2.162 -2.7383 -1.1416  0.8327
  647MOL0     H89282   3.553   0.983   2.583  0.2864 -0.0261 -0.2630
  647MOL0     H89283   4.223   0.915   1.986  1.8748  0.1167 -0.2409
  647MOL0     H89284   4.474   0.931   1.998 -0.2086 -1.5144  1.9411
  647MOL0     H89285   4.575   0.791   1.995 -0.4351 -0.0316  1.4916
  647MOL0     H89286   4.469   0.824   1.852  0.2409 -2.6743 -0.1953
  648MOL0     O89287   5.587   8.699   0.945 -0.2009 -0.7254 -0.3842
  648MOL0     C89288   5.624   8.606   1.017  0.6432 -0.5266 -0.0990
  648MOL0     O89289   5.553   8.490   1.032 -0.1994  0.0310  0.4360
  648MOL0     C89290   5.428   8.465   0.979  0.7997  0.3102 -0.3235
  648MOL0     C89291   5.329   8.409   1.060 -1.2624 -0.1380  0.5661
  648MOL0     C89292   5.199   8.381   1.010 -0.0996 -0.7195 -0.2262
  648MOL0     C89293   5.173   8.399   0.874 -0.3283 -0.7973  0.3792
  648MOL0     O89294   5.048   8.380   0.815  0.3586 -0.8595  0.2396
  648MOL0     C89295   4.984   8.253   0.832 -0.3102  0.3104 -0.2477
  648MOL0     C89296   4.872   8.235   0.737  0.0889  1.0068 -0.6345
  648MOL0     C89297   4.919   8.183   0.598  0.3786 -0.9248  0.4714
  648MOL0     C89298   5.003   8.293   0.528  0.3037 -0.1713  0.5778
  648MOL0     C89299   5.044   8.255   0.390  0.5266  0.3579  0.1410
  648MOL0     C89300   5.148   8.355   0.331 -0.0159  0.7364  0.5983
  648MOL0     C89301   5.160   8.319   0.185 -0.9624 -0.4331 -0.3350
  648MOL0     C89302   5.277   8.397   0.116 -0.0558 -0.1924 -0.5232
  648MOL0     N89303   5.241   8.435  -0.026 -0.4851 -0.3078 -0.4306
  648MOL0     C89304   5.223   8.345  -0.126 -0.0777  0.1598 -0.4812
  648MOL0     C89305   5.175   8.416  -0.231 -0.3761  0.8467  0.8007
  648MOL0     C89306   5.142   8.358  -0.363  0.2913 -0.2748  0.5003
  648MOL0     C89307   5.243   8.249  -0.416  0.4212 -0.5207  0.4159
  648MOL0     C89308   5.205   8.171  -0.551  0.0909 -0.6622  0.4637
  648MOL0     C89309   5.286   8.044  -0.573 -0.3663  0.4086  0.5293
  648MOL0     O89310   5.411   8.066  -0.658 -0.0265 -0.4254  0.8247
  648MOL0     C89311   5.515   7.991  -0.629 -0.2566  0.3531  0.0713
  648MOL0     C89312   5.502   7.853  -0.619 -0.5288  0.9630 -0.2840
  648MOL0     C89313   5.608   7.766  -0.590  0.2567 -0.3568 -0.1160
  648MOL0     C89314   5.571   7.613  -0.585 -0.6170 -0.3643 -0.0151
  648MOL0     C89315   5.732   7.815  -0.569  0.4209 -0.5737 -0.0838
  648MOL0     C89316   5.853   7.733  -0.525  0.6043 -0.1625  0.1900
  648MOL0     O89317   5.920   7.667  -0.623  0.2505 -0.2264 -0.3340
  648MOL0     C89318   6.019   7.587  -0.574  0.4141 -0.4121  0.2268
  648MOL0     C89319   6.146   7.638  -0.570 -0.1458 -0.6505  0.1802
  648MOL0     C89320   6.249   7.564  -0.507 -0.6449  0.5967 -0.1836
  648MOL0     C89321   6.218   7.441  -0.455  0.1607 -0.0354 -0.7478
  648MOL0     O89322   6.307   7.359  -0.397 -0.5764 -0.5423 -0.4272
  648MOL0     C89323   6.389   7.289  -0.490 -0.9268 -0.1062 -0.8377
  648MOL0     C89324   6.544   7.323  -0.467  0.3846 -0.3136  0.5570
  648MOL0     C89325   6.579   7.308  -0.319 -0.0503  0.3362 -0.2767
  648MOL0     C89326   6.604   7.157  -0.275  0.4865 -0.5632  0.2510
  648MOL0     C89327   6.743   7.100  -0.315 -0.3465 -0.0408 -0.1194
  648MOL0     C89328   6.861   7.122  -0.215  1.0592 -0.3624 -0.2569
  648MOL0     C89329   6.987   7.054  -0.264 -0.0876  0.2083  0.5433
  648MOL0     C89330   7.107   7.126  -0.216 -0.3110  0.7794  0.5936
  648MOL0    Cl89331   7.236   7.087  -0.338  0.0609 -0.4829  0.0537
  648MOL0     C89332   6.085   7.387  -0.457 -1.2830  0.4283  0.9037
  648MOL0     C89333   5.987   7.458  -0.510  0.0538 -0.3001  0.4525
  648MOL0     O89334   5.882   7.745  -0.405 -0.3471  0.4809 -0.3489
  648MOL0     C89335   5.753   7.953  -0.592  0.9337  0.5665  0.1366
  648MOL0     C89336   5.643   8.038  -0.618 -0.1391  0.2844  0.4841
  648MOL0     N89337   5.156   8.543  -0.187  0.3662 -0.0000 -0.5884
  648MOL0     N89338   5.188   8.549  -0.064  0.4928  0.0999 -0.2709
  648MOL0     C89339   5.273   8.457   0.794 -0.3693 -0.5720  0.4632
  648MOL0     C89340   5.400   8.486   0.846 -0.3437 -0.4883 -0.7779
  648MOL0     C89341   5.753   8.632   1.088 -0.8422 -0.1726  0.4740
  648MOL0     C89342   5.827   8.751   1.062  0.3031 -0.2794  0.0840
  648MOL0     C89343   5.950   8.787   1.129  0.6622  0.0947  0.0421
  648MOL0     C89344   5.991   8.710   1.235 -0.0875  0.3039 -1.3597
  648MOL0     O89345   6.112   8.738   1.294  0.0719 -0.3165  0.7220
  648MOL0     C89346   6.169   8.647   1.390 -0.0798  0.5653  1.2386
  648MOL0     C89347   6.314   8.688   1.404 -0.6051 -0.1081  0.3294
  648MOL0     C89348   6.333   8.839   1.450 -0.6528 -1.0161 -0.2835
  648MOL0     C89349   6.485   8.859   1.454 -0.3201 -0.0061  0.1342
  648MOL0     C89350   6.516   8.996   1.425 -0.5320 -0.4163 -0.3307
  648MOL0     C89351   6.543   9.110   1.403 -0.9077 -0.3416 -0.4759
  648MOL0     C89352   5.913   8.594   1.258 -0.1078 -1.2658 -0.0244
  648MOL0     C89353   5.806   8.544   1.188  0.2492  0.5261 -0.7122
  648MOL0     C89354   5.742   8.408   1.216 -0.8159  0.2852  0.3807
  648MOL0     H89355   5.349   8.369   1.159 -2.0160 -1.3046  0.2693
  648MOL0     H89356   5.123   8.336   1.073 -1.3987 -0.6051 -1.6554
  648MOL0     H89357   4.948   8.245   0.935 -1.7001  1.5168 -0.6009
  648MOL0     H89358   5.049   8.167   0.816  0.2478  0.9472 -1.5723
  648MOL0     H89359   4.813   8.152   0.776  2.4500 -0.7987 -0.6317
  648MOL0     H89360   4.816   8.327   0.719 -1.2901  0.6015  1.2170
  648MOL0     H89361   4.981   8.093   0.601  0.0703 -1.1976 -0.8103
  648MOL0     H89362   4.831   8.169   0.535  0.7142 -0.6421 -0.0623
  648MOL0     H89363   4.957   8.392   0.526  1.3747  0.3486 -2.3999
  648MOL0     H89364   5.096   8.313   0.582 -0.4010  2.3352  1.0024
  648MOL0     H89365   4.951   8.258   0.332 -1.6889 -2.1055  3.2169
  648MOL0     H89366   5.086   8.154   0.388 -1.0676 -0.3520  0.7048
  648MOL0     H89367   5.085   8.445   0.332 -1.1179  0.0170 -0.7657
  648MOL0     H89368   5.244   8.362   0.382 -0.4213 -1.8914  1.8712
  648MOL0     H89369   5.066   8.337   0.133 -0.2033 -0.1851 -1.6640
  648MOL0     H89370   5.182   8.212   0.173  2.5355  0.3355 -2.3329
  648MOL0     H89371   5.303   8.491   0.166  2.6546 -1.3331  0.4263
  648MOL0     H89372   5.374   8.347   0.117 -0.1300 -0.3468  0.8937
  648MOL0     H89373   5.232   8.237  -0.118 -0.5325  0.0562 -1.3161
  648MOL0     H89374   5.144   8.446  -0.428  0.2573 -1.1068 -0.6607
  648MOL0     H89375   5.043   8.313  -0.372  0.2325 -0.6616  2.6151
  648MOL0     H89376   5.339   8.299  -0.429 -0.1359  0.3026 -0.7674
  648MOL0     H89377   5.249   8.172  -0.339 -0.4256  0.2598  1.3037
  648MOL0     H89378   5.100   8.143  -0.548 -0.6593  1.6663 -1.5505
  648MOL0     H89379   5.234   8.237  -0.633  1.0876 -1.0927  0.4505
  648MOL0     H89380   5.311   7.997  -0.477  0.0207 -0.5527 -0.0220
  648MOL0     H89381   5.216   7.981  -0.629  0.9524  1.1031 -2.0807
  648MOL0     H89382   5.402   7.811  -0.627 -0.1441 -1.7696  4.6796
  648MOL0     H89383   5.634   7.569  -0.663  1.5702  2.1885  0.1500
  648MOL0     H89384   5.464   7.590  -0.591 -0.8266  0.6027 -0.0170
  648MOL0     H89385   5.602   7.574  -0.487 -0.4138  1.2895  0.6067
  648MOL0     H89386   6.151   7.736  -0.615 -0.6395 -0.6272  0.1682
  648MOL0     H89387   6.345   7.611  -0.488 -0.5302  0.3160 -0.0714
  648MOL0     H89388   6.370   7.182  -0.476  3.4806 -1.1999 -1.4486
  648MOL0     H89389   6.367   7.316  -0.594 -0.7311  0.4467 -0.7359
  648MOL0     H89390   6.609   7.252  -0.519  0.6427 -0.1364  0.6342
  648MOL0     H89391   6.570   7.426  -0.492 -1.8635  0.1151 -0.3008
  648MOL0     H89392   6.509   7.361  -0.253  1.1369  0.5441  0.8566
  648MOL0     H89393   6.675   7.359  -0.303 -1.2630  2.1552  1.9948
  648MOL0     H89394   6.524   7.099  -0.322 -0.3904  0.6540  0.2023
  648MOL0     H89395   6.587   7.148  -0.167  2.3104 -0.5321  0.5599
  648MOL0     H89396   6.723   6.994  -0.337 -0.1861 -0.0439 -0.2498
  648MOL0     H89397   6.782   7.144  -0.406  0.2134  0.1611  0.2140
  648MOL0     H89398   6.834   7.092  -0.113  2.4935 -1.2464 -0.1032
  648MOL0     H89399   6.874   7.230  -0.217  1.3332 -0.3920 -0.1657
  648MOL0     H89400   6.974   7.074  -0.371 -2.7183  0.0053  0.7420
  648MOL0     H89401   6.982   6.947  -0.241 -2.8509  0.3557  0.9862
  648MOL0     H89402   7.124   7.089  -0.115  1.7621  2.8817  1.1033
  648MOL0     H89403   7.102   7.235  -0.202  2.2378  0.8513  1.4712
  648MOL0     H89404   6.067   7.296  -0.400  3.6244 -0.8816  0.8919
  648MOL0     H89405   5.883   7.426  -0.516 -0.0764  0.0986  0.5381
  648MOL0     H89406   5.854   7.994  -0.587 -0.1636  3.5356 -0.2591
  648MOL0     H89407   5.650   8.146  -0.629 -1.6552  0.7784  3.5814
  648MOL0     H89408   5.256   8.480   0.690 -0.6715  0.2407  0.6777
  648MOL0     H89409   5.490   8.507   0.788  0.6570  0.8646  1.1348
  648MOL0     H89410   5.783   8.822   0.993 -0.0399 -0.4544  0.1198
  648MOL0     H89411   6.007   8.873   1.095  1.3048 -1.4098 -3.1311
  648MOL0     H89412   6.111   8.644   1.482 -2.3553 -1.6982 -0.1224
  648MOL0     H89413   6.173   8.544   1.351 -0.7259  1.0087 -0.0872
  648MOL0     H89414   6.371   8.684   1.311 -0.3511  0.9236  0.4233
  648MOL0     H89415   6.370   8.620   1.470  0.9303  1.1434  0.3929
  648MOL0     H89416   6.304   8.907   1.369 -2.1246 -0.1455  0.9162
  648MOL0     H89417   6.293   8.856   1.550  2.1776 -1.9220  1.1014
  648MOL0     H89418   6.532   8.798   1.377 -1.4844 -2.5016  1.3098
  648MOL0     H89419   6.529   8.826   1.549 -2.1233 -1.4073  0.5329
  648MOL0     H89420   6.576   9.209   1.380 -1.7703  0.5078  1.6424
  648MOL0     H89421   5.941   8.521   1.334 -0.7722 -2.3677 -0.8081
  648MOL0     H89422   5.638   8.431   1.241 -0.9392  2.8617 -2.0275
  648MOL0     H89423   5.758   8.344   1.130  0.9900 -0.0744  0.9417
  648MOL0     H89424   5.789   8.368   1.307 -1.7082  0.5708  0.9825
  649MOL0     O89425   6.362   7.469   7.327 -0.0424  0.0824 -0.7033
  649MOL0     C89426   6.447   7.409   7.264  0.4540 -0.3285 -1.7331
  649MOL0     O89427   6.471   7.430   7.138  0.0790  0.2884  0.0274
  649MOL0     C89428   6.379   7.477   7.054  0.1612  0.5075  0.6130
  649MOL0     C89429   6.377   7.615   7.041  0.9031  0.2860 -0.0415
  649MOL0     C89430   6.283   7.672   6.945 -0.2117 -0.2153  0.5286
  649MOL0     C89431   6.196   7.591   6.866 -0.2784  0.8224  0.0541
  649MOL0     O89432   6.098   7.637   6.776 -0.0521 -0.5406  0.1481
  649MOL0     C89433   6.057   7.773   6.785  1.0394 -0.2687 -0.4297
  649MOL0     C89434   5.911   7.791   6.740 -0.2652  1.1745 -0.2299
  649MOL0     C89435   5.815   7.765   6.854 -0.7843 -0.2453 -0.1507
  649MOL0     C89436   5.817   7.892   6.947 -0.0642  0.2289  0.5093
  649MOL0     C89437   5.710   7.873   7.059  0.3170  0.0249 -0.4421
  649MOL0     C89438   5.740   7.968   7.176 -0.1149 -0.2037 -0.2259
  649MOL0     C89439   5.600   7.974   7.256 -0.2785 -0.5067 -0.0329
  649MOL0     C89440   5.609   8.031   7.402 -0.5403  0.5250  0.0453
  649MOL0     N89441   5.610   8.178   7.393 -1.1713  0.3883 -0.0422
  649MOL0     C89442   5.713   8.259   7.363  0.0842 -0.5254  0.2644
  649MOL0     C89443   5.659   8.381   7.334  0.4119 -0.5784  0.1097
  649MOL0     C89444   5.713   8.525   7.302 -0.1948 -0.4446 -0.3747
  649MOL0     C89445   5.760   8.605   7.424 -0.6300 -0.3930 -0.6666
  649MOL0     C89446   5.902   8.542   7.471  0.0810  0.0599  0.4010
  649MOL0     C89447   5.975   8.636   7.563  0.5291 -0.1428 -0.7547
  649MOL0     O89448   6.077   8.568   7.635  0.2060 -0.1127 -0.2028
  649MOL0     C89449   6.202   8.552   7.585  0.3264  0.0172 -0.7813
  649MOL0     C89450   6.266   8.611   7.475  0.7811  0.3510  0.1964
  649MOL0     C89451   6.394   8.587   7.437 -0.1009  0.0504 -0.7321
  649MOL0     C89452   6.445   8.642   7.308  0.6368  0.9490  0.0991
  649MOL0     C89453   6.470   8.498   7.523 -0.6710  0.0619 -0.1253
  649MOL0     C89454   6.604   8.442   7.495  0.1890 -0.1841  0.6539
  649MOL0     O89455   6.660   8.358   7.589  0.0359  0.0287 -0.7802
  649MOL0     C89456   6.788   8.322   7.562  0.4350  0.7248 -0.0338
  649MOL0     C89457   6.809   8.199   7.506  0.0168  0.2342  0.2526
  649MOL0     C89458   6.937   8.152   7.498 -0.4200  0.2954  0.0249
  649MOL0     C89459   7.046   8.214   7.559  0.3355 -0.0568  0.7613
  649MOL0     O89460   7.160   8.163   7.514 -0.4408 -0.1412  0.0401
  649MOL0     C89461   7.275   8.227   7.576  0.4012  1.2139 -0.6465
  649MOL0     C89462   7.405   8.164   7.530  0.0091 -0.8490  0.3861
  649MOL0     C89463   7.466   8.232   7.403 -0.1939  0.9010  0.3575
  649MOL0     C89464   7.516   8.376   7.421  1.0027  0.6344 -0.1049
  649MOL0     C89465   7.544   8.450   7.287  0.4390 -0.0730 -0.3335
  649MOL0     C89466   7.599   8.592   7.309 -0.6328  0.2111 -0.0476
  649MOL0     C89467   7.696   8.597   7.425 -0.1664 -0.0416 -1.1132
  649MOL0     C89468   7.749   8.746   7.444  0.4691  0.7926 -0.1016
  649MOL0    Cl89469   7.648   8.843   7.549  0.4728  0.6233 -0.5079
  649MOL0     C89470   7.022   8.328   7.640  0.3298  0.6381  0.2750
  649MOL0     C89471   6.890   8.377   7.642 -0.1227  0.5919  0.2370
  649MOL0     O89472   6.645   8.464   7.380 -0.2432  0.0737 -0.2549
  649MOL0     C89473   6.408   8.444   7.639  1.3404 -0.2473  0.2708
  649MOL0     C89474   6.276   8.463   7.670 -0.2321 -0.0482  0.3297
  649MOL0     N89475   5.524   8.371   7.368  0.4321 -1.0750 -0.3491
  649MOL0     N89476   5.495   8.248   7.394  0.2421  0.1443 -0.0391
  649MOL0     C89477   6.197   7.447   6.890 -0.2401 -0.2669 -0.2644
  649MOL0     C89478   6.292   7.396   6.982  0.8556  0.0759  0.8593
  649MOL0     C89479   6.527   7.310   7.350 -0.5609  0.4058 -0.1486
  649MOL0     C89480   6.597   7.209   7.281  0.1762  0.8750 -0.6805
  649MOL0     C89481   6.636   7.096   7.347 -0.7209  0.5398  0.1853
  649MOL0     C89482   6.642   7.094   7.491 -0.0863  0.0886 -0.6443
  649MOL0     O89483   6.678   6.992   7.568  0.0785 -0.3739  0.1508
  649MOL0     C89484   6.754   6.885   7.521 -0.2504  0.8481 -0.2041
  649MOL0     C89485   6.837   6.818   7.637 -0.2398  0.1179 -0.6826
  649MOL0     C89486   6.913   6.905   7.728 -0.2758 -0.1813 -0.5771
  649MOL0     C89487   7.027   6.992   7.658 -0.3158  0.7186 -0.7894
  649MOL0     C89488   7.136   6.917   7.597  0.2518  0.4560  0.4798
  649MOL0     C89489   7.225   6.839   7.557  0.2835  0.2353 -0.1538
  649MOL0     C89490   6.595   7.203   7.556 -0.3788 -0.1325 -0.6789
  649MOL0     C89491   6.540   7.315   7.494  0.1420  0.7500 -0.4380
  649MOL0     C89492   6.478   7.418   7.578  0.2060  0.1921 -0.2645
  649MOL0     H89493   6.436   7.676   7.108  2.4125 -0.3781 -0.7264
  649MOL0     H89494   6.283   7.780   6.932 -0.4371 -0.2844 -0.0764
  649MOL0     H89495   6.125   7.841   6.734  3.1427 -0.5727  1.7580
  649MOL0     H89496   6.064   7.809   6.888 -1.4931 -0.4510 -0.1306
  649MOL0     H89497   5.905   7.894   6.704  1.9454  0.8890 -1.6245
  649MOL0     H89498   5.886   7.718   6.662 -2.1552  1.9335 -0.3846
  649MOL0     H89499   5.713   7.765   6.815 -0.2050 -1.5967 -1.7891
  649MOL0     H89500   5.842   7.671   6.904  1.2272  1.0796  1.4159
  649MOL0     H89501   5.916   7.894   6.993 -0.0185  2.1035  0.4118
  649MOL0     H89502   5.792   7.981   6.889 -0.7202  0.0148  0.4559
  649MOL0     H89503   5.691   7.768   7.082 -2.2645 -0.5268 -4.1346
  649MOL0     H89504   5.612   7.901   7.018 -0.8872 -2.9474  0.1518
  649MOL0     H89505   5.824   7.939   7.239  0.5360 -2.1194 -1.8993
  649MOL0     H89506   5.753   8.072   7.143 -3.1129 -0.1639 -1.5976
  649MOL0     H89507   5.560   7.873   7.268 -0.0962 -0.3305  2.6935
  649MOL0     H89508   5.543   8.036   7.187  2.2939  1.0624 -0.8660
  649MOL0     H89509   5.521   7.986   7.449 -1.6957 -0.1327 -2.5648
  649MOL0     H89510   5.695   7.995   7.458 -0.7265 -2.4279 -1.3932
  649MOL0     H89511   5.818   8.232   7.361  0.0271 -0.7477  0.2818
  649MOL0     H89512   5.635   8.574   7.243 -0.3420  0.8298  0.8235
  649MOL0     H89513   5.801   8.507   7.240 -0.1433  1.4861 -0.9292
  649MOL0     H89514   5.774   8.710   7.397  0.1197 -0.2377  0.2611
  649MOL0     H89515   5.687   8.592   7.504 -1.4552 -0.0474 -1.3504
  649MOL0     H89516   5.884   8.451   7.528  0.7115  1.4459  2.9715
  649MOL0     H89517   5.969   8.513   7.390  0.0450 -1.7563  0.9814
  649MOL0     H89518   6.008   8.725   7.507  2.2962  0.0148  0.4762
  649MOL0     H89519   5.901   8.671   7.636  0.2528 -0.2764 -0.9672
  649MOL0     H89520   6.211   8.672   7.404 -0.8484 -2.4007 -1.0895
  649MOL0     H89521   6.546   8.682   7.325  0.6274  0.4464  1.4973
  649MOL0     H89522   6.389   8.723   7.262 -0.0868  0.6775  0.4749
  649MOL0     H89523   6.445   8.563   7.232  0.0589  0.6430  0.4104
  649MOL0     H89524   6.732   8.139   7.459  1.0860  0.6215 -2.1193
  649MOL0     H89525   6.967   8.063   7.443 -0.4866  0.5977 -0.5086
  649MOL0     H89526   7.278   8.333   7.550 -1.5260  1.6415  0.6601
  649MOL0     H89527   7.274   8.223   7.685 -2.7771  2.2030 -0.5347
  649MOL0     H89528   7.476   8.169   7.612 -0.6055  1.2552  0.8433
  649MOL0     H89529   7.391   8.057   7.512 -0.8258 -0.7226  0.2021
  649MOL0     H89530   7.394   8.214   7.323 -0.3292 -1.6940  0.9783
  649MOL0     H89531   7.547   8.170   7.365 -2.2643 -0.4682 -2.1256
  649MOL0     H89532   7.604   8.362   7.485  0.5317 -3.5859 -0.0828
  649MOL0     H89533   7.440   8.424   7.483 -0.1131 -0.7285 -0.3653
  649MOL0     H89534   7.620   8.388   7.238  0.3910 -0.7464  0.4283
  649MOL0     H89535   7.452   8.462   7.230  0.2133  0.4174  0.1275
  649MOL0     H89536   7.520   8.662   7.336 -0.6715  0.1082  0.1007
  649MOL0     H89537   7.642   8.634   7.217 -0.0591 -0.4176 -0.0793
  649MOL0     H89538   7.782   8.536   7.397  0.8572  2.0559 -2.7846
  649MOL0     H89539   7.656   8.577   7.525  0.9450  4.6996  0.5451
  649MOL0     H89540   7.753   8.810   7.355  1.6616  2.4462  1.0814
  649MOL0     H89541   7.849   8.743   7.487  0.7348 -1.3297 -0.7387
  649MOL0     H89542   7.102   8.388   7.681  2.0101  0.7892 -2.9138
  649MOL0     H89543   6.882   8.465   7.704  0.3589  0.9004 -0.1294
  649MOL0     H89544   6.441   8.353   7.689  1.9193 -0.2103 -0.0338
  649MOL0     H89545   6.233   8.422   7.761 -3.8773  2.0744 -0.2185
  649MOL0     H89546   6.119   7.385   6.847 -1.9747  0.6476  1.3881
  649MOL0     H89547   6.294   7.288   6.995  5.5733 -0.8687 -3.8817
  649MOL0     H89548   6.587   7.202   7.173  0.0835 -1.0539 -0.5875
  649MOL0     H89549   6.679   7.013   7.292  2.2230  0.1770  2.7072
  649MOL0     H89550   6.707   6.803   7.466  2.1856 -0.4512 -0.5072
  649MOL0     H89551   6.831   6.926   7.455  1.0631  1.0848  1.3801
  649MOL0     H89552   6.901   6.746   7.585  0.7425  0.7662 -0.3829
  649MOL0     H89553   6.773   6.757   7.702 -1.0414 -2.1458 -3.3903
  649MOL0     H89554   6.847   6.971   7.784  0.0732 -1.3186  1.2576
  649MOL0     H89555   6.959   6.857   7.815 -1.7353 -0.7505 -0.0869
  649MOL0     H89556   7.074   7.053   7.736  1.8542 -1.2046 -0.4753
  649MOL0     H89557   6.984   7.055   7.579 -0.8395  0.7922 -0.4466
  649MOL0     H89558   7.307   6.776   7.527  0.4361 -0.4454  1.5900
  649MOL0     H89559   6.609   7.205   7.664  1.4024 -1.6175 -0.8327
  649MOL0     H89560   6.491   7.516   7.529  0.8688  0.2529  0.0151
  649MOL0     H89561   6.370   7.405   7.586  0.3449 -1.2862 -0.6353
  649MOL0     H89562   6.526   7.425   7.676  0.6510  1.5205 -0.5530
  650MOL0     O89563   8.465   5.358   4.399 -0.0659  0.6140  0.2151
  650MOL0     C89564   8.382   5.441   4.344 -0.2408 -0.5050 -0.2556
  650MOL0     O89565   8.415   5.556   4.278 -0.6864  0.1347 -0.4320
  650MOL0     C89566   8.529   5.634   4.302  0.7472 -0.4147  1.0790
  650MOL0     C89567   8.525   5.754   4.244  0.1492  0.0265 -0.1116
  650MOL0     C89568   8.634   5.836   4.249 -0.8868 -0.0459  0.0844
  650MOL0     C89569   8.761   5.792   4.309 -0.3058  0.5783 -0.3310
  650MOL0     O89570   8.875   5.860   4.286  0.2364  0.5956 -0.2128
  650MOL0     C89571   8.997   5.785   4.242 -0.3845 -0.0882 -0.8138
  650MOL0     C89572   9.066   5.852   4.123 -0.5706 -0.0972 -0.5261
  650MOL0     C89573   9.189   5.771   4.075 -0.5591  1.0369  0.8761
  650MOL0     C89574   9.279   5.859   3.983 -0.8186 -0.6698  0.0211
  650MOL0     C89575   9.332   5.786   3.859  0.3801 -0.0761 -1.3129
  650MOL0     C89576   9.389   5.871   3.748  0.4656 -0.7715  0.5725
  650MOL0     C89577   9.490   5.964   3.815 -0.8028  0.2649  0.4280
  650MOL0     C89578   9.576   6.034   3.714 -0.5710  0.3398  0.2477
  650MOL0     N89579   9.672   6.109   3.784 -0.1948 -0.0446  0.0918
  650MOL0     C89580   9.785   6.054   3.849 -0.1357  0.1444 -0.1556
  650MOL0     C89581   9.850   6.150   3.910  0.7345 -0.4461  0.0942
  650MOL0     C89582   9.974   6.136   3.987 -0.2441 -0.2130 -0.2167
  650MOL0     C89583  10.029   6.267   4.036 -0.1149 -0.2527 -0.0156
  650MOL0     C89584  10.166   6.244   4.087 -0.0529 -0.0557  0.1099
  650MOL0     C89585  10.188   6.225   4.241 -0.1964  1.2729  0.1139
  650MOL0     O89586  10.289   6.305   4.306 -1.0629 -0.3330 -0.0927
  650MOL0     C89587  10.424   6.269   4.289 -0.2159 -0.6123 -0.4507
  650MOL0     C89588  10.475   6.155   4.229 -0.4160  0.5900  0.4598
  650MOL0     C89589  10.606   6.124   4.211 -0.3666 -0.4587 -0.6519
  650MOL0     C89590  10.638   5.991   4.145 -0.0456  0.1940  0.0900
  650MOL0     C89591  10.701   6.220   4.253 -0.1805  0.4436 -0.5943
  650MOL0     C89592  10.853   6.213   4.232  0.7737 -0.7688  0.2908
  650MOL0     O89593  10.921   6.324   4.192 -0.0253 -0.1530  1.1776
  650MOL0     C89594  11.059   6.323   4.187  0.5570  0.9804 -0.4330
  650MOL0     C89595  11.149   6.267   4.287  1.0771  0.3586 -0.3660
  650MOL0     C89596  11.287   6.264   4.262 -0.0409 -0.6895  0.1561
  650MOL0     C89597  11.341   6.332   4.156 -0.7044 -0.1616 -0.8575
  650MOL0     O89598  11.478   6.333   4.134  0.2388  0.5005  0.3370
  650MOL0     C89599  11.537   6.417   4.026 -0.1108  0.0963  0.1439
  650MOL0     C89600  11.690   6.409   4.034 -0.1205 -0.0865  0.5638
  650MOL0     C89601  11.755   6.523   3.963  0.5850 -0.7659 -0.2625
  650MOL0     C89602  11.910   6.524   3.943 -0.2884 -0.2938  0.0447
  650MOL0     C89603  11.942   6.658   3.876  0.9976 -0.6491  0.2028
  650MOL0     C89604  12.098   6.678   3.859 -0.0483  0.9137  0.4796
  650MOL0     C89605  12.190   6.615   3.963  0.2244 -0.1551 -0.7015
  650MOL0     C89606  12.335   6.675   3.964 -0.1913  0.2681  0.3732
  650MOL0    Cl89607  12.329   6.854   4.004  0.2688 -0.2760 -0.1434
  650MOL0     C89608  11.256   6.397   4.064 -1.0984  0.5692 -0.4255
  650MOL0     C89609  11.120   6.393   4.076  0.1188 -0.0376 -0.6052
  650MOL0     O89610  10.901   6.106   4.259  0.7446 -0.3402  0.4247
  650MOL0     C89611  10.656   6.342   4.307  0.1640  0.8974  0.0758
  650MOL0     C89612  10.522   6.372   4.334  0.1554  0.4293 -0.3281
  650MOL0     N89613   9.771   6.263   3.899 -0.1637 -0.0675 -0.5230
  650MOL0     N89614   9.668   6.240   3.816 -0.5343 -0.2004 -0.2991
  650MOL0     C89615   8.763   5.663   4.368  0.6727  0.8448 -0.0753
  650MOL0     C89616   8.644   5.586   4.368 -0.0896  0.5722  0.2826
  650MOL0     C89617   8.243   5.399   4.347  1.0530 -1.0036 -0.3489
  650MOL0     C89618   8.142   5.500   4.321  0.1793 -1.1183 -0.1163
  650MOL0     C89619   8.003   5.482   4.333  0.6283  0.0633  0.8913
  650MOL0     C89620   7.955   5.364   4.376  0.0705 -0.4284  0.4048
  650MOL0     O89621   7.826   5.333   4.384 -0.1385  0.4842 -0.9459
  650MOL0     C89622   7.725   5.427   4.352 -0.1170  0.6487  0.4194
  650MOL0     C89623   7.692   5.524   4.459 -1.0659  0.3484  0.1450
  650MOL0     C89624   7.636   5.661   4.412 -0.1884 -0.3041 -0.3278
  650MOL0     C89625   7.490   5.653   4.351 -0.3988 -0.0827 -0.2111
  650MOL0     C89626   7.453   5.790   4.323 -0.6928  0.3844 -0.2385
  650MOL0     C89627   7.424   5.899   4.278 -0.1444 -0.2463 -0.4546
  650MOL0     C89628   8.050   5.263   4.401  0.1690 -1.0605  0.5279
  650MOL0     C89629   8.190   5.275   4.388  0.2230 -0.5743 -0.1017
  650MOL0     C89630   8.257   5.163   4.447  0.4813  0.0697 -0.5937
  650MOL0     H89631   8.450   5.783   4.171  2.8237 -2.4746 -4.2762
  650MOL0     H89632   8.641   5.935   4.205  1.1070  0.9403  2.3320
  650MOL0     H89633   8.974   5.679   4.227  3.6515 -1.8860  3.4736
  650MOL0     H89634   9.068   5.789   4.324 -0.4451  2.8661 -0.7991
  650MOL0     H89635   8.993   5.872   4.044  0.3200  0.8851 -1.1231
  650MOL0     H89636   9.104   5.950   4.156  0.7079 -0.2702 -1.4108
  650MOL0     H89637   9.251   5.742   4.160 -0.6216 -0.2670  0.4893
  650MOL0     H89638   9.154   5.683   4.022  2.0522  0.9575 -0.8989
  650MOL0     H89639   9.204   5.933   3.955 -0.0679  0.0958  0.0074
  650MOL0     H89640   9.357   5.916   4.034 -3.0117  2.5235  0.0851
  650MOL0     H89641   9.260   5.719   3.811 -2.6667  2.7561 -1.0653
  650MOL0     H89642   9.414   5.724   3.898 -1.0028 -1.0339  0.2099
  650MOL0     H89643   9.443   5.812   3.673  0.9439  0.8130 -0.3728
  650MOL0     H89644   9.308   5.933   3.708 -1.0724 -0.6962  3.4969
  650MOL0     H89645   9.554   5.901   3.877  0.2733 -0.9975 -1.8609
  650MOL0     H89646   9.445   6.037   3.883 -1.9889  0.3686 -0.4383
  650MOL0     H89647   9.629   5.965   3.647 -0.6580  1.2564 -0.7887
  650MOL0     H89648   9.508   6.094   3.653  0.5287  0.8440 -0.5252
  650MOL0     H89649   9.806   5.948   3.853 -2.2323 -0.2833  0.6608
  650MOL0     H89650  10.043   6.070   3.933 -0.0220  0.1544 -0.3904
  650MOL0     H89651   9.954   6.083   4.080 -2.3579  2.3029  0.8928
  650MOL0     H89652  10.032   6.340   3.955  0.6374 -1.9520 -1.5772
  650MOL0     H89653   9.972   6.313   4.117  3.5880  0.6480  2.3116
  650MOL0     H89654  10.221   6.167   4.033  0.5824 -1.5913  2.7292
  650MOL0     H89655  10.212   6.339   4.060 -2.2792  1.4182  1.1794
  650MOL0     H89656  10.093   6.263   4.279 -0.9553  1.6221 -2.0108
  650MOL0     H89657  10.201   6.119   4.266 -0.4207  1.3902  0.7372
  650MOL0     H89658  10.408   6.086   4.179  1.0674  1.4627 -3.0091
  650MOL0     H89659  10.737   6.002   4.101  0.1215 -1.8077 -0.1224
  650MOL0     H89660  10.565   5.984   4.064  1.4792  5.8766 -2.2518
  650MOL0     H89661  10.637   5.914   4.223  1.5609  0.8685  0.8234
  650MOL0     H89662  11.097   6.219   4.370 -2.5689  1.1172 -1.9904
  650MOL0     H89663  11.365   6.230   4.330  2.6311  0.0437 -2.3177
  650MOL0     H89664  11.511   6.379   3.926  0.6174  0.9550 -0.3746
  650MOL0     H89665  11.511   6.522   4.036 -2.0346  0.4810 -5.2761
  650MOL0     H89666  11.728   6.397   4.136 -0.5299  1.7135  0.9516
  650MOL0     H89667  11.715   6.316   3.982 -0.6708  0.8799 -1.5363
  650MOL0     H89668  11.733   6.613   4.022  2.7510 -1.0510  1.1347
  650MOL0     H89669  11.704   6.540   3.868 -1.0879 -0.5135  0.6456
  650MOL0     H89670  11.931   6.438   3.878 -0.5639  0.8248 -1.5788
  650MOL0     H89671  11.963   6.516   4.039 -4.2498 -0.2147  2.5064
  650MOL0     H89672  11.887   6.676   3.783  0.2851 -1.8272  0.3776
  650MOL0     H89673  11.907   6.732   3.949 -0.1931 -1.7030  0.7377
  650MOL0     H89674  12.124   6.783   3.840 -3.3121  1.4069 -2.0985
  650MOL0     H89675  12.130   6.639   3.762 -0.6547  2.7799 -0.5322
  650MOL0     H89676  12.199   6.507   3.956 -2.1719 -0.5512  1.1652
  650MOL0     H89677  12.144   6.641   4.059 -0.6733  2.8930 -1.8340
  650MOL0     H89678  12.383   6.659   3.867  2.1953 -2.6282  1.8423
  650MOL0     H89679  12.399   6.632   4.042  0.6752  1.4314  0.3341
  650MOL0     H89680  11.300   6.436   3.972  0.3367 -1.4413 -0.6442
  650MOL0     H89681  11.052   6.437   4.004 -1.2572 -0.7956  0.2105
  650MOL0     H89682  10.731   6.416   4.328  1.5094 -0.1991 -0.6853
  650MOL0     H89683  10.493   6.471   4.368 -1.6133 -0.0189 -0.3988
  650MOL0     H89684   8.850   5.617   4.413 -0.2010  1.2061  2.1305
  650MOL0     H89685   8.658   5.495   4.424 -4.8565 -0.3124  0.5103
  650MOL0     H89686   8.165   5.603   4.296  0.1795 -1.3078 -0.9315
  650MOL0     H89687   7.947   5.573   4.310  0.3231 -0.8801 -2.7122
  650MOL0     H89688   7.736   5.482   4.258  3.0385  0.1519  0.4232
  650MOL0     H89689   7.642   5.356   4.342 -0.2432  1.0180 -1.5271
  650MOL0     H89690   7.780   5.542   4.521 -1.3850 -1.4177  1.1706
  650MOL0     H89691   7.618   5.485   4.529 -0.7193  2.4550  1.7539
  650MOL0     H89692   7.635   5.726   4.500 -2.6734 -0.7544  0.0652
  650MOL0     H89693   7.707   5.697   4.338 -0.3711  2.7738  0.8613
  650MOL0     H89694   7.417   5.612   4.422 -0.1711 -0.1764 -0.0301
  650MOL0     H89695   7.499   5.597   4.258  0.0134  2.1664 -1.6037
  650MOL0     H89696   7.404   5.996   4.236  2.7389 -0.6215 -3.0080
  650MOL0     H89697   8.004   5.169   4.432 -3.4457  1.3266  3.3475
  650MOL0     H89698   8.202   5.068   4.449  2.8025 -1.3592  1.7937
  650MOL0     H89699   8.356   5.150   4.402  2.2717  1.9876  2.4368
  650MOL0     H89700   8.286   5.186   4.550  1.1632 -1.4434 -0.4190
  651MOL0     O89701   5.669   4.163   5.114  0.0392 -0.5862 -0.3758
  651MOL0     C89702   5.697   4.237   5.027 -0.3796 -0.3697  0.1635
  651MOL0     O89703   5.826   4.262   4.991 -0.2751 -0.5600 -0.3402
  651MOL0     C89704   5.939   4.196   5.043 -0.6849  0.0160 -0.3525
  651MOL0     C89705   6.058   4.271   5.061 -0.0027  0.4042  0.3695
  651MOL0     C89706   6.175   4.200   5.092  0.0729 -0.3951 -0.3043
  651MOL0     C89707   6.173   4.064   5.129  0.5614  0.5344  1.5411
  651MOL0     O89708   6.279   3.991   5.179  0.2065  0.1475 -0.8412
  651MOL0     C89709   6.387   4.053   5.245  0.0784  0.0787  0.8671
  651MOL0     C89710   6.484   3.950   5.284 -0.5254 -0.0857 -0.1547
  651MOL0     C89711   6.591   3.989   5.382 -0.1143  1.4822  0.1059
  651MOL0     C89712   6.671   3.852   5.421 -0.0499  0.2555  0.3591
  651MOL0     C89713   6.788   3.880   5.519  0.7442  0.9437 -0.2032
  651MOL0     C89714   6.842   3.741   5.562  0.8116 -0.2644  0.9014
  651MOL0     C89715   6.986   3.746   5.605 -0.5382  0.7122  0.4184
  651MOL0     C89716   7.005   3.799   5.755  0.4235 -0.6253 -0.3788
  651MOL0     N89717   7.006   3.687   5.846  0.1208  0.4985  0.7397
  651MOL0     C89718   7.122   3.632   5.896 -0.0753 -0.8162 -0.9375
  651MOL0     C89719   7.071   3.546   5.989 -0.2774 -0.0917 -0.2925
  651MOL0     C89720   7.148   3.443   6.067  0.0297 -0.2254 -0.8156
  651MOL0     C89721   7.247   3.363   5.984  0.0452 -0.1473 -0.7267
  651MOL0     C89722   7.305   3.258   6.081 -0.0554 -0.2658  0.4017
  651MOL0     C89723   7.226   3.127   6.075 -0.2057  0.1821 -0.1873
  651MOL0     O89724   7.114   3.142   6.166 -0.3613 -0.6617 -0.5772
  651MOL0     C89725   7.015   3.046   6.156  0.6560  0.0130  0.4666
  651MOL0     C89726   7.006   2.929   6.080 -0.4362 -0.3532 -0.0924
  651MOL0     C89727   6.887   2.857   6.073 -0.1833 -0.0267  0.2639
  651MOL0     C89728   6.882   2.728   5.991 -0.0085  0.2561 -0.1055
  651MOL0     C89729   6.772   2.901   6.141 -0.3608 -0.2349  0.0967
  651MOL0     C89730   6.648   2.828   6.151 -1.3761  0.0144  0.6521
  651MOL0     O89731   6.540   2.900   6.125 -0.2024 -1.1046  0.3420
  651MOL0     C89732   6.422   2.834   6.105 -0.2267 -0.6353  0.3751
  651MOL0     C89733   6.328   2.841   6.209 -0.9929 -0.1131 -0.6564
  651MOL0     C89734   6.208   2.775   6.196 -0.4938 -0.4182  0.3676
  651MOL0     C89735   6.169   2.706   6.083  0.6982  0.6950  0.5184
  651MOL0     O89736   6.040   2.654   6.083  0.0770  0.1351 -0.7238
  651MOL0     C89737   6.040   2.513   6.078  0.2226 -0.2855 -0.1308
  651MOL0     C89738   5.894   2.476   6.060 -0.5005  0.1821  0.4786
  651MOL0     C89739   5.816   2.535   5.945 -0.4402 -0.1092  0.5285
  651MOL0     C89740   5.676   2.477   5.935 -0.7167 -0.0486 -0.1223
  651MOL0     C89741   5.632   2.475   5.786 -0.8402 -0.3106 -0.5888
  651MOL0     C89742   5.510   2.378   5.754  0.8316 -0.9354  0.5271
  651MOL0     C89743   5.452   2.408   5.615  0.4464 -0.3119  0.4694
  651MOL0     C89744   5.382   2.546   5.609 -1.0526 -0.0036  0.0503
  651MOL0    Cl89745   5.240   2.559   5.716 -0.2278 -0.0957 -0.5609
  651MOL0     C89746   6.252   2.706   5.971  0.0357 -0.0224  0.2548
  651MOL0     C89747   6.379   2.777   5.987  0.1092  0.4295 -0.7303
  651MOL0     O89748   6.647   2.706   6.167  0.3419  0.6001  0.5028
  651MOL0     C89749   6.778   3.024   6.208  0.4377 -0.7622 -0.1711
  651MOL0     C89750   6.894   3.094   6.220 -0.7183 -0.1565  0.0066
  651MOL0     N89751   6.934   3.549   5.990  0.3167 -0.1062  0.0036
  651MOL0     N89752   6.900   3.639   5.914 -0.2608 -0.1809  0.0627
  651MOL0     C89753   6.049   3.993   5.121  0.1942 -0.0949  0.0925
  651MOL0     C89754   5.936   4.061   5.085  0.8139 -0.2207 -0.0552
  651MOL0     C89755   5.590   4.309   4.955  0.2162  0.3093 -0.1226
  651MOL0     C89756   5.625   4.384   4.847 -0.4428  0.3216 -0.2688
  651MOL0     C89757   5.529   4.450   4.766 -0.3814 -0.3154  0.2933
  651MOL0     C89758   5.396   4.449   4.802 -0.4369  0.4994  1.1209
  651MOL0     O89759   5.312   4.498   4.707  0.2112 -0.2946 -0.7290
  651MOL0     C89760   5.214   4.591   4.762 -0.8661 -0.5543  0.5993
  651MOL0     C89761   5.114   4.615   4.644 -0.5113  0.4265  0.3604
  651MOL0     C89762   5.074   4.764   4.634 -0.0063  0.0304 -0.0338
  651MOL0     C89763   5.175   4.858   4.568 -0.0898  0.0510  0.3790
  651MOL0     C89764   5.114   4.970   4.494  0.1993  0.4757 -0.0857
  651MOL0     C89765   5.062   5.058   4.432 -0.2224 -0.5061  0.6676
  651MOL0     C89766   5.356   4.377   4.911 -0.6937 -0.1347  0.4694
  651MOL0     C89767   5.448   4.306   4.995 -0.3263 -0.2994  0.2810
  651MOL0     C89768   5.400   4.268   5.135  0.7840 -0.0686 -0.1679
  651MOL0     H89769   6.057   4.378   5.043 -2.8111  0.7172  1.8626
  651MOL0     H89770   6.266   4.260   5.091  0.7453 -1.2940  2.0338
  651MOL0     H89771   6.344   4.088   5.339 -0.5364 -0.7105  0.8861
  651MOL0     H89772   6.430   4.141   5.197 -0.0940  0.5032  1.4729
  651MOL0     H89773   6.421   3.874   5.330  0.2260 -0.6075  0.0196
  651MOL0     H89774   6.531   3.912   5.192 -1.4354  0.9685 -1.0877
  651MOL0     H89775   6.658   4.059   5.332 -0.3583  0.8363 -1.1783
  651MOL0     H89776   6.553   4.041   5.470 -1.0752  0.1254  0.5315
  651MOL0     H89777   6.593   3.787   5.463 -1.7714  1.0074 -1.4466
  651MOL0     H89778   6.714   3.803   5.333  2.3102  1.2821  0.8728
  651MOL0     H89779   6.754   3.946   5.600 -1.8372 -0.7045  0.1797
  651MOL0     H89780   6.860   3.940   5.463  0.1280  1.4382 -0.4762
  651MOL0     H89781   6.771   3.690   5.628 -1.5120 -1.2707 -2.1371
  651MOL0     H89782   6.832   3.668   5.481 -0.5038  1.8494 -0.9476
  651MOL0     H89783   7.038   3.813   5.536  0.6961 -0.4531  0.1652
  651MOL0     H89784   7.037   3.650   5.587  0.8380  1.9883 -3.7693
  651MOL0     H89785   7.099   3.854   5.767  0.5505 -0.8774 -0.1983
  651MOL0     H89786   6.916   3.857   5.779  1.0681  1.4663 -2.6570
  651MOL0     H89787   7.222   3.655   5.860 -0.0865  0.4656 -0.2025
  651MOL0     H89788   7.080   3.376   6.121 -0.1139 -0.1680 -0.9253
  651MOL0     H89789   7.205   3.487   6.150 -0.5242 -2.1802  0.6675
  651MOL0     H89790   7.188   3.323   5.901 -2.7039  3.1595 -0.5614
  651MOL0     H89791   7.336   3.416   5.948  1.4496 -0.2833  2.2935
  651MOL0     H89792   7.406   3.247   6.042  0.1361 -0.2877  0.8988
  651MOL0     H89793   7.317   3.291   6.184  3.0662 -3.5667  1.2826
  651MOL0     H89794   7.196   3.099   5.974  1.7981  0.4950 -0.9280
  651MOL0     H89795   7.286   3.050   6.125 -0.7375 -0.2106 -0.1548
  651MOL0     H89796   7.095   2.888   6.033  1.5646  1.4462  1.8766
  651MOL0     H89797   6.875   2.650   6.067  0.7049 -0.5099 -0.7961
  651MOL0     H89798   6.977   2.714   5.937 -0.7106 -2.6096 -0.8172
  651MOL0     H89799   6.795   2.719   5.925  0.4133 -3.5886 -0.3973
  651MOL0     H89800   6.361   2.896   6.297 -0.4176 -0.8753 -0.3832
  651MOL0     H89801   6.134   2.791   6.273  0.1516  1.4264  0.6780
  651MOL0     H89802   6.099   2.477   5.993  0.0226  3.7019 -2.2167
  651MOL0     H89803   6.082   2.465   6.167  1.3678  0.7032 -0.0992
  651MOL0     H89804   5.909   2.371   6.034  1.1588  0.7137 -0.9303
  651MOL0     H89805   5.834   2.491   6.150 -1.4520  1.7356 -0.3613
  651MOL0     H89806   5.870   2.500   5.856 -2.0581  0.9210 -0.9286
  651MOL0     H89807   5.805   2.644   5.940 -2.7660 -0.3487 -1.2331
  651MOL0     H89808   5.609   2.544   5.990  1.6639  0.9093  1.7957
  651MOL0     H89809   5.667   2.381   5.988 -0.9115  0.0074 -0.0532
  651MOL0     H89810   5.626   2.572   5.736 -1.9431 -1.9196 -3.9575
  651MOL0     H89811   5.710   2.421   5.732  1.0838 -0.3158  2.0560
  651MOL0     H89812   5.446   2.402   5.839 -0.5101 -2.6471  0.0609
  651MOL0     H89813   5.537   2.273   5.766 -2.7843 -1.8836  1.5169
  651MOL0     H89814   5.377   2.334   5.585 -0.1293  0.7908 -0.9610
  651MOL0     H89815   5.522   2.397   5.532 -0.2337  2.6041 -0.6341
  651MOL0     H89816   5.347   2.545   5.506 -2.0661 -0.6750  0.3898
  651MOL0     H89817   5.460   2.622   5.621  0.1358 -1.3956  1.7381
  651MOL0     H89818   6.223   2.651   5.883  0.2693 -0.4041  0.4119
  651MOL0     H89819   6.447   2.775   5.902  0.3135 -2.6459 -0.6239
  651MOL0     H89820   6.695   3.070   6.260  0.2024  2.6765 -3.1157
  651MOL0     H89821   6.907   3.191   6.267  0.9100 -1.3417  2.1395
  651MOL0     H89822   6.046   3.888   5.147 -1.2644 -0.2153 -0.5108
  651MOL0     H89823   5.844   4.003   5.091 -1.0397  2.4156 -0.9812
  651MOL0     H89824   5.723   4.380   4.801 -1.0464 -3.9509 -1.6688
  651MOL0     H89825   5.563   4.485   4.669 -1.9232 -1.2738 -0.6308
  651MOL0     H89826   5.157   4.559   4.849 -0.2495  0.1735  1.2955
  651MOL0     H89827   5.281   4.676   4.778  0.2222 -0.9594 -1.3729
  651MOL0     H89828   5.027   4.551   4.662 -0.6995  1.0279  1.6931
  651MOL0     H89829   5.151   4.584   4.545 -2.8017 -1.1092 -0.0771
  651MOL0     H89830   4.987   4.761   4.568  0.7385 -0.6333 -1.0180
  651MOL0     H89831   5.037   4.801   4.731  2.7020  2.5933  0.1656
  651MOL0     H89832   5.241   4.801   4.502 -0.1572 -2.4028  2.3048
  651MOL0     H89833   5.239   4.901   4.647  0.1197  0.5227 -0.0418
  651MOL0     H89834   4.991   5.119   4.381 -3.2902 -0.4282  4.5778
  651MOL0     H89835   5.252   4.391   4.940 -1.4913  2.7074 -2.9770
  651MOL0     H89836   5.292   4.285   5.137  0.9631  1.3857 -1.1450
  651MOL0     H89837   5.406   4.159   5.140 -0.0302 -0.1990 -1.4566
  651MOL0     H89838   5.443   4.321   5.221  0.0295 -3.2424  2.3396
  652MOL0     O89839   6.532   4.060   0.150  0.1275  0.2088 -0.1255
  652MOL0     C89840   6.531   4.170   0.109  0.6728 -0.8202 -0.4515
  652MOL0     O89841   6.641   4.252   0.083  0.1213  0.8157  0.9607
  652MOL0     C89842   6.768   4.196   0.090  0.4074  0.3465  0.1385
  652MOL0     C89843   6.880   4.271   0.149  0.0440 -0.3739  0.3876
  652MOL0     C89844   7.012   4.222   0.152 -0.2436 -0.7556 -0.9562
  652MOL0     C89845   7.037   4.099   0.085  0.2045  0.5038 -0.2056
  652MOL0     O89846   7.160   4.039   0.089  0.4222  0.1426  0.4831
  652MOL0     C89847   7.269   4.100   0.021  0.3866 -0.6810 -1.2404
  652MOL0     C89848   7.396   4.027   0.048  0.1084  0.1049 -0.1474
  652MOL0     C89849   7.509   4.056  -0.040  0.0091  0.2172  0.5108
  652MOL0     C89850   7.601   4.162   0.017  0.3598 -0.5993  0.0641
  652MOL0     C89851   7.704   4.194  -0.090 -0.9980  0.0443 -0.6530
  652MOL0     C89852   7.799   4.320  -0.071  0.4735  0.3451  0.1102
  652MOL0     C89853   7.925   4.287   0.004 -0.4140 -0.4173  0.6362
  652MOL0     C89854   8.001   4.411   0.021 -0.2192 -0.5807 -0.1665
  652MOL0     N89855   8.141   4.386   0.063  0.7087  0.7736  0.1351
  652MOL0     C89856   8.232   4.294   0.005  0.6877  0.1345 -0.5316
  652MOL0     C89857   8.343   4.315   0.079  0.1471 -0.0265  0.2736
  652MOL0     C89858   8.466   4.238   0.057 -0.1773 -0.3190 -0.2717
  652MOL0     C89859   8.596   4.323   0.056  0.0438  0.0400 -0.5342
  652MOL0     C89860   8.719   4.224   0.015  0.7615  1.0028  0.2896
  652MOL0     C89861   8.801   4.200   0.144  0.1134 -0.4954 -0.5701
  652MOL0     O89862   8.908   4.114   0.111  0.2046 -0.1448 -0.0580
  652MOL0     C89863   8.991   4.073   0.213  0.3563 -0.0268 -0.1970
  652MOL0     C89864   9.091   3.983   0.179  0.0054  0.1121  1.1420
  652MOL0     C89865   9.182   3.923   0.267  0.7312 -1.1170  0.0104
  652MOL0     C89866   9.279   3.838   0.192 -0.3905  1.0341  0.5732
  652MOL0     C89867   9.180   3.941   0.404  0.8045  0.1113 -0.8822
  652MOL0     C89868   9.281   3.898   0.504 -0.4959 -0.0004  0.0123
  652MOL0     O89869   9.382   3.810   0.457  0.3305  0.1910 -0.3670
  652MOL0     C89870   9.483   3.769   0.536  0.7410 -0.6808 -0.7352
  652MOL0     C89871   9.609   3.787   0.486 -0.8407  0.2620  0.3090
  652MOL0     C89872   9.720   3.745   0.559 -0.4114 -0.5443 -0.9967
  652MOL0     C89873   9.701   3.669   0.675  0.7212  0.1516  0.2238
  652MOL0     O89874   9.799   3.607   0.743  0.3684 -0.4120  0.1901
  652MOL0     C89875   9.870   3.694   0.834  0.6256 -0.4821  0.0412
  652MOL0     C89876   9.980   3.610   0.888 -0.4177 -0.0873  0.0460
  652MOL0     C89877  10.095   3.564   0.786  0.3316 -0.3221  0.2432
  652MOL0     C89878  10.170   3.683   0.734  0.0457  0.1890 -0.8492
  652MOL0     C89879  10.274   3.650   0.629 -0.4844 -0.3343  0.2017
  652MOL0     C89880  10.382   3.547   0.664  0.5715 -0.0303  0.0381
  652MOL0     C89881  10.490   3.547   0.557 -0.5334  0.0562 -0.1790
  652MOL0     C89882  10.434   3.519   0.418 -0.0920 -0.4919  0.4243
  652MOL0    Cl89883  10.303   3.389   0.401 -0.2618 -0.1979  0.3389
  652MOL0     C89884   9.570   3.649   0.724  0.5838  0.2424  0.1532
  652MOL0     C89885   9.456   3.699   0.654 -0.1975 -0.4074  0.6089
  652MOL0     O89886   9.264   3.934   0.618 -0.4624 -0.3094  0.0878
  652MOL0     C89887   9.084   4.039   0.444 -0.2544 -0.8095  0.0487
  652MOL0     C89888   8.993   4.112   0.349 -0.8822  1.5624 -1.0213
  652MOL0     N89889   8.336   4.429   0.164 -0.2927  0.1574 -0.1423
  652MOL0     N89890   8.205   4.456   0.162  0.0942  0.9231 -0.3710
  652MOL0     C89891   6.935   4.023   0.023 -0.3362 -0.6358 -0.6801
  652MOL0     C89892   6.806   4.072   0.026 -0.7718  0.1462 -0.8396
  652MOL0     C89893   6.396   4.209   0.065 -0.0092  0.6349  0.1777
  652MOL0     C89894   6.335   4.327   0.108 -0.4067  0.0922 -0.8368
  652MOL0     C89895   6.205   4.356   0.081 -0.3281 -0.1557 -0.5998
  652MOL0     C89896   6.125   4.263   0.010  0.4775 -0.3973  0.1361
  652MOL0     O89897   5.988   4.309  -0.006 -0.6622  0.0117 -0.2222
  652MOL0     C89898   5.888   4.214  -0.056  0.2286 -0.7339 -0.0307
  652MOL0     C89899   5.742   4.259  -0.040 -0.1623 -0.6168 -0.4152
  652MOL0     C89900   5.705   4.340  -0.163  0.5913  0.0046 -0.7776
  652MOL0     C89901   5.548   4.355  -0.165  0.2927  0.1915  0.1212
  652MOL0     C89902   5.482   4.226  -0.200 -0.2880  0.0827 -0.2570
  652MOL0     C89903   5.431   4.123  -0.229 -0.1341 -0.0098 -0.1669
  652MOL0     C89904   6.183   4.150  -0.039 -0.2821  0.2449  0.2188
  652MOL0     C89905   6.320   4.131  -0.023  1.1104  0.8993  0.0032
  652MOL0     C89906   6.366   4.011  -0.101 -0.4232 -0.4828  0.0903
  652MOL0     H89907   6.854   4.361   0.204 -2.2693 -0.5820 -0.2727
  652MOL0     H89908   7.090   4.279   0.201 -2.1018  1.6365 -0.5490
  652MOL0     H89909   7.275   4.200   0.064  1.5219 -1.5263  0.7303
  652MOL0     H89910   7.240   4.103  -0.084  1.2563  2.9986 -1.4865
  652MOL0     H89911   7.424   4.040   0.153  0.5908  2.2470 -0.5004
  652MOL0     H89912   7.375   3.920   0.039 -0.5438  0.2552 -0.4798
  652MOL0     H89913   7.566   3.963  -0.045 -1.7940 -1.1699  3.4448
  652MOL0     H89914   7.472   4.088  -0.138  2.8526 -1.5982 -1.3189
  652MOL0     H89915   7.550   4.253   0.050  1.0059 -0.7752  1.6615
  652MOL0     H89916   7.657   4.126   0.105  0.1511 -2.1303 -0.4021
  652MOL0     H89917   7.653   4.199  -0.187 -1.9728  3.5453 -0.0901
  652MOL0     H89918   7.763   4.102  -0.097 -0.6956 -0.1872  3.0584
  652MOL0     H89919   7.831   4.357  -0.169 -0.9450  2.6221  0.4261
  652MOL0     H89920   7.733   4.395  -0.027  0.9919  0.6618  0.3548
  652MOL0     H89921   7.983   4.218  -0.059  0.4004 -0.6237  1.5863
  652MOL0     H89922   7.895   4.243   0.099  2.0226 -1.6442  0.9067
  652MOL0     H89923   8.006   4.476  -0.067 -2.2081  3.3963  2.3876
  652MOL0     H89924   7.945   4.467   0.096  2.0980 -1.4771  2.4213
  652MOL0     H89925   8.229   4.223  -0.076  0.5674 -0.5534  0.0606
  652MOL0     H89926   8.453   4.184  -0.037  1.8439 -1.9289  0.3128
  652MOL0     H89927   8.475   4.162   0.136 -0.2142  0.5970  0.6277
  652MOL0     H89928   8.591   4.404  -0.017  2.0416  0.5088 -0.1892
  652MOL0     H89929   8.608   4.375   0.151 -2.5848  3.4011 -1.8478
  652MOL0     H89930   8.673   4.128  -0.013  1.2996  0.5750  0.8324
  652MOL0     H89931   8.783   4.252  -0.069  2.2095 -0.5157  0.8269
  652MOL0     H89932   8.856   4.288   0.177  0.8651 -0.8591 -0.8100
  652MOL0     H89933   8.734   4.163   0.222  3.1456  0.3661  2.7387
  652MOL0     H89934   9.098   3.962   0.073 -1.2549 -2.0821  1.4377
  652MOL0     H89935   9.250   3.807   0.092  1.8782  0.4984  0.0340
  652MOL0     H89936   9.295   3.744   0.246 -0.4221  0.2830 -0.6965
  652MOL0     H89937   9.370   3.897   0.180  0.5546 -0.7512 -1.8211
  652MOL0     H89938   9.620   3.845   0.395  2.2826  0.3914  0.6854
  652MOL0     H89939   9.824   3.760   0.532  0.8978 -2.5699  2.3494
  652MOL0     H89940   9.913   3.780   0.782 -2.7495  2.6436  1.9134
  652MOL0     H89941   9.813   3.742   0.914 -0.7960  3.1147 -2.8596
  652MOL0     H89942  10.028   3.666   0.968 -1.4796  5.7877 -2.8500
  652MOL0     H89943   9.948   3.519   0.939 -0.7806 -0.6803 -1.2055
  652MOL0     H89944  10.056   3.520   0.694  0.2884  0.9799 -0.3871
  652MOL0     H89945  10.168   3.498   0.831  1.4200  1.1021  0.6376
  652MOL0     H89946  10.222   3.736   0.814 -0.7545  1.4117 -1.1014
  652MOL0     H89947  10.109   3.755   0.678  1.4788  0.7344 -1.7735
  652MOL0     H89948  10.227   3.623   0.534  0.4969  0.2383 -0.4647
  652MOL0     H89949  10.332   3.740   0.609 -1.0710  0.1039  0.4521
  652MOL0     H89950  10.335   3.448   0.667  1.0267 -0.2306  0.9111
  652MOL0     H89951  10.420   3.571   0.764 -0.3413 -0.1828  0.4314
  652MOL0     H89952  10.572   3.478   0.574 -0.6757 -0.4868 -1.6314
  652MOL0     H89953  10.518   3.653   0.555 -2.6093  1.1192  5.3805
  652MOL0     H89954  10.507   3.490   0.342 -0.3756  1.5221 -0.6921
  652MOL0     H89955  10.388   3.611   0.382 -2.8440 -1.4251  1.3377
  652MOL0     H89956   9.563   3.588   0.814 -1.0622 -2.0332 -1.3993
  652MOL0     H89957   9.352   3.683   0.679 -0.7022  0.2783 -0.9127
  652MOL0     H89958   9.074   4.068   0.548 -1.3349 -0.2865 -0.1806
  652MOL0     H89959   8.918   4.180   0.387 -1.4837  0.0831  0.5559
  652MOL0     H89960   6.949   3.939  -0.044 -0.0538  0.7518 -2.4397
  652MOL0     H89961   6.719   4.023  -0.016 -3.1379  3.8902 -0.7631
  652MOL0     H89962   6.384   4.392   0.180  0.3844  0.3031 -1.5572
  652MOL0     H89963   6.156   4.443   0.122  3.1516  1.6156  0.1335
  652MOL0     H89964   5.911   4.206  -0.162  2.1065  0.6819  0.2170
  652MOL0     H89965   5.892   4.117  -0.004 -1.9261 -0.8816 -0.0651
  652MOL0     H89966   5.735   4.333   0.040  0.8829  2.7939 -3.1730
  652MOL0     H89967   5.680   4.174  -0.010  3.0045 -2.3317  1.8544
  652MOL0     H89968   5.748   4.441  -0.161  1.5380 -0.3952 -0.7071
  652MOL0     H89969   5.728   4.272  -0.245 -0.2607 -0.0453 -0.9923
  652MOL0     H89970   5.511   4.437  -0.227  0.2376  0.1710  0.1275
  652MOL0     H89971   5.518   4.386  -0.065  1.0751 -0.6138  0.6253
  652MOL0     H89972   5.389   4.026  -0.246  0.7477 -0.4516  0.0994
  652MOL0     H89973   6.127   4.075  -0.094  2.6587 -3.0167  1.3494
  652MOL0     H89974   6.464   4.044  -0.136 -1.2040  3.2932  1.0132
  652MOL0     H89975   6.362   3.920  -0.040 -1.4360 -1.0355 -0.7650
  652MOL0     H89976   6.307   3.997  -0.192 -0.6389 -0.5609  0.2393
  653MOL0     O89977   5.995   9.298  10.567 -0.6159  0.0301 -0.1123
  653MOL0     C89978   5.918   9.388  10.597 -0.2131  0.1418  0.5070
  653MOL0     O89979   5.925   9.451  10.713  0.1561 -0.4814 -0.6826
  653MOL0     C89980   6.019   9.404  10.802 -1.0195  0.2691  1.1319
  653MOL0     C89981   5.985   9.278  10.864 -0.9700 -0.4349  0.1538
  653MOL0     C89982   6.074   9.233  10.961  0.8834 -0.5472  0.4935
  653MOL0     C89983   6.192   9.301  10.992 -0.7152 -0.2041 -0.2425
  653MOL0     O89984   6.281   9.264  11.090 -1.1920  0.4951 -0.3618
  653MOL0     C89985   6.262   9.146  11.163  0.6611 -0.7244 -0.0436
  653MOL0     C89986   6.383   9.119  11.249 -0.4938 -0.1298  0.6953
  653MOL0     C89987   6.367   8.991  11.329  0.4055 -0.4118  0.5112
  653MOL0     C89988   6.492   8.967  11.401 -0.0399  0.1320 -0.9978
  653MOL0     C89989   6.472   8.863  11.512  0.7028  0.1380  0.4035
  653MOL0     C89990   6.597   8.816  11.586 -0.7922 -0.1032  0.9407
  653MOL0     C89991   6.667   8.926  11.662 -0.2449  0.9184 -0.1772
  653MOL0     C89992   6.743   8.861  11.779  0.0570 -0.1671 -0.5867
  653MOL0     N89993   6.822   8.965  11.844  0.2667 -0.3042 -0.2442
  653MOL0     C89994   6.769   9.054  11.928  0.0330 -0.1438 -0.0539
  653MOL0     C89995   6.876   9.124  11.976 -1.1285 -0.6114  0.0383
  653MOL0     C89996   6.875   9.221  12.088  0.2463 -0.8975  0.3431
  653MOL0     C89997   6.899   9.366  12.037 -0.1036 -0.0183 -0.1601
  653MOL0     C89998   7.042   9.390  11.988  0.4932  0.5981 -0.5162
  653MOL0     C89999   7.154   9.373  12.083  0.4212 -0.4476 -0.2350
  653MOL0     O90000   7.269   9.456  12.047  0.2270 -0.0560  0.1479
  653MOL0     C90001   7.370   9.400  11.968  0.5662 -0.0269 -0.5047
  653MOL0     C90002   7.347   9.319  11.861  0.4299  0.3871  0.7310
  653MOL0     C90003   7.456   9.264  11.784 -0.5795 -0.2827 -0.3027
  653MOL0     C90004   7.417   9.170  11.669  0.2826 -0.3567 -0.1829
  653MOL0     C90005   7.583   9.312  11.813 -0.9856 -0.2280 -0.1051
  653MOL0     C90006   7.709   9.278  11.733  0.2414  0.6240  0.0123
  653MOL0     O90007   7.833   9.302  11.793 -0.0477  0.1976  0.3638
  653MOL0     C90008   7.944   9.260  11.725 -0.6485  0.2163  0.1323
  653MOL0     C90009   8.016   9.346  11.644  0.7508 -0.0860  0.0929
  653MOL0     C90010   8.130   9.308  11.574  0.9274  0.7648 -0.9896
  653MOL0     C90011   8.177   9.177  11.588 -1.6149  0.0125  0.8618
  653MOL0     O90012   8.279   9.131  11.497  0.1383 -0.7567  0.9156
  653MOL0     C90013   8.244   9.137  11.358  1.0800  0.5810 -1.2161
  653MOL0     C90014   8.362   9.162  11.265  0.0355 -0.1706  0.0810
  653MOL0     C90015   8.321   9.129  11.121 -0.7330  0.1401 -0.3730
  653MOL0     C90016   8.319   8.975  11.091  0.0026 -0.3859  0.1262
  653MOL0     C90017   8.284   8.965  10.945 -0.1726  0.2190 -0.9228
  653MOL0     C90018   8.271   8.817  10.907 -0.6151 -0.4912  0.1112
  653MOL0     C90019   8.273   8.817  10.754  0.0126 -0.1452  0.2746
  653MOL0     C90020   8.229   8.682  10.696 -0.3506  0.2982 -0.9285
  653MOL0    Cl90021   8.248   8.696  10.529  0.1749  0.3137 -0.5623
  653MOL0     C90022   8.116   9.087  11.677 -0.1666  0.1545  1.4190
  653MOL0     C90023   7.996   9.128  11.737  0.2258  0.3078  0.2038
  653MOL0     O90024   7.696   9.228  11.621  0.5672 -0.8874  0.2997
  653MOL0     C90025   7.601   9.411  11.913 -0.1989  0.9528 -0.1853
  653MOL0     C90026   7.493   9.451  11.991 -0.4936  0.5491 -0.8825
  653MOL0     N90027   6.995   9.059  11.932  0.5370  0.4092 -0.4181
  653MOL0     N90028   6.955   8.976  11.845  0.4744 -0.6089  0.0099
  653MOL0     C90029   6.223   9.418  10.931  0.7861  0.4745 -0.0952
  653MOL0     C90030   6.136   9.477  10.836 -0.1183 -0.3384 -0.4985
  653MOL0     C90031   5.817   9.440  10.499  0.5129 -0.4849  0.7187
  653MOL0     C90032   5.806   9.364  10.385 -0.7276  1.1003  0.4236
  653MOL0     C90033   5.722   9.400  10.281 -0.4025 -0.5522  0.2921
  653MOL0     C90034   5.630   9.502  10.295  0.4140 -0.0256 -0.3952
  653MOL0     O90035   5.541   9.532  10.192  0.3171  0.7679  0.2227
  653MOL0     C90036   5.406   9.566  10.237 -0.4530  0.3406  0.0181
  653MOL0     C90037   5.306   9.551  10.119 -0.3148 -0.4588 -0.5628
  653MOL0     C90038   5.361   9.624   9.996 -1.2236  0.3522  1.0656
  653MOL0     C90039   5.382   9.777  10.021 -0.3268 -0.6347  0.2398
  653MOL0     C90040   5.420   9.841   9.895  1.3158 -0.2904  0.4609
  653MOL0     C90041   5.454   9.885   9.785 -0.7120 -0.3579 -0.1902
  653MOL0     C90042   5.641   9.582  10.413  0.3422 -0.8148 -0.0823
  653MOL0     C90043   5.732   9.557  10.512 -1.0541  1.1674  0.0692
  653MOL0     C90044   5.728   9.657  10.628  0.1263  0.3037  0.4674
  653MOL0     H90045   5.894   9.228  10.833 -0.2208 -2.5882  1.2800
  653MOL0     H90046   6.048   9.134  10.999 -1.0205  0.4512  1.9771
  653MOL0     H90047   6.246   9.059  11.099 -1.1724  0.7182 -1.6794
  653MOL0     H90048   6.172   9.150  11.224  0.5958 -1.4289 -0.0817
  653MOL0     H90049   6.475   9.107  11.191 -0.1252 -0.5815  1.3555
  653MOL0     H90050   6.396   9.204  11.317  2.7283  0.0804  0.0029
  653MOL0     H90051   6.281   9.002  11.395 -0.4988 -2.5064 -0.2140
  653MOL0     H90052   6.349   8.904  11.265  0.4535  0.5860 -0.9086
  653MOL0     H90053   6.568   8.934  11.329 -0.1246 -0.4844 -0.8107
  653MOL0     H90054   6.540   9.052  11.450  0.7216 -1.5339  1.2811
  653MOL0     H90055   6.437   8.770  11.466 -1.5526  1.1561 -0.0940
  653MOL0     H90056   6.397   8.888  11.587 -2.1596 -1.2311 -1.7954
  653MOL0     H90057   6.576   8.736  11.657 -0.6427  0.5797  1.7839
  653MOL0     H90058   6.666   8.785  11.507 -0.6158  1.7523  0.3113
  653MOL0     H90059   6.611   9.013  11.695 -0.5166  0.5799  0.2614
  653MOL0     H90060   6.743   8.968  11.596 -2.0319  3.1971 -0.9234
  653MOL0     H90061   6.671   8.817  11.849 -0.6297  0.0807 -1.1188
  653MOL0     H90062   6.805   8.778  11.744  0.3449 -0.9874  1.7396
  653MOL0     H90063   6.664   9.062  11.957 -0.4448  4.5768 -2.1220
  653MOL0     H90064   6.949   9.207  12.167  0.9604 -0.1370 -0.1837
  653MOL0     H90065   6.774   9.213  12.130 -0.1805 -0.9190 -0.6550
  653MOL0     H90066   6.821   9.399  11.968  2.7202  0.9943 -3.0510
  653MOL0     H90067   6.887   9.416  12.134  1.0771  0.5434 -0.2899
  653MOL0     H90068   7.054   9.325  11.902 -0.2291 -1.4028  0.8313
  653MOL0     H90069   7.057   9.493  11.952  3.8184  1.6977  3.2341
  653MOL0     H90070   7.113   9.390  12.182  3.2699 -0.7717  1.0931
  653MOL0     H90071   7.192   9.270  12.086  0.3850 -0.4296  0.9861
  653MOL0     H90072   7.245   9.297  11.833  0.7047  2.0613 -2.0186
  653MOL0     H90073   7.432   9.219  11.573 -3.0645  1.3447  0.0380
  653MOL0     H90074   7.309   9.155  11.669  0.1796  0.0688 -2.4291
  653MOL0     H90075   7.477   9.079  11.682  1.4680  0.3050 -0.8008
  653MOL0     H90076   7.988   9.451  11.640 -1.3986 -0.5972  0.6743
  653MOL0     H90077   8.190   9.381  11.521 -0.3501  2.2050 -0.4958
  653MOL0     H90078   8.196   9.041  11.333 -1.4058  1.2731  0.5733
  653MOL0     H90079   8.161   9.204  11.337 -0.2330  0.5635  3.0628
  653MOL0     H90080   8.393   9.265  11.283  1.8784 -0.5288 -0.8040
  653MOL0     H90081   8.437   9.090  11.301 -0.9094 -0.9578  0.5254
  653MOL0     H90082   8.387   9.184  11.053  1.3565 -0.9985  0.6449
  653MOL0     H90083   8.219   9.167  11.108 -0.6536  0.9583  1.0929
  653MOL0     H90084   8.241   8.929  11.153 -1.7289 -2.6068 -3.3792
  653MOL0     H90085   8.412   8.929  11.126 -0.0471  0.2710  1.1782
  653MOL0     H90086   8.183   9.005  10.939 -0.2201  0.3313  0.4770
  653MOL0     H90087   8.346   9.021  10.875 -0.5711 -0.1796 -1.6106
  653MOL0     H90088   8.184   8.777  10.959 -2.0712 -0.0707 -1.9090
  653MOL0     H90089   8.362   8.766  10.942 -0.8581 -0.2472  1.1317
  653MOL0     H90090   8.371   8.842  10.712 -0.7545  0.0621 -1.4554
  653MOL0     H90091   8.198   8.884  10.711  0.4897  0.7795  0.8486
  653MOL0     H90092   8.130   8.672  10.740  0.6530 -0.9822  1.2457
  653MOL0     H90093   8.282   8.593  10.731 -0.9053  0.5552  0.6675
  653MOL0     H90094   8.152   8.985  11.687 -1.4864 -0.7672 -1.8693
  653MOL0     H90095   7.935   9.065  11.802 -1.6243 -0.9731 -2.5593
  653MOL0     H90096   7.694   9.465  11.929 -0.2634  2.6283 -4.2143
  653MOL0     H90097   7.513   9.516  12.076 -0.4074 -0.1586 -0.3458
  653MOL0     H90098   6.313   9.469  10.966  1.5023 -0.4378 -0.5557
  653MOL0     H90099   6.170   9.575  10.803 -0.2203  0.9808  2.8979
  653MOL0     H90100   5.862   9.273  10.365  0.1314  2.0739 -1.9925
  653MOL0     H90101   5.721   9.346  10.187 -0.1047  1.1615 -0.7506
  653MOL0     H90102   5.383   9.499  10.321  0.5191 -1.7218 -1.2762
  653MOL0     H90103   5.407   9.666  10.282  1.4923  0.3330  0.0671
  653MOL0     H90104   5.209   9.595  10.144  0.7704  0.9621  1.3910
  653MOL0     H90105   5.294   9.443  10.100  1.0013 -0.4201 -1.8019
  653MOL0     H90106   5.456   9.576   9.971 -1.6466 -0.3629  0.8143
  653MOL0     H90107   5.296   9.612   9.908 -0.6473 -0.0077  0.6840
  653MOL0     H90108   5.465   9.792  10.091 -0.5616 -1.6819  0.7579
  653MOL0     H90109   5.295   9.833  10.055 -0.4034  0.7094 -1.9765
  653MOL0     H90110   5.469   9.928   9.688 -3.3396 -0.6848 -0.8257
  653MOL0     H90111   5.577   9.666  10.438 -1.9152 -2.4237 -0.1661
  653MOL0     H90112   5.817   9.669  10.690 -0.1068 -1.1642  1.1293
  653MOL0     H90113   5.732   9.750  10.571  1.6127 -1.3543 -2.3967
  653MOL0     H90114   5.634   9.644  10.683 -0.9055 -1.2410 -1.5078
  654MOL0     O90115   3.817   7.463  10.833  0.2439  0.6180  0.0616
  654MOL0     C90116   3.813   7.480  10.712  0.0514  0.5735 -0.8135
  654MOL0     O90117   3.838   7.597  10.652 -0.9480 -0.4879  0.0587
  654MOL0     C90118   3.917   7.681  10.731 -0.0979 -0.3912 -0.3567
  654MOL0     C90119   3.869   7.810  10.763  0.4678  0.1556  0.1112
  654MOL0     C90120   3.943   7.906  10.830 -0.6903  0.1834 -0.2561
  654MOL0     C90121   4.076   7.872  10.869 -0.5119  0.0786 -0.3832
  654MOL0     O90122   4.156   7.968  10.929  0.3672 -0.1421  0.0587
  654MOL0     C90123   4.287   7.927  10.989  0.8541  0.5977 -0.0209
  654MOL0     C90124   4.361   8.049  11.051 -0.1532 -0.6349 -0.2313
  654MOL0     C90125   4.306   8.087  11.185 -0.2589  0.2618 -0.4624
  654MOL0     C90126   4.341   8.234  11.222 -0.0568 -0.5319  0.2905
  654MOL0     C90127   4.310   8.255  11.369 -0.1562 -0.2408  0.4702
  654MOL0     C90128   4.323   8.400  11.421  0.0098 -0.5015  0.2289
  654MOL0     C90129   4.296   8.411  11.565  0.2134 -0.1196  0.8650
  654MOL0     C90130   4.285   8.557  11.598 -0.4175  0.2529 -0.5936
  654MOL0     N90131   4.413   8.620  11.596 -0.6100 -0.7177  1.0469
  654MOL0     C90132   4.464   8.703  11.504 -0.2157  0.0491  0.1964
  654MOL0     C90133   4.554   8.775  11.566  0.3074 -0.6884 -0.2096
  654MOL0     C90134   4.626   8.894  11.513 -0.6172 -0.4486  0.0114
  654MOL0     C90135   4.773   8.882  11.486  0.4448 -0.0345  0.1432
  654MOL0     C90136   4.845   8.821  11.605  0.0260  0.0626 -0.1984
  654MOL0     C90137   5.004   8.810  11.584 -0.0633  0.0530  0.4389
  654MOL0     O90138   5.066   8.775  11.709 -0.2806 -0.1967  0.0642
  654MOL0     C90139   5.205   8.768  11.694  0.5399  0.8775  0.0031
  654MOL0     C90140   5.289   8.793  11.586 -0.8879  0.2404 -0.4521
  654MOL0     C90141   5.427   8.757  11.586 -0.2872  0.1960 -0.1881
  654MOL0     C90142   5.501   8.784  11.456  0.3764 -0.3763  0.3281
  654MOL0     C90143   5.486   8.705  11.706 -1.0193 -0.1011  0.1161
  654MOL0     C90144   5.632   8.677  11.732  0.0899 -0.1445  0.3172
  654MOL0     O90145   5.667   8.657  11.859  0.0300  0.0131  0.1198
  654MOL0     C90146   5.797   8.624  11.895 -0.7298 -0.0929  0.3326
  654MOL0     C90147   5.824   8.669  12.026  1.1722 -0.8832  0.1596
  654MOL0     C90148   5.957   8.635  12.072 -0.5068 -0.2143  0.6632
  654MOL0     C90149   6.048   8.560  11.999 -0.0783 -0.3197 -0.5118
  654MOL0     O90150   6.171   8.528  12.063 -0.3255 -0.2764  0.0996
  654MOL0     C90151   6.287   8.501  11.972  0.2483 -0.1529 -0.2949
  654MOL0     C90152   6.334   8.630  11.899 -0.6787  0.3966  0.0463
  654MOL0     C90153   6.343   8.746  12.002  0.4751  0.1820  0.7173
  654MOL0     C90154   6.428   8.735  12.127 -0.6233  0.6410  0.8004
  654MOL0     C90155   6.575   8.702  12.099 -0.2281 -0.2229 -0.4667
  654MOL0     C90156   6.644   8.710  12.238  0.5227  0.3832  0.4451
  654MOL0     C90157   6.777   8.627  12.230 -0.1881 -0.4398  0.3525
  654MOL0     C90158   6.882   8.683  12.333  0.1510 -0.0669 -0.0569
  654MOL0    Cl90159   7.037   8.577  12.327 -0.2364  0.0639 -0.0587
  654MOL0     C90160   6.014   8.509  11.870 -0.5614 -0.6045  0.1532
  654MOL0     C90161   5.885   8.544  11.824 -0.0560 -0.5847 -0.2333
  654MOL0     O90162   5.711   8.670  11.637 -0.3645 -0.2525 -0.2381
  654MOL0     C90163   5.402   8.698  11.816 -0.0482 -0.2217 -0.0428
  654MOL0     C90164   5.268   8.726  11.806 -0.1385  0.3228  1.0229
  654MOL0     N90165   4.555   8.731  11.699 -0.0754 -0.6396  0.9206
  654MOL0     N90166   4.468   8.645  11.716 -0.6595  1.2229  0.2252
  654MOL0     C90167   4.126   7.743  10.843 -0.1550  0.4131 -0.0056
  654MOL0     C90168   4.047   7.650  10.770 -0.5325  0.3504  0.4541
  654MOL0     C90169   3.768   7.355  10.643 -0.2771 -0.4008  0.8916
  654MOL0     C90170   3.745   7.237  10.723 -0.0292 -0.0123  0.4866
  654MOL0     C90171   3.714   7.120  10.656  0.9530  0.0534  0.3872
  654MOL0     C90172   3.690   7.114  10.521 -0.4512  0.1081  0.5551
  654MOL0     O90173   3.646   7.005  10.455 -0.5944 -0.1454 -0.0193
  654MOL0     C90174   3.588   6.896  10.522  0.7239 -0.2353  0.4187
  654MOL0     C90175   3.481   6.832  10.427 -0.0055 -0.3605  0.0525
  654MOL0     C90176   3.379   6.922  10.361 -0.5132 -0.5840 -0.3470
  654MOL0     C90177   3.293   6.836  10.276  0.5047 -0.0704  0.2554
  654MOL0     C90178   3.210   6.744  10.364  0.3843  0.4380 -0.1342
  654MOL0     C90179   3.153   6.655  10.429 -0.0799  0.1086 -0.1788
  654MOL0     C90180   3.713   7.231  10.438  0.3164 -0.8253  0.0333
  654MOL0     C90181   3.763   7.350  10.501 -0.5607 -0.6617 -0.4622
  654MOL0     C90182   3.811   7.462  10.410 -0.2420 -0.1420  0.2449
  654MOL0     H90183   3.768   7.833  10.730  2.0924  1.2144 -5.0682
  654MOL0     H90184   3.893   7.996  10.865 -4.9804 -1.6862 -0.8602
  654MOL0     H90185   4.358   7.886  10.917  0.3317  0.4941 -0.4824
  654MOL0     H90186   4.269   7.855  11.070  2.2147 -1.4406 -1.4699
  654MOL0     H90187   4.462   8.021  11.083 -0.2494  0.2262  0.9067
  654MOL0     H90188   4.360   8.126  10.974 -0.4773 -0.3075  0.0966
  654MOL0     H90189   4.198   8.076  11.188 -0.4015  1.6020 -0.1588
  654MOL0     H90190   4.341   8.018  11.263 -0.6129 -2.1768 -2.3039
  654MOL0     H90191   4.447   8.261  11.211 -0.0963  0.0882  1.3387
  654MOL0     H90192   4.278   8.295  11.157  1.6867  0.1174 -0.8687
  654MOL0     H90193   4.368   8.199  11.442  0.5129  2.5526  2.2702
  654MOL0     H90194   4.208   8.222  11.390 -0.5271  1.9286  2.5439
  654MOL0     H90195   4.410   8.452  11.380 -0.8822  0.8675  0.0060
  654MOL0     H90196   4.239   8.456  11.381  1.1896  0.1321 -1.4704
  654MOL0     H90197   4.387   8.371  11.612  1.0841  1.8138  0.9160
  654MOL0     H90198   4.204   8.358  11.590 -0.6721  1.5277  1.2371
  654MOL0     H90199   4.216   8.613  11.534 -0.2755  3.6229  1.9512
  654MOL0     H90200   4.243   8.547  11.698 -0.2482  2.8531 -0.1910
  654MOL0     H90201   4.420   8.715  11.405  0.0288  1.3147  0.2266
  654MOL0     H90202   4.610   8.971  11.589  1.5394 -0.2607  0.3163
  654MOL0     H90203   4.576   8.921  11.419 -1.3045 -0.8790  0.2395
  654MOL0     H90204   4.785   8.824  11.394  0.8201  1.3925 -0.7341
  654MOL0     H90205   4.825   8.976  11.465 -0.4789  0.4482 -0.0004
  654MOL0     H90206   4.823   8.883  11.692 -1.3602 -0.9687  0.2275
  654MOL0     H90207   4.802   8.723  11.627  0.6237  0.0250  0.8911
  654MOL0     H90208   5.016   8.734  11.507  2.2565 -0.4595  1.2173
  654MOL0     H90209   5.030   8.913  11.561 -2.4145  1.0026  1.6491
  654MOL0     H90210   5.248   8.855  11.507 -2.1335 -0.1995 -0.1859
  654MOL0     H90211   5.435   8.836  11.386  0.1795  0.6485  1.2509
  654MOL0     H90212   5.527   8.691  11.404  1.9559  0.2878 -0.1537
  654MOL0     H90213   5.590   8.844  11.481  1.2900 -2.7940  3.5413
  654MOL0     H90214   5.749   8.727  12.080 -1.2606 -3.1293 -0.5871
  654MOL0     H90215   5.979   8.672  12.172 -0.9926  0.1425  0.6404
  654MOL0     H90216   6.366   8.457  12.032 -0.7475 -3.7216 -1.3313
  654MOL0     H90217   6.261   8.422  11.900  1.4776 -2.5008  1.7050
  654MOL0     H90218   6.432   8.608  11.855 -0.5934 -0.5219  0.6748
  654MOL0     H90219   6.259   8.664  11.827 -0.7799  0.6298  0.2617
  654MOL0     H90220   6.244   8.774  12.041 -0.6868  1.6845 -2.8449
  654MOL0     H90221   6.373   8.835  11.945 -1.6108  0.2479 -0.3785
  654MOL0     H90222   6.382   8.652  12.180 -1.2792 -0.5692 -1.5550
  654MOL0     H90223   6.422   8.824  12.191 -1.2990  1.6734 -0.6423
  654MOL0     H90224   6.568   8.601  12.059 -2.5287 -1.0918  1.8269
  654MOL0     H90225   6.631   8.773  12.038  1.9885 -1.0400  0.5149
  654MOL0     H90226   6.583   8.651  12.307 -0.5306 -0.0605 -0.8220
  654MOL0     H90227   6.664   8.812  12.273  2.6783  1.0867 -2.4606
  654MOL0     H90228   6.823   8.639  12.131  2.1574  0.4524  1.4827
  654MOL0     H90229   6.760   8.522  12.255 -1.0188 -0.5274 -0.5248
  654MOL0     H90230   6.836   8.675  12.432 -0.8851 -0.3624 -0.5502
  654MOL0     H90231   6.905   8.787  12.308 -2.2909  0.0215 -2.4652
  654MOL0     H90232   6.077   8.449  11.804 -3.4154  0.1529 -3.5826
  654MOL0     H90233   5.860   8.489  11.734 -2.7626 -1.7718  1.1210
  654MOL0     H90234   5.441   8.683  11.916 -1.5804  5.1820  1.6817
  654MOL0     H90235   5.207   8.720  11.896  0.9925  0.7856  1.8374
  654MOL0     H90236   4.214   7.703  10.893  0.9054  2.0752 -0.4580
  654MOL0     H90237   4.083   7.547  10.764 -1.3408 -0.0148  1.4549
  654MOL0     H90238   3.748   7.236  10.832  0.9550 -1.9202  0.4813
  654MOL0     H90239   3.683   7.043  10.727  1.3788  0.3488  0.9069
  654MOL0     H90240   3.662   6.819  10.543  2.8208  1.5514 -0.1227
  654MOL0     H90241   3.536   6.935  10.610 -0.0543 -0.5722  0.1237
  654MOL0     H90242   3.430   6.753  10.483 -0.8187 -0.7030 -1.1435
  654MOL0     H90243   3.546   6.780  10.356 -1.3008 -1.6773 -0.1995
  654MOL0     H90244   3.311   6.985  10.418  0.8430  2.5535 -1.9244
  654MOL0     H90245   3.429   6.989  10.290 -1.1337 -0.8107 -1.0105
  654MOL0     H90246   3.357   6.779  10.208  1.0546  1.3548 -0.4500
  654MOL0     H90247   3.230   6.902  10.216  0.5626 -1.9329 -2.0145
  654MOL0     H90248   3.097   6.584  10.486  2.6487 -0.4328  2.0772
  654MOL0     H90249   3.706   7.227  10.329 -1.0999  2.3886 -0.1030
  654MOL0     H90250   3.919   7.472  10.417 -0.2053  0.4145 -0.9734
  654MOL0     H90251   3.797   7.439  10.304 -0.3722 -1.6919  0.5797
  654MOL0     H90252   3.766   7.559  10.435  0.5716  0.2596  0.1759
  655MOL0     O90253   1.687   1.669  10.126  0.5791  0.4190 -0.0589
  655MOL0     C90254   1.622   1.759  10.182  0.1249  0.2829 -0.8093
  655MOL0     O90255   1.643   1.804  10.317  0.3722  0.1536  0.7859
  655MOL0     C90256   1.733   1.718  10.389 -0.3855 -1.0369 -0.4653
  655MOL0     C90257   1.697   1.680  10.521 -0.1127 -0.5688  0.3053
  655MOL0     C90258   1.780   1.618  10.610 -0.4721  0.1539 -0.0505
  655MOL0     C90259   1.907   1.575  10.562  0.4078  0.3289  0.0044
  655MOL0     O90260   1.982   1.506  10.664 -0.0010 -0.3966 -0.9102
  655MOL0     C90261   2.121   1.528  10.651 -0.2946  0.1053 -0.2433
  655MOL0     C90262   2.186   1.444  10.759 -0.3874  0.4459 -0.1116
  655MOL0     C90263   2.326   1.501  10.762  0.0795  0.5821  0.3156
  655MOL0     C90264   2.417   1.413  10.842 -0.3345  0.1685  0.0982
  655MOL0     C90265   2.555   1.486  10.867 -0.6240  0.3371 -0.3240
  655MOL0     C90266   2.668   1.390  10.916  0.4026 -0.4107  0.2266
  655MOL0     C90267   2.785   1.460  10.985 -0.6954  0.2432  0.2146
  655MOL0     C90268   2.883   1.543  10.898 -0.2441  0.2888 -0.1704
  655MOL0     N90269   2.972   1.454  10.815 -0.7691  0.0698 -0.4839
  655MOL0     C90270   2.929   1.391  10.701  0.3715 -0.2464 -0.1451
  655MOL0     C90271   3.035   1.313  10.661  0.2357 -0.1709  0.1340
  655MOL0     C90272   3.041   1.210  10.546  0.0502  0.2039  0.2877
  655MOL0     C90273   2.904   1.160  10.508 -0.0841  0.3470 -0.0441
  655MOL0     C90274   2.918   1.070  10.374  0.1435  0.3097  0.2720
  655MOL0     C90275   2.810   1.109  10.280 -0.1749 -0.7162 -0.4554
  655MOL0     O90276   2.804   1.015  10.173  0.6377 -0.4194  0.3305
  655MOL0     C90277   2.711   1.029  10.076  0.7701 -0.0868 -0.3762
  655MOL0     C90278   2.630   1.145  10.057 -0.2799  0.7724  0.1758
  655MOL0     C90279   2.531   1.144   9.959  1.1026 -0.4376 -0.1696
  655MOL0     C90280   2.454   1.273   9.952 -0.1849 -0.0046  0.5856
  655MOL0     C90281   2.532   1.043   9.861 -0.3151  0.0684  0.5840
  655MOL0     C90282   2.438   1.044   9.748 -0.0772 -0.3632 -0.2283
  655MOL0     O90283   2.313   1.049   9.779  1.0978 -0.4016  0.3563
  655MOL0     C90284   2.224   1.039   9.673  0.3641  0.7297 -0.2241
  655MOL0     C90285   2.149   1.148   9.641  0.2619 -0.7849  0.8768
  655MOL0     C90286   2.048   1.139   9.545  0.0661 -0.1808 -0.3758
  655MOL0     C90287   2.021   1.019   9.478  0.1303 -0.3983  0.1887
  655MOL0     O90288   1.919   0.998   9.391  0.6182 -0.3586 -0.5359
  655MOL0     C90289   1.815   1.098   9.390 -1.3813  0.0903 -0.4046
  655MOL0     C90290   1.693   1.033   9.316  0.1246  0.0389 -0.1868
  655MOL0     C90291   1.557   1.115   9.331  0.7317  0.1536  0.3502
  655MOL0     C90292   1.448   1.058   9.238 -0.1563 -0.2945  0.0197
  655MOL0     C90293   1.329   1.153   9.226 -0.4352 -0.6934 -0.9471
  655MOL0     C90294   1.235   1.109   9.119 -0.1546 -0.4324  0.7040
  655MOL0     C90295   1.118   1.195   9.091 -0.4297  0.4026 -0.0921
  655MOL0     C90296   1.023   1.143   8.991 -0.3252  0.2108  0.3634
  655MOL0    Cl90297   0.908   1.266   8.958  0.2147 -0.1343 -0.0289
  655MOL0     C90298   2.111   0.908   9.500  0.0473  0.4310 -0.3836
  655MOL0     C90299   2.208   0.917   9.600 -0.3403 -0.6789  0.1407
  655MOL0     O90300   2.486   1.048   9.633 -0.6746 -0.3932  0.0049
  655MOL0     C90301   2.610   0.934   9.872  0.9271  0.7171  0.0189
  655MOL0     C90302   2.694   0.921   9.982 -0.1822  0.4867  0.2025
  655MOL0     N90303   3.140   1.333  10.755  0.6327 -0.1187  0.6511
  655MOL0     N90304   3.100   1.415  10.842  0.5632 -0.3153 -0.3464
  655MOL0     C90305   1.945   1.601  10.429 -0.8339  0.3455 -0.1084
  655MOL0     C90306   1.860   1.670  10.345  0.0084 -0.7972  0.2173
  655MOL0     C90307   1.506   1.817  10.118  0.3627 -0.2957  0.1816
  655MOL0     C90308   1.397   1.851  10.199  0.1615 -0.0600 -1.1215
  655MOL0     C90309   1.280   1.907  10.148  0.3295  0.4309  0.5814
  655MOL0     C90310   1.281   1.950  10.007  0.3105 -0.2404 -0.0138
  655MOL0     O90311   1.174   2.005   9.941 -0.6998  0.0835  0.7961
  655MOL0     C90312   1.070   1.915   9.891 -0.2177 -0.4022  0.6429
  655MOL0     C90313   0.938   1.988   9.878 -0.0294  1.3113  0.1359
  655MOL0     C90314   0.819   1.893   9.892  0.5780  0.8659 -0.0099
  655MOL0     C90315   0.702   1.985   9.901  1.4117 -0.5226 -0.5143
  655MOL0     C90316   0.575   1.913   9.854 -0.7317 -1.2569 -0.2049
  655MOL0     C90317   0.467   1.863   9.832  0.8415  0.2145 -0.3466
  655MOL0     C90318   1.396   1.929   9.933 -0.2168 -0.1793 -0.5207
  655MOL0     C90319   1.504   1.855   9.979 -0.1847 -0.1693 -0.3421
  655MOL0     C90320   1.619   1.841   9.885  0.7386  0.2579 -0.7822
  655MOL0     H90321   1.602   1.712  10.563 -1.1466 -1.5222 -1.1974
  655MOL0     H90322   1.756   1.609  10.716 -0.7817 -1.6603 -0.2422
  655MOL0     H90323   2.132   1.633  10.677 -2.7985 -0.2203  2.6981
  655MOL0     H90324   2.158   1.502  10.551  0.9935 -0.2105  0.2876
  655MOL0     H90325   2.140   1.453  10.858  0.4284 -0.7834  0.4023
  655MOL0     H90326   2.177   1.341  10.724 -1.6632  0.5572 -0.1415
  655MOL0     H90327   2.362   1.515  10.660 -0.1638 -1.1085 -0.0299
  655MOL0     H90328   2.330   1.597  10.813 -4.1090  0.2759  1.5554
  655MOL0     H90329   2.362   1.399  10.935 -0.8972  2.2897  0.1450
  655MOL0     H90330   2.427   1.313  10.799 -0.4690 -0.8236  2.2650
  655MOL0     H90331   2.538   1.564  10.941 -2.6135 -3.0689  3.1792
  655MOL0     H90332   2.600   1.538  10.782  0.6713 -0.3070 -0.0574
  655MOL0     H90333   2.631   1.319  10.991  2.2137 -1.7417 -0.0697
  655MOL0     H90334   2.704   1.333  10.830 -0.2029  0.8180 -0.8721
  655MOL0     H90335   2.852   1.393  11.040  1.7412  1.8168 -0.6482
  655MOL0     H90336   2.742   1.522  11.064 -0.1272  1.0317 -0.0880
  655MOL0     H90337   2.821   1.613  10.841 -1.7077  0.8115  1.9317
  655MOL0     H90338   2.949   1.602  10.962  0.5239 -3.4100  2.8104
  655MOL0     H90339   2.836   1.392  10.646  0.4233  0.3211 -0.2273
  655MOL0     H90340   3.091   1.120  10.582 -0.3909 -1.4596 -2.8683
  655MOL0     H90341   3.085   1.246  10.452 -3.8781 -1.3235 -2.3773
  655MOL0     H90342   2.846   1.116  10.590 -1.5757  0.0250 -1.2254
  655MOL0     H90343   2.851   1.253  10.485  0.3159  1.3557  2.6631
  655MOL0     H90344   3.017   1.085  10.330  1.9767 -0.0650  3.9322
  655MOL0     H90345   2.897   0.964  10.395 -0.5405 -0.2643 -2.8187
  655MOL0     H90346   2.717   1.106  10.337 -0.5477  1.8204 -0.8135
  655MOL0     H90347   2.828   1.206  10.234  0.0593 -1.3723 -1.8176
  655MOL0     H90348   2.640   1.221  10.134 -1.9181 -1.2807  2.5902
  655MOL0     H90349   2.377   1.276   9.874  1.4147  2.0463 -1.0278
  655MOL0     H90350   2.519   1.357   9.928 -0.9715  1.2475  2.5487
  655MOL0     H90351   2.405   1.280  10.050  2.3921  2.4992  1.7986
  655MOL0     H90352   2.175   1.240   9.692  1.3217 -2.4819  3.6155
  655MOL0     H90353   1.996   1.229   9.518 -1.6393 -0.5794  1.3571
  655MOL0     H90354   1.797   1.134   9.492 -0.0408  3.6079 -1.2598
  655MOL0     H90355   1.856   1.178   9.326  3.8636 -2.3681 -0.6741
  655MOL0     H90356   1.718   1.036   9.210  1.1617  3.0530  0.0507
  655MOL0     H90357   1.679   0.931   9.354  0.7469  0.4822  1.3117
  655MOL0     H90358   1.576   1.219   9.301  2.7750  0.2307  1.7153
  655MOL0     H90359   1.531   1.137   9.435 -1.5154  0.3300 -0.2048
  655MOL0     H90360   1.411   0.965   9.281  0.7626 -0.5280  0.3337
  655MOL0     H90361   1.493   1.036   9.141  3.0452 -0.9126  1.5148
  655MOL0     H90362   1.282   1.161   9.324  1.2231  0.0281 -0.1731
  655MOL0     H90363   1.353   1.254   9.192 -4.4849 -0.3342 -3.3862
  655MOL0     H90364   1.198   1.014   9.157  0.1046 -1.7108 -2.0042
  655MOL0     H90365   1.286   1.108   9.022 -0.8689 -2.1641  0.3048
  655MOL0     H90366   1.160   1.290   9.059 -0.1106  0.7451  1.2623
  655MOL0     H90367   1.072   1.201   9.190  0.6006  1.8887  0.3236
  655MOL0     H90368   0.973   1.059   9.041  1.5186 -2.0271 -1.3221
  655MOL0     H90369   1.083   1.107   8.907 -2.2783  1.7408 -1.8039
  655MOL0     H90370   2.092   0.813   9.451  0.8225  1.4563 -2.8427
  655MOL0     H90371   2.260   0.824   9.622 -0.4268 -0.9175 -0.6169
  655MOL0     H90372   2.619   0.868   9.786  0.7881 -1.9368  1.9237
  655MOL0     H90373   2.765   0.841  10.000  1.3174  1.9757  1.1853
  655MOL0     H90374   2.044   1.578  10.391  2.3914  4.2905  4.6336
  655MOL0     H90375   1.909   1.703  10.254  1.1206 -1.5605  0.5196
  655MOL0     H90376   1.400   1.831  10.306  0.5056  1.5399 -0.7963
  655MOL0     H90377   1.190   1.922  10.207 -0.5003 -1.7981 -0.0022
  655MOL0     H90378   1.093   1.874   9.792 -3.9934  0.2368 -0.6798
  655MOL0     H90379   1.058   1.831   9.961 -2.1396 -0.5844  0.1564
  655MOL0     H90380   0.929   2.042   9.783  3.7699  1.3057 -0.4158
  655MOL0     H90381   0.929   2.060   9.960 -0.3705 -0.1291  1.4002
  655MOL0     H90382   0.824   1.838   9.798  1.8191 -0.0078  0.5404
  655MOL0     H90383   0.813   1.844   9.990 -2.7500  2.3317  0.6589
  655MOL0     H90384   0.705   2.072   9.834  0.0001 -0.4824 -0.5697
  655MOL0     H90385   0.693   2.014  10.006  0.3964 -3.1427  0.1949
  655MOL0     H90386   0.376   1.810   9.811  1.7134 -1.3676 -0.2670
  655MOL0     H90387   1.392   1.961   9.829  0.8189  0.3724 -0.4063
  655MOL0     H90388   1.717   1.876   9.919  0.3331  2.8908 -2.0555
  655MOL0     H90389   1.636   1.737   9.853  2.2623  1.3353 -3.9522
  655MOL0     H90390   1.588   1.892   9.793 -0.7597 -1.0836 -1.0624
  656MOL0     O90391  10.094   9.003   1.420 -0.4560 -0.4071  0.6839
  656MOL0     C90392   9.998   9.009   1.337 -0.3513 -0.6372  0.3402
  656MOL0     O90393  10.011   9.038   1.201 -0.2959  0.9239  0.4320
  656MOL0     C90394  10.143   9.038   1.152 -0.7358 -1.0053  0.5475
  656MOL0     C90395  10.235   9.142   1.184 -0.3689 -0.0066  0.0924
  656MOL0     C90396  10.370   9.128   1.141 -0.3459  0.2089 -0.2431
  656MOL0     C90397  10.410   9.019   1.065 -0.5616 -0.7949  0.4720
  656MOL0     O90398  10.536   9.008   1.010  0.3174  0.1593  1.0204
  656MOL0     C90399  10.641   9.005   1.109 -0.1751 -0.1491  0.2943
  656MOL0     C90400  10.774   9.036   1.042 -0.5239 -0.2665  0.2238
  656MOL0     C90401  10.892   8.994   1.132 -0.1856  0.0617 -0.5939
  656MOL0     C90402  11.025   9.070   1.091  0.4002  0.3832 -0.2621
  656MOL0     C90403  11.148   9.022   1.179  0.8424 -0.3680  0.0209
  656MOL0     C90404  11.234   8.921   1.114 -1.2363  0.8162  0.0464
  656MOL0     C90405  11.335   8.850   1.213  1.2149  0.9600  0.6596
  656MOL0     C90406  11.422   8.926   1.308  0.3731  0.1953  0.0384
  656MOL0     N90407  11.549   8.974   1.238  0.4761 -0.4056  0.1989
  656MOL0     C90408  11.634   8.886   1.174 -0.0355 -0.3730 -0.2005
  656MOL0     C90409  11.722   8.966   1.123  0.9503 -0.3085  0.4116
  656MOL0     C90410  11.829   8.910   1.035  0.8819  0.4034 -0.1309
  656MOL0     C90411  11.954   9.005   1.031  0.0161  0.3093 -0.1692
  656MOL0     C90412  12.073   8.934   0.971  0.1229  0.5849 -0.0587
  656MOL0     C90413  12.175   9.036   0.922 -0.2676  0.0489 -0.0315
  656MOL0     O90414  12.290   8.968   0.870 -1.3547 -0.2786 -0.3504
  656MOL0     C90415  12.403   9.045   0.856  0.7228 -0.3192  0.0355
  656MOL0     C90416  12.407   9.171   0.797  0.0927 -0.5574  1.0000
  656MOL0     C90417  12.516   9.259   0.800 -0.0058 -0.1623 -0.2105
  656MOL0     C90418  12.499   9.393   0.736 -0.2407  0.1351 -0.5240
  656MOL0     C90419  12.639   9.218   0.856  0.1466  1.1910 -0.3204
  656MOL0     C90420  12.763   9.305   0.863  0.3137 -0.1670 -0.5743
  656MOL0     O90421  12.847   9.251   0.949  0.0975  0.6354  0.0257
  656MOL0     C90422  12.976   9.301   0.978 -0.0862 -0.1936 -0.4522
  656MOL0     C90423  13.007   9.440   0.997 -0.0869  0.1124  0.3777
  656MOL0     C90424  13.136   9.471   1.039 -0.4495 -0.0122 -1.3316
  656MOL0     C90425  13.230   9.370   1.070 -0.6264  0.3115 -0.1156
  656MOL0     O90426  13.361   9.396   1.103 -0.4113  0.8418 -0.2166
  656MOL0     C90427  13.396   9.531   1.109  0.7252  0.6459 -0.3073
  656MOL0     C90428  13.535   9.533   1.178 -0.1870 -0.1330 -0.4378
  656MOL0     C90429  13.637   9.518   1.062  0.1891 -0.1707  0.1378
  656MOL0     C90430  13.777   9.521   1.128 -0.9921 -0.8302 -0.3183
  656MOL0     C90431  13.893   9.496   1.027  0.0318 -0.3471 -1.0100
  656MOL0     C90432  14.020   9.548   1.087  0.0974  0.2748 -0.0233
  656MOL0     C90433  14.120   9.561   0.974 -0.3629  0.8648  0.1119
  656MOL0     C90434  14.259   9.626   1.019 -0.5916  0.6904  0.0176
  656MOL0    Cl90435  14.354   9.659   0.866 -0.0333 -0.0989  0.0276
  656MOL0     C90436  13.196   9.235   1.056  0.2348  1.2355  0.3041
  656MOL0     C90437  13.067   9.204   1.024  1.1770 -0.2534  0.1568
  656MOL0     O90438  12.784   9.404   0.791 -0.8335  0.8795 -0.1297
  656MOL0     C90439  12.637   9.084   0.914 -0.2714 -0.0131  0.1761
  656MOL0     C90440  12.522   9.001   0.918  0.3928  0.2286  0.1813
  656MOL0     N90441  11.696   9.091   1.159 -0.4006 -1.2272 -0.7227
  656MOL0     N90442  11.587   9.100   1.222 -0.9532  0.4973 -0.4701
  656MOL0     C90443  10.325   8.913   1.039  0.2553 -0.5428 -0.3323
  656MOL0     C90444  10.191   8.929   1.082 -0.9501  0.2166 -0.3630
  656MOL0     C90445   9.861   8.971   1.379 -0.0980  0.0082 -0.0390
  656MOL0     C90446   9.774   8.939   1.277  0.3433 -0.7349 -0.0076
  656MOL0     C90447   9.637   8.912   1.302  0.1971 -0.0368 -0.3618
  656MOL0     C90448   9.586   8.913   1.431  0.2864 -0.0275  0.2269
  656MOL0     O90449   9.453   8.883   1.451  0.9855  0.2262  0.1666
  656MOL0     C90450   9.390   8.880   1.584  0.1207  0.4629 -0.1053
  656MOL0     C90451   9.369   9.020   1.652  0.5828  0.7653  0.6839
  656MOL0     C90452   9.295   9.112   1.556  0.6610 -0.2221  0.1818
  656MOL0     C90453   9.326   9.262   1.584  0.1924 -0.0280  0.1819
  656MOL0     C90454   9.472   9.300   1.565  0.4866 -0.1974 -0.2843
  656MOL0     C90455   9.583   9.328   1.542 -0.2692 -0.8756  0.4761
  656MOL0     C90456   9.677   8.947   1.538  0.0178  0.1455 -0.9152
  656MOL0     C90457   9.815   8.968   1.513  0.2538  0.2085  0.0307
  656MOL0     C90458   9.905   8.993   1.633  0.8516 -0.3927  0.3036
  656MOL0     H90459  10.192   9.222   1.244  2.2366  1.0222  0.6843
  656MOL0     H90460  10.437   9.207   1.172  1.1464 -0.7171 -1.0097
  656MOL0     H90461  10.639   8.906   1.156 -2.7760  0.1412  1.0065
  656MOL0     H90462  10.633   9.088   1.181  1.4061  1.5897 -1.4440
  656MOL0     H90463  10.785   8.984   0.947  1.8454  1.9564 -0.8558
  656MOL0     H90464  10.786   9.141   1.013  0.9981 -0.9734 -1.9273
  656MOL0     H90465  10.863   9.011   1.236  2.0539 -1.1363  0.3082
  656MOL0     H90466  10.917   8.887   1.130  1.4852  0.3919  0.5261
  656MOL0     H90467  11.057   9.073   0.987 -1.3672  3.0526 -0.8048
  656MOL0     H90468  11.007   9.172   1.126 -5.3833 -1.6252  4.3388
  656MOL0     H90469  11.098   8.976   1.265  1.5601 -0.4183  0.4258
  656MOL0     H90470  11.209   9.109   1.207 -0.3474 -0.6645  4.3672
  656MOL0     H90471  11.184   8.843   1.055 -0.1072  1.5757 -2.0118
  656MOL0     H90472  11.297   8.978   1.046 -1.7445  1.0817 -0.2038
  656MOL0     H90473  11.396   8.772   1.166 -1.1293  0.0392 -1.0661
  656MOL0     H90474  11.261   8.796   1.272 -1.4194  1.5557 -1.8765
  656MOL0     H90475  11.367   9.016   1.338 -0.0904  0.3951 -1.3439
  656MOL0     H90476  11.442   8.860   1.394 -1.5875  0.2073  0.5642
  656MOL0     H90477  11.645   8.779   1.160  2.0999 -0.7598  3.4382
  656MOL0     H90478  11.783   8.894   0.937 -1.8647 -2.8359  1.4548
  656MOL0     H90479  11.859   8.813   1.076  0.3746  1.2947  2.5688
  656MOL0     H90480  11.930   9.096   0.974  1.9440  0.8641 -0.1822
  656MOL0     H90481  11.973   9.042   1.132  0.2488  0.8043 -0.3891
  656MOL0     H90482  12.127   8.866   1.038 -2.8752  0.1908  2.1476
  656MOL0     H90483  12.046   8.869   0.887 -2.3819 -1.8793  2.4227
  656MOL0     H90484  12.140   9.092   0.835 -1.8778 -1.1738 -0.2123
  656MOL0     H90485  12.212   9.088   1.011  1.1267  0.5953 -0.9039
  656MOL0     H90486  12.319   9.216   0.753  1.9151  3.0260  0.5726
  656MOL0     H90487  12.393   9.412   0.717 -0.7767  0.2031  2.2300
  656MOL0     H90488  12.556   9.386   0.643 -0.4182  0.3324 -0.6474
  656MOL0     H90489  12.539   9.471   0.801 -4.6905  1.5305  0.9073
  656MOL0     H90490  12.932   9.518   0.987  1.4008  1.3294 -2.7720
  656MOL0     H90491  13.163   9.574   1.063 -3.4192  0.1207  2.3272
  656MOL0     H90492  13.391   9.584   1.014  0.2846  0.8886 -0.1515
  656MOL0     H90493  13.324   9.575   1.179 -1.2274 -0.4187 -1.5553
  656MOL0     H90494  13.546   9.631   1.225 -2.0052  0.2576 -0.7555
  656MOL0     H90495  13.529   9.462   1.261 -1.3797  1.1127  0.5805
  656MOL0     H90496  13.630   9.600   0.991  0.3783 -0.9995 -0.8577
  656MOL0     H90497  13.625   9.417   1.022  3.3504  0.0017 -1.5999
  656MOL0     H90498  13.778   9.440   1.202 -1.9887 -0.5707  0.0087
  656MOL0     H90499  13.787   9.619   1.175 -0.4938 -0.9447 -0.1882
  656MOL0     H90500  13.901   9.388   1.018 -1.8285 -0.7013  0.8343
  656MOL0     H90501  13.872   9.542   0.930 -0.5261 -1.1021 -1.2569
  656MOL0     H90502  14.063   9.484   1.165  0.2139  0.5821  0.1656
  656MOL0     H90503  13.999   9.647   1.129 -0.5596  0.6507 -1.1928
  656MOL0     H90504  14.072   9.623   0.898  0.7473  0.8320 -0.6310
  656MOL0     H90505  14.140   9.460   0.938  0.7439  1.1680 -0.1392
  656MOL0     H90506  14.324   9.566   1.083 -1.0481 -0.8177 -0.8689
  656MOL0     H90507  14.247   9.725   1.063 -0.1371  1.1938 -0.9642
  656MOL0     H90508  13.255   9.150   1.090 -3.5650 -2.0263 -0.5116
  656MOL0     H90509  13.029   9.102   1.017  1.0334 -0.1308 -0.9387
  656MOL0     H90510  12.722   9.041   0.966 -1.6929 -0.6716  2.0687
  656MOL0     H90511  12.527   8.909   0.976 -2.9460  1.1710  2.2228
  656MOL0     H90512  10.357   8.831   0.976  1.2248  0.5602 -1.3230
  656MOL0     H90513  10.130   8.840   1.068 -2.5277  1.1738  0.0997
  656MOL0     H90514   9.812   8.916   1.178  3.2321  2.2724  0.2046
  656MOL0     H90515   9.577   8.870   1.222 -0.5478 -1.1916  0.7602
  656MOL0     H90516   9.289   8.839   1.581  0.1469  0.4122 -2.1464
  656MOL0     H90517   9.450   8.814   1.647  2.3387  0.4944 -2.0125
  656MOL0     H90518   9.464   9.060   1.687 -0.5844  0.7977  4.2189
  656MOL0     H90519   9.317   9.008   1.747  1.8321  0.0407  1.3018
  656MOL0     H90520   9.321   9.080   1.454  2.7935 -1.0007  0.9172
  656MOL0     H90521   9.189   9.086   1.564  1.1297 -2.2618  0.3493
  656MOL0     H90522   9.295   9.271   1.688 -0.3124 -0.0788  0.0396
  656MOL0     H90523   9.266   9.325   1.517  1.5104 -1.8031 -2.9040
  656MOL0     H90524   9.685   9.354   1.522 -0.5541  0.0368  0.1754
  656MOL0     H90525   9.641   8.959   1.640  0.2218 -0.5191 -0.7611
  656MOL0     H90526   9.972   8.907   1.629  0.8224 -0.4926  1.5330
  656MOL0     H90527   9.948   9.094   1.636  1.7396 -0.7782  0.5691
  656MOL0     H90528   9.851   8.983   1.728 -2.3335 -1.2359 -1.4490
  657MOL0     O90529  10.475  10.847  10.446 -0.0114  0.1087  0.2143
  657MOL0     C90530  10.492  10.784  10.550  0.7542 -0.0465 -1.4686
  657MOL0     O90531  10.581  10.684  10.581  0.2062 -0.3196 -0.0676
  657MOL0     C90532  10.651  10.629  10.473  0.2155  0.3019  0.4187
  657MOL0     C90533  10.607  10.511  10.405  0.3247 -0.4981  0.1482
  657MOL0     C90534  10.681  10.469  10.292  0.1041 -0.8508  0.4508
  657MOL0     C90535  10.803  10.532  10.259  0.2926  0.1097 -0.7079
  657MOL0     O90536  10.888  10.490  10.159 -0.0040  0.7429 -0.2293
  657MOL0     C90537  10.832  10.387  10.064  0.5833  1.4894  0.4800
  657MOL0     C90538  10.918  10.367   9.946 -0.5918  0.5568  0.3075
  657MOL0     C90539  11.056  10.317   9.983  0.1284  1.1957  0.0352
  657MOL0     C90540  11.145  10.340   9.859  0.4291 -0.1177  0.9440
  657MOL0     C90541  11.273  10.260   9.898 -0.5414 -0.7252 -0.0901
  657MOL0     C90542  11.353  10.335   9.997  0.1895  0.1694 -0.7782
  657MOL0     C90543  11.501  10.282   9.984 -0.5553 -0.1813 -1.6107
  657MOL0     C90544  11.605  10.349  10.080  0.8404  0.5737 -0.0415
  657MOL0     N90545  11.725  10.277  10.107 -0.3558  0.5507  0.0041
  657MOL0     C90546  11.829  10.272  10.028 -0.7878  0.1488 -0.1362
  657MOL0     C90547  11.909  10.179  10.081 -0.4088 -0.2195 -0.2564
  657MOL0     C90548  12.040  10.115  10.033  0.5356 -0.0424  0.9130
  657MOL0     C90549  12.155  10.125  10.136  0.5857  0.1362  0.0698
  657MOL0     C90550  12.288  10.068  10.082  0.6259  0.3370 -0.3489
  657MOL0     C90551  12.403  10.056  10.171 -0.2324  0.1091 -0.1187
  657MOL0     O90552  12.437  10.190  10.201 -0.2014 -0.3457 -0.2020
  657MOL0     C90553  12.564  10.224  10.241  0.4577  1.1874  0.3809
  657MOL0     C90554  12.659  10.126  10.282 -0.2637  0.2758 -0.2440
  657MOL0     C90555  12.787  10.167  10.318  0.0502 -0.7368  0.1990
  657MOL0     C90556  12.867  10.057  10.373 -0.6303 -0.5915 -0.4873
  657MOL0     C90557  12.824  10.308  10.316 -0.2041 -0.3933 -0.8113
  657MOL0     C90558  12.952  10.359  10.352 -0.2470  0.1324 -0.1452
  657MOL0     O90559  13.067  10.290  10.317 -0.3033 -0.5840 -0.4243
  657MOL0     C90560  13.194  10.334  10.360 -0.3006  0.2824  0.5053
  657MOL0     C90561  13.227  10.459  10.413 -0.3421 -0.6023 -0.5066
  657MOL0     C90562  13.360  10.505  10.434  0.1888  0.1918 -0.5312
  657MOL0     C90563  13.462  10.423  10.394  0.0085 -0.3838 -0.0339
  657MOL0     O90564  13.588  10.475  10.421 -1.1173 -0.2353  0.4403
  657MOL0     C90565  13.685  10.369  10.439 -1.0672 -0.6856  0.0816
  657MOL0     C90566  13.819  10.436  10.443 -0.2971  0.4042 -0.3658
  657MOL0     C90567  13.862  10.500  10.319 -0.6161  0.2586 -0.0652
  657MOL0     C90568  14.004  10.565  10.328  0.7893 -0.4800  0.1509
  657MOL0     C90569  14.038  10.647  10.204  1.1162  0.9067 -0.1361
  657MOL0     C90570  14.174  10.685  10.208 -0.7496 -0.7273  0.2266
  657MOL0     C90571  14.210  10.766  10.076 -0.4980 -0.2522  0.0871
  657MOL0     C90572  14.343  10.848  10.101  0.5812  0.7351  0.3831
  657MOL0    Cl90573  14.426  10.920   9.964 -0.3927 -0.1426 -0.3301
  657MOL0     C90574  13.437  10.299  10.336 -0.7892 -1.5461  0.4078
  657MOL0     C90575  13.309  10.260  10.310 -1.1146 -0.1981 -0.0751
  657MOL0     O90576  12.942  10.471  10.399 -0.2607 -0.4358  0.5376
  657MOL0     C90577  12.720  10.400  10.281  0.2362  0.5356  0.1672
  657MOL0     C90578  12.599  10.355  10.235  0.3642  0.0294 -0.6515
  657MOL0     N90579  11.842  10.123  10.189  0.2676 -0.0204  0.4512
  657MOL0     N90580  11.731  10.198  10.211 -0.5406  0.4044  0.9201
  657MOL0     C90581  10.852  10.630  10.339  0.0122  0.2287 -0.6164
  657MOL0     C90582  10.776  10.680  10.440  0.8538  0.3717 -0.4652
  657MOL0     C90583  10.427  10.834  10.672  0.2755  0.1657  0.0156
  657MOL0     C90584  10.434  10.751  10.787 -0.2405 -0.0195 -0.7267
  657MOL0     C90585  10.356  10.783  10.899  0.2493  0.1694  0.0805
  657MOL0     C90586  10.288  10.901  10.903  0.1988  0.9416  0.5910
  657MOL0     O90587  10.231  10.950  11.017 -0.2196  0.4649 -0.6251
  657MOL0     C90588  10.271  10.910  11.155  0.5504 -0.0465  0.5564
  657MOL0     C90589  10.401  10.956  11.201 -0.7536 -1.0958  0.4649
  657MOL0     C90590  10.410  11.109  11.186 -0.4985  0.7726  0.1583
  657MOL0     C90591  10.524  11.168  11.270 -0.7783 -1.2402 -0.6463
  657MOL0     C90592  10.525  11.317  11.247  0.4532 -1.1901  0.6980
  657MOL0     C90593  10.531  11.436  11.219  0.6698 -0.6867  0.7916
  657MOL0     C90594  10.282  10.990  10.793 -0.0150  0.5262  0.7335
  657MOL0     C90595  10.340  10.940  10.672  0.3991  0.0246  0.1886
  657MOL0     C90596  10.322  11.040  10.556  0.0839  0.0186  0.7842
  657MOL0     H90597  10.506  10.482  10.435 -0.1835  0.6460 -0.3837
  657MOL0     H90598  10.638  10.388  10.234  1.8671  0.6932 -3.3819
  657MOL0     H90599  10.738  10.428  10.027 -1.9943  0.4508  5.1190
  657MOL0     H90600  10.817  10.294  10.118  1.5584  0.9344 -0.1681
  657MOL0     H90601  10.885  10.285   9.882  0.9050 -1.1694  1.6412
  657MOL0     H90602  10.937  10.455   9.884  0.6474 -0.1181 -0.2965
  657MOL0     H90603  11.087  10.380  10.067  3.0041  1.0549 -0.8413
  657MOL0     H90604  11.048  10.215  10.020  0.5678  1.5964  1.2848
  657MOL0     H90605  11.101  10.289   9.773 -1.4961  1.9155  0.6190
  657MOL0     H90606  11.157  10.445   9.831 -0.8512 -0.2691 -0.2809
  657MOL0     H90607  11.327  10.261   9.803 -1.0600  2.1518 -0.4437
  657MOL0     H90608  11.255  10.157   9.932 -2.0811  0.6577  3.8041
  657MOL0     H90609  11.363  10.439   9.965 -0.9179 -0.4025 -3.1916
  657MOL0     H90610  11.309  10.343  10.097  0.5391  2.8509 -0.7738
  657MOL0     H90611  11.540  10.295   9.882  3.1404  2.9648 -0.0097
  657MOL0     H90612  11.501  10.177  10.015 -0.5237  0.3964  0.5012
  657MOL0     H90613  11.628  10.451  10.048 -1.1789  0.4575 -2.1079
  657MOL0     H90614  11.553  10.348  10.176 -1.7231 -1.9632 -1.3245
  657MOL0     H90615  11.849  10.330   9.939 -1.5570  1.7328  0.6924
  657MOL0     H90616  12.063  10.166   9.939 -1.6157  1.6969  1.2542
  657MOL0     H90617  12.021  10.010  10.011 -1.8685  0.6433 -0.6567
  657MOL0     H90618  12.175  10.231  10.154  0.5713  0.7351 -2.9248
  657MOL0     H90619  12.118  10.072  10.223 -0.0329  1.9375  0.9641
  657MOL0     H90620  12.259   9.977  10.029 -1.9896 -1.3114  3.4904
  657MOL0     H90621  12.318  10.131   9.997  1.6872  0.1902 -0.0935
  657MOL0     H90622  12.372  10.012  10.267 -3.1730 -0.3470 -1.1831
  657MOL0     H90623  12.486  10.008  10.119 -0.0994  0.1604  0.0467
  657MOL0     H90624  12.638  10.020  10.283  0.0226  0.1947  1.6261
  657MOL0     H90625  12.882   9.980  10.298 -0.3967 -2.8149  1.7328
  657MOL0     H90626  12.816  10.012  10.459  1.3301 -1.7000  0.1523
  657MOL0     H90627  12.970  10.087  10.396 -0.0230  0.6387 -4.1826
  657MOL0     H90628  13.161  10.531  10.461  0.1565 -2.2128  2.9056
  657MOL0     H90629  13.380  10.598  10.486 -1.7672 -0.2937  1.1981
  657MOL0     H90630  13.667  10.307  10.527 -3.1726  0.1749  0.3018
  657MOL0     H90631  13.690  10.302  10.352  2.6684 -2.5124  1.4794
  657MOL0     H90632  13.827  10.512  10.521  0.5108 -1.0791  1.0719
  657MOL0     H90633  13.895  10.359  10.459 -1.4274 -0.4242  1.3525
  657MOL0     H90634  13.796  10.582  10.293  0.7557  1.6115  0.5442
  657MOL0     H90635  13.858  10.426  10.239 -0.9502 -1.9708  1.8897
  657MOL0     H90636  14.069  10.479  10.345 -0.4999 -1.4357  0.4056
  657MOL0     H90637  14.005  10.628  10.418 -1.3872  0.1500 -0.1938
  657MOL0     H90638  14.032  10.594  10.109  2.9801  3.4962 -1.8385
  657MOL0     H90639  13.965  10.727  10.194 -2.5072 -2.0971  0.0191
  657MOL0     H90640  14.255  10.613  10.221 -1.2250 -1.0687  1.4073
  657MOL0     H90641  14.181  10.748  10.297  0.4441 -1.8456  0.9678
  657MOL0     H90642  14.136  10.845  10.056 -0.3113 -0.0293  0.2770
  657MOL0     H90643  14.208  10.705   9.985 -1.6667 -0.6826  0.3795
  657MOL0     H90644  14.410  10.777  10.150  2.2222  1.5444 -0.5843
  657MOL0     H90645  14.328  10.909  10.190 -0.2770 -3.6054  3.5381
  657MOL0     H90646  13.509  10.225  10.305  0.0471  0.2330 -2.1934
  657MOL0     H90647  13.290  10.166  10.257 -1.1864 -0.8326  1.0540
  657MOL0     H90648  12.719  10.509  10.291 -3.8571  0.6742  0.2757
  657MOL0     H90649  12.532  10.423  10.185 -0.6353  0.3150  0.9913
  657MOL0     H90650  10.946  10.683  10.326 -0.7326  1.8697  0.3286
  657MOL0     H90651  10.801  10.779  10.477 -0.8713  1.9948 -3.2927
  657MOL0     H90652  10.497  10.665  10.805 -1.4495 -1.0057 -1.0954
  657MOL0     H90653  10.350  10.715  10.983 -2.6541  0.8402  0.5098
  657MOL0     H90654  10.192  10.948  11.222 -2.4202  1.2602 -3.2900
  657MOL0     H90655  10.264  10.802  11.168  2.7890 -0.1696  0.9884
  657MOL0     H90656  10.486  10.910  11.149 -1.3915 -2.4360  0.5522
  657MOL0     H90657  10.400  10.925  11.306 -3.2839 -0.2016  0.7640
  657MOL0     H90658  10.422  11.135  11.080  0.0480  3.0859  0.7152
  657MOL0     H90659  10.314  11.146  11.223  0.8208  2.6978  1.9119
  657MOL0     H90660  10.625  11.130  11.250  0.3053  1.3497 -0.4662
  657MOL0     H90661  10.507  11.146  11.376 -1.1795  2.0960  0.1089
  657MOL0     H90662  10.541  11.542  11.202 -1.2216 -0.1365  2.6807
  657MOL0     H90663  10.229  11.085  10.794 -1.5704 -0.2927  2.3219
  657MOL0     H90664  10.286  10.997  10.462  1.6613 -1.4178  0.7836
  657MOL0     H90665  10.252  11.117  10.589  0.3847 -0.8998  3.8467
  657MOL0     H90666  10.414  11.097  10.544 -0.1569  0.1853 -0.3928
  658MOL0     O90667   2.707   7.377  11.333  0.7447 -0.1325 -0.4138
  658MOL0     C90668   2.754   7.284  11.396  0.6793  0.4264  0.1613
  658MOL0     O90669   2.870   7.287  11.463 -0.2494  0.0668 -0.3606
  658MOL0     C90670   2.930   7.402  11.502 -0.5325 -0.9304 -0.3773
  658MOL0     C90671   2.956   7.507  11.415 -0.0936 -0.2312  0.1449
  658MOL0     C90672   3.016   7.614  11.467 -0.0494 -0.3540 -0.9979
  658MOL0     C90673   3.056   7.628  11.595  0.1085  0.4608  0.0072
  658MOL0     O90674   3.125   7.740  11.626 -1.1213  0.0769  0.1206
  658MOL0     C90675   3.194   7.761  11.746  1.2459  0.0080  0.0973
  658MOL0     C90676   3.235   7.905  11.767  0.1114 -0.4909  0.4206
  658MOL0     C90677   3.360   7.913  11.860  0.1598  0.0029  0.8151
  658MOL0     C90678   3.397   8.052  11.907  0.4270  0.5813  0.6960
  658MOL0     C90679   3.471   8.127  11.794 -0.3075 -0.2333 -0.2255
  658MOL0     C90680   3.447   8.285  11.823 -0.2762  0.1075 -0.4228
  658MOL0     C90681   3.512   8.374  11.726  0.1318 -0.0598  0.0115
  658MOL0     C90682   3.663   8.397  11.741 -0.2010  0.3936 -0.6477
  658MOL0     N90683   3.731   8.455  11.624 -0.0972 -0.4610  0.2584
  658MOL0     C90684   3.671   8.529  11.518  0.2558 -1.2902 -0.2080
  658MOL0     C90685   3.778   8.576  11.448  0.5597 -0.4723 -0.4673
  658MOL0     C90686   3.772   8.639  11.313 -0.1781 -0.5817 -0.2407
  658MOL0     C90687   3.810   8.549  11.197 -0.2208  0.3726  0.6854
  658MOL0     C90688   3.958   8.515  11.185  0.3301 -0.4035 -0.8154
  658MOL0     C90689   4.052   8.633  11.146 -0.4188 -0.8776  0.4221
  658MOL0     O90690   4.193   8.588  11.156  0.3047  0.9118  0.6049
  658MOL0     C90691   4.287   8.682  11.135 -0.0117 -0.6811 -0.1479
  658MOL0     C90692   4.267   8.820  11.114  0.0136  0.1065 -0.5160
  658MOL0     C90693   4.376   8.908  11.139  0.7310  0.2448  0.3074
  658MOL0     C90694   4.337   9.058  11.131  0.3804  0.1675  0.5798
  658MOL0     C90695   4.510   8.863  11.152 -0.0027 -0.3018 -0.2034
  658MOL0     C90696   4.629   8.962  11.153  0.6721  0.1805 -0.6092
  658MOL0     O90697   4.750   8.904  11.128  0.2231  0.2175 -0.3313
  658MOL0     C90698   4.869   8.970  11.151 -0.1224  0.6060 -0.7537
  658MOL0     C90699   4.967   8.900  11.225  0.4176  0.2715 -0.3275
  658MOL0     C90700   5.084   8.962  11.262 -0.2727  0.4774  0.1536
  658MOL0     C90701   5.109   9.093  11.221 -0.0216 -0.0898  0.3576
  658MOL0     O90702   5.230   9.143  11.254 -0.1427  0.0145 -0.2531
  658MOL0     C90703   5.246   9.286  11.262 -0.4581  0.0973 -0.0750
  658MOL0     C90704   5.400   9.323  11.289 -0.2305  0.2537 -0.2229
  658MOL0     C90705   5.431   9.332  11.448  0.2692  0.2500  1.0591
  658MOL0     C90706   5.563   9.389  11.475  0.0150  0.1182 -0.2947
  658MOL0     C90707   5.589   9.467  11.605  0.3768  0.1086 -0.0682
  658MOL0     C90708   5.745   9.462  11.631  0.8010  0.1882 -0.6922
  658MOL0     C90709   5.773   9.527  11.770 -0.6252 -0.4615 -0.2816
  658MOL0     C90710   5.926   9.520  11.799  0.3774 -0.5747 -0.5333
  658MOL0    Cl90711   5.959   9.500  11.973  0.6504  0.1890  0.6096
  658MOL0     C90712   5.011   9.165  11.147  0.2431  0.2894  0.7774
  658MOL0     C90713   4.893   9.103  11.109  0.3939  0.0131 -0.6905
  658MOL0     O90714   4.616   9.074  11.198 -0.2596 -0.2929  0.3645
  658MOL0     C90715   4.525   8.720  11.146 -0.2251 -0.6985  0.4794
  658MOL0     C90716   4.418   8.635  11.138 -0.3110  0.2899 -0.5510
  658MOL0     N90717   3.887   8.539  11.522  0.1859  0.8517 -0.4166
  658MOL0     N90718   3.861   8.470  11.625  0.5720  0.2466 -0.1915
  658MOL0     C90719   3.025   7.533  11.685  0.3143  0.7579  0.4798
  658MOL0     C90720   2.956   7.419  11.641  0.3022  0.2071 -0.2675
  658MOL0     C90721   2.679   7.150  11.391 -0.2832  0.1774 -0.8308
  658MOL0     C90722   2.769   7.038  11.390  0.3405 -0.4400  0.1270
  658MOL0     C90723   2.713   6.919  11.399 -0.1325  0.8858 -0.3380
  658MOL0     C90724   2.573   6.898  11.397 -0.3276 -0.1231 -0.5056
  658MOL0     O90725   2.524   6.769  11.412 -0.0655  0.6297 -0.2354
  658MOL0     C90726   2.383   6.751  11.431 -0.1072  0.6455 -0.3740
  658MOL0     C90727   2.313   6.749  11.296  0.0346  0.4209 -0.1021
  658MOL0     C90728   2.171   6.702  11.317  0.2534 -0.2183  0.8355
  658MOL0     C90729   2.092   6.720  11.186  0.3630  0.0535 -0.9815
  658MOL0     C90730   2.148   6.644  11.076 -0.2393 -0.5191  1.0239
  658MOL0     C90731   2.203   6.581  10.980 -0.0058  0.0470 -0.7935
  658MOL0     C90732   2.490   7.012  11.401 -1.0221 -0.0238 -0.1109
  658MOL0     C90733   2.543   7.144  11.395  0.5739 -0.2623  0.1209
  658MOL0     C90734   2.443   7.261  11.376 -0.6272  0.6834  0.1046
  658MOL0     H90735   2.928   7.482  11.313  0.2338 -1.1473  0.2687
  658MOL0     H90736   3.042   7.702  11.408 -2.9645  0.7432 -0.7938
  658MOL0     H90737   3.284   7.699  11.743  0.4885 -1.1528  0.5377
  658MOL0     H90738   3.127   7.730  11.827  1.1527  2.8101  1.1999
  658MOL0     H90739   3.264   7.941  11.668 -0.9546  1.8204  0.8647
  658MOL0     H90740   3.157   7.975  11.802  0.0333 -0.6507  0.5668
  658MOL0     H90741   3.333   7.864  11.954 -2.0826  1.3150  0.9260
  658MOL0     H90742   3.448   7.863  11.818 -0.1253 -0.8231  1.1753
  658MOL0     H90743   3.307   8.111  11.927 -0.4639 -0.4902 -0.0452
  658MOL0     H90744   3.472   8.041  11.986  0.0802 -2.1979  0.7362
  658MOL0     H90745   3.434   8.108  11.693  2.9163  0.2078 -1.6352
  658MOL0     H90746   3.577   8.101  11.808 -0.6548 -0.7332  1.9319
  658MOL0     H90747   3.338   8.292  11.821 -0.1627  2.1621 -1.2460
  658MOL0     H90748   3.471   8.312  11.926 -0.1555  3.3603 -1.1900
  658MOL0     H90749   3.462   8.471  11.734  0.4095  0.1185 -0.3717
  658MOL0     H90750   3.490   8.348  11.622  0.1224  2.7794 -0.7838
  658MOL0     H90751   3.685   8.447  11.836  1.0728 -0.4409 -0.4736
  658MOL0     H90752   3.719   8.306  11.764 -1.2211  0.4033  2.3263
  658MOL0     H90753   3.570   8.566  11.504  2.3522  4.5546 -2.8998
  658MOL0     H90754   3.825   8.735  11.312 -1.5079  0.1897 -1.3480
  658MOL0     H90755   3.671   8.680  11.300 -0.0226  0.5868  1.8087
  658MOL0     H90756   3.751   8.458  11.214  0.1380  0.0963  0.4520
  658MOL0     H90757   3.771   8.600  11.109 -0.6288  1.0119  1.2212
  658MOL0     H90758   3.982   8.466  11.281  1.1463 -1.7646 -1.6785
  658MOL0     H90759   3.957   8.435  11.111  1.5699 -0.9234 -0.3051
  658MOL0     H90760   4.031   8.671  11.046  1.6870 -1.4150 -0.2877
  658MOL0     H90761   4.051   8.714  11.219  1.6275 -3.1188  3.1588
  658MOL0     H90762   4.163   8.847  11.097  0.2587  1.2380 -0.3153
  658MOL0     H90763   4.405   9.120  11.071  2.0427  0.3085  2.4998
  658MOL0     H90764   4.330   9.111  11.226  1.2156  1.5797 -0.0993
  658MOL0     H90765   4.244   9.065  11.075  1.4825  2.5080 -1.1181
  658MOL0     H90766   4.952   8.796  11.255  2.0585 -0.1946 -1.0441
  658MOL0     H90767   5.164   8.905  11.309  0.8455  0.8740 -1.1725
  658MOL0     H90768   5.221   9.344  11.173 -0.3526  0.5373  0.1780
  658MOL0     H90769   5.172   9.329  11.331 -1.7209  0.2878 -1.4930
  658MOL0     H90770   5.469   9.257  11.237  0.1178  0.6337 -0.2461
  658MOL0     H90771   5.414   9.424  11.249  0.3549  0.1460 -0.2882
  658MOL0     H90772   5.428   9.233  11.495  0.9305  1.0918  2.9575
  658MOL0     H90773   5.357   9.398  11.494  0.6328  2.7595 -1.6968
  658MOL0     H90774   5.598   9.459  11.398  3.8541 -1.6919 -0.4276
  658MOL0     H90775   5.633   9.305  11.469 -1.9563 -1.5284 -1.5237
  658MOL0     H90776   5.574   9.575  11.599  0.1673  0.2941  2.6370
  658MOL0     H90777   5.538   9.432  11.695  2.9924 -0.4400  1.3150
  658MOL0     H90778   5.804   9.513  11.553  1.8055 -0.4279 -0.3519
  658MOL0     H90779   5.776   9.357  11.634  1.1043  0.3040  1.3689
  658MOL0     H90780   5.722   9.474  11.851 -0.4714 -1.9215 -1.0974
  658MOL0     H90781   5.754   9.635  11.770  0.5757 -0.2231  1.2790
  658MOL0     H90782   5.980   9.609  11.768  2.8334 -2.5296 -2.2947
  658MOL0     H90783   5.983   9.438  11.754 -0.2786 -0.5675 -1.4111
  658MOL0     H90784   5.019   9.273  11.135  0.0461 -0.0439 -5.1635
  658MOL0     H90785   4.818   9.152  11.048 -0.3623 -1.0109 -0.6038
  658MOL0     H90786   4.627   8.683  11.147 -0.4211 -1.2468  0.8500
  658MOL0     H90787   4.434   8.528  11.138 -3.8335 -0.4033 -2.3290
  658MOL0     H90788   3.064   7.535  11.786  2.0791  1.2389 -0.1834
  658MOL0     H90789   2.926   7.345  11.715  1.3242 -0.2133 -0.2557
  658MOL0     H90790   2.877   7.048  11.390  0.7003 -3.2620  1.8299
  658MOL0     H90791   2.775   6.829  11.399  0.7615  1.4611 -2.3367
  658MOL0     H90792   2.379   6.654  11.482  1.2158  0.6917 -0.1423
  658MOL0     H90793   2.339   6.827  11.496  2.6001  1.5331  0.5502
  658MOL0     H90794   2.360   6.669  11.237  0.1417  1.1672 -1.0482
  658MOL0     H90795   2.313   6.846  11.247 -1.5399  2.3102  3.3211
  658MOL0     H90796   2.165   6.596  11.344 -0.8773 -0.7542 -1.2938
  658MOL0     H90797   2.126   6.765  11.394 -0.7812  1.2184 -0.8677
  658MOL0     H90798   2.058   6.822  11.166 -1.7815 -0.3798  0.1003
  658MOL0     H90799   1.995   6.676  11.212 -0.9750  1.7324 -2.7949
  658MOL0     H90800   2.238   6.512  10.907  2.5104 -2.7155  2.6681
  658MOL0     H90801   2.383   7.000  11.394 -1.1365  0.5781  0.5443
  658MOL0     H90802   2.338   7.234  11.391 -0.4674 -0.3851 -0.6091
  658MOL0     H90803   2.467   7.339  11.450 -1.2638  4.6385 -3.4536
  658MOL0     H90804   2.457   7.298  11.274 -0.6726  1.2513  0.3001
  659MOL0     O90805  10.922   8.797  10.732  0.4506  0.2861  0.4538
  659MOL0     C90806  10.879   8.689  10.730  0.2309 -0.2064 -0.1038
  659MOL0     O90807  10.897   8.596  10.829 -0.5622 -0.7880  0.7782
  659MOL0     C90808  10.958   8.630  10.948  0.5971  0.6369 -0.5585
  659MOL0     C90809  10.877   8.708  11.042 -0.3184  1.0820 -0.1994
  659MOL0     C90810  10.925   8.744  11.167  0.0380 -0.1229  0.5630
  659MOL0     C90811  11.056   8.701  11.196 -0.8109 -0.2622  0.7820
  659MOL0     O90812  11.133   8.726  11.306 -0.0628 -0.0147 -0.3873
  659MOL0     C90813  11.088   8.825  11.393  0.3749 -0.4417 -0.7959
  659MOL0     C90814  11.184   8.830  11.514 -0.1112  0.2598 -0.0390
  659MOL0     C90815  11.185   8.954  11.601  0.7307  0.1917  0.9044
  659MOL0     C90816  11.265   8.929  11.726 -0.4354  0.9420 -0.0858
  659MOL0     C90817  11.412   8.882  11.709  0.1208  0.0341  0.4005
  659MOL0     C90818  11.481   8.889  11.847 -0.1557 -0.0345 -0.2426
  659MOL0     C90819  11.631   8.855  11.836 -0.2761 -0.1045 -0.1542
  659MOL0     C90820  11.722   8.905  11.947  0.3660 -0.9641  0.3802
  659MOL0     N90821  11.865   8.885  11.916 -0.6789 -0.6456  0.3969
  659MOL0     C90822  11.961   8.968  11.969  0.6393 -0.3912 -0.0278
  659MOL0     C90823  12.075   8.927  11.909  0.0116 -0.3565 -0.0271
  659MOL0     C90824  12.202   8.992  11.938  0.1552  0.0197  0.0053
  659MOL0     C90825  12.303   8.989  11.819  0.5198  0.8885  0.3947
  659MOL0     C90826  12.434   9.059  11.857 -0.1833  0.1870 -0.4374
  659MOL0     C90827  12.548   9.007  11.766  0.6374  0.1061 -0.7836
  659MOL0     O90828  12.673   9.038  11.823 -1.2201  0.5926 -0.5871
  659MOL0     C90829  12.727   8.964  11.926 -0.5805 -0.5160 -1.1441
  659MOL0     C90830  12.670   8.866  12.003  0.2303  0.7177 -0.6544
  659MOL0     C90831  12.729   8.807  12.114  0.2524  0.3925  0.6939
  659MOL0     C90832  12.655   8.694  12.194 -0.6746  0.5402  0.3346
  659MOL0     C90833  12.855   8.870  12.155  0.3967  0.2440  0.0234
  659MOL0     C90834  12.929   8.830  12.281 -0.6478  0.6837  0.6457
  659MOL0     O90835  13.059   8.777  12.259  0.7786 -0.6766  0.2684
  659MOL0     C90836  13.149   8.748  12.350 -0.3178 -0.9767  0.1936
  659MOL0     C90837  13.238   8.656  12.306 -0.5593 -0.0631 -0.4178
  659MOL0     C90838  13.344   8.624  12.386 -0.2641  0.0168 -0.0236
  659MOL0     C90839  13.359   8.679  12.513  0.6180  0.3899  0.3491
  659MOL0     O90840  13.466   8.657  12.597 -0.3212  0.2593  1.0828
  659MOL0     C90841  13.556   8.540  12.570  0.0975 -0.5361  0.0472
  659MOL0     C90842  13.659   8.537  12.690 -0.2904 -1.1448  0.1595
  659MOL0     C90843  13.739   8.666  12.686  0.9608 -0.3257 -0.1581
  659MOL0     C90844  13.855   8.662  12.790  1.0764  0.3307 -0.7211
  659MOL0     C90845  13.958   8.769  12.768 -0.5144 -0.0502 -0.3773
  659MOL0     C90846  14.059   8.763  12.880 -0.6001 -0.7526 -0.1652
  659MOL0     C90847  14.139   8.887  12.901 -1.5296 -0.3411  0.1557
  659MOL0     C90848  14.256   8.916  12.807 -0.0463  0.4056  0.4662
  659MOL0    Cl90849  14.384   8.794  12.822  0.1558  0.0937 -0.0387
  659MOL0     C90850  13.268   8.779  12.549 -0.0431  0.4790  1.0214
  659MOL0     C90851  13.165   8.814  12.465  0.1609 -0.5031 -0.7799
  659MOL0     O90852  12.876   8.839  12.391 -0.2408 -0.0413 -0.5422
  659MOL0     C90853  12.910   8.979  12.081 -0.2238 -0.0509  0.1306
  659MOL0     C90854  12.850   9.011  11.963  0.5620  0.5172  0.1861
  659MOL0     N90855  12.048   8.827  11.818 -0.3435 -0.0363  0.0233
  659MOL0     N90856  11.917   8.798  11.829 -0.1793 -0.3663  0.7229
  659MOL0     C90857  11.128   8.616  11.107  0.3321  0.2292 -0.2975
  659MOL0     C90858  11.081   8.581  10.982 -0.5229  0.8521 -0.2814
  659MOL0     C90859  10.812   8.650  10.598 -0.7134 -0.1952 -0.4446
  659MOL0     C90860  10.793   8.508  10.579  0.7609  0.4504 -0.0366
  659MOL0     C90861  10.716   8.465  10.471 -0.2443 -0.1424  1.1424
  659MOL0     C90862  10.677   8.566  10.375  0.0864  0.6825 -0.6667
  659MOL0     O90863  10.592   8.540  10.271 -0.8099 -0.2391 -0.6323
  659MOL0     C90864  10.532   8.414  10.242 -0.4694  0.2880  0.3579
  659MOL0     C90865  10.601   8.323  10.139  0.6549 -0.3140 -0.2180
  659MOL0     C90866  10.551   8.371   9.997  0.4691 -0.0881 -0.2020
  659MOL0     C90867  10.582   8.264   9.896 -0.5156 -0.1446  1.3137
  659MOL0     C90868  10.636   8.316   9.769  0.0769  0.5315  0.2682
  659MOL0     C90869  10.689   8.374   9.675 -0.0510 -0.0966 -0.0555
  659MOL0     C90870  10.699   8.697  10.391  0.1053 -0.3167 -0.3267
  659MOL0     C90871  10.773   8.744  10.502 -0.2051  0.6772  0.2707
  659MOL0     C90872  10.797   8.887  10.492  0.0887 -0.6088 -0.2398
  659MOL0     H90873  10.777   8.740  11.015 -0.8992 -0.6645 -0.2458
  659MOL0     H90874  10.870   8.801  11.241 -0.9019 -1.1928  0.7199
  659MOL0     H90875  10.990   8.803  11.436  1.6751 -1.3829  1.9035
  659MOL0     H90876  11.089   8.922  11.342  1.7513 -0.5190 -0.9525
  659MOL0     H90877  11.169   8.736  11.569 -0.2615  1.1709  1.5328
  659MOL0     H90878  11.285   8.821  11.471  0.1706 -0.6041  0.7524
  659MOL0     H90879  11.238   9.027  11.540  0.5284  0.9085  1.5670
  659MOL0     H90880  11.080   8.982  11.612 -0.6881 -3.1572 -2.0607
  659MOL0     H90881  11.257   9.021  11.785 -2.6670  0.0098  1.1972
  659MOL0     H90882  11.223   8.848  11.787  0.8303  1.1861  1.1546
  659MOL0     H90883  11.461   8.950  11.640 -0.4246 -0.0770 -0.1026
  659MOL0     H90884  11.422   8.782  11.664 -2.3215 -0.1649  0.1235
  659MOL0     H90885  11.469   8.988  11.892 -1.6360 -0.8189  1.1989
  659MOL0     H90886  11.443   8.814  11.916 -0.2450 -0.2084 -0.4794
  659MOL0     H90887  11.669   8.892  11.741  0.8388 -2.5894 -0.7643
  659MOL0     H90888  11.653   8.748  11.830  2.1976  0.3244  0.0918
  659MOL0     H90889  11.697   9.010  11.965  0.3325 -0.8515 -0.2897
  659MOL0     H90890  11.699   8.850  12.038  1.4216 -1.5508  0.3134
  659MOL0     H90891  11.935   9.053  12.030 -1.6286 -0.6510 -0.5430
  659MOL0     H90892  12.255   8.938  12.017  1.0179 -0.6507 -1.0059
  659MOL0     H90893  12.187   9.092  11.981 -0.4475 -0.1811  0.2731
  659MOL0     H90894  12.328   8.883  11.811 -1.5320  0.4273 -0.7801
  659MOL0     H90895  12.259   9.017  11.723 -2.5687 -2.1605  0.7008
  659MOL0     H90896  12.428   9.167  11.838 -3.9155 -0.0436 -1.3112
  659MOL0     H90897  12.453   9.035  11.962 -2.4373 -1.7107 -0.3861
  659MOL0     H90898  12.534   8.899  11.753 -1.7223 -0.5018  4.2998
  659MOL0     H90899  12.538   9.054  11.668 -3.1973  3.2924  0.8276
  659MOL0     H90900  12.568   8.833  11.985  1.0156 -3.1777  0.9095
  659MOL0     H90901  12.712   8.601  12.193  0.3913  1.1612  1.0119
  659MOL0     H90902  12.548   8.687  12.175 -0.5625  1.1013 -0.5470
  659MOL0     H90903  12.653   8.725  12.299  0.7380 -0.0819  0.5677
  659MOL0     H90904  13.239   8.614  12.206  3.2013  1.9086 -1.4085
  659MOL0     H90905  13.427   8.564  12.350  0.8758  1.5002  0.0326
  659MOL0     H90906  13.498   8.449  12.552 -1.3514  0.5938 -1.4123
  659MOL0     H90907  13.598   8.574  12.474 -3.4095  0.5960 -1.2712
  659MOL0     H90908  13.597   8.526  12.779 -1.4940  1.5512 -0.2378
  659MOL0     H90909  13.721   8.448  12.676 -2.5633 -2.4142 -2.9896
  659MOL0     H90910  13.673   8.748  12.719  1.0281  0.0559 -0.9520
  659MOL0     H90911  13.768   8.697  12.585  1.5815 -0.3354  0.0158
  659MOL0     H90912  13.908   8.566  12.799 -0.9737 -0.8775 -0.9363
  659MOL0     H90913  13.802   8.692  12.881 -1.1028  1.6766 -2.3654
  659MOL0     H90914  14.006   8.741  12.674  1.6130 -1.5888  1.0701
  659MOL0     H90915  13.918   8.871  12.770  0.2371  0.2485 -0.3083
  659MOL0     H90916  14.124   8.676  12.865 -1.7335 -1.8067  0.7633
  659MOL0     H90917  14.003   8.740  12.971  1.7906 -3.5060  0.7434
  659MOL0     H90918  14.182   8.877  13.001 -5.1714  1.1608  2.0748
  659MOL0     H90919  14.081   8.980  12.896 -0.8131  0.3228  2.6020
  659MOL0     H90920  14.295   9.017  12.823 -3.6793  2.7452 -3.2401
  659MOL0     H90921  14.211   8.922  12.707  1.2863  2.1810 -0.0682
  659MOL0     H90922  13.278   8.835  12.641  0.2412 -0.5952  1.6568
  659MOL0     H90923  13.101   8.899  12.486  1.7397  1.1197 -2.1645
  659MOL0     H90924  13.007   9.020  12.107  0.1249  0.6522 -2.1033
  659MOL0     H90925  12.902   9.085  11.903 -1.7567  1.6204 -0.6215
  659MOL0     H90926  11.218   8.570  11.144 -0.8375 -2.3180 -0.4307
  659MOL0     H90927  11.144   8.511  10.930 -0.6021  2.2384 -2.3457
  659MOL0     H90928  10.819   8.439  10.658  1.7160  0.0800 -0.6600
  659MOL0     H90929  10.706   8.358  10.458  1.1595 -0.2184  0.4401
  659MOL0     H90930  10.518   8.355  10.333 -2.6131  1.6847  1.0133
  659MOL0     H90931  10.436   8.451  10.205  0.1330  2.1439  0.5536
  659MOL0     H90932  10.578   8.218  10.159  1.2745 -0.5123 -0.5213
  659MOL0     H90933  10.709   8.339  10.141  0.4657  1.1545  2.1682
  659MOL0     H90934  10.442   8.373  10.003  0.3868 -3.0355  0.5355
  659MOL0     H90935  10.592   8.468   9.966 -2.5842  1.6718  0.8465
  659MOL0     H90936  10.490   8.207   9.877 -0.1146 -0.2922 -0.3538
  659MOL0     H90937  10.655   8.195   9.940 -0.8010 -0.2604  1.6118
  659MOL0     H90938  10.716   8.440   9.595  2.3952 -0.6192  0.2656
  659MOL0     H90939  10.677   8.763  10.307  1.2436 -1.1766 -1.3391
  659MOL0     H90940  10.734   8.940  10.565 -0.3804 -2.4436  0.7663
  659MOL0     H90941  10.899   8.913  10.523 -0.4094  0.3255  0.6908
  659MOL0     H90942  10.786   8.923  10.390  0.2981 -0.2059 -0.1209
  660MOL0     O90943   7.750   9.264   7.518  0.1614 -0.6745 -0.4949
  660MOL0     C90944   7.781   9.192   7.420  0.8820  0.2798 -0.0811
  660MOL0     O90945   7.904   9.192   7.361  0.7683 -1.2319 -0.1093
  660MOL0     C90946   8.008   9.213   7.442 -0.0509 -1.0910  0.1534
  660MOL0     C90947   8.097   9.316   7.401  0.7225 -0.2323 -0.2534
  660MOL0     C90948   8.212   9.339   7.475 -0.0082 -0.4664 -0.4899
  660MOL0     C90949   8.247   9.260   7.579  0.4368 -0.0746 -0.3929
  660MOL0     O90950   8.374   9.275   7.638 -0.0785 -0.0916 -0.5651
  660MOL0     C90951   8.414   9.182   7.738  0.8927 -0.1688 -0.3985
  660MOL0     C90952   8.530   9.228   7.823 -0.3977  0.0807 -0.0207
  660MOL0     C90953   8.659   9.259   7.741 -0.1595  0.6251  0.5762
  660MOL0     C90954   8.696   9.138   7.653 -0.0830  0.4240 -0.4170
  660MOL0     C90955   8.828   9.174   7.583 -0.7527 -0.9077 -0.3116
  660MOL0     C90956   8.949   9.187   7.680  1.4086 -0.3299  0.8008
  660MOL0     C90957   9.059   9.249   7.600 -0.4111 -0.6266  0.0158
  660MOL0     C90958   9.176   9.280   7.681 -0.6304  0.5498 -0.1912
  660MOL0     N90959   9.292   9.315   7.604  0.1421 -0.4654 -0.6180
  660MOL0     C90960   9.368   9.218   7.550 -1.1206  0.3407  0.2639
  660MOL0     C90961   9.469   9.282   7.485  0.6383 -0.0858  0.4929
  660MOL0     C90962   9.561   9.223   7.380 -1.0982  0.1199 -1.1577
  660MOL0     C90963   9.706   9.231   7.431  0.7990 -0.0671  0.1948
  660MOL0     C90964   9.728   9.116   7.530  0.0594  0.8559  0.6564
  660MOL0     C90965   9.868   9.111   7.579  0.0359  0.5945  0.3464
  660MOL0     O90966   9.961   9.095   7.461  0.1336 -0.2485 -0.2342
  660MOL0     C90967  10.101   9.107   7.476  0.6241 -0.4317 -0.8320
  660MOL0     C90968  10.169   9.176   7.574  0.0175  0.3514 -0.9126
  660MOL0     C90969  10.306   9.203   7.578 -0.7244 -0.3898 -0.3867
  660MOL0     C90970  10.351   9.318   7.673 -0.2081 -0.7115  0.2083
  660MOL0     C90971  10.394   9.134   7.490 -0.3278  0.7857 -0.5394
  660MOL0     C90972  10.541   9.149   7.496 -0.1861 -0.2400  0.1611
  660MOL0     O90973  10.605   9.218   7.598 -0.2114  0.2319 -0.2725
  660MOL0     C90974  10.739   9.228   7.612  0.6381 -1.4900  0.1297
  660MOL0     C90975  10.780   9.350   7.670  0.4436 -0.0524  0.4668
  660MOL0     C90976  10.919   9.374   7.694 -0.5323 -0.0065 -0.0719
  660MOL0     C90977  11.018   9.285   7.652 -0.1055 -0.2314  0.2172
  660MOL0     O90978  11.150   9.296   7.685 -0.5024 -0.0995 -0.3146
  660MOL0     C90979  11.210   9.424   7.725  0.8956 -0.2504 -0.7525
  660MOL0     C90980  11.233   9.427   7.875  1.3989 -0.3808  1.2806
  660MOL0     C90981  11.267   9.288   7.936 -0.0271  0.3986  0.4372
  660MOL0     C90982  11.339   9.307   8.075 -0.3273  0.6893  0.1507
  660MOL0     C90983  11.381   9.173   8.131  0.2271 -0.0259 -0.2270
  660MOL0     C90984  11.257   9.095   8.184 -0.0631  0.5252  0.0906
  660MOL0     C90985  11.299   8.981   8.275 -0.0553 -0.3414 -1.0888
  660MOL0     C90986  11.344   9.020   8.415 -0.0756  0.4732  0.1113
  660MOL0    Cl90987  11.367   8.871   8.509 -0.1647  0.3012 -0.1697
  660MOL0     C90988  10.973   9.164   7.602  0.3852 -0.8064 -0.5277
  660MOL0     C90989  10.835   9.140   7.583 -0.2448  0.2221 -0.0369
  660MOL0     O90990  10.602   9.083   7.410  0.5524 -0.1011  0.0630
  660MOL0     C90991  10.328   9.060   7.392  0.1798  0.2837 -0.8701
  660MOL0     C90992  10.186   9.048   7.380 -0.0041  0.2488 -0.3748
  660MOL0     N90993   9.448   9.418   7.496 -0.5504 -0.3342 -0.4628
  660MOL0     N90994   9.347   9.441   7.575  1.2068  0.8141 -0.2927
  660MOL0     C90995   8.162   9.154   7.609  0.6269 -0.3397  0.0361
  660MOL0     C90996   8.032   9.130   7.549  0.2923 -0.0379 -0.4973
  660MOL0     C90997   7.675   9.118   7.340 -0.5498  0.0863 -0.1434
  660MOL0     C90998   7.704   9.057   7.222 -0.0533 -0.5991  0.0060
  660MOL0     C90999   7.608   9.002   7.135  0.2693 -0.1150 -0.4088
  660MOL0     C91000   7.471   9.014   7.165 -0.0012 -0.0376 -0.2009
  660MOL0     O91001   7.382   8.946   7.087 -0.6046 -0.5139 -0.1457
  660MOL0     C91002   7.235   8.946   7.123 -0.5534  0.5480 -0.2717
  660MOL0     C91003   7.147   8.857   7.042  0.2321 -0.8853  0.4040
  660MOL0     C91004   7.004   8.899   7.000 -0.2493 -0.1387 -0.2270
  660MOL0     C91005   6.898   8.899   7.109 -0.3480 -0.0026 -0.0434
  660MOL0     C91006   6.760   8.885   7.054 -0.4596  0.0282  0.8385
  660MOL0     C91007   6.649   8.854   7.022  0.8370  0.2386 -0.5805
  660MOL0     C91008   7.431   9.075   7.291 -0.4649  0.5430  0.4315
  660MOL0     C91009   7.538   9.120   7.377  0.1626  0.9671 -0.4432
  660MOL0     C91010   7.494   9.171   7.514  0.5242 -0.5258 -0.5856
  660MOL0     H91011   8.063   9.383   7.323 -0.7331 -0.6926 -0.0384
  660MOL0     H91012   8.278   9.422   7.448 -1.4971  1.3001  0.9829
  660MOL0     H91013   8.442   9.082   7.705  2.3940 -0.6666  2.0476
  660MOL0     H91014   8.338   9.172   7.816  1.5754  2.7842  0.8055
  660MOL0     H91015   8.511   9.322   7.875 -0.7375  0.4417 -0.7856
  660MOL0     H91016   8.555   9.166   7.910  1.9956  2.2025  0.9663
  660MOL0     H91017   8.639   9.345   7.676  1.1974 -0.5758 -1.5381
  660MOL0     H91018   8.734   9.292   7.813 -0.8099  0.9671  1.1074
  660MOL0     H91019   8.690   9.050   7.718 -2.2882  1.0840  0.3819
  660MOL0     H91020   8.622   9.126   7.574  0.1440  0.5705 -0.6553
  660MOL0     H91021   8.813   9.268   7.530 -2.1050 -1.0514 -0.2044
  660MOL0     H91022   8.853   9.098   7.508  0.1062  0.3541 -1.3495
  660MOL0     H91023   8.931   9.258   7.762  2.3696  1.6371 -0.6223
  660MOL0     H91024   8.979   9.086   7.711  1.4338 -0.8006 -0.6762
  660MOL0     H91025   9.018   9.338   7.551 -1.9091 -1.8240 -1.0050
  660MOL0     H91026   9.089   9.190   7.513 -0.6701  0.6259 -0.9618
  660MOL0     H91027   9.156   9.351   7.761 -1.3865 -1.5587  1.5997
  660MOL0     H91028   9.197   9.183   7.728  1.4594  0.7117 -0.6807
  660MOL0     H91029   9.355   9.110   7.555  0.9058 -0.0516 -1.3888
  660MOL0     H91030   9.558   9.286   7.290 -0.0786  0.4353 -0.9883
  660MOL0     H91031   9.537   9.119   7.356 -0.9395 -0.0619 -0.5341
  660MOL0     H91032   9.781   9.236   7.351 -1.1306  2.6210 -1.6526
  660MOL0     H91033   9.711   9.327   7.484 -0.3171  1.3914 -2.1969
  660MOL0     H91034   9.662   9.132   7.616  1.6654  1.6371  1.7930
  660MOL0     H91035   9.712   9.016   7.490  1.0635  1.4614 -1.3871
  660MOL0     H91036   9.892   9.206   7.627  0.4472 -0.3696  2.1477
  660MOL0     H91037   9.877   9.030   7.652 -2.5955  0.0150  0.1213
  660MOL0     H91038  10.103   9.225   7.645 -1.0104 -2.0046 -0.1378
  660MOL0     H91039  10.403   9.278   7.761 -0.1313 -1.1199 -0.0209
  660MOL0     H91040  10.265   9.376   7.706 -0.5693 -0.1260 -1.6231
  660MOL0     H91041  10.420   9.387   7.623  1.3488 -1.3666  1.3580
  660MOL0     H91042  10.711   9.424   7.708  2.5892  2.3301  0.0169
  660MOL0     H91043  10.940   9.464   7.750  2.6244 -0.3290 -0.5268
  660MOL0     H91044  11.303   9.436   7.669  0.2268  1.9825 -1.4916
  660MOL0     H91045  11.144   9.504   7.690 -1.2629 -1.5863  0.1065
  660MOL0     H91046  11.310   9.499   7.902 -0.5240  2.5703 -0.4572
  660MOL0     H91047  11.148   9.468   7.930  0.9334 -1.8170  1.6917
  660MOL0     H91048  11.321   9.216   7.874 -0.5923 -0.3482  0.7996
  660MOL0     H91049  11.167   9.243   7.945  0.4719 -0.9030 -0.3325
  660MOL0     H91050  11.287   9.377   8.141 -0.6057  1.5442 -0.9576
  660MOL0     H91051  11.435   9.357   8.060 -1.0207  2.1143  0.3363
  660MOL0     H91052  11.437   9.113   8.059  2.0225  0.5086  0.6745
  660MOL0     H91053  11.448   9.193   8.215  3.0293  1.3181 -2.5892
  660MOL0     H91054  11.207   9.047   8.099  1.4462  3.4635 -2.6533
  660MOL0     H91055  11.186   9.160   8.235  1.0015  0.5771  1.5614
  660MOL0     H91056  11.372   8.921   8.221  0.0952 -0.1680 -1.0785
  660MOL0     H91057  11.214   8.916   8.298  1.5741 -1.3265  2.8923
  660MOL0     H91058  11.271   9.084   8.465  0.6031  1.6718 -0.3900
  660MOL0     H91059  11.443   9.067   8.416  0.7351 -1.1148  1.8465
  660MOL0     H91060  11.044   9.087   7.575  2.4871  1.7229 -2.7019
  660MOL0     H91061  10.815   9.041   7.545  3.2110 -0.2063 -1.1365
  660MOL0     H91062  10.381   9.005   7.314  1.2077  1.4544 -1.0337
  660MOL0     H91063  10.144   8.988   7.301  1.9794  0.4266 -1.6523
  660MOL0     H91064   8.185   9.075   7.679 -0.7683 -0.7598  0.0505
  660MOL0     H91065   7.970   9.046   7.581 -0.0861 -1.2410 -4.0040
  660MOL0     H91066   7.807   9.073   7.192  1.7760 -1.8898  4.7266
  660MOL0     H91067   7.635   8.966   7.036 -0.9669 -0.0286 -0.7937
  660MOL0     H91068   7.213   8.910   7.223  1.6384  0.3929  0.2184
  660MOL0     H91069   7.213   9.053   7.118  2.8626  1.4537  1.0178
  660MOL0     H91070   7.143   8.763   7.098  1.0894  0.4732  2.8850
  660MOL0     H91071   7.198   8.836   6.947  0.6096 -0.0470  0.4139
  660MOL0     H91072   7.005   9.001   6.959 -1.1470  0.9189  2.1854
  660MOL0     H91073   6.976   8.831   6.919 -0.1109  0.8225 -1.1033
  660MOL0     H91074   6.915   8.992   7.164  4.2734  0.1732 -1.3484
  660MOL0     H91075   6.917   8.817   7.178 -3.1549 -1.0654 -0.3986
  660MOL0     H91076   6.544   8.839   7.008  0.1152  2.1307  2.0161
  660MOL0     H91077   7.330   9.077   7.330 -0.5795  2.9265  0.1496
  660MOL0     H91078   7.541   9.130   7.603  0.1856 -1.6127 -0.8950
  660MOL0     H91079   7.500   9.281   7.517  1.5150 -0.5854  2.5926
  660MOL0     H91080   7.391   9.147   7.544  1.2750 -2.0191  0.9023
  661MOL0     O91081  10.851   3.231   4.576  0.0462  0.1294  0.3504
  661MOL0     C91082  10.756   3.251   4.501  0.8220 -0.3380 -0.7108
  661MOL0     O91083  10.765   3.293   4.372 -1.2972  0.6092  0.6562
  661MOL0     C91084  10.889   3.305   4.319  0.3460  0.4031 -0.2100
  661MOL0     C91085  10.928   3.431   4.298 -0.8356  0.5561  0.1089
  661MOL0     C91086  11.054   3.454   4.244  0.1128 -0.3566  0.3813
  661MOL0     C91087  11.137   3.347   4.199  0.2253  0.0719  0.3043
  661MOL0     O91088  11.242   3.384   4.127 -0.0646 -0.3040  1.3801
  661MOL0     C91089  11.351   3.297   4.154  0.1355  0.2987  0.7098
  661MOL0     C91090  11.476   3.338   4.076  1.0828  0.4935  0.1684
  661MOL0     C91091  11.539   3.465   4.134 -0.9223 -0.6264  0.2338
  661MOL0     C91092  11.659   3.500   4.047 -1.0607 -0.2218  0.1692
  661MOL0     C91093  11.733   3.614   4.123  0.0555 -0.1200  0.4014
  661MOL0     C91094  11.858   3.558   4.213  0.6015  0.1975  0.5933
  661MOL0     C91095  11.972   3.503   4.124 -0.0136 -0.5935 -0.0258
  661MOL0     C91096  12.109   3.471   4.183 -0.3087 -0.5022 -0.1443
  661MOL0     N91097  12.183   3.593   4.221 -0.5402  0.2764 -0.1036
  661MOL0     C91098  12.227   3.620   4.343  0.0078 -0.6951 -0.4587
  661MOL0     C91099  12.323   3.720   4.327  0.1897 -0.8989 -0.2919
  661MOL0     C91100  12.391   3.793   4.443 -0.2262  0.9637  0.6122
  661MOL0     C91101  12.484   3.688   4.512 -0.1118 -0.3731  0.2077
  661MOL0     C91102  12.534   3.748   4.640 -0.5194 -0.1602 -1.2052
  661MOL0     C91103  12.605   3.655   4.736  0.2215  0.5578  0.7875
  661MOL0     O91104  12.563   3.520   4.760 -0.0155  0.0804  0.9976
  661MOL0     C91105  12.642   3.437   4.837 -0.2997  0.0088  0.3517
  661MOL0     C91106  12.595   3.313   4.854  0.2465  0.6652 -0.3336
  661MOL0     C91107  12.668   3.213   4.933 -1.0034  0.7513 -0.1019
  661MOL0     C91108  12.600   3.086   4.982  0.5012  0.6730  0.5889
  661MOL0     C91109  12.792   3.250   4.991 -0.2062 -0.1667 -0.0870
  661MOL0     C91110  12.876   3.155   5.062 -0.2412 -0.2581 -0.4791
  661MOL0     O91111  12.944   3.208   5.167 -0.1732 -0.5455 -0.2454
  661MOL0     C91112  13.019   3.124   5.247 -0.7858  0.4682  0.3258
  661MOL0     C91113  13.096   3.018   5.189 -0.1816  0.1702 -1.1767
  661MOL0     C91114  13.177   2.932   5.266  0.7896  0.3263  0.4534
  661MOL0     C91115  13.186   2.949   5.402 -0.1444  0.1715 -0.0606
  661MOL0     O91116  13.268   2.871   5.479  0.0664 -0.0211 -1.0953
  661MOL0     C91117  13.272   2.736   5.450  0.3798  0.5754  0.2297
  661MOL0     C91118  13.354   2.667   5.564 -0.6195  0.6089 -0.0780
  661MOL0     C91119  13.504   2.709   5.565  0.1714  0.3319 -0.2663
  661MOL0     C91120  13.587   2.618   5.471  0.1279  0.0204  1.4139
  661MOL0     C91121  13.737   2.634   5.498  0.8862 -0.4808 -0.6189
  661MOL0     C91122  13.819   2.546   5.409 -0.7034 -0.6924 -0.2603
  661MOL0     C91123  13.952   2.522   5.484 -1.3824 -0.4497 -0.4131
  661MOL0     C91124  13.992   2.371   5.464 -0.1003  0.0057 -0.0455
  661MOL0    Cl91125  14.028   2.324   5.300  0.1757 -0.2787 -0.0389
  661MOL0     C91126  13.101   3.040   5.462  0.1646 -0.1400  0.2280
  661MOL0     C91127  13.021   3.130   5.385  0.1772 -0.5415 -0.6036
  661MOL0     O91128  12.876   3.038   5.034  0.1208  0.5717 -0.9054
  661MOL0     C91129  12.836   3.380   4.970 -0.3279 -0.2632 -0.6979
  661MOL0     C91130  12.770   3.470   4.896 -0.0729 -0.2443  0.2749
  661MOL0     N91131  12.332   3.756   4.197  0.5517 -0.3442  0.3964
  661MOL0     N91132  12.242   3.683   4.137  0.3253 -0.4179 -0.4128
  661MOL0     C91133  11.094   3.213   4.219  0.1031 -0.0275  0.2456
  661MOL0     C91134  10.975   3.191   4.291  0.8725 -1.3340  0.5464
  661MOL0     C91135  10.617   3.248   4.556 -0.3350  0.2475 -0.4304
  661MOL0     C91136  10.517   3.339   4.521  0.0608 -0.3308  0.1780
  661MOL0     C91137  10.393   3.338   4.579  0.5537  0.5564  1.1960
  661MOL0     C91138  10.367   3.239   4.682 -0.0502 -0.2854 -0.6360
  661MOL0     O91139  10.257   3.238   4.761 -0.4937  0.0865 -0.1833
  661MOL0     C91140  10.193   3.363   4.798 -0.1902 -0.7619  0.1635
  661MOL0     C91141  10.105   3.336   4.921  0.3355 -0.3093 -0.4207
  661MOL0     C91142   9.990   3.227   4.875  0.0205  0.2138 -0.2038
  661MOL0     C91143   9.899   3.220   5.005 -0.5812 -0.1543 -0.3775
  661MOL0     C91144   9.767   3.154   4.986  0.0944 -0.7524  0.9529
  661MOL0     C91145   9.654   3.106   4.979  0.0434 -0.0457 -0.8942
  661MOL0     C91146  10.465   3.147   4.714 -0.0670  0.6914  0.8416
  661MOL0     C91147  10.592   3.146   4.658  0.4106  0.3384  0.1034
  661MOL0     C91148  10.679   3.027   4.692  0.0614 -0.1625 -0.0582
  661MOL0     H91149  10.871   3.518   4.328 -2.0598 -0.1927 -0.0005
  661MOL0     H91150  11.073   3.561   4.242  0.1088 -0.3457  0.7784
  661MOL0     H91151  11.337   3.190   4.137  1.5968  0.5704 -3.2391
  661MOL0     H91152  11.378   3.305   4.260  0.5791  0.9903  0.5494
  661MOL0     H91153  11.544   3.253   4.091  1.8422  1.4042  2.3149
  661MOL0     H91154  11.445   3.348   3.972  0.6999 -0.4186  0.1877
  661MOL0     H91155  11.478   3.556   4.142  1.3870  0.8396  2.9977
  661MOL0     H91156  11.574   3.453   4.237  1.3621 -0.2700 -0.4445
  661MOL0     H91157  11.717   3.408   4.038 -0.1723  0.2326  1.0087
  661MOL0     H91158  11.634   3.529   3.945 -0.9798 -0.7686 -0.0090
  661MOL0     H91159  11.666   3.672   4.187 -0.4301  1.3818 -1.3652
  661MOL0     H91160  11.778   3.681   4.049  1.9698  0.7530  2.2653
  661MOL0     H91161  11.903   3.646   4.260  1.3981  0.2652 -0.2664
  661MOL0     H91162  11.823   3.483   4.284  1.6422 -1.3572 -0.4543
  661MOL0     H91163  12.000   3.571   4.043 -0.7550 -0.2090  0.0303
  661MOL0     H91164  11.939   3.415   4.068  1.7369 -1.3829  0.1267
  661MOL0     H91165  12.093   3.413   4.275  2.2220  3.0951  2.8543
  661MOL0     H91166  12.176   3.420   4.113 -0.5622  0.5226 -1.1540
  661MOL0     H91167  12.187   3.570   4.431 -1.6306  2.4597  0.7783
  661MOL0     H91168  12.311   3.826   4.510  0.9795  1.8238  1.6845
  661MOL0     H91169  12.454   3.876   4.408  2.7418 -0.6296  1.8360
  661MOL0     H91170  12.446   3.587   4.528  1.6587 -1.7504 -3.0368
  661MOL0     H91171  12.570   3.673   4.445  1.1052  1.5298  1.2346
  661MOL0     H91172  12.607   3.827   4.618 -0.7624  0.1187 -1.0194
  661MOL0     H91173  12.453   3.794   4.698  1.5253  0.5660  1.2934
  661MOL0     H91174  12.711   3.651   4.707 -0.1219 -0.5052 -0.4336
  661MOL0     H91175  12.604   3.709   4.831 -0.1818  1.2313  0.4106
  661MOL0     H91176  12.498   3.300   4.807  0.1565 -0.0458  0.0290
  661MOL0     H91177  12.598   3.089   5.091  0.8556  0.7216  0.5959
  661MOL0     H91178  12.665   3.006   4.944 -0.4645  0.1690 -0.0430
  661MOL0     H91179  12.500   3.079   4.939 -0.4652 -0.4254  2.8592
  661MOL0     H91180  13.113   3.012   5.082  3.1721 -0.0083 -0.7646
  661MOL0     H91181  13.240   2.858   5.217 -2.3465 -0.3799 -2.9959
  661MOL0     H91182  13.168   2.703   5.446  0.1166  1.2852  0.9802
  661MOL0     H91183  13.314   2.707   5.353 -0.2954  0.9269 -0.1745
  661MOL0     H91184  13.318   2.696   5.663  0.5664  1.7870  0.0475
  661MOL0     H91185  13.349   2.558   5.561  0.2350  0.4522  2.2890
  661MOL0     H91186  13.553   2.703   5.663 -0.4667 -1.3015 -0.0061
  661MOL0     H91187  13.519   2.811   5.530  2.8283  0.3549  0.7183
  661MOL0     H91188  13.556   2.637   5.368 -5.2481 -3.4598  2.0120
  661MOL0     H91189  13.570   2.512   5.490  0.0985 -0.6442 -1.7389
  661MOL0     H91190  13.772   2.738   5.494 -0.7340  0.4244  3.5063
  661MOL0     H91191  13.755   2.601   5.600 -1.6183  0.5433  0.2363
  661MOL0     H91192  13.832   2.597   5.312 -1.5421 -0.2049 -0.1301
  661MOL0     H91193  13.772   2.449   5.392  1.2284 -2.6606  4.0701
  661MOL0     H91194  13.947   2.540   5.592  2.4171 -2.9912  0.3957
  661MOL0     H91195  14.030   2.589   5.446 -1.0835  0.7635  2.1115
  661MOL0     H91196  13.905   2.315   5.500 -0.2720  1.5845  2.2168
  661MOL0     H91197  14.076   2.350   5.530  0.6222 -0.4925 -1.0831
  661MOL0     H91198  13.107   3.047   5.571  1.0469  2.1482  0.1024
  661MOL0     H91199  12.961   3.206   5.433 -1.8976 -3.2629  1.4640
  661MOL0     H91200  12.915   3.413   5.037 -1.9510 -1.2531  1.8786
  661MOL0     H91201  12.810   3.570   4.884  0.8221 -0.7256 -0.8369
  661MOL0     H91202  11.150   3.125   4.188 -0.4667 -0.0987 -0.6057
  661MOL0     H91203  10.943   3.091   4.318  0.8923 -1.0375  1.7012
  661MOL0     H91204  10.534   3.423   4.454 -1.7900 -1.0052 -1.2078
  661MOL0     H91205  10.317   3.407   4.544 -0.0493 -1.2816 -1.3567
  661MOL0     H91206  10.257   3.447   4.825 -1.5641 -0.7480  4.0276
  661MOL0     H91207  10.130   3.409   4.721  1.9554 -0.1097 -1.2774
  661MOL0     H91208  10.062   3.430   4.958 -1.7061 -0.7836 -1.4191
  661MOL0     H91209  10.179   3.293   4.989  0.0411  0.4376  0.3930
  661MOL0     H91210   9.921   3.265   4.798  0.8767 -1.4736 -1.8935
  661MOL0     H91211  10.029   3.131   4.841 -2.6867 -1.0981  0.1634
  661MOL0     H91212   9.885   3.322   5.042 -2.1239 -0.9724  1.4220
  661MOL0     H91213   9.952   3.163   5.081 -1.3169  1.0121  1.0585
  661MOL0     H91214   9.549   3.090   4.993  0.2035 -0.1366  0.2799
  661MOL0     H91215  10.433   3.061   4.772 -0.5257  0.0065 -0.3901
  661MOL0     H91216  10.738   3.052   4.781 -0.8284 -1.0446  0.7972
  661MOL0     H91217  10.615   2.945   4.724 -1.4050  1.6810  2.0466
  661MOL0     H91218  10.736   2.991   4.606 -1.1828 -0.8621 -0.5993
  662MOL0     O91219   5.621  10.697   2.547 -0.1289  0.5878 -0.4199
  662MOL0     C91220   5.576  10.768   2.641 -0.0409 -0.3406 -0.0252
  662MOL0     O91221   5.640  10.790   2.756 -0.4741 -0.0885  0.0670
  662MOL0     C91222   5.760  10.731   2.794  0.8771  0.5809 -1.4027
  662MOL0     C91223   5.874  10.706   2.712  0.0636  0.0485 -0.3373
  662MOL0     C91224   5.995  10.667   2.776 -0.5911 -1.3821 -0.2742
  662MOL0     C91225   6.016  10.670   2.914  0.1042  1.0761  0.5738
  662MOL0     O91226   6.143  10.631   2.954 -0.1043 -0.1560 -0.4574
  662MOL0     C91227   6.175  10.655   3.092 -0.0001  0.5846  0.2121
  662MOL0     C91228   6.312  10.595   3.124 -1.0160 -1.3276  0.1451
  662MOL0     C91229   6.413  10.638   3.025  0.6880 -0.8960 -1.1090
  662MOL0     C91230   6.561  10.622   3.049 -0.3588  0.2854  0.6004
  662MOL0     C91231   6.637  10.687   3.162  0.2894 -0.1606 -0.1234
  662MOL0     C91232   6.786  10.700   3.131  0.3464 -0.6882  0.6895
  662MOL0     C91233   6.863  10.762   3.244 -0.3227 -0.1988  0.9401
  662MOL0     C91234   7.014  10.776   3.209  0.7980 -0.4112  0.4446
  662MOL0     N91235   7.035  10.878   3.110 -0.3112  0.2607 -0.5380
  662MOL0     C91236   7.060  11.012   3.128  1.0566  0.7377 -0.5719
  662MOL0     C91237   7.085  11.053   3.002  1.0853  0.2027  0.5871
  662MOL0     C91238   7.092  11.203   2.974 -0.1579 -0.5004  0.4130
  662MOL0     C91239   7.178  11.230   2.854  0.6674 -0.2076 -0.6191
  662MOL0     C91240   7.160  11.374   2.811  0.4746 -0.1669  0.7180
  662MOL0     C91241   7.255  11.396   2.686 -0.2058  0.1491  1.2998
  662MOL0     O91242   7.395  11.406   2.721 -0.3077 -0.9494 -0.5677
  662MOL0     C91243   7.481  11.466   2.636 -0.0724 -0.4747 -0.0685
  662MOL0     C91244   7.593  11.536   2.696  0.3954  0.7781  0.2513
  662MOL0     C91245   7.691  11.597   2.614 -0.1674  0.2071 -0.2385
  662MOL0     C91246   7.793  11.683   2.688 -0.4789 -0.4413 -0.0472
  662MOL0     C91247   7.678  11.592   2.471  0.6071 -0.2691 -0.1748
  662MOL0     C91248   7.768  11.668   2.377  0.4582 -1.0047  0.6840
  662MOL0     O91249   7.900  11.700   2.415  0.0508 -0.3205  0.0964
  662MOL0     C91250   7.970  11.779   2.327 -0.0006  0.4783 -0.1507
  662MOL0     C91251   7.982  11.751   2.183 -0.2439  1.1925 -0.0362
  662MOL0     C91252   8.081  11.824   2.114  0.0122  0.1991  0.1897
  662MOL0     C91253   8.142  11.938   2.174 -0.0802 -0.7179  0.4258
  662MOL0     O91254   8.229  12.027   2.116 -0.5281  0.2251 -0.0203
  662MOL0     C91255   8.334  11.969   2.029  0.8170 -0.8024  0.0337
  662MOL0     C91256   8.471  12.041   2.027  0.3262 -0.5174  1.1974
  662MOL0     C91257   8.533  12.047   2.168  0.2731  0.1236  0.2876
  662MOL0     C91258   8.682  12.079   2.164 -0.5806 -0.4642  1.2146
  662MOL0     C91259   8.737  12.132   2.301 -0.3155 -0.6634  0.0524
  662MOL0     C91260   8.887  12.150   2.298 -0.3158 -0.3957 -0.1678
  662MOL0     C91261   8.954  12.183   2.427  0.4761  0.0090 -0.5271
  662MOL0     C91262   9.103  12.196   2.424  0.0624 -0.0120  0.1204
  662MOL0    Cl91263   9.151  12.326   2.313 -0.4559 -0.4098 -0.0873
  662MOL0     C91264   8.117  11.958   2.310 -0.6093 -0.5603 -0.4531
  662MOL0     C91265   8.034  11.883   2.391 -0.0519  0.2981  0.1121
  662MOL0     O91266   7.716  11.698   2.269  0.0439 -0.3026 -0.2416
  662MOL0     C91267   7.579  11.504   2.421 -1.0457 -1.0380 -0.0780
  662MOL0     C91268   7.486  11.443   2.503  0.1636 -0.2604  0.3487
  662MOL0     N91269   7.063  10.952   2.913  0.1490 -0.5793 -0.0138
  662MOL0     N91270   7.031  10.847   2.977 -0.1773  0.2926  0.7749
  662MOL0     C91271   5.905  10.704   2.987 -0.6723  0.1418 -0.4217
  662MOL0     C91272   5.781  10.734   2.931  0.1668  0.2395 -0.6918
  662MOL0     C91273   5.442  10.838   2.625  0.1476  0.4426 -0.0368
  662MOL0     C91274   5.398  10.915   2.730  0.7493 -0.0272  0.1589
  662MOL0     C91275   5.265  10.969   2.745  1.0666 -0.2866 -0.0409
  662MOL0     C91276   5.178  10.965   2.643  0.0838 -0.2088  0.7438
  662MOL0     O91277   5.072  11.046   2.656 -0.0373 -0.3564  0.2424
  662MOL0     C91278   4.952  11.008   2.586  0.5015  0.4013 -0.6578
  662MOL0     C91279   4.837  11.089   2.631  0.0986 -0.3885 -0.2128
  662MOL0     C91280   4.719  11.067   2.524 -0.4801 -0.3642 -0.6156
  662MOL0     C91281   4.614  11.170   2.581  0.1135  0.0524  0.5752
  662MOL0     C91282   4.504  11.179   2.481 -0.0310 -0.7688  0.2308
  662MOL0     C91283   4.427  11.189   2.394  0.2332  0.3270 -0.1850
  662MOL0     C91284   5.207  10.884   2.539 -0.1908 -0.3620 -0.2981
  662MOL0     C91285   5.340  10.819   2.525  0.2442 -0.6327  0.9550
  662MOL0     C91286   5.349  10.730   2.409 -0.7215  0.5142 -0.2734
  662MOL0     H91287   5.872  10.720   2.605 -0.1403  2.6645 -0.0639
  662MOL0     H91288   6.082  10.646   2.715  1.1535  3.5248  0.1026
  662MOL0     H91289   6.096  10.607   3.151  0.4314  1.0624  1.1925
  662MOL0     H91290   6.153  10.761   3.103 -4.2831 -0.2496  1.9620
  662MOL0     H91291   6.342  10.632   3.223 -1.5201  0.8699 -0.4691
  662MOL0     H91292   6.297  10.487   3.122 -0.9382 -1.4346  2.3632
  662MOL0     H91293   6.386  10.579   2.937  1.2751 -0.1262 -1.8209
  662MOL0     H91294   6.396  10.744   3.002 -1.8918 -0.9445  0.1652
  662MOL0     H91295   6.578  10.515   3.036 -0.0469  0.6015 -2.1788
  662MOL0     H91296   6.612  10.679   2.969  2.3188  0.6322  2.4142
  662MOL0     H91297   6.619  10.639   3.258  0.9335  1.7037  0.9999
  662MOL0     H91298   6.586  10.782   3.184  0.4834 -0.1690  0.3867
  662MOL0     H91299   6.837  10.604   3.111  1.2272  0.1932 -1.7651
  662MOL0     H91300   6.799  10.765   3.044 -1.2487  0.2522  1.1287
  662MOL0     H91301   6.864  10.683   3.320  4.0199  0.2939  1.6549
  662MOL0     H91302   6.821  10.861   3.267 -2.4522 -0.4889 -1.3064
  662MOL0     H91303   7.074  10.790   3.299  2.1187 -0.4864 -0.3941
  662MOL0     H91304   7.042  10.678   3.169  1.2808 -1.0707  2.2964
  662MOL0     H91305   7.067  11.071   3.219  1.9595  0.8318 -0.6965
  662MOL0     H91306   7.135  11.252   3.062 -0.8338  0.9355 -0.0299
  662MOL0     H91307   6.988  11.235   2.960 -1.5745 -3.5221  2.7685
  662MOL0     H91308   7.281  11.211   2.886  0.5927  1.2946  0.6303
  662MOL0     H91309   7.158  11.165   2.768  1.3737 -1.0868 -0.1436
  662MOL0     H91310   7.060  11.393   2.771  0.3451 -1.5828  0.3184
  662MOL0     H91311   7.186  11.444   2.891  0.8141 -0.3179  0.7441
  662MOL0     H91312   7.241  11.316   2.613  2.2082  0.0007  0.9292
  662MOL0     H91313   7.226  11.488   2.634  1.2639 -0.8077 -1.4042
  662MOL0     H91314   7.599  11.544   2.804 -0.4446  3.8664  0.1467
  662MOL0     H91315   7.897  11.679   2.655 -0.8044  1.6057 -1.4881
  662MOL0     H91316   7.790  11.660   2.795  0.1296  3.1474  0.8900
  662MOL0     H91317   7.757  11.786   2.682 -0.8027 -0.6035 -1.0614
  662MOL0     H91318   7.937  11.667   2.130 -1.2130  1.7349 -0.0971
  662MOL0     H91319   8.113  11.796   2.014  1.5520  0.8320  0.4730
  662MOL0     H91320   8.367  11.871   2.064  2.1231 -0.6027 -0.5783
  662MOL0     H91321   8.287  11.951   1.932 -0.7130 -0.1818  0.6284
  662MOL0     H91322   8.537  11.992   1.955 -0.0103  1.3783 -0.4938
  662MOL0     H91323   8.452  12.142   1.991  0.8218 -1.2067 -1.2164
  662MOL0     H91324   8.524  11.952   2.222  0.7178 -0.2614 -0.2992
  662MOL0     H91325   8.482  12.119   2.233 -2.3226 -1.4299  0.1299
  662MOL0     H91326   8.694  12.152   2.083 -1.9233 -1.3640  0.1453
  662MOL0     H91327   8.736  11.989   2.133 -1.5450 -0.6322 -0.1107
  662MOL0     H91328   8.684  12.226   2.320 -1.6027 -1.4845  0.6355
  662MOL0     H91329   8.714  12.064   2.383 -0.2825  0.3619  0.9242
  662MOL0     H91330   8.917  12.225   2.224  0.3399  1.6377  2.0100
  662MOL0     H91331   8.927  12.057   2.257  0.6413  0.2904 -0.8257
  662MOL0     H91332   8.924  12.117   2.509  4.1750  0.2081  1.1733
  662MOL0     H91333   8.922  12.283   2.455  0.7280 -0.6414  2.3999
  662MOL0     H91334   9.149  12.101   2.395  1.7898  1.1550 -1.1674
  662MOL0     H91335   9.145  12.228   2.520 -2.2831 -2.5882  2.1399
  662MOL0     H91336   8.168  12.042   2.356 -1.5007  0.7147 -1.7378
  662MOL0     H91337   8.023  11.908   2.496  1.2659  3.5267 -0.4112
  662MOL0     H91338   7.559  11.499   2.315 -0.3770  0.8165 -0.3137
  662MOL0     H91339   7.407  11.379   2.463 -0.2222  0.0465  0.6152
  662MOL0     H91340   5.916  10.708   3.095  1.2116  0.3367 -0.5845
  662MOL0     H91341   5.696  10.761   2.993  1.5391  1.1903  0.8624
  662MOL0     H91342   5.463  10.939   2.813 -1.2435 -0.2101  1.8750
  662MOL0     H91343   5.239  11.012   2.842  1.3624  0.6149 -0.3539
  662MOL0     H91344   4.963  11.024   2.478  0.4232 -1.6392 -0.9965
  662MOL0     H91345   4.932  10.903   2.608 -0.3779  0.1734 -2.3485
  662MOL0     H91346   4.869  11.194   2.639  1.3265 -0.7249 -0.4800
  662MOL0     H91347   4.800  11.046   2.724  0.6711 -2.2637 -0.8100
  662MOL0     H91348   4.749  11.101   2.425 -0.1852 -0.4790 -0.5695
  662MOL0     H91349   4.680  10.965   2.526 -2.3858  0.3307  1.0857
  662MOL0     H91350   4.655  11.268   2.604  1.5239 -0.3459 -0.0852
  662MOL0     H91351   4.566  11.128   2.670 -0.9905  0.4190  0.1706
  662MOL0     H91352   4.357  11.194   2.313  0.9439 -0.0751 -0.8376
  662MOL0     H91353   5.140  10.870   2.454 -3.7024  0.5543  2.1253
  662MOL0     H91354   5.291  10.758   2.321 -3.1225 -3.3405 -0.1460
  662MOL0     H91355   5.449  10.701   2.375 -0.7026  0.1486  0.0916
  662MOL0     H91356   5.307  10.640   2.455  0.3523  1.4609  2.8699
  663MOL0     O91357   5.444  10.805   0.821  0.5204 -0.6567 -0.6113
  663MOL0     C91358   5.403  10.708   0.754  0.2050 -0.8954  0.2378
  663MOL0     O91359   5.485  10.628   0.675 -0.0789 -0.5417 -0.4874
  663MOL0     C91360   5.618  10.628   0.677 -1.4783 -0.1181 -0.5822
  663MOL0     C91361   5.689  10.643   0.563  0.4062 -0.8548 -0.2288
  663MOL0     C91362   5.828  10.643   0.563 -0.1623  0.0516 -0.3534
  663MOL0     C91363   5.905  10.614   0.683 -0.4706 -0.8963  0.3040
  663MOL0     O91364   6.044  10.614   0.687  0.4677 -0.3409  0.2712
  663MOL0     C91365   6.124  10.626   0.565  0.5005 -0.2893  0.2586
  663MOL0     C91366   6.273  10.630   0.603  0.2065 -0.4674  0.9512
  663MOL0     C91367   6.293  10.764   0.663 -0.3169 -0.3048  0.6214
  663MOL0     C91368   6.435  10.779   0.717  0.0675  0.5430 -0.1367
  663MOL0     C91369   6.457  10.920   0.779 -0.4818  0.1543 -0.3931
  663MOL0     C91370   6.498  11.023   0.677 -0.0967 -0.3672  0.2477
  663MOL0     C91371   6.630  11.009   0.605 -0.7816  0.4081  1.1766
  663MOL0     C91372   6.750  10.944   0.682  0.1635  0.4148 -0.1166
  663MOL0     N91373   6.842  10.890   0.577  0.1327  0.0045 -0.4362
  663MOL0     C91374   6.938  10.962   0.511 -0.2067  0.7866  0.2538
  663MOL0     C91375   6.988  10.872   0.418 -0.7305  0.1153  0.0368
  663MOL0     C91376   7.090  10.903   0.322  0.4475  0.5084  0.1431
  663MOL0     C91377   7.217  10.856   0.384  0.0237 -0.8829  0.7246
  663MOL0     C91378   7.234  10.703   0.393  0.0612  0.3841 -0.5712
  663MOL0     C91379   7.372  10.661   0.359 -1.0800  0.1846  0.0741
  663MOL0     O91380   7.411  10.532   0.398  0.1230  0.0392 -0.2768
  663MOL0     C91381   7.498  10.502   0.494 -0.1495 -0.0750 -0.1358
  663MOL0     C91382   7.475  10.387   0.565 -0.7286  0.5047 -0.9685
  663MOL0     C91383   7.559  10.343   0.668  0.6934 -0.2545 -0.4859
  663MOL0     C91384   7.530  10.213   0.742 -0.7739  0.7654 -0.0829
  663MOL0     C91385   7.671  10.432   0.697 -0.0822  0.3390  0.1786
  663MOL0     C91386   7.778  10.398   0.787 -0.0098 -0.0285 -0.7716
  663MOL0     O91387   7.749  10.315   0.895  0.3110  0.2147 -1.2597
  663MOL0     C91388   7.854  10.247   0.948  0.3447 -0.3304 -0.5518
  663MOL0     C91389   7.883  10.126   0.896  0.1058  0.7258 -0.1045
  663MOL0     C91390   7.989  10.049   0.940 -0.8406 -0.4384  0.1256
  663MOL0     C91391   8.075  10.101   1.045 -0.5281 -0.8299 -0.1055
  663MOL0     O91392   8.189  10.032   1.090  0.5466  0.0360  0.2012
  663MOL0     C91393   8.247   9.933   1.000  0.2511  0.0555 -0.8862
  663MOL0     C91394   8.347   9.841   1.069 -0.6933 -0.9444 -0.4015
  663MOL0     C91395   8.425   9.748   0.986  0.1794 -0.1837  0.7619
  663MOL0     C91396   8.492   9.636   1.065  0.1413 -0.6366 -0.6250
  663MOL0     C91397   8.569   9.538   0.974  0.5680  0.0703 -0.4439
  663MOL0     C91398   8.681   9.446   1.038 -0.1919  0.7308  0.3048
  663MOL0     C91399   8.625   9.347   1.135 -0.1259  0.2561 -0.7919
  663MOL0     C91400   8.521   9.257   1.063 -0.2847 -1.2699  0.5361
  663MOL0    Cl91401   8.483   9.110   1.155 -0.6075  0.3393  0.0015
  663MOL0     C91402   8.045  10.226   1.101 -0.4107  0.5527  0.1689
  663MOL0     C91403   7.933  10.297   1.053 -0.2083  0.1377 -0.2814
  663MOL0     O91404   7.888  10.451   0.765 -0.5319  0.5403  0.3507
  663MOL0     C91405   7.693  10.554   0.631 -0.2927 -0.1722  0.1506
  663MOL0     C91406   7.599  10.586   0.530 -0.6885  0.2304 -0.8121
  663MOL0     N91407   6.913  10.759   0.426 -0.8066  0.2138 -0.5008
  663MOL0     N91408   6.829  10.769   0.528  0.4055 -0.4712 -0.1632
  663MOL0     C91409   5.828  10.598   0.799  0.0799 -0.1548 -0.0840
  663MOL0     C91410   5.687  10.602   0.798 -0.1087  0.4650  0.1805
  663MOL0     C91411   5.253  10.704   0.737 -0.2841 -1.1514  0.4392
  663MOL0     C91412   5.175  10.802   0.803  0.2920 -0.4455  0.4004
  663MOL0     C91413   5.038  10.813   0.784  0.4704  0.0901 -0.1597
  663MOL0     C91414   4.968  10.726   0.704 -0.3042 -0.5946 -0.1379
  663MOL0     O91415   4.842  10.729   0.667  0.6395  0.8721  0.6653
  663MOL0     C91416   4.752  10.839   0.695 -0.0378 -0.8710 -0.4245
  663MOL0     C91417   4.606  10.778   0.706 -0.5291 -0.0578  0.3185
  663MOL0     C91418   4.560  10.713   0.576  0.4132 -0.6333  0.1690
  663MOL0     C91419   4.603  10.569   0.554  0.3538  0.3252 -0.1277
  663MOL0     C91420   4.516  10.493   0.657 -0.5451  0.2507  0.8509
  663MOL0     C91421   4.426  10.447   0.723  0.8795 -0.4881 -0.5026
  663MOL0     C91422   5.041  10.615   0.652  0.8565 -1.2615 -0.1237
  663MOL0     C91423   5.180  10.602   0.670  0.3296 -0.2072  0.2833
  663MOL0     C91424   5.243  10.486   0.600 -0.3161  1.0121  0.3106
  663MOL0     H91425   5.638  10.657   0.468  1.2571  3.6259 -0.2131
  663MOL0     H91426   5.881  10.662   0.470  0.9541 -1.9309 -0.1908
  663MOL0     H91427   6.093  10.716   0.512 -1.0755 -0.4971  0.7724
  663MOL0     H91428   6.112  10.530   0.514 -0.3827  0.5841 -1.2508
  663MOL0     H91429   6.301  10.548   0.671 -0.5723 -3.4033 -2.0074
  663MOL0     H91430   6.344  10.613   0.522  0.3756 -2.9863  1.5340
  663MOL0     H91431   6.278  10.841   0.588 -2.1853 -0.7504  0.4996
  663MOL0     H91432   6.213  10.786   0.734 -3.1293  0.4723 -2.5494
  663MOL0     H91433   6.439  10.696   0.788 -0.6746  0.9831  0.4424
  663MOL0     H91434   6.517  10.757   0.648  0.9642 -4.0109  1.9999
  663MOL0     H91435   6.514  10.918   0.872 -0.1853 -2.5286 -0.5450
  663MOL0     H91436   6.360  10.954   0.817  0.0770  0.0652  1.1703
  663MOL0     H91437   6.415  11.033   0.607 -1.6625 -1.1286  1.9161
  663MOL0     H91438   6.503  11.117   0.732 -1.4939 -1.2330  1.9640
  663MOL0     H91439   6.667  11.108   0.575  3.0292 -1.7273 -2.1569
  663MOL0     H91440   6.616  10.949   0.514  2.2054 -2.0485  2.1744
  663MOL0     H91441   6.800  11.023   0.739 -1.5515 -0.0254  2.1508
  663MOL0     H91442   6.714  10.870   0.754  0.4801 -0.0095 -0.3860
  663MOL0     H91443   6.968  11.065   0.527  0.3320  0.5191  1.0906
  663MOL0     H91444   7.096  11.011   0.303 -1.1360  0.7225  0.7129
  663MOL0     H91445   7.074  10.852   0.226  1.2242  1.7625 -0.6843
  663MOL0     H91446   7.300  10.902   0.330 -1.6354 -0.3952 -1.5814
  663MOL0     H91447   7.217  10.896   0.486  1.6803  2.9502 -0.5571
  663MOL0     H91448   7.211  10.664   0.492  0.9305 -3.1678 -1.6097
  663MOL0     H91449   7.165  10.659   0.320 -0.3445  1.2919 -0.7497
  663MOL0     H91450   7.401  10.671   0.255  0.9474 -2.5020  0.2614
  663MOL0     H91451   7.437  10.733   0.410  1.2008 -1.0478 -0.9734
  663MOL0     H91452   7.403  10.319   0.521 -1.7116 -0.1699  1.5076
  663MOL0     H91453   7.601  10.133   0.721 -2.1402 -0.6681  0.5417
  663MOL0     H91454   7.436  10.163   0.714 -2.2452  1.4963  3.0818
  663MOL0     H91455   7.528  10.226   0.850  0.5100 -1.0507  0.2042
  663MOL0     H91456   7.826  10.076   0.819 -1.0817 -0.3908  1.4354
  663MOL0     H91457   7.995   9.950   0.897  0.0211 -0.3994  0.1301
  663MOL0     H91458   8.177   9.872   0.942 -1.7891  4.4301 -3.5096
  663MOL0     H91459   8.292  10.002   0.928 -3.0194  2.2389 -1.0295
  663MOL0     H91460   8.418   9.908   1.118 -1.2000  1.8586 -3.1797
  663MOL0     H91461   8.293   9.775   1.138  0.8905 -2.6217 -0.6673
  663MOL0     H91462   8.493   9.813   0.930  0.1385  0.0953  1.0316
  663MOL0     H91463   8.354   9.705   0.915  1.2788  0.6119 -0.8918
  663MOL0     H91464   8.423   9.574   1.124  1.8316 -0.6997  1.3798
  663MOL0     H91465   8.562   9.683   1.135 -0.1846 -2.6919  1.2116
  663MOL0     H91466   8.490   9.484   0.920  0.4293 -0.0682 -0.1063
  663MOL0     H91467   8.619   9.597   0.897  2.9956 -0.5577  0.5764
  663MOL0     H91468   8.765   9.505   1.076  0.2643  0.2784  0.0095
  663MOL0     H91469   8.733   9.398   0.954 -0.2179  0.8805  0.2034
  663MOL0     H91470   8.584   9.403   1.220  0.3047  1.2307 -1.2118
  663MOL0     H91471   8.701   9.286   1.185  2.1149  4.3801  1.3491
  663MOL0     H91472   8.560   9.232   0.964 -1.4221  0.3733 -0.3829
  663MOL0     H91473   8.429   9.312   1.044  0.9606  1.2070  1.2243
  663MOL0     H91474   8.104  10.272   1.179  1.9785 -1.4040 -0.3502
  663MOL0     H91475   7.916  10.394   1.100  1.8950  1.2673 -1.6735
  663MOL0     H91476   7.786  10.608   0.640  1.5562 -3.0265 -0.4471
  663MOL0     H91477   7.627  10.676   0.477 -1.4893 -0.7079 -2.9202
  663MOL0     H91478   5.871  10.572   0.895  0.9918  3.7256  0.7371
  663MOL0     H91479   5.628  10.574   0.885  1.2288 -1.5324  0.5175
  663MOL0     H91480   5.215  10.884   0.862 -1.5745  1.5006 -0.8439
  663MOL0     H91481   4.992  10.898   0.834  0.2918 -0.1443  0.0771
  663MOL0     H91482   4.782  10.896   0.782 -0.8742 -3.2484  1.5458
  663MOL0     H91483   4.745  10.913   0.614 -2.3410  0.1291  0.6080
  663MOL0     H91484   4.534  10.856   0.735 -1.7853  0.0445 -2.7737
  663MOL0     H91485   4.595  10.708   0.789 -0.7087  1.1236  1.3378
  663MOL0     H91486   4.451  10.721   0.581  0.3298 -1.8564  0.8255
  663MOL0     H91487   4.589  10.772   0.489 -0.4356  0.1009  0.3671
  663MOL0     H91488   4.709  10.544   0.566 -0.1153 -1.6574  0.3669
  663MOL0     H91489   4.575  10.547   0.450 -2.6247 -0.6764  0.7832
  663MOL0     H91490   4.367  10.381   0.783  1.0271 -0.8437 -0.7466
  663MOL0     H91491   4.989  10.537   0.599 -0.4148 -2.3417  2.5219
  663MOL0     H91492   5.282  10.499   0.499  1.8060  1.5193  1.1551
  663MOL0     H91493   5.323  10.435   0.654 -1.2052  0.4311  1.1173
  663MOL0     H91494   5.166  10.408   0.593  0.2448  0.3008  1.6510
  664MOL0     O91495   1.365   5.633   8.270 -0.5089  0.2209 -0.5154
  664MOL0     C91496   1.425   5.666   8.372  0.0292  0.1075  0.2516
  664MOL0     O91497   1.543   5.609   8.420  0.2587 -0.0194 -0.1207
  664MOL0     C91498   1.608   5.521   8.342  0.1216 -0.5099  0.1961
  664MOL0     C91499   1.571   5.382   8.341 -0.0274 -0.5500  0.7557
  664MOL0     C91500   1.622   5.304   8.239 -0.4790 -0.3458 -0.4525
  664MOL0     C91501   1.718   5.349   8.152  0.0388 -0.2882  0.1876
  664MOL0     O91502   1.772   5.250   8.067 -0.0272  0.2446 -0.4333
  664MOL0     C91503   1.894   5.267   7.994 -0.5619 -0.5012  0.0522
  664MOL0     C91504   1.946   5.149   7.920  0.2931  0.4766 -0.6411
  664MOL0     C91505   2.064   5.189   7.823 -0.6791 -0.3267  0.1228
  664MOL0     C91506   2.143   5.062   7.774 -0.1541  0.2004 -0.1442
  664MOL0     C91507   2.279   5.098   7.727 -0.0040  0.4570 -0.3270
  664MOL0     C91508   2.374   4.975   7.729  0.4372 -0.1607  0.1461
  664MOL0     C91509   2.504   5.014   7.655 -0.3920 -0.5996  0.9397
  664MOL0     C91510   2.598   4.901   7.624  0.0932  0.4259  0.0056
  664MOL0     N91511   2.714   4.957   7.558 -0.3532 -0.4010 -0.4703
  664MOL0     C91512   2.823   5.017   7.618  0.4671  1.0516  0.0220
  664MOL0     C91513   2.893   5.059   7.515  0.0051 -0.4107 -0.4038
  664MOL0     C91514   3.003   5.161   7.516  0.0405  0.7051 -0.0728
  664MOL0     C91515   3.127   5.101   7.439  0.3896  0.3851  0.0306
  664MOL0     C91516   3.257   5.174   7.467  0.5466  0.2852 -0.1007
  664MOL0     C91517   3.247   5.323   7.408 -0.6538  1.3945 -1.2260
  664MOL0     O91518   3.375   5.377   7.408 -0.0345  0.1647  0.7650
  664MOL0     C91519   3.458   5.376   7.517 -0.2235  0.0832  0.3348
  664MOL0     C91520   3.402   5.416   7.641 -0.2212 -0.4548  0.1206
  664MOL0     C91521   3.475   5.423   7.757 -0.4443 -0.6323 -0.2174
  664MOL0     C91522   3.411   5.491   7.874  0.4717 -0.1044 -0.3593
  664MOL0     C91523   3.614   5.393   7.749  0.2655 -0.0891 -0.5464
  664MOL0     C91524   3.707   5.399   7.869 -0.3064 -0.2154  0.2382
  664MOL0     O91525   3.842   5.359   7.845 -0.1670 -0.2171 -0.0550
  664MOL0     C91526   3.936   5.379   7.940  0.1948  0.2098 -0.0672
  664MOL0     C91527   3.925   5.422   8.076  0.1860 -0.0483  0.2440
  664MOL0     C91528   4.036   5.429   8.149  0.7945 -0.1069  0.3402
  664MOL0     C91529   4.161   5.394   8.101  0.5037  0.4665 -0.2629
  664MOL0     O91530   4.284   5.395   8.170 -0.6992  0.5310  0.1285
  664MOL0     C91531   4.294   5.502   8.265 -0.3431  0.3232  0.3063
  664MOL0     C91532   4.437   5.498   8.335 -0.2661 -0.6716  0.0642
  664MOL0     C91533   4.441   5.574   8.471 -0.3840 -1.3192  1.0835
  664MOL0     C91534   4.439   5.731   8.465  0.0401 -0.0221 -0.6167
  664MOL0     C91535   4.547   5.794   8.383  0.8403  1.2913 -0.5581
  664MOL0     C91536   4.599   5.922   8.435  0.7028 -0.0319  0.5870
  664MOL0     C91537   4.474   6.019   8.460 -0.4225  0.1380 -0.1744
  664MOL0     C91538   4.510   6.165   8.508  0.6772  1.2689  0.2407
  664MOL0    Cl91539   4.625   6.169   8.641 -0.0258  0.4011 -0.4032
  664MOL0     C91540   4.167   5.340   7.973 -0.1327 -0.8528 -0.5536
  664MOL0     C91541   4.060   5.345   7.896 -0.1733  1.1083  1.0421
  664MOL0     O91542   3.656   5.437   7.975 -0.0085 -0.5232 -0.1226
  664MOL0     C91543   3.662   5.334   7.630 -0.1358  0.6367  0.3178
  664MOL0     C91544   3.589   5.329   7.512 -0.0270  0.7718 -0.3847
  664MOL0     N91545   2.845   5.007   7.399 -0.5150  0.0223  0.2285
  664MOL0     N91546   2.742   4.941   7.421  0.2416 -0.8744 -0.5149
  664MOL0     C91547   1.766   5.484   8.166  0.0144  0.0820  0.3025
  664MOL0     C91548   1.703   5.565   8.256 -0.2292  0.2966  0.0677
  664MOL0     C91549   1.357   5.760   8.465  0.3568  0.7748 -0.2052
  664MOL0     C91550   1.396   5.764   8.601 -0.1199 -0.4520  0.5218
  664MOL0     C91551   1.326   5.845   8.693 -0.1050  0.4670 -0.3107
  664MOL0     C91552   1.221   5.920   8.652 -0.8406 -0.5586 -0.4385
  664MOL0     O91553   1.143   6.001   8.738 -0.2097  0.1652 -0.4616
  664MOL0     C91554   1.170   6.023   8.873  0.9057  0.3506 -0.2513
  664MOL0     C91555   1.103   5.912   8.955  0.2053  0.0148  0.3391
  664MOL0     C91556   1.116   5.953   9.102 -0.0243 -0.5745 -1.1733
  664MOL0     C91557   1.080   5.834   9.200 -0.4869 -0.7482 -0.0133
  664MOL0     C91558   0.933   5.830   9.217 -0.7497  0.2557  0.4476
  664MOL0     C91559   0.812   5.833   9.230  0.2422 -0.0969 -0.0294
  664MOL0     C91560   1.193   5.920   8.517  0.5124 -0.6582  0.1002
  664MOL0     C91561   1.253   5.846   8.421 -0.0280 -0.1883 -0.3720
  664MOL0     C91562   1.198   5.858   8.279  0.0420 -0.5835 -0.2883
  664MOL0     H91563   1.491   5.339   8.402  1.2778 -0.2224  2.7945
  664MOL0     H91564   1.593   5.199   8.240 -0.1913 -0.4285  0.5012
  664MOL0     H91565   1.972   5.291   8.066  0.1603 -0.7936 -0.6164
  664MOL0     H91566   1.888   5.354   7.927  3.2994 -1.5867 -1.9873
  664MOL0     H91567   1.973   5.062   7.982 -1.0746  0.1792 -0.4252
  664MOL0     H91568   1.861   5.124   7.856 -0.6256  1.2069  0.2547
  664MOL0     H91569   2.032   5.252   7.739  0.8852  0.7538  0.2984
  664MOL0     H91570   2.127   5.248   7.891  1.5349 -2.3086 -0.0725
  664MOL0     H91571   2.156   4.990   7.856  1.8145  0.9301  0.2384
  664MOL0     H91572   2.096   5.006   7.692 -0.6989  2.6244 -1.5686
  664MOL0     H91573   2.320   5.171   7.798 -0.7288 -0.7667  1.3993
  664MOL0     H91574   2.284   5.150   7.630  0.5316 -0.4004 -0.7681
  664MOL0     H91575   2.397   4.960   7.836  0.0761  1.2290  0.4265
  664MOL0     H91576   2.328   4.882   7.693 -2.8012  0.8410  1.3404
  664MOL0     H91577   2.564   5.082   7.715  0.8658 -1.2300  0.4360
  664MOL0     H91578   2.489   5.061   7.557  1.8072  3.8808  2.4949
  664MOL0     H91579   2.626   4.865   7.723 -1.0670  0.4803  0.3630
  664MOL0     H91580   2.546   4.823   7.568 -0.7597  1.7003 -1.0517
  664MOL0     H91581   2.833   5.050   7.721  0.4702 -2.2780  1.2296
  664MOL0     H91582   3.036   5.178   7.619  2.6090  1.9598 -1.0268
  664MOL0     H91583   2.975   5.262   7.484 -1.0232  0.3455 -0.3263
  664MOL0     H91584   3.124   4.994   7.462 -1.3569  0.7277  1.7196
  664MOL0     H91585   3.095   5.097   7.334  0.4977 -1.6160  0.0304
  664MOL0     H91586   3.265   5.181   7.576 -2.2351  0.3832  0.1655
  664MOL0     H91587   3.342   5.119   7.425 -0.3409 -0.0697 -1.4942
  664MOL0     H91588   3.217   5.307   7.304 -0.1113 -1.5163 -1.0328
  664MOL0     H91589   3.183   5.395   7.461 -0.9608 -0.3529  0.9246
  664MOL0     H91590   3.297   5.445   7.640 -0.8694 -2.4461  2.5156
  664MOL0     H91591   3.305   5.503   7.853  0.3280 -1.5389 -0.5656
  664MOL0     H91592   3.454   5.587   7.904 -1.7918  0.5543  0.9771
  664MOL0     H91593   3.411   5.425   7.962 -0.1699 -2.1149 -1.7896
  664MOL0     H91594   3.835   5.459   8.124  1.2409  1.6367  1.0271
  664MOL0     H91595   4.017   5.456   8.252 -1.2607  0.3232 -0.0967
  664MOL0     H91596   4.266   5.597   8.218 -2.0645 -0.2895  0.0406
  664MOL0     H91597   4.223   5.484   8.345  0.7371  1.7384  1.6490
  664MOL0     H91598   4.467   5.393   8.350  0.0680 -0.3984  1.5106
  664MOL0     H91599   4.498   5.551   8.262 -1.8641  3.9112  1.6961
  664MOL0     H91600   4.534   5.548   8.524  0.9730  0.3143 -0.3958
  664MOL0     H91601   4.352   5.541   8.526  0.8517 -2.3469  2.5807
  664MOL0     H91602   4.459   5.759   8.569 -1.6926  0.1404 -0.2961
  664MOL0     H91603   4.338   5.765   8.444 -0.3709 -0.4283  0.6323
  664MOL0     H91604   4.627   5.720   8.392 -2.4005 -2.2610  3.1165
  664MOL0     H91605   4.511   5.812   8.281  1.9610  1.4039 -0.9513
  664MOL0     H91606   4.676   5.967   8.372  0.1519  0.5278  0.3041
  664MOL0     H91607   4.651   5.895   8.526  0.2233 -0.6222  0.6944
  664MOL0     H91608   4.403   5.975   8.530  0.9741  0.0711  1.2568
  664MOL0     H91609   4.416   6.025   8.367 -2.1270 -2.8207  0.5729
  664MOL0     H91610   4.421   6.219   8.543 -0.4085 -1.6418  2.3591
  664MOL0     H91611   4.564   6.209   8.423  3.7471 -1.3758  0.6590
  664MOL0     H91612   4.262   5.300   7.939  0.4689 -0.5614  0.7382
  664MOL0     H91613   4.065   5.305   7.795  1.8965 -0.4581  1.6839
  664MOL0     H91614   3.764   5.298   7.628 -0.1147  0.5306  2.0703
  664MOL0     H91615   3.618   5.297   7.412 -1.7086  2.2948 -1.4114
  664MOL0     H91616   1.842   5.533   8.106  0.5820  0.9199  1.6451
  664MOL0     H91617   1.735   5.669   8.254 -0.3645  0.3345 -1.1994
  664MOL0     H91618   1.491   5.725   8.636 -1.0574 -1.6395  1.8653
  664MOL0     H91619   1.365   5.843   8.794  1.9266  1.1740 -1.0370
  664MOL0     H91620   1.277   6.037   8.892  0.8465  0.5831 -0.0961
  664MOL0     H91621   1.128   6.117   8.909 -2.2992 -1.4937  1.2842
  664MOL0     H91622   1.166   5.823   8.947  0.3784  0.1526  0.1708
  664MOL0     H91623   0.999   5.885   8.938  0.9676 -2.3471 -1.0248
  664MOL0     H91624   1.219   5.978   9.131 -0.3009 -0.4118 -0.2956
  664MOL0     H91625   1.042   6.033   9.110 -1.9555 -2.3194 -0.8790
  664MOL0     H91626   1.125   5.852   9.298  1.2616  0.9604 -1.0575
  664MOL0     H91627   1.109   5.734   9.164  1.2951  0.2692 -1.5817
  664MOL0     H91628   0.705   5.830   9.238  0.4006 -0.6092  3.3466
  664MOL0     H91629   1.112   5.983   8.481  1.8038 -0.8306 -3.4873
  664MOL0     H91630   1.124   5.781   8.257 -1.5079  0.3497  1.4460
  664MOL0     H91631   1.148   5.954   8.265  1.3943  0.3278  0.8681
  664MOL0     H91632   1.272   5.862   8.198 -0.9385 -0.3872 -1.2030
  665MOL0     O91633   0.493   0.605   5.216 -0.3058  0.3878  0.5637
  665MOL0     C91634   0.455   0.493   5.175 -0.4226 -0.6235 -0.2649
  665MOL0     O91635   0.540   0.405   5.116  0.4439 -0.3441  0.3340
  665MOL0     C91636   0.662   0.443   5.064  0.5687  0.1736  0.1204
  665MOL0     C91637   0.770   0.376   5.121  0.5494 -0.9193  0.5292
  665MOL0     C91638   0.896   0.413   5.086  0.2030  0.8533  0.3671
  665MOL0     C91639   0.926   0.508   4.983  0.4811  0.0261  0.4759
  665MOL0     O91640   1.043   0.545   4.914 -0.3832  1.1362 -1.0297
  665MOL0     C91641   1.158   0.478   4.974  0.6545 -0.4476  0.4651
  665MOL0     C91642   1.289   0.523   4.901  0.2575 -0.2735  0.1203
  665MOL0     C91643   1.323   0.672   4.918  0.7212 -0.1845  0.1203
  665MOL0     C91644   1.432   0.715   4.820 -0.2382  0.0699 -0.1856
  665MOL0     C91645   1.470   0.863   4.841 -1.3367 -0.8638 -0.5677
  665MOL0     C91646   1.535   0.899   4.973  0.5793  0.2849  0.6719
  665MOL0     C91647   1.671   0.846   5.002  1.0659  0.0116  0.0640
  665MOL0     C91648   1.775   0.905   4.906  0.2270 -0.1497  0.2442
  665MOL0     N91649   1.894   0.845   4.939 -0.1776 -0.0078 -0.5063
  665MOL0     C91650   1.983   0.913   5.021 -0.4488  0.1987  0.5976
  665MOL0     C91651   2.071   0.815   5.048 -0.3815  0.6610 -0.1526
  665MOL0     C91652   2.185   0.818   5.156 -0.5685 -0.1866 -0.0325
  665MOL0     C91653   2.128   0.829   5.295 -0.7267 -0.4484  0.1873
  665MOL0     C91654   2.245   0.863   5.391 -0.7731  0.5249  0.4469
  665MOL0     C91655   2.188   0.909   5.523  0.2099  0.1526 -0.3383
  665MOL0     O91656   2.100   0.819   5.593 -0.0561 -0.0305  0.2184
  665MOL0     C91657   2.154   0.704   5.646  0.1041  0.1418 -0.5072
  665MOL0     C91658   2.288   0.665   5.653 -0.6172  0.0501  0.2772
  665MOL0     C91659   2.330   0.541   5.692 -0.2360 -0.3017 -0.5202
  665MOL0     C91660   2.487   0.513   5.693 -0.1649  0.2680  0.4822
  665MOL0     C91661   2.232   0.442   5.720 -0.0790  0.0124 -1.4450
  665MOL0     C91662   2.265   0.311   5.768 -0.3591 -0.7948 -0.2197
  665MOL0     O91663   2.152   0.227   5.780 -0.6219  0.4890 -0.3153
  665MOL0     C91664   2.170   0.088   5.817 -0.0829 -0.4077  0.3176
  665MOL0     C91665   2.110  -0.010   5.734 -0.3695  0.6544 -1.1552
  665MOL0     C91666   2.127  -0.142   5.764  0.8509  0.6511 -0.1294
  665MOL0     C91667   2.181  -0.183   5.886  0.9636  0.3553  0.1038
  665MOL0     O91668   2.201  -0.314   5.923  0.3182  0.3284 -0.2669
  665MOL0     C91669   2.177  -0.425   5.829  0.5401  0.1705 -0.7661
  665MOL0     C91670   2.288  -0.445   5.721 -0.5072  0.3260 -0.2391
  665MOL0     C91671   2.430  -0.450   5.778 -0.3855 -0.1912 -0.0985
  665MOL0     C91672   2.521  -0.489   5.667  0.3514  1.3596  0.4746
  665MOL0     C91673   2.662  -0.482   5.729 -0.8851 -0.0124  0.0312
  665MOL0     C91674   2.765  -0.510   5.615  0.4330  0.2619  0.2863
  665MOL0     C91675   2.909  -0.519   5.672  0.5835  0.1789  0.4929
  665MOL0     C91676   2.954  -0.662   5.683 -0.0844  0.4632  0.1275
  665MOL0    Cl91677   2.917  -0.773   5.538 -0.0902  0.1362 -0.1938
  665MOL0     C91678   2.243  -0.086   5.968 -0.5181 -0.2066 -0.4666
  665MOL0     C91679   2.234   0.049   5.931 -0.3759  0.1831 -0.1094
  665MOL0     O91680   2.377   0.278   5.797 -0.0461 -0.2810 -0.0044
  665MOL0     C91681   2.095   0.480   5.717 -1.6208 -0.4104  0.6436
  665MOL0     C91682   2.062   0.609   5.685 -0.2772  0.2894 -0.1526
  665MOL0     N91683   2.039   0.699   4.980  0.2697  0.4982  0.6692
  665MOL0     N91684   1.935   0.717   4.912 -0.2768  0.3816  0.0252
  665MOL0     C91685   0.819   0.577   4.927 -0.4828  0.4067 -0.1924
  665MOL0     C91686   0.685   0.545   4.973  0.9575  0.6245 -0.0299
  665MOL0     C91687   0.313   0.456   5.176  0.2497 -0.6331  0.7234
  665MOL0     C91688   0.215   0.558   5.170  0.0453  0.8997 -0.1163
  665MOL0     C91689   0.083   0.531   5.147  0.4055 -0.1530  0.5644
  665MOL0     C91690   0.047   0.394   5.145  0.2035  1.1858  0.2713
  665MOL0     O91691  -0.092   0.357   5.160 -0.4811  0.2338 -0.5466
  665MOL0     C91692  -0.200   0.451   5.144  0.0823 -0.1279 -0.0014
  665MOL0     C91693  -0.191   0.468   4.988  0.8691 -0.6932 -0.8845
  665MOL0     C91694  -0.221   0.335   4.918 -0.1432  0.1611  0.5868
  665MOL0     C91695  -0.123   0.301   4.804  0.1109 -0.2768  0.1600
  665MOL0     C91696  -0.191   0.190   4.730  0.2912  0.4103  0.5338
  665MOL0     C91697  -0.257   0.098   4.686 -0.2655  1.2769  0.2604
  665MOL0     C91698   0.139   0.292   5.156 -0.3406  0.1221  1.1786
  665MOL0     C91699   0.269   0.320   5.170 -0.3626 -0.0748 -0.0160
  665MOL0     C91700   0.367   0.203   5.191  0.4794  0.5455  0.2608
  665MOL0     H91701   0.745   0.297   5.191 -0.4060  1.1298  2.6329
  665MOL0     H91702   0.970   0.351   5.136 -2.0972 -2.4061  0.0334
  665MOL0     H91703   1.143   0.370   4.973  0.1472 -0.3821  0.5286
  665MOL0     H91704   1.156   0.501   5.081 -2.3330 -1.1569  0.6561
  665MOL0     H91705   1.375   0.461   4.929  1.1547  1.3808  1.1733
  665MOL0     H91706   1.274   0.508   4.794  0.1885 -1.7059  0.3106
  665MOL0     H91707   1.234   0.736   4.911 -0.6482 -2.1882 -2.6742
  665MOL0     H91708   1.374   0.681   5.015  3.3056  0.8372 -1.2462
  665MOL0     H91709   1.526   0.661   4.832  0.8002  1.9601  0.6315
  665MOL0     H91710   1.407   0.702   4.714 -0.1256 -0.5459 -0.1418
  665MOL0     H91711   1.378   0.921   4.835  1.2707  3.6577 -1.3001
  665MOL0     H91712   1.540   0.892   4.761 -0.9468 -1.2185 -0.3604
  665MOL0     H91713   1.537   1.008   4.980  0.3904  0.4047 -0.9514
  665MOL0     H91714   1.472   0.874   5.059  1.1291  0.2133  1.0671
  665MOL0     H91715   1.668   0.736   5.000  0.2437  0.0115  0.6830
  665MOL0     H91716   1.703   0.872   5.103 -1.3719  0.7714  0.7074
  665MOL0     H91717   1.751   0.886   4.801  2.3435  1.0735 -0.5246
  665MOL0     H91718   1.791   1.012   4.920 -0.1939 -0.2056  1.2517
  665MOL0     H91719   1.982   1.008   5.074 -1.4605 -0.1757  1.2788
  665MOL0     H91720   2.245   0.907   5.135 -0.1270 -0.3833  0.3731
  665MOL0     H91721   2.247   0.728   5.145  0.1461  0.5954 -3.6192
  665MOL0     H91722   2.049   0.904   5.301 -1.5104 -1.3612  2.6926
  665MOL0     H91723   2.070   0.741   5.325  0.3182 -1.3108 -0.2333
  665MOL0     H91724   2.304   0.772   5.405 -0.0402  1.0096  0.5511
  665MOL0     H91725   2.312   0.941   5.355 -2.3399  1.1074 -1.3353
  665MOL0     H91726   2.274   0.927   5.589  0.8479 -1.4020 -0.7049
  665MOL0     H91727   2.137   1.005   5.509 -3.1914 -1.4448  0.2646
  665MOL0     H91728   2.366   0.737   5.631  0.0064 -1.3181 -2.5970
  665MOL0     H91729   2.542   0.595   5.647 -0.5157 -0.6741 -1.7830
  665MOL0     H91730   2.513   0.439   5.616 -0.3736 -0.6682  1.2807
  665MOL0     H91731   2.513   0.472   5.791 -0.4986 -1.7801 -0.2287
  665MOL0     H91732   2.058   0.016   5.642  0.7716  2.8076 -1.2622
  665MOL0     H91733   2.070  -0.208   5.700  0.4315  0.6772  0.2120
  665MOL0     H91734   2.173  -0.513   5.894 -0.1539  0.6948 -0.0736
  665MOL0     H91735   2.081  -0.419   5.778 -0.3383 -0.5662  0.7297
  665MOL0     H91736   2.278  -0.536   5.662  1.3476  1.0031 -1.7094
  665MOL0     H91737   2.289  -0.362   5.649  0.6152  1.2783  0.8177
  665MOL0     H91738   2.439  -0.530   5.852  0.4450 -2.0990 -2.1180
  665MOL0     H91739   2.459  -0.352   5.816  0.4089 -1.1719  1.9663
  665MOL0     H91740   2.514  -0.422   5.581  1.8088 -0.5542 -1.2484
  665MOL0     H91741   2.498  -0.591   5.634  3.3749  1.1539 -1.3645
  665MOL0     H91742   2.665  -0.383   5.777 -0.3761 -1.8194  4.1402
  665MOL0     H91743   2.668  -0.551   5.814 -0.9581 -0.3803 -0.2622
  665MOL0     H91744   2.761  -0.421   5.551  0.4428  2.7329  3.4700
  665MOL0     H91745   2.740  -0.595   5.552 -0.6112  0.4889  0.3865
  665MOL0     H91746   2.920  -0.462   5.764  3.1261 -0.8745  0.9085
  665MOL0     H91747   2.982  -0.483   5.599  2.8485 -2.7004  1.1566
  665MOL0     H91748   2.883  -0.687   5.762 -0.1724 -1.8167 -0.6120
  665MOL0     H91749   3.054  -0.681   5.722 -0.8104 -0.2390  1.7708
  665MOL0     H91750   2.304  -0.124   6.049 -1.6926  1.6831  1.4254
  665MOL0     H91751   2.271   0.122   6.002  0.9495 -1.5792  1.1070
  665MOL0     H91752   2.016   0.415   5.752 -3.3945  0.8871 -0.7936
  665MOL0     H91753   1.956   0.634   5.691 -0.3814 -0.4593  3.1591
  665MOL0     H91754   0.827   0.651   4.849 -0.5859 -1.6197 -2.2099
  665MOL0     H91755   0.603   0.595   4.921  2.8299  3.1297 -0.7280
  665MOL0     H91756   0.235   0.664   5.178 -0.4799  0.9832  0.1074
  665MOL0     H91757   0.012   0.612   5.138 -1.7283 -1.9418  0.3746
  665MOL0     H91758  -0.300   0.417   5.173 -0.1769  2.6183  2.9483
  665MOL0     H91759  -0.174   0.540   5.202  2.2873 -0.7273 -0.0068
  665MOL0     H91760  -0.097   0.507   4.947 -0.9533  3.0147 -1.9993
  665MOL0     H91761  -0.265   0.545   4.963 -0.5154 -1.3481  1.0249
  665MOL0     H91762  -0.220   0.252   4.990 -1.3634  0.1990  0.6633
  665MOL0     H91763  -0.323   0.349   4.881 -0.5182 -1.0257  1.1109
  665MOL0     H91764  -0.029   0.259   4.840  0.3795  0.5734  0.4566
  665MOL0     H91765  -0.114   0.392   4.743 -1.1194  0.5581  1.1654
  665MOL0     H91766  -0.321   0.022   4.646  0.9141 -0.0113  0.7235
  665MOL0     H91767   0.109   0.190   5.177  2.2053 -0.5286  2.0422
  665MOL0     H91768   0.321   0.120   5.244 -0.7217  1.7152  1.1202
  665MOL0     H91769   0.411   0.179   5.094  2.4243  2.6811  0.5262
  665MOL0     H91770   0.451   0.229   5.256 -0.7115  1.8356  1.3444
  666MOL0     O91771   9.451   9.077  10.005  0.1471 -0.0271  0.2468
  666MOL0     C91772   9.389   9.065  10.110 -1.0626 -0.2769  0.3137
  666MOL0     O91773   9.401   8.956  10.187 -0.6543  0.9642  0.5509
  666MOL0     C91774   9.467   8.835  10.157 -0.0115  0.0103 -0.2647
  666MOL0     C91775   9.487   8.757  10.274 -0.0234 -0.2364  0.0718
  666MOL0     C91776   9.559   8.639  10.259  0.2258  0.4732  0.8207
  666MOL0     C91777   9.577   8.585  10.128  0.5863 -0.6500  0.3663
  666MOL0     O91778   9.645   8.471  10.100  0.1894  0.5852 -0.4703
  666MOL0     C91779   9.664   8.369  10.202  0.8617  0.3296  0.5466
  666MOL0     C91780   9.734   8.241  10.137  0.4159 -0.5152  0.2728
  666MOL0     C91781   9.884   8.257  10.131 -0.3199 -0.0708 -0.3760
  666MOL0     C91782   9.955   8.124  10.114  0.0208 -0.6535 -0.0538
  666MOL0     C91783  10.109   8.119  10.100  0.1219 -0.3443 -0.5098
  666MOL0     C91784  10.195   8.219  10.183 -0.0774  0.5492 -0.1256
  666MOL0     C91785  10.190   8.191  10.342  0.6068 -0.1418  0.7167
  666MOL0     C91786  10.264   8.057  10.382  0.1098 -0.4158 -0.4289
  666MOL0     N91787  10.408   8.048  10.355  0.3184 -0.6330 -0.6628
  666MOL0     C91788  10.472   7.977  10.259  0.3553 -0.4476  0.3284
  666MOL0     C91789  10.599   7.979  10.285 -0.2551 -0.7687  0.0271
  666MOL0     C91790  10.711   7.933  10.193 -0.1519  1.0256  0.2899
  666MOL0     C91791  10.741   7.780  10.209 -0.2913  0.6910 -0.2598
  666MOL0     C91792  10.618   7.687  10.191 -0.1886 -1.1060  0.2278
  666MOL0     C91793  10.667   7.544  10.144  0.9274  0.1250  0.1518
  666MOL0     O91794  10.578   7.441  10.188 -0.4402 -0.3969 -0.3400
  666MOL0     C91795  10.443   7.447  10.169  0.8220 -0.4047 -0.7699
  666MOL0     C91796  10.380   7.518  10.066 -0.6668 -0.0253 -0.0836
  666MOL0     C91797  10.240   7.516  10.050  0.3319 -0.8430 -0.5329
  666MOL0     C91798  10.180   7.603   9.942 -0.6331  0.3541 -1.3161
  666MOL0     C91799  10.166   7.446  10.147  0.1663  0.5038 -0.0875
  666MOL0     C91800  10.021   7.451  10.164  1.2741  0.9422 -0.4075
  666MOL0     O91801   9.953   7.358  10.241  0.5866 -0.1016  0.3925
  666MOL0     C91802   9.813   7.349  10.252 -0.6321 -0.2243  0.4979
  666MOL0     C91803   9.763   7.225  10.306 -0.2792 -0.2856  0.0520
  666MOL0     C91804   9.624   7.202  10.319  0.8808  0.2456 -0.4469
  666MOL0     C91805   9.526   7.291  10.278 -1.0247 -1.1318  0.7777
  666MOL0     O91806   9.392   7.274  10.259  0.3485 -0.0865  0.2253
  666MOL0     C91807   9.322   7.189  10.346 -0.2641  0.6469 -0.4180
  666MOL0     C91808   9.167   7.214  10.350 -0.1342 -0.1775 -0.6742
  666MOL0     C91809   9.101   7.188  10.220  0.2523  0.1906  0.5919
  666MOL0     C91810   8.954   7.225  10.236 -0.4420  0.3719  0.2174
  666MOL0     C91811   8.879   7.250  10.100 -0.6509  0.3719 -0.0433
  666MOL0     C91812   8.904   7.144   9.996  1.0297  0.3927 -0.2664
  666MOL0     C91813   8.833   7.008  10.039  0.0240  0.1560 -0.2446
  666MOL0     C91814   8.680   7.014  10.057 -0.3142  0.3249 -0.2703
  666MOL0    Cl91815   8.599   7.149   9.971  0.2285 -0.1226  0.0124
  666MOL0     C91816   9.574   7.416  10.229 -0.2250 -0.2897  1.0816
  666MOL0     C91817   9.716   7.448  10.219 -0.4690  0.0247 -0.1221
  666MOL0     O91818   9.974   7.558  10.130 -0.0181  0.4076 -0.1908
  666MOL0     C91819  10.228   7.368  10.249  0.5736  0.3469 -0.1792
  666MOL0     C91820  10.364   7.367  10.252  0.1989  0.7468 -1.4655
  666MOL0     N91821  10.610   8.055  10.409  0.9197 -0.3040  0.0575
  666MOL0     N91822  10.497   8.096  10.451 -0.0059 -0.7139  0.3512
  666MOL0     C91823   9.543   8.654  10.013  0.2122  0.1897 -0.6431
  666MOL0     C91824   9.501   8.790  10.030  0.0712  0.4280 -0.3444
  666MOL0     C91825   9.295   9.179  10.139 -0.1256  0.7203 -0.4517
  666MOL0     C91826   9.226   9.170  10.256  0.0325 -1.0721 -1.1929
  666MOL0     C91827   9.141   9.265  10.297 -0.6034  0.1612 -0.8417
  666MOL0     C91828   9.119   9.384  10.232 -0.8072  0.2488 -0.5111
  666MOL0     O91829   9.039   9.479  10.288 -0.0397 -0.1203 -0.0943
  666MOL0     C91830   9.008   9.593  10.209 -0.4751 -0.2666 -0.6238
  666MOL0     C91831   8.884   9.657  10.268  0.5679 -0.2339  0.6104
  666MOL0     C91832   8.815   9.756  10.174 -0.7554 -0.5066  0.2303
  666MOL0     C91833   8.877   9.896  10.153  0.2322 -0.7342 -0.4987
  666MOL0     C91834   8.936   9.948  10.276  1.1009  0.2952 -0.7604
  666MOL0     C91835   8.984   9.989  10.378  0.3456  0.0286  0.3229
  666MOL0     C91836   9.189   9.400  10.113 -1.0419  0.0624  0.5277
  666MOL0     C91837   9.282   9.300  10.068 -0.1630 -0.2588  0.6238
  666MOL0     C91838   9.358   9.331   9.935 -0.2518 -0.1247  0.2802
  666MOL0     H91839   9.448   8.809  10.360 -1.5288  1.0167 -1.3173
  666MOL0     H91840   9.600   8.588  10.345  1.4086 -0.5344 -0.2916
  666MOL0     H91841   9.571   8.337  10.251  1.7817  0.2355  2.3127
  666MOL0     H91842   9.730   8.407  10.281  0.5164  1.4720  0.3106
  666MOL0     H91843   9.710   8.158  10.204 -0.1036 -0.4629  0.1499
  666MOL0     H91844   9.694   8.224  10.037 -2.4938  3.0404  0.6153
  666MOL0     H91845   9.920   8.325  10.054 -0.9358  3.5253  2.2261
  666MOL0     H91846   9.920   8.298  10.226  1.2658  2.1041 -1.7963
  666MOL0     H91847   9.927   8.055  10.194 -2.2858 -0.9256 -1.0231
  666MOL0     H91848   9.917   8.096  10.016 -1.6881 -0.1736  0.4279
  666MOL0     H91849  10.117   8.151   9.996  0.1629  0.9497 -0.1351
  666MOL0     H91850  10.143   8.015  10.099  0.1185 -0.4012  1.4166
  666MOL0     H91851  10.300   8.217  10.154 -0.6826  0.2279 -2.5206
  666MOL0     H91852  10.163   8.321  10.161  0.9018  0.7156 -0.8516
  666MOL0     H91853  10.083   8.192  10.365  0.8700  0.4242  2.0502
  666MOL0     H91854  10.242   8.273  10.394 -1.7472  1.3402  0.8759
  666MOL0     H91855  10.255   8.055  10.491  3.0312  0.8393 -0.0577
  666MOL0     H91856  10.211   7.967  10.350  0.0144 -0.2028 -0.8851
  666MOL0     H91857  10.417   7.938  10.174  2.0373  0.1201 -1.0726
  666MOL0     H91858  10.801   7.990  10.218  1.7559 -0.8857 -1.7455
  666MOL0     H91859  10.694   7.960  10.089  2.2059  2.2787  0.1704
  666MOL0     H91860  10.816   7.762  10.131  0.3719  0.0012  0.5140
  666MOL0     H91861  10.791   7.764  10.305 -0.0417 -0.2483 -0.5307
  666MOL0     H91862  10.565   7.694  10.286 -3.1634  3.6824 -1.4013
  666MOL0     H91863  10.564   7.738  10.110  0.8586 -3.1010 -1.8552
  666MOL0     H91864  10.686   7.540  10.036  0.9925  2.4248  0.0347
  666MOL0     H91865  10.769   7.537  10.184  0.2499 -1.7242  1.7422
  666MOL0     H91866  10.451   7.565   9.999  1.2275 -1.0867  1.0814
  666MOL0     H91867  10.095   7.551   9.895  1.7197 -2.7959 -2.4368
  666MOL0     H91868  10.259   7.628   9.871 -0.0985  2.4220 -0.0974
  666MOL0     H91869  10.149   7.699   9.985 -2.2534  1.0120 -3.7428
  666MOL0     H91870   9.835   7.152  10.342 -0.3214  0.1668  1.0915
  666MOL0     H91871   9.598   7.105  10.361  1.8235  0.2107  0.0749
  666MOL0     H91872   9.328   7.082  10.322 -1.1968  0.7258 -1.0574
  666MOL0     H91873   9.364   7.207  10.445  2.4562 -2.4822 -0.8325
  666MOL0     H91874   9.134   7.155  10.436 -2.6620  3.0171  0.7994
  666MOL0     H91875   9.156   7.318  10.384  1.7203 -0.3550  0.5866
  666MOL0     H91876   9.109   7.082  10.194 -0.6135  0.1588  0.4198
  666MOL0     H91877   9.148   7.246  10.141 -0.2922 -0.6162 -0.3395
  666MOL0     H91878   8.931   7.313  10.297 -1.9420  0.8245 -0.9419
  666MOL0     H91879   8.903   7.146  10.291 -0.2660 -0.6784 -1.0867
  666MOL0     H91880   8.775   7.277  10.117  0.0875  2.7249  1.2142
  666MOL0     H91881   8.910   7.345  10.056 -2.3658  1.4599  0.9976
  666MOL0     H91882   9.004   7.112   9.966  0.0553 -2.9268 -0.3922
  666MOL0     H91883   8.857   7.179   9.904  5.1653 -0.4441 -2.9535
  666MOL0     H91884   8.887   6.968  10.126  0.2666  0.4722 -0.2496
  666MOL0     H91885   8.850   6.931   9.963  0.8036 -0.4128  0.4845
  666MOL0     H91886   8.647   7.021  10.161  0.2284  0.8328 -0.1315
  666MOL0     H91887   8.630   6.922  10.026  0.2246  1.0748 -3.7927
  666MOL0     H91888   9.488   7.479  10.211 -1.0671 -1.1737  1.9081
  666MOL0     H91889   9.748   7.547  10.189  0.4074  0.3698  1.7847
  666MOL0     H91890  10.165   7.322  10.325 -0.1055  0.4127 -0.6907
  666MOL0     H91891  10.414   7.302  10.323  1.4708  2.8083 -0.3799
  666MOL0     H91892   9.573   8.610   9.918  0.5930 -4.1706  1.2602
  666MOL0     H91893   9.506   8.856   9.944 -0.9739  2.2177  0.9163
  666MOL0     H91894   9.228   9.086  10.325  0.2112  0.1501  0.3353
  666MOL0     H91895   9.086   9.241  10.387  0.7088 -1.4239 -0.4109
  666MOL0     H91896   9.090   9.666  10.201 -1.0605  0.6557  1.2851
  666MOL0     H91897   8.987   9.571  10.104  2.4116 -0.3590 -1.2648
  666MOL0     H91898   8.913   9.699  10.365  2.3557 -0.9991  0.4264
  666MOL0     H91899   8.811   9.577  10.280  0.7713 -0.2247  2.0594
  666MOL0     H91900   8.803   9.713  10.074  2.0717  2.1438 -1.4612
  666MOL0     H91901   8.715   9.771  10.214 -0.4340 -0.9633  1.2381
  666MOL0     H91902   8.807   9.972  10.118  0.8346  1.8144  3.2282
  666MOL0     H91903   8.956   9.889  10.077  0.1605 -3.3385 -0.4373
  666MOL0     H91904   9.034  10.026  10.466  2.0694 -0.0495 -0.5779
  666MOL0     H91905   9.162   9.486  10.053  0.1265  0.7054  0.8900
  666MOL0     H91906   9.327   9.429   9.898  2.5335  0.6069 -0.3527
  666MOL0     H91907   9.464   9.350   9.957  0.1266  0.3155 -1.7554
  666MOL0     H91908   9.341   9.269   9.847  0.5888  1.9591 -1.4301
  667MOL0     O91909   1.819   5.691   9.592  0.2889  0.2997 -0.1490
  667MOL0     C91910   1.781   5.746   9.492  0.3131 -1.1685 -0.6881
  667MOL0     O91911   1.855   5.761   9.376  0.2197  0.8232  0.0763
  667MOL0     C91912   1.988   5.720   9.367 -0.6964  0.5877  0.1777
  667MOL0     C91913   2.025   5.658   9.252  0.6518  0.4548 -0.2549
  667MOL0     C91914   2.151   5.613   9.231  0.7177  1.0291  0.4474
  667MOL0     C91915   2.254   5.630   9.322 -0.0465  0.3118 -0.5652
  667MOL0     O91916   2.374   5.584   9.296  0.1613 -0.3999  0.3667
  667MOL0     C91917   2.432   5.603   9.165 -0.6125 -0.3063  0.3324
  667MOL0     C91918   2.585   5.614   9.159  0.3710  0.0868  0.3725
  667MOL0     C91919   2.636   5.728   9.236 -0.8400  0.1692  0.7712
  667MOL0     C91920   2.773   5.778   9.180  0.4269  0.0596  0.9875
  667MOL0     C91921   2.750   5.854   9.044 -1.0194  0.9630 -0.4393
  667MOL0     C91922   2.878   5.907   9.002  0.1904 -0.0637 -0.0591
  667MOL0     C91923   2.984   5.802   8.946 -1.1923 -0.2805 -0.3990
  667MOL0     C91924   3.100   5.869   8.893  1.1476 -0.8845  0.2691
  667MOL0     N91925   3.178   5.772   8.820  0.1847  0.0292  0.1572
  667MOL0     C91926   3.164   5.727   8.686 -0.1328  0.9492 -0.2163
  667MOL0     C91927   3.274   5.655   8.660  0.0369 -0.4939 -0.4539
  667MOL0     C91928   3.314   5.602   8.523  0.8783 -0.4713  0.0708
  667MOL0     C91929   3.325   5.446   8.543  0.4779 -0.4177 -0.4415
  667MOL0     C91930   3.333   5.360   8.419 -0.2975  0.5489  0.4600
  667MOL0     C91931   3.456   5.394   8.320  0.3833 -0.2589 -0.1100
  667MOL0     O91932   3.573   5.361   8.397 -0.2338 -0.8274  0.0149
  667MOL0     C91933   3.666   5.455   8.419 -0.0727 -0.0340 -0.1072
  667MOL0     C91934   3.712   5.548   8.327  0.9972  0.4346  0.8753
  667MOL0     C91935   3.812   5.634   8.357  0.9945  0.3969 -0.4515
  667MOL0     C91936   3.850   5.734   8.247 -0.2039 -0.8985  0.0995
  667MOL0     C91937   3.869   5.642   8.492  0.4451  0.3293  0.0456
  667MOL0     C91938   3.973   5.727   8.542 -0.4910  0.0678 -0.0167
  667MOL0     O91939   3.937   5.798   8.652  0.4093 -0.2485  0.5801
  667MOL0     C91940   4.014   5.893   8.700  0.5767  0.2266 -0.2249
  667MOL0     C91941   3.956   6.012   8.744  0.2596  0.4336  0.6437
  667MOL0     C91942   4.028   6.112   8.805  0.3601  0.4287 -0.0938
  667MOL0     C91943   4.164   6.099   8.815 -0.2633 -0.3587  0.0478
  667MOL0     O91944   4.262   6.186   8.856 -0.3803  0.6210 -0.2020
  667MOL0     C91945   4.242   6.335   8.849 -0.4869  0.3735  0.2527
  667MOL0     C91946   4.381   6.405   8.874 -0.1466 -0.0622 -0.0788
  667MOL0     C91947   4.466   6.339   8.986 -0.4441 -0.2975  0.6389
  667MOL0     C91948   4.564   6.434   9.053 -0.1940  0.1737  0.1406
  667MOL0     C91949   4.657   6.369   9.161  0.7565 -0.4410  0.3008
  667MOL0     C91950   4.777   6.466   9.196  0.7656 -0.0217  0.4908
  667MOL0     C91951   4.855   6.385   9.294 -0.1787 -0.2007  0.0963
  667MOL0     C91952   4.992   6.449   9.348  0.0486 -0.2811 -0.5725
  667MOL0    Cl91953   4.952   6.614   9.408 -0.1006  0.0206 -0.4722
  667MOL0     C91954   4.223   5.977   8.778  0.4977  0.1516  0.0130
  667MOL0     C91955   4.147   5.877   8.718  0.2451 -0.3842 -0.6066
  667MOL0     O91956   4.073   5.748   8.470 -0.6257  0.2286  0.2879
  667MOL0     C91957   3.832   5.542   8.580 -0.2134 -0.2183  0.4646
  667MOL0     C91958   3.730   5.451   8.543  0.0605  0.1582 -0.8162
  667MOL0     N91959   3.349   5.648   8.779 -0.6497 -0.8036  0.5636
  667MOL0     N91960   3.282   5.705   8.871 -0.9371  0.8769 -0.1650
  667MOL0     C91961   2.218   5.696   9.442 -0.6931  0.1457  0.4351
  667MOL0     C91962   2.082   5.734   9.463 -0.7851 -0.3673 -1.0229
  667MOL0     C91963   1.649   5.823   9.489 -0.4268  0.2819 -0.0514
  667MOL0     C91964   1.567   5.819   9.607  0.0692  0.0881  0.0436
  667MOL0     C91965   1.438   5.868   9.613 -0.3945  0.5375 -0.1722
  667MOL0     C91966   1.391   5.940   9.501  0.2306 -0.5592 -0.1527
  667MOL0     O91967   1.265   5.993   9.492 -0.1411  0.5660  0.3908
  667MOL0     C91968   1.170   5.973   9.595 -0.8139 -0.2080 -0.4312
  667MOL0     C91969   1.033   6.026   9.546 -0.4567 -0.2526 -0.1527
  667MOL0     C91970   1.024   6.174   9.512  0.3716 -0.5986  0.2971
  667MOL0     C91971   0.888   6.197   9.444  0.6192  0.0917 -0.0733
  667MOL0     C91972   0.876   6.333   9.402 -0.1572 -0.5990  1.2683
  667MOL0     C91973   0.860   6.447   9.359 -0.8511 -0.5286  0.1600
  667MOL0     C91974   1.470   5.956   9.388 -0.0738 -0.7530 -0.8453
  667MOL0     C91975   1.597   5.900   9.383 -0.5329  0.2416  0.2437
  667MOL0     C91976   1.689   5.942   9.268 -0.2745 -0.3371  0.0505
  667MOL0     H91977   1.948   5.632   9.180  1.9024 -0.1192 -1.4423
  667MOL0     H91978   2.169   5.555   9.141 -0.7580  1.4977 -0.1736
  667MOL0     H91979   2.394   5.695   9.119  0.5658 -0.4290 -0.9329
  667MOL0     H91980   2.394   5.525   9.098  0.3347  1.7740 -2.8649
  667MOL0     H91981   2.636   5.526   9.198  0.5128  0.6258  1.4250
  667MOL0     H91982   2.606   5.617   9.052 -4.5472 -1.1486 -0.9035
  667MOL0     H91983   2.568   5.814   9.238  1.5828  2.2965 -0.8499
  667MOL0     H91984   2.653   5.698   9.339 -1.6508  1.0203  1.1657
  667MOL0     H91985   2.831   5.835   9.254 -0.5920 -0.2350  2.0487
  667MOL0     H91986   2.829   5.686   9.160 -1.1360 -1.1547  1.9729
  667MOL0     H91987   2.673   5.930   9.059 -0.2303  1.6425  0.2703
  667MOL0     H91988   2.711   5.792   8.964  1.4614 -1.2057 -0.1298
  667MOL0     H91989   2.856   5.977   8.921 -0.8657  1.6895  1.6741
  667MOL0     H91990   2.922   5.954   9.090 -1.4267  2.1020 -0.3444
  667MOL0     H91991   2.928   5.747   8.869 -3.4121 -0.3597  1.1663
  667MOL0     H91992   3.012   5.727   9.021  2.0673 -0.0440 -1.2405
  667MOL0     H91993   3.062   5.945   8.824  0.6192 -1.2103  0.1938
  667MOL0     H91994   3.157   5.911   8.976  1.5263  2.0875 -1.3377
  667MOL0     H91995   3.084   5.773   8.629  0.5050  2.4928  0.0797
  667MOL0     H91996   3.409   5.638   8.482 -0.0190  0.1855 -1.5186
  667MOL0     H91997   3.227   5.608   8.457  2.3855 -2.3331 -2.2434
  667MOL0     H91998   3.409   5.422   8.609  0.8536  1.3985 -0.2093
  667MOL0     H91999   3.233   5.410   8.591  1.5926 -4.0417 -0.7018
  667MOL0     H92000   3.338   5.252   8.432 -2.1757  0.3743  0.1266
  667MOL0     H92001   3.242   5.369   8.357  1.5431 -0.8304 -2.7117
  667MOL0     H92002   3.458   5.342   8.223  2.0036  1.7101 -1.2162
  667MOL0     H92003   3.447   5.498   8.285 -2.0208 -0.9099 -1.6329
  667MOL0     H92004   3.666   5.563   8.230 -1.2815  2.8962  2.1873
  667MOL0     H92005   3.910   5.816   8.288  0.2557 -1.1896  0.0122
  667MOL0     H92006   3.765   5.786   8.200 -0.3706 -2.2798 -1.2022
  667MOL0     H92007   3.899   5.696   8.157 -3.0252 -0.7985 -1.6145
  667MOL0     H92008   3.847   6.011   8.739  0.2960  0.9858 -0.3285
  667MOL0     H92009   3.976   6.203   8.833 -2.4639 -0.7643 -1.0943
  667MOL0     H92010   4.202   6.369   8.753 -2.1201 -0.4330  0.6100
  667MOL0     H92011   4.181   6.363   8.936 -0.8006 -0.0773  0.1840
  667MOL0     H92012   4.443   6.395   8.785 -0.2595 -6.7479  0.0635
  667MOL0     H92013   4.365   6.511   8.897  0.1830  0.1031 -0.5966
  667MOL0     H92014   4.522   6.254   8.945  1.2492  2.0614 -2.4145
  667MOL0     H92015   4.400   6.296   9.062 -2.3612 -0.8092 -1.2333
  667MOL0     H92016   4.503   6.508   9.107  2.0109 -0.1352  3.3513
  667MOL0     H92017   4.614   6.484   8.970 -0.7959  0.0227 -0.3210
  667MOL0     H92018   4.602   6.355   9.254  0.0360  2.2047  0.3492
  667MOL0     H92019   4.682   6.271   9.119 -3.1544 -0.2707 -3.0005
  667MOL0     H92020   4.736   6.564   9.224  0.8174  0.4523 -0.9785
  667MOL0     H92021   4.840   6.468   9.106  0.3025 -1.1134  0.1224
  667MOL0     H92022   4.868   6.290   9.242 -0.7155 -0.6725  0.8146
  667MOL0     H92023   4.796   6.368   9.385 -0.9376  0.3676 -0.2756
  667MOL0     H92024   5.071   6.453   9.272  0.8046 -1.1321  0.1456
  667MOL0     H92025   5.016   6.388   9.435 -4.4401 -1.2962  0.2240
  667MOL0     H92026   4.331   5.965   8.783  0.3208 -1.2048  1.9288
  667MOL0     H92027   4.190   5.781   8.688 -2.0938 -0.7967 -2.9885
  667MOL0     H92028   3.885   5.522   8.673  1.1741 -0.0683 -0.2734
  667MOL0     H92029   3.703   5.366   8.606 -1.3696  1.6070  0.6375
  667MOL0     H92030   2.296   5.729   9.510  1.7490  0.3393 -2.2730
  667MOL0     H92031   2.050   5.780   9.556 -2.4025 -1.5077 -0.9803
  667MOL0     H92032   1.605   5.779   9.700 -2.2745  1.0110  1.5005
  667MOL0     H92033   1.386   5.865   9.708  1.7142  0.5923  1.0457
  667MOL0     H92034   1.162   5.870   9.631  1.2554 -0.4458 -0.5392
  667MOL0     H92035   1.206   6.031   9.681 -3.0760  0.5086  0.1189
  667MOL0     H92036   0.960   6.015   9.627 -2.1067  0.6609 -1.4499
  667MOL0     H92037   0.991   5.972   9.460 -4.1198 -0.4671  1.5502
  667MOL0     H92038   1.025   6.229   9.606 -1.8781 -0.6487  0.4035
  667MOL0     H92039   1.101   6.209   9.442  0.4939  2.3566  1.7615
  667MOL0     H92040   0.801   6.179   9.507  0.2777 -1.1467 -0.8684
  667MOL0     H92041   0.874   6.134   9.356  3.0744 -1.5352  0.5630
  667MOL0     H92042   0.854   6.539   9.306  0.2472 -1.0515 -0.9097
  667MOL0     H92043   1.426   6.008   9.304 -2.7625  1.7639  1.8558
  667MOL0     H92044   1.789   5.981   9.289 -0.1931 -1.5581  2.2093
  667MOL0     H92045   1.699   5.857   9.200 -3.0668  1.2351 -2.5723
  667MOL0     H92046   1.635   6.018   9.212  0.9407  1.9456  1.7975
  668MOL0     O92047   1.193   7.671   6.020  0.1198 -0.6559 -0.8969
  668MOL0     C92048   1.169   7.772   5.948  0.1542 -0.1668 -0.2674
  668MOL0     O92049   1.269   7.851   5.897  0.4406 -0.0407 -0.2860
  668MOL0     C92050   1.392   7.806   5.893 -0.4575 -0.2840  0.7019
  668MOL0     C92051   1.481   7.842   5.992  0.1779 -0.3680 -0.0343
  668MOL0     C92052   1.615   7.810   5.970 -0.1229 -0.1731  0.5183
  668MOL0     C92053   1.670   7.737   5.856  0.3558  0.1605 -1.4709
  668MOL0     O92054   1.795   7.692   5.849  0.6058  0.2250  0.2026
  668MOL0     C92055   1.900   7.775   5.903 -0.7957  0.0889 -0.2973
  668MOL0     C92056   2.035   7.742   5.853 -0.5516  0.3743 -0.5604
  668MOL0     C92057   2.048   7.761   5.702  0.8780  0.4454 -1.2824
  668MOL0     C92058   2.176   7.704   5.646  0.5669 -0.1843  0.6738
  668MOL0     C92059   2.168   7.546   5.636 -0.0789  0.1396  0.1424
  668MOL0     C92060   2.309   7.499   5.586 -0.2206  0.1978 -0.5260
  668MOL0     C92061   2.329   7.341   5.586  0.3210 -0.5147  0.7286
  668MOL0     C92062   2.345   7.281   5.727  0.8417  0.4120  0.0761
  668MOL0     N92063   2.416   7.149   5.728 -0.2360 -0.6089 -0.3598
  668MOL0     C92064   2.404   7.065   5.624 -0.3521  0.7053  0.4156
  668MOL0     C92065   2.432   6.948   5.686 -0.2012  0.5679  0.9481
  668MOL0     C92066   2.440   6.813   5.615  0.8191  0.7995  0.4842
  668MOL0     C92067   2.578   6.756   5.573  0.2438  0.0003  0.6737
  668MOL0     C92068   2.660   6.867   5.502 -0.1113 -0.0585 -0.6470
  668MOL0     C92069   2.791   6.818   5.431  0.3279 -0.2844 -0.0729
  668MOL0     O92070   2.857   6.934   5.388 -0.7110 -0.7266  0.1683
  668MOL0     C92071   2.989   6.916   5.355  0.7168 -0.5666  1.1431
  668MOL0     C92072   3.056   7.032   5.304  0.4077  0.0338  0.2707
  668MOL0     C92073   3.187   7.028   5.251  0.1486  0.3880  0.2154
  668MOL0     C92074   3.247   7.154   5.196  0.2276  0.1414  0.0717
  668MOL0     C92075   3.253   6.901   5.248 -0.0380 -0.1676  0.0705
  668MOL0     C92076   3.403   6.888   5.187  0.4838 -0.5242  0.7565
  668MOL0     O92077   3.462   6.769   5.191 -0.2253  0.5279 -0.6832
  668MOL0     C92078   3.591   6.753   5.144 -0.7646  0.0592 -0.4066
  668MOL0     C92079   3.611   6.723   5.008 -0.5509  0.1895  0.1302
  668MOL0     C92080   3.740   6.725   4.942  0.6294  0.7129 -0.0863
  668MOL0     C92081   3.860   6.739   5.022 -0.9484 -1.1719  0.2220
  668MOL0     O92082   3.985   6.728   4.968  0.0631 -0.0770  0.1909
  668MOL0     C92083   3.996   6.688   4.837  0.1589 -0.1019  0.4494
  668MOL0     C92084   4.153   6.680   4.820  0.6751 -0.5307  0.3688
  668MOL0     C92085   4.194   6.639   4.676 -0.0617 -0.1512  0.1755
  668MOL0     C92086   4.260   6.503   4.681 -0.4651 -0.0695  0.8861
  668MOL0     C92087   4.399   6.481   4.741 -0.0322  0.1999  0.1548
  668MOL0     C92088   4.490   6.595   4.725 -0.2005 -0.3527 -0.0385
  668MOL0     C92089   4.629   6.564   4.772 -0.0993  0.0525 -0.0568
  668MOL0     C92090   4.727   6.693   4.769 -0.4258  0.2694 -0.0181
  668MOL0    Cl92091   4.774   6.730   4.604 -0.4089  0.1931 -0.0795
  668MOL0     C92092   3.836   6.766   5.156  0.1033 -0.1089  0.7094
  668MOL0     C92093   3.704   6.780   5.217 -0.2448  0.5836 -0.2470
  668MOL0     O92094   3.446   6.982   5.128 -0.0600  0.4208 -0.3985
  668MOL0     C92095   3.194   6.790   5.307 -0.7756 -0.2688 -0.3284
  668MOL0     C92096   3.059   6.796   5.345  0.1567 -0.3281 -0.0451
  668MOL0     N92097   2.439   6.965   5.820 -1.2100 -0.1592 -0.5918
  668MOL0     N92098   2.446   7.087   5.848 -0.4576  0.0619 -0.0389
  668MOL0     C92099   1.577   7.713   5.760  0.0991 -0.2128  0.1801
  668MOL0     C92100   1.438   7.742   5.776  0.4417 -0.2626  0.5717
  668MOL0     C92101   1.029   7.824   5.944  0.1640  0.9269 -0.3843
  668MOL0     C92102   1.012   7.955   5.933 -0.4185  0.0400 -0.2702
  668MOL0     C92103   0.886   8.016   5.923 -0.6912  0.2787  0.4502
  668MOL0     C92104   0.767   7.937   5.938 -0.2230 -0.2139  0.1271
  668MOL0     O92105   0.635   7.971   5.941  0.3609 -0.1115 -0.5699
  668MOL0     C92106   0.610   8.106   5.904 -0.6750  0.5794  0.7638
  668MOL0     C92107   0.459   8.145   5.909 -0.4046  0.3084 -0.2099
  668MOL0     C92108   0.448   8.276   5.842 -0.4183 -0.6658 -0.0361
  668MOL0     C92109   0.306   8.322   5.841  0.2141  1.0359  0.1606
  668MOL0     C92110   0.313   8.463   5.799  0.1046 -0.2010  0.5659
  668MOL0     C92111   0.323   8.573   5.752 -0.2225  0.7850  0.0039
  668MOL0     C92112   0.782   7.805   5.955  0.6603  0.0773 -0.3780
  668MOL0     C92113   0.912   7.747   5.970  0.4365 -0.0083  0.2080
  668MOL0     C92114   0.908   7.596   5.991 -0.1576 -0.1930  0.2025
  668MOL0     H92115   1.430   7.880   6.080 -1.7870 -1.7102 -0.5224
  668MOL0     H92116   1.688   7.838   6.044  0.5653  1.9015 -0.8642
  668MOL0     H92117   1.884   7.771   6.011 -1.5871 -0.1508 -0.4202
  668MOL0     H92118   1.886   7.878   5.871 -0.8696 -0.4858 -2.2748
  668MOL0     H92119   2.105   7.803   5.910  0.1373  1.4658 -2.5001
  668MOL0     H92120   2.046   7.635   5.873 -0.7188  0.1748 -1.4957
  668MOL0     H92121   1.962   7.712   5.656 -0.3787  1.9384 -0.5858
  668MOL0     H92122   2.044   7.869   5.686 -0.4107  0.3392 -1.7620
  668MOL0     H92123   2.183   7.750   5.547 -2.0262  1.5590  1.2133
  668MOL0     H92124   2.271   7.728   5.696  1.3322 -1.2821 -0.1911
  668MOL0     H92125   2.093   7.507   5.567  0.7454 -0.7355 -0.2890
  668MOL0     H92126   2.144   7.503   5.734  3.7248 -0.4109  1.0025
  668MOL0     H92127   2.328   7.534   5.484  0.0663  0.4006 -0.4053
  668MOL0     H92128   2.388   7.540   5.650  0.1556 -0.7117 -0.3925
  668MOL0     H92129   2.418   7.316   5.527  0.2422  0.6637  0.0833
  668MOL0     H92130   2.239   7.291   5.550  0.5842  0.1294 -0.9272
  668MOL0     H92131   2.400   7.350   5.792  2.2818 -0.4731 -0.1591
  668MOL0     H92132   2.251   7.263   5.779  0.2689  2.8338 -0.0236
  668MOL0     H92133   2.380   7.076   5.519  0.1812  4.5408  0.5400
  668MOL0     H92134   2.368   6.824   5.532  1.1147  1.8873  0.3648
  668MOL0     H92135   2.402   6.736   5.684  3.9066  1.0940  2.6857
  668MOL0     H92136   2.637   6.721   5.659  2.2559  0.0711 -0.6259
  668MOL0     H92137   2.546   6.674   5.508 -1.9271  0.4802  1.0636
  668MOL0     H92138   2.596   6.909   5.425  0.6847 -2.1893 -2.5579
  668MOL0     H92139   2.698   6.939   5.576  1.5054 -0.6693 -0.8458
  668MOL0     H92140   2.851   6.769   5.508  0.0276 -0.3773  0.1054
  668MOL0     H92141   2.772   6.747   5.350 -0.4441  0.6050 -0.6901
  668MOL0     H92142   3.005   7.128   5.305 -1.0888 -0.7232  0.4964
  668MOL0     H92143   3.340   7.169   5.250 -0.2880  1.3137  0.6627
  668MOL0     H92144   3.186   7.241   5.219  0.3916  0.2870 -0.0429
  668MOL0     H92145   3.268   7.153   5.088 -1.7555  1.2187 -0.3771
  668MOL0     H92146   3.534   6.695   4.937  0.1781 -0.4690 -0.4085
  668MOL0     H92147   3.743   6.702   4.836 -1.5188 -1.4174  0.2179
  668MOL0     H92148   3.941   6.594   4.818 -2.8170  1.1940  1.9909
  668MOL0     H92149   3.956   6.761   4.766 -0.2874 -1.6463 -0.9645
  668MOL0     H92150   4.206   6.771   4.848  0.0962  0.2843 -1.0567
  668MOL0     H92151   4.184   6.607   4.895 -0.9401  0.5943  2.2309
  668MOL0     H92152   4.266   6.714   4.642  2.7557 -2.5450  0.4476
  668MOL0     H92153   4.113   6.651   4.604 -0.2837  0.0683  0.4615
  668MOL0     H92154   4.271   6.479   4.575  2.2925  1.6784  0.6727
  668MOL0     H92155   4.193   6.426   4.721 -2.4776 -0.3763 -2.6482
  668MOL0     H92156   4.372   6.467   4.846  1.0480 -1.4206  0.2481
  668MOL0     H92157   4.443   6.388   4.706 -1.5066 -0.2827 -0.5125
  668MOL0     H92158   4.443   6.670   4.789 -2.2990  0.5270 -2.4521
  668MOL0     H92159   4.486   6.648   4.630 -2.6544  2.9428  1.6874
  668MOL0     H92160   4.671   6.482   4.713 -0.1869  0.3486 -0.5340
  668MOL0     H92161   4.628   6.529   4.876 -1.0506 -0.7277 -0.3134
  668MOL0     H92162   4.819   6.672   4.825  0.1246  2.2109 -0.1340
  668MOL0     H92163   4.676   6.776   4.817 -0.6771 -0.4782  1.0488
  668MOL0     H92164   3.926   6.786   5.212  0.9299  0.0082 -0.6165
  668MOL0     H92165   3.697   6.808   5.321 -0.1982  5.4006 -1.2993
  668MOL0     H92166   3.242   6.693   5.306  0.3033  0.2368  0.8464
  668MOL0     H92167   3.011   6.702   5.372  2.1104 -0.9442  1.4806
  668MOL0     H92168   1.608   7.645   5.682  1.6470 -2.3619  2.5365
  668MOL0     H92169   1.364   7.722   5.699 -0.3415  0.5060  1.0996
  668MOL0     H92170   1.098   8.020   5.924 -0.3327 -0.0480 -0.0928
  668MOL0     H92171   0.885   8.122   5.904  2.4211 -0.0720 -2.6901
  668MOL0     H92172   0.667   8.169   5.973  1.5242 -2.2068  1.6839
  668MOL0     H92173   0.639   8.123   5.800 -0.6144  0.8147  0.8180
  668MOL0     H92174   0.417   8.164   6.009  0.5593  1.2228  0.0355
  668MOL0     H92175   0.404   8.069   5.853  0.9163  1.0431 -2.6369
  668MOL0     H92176   0.519   8.350   5.883  0.1799 -1.2648  0.0289
  668MOL0     H92177   0.480   8.270   5.738 -2.8850  3.8740 -1.3294
  668MOL0     H92178   0.268   8.313   5.943  3.7151  3.7944  1.9512
  668MOL0     H92179   0.242   8.262   5.777 -0.8714  0.5992  1.6112
  668MOL0     H92180   0.336   8.677   5.730  1.0125  1.3471  2.9922
  668MOL0     H92181   0.698   7.737   5.966  1.3676 -0.7599 -0.0252
  668MOL0     H92182   0.805   7.559   5.983 -0.0556 -0.4800  0.2016
  668MOL0     H92183   0.964   7.543   5.914 -1.0230  0.8635 -1.2087
  668MOL0     H92184   0.940   7.578   6.094 -1.5027 -0.5522  0.5893
  669MOL0     O92185   3.359  10.103   9.048 -0.0580  0.1925 -0.0201
  669MOL0     C92186   3.291  10.174   8.973 -0.0612  0.4299  0.7055
  669MOL0     O92187   3.328  10.306   8.949  0.2748  0.7540 -0.6190
  669MOL0     C92188   3.429  10.360   9.010 -0.3036  0.0106 -0.4965
  669MOL0     C92189   3.557  10.296   9.001 -0.9918 -0.9396 -0.1461
  669MOL0     C92190   3.667  10.352   9.069  0.2939  0.6783  0.7559
  669MOL0     C92191   3.640  10.469   9.150  1.3224  0.4523 -0.3487
  669MOL0     O92192   3.735  10.520   9.238  0.0068 -0.0064  0.8296
  669MOL0     C92193   3.869  10.493   9.208 -0.5137 -0.5257  0.2515
  669MOL0     C92194   3.937  10.590   9.306 -0.2916  0.3789  0.5968
  669MOL0     C92195   3.919  10.739   9.261 -0.0527  0.4786 -0.4063
  669MOL0     C92196   4.001  10.763   9.133  0.7493 -0.0394 -1.4994
  669MOL0     C92197   4.012  10.913   9.109 -0.6380 -0.0322 -0.0580
  669MOL0     C92198   4.093  10.941   8.982  0.4109 -0.2083 -0.0667
  669MOL0     C92199   4.146  11.079   8.965 -0.7580  0.8691  0.5927
  669MOL0     C92200   4.027  11.179   8.951 -0.2833 -0.2337  0.5050
  669MOL0     N92201   4.070  11.294   8.859 -0.4627  0.8544 -0.8969
  669MOL0     C92202   4.099  11.423   8.891 -0.2231  0.4380 -0.1322
  669MOL0     C92203   4.091  11.491   8.772 -0.3349  0.5221  0.3969
  669MOL0     C92204   4.120  11.637   8.778  0.8748  0.1494 -0.2158
  669MOL0     C92205   3.997  11.717   8.748  0.4664  0.2130  0.5965
  669MOL0     C92206   3.881  11.703   8.849  1.3492 -0.1098 -0.0746
  669MOL0     C92207   3.881  11.807   8.964 -0.4908  0.4087  0.2056
  669MOL0     O92208   3.938  11.753   9.082  0.1512  0.4079 -0.0868
  669MOL0     C92209   3.942  11.843   9.191 -0.2772  1.2184  0.0858
  669MOL0     C92210   3.865  11.963   9.204  0.2488  0.2870  0.5027
  669MOL0     C92211   3.883  12.058   9.305 -0.4818 -0.2330  0.1557
  669MOL0     C92212   3.810  12.197   9.281 -0.1366  0.0730 -1.0411
  669MOL0     C92213   3.965  12.027   9.414  0.1100  0.6095  0.0684
  669MOL0     C92214   3.968  12.105   9.531 -0.2827  1.2123 -0.6245
  669MOL0     O92215   4.073  12.063   9.611  0.5929  0.1004  0.1304
  669MOL0     C92216   4.101  12.113   9.739 -0.4246  0.0313  0.1949
  669MOL0     C92217   4.240  12.098   9.790  0.4988 -0.4906  1.5416
  669MOL0     C92218   4.270  12.141   9.909  0.2898  0.2985 -1.0767
  669MOL0     C92219   4.174  12.196   9.989 -1.1690 -0.8989 -1.1466
  669MOL0     O92220   4.207  12.238  10.123 -0.6705 -0.2524 -0.2627
  669MOL0     C92221   4.152  12.370  10.159  0.9483  0.8227 -0.9016
  669MOL0     C92222   4.238  12.441  10.266  0.7419 -0.0975  0.1929
  669MOL0     C92223   4.370  12.457  10.208 -0.5854 -0.7929 -0.6200
  669MOL0     C92224   4.462  12.538  10.302 -0.3875 -0.5703 -1.3083
  669MOL0     C92225   4.606  12.535  10.241 -0.7935  0.2471 -0.5111
  669MOL0     C92226   4.701  12.591  10.343  0.2958 -0.5781  0.5951
  669MOL0     C92227   4.837  12.623  10.272 -0.0352  0.5854 -0.8396
  669MOL0     C92228   4.935  12.687  10.379 -0.0537 -1.1637 -1.2245
  669MOL0    Cl92229   5.092  12.726  10.303 -0.2171  0.0695  0.3606
  669MOL0     C92230   4.040  12.205   9.949 -0.6180  0.3595  0.3129
  669MOL0     C92231   4.002  12.162   9.828 -0.0082 -0.7294  1.2366
  669MOL0     O92232   3.891  12.196   9.549 -0.3733 -0.4953 -0.4052
  669MOL0     C92233   4.031  11.904   9.406  0.5579  0.5526 -0.5102
  669MOL0     C92234   4.026  11.817   9.295 -0.3684 -0.4938  0.2684
  669MOL0     N92235   4.099  11.395   8.675  0.2145 -0.1790 -0.3728
  669MOL0     N92236   4.074  11.276   8.724  0.5100  0.3737  0.1737
  669MOL0     C92237   3.512  10.527   9.157  0.0328  0.4180 -1.0204
  669MOL0     C92238   3.412  10.479   9.078  0.2549  0.2416  0.8920
  669MOL0     C92239   3.168  10.121   8.907 -0.8507  0.2297  0.2417
  669MOL0     C92240   3.116  10.203   8.805 -0.4738 -0.0494 -0.5736
  669MOL0     C92241   2.996  10.169   8.742 -0.1494 -0.5546  0.2254
  669MOL0     C92242   2.917  10.055   8.774  0.1777  0.1050 -0.1179
  669MOL0     O92243   2.791  10.012   8.721 -0.5319  0.7032  0.5395
  669MOL0     C92244   2.720  10.114   8.650 -0.2011  0.4352  1.0083
  669MOL0     C92245   2.571  10.069   8.661  0.4006 -1.0197  1.1973
  669MOL0     C92246   2.530   9.933   8.606 -0.1720  1.3580 -0.2227
  669MOL0     C92247   2.400   9.888   8.676  0.0505 -1.1071 -0.3260
  669MOL0     C92248   2.388   9.734   8.666  0.2740 -1.1187  0.8238
  669MOL0     C92249   2.370   9.615   8.639  0.3510 -0.4371 -0.0543
  669MOL0     C92250   2.968   9.974   8.876  0.2570 -0.4571  0.7479
  669MOL0     C92251   3.091  10.006   8.945  1.4963  1.2846 -0.5523
  669MOL0     C92252   3.127   9.917   9.060 -0.7926 -0.1496 -0.2811
  669MOL0     H92253   3.566  10.206   8.941 -1.5914 -0.1858 -1.4219
  669MOL0     H92254   3.766  10.307   9.061  0.1934  0.0303  2.5208
  669MOL0     H92255   3.890  10.525   9.106  4.1877 -2.4324  0.3935
  669MOL0     H92256   3.900  10.390   9.223 -0.3818 -0.4179  0.7715
  669MOL0     H92257   3.907  10.566   9.408  0.3327 -1.4245  0.3816
  669MOL0     H92258   4.044  10.567   9.299 -0.9843 -2.8085 -1.8192
  669MOL0     H92259   3.816  10.769   9.239 -0.2789 -0.2715 -0.3852
  669MOL0     H92260   3.937  10.802   9.349  0.7906  0.3705 -0.4966
  669MOL0     H92261   4.093  10.703   9.138 -0.1116 -1.4049 -1.2774
  669MOL0     H92262   3.959  10.711   9.046 -1.6556  0.0653 -0.4946
  669MOL0     H92263   4.071  10.955   9.191  2.2355 -2.8745 -0.4665
  669MOL0     H92264   3.914  10.956   9.088  0.6372  2.4586 -1.2300
  669MOL0     H92265   4.181  10.878   8.997  0.9865  0.9658  1.8245
  669MOL0     H92266   4.038  10.910   8.893 -0.6155  0.2405  0.3997
  669MOL0     H92267   4.202  11.071   8.871 -1.9090 -2.4843  0.0708
  669MOL0     H92268   4.213  11.107   9.046 -1.3781 -0.2243  1.5097
  669MOL0     H92269   3.950  11.113   8.911  0.4246 -2.3444  2.4276
  669MOL0     H92270   3.996  11.224   9.046 -2.9745  0.0023 -0.3872
  669MOL0     H92271   4.113  11.453   8.994 -1.5544 -1.7288  0.7514
  669MOL0     H92272   4.196  11.652   8.701  0.0928  0.6472 -0.9123
  669MOL0     H92273   4.163  11.663   8.875  0.8195 -3.1168  0.7907
  669MOL0     H92274   4.026  11.822   8.744 -1.0239  0.5930 -2.2349
  669MOL0     H92275   3.960  11.681   8.652 -2.7045 -0.7927  2.0629
  669MOL0     H92276   3.785  11.724   8.800  0.5504  0.9565  1.8047
  669MOL0     H92277   3.886  11.601   8.886 -2.0134  0.1927  1.6149
  669MOL0     H92278   3.951  11.886   8.937 -0.2679 -0.5120 -2.1445
  669MOL0     H92279   3.780  11.847   8.977  0.0971  2.0702 -0.0976
  669MOL0     H92280   3.791  11.985   9.127  1.4248 -0.3876 -0.8803
  669MOL0     H92281   3.752  12.204   9.189 -2.2633  2.1520  0.3545
  669MOL0     H92282   3.888  12.273   9.286  1.4259 -1.5423  0.6548
  669MOL0     H92283   3.740  12.204   9.365  1.2398  1.5601  0.0386
  669MOL0     H92284   4.310  12.043   9.727  1.8200 -1.4435  3.7304
  669MOL0     H92285   4.370  12.127   9.947 -0.0099  1.3778  0.1839
  669MOL0     H92286   4.147  12.436  10.072  2.6143  1.6604 -0.4185
  669MOL0     H92287   4.050  12.347  10.191  2.1923 -0.6516  2.5542
  669MOL0     H92288   4.192  12.535  10.297 -0.1281 -0.2257 -0.6715
  669MOL0     H92289   4.230  12.371  10.350  1.3493 -0.0961  0.2564
  669MOL0     H92290   4.359  12.516  10.116  0.3371  0.7737  0.2394
  669MOL0     H92291   4.417  12.359  10.197  0.5359 -0.7229  2.6724
  669MOL0     H92292   4.474  12.500  10.403 -0.1830  2.5349 -0.0488
  669MOL0     H92293   4.419  12.638  10.307  0.4759 -0.2072 -0.8590
  669MOL0     H92294   4.643  12.438  10.207 -0.6546  1.2339 -3.4295
  669MOL0     H92295   4.604  12.602  10.155  0.6144  2.7460  1.2828
  669MOL0     H92296   4.727  12.525  10.425 -1.3565 -0.1209  1.5387
  669MOL0     H92297   4.644  12.681  10.370 -0.2759 -0.2158 -1.6016
  669MOL0     H92298   4.827  12.696  10.191 -0.7130  1.8743  0.3508
  669MOL0     H92299   4.873  12.529  10.228 -4.5046 -1.4724 -0.6694
  669MOL0     H92300   4.953  12.614  10.458  1.9663  2.2153  1.7690
  669MOL0     H92301   4.895  12.778  10.425  1.7708 -1.6751  1.6175
  669MOL0     H92302   3.967  12.242  10.020  1.8337  0.7507  2.8193
  669MOL0     H92303   3.900  12.161   9.790  1.6747 -2.9019 -4.1558
  669MOL0     H92304   4.103  11.873   9.481  1.2235 -0.1279 -1.4082
  669MOL0     H92305   4.088  11.728   9.299 -0.5641 -0.7805 -2.1099
  669MOL0     H92306   3.499  10.612   9.224  1.9334  1.7581 -2.2417
  669MOL0     H92307   3.311  10.520   9.079 -0.2196 -0.8808  1.1169
  669MOL0     H92308   3.161  10.294   8.767 -3.7984  2.1584  0.2823
  669MOL0     H92309   2.965  10.236   8.662 -2.6159 -0.8486  0.8492
  669MOL0     H92310   2.726  10.213   8.695  1.5564 -0.3390  2.6210
  669MOL0     H92311   2.756  10.115   8.546 -0.4681 -0.6115  0.8948
  669MOL0     H92312   2.523  10.147   8.601  2.4248  0.8578  1.8931
  669MOL0     H92313   2.537  10.083   8.764  1.7150  0.4431  1.4589
  669MOL0     H92314   2.520   9.925   8.498  2.5038  0.0683 -0.4697
  669MOL0     H92315   2.611   9.865   8.634  0.3009  2.7803  2.1617
  669MOL0     H92316   2.316   9.941   8.630  0.3979 -1.1376 -1.0051
  669MOL0     H92317   2.401   9.922   8.780 -0.2218  0.9036 -0.9285
  669MOL0     H92318   2.333   9.515   8.623 -1.2762  0.4934 -2.8543
  669MOL0     H92319   2.900   9.895   8.907 -3.0181  2.5161  1.8598
  669MOL0     H92320   3.181   9.833   9.016  0.9478  0.4687  0.5734
  669MOL0     H92321   3.197   9.962   9.131  0.8651 -1.7003 -0.8686
  669MOL0     H92322   3.043   9.892   9.125  0.7637  0.1322  1.9528
  670MOL0     O92323   3.864   5.085   3.798 -0.1407 -0.3902 -0.0747
  670MOL0     C92324   3.829   5.050   3.685 -0.3344  0.7358  0.2498
  670MOL0     O92325   3.914   5.000   3.596  0.2713  0.4054  1.1767
  670MOL0     C92326   4.048   5.000   3.609 -0.2744 -0.6041 -0.6496
  670MOL0     C92327   4.119   5.107   3.657  1.1598  0.0761 -0.2943
  670MOL0     C92328   4.250   5.102   3.670 -0.2163  0.2681 -0.2444
  670MOL0     C92329   4.326   4.995   3.632 -0.3802  0.0187  0.0963
  670MOL0     O92330   4.462   4.997   3.641  0.1535 -0.1315  0.4526
  670MOL0     C92331   4.547   4.952   3.530  0.2854  0.3743  0.4685
  670MOL0     C92332   4.694   4.982   3.554  0.1132 -0.2104  0.4242
  670MOL0     C92333   4.731   5.127   3.517 -0.5022  0.0500 -0.0921
  670MOL0     C92334   4.720   5.220   3.648  0.0712 -0.1704  0.0232
  670MOL0     C92335   4.747   5.365   3.637 -0.7189 -0.0866  0.0728
  670MOL0     C92336   4.902   5.400   3.659  0.3271 -0.4376 -0.0391
  670MOL0     C92337   4.920   5.549   3.668  0.6263 -0.0337  0.0079
  670MOL0     C92338   4.888   5.624   3.538 -0.1967 -0.5196 -0.2879
  670MOL0     N92339   4.939   5.566   3.413  0.6354  0.3237 -0.0730
  670MOL0     C92340   5.068   5.562   3.368  0.3093 -0.1480 -0.1476
  670MOL0     C92341   5.066   5.522   3.236  0.0224  0.0851  0.4657
  670MOL0     C92342   5.173   5.517   3.127 -0.8529  0.1306 -0.1982
  670MOL0     C92343   5.211   5.662   3.096  0.0146 -0.4518 -0.6696
  670MOL0     C92344   5.329   5.676   2.992  0.6899  0.1184 -0.3533
  670MOL0     C92345   5.457   5.603   3.030 -0.1524 -0.2401  0.3128
  670MOL0     O92346   5.569   5.694   2.994 -0.2204  0.3939 -0.1354
  670MOL0     C92347   5.662   5.693   3.092  0.1336 -0.0839  0.6847
  670MOL0     C92348   5.676   5.796   3.179  0.4553  0.0919 -1.1352
  670MOL0     C92349   5.770   5.806   3.280 -0.5436 -0.5472 -0.0857
  670MOL0     C92350   5.756   5.925   3.378 -0.4853 -0.5850 -0.2977
  670MOL0     C92351   5.862   5.698   3.291  0.2473 -0.2818 -0.2317
  670MOL0     C92352   5.973   5.693   3.389  0.2987 -0.2971  0.4342
  670MOL0     O92353   6.091   5.633   3.362  0.4331  0.1263 -0.6801
  670MOL0     C92354   6.209   5.658   3.434  0.1085  0.5246 -0.5559
  670MOL0     C92355   6.239   5.775   3.519 -0.2246 -0.6825  0.2502
  670MOL0     C92356   6.368   5.784   3.567 -0.0816  0.0801  0.3911
  670MOL0     C92357   6.458   5.674   3.552  0.6033 -0.4276  0.3366
  670MOL0     O92358   6.590   5.678   3.597  0.1518 -0.2725  0.2867
  670MOL0     C92359   6.654   5.804   3.614 -0.1145 -1.0623 -0.2545
  670MOL0     C92360   6.635   5.836   3.764  0.1297  0.3582 -0.2614
  670MOL0     C92361   6.733   5.752   3.852 -0.4550 -0.8941  0.8979
  670MOL0     C92362   6.719   5.801   3.992 -0.1314  0.1482  0.3991
  670MOL0     C92363   6.834   5.730   4.073  0.5988 -0.3135  0.0406
  670MOL0     C92364   6.855   5.805   4.198  0.5432  0.0681  0.4396
  670MOL0     C92365   6.954   5.732   4.290 -0.3391 -0.4321  0.3221
  670MOL0     C92366   7.026   5.824   4.391  0.0394  0.2124 -0.1604
  670MOL0    Cl92367   7.143   5.732   4.478  0.0924  0.2844  0.3330
  670MOL0     C92368   6.431   5.552   3.486 -0.8940 -0.3797  0.2172
  670MOL0     C92369   6.306   5.554   3.428 -0.3716  0.2010 -0.9054
  670MOL0     O92370   5.940   5.747   3.495  0.2653  0.3827  0.0910
  670MOL0     C92371   5.845   5.587   3.200  0.4016 -0.1192  0.0653
  670MOL0     C92372   5.751   5.584   3.094 -0.6845  0.2397 -0.8645
  670MOL0     N92373   4.937   5.485   3.211  0.0407  0.1410  0.3056
  670MOL0     N92374   4.862   5.506   3.318  0.3019 -0.0022 -0.3729
  670MOL0     C92375   4.259   4.886   3.573 -0.2377 -0.1201  0.0121
  670MOL0     C92376   4.118   4.888   3.557 -0.0885  0.1916  0.1544
  670MOL0     C92377   3.688   5.052   3.650 -0.2145 -0.0010 -1.3983
  670MOL0     C92378   3.614   5.132   3.737  0.2472 -0.0457 -0.7498
  670MOL0     C92379   3.476   5.147   3.716  0.6300  0.4633 -0.4465
  670MOL0     C92380   3.410   5.082   3.614  0.1998 -0.7789  0.5355
  670MOL0     O92381   3.271   5.086   3.586 -0.5141 -0.0634  0.3939
  670MOL0     C92382   3.190   5.154   3.684  1.0000 -0.0250  0.4393
  670MOL0     C92383   3.043   5.132   3.649 -0.4756 -0.3441  1.1076
  670MOL0     C92384   2.997   4.982   3.640  0.0356  0.3648  0.5153
  670MOL0     C92385   2.984   4.929   3.494 -0.8731  0.2325 -0.4863
  670MOL0     C92386   2.886   4.987   3.413  0.0860 -2.1837  1.0458
  670MOL0     C92387   2.796   5.058   3.366 -0.4312  0.4694 -0.7790
  670MOL0     C92388   3.490   5.005   3.530 -0.7676  0.6771 -0.5972
  670MOL0     C92389   3.630   4.990   3.541 -0.4088  0.5851 -0.1677
  670MOL0     C92390   3.706   4.914   3.435  0.5698 -0.0719 -1.2828
  670MOL0     H92391   4.073   5.198   3.694  0.1982  0.6829 -2.7570
  670MOL0     H92392   4.308   5.183   3.713  1.9189 -0.5410 -1.4456
  670MOL0     H92393   4.514   4.994   3.435  1.6154  0.4895  0.0329
  670MOL0     H92394   4.544   4.842   3.525 -0.5292  0.4050  0.1363
  670MOL0     H92395   4.730   4.955   3.654 -0.0534 -0.7860  0.3378
  670MOL0     H92396   4.744   4.912   3.487 -2.6619  0.1675 -2.2914
  670MOL0     H92397   4.833   5.131   3.478 -0.7153  4.4814 -0.7586
  670MOL0     H92398   4.665   5.167   3.439  0.4009  2.0996  0.1147
  670MOL0     H92399   4.615   5.214   3.678  0.0135  1.2864  0.1768
  670MOL0     H92400   4.785   5.172   3.722 -0.9206 -0.2479  0.8667
  670MOL0     H92401   4.684   5.414   3.712 -1.6904 -3.5068  1.7032
  670MOL0     H92402   4.732   5.394   3.533  2.3870 -0.7254 -0.6593
  670MOL0     H92403   4.949   5.349   3.743  1.9769 -0.4136 -0.8862
  670MOL0     H92404   4.962   5.362   3.575 -1.2580 -0.3399 -1.2707
  670MOL0     H92405   5.026   5.565   3.691  2.0385 -3.2667 -3.2480
  670MOL0     H92406   4.857   5.596   3.744 -1.4411  2.7600 -3.1311
  670MOL0     H92407   4.778   5.625   3.544 -0.2778 -2.2567 -0.9928
  670MOL0     H92408   4.932   5.724   3.543  0.5225 -0.7135 -1.9744
  670MOL0     H92409   5.141   5.616   3.427  0.0083 -1.8266  1.8999
  670MOL0     H92410   5.126   5.454   3.051  0.2215 -1.3331  0.3060
  670MOL0     H92411   5.255   5.449   3.150 -4.0921 -3.6666  1.2606
  670MOL0     H92412   5.124   5.720   3.065  0.4383  1.7316  1.8808
  670MOL0     H92413   5.242   5.704   3.192 -1.9837  0.2815 -0.2839
  670MOL0     H92414   5.301   5.647   2.891  1.2481 -2.5495  0.1706
  670MOL0     H92415   5.354   5.782   2.991  1.2864 -0.0277 -0.9773
  670MOL0     H92416   5.456   5.590   3.139  1.0034  0.2410  0.3953
  670MOL0     H92417   5.465   5.505   2.982  1.0149 -0.9317  1.8053
  670MOL0     H92418   5.597   5.871   3.170  0.0954  0.2604  2.3325
  670MOL0     H92419   5.690   6.004   3.341  2.3610  1.7892 -0.7119
  670MOL0     H92420   5.851   5.974   3.401 -0.6759 -0.4828  0.2810
  670MOL0     H92421   5.717   5.879   3.468 -0.7375  1.9456  0.9800
  670MOL0     H92422   6.174   5.860   3.536  0.4880 -0.1654  0.4308
  670MOL0     H92423   6.403   5.872   3.620  0.5758  0.6144 -0.8944
  670MOL0     H92424   6.759   5.789   3.591  0.7566 -0.1922  2.6702
  670MOL0     H92425   6.612   5.885   3.554 -1.2572 -0.4156  1.3316
  670MOL0     H92426   6.655   5.942   3.781 -0.1619  0.4981 -0.7805
  670MOL0     H92427   6.531   5.812   3.787  0.8410 -2.2454  0.6412
  670MOL0     H92428   6.838   5.764   3.824 -1.2350 -1.8197 -2.9257
  670MOL0     H92429   6.702   5.648   3.845 -1.9057 -0.3785 -1.2501
  670MOL0     H92430   6.619   5.781   4.031  0.6516 -2.3976  1.2958
  670MOL0     H92431   6.738   5.909   3.986  1.4887 -0.1939 -2.1560
  670MOL0     H92432   6.805   5.627   4.095 -0.1260 -0.1257 -0.0155
  670MOL0     H92433   6.924   5.725   4.012  0.3393 -0.5654 -0.3263
  670MOL0     H92434   6.766   5.813   4.261 -0.7616 -0.1982 -1.2719
  670MOL0     H92435   6.884   5.908   4.176 -1.3760  0.8493  1.2575
  670MOL0     H92436   7.028   5.686   4.223 -1.5110 -0.8809 -0.6886
  670MOL0     H92437   6.902   5.656   4.349 -4.1685  2.3136  0.8157
  670MOL0     H92438   6.955   5.871   4.460 -2.4024  0.4724 -2.6711
  670MOL0     H92439   7.078   5.905   4.339 -0.7713  1.0501  0.3073
  670MOL0     H92440   6.496   5.466   3.470 -2.4769 -1.9628  1.7515
  670MOL0     H92441   6.282   5.468   3.367 -3.5487  0.9318 -0.8729
  670MOL0     H92442   5.906   5.499   3.215 -3.6804 -3.0842  0.8999
  670MOL0     H92443   5.749   5.507   3.017 -1.8828 -0.0862 -0.5219
  670MOL0     H92444   4.320   4.804   3.535  2.3340  1.5887  0.2136
  670MOL0     H92445   4.068   4.807   3.505 -1.9511  1.1687  0.3263
  670MOL0     H92446   3.639   5.188   3.827 -0.7696  0.5964 -0.8465
  670MOL0     H92447   3.418   5.203   3.789  1.7064 -1.1196  1.7585
  670MOL0     H92448   3.215   5.118   3.784  5.3585  1.5123  0.1465
  670MOL0     H92449   3.206   5.261   3.702  2.0798 -0.3796  1.7661
  670MOL0     H92450   3.013   5.192   3.563  0.1975 -0.8901  0.4782
  670MOL0     H92451   2.976   5.180   3.722 -1.3444 -1.4843  1.0891
  670MOL0     H92452   3.074   4.921   3.689  1.2291  1.9196  0.6580
  670MOL0     H92453   2.902   4.968   3.691  0.4277  0.9887  1.4384
  670MOL0     H92454   2.965   4.821   3.491  0.9651 -0.1463  0.3041
  670MOL0     H92455   3.084   4.943   3.453 -0.2551 -0.0291  0.8733
  670MOL0     H92456   2.719   5.120   3.325  2.4345  2.7160 -3.1822
  670MOL0     H92457   3.443   4.966   3.441 -0.4254  2.2928 -1.5099
  670MOL0     H92458   3.734   4.817   3.479 -2.2630  0.2161  1.4637
  670MOL0     H92459   3.642   4.888   3.350  1.5264 -1.2220 -1.6832
  670MOL0     H92460   3.790   4.974   3.401  0.5510 -0.1275 -1.4300
  671MOL0     O92461   2.840   5.513   3.480 -0.0541  0.0502 -0.6956
  671MOL0     C92462   2.775   5.619   3.480  0.3094 -0.7740  0.0444
  671MOL0     O92463   2.831   5.745   3.466  0.2175 -0.5005 -0.3683
  671MOL0     C92464   2.965   5.767   3.439 -1.4092  1.1893 -0.4044
  671MOL0     C92465   3.039   5.871   3.496  0.0518  0.2164 -0.6814
  671MOL0     C92466   3.178   5.890   3.474 -1.4084 -0.1820  0.7464
  671MOL0     C92467   3.244   5.803   3.385  0.4351  0.1687  0.9926
  671MOL0     O92468   3.379   5.813   3.367 -0.6706  0.5025 -0.4854
  671MOL0     C92469   3.438   5.778   3.236 -0.5895  0.2418  0.0946
  671MOL0     C92470   3.593   5.791   3.238  0.1912  0.6681  0.6976
  671MOL0     C92471   3.637   5.924   3.190  1.0367 -0.9134 -0.9194
  671MOL0     C92472   3.778   5.950   3.237 -0.2954  0.4545 -0.3891
  671MOL0     C92473   3.830   6.080   3.169 -0.2222 -0.1460 -0.0409
  671MOL0     C92474   3.745   6.195   3.223 -0.4140 -0.4996  1.2457
  671MOL0     C92475   3.796   6.340   3.207 -0.4555  0.2220 -0.3435
  671MOL0     C92476   3.927   6.368   3.293 -0.3011  0.3149  0.5526
  671MOL0     N92477   3.884   6.372   3.437 -0.4031 -0.1515 -0.7879
  671MOL0     C92478   3.804   6.464   3.492  0.8106 -0.0220 -0.0560
  671MOL0     C92479   3.793   6.428   3.625 -0.1903  0.4875 -0.0728
  671MOL0     C92480   3.719   6.505   3.733  0.4108  0.1523  0.8834
  671MOL0     C92481   3.805   6.619   3.792 -0.7016  0.0490 -0.0641
  671MOL0     C92482   3.943   6.567   3.844 -0.0341  0.4993  0.0896
  671MOL0     C92483   4.040   6.679   3.871  0.2343  0.0130 -0.1442
  671MOL0     O92484   3.969   6.767   3.959  0.0184 -0.3666  0.2487
  671MOL0     C92485   4.031   6.884   4.002  0.4436  0.4643 -0.4384
  671MOL0     C92486   4.142   6.938   3.942 -0.6736  0.2200 -0.2216
  671MOL0     C92487   4.206   7.058   3.992 -0.1204 -0.0777 -0.4047
  671MOL0     C92488   4.330   7.116   3.932  0.4724  0.0612  1.0820
  671MOL0     C92489   4.133   7.127   4.101  0.6001  0.4210  0.1450
  671MOL0     C92490   4.178   7.258   4.166 -0.4456 -0.0078 -0.2371
  671MOL0     O92491   4.120   7.283   4.291  0.5351 -0.7374  0.1219
  671MOL0     C92492   4.155   7.406   4.342  0.0925  0.9227 -0.0412
  671MOL0     C92493   4.289   7.442   4.387  0.3244 -0.4521  0.0917
  671MOL0     C92494   4.311   7.575   4.436  0.8244  0.1810 -0.3786
  671MOL0     C92495   4.204   7.670   4.446  0.0914  1.0983 -0.0620
  671MOL0     O92496   4.212   7.807   4.479 -0.3751  0.9375  0.5070
  671MOL0     C92497   4.346   7.845   4.516  0.5199 -0.5456  0.5234
  671MOL0     C92498   4.357   7.997   4.537  0.8928  0.2598  0.3496
  671MOL0     C92499   4.314   8.063   4.401 -0.5936  0.5437  0.1309
  671MOL0     C92500   4.344   8.208   4.419 -0.0283  0.1464  1.2049
  671MOL0     C92501   4.361   8.271   4.281  0.1095 -0.2648  0.8938
  671MOL0     C92502   4.372   8.423   4.280  0.1624 -1.5063  0.5970
  671MOL0     C92503   4.361   8.475   4.135 -0.2328  0.6563 -1.2587
  671MOL0     C92504   4.363   8.625   4.127  0.3890 -0.6583  0.3232
  671MOL0    Cl92505   4.211   8.704   4.190 -0.0281  0.6197  0.0194
  671MOL0     C92506   4.080   7.625   4.406  0.1754 -0.0479  1.0655
  671MOL0     C92507   4.054   7.502   4.354 -0.1874  0.7885 -0.6135
  671MOL0     O92508   4.240   7.337   4.096 -0.6289  0.5358 -0.2327
  671MOL0     C92509   4.002   7.080   4.144 -0.6595  0.4599  0.7775
  671MOL0     C92510   3.960   6.962   4.090 -0.8080 -0.3325 -0.4298
  671MOL0     N92511   3.867   6.308   3.641 -0.2396  0.0193  0.3617
  671MOL0     N92512   3.924   6.276   3.529 -0.1899  0.0893 -0.1994
  671MOL0     C92513   3.169   5.695   3.321  0.5223 -0.2080  0.0662
  671MOL0     C92514   3.030   5.690   3.343  0.3243  0.3354  0.0352
  671MOL0     C92515   2.625   5.615   3.496 -0.4892  0.2909 -0.1939
  671MOL0     C92516   2.551   5.734   3.461 -0.9022 -0.6585  0.7332
  671MOL0     C92517   2.416   5.734   3.465  0.7353 -0.0612 -0.6168
  671MOL0     C92518   2.339   5.627   3.511 -0.3051  1.3162  0.2624
  671MOL0     O92519   2.206   5.621   3.531  0.0522  0.0849  0.5304
  671MOL0     C92520   2.122   5.734   3.506 -0.5156  1.0024  0.3459
  671MOL0     C92521   1.975   5.684   3.508 -0.5125  0.4309 -0.2921
  671MOL0     C92522   1.878   5.790   3.476  0.3484  0.0391 -0.2368
  671MOL0     C92523   1.732   5.760   3.510 -0.0175 -0.1485  0.2823
  671MOL0     C92524   1.709   5.712   3.643  0.1836 -0.3717  0.9105
  671MOL0     C92525   1.675   5.663   3.746  1.0026  0.6154 -0.6805
  671MOL0     C92526   2.401   5.505   3.540  0.0922 -0.0329  0.0931
  671MOL0     C92527   2.546   5.501   3.535 -0.7707  0.1762  1.0263
  671MOL0     C92528   2.591   5.360   3.562  0.2932  0.0049 -0.4424
  671MOL0     H92529   2.978   5.933   3.560 -1.1012 -1.4152 -0.1229
  671MOL0     H92530   3.238   5.973   3.513 -2.0854  1.8666 -2.2346
  671MOL0     H92531   3.404   5.849   3.161  3.3556  0.5973 -1.6010
  671MOL0     H92532   3.411   5.677   3.205 -0.5447  0.8583 -2.1123
  671MOL0     H92533   3.626   5.759   3.337 -1.4844 -2.4065  0.3944
  671MOL0     H92534   3.637   5.722   3.165  1.0712  0.4511  1.4219
  671MOL0     H92535   3.642   5.926   3.081  0.5307  1.2872 -0.9427
  671MOL0     H92536   3.565   6.002   3.215  0.7770 -1.4405  0.0348
  671MOL0     H92537   3.784   5.951   3.347  0.7895  1.7004 -0.4390
  671MOL0     H92538   3.827   5.855   3.213 -0.2263  0.9714 -2.4184
  671MOL0     H92539   3.820   6.084   3.060  0.3635 -2.3073 -0.2060
  671MOL0     H92540   3.934   6.090   3.200  0.6707  0.4136 -2.9324
  671MOL0     H92541   3.647   6.190   3.174  0.4111 -0.8293 -0.4404
  671MOL0     H92542   3.735   6.174   3.330  0.7624 -1.7498  1.1383
  671MOL0     H92543   3.717   6.406   3.245  1.4478  3.2939 -1.3434
  671MOL0     H92544   3.816   6.359   3.101  0.8285  1.3357  0.0751
  671MOL0     H92545   4.010   6.297   3.284  0.1060  0.7557  0.7071
  671MOL0     H92546   3.971   6.466   3.270  2.3800 -0.7533  0.7423
  671MOL0     H92547   3.751   6.552   3.458 -1.1734 -1.8165 -1.8645
  671MOL0     H92548   3.679   6.429   3.801 -3.2774  0.4399 -0.7078
  671MOL0     H92549   3.621   6.535   3.694 -0.1419 -3.6693 -1.2516
  671MOL0     H92550   3.819   6.702   3.722 -1.1577  2.4611  2.5325
  671MOL0     H92551   3.751   6.665   3.875 -2.3911 -0.6977 -0.7044
  671MOL0     H92552   3.929   6.509   3.936  1.5907  0.7020  0.4910
  671MOL0     H92553   3.990   6.500   3.772  1.7485  0.2327  1.4347
  671MOL0     H92554   4.137   6.646   3.908  1.1565  0.1802 -2.2985
  671MOL0     H92555   4.068   6.735   3.781 -3.2818  2.3471  0.0003
  671MOL0     H92556   4.193   6.894   3.857  0.2801  0.4957  0.1858
  671MOL0     H92557   4.370   7.055   3.851  1.0025  1.5601  0.1773
  671MOL0     H92558   4.400   7.132   4.016 -1.4058  1.2467  2.5046
  671MOL0     H92559   4.313   7.211   3.880  2.0771 -0.9010 -1.3827
  671MOL0     H92560   4.370   7.371   4.398  2.4519  1.9642  1.0714
  671MOL0     H92561   4.412   7.590   4.471  1.0702 -1.0341 -0.5122
  671MOL0     H92562   4.363   7.796   4.612 -0.8429 -0.7063  0.7030
  671MOL0     H92563   4.413   7.824   4.432 -1.7923  2.9348 -2.5313
  671MOL0     H92564   4.283   8.009   4.617  1.4496  0.7240  0.8006
  671MOL0     H92565   4.453   8.027   4.580  1.1704  2.3549 -1.5949
  671MOL0     H92566   4.209   8.045   4.376 -0.1232 -0.3675 -1.3365
  671MOL0     H92567   4.382   8.011   4.332 -0.7684 -0.3177  0.5949
  671MOL0     H92568   4.437   8.206   4.476  1.5062 -2.5928 -1.1430
  671MOL0     H92569   4.265   8.250   4.482  1.2902 -0.0651  3.0826
  671MOL0     H92570   4.453   8.235   4.234  0.2139 -1.3996  1.9463
  671MOL0     H92571   4.270   8.242   4.227  0.1408  0.4010  0.4627
  671MOL0     H92572   4.458   8.468   4.331 -1.0498  3.2561 -1.0265
  671MOL0     H92573   4.284   8.460   4.332 -0.3314 -1.1692 -0.4595
  671MOL0     H92574   4.267   8.430   4.100  0.2983 -3.5812  2.0191
  671MOL0     H92575   4.444   8.432   4.079  1.6019  0.6962  1.2360
  671MOL0     H92576   4.389   8.657   4.026  3.9760 -0.0131  1.3091
  671MOL0     H92577   4.447   8.659   4.189  2.2256 -2.7580 -0.8701
  671MOL0     H92578   3.995   7.692   4.419  0.3936  0.0924  1.8206
  671MOL0     H92579   3.951   7.477   4.334 -0.0166 -1.2392  0.7021
  671MOL0     H92580   3.948   7.120   4.230 -0.4301  1.4036  0.4886
  671MOL0     H92581   3.868   6.926   4.134 -0.9169  1.8374  1.2976
  671MOL0     H92582   3.220   5.628   3.253  1.4710  0.7131 -0.1576
  671MOL0     H92583   2.965   5.616   3.299  0.8295 -0.3335  0.3933
  671MOL0     H92584   2.606   5.819   3.422  0.2368 -1.4391  0.5960
  671MOL0     H92585   2.369   5.826   3.432  2.3536  0.7603 -0.7455
  671MOL0     H92586   2.145   5.806   3.585  2.5198  0.0897  0.4293
  671MOL0     H92587   2.139   5.790   3.413 -1.4523 -0.3062 -0.6487
  671MOL0     H92588   1.958   5.631   3.603  0.6612  2.2777  1.0214
  671MOL0     H92589   1.952   5.611   3.430 -1.4161 -0.1963  0.5200
  671MOL0     H92590   1.903   5.882   3.529  1.1260 -0.1998 -0.1800
  671MOL0     H92591   1.890   5.816   3.371  0.5282 -1.2929 -0.5702
  671MOL0     H92592   1.691   5.692   3.435  0.2603  0.6408 -0.6069
  671MOL0     H92593   1.676   5.849   3.480  1.7702  0.7298 -0.6272
  671MOL0     H92594   1.662   5.604   3.835 -0.8040  2.0995  0.0968
  671MOL0     H92595   2.339   5.424   3.579  0.1168  0.9895  2.4054
  671MOL0     H92596   2.658   5.344   3.648 -0.9086  2.2668  1.0069
  671MOL0     H92597   2.506   5.291   3.558 -0.8337  1.3265  0.1303
  671MOL0     H92598   2.659   5.336   3.480 -0.1449 -0.3234 -0.7126
  672MOL0     O92599  11.340   0.318   3.773 -0.1544  0.0933 -0.8095
  672MOL0     C92600  11.372   0.198   3.804  0.2038  0.2461  1.1980
  672MOL0     O92601  11.493   0.158   3.854  0.5494  0.9113 -0.1328
  672MOL0     C92602  11.604   0.236   3.836  0.2001 -0.5786 -0.2649
  672MOL0     C92603  11.675   0.270   3.948 -0.7817 -0.0033  0.3857
  672MOL0     C92604  11.786   0.350   3.934 -0.1709 -0.4008  0.9188
  672MOL0     C92605  11.829   0.403   3.810  0.2964  1.3352 -0.3582
  672MOL0     O92606  11.956   0.464   3.803  0.1334  0.2987  0.0845
  672MOL0     C92607  11.955   0.610   3.814 -0.3548 -0.5986  0.6692
  672MOL0     C92608  12.095   0.663   3.831  0.1527 -0.4636 -0.3042
  672MOL0     C92609  12.169   0.655   3.700  0.0256  0.3645 -0.3997
  672MOL0     C92610  12.310   0.690   3.711  0.0845  0.4766  0.0887
  672MOL0     C92611  12.375   0.687   3.572  0.6897 -0.9241 -0.5025
  672MOL0     C92612  12.519   0.669   3.564  0.3700  0.0092 -0.8209
  672MOL0     C92613  12.603   0.786   3.613  0.4794  0.4636  0.6478
  672MOL0     C92614  12.750   0.754   3.600  0.8637  0.3120  0.4384
  672MOL0     N92615  12.823   0.760   3.727  0.5299 -0.4432  0.0999
  672MOL0     C92616  12.837   0.883   3.783  0.6625  0.4807  0.5130
  672MOL0     C92617  12.909   0.854   3.898 -0.9899  0.3894 -0.5213
  672MOL0     C92618  12.982   0.936   3.996 -0.4601 -0.5199  0.6995
  672MOL0     C92619  13.136   0.903   4.007  1.0662  0.5732  0.0854
  672MOL0     C92620  13.206   0.986   4.124  0.3666  0.3231 -0.0062
  672MOL0     C92621  13.350   0.950   4.168 -0.4264  0.4556 -0.2361
  672MOL0     O92622  13.424   1.001   4.062  0.0530 -0.8499 -0.1454
  672MOL0     C92623  13.558   1.007   4.080 -0.1016 -0.6292 -0.1363
  672MOL0     C92624  13.628   0.968   4.197 -0.6231  0.7264 -0.4501
  672MOL0     C92625  13.767   0.994   4.210 -1.0040  0.8066  0.4598
  672MOL0     C92626  13.841   0.943   4.333  0.0937  0.3607 -0.2455
  672MOL0     C92627  13.835   1.052   4.105  0.3084 -0.4878 -0.0797
  672MOL0     C92628  13.981   1.073   4.089  0.3508 -0.2541  0.0299
  672MOL0     O92629  14.021   1.188   4.021 -0.0493 -0.3767 -0.4149
  672MOL0     C92630  14.155   1.210   4.011 -0.1992 -0.6563  0.1574
  672MOL0     C92631  14.244   1.130   3.948 -0.3454  0.7086  0.5943
  672MOL0     C92632  14.379   1.171   3.929  0.2248 -0.2074  0.7014
  672MOL0     C92633  14.417   1.297   3.985 -0.3719 -0.3619  0.0862
  672MOL0     O92634  14.544   1.348   3.998  0.4603 -0.0301  0.6579
  672MOL0     C92635  14.650   1.249   4.003 -0.8014 -0.2505 -0.1433
  672MOL0     C92636  14.771   1.299   4.091 -0.4447 -0.0495  0.1641
  672MOL0     C92637  14.897   1.197   4.087 -0.0694  0.8001  0.3198
  672MOL0     C92638  15.021   1.260   4.151 -0.2716 -0.4954 -0.3058
  672MOL0     C92639  15.146   1.164   4.157 -0.5379  0.0751  0.4051
  672MOL0     C92640  15.219   1.151   4.025 -0.1662 -0.1500 -0.2934
  672MOL0     C92641  15.308   1.016   4.015  0.4911 -0.1982  0.5414
  672MOL0     C92642  15.428   1.042   3.925 -1.1593 -0.3034  0.1456
  672MOL0    Cl92643  15.401   1.098   3.757 -0.0759  0.1998 -0.3998
  672MOL0     C92644  14.327   1.375   4.050  0.6817  0.0664  1.0961
  672MOL0     C92645  14.198   1.335   4.067  0.1867  0.2971  0.4474
  672MOL0     O92646  14.056   0.992   4.146  0.2511 -0.0225 -0.0351
  672MOL0     C92647  13.759   1.095   3.995  0.2948 -0.0889  0.3937
  672MOL0     C92648  13.623   1.085   3.987  0.6843  0.0804 -0.2539
  672MOL0     N92649  12.929   0.712   3.902 -0.1491 -0.4766 -0.2425
  672MOL0     N92650  12.871   0.657   3.804  0.3645  0.0108  0.5012
  672MOL0     C92651  11.757   0.371   3.691  0.7277  0.6455 -0.3718
  672MOL0     C92652  11.636   0.295   3.711  0.5318 -0.2221 -0.1179
  672MOL0     C92653  11.264   0.098   3.791 -0.5178  0.8228 -0.2725
  672MOL0     C92654  11.302  -0.032   3.809 -0.1914  1.1321  0.6505
  672MOL0     C92655  11.219  -0.141   3.792  0.2295 -0.7190 -0.0032
  672MOL0     C92656  11.091  -0.121   3.754 -0.4371  1.0937 -0.2704
  672MOL0     O92657  11.010  -0.227   3.729 -0.1646 -0.1876 -0.1414
  672MOL0     C92658  10.954  -0.293   3.836 -0.0551  0.2030 -1.1495
  672MOL0     C92659  11.003  -0.437   3.833 -0.2775 -0.2107 -0.1519
  672MOL0     C92660  10.962  -0.520   3.707  0.2875  0.9860  0.6977
  672MOL0     C92661  11.045  -0.654   3.700 -0.5121 -0.7200  0.2238
  672MOL0     C92662  11.164  -0.617   3.617  0.3889 -0.2166 -0.2095
  672MOL0     C92663  11.266  -0.587   3.559 -0.3564 -0.1240  0.1379
  672MOL0     C92664  11.043   0.006   3.750  0.1444  0.0461  0.5770
  672MOL0     C92665  11.130   0.119   3.757  0.6534  0.1011 -0.0742
  672MOL0     C92666  11.065   0.258   3.732 -0.2302 -0.5969 -0.6669
  672MOL0     H92667  11.638   0.236   4.044 -1.8048  0.3439  0.1178
  672MOL0     H92668  11.848   0.379   4.018  1.9281  1.1905 -1.0305
  672MOL0     H92669  11.892   0.639   3.898 -0.1547 -1.4595  1.1331
  672MOL0     H92670  11.919   0.640   3.715  1.2775 -0.7164  0.0071
  672MOL0     H92671  12.088   0.766   3.866  0.6715 -0.6312  0.3164
  672MOL0     H92672  12.152   0.602   3.903 -2.0920 -3.0010 -0.5040
  672MOL0     H92673  12.147   0.563   3.645  1.5294  1.5151 -3.0867
  672MOL0     H92674  12.118   0.731   3.640 -2.4037 -0.0519  0.9959
  672MOL0     H92675  12.324   0.792   3.748  1.0054  1.6759 -3.2109
  672MOL0     H92676  12.358   0.622   3.781 -0.0471 -1.6658 -1.8023
  672MOL0     H92677  12.347   0.778   3.517  1.2160 -1.5899 -1.9288
  672MOL0     H92678  12.333   0.602   3.517 -3.7893  0.1572  0.7808
  672MOL0     H92679  12.538   0.575   3.617 -1.4900  0.7092  1.2162
  672MOL0     H92680  12.548   0.648   3.461  0.4393 -1.9597 -0.4533
  672MOL0     H92681  12.577   0.810   3.717  1.8926  1.0631  0.8875
  672MOL0     H92682  12.577   0.874   3.554 -0.1303 -0.5417 -0.6277
  672MOL0     H92683  12.757   0.653   3.558 -1.0668  0.9452 -1.6298
  672MOL0     H92684  12.811   0.812   3.530  3.8680 -2.5191  0.4667
  672MOL0     H92685  12.813   0.982   3.746  0.6735  0.5314  0.6398
  672MOL0     H92686  12.931   0.938   4.093 -0.5204  2.9544  0.7220
  672MOL0     H92687  12.977   1.041   3.969 -1.3730  0.0101  2.7041
  672MOL0     H92688  13.150   0.797   4.029  4.4577  0.5052 -1.8140
  672MOL0     H92689  13.194   0.915   3.915  1.2645 -0.4641  0.0620
  672MOL0     H92690  13.208   1.088   4.082  0.0944 -0.3679 -1.7722
  672MOL0     H92691  13.132   0.981   4.204  1.4524 -2.0677  0.9391
  672MOL0     H92692  13.371   0.986   4.270  2.6052  0.6520 -0.8198
  672MOL0     H92693  13.365   0.842   4.175  0.1767  0.6138  1.3429
  672MOL0     H92694  13.584   0.935   4.291  0.0139 -1.3917 -0.8395
  672MOL0     H92695  13.873   1.027   4.396 -2.4292  0.4766  1.0246
  672MOL0     H92696  13.930   0.885   4.309 -1.0472 -1.4805 -0.2271
  672MOL0     H92697  13.778   0.879   4.395  0.2348 -0.8461 -1.3098
  672MOL0     H92698  14.216   1.035   3.904  1.6783 -0.7613  2.2553
  672MOL0     H92699  14.440   1.109   3.865  0.0350 -0.5743  0.8723
  672MOL0     H92700  14.610   1.158   4.050 -1.1146  1.6208  3.5652
  672MOL0     H92701  14.678   1.236   3.898  0.2084 -1.7837  0.2824
  672MOL0     H92702  14.794   1.396   4.047 -0.9119 -1.4050 -3.4808
  672MOL0     H92703  14.739   1.297   4.195 -0.8347 -2.9189  0.0922
  672MOL0     H92704  14.919   1.172   3.983  0.2132 -3.4512  1.2315
  672MOL0     H92705  14.879   1.103   4.140  1.3134  1.0209  1.2518
  672MOL0     H92706  14.997   1.286   4.254  4.7394  0.2158  0.9438
  672MOL0     H92707  15.043   1.359   4.110 -0.2488  0.3808  1.7052
  672MOL0     H92708  15.216   1.199   4.233  0.5831  0.7541 -0.9049
  672MOL0     H92709  15.102   1.067   4.183 -3.6683  1.7042  1.7445
  672MOL0     H92710  15.276   1.240   3.999  0.2374 -0.6765 -1.2906
  672MOL0     H92711  15.147   1.149   3.943 -0.4533  2.5595 -0.1934
  672MOL0     H92712  15.259   0.926   3.978 -0.4902  0.3693  0.4435
  672MOL0     H92713  15.348   0.996   4.115  2.3020 -0.2167 -0.1402
  672MOL0     H92714  15.499   0.959   3.922 -0.7135  0.0584  0.5460
  672MOL0     H92715  15.485   1.123   3.971  1.5383 -0.8874 -1.9276
  672MOL0     H92716  14.363   1.472   4.083 -3.0436  0.4125  5.0327
  672MOL0     H92717  14.121   1.398   4.112 -0.6491  1.4548 -2.4032
  672MOL0     H92718  13.794   1.128   3.898 -3.6832  1.7130 -0.6426
  672MOL0     H92719  13.552   1.122   3.913 -1.2830  1.9315  2.3657
  672MOL0     H92720  11.789   0.407   3.594 -2.3137  0.7776 -1.4478
  672MOL0     H92721  11.570   0.267   3.630  0.6555 -2.5339  0.4966
  672MOL0     H92722  11.401  -0.078   3.817 -1.8469 -3.0480 -0.1449
  672MOL0     H92723  11.256  -0.242   3.799  3.5133  0.3801  0.1904
  672MOL0     H92724  10.991  -0.244   3.927 -4.1705  0.8692  0.3687
  672MOL0     H92725  10.845  -0.288   3.831 -0.0393  4.1276 -0.1001
  672MOL0     H92726  10.965  -0.499   3.915 -0.0701 -0.6260 -0.3653
  672MOL0     H92727  11.111  -0.438   3.849 -0.5773 -1.5766  2.1122
  672MOL0     H92728  10.859  -0.553   3.723  0.9521  0.3071  5.0626
  672MOL0     H92729  10.974  -0.460   3.616  1.6776 -2.1380 -1.3338
  672MOL0     H92730  10.995  -0.740   3.655 -1.0630 -0.4939  0.3919
  672MOL0     H92731  11.071  -0.661   3.806  2.8713  1.3111 -0.2978
  672MOL0     H92732  11.360  -0.561   3.516  0.2286 -0.3888  1.2238
  672MOL0     H92733  10.938   0.027   3.731 -0.3035 -0.1623  2.6074
  672MOL0     H92734  11.105   0.297   3.638  1.7738 -0.5040  0.1702
  672MOL0     H92735  10.956   0.264   3.738 -0.4542 -0.6274 -3.2966
  672MOL0     H92736  11.097   0.326   3.811 -1.4508  0.3662 -0.9793
  673MOL0     O92737   2.271  10.075   2.889 -0.1323 -0.9087  0.1414
  673MOL0     C92738   2.343  10.001   2.820 -0.1695 -0.7482 -0.0230
  673MOL0     O92739   2.354   9.869   2.839 -0.2318  0.0715  0.1420
  673MOL0     C92740   2.240   9.803   2.861  0.2104  0.5140  0.4364
  673MOL0     C92741   2.159   9.773   2.756 -0.3026 -0.4858  0.1721
  673MOL0     C92742   2.036   9.715   2.771 -0.6033  0.8028 -0.2934
  673MOL0     C92743   2.004   9.667   2.897 -0.8545  0.9332 -0.6554
  673MOL0     O92744   1.900   9.579   2.912 -0.2900  0.3703  0.9786
  673MOL0     C92745   1.777   9.635   2.952  1.2027  0.3084 -0.8119
  673MOL0     C92746   1.640   9.569   2.906 -0.1069  0.2953 -0.0831
  673MOL0     C92747   1.520   9.616   2.987  0.3560  0.0842 -0.9240
  673MOL0     C92748   1.438   9.730   2.923  0.0898 -0.5156  0.4735
  673MOL0     C92749   1.318   9.776   3.011  0.6705 -0.0783 -0.6302
  673MOL0     C92750   1.244   9.893   2.954  0.6672 -0.1128  1.5693
  673MOL0     C92751   1.147   9.936   3.065 -0.1478  0.5880  0.2762
  673MOL0     C92752   1.040  10.025   3.018 -0.3415  0.2140 -0.8595
  673MOL0     N92753   0.918   9.946   2.974 -0.5144  0.2514  1.1717
  673MOL0     C92754   0.811   9.902   3.049 -0.4894 -0.0237  0.2878
  673MOL0     C92755   0.724   9.849   2.957 -1.2027 -0.3286  0.5738
  673MOL0     C92756   0.589   9.803   2.987 -0.9409 -0.3185  0.2295
  673MOL0     C92757   0.497   9.916   2.944  0.3190 -0.0767 -0.4001
  673MOL0     C92758   0.352   9.885   3.000 -1.0542 -0.3884 -0.3745
  673MOL0     C92759   0.253   9.988   2.940 -0.0956  0.1202 -0.4589
  673MOL0     O92760   0.277  10.114   2.994  0.6825  0.0249  0.1418
  673MOL0     C92761   0.171  10.201   2.975 -0.5604  0.6324 -0.1639
  673MOL0     C92762   0.199  10.331   3.014 -0.4243  0.1172  0.1181
  673MOL0     C92763   0.124  10.432   2.985  0.9740 -0.0078 -0.3711
  673MOL0     C92764   0.178  10.566   3.045 -0.0472 -0.5834  0.4867
  673MOL0     C92765  -0.007  10.408   2.930  0.0165 -0.1645 -0.0357
  673MOL0     C92766  -0.099  10.511   2.890 -0.2826 -0.2282 -0.8948
  673MOL0     O92767  -0.199  10.481   2.798 -0.2513 -0.1282 -0.9212
  673MOL0     C92768  -0.298  10.569   2.780  0.9256  1.0170 -0.3962
  673MOL0     C92769  -0.428  10.541   2.824  0.0740 -0.1988 -1.5650
  673MOL0     C92770  -0.521  10.640   2.820 -0.2404  0.4759  0.5114
  673MOL0     C92771  -0.488  10.775   2.778  0.7674 -0.0241  0.3763
  673MOL0     O92772  -0.581  10.878   2.771 -0.0903 -0.2528  0.1129
  673MOL0     C92773  -0.693  10.878   2.863  0.3429 -0.2424  0.6839
  673MOL0     C92774  -0.777  11.006   2.833  0.4750 -0.0178  0.5286
  673MOL0     C92775  -0.712  11.142   2.870  0.1133  1.2300  0.1875
  673MOL0     C92776  -0.732  11.160   3.013  0.5515  0.2457  0.4690
  673MOL0     C92777  -0.626  11.244   3.075 -0.3621  0.0300  0.2885
  673MOL0     C92778  -0.653  11.258   3.226 -0.2998  0.1495 -0.3543
  673MOL0     C92779  -0.535  11.301   3.309  0.3483  0.4000 -0.6420
  673MOL0     C92780  -0.566  11.332   3.456 -0.6483 -0.4172  1.3028
  673MOL0    Cl92781  -0.638  11.186   3.529  0.0085  0.0858 -0.3770
  673MOL0     C92782  -0.359  10.797   2.737 -0.1034  0.0968  0.7461
  673MOL0     C92783  -0.271  10.694   2.727 -0.0780  0.4831  0.3163
  673MOL0     O92784  -0.093  10.616   2.958 -0.7341  0.1127  0.3834
  673MOL0     C92785  -0.044  10.279   2.894 -0.0728  0.7869 -0.4941
  673MOL0     C92786   0.047  10.179   2.908 -0.3877  0.1684  0.2060
  673MOL0     N92787   0.789   9.849   2.832 -0.2604  0.0921 -0.2945
  673MOL0     N92788   0.903   9.916   2.839  0.0219  0.8441  0.2875
  673MOL0     C92789   2.096   9.692   3.008 -0.3054  0.5271  0.0233
  673MOL0     C92790   2.214   9.765   2.990  0.2650  0.7787  0.6543
  673MOL0     C92791   2.441  10.062   2.737  1.0158  0.3557 -0.3920
  673MOL0     C92792   2.560   9.996   2.718  0.3558  1.8368  0.0166
  673MOL0     C92793   2.663  10.048   2.637 -0.2078 -0.5234 -1.1839
  673MOL0     C92794   2.646  10.161   2.570  0.0235  0.1179  0.1024
  673MOL0     O92795   2.758  10.217   2.513  0.2425  0.0594  0.5621
  673MOL0     C92796   2.751  10.257   2.377  0.1275  0.8375 -0.0056
  673MOL0     C92797   2.759  10.126   2.293 -0.2281  0.9698  0.5103
  673MOL0     C92798   2.909  10.083   2.307 -0.7729  0.3871  0.5894
  673MOL0     C92799   2.961   9.968   2.209 -0.0466 -0.0308 -0.0626
  673MOL0     C92800   2.901   9.841   2.230 -0.2476  0.3012 -0.6969
  673MOL0     C92801   2.883   9.719   2.232  0.2842 -0.5641 -0.0330
  673MOL0     C92802   2.521  10.222   2.571  0.2342 -0.2726  0.1980
  673MOL0     C92803   2.422  10.182   2.662  0.8859 -0.1975 -0.1763
  673MOL0     C92804   2.297  10.268   2.657 -0.1190  0.2837 -0.0932
  673MOL0     H92805   2.191   9.800   2.656  0.2862  0.8588  0.7113
  673MOL0     H92806   1.963   9.719   2.691 -0.6572  0.5255 -0.2587
  673MOL0     H92807   1.768   9.738   2.915  0.0418  0.3198 -0.5367
  673MOL0     H92808   1.784   9.647   3.060  2.8450  1.5818 -1.0141
  673MOL0     H92809   1.614   9.586   2.801 -1.1789 -1.5023 -0.1482
  673MOL0     H92810   1.659   9.463   2.922  0.9945  0.2088 -1.6915
  673MOL0     H92811   1.453   9.533   3.011  1.5929 -0.2722  1.6498
  673MOL0     H92812   1.530   9.642   3.092 -2.6638 -2.0491  0.0315
  673MOL0     H92813   1.498   9.821   2.910  1.3255 -1.3500  0.2530
  673MOL0     H92814   1.393   9.696   2.829 -0.5368 -1.5728  1.1337
  673MOL0     H92815   1.360   9.806   3.108  1.8214 -0.8519 -0.8603
  673MOL0     H92816   1.255   9.690   3.035  0.0237  0.7173  0.6520
  673MOL0     H92817   1.311   9.977   2.931  1.0338 -1.0747 -1.3124
  673MOL0     H92818   1.199   9.872   2.857  1.5854  0.7691  0.9313
  673MOL0     H92819   1.200   9.976   3.152  0.3868  2.7312 -0.9599
  673MOL0     H92820   1.102   9.840   3.089  3.0179 -1.8514 -2.6372
  673MOL0     H92821   1.015  10.087   3.105  1.1152  0.3613 -0.5149
  673MOL0     H92822   1.076  10.096   2.942 -0.6714  0.2270 -1.0079
  673MOL0     H92823   0.799   9.938   3.150  0.2133  0.3861  0.2360
  673MOL0     H92824   0.571   9.773   3.090  1.2380 -0.1589  0.7066
  673MOL0     H92825   0.565   9.720   2.919  1.3518 -0.2313 -0.7973
  673MOL0     H92826   0.526  10.005   3.001 -0.2010  1.1868 -2.0343
  673MOL0     H92827   0.513   9.939   2.839  3.7540 -0.8544 -0.1598
  673MOL0     H92828   0.316   9.789   2.964  1.9806 -1.5961 -0.4225
  673MOL0     H92829   0.340   9.891   3.109 -0.7768 -1.3412 -0.2919
  673MOL0     H92830   0.259   9.985   2.831  2.2686  0.8010 -0.3884
  673MOL0     H92831   0.153   9.947   2.960 -0.4640  1.3980  0.4552
  673MOL0     H92832   0.291  10.346   3.069  0.0117  0.6970 -0.7460
  673MOL0     H92833   0.253  10.566   3.125  2.6936  2.1034 -1.8311
  673MOL0     H92834   0.098  10.635   3.072  0.8586  0.5794  0.2753
  673MOL0     H92835   0.241  10.611   2.968  2.4531 -3.3562  0.7178
  673MOL0     H92836  -0.453  10.444   2.864 -1.7764  0.8579  0.0485
  673MOL0     H92837  -0.617  10.614   2.863  0.8743  0.5488  3.2169
  673MOL0     H92838  -0.748  10.784   2.857 -0.0260  0.0120 -0.0023
  673MOL0     H92839  -0.656  10.875   2.966 -0.4535  0.7146  1.0173
  673MOL0     H92840  -0.791  11.016   2.725 -0.0059  2.0402  0.7400
  673MOL0     H92841  -0.866  11.004   2.896  2.7138 -0.8394  3.9665
  673MOL0     H92842  -0.766  11.216   2.810 -1.7283 -2.2032 -2.7014
  673MOL0     H92843  -0.607  11.148   2.842  0.6127 -1.0630  1.3112
  673MOL0     H92844  -0.727  11.065   3.066 -1.9422  0.2966  0.9209
  673MOL0     H92845  -0.827  11.212   3.028  1.6485  1.7008  3.4474
  673MOL0     H92846  -0.521  11.218   3.055 -0.0603  1.7739 -0.5940
  673MOL0     H92847  -0.629  11.342   3.027  0.8242  1.6570  3.2789
  673MOL0     H92848  -0.689  11.160   3.256  2.7641 -0.8496  0.4529
  673MOL0     H92849  -0.731  11.333   3.239  0.7794  1.0081  1.4971
  673MOL0     H92850  -0.500  11.400   3.276 -2.1771  2.2798  1.7830
  673MOL0     H92851  -0.466  11.217   3.303  0.9238  0.8802 -0.8202
  673MOL0     H92852  -0.623  11.424   3.476  2.1701  1.5950  0.7718
  673MOL0     H92853  -0.473  11.347   3.512 -1.1571 -2.6956  2.8900
  673MOL0     H92854  -0.331  10.894   2.699  2.8758  0.0747  2.5223
  673MOL0     H92855  -0.168  10.715   2.700  0.5528 -2.4157  0.0888
  673MOL0     H92856  -0.141  10.256   2.851 -0.0897 -2.2252  0.8866
  673MOL0     H92857   0.011  10.082   2.872 -0.9502  1.3136 -2.6129
  673MOL0     H92858   2.076   9.652   3.106 -3.8523  0.1862 -0.7181
  673MOL0     H92859   2.291   9.779   3.065  2.3813 -0.5818 -1.1370
  673MOL0     H92860   2.587   9.904   2.770  1.8073  1.0126 -2.0373
  673MOL0     H92861   2.761  10.003   2.643 -0.1320 -0.1751  1.1757
  673MOL0     H92862   2.657  10.311   2.361 -0.4926 -0.3305 -0.4035
  673MOL0     H92863   2.835  10.322   2.351  0.1852  0.2741 -1.3010
  673MOL0     H92864   2.738  10.155   2.190 -1.4388  3.3116  1.3250
  673MOL0     H92865   2.691  10.051   2.334  0.7133  1.8016  3.9745
  673MOL0     H92866   2.980  10.162   2.279  0.6071 -1.8463 -2.9595
  673MOL0     H92867   2.931  10.050   2.409 -0.4883  1.0969  0.7624
  673MOL0     H92868   3.068   9.947   2.221  0.1278  0.1958 -1.2073
  673MOL0     H92869   2.947  10.003   2.107  0.4164  0.4524  0.0332
  673MOL0     H92870   2.860   9.614   2.232  1.3248 -0.8227 -1.4457
  673MOL0     H92871   2.508  10.303   2.500 -1.2470 -2.2965 -1.9983
  673MOL0     H92872   2.284  10.340   2.738 -0.5180  0.2605 -0.1319
  673MOL0     H92873   2.315  10.347   2.584 -1.9256  2.1409  1.3804
  673MOL0     H92874   2.207  10.208   2.637 -1.3279  0.2958  4.3226
  674MOL0     O92875   4.582   1.146   2.415 -0.2960 -0.2462 -0.1582
  674MOL0     C92876   4.485   1.079   2.391  0.2231 -0.5947 -0.4041
  674MOL0     O92877   4.488   0.963   2.323 -0.0167 -0.4819  0.8488
  674MOL0     C92878   4.606   0.918   2.255 -0.0197  0.4823  0.4732
  674MOL0     C92879   4.640   0.776   2.260  1.0718  0.2719 -0.1574
  674MOL0     C92880   4.764   0.731   2.215 -0.4059 -0.6046 -0.3512
  674MOL0     C92881   4.851   0.820   2.158  0.2439  1.0211  0.9655
  674MOL0     O92882   4.966   0.760   2.112 -0.3642  0.8066  0.6788
  674MOL0     C92883   5.081   0.827   2.141 -0.4457 -0.7266  0.5571
  674MOL0     C92884   5.196   0.729   2.172 -0.2155 -0.0941  0.0655
  674MOL0     C92885   5.260   0.683   2.038 -0.1589 -0.5400 -0.3209
  674MOL0     C92886   5.378   0.589   2.068  0.3612  0.1341  0.2601
  674MOL0     C92887   5.429   0.518   1.938 -0.2304 -0.3118  0.3179
  674MOL0     C92888   5.563   0.450   1.955  0.6148  0.1071 -0.1982
  674MOL0     C92889   5.625   0.398   1.821 -0.3799 -0.2737  0.1446
  674MOL0     C92890   5.731   0.292   1.851  0.5869  0.1231  0.1347
  674MOL0     N92891   5.853   0.339   1.918  0.7078  0.8416  0.8004
  674MOL0     C92892   5.978   0.317   1.866 -0.3640  0.0481  0.3224
  674MOL0     C92893   6.052   0.345   1.972  1.0370  0.0904  0.3201
  674MOL0     C92894   6.199   0.341   1.977  0.7548  0.5753  0.2604
  674MOL0     C92895   6.254   0.475   1.921 -0.6534  0.8085  0.3534
  674MOL0     C92896   6.282   0.579   2.024  0.3629 -0.3584  0.1211
  674MOL0     C92897   6.300   0.708   1.948  0.2522  0.6664  0.5428
  674MOL0     O92898   6.388   0.699   1.835 -0.4652 -0.4204 -0.5186
  674MOL0     C92899   6.527   0.705   1.867  0.9778 -0.3252  0.8718
  674MOL0     C92900   6.603   0.607   1.797 -0.1047 -0.8639 -0.1114
  674MOL0     C92901   6.742   0.595   1.812  0.1050  0.5444  0.0650
  674MOL0     C92902   6.812   0.474   1.749 -0.1728 -0.1291  0.7087
  674MOL0     C92903   6.813   0.693   1.892 -0.0665  0.4107 -0.2631
  674MOL0     C92904   6.962   0.700   1.901  0.2724 -0.1824  0.2887
  674MOL0     O92905   7.038   0.618   1.820  0.4107 -0.6039 -0.0723
  674MOL0     C92906   7.172   0.642   1.827  0.0638  0.2561  1.0454
  674MOL0     C92907   7.245   0.664   1.711  0.5113 -0.1161  0.1084
  674MOL0     C92908   7.382   0.688   1.713  0.9043  0.1684 -0.5192
  674MOL0     C92909   7.454   0.680   1.836  0.1991 -0.4580 -0.6337
  674MOL0     O92910   7.590   0.712   1.836  0.4710 -0.0136 -0.1547
  674MOL0     C92911   7.679   0.625   1.899 -0.5405 -0.6623  0.0352
  674MOL0     C92912   7.819   0.677   1.890  0.6144 -0.6581  0.7556
  674MOL0     C92913   7.835   0.787   1.988  0.2318 -0.2992 -0.6723
  674MOL0     C92914   7.984   0.826   1.994  0.3804 -0.3613  1.0045
  674MOL0     C92915   8.026   0.909   1.876 -0.5540 -0.3641  0.4580
  674MOL0     C92916   8.144   0.997   1.917  0.3177 -0.1067  0.0435
  674MOL0     C92917   8.204   1.080   1.803 -0.1927 -0.7720 -0.5740
  674MOL0     C92918   8.343   1.028   1.758  0.3646 -0.1387  0.4018
  674MOL0    Cl92919   8.449   1.052   1.893 -0.1073 -0.1974  0.1839
  674MOL0     C92920   7.387   0.621   1.952 -0.6134  0.1215  0.2085
  674MOL0     C92921   7.251   0.611   1.943 -1.0085  0.2070 -0.2410
  674MOL0     O92922   7.004   0.786   1.975 -0.7817  0.5635 -0.1319
  674MOL0     C92923   6.735   0.803   1.944 -0.1567  0.5138 -0.6203
  674MOL0     C92924   6.596   0.796   1.939  0.2477  0.1315 -0.2360
  674MOL0     N92925   5.982   0.388   2.080 -0.6552  0.1437 -0.1765
  674MOL0     N92926   5.855   0.384   2.049  0.8032  0.2746 -0.7568
  674MOL0     C92927   4.822   0.959   2.136  0.8730 -0.1596 -0.1456
  674MOL0     C92928   4.694   1.011   2.181  0.0335 -0.3656 -0.1842
  674MOL0     C92929   4.348   1.140   2.440  0.4183  0.5110 -0.4031
  674MOL0     C92930   4.348   1.268   2.496 -1.0273 -0.4440 -0.0769
  674MOL0     C92931   4.234   1.343   2.514 -0.0384  0.5478  0.0075
  674MOL0     C92932   4.103   1.292   2.490 -0.1501 -1.3878 -0.4749
  674MOL0     O92933   3.983   1.358   2.513  0.3872  0.7250 -0.5992
  674MOL0     C92934   3.991   1.473   2.600  0.1097 -0.1645  0.2536
  674MOL0     C92935   4.010   1.602   2.519  0.4966  0.0823 -0.3591
  674MOL0     C92936   4.028   1.731   2.607  0.1736 -0.2355  0.1877
  674MOL0     C92937   3.909   1.757   2.705  0.4959  0.7022 -0.5083
  674MOL0     C92938   3.788   1.773   2.626 -0.0520  0.4388 -0.6508
  674MOL0     C92939   3.693   1.770   2.551 -0.0189  0.3805  0.3544
  674MOL0     C92940   4.098   1.161   2.441 -0.5464  0.1876 -0.1057
  674MOL0     C92941   4.217   1.086   2.409  0.2829 -0.8493 -0.5848
  674MOL0     C92942   4.189   0.955   2.352  0.5958  0.4026  0.0965
  674MOL0     H92943   4.564   0.707   2.294  1.6005 -1.0701 -1.5780
  674MOL0     H92944   4.789   0.626   2.226  2.7043  0.0646 -0.1308
  674MOL0     H92945   5.074   0.886   2.233  1.1794 -1.3256  1.0938
  674MOL0     H92946   5.113   0.892   2.060 -0.5239 -2.4408 -0.8958
  674MOL0     H92947   5.262   0.783   2.240  0.3098  0.9925 -1.2411
  674MOL0     H92948   5.163   0.634   2.216  1.3607  0.4467  2.5872
  674MOL0     H92949   5.191   0.638   1.965 -2.1635  2.2665 -0.3529
  674MOL0     H92950   5.309   0.762   1.981 -0.1750 -0.7210 -0.5899
  674MOL0     H92951   5.453   0.643   2.127 -0.8563  0.8942  1.1721
  674MOL0     H92952   5.350   0.510   2.138  3.2784  0.7936  2.3868
  674MOL0     H92953   5.438   0.594   1.860 -2.1050  0.0752  0.4459
  674MOL0     H92954   5.358   0.445   1.897 -0.1835  1.0295 -2.3662
  674MOL0     H92955   5.633   0.514   2.009 -1.5255  0.2980  2.5620
  674MOL0     H92956   5.553   0.361   2.018  1.3380 -0.8869 -1.4347
  674MOL0     H92957   5.678   0.485   1.781 -0.4566  0.9329  2.4797
  674MOL0     H92958   5.549   0.354   1.756  0.8343 -2.7088  0.2399
  674MOL0     H92959   5.680   0.208   1.899 -1.9784  1.5520  0.0544
  674MOL0     H92960   5.756   0.246   1.755 -0.9023  0.1350 -0.2889
  674MOL0     H92961   6.013   0.289   1.767  2.7552  0.4997  1.2161
  674MOL0     H92962   6.219   0.253   1.916 -0.2269 -0.9777  2.0790
  674MOL0     H92963   6.243   0.313   2.073  1.5565 -1.2049 -0.5681
  674MOL0     H92964   6.353   0.455   1.878 -0.4310  0.7282  0.8958
  674MOL0     H92965   6.192   0.515   1.841 -0.7515  1.3636  0.7051
  674MOL0     H92966   6.207   0.601   2.100 -0.6552  2.2485 -1.5232
  674MOL0     H92967   6.382   0.557   2.063  1.1456  0.9038 -1.0864
  674MOL0     H92968   6.199   0.732   1.913  0.1797 -0.5602 -0.1608
  674MOL0     H92969   6.322   0.795   2.010  0.8274  2.3010 -1.8032
  674MOL0     H92970   6.548   0.529   1.743 -1.7855  0.7590 -0.8566
  674MOL0     H92971   6.866   0.501   1.658 -0.6654 -0.6883  0.2455
  674MOL0     H92972   6.732   0.412   1.709 -0.1805  0.6510 -0.5313
  674MOL0     H92973   6.868   0.405   1.813 -4.1321 -2.3785  2.0499
  674MOL0     H92974   7.194   0.687   1.618  0.8189 -0.5752 -0.1761
  674MOL0     H92975   7.433   0.716   1.622  0.1103  0.4794 -0.8729
  674MOL0     H92976   7.650   0.617   2.004 -0.8530  0.0096  0.0072
  674MOL0     H92977   7.673   0.532   1.841 -2.8619  0.8520 -2.3808
  674MOL0     H92978   7.898   0.605   1.911  1.1633 -0.3115 -0.0737
  674MOL0     H92979   7.847   0.712   1.790 -1.4000  1.4402  0.8304
  674MOL0     H92980   7.814   0.754   2.090 -1.8813  1.5090 -0.4236
  674MOL0     H92981   7.759   0.860   1.956  1.7426  1.3688 -0.6178
  674MOL0     H92982   8.037   0.731   2.001  3.6862  0.5919 -4.6842
  674MOL0     H92983   8.003   0.878   2.089  0.6270 -2.0280  1.9151
  674MOL0     H92984   8.056   0.840   1.796  0.6433 -1.4441  1.7709
  674MOL0     H92985   7.934   0.965   1.858 -0.2736  0.1770  0.7099
  674MOL0     H92986   8.222   0.933   1.959  2.5958  2.4520 -0.0360
  674MOL0     H92987   8.109   1.060   2.000 -3.7433 -1.9747 -0.0246
  674MOL0     H92988   8.219   1.185   1.832  0.6119 -1.2582  0.8731
  674MOL0     H92989   8.129   1.077   1.724 -0.0738 -0.0093 -0.7273
  674MOL0     H92990   8.379   1.073   1.665 -0.1261 -0.2223  0.1689
  674MOL0     H92991   8.345   0.920   1.740  1.4622  0.0950 -1.0287
  674MOL0     H92992   7.443   0.590   2.040 -1.8544  0.3836  1.1262
  674MOL0     H92993   7.197   0.569   2.027  1.5571 -0.2958  1.2466
  674MOL0     H92994   6.778   0.890   1.992 -0.5948 -0.1922  1.1292
  674MOL0     H92995   6.543   0.873   1.993  2.3535  1.4891  0.0271
  674MOL0     H92996   4.897   1.022   2.090  3.8234 -1.7815  2.1341
  674MOL0     H92997   4.673   1.117   2.175  1.1110 -0.1673 -0.5035
  674MOL0     H92998   4.445   1.311   2.522  0.3010 -1.7229 -2.4651
  674MOL0     H92999   4.261   1.445   2.542 -2.8895  0.8553  2.0787
  674MOL0     H93000   3.894   1.470   2.652 -1.6220 -1.5798 -2.7953
  674MOL0     H93001   4.072   1.471   2.674  0.0973  2.0160  0.3758
  674MOL0     H93002   3.917   1.614   2.463 -1.0784  1.8046  2.3866
  674MOL0     H93003   4.091   1.582   2.447  0.9697 -1.4031  0.5312
  674MOL0     H93004   4.116   1.705   2.667 -1.1419 -0.4799  2.0902
  674MOL0     H93005   4.043   1.821   2.547  0.0877 -1.8644 -2.4249
  674MOL0     H93006   3.929   1.855   2.749  2.9496 -0.3850  1.0130
  674MOL0     H93007   3.894   1.678   2.779  0.4529 -0.3587 -1.6179
  674MOL0     H93008   3.621   1.752   2.474  2.1096 -4.1091 -0.9669
  674MOL0     H93009   4.002   1.125   2.407 -1.2590  1.8179  0.1112
  674MOL0     H93010   4.243   0.947   2.257  0.4175  0.7744 -0.0413
  674MOL0     H93011   4.228   0.880   2.421  0.1490  1.4116  1.4966
  674MOL0     H93012   4.082   0.937   2.336  0.7760  0.8370 -1.9120
  675MOL0     O93013   7.765   4.785   8.334  0.5248  0.4383 -0.7010
  675MOL0     C93014   7.703   4.878   8.287  0.0441  0.1648 -0.2634
  675MOL0     O93015   7.726   4.998   8.323 -0.0610 -0.7725 -0.5105
  675MOL0     C93016   7.837   5.020   8.396  0.3563 -0.4427  0.5218
  675MOL0     C93017   7.822   5.007   8.532  0.1339  0.4310  0.0920
  675MOL0     C93018   7.929   5.032   8.618 -0.4235 -0.3132 -0.8613
  675MOL0     C93019   8.046   5.083   8.560 -0.3631  0.1162 -0.1078
  675MOL0     O93020   8.154   5.095   8.646  0.6828  1.1962 -0.3295
  675MOL0     C93021   8.285   5.071   8.597 -0.0795 -0.1384  0.4649
  675MOL0     C93022   8.369   5.029   8.720  0.5673 -0.2259  0.1115
  675MOL0     C93023   8.511   4.983   8.686 -1.5381 -0.3594  0.0417
  675MOL0     C93024   8.596   5.112   8.655 -0.1647  0.1858  0.2298
  675MOL0     C93025   8.740   5.077   8.620  0.1213 -1.1135 -0.7532
  675MOL0     C93026   8.798   5.219   8.628  0.2634 -1.3693  0.7081
  675MOL0     C93027   8.953   5.208   8.610  1.4883 -0.1320 -0.3294
  675MOL0     C93028   9.025   5.167   8.744  0.2227 -0.9724  0.2180
  675MOL0     N93029   9.170   5.155   8.720 -0.2071  0.1856  0.3957
  675MOL0     C93030   9.225   5.034   8.686 -0.5612 -0.4549  0.2477
  675MOL0     C93031   9.345   5.043   8.734  0.0779 -0.5552 -0.7018
  675MOL0     C93032   9.441   4.932   8.738 -0.0409 -0.2990  0.4947
  675MOL0     C93033   9.550   4.951   8.635 -0.5449  0.0496 -0.0557
  675MOL0     C93034   9.514   4.950   8.486  0.6588 -0.8871  0.0815
  675MOL0     C93035   9.628   4.943   8.394 -0.2296 -0.3013  0.1153
  675MOL0     O93036   9.702   5.059   8.391 -0.6806  0.2750 -0.3718
  675MOL0     C93037   9.833   5.037   8.360 -0.2821 -0.9396  0.3082
  675MOL0     C93038   9.924   5.050   8.462  0.8478 -0.8066 -0.1585
  675MOL0     C93039  10.061   5.060   8.443  0.3386 -0.2255 -0.0003
  675MOL0     C93040  10.162   5.063   8.561 -0.0404  0.0665 -0.0341
  675MOL0     C93041  10.112   5.070   8.310  0.6995 -0.0634  0.6072
  675MOL0     C93042  10.252   5.058   8.261 -0.5918  0.0481  0.8236
  675MOL0     O93043  10.262   5.042   8.122 -0.5741 -0.4626 -0.0663
  675MOL0     C93044  10.388   5.033   8.081  0.0156  0.7027 -0.2251
  675MOL0     C93045  10.463   4.912   8.078 -0.0157 -0.5017 -0.2775
  675MOL0     C93046  10.589   4.906   8.013  0.1015 -0.0304 -0.4598
  675MOL0     C93047  10.651   5.014   7.956  0.0363 -0.6396  0.4885
  675MOL0     O93048  10.780   5.032   7.904 -0.7952  0.1135  0.3615
  675MOL0     C93049  10.852   4.916   7.851  0.2053  0.2643  0.8333
  675MOL0     C93050  10.996   4.948   7.817  0.3145 -0.1739  0.6921
  675MOL0     C93051  11.072   4.836   7.742  0.2712  0.0390  0.5036
  675MOL0     C93052  11.210   4.872   7.698  0.2240  0.4905 -0.1095
  675MOL0     C93053  11.277   4.771   7.603 -0.0815 -0.3227 -0.7883
  675MOL0     C93054  11.422   4.810   7.588 -0.6896 -0.4251 -0.2513
  675MOL0     C93055  11.494   4.747   7.463  0.6853 -0.5702  0.8432
  675MOL0     C93056  11.632   4.813   7.446  0.4938  0.4817  0.5085
  675MOL0    Cl93057  11.740   4.797   7.587 -0.2191 -0.7161 -0.1314
  675MOL0     C93058  10.574   5.134   7.963  0.0345 -0.0145  0.1189
  675MOL0     C93059  10.446   5.141   8.021  0.3590  0.0458 -0.0343
  675MOL0     O93060  10.340   5.075   8.345 -0.1706 -0.8004 -0.0762
  675MOL0     C93061  10.014   5.057   8.208 -0.4023  0.1147 -0.7283
  675MOL0     C93062   9.876   5.048   8.232  0.3055  0.6582 -0.2338
  675MOL0     N93063   9.369   5.170   8.791  0.2848  0.8977 -0.1677
  675MOL0     N93064   9.261   5.241   8.777 -0.6329 -0.1186 -0.2209
  675MOL0     C93065   8.064   5.102   8.426  0.9058 -0.0280 -0.3411
  675MOL0     C93066   7.957   5.076   8.337  0.3246 -0.3225 -0.1413
  675MOL0     C93067   7.608   4.850   8.173  0.5295 -0.5359  0.6177
  675MOL0     C93068   7.611   4.924   8.056 -0.5116  0.1219  0.7862
  675MOL0     C93069   7.509   4.903   7.955  0.0061 -0.1157  1.0568
  675MOL0     C93070   7.407   4.801   7.968  0.4591  0.0109  0.3434
  675MOL0     O93071   7.306   4.774   7.885  1.0927  0.0400  0.3168
  675MOL0     C93072   7.310   4.849   7.762  0.5487 -0.4275 -0.1458
  675MOL0     C93073   7.230   4.781   7.654  0.1071 -0.2948  0.2622
  675MOL0     C93074   7.258   4.848   7.510 -0.1216 -0.2116  0.5513
  675MOL0     C93075   7.190   4.784   7.388 -0.3672  0.1977  0.0670
  675MOL0     C93076   7.044   4.787   7.400 -1.1071 -0.4163 -0.2709
  675MOL0     C93077   6.917   4.797   7.417  0.1466  1.1912  1.2412
  675MOL0     C93078   7.406   4.738   8.090  0.3170 -0.2859  0.2383
  675MOL0     C93079   7.512   4.752   8.183  0.4429 -0.0364  0.3689
  675MOL0     C93080   7.506   4.663   8.300  0.3530 -0.3652  0.0357
  675MOL0     H93081   7.728   4.964   8.566  1.1885 -3.5611 -1.4219
  675MOL0     H93082   7.917   5.022   8.725 -1.0791 -2.5212 -1.0982
  675MOL0     H93083   8.329   5.155   8.544  0.2518 -0.2087  0.6259
  675MOL0     H93084   8.298   4.983   8.534  1.6312  0.1655  0.3502
  675MOL0     H93085   8.368   5.114   8.789 -0.1140 -1.2916  1.4774
  675MOL0     H93086   8.326   4.944   8.774  1.9616  1.2616  3.9452
  675MOL0     H93087   8.549   4.933   8.776 -0.7363  1.2691  0.6368
  675MOL0     H93088   8.507   4.914   8.601 -0.5425  0.2776 -0.5373
  675MOL0     H93089   8.565   5.157   8.560 -0.2644 -1.5183 -0.5907
  675MOL0     H93090   8.581   5.175   8.743  0.4892 -0.8151  1.0834
  675MOL0     H93091   8.754   5.037   8.519  1.1239 -4.2562  0.4984
  675MOL0     H93092   8.793   5.006   8.685 -2.3412 -4.4725 -2.0935
  675MOL0     H93093   8.755   5.270   8.541  0.6513 -2.4735 -0.1435
  675MOL0     H93094   8.777   5.265   8.726 -1.1295  0.0052 -0.1742
  675MOL0     H93095   8.986   5.306   8.575  1.8180 -1.1699 -3.2229
  675MOL0     H93096   8.972   5.136   8.529  2.4514  0.4197 -0.6122
  675MOL0     H93097   9.001   5.247   8.815  1.7941  0.6019 -0.9319
  675MOL0     H93098   8.972   5.082   8.788 -2.2667  0.8114  0.8414
  675MOL0     H93099   9.189   4.941   8.643  1.5099 -0.7999 -0.8721
  675MOL0     H93100   9.396   4.833   8.725 -2.3410  0.6609  0.5144
  675MOL0     H93101   9.500   4.930   8.830 -1.1461  3.3055  1.4580
  675MOL0     H93102   9.599   5.042   8.670  1.8021 -1.7888  1.8490
  675MOL0     H93103   9.632   4.882   8.659  1.2182  2.8039  2.5742
  675MOL0     H93104   9.449   4.863   8.475 -4.6740  2.2918  2.6835
  675MOL0     H93105   9.460   5.040   8.455  2.9742  0.1443 -1.1853
  675MOL0     H93106   9.693   4.859   8.418 -1.5384 -1.3201  0.2177
  675MOL0     H93107   9.575   4.930   8.299 -1.3854  1.1739  0.5159
  675MOL0     H93108   9.898   5.053   8.568  3.8269  2.1348  0.6835
  675MOL0     H93109  10.119   5.030   8.657  0.9597 -0.2913  0.3088
  675MOL0     H93110  10.206   5.163   8.556 -0.6678  0.2699 -1.9815
  675MOL0     H93111  10.242   4.989   8.549  1.9971  2.1198  0.2819
  675MOL0     H93112  10.424   4.820   8.120 -0.3303 -0.2638 -0.0401
  675MOL0     H93113  10.650   4.816   8.011 -0.3361 -0.3497  0.1725
  675MOL0     H93114  10.856   4.838   7.926  0.1916 -1.1049 -0.5390
  675MOL0     H93115  10.802   4.866   7.768  3.3411 -2.3265  0.3171
  675MOL0     H93116  11.005   5.036   7.753 -0.8428  0.5964  1.5465
  675MOL0     H93117  11.053   4.975   7.906 -0.1651  1.3104  0.5831
  675MOL0     H93118  11.028   4.804   7.648  1.6512 -2.1686  0.5376
  675MOL0     H93119  11.078   4.747   7.806  0.2768  0.9290  1.7829
  675MOL0     H93120  11.269   4.904   7.784 -1.4825  0.6226  1.0504
  675MOL0     H93121  11.189   4.953   7.627 -0.0107  0.5036 -0.0231
  675MOL0     H93122  11.273   4.670   7.646  0.6924  1.3358  3.5878
  675MOL0     H93123  11.226   4.766   7.506  0.3578  0.0528 -1.0415
  675MOL0     H93124  11.482   4.794   7.678  1.0937 -0.1240 -1.3355
  675MOL0     H93125  11.416   4.918   7.572  1.1183 -0.0643  1.1853
  675MOL0     H93126  11.435   4.762   7.372  1.7362 -1.2030  0.0444
  675MOL0     H93127  11.483   4.639   7.471 -1.3104 -0.6725 -1.8064
  675MOL0     H93128  11.617   4.916   7.413 -1.4736 -0.4084 -1.6817
  675MOL0     H93129  11.681   4.761   7.362 -1.3220  1.1276 -1.0200
  675MOL0     H93130  10.601   5.224   7.909 -4.2812  1.2919 -0.2102
  675MOL0     H93131  10.399   5.235   7.995 -0.1297 -0.0367  0.5413
  675MOL0     H93132  10.043   5.061   8.103 -1.8647  1.1608 -1.1155
  675MOL0     H93133   9.791   5.045   8.165 -0.4397  1.6479  0.6383
  675MOL0     H93134   8.154   5.131   8.373  2.2007 -0.0572  1.7421
  675MOL0     H93135   7.962   5.095   8.231  1.5456  0.2069 -0.0011
  675MOL0     H93136   7.684   4.999   8.029  1.2829 -1.7392  0.2152
  675MOL0     H93137   7.513   4.969   7.870  3.7959  3.1024  3.4099
  675MOL0     H93138   7.283   4.953   7.783  0.7888 -0.1852 -0.9795
  675MOL0     H93139   7.414   4.854   7.727 -0.1686  0.0364 -2.4058
  675MOL0     H93140   7.125   4.799   7.679 -0.4998  0.9143 -2.7501
  675MOL0     H93141   7.250   4.674   7.644  0.2168 -0.0646 -3.7124
  675MOL0     H93142   7.220   4.949   7.528  2.0233  0.5500  1.1682
  675MOL0     H93143   7.364   4.845   7.480  0.0742 -1.4445  1.2983
  675MOL0     H93144   7.226   4.681   7.378  0.2201  0.4685 -0.7480
  675MOL0     H93145   7.215   4.830   7.292 -1.0439  2.1198  0.7721
  675MOL0     H93146   6.811   4.801   7.434 -0.7068 -3.9190 -1.0434
  675MOL0     H93147   7.331   4.661   8.109  0.1457 -0.3023 -0.4865
  675MOL0     H93148   7.422   4.594   8.305  0.8981 -0.9240  2.6398
  675MOL0     H93149   7.601   4.609   8.309  1.5181  1.2491 -1.6441
  675MOL0     H93150   7.501   4.728   8.388  1.0685 -0.9358  0.5035
  676MOL0     O93151   5.223   6.658   0.110  0.2468 -0.4182 -0.4797
  676MOL0     C93152   5.241   6.547   0.155  0.2093 -0.3667  0.3556
  676MOL0     O93153   5.349   6.504   0.232  0.4796  0.6710  0.4732
  676MOL0     C93154   5.455   6.589   0.268 -0.6559  0.1236 -0.1157
  676MOL0     C93155   5.454   6.725   0.306 -0.9961  0.5159 -0.2615
  676MOL0     C93156   5.567   6.797   0.340 -1.2808  0.3671 -0.8538
  676MOL0     C93157   5.692   6.727   0.353  0.5035  0.8374  0.4023
  676MOL0     O93158   5.811   6.772   0.398  0.6709 -0.4127  0.1121
  676MOL0     C93159   5.822   6.909   0.449  0.1306  0.7105 -0.7095
  676MOL0     C93160   5.949   6.927   0.526  0.6200  0.2525  0.0954
  676MOL0     C93161   6.067   6.938   0.437 -0.4683  0.2796  0.3564
  676MOL0     C93162   6.187   6.971   0.527  0.6050  0.6374 -0.4332
  676MOL0     C93163   6.325   6.959   0.460  0.0066 -1.3772  1.1732
  676MOL0     C93164   6.350   7.055   0.333  0.7779 -0.2173  0.2889
  676MOL0     C93165   6.490   7.041   0.276 -0.6032  0.2427  0.2645
  676MOL0     C93166   6.509   6.907   0.202  1.0728 -0.1594 -0.5930
  676MOL0     N93167   6.648   6.894   0.152 -0.1558 -0.8290 -0.4862
  676MOL0     C93168   6.761   6.854   0.222 -0.0373 -0.2709 -0.2043
  676MOL0     C93169   6.856   6.835   0.133  0.1273 -0.1199  0.1090
  676MOL0     C93170   6.995   6.800   0.169  0.4393  0.3119 -0.5012
  676MOL0     C93171   7.107   6.891   0.118 -0.6166 -0.0901 -0.4653
  676MOL0     C93172   7.097   7.040   0.169  0.4066 -0.5647  0.2900
  676MOL0     C93173   7.235   7.110   0.153 -0.0613 -0.1658  0.2583
  676MOL0     O93174   7.325   7.061   0.055  0.5109  0.3000  0.7686
  676MOL0     C93175   7.438   7.140   0.039 -0.1926  0.2772  0.5179
  676MOL0     C93176   7.467   7.256   0.116 -0.5048  0.2336 -0.6807
  676MOL0     C93177   7.588   7.327   0.105  0.4444  0.2849  0.7430
  676MOL0     C93178   7.612   7.440   0.199 -1.2120  0.2867 -0.1344
  676MOL0     C93179   7.674   7.287  -0.007 -0.0653 -0.4198 -0.8699
  676MOL0     C93180   7.807   7.350  -0.049  0.1524 -0.3963 -0.4461
  676MOL0     O93181   7.876   7.289  -0.153 -0.2292  0.1793 -0.2735
  676MOL0     C93182   8.010   7.313  -0.174 -0.2215 -0.0452 -0.0802
  676MOL0     C93183   8.040   7.436  -0.225 -0.0342 -0.0859  0.2400
  676MOL0     C93184   8.172   7.484  -0.241 -0.1705 -0.1358  0.0450
  676MOL0     C93185   8.281   7.399  -0.212 -0.7042 -0.0563  0.4706
  676MOL0     O93186   8.412   7.428  -0.228  0.8300 -0.2335  0.0601
  676MOL0     C93187   8.439   7.544  -0.311 -0.0853  0.3607 -0.4616
  676MOL0     C93188   8.576   7.571  -0.350 -0.4360 -0.9642  0.6143
  676MOL0     C93189   8.627   7.719  -0.323  0.9606 -0.3514 -0.3162
  676MOL0     C93190   8.759   7.745  -0.387  0.5670 -0.9953  0.3789
  676MOL0     C93191   8.821   7.870  -0.332  0.2667 -0.2319  0.1816
  676MOL0     C93192   8.905   7.817  -0.209 -0.0560 -0.2359  0.2656
  676MOL0     C93193   9.027   7.734  -0.251 -0.8567  0.0476  0.3028
  676MOL0     C93194   9.149   7.753  -0.161 -0.2685  0.2404 -1.5247
  676MOL0    Cl93195   9.241   7.601  -0.183  0.0387 -0.3937  0.0191
  676MOL0     C93196   8.250   7.269  -0.167 -0.0941 -0.8783 -0.7063
  676MOL0     C93197   8.116   7.226  -0.144 -0.5077 -0.0457  0.4530
  676MOL0     O93198   7.849   7.447   0.015 -0.2500 -0.6449 -0.2409
  676MOL0     C93199   7.637   7.179  -0.087 -0.6707  0.1835  0.4645
  676MOL0     C93200   7.523   7.107  -0.067  0.0285  0.8098 -0.0456
  676MOL0     N93201   6.805   6.855   0.005 -0.4861 -0.8713 -0.4652
  676MOL0     N93202   6.684   6.899   0.016  0.7496  0.6012  0.4471
  676MOL0     C93203   5.695   6.587   0.316  0.2701  0.2152  0.1950
  676MOL0     C93204   5.582   6.516   0.282 -0.0541  0.4326 -0.0113
  676MOL0     C93205   5.144   6.442   0.121  0.0796  0.4619 -0.2054
  676MOL0     C93206   5.195   6.311   0.127  0.2058 -0.4123 -0.4218
  676MOL0     C93207   5.119   6.202   0.122  0.5270  0.2457  0.3768
  676MOL0     C93208   4.984   6.209   0.092  0.8320  0.1523 -0.0027
  676MOL0     O93209   4.924   6.091   0.083  0.3075  0.3937  0.5425
  676MOL0     C93210   4.781   6.086   0.085  0.7963 -0.3336 -0.0370
  676MOL0     C93211   4.744   5.936   0.104  0.1205  0.3211  0.6970
  676MOL0     C93212   4.594   5.900   0.068 -0.3899 -0.7719 -0.1402
  676MOL0     C93213   4.576   5.752   0.042  0.1152 -0.7349 -0.1334
  676MOL0     C93214   4.437   5.712   0.027  0.0079 -0.1573  0.4128
  676MOL0     C93215   4.324   5.675   0.019 -0.8062  0.2043  0.7373
  676MOL0     C93216   4.931   6.343   0.079  0.3705  0.0968  0.1062
  676MOL0     C93217   5.008   6.452   0.083 -0.1468 -0.9920  0.8773
  676MOL0     C93218   4.944   6.587   0.052  0.7442 -0.3547  0.3311
  676MOL0     H93219   5.359   6.776   0.305 -0.8625  0.7818  0.1154
  676MOL0     H93220   5.560   6.901   0.373  2.4978  0.2530  0.8339
  676MOL0     H93221   5.740   6.937   0.516  0.4417  2.5476 -1.0600
  676MOL0     H93222   5.816   6.983   0.369 -1.2624  2.0600  0.5728
  676MOL0     H93223   5.948   7.023   0.579  0.3733 -0.3046  1.1253
  676MOL0     H93224   5.966   6.847   0.599  1.6802  1.7001  1.5198
  676MOL0     H93225   6.085   6.845   0.383  1.5036  0.3318  0.8733
  676MOL0     H93226   6.054   7.011   0.356  1.1915 -0.5337 -0.6917
  676MOL0     H93227   6.165   7.072   0.563 -2.4397  0.8557 -2.5311
  676MOL0     H93228   6.177   6.903   0.613 -0.4962  2.7312  1.1911
  676MOL0     H93229   6.321   6.855   0.425 -1.1384 -1.7815  2.4373
  676MOL0     H93230   6.406   6.979   0.530 -1.2399  3.0169  1.6608
  676MOL0     H93231   6.275   7.030   0.256 -0.3258 -0.0677  1.2852
  676MOL0     H93232   6.351   7.158   0.370 -1.0502  0.8083 -2.1861
  676MOL0     H93233   6.558   7.046   0.361  0.4800  0.4536 -0.5880
  676MOL0     H93234   6.519   7.120   0.206 -1.3300  0.2308 -0.0682
  676MOL0     H93235   6.493   6.825   0.273  1.3634  0.3862  0.1190
  676MOL0     H93236   6.446   6.897   0.113 -0.2949 -1.6953  0.4702
  676MOL0     H93237   6.782   6.838   0.328  1.0412 -3.6462 -0.7947
  676MOL0     H93238   7.019   6.702   0.126 -2.0178 -2.1726  3.1604
  676MOL0     H93239   6.997   6.802   0.278 -0.4751  2.7031 -0.4741
  676MOL0     H93240   7.203   6.845   0.144 -0.9304 -0.6028 -0.2070
  676MOL0     H93241   7.093   6.883   0.010 -2.4359 -4.0207 -0.1252
  676MOL0     H93242   7.019   7.098   0.118  1.2838 -2.3528 -3.3822
  676MOL0     H93243   7.068   7.032   0.274  2.3183 -1.7378  0.7819
  676MOL0     H93244   7.214   7.217   0.151 -0.2357 -0.1942  0.6468
  676MOL0     H93245   7.296   7.103   0.244 -1.1819  0.0326  1.0414
  676MOL0     H93246   7.409   7.290   0.201  0.2772 -1.9896  0.8302
  676MOL0     H93247   7.604   7.531   0.140 -2.5871 -1.5078 -2.9035
  676MOL0     H93248   7.708   7.430   0.251 -2.5892  1.1180  2.8123
  676MOL0     H93249   7.544   7.436   0.285 -1.5778 -0.6540 -0.4529
  676MOL0     H93250   7.958   7.505  -0.243 -0.1764 -0.3866 -0.2806
  676MOL0     H93251   8.184   7.583  -0.283  1.6826  0.1777  1.1760
  676MOL0     H93252   8.378   7.543  -0.402 -0.7978 -0.0342  0.0081
  676MOL0     H93253   8.402   7.631  -0.255  1.1664 -0.2407  1.4032
  676MOL0     H93254   8.636   7.493  -0.302 -1.6588 -2.9367 -0.8993
  676MOL0     H93255   8.596   7.547  -0.455  2.6716 -1.4059  1.2091
  676MOL0     H93256   8.628   7.740  -0.216 -0.7836  0.2779 -0.3814
  676MOL0     H93257   8.560   7.797  -0.361  0.3452 -1.7162 -2.1655
  676MOL0     H93258   8.748   7.755  -0.495  4.1832  0.4690 -0.0016
  676MOL0     H93259   8.824   7.657  -0.376  2.2792  0.1396 -0.2352
  676MOL0     H93260   8.881   7.922  -0.407 -2.5547  0.5036 -1.7242
  676MOL0     H93261   8.738   7.935  -0.300 -1.9103 -2.2679 -0.9853
  676MOL0     H93262   8.843   7.769  -0.133  1.2140 -1.1527  0.7590
  676MOL0     H93263   8.938   7.912  -0.166 -0.2376  0.8926 -1.9618
  676MOL0     H93264   9.066   7.760  -0.350 -0.6620 -1.6108 -0.0933
  676MOL0     H93265   8.990   7.631  -0.255 -0.9126  0.0549  0.5756
  676MOL0     H93266   9.128   7.768  -0.054  0.5445 -0.6839 -1.2232
  676MOL0     H93267   9.213   7.836  -0.195  1.9124  0.8155  3.1634
  676MOL0     H93268   8.335   7.208  -0.138 -0.7370 -1.3132  0.2936
  676MOL0     H93269   8.081   7.131  -0.105 -2.0653  0.7991  1.1851
  676MOL0     H93270   7.702   7.141  -0.165 -1.1744 -1.7439  0.9233
  676MOL0     H93271   7.491   7.016  -0.117  0.3519  1.7427 -2.0555
  676MOL0     H93272   5.789   6.533   0.320  0.8171  1.1382  0.2795
  676MOL0     H93273   5.591   6.409   0.267  0.5372  0.1243  2.2292
  676MOL0     H93274   5.294   6.291   0.166  0.8637  1.8000 -0.7984
  676MOL0     H93275   5.154   6.102   0.142  0.2715  0.4807  2.2737
  676MOL0     H93276   4.746   6.153   0.163  1.5222 -1.2930  1.1595
  676MOL0     H93277   4.743   6.110  -0.015  2.7475  1.1452 -0.4893
  676MOL0     H93278   4.773   5.896   0.202  1.6968  0.3418  0.2689
  676MOL0     H93279   4.802   5.883   0.028 -0.8739  0.2150  0.0054
  676MOL0     H93280   4.533   5.938   0.151 -0.2516  1.1910 -0.8812
  676MOL0     H93281   4.570   5.959  -0.021  2.0041 -0.1938 -0.4892
  676MOL0     H93282   4.626   5.698   0.122  2.7210  0.3992 -0.8829
  676MOL0     H93283   4.625   5.720  -0.051  0.8347  1.3850 -0.5500
  676MOL0     H93284   4.225   5.635   0.010 -0.8054  0.4754 -0.6294
  676MOL0     H93285   4.826   6.352   0.051  0.9151 -1.6559 -2.9435
  676MOL0     H93286   4.839   6.567   0.026  0.7749  0.5928 -0.5888
  676MOL0     H93287   4.948   6.655   0.138  1.7356 -1.7504  1.4355
  676MOL0     H93288   4.998   6.640  -0.027  1.6824 -0.7271  0.7093
  677MOL0     O93289   7.396   4.781   3.470 -0.2938 -0.4175 -0.1419
  677MOL0     C93290   7.328   4.825   3.380  0.2468  0.1553  0.6347
  677MOL0     O93291   7.383   4.877   3.264 -0.1927 -0.3242  0.0726
  677MOL0     C93292   7.514   4.861   3.243 -0.1155 -0.0254 -0.0705
  677MOL0     C93293   7.609   4.924   3.314  1.0616 -0.2413 -0.0605
  677MOL0     C93294   7.744   4.916   3.286  0.3289  0.1629 -0.0583
  677MOL0     C93295   7.785   4.838   3.179  0.0236 -0.1285  0.1126
  677MOL0     O93296   7.926   4.818   3.158  0.1416  0.2054 -0.3896
  677MOL0     C93297   7.966   4.787   3.024 -0.3161  0.5696  0.6860
  677MOL0     C93298   8.112   4.821   3.000  0.3411  0.2701 -0.1867
  677MOL0     C93299   8.180   4.748   2.881 -0.1597 -0.2164  0.0980
  677MOL0     C93300   8.317   4.804   2.835  0.1317  0.6342 -0.3612
  677MOL0     C93301   8.407   4.839   2.955 -0.9989 -0.0095  0.1414
  677MOL0     C93302   8.552   4.866   2.921  0.4889 -0.3703  0.5309
  677MOL0     C93303   8.571   4.986   2.832  0.9375  0.6310  0.1338
  677MOL0     C93304   8.716   5.017   2.802 -0.4110  0.6610  0.0041
  677MOL0     N93305   8.747   5.146   2.735  0.6794  0.8949  0.2012
  677MOL0     C93306   8.796   5.150   2.602 -0.0875 -0.2617 -0.0074
  677MOL0     C93307   8.829   5.275   2.590 -0.2981 -0.5336 -0.4288
  677MOL0     C93308   8.877   5.352   2.478 -0.4737  0.1793  1.2982
  677MOL0     C93309   9.004   5.286   2.428  0.0687 -1.1151  0.4527
  677MOL0     C93310   9.121   5.310   2.523 -0.0455  0.5721  0.8227
  677MOL0     C93311   9.247   5.238   2.486 -0.2409  0.0797 -0.3869
  677MOL0     O93312   9.316   5.319   2.393  0.3192 -0.0761  0.0671
  677MOL0     C93313   9.450   5.298   2.369  0.4830  0.2711 -0.3081
  677MOL0     C93314   9.538   5.216   2.437  0.6255 -0.0031  0.1289
  677MOL0     C93315   9.671   5.226   2.413 -0.7756 -0.1952  0.3837
  677MOL0     C93316   9.753   5.113   2.476  0.6395 -0.4331  0.0568
  677MOL0     C93317   9.723   5.324   2.326 -0.4931  0.4054 -0.0232
  677MOL0     C93318   9.861   5.306   2.272  0.1172  0.2691 -0.4218
  677MOL0     O93319   9.885   5.332   2.143  0.0834  0.7961 -0.3707
  677MOL0     C93320  10.013   5.325   2.097 -0.3900  0.2553 -0.3224
  677MOL0     C93321  10.099   5.441   2.120  0.5567  0.1001 -0.4500
  677MOL0     C93322  10.231   5.441   2.068  0.2015 -0.0800 -0.4536
  677MOL0     C93323  10.281   5.328   1.998  0.1200 -0.5543 -0.2381
  677MOL0     O93324  10.414   5.332   1.955  0.1204  0.2578  0.0121
  677MOL0     C93325  10.475   5.215   1.911  0.1720  0.1495 -0.2136
  677MOL0     C93326  10.611   5.240   1.862 -0.4312  0.5194  0.2081
  677MOL0     C93327  10.605   5.350   1.756 -0.9008 -0.5318  0.8555
  677MOL0     C93328  10.734   5.364   1.667  1.0849  0.0977 -0.0427
  677MOL0     C93329  10.849   5.454   1.725 -0.0762  0.2941  0.4511
  677MOL0     C93330  10.989   5.438   1.664 -0.3171  0.1618 -0.1004
  677MOL0     C93331  11.102   5.503   1.755 -0.3574 -0.1828 -1.1043
  677MOL0     C93332  11.249   5.499   1.712 -0.5774 -0.4295  0.0931
  677MOL0    Cl93333  11.277   5.578   1.565 -0.1906 -0.0962  0.6048
  677MOL0     C93334  10.190   5.225   1.968 -0.4220  0.1321  0.3397
  677MOL0     C93335  10.061   5.221   2.024  0.3337 -0.0634 -0.5200
  677MOL0     O93336   9.946   5.288   2.356  0.4421  0.4633  0.0171
  677MOL0     C93337   9.635   5.404   2.254 -0.3220 -0.6024 -0.4602
  677MOL0     C93338   9.499   5.391   2.275 -0.2693 -0.9796  0.1142
  677MOL0     N93339   8.809   5.341   2.711 -0.8955  0.6724 -0.4208
  677MOL0     N93340   8.764   5.261   2.796  0.0878  1.0220 -0.3360
  677MOL0     C93341   7.688   4.766   3.107  0.5312  0.3929 -0.6304
  677MOL0     C93342   7.552   4.777   3.135 -0.1844  0.6400  1.0334
  677MOL0     C93343   7.182   4.804   3.377  0.7038 -0.1225 -0.3026
  677MOL0     C93344   7.108   4.840   3.262  0.6516  0.4156 -0.5099
  677MOL0     C93345   6.973   4.820   3.243 -0.4689  0.8130 -0.3318
  677MOL0     C93346   6.904   4.758   3.354  0.1244 -0.0145  1.0755
  677MOL0     O93347   6.774   4.720   3.342  0.0773  0.1161  0.1721
  677MOL0     C93348   6.682   4.779   3.252 -0.5747 -0.2861  0.0038
  677MOL0     C93349   6.663   4.933   3.281 -0.0407  0.5880 -0.5702
  677MOL0     C93350   6.557   4.946   3.393 -0.6398  1.0269  0.3038
  677MOL0     C93351   6.545   5.082   3.452  0.7904 -0.0047  0.1421
  677MOL0     C93352   6.666   5.109   3.531 -0.2284  0.8734 -0.0365
  677MOL0     C93353   6.768   5.125   3.595  0.3196  1.1100 -0.0725
  677MOL0     C93354   6.969   4.713   3.468 -0.4408 -0.4932  0.1822
  677MOL0     C93355   7.111   4.741   3.485 -1.1113 -0.8653  0.0860
  677MOL0     C93356   7.174   4.705   3.619  0.6555 -0.4231  0.1904
  677MOL0     H93357   7.576   4.985   3.398  0.6970  0.5142 -0.7308
  677MOL0     H93358   7.815   4.977   3.341  0.7102 -0.6899  0.4184
  677MOL0     H93359   7.903   4.840   2.951 -1.1333 -0.5526  0.5341
  677MOL0     H93360   7.949   4.681   3.002  1.8488  0.6647 -2.0863
  677MOL0     H93361   8.118   4.930   2.986  1.4495  0.5449  1.9771
  677MOL0     H93362   8.165   4.792   3.091  1.5416  1.2013 -0.5587
  677MOL0     H93363   8.183   4.644   2.916  3.0228 -0.2576 -0.0617
  677MOL0     H93364   8.116   4.749   2.793  2.9275 -1.3262 -2.3282
  677MOL0     H93365   8.356   4.723   2.772 -2.4820 -0.4597 -0.7520
  677MOL0     H93366   8.306   4.896   2.777  0.3541  0.3500 -0.8613
  677MOL0     H93367   8.413   4.762   3.032  1.3139  0.5062  0.5606
  677MOL0     H93368   8.355   4.916   3.012 -0.6833  0.5972 -0.3650
  677MOL0     H93369   8.604   4.900   3.011  0.3021 -1.4460  1.0567
  677MOL0     H93370   8.598   4.776   2.878  0.1373 -0.9501  1.3361
  677MOL0     H93371   8.519   5.071   2.879  1.4901  2.2883 -2.0883
  677MOL0     H93372   8.518   4.967   2.739 -0.1337  0.1611  0.8167
  677MOL0     H93373   8.781   5.006   2.889  1.3946 -0.0466 -1.3813
  677MOL0     H93374   8.749   4.934   2.739 -1.0731 -0.8248  1.5291
  677MOL0     H93375   8.801   5.070   2.529 -0.1541 -0.3339  0.0668
  677MOL0     H93376   8.888   5.458   2.502 -1.1433  0.6334 -0.2644
  677MOL0     H93377   8.804   5.339   2.397  1.7092 -0.7609 -0.6449
  677MOL0     H93378   8.980   5.180   2.413 -0.4024 -1.0621  0.7977
  677MOL0     H93379   9.024   5.327   2.328 -1.0949  0.4825  0.8340
  677MOL0     H93380   9.139   5.416   2.540  3.6837  0.1481  0.2846
  677MOL0     H93381   9.087   5.275   2.621  1.2668  1.1447  1.5050
  677MOL0     H93382   9.305   5.230   2.579  2.5448  0.9533 -1.9190
  677MOL0     H93383   9.245   5.137   2.445  0.8097  0.0134 -0.2963
  677MOL0     H93384   9.498   5.141   2.506 -0.0013  0.2690  0.0692
  677MOL0     H93385   9.688   5.026   2.491 -1.3350  0.4844 -2.4342
  677MOL0     H93386   9.791   5.145   2.573  0.5012 -0.5307  0.1436
  677MOL0     H93387   9.834   5.083   2.408  1.2969  1.0873  0.1335
  677MOL0     H93388  10.046   5.524   2.166 -2.6781 -2.9833  1.9911
  677MOL0     H93389  10.299   5.525   2.081  2.9897 -1.9888 -1.6380
  677MOL0     H93390  10.483   5.143   1.993 -0.8527 -1.3786 -1.4314
  677MOL0     H93391  10.422   5.177   1.824  0.6228  1.3038 -1.0233
  677MOL0     H93392  10.678   5.261   1.945 -1.6904 -0.7466  1.6052
  677MOL0     H93393  10.649   5.144   1.826  0.5691  0.6465  0.9042
  677MOL0     H93394  10.587   5.444   1.807  3.7161  1.0716 -0.0177
  677MOL0     H93395  10.518   5.327   1.692 -1.8575  0.8888  1.5929
  677MOL0     H93396  10.696   5.395   1.569 -1.2455 -2.3468 -0.0299
  677MOL0     H93397  10.783   5.268   1.647 -1.0755 -0.8931 -0.9095
  677MOL0     H93398  10.832   5.561   1.707 -0.4826 -0.2305 -3.0372
  677MOL0     H93399  10.874   5.429   1.829  3.3533 -3.4523 -0.9761
  677MOL0     H93400  10.999   5.488   1.567 -0.0747  0.8280  0.2662
  677MOL0     H93401  11.019   5.333   1.660  2.2482  0.6285  2.7808
  677MOL0     H93402  11.101   5.451   1.851  2.6661  2.2024  0.4228
  677MOL0     H93403  11.076   5.607   1.776 -2.2395 -0.4411 -2.0006
  677MOL0     H93404  11.286   5.398   1.692 -1.5561 -0.9304  0.7084
  677MOL0     H93405  11.310   5.539   1.794 -0.8957  0.2633 -0.0007
  677MOL0     H93406  10.219   5.156   1.889 -0.8291 -0.3170  0.5779
  677MOL0     H93407   9.992   5.139   2.007 -0.3271  0.8631 -2.6309
  677MOL0     H93408   9.675   5.470   2.177 -0.7943  0.4045  0.1339
  677MOL0     H93409   9.415   5.439   2.226 -1.0687 -1.2811  1.1730
  677MOL0     H93410   7.725   4.704   3.027 -1.1396 -2.9581  0.9804
  677MOL0     H93411   7.472   4.719   3.091 -0.1177 -1.0495  2.9535
  677MOL0     H93412   7.165   4.875   3.177  1.2675  0.2527 -0.1720
  677MOL0     H93413   6.930   4.849   3.148 -0.7299  0.4696 -0.3207
  677MOL0     H93414   6.719   4.758   3.151  1.9761 -4.1449  1.5475
  677MOL0     H93415   6.587   4.726   3.259  0.5510 -2.7591 -1.9236
  677MOL0     H93416   6.626   4.985   3.192 -1.7964  1.9882  0.9045
  677MOL0     H93417   6.753   4.988   3.308 -0.1520 -0.6197  2.7165
  677MOL0     H93418   6.460   4.913   3.354 -1.4032  1.8433  1.4667
  677MOL0     H93419   6.582   4.872   3.469  2.0033 -0.9438 -2.2361
  677MOL0     H93420   6.461   5.094   3.521 -0.6619 -0.6954 -1.4365
  677MOL0     H93421   6.534   5.150   3.367  0.4715  0.9601  0.9312
  677MOL0     H93422   6.863   5.147   3.641  0.2285 -0.7249  1.0901
  677MOL0     H93423   6.912   4.678   3.553  0.8726  0.9348  1.7274
  677MOL0     H93424   7.220   4.792   3.666 -2.9932  1.1935  1.0621
  677MOL0     H93425   7.104   4.661   3.690 -1.2271  1.5073 -0.4015
  677MOL0     H93426   7.251   4.631   3.595  0.5963  0.2910 -2.5578
  678MOL0     O93427   8.989   7.253   2.646 -0.1610 -0.2002 -0.1901
  678MOL0     C93428   8.901   7.214   2.568 -0.4888 -0.3576 -0.0746
  678MOL0     O93429   8.907   7.221   2.431  0.6382  0.5489 -0.3714
  678MOL0     C93430   8.995   7.314   2.377 -0.4363 -0.3730  1.2141
  678MOL0     C93431   9.126   7.335   2.401 -0.1542  0.1859  0.5397
  678MOL0     C93432   9.195   7.436   2.341  0.4250 -0.5102 -0.3696
  678MOL0     C93433   9.130   7.527   2.253 -0.3810 -0.1509 -0.4070
  678MOL0     O93434   9.205   7.629   2.198  0.5845  0.1642  0.5836
  678MOL0     C93435   9.146   7.769   2.192 -0.3808  1.0033  0.0608
  678MOL0     C93436   9.184   7.825   2.056 -0.5504  0.0686 -0.4547
  678MOL0     C93437   9.317   7.897   2.048  0.4237 -0.6272 -0.4686
  678MOL0     C93438   9.363   7.924   1.908 -0.6632  0.0687 -0.2785
  678MOL0     C93439   9.484   8.015   1.911  0.3534  0.3335 -0.2422
  678MOL0     C93440   9.548   8.028   1.766  0.1122  0.1908  0.6688
  678MOL0     C93441   9.681   8.086   1.745  0.0694 -1.0355 -0.2765
  678MOL0     C93442   9.807   8.004   1.773 -0.0340  0.7957 -0.1461
  678MOL0     N93443   9.923   8.088   1.762  0.0068  0.1765 -0.7380
  678MOL0     C93444   9.984   8.115   1.640  0.4260 -0.4631  0.4610
  678MOL0     C93445  10.105   8.158   1.666 -0.5839  0.1621  0.1130
  678MOL0     C93446  10.182   8.221   1.556 -0.3742 -0.1933 -0.3172
  678MOL0     C93447  10.270   8.123   1.473 -0.0350  0.2941 -0.1627
  678MOL0     C93448  10.383   8.198   1.399 -0.7348  0.1278 -0.1822
  678MOL0     C93449  10.468   8.105   1.315 -0.2074  0.3480 -1.0466
  678MOL0     O93450  10.575   8.182   1.256 -0.5068  0.3948  0.8334
  678MOL0     C93451  10.699   8.166   1.303 -0.3162  0.1851  0.1895
  678MOL0     C93452  10.802   8.120   1.215  0.0222 -0.2345  0.7725
  678MOL0     C93453  10.939   8.117   1.256  0.0930  0.3872 -0.2849
  678MOL0     C93454  11.037   8.066   1.158 -0.6826  0.9156  0.1517
  678MOL0     C93455  10.970   8.145   1.393  0.1353 -0.3552 -0.5527
  678MOL0     C93456  11.102   8.137   1.463 -0.4250 -0.5377  0.4531
  678MOL0     O93457  11.150   8.251   1.520 -0.4528  0.5136  0.0155
  678MOL0     C93458  11.271   8.233   1.585 -0.3393  0.0627 -0.0922
  678MOL0     C93459  11.275   8.242   1.725 -1.3646 -0.2552 -0.6524
  678MOL0     C93460  11.400   8.261   1.787 -0.7108  0.0354 -0.2997
  678MOL0     C93461  11.513   8.271   1.712 -0.8417 -0.7058  0.5604
  678MOL0     O93462  11.644   8.296   1.769 -0.0551 -0.0762 -0.1784
  678MOL0     C93463  11.764   8.293   1.693  0.6686  0.1197 -0.5287
  678MOL0     C93464  11.828   8.151   1.697 -0.0290  0.5669  0.2183
  678MOL0     C93465  11.978   8.154   1.664 -0.4929 -0.2676  0.8867
  678MOL0     C93466  12.046   8.015   1.651 -0.2468 -0.0598  0.2414
  678MOL0     C93467  12.195   8.037   1.628 -0.4152  0.2250 -0.5981
  678MOL0     C93468  12.272   7.906   1.642  0.3259 -0.1376 -0.1520
  678MOL0     C93469  12.333   7.907   1.791  0.4450 -0.4386 -0.2181
  678MOL0     C93470  12.389   7.770   1.824 -0.4354 -1.0383 -0.1017
  678MOL0    Cl93471  12.545   7.727   1.751  0.1324  0.0548  0.2349
  678MOL0     C93472  11.507   8.256   1.571  0.1504 -0.7561  0.0984
  678MOL0     C93473  11.384   8.241   1.505 -0.3214  0.4629  0.7839
  678MOL0     O93474  11.159   8.028   1.457 -0.1865  0.1209  0.0253
  678MOL0     C93475  10.864   8.185   1.474 -0.7151  0.0453 -0.6041
  678MOL0     C93476  10.735   8.206   1.428 -0.4889 -0.4027 -0.7281
  678MOL0     N93477  10.132   8.159   1.802  0.4003 -0.5562 -0.6261
  678MOL0     N93478  10.025   8.106   1.856 -0.1016  0.1669  0.2118
  678MOL0     C93479   8.986   7.507   2.243  0.5715 -0.3781  0.3482
  678MOL0     C93480   8.929   7.393   2.291 -0.0664  0.3934 -0.1766
  678MOL0     C93481   8.797   7.135   2.629  0.6630 -0.9250 -0.2237
  678MOL0     C93482   8.669   7.166   2.574 -0.1617 -0.4554 -0.4239
  678MOL0     C93483   8.559   7.102   2.622  0.6681 -0.1457  0.5462
  678MOL0     C93484   8.576   7.002   2.719 -0.8627 -0.4410  0.1505
  678MOL0     O93485   8.476   6.929   2.774 -0.1270  0.9241  0.6979
  678MOL0     C93486   8.342   6.960   2.749  0.7780 -0.0604  1.0482
  678MOL0     C93487   8.246   6.865   2.832  0.3568 -0.6715 -0.5986
  678MOL0     C93488   8.102   6.906   2.813 -0.2301 -0.2448 -0.5805
  678MOL0     C93489   7.998   6.845   2.916 -0.3112 -0.8999  0.0345
  678MOL0     C93490   8.006   6.893   3.056 -0.7959  0.2185 -0.3088
  678MOL0     C93491   8.047   6.922   3.166  1.3301  0.5374 -0.9850
  678MOL0     C93492   8.696   6.980   2.780  0.1222 -0.0511  0.5440
  678MOL0     C93493   8.811   7.034   2.726  0.1014 -0.4012  0.5416
  678MOL0     C93494   8.944   6.981   2.767 -0.0595 -0.5393  0.0430
  678MOL0     H93495   9.185   7.266   2.461  1.6064  1.0901 -0.0581
  678MOL0     H93496   9.300   7.457   2.360  0.6973 -1.9092 -0.2437
  678MOL0     H93497   9.192   7.836   2.266  1.8663  4.2368 -3.8353
  678MOL0     H93498   9.038   7.779   2.199 -0.6351 -1.1854 -0.2364
  678MOL0     H93499   9.179   7.741   1.986  1.3462 -0.9609  0.5664
  678MOL0     H93500   9.108   7.901   2.038 -0.4689  0.4866  0.9263
  678MOL0     H93501   9.323   7.993   2.100 -2.7210 -0.7439  0.3859
  678MOL0     H93502   9.386   7.833   2.103  1.0956  3.0127  3.4113
  678MOL0     H93503   9.381   7.832   1.853 -2.1102 -0.1875 -0.3594
  678MOL0     H93504   9.293   7.987   1.853  3.0377  1.3454 -4.0889
  678MOL0     H93505   9.558   7.969   1.978 -1.3814 -0.6476  1.0713
  678MOL0     H93506   9.452   8.112   1.949  1.8353 -0.7523  4.5091
  678MOL0     H93507   9.552   7.929   1.722  4.4110  1.2513 -1.8538
  678MOL0     H93508   9.485   8.095   1.706 -0.9378  0.9734  2.5445
  678MOL0     H93509   9.685   8.182   1.798 -1.1447 -0.7092 -0.7340
  678MOL0     H93510   9.689   8.102   1.637 -0.6345  0.5737 -0.1240
  678MOL0     H93511   9.807   7.952   1.870 -1.1320  2.5117  0.8084
  678MOL0     H93512   9.812   7.923   1.699 -0.6378  2.1380 -1.7125
  678MOL0     H93513   9.938   8.125   1.542  1.2314  5.3928  0.3149
  678MOL0     H93514  10.242   8.291   1.615 -0.2036 -0.5826 -0.0258
  678MOL0     H93515  10.124   8.276   1.480 -1.2536 -0.2803  0.2741
  678MOL0     H93516  10.319   8.053   1.542  2.2730  0.3292 -1.6505
  678MOL0     H93517  10.207   8.068   1.403 -0.2368  0.1024  0.1634
  678MOL0     H93518  10.335   8.271   1.334  0.1331  1.2971  0.4676
  678MOL0     H93519  10.449   8.251   1.467 -0.6273 -1.3407  0.9196
  678MOL0     H93520  10.507   8.027   1.381 -0.6081 -0.3968 -1.6635
  678MOL0     H93521  10.397   8.051   1.251 -0.7297  0.2946 -0.4357
  678MOL0     H93522  10.782   8.098   1.111  1.6490  0.9429  0.1763
  678MOL0     H93523  11.052   8.136   1.075 -0.1748  1.4514  0.6859
  678MOL0     H93524  11.010   7.965   1.126 -0.6504  0.8694  0.2645
  678MOL0     H93525  11.136   8.065   1.205  0.1332  0.8688 -1.4818
  678MOL0     H93526  11.182   8.244   1.782 -0.8436  0.3240  0.1928
  678MOL0     H93527  11.404   8.264   1.895 -0.9802  2.4094 -0.2986
  678MOL0     H93528  11.757   8.336   1.592 -1.7798 -0.5765 -0.7055
  678MOL0     H93529  11.843   8.351   1.742  1.5206 -2.0158  0.7516
  678MOL0     H93530  11.804   8.102   1.792  0.2729  1.1813  0.6206
  678MOL0     H93531  11.779   8.090   1.621 -0.9055  0.0409  1.1789
  678MOL0     H93532  12.025   8.206   1.749 -2.7062  1.5034  1.1327
  678MOL0     H93533  12.007   8.215   1.578 -1.0377 -1.4647 -0.1709
  678MOL0     H93534  12.006   7.967   1.561 -1.4724  0.6208  0.3997
  678MOL0     H93535  12.022   7.962   1.743  0.6662  0.1860  0.6222
  678MOL0     H93536  12.203   8.072   1.524 -2.6564 -0.6139 -1.1136
  678MOL0     H93537  12.229   8.116   1.695 -0.3630  0.5738 -1.0252
  678MOL0     H93538  12.358   7.902   1.575  0.3756  0.8537 -0.1543
  678MOL0     H93539  12.202   7.826   1.617  1.3561 -0.5070 -1.9810
  678MOL0     H93540  12.256   7.938   1.863  0.4274 -2.7127  0.8262
  678MOL0     H93541  12.412   7.982   1.802 -0.4971  0.4348  0.8154
  678MOL0     H93542  12.318   7.696   1.787  1.9063 -3.3940 -0.1701
  678MOL0     H93543  12.392   7.755   1.932  0.4511  1.8967  0.3704
  678MOL0     H93544  11.597   8.263   1.512  0.0399  4.5030  0.1440
  678MOL0     H93545  11.382   8.232   1.396 -1.7973 -1.5476  0.9228
  678MOL0     H93546  10.896   8.209   1.575  1.2302  3.2892 -1.8346
  678MOL0     H93547  10.668   8.256   1.498  1.6807  0.0394  1.1693
  678MOL0     H93548   8.929   7.576   2.180  2.2461 -0.3580 -1.2455
  678MOL0     H93549   8.823   7.381   2.272 -0.2349  0.7614  0.4883
  678MOL0     H93550   8.658   7.242   2.498 -1.0589 -2.0038 -1.9006
  678MOL0     H93551   8.461   7.123   2.578  0.1152 -3.4519 -0.1219
  678MOL0     H93552   8.331   7.065   2.778  1.8784 -0.0979  1.6362
  678MOL0     H93553   8.323   6.941   2.643  1.8700  2.0943  0.4086
  678MOL0     H93554   8.270   6.876   2.938 -0.4126  1.8696 -0.6208
  678MOL0     H93555   8.267   6.760   2.808  0.6559 -0.7311 -0.0946
  678MOL0     H93556   8.089   7.014   2.824  0.2649 -0.4301  2.7105
  678MOL0     H93557   8.067   6.883   2.711 -2.8477  0.7932  0.0035
  678MOL0     H93558   8.034   6.742   2.922  2.3656 -0.0177  0.4092
  678MOL0     H93559   7.896   6.855   2.879 -0.0493 -0.1330 -0.5029
  678MOL0     H93560   8.072   6.948   3.267 -0.8576  0.6202 -0.4116
  678MOL0     H93561   8.704   6.897   2.849  1.1368  1.6279  2.5369
  678MOL0     H93562   8.954   6.873   2.757  0.0536 -0.7058  1.5987
  678MOL0     H93563   9.030   7.031   2.720  2.0622 -0.5826  3.4999
  678MOL0     H93564   8.974   6.997   2.872  1.0567  0.7494 -0.4394
  679MOL0     O93565   7.080   6.859   1.702 -0.6316  0.2403  0.0200
  679MOL0     C93566   7.051   6.862   1.590  0.3074  0.3619  0.3674
  679MOL0     O93567   7.130   6.891   1.490 -0.0054 -0.5059 -0.4861
  679MOL0     C93568   7.259   6.899   1.525 -1.1560  0.4757  0.2103
  679MOL0     C93569   7.343   6.795   1.505 -0.1506  0.6076 -0.6334
  679MOL0     C93570   7.482   6.818   1.502 -0.5724  0.2139 -0.2868
  679MOL0     C93571   7.531   6.951   1.525 -0.5351  0.1524 -0.3083
  679MOL0     O93572   7.663   6.985   1.517  0.6578  0.3388  0.3708
  679MOL0     C93573   7.758   6.918   1.432  1.0117 -0.2873 -0.5254
  679MOL0     C93574   7.891   6.987   1.443  0.4897  0.1074 -0.0600
  679MOL0     C93575   8.003   6.914   1.363  0.3130 -0.6616 -0.7695
  679MOL0     C93576   8.113   7.022   1.332  0.1170 -0.5762 -0.1439
  679MOL0     C93577   8.247   6.960   1.283 -0.2875  0.0019  1.0621
  679MOL0     C93578   8.346   6.922   1.393 -0.1401  0.5892  0.3411
  679MOL0     C93579   8.423   7.044   1.441 -0.2677 -0.0049 -0.1179
  679MOL0     C93580   8.539   7.025   1.546 -1.0943  0.7166 -0.3332
  679MOL0     N93581   8.593   7.154   1.582  0.8534 -0.1980 -0.9325
  679MOL0     C93582   8.573   7.223   1.705 -1.0852 -0.2355  0.5815
  679MOL0     C93583   8.676   7.314   1.712  0.1607  0.1680 -0.7236
  679MOL0     C93584   8.718   7.392   1.830 -0.5095  0.9152 -0.7347
  679MOL0     C93585   8.862   7.354   1.884  0.8738  0.7796  0.0395
  679MOL0     C93586   8.962   7.411   1.783 -0.5132 -0.1387  0.2261
  679MOL0     C93587   9.101   7.415   1.832  0.9130 -0.6237 -0.9684
  679MOL0     O93588   9.192   7.425   1.728 -0.3965 -0.0015 -0.9723
  679MOL0     C93589   9.322   7.474   1.752 -0.2802  0.5091 -0.5568
  679MOL0     C93590   9.380   7.515   1.875  0.3700  0.9556 -0.0537
  679MOL0     C93591   9.506   7.561   1.864  0.0134 -0.0818 -0.0650
  679MOL0     C93592   9.563   7.611   1.997  1.2367  0.3518 -0.0326
  679MOL0     C93593   9.580   7.578   1.742  0.3863  0.7877  0.3230
  679MOL0     C93594   9.711   7.633   1.720  0.4628  0.3688  0.6968
  679MOL0     O93595   9.768   7.610   1.600  0.8431 -0.0353 -0.4152
  679MOL0     C93596   9.901   7.625   1.593 -0.6531 -0.1130  0.3140
  679MOL0     C93597   9.993   7.525   1.636  0.0980 -0.3252  0.2850
  679MOL0     C93598  10.132   7.545   1.611 -0.2503 -0.2524  0.3128
  679MOL0     C93599  10.171   7.657   1.530 -0.3380  0.1781 -0.2464
  679MOL0     O93600  10.307   7.662   1.508 -0.8244 -0.0159 -0.1733
  679MOL0     C93601  10.362   7.771   1.432  0.1203 -0.0940 -0.6215
  679MOL0     C93602  10.491   7.723   1.377  0.7259 -0.2145  0.3737
  679MOL0     C93603  10.589   7.676   1.482 -0.7459  0.1910  0.4035
  679MOL0     C93604  10.730   7.664   1.424 -1.1275 -0.3867 -0.4134
  679MOL0     C93605  10.842   7.627   1.525  1.3812 -0.3372 -0.3313
  679MOL0     C93606  10.976   7.582   1.471  0.3310  0.1694 -0.8429
  679MOL0     C93607  11.062   7.508   1.578 -0.3812  0.5361  0.1011
  679MOL0     C93608  11.204   7.481   1.522 -0.9034  0.2961 -0.4959
  679MOL0    Cl93609  11.193   7.362   1.385  0.3073  0.1770 -0.2601
  679MOL0     C93610  10.079   7.750   1.493  0.4697 -1.0303  0.0703
  679MOL0     C93611   9.941   7.735   1.515  0.0149  0.8122  0.0905
  679MOL0     O93612   9.760   7.695   1.806 -0.0083  0.2453 -0.4550
  679MOL0     C93613   9.511   7.546   1.623 -0.2129  0.2843 -0.6563
  679MOL0     C93614   9.383   7.492   1.629 -0.3893  0.3686 -0.3615
  679MOL0     N93615   8.742   7.301   1.596 -0.3433 -0.1885 -0.2015
  679MOL0     N93616   8.701   7.206   1.520  0.2287  0.5409  0.2701
  679MOL0     C93617   7.453   7.057   1.548  0.2513 -0.3515 -0.5563
  679MOL0     C93618   7.313   7.031   1.556  0.6664 -0.3408 -0.2249
  679MOL0     C93619   6.907   6.850   1.557  0.1893  0.6263  0.5626
  679MOL0     C93620   6.858   6.899   1.433  0.6140  0.1058  0.9480
  679MOL0     C93621   6.723   6.908   1.394  0.0756  0.4493  0.6022
  679MOL0     C93622   6.628   6.846   1.483 -0.5809  0.1937 -0.2500
  679MOL0     O93623   6.498   6.864   1.443 -0.0118  0.2479  0.3645
  679MOL0     C93624   6.390   6.808   1.521  0.6453 -0.1493  0.2259
  679MOL0     C93625   6.361   6.915   1.633  1.1317  0.0274  0.6768
  679MOL0     C93626   6.247   6.882   1.732 -0.1658  0.7171 -0.3707
  679MOL0     C93627   6.192   7.008   1.807 -0.4361  0.5095  0.0793
  679MOL0     C93628   6.294   7.068   1.889 -0.0751  0.1409 -0.7170
  679MOL0     C93629   6.376   7.099   1.969  0.3886  0.1664 -0.2205
  679MOL0     C93630   6.667   6.779   1.597  0.5834 -0.1906 -0.7102
  679MOL0     C93631   6.807   6.774   1.629  0.8412 -0.6468 -0.7008
  679MOL0     C93632   6.835   6.695   1.749 -0.9069 -0.0300 -0.6028
  679MOL0     H93633   7.309   6.697   1.474  3.8004 -0.6434 -1.6405
  679MOL0     H93634   7.553   6.738   1.479  3.2335  2.7944  1.4121
  679MOL0     H93635   7.732   6.927   1.326 -0.7829  2.6858  0.0464
  679MOL0     H93636   7.778   6.815   1.463  1.9710  0.0292 -0.0230
  679MOL0     H93637   7.877   7.092   1.416 -0.0580 -0.1594 -0.8773
  679MOL0     H93638   7.931   6.976   1.544  0.1525 -0.8685 -0.0199
  679MOL0     H93639   8.042   6.838   1.430  0.5213 -1.7072 -2.0360
  679MOL0     H93640   7.959   6.868   1.274 -0.7508  0.5534 -0.8993
  679MOL0     H93641   8.085   7.093   1.254  3.6012  1.8170  0.5503
  679MOL0     H93642   8.129   7.092   1.415 -3.1901 -0.5637  0.6358
  679MOL0     H93643   8.295   7.038   1.223  1.2111 -2.3889 -1.0056
  679MOL0     H93644   8.228   6.878   1.214 -0.5067  0.2947  0.7702
  679MOL0     H93645   8.301   6.873   1.480  0.3926 -0.8731 -0.1842
  679MOL0     H93646   8.415   6.847   1.354 -1.4083  0.2517 -1.3685
  679MOL0     H93647   8.351   7.120   1.473 -1.2090 -0.2351 -1.5968
  679MOL0     H93648   8.467   7.092   1.353  0.2732  2.4930  1.4073
  679MOL0     H93649   8.508   6.984   1.643  1.6495 -0.0958  0.2711
  679MOL0     H93650   8.612   6.954   1.508 -0.8140 -1.1024  3.1992
  679MOL0     H93651   8.493   7.211   1.778 -2.0801  0.3105 -0.4014
  679MOL0     H93652   8.648   7.383   1.914  1.7081  0.0408  1.1097
  679MOL0     H93653   8.698   7.493   1.791 -2.4510  1.1155  0.6124
  679MOL0     H93654   8.884   7.408   1.976  0.4080 -1.5077  1.5697
  679MOL0     H93655   8.878   7.247   1.903 -0.3395  1.1973  4.3015
  679MOL0     H93656   8.962   7.356   1.688 -2.7505  2.5685 -1.5111
  679MOL0     H93657   8.941   7.512   1.748  2.5703  0.4624 -0.1449
  679MOL0     H93658   9.114   7.504   1.894  1.3350 -1.5559  0.3194
  679MOL0     H93659   9.116   7.331   1.901 -1.8843 -0.8938 -0.5961
  679MOL0     H93660   9.329   7.494   1.968  2.2957  0.4549  0.9413
  679MOL0     H93661   9.500   7.590   2.084  2.5827 -1.4141  0.5621
  679MOL0     H93662   9.567   7.721   1.992  1.9410  0.3243 -0.2263
  679MOL0     H93663   9.657   7.562   2.024  0.5630 -2.1655 -1.8652
  679MOL0     H93664   9.952   7.450   1.703  0.6420 -0.8100  0.0867
  679MOL0     H93665  10.216   7.488   1.649 -0.9667 -0.0797  2.2292
  679MOL0     H93666  10.308   7.804   1.343  0.4793  1.1140 -0.4089
  679MOL0     H93667  10.379   7.856   1.498 -0.5832  0.6128 -1.3254
  679MOL0     H93668  10.470   7.646   1.303  2.2135 -1.5971  1.3067
  679MOL0     H93669  10.538   7.806   1.323  0.7456  0.1358  0.9256
  679MOL0     H93670  10.554   7.575   1.505 -1.6738 -0.1803 -2.2743
  679MOL0     H93671  10.587   7.739   1.571 -3.1752  2.1794 -0.9143
  679MOL0     H93672  10.767   7.748   1.365  0.7662 -0.6952  0.2514
  679MOL0     H93673  10.738   7.580   1.355  0.6135  1.0804 -2.0877
  679MOL0     H93674  10.859   7.720   1.580 -0.2957  2.1930 -3.7381
  679MOL0     H93675  10.801   7.550   1.591  0.2797 -0.1868 -0.8212
  679MOL0     H93676  11.025   7.672   1.433  1.0527 -1.2980 -3.6177
  679MOL0     H93677  10.958   7.509   1.392  0.3077 -1.7658  0.8633
  679MOL0     H93678  11.017   7.411   1.601 -1.0983  0.9080  0.2896
  679MOL0     H93679  11.071   7.573   1.665  0.7291  2.9763 -1.7178
  679MOL0     H93680  11.272   7.435   1.593 -1.8884 -0.9774 -0.3419
  679MOL0     H93681  11.241   7.582   1.502  2.1049 -0.1124  2.3051
  679MOL0     H93682  10.093   7.843   1.438 -2.0557  0.0020  0.9914
  679MOL0     H93683   9.869   7.807   1.479  2.3326  2.8352 -0.7710
  679MOL0     H93684   9.551   7.560   1.523 -2.5634 -1.4013 -1.9481
  679MOL0     H93685   9.340   7.463   1.534  0.7535  0.1567 -0.8272
  679MOL0     H93686   7.492   7.158   1.551  0.6700 -0.5271  1.8200
  679MOL0     H93687   7.247   7.115   1.574  0.5852 -0.7109  1.3939
  679MOL0     H93688   6.933   6.954   1.377 -0.2144 -0.8730 -1.2274
  679MOL0     H93689   6.695   6.967   1.307 -1.0199 -3.7013 -2.1540
  679MOL0     H93690   6.296   6.810   1.466  0.8292  2.9677 -0.1928
  679MOL0     H93691   6.403   6.708   1.562 -1.5346 -0.6937 -0.3158
  679MOL0     H93692   6.331   7.007   1.583  0.0810 -1.0208 -0.7041
  679MOL0     H93693   6.453   6.933   1.690  1.9788 -3.3067  0.5978
  679MOL0     H93694   6.168   6.841   1.669  0.4812  0.5741 -1.1070
  679MOL0     H93695   6.272   6.808   1.808 -2.5302  0.0226 -0.1826
  679MOL0     H93696   6.109   6.977   1.871  0.0975 -0.5184  0.3053
  679MOL0     H93697   6.159   7.071   1.724  0.1502  0.4349 -0.2168
  679MOL0     H93698   6.446   7.149   2.032 -1.7766 -0.3760  2.8504
  679MOL0     H93699   6.592   6.724   1.652  1.0535 -0.6220 -0.4958
  679MOL0     H93700   6.918   6.626   1.729 -1.2178 -0.7258  0.4384
  679MOL0     H93701   6.877   6.763   1.823 -0.8422 -0.7485  0.0290
  679MOL0     H93702   6.751   6.643   1.796  0.3349  1.5333  3.8275
  680MOL0     O93703   7.671   5.583   7.706 -0.4609 -0.6321  0.4357
  680MOL0     C93704   7.564   5.576   7.777 -0.7198  0.1465 -0.4498
  680MOL0     O93705   7.554   5.531   7.901 -0.5448 -0.2010  0.3562
  680MOL0     C93706   7.661   5.506   7.978 -0.5196 -0.5408 -0.0974
  680MOL0     C93707   7.617   5.472   8.109  0.1390 -0.1428 -0.5555
  680MOL0     C93708   7.711   5.420   8.207  0.3604 -0.0133  0.5392
  680MOL0     C93709   7.848   5.424   8.171  0.0240  0.3396 -0.4869
  680MOL0     O93710   7.937   5.369   8.258 -0.5725  0.1761 -0.1974
  680MOL0     C93711   7.958   5.427   8.392  0.4726  0.3556  0.2509
  680MOL0     C93712   8.025   5.561   8.395  0.3296 -0.3339 -0.1175
  680MOL0     C93713   8.164   5.564   8.339  0.0007  0.1828 -0.1535
  680MOL0     C93714   8.270   5.511   8.426  0.2634 -0.0454  0.4492
  680MOL0     C93715   8.406   5.572   8.398 -0.1037 -0.5662 -0.1050
  680MOL0     C93716   8.454   5.541   8.258  0.6860  1.2683  0.4502
  680MOL0     C93717   8.592   5.608   8.233  0.0703 -0.1303  0.0594
  680MOL0     C93718   8.636   5.579   8.091  0.1896 -0.0244  0.5121
  680MOL0     N93719   8.757   5.652   8.070 -0.8287  0.0077 -0.3746
  680MOL0     C93720   8.760   5.790   8.040 -1.0857 -0.2193  0.7641
  680MOL0     C93721   8.891   5.809   8.001 -0.0355  0.4286 -0.1972
  680MOL0     C93722   8.947   5.943   7.952 -0.3324  0.0476  0.5179
  680MOL0     C93723   9.003   5.936   7.807  0.7170 -0.5696 -0.5425
  680MOL0     C93724   9.043   6.067   7.742  0.6551 -0.6875 -0.4277
  680MOL0     C93725   9.164   6.138   7.813  0.0850  0.5247  0.8750
  680MOL0     O93726   9.268   6.028   7.808  0.3939 -0.9166 -1.0972
  680MOL0     C93727   9.385   6.051   7.874  0.7612  0.2506 -1.2172
  680MOL0     C93728   9.441   6.169   7.915  0.1094  0.1732 -0.6250
  680MOL0     C93729   9.563   6.171   7.987 -0.2567 -0.3172  0.7011
  680MOL0     C93730   9.623   6.301   8.029  0.1625 -0.2904 -0.1801
  680MOL0     C93731   9.623   6.053   8.020  0.4933  0.5827 -0.3376
  680MOL0     C93732   9.749   6.053   8.104  0.6042  0.6012 -0.3061
  680MOL0     O93733   9.874   6.008   8.069 -0.3135 -0.1405  1.0174
  680MOL0     C93734   9.897   5.966   7.937  0.9542 -0.4085  0.0863
  680MOL0     C93735   9.857   6.040   7.825 -0.1862  0.8780 -1.1258
  680MOL0     C93736   9.867   5.986   7.706 -0.4936 -0.1754  1.1856
  680MOL0     C93737   9.927   5.859   7.682  0.8809  0.4291 -0.2204
  680MOL0     O93738   9.913   5.815   7.552  0.1706  0.2661 -0.8089
  680MOL0     C93739  10.026   5.750   7.496  0.7805  0.1769  0.8893
  680MOL0     C93740  10.153   5.835   7.500 -0.0744 -0.7884 -0.4659
  680MOL0     C93741  10.260   5.767   7.422  0.6341 -0.4936  0.9970
  680MOL0     C93742  10.381   5.855   7.418 -0.0386 -0.1515  0.3113
  680MOL0     C93743  10.480   5.818   7.308  0.0614 -0.3994  0.5873
  680MOL0     C93744  10.534   5.674   7.336 -0.4517 -0.7430  0.1006
  680MOL0     C93745  10.455   5.564   7.262  0.0346 -0.1671 -0.3669
  680MOL0     C93746  10.523   5.421   7.267  1.0007 -0.3537  0.0772
  680MOL0    Cl93747  10.540   5.358   7.432  0.4455 -0.1022 -0.6715
  680MOL0     C93748   9.976   5.791   7.790 -0.1975 -1.0512 -0.6420
  680MOL0     C93749   9.960   5.844   7.916 -0.3893  0.0971 -0.2130
  680MOL0     O93750   9.718   6.094   8.217 -0.2437 -0.2055 -0.8810
  680MOL0     C93751   9.570   5.933   7.983  0.0439 -0.0157  0.2765
  680MOL0     C93752   9.449   5.928   7.913  0.3048 -0.2502 -0.5311
  680MOL0     N93753   8.962   5.686   8.022 -0.1760 -1.0295  0.0925
  680MOL0     N93754   8.871   5.593   8.056 -0.1215  0.0099  0.5015
  680MOL0     C93755   7.898   5.471   8.047  0.7423  0.6473  0.7247
  680MOL0     C93756   7.800   5.517   7.957  0.3083 -0.0737  0.3776
  680MOL0     C93757   7.437   5.633   7.723 -0.3497  0.1369 -0.0637
  680MOL0     C93758   7.308   5.577   7.748  0.1374  0.2132  0.1508
  680MOL0     C93759   7.190   5.633   7.691 -0.3469 -0.4323 -0.5666
  680MOL0     C93760   7.196   5.757   7.634  0.6343  0.5581  0.9086
  680MOL0     O93761   7.105   5.832   7.573  0.2644 -0.6788  0.0461
  680MOL0     C93762   6.977   5.775   7.564  0.8019  0.1989 -0.2621
  680MOL0     C93763   6.873   5.876   7.523  0.3156  0.2218 -0.3630
  680MOL0     C93764   6.924   5.965   7.412  0.2378 -0.3124  0.1240
  680MOL0     C93765   6.809   6.033   7.321  0.0239  0.0503  0.0044
  680MOL0     C93766   6.746   5.930   7.232 -0.0750  0.6734 -0.6321
  680MOL0     C93767   6.695   5.847   7.158  0.3126 -0.7580  0.0473
  680MOL0     C93768   7.323   5.807   7.608  0.3008  0.0227 -0.4671
  680MOL0     C93769   7.445   5.759   7.653  0.6406 -0.3434 -0.1679
  680MOL0     C93770   7.566   5.836   7.604  0.0839  1.1214 -0.3112
  680MOL0     H93771   7.512   5.450   8.126  1.1966 -3.4655  3.6524
  680MOL0     H93772   7.676   5.394   8.306  0.2139  0.6308  0.6663
  680MOL0     H93773   8.019   5.360   8.454  1.7560 -0.4557 -1.7863
  680MOL0     H93774   7.863   5.427   8.446  0.1394 -4.3164  0.0718
  680MOL0     H93775   7.965   5.634   8.339 -0.4971 -0.2543  0.8438
  680MOL0     H93776   8.019   5.596   8.498  1.8837  0.3396 -0.2392
  680MOL0     H93777   8.167   5.512   8.243  1.3129  0.7895 -0.4666
  680MOL0     H93778   8.192   5.668   8.319  2.7729 -0.6873 -1.3954
  680MOL0     H93779   8.246   5.545   8.528  2.9617  0.3943  1.0028
  680MOL0     H93780   8.273   5.402   8.433  2.2313 -0.0989 -0.6295
  680MOL0     H93781   8.472   5.528   8.473 -1.7894 -1.9724  0.6357
  680MOL0     H93782   8.414   5.680   8.415 -0.9277 -0.7427  1.5611
  680MOL0     H93783   8.455   5.431   8.252  3.2882  1.2907 -2.3719
  680MOL0     H93784   8.382   5.580   8.186 -0.7020  1.2016  1.7493
  680MOL0     H93785   8.665   5.564   8.301  0.7532 -0.3049 -0.7624
  680MOL0     H93786   8.576   5.715   8.242 -0.0865  0.0403 -1.7679
  680MOL0     H93787   8.640   5.470   8.084  0.0342 -0.3720  4.1305
  680MOL0     H93788   8.555   5.619   8.028  1.0778  1.8266  0.4745
  680MOL0     H93789   8.671   5.851   8.052 -0.7289  1.3109 -3.0513
  680MOL0     H93790   9.029   5.975   8.017 -0.3756 -0.7168  0.9607
  680MOL0     H93791   8.862   6.011   7.949 -1.9606 -1.9361 -1.9787
  680MOL0     H93792   9.087   5.869   7.823  2.1317  1.0825 -0.8237
  680MOL0     H93793   8.933   5.885   7.740 -0.4373  0.7094 -0.3685
  680MOL0     H93794   9.064   6.056   7.635  0.2074  0.2632 -0.6345
  680MOL0     H93795   8.956   6.132   7.757  0.2629 -1.2724 -0.1679
  680MOL0     H93796   9.198   6.226   7.758  3.2826 -1.1256 -0.0593
  680MOL0     H93797   9.137   6.172   7.913  0.8955 -1.4743  1.8266
  680MOL0     H93798   9.394   6.264   7.893  0.6388  0.4202 -0.7163
  680MOL0     H93799   9.575   6.387   7.981 -1.6088  1.8796  4.7805
  680MOL0     H93800   9.730   6.298   8.008  0.1808 -0.1180 -0.1038
  680MOL0     H93801   9.604   6.320   8.135  0.2238 -1.1351 -0.0086
  680MOL0     H93802   9.819   6.140   7.843 -0.9454  0.4117 -0.0211
  680MOL0     H93803   9.813   6.031   7.623  2.3653 -1.9202 -1.9124
  680MOL0     H93804  10.043   5.650   7.537  3.0000  0.6931  1.3776
  680MOL0     H93805  10.003   5.742   7.390  2.9173  3.2504  0.0333
  680MOL0     H93806  10.125   5.938   7.475 -1.4839 -1.3874 -1.5456
  680MOL0     H93807  10.186   5.837   7.604 -1.5630  2.1399  0.0676
  680MOL0     H93808  10.223   5.747   7.321  0.3880 -0.9762  1.1792
  680MOL0     H93809  10.279   5.672   7.473  0.1265 -1.6511 -0.8469
  680MOL0     H93810  10.425   5.852   7.518 -0.3185  0.2035  0.4479
  680MOL0     H93811  10.358   5.961   7.408  1.5057  0.3151  1.3383
  680MOL0     H93812  10.444   5.824   7.205  2.9352  1.6741 -0.4190
  680MOL0     H93813  10.557   5.895   7.306 -0.2183  0.1314 -4.5459
  680MOL0     H93814  10.548   5.655   7.443  1.4828  0.0880  0.0353
  680MOL0     H93815  10.635   5.674   7.294  0.3287  2.3240  1.7327
  680MOL0     H93816  10.453   5.593   7.156  0.9014  2.3765  0.2526
  680MOL0     H93817  10.350   5.559   7.292  0.8939  4.2198  4.7456
  680MOL0     H93818  10.621   5.427   7.218  3.4321 -0.5527  4.3561
  680MOL0     H93819  10.455   5.356   7.212 -0.1437  2.1828 -1.6930
  680MOL0     H93820  10.000   5.685   7.789 -3.2750 -1.8410 -1.2484
  680MOL0     H93821   9.965   5.778   8.002 -3.4513 -2.4409 -1.7712
  680MOL0     H93822   9.616   5.835   7.990 -1.9158 -1.0487 -0.2414
  680MOL0     H93823   9.393   5.838   7.892  1.7810 -1.3363 -0.0160
  680MOL0     H93824   8.000   5.451   8.015  0.2854 -1.0737  0.2156
  680MOL0     H93825   7.841   5.538   7.859  2.6283  0.9746  1.4762
  680MOL0     H93826   7.306   5.482   7.801  1.3474 -0.1963 -0.5020
  680MOL0     H93827   7.097   5.581   7.711 -1.0504  1.4351  1.4608
  680MOL0     H93828   6.985   5.687   7.499  2.0827 -1.2072  1.6795
  680MOL0     H93829   6.938   5.736   7.658  0.9667  0.4443 -0.0919
  680MOL0     H93830   6.837   5.946   7.599 -3.1404  0.7538 -2.2649
  680MOL0     H93831   6.788   5.817   7.488  0.8667 -1.9420  1.6937
  680MOL0     H93832   6.985   6.042   7.459 -2.1078  1.7827 -0.0455
  680MOL0     H93833   6.989   5.904   7.350 -0.0481  0.3490 -0.8427
  680MOL0     H93834   6.846   6.114   7.258  1.0198 -2.6324 -3.2043
  680MOL0     H93835   6.742   6.070   7.399  1.0559 -0.2767  1.0738
  680MOL0     H93836   6.647   5.773   7.097 -0.4166 -1.5054  1.5056
  680MOL0     H93837   7.329   5.887   7.536 -1.1597  0.2559 -0.3572
  680MOL0     H93838   7.543   5.943   7.593 -1.8449  0.7958  0.1812
  680MOL0     H93839   7.656   5.834   7.667 -0.1288  1.2237 -0.0053
  680MOL0     H93840   7.595   5.794   7.507 -1.5611  2.1528 -1.2969
  681MOL0     O93841   9.785   0.787   4.289 -0.0413  0.4401  0.2082
  681MOL0     C93842   9.710   0.824   4.377 -0.5315 -0.4187 -0.1419
  681MOL0     O93843   9.744   0.907   4.483 -0.4082  0.6140  0.3164
  681MOL0     C93844   9.866   0.967   4.502  0.1099 -0.8794 -0.8390
  681MOL0     C93845   9.951   0.998   4.402 -0.2980  0.4199 -0.0028
  681MOL0     C93846  10.078   1.049   4.436  0.6652  0.0581 -0.7257
  681MOL0     C93847  10.119   1.072   4.567  0.0885 -0.2693 -0.0922
  681MOL0     O93848  10.240   1.129   4.604 -0.1457  0.0318  0.0339
  681MOL0     C93849  10.307   1.234   4.525  0.1520  0.1271  1.0269
  681MOL0     C93850  10.419   1.300   4.595 -0.7349 -0.2342  1.3330
  681MOL0     C93851  10.485   1.429   4.536  0.3737  0.5079 -0.5334
  681MOL0     C93852  10.528   1.417   4.390  0.4497  0.3407 -0.1596
  681MOL0     C93853  10.629   1.509   4.326 -0.0769 -0.3322  0.1244
  681MOL0     C93854  10.599   1.658   4.341  0.5484 -0.5056 -0.4136
  681MOL0     C93855  10.712   1.748   4.300  0.6006  0.9842 -0.3395
  681MOL0     C93856  10.827   1.761   4.399  0.1593  0.7908 -0.3616
  681MOL0     N93857  10.962   1.726   4.330  0.0338 -0.2964  0.1546
  681MOL0     C93858  11.020   1.811   4.234 -0.2508 -0.8349  0.0405
  681MOL0     C93859  11.155   1.778   4.238  0.8795  0.1296  0.0418
  681MOL0     C93860  11.275   1.823   4.154  0.5418  0.3624 -0.5523
  681MOL0     C93861  11.333   1.954   4.216 -0.8339  0.2566 -0.4021
  681MOL0     C93862  11.382   2.044   4.110 -0.2742 -0.0037 -0.3935
  681MOL0     C93863  11.503   1.992   4.032 -0.7090 -0.2572  0.1035
  681MOL0     O93864  11.500   2.071   3.900  0.2326  0.3599 -0.2097
  681MOL0     C93865  11.619   2.075   3.829 -0.3121  0.7648 -0.6358
  681MOL0     C93866  11.694   1.962   3.809 -0.0316  0.2965  0.0400
  681MOL0     C93867  11.810   1.974   3.731 -0.0360 -0.8691 -0.3820
  681MOL0     C93868  11.898   1.854   3.701  0.7917 -0.7283 -0.0099
  681MOL0     C93869  11.848   2.106   3.673 -0.1042  0.7619 -0.2277
  681MOL0     C93870  11.974   2.109   3.582  0.2636 -0.2820 -0.3027
  681MOL0     O93871  11.969   2.051   3.458 -0.3609 -0.6582 -0.1777
  681MOL0     C93872  12.086   2.002   3.400 -0.6270 -0.4307  0.0605
  681MOL0     C93873  12.082   1.995   3.257 -0.5826 -0.3151  0.4175
  681MOL0     C93874  12.185   1.923   3.186  0.0004  0.8795 -1.7536
  681MOL0     C93875  12.291   1.859   3.257 -0.5466  0.2215  0.1266
  681MOL0     O93876  12.389   1.778   3.197  0.2753 -0.3829  0.1713
  681MOL0     C93877  12.422   1.806   3.059  0.5648  0.3739 -0.5881
  681MOL0     C93878  12.562   1.745   3.028 -0.2211  0.0726  0.0346
  681MOL0     C93879  12.559   1.594   3.023  0.8052  0.7821  0.7638
  681MOL0     C93880  12.687   1.527   2.990 -0.4907  0.4803 -0.1237
  681MOL0     C93881  12.782   1.536   3.106  0.5226  0.0765 -0.9674
  681MOL0     C93882  12.901   1.436   3.092  0.3537 -0.0659 -0.7291
  681MOL0     C93883  12.989   1.478   2.964  0.0288  1.0437 -0.5377
  681MOL0     C93884  13.076   1.364   2.913 -0.2035 -0.4224  0.2487
  681MOL0    Cl93885  12.961   1.238   2.842 -0.1477 -0.0997  0.0757
  681MOL0     C93886  12.295   1.867   3.392  0.0409 -0.0476 -0.1900
  681MOL0     C93887  12.193   1.939   3.466  0.6742  1.2226 -0.9489
  681MOL0     O93888  12.074   2.151   3.640  0.5722  0.4944 -0.7511
  681MOL0     C93889  11.760   2.207   3.679 -0.2802  0.1439 -0.1511
  681MOL0     C93890  11.649   2.195   3.761 -0.4276 -0.3266 -0.1194
  681MOL0     N93891  11.175   1.689   4.344 -0.2307 -0.1715  0.0824
  681MOL0     N93892  11.058   1.651   4.397  0.1359 -0.0665 -0.1629
  681MOL0     C93893  10.032   1.034   4.676  0.2309  0.5717  0.0715
  681MOL0     C93894   9.903   0.977   4.635 -0.2421 -1.3123  0.0244
  681MOL0     C93895   9.569   0.772   4.387  0.4458 -0.4481  0.2860
  681MOL0     C93896   9.478   0.831   4.484 -0.4717 -0.2834 -0.4152
  681MOL0     C93897   9.349   0.796   4.473  1.0848 -0.5500  0.1516
  681MOL0     C93898   9.288   0.700   4.385 -0.1602 -1.1072 -0.7132
  681MOL0     O93899   9.156   0.674   4.381 -0.8378  0.6085 -0.0606
  681MOL0     C93900   9.091   0.761   4.293 -0.2468  0.2912  0.1892
  681MOL0     C93901   8.959   0.802   4.354 -0.4676  0.2116 -0.0941
  681MOL0     C93902   8.967   0.914   4.451 -0.8386 -0.5366 -0.1111
  681MOL0     C93903   8.837   0.938   4.529  0.2641  0.4138 -0.2379
  681MOL0     C93904   8.814   1.075   4.597  0.5536  0.0639  0.1452
  681MOL0     C93905   8.799   1.181   4.658 -0.4521  0.0275 -0.2311
  681MOL0     C93906   9.376   0.644   4.289 -0.8445 -0.0703  0.7304
  681MOL0     C93907   9.514   0.685   4.292  0.6164  0.6427  0.4268
  681MOL0     C93908   9.595   0.603   4.188 -0.7622  0.6629 -0.3781
  681MOL0     H93909   9.936   0.976   4.297  2.8924  0.1707 -0.4782
  681MOL0     H93910  10.150   1.070   4.357  1.5155 -2.2497 -0.6378
  681MOL0     H93911  10.229   1.308   4.504 -1.9431 -1.3710  2.9608
  681MOL0     H93912  10.350   1.207   4.428 -0.3654 -0.1208  0.8626
  681MOL0     H93913  10.384   1.328   4.694 -1.1075  0.9548  0.8790
  681MOL0     H93914  10.495   1.223   4.610  0.2710 -0.4941 -3.5098
  681MOL0     H93915  10.404   1.502   4.532 -1.4545 -1.3784 -0.0156
  681MOL0     H93916  10.565   1.462   4.603 -0.2038 -2.1146  1.6542
  681MOL0     H93917  10.571   1.318   4.373 -0.1732 -0.4661  2.5321
  681MOL0     H93918  10.429   1.420   4.343 -0.7832 -0.2536  2.2478
  681MOL0     H93919  10.641   1.490   4.219  2.6299  0.2894  0.2556
  681MOL0     H93920  10.731   1.494   4.361 -0.1653 -0.8049  0.1850
  681MOL0     H93921  10.509   1.684   4.285 -0.2486  0.2438  1.1403
  681MOL0     H93922  10.568   1.686   4.442 -3.7064  0.1439 -1.7071
  681MOL0     H93923  10.670   1.847   4.279  0.9901  1.4040  0.7869
  681MOL0     H93924  10.736   1.713   4.199 -1.9110 -2.0160 -0.0394
  681MOL0     H93925  10.831   1.859   4.446  0.6870  0.4972  0.2301
  681MOL0     H93926  10.816   1.692   4.483 -1.8519  0.7663 -0.6043
  681MOL0     H93927  10.975   1.891   4.175  0.9450  0.3345  0.6743
  681MOL0     H93928  11.243   1.838   4.051  0.4413  3.2604 -0.1644
  681MOL0     H93929  11.354   1.747   4.153  1.7261  1.4576  1.6845
  681MOL0     H93930  11.249   2.011   4.256  0.9241  2.5312  0.3234
  681MOL0     H93931  11.412   1.954   4.293 -1.8286  1.2661  0.6600
  681MOL0     H93932  11.304   2.069   4.038 -1.0678  2.5505  1.2102
  681MOL0     H93933  11.403   2.135   4.167 -1.9769 -0.1422  0.5334
  681MOL0     H93934  11.588   2.018   4.096  2.3497  1.0841 -4.0806
  681MOL0     H93935  11.501   1.884   4.014  0.2215  0.0638 -2.3184
  681MOL0     H93936  11.666   1.865   3.850  1.1228  0.8402  2.2519
  681MOL0     H93937  11.885   1.819   3.598  1.4454  0.2136 -0.4246
  681MOL0     H93938  11.869   1.769   3.764 -0.6562 -1.0086 -0.9981
  681MOL0     H93939  12.003   1.877   3.719  0.4139  0.6704  0.5301
  681MOL0     H93940  12.001   2.035   3.197  1.5337  1.4443 -1.4852
  681MOL0     H93941  12.166   1.880   3.088 -2.2973 -1.2259 -0.4932
  681MOL0     H93942  12.341   1.768   2.996  0.4435 -0.5237  0.0917
  681MOL0     H93943  12.428   1.913   3.036  1.6198  0.2707 -0.8427
  681MOL0     H93944  12.597   1.789   2.934 -2.5028  1.7476 -0.1379
  681MOL0     H93945  12.632   1.780   3.104  2.1847  0.1243 -2.0960
  681MOL0     H93946  12.486   1.561   2.949 -0.6004  1.9561  1.5660
  681MOL0     H93947  12.525   1.557   3.121  1.4824 -0.5545  0.5150
  681MOL0     H93948  12.738   1.564   2.901  2.1905  1.2540  1.5722
  681MOL0     H93949  12.659   1.425   2.966 -0.1737  0.4482 -0.3724
  681MOL0     H93950  12.819   1.638   3.115 -1.5077  0.7904 -0.0661
  681MOL0     H93951  12.724   1.509   3.195 -0.8189  2.4118 -1.0563
  681MOL0     H93952  12.861   1.334   3.090  0.0348  0.0183  0.4393
  681MOL0     H93953  12.958   1.449   3.184 -2.7823 -1.0930  1.5288
  681MOL0     H93954  13.054   1.561   2.995  1.1957 -0.3311  0.8397
  681MOL0     H93955  12.924   1.508   2.882 -0.5421 -2.5203 -1.5206
  681MOL0     H93956  13.124   1.311   2.997 -2.7661  0.1009  2.1754
  681MOL0     H93957  13.148   1.398   2.839 -1.1687  3.4693  0.8823
  681MOL0     H93958  12.375   1.811   3.440 -0.3447  0.7302  1.4436
  681MOL0     H93959  12.200   1.923   3.573  0.2273 -2.3078 -1.3143
  681MOL0     H93960  11.780   2.296   3.620 -0.3882 -0.0060 -0.4120
  681MOL0     H93961  11.570   2.268   3.774 -1.9270 -1.9790  0.4489
  681MOL0     H93962  10.056   1.040   4.782  0.3544 -0.3601  0.1041
  681MOL0     H93963   9.827   0.942   4.704 -0.5996 -0.7639 -0.0930
  681MOL0     H93964   9.508   0.901   4.560 -1.6963 -0.3779  0.1786
  681MOL0     H93965   9.280   0.848   4.539  0.4536  0.9997 -1.6296
  681MOL0     H93966   9.147   0.851   4.268 -1.6923  1.6250  1.5397
  681MOL0     H93967   9.060   0.706   4.204  1.7653 -0.7348  0.0705
  681MOL0     H93968   8.913   0.707   4.382 -0.7853 -0.1966 -1.8744
  681MOL0     H93969   8.895   0.847   4.277  1.8708  2.4053 -0.9112
  681MOL0     H93970   9.052   0.908   4.520 -1.0531 -2.0818  0.0491
  681MOL0     H93971   8.978   1.010   4.400  1.1221  0.1120  1.3982
  681MOL0     H93972   8.845   0.856   4.602 -3.5310  1.3127  1.4548
  681MOL0     H93973   8.752   0.926   4.461  0.6775  2.9509 -1.3153
  681MOL0     H93974   8.765   1.269   4.708 -0.5874 -0.0959 -0.1057
  681MOL0     H93975   9.347   0.573   4.212  2.8734 -0.5585 -0.3818
  681MOL0     H93976   9.625   0.669   4.106  2.8497  0.3683  0.5228
  681MOL0     H93977   9.685   0.561   4.233 -0.4697  1.3437 -0.3035
  681MOL0     H93978   9.540   0.518   4.149  1.3677 -1.1963  0.4657
  682MOL0     O93979   1.069   9.712   4.438 -0.4702  0.0659 -0.4409
  682MOL0     C93980   1.009   9.603   4.422 -0.0070 -0.1716 -0.4979
  682MOL0     O93981   1.079   9.482   4.396 -0.2389 -0.0357 -0.2448
  682MOL0     C93982   1.209   9.488   4.414  0.2924 -0.0485 -0.0693
  682MOL0     C93983   1.297   9.518   4.307  0.4131  0.1957 -0.7961
  682MOL0     C93984   1.433   9.532   4.331 -1.2953  0.8981 -0.1188
  682MOL0     C93985   1.487   9.506   4.455 -0.6574 -0.5397  0.3411
  682MOL0     O93986   1.627   9.504   4.477  0.0049  0.3068  0.0076
  682MOL0     C93987   1.720   9.596   4.421  0.1459 -0.6952  0.5842
  682MOL0     C93988   1.835   9.600   4.513 -0.3287 -0.9402 -0.4229
  682MOL0     C93989   1.946   9.683   4.439  0.1965  0.5810 -0.9441
  682MOL0     C93990   2.075   9.680   4.531  0.2021  0.0354  0.2955
  682MOL0     C93991   2.178   9.768   4.462 -0.2924  0.3404 -0.2068
  682MOL0     C93992   2.311   9.750   4.542  0.0402  1.5073  0.1378
  682MOL0     C93993   2.421   9.836   4.488  0.2621  0.0631  0.1103
  682MOL0     C93994   2.403   9.984   4.534 -0.9242 -0.5787  1.2559
  682MOL0     N93995   2.522  10.055   4.493  1.2915  0.6382  0.0141
  682MOL0     C93996   2.538  10.114   4.372  0.3641  0.1865 -0.8795
  682MOL0     C93997   2.671  10.132   4.362 -0.6158  0.9418 -0.0950
  682MOL0     C93998   2.743  10.204   4.253  0.7708  1.0124 -0.6544
  682MOL0     C93999   2.887  10.250   4.297 -0.4631 -0.0870  0.3156
  682MOL0     C94000   2.995  10.136   4.266  0.9748 -0.1613  0.1891
  682MOL0     C94001   3.104  10.147   4.377  0.8995 -0.0926  0.3068
  682MOL0     O94002   3.177  10.021   4.376 -0.4414  0.3845 -1.0017
  682MOL0     C94003   3.276   9.991   4.281 -0.1138  0.5314 -0.8801
  682MOL0     C94004   3.356   9.879   4.296 -0.1339 -0.8728 -0.0982
  682MOL0     C94005   3.453   9.846   4.205 -0.5353 -0.3674  0.5957
  682MOL0     C94006   3.505   9.710   4.239  0.3393 -0.6710  0.0717
  682MOL0     C94007   3.477   9.927   4.087  0.2221  0.1014  0.3099
  682MOL0     C94008   3.573   9.891   3.984  0.0343 -0.0521  0.6850
  682MOL0     O94009   3.654   9.998   3.935  0.4561  0.6379 -0.2632
  682MOL0     C94010   3.716   9.979   3.816  0.5170 -0.4511 -1.0153
  682MOL0     C94011   3.639   9.954   3.703  0.2253 -0.2331 -0.0165
  682MOL0     C94012   3.700   9.926   3.583 -0.4277  0.2510 -0.3068
  682MOL0     C94013   3.838   9.932   3.576 -0.7667  0.4007  0.0922
  682MOL0     O94014   3.890   9.899   3.453  0.1294  0.6313 -0.5273
  682MOL0     C94015   4.029   9.855   3.449 -0.2004 -0.5232 -0.4285
  682MOL0     C94016   4.045   9.772   3.312 -0.0833  0.6967 -0.7289
  682MOL0     C94017   4.184   9.719   3.299  0.1655  0.2980  0.5860
  682MOL0     C94018   4.299   9.820   3.292 -0.2817 -1.1370  0.1438
  682MOL0     C94019   4.441   9.760   3.285 -0.3252 -0.1146 -0.1489
  682MOL0     C94020   4.482   9.710   3.421 -0.1253  0.0968  0.9401
  682MOL0     C94021   4.628   9.667   3.443  0.2547  0.0671 -0.5360
  682MOL0     C94022   4.642   9.614   3.586  0.6516 -0.0176  0.6739
  682MOL0    Cl94023   4.537   9.473   3.603 -0.1861 -0.0486 -0.1419
  682MOL0     C94024   3.914   9.964   3.690  0.1430  0.6042  0.4592
  682MOL0     C94025   3.854   9.986   3.812  1.0203 -0.9610 -0.4952
  682MOL0     O94026   3.564   9.779   3.942  0.4596  0.1269  0.4791
  682MOL0     C94027   3.397  10.039   4.072  0.5720  0.4579  0.0189
  682MOL0     C94028   3.303  10.073   4.173 -0.5607  0.9889 -0.0705
  682MOL0     N94029   2.733  10.067   4.468 -0.2739 -0.6226  0.4654
  682MOL0     N94030   2.643  10.025   4.554 -0.1748  0.3122  0.9622
  682MOL0     C94031   1.391   9.485   4.563 -0.0234  0.0715  0.2341
  682MOL0     C94032   1.259   9.478   4.541 -0.8493 -0.0675 -0.0237
  682MOL0     C94033   0.854   9.595   4.419 -0.3825 -0.4128  0.7216
  682MOL0     C94034   0.808   9.475   4.369  0.0265  0.0644 -0.3928
  682MOL0     C94035   0.677   9.456   4.351  0.9973 -0.1434  0.4538
  682MOL0     C94036   0.585   9.556   4.385 -0.6051  0.3598  0.4042
  682MOL0     O94037   0.454   9.528   4.377  0.1462 -0.3670  0.2070
  682MOL0     C94038   0.377   9.613   4.284 -0.4606  0.3213  0.6702
  682MOL0     C94039   0.223   9.604   4.306  0.2684  0.1984 -0.8268
  682MOL0     C94040   0.160   9.667   4.433  0.6308  0.2304 -0.1744
  682MOL0     C94041   0.083   9.560   4.516  0.2552 -0.2519 -1.0134
  682MOL0     C94042  -0.023   9.496   4.430  0.0064 -0.7402 -0.1077
  682MOL0     C94043  -0.108   9.454   4.347 -0.4957 -0.3017 -0.5213
  682MOL0     C94044   0.628   9.678   4.447 -0.2589  0.6680 -0.2097
  682MOL0     C94045   0.763   9.700   4.454 -0.0633 -0.7352 -0.0893
  682MOL0     C94046   0.812   9.844   4.483  0.2844 -0.1201  0.3293
  682MOL0     H94047   1.258   9.534   4.207  0.6545  0.3919 -0.8599
  682MOL0     H94048   1.498   9.565   4.250  1.2497 -2.5461  0.2972
  682MOL0     H94049   1.677   9.695   4.407 -0.8558 -1.4434 -2.5446
  682MOL0     H94050   1.746   9.551   4.325 -0.4836 -2.9448  1.3954
  682MOL0     H94051   1.808   9.643   4.610 -0.1843 -2.0187  0.1095
  682MOL0     H94052   1.866   9.496   4.531  1.4644 -0.2621  0.7216
  682MOL0     H94053   1.977   9.646   4.340  2.0479 -2.0830  0.5059
  682MOL0     H94054   1.910   9.786   4.429 -1.4390  0.2379  0.7767
  682MOL0     H94055   2.052   9.713   4.633  0.5625 -1.0659  0.7527
  682MOL0     H94056   2.107   9.575   4.537 -0.1618 -0.1146 -0.2254
  682MOL0     H94057   2.130   9.865   4.473 -0.4221  0.3536 -0.8521
  682MOL0     H94058   2.191   9.748   4.355 -1.7735  0.5613 -0.4474
  682MOL0     H94059   2.291   9.769   4.648  0.2331 -2.4359  1.0323
  682MOL0     H94060   2.346   9.648   4.525 -0.0125  1.7699 -1.7701
  682MOL0     H94061   2.431   9.833   4.379 -0.6821 -1.1331  0.0271
  682MOL0     H94062   2.510   9.791   4.532 -0.7491 -3.1529 -0.8190
  682MOL0     H94063   2.313  10.029   4.492  0.7018  2.1294  0.3927
  682MOL0     H94064   2.393   9.984   4.643  2.7374  1.4304  1.7723
  682MOL0     H94065   2.467  10.133   4.292  1.1937  0.6272 -1.5267
  682MOL0     H94066   2.686  10.293   4.226 -4.4474 -2.4199 -2.3423
  682MOL0     H94067   2.741  10.139   4.165  1.9107 -1.5936  1.1177
  682MOL0     H94068   2.919  10.338   4.239  1.1602  0.1011  1.4261
  682MOL0     H94069   2.895  10.275   4.404  0.9507  2.1996 -0.2436
  682MOL0     H94070   2.938  10.043   4.259  0.6165  0.1593 -1.5433
  682MOL0     H94071   3.036  10.155   4.167  4.3902 -0.2476  1.4552
  682MOL0     H94072   3.162  10.237   4.359  3.7073 -1.5274  1.4311
  682MOL0     H94073   3.067  10.152   4.480 -1.8112 -4.0263 -0.2391
  682MOL0     H94074   3.334   9.818   4.383  2.1033  0.1948  1.3252
  682MOL0     H94075   3.432   9.631   4.225  0.8146 -0.8782 -1.4418
  682MOL0     H94076   3.531   9.712   4.345 -0.9669 -1.6218  0.4241
  682MOL0     H94077   3.598   9.689   4.184  0.2954 -2.2204  0.5742
  682MOL0     H94078   3.531   9.950   3.710  0.3802 -2.5563  2.0735
  682MOL0     H94079   3.645   9.910   3.491  1.1423 -1.9754 -0.9324
  682MOL0     H94080   4.089   9.946   3.444 -1.0697  0.1398  0.7018
  682MOL0     H94081   4.055   9.792   3.535 -0.7733  1.9827  1.6903
  682MOL0     H94082   3.981   9.684   3.303 -0.0920  0.7127 -0.8202
  682MOL0     H94083   4.025   9.829   3.221  2.6575 -1.8516 -3.1586
  682MOL0     H94084   4.185   9.664   3.205  1.4289  0.9115  0.2208
  682MOL0     H94085   4.202   9.646   3.378 -0.5813 -1.2601 -0.6368
  682MOL0     H94086   4.300   9.885   3.380 -0.6654 -0.5674 -0.2618
  682MOL0     H94087   4.277   9.883   3.205 -1.7729 -2.8215 -0.7744
  682MOL0     H94088   4.445   9.677   3.213  0.8823  0.0648 -0.3072
  682MOL0     H94089   4.514   9.835   3.256  3.2431 -3.0702  0.4797
  682MOL0     H94090   4.410   9.633   3.449 -1.3951  0.9536  0.1225
  682MOL0     H94091   4.456   9.790   3.490  0.3900  2.0768 -1.0528
  682MOL0     H94092   4.705   9.739   3.416 -1.5415  1.5146 -2.1219
  682MOL0     H94093   4.650   9.586   3.373  0.5905  0.1996 -0.5830
  682MOL0     H94094   4.618   9.680   3.670  1.3454  0.8713  0.1968
  682MOL0     H94095   4.746   9.584   3.601  1.0997  0.8192 -0.5664
  682MOL0     H94096   4.022   9.958   3.685  0.0680 -0.4610 -0.5398
  682MOL0     H94097   3.909  10.011   3.902 -0.5568 -0.5806  0.3964
  682MOL0     H94098   3.406  10.095   3.980  3.8223 -0.5526 -0.4227
  682MOL0     H94099   3.239  10.155   4.143 -2.5337 -0.1009  0.9342
  682MOL0     H94100   1.428   9.471   4.664  0.2676 -0.1261  0.1057
  682MOL0     H94101   1.202   9.469   4.633  0.4699  0.7994  0.9176
  682MOL0     H94102   0.873   9.393   4.340  3.6911  2.0797  1.5546
  682MOL0     H94103   0.645   9.363   4.307 -0.5714  0.3930  0.4179
  682MOL0     H94104   0.407   9.718   4.293  0.8423  0.0681 -0.3109
  682MOL0     H94105   0.406   9.577   4.185 -1.4846 -0.1274  0.5324
  682MOL0     H94106   0.190   9.501   4.291  0.2737  0.0539  0.0979
  682MOL0     H94107   0.175   9.656   4.223 -1.4879 -1.3315 -0.8347
  682MOL0     H94108   0.241   9.705   4.496 -0.2542  1.9910 -0.0251
  682MOL0     H94109   0.088   9.746   4.407 -3.1945 -2.1426  2.1859
  682MOL0     H94110   0.035   9.604   4.604 -0.5074 -2.5948 -0.1731
  682MOL0     H94111   0.153   9.482   4.547  0.9870 -0.5223 -3.1669
  682MOL0     H94112  -0.194   9.423   4.292  0.2239  0.7841 -2.3390
  682MOL0     H94113   0.565   9.760   4.478 -0.9338  0.0267  0.1307
  682MOL0     H94114   0.874   9.836   4.573  0.0750 -4.9548  0.2757
  682MOL0     H94115   0.867   9.885   4.398  0.0768 -1.1293 -0.3005
  682MOL0     H94116   0.725   9.906   4.505 -1.4286 -3.0502  2.4189
  683MOL0     O94117   7.424   1.454   4.433 -0.5772  0.7695 -0.7336
  683MOL0     C94118   7.405   1.569   4.481  0.0527 -1.2790 -0.0226
  683MOL0     O94119   7.508   1.647   4.530 -0.5456 -0.5342 -0.3227
  683MOL0     C94120   7.631   1.599   4.523 -0.7648 -0.1836 -0.3205
  683MOL0     C94121   7.679   1.476   4.569  0.3428 -0.2908  0.1874
  683MOL0     C94122   7.812   1.432   4.556  0.4831  1.1565 -0.4747
  683MOL0     C94123   7.906   1.517   4.498  0.1641  0.4472 -0.6498
  683MOL0     O94124   8.035   1.482   4.476 -0.4714  0.0559  0.0663
  683MOL0     C94125   8.091   1.395   4.566 -0.3232 -0.3500 -0.1766
  683MOL0     C94126   8.238   1.391   4.533  0.0916  0.8342  0.6546
  683MOL0     C94127   8.306   1.532   4.545  1.5880  0.1941 -0.8832
  683MOL0     C94128   8.454   1.506   4.538  0.5213 -0.9426 -0.4743
  683MOL0     C94129   8.526   1.640   4.559  0.1348  0.0265  0.5027
  683MOL0     C94130   8.662   1.617   4.508 -1.2641  0.6749 -0.2474
  683MOL0     C94131   8.754   1.743   4.489  0.4933  0.4194 -0.1121
  683MOL0     C94132   8.900   1.709   4.475  1.3784  0.1325 -0.3125
  683MOL0     N94133   8.959   1.673   4.609  0.2938 -0.4976 -0.2286
  683MOL0     C94134   8.976   1.770   4.711  0.6071 -0.0261  1.0272
  683MOL0     C94135   8.999   1.691   4.821  0.2248 -0.2856 -0.5791
  683MOL0     C94136   9.017   1.738   4.969  0.6446  0.1516  0.2399
  683MOL0     C94137   9.168   1.734   5.008 -0.4999 -0.2383  0.3106
  683MOL0     C94138   9.188   1.803   5.145  0.8211  0.3583 -0.1794
  683MOL0     C94139   9.163   1.714   5.269 -0.1365  1.3999  0.4333
  683MOL0     O94140   9.215   1.579   5.264  0.4426  0.0017 -0.2870
  683MOL0     C94141   9.201   1.496   5.373 -0.1311  1.2103  0.1664
  683MOL0     C94142   9.184   1.541   5.500  0.2989  0.0700  0.5630
  683MOL0     C94143   9.176   1.458   5.613  0.2558  0.0172  0.8976
  683MOL0     C94144   9.146   1.535   5.739  0.0814  0.3746  0.4590
  683MOL0     C94145   9.197   1.323   5.599  0.0780  0.5858 -0.3447
  683MOL0     C94146   9.216   1.232   5.708  0.6535  0.1815  0.5255
  683MOL0     O94147   9.181   1.098   5.674  0.1526  0.0370  0.5594
  683MOL0     C94148   9.231   1.002   5.751 -0.4672 -0.7768 -0.6772
  683MOL0     C94149   9.373   0.986   5.775  0.8302 -0.4272 -0.1869
  683MOL0     C94150   9.422   0.886   5.854  1.1021  0.4583 -0.1878
  683MOL0     C94151   9.335   0.789   5.908 -0.5663  1.1997  0.1333
  683MOL0     O94152   9.394   0.703   5.997  0.0611 -0.3395  0.0273
  683MOL0     C94153   9.302   0.643   6.091  0.2836  0.9237 -0.1309
  683MOL0     C94154   9.374   0.611   6.223  0.9644  0.6017  0.0912
  683MOL0     C94155   9.431   0.737   6.273 -0.0192 -0.7585  0.0221
  683MOL0     C94156   9.546   0.704   6.365 -0.1683  0.0426 -0.5714
  683MOL0     C94157   9.683   0.709   6.297 -0.7910  0.1569  0.7241
  683MOL0     C94158   9.803   0.676   6.383  0.1968  0.1917 -0.1610
  683MOL0     C94159   9.825   0.773   6.505  1.2037  0.3239 -0.1907
  683MOL0     C94160   9.973   0.773   6.547 -0.1362  0.1007  0.2958
  683MOL0    Cl94161  10.028   0.599   6.563 -0.0298 -0.5476 -0.5665
  683MOL0     C94162   9.199   0.803   5.872 -0.7421  0.7314  0.6119
  683MOL0     C94163   9.145   0.904   5.794 -0.3639 -0.3750  0.5891
  683MOL0     O94164   9.269   1.269   5.808  0.5202  0.3064 -0.2010
  683MOL0     C94165   9.219   1.270   5.470 -0.5626  0.4126  0.1785
  683MOL0     C94166   9.227   1.352   5.360  0.3737 -0.2897  0.3871
  683MOL0     N94167   9.014   1.560   4.791  0.4639 -0.5595  0.4463
  683MOL0     N94168   8.982   1.550   4.665 -0.0627  0.1378 -0.2511
  683MOL0     C94169   7.861   1.642   4.457  0.1796  0.9337  0.2953
  683MOL0     C94170   7.729   1.685   4.476 -0.5757 -0.5598  0.4454
  683MOL0     C94171   7.267   1.621   4.499  0.7028 -0.3319 -0.4856
  683MOL0     C94172   7.247   1.747   4.574  0.5645  0.5482  0.5006
  683MOL0     C94173   7.121   1.794   4.598  0.6917 -0.5118  0.0362
  683MOL0     C94174   7.015   1.723   4.535  0.3241 -0.6315  0.2566
  683MOL0     O94175   6.900   1.783   4.577  0.1576  0.7200  0.4299
  683MOL0     C94176   6.775   1.738   4.517  0.1819 -0.7326 -0.1734
  683MOL0     C94177   6.656   1.821   4.565 -0.3623  0.6869  0.0603
  683MOL0     C94178   6.643   1.800   4.716  0.4644  1.1543 -0.1975
  683MOL0     C94179   6.527   1.885   4.776 -0.2307  0.1625  0.5382
  683MOL0     C94180   6.393   1.844   4.723  0.4061  0.3964 -0.1731
  683MOL0     C94181   6.281   1.826   4.678 -0.8216  0.4307 -0.1699
  683MOL0     C94182   7.033   1.620   4.451 -0.0789 -0.0107  0.3588
  683MOL0     C94183   7.160   1.562   4.429 -0.8924  0.5031  0.6221
  683MOL0     C94184   7.177   1.435   4.349 -0.3854  0.1346 -0.7279
  683MOL0     H94185   7.599   1.412   4.604  0.4113 -1.6197 -1.9300
  683MOL0     H94186   7.830   1.327   4.576 -0.4589  0.8362 -1.2353
  683MOL0     H94187   8.040   1.298   4.563 -2.0083  0.4883  0.4202
  683MOL0     H94188   8.085   1.448   4.662  2.8386  1.4946 -0.8203
  683MOL0     H94189   8.290   1.314   4.591 -0.3921 -0.1976 -0.2309
  683MOL0     H94190   8.248   1.361   4.428 -0.6554 -2.1849  1.3396
  683MOL0     H94191   8.270   1.596   4.464 -0.0635 -1.0653 -1.1996
  683MOL0     H94192   8.284   1.575   4.643 -0.3319 -0.9070 -0.7885
  683MOL0     H94193   8.484   1.428   4.608 -1.2842  0.5983  2.2215
  683MOL0     H94194   8.472   1.459   4.441  1.3810 -1.3952 -0.1070
  683MOL0     H94195   8.524   1.669   4.664 -0.1433  1.1018  0.2157
  683MOL0     H94196   8.474   1.710   4.492 -2.5462 -4.2834 -2.4275
  683MOL0     H94197   8.716   1.554   4.579 -1.5490  0.2024 -0.4482
  683MOL0     H94198   8.659   1.562   4.414  2.3950  2.9830 -1.9581
  683MOL0     H94199   8.737   1.824   4.561  0.3541 -0.8473  1.3179
  683MOL0     H94200   8.733   1.794   4.394  1.5168 -0.3117 -0.7483
  683MOL0     H94201   8.911   1.624   4.407  1.7521  0.0411 -0.1447
  683MOL0     H94202   8.940   1.800   4.429 -0.9901  1.4409  0.0542
  683MOL0     H94203   8.967   1.878   4.705  2.5626  0.1058 -3.0076
  683MOL0     H94204   8.954   1.679   5.036 -0.1445 -0.1172 -0.7097
  683MOL0     H94205   8.984   1.842   4.969 -1.1245 -0.3217 -2.1003
  683MOL0     H94206   9.185   1.626   5.010  1.1894 -0.0122 -0.3099
  683MOL0     H94207   9.234   1.781   4.934  1.2735  1.1236  2.5948
  683MOL0     H94208   9.289   1.843   5.143  0.6250  0.8236 -1.6843
  683MOL0     H94209   9.117   1.885   5.162 -1.7294 -1.7509  0.0356
  683MOL0     H94210   9.212   1.760   5.356  0.1098  0.0498  1.0351
  683MOL0     H94211   9.058   1.706   5.296  0.2211 -0.3018  1.4927
  683MOL0     H94212   9.179   1.646   5.525 -1.5361  0.2747 -0.4982
  683MOL0     H94213   9.120   1.640   5.725  3.2639  1.1804  0.0369
  683MOL0     H94214   9.236   1.534   5.801 -0.4589 -0.4773  1.2821
  683MOL0     H94215   9.064   1.490   5.797 -1.1753  1.9342 -0.0495
  683MOL0     H94216   9.441   1.062   5.735 -0.9356  2.4655  1.8875
  683MOL0     H94217   9.526   0.897   5.882  1.1739 -0.1337 -0.2109
  683MOL0     H94218   9.221   0.712   6.119 -2.1185 -1.0859 -1.6828
  683MOL0     H94219   9.260   0.549   6.055  1.9548  0.7520 -1.7707
  683MOL0     H94220   9.309   0.562   6.296  0.9347 -0.8088 -0.8464
  683MOL0     H94221   9.453   0.537   6.205  0.8976  0.4274  0.4885
  683MOL0     H94222   9.362   0.804   6.325  2.6892  2.2674  0.0347
  683MOL0     H94223   9.469   0.803   6.195  0.9536  0.4622  1.4808
  683MOL0     H94224   9.526   0.606   6.408  0.7793 -0.8004 -1.9681
  683MOL0     H94225   9.551   0.780   6.444 -2.6068  0.3294 -0.6267
  683MOL0     H94226   9.677   0.629   6.223 -0.4276 -0.0275  0.8915
  683MOL0     H94227   9.699   0.804   6.245  0.5483  0.1985  1.1576
  683MOL0     H94228   9.891   0.672   6.318  0.7842 -2.7208  0.6822
  683MOL0     H94229   9.796   0.574   6.422 -0.4458  0.3270  0.0934
  683MOL0     H94230   9.766   0.740   6.592  0.5582 -1.1031 -1.1215
  683MOL0     H94231   9.793   0.871   6.469 -1.7702 -1.2978 -2.4125
  683MOL0     H94232   9.973   0.827   6.642 -1.5787  0.9253 -0.1414
  683MOL0     H94233  10.037   0.838   6.486 -0.0875  0.4438  0.7086
  683MOL0     H94234   9.141   0.714   5.895 -0.8794 -0.1576 -2.6595
  683MOL0     H94235   9.046   0.904   5.748 -0.0809 -1.4593 -0.0636
  683MOL0     H94236   9.229   1.164   5.447  1.9791 -0.1301  3.1414
  683MOL0     H94237   9.245   1.326   5.256  0.2090  4.0952 -0.9817
  683MOL0     H94238   7.943   1.702   4.419 -0.8228  1.7586 -0.6120
  683MOL0     H94239   7.715   1.790   4.450 -1.0441 -0.5192  0.8385
  683MOL0     H94240   7.334   1.804   4.605  2.4333  0.3239 -3.5581
  683MOL0     H94241   7.102   1.877   4.665 -0.0878 -0.9795  0.4104
  683MOL0     H94242   6.774   1.749   4.408 -0.3510  1.8285  0.0326
  683MOL0     H94243   6.751   1.633   4.536  0.9724 -0.8869  0.0286
  683MOL0     H94244   6.563   1.796   4.513 -0.4103  3.6370 -1.4748
  683MOL0     H94245   6.664   1.925   4.531  1.1863  0.7801  0.6387
  683MOL0     H94246   6.629   1.692   4.727 -0.4362  1.3769  1.0658
  683MOL0     H94247   6.736   1.824   4.770 -0.0609 -0.0757  1.3208
  683MOL0     H94248   6.544   1.993   4.765 -2.4837  0.5265  0.1461
  683MOL0     H94249   6.534   1.862   4.883  1.1838 -0.8295  0.2547
  683MOL0     H94250   6.193   1.799   4.624  0.5483 -2.8289 -1.0198
  683MOL0     H94251   6.949   1.567   4.407  0.4735 -0.6433  0.0399
  683MOL0     H94252   7.089   1.419   4.286 -0.7575 -4.1569  0.5882
  683MOL0     H94253   7.264   1.432   4.283 -0.1754  1.5694 -0.5601
  683MOL0     H94254   7.184   1.355   4.423  0.0855  1.1421  0.3632
  684MOL0     O94255   7.875   1.583   0.599  0.1701  0.2002  0.0062
  684MOL0     C94256   7.828   1.467   0.619  0.8438  1.0647  0.6016
  684MOL0     O94257   7.898   1.350   0.631 -0.0427 -0.4049 -0.1738
  684MOL0     C94258   8.022   1.342   0.588 -1.8618  0.4137  0.4661
  684MOL0     C94259   8.067   1.379   0.458  0.3971 -0.5619 -0.2641
  684MOL0     C94260   8.199   1.385   0.422  0.7305  0.1149  0.6596
  684MOL0     C94261   8.295   1.340   0.509  0.6246  0.4343  0.6974
  684MOL0     O94262   8.418   1.331   0.444 -0.5583 -0.1215 -0.9535
  684MOL0     C94263   8.511   1.242   0.504 -0.5130  0.8658 -0.0162
  684MOL0     C94264   8.595   1.314   0.616 -0.5081  0.3422  0.3386
  684MOL0     C94265   8.693   1.417   0.553 -0.8083 -0.8512 -0.7141
  684MOL0     C94266   8.784   1.487   0.659  0.7643  0.6232  0.8600
  684MOL0     C94267   8.789   1.643   0.642  0.4055 -0.4522  1.1232
  684MOL0     C94268   8.910   1.713   0.690 -0.2260  0.7284 -0.3857
  684MOL0     C94269   8.924   1.714   0.842 -0.1424 -0.3974  0.4285
  684MOL0     C94270   8.995   1.583   0.893  0.2890 -0.1407  0.0294
  684MOL0     N94271   9.147   1.608   0.901 -0.3203  0.0639 -0.1673
  684MOL0     C94272   9.230   1.698   0.851  0.3186 -0.1410 -0.5111
  684MOL0     C94273   9.354   1.673   0.904  0.4566 -0.6371 -0.5118
  684MOL0     C94274   9.468   1.765   0.874 -0.3667  0.0773  0.7716
  684MOL0     C94275   9.602   1.711   0.931  0.5062 -0.3225 -0.1260
  684MOL0     C94276   9.718   1.800   0.896 -0.2297  0.3223 -0.2432
  684MOL0     C94277   9.847   1.754   0.953 -0.8818  0.5494  0.1891
  684MOL0     O94278   9.866   1.794   1.092  0.1149 -0.0857 -0.2078
  684MOL0     C94279   9.993   1.844   1.119  0.6821  0.0785  0.2257
  684MOL0     C94280   9.999   1.933   1.223  0.4266 -0.5405 -0.4245
  684MOL0     C94281  10.113   1.990   1.278  0.0681 -0.4598  0.2519
  684MOL0     C94282  10.087   2.094   1.387 -0.1965 -0.4122 -0.1959
  684MOL0     C94283  10.237   1.949   1.224  0.3613  0.5103  0.6546
  684MOL0     C94284  10.376   1.987   1.266  0.0330 -1.0097 -0.9367
  684MOL0     O94285  10.391   2.030   1.402  0.0145  0.1208  0.0669
  684MOL0     C94286  10.512   2.036   1.460 -1.7002  0.4727 -0.0955
  684MOL0     C94287  10.574   2.148   1.510  0.1173 -1.2283 -0.0451
  684MOL0     C94288  10.693   2.143   1.581  0.0241 -0.1633 -0.6002
  684MOL0     C94289  10.769   2.027   1.588  0.1459  0.1262 -0.0726
  684MOL0     O94290  10.908   2.058   1.613 -0.5119  0.4297  0.1419
  684MOL0     C94291  10.982   1.949   1.664 -0.2022 -0.2960  0.6872
  684MOL0     C94292  11.133   1.992   1.696 -0.4112 -0.3095 -0.0598
  684MOL0     C94293  11.222   2.025   1.571 -0.4036 -0.7233 -0.0582
  684MOL0     C94294  11.378   2.043   1.593 -0.1856 -0.3326 -0.7360
  684MOL0     C94295  11.445   2.082   1.464 -0.5838 -0.4831 -0.2610
  684MOL0     C94296  11.590   2.099   1.516 -0.2631  0.1615 -1.2140
  684MOL0     C94297  11.684   2.098   1.400 -0.5020  0.9608  0.0720
  684MOL0     C94298  11.826   2.115   1.451 -0.3547 -1.1825 -1.1622
  684MOL0    Cl94299  11.910   2.198   1.314 -0.2119 -0.2591  0.1084
  684MOL0     C94300  10.721   1.916   1.522 -0.2089 -0.4018 -0.1291
  684MOL0     C94301  10.589   1.920   1.464 -0.4586 -0.0738 -0.5228
  684MOL0     O94302  10.471   1.975   1.189 -0.3986 -0.4419  0.5384
  684MOL0     C94303  10.232   1.847   1.121 -0.2859  0.5501 -0.9792
  684MOL0     C94304  10.109   1.797   1.071 -0.3757 -0.1791  0.1149
  684MOL0     N94305   9.350   1.568   0.986  0.0569  0.0705 -0.4359
  684MOL0     N94306   9.227   1.527   0.980  0.4225  0.4742 -0.1495
  684MOL0     C94307   8.258   1.302   0.643  0.2217 -0.1747  0.7603
  684MOL0     C94308   8.120   1.307   0.679 -0.2692 -0.6710 -0.5358
  684MOL0     C94309   7.681   1.458   0.623  1.1771  0.1393  0.5766
  684MOL0     C94310   7.630   1.356   0.707  0.2355  1.1359  0.0280
  684MOL0     C94311   7.496   1.350   0.728  0.5105  0.7174 -0.8660
  684MOL0     C94312   7.406   1.440   0.679 -0.5432  0.6423 -0.3669
  684MOL0     O94313   7.279   1.409   0.722  1.0133 -0.1481 -0.2844
  684MOL0     C94314   7.184   1.510   0.688  0.8715 -0.4902 -0.1740
  684MOL0     C94315   7.198   1.654   0.748  0.0740 -1.0682  0.5618
  684MOL0     C94316   7.146   1.659   0.886  0.9160  0.1662 -0.1788
  684MOL0     C94317   7.159   1.811   0.934  0.3914  0.1379 -0.2246
  684MOL0     C94318   7.080   1.834   1.061 -0.2490 -0.1152  0.1497
  684MOL0     C94319   7.014   1.853   1.159 -0.0451 -0.4531  0.0301
  684MOL0     C94320   7.456   1.535   0.584  0.5908 -0.3862 -0.0470
  684MOL0     C94321   7.590   1.551   0.557 -0.0106  0.6707  0.3424
  684MOL0     C94322   7.633   1.659   0.454 -0.4095  0.3204  0.2737
  684MOL0     H94323   7.989   1.432   0.405 -0.5361 -0.0606  1.5189
  684MOL0     H94324   8.214   1.432   0.325 -3.3800 -1.2733 -0.8604
  684MOL0     H94325   8.574   1.206   0.422 -3.3974 -0.9070 -1.6239
  684MOL0     H94326   8.468   1.148   0.541  2.0741 -0.5878 -0.4561
  684MOL0     H94327   8.527   1.366   0.685 -1.8295  0.0179 -0.6827
  684MOL0     H94328   8.656   1.239   0.668  1.3530  1.3066 -0.3526
  684MOL0     H94329   8.756   1.367   0.479 -0.1076  0.6473 -1.1750
  684MOL0     H94330   8.635   1.495   0.502 -0.4907 -0.2123 -0.1288
  684MOL0     H94331   8.759   1.476   0.765 -0.4770  3.2446  0.9075
  684MOL0     H94332   8.880   1.442   0.633 -0.0341 -1.7525  1.7553
  684MOL0     H94333   8.700   1.682   0.694  1.4746  0.1825  2.5565
  684MOL0     H94334   8.786   1.666   0.535 -0.8793  0.1777  1.2672
  684MOL0     H94335   8.996   1.661   0.647  0.1677  0.9373  0.1447
  684MOL0     H94336   8.905   1.818   0.661 -1.5692  1.0439  0.8750
  684MOL0     H94337   8.824   1.725   0.887 -1.4041  1.4952 -2.5454
  684MOL0     H94338   8.982   1.801   0.874 -0.6214  0.2147 -0.3465
  684MOL0     H94339   8.954   1.566   0.993 -3.5377  1.9817 -0.9686
  684MOL0     H94340   8.968   1.489   0.846 -0.6295  0.1326 -0.0014
  684MOL0     H94341   9.207   1.778   0.782  2.9956  0.5068 -0.7644
  684MOL0     H94342   9.440   1.862   0.915 -2.2809  1.4953 -3.4100
  684MOL0     H94343   9.469   1.781   0.766  2.7016  2.0415  0.9563
  684MOL0     H94344   9.577   1.706   1.037  2.3755 -2.2917  0.3051
  684MOL0     H94345   9.616   1.609   0.895 -1.9740 -0.2990 -1.3812
  684MOL0     H94346   9.746   1.805   0.790  3.2362  3.1864  0.5915
  684MOL0     H94347   9.699   1.905   0.923  0.5102  0.9580 -2.0648
  684MOL0     H94348   9.865   1.647   0.938  2.9354  0.7631  2.0067
  684MOL0     H94349   9.926   1.796   0.890 -1.3485  1.9290  0.4923
  684MOL0     H94350   9.899   1.958   1.256 -1.4591 -3.3798 -3.3470
  684MOL0     H94351  10.097   2.032   1.477 -1.7940  0.0564  0.3369
  684MOL0     H94352   9.982   2.123   1.389  0.1696  1.0062 -0.5224
  684MOL0     H94353  10.153   2.181   1.381  2.2385 -2.2258 -2.4145
  684MOL0     H94354  10.540   2.251   1.497  0.9985 -0.9488 -0.1833
  684MOL0     H94355  10.736   2.236   1.617 -1.7293  0.0739  1.0393
  684MOL0     H94356  10.923   1.939   1.756 -1.0667  2.8468  0.6242
  684MOL0     H94357  10.988   1.856   1.607 -1.1567  0.6533 -1.0367
  684MOL0     H94358  11.128   2.080   1.761  0.4232 -0.0359 -0.3603
  684MOL0     H94359  11.175   1.917   1.763  3.6511  1.7934  0.0466
  684MOL0     H94360  11.196   2.121   1.525  2.6875 -1.5461 -4.0310
  684MOL0     H94361  11.216   1.941   1.501 -2.1367 -0.7644  0.0808
  684MOL0     H94362  11.412   1.944   1.625  0.6981  0.3350  0.4258
  684MOL0     H94363  11.403   2.110   1.675 -1.8884 -0.2693 -0.2241
  684MOL0     H94364  11.438   2.003   1.389  2.7163  1.5969 -3.0544
  684MOL0     H94365  11.402   2.174   1.423 -2.5527 -1.7797 -1.2534
  684MOL0     H94366  11.631   2.019   1.579 -1.0116 -1.2356 -2.4285
  684MOL0     H94367  11.598   2.197   1.564 -1.2210 -0.6075  0.5788
  684MOL0     H94368  11.649   2.175   1.330 -1.5357  1.5921  1.2276
  684MOL0     H94369  11.679   2.007   1.340  4.2751  1.6917 -1.8059
  684MOL0     H94370  11.871   2.020   1.483 -1.3662 -1.5583 -0.8274
  684MOL0     H94371  11.824   2.187   1.533 -0.9360 -2.0546 -0.3905
  684MOL0     H94372  10.778   1.824   1.518  0.8892  0.2551  0.0230
  684MOL0     H94373  10.566   1.821   1.425  0.8410 -0.2000 -1.0247
  684MOL0     H94374  10.324   1.814   1.074 -2.1769 -3.8742 -2.0868
  684MOL0     H94375  10.121   1.720   0.996  1.9181  0.0163  0.2140
  684MOL0     H94376   8.328   1.255   0.711 -0.4267 -1.3922  0.6093
  684MOL0     H94377   8.079   1.292   0.779 -3.3505  0.5733 -1.4707
  684MOL0     H94378   7.698   1.284   0.752 -3.4432 -1.6144  1.6555
  684MOL0     H94379   7.456   1.262   0.776  2.6793 -0.8200 -1.6971
  684MOL0     H94380   7.168   1.506   0.579  4.6308  0.0048 -0.8695
  684MOL0     H94381   7.092   1.472   0.734  1.3050 -0.5884  0.6211
  684MOL0     H94382   7.146   1.725   0.684 -1.4027 -2.7732 -0.2167
  684MOL0     H94383   7.305   1.680   0.748 -0.1977  0.1248  0.5611
  684MOL0     H94384   7.043   1.625   0.898  0.3734  2.1919  1.4526
  684MOL0     H94385   7.210   1.609   0.960 -1.4585 -0.5890  1.4754
  684MOL0     H94386   7.132   1.875   0.850 -3.1647 -0.4313  0.3059
  684MOL0     H94387   7.266   1.833   0.945  0.3574  0.8085 -1.1412
  684MOL0     H94388   6.957   1.872   1.247  1.2084 -0.7530  0.9441
  684MOL0     H94389   7.383   1.598   0.534 -0.0689  2.2363  3.7674
  684MOL0     H94390   7.721   1.622   0.401  0.6294 -0.7361  2.5865
  684MOL0     H94391   7.557   1.687   0.380 -0.2290  0.6242  0.2035
  684MOL0     H94392   7.664   1.744   0.515 -0.6498  1.9263 -1.7500
  685MOL0     O94393  11.185   6.685   5.065 -0.0502 -0.2259 -0.1586
  685MOL0     C94394  11.113   6.629   5.147 -0.5011  0.1602  0.3907
  685MOL0     O94395  11.144   6.507   5.201  0.1304 -0.3987  0.5724
  685MOL0     C94396  11.262   6.442   5.171 -0.4298 -0.3207 -0.3209
  685MOL0     C94397  11.339   6.386   5.277 -0.2886  0.0084  0.2667
  685MOL0     C94398  11.453   6.310   5.260  0.1790 -0.5736 -0.0904
  685MOL0     C94399  11.500   6.299   5.133 -0.2983 -0.7429  0.6800
  685MOL0     O94400  11.615   6.230   5.102  1.2841 -0.1883 -0.0202
  685MOL0     C94401  11.694   6.178   5.207 -0.4091 -0.0103 -0.2758
  685MOL0     C94402  11.816   6.116   5.142 -0.7945 -0.2816 -0.2851
  685MOL0     C94403  11.923   6.093   5.241 -0.5948  0.6312  0.3173
  685MOL0     C94404  12.048   6.030   5.160  0.2005 -0.1645 -0.1524
  685MOL0     C94405  12.161   5.986   5.245  0.0400 -0.4120  0.2113
  685MOL0     C94406  12.287   5.957   5.172 -0.0740  0.3465  0.7477
  685MOL0     C94407  12.395   5.911   5.282 -0.2424  0.1269  0.6178
  685MOL0     C94408  12.538   5.950   5.241  0.1121 -0.2384  0.4272
  685MOL0     N94409  12.637   5.917   5.342  0.7524  0.1149  0.2791
  685MOL0     C94410  12.675   5.791   5.375  0.8138  0.1476 -0.4121
  685MOL0     C94411  12.796   5.807   5.441 -0.3584  0.1702 -1.0592
  685MOL0     C94412  12.878   5.701   5.513  0.3408 -0.7657  0.1001
  685MOL0     C94413  13.031   5.722   5.486  0.8422 -0.1754  0.6657
  685MOL0     C94414  13.110   5.603   5.544  0.5112  0.0875 -0.5819
  685MOL0     C94415  13.259   5.610   5.496  0.2958  0.1093  0.2460
  685MOL0     O94416  13.292   5.611   5.355 -0.3619  0.5986 -0.3115
  685MOL0     C94417  13.404   5.546   5.308  0.2750 -0.6052  0.1453
  685MOL0     C94418  13.402   5.501   5.179  0.3010 -1.5557  0.8332
  685MOL0     C94419  13.513   5.438   5.115  0.2874 -0.0643  0.7482
  685MOL0     C94420  13.477   5.391   4.977 -0.0133  0.1318  0.3300
  685MOL0     C94421  13.636   5.419   5.179 -0.3338  1.0976 -0.5984
  685MOL0     C94422  13.756   5.344   5.117 -0.6898  0.2635 -0.5875
  685MOL0     O94423  13.752   5.292   4.986 -0.3991  0.6926  0.4018
  685MOL0     C94424  13.859   5.210   4.932  0.0081  0.4184 -0.2598
  685MOL0     C94425  13.837   5.087   4.875  0.4803  0.4085  0.5983
  685MOL0     C94426  13.939   5.011   4.826  0.4950 -0.3076  0.2491
  685MOL0     C94427  14.069   5.055   4.845 -0.2686 -0.3639  1.3810
  685MOL0     O94428  14.156   4.969   4.775  0.4916  0.4533  0.1146
  685MOL0     C94429  14.285   5.017   4.742 -1.1491  0.3103  0.3291
  685MOL0     C94430  14.350   4.913   4.642  0.2705  0.7948 -0.0909
  685MOL0     C94431  14.499   4.947   4.608 -0.4808 -0.6105  0.2700
  685MOL0     C94432  14.558   4.851   4.497  0.3012 -0.4676 -0.7266
  685MOL0     C94433  14.693   4.912   4.455 -0.7470 -0.2730  0.7577
  685MOL0     C94434  14.810   4.875   4.550 -0.3742 -0.3911  0.7091
  685MOL0     C94435  14.941   4.939   4.503  0.1308 -0.7306  0.2797
  685MOL0     C94436  15.051   4.906   4.586  0.4260 -0.6083 -0.5262
  685MOL0    Cl94437  15.048   4.931   4.753  0.2447  0.1906 -0.3146
  685MOL0     C94438  14.100   5.181   4.889  0.3741 -0.4818  0.4956
  685MOL0     C94439  13.993   5.255   4.937  0.1004  0.6683  0.8085
  685MOL0     O94440  13.852   5.326   5.188 -0.9788 -0.6478 -0.5769
  685MOL0     C94441  13.634   5.465   5.316  0.1080 -0.4371 -0.1874
  685MOL0     C94442  13.519   5.520   5.383 -0.0308 -0.2473  0.3798
  685MOL0     N94443  12.825   5.939   5.450  1.5321 -0.3173  0.8373
  685MOL0     N94444  12.734   6.003   5.381  0.5560 -1.3343 -0.5034
  685MOL0     C94445  11.440   6.365   5.028 -0.0095 -0.3952  0.4062
  685MOL0     C94446  11.323   6.434   5.042  0.3489 -0.4363 -0.0372
  685MOL0     C94447  10.981   6.685   5.187 -0.2809 -0.7645  0.7193
  685MOL0     C94448  10.882   6.600   5.231 -0.3169 -1.2228 -0.2458
  685MOL0     C94449  10.751   6.639   5.271 -0.0667 -0.8810  0.1176
  685MOL0     C94450  10.714   6.777   5.267 -0.7236 -0.3920  0.4488
  685MOL0     O94451  10.594   6.836   5.311  0.3468  0.6270  0.2074
  685MOL0     C94452  10.520   6.916   5.225  0.0445 -0.7130 -0.4394
  685MOL0     C94453  10.466   6.840   5.101 -0.0340 -0.3178 -0.0113
  685MOL0     C94454  10.365   6.928   5.022  0.6354  0.4258 -0.5896
  685MOL0     C94455  10.273   6.832   4.936  0.3746  0.0937 -0.0643
  685MOL0     C94456  10.167   6.908   4.864  0.1696  0.6899 -0.5429
  685MOL0     C94457  10.077   6.964   4.810  0.0364  0.3995  0.5014
  685MOL0     C94458  10.811   6.866   5.223  0.3057 -0.3029 -0.2452
  685MOL0     C94459  10.938   6.827   5.191 -0.5698 -0.2661 -0.1450
  685MOL0     C94460  11.042   6.933   5.156 -0.4052  0.4347 -0.3497
  685MOL0     H94461  11.300   6.385   5.379 -0.6539  2.3278  0.2095
  685MOL0     H94462  11.510   6.285   5.349  0.6901  1.5117  0.2179
  685MOL0     H94463  11.641   6.104   5.267 -2.9061  1.2718 -0.7841
  685MOL0     H94464  11.729   6.264   5.265 -1.2172  0.6832 -0.7889
  685MOL0     H94465  11.792   6.019   5.097  1.5036 -0.3594 -1.4597
  685MOL0     H94466  11.845   6.179   5.058  2.2981  0.6653  1.3538
  685MOL0     H94467  11.954   6.187   5.288  1.8514 -0.9892  2.2603
  685MOL0     H94468  11.893   6.020   5.317 -1.3598  0.6562  0.0448
  685MOL0     H94469  12.011   5.954   5.090 -0.5057  1.9011 -2.1396
  685MOL0     H94470  12.091   6.112   5.101 -0.9229  1.3344  1.0403
  685MOL0     H94471  12.131   5.892   5.291  1.1166 -1.2998 -0.8131
  685MOL0     H94472  12.172   6.062   5.322  1.5994  1.2350 -1.5101
  685MOL0     H94473  12.285   5.868   5.108  2.3719 -0.1163  1.2115
  685MOL0     H94474  12.339   6.039   5.120 -1.7765  1.7891  1.2188
  685MOL0     H94475  12.396   5.801   5.278 -0.4117  0.0607  1.8867
  685MOL0     H94476  12.356   5.937   5.381  0.5515 -2.3111  1.6494
  685MOL0     H94477  12.555   5.898   5.147  1.1856  0.2579  0.3338
  685MOL0     H94478  12.543   6.057   5.218 -0.4964 -0.2552  0.2210
  685MOL0     H94479  12.612   5.704   5.363  0.4884  0.0483  1.6259
  685MOL0     H94480  12.844   5.602   5.479 -1.7465  0.1039 -0.5436
  685MOL0     H94481  12.856   5.702   5.620 -0.0917 -2.6931  0.0625
  685MOL0     H94482  13.049   5.730   5.379  1.7291 -1.4183  0.6955
  685MOL0     H94483  13.057   5.824   5.517  0.5223  0.6830 -1.6830
  685MOL0     H94484  13.107   5.616   5.653  0.9422 -2.6065 -0.1982
  685MOL0     H94485  13.053   5.513   5.523 -0.7207  0.1396  2.0849
  685MOL0     H94486  13.303   5.704   5.531 -1.0284  0.8019  0.0999
  685MOL0     H94487  13.310   5.526   5.544 -0.8368 -0.2736  0.7917
  685MOL0     H94488  13.314   5.523   5.119  1.4135 -0.0808 -0.3242
  685MOL0     H94489  13.551   5.439   4.912  0.5922  2.3261  2.4732
  685MOL0     H94490  13.376   5.417   4.946 -0.3625 -0.6625  0.7524
  685MOL0     H94491  13.483   5.282   4.972  0.1010  0.1938 -1.4821
  685MOL0     H94492  13.741   5.038   4.868  0.6190  0.3104 -1.1650
  685MOL0     H94493  13.919   4.907   4.801  0.4302  0.2453 -2.2510
  685MOL0     H94494  14.283   5.120   4.705 -0.7765  0.0473 -0.4300
  685MOL0     H94495  14.341   5.018   4.836  0.8954 -0.4070 -0.8141
  685MOL0     H94496  14.343   4.815   4.690  0.4198  0.4134 -0.8374
  685MOL0     H94497  14.290   4.917   4.550 -2.8288 -1.4808  1.6219
  685MOL0     H94498  14.563   4.934   4.696  1.6265 -0.7265 -1.2332
  685MOL0     H94499  14.510   5.049   4.573  0.2362 -1.5757 -2.5574
  685MOL0     H94500  14.480   4.854   4.420 -0.7869 -0.5720  0.3384
  685MOL0     H94501  14.573   4.749   4.530 -0.5655 -0.3193  0.1780
  685MOL0     H94502  14.723   4.860   4.364 -2.2759 -0.0766  0.1057
  685MOL0     H94503  14.679   5.019   4.439 -2.4886 -0.6548 -0.4983
  685MOL0     H94504  14.815   4.766   4.547 -0.9380 -0.3923 -0.6711
  685MOL0     H94505  14.783   4.900   4.653 -2.7129 -1.4870  0.4145
  685MOL0     H94506  14.926   5.047   4.507  0.2963 -0.7017  0.0980
  685MOL0     H94507  14.968   4.918   4.399  0.7496  0.8234  0.0995
  685MOL0     H94508  15.138   4.963   4.550  0.1565 -0.7905 -1.5131
  685MOL0     H94509  15.060   4.799   4.568 -1.0929 -0.4059 -3.0988
  685MOL0     H94510  14.199   5.222   4.903  0.9494 -2.3698  2.3204
  685MOL0     H94511  14.020   5.347   4.988  2.3897  3.5406 -4.7158
  685MOL0     H94512  13.730   5.455   5.366  1.0016 -1.4416 -1.9661
  685MOL0     H94513  13.535   5.551   5.486  3.1465  1.0665 -0.3760
  685MOL0     H94514  11.491   6.368   4.933 -2.2868  1.0402 -0.8485
  685MOL0     H94515  11.270   6.477   4.957 -0.1485  1.4273  1.1668
  685MOL0     H94516  10.898   6.492   5.232 -2.2251 -1.5461  0.5508
  685MOL0     H94517  10.687   6.564   5.315 -0.5665  1.0915  3.0151
  685MOL0     H94518  10.433   6.947   5.283  0.5579 -3.6822  2.1712
  685MOL0     H94519  10.571   7.005   5.186 -2.8470  0.3283 -2.1671
  685MOL0     H94520  10.419   6.748   5.137 -0.8296  0.3252  0.6505
  685MOL0     H94521  10.546   6.807   5.034  0.2671  1.5444 -0.6214
  685MOL0     H94522  10.288   6.965   5.091 -0.9831 -1.8022 -1.0836
  685MOL0     H94523  10.418   6.994   4.953 -0.5870  1.0416 -0.9648
  685MOL0     H94524  10.229   6.754   5.000 -1.2878  0.8310 -0.2667
  685MOL0     H94525  10.337   6.783   4.862 -0.0141  2.5147 -2.1632
  685MOL0     H94526  10.008   7.023   4.753 -0.5196 -0.7650 -0.0560
  685MOL0     H94527  10.783   6.970   5.233  0.3724 -0.2923 -0.1711
  685MOL0     H94528  11.142   6.917   5.198  0.2891  3.1946 -0.7258
  685MOL0     H94529  11.036   6.939   5.047 -1.1336  0.8393 -0.2910
  685MOL0     H94530  11.007   7.030   5.194 -0.8316 -0.3816  1.4613
  686MOL0     O94531   8.928   8.154   9.443  0.2905  0.4107  0.2243
  686MOL0     C94532   8.911   8.189   9.326 -0.6654  0.0920 -0.4255
  686MOL0     O94533   9.007   8.180   9.225 -0.4816  0.3744  0.3950
  686MOL0     C94534   9.139   8.166   9.256  0.5090 -0.7019  0.8508
  686MOL0     C94535   9.187   8.060   9.327 -0.4449  0.2951 -0.4286
  686MOL0     C94536   9.320   8.069   9.362  0.0453  0.4124  0.0711
  686MOL0     C94537   9.407   8.163   9.311  0.4032  0.1594 -0.6364
  686MOL0     O94538   9.544   8.139   9.340 -0.0993  0.1689 -0.2286
  686MOL0     C94539   9.633   8.255   9.335  0.2966 -0.1547 -0.1094
  686MOL0     C94540   9.777   8.200   9.347 -0.8111 -0.2025  0.6568
  686MOL0     C94541   9.873   8.314   9.366 -1.5476 -0.1072  0.2555
  686MOL0     C94542  10.006   8.281   9.420 -1.4377 -0.5721 -0.0974
  686MOL0     C94543  10.099   8.400   9.398 -0.0610  0.0871  0.3874
  686MOL0     C94544  10.232   8.381   9.467 -0.6098  0.0988  0.1576
  686MOL0     C94545  10.343   8.469   9.409  0.6769  1.0676  0.2981
  686MOL0     C94546  10.327   8.620   9.444 -0.8267  0.2166  0.5340
  686MOL0     N94547  10.457   8.696   9.424  0.2536 -0.2454 -0.3319
  686MOL0     C94548  10.532   8.736   9.531 -0.3164 -0.5081  0.1560
  686MOL0     C94549  10.642   8.797   9.472  0.7674 -0.0594  0.5971
  686MOL0     C94550  10.734   8.880   9.559  0.0534  0.1572 -0.1715
  686MOL0     C94551  10.756   9.021   9.510  0.4256  0.2848  0.1657
  686MOL0     C94552  10.825   9.017   9.377  0.8763 -0.7454  0.3758
  686MOL0     C94553  10.883   9.153   9.329  0.5467 -0.0628  0.1861
  686MOL0     O94554  10.970   9.149   9.220  0.2649  0.6524 -0.4788
  686MOL0     C94555  11.102   9.117   9.234 -0.4421  0.0691 -0.0239
  686MOL0     C94556  11.176   9.109   9.353  0.2486 -0.4403  0.5702
  686MOL0     C94557  11.314   9.074   9.338  0.5074 -0.3530 -0.1919
  686MOL0     C94558  11.392   9.045   9.465  0.5003  0.1037 -0.3157
  686MOL0     C94559  11.373   9.049   9.204  0.2501  0.7382 -0.5624
  686MOL0     C94560  11.521   9.036   9.183 -0.1166 -0.0027  0.1553
  686MOL0     O94561  11.603   9.012   9.282 -0.6885 -0.1770  0.7395
  686MOL0     C94562  11.732   8.972   9.248 -0.2053  1.1377 -0.0294
  686MOL0     C94563  11.834   9.067   9.255 -0.2364  0.5831  0.3613
  686MOL0     C94564  11.964   9.018   9.263 -0.6412 -0.6284 -0.5525
  686MOL0     C94565  12.000   8.882   9.251 -0.7011 -0.3677  0.7334
  686MOL0     O94566  12.134   8.849   9.247  0.6223  0.1807 -0.1169
  686MOL0     C94567  12.178   8.713   9.265  0.0931  0.5900 -0.2221
  686MOL0     C94568  12.326   8.695   9.240 -0.2215  1.0738  0.5543
  686MOL0     C94569  12.415   8.764   9.340 -0.9193  0.7297  0.6549
  686MOL0     C94570  12.515   8.677   9.427 -0.4345  0.9709 -0.3430
  686MOL0     C94571  12.633   8.613   9.348 -0.7762  0.5361  0.9522
  686MOL0     C94572  12.727   8.515   9.439 -0.0070  0.0380 -0.5890
  686MOL0     C94573  12.845   8.580   9.508 -0.1968  0.4368 -0.2102
  686MOL0     C94574  12.963   8.603   9.422  0.3139 -0.1723  0.5550
  686MOL0    Cl94575  13.075   8.734   9.487  0.1078  0.1020 -0.2797
  686MOL0     C94576  11.895   8.788   9.228 -0.4566  0.3936  0.0581
  686MOL0     C94577  11.766   8.832   9.249  1.1882 -0.5377 -0.2056
  686MOL0     O94578  11.554   9.038   9.063 -0.3313 -0.5547 -0.2932
  686MOL0     C94579  11.292   9.074   9.092  0.4715 -0.0284  0.3606
  686MOL0     C94580  11.161   9.108   9.107  0.2311 -0.1020  0.5894
  686MOL0     N94581  10.619   8.791   9.331  0.4859  0.0619 -0.5109
  686MOL0     N94582  10.506   8.727   9.306 -0.1654 -0.6618  0.6283
  686MOL0     C94583   9.362   8.280   9.243 -0.5505  1.0552 -0.7992
  686MOL0     C94584   9.224   8.274   9.213 -0.4056 -0.1455 -0.0563
  686MOL0     C94585   8.777   8.227   9.283 -1.0492 -0.3647  0.5471
  686MOL0     C94586   8.741   8.212   9.147 -0.5876  0.4794  0.2340
  686MOL0     C94587   8.615   8.239   9.099  0.0319 -0.4190 -0.3512
  686MOL0     C94588   8.515   8.284   9.188  0.3593  0.4220 -0.3266
  686MOL0     O94589   8.388   8.304   9.141 -0.4356 -0.1831 -1.0593
  686MOL0     C94590   8.353   8.442   9.127  0.0803  0.9327 -0.1292
  686MOL0     C94591   8.246   8.472   9.229 -0.3878 -0.4031  0.1431
  686MOL0     C94592   8.101   8.414   9.223 -0.7040 -0.0831 -0.3922
  686MOL0     C94593   8.095   8.258   9.243 -0.4595 -0.4728 -0.2338
  686MOL0     C94594   7.977   8.209   9.180 -0.7650  0.0435  1.0438
  686MOL0     C94595   7.876   8.179   9.122  0.4268 -0.3740  0.1271
  686MOL0     C94596   8.543   8.284   9.320  0.3893  0.3351  0.5966
  686MOL0     C94597   8.673   8.267   9.371  0.2651  0.4872  0.3303
  686MOL0     C94598   8.680   8.294   9.524  0.8151  0.2065  0.0589
  686MOL0     H94599   9.138   7.969   9.360  0.4159  1.1383  3.8633
  686MOL0     H94600   9.364   7.981   9.405 -0.2919  0.4951  0.5940
  686MOL0     H94601   9.621   8.318   9.424 -0.0890 -2.1674  1.3450
  686MOL0     H94602   9.623   8.313   9.243  1.5468  0.6088  0.2070
  686MOL0     H94603   9.796   8.133   9.431 -0.9546 -1.9791 -0.6634
  686MOL0     H94604   9.799   8.146   9.254  0.1835  0.3461  0.5663
  686MOL0     H94605   9.881   8.382   9.280  1.9495 -0.2756  0.2940
  686MOL0     H94606   9.828   8.376   9.443 -0.4578  0.7487  0.2324
  686MOL0     H94607  10.012   8.250   9.525  0.7089 -2.6156 -0.7275
  686MOL0     H94608  10.050   8.201   9.360  3.0220  0.3432  1.5585
  686MOL0     H94609  10.059   8.495   9.435  0.0313 -0.4954  2.0490
  686MOL0     H94610  10.112   8.409   9.290 -3.5785  2.4937  0.0079
  686MOL0     H94611  10.222   8.397   9.575  1.1130 -2.1200  0.7281
  686MOL0     H94612  10.255   8.274   9.460 -2.6260 -0.2877 -1.3160
  686MOL0     H94613  10.342   8.459   9.300  1.4716  1.9630  0.2021
  686MOL0     H94614  10.444   8.437   9.436  0.4989 -1.3508 -1.5593
  686MOL0     H94615  10.244   8.656   9.383  0.6656  0.3297 -1.5291
  686MOL0     H94616  10.297   8.631   9.549 -2.5272  1.4486 -0.0406
  686MOL0     H94617  10.514   8.724   9.637  0.4466 -0.9674  0.2369
  686MOL0     H94618  10.826   8.823   9.574 -0.7282 -0.8460  1.1313
  686MOL0     H94619  10.694   8.900   9.659  0.3633  2.0070 -0.3816
  686MOL0     H94620  10.664   9.078   9.494 -0.1213 -0.9764 -1.4312
  686MOL0     H94621  10.819   9.067   9.587 -1.3432  2.8583  0.2383
  686MOL0     H94622  10.910   8.949   9.375  1.5279  0.0446  0.5488
  686MOL0     H94623  10.746   9.001   9.303  0.2013  0.5877  0.7690
  686MOL0     H94624  10.803   9.224   9.304 -0.5285 -0.6164  1.8748
  686MOL0     H94625  10.940   9.189   9.416  1.4828 -3.3006  1.0465
  686MOL0     H94626  11.129   9.122   9.450 -0.7955 -2.1919  0.3383
  686MOL0     H94627  11.425   8.941   9.465  1.2500  0.1772  3.6450
  686MOL0     H94628  11.331   9.048   9.556 -0.2710 -3.6000 -0.5539
  686MOL0     H94629  11.465   9.125   9.485 -0.2141 -0.0686  3.9844
  686MOL0     H94630  11.801   9.170   9.250  1.1024  0.9982 -0.7391
  686MOL0     H94631  12.049   9.081   9.287  0.3136 -2.3064  0.6568
  686MOL0     H94632  12.145   8.685   9.366 -0.1130  0.9850 -0.1785
  686MOL0     H94633  12.126   8.654   9.189  0.1486 -2.9707  2.1978
  686MOL0     H94634  12.350   8.589   9.240  1.1974  1.2218  4.6754
  686MOL0     H94635  12.352   8.741   9.144 -2.6052 -1.2608 -1.3480
  686MOL0     H94636  12.346   8.808   9.412  0.3417 -0.4298  2.6881
  686MOL0     H94637  12.482   8.822   9.276 -1.2413 -2.8304 -3.3973
  686MOL0     H94638  12.457   8.592   9.464  3.5988 -1.4734  1.0779
  686MOL0     H94639  12.550   8.736   9.512 -0.4068  0.7839 -0.2237
  686MOL0     H94640  12.604   8.557   9.258 -1.3200  0.2023  1.3280
  686MOL0     H94641  12.697   8.696   9.315 -0.8496  1.1984  2.3852
  686MOL0     H94642  12.760   8.433   9.374  1.3251 -1.8000  2.2093
  686MOL0     H94643  12.662   8.476   9.518 -2.0875 -0.1572 -2.2962
  686MOL0     H94644  12.878   8.503   9.579 -0.4010 -0.9967 -1.6103
  686MOL0     H94645  12.817   8.677   9.550 -0.1217  0.9706 -1.3463
  686MOL0     H94646  12.920   8.639   9.328  1.2751  1.5037  0.7175
  686MOL0     H94647  13.015   8.514   9.389  3.7187  1.1518  1.9261
  686MOL0     H94648  11.918   8.685   9.203  1.4944  1.2838 -2.2020
  686MOL0     H94649  11.687   8.757   9.248 -0.2735  0.9522 -1.5535
  686MOL0     H94650  11.336   9.081   8.994  0.6871  2.0858  0.5765
  686MOL0     H94651  11.107   9.141   9.019  1.3324 -1.4751 -0.6539
  686MOL0     H94652   9.429   8.355   9.201  0.2163 -0.4553 -2.4202
  686MOL0     H94653   9.171   8.350   9.156 -0.6814 -0.2217  0.0943
  686MOL0     H94654   8.816   8.196   9.071  0.3391 -0.6765  1.3475
  686MOL0     H94655   8.594   8.230   8.993  0.5476  1.4409 -0.6465
  686MOL0     H94656   8.438   8.503   9.157  1.8989 -0.3730 -2.2913
  686MOL0     H94657   8.325   8.459   9.023  1.3947 -3.3196 -1.3950
  686MOL0     H94658   8.230   8.580   9.223  0.1637 -0.2405  1.2235
  686MOL0     H94659   8.278   8.454   9.332  0.4907  2.6423  0.5184
  686MOL0     H94660   8.044   8.460   9.304  0.1658  0.7620 -0.2391
  686MOL0     H94661   8.053   8.439   9.128  1.1127 -1.2824 -1.6799
  686MOL0     H94662   8.083   8.229   9.348 -0.6463 -0.5557 -0.2778
  686MOL0     H94663   8.178   8.201   9.200  0.6370  1.4514 -0.7796
  686MOL0     H94664   7.790   8.155   9.062 -0.1315 -0.9367  1.1160
  686MOL0     H94665   8.466   8.316   9.389  1.2806  0.5290  1.5300
  686MOL0     H94666   8.578   8.326   9.550 -0.7374 -3.8656 -0.3749
  686MOL0     H94667   8.707   8.207   9.584  4.3608  1.4198  0.4432
  686MOL0     H94668   8.758   8.369   9.536  0.6576  1.1438 -3.5164
  687MOL0     O94669  11.241   1.036  10.964 -0.0571 -0.0189 -0.4899
  687MOL0     C94670  11.259   0.948  11.040 -0.6960  1.2201  0.0170
  687MOL0     O94671  11.372   0.877  11.045  0.2772  0.1465 -0.1283
  687MOL0     C94672  11.482   0.905  10.965  0.3273 -0.5015  0.2067
  687MOL0     C94673  11.535   0.807  10.873  0.9050 -0.6434  0.0882
  687MOL0     C94674  11.649   0.818  10.806 -0.1052  0.1360  0.5524
  687MOL0     C94675  11.722   0.943  10.826 -0.6181  0.9121  0.7430
  687MOL0     O94676  11.835   0.967  10.767 -0.7073 -0.1995  0.2005
  687MOL0     C94677  11.917   0.866  10.697  0.2720 -0.6911  0.0232
  687MOL0     C94678  12.042   0.936  10.649  0.0618 -0.5435  0.3437
  687MOL0     C94679  12.149   0.845  10.585 -0.3238 -0.0605  0.7030
  687MOL0     C94680  12.262   0.927  10.519  0.4735  0.3820  0.0866
  687MOL0     C94681  12.377   0.837  10.459 -0.5532  0.2649 -0.4840
  687MOL0     C94682  12.334   0.745  10.349  0.4487 -0.3062  1.0852
  687MOL0     C94683  12.454   0.681  10.280  0.7361 -0.3198  0.0787
  687MOL0     C94684  12.405   0.557  10.207 -0.1655 -0.2418  0.2206
  687MOL0     N94685  12.530   0.497  10.149 -0.3603  0.2534 -0.2261
  687MOL0     C94686  12.595   0.547  10.036 -0.4074 -0.6387 -0.4805
  687MOL0     C94687  12.685   0.441  10.010  0.0556  0.1231 -0.0466
  687MOL0     C94688  12.784   0.435   9.897  0.0965  0.6084 -0.5698
  687MOL0     C94689  12.718   0.371   9.769  0.2075  0.9040 -0.1494
  687MOL0     C94690  12.763   0.222   9.760 -0.1629 -0.2448  0.1649
  687MOL0     C94691  12.914   0.221   9.719 -0.4042 -0.1489  0.0360
  687MOL0     O94692  12.953   0.081   9.709 -0.0001 -0.1187  0.2015
  687MOL0     C94693  13.088   0.066   9.692 -0.6040  0.3937 -0.2869
  687MOL0     C94694  13.136  -0.053   9.761 -0.7683 -0.0193 -0.9694
  687MOL0     C94695  13.278  -0.076   9.778 -0.0783  0.0582  0.1524
  687MOL0     C94696  13.323  -0.211   9.840  0.3937 -0.3758 -0.1957
  687MOL0     C94697  13.368   0.022   9.725 -0.5978 -0.7499  0.0325
  687MOL0     C94698  13.521   0.006   9.749  0.2743 -0.7443 -0.0624
  687MOL0     O94699  13.589   0.127   9.739 -0.2263 -0.2253  0.5320
  687MOL0     C94700  13.724   0.125   9.730 -0.1546 -0.6595  0.4208
  687MOL0     C94701  13.782   0.063   9.620  0.7117  0.3887  0.0766
  687MOL0     C94702  13.920   0.044   9.617  0.3387  0.4505  0.1591
  687MOL0     C94703  14.005   0.103   9.713 -0.2115 -0.6560 -0.2334
  687MOL0     O94704  14.141   0.096   9.690  0.4818  0.1937  0.2870
  687MOL0     C94705  14.236   0.094   9.796  0.4136 -0.1939  0.0615
  687MOL0     C94706  14.206  -0.026   9.891  0.1429 -1.0165 -0.0018
  687MOL0     C94707  14.324  -0.043   9.986  0.4293  0.6727 -0.4283
  687MOL0     C94708  14.351   0.083  10.080 -0.1547 -0.2985  0.6790
  687MOL0     C94709  14.450   0.057  10.190  0.5962  0.1956  0.0358
  687MOL0     C94710  14.426   0.163  10.302 -0.4250 -0.2354 -0.9319
  687MOL0     C94711  14.529   0.138  10.408 -0.4561  0.5391  0.1445
  687MOL0     C94712  14.526   0.254  10.510  0.3497  0.6825 -0.4067
  687MOL0    Cl94713  14.613   0.219  10.660 -1.0137  0.0369 -0.5124
  687MOL0     C94714  13.935   0.179   9.818 -0.7183 -0.1317  0.5766
  687MOL0     C94715  13.804   0.188   9.818 -0.8231 -0.6446 -0.3885
  687MOL0     O94716  13.572  -0.104   9.764 -0.1657 -0.1846  0.2892
  687MOL0     C94717  13.320   0.137   9.669  0.5853  0.0558  0.2624
  687MOL0     C94718  13.185   0.159   9.643 -0.2119 -0.0668  0.6683
  687MOL0     N94719  12.694   0.354  10.112 -1.3084  0.7202 -0.1743
  687MOL0     N94720  12.594   0.379  10.193 -0.3261 -0.6926  0.8348
  687MOL0     C94721  11.672   1.047  10.908 -0.5343 -0.2960  1.2245
  687MOL0     C94722  11.558   1.023  10.979 -0.5307  0.2266 -0.4787
  687MOL0     C94723  11.136   0.903  11.119  1.0400  0.2277 -0.5914
  687MOL0     C94724  11.123   0.761  11.147  0.0463  0.3548 -0.4222
  687MOL0     C94725  11.027   0.703  11.216  0.0502  0.4400 -0.0859
  687MOL0     C94726  10.928   0.789  11.279  0.9705  0.3667 -0.7517
  687MOL0     O94727  10.827   0.740  11.353  0.0368 -0.0827 -0.1877
  687MOL0     C94728  10.793   0.799  11.476  0.0030 -0.4608 -0.8007
  687MOL0     C94729  10.654   0.877  11.472 -0.3981 -1.0517  0.1446
  687MOL0     C94730  10.634   0.970  11.596 -0.1546  0.2815 -0.5204
  687MOL0     C94731  10.673   0.900  11.727 -0.7351  0.0942  0.1232
  687MOL0     C94732  10.654   0.982  11.848 -0.5752 -0.0521 -0.3016
  687MOL0     C94733  10.624   1.061  11.936  0.0006 -0.4924  0.2358
  687MOL0     C94734  10.934   0.929  11.256  0.2566  0.0298  1.1003
  687MOL0     C94735  11.035   0.986  11.167 -0.3687  0.1639 -0.3628
  687MOL0     C94736  11.035   1.138  11.146  0.4464 -0.8330  0.4172
  687MOL0     H94737  11.472   0.720  10.861 -0.7436  0.6989 -1.7410
  687MOL0     H94738  11.705   0.742  10.751  2.5129  2.2007  0.1580
  687MOL0     H94739  11.863   0.816  10.616 -0.4296 -2.6058  1.6013
  687MOL0     H94740  11.936   0.786  10.768  3.3026 -1.3761 -1.4361
  687MOL0     H94741  12.009   1.015  10.581  0.7248  0.4987  1.1882
  687MOL0     H94742  12.085   0.991  10.734  0.3661  2.8131 -1.8250
  687MOL0     H94743  12.194   0.776  10.657  0.8726  1.1049  1.1060
  687MOL0     H94744  12.092   0.791  10.508  0.3807  2.0411 -1.4198
  687MOL0     H94745  12.221   0.991  10.440 -3.5355 -0.1826  1.5085
  687MOL0     H94746  12.303   0.996  10.593 -0.4872  1.0112  0.0517
  687MOL0     H94747  12.406   0.780  10.547 -2.7410  2.2376  1.6559
  687MOL0     H94748  12.462   0.896  10.424 -0.7959  0.9301  0.0250
  687MOL0     H94749  12.259   0.671  10.381 -0.9026  0.7017  0.3519
  687MOL0     H94750  12.283   0.799  10.269  0.0451 -0.9309  0.9141
  687MOL0     H94751  12.524   0.655  10.360 -0.3874  1.1159  1.5740
  687MOL0     H94752  12.499   0.755  10.214 -1.4877  1.5928  0.5976
  687MOL0     H94753  12.358   0.481  10.270  0.4883 -0.5314  0.3700
  687MOL0     H94754  12.331   0.582  10.129  1.0937  0.8825 -0.6596
  687MOL0     H94755  12.572   0.638   9.981  0.9535  1.1541  1.7350
  687MOL0     H94756  12.880   0.392   9.927 -0.9297 -2.1330 -0.9339
  687MOL0     H94757  12.809   0.541   9.883 -0.4268  0.6261 -1.4595
  687MOL0     H94758  12.610   0.360   9.779  0.6023 -2.4611  1.8696
  687MOL0     H94759  12.751   0.420   9.677  0.0904 -0.6724 -1.0562
  687MOL0     H94760  12.749   0.168   9.854 -1.6886  0.1095  0.1746
  687MOL0     H94761  12.709   0.165   9.683  1.8214  1.9538 -3.1100
  687MOL0     H94762  12.921   0.276   9.624 -0.8638 -1.8740 -1.0351
  687MOL0     H94763  12.980   0.275   9.787 -0.0115 -0.2067 -0.2933
  687MOL0     H94764  13.061  -0.123   9.797 -1.0864 -0.7185 -2.8710
  687MOL0     H94765  13.396  -0.194   9.920  0.0965 -1.2419  0.2750
  687MOL0     H94766  13.365  -0.279   9.766  3.1037  1.5104 -0.5444
  687MOL0     H94767  13.237  -0.261   9.886  0.6309  0.1961  0.9127
  687MOL0     H94768  13.731   0.007   9.542  2.4407 -1.6189  0.3116
  687MOL0     H94769  13.957  -0.017   9.534 -0.1389  3.2869 -2.2871
  687MOL0     H94770  14.325   0.069   9.737 -0.2227 -1.6066 -0.3287
  687MOL0     H94771  14.247   0.188   9.851  1.0500  0.1885 -0.6890
  687MOL0     H94772  14.109  -0.010   9.940  1.7894  2.1658  2.6378
  687MOL0     H94773  14.197  -0.110   9.821  1.4656  2.0748 -4.3814
  687MOL0     H94774  14.411  -0.056   9.922  1.1470  1.5604  0.3355
  687MOL0     H94775  14.307  -0.135  10.042  0.6000  0.5147 -0.6375
  687MOL0     H94776  14.257   0.113  10.127 -0.1256  1.1894 -0.1517
  687MOL0     H94777  14.376   0.173  10.023  2.3690 -1.8331 -0.8684
  687MOL0     H94778  14.434  -0.044  10.229  0.0139 -0.6903 -2.3564
  687MOL0     H94779  14.549   0.072  10.146 -0.9408  1.5147 -3.3153
  687MOL0     H94780  14.326   0.157  10.345  0.0649  0.8484  0.4114
  687MOL0     H94781  14.448   0.267  10.275 -1.4307  0.9141  2.2939
  687MOL0     H94782  14.623   0.114  10.357  0.1882 -4.2829  2.9777
  687MOL0     H94783  14.496   0.051  10.465  2.2198  0.1213  1.2057
  687MOL0     H94784  14.425   0.271  10.548  0.2944  2.0215 -1.0631
  687MOL0     H94785  14.583   0.336  10.465 -0.0566  0.7665 -0.7811
  687MOL0     H94786  13.981   0.238   9.897  1.1441  0.3319 -0.7833
  687MOL0     H94787  13.759   0.246   9.898  3.3357 -0.3411  2.0428
  687MOL0     H94788  13.390   0.207   9.625  0.6667 -1.2007 -1.7292
  687MOL0     H94789  13.154   0.242   9.581  0.1769 -0.9627 -0.7648
  687MOL0     H94790  11.739   1.130  10.931 -0.5523  0.6290 -1.6521
  687MOL0     H94791  11.525   1.104  11.043 -0.6740 -0.7500  0.7342
  687MOL0     H94792  11.197   0.693  11.106  1.8477  0.8927  1.7652
  687MOL0     H94793  11.002   0.597  11.216 -2.6618  0.9932 -1.4547
  687MOL0     H94794  10.790   0.723  11.554  1.2821 -0.8719 -1.1356
  687MOL0     H94795  10.875   0.868  11.497 -1.1085  1.3302 -2.0334
  687MOL0     H94796  10.574   0.803  11.470 -0.0201 -1.4490 -0.7232
  687MOL0     H94797  10.644   0.928  11.377 -3.2204 -0.7194  0.5394
  687MOL0     H94798  10.698   1.058  11.583 -0.3314  0.7028  1.2703
  687MOL0     H94799  10.530   1.003  11.603 -1.4253 -3.5698  2.2297
  687MOL0     H94800  10.777   0.866  11.727  0.3680  3.1755  0.0661
  687MOL0     H94801  10.618   0.806  11.728  2.2332 -1.7700  0.1458
  687MOL0     H94802  10.604   1.136  12.011  4.3985  0.2510  0.9316
  687MOL0     H94803  10.864   1.006  11.287 -0.5616 -1.3451  2.9003
  687MOL0     H94804  11.011   1.159  11.042 -2.7564 -1.0955  1.0139
  687MOL0     H94805  10.955   1.193  11.197  0.9149 -1.2029  1.5725
  687MOL0     H94806  11.129   1.188  11.173  1.0597 -1.2309 -0.8709
  688MOL0     O94807   2.557   3.751   4.603 -0.3413 -0.2770 -0.8838
  688MOL0     C94808   2.498   3.719   4.708  0.1636 -0.1860  0.1943
  688MOL0     O94809   2.551   3.650   4.811  0.0262 -0.2905 -0.4710
  688MOL0     C94810   2.675   3.598   4.784 -0.4059 -0.4350  0.3093
  688MOL0     C94811   2.776   3.682   4.819 -0.7369  0.9064 -0.2761
  688MOL0     C94812   2.911   3.630   4.802 -0.1946 -0.0897 -0.3185
  688MOL0     C94813   2.933   3.494   4.784  0.2717  0.4315 -0.2554
  688MOL0     O94814   3.061   3.439   4.775 -0.3056  0.2468 -0.1947
  688MOL0     C94815   3.154   3.510   4.852  0.1348 -0.0186 -0.4720
  688MOL0     C94816   3.276   3.429   4.888 -0.2262  0.4123  0.1031
  688MOL0     C94817   3.389   3.519   4.928  0.1186 -0.0849 -0.3581
  688MOL0     C94818   3.518   3.436   4.961  0.2043  0.3590  0.5158
  688MOL0     C94819   3.641   3.523   4.951 -0.6086  0.3046 -0.3011
  688MOL0     C94820   3.755   3.459   5.011  0.0169  0.0699 -0.1443
  688MOL0     C94821   3.802   3.343   4.922 -0.4343  0.1129  0.8240
  688MOL0     C94822   3.929   3.270   4.978 -0.1483 -0.7921  0.1786
  688MOL0     N94823   3.939   3.142   4.915  0.3511 -0.4746 -0.0062
  688MOL0     C94824   4.050   3.096   4.850  0.6186 -0.7830  0.3352
  688MOL0     C94825   4.019   2.970   4.835  0.3299  0.1411  0.1499
  688MOL0     C94826   4.113   2.891   4.750  0.0800 -0.2542 -0.6897
  688MOL0     C94827   4.047   2.871   4.612 -0.2800 -0.5357 -0.2541
  688MOL0     C94828   4.141   2.783   4.521  0.3912  0.2377 -0.5717
  688MOL0     C94829   4.252   2.862   4.471 -0.3752  0.2136 -0.6342
  688MOL0     O94830   4.351   2.779   4.412 -0.3695 -0.5663  0.0501
  688MOL0     C94831   4.473   2.758   4.475  0.4707 -0.2581 -0.6361
  688MOL0     C94832   4.494   2.746   4.617 -0.0067 -0.7641  0.0257
  688MOL0     C94833   4.630   2.748   4.668 -0.5537 -0.8966  0.5219
  688MOL0     C94834   4.636   2.751   4.816  0.5467  1.0520  0.0112
  688MOL0     C94835   4.739   2.734   4.577  0.0780  1.6215 -0.5282
  688MOL0     C94836   4.870   2.692   4.632 -0.0964  0.0266  0.5384
  688MOL0     O94837   4.928   2.576   4.587  0.4474 -0.3175 -0.3498
  688MOL0     C94838   5.048   2.548   4.649  0.3146 -0.2909 -0.6924
  688MOL0     C94839   5.158   2.543   4.575 -0.2142  0.1030 -0.0367
  688MOL0     C94840   5.280   2.499   4.622 -0.5501 -0.1692  0.3829
  688MOL0     C94841   5.291   2.466   4.755  0.5721 -0.5439 -0.5852
  688MOL0     O94842   5.419   2.421   4.794  0.6238  0.2227 -1.1394
  688MOL0     C94843   5.436   2.278   4.773  0.1430  0.1062 -0.2621
  688MOL0     C94844   5.594   2.252   4.785  0.1707  0.6400  0.8150
  688MOL0     C94845   5.630   2.102   4.786  0.4320 -0.5078 -0.8394
  688MOL0     C94846   5.779   2.092   4.818 -0.7671  0.1588  0.4327
  688MOL0     C94847   5.799   1.942   4.854  0.1298 -0.2835  0.3098
  688MOL0     C94848   5.942   1.910   4.892  0.9984  0.9188  1.0844
  688MOL0     C94849   5.974   1.967   5.027 -0.5725  0.7290  0.0644
  688MOL0     C94850   6.131   1.986   5.024 -0.4295 -0.2633  0.2911
  688MOL0    Cl94851   6.196   2.124   4.918 -0.2103 -0.2955  0.2341
  688MOL0     C94852   5.172   2.456   4.837  0.0174  0.2778 -0.0007
  688MOL0     C94853   5.051   2.497   4.781  0.2705 -0.0422  0.0506
  688MOL0     O94854   4.920   2.771   4.711  0.6206  0.0762 -0.9561
  688MOL0     C94855   4.708   2.738   4.442 -0.7731  0.4911  0.7102
  688MOL0     C94856   4.579   2.745   4.387 -0.0348 -0.3384 -0.4375
  688MOL0     N94857   3.900   2.922   4.892 -0.6475  0.0440  0.1763
  688MOL0     N94858   3.861   3.034   4.949  0.4025 -0.0670  0.4150
  688MOL0     C94859   2.823   3.413   4.754  0.5307  0.3482 -0.3471
  688MOL0     C94860   2.693   3.465   4.746 -0.3022 -0.5480  0.5619
  688MOL0     C94861   2.368   3.784   4.727  0.3351  0.0857 -0.0088
  688MOL0     C94862   2.299   3.750   4.848  0.4361 -0.0773  0.4535
  688MOL0     C94863   2.170   3.808   4.873  0.2905  0.6907  0.4180
  688MOL0     C94864   2.110   3.889   4.776  0.2555  0.3512  0.0069
  688MOL0     O94865   1.986   3.919   4.789  0.0311 -0.7062  0.0607
  688MOL0     C94866   1.945   4.046   4.736 -0.0598 -0.4079  0.1039
  688MOL0     C94867   1.849   4.026   4.612  0.4329 -0.1842  0.1934
  688MOL0     C94868   1.762   4.145   4.574 -0.4964  0.1575  0.8963
  688MOL0     C94869   1.646   4.125   4.468 -0.1003 -0.5354  0.1220
  688MOL0     C94870   1.683   4.016   4.370  0.4624 -0.5263  0.0602
  688MOL0     C94871   1.703   3.917   4.304 -0.4659 -0.5550  0.1256
  688MOL0     C94872   2.175   3.914   4.651  0.0639  0.5237  0.5422
  688MOL0     C94873   2.295   3.857   4.622 -0.3185  0.3214 -0.6444
  688MOL0     C94874   2.340   3.870   4.481  0.3705  0.1820 -0.0961
  688MOL0     H94875   2.747   3.782   4.850  3.0564  2.3202 -0.7477
  688MOL0     H94876   2.989   3.705   4.793 -1.4724  1.2066 -0.8259
  688MOL0     H94877   3.114   3.542   4.948 -1.0732  0.1427 -1.0089
  688MOL0     H94878   3.186   3.588   4.781  0.4398 -1.0136 -1.4466
  688MOL0     H94879   3.263   3.364   4.975  1.8578  0.2567  0.3470
  688MOL0     H94880   3.311   3.379   4.796 -2.9354  1.2904 -1.5265
  688MOL0     H94881   3.410   3.584   4.842 -0.6269 -0.5154 -0.8820
  688MOL0     H94882   3.365   3.580   5.015  0.2518  0.6076 -0.8022
  688MOL0     H94883   3.497   3.401   5.063 -0.9585 -2.0729 -0.4865
  688MOL0     H94884   3.517   3.352   4.892 -0.2358  0.5675  0.2666
  688MOL0     H94885   3.621   3.609   5.015  0.5242 -0.3367  0.9695
  688MOL0     H94886   3.661   3.567   4.853  1.0605  1.5767  0.5559
  688MOL0     H94887   3.836   3.531   5.025 -0.7199  1.0746 -0.9245
  688MOL0     H94888   3.723   3.422   5.109 -3.9509 -2.0941 -2.0116
  688MOL0     H94889   3.817   3.370   4.817  0.0105  0.0248  0.8635
  688MOL0     H94890   3.724   3.266   4.924 -1.2629  0.9523  1.9936
  688MOL0     H94891   4.022   3.328   4.972 -1.5542  1.7528  1.3541
  688MOL0     H94892   3.912   3.255   5.085 -0.6344 -1.4500  0.0154
  688MOL0     H94893   4.136   3.152   4.814 -0.1705  2.1880  2.6369
  688MOL0     H94894   4.131   2.801   4.809 -1.7848 -0.3323 -0.1869
  688MOL0     H94895   4.205   2.950   4.746 -0.3289  0.4431 -0.0743
  688MOL0     H94896   3.951   2.820   4.621 -1.5883  1.2788 -2.8866
  688MOL0     H94897   4.030   2.966   4.561 -0.7133  0.6509  1.9703
  688MOL0     H94898   4.173   2.696   4.580  0.6478 -2.8229 -4.7802
  688MOL0     H94899   4.073   2.744   4.444  2.5299 -0.2231 -2.3316
  688MOL0     H94900   4.206   2.930   4.398  0.0409  1.3822  0.1606
  688MOL0     H94901   4.292   2.929   4.548  0.1674  3.7534 -3.7477
  688MOL0     H94902   4.408   2.758   4.684  2.4260 -1.4045  3.5513
  688MOL0     H94903   4.597   2.660   4.863 -3.5564  2.0345 -1.1035
  688MOL0     H94904   4.580   2.834   4.858 -0.3702 -0.5372  2.0492
  688MOL0     H94905   4.731   2.753   4.870  0.3396 -3.7694  1.0136
  688MOL0     H94906   5.149   2.570   4.471  0.7436 -2.1912 -0.7826
  688MOL0     H94907   5.364   2.486   4.554  0.2952  1.5432  1.0419
  688MOL0     H94908   5.381   2.223   4.850  0.9972 -2.1608 -1.1744
  688MOL0     H94909   5.407   2.251   4.671  3.4789  2.1217 -1.9309
  688MOL0     H94910   5.634   2.291   4.691 -1.5957  0.2263 -0.1624
  688MOL0     H94911   5.646   2.304   4.866  3.2562  4.1125 -2.9154
  688MOL0     H94912   5.601   2.058   4.691  0.2946  1.7352 -1.9159
  688MOL0     H94913   5.576   2.055   4.868  3.5266 -1.0298  1.0543
  688MOL0     H94914   5.800   2.172   4.890 -0.6944  1.2316 -0.7476
  688MOL0     H94915   5.841   2.107   4.729 -2.8179  1.5504 -0.8431
  688MOL0     H94916   5.730   1.909   4.932 -3.0825  3.1582 -0.7750
  688MOL0     H94917   5.781   1.882   4.765  2.7835 -4.6717  2.4047
  688MOL0     H94918   6.016   1.958   4.826  2.9065  1.2669  3.3357
  688MOL0     H94919   5.974   1.806   4.890  2.2516  1.2881  0.4444
  688MOL0     H94920   5.959   1.887   5.100 -0.4174 -1.4848 -2.2103
  688MOL0     H94921   5.932   2.065   5.050  0.1212  0.5546  2.2762
  688MOL0     H94922   6.181   1.893   4.997 -2.1889 -1.1783  0.0432
  688MOL0     H94923   6.158   2.012   5.127 -3.4187  2.3117  0.5840
  688MOL0     H94924   5.181   2.412   4.936  2.1447 -0.3673 -0.4159
  688MOL0     H94925   4.958   2.492   4.838  0.2876  3.3447  0.5897
  688MOL0     H94926   4.779   2.713   4.364 -1.2741  0.4157  0.2747
  688MOL0     H94927   4.554   2.729   4.283 -1.2333 -3.0791  0.1878
  688MOL0     H94928   2.845   3.313   4.719  0.5860  0.1276  0.3151
  688MOL0     H94929   2.610   3.405   4.709 -0.5739  0.6690 -0.9028
  688MOL0     H94930   2.344   3.687   4.924 -1.6332 -4.0506 -1.3509
  688MOL0     H94931   2.112   3.763   4.953 -2.1457  0.0383 -1.5801
  688MOL0     H94932   1.886   4.099   4.812 -0.8724 -0.3602 -0.5499
  688MOL0     H94933   2.029   4.109   4.705  0.7824 -1.2446  0.6173
  688MOL0     H94934   1.779   3.943   4.620 -0.4405  0.6908  2.0349
  688MOL0     H94935   1.910   3.991   4.528 -2.5553 -1.5686 -1.5867
  688MOL0     H94936   1.728   4.189   4.668  0.8541  0.5344  1.2353
  688MOL0     H94937   1.829   4.223   4.537  0.5311 -0.5332  1.2620
  688MOL0     H94938   1.601   4.213   4.422 -1.0634 -1.4907 -0.8283
  688MOL0     H94939   1.566   4.087   4.533 -0.1409  0.4265  0.6559
  688MOL0     H94940   1.703   3.825   4.249  2.5301 -0.8579  0.4883
  688MOL0     H94941   2.134   3.976   4.573  0.5359  0.1700  0.0057
  688MOL0     H94942   2.361   3.769   4.444 -2.6650 -1.1503  1.4330
  688MOL0     H94943   2.261   3.915   4.420  0.1256  0.5062  0.4507
  688MOL0     H94944   2.433   3.925   4.486  0.3896  0.0278  1.7462
  689MOL0     O94945  10.216   5.634   8.728  0.4683 -0.3361 -0.5880
  689MOL0     C94946  10.127   5.712   8.772 -1.0962  0.3107 -0.5437
  689MOL0     O94947  10.134   5.849   8.792 -0.5997 -0.0330 -0.0819
  689MOL0     C94948  10.239   5.907   8.738 -0.9684 -0.6851  0.3338
  689MOL0     C94949  10.361   5.893   8.800  0.4379  1.4757  0.8767
  689MOL0     C94950  10.469   5.974   8.765  0.6237 -0.8999 -0.1273
  689MOL0     C94951  10.464   6.040   8.643  0.1058 -0.2318 -0.1698
  689MOL0     O94952  10.579   6.111   8.612  0.6091 -0.1656  0.3008
  689MOL0     C94953  10.607   6.154   8.484  0.1792  0.3807 -0.6680
  689MOL0     C94954  10.747   6.216   8.482  0.3873 -0.8891 -0.0575
  689MOL0     C94955  10.783   6.258   8.343 -0.6202 -0.2965  0.1906
  689MOL0     C94956  10.914   6.333   8.334  0.1851 -0.5054 -0.4856
  689MOL0     C94957  10.940   6.372   8.187  1.2017 -0.6087  0.4801
  689MOL0     C94958  11.085   6.418   8.178  0.5359  0.6518 -1.3433
  689MOL0     C94959  11.120   6.449   8.037  0.0787  0.2347  0.0248
  689MOL0     C94960  11.254   6.514   8.009  0.6831 -0.3765 -1.0189
  689MOL0     N94961  11.364   6.421   8.016  0.9089 -0.3880 -0.2697
  689MOL0     C94962  11.414   6.382   8.140 -0.8153 -0.7317 -0.6284
  689MOL0     C94963  11.492   6.272   8.118 -0.3352  1.2500  0.4951
  689MOL0     C94964  11.566   6.170   8.203 -0.0096  0.0496 -1.3379
  689MOL0     C94965  11.514   6.182   8.350  0.1075  0.6589  0.2134
  689MOL0     C94966  11.372   6.120   8.363  0.6504 -0.6857 -0.1379
  689MOL0     C94967  11.330   6.109   8.512 -0.7175 -0.1113 -0.3440
  689MOL0     O94968  11.411   6.016   8.588  0.4287 -0.2267  0.4351
  689MOL0     C94969  11.377   5.879   8.588 -0.5971 -0.8544  0.2503
  689MOL0     C94970  11.271   5.821   8.519  0.5069  0.2941  0.5888
  689MOL0     C94971  11.237   5.681   8.526 -0.0644  0.4999  0.6021
  689MOL0     C94972  11.120   5.636   8.440 -0.0581 -0.8217 -0.7010
  689MOL0     C94973  11.319   5.602   8.612 -1.0758  0.0023 -0.2169
  689MOL0     C94974  11.300   5.460   8.640  0.1248 -1.3848  0.7575
  689MOL0     O94975  11.352   5.412   8.757 -0.1111 -0.7469 -0.3564
  689MOL0     C94976  11.349   5.275   8.777  0.3752  0.0850 -0.7362
  689MOL0     C94977  11.227   5.202   8.771 -0.2344 -0.1389 -0.6909
  689MOL0     C94978  11.234   5.066   8.816  0.8972 -0.3609 -0.3935
  689MOL0     C94979  11.355   5.011   8.869  0.5499  0.3086 -0.1336
  689MOL0     O94980  11.377   4.881   8.888 -0.2840 -0.0684 -0.0838
  689MOL0     C94981  11.290   4.819   8.984  0.0532 -0.0247 -0.2033
  689MOL0     C94982  11.356   4.693   9.047 -0.3449 -0.1845 -0.1469
  689MOL0     C94983  11.277   4.610   9.149  0.4228 -0.6964 -0.4294
  689MOL0     C94984  11.360   4.501   9.215 -0.0954  1.1138  0.3053
  689MOL0     C94985  11.427   4.539   9.342  0.8115 -0.0050 -0.0274
  689MOL0     C94986  11.553   4.442   9.366  0.4778 -0.3146 -0.5475
  689MOL0     C94987  11.619   4.495   9.504  0.0696 -0.2573  0.2498
  689MOL0     C94988  11.757   4.441   9.517  0.5010 -0.2738 -0.2190
  689MOL0    Cl94989  11.779   4.266   9.468  0.1552 -0.1619 -0.0832
  689MOL0     C94990  11.467   5.082   8.875 -0.0504  0.3529 -0.3081
  689MOL0     C94991  11.464   5.216   8.831  0.0152  0.3566 -0.3201
  689MOL0     O94992  11.225   5.396   8.569  0.5125 -0.4817  0.0798
  689MOL0     C94993  11.433   5.671   8.675 -0.5619  0.2914  0.1815
  689MOL0     C94994  11.463   5.809   8.663 -0.4439 -0.2396  0.4317
  689MOL0     N94995  11.488   6.253   7.974 -0.4200 -0.5037  0.2808
  689MOL0     N94996  11.411   6.342   7.918  0.0343 -0.3160  0.0057
  689MOL0     C94997  10.342   6.059   8.580  0.0520  1.0474  0.3931
  689MOL0     C94998  10.228   5.992   8.629 -0.8780 -0.0578  0.2919
  689MOL0     C94999  10.002   5.641   8.816  0.6154 -0.5526 -0.4056
  689MOL0     C95000   9.927   5.710   8.907  0.3607 -0.6652 -0.3767
  689MOL0     C95001   9.801   5.661   8.953  1.3791  0.0774  0.8205
  689MOL0     C95002   9.763   5.529   8.912  0.7312  0.8578 -0.6337
  689MOL0     O95003   9.643   5.473   8.961  0.1834 -0.1538  0.1992
  689MOL0     C95004   9.544   5.454   8.859  1.1712 -0.3279  0.4007
  689MOL0     C95005   9.489   5.591   8.816 -0.7074 -0.8228 -0.8737
  689MOL0     C95006   9.430   5.675   8.934 -0.0909  0.2426  0.3234
  689MOL0     C95007   9.338   5.788   8.887  0.1568  0.7655  0.2879
  689MOL0     C95008   9.204   5.734   8.850 -0.0171 -0.3963 -0.7634
  689MOL0     C95009   9.099   5.682   8.838  0.1585  0.1213 -0.0980
  689MOL0     C95010   9.846   5.454   8.833  0.4673 -0.0229  0.0907
  689MOL0     C95011   9.958   5.507   8.784 -0.3214  0.4996  0.0970
  689MOL0     C95012  10.042   5.413   8.699 -0.2775  0.4039 -0.5458
  689MOL0     H95013  10.365   5.822   8.881 -0.3520  1.3044  0.7744
  689MOL0     H95014  10.553   5.977   8.834 -0.2082 -0.9426  0.9159
  689MOL0     H95015  10.538   6.234   8.454 -0.6361  0.3384  0.9903
  689MOL0     H95016  10.601   6.071   8.413 -0.7554 -1.0366  0.9756
  689MOL0     H95017  10.760   6.306   8.542 -0.0598 -1.7248  1.3520
  689MOL0     H95018  10.817   6.145   8.528  0.1461 -0.5373  0.8909
  689MOL0     H95019  10.797   6.166   8.284 -1.5611  0.5887 -1.5018
  689MOL0     H95020  10.707   6.316   8.291 -1.9598 -3.3089 -1.5359
  689MOL0     H95021  10.923   6.416   8.405  0.8545 -1.5248  0.6400
  689MOL0     H95022  10.988   6.254   8.349  0.9439 -0.2555 -2.5416
  689MOL0     H95023  10.876   6.452   8.149  2.4079  0.6996  1.0903
  689MOL0     H95024  10.921   6.286   8.122  0.7725 -0.9326  1.0248
  689MOL0     H95025  11.099   6.507   8.239 -1.3459 -0.2836  0.5900
  689MOL0     H95026  11.146   6.337   8.218 -0.4921 -0.1559 -1.3676
  689MOL0     H95027  11.045   6.511   7.987  0.2165  0.4467  0.0838
  689MOL0     H95028  11.117   6.348   7.994 -0.9002 -0.0236  0.6503
  689MOL0     H95029  11.243   6.562   7.911 -1.6293  0.8453 -0.2341
  689MOL0     H95030  11.274   6.598   8.076  0.6843 -1.1628 -0.0196
  689MOL0     H95031  11.389   6.429   8.235  1.0592 -1.3042  0.1856
  689MOL0     H95032  11.675   6.185   8.205 -0.1482  1.2075  0.4133
  689MOL0     H95033  11.561   6.067   8.168 -0.6803 -1.4017  2.4837
  689MOL0     H95034  11.571   6.118   8.419 -2.3911 -1.8440  0.1360
  689MOL0     H95035  11.499   6.283   8.388 -1.2122  0.9386 -0.9839
  689MOL0     H95036  11.292   6.176   8.315  0.6551 -2.2071 -2.0525
  689MOL0     H95037  11.377   6.018   8.325  0.8025 -0.8995  0.4578
  689MOL0     H95038  11.350   6.204   8.562 -3.2117  0.6227 -0.5812
  689MOL0     H95039  11.222   6.090   8.514 -1.4891  3.1426 -2.7781
  689MOL0     H95040  11.212   5.882   8.451 -0.2382  0.0376  0.9913
  689MOL0     H95041  11.143   5.583   8.347 -2.0234  3.3221 -3.8817
  689MOL0     H95042  11.064   5.716   8.390  0.6665 -1.4970 -2.6878
  689MOL0     H95043  11.049   5.585   8.505  0.7541 -0.8218  0.2033
  689MOL0     H95044  11.132   5.239   8.734  0.5053  1.6583 -0.8996
  689MOL0     H95045  11.151   4.997   8.800  0.9331 -0.1221 -1.7342
  689MOL0     H95046  11.267   4.869   9.079 -1.6469 -4.3581  1.9295
  689MOL0     H95047  11.194   4.801   8.936 -0.4948  3.4175 -0.6809
  689MOL0     H95048  11.390   4.633   8.962  2.0914  1.0346 -0.1416
  689MOL0     H95049  11.447   4.729   9.097 -1.4348  1.5454  0.6665
  689MOL0     H95050  11.191   4.562   9.102  0.4113 -2.9109  1.6305
  689MOL0     H95051  11.228   4.677   9.221 -0.5417  0.6039 -2.2198
  689MOL0     H95052  11.433   4.470   9.139 -0.5624 -2.5450  1.1489
  689MOL0     H95053  11.305   4.408   9.231  1.0905 -0.1006 -2.0077
  689MOL0     H95054  11.449   4.646   9.348  1.2123 -0.1453  1.2718
  689MOL0     H95055  11.353   4.519   9.420 -1.7473 -0.4357 -2.4086
  689MOL0     H95056  11.621   4.459   9.283  1.2070  0.9216  0.2777
  689MOL0     H95057  11.533   4.334   9.372  0.8729 -0.4008 -0.7229
  689MOL0     H95058  11.559   4.452   9.585  0.3849 -1.8427 -0.3173
  689MOL0     H95059  11.610   4.601   9.526  1.9185 -0.3272  1.6116
  689MOL0     H95060  11.784   4.445   9.623 -1.7292  3.4526  0.4267
  689MOL0     H95061  11.825   4.504   9.458  2.4229 -1.1058  1.0243
  689MOL0     H95062  11.568   5.056   8.905  0.5071 -0.1311 -2.4952
  689MOL0     H95063  11.555   5.274   8.826 -0.7703  1.5866 -0.9723
  689MOL0     H95064  11.504   5.609   8.728 -1.7440 -2.2829 -1.0793
  689MOL0     H95065  11.549   5.853   8.712  1.7861 -3.9103  0.2442
  689MOL0     H95066  10.329   6.137   8.505  0.9382  1.8889  1.0920
  689MOL0     H95067  10.133   6.010   8.580 -0.3822 -1.0601 -1.1014
  689MOL0     H95068   9.953   5.802   8.959 -2.5553 -0.5121  1.0623
  689MOL0     H95069   9.734   5.718   9.016 -0.9720 -0.9662 -0.6153
  689MOL0     H95070   9.578   5.394   8.774 -2.3143 -1.7651 -0.1382
  689MOL0     H95071   9.465   5.390   8.900  0.7434 -0.8567 -1.1949
  689MOL0     H95072   9.413   5.577   8.739  0.0164 -2.0053 -1.3940
  689MOL0     H95073   9.567   5.656   8.773 -2.8881  0.7012 -2.8098
  689MOL0     H95074   9.380   5.606   9.002  1.6008 -1.2281  0.1622
  689MOL0     H95075   9.513   5.722   8.988 -0.5138  2.6884 -1.0235
  689MOL0     H95076   9.384   5.841   8.803 -1.7891 -1.3598 -2.3006
  689MOL0     H95077   9.321   5.852   8.974 -0.2434 -0.4339  1.1064
  689MOL0     H95078   9.006   5.627   8.837  1.0902 -1.5229 -1.1978
  689MOL0     H95079   9.808   5.356   8.807 -0.4692  0.9830 -2.7046
  689MOL0     H95080   9.999   5.315   8.675  1.1933  0.0471 -1.9604
  689MOL0     H95081  10.072   5.459   8.604 -0.4647  1.1558 -0.2429
  689MOL0     H95082  10.134   5.390   8.754 -0.0218  0.5173 -0.9208
  690MOL0     O95083   8.402   0.842   0.510  0.2859 -0.0531 -0.3679
  690MOL0     C95084   8.320   0.748   0.518 -0.3101 -0.0679  1.1680
  690MOL0     O95085   8.348   0.630   0.582  0.3042  0.8049 -0.7430
  690MOL0     C95086   8.480   0.602   0.622  0.7718  0.1451  0.0371
  690MOL0     C95087   8.571   0.547   0.530 -0.5631 -0.4476  0.9227
  690MOL0     C95088   8.705   0.531   0.563 -0.9198 -0.3005 -0.0252
  690MOL0     C95089   8.751   0.581   0.685 -0.6079  0.5175 -0.3401
  690MOL0     O95090   8.887   0.581   0.712  0.6021 -0.4642  0.4114
  690MOL0     C95091   8.970   0.667   0.621  1.4491  0.7760  0.0096
  690MOL0     C95092   9.095   0.706   0.701  0.1999 -0.3766 -0.1076
  690MOL0     C95093   9.186   0.777   0.601 -0.2133  0.1812  0.2180
  690MOL0     C95094   9.331   0.807   0.651  0.3182  0.1254  0.1614
  690MOL0     C95095   9.420   0.836   0.532 -0.3836  0.6962 -0.0861
  690MOL0     C95096   9.575   0.820   0.567  0.6030 -0.1378 -0.0725
  690MOL0     C95097   9.657   0.919   0.476 -0.7072  0.7913 -0.1921
  690MOL0     C95098   9.813   0.901   0.511  0.7901 -1.4371  0.1691
  690MOL0     N95099   9.902   0.994   0.437 -0.1020  0.7830  0.1687
  690MOL0     C95100   9.929   0.987   0.307 -0.0506 -0.0047  0.2878
  690MOL0     C95101  10.014   1.089   0.279  0.3214  0.0469 -0.3092
  690MOL0     C95102  10.060   1.130   0.144 -0.7411  0.0715  1.3805
  690MOL0     C95103  10.211   1.092   0.116  0.1518 -0.7587  0.0203
  690MOL0     C95104  10.243   1.122  -0.035 -0.8324 -0.4561  0.1552
  690MOL0     C95105  10.178   1.027  -0.131  0.1578  0.9076 -0.2976
  690MOL0     O95106  10.223   1.060  -0.261  0.2799  0.4131 -0.1395
  690MOL0     C95107  10.334   0.986  -0.298  0.3590  0.4287  0.3538
  690MOL0     C95108  10.455   1.051  -0.305 -0.3155 -0.3785 -0.2444
  690MOL0     C95109  10.573   0.991  -0.357 -0.2262  0.2864  0.3903
  690MOL0     C95110  10.696   1.078  -0.367 -0.0976  0.2589  0.9091
  690MOL0     C95111  10.568   0.854  -0.406 -0.2885 -0.8116 -1.0314
  690MOL0     C95112  10.673   0.775  -0.484  0.3037  0.5004  1.2108
  690MOL0     O95113  10.765   0.839  -0.564  0.1847 -0.3594  0.0133
  690MOL0     C95114  10.863   0.767  -0.626  0.2999  0.3143  0.3380
  690MOL0     C95115  10.835   0.660  -0.711 -0.5923 -0.0462 -0.1616
  690MOL0     C95116  10.934   0.601  -0.782  0.5718  0.1398  0.5641
  690MOL0     C95117  11.067   0.660  -0.780  1.0177 -0.0584  0.5637
  690MOL0     O95118  11.178   0.620  -0.850 -0.5333 -0.4653  0.1924
  690MOL0     C95119  11.182   0.480  -0.879  0.1856 -0.4648 -0.6358
  690MOL0     C95120  11.327   0.448  -0.899  0.1540 -0.0469  0.6988
  690MOL0     C95121  11.396   0.527  -1.015 -0.1939 -0.5108 -0.2260
  690MOL0     C95122  11.540   0.513  -1.004 -0.1426  0.1900 -0.3231
  690MOL0     C95123  11.604   0.599  -1.104  0.2927 -0.3792  0.0359
  690MOL0     C95124  11.756   0.614  -1.088  0.1276  1.0943  0.2301
  690MOL0     C95125  11.838   0.653  -1.214 -0.2012 -0.6069  0.3940
  690MOL0     C95126  11.982   0.672  -1.183 -0.0946 -0.3155 -0.7962
  690MOL0    Cl95127  12.071   0.512  -1.155  0.4542  0.0887  0.4277
  690MOL0     C95128  11.094   0.769  -0.697  0.5644 -0.1176 -0.4227
  690MOL0     C95129  10.993   0.822  -0.623  0.0148  0.1891 -0.5148
  690MOL0     O95130  10.679   0.652  -0.456 -0.0652  0.4390 -0.0552
  690MOL0     C95131  10.440   0.787  -0.384  0.4807 -0.1303  0.1730
  690MOL0     C95132  10.327   0.849  -0.340 -0.0624  0.9330  0.2292
  690MOL0     N95133  10.029   1.165   0.392 -0.2397 -0.4020 -0.2164
  690MOL0     N95134   9.957   1.110   0.484 -0.0650 -0.1665  0.3658
  690MOL0     C95135   8.656   0.613   0.784 -0.6129 -1.0050 -0.8211
  690MOL0     C95136   8.528   0.632   0.750  0.6362 -0.8332  0.0513
  690MOL0     C95137   8.197   0.750   0.430  0.1214 -0.5653 -0.7632
  690MOL0     C95138   8.131   0.630   0.415  0.3454 -0.3446 -0.4175
  690MOL0     C95139   8.002   0.630   0.359 -0.3977  0.0830  0.5779
  690MOL0     C95140   7.944   0.744   0.307 -0.0243 -0.3717 -0.0813
  690MOL0     O95141   7.826   0.720   0.249  0.7535  0.6877  0.4045
  690MOL0     C95142   7.751   0.822   0.194 -0.4562 -0.1021  0.4054
  690MOL0     C95143   7.614   0.778   0.155 -0.8812 -0.7328  0.8243
  690MOL0     C95144   7.521   0.740   0.264  0.0967 -0.0210  0.0954
  690MOL0     C95145   7.380   0.716   0.207  0.5809 -0.0922  0.9257
  690MOL0     C95146   7.372   0.593   0.123  0.3180 -0.3523 -0.0909
  690MOL0     C95147   7.366   0.489   0.055  0.2189 -0.8211  0.5983
  690MOL0     C95148   8.017   0.864   0.306  1.1939  0.0147  0.1256
  690MOL0     C95149   8.143   0.868   0.367  0.2185 -0.3002 -0.0303
  690MOL0     C95150   8.202   1.008   0.362 -0.7946 -0.4983 -0.4381
  690MOL0     H95151   8.528   0.507   0.439 -2.0543  0.7998  1.0303
  690MOL0     H95152   8.781   0.485   0.500  2.1089  3.4527  0.5758
  690MOL0     H95153   8.913   0.756   0.591 -0.9955  0.0146  2.0582
  690MOL0     H95154   8.994   0.607   0.533 -2.3286  0.6329 -1.1195
  690MOL0     H95155   9.076   0.776   0.783 -2.1746  1.9852 -2.4728
  690MOL0     H95156   9.146   0.621   0.747  0.7977  0.8651  1.6501
  690MOL0     H95157   9.186   0.718   0.510 -3.2325  0.8108 -0.2942
  690MOL0     H95158   9.145   0.875   0.575 -0.1768 -0.3671 -2.0255
  690MOL0     H95159   9.333   0.897   0.713  0.8404  2.0600 -2.4846
  690MOL0     H95160   9.360   0.724   0.716 -1.4264 -1.2857 -0.7654
  690MOL0     H95161   9.394   0.932   0.487 -1.6606  0.7062  0.6404
  690MOL0     H95162   9.398   0.762   0.454  0.8817 -2.4320  2.2672
  690MOL0     H95163   9.602   0.844   0.670  0.9370 -0.0774 -0.1746
  690MOL0     H95164   9.602   0.719   0.536  2.1486  0.4618 -0.7725
  690MOL0     H95165   9.633   1.024   0.494  0.7704  0.8413  1.8598
  690MOL0     H95166   9.626   0.895   0.374 -2.5710  3.1034 -0.2653
  690MOL0     H95167   9.827   0.920   0.618  0.4829 -0.9372  0.1277
  690MOL0     H95168   9.842   0.801   0.478  0.2826 -1.1865 -1.1114
  690MOL0     H95169   9.885   0.915   0.238 -0.3928 -1.8285  2.2777
  690MOL0     H95170  10.056   1.239   0.142  0.6456  0.1603 -0.8547
  690MOL0     H95171   9.989   1.083   0.075  0.3245  2.0673 -1.2575
  690MOL0     H95172  10.282   1.149   0.178 -2.1245  1.0474  1.1559
  690MOL0     H95173  10.238   0.989   0.139  0.9767 -0.1824  1.8849
  690MOL0     H95174  10.221   1.228  -0.052 -0.5471  0.0877  2.7644
  690MOL0     H95175  10.350   1.105  -0.048 -0.7541  0.5471 -0.6504
  690MOL0     H95176  10.192   0.921  -0.106 -1.8682  0.4942 -0.6898
  690MOL0     H95177  10.070   1.037  -0.119 -0.3592 -0.8187 -2.7204
  690MOL0     H95178  10.457   1.156  -0.276 -0.4405 -0.3831 -0.2203
  690MOL0     H95179  10.694   1.159  -0.294 -0.5834  1.9118 -0.8775
  690MOL0     H95180  10.697   1.126  -0.465 -0.6040  1.0865  1.2927
  690MOL0     H95181  10.787   1.022  -0.344  1.0719  2.0438  0.7930
  690MOL0     H95182  10.731   0.631  -0.720 -0.6908 -0.0330  0.8356
  690MOL0     H95183  10.910   0.520  -0.850 -1.3561  1.2888 -0.2220
  690MOL0     H95184  11.146   0.414  -0.800  1.2767  0.6720  0.8824
  690MOL0     H95185  11.114   0.470  -0.964 -0.2855 -0.4419 -0.2684
  690MOL0     H95186  11.387   0.469  -0.810  1.3495 -0.0904 -0.0817
  690MOL0     H95187  11.342   0.341  -0.918  2.4119  0.3532 -0.0247
  690MOL0     H95188  11.366   0.632  -1.023  2.1898  0.1356 -2.0858
  690MOL0     H95189  11.364   0.490  -1.113  3.0475  1.1814 -2.0885
  690MOL0     H95190  11.568   0.409  -1.024 -0.1983  0.1995 -0.4500
  690MOL0     H95191  11.571   0.543  -0.903 -0.7292  0.2070 -0.1429
  690MOL0     H95192  11.581   0.569  -1.207  1.3401 -2.4469  0.3421
  690MOL0     H95193  11.568   0.702  -1.101  0.4177 -0.3533  0.8323
  690MOL0     H95194  11.801   0.523  -1.048 -1.9835  1.0053  2.6586
  690MOL0     H95195  11.771   0.691  -1.012  0.9829 -0.6325  1.8842
  690MOL0     H95196  11.783   0.739  -1.252  0.4601  0.0187  0.8388
  690MOL0     H95197  11.840   0.572  -1.287  1.4421 -0.0617 -0.2161
  690MOL0     H95198  11.977   0.725  -1.087 -1.1394 -2.7264  0.5529
  690MOL0     H95199  12.034   0.733  -1.259 -0.4567  0.8665 -0.1253
  690MOL0     H95200  11.192   0.817  -0.697  1.1415 -1.2391  0.9039
  690MOL0     H95201  11.018   0.908  -0.561  3.1718 -1.2935  0.4940
  690MOL0     H95202  10.421   0.692  -0.433 -1.7312  0.0691  0.5543
  690MOL0     H95203  10.234   0.793  -0.333  0.6715 -0.4913 -0.7541
  690MOL0     H95204   8.691   0.628   0.885  3.4456  0.1171 -2.1742
  690MOL0     H95205   8.450   0.664   0.817  2.1812  1.2681  0.9601
  690MOL0     H95206   8.164   0.533   0.452  1.3412 -1.0944 -3.0386
  690MOL0     H95207   7.946   0.538   0.342 -0.6154  0.1896  0.7176
  690MOL0     H95208   7.733   0.909   0.258 -2.2652 -0.0008 -0.1831
  690MOL0     H95209   7.789   0.872   0.104 -2.6723 -1.5827 -1.4498
  690MOL0     H95210   7.615   0.705   0.073  0.3534  2.2257 -1.9986
  690MOL0     H95211   7.581   0.875   0.115  2.1781  0.9239  2.0287
  690MOL0     H95212   7.560   0.650   0.314  2.0619  1.8086  2.0459
  690MOL0     H95213   7.519   0.814   0.344 -1.0606  0.9151 -0.7652
  690MOL0     H95214   7.353   0.810   0.157  1.1693  0.2600  1.2628
  690MOL0     H95215   7.309   0.716   0.290  0.9413 -0.1823  1.2375
  690MOL0     H95216   7.371   0.402  -0.006  1.2583 -1.1067  1.0634
  690MOL0     H95217   7.972   0.954   0.264  1.4939 -0.1174 -0.4824
  690MOL0     H95218   8.215   1.052   0.461 -0.8474  2.7533 -1.7337
  690MOL0     H95219   8.299   1.004   0.311 -0.5053 -0.2617  0.0894
  690MOL0     H95220   8.133   1.071   0.306 -1.7277  0.0251  1.2332
  691MOL0     O95221   9.680   1.952   6.788  0.2357  0.0599  0.1607
  691MOL0     C95222   9.611   2.055   6.774 -0.0678 -0.3045  0.2173
  691MOL0     O95223   9.651   2.164   6.702 -1.2729 -0.1231  0.5566
  691MOL0     C95224   9.768   2.131   6.629 -0.0867 -0.4160  1.1167
  691MOL0     C95225   9.882   2.206   6.638 -0.3501 -0.3033  0.4152
  691MOL0     C95226   9.999   2.185   6.563  0.0307 -0.1201  0.5302
  691MOL0     C95227  10.001   2.077   6.475  1.2941 -0.8362  0.5255
  691MOL0     O95228  10.115   2.069   6.411 -0.2515  0.7647  0.2305
  691MOL0     C95229  10.122   1.994   6.285 -0.0469 -0.2169 -0.0650
  691MOL0     C95230  10.251   2.022   6.210  0.3791 -0.1229  0.2083
  691MOL0     C95231  10.377   1.961   6.282 -1.2517 -0.0301 -0.1466
  691MOL0     C95232  10.471   1.897   6.179  0.6517  0.6136 -0.0485
  691MOL0     C95233  10.538   1.991   6.089  0.5305 -0.5792  0.7527
  691MOL0     C95234  10.661   1.930   6.031 -0.3285 -0.1543  0.0323
  691MOL0     C95235  10.721   2.031   5.937 -0.3398  0.0960  0.9280
  691MOL0     C95236  10.867   2.000   5.909 -0.6277 -0.1607  0.3165
  691MOL0     N95237  10.920   2.116   5.837 -0.4801  0.6701  0.5091
  691MOL0     C95238  11.022   2.196   5.878 -0.1538  0.2891  0.3602
  691MOL0     C95239  11.025   2.290   5.777  0.2103  0.4600 -0.2996
  691MOL0     C95240  11.124   2.406   5.776 -0.0707 -0.4031 -0.6016
  691MOL0     C95241  11.145   2.459   5.629 -0.4912  0.9886 -0.4026
  691MOL0     C95242  11.032   2.551   5.587 -0.8974 -1.1447  0.5523
  691MOL0     C95243  11.068   2.599   5.441  0.4644 -0.1697  0.0539
  691MOL0     O95244  11.160   2.711   5.449 -0.0614 -0.3502 -0.2400
  691MOL0     C95245  11.226   2.759   5.341 -0.1111 -0.3066  0.5348
  691MOL0     C95246  11.343   2.826   5.365  0.0542 -0.3153  0.5691
  691MOL0     C95247  11.411   2.899   5.261 -0.3141  0.2009  0.2688
  691MOL0     C95248  11.544   2.964   5.294 -0.5734 -0.5547  0.7038
  691MOL0     C95249  11.350   2.901   5.135  0.2419 -0.3242  0.0445
  691MOL0     C95250  11.414   2.974   5.025 -0.5350 -0.2432 -0.1300
  691MOL0     O95251  11.394   3.104   5.009  0.2167  0.2665  0.3873
  691MOL0     C95252  11.277   3.164   5.056 -0.5381 -0.2527  0.0049
  691MOL0     C95253  11.150   3.154   5.004 -0.6104 -0.0482  0.3391
  691MOL0     C95254  11.043   3.223   5.053  0.2402  0.4613  0.4110
  691MOL0     C95255  11.055   3.307   5.163  0.1226 -0.1827  0.2537
  691MOL0     O95256  10.939   3.368   5.207 -0.1117 -0.0207  0.3241
  691MOL0     C95257  10.948   3.502   5.252 -0.2076  0.1221 -0.6213
  691MOL0     C95258  10.828   3.530   5.343  0.1844 -0.7851 -0.2231
  691MOL0     C95259  10.818   3.665   5.403 -0.5252  0.8538  0.3842
  691MOL0     C95260  10.689   3.685   5.483 -0.3514 -1.0014 -0.1454
  691MOL0     C95261  10.685   3.823   5.558  0.2015  0.4124  0.1044
  691MOL0     C95262  10.552   3.874   5.621 -0.4588  0.4722 -0.1974
  691MOL0     C95263  10.491   3.776   5.727  0.7496  0.5995  0.4383
  691MOL0     C95264  10.398   3.851   5.830  0.5058 -0.6941 -0.5439
  691MOL0    Cl95265  10.275   3.963   5.738  0.0239  0.0652 -0.4133
  691MOL0     C95266  11.184   3.321   5.221  0.8484 -0.1293  0.2708
  691MOL0     C95267  11.299   3.250   5.169  0.1353  0.3911 -0.3432
  691MOL0     O95268  11.495   2.909   4.962 -0.0535  0.0039  0.0603
  691MOL0     C95269  11.244   2.811   5.110 -0.2308 -0.6093 -0.2553
  691MOL0     C95270  11.181   2.742   5.211 -0.4657 -0.0657  0.7328
  691MOL0     N95271  10.943   2.258   5.677  0.5052 -0.1193  0.3619
  691MOL0     N95272  10.877   2.151   5.709 -0.0842 -0.5567  0.3724
  691MOL0     C95273   9.883   2.001   6.453  0.2138  1.1067  0.0351
  691MOL0     C95274   9.770   2.029   6.530 -0.3058 -0.3745 -0.2614
  691MOL0     C95275   9.476   2.062   6.848 -0.6261  0.7815 -0.4039
  691MOL0     C95276   9.423   1.938   6.889 -0.5183 -0.0783 -0.8154
  691MOL0     C95277   9.304   1.937   6.960  0.5219  0.4161  0.4934
  691MOL0     C95278   9.222   2.043   6.983 -0.4527  0.3007  0.2438
  691MOL0     O95279   9.102   2.042   7.050 -0.3562 -0.1005 -0.1992
  691MOL0     C95280   9.042   1.912   7.077 -0.2580 -0.7378  0.4293
  691MOL0     C95281   8.893   1.937   7.103  0.3154 -0.3808 -0.3133
  691MOL0     C95282   8.813   1.995   6.996  0.2583  0.2352  0.0576
  691MOL0     C95283   8.820   1.902   6.871 -0.3963 -0.2037  0.5230
  691MOL0     C95284   8.705   1.935   6.791  0.2457 -0.1800  0.0979
  691MOL0     C95285   8.603   1.951   6.726 -0.9686  0.9032 -0.1062
  691MOL0     C95286   9.274   2.160   6.934  0.0004 -0.9303 -1.2643
  691MOL0     C95287   9.396   2.178   6.866 -0.2295  0.3216  0.1535
  691MOL0     C95288   9.436   2.318   6.831  0.6207 -0.8753  0.3557
  691MOL0     H95289   9.890   2.286   6.711  0.3991 -0.6054  0.6811
  691MOL0     H95290  10.071   2.265   6.573 -2.4294  2.0957  2.0480
  691MOL0     H95291  10.033   2.011   6.225 -0.7293 -1.8494  0.4207
  691MOL0     H95292  10.125   1.886   6.303  1.9248 -0.3068 -0.7130
  691MOL0     H95293  10.251   1.978   6.110  1.2382  1.6529 -0.6114
  691MOL0     H95294  10.266   2.129   6.193 -0.5275 -0.0921 -0.4865
  691MOL0     H95295  10.426   2.045   6.333  0.2653  1.2254 -3.3905
  691MOL0     H95296  10.345   1.886   6.354 -0.6511 -0.0499  0.1056
  691MOL0     H95297  10.546   1.845   6.240 -1.6640 -1.4903  1.2122
  691MOL0     H95298  10.419   1.814   6.130 -0.4566 -0.9344  3.4152
  691MOL0     H95299  10.560   2.081   6.146 -1.9713 -0.3347  1.4406
  691MOL0     H95300  10.475   2.024   6.007  1.4290 -0.5905  0.0451
  691MOL0     H95301  10.743   1.902   6.097  0.2652  1.2489 -0.0751
  691MOL0     H95302  10.630   1.839   5.979 -1.3002  0.6594 -0.8556
  691MOL0     H95303  10.715   2.132   5.979 -0.0203  1.1618 -1.4237
  691MOL0     H95304  10.664   2.038   5.844 -0.1186  0.2635  0.8025
  691MOL0     H95305  10.922   1.992   6.003 -3.1014 -1.3195  1.7766
  691MOL0     H95306  10.869   1.898   5.869  1.0023 -2.8355  6.1514
  691MOL0     H95307  11.079   2.182   5.969  1.9049  0.2888 -0.8538
  691MOL0     H95308  11.220   2.371   5.815 -0.7667  0.4214  2.0524
  691MOL0     H95309  11.082   2.486   5.836 -0.1281  1.3316 -2.8256
  691MOL0     H95310  11.241   2.511   5.619  1.3041 -2.3252 -2.3325
  691MOL0     H95311  11.159   2.379   5.556 -0.4390  0.7170 -0.0986
  691MOL0     H95312  10.935   2.501   5.580 -3.1111  2.7114  1.1095
  691MOL0     H95313  11.024   2.640   5.650  0.8134  1.8831 -3.1158
  691MOL0     H95314  11.123   2.519   5.390  0.0041 -1.0530  0.9090
  691MOL0     H95315  10.973   2.624   5.393 -1.4295 -0.2313  3.4337
  691MOL0     H95316  11.371   2.853   5.466  1.7294  2.8569 -0.6034
  691MOL0     H95317  11.627   2.947   5.225 -0.2255  2.1537  0.3476
  691MOL0     H95318  11.577   2.926   5.391  2.3684 -2.3282 -0.8464
  691MOL0     H95319  11.529   3.073   5.300  1.2452 -0.2990  1.4328
  691MOL0     H95320  11.137   3.076   4.929 -1.4905 -0.8395  1.2776
  691MOL0     H95321  10.951   3.214   4.997 -1.5902 -3.7001  3.5441
  691MOL0     H95322  11.033   3.517   5.319 -1.2095  3.5135  0.0374
  691MOL0     H95323  10.957   3.571   5.167  1.4663 -1.5513 -1.9091
  691MOL0     H95324  10.737   3.512   5.285 -1.6249  0.8719  1.8935
  691MOL0     H95325  10.841   3.449   5.415 -1.5256 -0.7682  0.1632
  691MOL0     H95326  10.828   3.748   5.333 -0.7566  0.6351  0.0889
  691MOL0     H95327  10.896   3.677   5.478 -0.8094 -1.4681  1.1250
  691MOL0     H95328  10.675   3.610   5.561 -1.1719 -3.0014 -2.0979
  691MOL0     H95329  10.605   3.683   5.413 -0.8584 -1.6989  0.4696
  691MOL0     H95330  10.758   3.815   5.639  1.2992 -0.7963 -0.9664
  691MOL0     H95331  10.718   3.900   5.489 -1.2204  2.1776  1.2985
  691MOL0     H95332  10.486   3.878   5.534  0.2364 -0.1246 -0.7556
  691MOL0     H95333  10.566   3.977   5.655  1.8537  0.5150 -1.1172
  691MOL0     H95334  10.570   3.719   5.777 -1.0106 -1.5520  0.9290
  691MOL0     H95335  10.439   3.703   5.664  1.6711  1.1198 -0.9835
  691MOL0     H95336  10.451   3.923   5.893 -3.0458  3.2559 -1.5796
  691MOL0     H95337  10.343   3.781   5.893 -2.9125  1.6061 -0.6968
  691MOL0     H95338  11.195   3.392   5.302  0.4433  1.4116 -0.9730
  691MOL0     H95339  11.393   3.267   5.221  0.2124  0.4211 -0.4889
  691MOL0     H95340  11.202   2.789   5.012  0.9532 -0.6093 -0.7784
  691MOL0     H95341  11.100   2.672   5.193 -0.4677 -0.5087  2.3053
  691MOL0     H95342   9.871   1.911   6.394 -0.0339  0.4932  0.9903
  691MOL0     H95343   9.679   1.971   6.517 -0.7843 -0.3436  2.3697
  691MOL0     H95344   9.490   1.855   6.870 -0.9927 -0.4436 -0.9288
  691MOL0     H95345   9.272   1.836   6.984 -1.2664  1.5498  3.3886
  691MOL0     H95346   9.059   1.847   6.990 -1.2757 -0.6284  0.1429
  691MOL0     H95347   9.096   1.863   7.158  1.9781 -1.1288 -1.1889
  691MOL0     H95348   8.885   2.003   7.190  2.1640 -0.3921 -0.0907
  691MOL0     H95349   8.839   1.843   7.119 -4.6097  0.7963 -6.2695
  691MOL0     H95350   8.709   1.990   7.030 -0.5293 -2.8720 -2.3102
  691MOL0     H95351   8.841   2.096   6.966  2.1673 -0.4208 -0.5334
  691MOL0     H95352   8.812   1.797   6.899  1.0758 -1.0414 -1.9182
  691MOL0     H95353   8.914   1.913   6.815 -0.1108  4.5836  1.5383
  691MOL0     H95354   8.511   1.970   6.674 -0.9603 -0.3259 -0.6033
  691MOL0     H95355   9.208   2.243   6.957  0.2196 -1.4847  1.7550
  691MOL0     H95356   9.367   2.393   6.871  0.1047 -1.3963  0.4527
  691MOL0     H95357   9.535   2.337   6.874  0.4121  2.6538 -0.4268
  691MOL0     H95358   9.442   2.336   6.723 -4.4391 -0.4099 -0.0997
  692MOL0     O95359   3.492   3.057   4.014 -0.5419  0.4141 -0.0204
  692MOL0     C95360   3.482   3.124   4.113  0.3984  0.6486  0.3778
  692MOL0     O95361   3.580   3.150   4.195 -0.6267  0.2944  0.0459
  692MOL0     C95362   3.710   3.108   4.169 -0.3789 -0.0329  0.5916
  692MOL0     C95363   3.799   3.164   4.071  0.5703  0.0030  0.0901
  692MOL0     C95364   3.930   3.124   4.059  0.0395  0.2272  0.0367
  692MOL0     C95365   3.988   3.033   4.158  0.3221 -0.1358  0.9549
  692MOL0     O95366   4.123   3.003   4.167  0.7755  0.0362 -0.3147
  692MOL0     C95367   4.210   3.060   4.062 -0.0747  0.4219 -0.0527
  692MOL0     C95368   4.355   3.030   4.090  0.3714  0.1502 -0.0270
  692MOL0     C95369   4.417   3.109   4.208  0.3149 -0.7928  0.5769
  692MOL0     C95370   4.472   3.243   4.152 -0.4712  0.2867  0.1256
  692MOL0     C95371   4.550   3.313   4.261  1.1661  0.5327  0.1270
  692MOL0     C95372   4.610   3.443   4.225  0.3142 -0.1175  0.0229
  692MOL0     C95373   4.725   3.447   4.131  0.7411  0.3874  0.3706
  692MOL0     C95374   4.796   3.576   4.104 -0.3429  0.2907 -0.2915
  692MOL0     N95375   4.909   3.543   4.005  0.4834 -0.0528  0.0688
  692MOL0     C95376   4.895   3.469   3.885 -0.0780 -0.2377 -0.5137
  692MOL0     C95377   5.022   3.467   3.833 -0.4561  0.2034 -0.5749
  692MOL0     C95378   5.058   3.417   3.702 -0.2480  0.7523 -0.2765
  692MOL0     C95379   5.089   3.261   3.711  0.3880  0.3101 -0.0076
  692MOL0     C95380   5.202   3.224   3.807 -0.2276 -0.0716 -0.4508
  692MOL0     C95381   5.340   3.278   3.778 -0.6136 -0.0154  0.2922
  692MOL0     O95382   5.377   3.266   3.640 -0.5659  0.5114 -0.0102
  692MOL0     C95383   5.508   3.287   3.611  0.6963  0.3177  0.1039
  692MOL0     C95384   5.547   3.212   3.509  0.6662  0.4730 -0.2433
  692MOL0     C95385   5.687   3.216   3.465  0.1717  0.4220 -0.3833
  692MOL0     C95386   5.717   3.124   3.352  0.5270 -0.9350  0.2277
  692MOL0     C95387   5.780   3.304   3.526 -0.8158  0.4179 -0.3282
  692MOL0     C95388   5.918   3.329   3.486 -0.9193 -0.3369 -1.0259
  692MOL0     O95389   5.957   3.313   3.358  0.0541  0.9833  0.5659
  692MOL0     C95390   6.087   3.269   3.345  0.9969 -0.1959  0.0148
  692MOL0     C95391   6.118   3.137   3.346  0.4714  0.9548  1.0871
  692MOL0     C95392   6.247   3.105   3.300 -0.3932  0.2627  0.3611
  692MOL0     C95393   6.341   3.198   3.255  0.2742  0.1089 -0.2743
  692MOL0     O95394   6.463   3.171   3.204 -0.1130 -0.1315  0.0762
  692MOL0     C95395   6.512   3.033   3.217  0.2178 -0.3078  0.0341
  692MOL0     C95396   6.654   3.025   3.161 -0.4738  0.3950  0.3853
  692MOL0     C95397   6.661   3.043   3.013  0.5237 -0.1441 -0.1791
  692MOL0     C95398   6.626   2.920   2.930  0.0184  0.3645 -0.3495
  692MOL0     C95399   6.642   2.942   2.773  0.2366  0.4782 -0.7161
  692MOL0     C95400   6.519   3.022   2.727  0.5533  0.0699  0.1158
  692MOL0     C95401   6.520   3.023   2.570  0.0970 -0.2352 -0.4494
  692MOL0     C95402   6.384   3.063   2.510  0.4752 -0.0413  0.3981
  692MOL0    Cl95403   6.376   3.238   2.518 -0.0168  0.3174  0.2007
  692MOL0     C95404   6.300   3.331   3.254 -0.8508 -0.1335  0.2668
  692MOL0     C95405   6.179   3.371   3.308 -0.7267  1.1392 -0.7048
  692MOL0     O95406   5.996   3.372   3.577  0.3524  0.2140  0.5772
  692MOL0     C95407   5.728   3.379   3.626  0.3681  0.0276  0.3960
  692MOL0     C95408   5.596   3.378   3.677  0.2492 -0.1818 -0.0584
  692MOL0     N95409   5.110   3.539   3.915  0.8257 -0.6551 -0.1270
  692MOL0     N95410   5.040   3.575   4.018  0.1022 -0.0157  0.2568
  692MOL0     C95411   3.903   2.970   4.246  0.2423 -0.1320 -0.5535
  692MOL0     C95412   3.767   3.010   4.253  0.8367  0.3082 -0.9141
  692MOL0     C95413   3.352   3.192   4.156 -0.1975 -0.8158  0.4714
  692MOL0     C95414   3.337   3.242   4.289 -0.7921 -1.1633  0.2994
  692MOL0     C95415   3.229   3.310   4.329  0.2532  1.0436 -0.2640
  692MOL0     C95416   3.118   3.330   4.245  0.1539  0.8955 -0.1710
  692MOL0     O95417   2.998   3.386   4.273  0.6437  0.0820 -0.1933
  692MOL0     C95418   2.960   3.396   4.416  1.0380 -0.6173 -0.0072
  692MOL0     C95419   2.826   3.468   4.421 -0.5728 -0.2495  0.0397
  692MOL0     C95420   2.707   3.368   4.402  0.6253  0.5783 -0.5652
  692MOL0     C95421   2.569   3.435   4.369 -0.6559  0.0193  0.2253
  692MOL0     C95422   2.464   3.328   4.396  0.1045  0.2640 -0.3007
  692MOL0     C95423   2.370   3.257   4.420 -0.6454  0.3172  0.4647
  692MOL0     C95424   3.123   3.273   4.122 -0.1510  0.6189 -0.1649
  692MOL0     C95425   3.235   3.200   4.074  0.1857 -0.1830  0.1868
  692MOL0     C95426   3.221   3.129   3.936 -0.4480  0.0291 -0.6178
  692MOL0     H95427   3.762   3.243   4.006 -3.2600 -0.7751  1.0838
  692MOL0     H95428   4.003   3.170   3.993  2.0335 -0.4591  1.6526
  692MOL0     H95429   4.192   3.168   4.063 -2.3658  0.1505 -2.3175
  692MOL0     H95430   4.168   3.016   3.971 -1.1958  2.3534 -0.5316
  692MOL0     H95431   4.360   2.925   4.117 -0.4675  0.1193  0.0230
  692MOL0     H95432   4.411   3.032   3.996  2.2690  0.1805  1.0398
  692MOL0     H95433   4.340   3.118   4.285  2.2753 -3.6005  3.0889
  692MOL0     H95434   4.501   3.057   4.255  0.0316 -0.4619  1.4726
  692MOL0     H95435   4.547   3.213   4.078  1.1955 -1.4539  2.3753
  692MOL0     H95436   4.390   3.300   4.108 -0.5214 -0.5514 -0.9210
  692MOL0     H95437   4.631   3.253   4.305  1.5604  1.4744  0.7205
  692MOL0     H95438   4.484   3.330   4.346  0.0264 -1.3653 -0.3208
  692MOL0     H95439   4.528   3.506   4.189 -0.0072 -0.9103 -0.6723
  692MOL0     H95440   4.644   3.482   4.322  2.6585 -2.1647  0.1279
  692MOL0     H95441   4.686   3.414   4.034 -1.4358  3.2212  0.1230
  692MOL0     H95442   4.797   3.372   4.165 -0.3788 -0.6174  0.5906
  692MOL0     H95443   4.739   3.649   4.046 -0.0134 -1.4508 -3.0188
  692MOL0     H95444   4.829   3.618   4.199 -0.9036 -1.5466  0.7682
  692MOL0     H95445   4.810   3.424   3.834  0.4059 -2.0489  0.2115
  692MOL0     H95446   5.154   3.467   3.684 -1.1000  2.5311 -0.0629
  692MOL0     H95447   4.979   3.440   3.631  0.1580 -0.9069 -1.3270
  692MOL0     H95448   4.995   3.209   3.734  0.5110 -0.4548 -1.1679
  692MOL0     H95449   5.109   3.221   3.611 -0.0900  2.1553 -0.8756
  692MOL0     H95450   5.172   3.260   3.906 -0.0718 -0.3005 -0.3190
  692MOL0     H95451   5.200   3.116   3.824  0.1967 -0.4989 -2.7843
  692MOL0     H95452   5.345   3.385   3.803 -0.5588  1.1091 -3.8172
  692MOL0     H95453   5.412   3.213   3.828 -1.6653 -0.7568  0.8711
  692MOL0     H95454   5.476   3.146   3.461  0.0512  1.7724 -1.1872
  692MOL0     H95455   5.736   3.177   3.258  0.0512 -1.6458 -0.2810
  692MOL0     H95456   5.635   3.052   3.339  1.9415 -2.4867 -0.3975
  692MOL0     H95457   5.807   3.064   3.366  0.5634 -1.9974 -3.3881
  692MOL0     H95458   6.050   3.064   3.389  1.6576 -1.7023 -1.2086
  692MOL0     H95459   6.276   3.000   3.307  0.6152  0.5168  0.1839
  692MOL0     H95460   6.521   2.989   3.317 -3.6928 -4.6643 -1.1600
  692MOL0     H95461   6.436   2.972   3.166 -0.2605  1.9122 -2.0654
  692MOL0     H95462   6.717   3.101   3.208 -0.0314  0.8714 -0.9313
  692MOL0     H95463   6.700   2.930   3.191 -2.5124 -0.7508  0.0706
  692MOL0     H95464   6.761   3.084   2.994  0.6877  0.2312  1.3756
  692MOL0     H95465   6.585   3.115   2.982  3.2521  3.6023  1.0971
  692MOL0     H95466   6.527   2.887   2.960  1.0218  0.9345  4.5815
  692MOL0     H95467   6.705   2.850   2.959 -1.2527 -0.6952  0.6656
  692MOL0     H95468   6.734   2.997   2.754  0.2063  0.5186 -0.7446
  692MOL0     H95469   6.630   2.840   2.733 -1.3133 -0.0281  0.9367
  692MOL0     H95470   6.511   3.124   2.765  1.4223 -0.4554  1.8148
  692MOL0     H95471   6.434   2.966   2.766 -0.1866  0.8740 -0.2960
  692MOL0     H95472   6.544   2.922   2.535  1.7888  0.3758 -1.1603
  692MOL0     H95473   6.600   3.088   2.535 -0.2555  0.3075 -0.2662
  692MOL0     H95474   6.301   3.022   2.568  1.6987 -1.0181  1.4993
  692MOL0     H95475   6.369   3.042   2.404  0.5147 -1.1614  0.6046
  692MOL0     H95476   6.372   3.407   3.223  1.3542 -1.5933  1.5727
  692MOL0     H95477   6.145   3.473   3.326 -0.3426  0.9720  1.1839
  692MOL0     H95478   5.794   3.447   3.679  0.8340  1.0274 -1.3820
  692MOL0     H95479   5.584   3.449   3.759 -0.3147  0.7842 -0.9462
  692MOL0     H95480   3.945   2.900   4.318 -0.8561 -1.5259 -1.2109
  692MOL0     H95481   3.707   2.970   4.333 -0.4104 -1.3374 -2.5753
  692MOL0     H95482   3.414   3.240   4.365  0.4324 -0.5759 -0.8796
  692MOL0     H95483   3.225   3.351   4.430  2.9344  1.2322 -0.1553
  692MOL0     H95484   2.958   3.290   4.443  1.0065 -1.4818 -3.0144
  692MOL0     H95485   3.035   3.437   4.483 -2.6513 -0.0333  4.2574
  692MOL0     H95486   2.824   3.553   4.353  0.7117 -0.0625  0.2023
  692MOL0     H95487   2.821   3.517   4.519 -3.6904 -1.3476  0.5470
  692MOL0     H95488   2.736   3.315   4.311  0.9913 -2.4460  1.2000
  692MOL0     H95489   2.694   3.290   4.477 -1.6232  0.7365 -0.6992
  692MOL0     H95490   2.559   3.471   4.266  1.9890  0.4299  0.0493
  692MOL0     H95491   2.552   3.519   4.437 -0.3307  1.2291 -1.1310
  692MOL0     H95492   2.281   3.207   4.452  0.1854  0.5046  3.3507
  692MOL0     H95493   3.038   3.274   4.054  0.8148 -1.6284 -1.5131
  692MOL0     H95494   3.122   3.150   3.896 -0.3926 -0.3622 -0.9641
  692MOL0     H95495   3.296   3.164   3.865  0.8487 -2.1331 -0.4320
  692MOL0     H95496   3.232   3.021   3.951 -0.7734  0.1154  0.3251
  693MOL0     O95497   4.338   4.060   7.163  0.0933  0.9900  0.1464
  693MOL0     C95498   4.302   4.058   7.279  0.6372  0.4997 -0.0067
  693MOL0     O95499   4.365   4.118   7.386 -0.4688  0.8228  0.5572
  693MOL0     C95500   4.490   4.165   7.349 -0.1994 -0.4280  0.2531
  693MOL0     C95501   4.485   4.294   7.305 -0.2625  1.0766 -0.3236
  693MOL0     C95502   4.602   4.353   7.275  0.0866 -1.1797  0.3605
  693MOL0     C95503   4.723   4.293   7.274 -0.7997 -1.0294  0.8744
  693MOL0     O95504   4.844   4.360   7.258  0.2628  0.2940  0.2889
  693MOL0     C95505   4.839   4.506   7.256 -1.2553  0.4836 -0.6964
  693MOL0     C95506   4.979   4.570   7.249  0.0415 -0.1889 -0.4707
  693MOL0     C95507   5.073   4.502   7.153  0.0336 -0.6124 -0.0781
  693MOL0     C95508   5.214   4.566   7.147  0.4031  0.1432  0.2918
  693MOL0     C95509   5.316   4.513   7.042  0.8472 -0.3446 -0.1814
  693MOL0     C95510   5.460   4.568   7.057  0.6724  0.7470  0.5569
  693MOL0     C95511   5.562   4.515   6.959  0.3205 -0.2246  0.6492
  693MOL0     C95512   5.613   4.367   6.980 -0.7743 -0.8247  0.1423
  693MOL0     N95513   5.731   4.368   7.069  0.6439  0.4071  0.3197
  693MOL0     C95514   5.852   4.412   7.034  0.2381  0.8804 -0.7524
  693MOL0     C95515   5.933   4.394   7.151 -0.3602 -0.3503 -1.2018
  693MOL0     C95516   6.088   4.402   7.147  1.0376  1.3645 -0.0782
  693MOL0     C95517   6.127   4.253   7.123  0.5153 -0.7734  0.4068
  693MOL0     C95518   6.165   4.182   7.245 -0.7969  1.1278 -0.8931
  693MOL0     C95519   6.301   4.235   7.309  0.3714 -0.0278  0.4789
  693MOL0     O95520   6.319   4.173   7.434 -0.2086 -0.0854 -0.4264
  693MOL0     C95521   6.437   4.200   7.500  0.5891  0.6347 -0.7534
  693MOL0     C95522   6.560   4.172   7.449  0.4499  0.0630  0.1801
  693MOL0     C95523   6.674   4.211   7.523  0.2559  0.5827  0.5413
  693MOL0     C95524   6.804   4.170   7.458 -0.2108  0.4048 -0.2754
  693MOL0     C95525   6.668   4.270   7.650  0.5166  0.0552 -0.4514
  693MOL0     C95526   6.783   4.304   7.745  0.1226 -0.8230  0.4483
  693MOL0     O95527   6.907   4.269   7.723 -0.2861 -0.2399 -0.1241
  693MOL0     C95528   7.003   4.284   7.820 -0.3200  0.3149  0.3848
  693MOL0     C95529   7.068   4.169   7.869 -0.3339  0.3105 -0.6895
  693MOL0     C95530   7.178   4.178   7.957  0.5589 -0.1013  0.5480
  693MOL0     C95531   7.240   4.302   7.987  0.1877 -0.0771  0.1630
  693MOL0     O95532   7.341   4.331   8.079 -0.6477  0.0205  0.0658
  693MOL0     C95533   7.454   4.246   8.087 -0.2824 -0.6840  0.0149
  693MOL0     C95534   7.542   4.263   7.960  0.3736 -0.1292  0.4154
  693MOL0     C95535   7.587   4.405   7.943 -0.0442  0.7520  0.0848
  693MOL0     C95536   7.673   4.414   7.814 -0.2902 -0.3746  0.0117
  693MOL0     C95537   7.719   4.557   7.784  0.8242 -0.3888  0.2077
  693MOL0     C95538   7.782   4.573   7.643 -0.1288  0.0800 -0.4574
  693MOL0     C95539   7.695   4.539   7.528  0.6424  0.1154  0.0897
  693MOL0     C95540   7.561   4.630   7.501  0.1883 -0.6579  0.2770
  693MOL0    Cl95541   7.482   4.597   7.333 -0.0680  0.0767 -0.2081
  693MOL0     C95542   7.174   4.407   7.936  0.7014  0.1668 -0.2617
  693MOL0     C95543   7.058   4.404   7.855 -0.8400  0.5383  0.0894
  693MOL0     O95544   6.747   4.375   7.835 -0.2967  0.3777  0.1746
  693MOL0     C95545   6.537   4.297   7.697 -0.0045 -0.0270 -0.8461
  693MOL0     C95546   6.429   4.271   7.618  0.4058  0.0841  0.3362
  693MOL0     N95547   5.851   4.352   7.254 -0.2250  0.1992  1.1634
  693MOL0     N95548   5.736   4.320   7.202  0.0066  0.1796  0.2709
  693MOL0     C95549   4.728   4.159   7.307  0.2477 -0.2552  0.9239
  693MOL0     C95550   4.613   4.086   7.346 -0.0665 -0.5018  0.2727
  693MOL0     C95551   4.174   3.986   7.311  0.8140  0.0831  0.4352
  693MOL0     C95552   4.096   4.030   7.414 -0.5972 -0.9484  0.3017
  693MOL0     C95553   3.973   3.978   7.448 -0.2654 -0.0261  0.3498
  693MOL0     C95554   3.925   3.872   7.378  0.4996 -0.3099  0.1194
  693MOL0     O95555   3.796   3.820   7.391  0.8980 -0.6797 -0.5677
  693MOL0     C95556   3.704   3.869   7.495  0.0550 -0.4552 -0.2056
  693MOL0     C95557   3.579   3.772   7.499  0.4520  0.5683 -0.1737
  693MOL0     C95558   3.615   3.621   7.484 -0.4351 -0.2800 -0.2214
  693MOL0     C95559   3.482   3.538   7.488  0.8354  0.0030 -1.3911
  693MOL0     C95560   3.377   3.572   7.390 -0.2055  0.1736 -0.5118
  693MOL0     C95561   3.285   3.590   7.314 -0.1441  0.4337  0.4197
  693MOL0     C95562   4.000   3.825   7.269 -0.0957 -0.2992  0.6043
  693MOL0     C95563   4.118   3.888   7.230 -0.4554 -0.0722  0.3206
  693MOL0     C95564   4.181   3.831   7.106  0.2381 -0.3952 -0.4000
  693MOL0     H95565   4.406   4.368   7.305  1.1652  2.6780  0.5550
  693MOL0     H95566   4.598   4.461   7.263 -0.6728 -1.2014  0.3820
  693MOL0     H95567   4.786   4.541   7.345  0.4431  4.4660 -1.0630
  693MOL0     H95568   4.789   4.547   7.167 -0.3374  0.1199 -1.4000
  693MOL0     H95569   4.979   4.674   7.217  1.5606 -0.4873 -1.6033
  693MOL0     H95570   5.016   4.580   7.351 -3.4994 -0.5976  0.9943
  693MOL0     H95571   5.076   4.394   7.170  0.0804 -0.2358  2.7864
  693MOL0     H95572   5.040   4.507   7.049 -0.5558 -2.9718 -0.0691
  693MOL0     H95573   5.202   4.674   7.132 -1.5640 -0.1198 -0.3778
  693MOL0     H95574   5.265   4.559   7.243 -0.1823  0.5437  0.6410
  693MOL0     H95575   5.284   4.522   6.938 -0.9788  1.0484  0.4601
  693MOL0     H95576   5.326   4.404   7.050  2.3321 -0.6257 -3.9097
  693MOL0     H95577   5.458   4.675   7.036  1.3621  0.9505  1.4234
  693MOL0     H95578   5.494   4.559   7.161 -0.6340  0.5040  0.9850
  693MOL0     H95579   5.637   4.595   6.967 -1.9796  2.4206 -1.8813
  693MOL0     H95580   5.533   4.524   6.854  2.2226  0.6240  0.1446
  693MOL0     H95581   5.529   4.311   7.022  0.3853 -1.6755  1.4007
  693MOL0     H95582   5.632   4.316   6.885  0.0665 -2.7723  1.3043
  693MOL0     H95583   5.893   4.450   6.941 -0.3355  1.4723 -0.7721
  693MOL0     H95584   6.128   4.441   7.241  0.7793 -0.1368  0.6795
  693MOL0     H95585   6.119   4.451   7.054 -1.3416 -1.9788 -2.9318
  693MOL0     H95586   6.058   4.194   7.063 -0.5996 -1.5160  2.3294
  693MOL0     H95587   6.219   4.252   7.064 -0.8997  1.7364 -2.1049
  693MOL0     H95588   6.086   4.177   7.321 -0.0762  0.0989 -0.1755
  693MOL0     H95589   6.185   4.077   7.222  1.2964  1.3492 -0.3026
  693MOL0     H95590   6.390   4.216   7.248  0.3924  2.5076 -0.4300
  693MOL0     H95591   6.294   4.344   7.317  1.4102 -0.0528  2.2319
  693MOL0     H95592   6.559   4.131   7.348 -1.8649 -0.9678  0.5637
  693MOL0     H95593   6.793   4.120   7.361  2.0968  0.9569 -0.8898
  693MOL0     H95594   6.866   4.106   7.522 -1.2279  1.0096  1.3908
  693MOL0     H95595   6.859   4.264   7.447  0.5939  0.0477  0.5207
  693MOL0     H95596   7.017   4.077   7.845 -0.2316  0.0596  0.0234
  693MOL0     H95597   7.218   4.091   8.009  0.7782  1.0096  2.2968
  693MOL0     H95598   7.510   4.274   8.177 -0.3973 -1.0693  0.2097
  693MOL0     H95599   7.427   4.140   8.084  0.4508 -0.8773 -0.0264
  693MOL0     H95600   7.633   4.202   7.972  1.7442  1.7211 -0.0497
  693MOL0     H95601   7.479   4.223   7.880  1.2568 -2.1865  0.6740
  693MOL0     H95602   7.645   4.436   8.030 -0.9137 -1.2615  1.4563
  693MOL0     H95603   7.498   4.466   7.933  0.5282  1.5988  0.0880
  693MOL0     H95604   7.620   4.375   7.726  1.9843  1.1839 -2.1773
  693MOL0     H95605   7.756   4.344   7.824 -0.3262 -0.1422  2.4810
  693MOL0     H95606   7.630   4.620   7.777  2.1142  1.6272  0.9463
  693MOL0     H95607   7.771   4.603   7.869 -1.2353  1.8299  0.3763
  693MOL0     H95608   7.875   4.515   7.637  0.6569  1.3905 -1.8585
  693MOL0     H95609   7.822   4.675   7.636  2.0601 -0.7207 -0.5326
  693MOL0     H95610   7.676   4.432   7.524  3.5757 -0.5634  1.4493
  693MOL0     H95611   7.749   4.575   7.440  0.5208  0.6334  0.2233
  693MOL0     H95612   7.578   4.737   7.514 -2.5957 -0.0009 -0.6971
  693MOL0     H95613   7.493   4.613   7.585  2.7365  1.0111  2.8867
  693MOL0     H95614   7.207   4.506   7.966 -0.5511  0.1864  1.1238
  693MOL0     H95615   7.030   4.496   7.805  0.2096 -0.9143 -3.4671
  693MOL0     H95616   6.519   4.339   7.795  0.2214 -0.6851 -0.5128
  693MOL0     H95617   6.329   4.297   7.653  0.1109 -0.9999  0.3467
  693MOL0     H95618   4.821   4.104   7.297  0.4017 -0.2403  2.1205
  693MOL0     H95619   4.627   3.980   7.361 -0.0117 -0.3907  1.0277
  693MOL0     H95620   4.129   4.110   7.480 -2.2457 -1.6429  2.0317
  693MOL0     H95621   3.902   4.021   7.519  1.3390 -1.3410  2.9182
  693MOL0     H95622   3.756   3.851   7.590 -0.6337  0.1252  0.2841
  693MOL0     H95623   3.676   3.974   7.496 -2.6744 -1.1118  0.2504
  693MOL0     H95624   3.515   3.807   7.418  1.7822  2.0964 -0.6332
  693MOL0     H95625   3.532   3.793   7.596  0.4605  2.4919 -0.5460
  693MOL0     H95626   3.661   3.593   7.389 -0.0319 -1.8148  0.4060
  693MOL0     H95627   3.675   3.595   7.571 -0.6565  1.9196  0.6392
  693MOL0     H95628   3.436   3.553   7.586  1.5262  1.7136 -1.2879
  693MOL0     H95629   3.496   3.430   7.485 -2.9218 -0.7603  1.2617
  693MOL0     H95630   3.198   3.612   7.255  0.9171 -0.1250 -1.4398
  693MOL0     H95631   3.968   3.741   7.208  2.8311 -0.9475 -0.1950
  693MOL0     H95632   4.176   3.912   7.033  0.7020  1.5120  1.5535
  693MOL0     H95633   4.288   3.813   7.120 -0.1363 -1.9763  0.7450
  693MOL0     H95634   4.138   3.736   7.074  0.5840 -0.1656 -1.5728
  694MOL0     O95635   7.789   9.098   4.406  0.3247 -0.0917  0.4331
  694MOL0     C95636   7.785   9.190   4.486  0.6043  0.7068 -0.0117
  694MOL0     O95637   7.899   9.248   4.545 -0.3009  0.0131 -0.0343
  694MOL0     C95638   8.016   9.202   4.492  0.3699 -0.0273 -0.1598
  694MOL0     C95639   8.106   9.300   4.454 -0.5905  0.5673  0.4468
  694MOL0     C95640   8.225   9.271   4.403 -0.9027  0.0224 -1.7013
  694MOL0     C95641   8.266   9.138   4.387 -0.6777 -0.6687 -0.8146
  694MOL0     O95642   8.367   9.097   4.305  0.0968  0.5735 -0.0994
  694MOL0     C95643   8.495   9.145   4.334 -0.5742  0.2960 -0.8314
  694MOL0     C95644   8.568   9.061   4.444  0.0535  0.3369 -0.6841
  694MOL0     C95645   8.688   9.120   4.510 -0.7159 -1.0541 -0.6323
  694MOL0     C95646   8.748   9.037   4.634 -0.0562  0.7065  0.0426
  694MOL0     C95647   8.888   9.098   4.680  0.5815  0.1242 -0.8018
  694MOL0     C95648   8.948   9.028   4.803 -0.8969 -0.1815 -0.5973
  694MOL0     C95649   9.000   8.890   4.784 -0.5770 -0.7406  0.3850
  694MOL0     C95650   9.133   8.883   4.707 -0.1318  0.5955 -0.0444
  694MOL0     N95651   9.240   8.912   4.810  0.2344  0.4675  0.9515
  694MOL0     C95652   9.315   9.029   4.813  0.7399 -0.2851  0.0122
  694MOL0     C95653   9.421   9.007   4.897 -1.1316 -0.1992  0.2700
  694MOL0     C95654   9.518   9.115   4.940 -0.5936  0.8274  0.2501
  694MOL0     C95655   9.645   9.045   5.002  0.3793 -1.7726  0.1901
  694MOL0     C95656   9.746   9.150   5.056  0.1606  0.9952  0.0463
  694MOL0     C95657   9.812   9.244   4.959  0.7038  0.0187 -0.3703
  694MOL0     O95658   9.859   9.173   4.844  0.3146  0.7577  0.1569
  694MOL0     C95659   9.975   9.100   4.852  0.2730  0.2048  0.4900
  694MOL0     C95660  10.067   9.103   4.954 -0.5333 -0.2062 -0.6781
  694MOL0     C95661  10.181   9.019   4.963  0.2960  0.5713  0.3797
  694MOL0     C95662  10.275   9.041   5.083  0.0386 -1.3519  0.7581
  694MOL0     C95663  10.199   8.913   4.864  0.4098 -1.1570 -0.1395
  694MOL0     C95664  10.320   8.829   4.842  0.3270  0.3112  0.3650
  694MOL0     O95665  10.315   8.715   4.772  0.1623  0.8898  0.1513
  694MOL0     C95666  10.432   8.648   4.758  0.2409  0.4594 -0.0724
  694MOL0     C95667  10.515   8.671   4.653 -0.7811 -0.1125  0.7475
  694MOL0     C95668  10.638   8.606   4.633  0.7574 -0.9722  0.4970
  694MOL0     C95669  10.665   8.494   4.719  0.2741 -0.3551  0.6302
  694MOL0     O95670  10.787   8.429   4.695  0.9623 -0.9567 -0.0977
  694MOL0     C95671  10.848   8.403   4.822  0.1759  0.1689  0.7515
  694MOL0     C95672  11.000   8.360   4.806  0.0222 -0.2829 -0.6515
  694MOL0     C95673  11.008   8.218   4.744  0.1417 -1.1284  0.3727
  694MOL0     C95674  11.150   8.180   4.722  1.2158  0.4393  0.1639
  694MOL0     C95675  11.161   8.029   4.713 -0.3170  0.6110 -0.6980
  694MOL0     C95676  11.304   7.992   4.684  0.0475 -0.2625 -0.2308
  694MOL0     C95677  11.329   7.854   4.621  0.9967  1.0413 -0.1700
  694MOL0     C95678  11.273   7.838   4.470 -0.5930 -0.2263 -0.4251
  694MOL0    Cl95679  11.311   7.975   4.367  0.1684 -0.4561  0.2037
  694MOL0     C95680  10.569   8.458   4.818  0.1106  0.4275 -0.3880
  694MOL0     C95681  10.458   8.543   4.842 -0.4174  0.1501 -0.5837
  694MOL0     O95682  10.421   8.879   4.892 -0.2131 -0.6835  0.5964
  694MOL0     C95683  10.111   8.925   4.760  0.1579  1.3308  0.5628
  694MOL0     C95684  10.008   9.017   4.747  0.6680  0.0079 -1.0842
  694MOL0     N95685   9.412   8.878   4.940  0.4146 -0.0179  0.4451
  694MOL0     N95686   9.314   8.816   4.878 -0.0760  0.0137 -0.3607
  694MOL0     C95687   8.177   9.040   4.433 -0.2706 -0.2494 -0.3759
  694MOL0     C95688   8.052   9.066   4.482  0.0230 -0.5682 -0.3327
  694MOL0     C95689   7.657   9.267   4.509  0.1194  0.5971 -0.7709
  694MOL0     C95690   7.553   9.225   4.416  0.2097 -0.9415 -0.1651
  694MOL0     C95691   7.422   9.265   4.441  0.4000  0.0697  0.2037
  694MOL0     C95692   7.401   9.372   4.533  0.2978  1.1500 -0.0625
  694MOL0     O95693   7.280   9.433   4.562  0.6356  0.8926  0.3412
  694MOL0     C95694   7.157   9.358   4.538  0.2021 -0.1962 -0.5272
  694MOL0     C95695   7.150   9.230   4.619 -1.3381  0.6216 -0.1275
  694MOL0     C95696   7.007   9.181   4.632  0.5434  0.5963  0.2104
  694MOL0     C95697   6.981   9.078   4.749 -1.0126  0.6475  0.1588
  694MOL0     C95698   6.987   9.154   4.877 -0.1486  0.5035 -0.2476
  694MOL0     C95699   6.963   9.192   4.990  0.2333 -0.5683 -0.5209
  694MOL0     C95700   7.509   9.428   4.603 -1.4371 -0.1268 -0.3523
  694MOL0     C95701   7.639   9.376   4.596 -0.9023 -0.2637 -0.9674
  694MOL0     C95702   7.745   9.419   4.701  0.4142 -0.1689 -0.2578
  694MOL0     H95703   8.088   9.407   4.465 -1.6039  0.3481  0.9617
  694MOL0     H95704   8.285   9.355   4.369 -1.4786  2.2798  2.2021
  694MOL0     H95705   8.492   9.246   4.376  0.5647  0.5397 -1.3077
  694MOL0     H95706   8.560   9.147   4.246  0.4917 -0.0835 -0.0682
  694MOL0     H95707   8.493   9.042   4.521  0.2917  2.2883  0.0694
  694MOL0     H95708   8.593   8.975   4.381 -1.8641  0.0613 -1.1334
  694MOL0     H95709   8.762   9.145   4.433 -0.8181  0.5314 -0.2660
  694MOL0     H95710   8.658   9.213   4.559 -0.3408  0.1570 -2.5968
  694MOL0     H95711   8.682   9.022   4.719 -0.6324 -2.3998 -0.8330
  694MOL0     H95712   8.779   8.939   4.594  0.8800  0.5415  1.1229
  694MOL0     H95713   8.868   9.201   4.713 -0.1440  0.6730 -2.8255
  694MOL0     H95714   8.971   9.104   4.609  1.7519  2.8289  0.6294
  694MOL0     H95715   9.027   9.087   4.850 -1.5316  0.4165 -0.2774
  694MOL0     H95716   8.863   9.008   4.868 -0.7587  1.1154  0.0218
  694MOL0     H95717   8.923   8.844   4.723  0.8791  1.0713 -3.0745
  694MOL0     H95718   9.000   8.853   4.887  1.8699 -1.4397  0.2060
  694MOL0     H95719   9.147   8.784   4.662  0.1944  0.1926  0.9203
  694MOL0     H95720   9.133   8.951   4.621 -1.2206  0.0855 -0.4675
  694MOL0     H95721   9.277   9.126   4.785 -1.2987 -0.7353  0.9924
  694MOL0     H95722   9.470   9.170   5.021  0.2104 -1.6160  2.5121
  694MOL0     H95723   9.544   9.173   4.851  0.7313  3.1557  2.0283
  694MOL0     H95724   9.620   8.975   5.083  0.0113 -0.5808  1.1444
  694MOL0     H95725   9.696   8.976   4.935 -2.8924 -3.1570 -1.0867
  694MOL0     H95726   9.688   9.208   5.128  1.2995  3.6849 -1.0647
  694MOL0     H95727   9.820   9.093   5.114  0.5789  0.8104 -0.6618
  694MOL0     H95728   9.740   9.319   4.924 -1.1866 -1.3893  0.2612
  694MOL0     H95729   9.900   9.289   5.005  1.1951 -2.3715  1.2490
  694MOL0     H95730  10.070   9.183   5.028 -1.0122 -1.3444  0.6172
  694MOL0     H95731  10.351   9.118   5.062 -0.3072 -0.5972  2.1218
  694MOL0     H95732  10.331   8.952   5.112  4.7843  1.0499 -0.0562
  694MOL0     H95733  10.219   9.073   5.172 -0.5972 -3.9707  1.3696
  694MOL0     H95734  10.484   8.745   4.580 -2.4919 -2.1294 -0.6972
  694MOL0     H95735  10.711   8.627   4.555 -0.4666  0.6478 -0.2699
  694MOL0     H95736  10.847   8.493   4.885  3.3336  1.4032 -0.7582
  694MOL0     H95737  10.802   8.317   4.872 -0.4194 -0.0340 -0.1364
  694MOL0     H95738  11.056   8.426   4.739 -0.4062  1.2949  0.4650
  694MOL0     H95739  11.047   8.368   4.905 -2.0043 -1.9422  0.5373
  694MOL0     H95740  10.952   8.212   4.650 -1.4548  0.2883  1.1871
  694MOL0     H95741  10.965   8.149   4.818 -3.1259  1.0467  0.7004
  694MOL0     H95742  11.213   8.225   4.799 -1.5988  1.6137  1.9490
  694MOL0     H95743  11.194   8.221   4.631 -0.3607  1.8591 -0.0214
  694MOL0     H95744  11.136   7.992   4.814  1.6703  1.2286  0.0601
  694MOL0     H95745  11.089   7.992   4.639  0.4352  1.8845 -2.1102
  694MOL0     H95746  11.361   7.989   4.777  0.9046 -1.4195 -0.7652
  694MOL0     H95747  11.344   8.079   4.629  2.5859 -0.4827  1.1215
  694MOL0     H95748  11.284   7.778   4.685  0.5201  1.0479 -0.4846
  694MOL0     H95749  11.436   7.838   4.612  1.0531  1.4916 -0.3491
  694MOL0     H95750  11.165   7.824   4.471 -0.7444  0.4325 -2.4420
  694MOL0     H95751  11.313   7.744   4.431 -0.3444 -0.0428 -0.6205
  694MOL0     H95752  10.576   8.367   4.876 -0.4936  1.4915  1.4285
  694MOL0     H95753  10.391   8.525   4.925 -0.2269 -0.2251 -0.5044
  694MOL0     H95754  10.115   8.866   4.668 -1.3549  1.4471  0.3900
  694MOL0     H95755   9.937   9.021   4.665  0.1127  2.1406 -0.5670
  694MOL0     H95756   8.201   8.934   4.428 -2.6829 -0.9175  0.9058
  694MOL0     H95757   7.990   8.984   4.516 -1.2573  0.4556 -0.1131
  694MOL0     H95758   7.572   9.147   4.344  1.2140 -2.4806  1.6668
  694MOL0     H95759   7.338   9.221   4.388  0.3564 -0.2268  0.5142
  694MOL0     H95760   7.070   9.422   4.552  0.5635  0.1878 -0.0184
  694MOL0     H95761   7.144   9.323   4.435 -3.4731 -3.9507  0.9316
  694MOL0     H95762   7.186   9.244   4.721 -0.1543 -0.9486 -0.2839
  694MOL0     H95763   7.203   9.145   4.575 -3.2404 -1.4171  1.2866
  694MOL0     H95764   6.928   9.256   4.637 -1.2865 -1.1681 -0.6314
  694MOL0     H95765   6.984   9.122   4.543 -1.7161 -2.1211  2.4181
  694MOL0     H95766   7.053   8.995   4.747 -3.5043 -1.6437  0.0973
  694MOL0     H95767   6.878   9.042   4.746 -2.0830  3.4984 -1.8651
  694MOL0     H95768   6.970   9.228   5.091  3.7525  1.0554 -1.1894
  694MOL0     H95769   7.492   9.500   4.683 -0.7316  2.8010 -2.6785
  694MOL0     H95770   7.706   9.509   4.749  0.7195 -0.3068  0.2628
  694MOL0     H95771   7.767   9.342   4.775  0.3321  0.7144  0.7196
  694MOL0     H95772   7.839   9.449   4.654  1.3223 -0.4927  1.2705
  695MOL0     O95773   4.185   7.316  10.900 -0.3694 -0.3056  0.0504
  695MOL0     C95774   4.126   7.238  10.968  0.7037  0.1746  0.0814
  695MOL0     O95775   4.079   7.264  11.096  0.1444 -0.3262  0.4743
  695MOL0     C95776   4.099   7.392  11.135 -0.1462 -0.9923  0.1673
  695MOL0     C95777   4.002   7.488  11.119 -0.1760 -0.6877  0.1596
  695MOL0     C95778   4.020   7.615  11.173 -1.1527  0.6824  0.1654
  695MOL0     C95779   4.121   7.644  11.259  0.2865 -1.1401  0.5105
  695MOL0     O95780   4.124   7.766  11.319 -0.0476 -0.5506 -0.9585
  695MOL0     C95781   4.234   7.801  11.416  0.9625 -0.0268 -0.4396
  695MOL0     C95782   4.177   7.912  11.510 -0.1476 -0.1147 -0.5523
  695MOL0     C95783   4.294   7.937  11.608  0.3585  0.0693 -0.6182
  695MOL0     C95784   4.257   8.016  11.732 -0.6534 -0.1918 -0.4976
  695MOL0     C95785   4.387   8.029  11.819  0.3787 -0.2019 -0.7278
  695MOL0     C95786   4.336   8.101  11.951  0.3162  0.3205  0.8945
  695MOL0     C95787   4.433   8.080  12.067 -0.4392  0.5011  0.7289
  695MOL0     C95788   4.555   8.173  12.061 -0.0029 -0.3171  0.0764
  695MOL0     N95789   4.522   8.313  12.096  0.1931  0.6053  0.7339
  695MOL0     C95790   4.523   8.424  12.021  0.0845  0.0528  0.5808
  695MOL0     C95791   4.522   8.527  12.104 -0.1677 -1.3868  0.2489
  695MOL0     C95792   4.515   8.674  12.069  0.2617  0.6148  0.3919
  695MOL0     C95793   4.657   8.730  12.085 -0.3443  0.4799 -0.6032
  695MOL0     C95794   4.769   8.684  11.999  0.2683 -0.2184  0.3411
  695MOL0     C95795   4.899   8.768  12.035  0.1399  0.3408  0.1755
  695MOL0     O95796   4.905   8.823  12.165 -0.1489  0.9218 -0.0931
  695MOL0     C95797   5.014   8.899  12.204  0.5014  0.5833  0.1822
  695MOL0     C95798   5.145   8.858  12.173 -0.8975 -0.7297  0.4571
  695MOL0     C95799   5.251   8.938  12.212  0.2448 -0.1144 -0.3016
  695MOL0     C95800   5.383   8.876  12.191 -0.0458  0.6905  0.6792
  695MOL0     C95801   5.230   9.067  12.268  0.5405  0.5047  0.1962
  695MOL0     C95802   5.337   9.169  12.292  0.3730 -0.3095  0.5003
  695MOL0     O95803   5.298   9.284  12.358  0.4704  0.1723  0.0607
  695MOL0     C95804   5.386   9.390  12.349  0.7658  0.3748  0.7417
  695MOL0     C95805   5.465   9.422  12.457  0.1682 -0.4483  0.6714
  695MOL0     C95806   5.581   9.509  12.443 -0.5369  0.1277 -0.8740
  695MOL0     C95807   5.598   9.584  12.321 -0.5060  0.9624 -0.2342
  695MOL0     O95808   5.705   9.673  12.303 -0.5273 -0.3156 -0.2196
  695MOL0     C95809   5.795   9.681  12.419  0.3612 -0.0063 -0.1782
  695MOL0     C95810   5.917   9.764  12.382  0.1792  0.5337  1.0030
  695MOL0     C95811   5.994   9.711  12.259 -0.3289 -0.9317 -0.0061
  695MOL0     C95812   6.105   9.802  12.201  0.1090  0.2693  0.4257
  695MOL0     C95813   6.193   9.882  12.299  0.3420  0.5204  0.2127
  695MOL0     C95814   6.264   9.805  12.413 -0.2327 -0.0632 -0.2419
  695MOL0     C95815   6.373   9.891  12.487 -0.2682  0.1850 -0.5706
  695MOL0     C95816   6.431   9.815  12.605  0.2892 -0.2282  0.0713
  695MOL0    Cl95817   6.592   9.755  12.573 -0.0477  0.0597 -0.0108
  695MOL0     C95818   5.520   9.544  12.215  1.1316 -0.3132  0.2182
  695MOL0     C95819   5.424   9.445  12.227 -0.4896 -0.1284 -0.4226
  695MOL0     O95820   5.441   9.154  12.241 -0.6440  0.7454  0.3368
  695MOL0     C95821   5.093   9.085  12.311 -1.1771  0.5809 -0.0605
  695MOL0     C95822   4.986   9.003  12.289 -0.4134  0.4099 -0.4504
  695MOL0     N95823   4.519   8.478  12.238  0.3294  0.1101  0.2567
  695MOL0     N95824   4.522   8.350  12.226 -0.7639  0.5716  0.4997
  695MOL0     C95825   4.216   7.543  11.284 -0.3853 -1.1336 -0.1677
  695MOL0     C95826   4.208   7.426  11.215  0.6409  0.2013 -1.1108
  695MOL0     C95827   4.077   7.104  10.891 -0.4901 -1.1248 -0.4157
  695MOL0     C95828   3.988   7.019  10.964 -1.3639 -0.0120 -0.0079
  695MOL0     C95829   3.939   6.901  10.912  1.0299 -0.5925  0.1348
  695MOL0     C95830   3.969   6.860  10.780  0.4043  0.3330 -0.0864
  695MOL0     O95831   3.923   6.748  10.725 -0.4576  0.4590 -0.3203
  695MOL0     C95832   3.807   6.695  10.791  1.1820  0.4188  0.2200
  695MOL0     C95833   3.738   6.584  10.722  0.8105 -0.4359  0.7927
  695MOL0     C95834   3.654   6.507  10.821  0.0266 -0.0858  0.7101
  695MOL0     C95835   3.612   6.372  10.754 -0.0044  0.0603  0.1129
  695MOL0     C95836   3.510   6.412  10.651  0.1034  0.7618 -0.3831
  695MOL0     C95837   3.418   6.443  10.577  0.2542  0.7592  0.4753
  695MOL0     C95838   4.058   6.947  10.706  0.2066  0.5642 -0.0856
  695MOL0     C95839   4.111   7.067  10.759 -0.3638  0.5058 -0.1499
  695MOL0     C95840   4.170   7.156  10.655 -0.4901  0.6623 -0.3713
  695MOL0     H95841   3.914   7.487  11.055  2.0386 -0.7551 -3.1690
  695MOL0     H95842   3.951   7.695  11.146 -0.6351  1.0162 -0.2028
  695MOL0     H95843   4.320   7.844  11.364 -0.5151  1.8057 -1.4736
  695MOL0     H95844   4.252   7.719  11.486 -2.6466 -1.5616 -1.1112
  695MOL0     H95845   4.156   7.999  11.448  1.0713 -1.6696 -3.3190
  695MOL0     H95846   4.089   7.877  11.566 -0.0655  0.0004 -0.3497
  695MOL0     H95847   4.329   7.837  11.635 -0.4517  0.2626  1.2547
  695MOL0     H95848   4.382   7.971  11.553  1.4202 -1.6450 -0.0446
  695MOL0     H95849   4.213   8.113  11.706 -2.4454 -1.0194 -0.6786
  695MOL0     H95850   4.185   7.965  11.797 -1.6522 -0.1238 -1.5248
  695MOL0     H95851   4.453   8.099  11.766 -1.1722  4.2448  2.6125
  695MOL0     H95852   4.436   7.932  11.832  0.7355  0.2791  2.5250
  695MOL0     H95853   4.307   8.206  11.946  0.9918  0.5508  1.5690
  695MOL0     H95854   4.240   8.059  11.985 -0.1870  0.2526 -0.5600
  695MOL0     H95855   4.477   7.980  12.075 -0.8819  0.3594  1.5403
  695MOL0     H95856   4.380   8.101  12.160 -0.3708 -0.0753  0.8994
  695MOL0     H95857   4.617   8.131  12.140 -2.1490 -1.1868  1.4011
  695MOL0     H95858   4.603   8.169  11.963  0.4035  3.6145 -0.0466
  695MOL0     H95859   4.533   8.431  11.913  2.8954  3.1930  0.8797
  695MOL0     H95860   4.438   8.718  12.133 -2.0519  0.6035 -2.2318
  695MOL0     H95861   4.481   8.688  11.966 -0.0020 -0.4392  0.3212
  695MOL0     H95862   4.642   8.836  12.060 -1.1951  0.0783 -1.8734
  695MOL0     H95863   4.687   8.719  12.190  0.7820 -0.3220 -0.9933
  695MOL0     H95864   4.787   8.577  12.016  0.3417 -0.0391  1.4938
  695MOL0     H95865   4.743   8.683  11.893  2.7443 -2.6815 -0.3706
  695MOL0     H95866   4.983   8.700  12.024 -0.7451 -0.5913 -1.0443
  695MOL0     H95867   4.916   8.845  11.959 -3.1947 -0.7683 -1.8911
  695MOL0     H95868   5.165   8.769  12.115 -2.1866  0.4766 -1.9645
  695MOL0     H95869   5.470   8.921  12.241  1.9687 -1.9310 -0.2351
  695MOL0     H95870   5.417   8.872  12.087  2.0618  1.8230  1.2658
  695MOL0     H95871   5.375   8.771  12.221 -1.4160  0.1596 -1.3315
  695MOL0     H95872   5.430   9.380  12.551  0.3018  0.2340  1.0346
  695MOL0     H95873   5.643   9.515  12.532 -2.8108  0.4418  0.7807
  695MOL0     H95874   5.735   9.734  12.494  1.1614 -0.4246  0.7771
  695MOL0     H95875   5.828   9.590  12.468  2.3147  2.8292  4.3914
  695MOL0     H95876   5.867   9.860  12.364 -0.8440  0.2428  2.1566
  695MOL0     H95877   5.982   9.777  12.469 -0.2317  0.7186  1.2862
  695MOL0     H95878   5.933   9.683  12.173 -0.0588 -1.6355  0.0275
  695MOL0     H95879   6.040   9.617  12.290 -3.5923 -2.1544  1.5669
  695MOL0     H95880   6.066   9.882  12.138 -0.3976 -1.2151 -1.2269
  695MOL0     H95881   6.160   9.750  12.122 -1.9314  1.9125 -2.2473
  695MOL0     H95882   6.276   9.923  12.241  0.3138 -0.2720 -0.4108
  695MOL0     H95883   6.143   9.959  12.359  1.0850  0.0925  1.4205
  695MOL0     H95884   6.308   9.710  12.379  1.1570  0.3743  0.2503
  695MOL0     H95885   6.187   9.777  12.485  0.3911  2.8376  1.7132
  695MOL0     H95886   6.323   9.985  12.512 -0.1788  0.3563 -1.0247
  695MOL0     H95887   6.459   9.918  12.425  0.4061  1.4673  0.8602
  695MOL0     H95888   6.371   9.727  12.627  0.0848 -0.7445 -2.3367
  695MOL0     H95889   6.426   9.884  12.690 -3.1102 -2.6667  2.0855
  695MOL0     H95890   5.539   9.589  12.118 -3.2025  1.6143  0.0090
  695MOL0     H95891   5.380   9.410  12.133 -1.2054 -0.9842  0.2107
  695MOL0     H95892   5.065   9.175  12.365 -2.2492  0.5163 -0.4981
  695MOL0     H95893   4.886   9.016  12.329 -0.4651 -1.7927  0.2380
  695MOL0     H95894   4.302   7.565  11.346 -0.6563 -1.5000  0.3407
  695MOL0     H95895   4.282   7.348  11.223  0.5894  0.3400  1.7218
  695MOL0     H95896   3.955   7.048  11.063  0.7568  0.0427  0.7432
  695MOL0     H95897   3.887   6.847  10.990 -2.0586 -0.1570 -1.4370
  695MOL0     H95898   3.839   6.666  10.891 -0.2230  3.8775  1.8391
  695MOL0     H95899   3.731   6.773  10.796  0.5653  0.0327 -2.0600
  695MOL0     H95900   3.815   6.518  10.682  0.1740 -0.4803 -0.3762
  695MOL0     H95901   3.670   6.617  10.643 -1.8031  0.9429  3.3776
  695MOL0     H95902   3.722   6.482  10.902  0.9125 -0.7164 -0.2069
  695MOL0     H95903   3.571   6.568  10.858 -0.6240  1.1014 -2.3378
  695MOL0     H95904   3.556   6.303  10.819 -1.5356  0.5330 -0.6552
  695MOL0     H95905   3.697   6.321  10.708  1.1672  2.6604 -0.7861
  695MOL0     H95906   3.334   6.460  10.514  1.3326  0.8962 -0.9784
  695MOL0     H95907   4.090   6.925  10.604  0.7609 -1.6347  0.5016
  695MOL0     H95908   4.163   7.265  10.662  0.2011  0.6821  0.2386
  695MOL0     H95909   4.277   7.134  10.651  0.1919  2.5152  3.0555
  695MOL0     H95910   4.138   7.137  10.553  0.9729  2.5876 -1.2610
  696MOL0     O95911   5.335   4.532  10.867 -0.5680 -0.3906 -0.8526
  696MOL0     C95912   5.273   4.482  10.778  0.9051 -0.6325  0.3494
  696MOL0     O95913   5.314   4.460  10.649  0.7615  0.6239 -0.4163
  696MOL0     C95914   5.448   4.486  10.629  0.7368 -0.6050 -0.1356
  696MOL0     C95915   5.502   4.616  10.604 -0.4182 -0.6630  0.9461
  696MOL0     C95916   5.632   4.638  10.567 -0.7963  0.3481 -0.0213
  696MOL0     C95917   5.725   4.524  10.569 -0.5865  1.1688 -0.8742
  696MOL0     O95918   5.857   4.554  10.544  0.2243  0.9104 -1.3408
  696MOL0     C95919   5.961   4.454  10.574  0.3441 -0.0060  0.4443
  696MOL0     C95920   6.088   4.493  10.503 -0.4751 -0.4350 -0.1136
  696MOL0     C95921   6.177   4.370  10.481  0.2574 -0.9246  0.2900
  696MOL0     C95922   6.234   4.318  10.613  0.8853  0.4824 -0.0566
  696MOL0     C95923   6.332   4.423  10.678  0.0635  0.5312 -0.0179
  696MOL0     C95924   6.452   4.442  10.581  0.4844  0.4735 -0.3619
  696MOL0     C95925   6.507   4.313  10.508  0.0616 -0.2261  0.6638
  696MOL0     C95926   6.658   4.338  10.450 -0.0427  0.2782  0.1592
  696MOL0     N95927   6.737   4.409  10.555  0.7768 -0.9424  0.8504
  696MOL0     C95928   6.757   4.545  10.569  0.1977 -0.4580  0.2989
  696MOL0     C95929   6.820   4.568  10.693 -0.0331 -0.0902 -0.2463
  696MOL0     C95930   6.852   4.686  10.774 -0.0870  0.4899  1.1274
  696MOL0     C95931   6.975   4.771  10.730  0.5979 -0.3088 -0.3851
  696MOL0     C95932   7.104   4.689  10.718  0.0552 -0.8718 -0.5333
  696MOL0     C95933   7.214   4.762  10.650 -0.4217  0.4209 -0.3126
  696MOL0     O95934   7.256   4.878  10.730  0.0690  0.6276  0.1079
  696MOL0     C95935   7.384   4.930  10.717  0.2297  0.2910 -0.2820
  696MOL0     C95936   7.463   4.896  10.601  0.2578  0.5784 -0.9805
  696MOL0     C95937   7.599   4.949  10.593  0.2090  0.1395  0.4993
  696MOL0     C95938   7.668   4.911  10.461 -0.0310 -0.8526 -0.6544
  696MOL0     C95939   7.657   5.025  10.696  0.6015 -0.1972 -0.3914
  696MOL0     C95940   7.804   5.063  10.708 -0.1900  0.2617  0.0855
  696MOL0     O95941   7.892   5.011  10.610  0.6501 -0.0074 -0.6671
  696MOL0     C95942   8.027   5.028  10.616  0.3164  0.4328 -0.1962
  696MOL0     C95943   8.085   5.157  10.631 -0.2915  0.4743  0.5680
  696MOL0     C95944   8.226   5.162  10.616  0.1406  0.0991 -0.7093
  696MOL0     C95945   8.304   5.052  10.606  0.5509  0.8568 -0.9269
  696MOL0     O95946   8.445   5.062  10.599  0.4680  0.7018 -0.5242
  696MOL0     C95947   8.500   5.186  10.621 -1.0581 -0.3659  0.0007
  696MOL0     C95948   8.642   5.168  10.639 -0.8069  0.2451 -0.1605
  696MOL0     C95949   8.721   5.296  10.654 -0.1096  0.3734  0.2186
  696MOL0     C95950   8.876   5.283  10.637 -0.3034 -0.0062 -0.8606
  696MOL0     C95951   8.947   5.420  10.661 -0.0274 -1.1514 -0.1126
  696MOL0     C95952   9.088   5.414  10.588  0.5637 -0.4436 -0.1075
  696MOL0     C95953   9.199   5.493  10.653  0.4012  0.0357 -0.7137
  696MOL0     C95954   9.337   5.459  10.592  0.8441  0.1232  0.6827
  696MOL0    Cl95955   9.411   5.609  10.532 -0.4235 -0.2896 -0.5971
  696MOL0     C95956   8.244   4.925  10.590  0.5320  0.5247 -0.1592
  696MOL0     C95957   8.104   4.909  10.591 -0.2706 -0.3065  0.0455
  696MOL0     O95958   7.838   5.130  10.809  0.0110 -0.2383  0.0990
  696MOL0     C95959   7.563   5.069  10.801  0.1892  0.2560 -0.2679
  696MOL0     C95960   7.433   5.020  10.811 -0.0653 -0.1607 -0.5733
  696MOL0     N95961   6.854   4.439  10.732  0.3974 -0.0037 -0.0742
  696MOL0     N95962   6.812   4.349  10.653  0.3898  0.9099  0.1409
  696MOL0     C95963   5.674   4.399  10.623 -0.0731 -0.1970 -0.1841
  696MOL0     C95964   5.540   4.385  10.636  0.2826 -0.1388 -0.0573
  696MOL0     C95965   5.140   4.429  10.818 -0.4399  0.4973 -0.4648
  696MOL0     C95966   5.094   4.314  10.746  0.2154  0.4275 -0.5546
  696MOL0     C95967   4.961   4.255  10.771 -0.1787 -0.4919  0.4900
  696MOL0     C95968   4.883   4.311  10.870  0.2703 -0.1474  0.2318
  696MOL0     O95969   4.762   4.260  10.908  0.9064 -0.0725 -0.1363
  696MOL0     C95970   4.674   4.206  10.801 -0.6684 -0.0843  0.1546
  696MOL0     C95971   4.635   4.056  10.835 -0.5582 -0.6569  0.4957
  696MOL0     C95972   4.515   4.015  10.748 -0.1023 -0.1325 -0.2821
  696MOL0     C95973   4.511   3.861  10.739  0.3598  0.2485 -0.0598
  696MOL0     C95974   4.388   3.825  10.668 -0.1602  0.0599  0.3311
  696MOL0     C95975   4.300   3.795  10.587  0.3514 -0.2507  0.1159
  696MOL0     C95976   4.933   4.412  10.949  0.4083 -0.2858  0.0756
  696MOL0     C95977   5.059   4.474  10.923  0.6341 -0.1867 -0.2766
  696MOL0     C95978   5.102   4.598  11.002 -0.2250 -0.4060 -0.3424
  696MOL0     H95979   5.432   4.698  10.608  0.7677  0.3092  3.0354
  696MOL0     H95980   5.671   4.739  10.575 -2.3378  0.8962  1.0255
  696MOL0     H95981   5.936   4.358  10.529  1.3851  0.2320 -0.6740
  696MOL0     H95982   5.972   4.436  10.681 -1.1447 -1.3978  0.4055
  696MOL0     H95983   6.060   4.538  10.407 -2.4117  1.5211  1.2408
  696MOL0     H95984   6.142   4.573  10.554 -0.4333  0.1971 -1.1276
  696MOL0     H95985   6.127   4.295  10.419 -1.0613 -1.2673  1.6972
  696MOL0     H95986   6.265   4.399  10.422  0.0055  0.4929  0.5681
  696MOL0     H95987   6.143   4.309  10.672 -1.0744  2.2588 -2.5470
  696MOL0     H95988   6.289   4.225  10.596  1.7947  0.8468  0.8170
  696MOL0     H95989   6.366   4.372  10.769 -1.9761 -0.1058  0.4433
  696MOL0     H95990   6.285   4.513  10.718  1.9568  0.8529  1.6508
  696MOL0     H95991   6.431   4.514  10.501 -1.8896 -2.6428 -2.8141
  696MOL0     H95992   6.521   4.482  10.656  0.6358 -0.9339  0.2667
  696MOL0     H95993   6.443   4.271  10.429 -1.1981  1.9619  0.4454
  696MOL0     H95994   6.512   4.233  10.582 -0.5589 -0.9421 -0.0378
  696MOL0     H95995   6.705   4.243  10.427 -1.2565  0.1466 -2.0921
  696MOL0     H95996   6.653   4.393  10.356 -0.5850 -1.1169 -0.6414
  696MOL0     H95997   6.714   4.627  10.512  2.0162 -0.9245 -1.8742
  696MOL0     H95998   6.859   4.646  10.875  3.8990 -2.5239 -0.1065
  696MOL0     H95999   6.768   4.756  10.759 -0.1140 -0.1529 -3.0732
  696MOL0     H96000   6.960   4.824  10.635 -2.3155  0.4510  0.4011
  696MOL0     H96001   6.997   4.850  10.801 -1.1878 -0.6690  0.6298
  696MOL0     H96002   7.134   4.654  10.818  1.4860 -3.3746 -1.7506
  696MOL0     H96003   7.083   4.593  10.671  1.2827 -2.9676  2.7741
  696MOL0     H96004   7.297   4.692  10.636  0.7700  1.6180  0.5351
  696MOL0     H96005   7.178   4.796  10.552 -0.8547  1.9123  0.3380
  696MOL0     H96006   7.437   4.834  10.516  1.8222  0.2622 -1.2579
  696MOL0     H96007   7.727   4.821  10.480 -0.7369 -1.2997 -0.5537
  696MOL0     H96008   7.739   4.986  10.424 -0.8796  0.5883  0.5428
  696MOL0     H96009   7.594   4.898  10.382  0.5554  2.1593 -1.8558
  696MOL0     H96010   8.029   5.249  10.644 -0.8380  0.6705 -2.3726
  696MOL0     H96011   8.264   5.263  10.607  0.0162  0.2728  0.5285
  696MOL0     H96012   8.471   5.253  10.540 -2.0853 -2.0774 -1.1251
  696MOL0     H96013   8.470   5.231  10.716  1.8376 -0.3523  1.0079
  696MOL0     H96014   8.668   5.116  10.732  3.0587  2.6035  0.3107
  696MOL0     H96015   8.683   5.117  10.552 -0.4510  0.6128 -0.2102
  696MOL0     H96016   8.680   5.330  10.749 -1.0604 -1.2006  0.4006
  696MOL0     H96017   8.693   5.374  10.582 -0.9171  0.8588  1.0368
  696MOL0     H96018   8.910   5.243  10.541  2.1682 -2.6425  0.9181
  696MOL0     H96019   8.916   5.208  10.706  1.2371 -0.3597 -2.0843
  696MOL0     H96020   8.898   5.506  10.615  0.7616  2.0294  4.3106
  696MOL0     H96021   8.954   5.450  10.766 -1.9586 -1.8609  0.2613
  696MOL0     H96022   9.069   5.445  10.485  0.1629 -1.6789 -0.4302
  696MOL0     H96023   9.105   5.306  10.579 -6.5102 -2.3723  2.4726
  696MOL0     H96024   9.214   5.469  10.759  2.9761 -1.2105 -1.2870
  696MOL0     H96025   9.177   5.601  10.652  2.1523  0.6166  2.8706
  696MOL0     H96026   9.328   5.384  10.513 -2.4523  0.4618  0.6039
  696MOL0     H96027   9.390   5.402  10.668  2.3282  0.1666 -0.2847
  696MOL0     H96028   8.304   4.839  10.563 -1.5055 -0.2688 -2.6050
  696MOL0     H96029   8.052   4.821  10.554 -0.7656  0.5887 -1.4749
  696MOL0     H96030   7.604   5.126  10.884 -1.3757 -1.6890  1.9529
  696MOL0     H96031   7.372   5.032  10.899  0.9641 -3.1596  0.6830
  696MOL0     H96032   5.726   4.304  10.628  2.7169  1.2386  1.0021
  696MOL0     H96033   5.502   4.288  10.665 -0.9725  0.9533  2.2341
  696MOL0     H96034   5.164   4.259  10.684 -1.5461 -0.7962 -1.5278
  696MOL0     H96035   4.931   4.166  10.717  0.5083 -0.3649 -0.1195
  696MOL0     H96036   4.584   4.266  10.781 -0.2508  0.5695  0.2193
  696MOL0     H96037   4.716   4.213  10.700 -0.3231  1.8342  0.3842
  696MOL0     H96038   4.622   4.055  10.943  0.3684  0.7215  0.6488
  696MOL0     H96039   4.720   3.996  10.800  2.0261  3.7168 -1.6443
  696MOL0     H96040   4.426   4.037  10.808 -1.1209  1.2894 -2.1980
  696MOL0     H96041   4.516   4.060  10.648  2.1826  1.8651  0.5469
  696MOL0     H96042   4.493   3.825  10.841 -2.4202 -0.2758 -0.6501
  696MOL0     H96043   4.589   3.810  10.682 -1.2727 -2.1255 -0.3378
  696MOL0     H96044   4.214   3.786  10.524 -0.3011  2.1653  0.5672
  696MOL0     H96045   4.869   4.459  11.023 -1.3244 -0.8443 -1.0013
  696MOL0     H96046   5.022   4.643  11.060 -0.2665 -0.9964  0.0629
  696MOL0     H96047   5.178   4.568  11.075 -2.1204 -1.6636  1.2105
  696MOL0     H96048   5.128   4.685  10.941  0.3969 -1.0939 -1.0869
  697MOL0     O96049   0.432   5.624   6.630 -0.1688 -0.3880  0.6450
  697MOL0     C96050   0.359   5.532   6.614 -0.4320  0.0540 -0.2362
  697MOL0     O96051   0.395   5.409   6.558 -0.3017 -0.6547 -0.2002
  697MOL0     C96052   0.522   5.396   6.521 -0.8107 -0.0937 -0.7209
  697MOL0     C96053   0.559   5.446   6.394  0.6910 -0.3136  0.0842
  697MOL0     C96054   0.680   5.427   6.342 -0.5669 -0.0610 -0.5101
  697MOL0     C96055   0.780   5.352   6.417 -0.1311 -0.5957 -0.6607
  697MOL0     O96056   0.910   5.309   6.369  0.8130 -0.3543  0.1334
  697MOL0     C96057   0.915   5.267   6.236  0.4433 -0.3222 -0.7563
  697MOL0     C96058   1.060   5.218   6.213  1.1122  0.6740  0.5540
  697MOL0     C96059   1.064   5.135   6.084  0.0633 -0.8613 -0.2921
  697MOL0     C96060   1.200   5.059   6.068  0.5780 -0.4791 -0.3094
  697MOL0     C96061   1.209   4.994   5.926 -0.0039 -0.2199  0.5929
  697MOL0     C96062   1.314   4.889   5.910  0.0640 -0.2598  0.5107
  697MOL0     C96063   1.447   4.954   5.950  0.1289  0.9028 -0.2958
  697MOL0     C96064   1.561   4.858   5.932  0.8686  1.0258 -0.2796
  697MOL0     N96065   1.681   4.923   5.975 -0.5920 -0.3713  0.6282
  697MOL0     C96066   1.747   4.901   6.092  0.1382  0.6970  0.6569
  697MOL0     C96067   1.853   4.981   6.096 -0.3420 -0.5178 -0.3733
  697MOL0     C96068   1.957   4.954   6.211  0.4440 -0.8008  0.5291
  697MOL0     C96069   2.080   4.887   6.153  0.3912 -0.0277 -0.5719
  697MOL0     C96070   2.120   4.759   6.232 -0.6311 -1.6359  0.5460
  697MOL0     C96071   2.266   4.732   6.215  1.0060 -0.1773  0.0870
  697MOL0     O96072   2.312   4.670   6.093 -1.0424 -0.9526  0.2251
  697MOL0     C96073   2.441   4.656   6.050  0.5740 -0.0911 -0.2158
  697MOL0     C96074   2.463   4.704   5.919  0.2375  0.6733 -0.1591
  697MOL0     C96075   2.592   4.706   5.863  0.6144 -0.4079  0.2196
  697MOL0     C96076   2.593   4.787   5.733  0.2612  0.3357  0.1264
  697MOL0     C96077   2.700   4.633   5.919  0.2104  0.0556  0.5058
  697MOL0     C96078   2.833   4.619   5.853  0.6545 -0.0069  0.6796
  697MOL0     O96079   2.946   4.611   5.936 -0.6582  0.3991  0.0720
  697MOL0     C96080   3.069   4.601   5.874  1.0106 -0.3374 -0.3615
  697MOL0     C96081   3.105   4.499   5.788 -0.7062  0.2811  0.3702
  697MOL0     C96082   3.228   4.488   5.718 -0.2293 -1.0590 -0.4114
  697MOL0     C96083   3.323   4.587   5.740 -0.7073  0.2094 -0.0832
  697MOL0     O96084   3.443   4.575   5.675  0.4404  0.2427  0.5397
  697MOL0     C96085   3.531   4.690   5.670 -0.0956 -0.0239 -0.1312
  697MOL0     C96086   3.652   4.639   5.590 -0.1539 -0.0641  0.1606
  697MOL0     C96087   3.776   4.745   5.605 -0.3712 -0.1775 -0.1052
  697MOL0     C96088   3.856   4.698   5.730 -0.4553  0.7667  0.0695
  697MOL0     C96089   3.977   4.796   5.758 -0.2040 -0.0273  0.7584
  697MOL0     C96090   4.054   4.748   5.885  0.2967  0.3118 -0.0765
  697MOL0     C96091   4.170   4.824   5.938  0.3659 -0.2062 -0.8697
  697MOL0     C96092   4.292   4.798   5.860 -0.9443  0.0303  0.5397
  697MOL0    Cl96093   4.330   4.621   5.869  0.2319 -0.1861  0.1792
  697MOL0     C96094   3.290   4.697   5.826 -0.5584  1.4887  0.4004
  697MOL0     C96095   3.172   4.697   5.897  0.4476  0.3935  0.4241
  697MOL0     O96096   2.833   4.627   5.732  0.2638 -0.4409 -0.0261
  697MOL0     C96097   2.671   4.576   6.046 -0.9801 -0.3248 -0.5932
  697MOL0     C96098   2.545   4.589   6.107  0.2458 -0.5253 -1.0242
  697MOL0     N96099   1.861   5.045   5.975  0.0641  0.2162 -0.4997
  697MOL0     N96100   1.751   5.023   5.901 -0.5490  0.6848 -0.4957
  697MOL0     C96101   0.737   5.300   6.544 -0.0310 -0.5759 -0.5350
  697MOL0     C96102   0.609   5.317   6.598 -0.1716 -0.3522  0.1750
  697MOL0     C96103   0.213   5.544   6.660  0.2297 -0.2148 -0.2469
  697MOL0     C96104   0.157   5.445   6.738  0.1678  0.5179  0.4956
  697MOL0     C96105   0.027   5.451   6.778 -0.4598  0.4148  0.5220
  697MOL0     C96106  -0.050   5.560   6.750 -0.6965  0.4113 -0.4485
  697MOL0     O96107  -0.177   5.568   6.802  1.0085  0.7299  0.0122
  697MOL0     C96108  -0.260   5.679   6.767 -0.4360 -0.2649  0.1214
  697MOL0     C96109  -0.401   5.676   6.838 -0.5756  0.4440  0.6326
  697MOL0     C96110  -0.409   5.690   6.990  0.4779 -0.5138 -0.1383
  697MOL0     C96111  -0.505   5.589   7.057 -1.0829 -0.2142 -0.6776
  697MOL0     C96112  -0.643   5.609   7.009  0.4353 -0.4070  0.7279
  697MOL0     C96113  -0.754   5.637   6.967 -0.0604 -0.5682 -0.2082
  697MOL0     C96114   0.001   5.667   6.673 -0.9370  0.0516 -0.6568
  697MOL0     C96115   0.132   5.653   6.619 -0.4889  1.3058  0.7273
  697MOL0     C96116   0.164   5.750   6.509  0.5371  0.7264 -0.2702
  697MOL0     H96117   0.491   5.506   6.334  1.1547 -2.0368 -2.3141
  697MOL0     H96118   0.707   5.462   6.243 -2.4359 -0.8071 -1.3247
  697MOL0     H96119   0.882   5.351   6.175  0.1631  0.3978  0.3473
  697MOL0     H96120   0.843   5.184   6.234 -2.1125  1.5171  2.9489
  697MOL0     H96121   1.131   5.301   6.204  0.6651  0.8982 -1.2865
  697MOL0     H96122   1.090   5.154   6.296 -0.1591 -0.5449  0.1098
  697MOL0     H96123   0.980   5.065   6.077 -0.1638 -0.5910 -0.2811
  697MOL0     H96124   1.060   5.206   6.001  3.7732  2.7432  2.1980
  697MOL0     H96125   1.277   5.135   6.077 -1.0549  1.0662  1.2653
  697MOL0     H96126   1.201   4.986   6.149  1.0443  0.8034  0.8682
  697MOL0     H96127   1.230   5.078   5.860  1.4297  0.3926  1.7579
  697MOL0     H96128   1.117   4.944   5.897  0.1723  0.7205 -1.8379
  697MOL0     H96129   1.293   4.797   5.965 -1.8842 -1.3081 -1.7866
  697MOL0     H96130   1.325   4.863   5.804  0.9398 -0.7876  0.7188
  697MOL0     H96131   1.443   4.987   6.054  2.3090  0.9696 -0.1950
  697MOL0     H96132   1.460   5.040   5.884  0.2263  0.3714 -0.9877
  697MOL0     H96133   1.551   4.763   5.986  0.1218 -0.5424 -2.9894
  697MOL0     H96134   1.569   4.837   5.825 -1.8106  3.4934 -1.0710
  697MOL0     H96135   1.721   4.822   6.162  0.6632  0.0089  0.0966
  697MOL0     H96136   1.908   4.899   6.292 -0.2928  0.5579  1.0520
  697MOL0     H96137   1.998   5.050   6.244  1.8933 -0.7044 -1.4102
  697MOL0     H96138   2.059   4.861   6.049 -0.8181 -0.2246 -0.2989
  697MOL0     H96139   2.162   4.958   6.162  2.5230 -2.5784  3.3541
  697MOL0     H96140   2.100   4.777   6.338 -0.8174  1.9011  0.0390
  697MOL0     H96141   2.073   4.668   6.192  0.2027 -1.3914 -1.0671
  697MOL0     H96142   2.332   4.816   6.241  1.5228  0.0831 -1.9232
  697MOL0     H96143   2.282   4.652   6.288 -1.1247 -0.6782  0.0652
  697MOL0     H96144   2.382   4.764   5.879  1.3258  2.9304  0.8633
  697MOL0     H96145   2.589   4.718   5.648 -0.9468  0.5245  0.0069
  697MOL0     H96146   2.684   4.845   5.715  0.3653 -0.2551 -1.4130
  697MOL0     H96147   2.514   4.863   5.723  1.2112  1.4664  0.8530
  697MOL0     H96148   3.028   4.424   5.777 -1.2521  0.6112  1.7292
  697MOL0     H96149   3.245   4.412   5.642 -1.3140  0.7336 -2.5903
  697MOL0     H96150   3.488   4.784   5.637  3.0625  0.4917 -3.3709
  697MOL0     H96151   3.579   4.706   5.767 -0.3176  1.0519 -0.1883
  697MOL0     H96152   3.686   4.539   5.618 -1.1362  0.0942  2.0708
  697MOL0     H96153   3.628   4.632   5.483  2.2787 -0.7328 -0.4083
  697MOL0     H96154   3.748   4.850   5.611 -0.2093 -0.2179  2.4575
  697MOL0     H96155   3.838   4.733   5.516 -1.5214  1.7239 -1.2272
  697MOL0     H96156   3.883   4.595   5.705 -3.4545  0.0441 -0.5107
  697MOL0     H96157   3.783   4.698   5.812 -1.4506 -1.2204 -0.7640
  697MOL0     H96158   4.046   4.800   5.673 -2.2234 -4.0065 -1.3351
  697MOL0     H96159   3.939   4.897   5.771  1.1714  1.1016 -2.7910
  697MOL0     H96160   4.084   4.643   5.871  0.1661  0.3979 -1.0420
  697MOL0     H96161   3.976   4.748   5.961 -3.6189  2.1876 -3.6868
  697MOL0     H96162   4.196   4.801   6.042  1.9658  1.5670 -0.8192
  697MOL0     H96163   4.154   4.932   5.930  1.5651  0.1314  0.7152
  697MOL0     H96164   4.376   4.851   5.906  0.1007 -0.0732 -1.1675
  697MOL0     H96165   4.276   4.825   5.755  0.9289 -2.5338 -0.4957
  697MOL0     H96166   3.344   4.788   5.853  1.7192  0.1292  0.6971
  697MOL0     H96167   3.146   4.776   5.968  1.8305  0.0307  1.3725
  697MOL0     H96168   2.748   4.520   6.098 -0.4293  0.4899 -0.5188
  697MOL0     H96169   2.517   4.543   6.201 -0.1650  2.7332  0.6201
  697MOL0     H96170   0.814   5.241   6.592 -0.2417  0.1685  0.7686
  697MOL0     H96171   0.576   5.288   6.698 -4.7347 -1.9498 -1.5087
  697MOL0     H96172   0.215   5.361   6.776 -1.8109 -0.7808  0.8039
  697MOL0     H96173  -0.006   5.377   6.850 -0.6883 -0.2854 -0.2848
  697MOL0     H96174  -0.206   5.770   6.792  0.4453 -0.4963 -0.8760
  697MOL0     H96175  -0.270   5.679   6.658  1.3988 -0.8019 -0.0735
  697MOL0     H96176  -0.449   5.583   6.809  1.6415 -1.5975  3.0255
  697MOL0     H96177  -0.467   5.754   6.797  0.3606  0.7409 -0.3576
  697MOL0     H96178  -0.307   5.678   7.027  0.4775  1.3280  0.5734
  697MOL0     H96179  -0.449   5.789   7.014 -0.0322 -0.6613 -0.3608
  697MOL0     H96180  -0.512   5.601   7.166 -0.3625  1.1791 -0.7549
  697MOL0     H96181  -0.474   5.486   7.042  1.2360 -0.2808  3.0716
  697MOL0     H96182  -0.855   5.650   6.933  0.8467  2.3608 -2.1641
  697MOL0     H96183  -0.059   5.756   6.657 -1.1501  0.2343  1.0725
  697MOL0     H96184   0.227   5.833   6.541  3.1975 -1.4684  0.6413
  697MOL0     H96185   0.210   5.703   6.421  0.3077  0.1980 -0.1103
  697MOL0     H96186   0.071   5.785   6.463  1.3826  0.9085 -1.9212
  698MOL0     O96187   5.845   5.739   2.066  0.5225 -0.3020 -0.7684
  698MOL0     C96188   5.798   5.670   1.973 -0.3182 -0.3230  0.2050
  698MOL0     O96189   5.860   5.560   1.922  0.3611 -0.3207  0.1754
  698MOL0     C96190   5.990   5.516   1.960  1.0701 -0.1125  0.0546
  698MOL0     C96191   6.084   5.562   2.059  0.8291  0.0767 -0.1050
  698MOL0     C96192   6.210   5.509   2.078  0.3049  0.7689 -0.8894
  698MOL0     C96193   6.256   5.398   1.998 -0.4473 -0.7283  1.0219
  698MOL0     O96194   6.380   5.335   1.992 -0.0648 -0.0514 -0.2966
  698MOL0     C96195   6.433   5.302   2.122 -0.3495  1.5052 -0.7928
  698MOL0     C96196   6.532   5.182   2.108 -0.1597  0.0032 -0.2790
  698MOL0     C96197   6.607   5.137   2.238 -0.2908 -0.2701  0.0619
  698MOL0     C96198   6.533   5.026   2.310 -0.9183 -0.0581  0.4387
  698MOL0     C96199   6.610   4.967   2.429 -0.1686 -1.0841 -0.1954
  698MOL0     C96200   6.518   4.887   2.520  0.2818 -0.1351 -0.2466
  698MOL0     C96201   6.491   4.752   2.444  0.8188 -0.3933 -1.2223
  698MOL0     C96202   6.422   4.650   2.544 -1.0151 -0.4645 -0.1828
  698MOL0     N96203   6.369   4.535   2.474 -0.4824  1.0640  0.5248
  698MOL0     C96204   6.279   4.535   2.376  0.1744 -0.8070  0.0475
  698MOL0     C96205   6.242   4.407   2.360 -0.8814  0.8833 -0.6349
  698MOL0     C96206   6.132   4.362   2.273  0.3561  0.5711  0.4893
  698MOL0     C96207   6.030   4.269   2.342 -0.9261 -0.2151  0.2266
  698MOL0     C96208   5.997   4.315   2.481 -0.3821  0.6500  0.1348
  698MOL0     C96209   5.929   4.454   2.477  0.0557  0.8169  0.2319
  698MOL0     O96210   5.867   4.489   2.602 -0.4599 -0.2329  0.2389
  698MOL0     C96211   5.946   4.531   2.705 -0.4434  0.7512  0.1198
  698MOL0     C96212   6.020   4.647   2.701  0.0400 -0.5336 -0.6064
  698MOL0     C96213   6.106   4.688   2.805 -0.2222 -0.5709 -0.4982
  698MOL0     C96214   6.183   4.815   2.792  0.4218  0.8418 -0.9043
  698MOL0     C96215   6.112   4.614   2.924 -0.2002  0.8402  0.1689
  698MOL0     C96216   6.180   4.663   3.048  0.3049  1.0361 -0.1840
  698MOL0     O96217   6.190   4.566   3.150  0.1224 -0.9220  0.4166
  698MOL0     C96218   6.213   4.615   3.275 -0.7079 -0.0009 -0.8886
  698MOL0     C96219   6.337   4.585   3.323 -1.4683 -0.0586  0.4546
  698MOL0     C96220   6.373   4.621   3.449  0.3558  0.5132 -0.1758
  698MOL0     C96221   6.285   4.699   3.526  1.0914 -1.9631  0.5597
  698MOL0     O96222   6.340   4.748   3.642 -0.0174  1.0262 -0.0603
  698MOL0     C96223   6.254   4.792   3.747  0.8435 -0.2361 -0.1806
  698MOL0     C96224   6.321   4.846   3.867 -0.0257 -0.6331 -0.2117
  698MOL0     C96225   6.418   4.957   3.840  0.1591 -0.4706  0.8370
  698MOL0     C96226   6.478   5.001   3.973  0.4133 -0.0079 -1.0674
  698MOL0     C96227   6.579   5.116   3.962 -0.8046 -0.5253  0.4054
  698MOL0     C96228   6.630   5.194   4.091 -0.0030  0.1689  0.1385
  698MOL0     C96229   6.750   5.139   4.156  0.1145 -0.0041  0.0127
  698MOL0     C96230   6.848   5.236   4.226 -0.2860  0.3258 -0.6146
  698MOL0    Cl96231   6.905   5.348   4.106  0.2812 -0.2484 -0.0592
  698MOL0     C96232   6.151   4.733   3.477 -0.7488  0.4089 -0.6934
  698MOL0     C96233   6.120   4.688   3.349 -0.2157 -0.5747 -0.4317
  698MOL0     O96234   6.222   4.778   3.056  0.5725 -0.7140  0.1639
  698MOL0     C96235   6.036   4.494   2.931  0.4812  0.7842 -0.1280
  698MOL0     C96236   5.955   4.449   2.822 -0.9275 -0.2761 -0.4318
  698MOL0     N96237   6.329   4.331   2.443 -0.2300  0.1433  0.5044
  698MOL0     N96238   6.402   4.406   2.513  0.4215 -0.3816 -0.2792
  698MOL0     C96239   6.161   5.359   1.899 -0.3260  0.2368  0.6684
  698MOL0     C96240   6.042   5.421   1.878  0.0458  0.3017 -0.0893
  698MOL0     C96241   5.671   5.702   1.907  0.8512 -0.2555  0.1150
  698MOL0     C96242   5.638   5.641   1.780 -0.4519  0.3661 -0.7505
  698MOL0     C96243   5.532   5.668   1.695 -0.2486 -0.8427 -0.6755
  698MOL0     C96244   5.448   5.767   1.742  0.8575  0.5173 -0.3197
  698MOL0     O96245   5.335   5.795   1.668  0.6329  0.9754  0.4065
  698MOL0     C96246   5.330   5.921   1.607 -1.0190 -1.1540 -0.6158
  698MOL0     C96247   5.187   5.966   1.568  1.0476 -0.2975  0.3438
  698MOL0     C96248   5.184   6.092   1.473  0.0465 -0.2887 -0.0901
  698MOL0     C96249   5.043   6.101   1.403  0.2373  0.0701  0.1916
  698MOL0     C96250   4.932   6.072   1.489  0.2726  0.9796  0.1332
  698MOL0     C96251   4.844   6.039   1.563 -0.4973 -0.4152 -0.7632
  698MOL0     C96252   5.455   5.813   1.872 -0.2098  0.2898 -0.6488
  698MOL0     C96253   5.569   5.787   1.951  0.5484 -0.5940 -0.1795
  698MOL0     C96254   5.582   5.867   2.078 -0.2999 -0.5475 -0.5880
  698MOL0     H96255   6.055   5.644   2.124 -1.7736 -0.3323 -0.6222
  698MOL0     H96256   6.283   5.548   2.148  1.6346 -1.5183 -0.8915
  698MOL0     H96257   6.352   5.279   2.190 -1.8285  1.0297 -2.6292
  698MOL0     H96258   6.490   5.389   2.157  0.0343  0.1595  2.2228
  698MOL0     H96259   6.471   5.107   2.058 -0.9556  1.6367 -1.8993
  698MOL0     H96260   6.608   5.216   2.038  0.5413 -1.5298 -0.2896
  698MOL0     H96261   6.702   5.104   2.194 -0.2365  1.7383 -1.5200
  698MOL0     H96262   6.636   5.210   2.314  0.8688 -1.4293  0.7701
  698MOL0     H96263   6.429   5.051   2.333 -0.6136  0.9930  0.7007
  698MOL0     H96264   6.523   4.949   2.232 -2.4967 -1.2058  1.6970
  698MOL0     H96265   6.656   5.047   2.488 -0.0279  0.2179 -1.9689
  698MOL0     H96266   6.684   4.908   2.375 -0.9147 -0.4186 -2.0687
  698MOL0     H96267   6.579   4.873   2.610  1.4202  1.1931 -0.7962
  698MOL0     H96268   6.424   4.937   2.547 -0.0359 -1.2628  0.8755
  698MOL0     H96269   6.593   4.718   2.421  0.7496 -0.2339 -1.7730
  698MOL0     H96270   6.432   4.769   2.353 -1.3005 -3.8342 -0.6750
  698MOL0     H96271   6.491   4.617   2.622 -0.8306 -0.2618 -0.2579
  698MOL0     H96272   6.331   4.689   2.589 -2.4405 -0.4896 -2.8410
  698MOL0     H96273   6.245   4.629   2.332  1.8773 -0.2907 -0.2634
  698MOL0     H96274   6.178   4.317   2.184  0.6765  0.5013  0.6884
  698MOL0     H96275   6.084   4.449   2.228  1.4493  0.6803 -0.5410
  698MOL0     H96276   5.939   4.257   2.283 -1.7108  3.7698  0.3448
  698MOL0     H96277   6.079   4.173   2.361 -2.3888 -0.9117  0.6312
  698MOL0     H96278   5.933   4.235   2.520  1.8787 -0.8251  1.0610
  698MOL0     H96279   6.088   4.323   2.541 -0.7930 -0.2665  0.9158
  698MOL0     H96280   6.005   4.520   2.433 -0.2466 -0.0617 -1.7373
  698MOL0     H96281   5.845   4.446   2.408 -0.6300  4.0047  0.5537
  698MOL0     H96282   6.027   4.703   2.609 -0.9171  0.0104 -0.3538
  698MOL0     H96283   6.290   4.802   2.812  0.5288 -0.2920 -2.0453
  698MOL0     H96284   6.143   4.888   2.863  0.7683  0.1382  0.0287
  698MOL0     H96285   6.197   4.843   2.687 -0.6828  4.3006 -0.2436
  698MOL0     H96286   6.412   4.528   3.268 -1.5687 -1.7211  1.9264
  698MOL0     H96287   6.467   4.598   3.498 -0.7040 -0.4062  1.5324
  698MOL0     H96288   6.207   4.880   3.701  3.5478  0.7779 -1.1874
  698MOL0     H96289   6.184   4.715   3.782  0.9463 -0.6845 -0.9447
  698MOL0     H96290   6.257   4.895   3.942  1.5502  2.7397 -0.8716
  698MOL0     H96291   6.371   4.767   3.923  1.8724  1.7960  1.7496
  698MOL0     H96292   6.358   5.031   3.786 -1.6241 -1.2451  1.6799
  698MOL0     H96293   6.494   4.920   3.770  1.4140  0.8247  1.4600
  698MOL0     H96294   6.510   4.911   4.025  0.4147  0.2299 -0.6569
  698MOL0     H96295   6.397   5.034   4.038  2.2298 -0.7926  1.7377
  698MOL0     H96296   6.662   5.077   3.904  0.5583  1.4870  0.9081
  698MOL0     H96297   6.534   5.192   3.898  0.7348 -0.5054 -0.6919
  698MOL0     H96298   6.551   5.197   4.167 -0.6064  0.2814 -0.4791
  698MOL0     H96299   6.646   5.299   4.066  2.1358 -0.7779 -3.1536
  698MOL0     H96300   6.808   5.075   4.089 -1.2787  0.9530 -2.2332
  698MOL0     H96301   6.720   5.066   4.232  1.0513 -1.4319 -0.9546
  698MOL0     H96302   6.933   5.176   4.260  0.7448  2.2971  0.4390
  698MOL0     H96303   6.807   5.282   4.316  2.6227  3.4638 -0.7037
  698MOL0     H96304   6.075   4.788   3.532  0.4417  1.2330  0.1893
  698MOL0     H96305   6.021   4.714   3.313 -0.1241  0.7004  0.2026
  698MOL0     H96306   6.045   4.432   3.020 -1.4087  2.2830  1.1927
  698MOL0     H96307   5.906   4.353   2.833 -2.4439  0.7121  2.2903
  698MOL0     H96308   6.179   5.270   1.839 -0.9713 -0.9630  2.2120
  698MOL0     H96309   5.975   5.380   1.803  0.7128  0.4273 -0.7645
  698MOL0     H96310   5.700   5.557   1.752 -1.5189 -0.8416  0.3762
  698MOL0     H96311   5.517   5.622   1.598 -1.0536 -0.2324 -0.8489
  698MOL0     H96312   5.380   5.994   1.672  1.0411 -1.1669 -2.0712
  698MOL0     H96313   5.398   5.917   1.522  3.8054  3.7124  2.3313
  698MOL0     H96314   5.123   5.995   1.651 -0.3121 -2.3621  0.0980
  698MOL0     H96315   5.142   5.877   1.523  1.1012 -0.3177  0.3292
  698MOL0     H96316   5.205   6.184   1.530  0.6155 -1.2335  1.2687
  698MOL0     H96317   5.270   6.087   1.405  0.1557  3.1270 -0.3889
  698MOL0     H96318   5.036   6.042   1.312  1.6756 -0.9547  0.7197
  698MOL0     H96319   5.031   6.204   1.366 -2.8300 -0.0912  0.5296
  698MOL0     H96320   4.761   6.018   1.628 -0.2786 -0.1432 -0.3891
  698MOL0     H96321   5.388   5.890   1.909 -2.9728 -0.8919 -2.8456
  698MOL0     H96322   5.665   5.937   2.068 -0.3932 -0.5785 -1.6497
  698MOL0     H96323   5.497   5.930   2.107  1.1740  0.1055  2.8375
  698MOL0     H96324   5.598   5.786   2.150 -0.3743 -1.4793 -1.5867
  699MOL0     O96325   1.901   6.144   0.165 -0.7930 -0.2605 -0.4095
  699MOL0     C96326   1.843   6.239   0.212  0.0418 -0.2210 -0.3226
  699MOL0     O96327   1.888   6.366   0.217 -0.7318 -0.8188 -0.9424
  699MOL0     C96328   2.024   6.374   0.208  0.4175 -0.3481 -0.4719
  699MOL0     C96329   2.105   6.379   0.325  0.2580 -0.3528 -0.8967
  699MOL0     C96330   2.248   6.374   0.318  0.0105  0.6617  0.4167
  699MOL0     C96331   2.311   6.354   0.190  0.3721 -0.6006 -0.2233
  699MOL0     O96332   2.447   6.349   0.174 -0.4245  0.5119 -0.0508
  699MOL0     C96333   2.528   6.322   0.289  0.9340 -0.8375  0.2704
  699MOL0     C96334   2.668   6.288   0.233  0.5010 -0.1392  0.3939
  699MOL0     C96335   2.737   6.406   0.178  0.2825 -0.6513  0.0763
  699MOL0     C96336   2.882   6.380   0.132  0.2020  0.3577 -0.3473
  699MOL0     C96337   2.949   6.514   0.093  0.2165 -0.7282 -0.0761
  699MOL0     C96338   2.990   6.593   0.217  0.2035  0.7959  0.6787
  699MOL0     C96339   3.030   6.736   0.182  0.7377 -0.0388  0.5287
  699MOL0     C96340   3.129   6.762   0.063  0.3029  0.7964  0.1242
  699MOL0     N96341   3.153   6.896   0.028 -0.8951 -1.1907 -0.2518
  699MOL0     C96342   3.210   7.000   0.108 -0.0622  0.3027 -0.3397
  699MOL0     C96343   3.181   7.110   0.034  0.2557  1.1505  0.0064
  699MOL0     C96344   3.209   7.240   0.082 -0.8006 -0.2842  0.2738
  699MOL0     C96345   3.367   7.273   0.055  0.0612  0.7474  0.3619
  699MOL0     C96346   3.400   7.404   0.140  0.2167  0.3058 -0.7070
  699MOL0     C96347   3.547   7.407   0.177  0.5672 -1.0976  0.5576
  699MOL0     O96348   3.597   7.298   0.246  0.5044  0.5799  0.9779
  699MOL0     C96349   3.727   7.308   0.273  0.4258 -0.5217 -0.6743
  699MOL0     C96350   3.811   7.425   0.256  1.4655  0.5046  1.0849
  699MOL0     C96351   3.951   7.422   0.269 -0.6599 -0.4721 -0.4645
  699MOL0     C96352   4.024   7.555   0.243 -0.4531  0.6840  0.1159
  699MOL0     C96353   4.008   7.299   0.316  0.2247  0.2600 -0.6615
  699MOL0     C96354   4.156   7.282   0.326  0.0400 -1.1051 -0.0812
  699MOL0     O96355   4.198   7.209   0.429  0.5527 -0.0448 -0.2121
  699MOL0     C96356   4.330   7.168   0.428 -0.0246 -0.4669 -0.4499
  699MOL0     C96357   4.359   7.044   0.388  1.0036 -0.0247 -0.3592
  699MOL0     C96358   4.483   6.988   0.395 -0.6655  0.5441 -0.1549
  699MOL0     C96359   4.590   7.058   0.449  0.2481 -0.3162 -0.1240
  699MOL0     O96360   4.720   7.018   0.464  0.4395  0.3736  0.7312
  699MOL0     C96361   4.768   6.892   0.422 -0.0561  0.3708 -0.0387
  699MOL0     C96362   4.920   6.886   0.438 -0.4550  0.4824 -0.3678
  699MOL0     C96363   4.980   6.910   0.588  0.7198  0.3800  0.7905
  699MOL0     C96364   5.130   6.924   0.568 -0.0252 -0.5506 -0.4042
  699MOL0     C96365   5.200   6.938   0.706 -0.1611 -0.2628 -0.0490
  699MOL0     C96366   5.351   6.949   0.685 -0.5782  0.1825 -0.0083
  699MOL0     C96367   5.433   6.947   0.815  0.1224 -0.9070 -0.1652
  699MOL0     C96368   5.586   6.967   0.791 -0.2393  0.8323  0.2657
  699MOL0    Cl96369   5.638   6.809   0.732  0.4329  0.3705 -0.4333
  699MOL0     C96370   4.565   7.196   0.488 -0.1238 -0.8078 -0.3730
  699MOL0     C96371   4.436   7.252   0.471  0.4752  0.2469  0.4629
  699MOL0     O96372   4.228   7.342   0.240  0.0598 -0.0132 -0.5044
  699MOL0     C96373   3.927   7.190   0.340  0.6792  0.7165 -1.1758
  699MOL0     C96374   3.789   7.196   0.324  0.3146  0.1689  0.1779
  699MOL0     N96375   3.131   7.074  -0.086  0.2734  0.1185 -0.2994
  699MOL0     N96376   3.113   6.941  -0.091 -0.0256 -0.6757  0.2175
  699MOL0     C96377   2.228   6.339   0.080  0.2084 -0.3596  0.4447
  699MOL0     C96378   2.090   6.374   0.082 -0.6864  0.6290 -0.0801
  699MOL0     C96379   1.700   6.226   0.259 -0.5190 -0.2658  0.6902
  699MOL0     C96380   1.608   6.390   0.345  0.1307 -0.3728 -0.6569
  699MOL0     C96381   1.404   6.380   0.403  0.1332  0.5463  0.3915
  699MOL0     C96382   1.295   6.204   0.371  0.0034 -0.1613  0.1129
  699MOL0     O96383   1.158   6.214   0.406 -0.6232 -0.4260  0.3262
  699MOL0     C96384   1.084   6.100   0.391 -0.9511  0.5845 -0.4473
  699MOL0     C96385   0.927   6.129   0.391  0.1424  0.4163  0.2943
  699MOL0     C96386   0.875   6.247   0.305  0.1133  0.1463 -0.4288
  699MOL0     C96387   0.904   6.230   0.157 -0.2898 -0.2446  0.7484
  699MOL0     C96388   0.814   6.133   0.097  0.1258  0.6412 -0.3862
  699MOL0     C96389   0.732   6.064   0.035 -1.0795 -0.4031  0.4748
  699MOL0     C96390   1.389   6.032   0.283  0.3125 -0.3084  0.9665
  699MOL0     C96391   1.591   6.041   0.228 -0.0988 -0.5763 -1.0496
  699MOL0     C96392   1.655   5.924   0.151  0.6604  0.0425 -0.1045
  699MOL0     H96393   2.064   6.387   0.425  2.3001  0.5801 -0.0835
  699MOL0     H96394   2.307   6.366   0.409 -0.5968  0.1117  0.7734
  699MOL0     H96395   2.489   6.244   0.355  0.6401  0.6960  1.9811
  699MOL0     H96396   2.521   6.412   0.351 -3.8512  0.4960 -1.7060
  699MOL0     H96397   2.726   6.262   0.322 -2.0183 -0.6695  2.0087
  699MOL0     H96398   2.680   6.201   0.169  0.1281 -1.7194  2.3730
  699MOL0     H96399   2.676   6.446   0.096 -3.8209 -0.3920  2.9331
  699MOL0     H96400   2.734   6.476   0.262  2.6553 -3.9091  3.1474
  699MOL0     H96401   2.938   6.345   0.219  1.4408 -1.5060 -1.8172
  699MOL0     H96402   2.884   6.306   0.052 -1.0307  1.5745 -1.5642
  699MOL0     H96403   2.888   6.571   0.022  1.6856  1.1527  0.0873
  699MOL0     H96404   3.037   6.487   0.033  2.1958  0.7715  1.9965
  699MOL0     H96405   2.910   6.591   0.292 -0.8700  1.0518 -0.4308
  699MOL0     H96406   3.066   6.533   0.268  0.7412 -1.0416 -2.0225
  699MOL0     H96407   3.087   6.770   0.268  1.6461 -2.0246  0.7813
  699MOL0     H96408   2.935   6.791   0.175 -0.0114 -1.3501 -0.3243
  699MOL0     H96409   3.229   6.724   0.087  0.4500  1.8509  1.2803
  699MOL0     H96410   3.094   6.709  -0.026 -0.9061  0.9247  0.5042
  699MOL0     H96411   3.261   6.999   0.203  0.6974 -3.9347 -0.5794
  699MOL0     H96412   3.185   7.262   0.186 -0.9163 -1.0465  0.4136
  699MOL0     H96413   3.144   7.306   0.023  0.2160  0.9750  0.5174
  699MOL0     H96414   3.422   7.187   0.097 -1.2793 -1.4202 -2.0556
  699MOL0     H96415   3.393   7.286  -0.050  2.7883  2.0401  1.1045
  699MOL0     H96416   3.369   7.491   0.081 -3.7810  0.6203  1.5054
  699MOL0     H96417   3.335   7.402   0.228 -2.6025 -1.2598 -2.6529
  699MOL0     H96418   3.610   7.427   0.091  0.5472  0.7271  0.9156
  699MOL0     H96419   3.554   7.502   0.231 -0.2903 -0.5891 -0.1901
  699MOL0     H96420   3.778   7.521   0.217  0.4721  0.0940  0.8770
  699MOL0     H96421   3.958   7.638   0.219 -1.5942 -0.4753 -0.9221
  699MOL0     H96422   4.098   7.552   0.163  1.1964 -0.4430  1.5938
  699MOL0     H96423   4.082   7.573   0.334 -1.1175 -1.2905  0.9934
  699MOL0     H96424   4.280   6.979   0.351  1.1321 -0.3312 -0.0887
  699MOL0     H96425   4.494   6.885   0.363  1.0930  0.9804 -1.0722
  699MOL0     H96426   4.732   6.808   0.481  1.4452 -0.5257 -0.3435
  699MOL0     H96427   4.737   6.893   0.317 -2.2938  0.9668  0.5771
  699MOL0     H96428   4.961   6.793   0.398  0.8991  0.0138  1.9100
  699MOL0     H96429   4.957   6.971   0.381 -0.2477  2.3106  2.2987
  699MOL0     H96430   4.966   6.815   0.639 -0.6489  0.1240  0.0070
  699MOL0     H96431   4.929   6.984   0.650  1.9451  1.5300  0.4637
  699MOL0     H96432   5.149   7.020   0.518 -0.3454  0.8693  2.0451
  699MOL0     H96433   5.166   6.843   0.505  0.3895 -0.9349  0.3274
  699MOL0     H96434   5.174   7.036   0.747  1.6293  0.4781 -0.5859
  699MOL0     H96435   5.182   6.855   0.776  0.6158  0.1421  0.6612
  699MOL0     H96436   5.374   7.039   0.627  1.0750  0.2736  0.7060
  699MOL0     H96437   5.387   6.870   0.618 -1.0046  1.1359 -1.4104
  699MOL0     H96438   5.405   6.859   0.872 -1.1708  0.0866  0.8061
  699MOL0     H96439   5.401   7.037   0.870  0.5475 -1.0835  0.3757
  699MOL0     H96440   5.633   6.985   0.889 -1.0842 -0.7478  1.0080
  699MOL0     H96441   5.621   7.046   0.725  1.8755  0.2969  0.6856
  699MOL0     H96442   4.645   7.253   0.535 -0.3213 -0.7866 -0.0594
  699MOL0     H96443   4.402   7.351   0.497 -3.7940 -1.2455  1.4176
  699MOL0     H96444   3.982   7.099   0.363  2.7053  1.5715 -2.3697
  699MOL0     H96445   3.726   7.113   0.356 -0.8145  0.8874 -0.1359
  699MOL0     H96446   2.283   6.331  -0.013  1.6970  3.9220  0.7147
  699MOL0     H96447   2.030   6.381  -0.009 -0.4074 -1.8543 -0.5368
  699MOL0     H96448   1.666   6.481   0.352  0.2224 -0.2867 -2.3387
  699MOL0     H96449   1.368   6.473   0.447 -0.1614  0.7498 -0.2770
  699MOL0     H96450   1.111   6.056   0.294  0.3136  1.3511 -0.4575
  699MOL0     H96451   1.119   6.024   0.461  0.5544  1.0806 -0.6346
  699MOL0     H96452   0.887   6.147   0.491 -1.4771  0.8975 -0.3952
  699MOL0     H96453   0.869   6.042   0.358  0.7750 -0.0296  0.3397
  699MOL0     H96454   0.769   6.262   0.326 -0.3586  1.4444 -3.3016
  699MOL0     H96455   0.917   6.338   0.349 -1.1200  1.6635 -2.2435
  699MOL0     H96456   1.009   6.200   0.155  0.4825  2.3184  0.3615
  699MOL0     H96457   0.895   6.327   0.108  0.8608 -0.6597 -0.3361
  699MOL0     H96458   0.652   6.028  -0.027 -0.4885  0.6783 -0.9791
  699MOL0     H96459   1.335   5.942   0.256 -0.0424  0.0131  0.5826
  699MOL0     H96460   1.575   5.849   0.143 -0.0367  0.4729  2.0741
  699MOL0     H96461   1.688   5.958   0.053 -2.3580  1.5981 -0.6999
  699MOL0     H96462   1.735   5.879   0.210 -1.7698 -2.0564  1.8230
  700MOL0     O96463   1.837  10.786   7.513  0.6823  0.0149  0.4403
  700MOL0     C96464   1.734  10.726   7.538 -0.6069  0.0831 -0.0104
  700MOL0     O96465   1.722  10.596   7.591 -0.1900  0.3626  0.0593
  700MOL0     C96466   1.830  10.513   7.616 -0.0489  0.3905  0.1394
  700MOL0     C96467   1.964  10.519   7.575 -0.1362  0.0966  0.2562
  700MOL0     C96468   2.061  10.440   7.633  1.1864  0.5925 -0.1019
  700MOL0     C96469   2.022  10.328   7.720  0.9565 -0.0558  0.7799
  700MOL0     O96470   2.130  10.260   7.763  0.8799  0.3523 -0.1776
  700MOL0     C96471   2.114  10.110   7.761  0.1282 -0.4142  0.5494
  700MOL0     C96472   2.246  10.026   7.788 -0.5103 -0.0766  0.8844
  700MOL0     C96473   2.252   9.995   7.933  0.7779  0.5407 -0.0856
  700MOL0     C96474   2.366   9.902   7.967  0.0812  0.4157 -1.0368
  700MOL0     C96475   2.368   9.884   8.120 -0.4684 -0.0353 -0.5796
  700MOL0     C96476   2.252   9.812   8.185  0.2300  0.1604 -0.5231
  700MOL0     C96477   2.279   9.779   8.333  0.0245  0.2248 -0.1251
  700MOL0     C96478   2.146   9.769   8.416 -0.4599  0.4486 -0.2654
  700MOL0     N96479   2.084   9.633   8.401 -0.2561  0.4154 -0.2264
  700MOL0     C96480   2.149   9.517   8.383 -0.0252 -0.3381  0.4382
  700MOL0     C96481   2.058   9.426   8.322  0.0131  0.6632  0.1698
  700MOL0     C96482   2.079   9.279   8.320 -0.6586 -0.2324 -0.5221
  700MOL0     C96483   2.227   9.244   8.275 -0.3282  0.1709 -0.1250
  700MOL0     C96484   2.241   9.253   8.124 -0.0128  0.0633  0.3725
  700MOL0     C96485   2.166   9.148   8.039  0.5185  0.5793 -0.1969
  700MOL0     O96486   2.187   9.174   7.899  0.1988 -0.9501  0.6180
  700MOL0     C96487   2.140   9.106   7.791 -0.6240  0.5263  0.1412
  700MOL0     C96488   2.188   9.138   7.662  0.0546 -0.4998  0.4615
  700MOL0     C96489   2.146   9.068   7.552  0.2164 -0.5940  0.1963
  700MOL0     C96490   2.190   9.116   7.415 -0.3622  0.0403 -0.3429
  700MOL0     C96491   2.048   8.968   7.569 -0.3757 -0.0747 -0.4359
  700MOL0     C96492   1.982   8.895   7.457  0.1546  0.3260  0.6523
  700MOL0     O96493   1.925   8.972   7.356 -0.3578 -1.1501 -0.0686
  700MOL0     C96494   1.862   8.900   7.249  1.1876  0.8534  0.6279
  700MOL0     C96495   1.927   8.785   7.198  0.4015 -1.1384  0.0920
  700MOL0     C96496   1.857   8.713   7.095 -0.1205  0.1248  0.3688
  700MOL0     C96497   1.746   8.768   7.034  0.1549 -0.1189  0.6410
  700MOL0     O96498   1.668   8.709   6.933 -0.3544 -0.5556 -0.1794
  700MOL0     C96499   1.727   8.600   6.870  0.0368  0.8172 -0.5323
  700MOL0     C96500   1.641   8.563   6.752 -0.5178 -0.2600  0.1681
  700MOL0     C96501   1.517   8.491   6.791 -0.0872  0.5258 -0.8157
  700MOL0     C96502   1.458   8.418   6.670 -0.3802 -0.0515 -0.0321
  700MOL0     C96503   1.340   8.331   6.703  0.2564  0.1454 -0.6295
  700MOL0     C96504   1.386   8.191   6.749 -0.7283 -0.8896 -0.1565
  700MOL0     C96505   1.268   8.097   6.780  0.6210  1.0237 -0.0818
  700MOL0     C96506   1.306   7.969   6.850  0.7074  0.0512 -0.1172
  700MOL0    Cl96507   1.414   7.859   6.751 -0.0240  0.0580  0.3076
  700MOL0     C96508   1.679   8.884   7.083  0.0911  0.1507 -0.5873
  700MOL0     C96509   1.743   8.946   7.191 -0.3044  0.6243 -0.2668
  700MOL0     O96510   1.961   8.779   7.476  0.2167  0.1784  0.4240
  700MOL0     C96511   2.005   8.938   7.698  0.1708  0.7852  0.2419
  700MOL0     C96512   2.046   9.004   7.812 -0.2349 -0.2508  0.6746
  700MOL0     N96513   1.948   9.507   8.289 -0.4362 -0.3934  0.4840
  700MOL0     N96514   1.962   9.636   8.332  0.9945  0.1342  0.1096
  700MOL0     C96515   1.891  10.311   7.745  0.8347 -0.6699  0.0165
  700MOL0     C96516   1.791  10.401   7.695  0.0339  0.6481  0.4498
  700MOL0     C96517   1.601  10.797   7.534 -0.4861 -0.0593  0.4418
  700MOL0     C96518   1.477  10.724   7.537 -1.0254 -1.3193  0.7632
  700MOL0     C96519   1.356  10.789   7.531  0.1002  0.1681  0.1069
  700MOL0     C96520   1.344  10.925   7.532  0.2657 -0.1317  0.8463
  700MOL0     O96521   1.223  10.985   7.521 -1.2922  0.3113  0.3743
  700MOL0     C96522   1.219  11.128   7.482 -0.4492  0.7877  0.3838
  700MOL0     C96523   1.069  11.159   7.475 -0.1966 -0.9675 -0.2590
  700MOL0     C96524   0.997  11.055   7.391 -0.4317 -0.4311  0.3744
  700MOL0     C96525   0.850  11.102   7.377  0.8452 -0.2847  0.6215
  700MOL0     C96526   0.815  11.172   7.251 -0.8977 -0.0868  0.4546
  700MOL0     C96527   0.779  11.230   7.148  0.2911  0.1501  0.9304
  700MOL0     C96528   1.465  11.002   7.537 -0.3435  0.6633 -0.3093
  700MOL0     C96529   1.589  10.941   7.541 -0.0555  0.9057 -0.4856
  700MOL0     C96530   1.708  11.034   7.561 -0.4545 -0.1591  0.0135
  700MOL0     H96531   1.994  10.597   7.506  0.3606  1.2778  1.7429
  700MOL0     H96532   2.169  10.450   7.626  1.5298 -2.5202 -0.9880
  700MOL0     H96533   2.062  10.080   7.669  2.8165 -0.7848 -0.9544
  700MOL0     H96534   2.037  10.076   7.831  0.0884 -0.3820  0.5213
  700MOL0     H96535   2.242   9.936   7.727 -0.4081 -0.2523  1.1378
  700MOL0     H96536   2.339  10.070   7.752 -0.6772  2.8692  3.5884
  700MOL0     H96537   2.260  10.084   7.997  1.7143 -0.6639  1.5650
  700MOL0     H96538   2.160   9.944   7.961  0.3027 -0.8866 -3.7041
  700MOL0     H96539   2.353   9.812   7.907 -1.1922 -1.4598  1.8491
  700MOL0     H96540   2.460   9.953   7.945 -0.6467  1.9148 -0.8014
  700MOL0     H96541   2.371   9.980   8.173  0.0011 -0.6328  0.5021
  700MOL0     H96542   2.456   9.825   8.150 -0.9722  0.5444  2.4029
  700MOL0     H96543   2.168   9.881   8.180 -0.9543 -1.0747  1.0980
  700MOL0     H96544   2.227   9.722   8.128  0.3065  0.1329 -0.5139
  700MOL0     H96545   2.344   9.854   8.379  2.9189 -2.3462  0.2665
  700MOL0     H96546   2.348   9.699   8.358 -0.1003  1.5353  5.6760
  700MOL0     H96547   2.154   9.793   8.522 -1.3286  0.2171 -0.1372
  700MOL0     H96548   2.077   9.844   8.375 -0.2592 -0.3172 -2.1124
  700MOL0     H96549   2.245   9.494   8.429  0.2369 -0.7415 -0.3018
  700MOL0     H96550   2.014   9.215   8.260 -0.2683 -0.2185 -0.9643
  700MOL0     H96551   2.077   9.243   8.424  4.0879 -1.4460 -0.6273
  700MOL0     H96552   2.292   9.313   8.330 -3.3519  2.5090  0.7609
  700MOL0     H96553   2.231   9.140   8.309 -2.7510 -0.3177 -1.1272
  700MOL0     H96554   2.201   9.350   8.094  0.8495 -0.1735 -1.7595
  700MOL0     H96555   2.346   9.244   8.096 -0.3923 -0.5095 -0.9928
  700MOL0     H96556   2.224   9.056   8.051 -1.2104 -0.6143 -0.6640
  700MOL0     H96557   2.061   9.130   8.062  0.4179  1.6460  0.2618
  700MOL0     H96558   2.260   9.219   7.654 -0.0428 -0.4123  0.4765
  700MOL0     H96559   2.125   9.195   7.377 -0.3779 -1.2238 -3.1406
  700MOL0     H96560   2.193   9.026   7.352 -1.7035 -0.5716  0.4240
  700MOL0     H96561   2.292   9.150   7.432  0.0355  0.0749 -2.6001
  700MOL0     H96562   2.027   8.755   7.230 -0.2733 -1.1081  2.3719
  700MOL0     H96563   1.889   8.616   7.060  0.5868  0.3441  0.4011
  700MOL0     H96564   1.830   8.619   6.836  0.7780 -1.1029  0.5000
  700MOL0     H96565   1.728   8.514   6.938 -1.2292  0.5270 -0.8624
  700MOL0     H96566   1.627   8.647   6.684  1.7307 -1.6890 -2.2478
  700MOL0     H96567   1.705   8.493   6.697  2.9571  0.8520  2.4720
  700MOL0     H96568   1.451   8.571   6.827 -1.2204 -0.3787 -0.8108
  700MOL0     H96569   1.529   8.423   6.876  1.8019  1.6995 -0.0845
  700MOL0     H96570   1.530   8.353   6.620 -2.2687 -1.5342 -0.9692
  700MOL0     H96571   1.430   8.498   6.601 -0.3730 -0.2534 -0.2698
  700MOL0     H96572   1.288   8.393   6.777  0.1222 -0.9936  0.2453
  700MOL0     H96573   1.271   8.324   6.617  1.1100 -1.6891 -1.2137
  700MOL0     H96574   1.438   8.203   6.845 -1.8117  0.7880  0.2620
  700MOL0     H96575   1.456   8.157   6.672 -0.7028  0.1351 -0.6005
  700MOL0     H96576   1.211   8.073   6.690  0.4841  1.4589 -0.1180
  700MOL0     H96577   1.189   8.137   6.845 -0.5507  1.1595 -1.5130
  700MOL0     H96578   1.217   7.914   6.882 -0.9136  1.2381 -2.2440
  700MOL0     H96579   1.353   8.001   6.943 -2.0005  0.9474  1.0601
  700MOL0     H96580   1.590   8.922   7.033 -0.2903 -3.6920 -3.3176
  700MOL0     H96581   1.698   9.038   7.229  1.2483  0.5849  1.8623
  700MOL0     H96582   1.932   8.859   7.708  1.1338 -0.2973 -0.8616
  700MOL0     H96583   2.008   8.971   7.908 -1.0101  0.7517  0.7239
  700MOL0     H96584   1.857  10.223   7.800  1.3454 -2.4614 -2.3453
  700MOL0     H96585   1.687  10.381   7.719  0.0171  0.7145  0.4308
  700MOL0     H96586   1.469  10.617   7.555  0.3288 -1.4728  0.5427
  700MOL0     H96587   1.258  10.744   7.528  0.2949 -0.3200 -3.4360
  700MOL0     H96588   1.262  11.186   7.565  3.2387 -1.9826  0.6271
  700MOL0     H96589   1.277  11.138   7.391  0.1955 -0.1571  0.6791
  700MOL0     H96590   1.066  11.262   7.437  3.6834  0.6370  3.0774
  700MOL0     H96591   1.019  11.158   7.572 -0.0360  3.1482  0.0524
  700MOL0     H96592   1.047  11.051   7.294 -2.0010  2.6635 -0.6810
  700MOL0     H96593   0.998  10.963   7.451  1.3824 -0.1817  0.7646
  700MOL0     H96594   0.830  11.157   7.469 -1.5275  0.1225 -0.0858
  700MOL0     H96595   0.779  11.019   7.380  0.6416 -0.1436 -0.2404
  700MOL0     H96596   0.772  11.282   7.055 -1.7548 -0.9175  0.4313
  700MOL0     H96597   1.462  11.110   7.549  3.5124  0.5774  3.5629
  700MOL0     H96598   1.763  11.052   7.468  0.8851  0.1818  0.8431
  700MOL0     H96599   1.679  11.136   7.588 -1.1851 -0.5821  0.8668
  700MOL0     H96600   1.785  10.996   7.628 -0.2515  0.7488  0.3102
  701MOL0     O96601   2.193   0.740   9.256 -0.5025 -0.3139  0.2647
  701MOL0     C96602   2.191   0.818   9.161  0.8060  0.3616  1.8001
  701MOL0     O96603   2.306   0.873   9.102  0.1603 -0.1660 -0.2440
  701MOL0     C96604   2.434   0.856   9.153  0.4882 -0.3093  0.1638
  701MOL0     C96605   2.459   0.908   9.279 -0.2701 -0.4592 -0.7552
  701MOL0     C96606   2.585   0.890   9.345  0.6974 -0.3719 -0.0538
  701MOL0     C96607   2.687   0.823   9.277 -0.0590  0.9268 -0.0471
  701MOL0     O96608   2.825   0.810   9.316 -0.2218 -0.1142 -0.1360
  701MOL0     C96609   2.872   0.842   9.447  0.0330  0.5644  0.0031
  701MOL0     C96610   2.990   0.758   9.479  0.6476  0.4236  0.2064
  701MOL0     C96611   3.051   0.793   9.604 -0.3211 -0.5679 -0.1116
  701MOL0     C96612   3.188   0.724   9.643  0.1987 -0.0252 -0.0734
  701MOL0     C96613   3.309   0.793   9.572  0.1724 -0.9812 -0.3221
  701MOL0     C96614   3.331   0.933   9.635 -0.2500 -0.1995 -0.9534
  701MOL0     C96615   3.463   0.981   9.569  0.1668 -0.3316  0.0816
  701MOL0     C96616   3.494   1.130   9.595 -0.1219 -0.0725 -0.9803
  701MOL0     N96617   3.537   1.145   9.735  0.5086  0.3731 -0.5106
  701MOL0     C96618   3.625   1.063   9.798  0.1660  0.2498  0.1794
  701MOL0     C96619   3.604   1.080   9.927 -0.2570  0.3939  0.2593
  701MOL0     C96620   3.688   1.020  10.046 -0.1247 -0.5367 -0.4436
  701MOL0     C96621   3.824   1.086  10.057  0.4079 -0.1215 -0.1849
  701MOL0     C96622   3.819   1.239  10.055 -0.6043 -0.0321  0.4237
  701MOL0     C96623   3.951   1.294  10.107 -0.1392 -0.3025 -0.4313
  701MOL0     O96624   4.052   1.253  10.025  0.2201 -0.1243 -0.0112
  701MOL0     C96625   4.174   1.313  10.034  0.3181  0.0169 -1.3777
  701MOL0     C96626   4.222   1.399  10.140  0.1750 -0.0678 -0.0008
  701MOL0     C96627   4.352   1.444  10.136  0.9895  0.6144  0.1570
  701MOL0     C96628   4.381   1.536  10.252  0.5846  0.1597  0.5197
  701MOL0     C96629   4.442   1.408  10.028 -0.9171  0.5942 -0.7934
  701MOL0     C96630   4.586   1.444  10.019  0.5334  0.2048  0.2034
  701MOL0     O96631   4.648   1.415   9.900  0.1653 -0.3351 -0.0656
  701MOL0     C96632   4.779   1.459   9.897 -0.7606  0.3998  0.0086
  701MOL0     C96633   4.900   1.381   9.932  0.1118 -0.0950 -0.3639
  701MOL0     C96634   5.028   1.441   9.942  0.0005 -0.3603  0.2110
  701MOL0     C96635   5.033   1.577   9.933  0.0276 -0.1278 -0.6807
  701MOL0     O96636   5.155   1.649   9.949 -0.2327 -0.3376 -0.0426
  701MOL0     C96637   5.248   1.588  10.041 -0.3424 -0.0891  0.1281
  701MOL0     C96638   5.349   1.694  10.091  0.1285 -0.0762  1.0357
  701MOL0     C96639   5.460   1.716   9.982 -0.2599 -0.1726 -0.0033
  701MOL0     C96640   5.558   1.823  10.038 -0.0447  0.3320  0.0069
  701MOL0     C96641   5.673   1.852   9.940 -0.7500  0.7813  0.3342
  701MOL0     C96642   5.763   1.977   9.969 -0.7023  1.2607  0.3308
  701MOL0     C96643   5.848   2.002   9.842 -0.0305  0.7116 -0.4115
  701MOL0     C96644   5.932   2.128   9.862  0.4863 -0.3093 -0.7970
  701MOL0    Cl96645   6.060   2.082   9.976 -0.1963 -0.4588  0.0086
  701MOL0     C96646   4.925   1.653   9.883 -0.6783 -0.6655 -0.0694
  701MOL0     C96647   4.799   1.591   9.866  0.1249 -0.2412 -0.0581
  701MOL0     O96648   4.636   1.512  10.106 -0.1762 -0.1102 -0.5557
  701MOL0     C96649   4.398   1.327   9.928  1.0050 -0.5513 -0.0108
  701MOL0     C96650   4.264   1.276   9.940 -1.0102 -0.0559  0.6690
  701MOL0     N96651   3.509   1.180   9.936 -0.1807  0.2837  0.3184
  701MOL0     N96652   3.460   1.211   9.829  0.0702 -0.1553 -0.1057
  701MOL0     C96653   2.661   0.768   9.156 -0.6282 -0.1080 -0.5170
  701MOL0     C96654   2.541   0.787   9.090  0.5290 -0.9266  0.5478
  701MOL0     C96655   2.072   0.865   9.097  0.3784  0.8233 -0.3001
  701MOL0     C96656   2.068   0.996   9.067  0.1223  0.0434 -0.0301
  701MOL0     C96657   1.958   1.059   9.004 -1.0951  0.5965  0.3453
  701MOL0     C96658   1.848   0.980   8.959 -0.0071 -1.2594  0.2137
  701MOL0     O96659   1.746   1.054   8.902 -1.1963  0.3142 -0.1324
  701MOL0     C96660   1.635   0.977   8.860 -0.4598 -1.1964 -0.0328
  701MOL0     C96661   1.525   1.073   8.820 -0.6714  0.0500  0.5151
  701MOL0     C96662   1.551   1.141   8.683 -0.0751  0.5845 -0.0132
  701MOL0     C96663   1.588   1.043   8.574 -0.3047  0.0720 -0.3010
  701MOL0     C96664   1.624   1.125   8.458 -0.3582 -0.3335 -0.4542
  701MOL0     C96665   1.644   1.180   8.357 -0.0541 -0.1421 -0.1011
  701MOL0     C96666   1.852   0.846   8.998  0.8738  0.5823 -0.1892
  701MOL0     C96667   1.955   0.789   9.067 -0.2644  0.8745  0.1631
  701MOL0     C96668   1.927   0.636   9.104  1.3411 -0.8294  0.5010
  701MOL0     H96669   2.376   0.961   9.324 -0.4427 -2.0987  1.0179
  701MOL0     H96670   2.588   0.941   9.441 -2.7799 -1.1861  0.6347
  701MOL0     H96671   2.792   0.812   9.516 -1.6751  2.3200 -1.1141
  701MOL0     H96672   2.886   0.949   9.464 -1.0618  1.1387 -2.4070
  701MOL0     H96673   2.948   0.657   9.487  1.2553  0.2210  0.8847
  701MOL0     H96674   3.058   0.764   9.393  3.0211 -1.6655  1.8102
  701MOL0     H96675   3.071   0.900   9.615  1.6049 -0.7204 -1.4684
  701MOL0     H96676   2.984   0.762   9.684 -0.5779 -0.9860 -0.4894
  701MOL0     H96677   3.202   0.722   9.751  0.2448  0.2090 -0.0740
  701MOL0     H96678   3.185   0.617   9.621  0.6518  0.0956 -0.7508
  701MOL0     H96679   3.281   0.812   9.469 -0.1696 -2.7009 -0.5791
  701MOL0     H96680   3.402   0.735   9.569 -0.8878 -2.7695 -0.3304
  701MOL0     H96681   3.251   1.007   9.624  1.0261  1.2770 -0.5610
  701MOL0     H96682   3.357   0.932   9.741  2.3043 -0.8605 -1.5172
  701MOL0     H96683   3.467   0.960   9.462  0.4389  0.5308 -0.0886
  701MOL0     H96684   3.537   0.915   9.614  1.6972  1.2547 -0.0095
  701MOL0     H96685   3.574   1.171   9.533 -1.1523  2.4614 -0.7404
  701MOL0     H96686   3.418   1.201   9.562  0.6555  1.3898  0.2311
  701MOL0     H96687   3.693   0.990   9.755  0.8316  2.4914 -2.8833
  701MOL0     H96688   3.708   0.913  10.040  3.6093 -0.1398  1.5217
  701MOL0     H96689   3.630   1.037  10.137 -3.6406  1.7841 -2.8584
  701MOL0     H96690   3.870   1.052  10.150 -1.2245  1.9720  1.5116
  701MOL0     H96691   3.896   1.062   9.978  1.2225 -0.4564  0.6394
  701MOL0     H96692   3.826   1.258   9.948  2.4570  0.1758  0.5702
  701MOL0     H96693   3.728   1.276  10.104  0.4894  2.0730  0.9938
  701MOL0     H96694   3.943   1.402  10.097  0.5215 -0.0816  1.0788
  701MOL0     H96695   3.979   1.266  10.210  1.8337  1.2860 -0.4735
  701MOL0     H96696   4.147   1.436  10.209  0.4958 -1.6253  1.2163
  701MOL0     H96697   4.420   1.488  10.342 -0.5171  1.0627  1.5061
  701MOL0     H96698   4.284   1.576  10.283 -0.0447  0.6275 -1.8368
  701MOL0     H96699   4.428   1.630  10.221 -2.0837  1.6105  0.5429
  701MOL0     H96700   4.884   1.277   9.960 -0.2532  0.7370  2.9270
  701MOL0     H96701   5.115   1.385   9.975  0.2029  2.1519  4.8310
  701MOL0     H96702   5.201   1.549  10.132 -0.4164  2.5686  1.3326
  701MOL0     H96703   5.292   1.500   9.993 -3.3881 -1.0946 -1.0035
  701MOL0     H96704   5.296   1.784  10.125  0.9839  1.1922 -0.8281
  701MOL0     H96705   5.402   1.651  10.177  3.0665 -0.3262 -0.7601
  701MOL0     H96706   5.399   1.753   9.899  0.0580  1.7908  0.5921
  701MOL0     H96707   5.518   1.627   9.953 -1.5502 -0.5774 -1.4465
  701MOL0     H96708   5.584   1.788  10.139  0.5780  1.4103  0.2373
  701MOL0     H96709   5.500   1.912  10.062 -0.8956  0.3266 -1.8470
  701MOL0     H96710   5.744   1.770   9.927  0.3261  1.5707  1.0367
  701MOL0     H96711   5.628   1.868   9.841 -1.3485 -0.1545  0.4413
  701MOL0     H96712   5.831   1.963  10.054  0.3149 -1.7032 -0.8154
  701MOL0     H96713   5.709   2.069   9.991 -0.7037  1.3259  0.0568
  701MOL0     H96714   5.782   2.032   9.761 -0.8955 -0.5637 -0.2020
  701MOL0     H96715   5.906   1.911   9.823 -3.0169 -2.3500  3.2435
  701MOL0     H96716   5.875   2.212   9.902  0.2633 -0.4892 -0.7318
  701MOL0     H96717   5.970   2.165   9.766 -0.1818  1.8557 -0.2916
  701MOL0     H96718   4.929   1.756   9.850  0.0364 -0.7498 -0.2544
  701MOL0     H96719   4.715   1.653   9.835  0.4213 -0.2425 -0.9045
  701MOL0     H96720   4.465   1.296   9.848  1.7214  0.3748  0.2134
  701MOL0     H96721   4.219   1.228   9.854  1.2053 -1.8572  0.4356
  701MOL0     H96722   2.744   0.727   9.099 -1.8118 -1.0243 -1.6452
  701MOL0     H96723   2.532   0.758   8.986  1.6325  0.9037 -0.1050
  701MOL0     H96724   2.153   1.058   9.095 -1.2806  1.0161  2.4229
  701MOL0     H96725   1.957   1.167   8.993  3.8120  0.8428  0.3152
  701MOL0     H96726   1.666   0.908   8.781  0.6360 -0.5933 -0.1501
  701MOL0     H96727   1.602   0.922   8.948  0.1624  1.3041  1.8878
  701MOL0     H96728   1.517   1.137   8.908 -0.7664  0.1219  0.4534
  701MOL0     H96729   1.427   1.026   8.809 -0.7026  0.1354  0.4253
  701MOL0     H96730   1.463   1.198   8.652 -1.2085 -3.0787 -4.7372
  701MOL0     H96731   1.637   1.201   8.713  2.9648 -3.0971 -0.5804
  701MOL0     H96732   1.503   0.977   8.552 -0.4431 -0.6486  2.1657
  701MOL0     H96733   1.685   0.999   8.593 -0.2311  0.7119  0.8654
  701MOL0     H96734   1.656   1.241   8.270  2.2348 -1.7167 -0.9760
  701MOL0     H96735   1.778   0.773   8.967  1.5832  0.5248 -1.8622
  701MOL0     H96736   2.018   0.590   9.143  2.5941  2.1447  1.3062
  701MOL0     H96737   1.854   0.636   9.186  1.8247  0.7619  0.9635
  701MOL0     H96738   1.881   0.588   9.017  2.1252  0.1294 -0.4561
  702MOL0     O96739   2.260   8.380   6.183 -0.1988  0.3564 -0.4254
  702MOL0     C96740   2.301   8.433   6.084 -0.7700 -0.4232 -0.7880
  702MOL0     O96741   2.429   8.456   6.054  0.5223 -0.4062 -0.6722
  702MOL0     C96742   2.533   8.383   6.117  0.0806 -0.0216  0.4238
  702MOL0     C96743   2.621   8.459   6.198 -0.0442 -0.0269 -0.3139
  702MOL0     C96744   2.723   8.397   6.261  0.9066  0.4767  0.1683
  702MOL0     C96745   2.753   8.265   6.239  0.2702 -0.0553 -0.3590
  702MOL0     O96746   2.853   8.198   6.294  0.0016  0.0343  0.4323
  702MOL0     C96747   2.979   8.264   6.336  0.2146  1.2122  0.2469
  702MOL0     C96748   3.064   8.173   6.423  0.4498  0.5739 -0.1156
  702MOL0     C96749   3.094   8.033   6.376 -0.5230  0.3138 -0.0041
  702MOL0     C96750   3.203   8.025   6.270 -0.5213 -0.7292 -0.5734
  702MOL0     C96751   3.339   8.062   6.334  0.1929 -0.1932  0.1668
  702MOL0     C96752   3.460   8.035   6.245  0.7088  0.4627  0.3065
  702MOL0     C96753   3.596   8.057   6.310  0.4265 -0.6480  0.6306
  702MOL0     C96754   3.630   8.203   6.350 -0.2433 -0.2163  0.2376
  702MOL0     N96755   3.776   8.219   6.393 -0.0463  0.2193  1.5375
  702MOL0     C96756   3.885   8.221   6.307  0.5011 -0.8861 -0.0441
  702MOL0     C96757   3.991   8.236   6.384  0.0382 -0.5010  0.3828
  702MOL0     C96758   4.140   8.237   6.337  0.2397 -0.0015 -0.0666
  702MOL0     C96759   4.220   8.372   6.333  0.1243 -0.2836  1.0625
  702MOL0     C96760   4.208   8.434   6.183  0.8145 -0.7163 -0.5920
  702MOL0     C96761   4.241   8.587   6.180  0.4008  0.1727 -0.2518
  702MOL0     O96762   4.207   8.646   6.053  0.5827  0.2451 -0.5014
  702MOL0     C96763   4.079   8.691   6.039 -0.2492  0.3194  0.3449
  702MOL0     C96764   4.068   8.797   5.955 -0.2833 -0.1233  0.3253
  702MOL0     C96765   3.939   8.851   5.919 -0.8389 -1.0787 -0.1497
  702MOL0     C96766   3.938   8.969   5.819 -0.2584  0.7212 -0.3755
  702MOL0     C96767   3.824   8.806   5.976  0.2463  0.2980 -0.6234
  702MOL0     C96768   3.685   8.873   5.967  0.1620  0.4478 -0.3128
  702MOL0     O96769   3.607   8.845   6.080  0.8916  0.2683  1.3309
  702MOL0     C96770   3.489   8.923   6.087 -0.4735  0.2040 -0.3996
  702MOL0     C96771   3.487   9.062   6.068  0.2715  0.1548 -0.0031
  702MOL0     C96772   3.363   9.132   6.064 -0.1612  0.3341  0.1752
  702MOL0     C96773   3.242   9.058   6.089  0.4491  0.0729 -0.2774
  702MOL0     O96774   3.113   9.117   6.096 -0.7161  0.0216 -0.2620
  702MOL0     C96775   3.089   9.239   6.021  0.9341 -0.0281  0.0786
  702MOL0     C96776   2.933   9.260   6.005 -0.2444  0.2428 -0.0504
  702MOL0     C96777   2.894   9.389   5.937  0.2842 -0.3386 -0.1966
  702MOL0     C96778   2.984   9.439   5.823  0.2838 -0.5567 -1.2848
  702MOL0     C96779   2.926   9.555   5.733  0.0759 -0.0920  0.1901
  702MOL0     C96780   3.046   9.584   5.635 -0.9051  0.3028  0.5177
  702MOL0     C96781   2.993   9.660   5.513  0.5332 -0.0204  0.9061
  702MOL0     C96782   2.965   9.807   5.537 -0.5914  0.4202 -1.2318
  702MOL0    Cl96783   3.106   9.896   5.575  0.0054 -0.6751  0.0346
  702MOL0     C96784   3.241   8.924   6.112 -0.9603  0.4772 -1.6546
  702MOL0     C96785   3.368   8.859   6.116  0.2766 -0.4538  1.4468
  702MOL0     O96786   3.655   8.943   5.870  0.2098 -0.3642 -0.3477
  702MOL0     C96787   3.840   8.693   6.063  0.4176 -0.1508 -1.3454
  702MOL0     C96788   3.962   8.640   6.099 -0.4136  0.2163 -0.2504
  702MOL0     N96789   3.955   8.218   6.517 -0.0075 -0.1846  0.4852
  702MOL0     N96790   3.824   8.207   6.518 -0.2409 -0.0261  0.6209
  702MOL0     C96791   2.662   8.187   6.158 -0.7382  0.1418  0.1188
  702MOL0     C96792   2.553   8.243   6.102 -0.0765  0.7057  0.7842
  702MOL0     C96793   2.200   8.513   6.007 -0.0316  0.2026  1.0012
  702MOL0     C96794   2.083   8.565   6.064 -0.0351 -0.5351  0.1502
  702MOL0     C96795   1.990   8.649   6.000  0.2300  0.0620  0.1176
  702MOL0     C96796   2.010   8.682   5.863 -0.2315 -0.0402 -0.7047
  702MOL0     O96797   1.931   8.752   5.779 -0.0039  0.1604  0.2335
  702MOL0     C96798   1.807   8.807   5.812 -0.3337 -0.1186 -0.2974
  702MOL0     C96799   1.817   8.942   5.877  0.0692 -0.4087 -0.3881
  702MOL0     C96800   1.684   8.995   5.902 -0.7901 -0.4456  0.0506
  702MOL0     C96801   1.700   9.124   5.992 -0.2320 -0.2024  0.1465
  702MOL0     C96802   1.573   9.168   6.048 -0.2025 -0.0943 -1.0293
  702MOL0     C96803   1.470   9.213   6.110  0.2050  0.2562  0.3024
  702MOL0     C96804   2.112   8.615   5.791 -0.5182 -0.3527 -0.2809
  702MOL0     C96805   2.213   8.543   5.859  1.1526  1.3688 -0.7975
  702MOL0     C96806   2.326   8.496   5.790  0.3223  0.7056  0.4093
  702MOL0     H96807   2.609   8.567   6.206 -0.5022 -0.1748  1.6976
  702MOL0     H96808   2.784   8.453   6.332  0.2089  2.0764 -0.4487
  702MOL0     H96809   2.959   8.356   6.393 -4.0772 -0.3931  1.7565
  702MOL0     H96810   3.036   8.288   6.246 -0.7440 -0.8785 -0.9858
  702MOL0     H96811   3.156   8.225   6.453  0.2990 -0.1181  1.6736
  702MOL0     H96812   3.005   8.165   6.515 -1.2459  2.7182 -0.9228
  702MOL0     H96813   3.131   7.984   6.466 -3.9156  1.1664  2.0450
  702MOL0     H96814   3.005   7.981   6.338 -1.6072  2.0456  0.0376
  702MOL0     H96815   3.216   7.922   6.238  0.1433 -1.9399  3.1906
  702MOL0     H96816   3.179   8.084   6.181 -2.2213 -0.1072  0.2537
  702MOL0     H96817   3.355   7.994   6.418 -2.8400 -0.1884  0.8609
  702MOL0     H96818   3.344   8.164   6.375 -2.5596 -0.0793  0.3824
  702MOL0     H96819   3.446   7.936   6.200  0.8815  0.3900  0.4147
  702MOL0     H96820   3.469   8.105   6.161 -3.3346  2.6112  1.4075
  702MOL0     H96821   3.682   8.017   6.257  2.4701  2.0902  1.6389
  702MOL0     H96822   3.583   7.991   6.397 -2.3724 -0.4897  0.4386
  702MOL0     H96823   3.619   8.259   6.256  2.2554 -4.3973 -2.9301
  702MOL0     H96824   3.565   8.236   6.431  0.9560 -3.1668  2.5821
  702MOL0     H96825   3.890   8.224   6.198 -1.9300 -1.5623 -0.2219
  702MOL0     H96826   4.146   8.186   6.240 -1.1360  0.4405 -0.3956
  702MOL0     H96827   4.202   8.167   6.395 -0.1425 -0.4959 -0.2481
  702MOL0     H96828   4.180   8.446   6.404 -0.3985 -2.5376  3.2488
  702MOL0     H96829   4.322   8.355   6.367  1.5667  3.1315 -1.0136
  702MOL0     H96830   4.291   8.389   6.129  3.2099  2.0419  0.5360
  702MOL0     H96831   4.114   8.410   6.133  1.5691 -2.3561 -1.3098
  702MOL0     H96832   4.184   8.628   6.264  1.9874 -1.1971  1.5983
  702MOL0     H96833   4.346   8.606   6.206  1.1140 -1.5277 -1.6537
  702MOL0     H96834   4.157   8.851   5.923 -1.5598  0.4355 -2.6601
  702MOL0     H96835   4.029   8.976   5.759 -0.5650 -0.3445 -0.9956
  702MOL0     H96836   3.907   9.060   5.872 -1.8943 -0.5733  1.0023
  702MOL0     H96837   3.860   8.944   5.746  1.5834 -2.6192 -1.3749
  702MOL0     H96838   3.578   9.120   6.054  0.2432  0.0806 -0.5195
  702MOL0     H96839   3.367   9.238   6.041  0.2519  0.0600 -1.0582
  702MOL0     H96840   3.138   9.326   6.067 -0.2168  0.1967  0.9382
  702MOL0     H96841   3.133   9.231   5.922  0.8550  1.6186 -0.1106
  702MOL0     H96842   2.898   9.172   5.951 -0.8662 -0.0238  0.7711
  702MOL0     H96843   2.879   9.248   6.099 -1.6586  1.2864 -0.6926
  702MOL0     H96844   2.872   9.472   6.005 -0.8214 -0.8917  0.1446
  702MOL0     H96845   2.793   9.373   5.898 -1.3725  0.0535  3.4715
  702MOL0     H96846   2.996   9.356   5.752  0.5539  0.5095 -2.5188
  702MOL0     H96847   3.083   9.467   5.860  0.1443 -2.9440  1.2606
  702MOL0     H96848   2.832   9.530   5.683 -1.9537  3.2540  2.0220
  702MOL0     H96849   2.905   9.648   5.786  3.4857  0.7709  0.2511
  702MOL0     H96850   3.093   9.489   5.609 -2.1884 -1.1549  3.0476
  702MOL0     H96851   3.120   9.646   5.687  0.9243  1.3489 -3.0622
  702MOL0     H96852   2.898   9.616   5.480 -0.4166  2.2318  0.5013
  702MOL0     H96853   3.059   9.644   5.428  0.2939 -1.1409  0.9086
  702MOL0     H96854   2.901   9.818   5.624  3.0473  0.0746  1.7332
  702MOL0     H96855   2.914   9.850   5.450  0.7909  1.7654 -1.4308
  702MOL0     H96856   3.157   8.876   6.159  1.4785  1.1345  4.2134
  702MOL0     H96857   3.382   8.753   6.134 -0.1262 -1.0667 -1.3520
  702MOL0     H96858   3.756   8.646   6.112  1.9502  1.2881  3.1975
  702MOL0     H96859   3.958   8.553   6.163 -1.6115  0.3553 -0.1122
  702MOL0     H96860   2.688   8.085   6.132  1.5669  0.3589  1.3294
  702MOL0     H96861   2.481   8.190   6.041  1.9432 -1.4765  0.1189
  702MOL0     H96862   2.054   8.538   6.165 -0.9193 -0.0917  0.0285
  702MOL0     H96863   1.915   8.706   6.054  3.4195  3.5838  1.2925
  702MOL0     H96864   1.756   8.826   5.718 -0.5031  3.8593  0.4515
  702MOL0     H96865   1.750   8.736   5.872 -0.3805 -0.0314 -0.2391
  702MOL0     H96866   1.869   9.006   5.805 -1.8438 -0.9372 -2.3395
  702MOL0     H96867   1.869   8.931   5.973  0.4609  0.3314 -0.5086
  702MOL0     H96868   1.633   9.023   5.810  0.4414  1.7432 -0.0271
  702MOL0     H96869   1.622   8.929   5.963 -1.2817  1.3480  1.5931
  702MOL0     H96870   1.731   9.202   5.921  1.6551 -2.3130 -1.5160
  702MOL0     H96871   1.769   9.104   6.074 -0.3049 -3.5441 -0.4472
  702MOL0     H96872   1.387   9.258   6.159 -0.6207 -2.6429  1.8239
  702MOL0     H96873   2.119   8.632   5.684 -0.2711  0.2762 -0.1682
  702MOL0     H96874   2.411   8.561   5.817  0.6320  0.8667 -0.9088
  702MOL0     H96875   2.369   8.402   5.825  2.4411  1.1905 -0.7093
  702MOL0     H96876   2.309   8.495   5.683 -2.9845  0.9639  0.8453
  703MOL0     O96877   5.104   2.485   4.017  0.2905 -0.4573 -0.1163
  703MOL0     C96878   5.028   2.425   4.087  0.2179 -0.2824  0.1599
  703MOL0     O96879   5.068   2.330   4.184 -0.2251 -0.3156  0.1418
  703MOL0     C96880   5.195   2.328   4.235 -0.0954 -0.1629  0.2494
  703MOL0     C96881   5.237   2.215   4.309  0.2124  0.7221 -1.0673
  703MOL0     C96882   5.365   2.203   4.373  0.5525  0.7356 -0.1838
  703MOL0     C96883   5.454   2.312   4.373  0.0316 -0.4972 -0.3444
  703MOL0     O96884   5.587   2.293   4.406  0.4950  0.5645 -0.2100
  703MOL0     C96885   5.651   2.169   4.374  0.2175  0.0926  0.0055
  703MOL0     C96886   5.799   2.188   4.373 -0.5528 -0.5983 -0.0299
  703MOL0     C96887   5.825   2.299   4.256 -0.0345 -0.4022 -0.6173
  703MOL0     C96888   5.981   2.298   4.222  0.2984 -0.3124  0.4715
  703MOL0     C96889   5.999   2.383   4.098 -0.7983  0.1174  0.1163
  703MOL0     C96890   6.151   2.374   4.057  0.0998  0.5094  0.3969
  703MOL0     C96891   6.182   2.505   3.990 -0.6231  0.1314  0.6397
  703MOL0     C96892   6.199   2.618   4.104  1.1764  0.4564 -0.0944
  703MOL0     N96893   6.340   2.638   4.124  0.0757  1.1744  0.0863
  703MOL0     C96894   6.426   2.694   4.042 -0.3562 -0.3055 -0.2260
  703MOL0     C96895   6.549   2.654   4.076 -0.0827  0.4359  0.4244
  703MOL0     C96896   6.671   2.691   3.992 -0.6705  0.1599  0.0830
  703MOL0     C96897   6.769   2.783   4.050  0.0208 -0.1624 -0.3713
  703MOL0     C96898   6.718   2.919   4.070  1.0011 -0.9475  0.0804
  703MOL0     C96899   6.830   3.016   4.118 -0.8812 -0.3763 -0.1567
  703MOL0     O96900   6.893   3.076   4.004  1.0984  0.4885 -0.0748
  703MOL0     C96901   6.937   3.198   4.028 -0.1524  0.3632  0.2568
  703MOL0     C96902   6.846   3.302   4.033 -0.0987  0.3616  0.2181
  703MOL0     C96903   6.884   3.431   4.061  0.7740  0.0499 -0.1353
  703MOL0     C96904   6.773   3.527   4.080 -0.0248 -0.0745 -1.0434
  703MOL0     C96905   7.022   3.463   4.084 -0.8751 -0.3028  0.9506
  703MOL0     C96906   7.064   3.598   4.122 -0.0567 -0.8001  0.0342
  703MOL0     O96907   7.198   3.598   4.153  0.3054  0.9866 -0.6341
  703MOL0     C96908   7.268   3.714   4.170  0.4349  0.1805 -0.3158
  703MOL0     C96909   7.257   3.775   4.286  0.5307 -1.0911  0.4575
  703MOL0     C96910   7.321   3.897   4.308 -0.0326 -0.0213 -0.0356
  703MOL0     C96911   7.403   3.952   4.213  0.2432 -0.5979  0.3826
  703MOL0     O96912   7.484   4.062   4.244  0.4078 -0.7707 -0.3582
  703MOL0     C96913   7.583   4.115   4.157  0.0354 -0.3487 -0.0541
  703MOL0     C96914   7.639   4.239   4.227  0.5601  0.0284 -0.1766
  703MOL0     C96915   7.546   4.359   4.224 -0.4723  0.1350 -0.6536
  703MOL0     C96916   7.583   4.483   4.315 -0.7915  1.1333  0.3748
  703MOL0     C96917   7.709   4.565   4.265 -0.0017  0.1893 -0.0307
  703MOL0     C96918   7.747   4.685   4.350 -0.0761  0.2807 -0.9673
  703MOL0     C96919   7.841   4.781   4.267  0.0470 -0.3004 -0.0563
  703MOL0     C96920   7.918   4.867   4.370  0.2249  0.0476  0.5187
  703MOL0    Cl96921   8.063   4.927   4.286  0.1237  0.1327  0.1579
  703MOL0     C96922   7.419   3.887   4.091  0.2200 -0.5214  0.6575
  703MOL0     C96923   7.349   3.764   4.069 -0.0436  0.0210  0.6239
  703MOL0     O96924   6.994   3.697   4.109 -0.2608 -0.0451  0.4217
  703MOL0     C96925   7.113   3.351   4.073 -0.6986 -0.1446 -0.2704
  703MOL0     C96926   7.071   3.222   4.038 -0.4935  0.0473  0.4521
  703MOL0     N96927   6.541   2.573   4.185 -0.1099  0.3237  0.3437
  703MOL0     N96928   6.412   2.572   4.217  1.3017  0.6901 -0.3720
  703MOL0     C96929   5.411   2.431   4.310  0.4108 -0.4154  0.1218
  703MOL0     C96930   5.285   2.436   4.239  0.2866  1.2702  0.0292
  703MOL0     C96931   4.882   2.453   4.068  0.0174 -0.6688  0.0047
  703MOL0     C96932   4.827   2.484   3.944 -0.3194  0.1709 -0.6485
  703MOL0     C96933   4.688   2.491   3.913  0.5299 -0.5702 -0.0927
  703MOL0     C96934   4.600   2.476   4.017  0.0668 -0.3301  0.2563
  703MOL0     O96935   4.467   2.495   3.997  0.0587  0.1483 -0.5124
  703MOL0     C96936   4.397   2.598   4.075  0.3396  0.1877 -0.0035
  703MOL0     C96937   4.265   2.646   4.009  0.0773  0.1343  0.0107
  703MOL0     C96938   4.148   2.682   4.105 -0.9563 -0.5972  0.4040
  703MOL0     C96939   4.070   2.554   4.138 -0.3465  0.4319 -0.0221
  703MOL0     C96940   3.965   2.581   4.237 -0.4035 -0.1409  0.1055
  703MOL0     C96941   3.863   2.589   4.298  0.9920 -0.5356 -0.6884
  703MOL0     C96942   4.645   2.462   4.147 -0.1215 -1.1333 -0.0195
  703MOL0     C96943   4.787   2.438   4.174  0.4123  0.3431  0.4343
  703MOL0     C96944   4.836   2.407   4.309  0.4100  0.1285 -0.6079
  703MOL0     H96945   5.165   2.134   4.311 -0.8008  1.6143  0.8201
  703MOL0     H96946   5.385   2.108   4.421 -2.4032  0.9914  1.7768
  703MOL0     H96947   5.620   2.130   4.277  0.7519 -1.0422  0.2698
  703MOL0     H96948   5.622   2.091   4.445 -1.0545 -1.3079 -1.9497
  703MOL0     H96949   5.839   2.220   4.469 -0.8463 -0.8967  0.1903
  703MOL0     H96950   5.839   2.094   4.334  0.0385  0.2280 -1.5427
  703MOL0     H96951   5.763   2.270   4.170 -1.2143 -1.0279  0.4055
  703MOL0     H96952   5.803   2.403   4.282 -0.7487 -0.8271  0.5728
  703MOL0     H96953   6.041   2.337   4.305  3.0631 -3.1003 -0.0689
  703MOL0     H96954   6.010   2.195   4.205  2.3123 -0.1136  2.2819
  703MOL0     H96955   5.972   2.488   4.113 -2.6987 -0.3669  0.4321
  703MOL0     H96956   5.944   2.350   4.009  2.5899  1.9536 -2.9593
  703MOL0     H96957   6.222   2.357   4.138  1.3127  0.2069 -0.6858
  703MOL0     H96958   6.170   2.298   3.980  0.7025  0.9096  0.1479
  703MOL0     H96959   6.099   2.534   3.923  1.8299  3.0520 -1.4518
  703MOL0     H96960   6.266   2.501   3.920  1.1217  0.9636  2.5987
  703MOL0     H96961   6.157   2.712   4.067 -0.8516 -1.0587 -1.8996
  703MOL0     H96962   6.152   2.582   4.196 -0.5632  0.4818 -0.9411
  703MOL0     H96963   6.413   2.746   3.947 -0.1045  1.9815  0.9233
  703MOL0     H96964   6.631   2.726   3.897 -1.9192 -0.7149  0.2577
  703MOL0     H96965   6.720   2.594   3.976  1.6553  1.2752 -0.0505
  703MOL0     H96966   6.800   2.756   4.151 -0.0574  0.7010 -0.1079
  703MOL0     H96967   6.850   2.796   3.978 -0.8688  3.2472 -0.9348
  703MOL0     H96968   6.686   2.955   3.972  0.1905  0.1291  0.7162
  703MOL0     H96969   6.646   2.909   4.152  1.1074 -1.4819  0.1142
  703MOL0     H96970   6.784   3.093   4.181  0.2377  0.5536 -0.4336
  703MOL0     H96971   6.905   2.962   4.178 -1.7382 -1.2378  0.1591
  703MOL0     H96972   6.742   3.286   4.007 -0.4492  1.3747  0.8995
  703MOL0     H96973   6.676   3.476   4.084 -0.0900  0.1087  1.4960
  703MOL0     H96974   6.779   3.612   4.011  0.2448 -1.3575 -2.6640
  703MOL0     H96975   6.771   3.582   4.175 -2.0908  0.8185 -1.5461
  703MOL0     H96976   7.197   3.738   4.368  0.1407  0.2093  0.7700
  703MOL0     H96977   7.316   3.947   4.405  0.3667 -1.1310  0.5663
  703MOL0     H96978   7.671   4.052   4.138  0.3704  0.8315 -2.8101
  703MOL0     H96979   7.527   4.141   4.067 -2.6222 -0.4154  1.4685
  703MOL0     H96980   7.664   4.212   4.330 -0.6293 -0.1417  0.0775
  703MOL0     H96981   7.732   4.268   4.177  1.4451 -2.5372 -0.1538
  703MOL0     H96982   7.451   4.320   4.262  0.1795 -0.0835  0.8340
  703MOL0     H96983   7.541   4.395   4.121  0.8657  2.4988  0.0443
  703MOL0     H96984   7.606   4.451   4.417  0.2657 -1.5464 -0.6069
  703MOL0     H96985   7.497   4.550   4.313 -0.4214  1.6200  0.4138
  703MOL0     H96986   7.798   4.502   4.255  0.4239  0.5996  1.0056
  703MOL0     H96987   7.686   4.602   4.165 -0.6210  2.5035  0.8929
  703MOL0     H96988   7.800   4.653   4.440 -0.7510 -1.0401 -1.0191
  703MOL0     H96989   7.650   4.732   4.372 -1.2109 -2.6674  0.8238
  703MOL0     H96990   7.784   4.844   4.198  2.3666  0.5943 -1.2764
  703MOL0     H96991   7.914   4.726   4.206  0.1703  0.9025 -1.0172
  703MOL0     H96992   7.954   4.798   4.446 -1.6818 -3.0082 -1.1082
  703MOL0     H96993   7.855   4.946   4.411 -0.4164  0.8660 -1.8831
  703MOL0     H96994   7.477   3.917   4.004 -0.1666 -2.2258 -0.2264
  703MOL0     H96995   7.353   3.723   3.969 -0.2876  1.3857  0.0269
  703MOL0     H96996   7.217   3.374   4.092 -1.1757  2.0450 -0.1056
  703MOL0     H96997   7.153   3.153   4.023  0.4604  1.6290 -2.4131
  703MOL0     H96998   5.475   2.516   4.292 -0.1283 -0.4622 -2.4709
  703MOL0     H96999   5.271   2.523   4.175  3.1899  3.1164  1.6371
  703MOL0     H97000   4.901   2.501   3.866 -1.0041  3.2249 -0.7776
  703MOL0     H97001   4.648   2.517   3.816  0.5578  2.0639  0.5417
  703MOL0     H97002   4.367   2.559   4.173 -3.7063  2.3253 -0.1594
  703MOL0     H97003   4.468   2.681   4.081  1.9131 -0.9001 -2.0383
  703MOL0     H97004   4.230   2.569   3.939  0.9582  0.0840 -0.3876
  703MOL0     H97005   4.281   2.730   3.941  1.4536  0.8915  1.2182
  703MOL0     H97006   4.194   2.714   4.200  1.0693 -2.9251  0.3113
  703MOL0     H97007   4.095   2.768   4.065 -1.7844 -0.6376  1.3821
  703MOL0     H97008   4.138   2.481   4.184 -0.7753 -0.5167 -0.8679
  703MOL0     H97009   4.015   2.516   4.051 -1.1822 -1.8721  1.3979
  703MOL0     H97010   3.775   2.606   4.357  0.6728 -1.3533 -0.9328
  703MOL0     H97011   4.572   2.462   4.227  0.0701  1.4499  0.2331
  703MOL0     H97012   4.929   2.453   4.346 -0.4587 -0.7255  3.0258
  703MOL0     H97013   4.762   2.437   4.384  0.7987 -0.9656  0.2466
  703MOL0     H97014   4.856   2.300   4.313  1.0436  0.1714 -2.0738
  704MOL0     O97015   0.131   4.412   8.563  0.5862  0.5979  0.2869
  704MOL0     C97016   0.030   4.440   8.493 -0.0062 -0.1874  0.2079
  704MOL0     O97017   0.028   4.437   8.353 -0.1403  0.0726  0.4298
  704MOL0     C97018   0.088   4.319   8.308 -0.2534 -0.4437  0.1393
  704MOL0     C97019   0.090   4.192   8.379 -0.1678  0.0479  0.3176
  704MOL0     C97020   0.170   4.088   8.317  0.3214 -0.2556 -0.2988
  704MOL0     C97021   0.241   4.107   8.201 -0.0206  0.3583  0.3477
  704MOL0     O97022   0.316   4.001   8.156 -1.0916 -0.1414  0.7473
  704MOL0     C97023   0.323   3.976   8.015 -1.4116  0.4531  0.0076
  704MOL0     C97024   0.447   4.042   7.942 -0.1317 -0.1997 -0.3444
  704MOL0     C97025   0.576   3.985   7.992  0.0811 -0.2152 -0.3298
  704MOL0     C97026   0.601   3.844   7.950 -0.0031 -0.2024  0.1799
  704MOL0     C97027   0.733   3.787   7.982  0.0987 -0.3344 -0.5466
  704MOL0     C97028   0.734   3.633   7.954 -0.2698  0.3761 -0.7894
  704MOL0     C97029   0.879   3.583   7.964 -0.1739  0.9371  0.5992
  704MOL0     C97030   0.934   3.552   8.103  0.1278  0.0579  0.4296
  704MOL0     N97031   1.040   3.649   8.135  0.0276  0.8245  0.2125
  704MOL0     C97032   1.158   3.652   8.064  0.8089  0.3222 -0.2618
  704MOL0     C97033   1.231   3.743   8.125 -0.0774 -0.8961  0.1820
  704MOL0     C97034   1.377   3.774   8.090 -0.0848 -1.0481  0.5280
  704MOL0     C97035   1.471   3.665   8.143  0.3747  0.5819  0.1737
  704MOL0     C97036   1.595   3.722   8.214 -0.4605 -0.0224  0.5947
  704MOL0     C97037   1.692   3.783   8.109  0.3386  0.1700 -0.6595
  704MOL0     O97038   1.812   3.827   8.185  0.4442 -0.1039 -0.0285
  704MOL0     C97039   1.916   3.738   8.207  0.3591  0.6023  0.2638
  704MOL0     C97040   2.035   3.784   8.255 -0.4368 -0.0877  0.5679
  704MOL0     C97041   2.155   3.712   8.281 -0.0933 -0.4400 -0.1583
  704MOL0     C97042   2.284   3.783   8.313  0.3134 -0.2955  0.5675
  704MOL0     C97043   2.147   3.571   8.255 -0.3286  0.0568 -0.3103
  704MOL0     C97044   2.265   3.479   8.272  0.1234  0.3710  0.7090
  704MOL0     O97045   2.232   3.348   8.308 -0.6417 -0.2222 -0.3503
  704MOL0     C97046   2.323   3.262   8.359 -0.3702 -0.0376 -0.2532
  704MOL0     C97047   2.460   3.288   8.407  0.2072 -0.1147 -0.0230
  704MOL0     C97048   2.545   3.180   8.438 -0.6324  0.0363  0.3305
  704MOL0     C97049   2.501   3.050   8.429 -0.2856  0.0906  0.7846
  704MOL0     O97050   2.572   2.950   8.501  0.5315 -0.1756  0.6251
  704MOL0     C97051   2.638   2.862   8.407  0.0725 -0.4521 -0.8558
  704MOL0     C97052   2.760   2.790   8.479 -0.2163 -0.2014 -0.5054
  704MOL0     C97053   2.866   2.891   8.538  0.8239 -0.0784 -0.3076
  704MOL0     C97054   2.991   2.809   8.586  0.1389 -0.5866 -0.8194
  704MOL0     C97055   3.109   2.900   8.634 -0.6118 -0.1952 -0.6454
  704MOL0     C97056   3.232   2.812   8.654 -0.4273 -0.1440 -0.2077
  704MOL0     C97057   3.328   2.809   8.542 -0.4125  0.7493 -0.3585
  704MOL0     C97058   3.429   2.693   8.540  0.2278 -0.1631 -0.2629
  704MOL0    Cl97059   3.555   2.737   8.666  0.0834 -0.3016  0.2116
  704MOL0     C97060   2.376   3.030   8.373  0.5008 -0.1093 -0.5609
  704MOL0     C97061   2.287   3.127   8.340  0.3235  0.2189  0.2669
  704MOL0     O97062   2.377   3.518   8.235  0.2534 -0.1970 -0.6201
  704MOL0     C97063   2.024   3.519   8.216 -1.2552  0.0718  0.3244
  704MOL0     C97064   1.916   3.600   8.180  0.2679  0.1425 -0.2073
  704MOL0     N97065   1.161   3.805   8.231  0.7876  0.3468 -0.9735
  704MOL0     N97066   1.039   3.749   8.230  0.3101  0.2332  0.4878
  704MOL0     C97067   0.221   4.225   8.127  0.4888  0.4444 -1.2835
  704MOL0     C97068   0.138   4.329   8.178 -0.2812 -0.0842  0.2921
  704MOL0     C97069  -0.077   4.519   8.565  0.1128 -0.4535  0.1111
  704MOL0     C97070  -0.093   4.651   8.518 -0.0723 -0.7304 -0.1229
  704MOL0     C97071  -0.191   4.734   8.559 -0.5001 -0.3096  0.6895
  704MOL0     C97072  -0.282   4.691   8.662  0.7624 -0.2493  0.1795
  704MOL0     O97073  -0.382   4.776   8.705 -0.4319 -0.7169  0.1478
  704MOL0     C97074  -0.477   4.740   8.808  0.0659  0.5760  0.3173
  704MOL0     C97075  -0.593   4.845   8.799  0.5458  0.2797  0.6975
  704MOL0     C97076  -0.552   4.996   8.813  0.4355 -0.5640 -0.2404
  704MOL0     C97077  -0.672   5.093   8.826 -0.7195 -0.1202 -0.3682
  704MOL0     C97078  -0.757   5.077   8.708  0.0861  0.8572  1.0361
  704MOL0     C97079  -0.835   5.088   8.613  0.1224 -0.1829 -0.0943
  704MOL0     C97080  -0.250   4.567   8.718  0.4664  1.0298  0.4967
  704MOL0     C97081  -0.150   4.479   8.672  0.7867  0.1348  0.3352
  704MOL0     C97082  -0.135   4.343   8.734  0.1772 -0.3278  0.0646
  704MOL0     H97083   0.043   4.176   8.475  1.0623 -2.3191  0.6097
  704MOL0     H97084   0.177   3.988   8.360 -0.7635 -1.5904 -2.9772
  704MOL0     H97085   0.234   4.016   7.965 -1.1865  0.9918  0.0345
  704MOL0     H97086   0.328   3.871   7.983  0.8093  0.0946  1.3481
  704MOL0     H97087   0.431   4.018   7.837 -2.3127  1.3658 -0.4374
  704MOL0     H97088   0.429   4.148   7.958  1.9191 -0.0317  1.1610
  704MOL0     H97089   0.662   4.047   7.968  0.1919  0.8796  2.5304
  704MOL0     H97090   0.567   3.987   8.101  1.9092  0.1467 -0.1591
  704MOL0     H97091   0.530   3.786   8.009 -2.4227  2.5772  0.2235
  704MOL0     H97092   0.580   3.836   7.843 -2.1653  1.1933  0.4477
  704MOL0     H97093   0.751   3.797   8.090 -4.0635 -1.0954  0.3883
  704MOL0     H97094   0.817   3.832   7.929  0.9472 -0.2052  0.8650
  704MOL0     H97095   0.681   3.571   8.028  0.2492 -1.4657 -1.8889
  704MOL0     H97096   0.699   3.605   7.854  1.3021 -0.4458 -1.1513
  704MOL0     H97097   0.957   3.640   7.912  0.5106 -1.4898 -1.2536
  704MOL0     H97098   0.890   3.487   7.913  0.7832  2.2435 -1.8446
  704MOL0     H97099   0.847   3.564   8.168  0.6993  2.5477  0.8100
  704MOL0     H97100   0.971   3.449   8.114 -2.2453 -0.6607  2.7782
  704MOL0     H97101   1.184   3.593   7.977 -0.1610 -2.4580  1.2097
  704MOL0     H97102   1.398   3.873   8.130  0.7179 -1.3509  0.8682
  704MOL0     H97103   1.384   3.782   7.981  0.2864  1.4968  0.6767
  704MOL0     H97104   1.417   3.606   8.218  2.5703 -1.4986  0.2240
  704MOL0     H97105   1.490   3.596   8.060 -2.0433  0.6463 -0.5263
  704MOL0     H97106   1.565   3.794   8.291 -2.6286 -0.7125  0.4658
  704MOL0     H97107   1.648   3.637   8.257  0.0872  1.5735  3.2835
  704MOL0     H97108   1.718   3.700   8.043 -2.2901 -2.4421  1.3107
  704MOL0     H97109   1.649   3.855   8.040  1.2039 -0.7527 -2.2199
  704MOL0     H97110   2.019   3.888   8.281 -1.3356 -0.0050 -0.2522
  704MOL0     H97111   2.337   3.782   8.218 -0.5201  2.6365 -0.0285
  704MOL0     H97112   2.332   3.728   8.394  0.7577  1.3164  1.4390
  704MOL0     H97113   2.265   3.881   8.359 -1.3493  0.3296 -1.2967
  704MOL0     H97114   2.488   3.393   8.416 -0.1969 -0.1231  1.5262
  704MOL0     H97115   2.629   3.198   8.503 -2.0190  0.3139  2.1379
  704MOL0     H97116   2.573   2.788   8.360 -1.3260  1.3738 -1.9531
  704MOL0     H97117   2.671   2.918   8.318  2.1450 -0.9191 -0.4204
  704MOL0     H97118   2.722   2.737   8.567 -1.0405  2.1824  0.6434
  704MOL0     H97119   2.817   2.719   8.418  1.3833 -0.1826  0.8868
  704MOL0     H97120   2.835   2.953   8.622 -0.7224  0.4540 -1.2298
  704MOL0     H97121   2.891   2.959   8.456  1.5827 -1.1645 -1.0002
  704MOL0     H97122   3.029   2.752   8.501 -0.1858 -2.5369  0.2759
  704MOL0     H97123   2.970   2.734   8.663  0.8819 -0.5819 -0.6089
  704MOL0     H97124   3.127   2.979   8.561 -1.3836  0.2113 -0.4064
  704MOL0     H97125   3.075   2.946   8.727 -0.6869  0.5115 -1.0200
  704MOL0     H97126   3.208   2.718   8.704 -3.6474  0.3666 -0.6000
  704MOL0     H97127   3.289   2.875   8.723  0.6475  0.8619 -1.9562
  704MOL0     H97128   3.383   2.903   8.541  3.2178 -1.2034 -1.5069
  704MOL0     H97129   3.260   2.788   8.459 -0.3631 -1.2189  0.0277
  704MOL0     H97130   3.485   2.683   8.447  2.3996 -0.2423  0.9855
  704MOL0     H97131   3.377   2.600   8.562 -3.0030  1.5904  0.1690
  704MOL0     H97132   2.337   2.929   8.377 -4.5751  1.5742 -0.1270
  704MOL0     H97133   2.195   3.092   8.296 -0.1363  1.4369  0.2112
  704MOL0     H97134   2.007   3.415   8.191 -3.4853  0.8166 -1.7729
  704MOL0     H97135   1.836   3.541   8.136  0.1278 -2.0957  2.7256
  704MOL0     H97136   0.272   4.243   8.033  2.5626  4.5707  0.3526
  704MOL0     H97137   0.141   4.425   8.128  3.8536 -1.1038 -1.8977
  704MOL0     H97138  -0.027   4.689   8.440 -3.3610  1.7387 -1.9378
  704MOL0     H97139  -0.211   4.829   8.509  2.1068 -1.1207 -2.2035
  704MOL0     H97140  -0.516   4.642   8.780  0.3336  0.1978  1.2373
  704MOL0     H97141  -0.434   4.730   8.908  1.7081  0.4533 -0.3739
  704MOL0     H97142  -0.664   4.825   8.880  0.8303  0.6735  1.0520
  704MOL0     H97143  -0.650   4.833   8.707  2.7042  2.9687 -1.1690
  704MOL0     H97144  -0.488   5.017   8.899 -1.5652  0.1636  1.1415
  704MOL0     H97145  -0.498   5.022   8.721 -0.6184  0.1950 -0.6530
  704MOL0     H97146  -0.637   5.197   8.832 -3.2844  0.8743 -1.2811
  704MOL0     H97147  -0.723   5.060   8.918 -0.3071 -0.4154 -0.2415
  704MOL0     H97148  -0.905   5.108   8.534  0.9402  1.5030 -0.4396
  704MOL0     H97149  -0.303   4.538   8.808 -2.2668 -2.5604 -1.9991
  704MOL0     H97150  -0.155   4.271   8.654  1.0033  1.0797 -1.4825
  704MOL0     H97151  -0.033   4.328   8.771 -0.1634  0.4068  1.3726
  704MOL0     H97152  -0.209   4.325   8.812  0.4844  0.7292  0.6218
  705MOL0     O97153   7.929   0.562   8.913 -0.1560 -0.0002  0.1032
  705MOL0     C97154   7.941   0.638   9.010 -0.3331  0.1119  0.2801
  705MOL0     O97155   8.041   0.646   9.090 -0.3082  0.7633 -0.0067
  705MOL0     C97156   8.166   0.597   9.076 -0.5921  0.7960  0.0861
  705MOL0     C97157   8.241   0.595   9.188 -0.1179 -0.5593  0.9357
  705MOL0     C97158   8.373   0.545   9.187  0.2676  1.0258 -0.2747
  705MOL0     C97159   8.433   0.497   9.065 -0.4661 -0.1112  0.3875
  705MOL0     O97160   8.561   0.451   9.069  0.5335  0.5097  0.1805
  705MOL0     C97161   8.631   0.432   8.950  0.2239 -0.4937 -0.1453
  705MOL0     C97162   8.773   0.475   8.981 -0.5802 -0.0440 -0.1199
  705MOL0     C97163   8.860   0.463   8.850  0.1332  0.1331  0.4980
  705MOL0     C97164   9.000   0.516   8.868 -0.0326  0.1438 -0.3848
  705MOL0     C97165   9.097   0.478   8.755  0.1138  0.0425  0.4282
  705MOL0     C97166   9.206   0.578   8.747  0.0944 -0.3435  0.7128
  705MOL0     C97167   9.335   0.538   8.678  0.3699 -0.2685  0.2255
  705MOL0     C97168   9.411   0.671   8.658  0.0452 -0.6410 -0.3481
  705MOL0     N97169   9.511   0.638   8.551 -1.1832  0.1409 -0.6347
  705MOL0     C97170   9.627   0.559   8.575 -0.2962 -0.4808  1.2552
  705MOL0     C97171   9.675   0.535   8.452  0.0370 -0.3977  0.3234
  705MOL0     C97172   9.790   0.450   8.434  0.0142  0.4242 -0.6478
  705MOL0     C97173   9.922   0.521   8.395  0.4008 -0.0431  0.0121
  705MOL0     C97174  10.028   0.420   8.360  0.7671  0.7608  0.5846
  705MOL0     C97175  10.169   0.484   8.326  0.6772 -0.2093  0.0904
  705MOL0     O97176  10.211   0.549   8.454  0.0962  0.3022  0.7199
  705MOL0     C97177  10.319   0.629   8.456 -0.3291  0.2366 -0.1315
  705MOL0     C97178  10.399   0.653   8.340 -0.6178  0.3298  0.0494
  705MOL0     C97179  10.510   0.741   8.347 -0.9741 -0.4435 -1.1015
  705MOL0     C97180  10.587   0.768   8.219 -0.3817 -0.7827  0.2280
  705MOL0     C97181  10.557   0.779   8.476 -0.7590  0.3850  0.2002
  705MOL0     C97182  10.681   0.857   8.493 -0.2317  1.0527 -1.0113
  705MOL0     O97183  10.755   0.835   8.609  0.3684  0.4231  0.0452
  705MOL0     C97184  10.892   0.868   8.613  0.1866 -0.0345  0.0148
  705MOL0     C97185  10.955   0.880   8.738  0.1576 -0.0252 -0.8620
  705MOL0     C97186  11.089   0.907   8.749  0.3319 -0.5834 -0.9723
  705MOL0     C97187  11.167   0.927   8.638 -0.4881  0.3454 -0.4917
  705MOL0     O97188  11.298   0.950   8.658 -0.2368  0.0974 -0.0710
  705MOL0     C97189  11.372   0.830   8.692  0.3408 -0.8598 -0.2433
  705MOL0     C97190  11.514   0.835   8.664 -0.3356  0.1314 -0.4784
  705MOL0     C97191  11.578   0.951   8.736 -0.5592 -0.0345  0.3284
  705MOL0     C97192  11.718   0.975   8.671  0.3011 -0.2298  0.1024
  705MOL0     C97193  11.773   1.116   8.703  0.2849  0.4060 -0.8253
  705MOL0     C97194  11.905   1.116   8.643 -0.2501  0.6673  0.4848
  705MOL0     C97195  11.977   1.252   8.654 -0.7895 -0.1721  0.2503
  705MOL0     C97196  12.128   1.239   8.618 -0.4904 -0.1862  0.5448
  705MOL0    Cl97197  12.127   1.213   8.449  0.2896  0.7864  0.2552
  705MOL0     C97198  11.104   0.919   8.509  0.3718  0.3884  0.0698
  705MOL0     C97199  10.968   0.873   8.502 -0.3379  0.1969 -0.0434
  705MOL0     O97200  10.706   0.946   8.417  0.7147 -0.3378 -0.7889
  705MOL0     C97201  10.486   0.741   8.597 -0.0439  1.1721  0.6313
  705MOL0     C97202  10.365   0.667   8.580  0.2293 -0.4267  0.1341
  705MOL0     N97203   9.605   0.608   8.358 -0.2430 -0.6324  0.7828
  705MOL0     N97204   9.509   0.666   8.419  0.9101 -0.6931 -0.1205
  705MOL0     C97205   8.356   0.496   8.957 -0.1832  0.0565  0.3969
  705MOL0     C97206   8.226   0.546   8.954  0.7015 -0.4386  0.1222
  705MOL0     C97207   7.818   0.718   9.053 -0.7383 -0.0928  0.1270
  705MOL0     C97208   7.814   0.778   9.180  0.0177  0.6009  0.7120
  705MOL0     C97209   7.710   0.859   9.223  0.6128  0.0404  0.0698
  705MOL0     C97210   7.599   0.889   9.142 -0.6443 -0.2235  0.1968
  705MOL0     O97211   7.503   0.973   9.191  0.0631  0.1780  0.2464
  705MOL0     C97212   7.398   1.004   9.103  0.5212 -0.0845  0.0513
  705MOL0     C97213   7.289   1.073   9.185  0.9406  0.0123 -0.9502
  705MOL0     C97214   7.210   0.982   9.292 -0.2690  0.7076  0.6254
  705MOL0     C97215   7.134   0.856   9.234  0.0355 -0.1803 -0.3270
  705MOL0     C97216   7.016   0.904   9.156  0.3951 -0.4923 -0.2598
  705MOL0     C97217   6.915   0.945   9.111 -0.2228 -0.5346 -0.0292
  705MOL0     C97218   7.605   0.836   9.012 -0.3002  0.1011 -0.0374
  705MOL0     C97219   7.714   0.756   8.966 -0.2544  0.3402  0.1466
  705MOL0     C97220   7.717   0.719   8.819  1.3370 -1.6038 -0.9398
  705MOL0     H97221   8.200   0.632   9.282  1.5597  2.9210  0.4512
  705MOL0     H97222   8.427   0.562   9.279 -0.9862 -1.5575  1.0500
  705MOL0     H97223   8.587   0.495   8.872 -1.6321  0.0751  1.2980
  705MOL0     H97224   8.626   0.333   8.903  0.5340 -0.8502  0.5569
  705MOL0     H97225   8.758   0.579   9.008 -0.1546  0.3946 -1.4538
  705MOL0     H97226   8.825   0.419   9.059 -1.6771  0.5751  1.0805
  705MOL0     H97227   8.868   0.358   8.821 -0.0659 -0.4306  2.3988
  705MOL0     H97228   8.809   0.524   8.774 -1.1258  0.8197  1.8554
  705MOL0     H97229   8.995   0.624   8.878 -0.8946  0.0754  0.0733
  705MOL0     H97230   9.029   0.474   8.965 -0.0956  0.7466 -0.0998
  705MOL0     H97231   9.040   0.462   8.662 -0.1167  0.9645  0.4026
  705MOL0     H97232   9.145   0.386   8.788 -0.9327 -0.1471  1.4818
  705MOL0     H97233   9.166   0.668   8.698  2.8323  0.6688  0.1403
  705MOL0     H97234   9.234   0.602   8.850 -3.4869 -1.0389  1.9691
  705MOL0     H97235   9.309   0.510   8.576 -0.8541  1.5147  0.0008
  705MOL0     H97236   9.389   0.454   8.723  0.0391 -0.4355  0.3172
  705MOL0     H97237   9.343   0.744   8.612 -0.8819 -1.9138 -1.0567
  705MOL0     H97238   9.462   0.715   8.745 -3.1781 -0.9704  1.9069
  705MOL0     H97239   9.652   0.523   8.675 -0.6395  1.7199  2.1959
  705MOL0     H97240   9.774   0.372   8.359  0.9537  1.3736 -1.8950
  705MOL0     H97241   9.797   0.400   8.530 -4.5183  1.7977  0.6603
  705MOL0     H97242   9.904   0.597   8.318  1.0704  2.3100  2.0338
  705MOL0     H97243   9.957   0.571   8.486 -0.4311  0.9027 -0.1644
  705MOL0     H97244  10.042   0.345   8.438  0.5313  0.4570  0.3385
  705MOL0     H97245  10.000   0.372   8.266  0.0876  0.9954  0.6567
  705MOL0     H97246  10.231   0.398   8.300 -1.2932 -2.0039  0.9701
  705MOL0     H97247  10.171   0.550   8.239  1.1963 -2.5532 -1.7748
  705MOL0     H97248  10.367   0.629   8.239 -0.7808 -1.6369  0.5404
  705MOL0     H97249  10.551   0.866   8.187 -0.2636  0.7082  4.1094
  705MOL0     H97250  10.560   0.694   8.144  3.1389  1.5049 -3.6908
  705MOL0     H97251  10.696   0.764   8.228 -0.2332  1.0453 -0.4772
  705MOL0     H97252  10.902   0.860   8.830  2.1097 -1.0173  0.1081
  705MOL0     H97253  11.142   0.896   8.843 -1.2364  0.4797  0.0654
  705MOL0     H97254  11.369   0.805   8.798 -1.9339  0.5896  0.0975
  705MOL0     H97255  11.326   0.744   8.641  2.3422 -0.5119 -2.8606
  705MOL0     H97256  11.558   0.740   8.693  0.8454  0.4249 -1.2242
  705MOL0     H97257  11.532   0.854   8.557 -0.2718  0.4332 -0.4140
  705MOL0     H97258  11.596   0.921   8.839  1.0789 -1.4359 -0.3123
  705MOL0     H97259  11.522   1.044   8.738  0.3153  0.5229  3.6751
  705MOL0     H97260  11.709   0.963   8.562 -3.0043  1.0894  0.1069
  705MOL0     H97261  11.794   0.903   8.702 -0.6196 -1.3273 -0.0898
  705MOL0     H97262  11.706   1.196   8.670 -0.7925  0.4001  1.2036
  705MOL0     H97263  11.783   1.121   8.812  0.5872 -1.5854 -0.7240
  705MOL0     H97264  11.891   1.106   8.535  0.9614 -0.4698  0.4073
  705MOL0     H97265  11.961   1.028   8.675 -2.0315 -0.9181 -0.5663
  705MOL0     H97266  11.976   1.288   8.758 -0.4427  0.3270  0.0833
  705MOL0     H97267  11.934   1.331   8.592 -0.9802 -1.3617 -1.1981
  705MOL0     H97268  12.175   1.165   8.683 -3.5905 -1.4819  1.5345
  705MOL0     H97269  12.178   1.330   8.651  1.4450 -1.2697  0.7750
  705MOL0     H97270  11.162   0.946   8.421  1.4064  1.6984  1.1014
  705MOL0     H97271  10.926   0.861   8.402  0.8172 -0.8021 -0.4451
  705MOL0     H97272  10.528   0.773   8.692  1.9056  0.1214  0.1709
  705MOL0     H97273  10.320   0.642   8.675  0.2101 -1.1623 -0.0581
  705MOL0     H97274   8.394   0.456   8.863 -1.3421 -1.3219  0.4750
  705MOL0     H97275   8.169   0.532   8.863 -0.4035 -0.4223  0.7950
  705MOL0     H97276   7.894   0.761   9.251  1.5161 -1.1585 -1.2514
  705MOL0     H97277   7.724   0.900   9.322  0.5100  2.7154 -0.9464
  705MOL0     H97278   7.427   1.081   9.031 -0.3916 -0.0020 -0.2474
  705MOL0     H97279   7.351   0.919   9.052 -2.2406 -0.3823  2.7740
  705MOL0     H97280   7.215   1.116   9.117  1.2217  2.5218  0.2126
  705MOL0     H97281   7.329   1.156   9.244 -2.7258  0.9688  0.5226
  705MOL0     H97282   7.287   0.952   9.364 -1.0834 -0.8541  0.8828
  705MOL0     H97283   7.132   1.039   9.343 -0.7282 -0.7461  1.6141
  705MOL0     H97284   7.100   0.787   9.311 -3.0166  2.0702  0.5616
  705MOL0     H97285   7.202   0.809   9.162  1.6748  0.0164  1.0431
  705MOL0     H97286   6.823   0.992   9.081  1.9540  2.3849 -2.9375
  705MOL0     H97287   7.526   0.854   8.939  2.1968  1.9015 -2.4710
  705MOL0     H97288   7.818   0.736   8.779  1.3420 -1.1589 -0.7539
  705MOL0     H97289   7.661   0.626   8.811 -0.1836 -0.7507 -0.5395
  705MOL0     H97290   7.664   0.801   8.770  2.4941  1.1486  2.0510
  706MOL0     O97291   5.906   3.954   0.266 -0.3648  0.0278  0.1135
  706MOL0     C97292   5.863   4.054   0.326 -0.9892  0.2101 -0.5262
  706MOL0     O97293   5.942   4.125   0.412 -0.5021  0.0443  0.0751
  706MOL0     C97294   6.078   4.102   0.409  0.3466  1.7025 -0.2927
  706MOL0     C97295   6.122   3.988   0.473 -0.1829  0.6093  0.2928
  706MOL0     C97296   6.257   3.986   0.504 -0.6930 -0.5917 -0.2843
  706MOL0     C97297   6.348   4.090   0.467 -0.0581  0.8903 -0.3586
  706MOL0     O97298   6.474   4.088   0.525  0.0764 -0.4538 -0.1503
  706MOL0     C97299   6.575   4.160   0.453  0.9328 -0.1056 -0.4961
  706MOL0     C97300   6.693   4.199   0.533 -0.6583  0.6655 -0.9307
  706MOL0     C97301   6.794   4.080   0.552 -0.3456 -0.2610  0.8482
  706MOL0     C97302   6.918   4.135   0.619 -0.8375  0.5084  0.1630
  706MOL0     C97303   7.053   4.045   0.611  0.5258  0.0048  0.6671
  706MOL0     C97304   7.030   3.908   0.674  0.4688  0.1265 -0.4115
  706MOL0     C97305   7.158   3.830   0.655  0.0737  0.3450 -0.0414
  706MOL0     C97306   7.147   3.676   0.687 -0.5219  0.4203  0.2817
  706MOL0     N97307   7.271   3.612   0.644  0.0358  0.5024  0.1211
  706MOL0     C97308   7.376   3.575   0.723  1.2072 -1.2122 -0.5123
  706MOL0     C97309   7.457   3.504   0.634  0.1272 -0.2534 -0.0260
  706MOL0     C97310   7.578   3.424   0.679  0.5158  1.0837  0.3324
  706MOL0     C97311   7.709   3.480   0.625  0.0175 -0.1468  0.7424
  706MOL0     C97312   7.840   3.400   0.630  0.5656  0.3308  0.0189
  706MOL0     C97313   7.961   3.468   0.575 -0.3194  0.0962 -0.2388
  706MOL0     O97314   7.939   3.489   0.433  0.0350 -0.6153 -0.6657
  706MOL0     C97315   8.048   3.504   0.350  0.1514  0.4786  1.6466
  706MOL0     C97316   8.040   3.472   0.213 -0.6080 -0.4967 -0.4680
  706MOL0     C97317   8.141   3.504   0.117 -0.1524  0.7333  0.4694
  706MOL0     C97318   8.102   3.502  -0.032 -0.4126 -0.1524 -0.3914
  706MOL0     C97319   8.263   3.556   0.165  0.4201 -0.4593  0.4375
  706MOL0     C97320   8.375   3.605   0.075  0.6121 -0.5505 -0.5216
  706MOL0     O97321   8.475   3.682   0.141  0.3699 -0.1418  0.0316
  706MOL0     C97322   8.583   3.715   0.069  1.1872 -0.3409  0.3405
  706MOL0     C97323   8.694   3.632   0.081 -0.3827  0.0295  0.4074
  706MOL0     C97324   8.803   3.648  -0.005 -0.0618  0.5762  0.2540
  706MOL0     C97325   8.812   3.761  -0.095 -0.0413  0.8474 -1.0916
  706MOL0     O97326   8.926   3.769  -0.174  0.2429  0.5942 -0.0274
  706MOL0     C97327   8.942   3.878  -0.273  0.2057 -0.5006 -0.1181
  706MOL0     C97328   9.086   3.891  -0.315 -0.2901  0.5596 -0.2625
  706MOL0     C97329   9.180   3.921  -0.196 -0.3549 -0.3194 -0.2209
  706MOL0     C97330   9.316   3.997  -0.230 -0.0455  0.9284  0.9226
  706MOL0     C97331   9.390   4.018  -0.099 -0.9137  0.1572 -0.0719
  706MOL0     C97332   9.516   4.093  -0.120 -0.6714 -0.2071  0.3896
  706MOL0     C97333   9.616   4.073  -0.009 -0.6468 -0.0063  0.3203
  706MOL0     C97334   9.739   4.159  -0.002  0.4335 -0.4529  0.5588
  706MOL0    Cl97335   9.829   4.154  -0.171  0.3124 -0.4219  0.0566
  706MOL0     C97336   8.704   3.849  -0.093  0.2092 -0.1476  0.0087
  706MOL0     C97337   8.594   3.830  -0.011  0.5958  0.0902  0.9144
  706MOL0     O97338   8.383   3.564  -0.043  0.4023  0.5743 -0.6110
  706MOL0     C97339   8.272   3.579   0.300  1.3446  0.7744 -1.2329
  706MOL0     C97340   8.168   3.560   0.388  0.2217  0.4090 -0.2102
  706MOL0     N97341   7.412   3.527   0.512  0.2698 -0.0016  0.0095
  706MOL0     N97342   7.294   3.587   0.515 -0.3628  0.4128 -0.5891
  706MOL0     C97343   6.292   4.203   0.397 -0.2324 -0.4562  0.7623
  706MOL0     C97344   6.159   4.209   0.376  0.4129  0.1515  0.3664
  706MOL0     C97345   5.718   4.089   0.315  0.1799 -0.0685  0.5022
  706MOL0     C97346   5.625   3.994   0.265 -0.4538  0.1519  0.2378
  706MOL0     C97347   5.492   4.024   0.247 -0.5569  0.8825 -0.3479
  706MOL0     C97348   5.445   4.147   0.276  0.3320  0.4948 -0.6222
  706MOL0     O97349   5.312   4.187   0.271 -0.5318 -0.4836  0.2883
  706MOL0     C97350   5.211   4.097   0.234  0.1090  0.2764 -0.9298
  706MOL0     C97351   5.203   4.088   0.084  0.1402  0.3925  0.2585
  706MOL0     C97352   5.169   4.220   0.019 -1.4764 -0.6360  0.1733
  706MOL0     C97353   5.026   4.266   0.060  0.5029 -0.3998 -0.0712
  706MOL0     C97354   4.995   4.390  -0.011 -0.0229  0.6273  0.5948
  706MOL0     C97355   4.976   4.487  -0.075  0.2431  0.2405  0.1372
  706MOL0     C97356   5.529   4.244   0.322 -0.0534  0.2552 -0.2251
  706MOL0     C97357   5.665   4.220   0.331 -0.3646  0.6207 -0.5873
  706MOL0     C97358   5.752   4.328   0.370 -0.0609 -0.8478  0.2593
  706MOL0     H97359   6.054   3.908   0.498  0.2144 -0.3546 -1.4918
  706MOL0     H97360   6.296   3.909   0.570  0.5474 -1.0775 -1.5271
  706MOL0     H97361   6.538   4.261   0.430  1.7019  0.7063  1.5621
  706MOL0     H97362   6.611   4.103   0.367 -0.2116 -1.4692 -0.0999
  706MOL0     H97363   6.744   4.280   0.480 -2.0321  2.8405  0.8961
  706MOL0     H97364   6.664   4.227   0.635  1.2816 -2.3493  0.5881
  706MOL0     H97365   6.741   4.002   0.607  1.7430  1.0933  5.1753
  706MOL0     H97366   6.823   4.053   0.450 -0.6960 -3.4757  1.4980
  706MOL0     H97367   6.949   4.228   0.569  0.3555 -1.5971 -3.3337
  706MOL0     H97368   6.904   4.164   0.724 -2.6120 -0.2030  0.1428
  706MOL0     H97369   7.137   4.095   0.661 -0.7440  0.5246  2.3913
  706MOL0     H97370   7.091   4.039   0.509  1.1493  2.7891  0.6492
  706MOL0     H97371   7.005   3.909   0.780  3.9910  0.2626  0.5422
  706MOL0     H97372   6.946   3.862   0.619  0.3619 -1.2374  0.8269
  706MOL0     H97373   7.235   3.875   0.718  0.2240 -1.5158  1.2149
  706MOL0     H97374   7.192   3.838   0.552  1.6442  0.0239  0.4251
  706MOL0     H97375   7.115   3.657   0.790  1.4447 -2.0035  0.5483
  706MOL0     H97376   7.068   3.632   0.625 -0.9253  1.9579 -0.3182
  706MOL0     H97377   7.373   3.595   0.830 -1.2653 -1.0132 -0.5557
  706MOL0     H97378   7.572   3.318   0.654  0.7496  1.2736 -0.5629
  706MOL0     H97379   7.590   3.434   0.787  0.2503  0.2688  0.4494
  706MOL0     H97380   7.689   3.507   0.521 -0.7872  1.3275  1.2467
  706MOL0     H97381   7.713   3.577   0.675  1.1317  0.3574 -0.2625
  706MOL0     H97382   7.871   3.373   0.731  1.1225  0.1116 -0.2085
  706MOL0     H97383   7.826   3.310   0.569 -0.7832 -0.7641  1.8240
  706MOL0     H97384   7.993   3.563   0.621 -1.9184 -0.0301  1.2342
  706MOL0     H97385   8.043   3.396   0.580 -0.4132  0.0013 -0.0496
  706MOL0     H97386   7.949   3.427   0.176  0.5273 -2.4349 -1.0540
  706MOL0     H97387   8.101   3.607  -0.061  0.7855  0.5140  1.7137
  706MOL0     H97388   8.007   3.450  -0.046 -0.7768  0.2895  0.3666
  706MOL0     H97389   8.173   3.450  -0.098 -2.3411 -1.8042 -1.2824
  706MOL0     H97390   8.682   3.544   0.144  0.7910  0.2828  1.0077
  706MOL0     H97391   8.880   3.572   0.004  0.8864  1.4973  0.1138
  706MOL0     H97392   8.886   3.851  -0.362  0.6717  0.5917 -0.7594
  706MOL0     H97393   8.911   3.979  -0.247  2.2113  0.2768 -0.5948
  706MOL0     H97394   9.118   3.803  -0.372 -0.7221  1.2466 -1.6074
  706MOL0     H97395   9.093   3.977  -0.382  0.6204 -0.1604 -1.1264
  706MOL0     H97396   9.194   3.825  -0.145 -0.6195  0.7426  1.9478
  706MOL0     H97397   9.141   3.992  -0.123  3.2304 -0.9177  2.5826
  706MOL0     H97398   9.294   4.096  -0.271  0.1267  0.2047 -1.0510
  706MOL0     H97399   9.369   3.938  -0.306  2.5237  2.5820  1.3340
  706MOL0     H97400   9.327   4.061  -0.020 -1.4146  2.1026 -1.4527
  706MOL0     H97401   9.431   3.925  -0.059  1.5331  2.0781  2.2681
  706MOL0     H97402   9.496   4.199  -0.133  1.1302 -0.0592 -1.9135
  706MOL0     H97403   9.561   4.063  -0.215 -3.1904  0.2128 -0.9943
  706MOL0     H97404   9.656   3.973  -0.028  1.8663  0.4355  2.7124
  706MOL0     H97405   9.554   4.074   0.082 -1.8557 -2.6982 -0.3807
  706MOL0     H97406   9.807   4.126   0.077 -0.7924  2.0225  2.7954
  706MOL0     H97407   9.724   4.260   0.038 -2.7281  0.2723 -1.9931
  706MOL0     H97408   8.690   3.938  -0.154 -1.7673  1.2046  2.2791
  706MOL0     H97409   8.508   3.895  -0.022 -0.0116 -0.8009  0.2336
  706MOL0     H97410   8.365   3.614   0.345  0.5299 -2.6834  4.0837
  706MOL0     H97411   8.189   3.590   0.490 -5.9422  0.1079  1.5051
  706MOL0     H97412   6.362   4.283   0.377  0.7474 -1.2844  0.8200
  706MOL0     H97413   6.118   4.304   0.341  1.2662  0.7696  0.9893
  706MOL0     H97414   5.660   3.892   0.256 -2.0947 -0.5787  1.7397
  706MOL0     H97415   5.431   3.942   0.211 -0.8004  0.8005  0.2342
  706MOL0     H97416   5.236   4.002   0.282 -1.4347 -0.4315 -1.4651
  706MOL0     H97417   5.115   4.127   0.277 -0.5378  1.5731 -3.1182
  706MOL0     H97418   5.126   4.017   0.052 -0.8184  0.5753  1.9745
  706MOL0     H97419   5.294   4.045   0.041 -1.2776 -2.0150 -0.5270
  706MOL0     H97420   5.231   4.300   0.058 -0.1464 -0.4557 -2.1202
  706MOL0     H97421   5.184   4.233  -0.089  0.7873  1.1736  0.6371
  706MOL0     H97422   5.003   4.279   0.166 -0.7396 -0.0699 -0.3754
  706MOL0     H97423   4.952   4.192   0.027  0.4888 -0.2341 -0.4165
  706MOL0     H97424   4.965   4.586  -0.114 -0.8388  0.6964  1.4976
  706MOL0     H97425   5.499   4.344   0.351 -0.2079  0.2561 -0.3879
  706MOL0     H97426   5.850   4.322   0.321  0.0981 -0.7583  0.5572
  706MOL0     H97427   5.704   4.423   0.345  2.0978 -0.1767 -1.6535
  706MOL0     H97428   5.759   4.332   0.479 -1.5182  1.3956  0.3378
  707MOL0     O97429  11.310  10.450   4.543  0.5598 -1.2670  0.0597
  707MOL0     C97430  11.261  10.440   4.432 -0.0374 -0.3858  0.2318
  707MOL0     O97431  11.324  10.477   4.324 -0.1041 -0.0200 -0.2661
  707MOL0     C97432  11.430  10.570   4.344  0.2036  0.3670 -0.4321
  707MOL0     C97433  11.560  10.552   4.285 -0.1718 -0.1074 -0.3976
  707MOL0     C97434  11.673  10.643   4.314  0.3647 -0.5293 -0.5120
  707MOL0     C97435  11.641  10.769   4.358  0.5525 -0.4316 -0.3672
  707MOL0     O97436  11.722  10.877   4.367 -0.2512 -0.0761  0.1806
  707MOL0     C97437  11.864  10.871   4.357  0.3984 -0.0070 -0.2829
  707MOL0     C97438  11.914  10.863   4.212  0.4600 -0.2843  0.1212
  707MOL0     C97439  12.067  10.873   4.199 -0.4040 -0.4063  0.8087
  707MOL0     C97440  12.109  11.021   4.195  0.9007 -0.1588  0.2708
  707MOL0     C97441  12.245  11.045   4.148 -0.4704 -0.2187  0.1361
  707MOL0     C97442  12.263  11.200   4.143  0.0976  0.5855 -0.7201
  707MOL0     C97443  12.409  11.247   4.121  0.3031  0.2249 -0.0468
  707MOL0     C97444  12.464  11.187   3.998  0.5096 -0.9178  0.0343
  707MOL0     N97445  12.584  11.255   3.964  0.0804 -0.3893 -0.6139
  707MOL0     C97446  12.719  11.236   3.995  0.5317  1.3345 -0.2848
  707MOL0     C97447  12.784  11.328   3.920  0.6663 -0.0771 -0.1448
  707MOL0     C97448  12.934  11.346   3.909 -0.0087 -0.5173 -0.2065
  707MOL0     C97449  12.993  11.229   3.824  0.5170 -0.1106 -0.3264
  707MOL0     C97450  13.138  11.270   3.811 -0.2150 -0.3312  0.9487
  707MOL0     C97451  13.231  11.155   3.808  0.3044  0.2934  0.2700
  707MOL0     O97452  13.262  11.104   3.934 -0.2033 -0.2155  0.1427
  707MOL0     C97453  13.381  11.037   3.949  0.0721 -0.4817  0.7478
  707MOL0     C97454  13.422  11.019   4.077  0.1396 -0.9470  0.1585
  707MOL0     C97455  13.549  10.953   4.113 -0.0882 -1.1915  0.3279
  707MOL0     C97456  13.592  10.936   4.260  0.4345 -0.7641 -0.1844
  707MOL0     C97457  13.627  10.899   4.012  0.5012  0.1409  0.0986
  707MOL0     C97458  13.755  10.827   4.026 -0.0283  0.1595  0.0507
  707MOL0     O97459  13.802  10.760   3.916 -0.1937  0.6093  0.1187
  707MOL0     C97460  13.928  10.700   3.923 -0.8602  0.1509 -0.2687
  707MOL0     C97461  14.051  10.769   3.904 -0.2439  0.5480  0.0528
  707MOL0     C97462  14.179  10.701   3.909  0.2938 -0.4656  0.4438
  707MOL0     C97463  14.188  10.567   3.952  0.0042 -0.4539 -0.6030
  707MOL0     O97464  14.303  10.500   3.982  0.7618 -0.1822  0.0137
  707MOL0     C97465  14.421  10.576   3.965  0.0894  0.1873  0.0325
  707MOL0     C97466  14.525  10.470   3.949  0.7917  0.5751 -0.4026
  707MOL0     C97467  14.666  10.521   3.950 -0.1696  0.5729  0.0933
  707MOL0     C97468  14.765  10.408   3.926  0.5661 -0.3232  0.7130
  707MOL0     C97469  14.910  10.461   3.932  0.2839 -0.7289 -0.2917
  707MOL0     C97470  15.013  10.354   3.941  0.0021  0.0715  0.3642
  707MOL0     C97471  15.148  10.425   3.964 -0.2268  0.1481  0.3530
  707MOL0     C97472  15.256  10.315   3.978  0.3688  0.2046 -0.4036
  707MOL0    Cl97473  15.387  10.387   4.081 -0.1618 -0.0542  0.1920
  707MOL0     C97474  14.061  10.501   3.974  0.5224  0.3793  0.5492
  707MOL0     C97475  13.936  10.565   3.964 -0.1581 -0.4133  0.4583
  707MOL0     O97476  13.815  10.822   4.129 -0.1973 -0.0946 -1.1775
  707MOL0     C97477  13.583  10.911   3.882 -0.1001  0.0252 -0.1533
  707MOL0     C97478  13.463  10.988   3.850  0.7516 -0.2847  0.0091
  707MOL0     N97479  12.689  11.406   3.851  0.3246 -0.6287 -0.1816
  707MOL0     N97480  12.571  11.361   3.878 -0.4457  0.3867 -0.4462
  707MOL0     C97481  11.512  10.783   4.408  0.4191 -0.9435  0.2149
  707MOL0     C97482  11.411  10.689   4.408  0.1480  0.1638 -0.7417
  707MOL0     C97483  11.143  10.356   4.415  0.2945 -0.4757  0.1194
  707MOL0     C97484  11.129  10.283   4.295  0.4098  0.5829 -0.0808
  707MOL0     C97485  11.014  10.203   4.281  0.2553 -0.8195 -0.0447
  707MOL0     C97486  10.915  10.192   4.377 -0.4422 -0.0340 -1.0297
  707MOL0     O97487  10.809  10.111   4.350 -0.2174 -0.1649 -0.1925
  707MOL0     C97488  10.675  10.132   4.401 -0.3034 -0.2352 -0.1967
  707MOL0     C97489  10.642  10.037   4.509  0.4029  0.8322 -0.3562
  707MOL0     C97490  10.651   9.885   4.463 -0.2171  0.1547  0.5165
  707MOL0     C97491  10.534   9.839   4.384 -0.5739 -0.1952  0.3403
  707MOL0     C97492  10.513   9.698   4.401 -0.5141 -0.1265 -0.2151
  707MOL0     C97493  10.488   9.587   4.434  0.1321 -0.2629 -0.3623
  707MOL0     C97494  10.933  10.279   4.490  1.0249 -0.1278  0.6854
  707MOL0     C97495  11.042  10.354   4.514 -0.0875  1.0143  0.8114
  707MOL0     C97496  11.046  10.443   4.632  0.0828  0.4878  0.2038
  707MOL0     H97497  11.571  10.460   4.228 -2.4640 -0.6853  0.0183
  707MOL0     H97498  11.776  10.621   4.288  1.0106 -0.4221  1.7725
  707MOL0     H97499  11.892  10.787   4.419 -1.4245  0.9828  2.0463
  707MOL0     H97500  11.916  10.964   4.383  1.3989 -0.3713 -0.9315
  707MOL0     H97501  11.896  10.761   4.178  1.9388 -0.5291 -0.0151
  707MOL0     H97502  11.867  10.934   4.143 -3.2286 -0.3079  2.3517
  707MOL0     H97503  12.118  10.820   4.279  1.4145 -0.3055 -0.2202
  707MOL0     H97504  12.096  10.823   4.106 -1.2583 -0.7591  0.7144
  707MOL0     H97505  12.038  11.088   4.145  1.1774  1.5763  2.0480
  707MOL0     H97506  12.111  11.049   4.301  1.9347 -0.6280  0.3858
  707MOL0     H97507  12.252  11.002   4.048  0.0377 -1.6506  0.7564
  707MOL0     H97508  12.327  11.000   4.205  0.1684  0.1017 -0.5162
  707MOL0     H97509  12.204  11.250   4.066  0.7501  3.1236  0.3149
  707MOL0     H97510  12.229  11.235   4.241  0.7898 -0.8515  0.0735
  707MOL0     H97511  12.472  11.226   4.207 -0.5293  0.0345  0.5326
  707MOL0     H97512  12.404  11.355   4.109  0.4748  0.9239  4.6386
  707MOL0     H97513  12.485  11.080   4.009  1.3353 -0.6155  1.7251
  707MOL0     H97514  12.404  11.200   3.907 -3.1394  3.2380  2.6463
  707MOL0     H97515  12.759  11.159   4.060 -1.1084  1.2373  0.6600
  707MOL0     H97516  12.980  11.334   4.008  0.0007 -4.0260 -0.5031
  707MOL0     H97517  12.964  11.448   3.885  0.8942 -0.3695  1.4042
  707MOL0     H97518  12.981  11.132   3.874  0.1331 -0.8551 -1.7944
  707MOL0     H97519  12.955  11.224   3.722  0.5526  0.0569 -0.3479
  707MOL0     H97520  13.157  11.321   3.716  0.4936 -2.8632 -0.3531
  707MOL0     H97521  13.185  11.329   3.891  2.8978  0.5401 -1.3441
  707MOL0     H97522  13.188  11.084   3.737 -0.9982  2.8294 -1.6371
  707MOL0     H97523  13.324  11.195   3.766 -0.5823  0.9860 -1.0894
  707MOL0     H97524  13.364  11.040   4.166  1.7390 -3.8997  2.0558
  707MOL0     H97525  13.596  10.831   4.291 -0.9826 -1.3124 -1.6919
  707MOL0     H97526  13.519  10.982   4.326  2.6371  1.3740  0.9435
  707MOL0     H97527  13.689  10.982   4.283 -0.2633 -0.5110  2.6040
  707MOL0     H97528  14.055  10.870   3.866  0.0563  0.0382 -1.3488
  707MOL0     H97529  14.260  10.770   3.889  1.8728 -1.8683  1.7475
  707MOL0     H97530  14.430  10.633   3.872 -2.1353  0.1730 -0.2480
  707MOL0     H97531  14.453  10.635   4.051 -2.9368 -0.2129  1.5660
  707MOL0     H97532  14.512  10.392   4.024 -1.6437  1.3054  0.0309
  707MOL0     H97533  14.506  10.422   3.852  0.2280 -1.6641  0.7566
  707MOL0     H97534  14.691  10.566   4.047 -0.0955  1.5507 -0.3638
  707MOL0     H97535  14.678  10.594   3.869 -2.6951 -2.7730 -3.7105
  707MOL0     H97536  14.747  10.362   3.828 -2.3267  0.4782  0.7636
  707MOL0     H97537  14.747  10.325   3.995 -4.3645 -2.0838 -2.1225
  707MOL0     H97538  14.921  10.519   3.839  1.8822  2.3863  1.6844
  707MOL0     H97539  14.922  10.533   4.013  1.2134  1.8884 -2.5748
  707MOL0     H97540  15.019  10.279   3.861 -1.7720  1.1454 -0.8458
  707MOL0     H97541  14.996  10.290   4.029 -1.5960  2.6171  2.0350
  707MOL0     H97542  15.163  10.495   4.047  0.9063  0.4622 -0.0919
  707MOL0     H97543  15.163  10.483   3.873 -1.5791  0.1449  0.1072
  707MOL0     H97544  15.291  10.291   3.877 -1.1778  0.3779 -1.0039
  707MOL0     H97545  15.213  10.227   4.027  0.1346 -0.2145 -1.3303
  707MOL0     H97546  14.069  10.405   4.025  2.7869  0.9853  1.4885
  707MOL0     H97547  13.839  10.518   3.978 -0.3676 -0.2230 -0.3366
  707MOL0     H97548  13.630  10.872   3.792 -1.0440  0.8764 -1.0362
  707MOL0     H97549  13.443  11.025   3.750  0.7012 -0.6261 -0.1113
  707MOL0     H97550  11.487  10.877   4.458 -2.4623 -0.8592 -1.1891
  707MOL0     H97551  11.315  10.715   4.450 -0.2318 -1.3194 -0.6100
  707MOL0     H97552  11.198  10.304   4.213  0.9953  1.7813  0.6849
  707MOL0     H97553  11.002  10.150   4.187 -0.0722 -1.4514  0.3465
  707MOL0     H97554  10.666  10.229   4.451 -0.3183 -1.3343  2.0215
  707MOL0     H97555  10.607  10.109   4.318 -0.6659  0.7451 -0.1904
  707MOL0     H97556  10.546  10.067   4.553  0.8474  1.5335  0.1369
  707MOL0     H97557  10.723  10.042   4.582 -1.5096 -2.1870  2.2157
  707MOL0     H97558  10.744   9.871   4.407 -0.0306 -0.7017  1.0199
  707MOL0     H97559  10.655   9.830   4.557 -1.4323 -0.2953  0.3183
  707MOL0     H97560  10.547   9.852   4.276  0.7277 -3.6834 -0.0750
  707MOL0     H97561  10.440   9.883   4.417  0.3081  2.0047  0.0756
  707MOL0     H97562  10.449   9.489   4.457 -0.9370 -0.3766 -2.4249
  707MOL0     H97563  10.844  10.284   4.552  0.4829 -0.3800 -0.0553
  707MOL0     H97564  10.953  10.454   4.688  0.7977 -2.5013  2.2490
  707MOL0     H97565  11.128  10.410   4.697 -0.7850 -1.0424  0.5644
  707MOL0     H97566  11.049  10.544   4.592  0.1727  1.1701  1.8460
  708MOL0     O97567   2.626   1.118  11.242 -0.9269 -0.5714  0.1682
  708MOL0     C97568   2.551   1.208  11.289 -0.0046  0.1251 -1.3851
  708MOL0     O97569   2.585   1.281  11.395 -0.2248 -0.6135 -0.1948
  708MOL0     C97570   2.709   1.264  11.452 -0.2356  0.0569  0.6224
  708MOL0     C97571   2.829   1.321  11.402 -0.8442  0.1907 -0.0422
  708MOL0     C97572   2.947   1.313  11.473 -0.6341  0.1141  0.6044
  708MOL0     C97573   2.947   1.271  11.602 -0.0015  0.5105 -0.2276
  708MOL0     O97574   3.068   1.273  11.666 -0.7179 -0.4786  0.2360
  708MOL0     C97575   3.137   1.147  11.668  0.4356 -0.7890 -0.6089
  708MOL0     C97576   3.210   1.123  11.539 -0.2069 -0.1948  0.0072
  708MOL0     C97577   3.334   1.027  11.562  0.1337  0.4613  0.0547
  708MOL0     C97578   3.397   0.973  11.429 -0.1477 -0.2730 -1.2828
  708MOL0     C97579   3.516   0.878  11.442 -0.6608 -0.4254  0.1757
  708MOL0     C97580   3.579   0.861  11.303 -0.6641 -0.1810 -0.3188
  708MOL0     C97581   3.693   0.768  11.307 -0.2151  0.1935  0.5930
  708MOL0     C97582   3.814   0.852  11.354 -0.1304  0.4017 -0.3572
  708MOL0     N97583   3.929   0.754  11.374 -0.0975 -0.3513 -0.0107
  708MOL0     C97584   4.013   0.758  11.488 -0.2809 -0.3736 -0.2762
  708MOL0     C97585   4.119   0.681  11.449  0.0992  0.0479 -0.0563
  708MOL0     C97586   4.249   0.650  11.523 -0.3048 -0.0693 -0.4014
  708MOL0     C97587   4.343   0.770  11.536 -0.3334  0.3273  0.1162
  708MOL0     C97588   4.392   0.837  11.409  0.0909  0.8498  0.6239
  708MOL0     C97589   4.513   0.768  11.348  0.0432 -0.3577 -0.4632
  708MOL0     O97590   4.625   0.762  11.446 -0.1215  0.7673 -0.1476
  708MOL0     C97591   4.741   0.829  11.427 -0.0075 -0.4350 -0.4259
  708MOL0     C97592   4.759   0.932  11.335  1.1310  0.7718 -0.4508
  708MOL0     C97593   4.876   1.014  11.334  0.6657 -0.3502 -0.1068
  708MOL0     C97594   4.873   1.127  11.240 -0.5286  0.1446  1.4466
  708MOL0     C97595   4.976   0.993  11.429  0.0470 -0.1195 -0.2690
  708MOL0     C97596   5.094   1.083  11.438 -0.5412 -1.0955 -0.1273
  708MOL0     O97597   5.161   1.104  11.316  0.8299  0.4380  0.3213
  708MOL0     C97598   5.226   1.226  11.298 -1.1461  0.0085  0.5407
  708MOL0     C97599   5.153   1.338  11.265 -0.1278 -0.4069  0.6446
  708MOL0     C97600   5.218   1.450  11.209 -0.3569  0.3583  0.5880
  708MOL0     C97601   5.355   1.446  11.192 -0.5239  0.7518  0.4067
  708MOL0     O97602   5.420   1.560  11.142  0.6966 -0.2731 -0.1497
  708MOL0     C97603   5.452   1.648  11.259 -0.5173 -0.2172  0.1186
  708MOL0     C97604   5.486   1.777  11.189  0.4321 -0.4617  0.0238
  708MOL0     C97605   5.599   1.861  11.261  0.4845  0.6236  0.1760
  708MOL0     C97606   5.730   1.826  11.196 -0.4245  0.1750  0.9682
  708MOL0     C97607   5.831   1.893  11.281  0.4372 -1.0880 -0.7535
  708MOL0     C97608   5.977   1.860  11.238  0.1169  0.5065  0.2625
  708MOL0     C97609   6.073   1.951  11.317 -0.0085  0.2206 -0.2178
  708MOL0     C97610   6.217   1.909  11.280  0.1885  1.1823 -0.2894
  708MOL0    Cl97611   6.326   2.043  11.327 -0.2483 -0.1915 -0.1577
  708MOL0     C97612   5.433   1.334  11.222  0.2585  0.5153  0.0461
  708MOL0     C97613   5.364   1.223  11.279  0.3029 -0.6169 -0.5386
  708MOL0     O97614   5.119   1.144  11.542  0.8730 -0.2391  0.0237
  708MOL0     C97615   4.962   0.877  11.514  0.5234 -0.4385 -0.2407
  708MOL0     C97616   4.838   0.804  11.522 -0.9365  0.3378 -0.4824
  708MOL0     N97617   4.094   0.630  11.325  0.0793  0.2447 -0.4469
  708MOL0     N97618   3.979   0.664  11.283  0.4408 -0.1109  0.3076
  708MOL0     C97619   2.830   1.215  11.658 -0.3304 -0.2179  0.2786
  708MOL0     C97620   2.714   1.202  11.574 -0.2589  0.2476  0.2605
  708MOL0     C97621   2.410   1.224  11.238  0.9658  0.3562 -0.6670
  708MOL0     C97622   2.383   1.196  11.107 -0.4448  0.3631  0.2400
  708MOL0     C97623   2.256   1.195  11.051  0.5958 -1.0091 -0.3890
  708MOL0     C97624   2.151   1.225  11.137  0.1312 -0.3715 -0.0345
  708MOL0     O97625   2.024   1.206  11.095 -0.0299 -0.6622  0.3898
  708MOL0     C97626   1.934   1.320  11.097  0.0194 -1.2759 -1.0659
  708MOL0     C97627   1.827   1.295  11.209  0.0680  0.0501  0.7315
  708MOL0     C97628   1.734   1.411  11.240  0.3931 -0.3894  0.0678
  708MOL0     C97629   1.793   1.513  11.343  0.3754 -0.5654  0.6413
  708MOL0     C97630   1.719   1.641  11.331  0.6329  0.4815 -0.6737
  708MOL0     C97631   1.645   1.738  11.312  0.1487 -0.0792 -0.1084
  708MOL0     C97632   2.179   1.265  11.269 -0.6721 -0.2033 -0.1775
  708MOL0     C97633   2.306   1.257  11.326  0.0716 -0.0011 -0.2363
  708MOL0     C97634   2.315   1.290  11.468  0.2090  0.3340  0.1174
  708MOL0     H97635   2.830   1.372  11.306 -2.0422  3.1349  1.3692
  708MOL0     H97636   3.033   1.352  11.420 -1.9980  0.5792 -1.4033
  708MOL0     H97637   3.068   1.063  11.675  1.4394 -1.5612  0.3248
  708MOL0     H97638   3.210   1.148  11.749  1.0932  0.0958 -1.2019
  708MOL0     H97639   3.139   1.082  11.466  1.1074 -1.3038 -0.7054
  708MOL0     H97640   3.250   1.221  11.509  1.2741 -0.8965 -0.4061
  708MOL0     H97641   3.411   1.082  11.618  2.0251 -1.5718 -0.4304
  708MOL0     H97642   3.304   0.945  11.627  2.4756 -0.4310  0.1096
  708MOL0     H97643   3.317   0.917  11.380 -2.3868  0.3073  1.4718
  708MOL0     H97644   3.429   1.056  11.363 -2.0469  2.6793  1.2509
  708MOL0     H97645   3.495   0.777  11.480  2.2745 -1.4373 -0.6331
  708MOL0     H97646   3.586   0.923  11.513  3.4413 -2.5001 -2.1553
  708MOL0     H97647   3.500   0.833  11.233 -0.6994  1.5924 -1.0442
  708MOL0     H97648   3.615   0.960  11.273 -1.3449  1.3318  3.2898
  708MOL0     H97649   3.719   0.723  11.211 -1.6906  1.2548 -0.3539
  708MOL0     H97650   3.671   0.688  11.378 -2.4158  1.1314  1.0548
  708MOL0     H97651   3.838   0.922  11.274 -0.9082  1.2965  0.1656
  708MOL0     H97652   3.792   0.905  11.448  0.4250  3.6472 -1.9280
  708MOL0     H97653   4.000   0.808  11.584 -1.5673 -2.2386  0.5838
  708MOL0     H97654   4.293   0.570  11.464  0.5656  2.4563 -3.4955
  708MOL0     H97655   4.221   0.613  11.622 -1.7015  1.8471 -0.0259
  708MOL0     H97656   4.287   0.848  11.589 -0.5497 -0.5772  1.2583
  708MOL0     H97657   4.418   0.742  11.610 -1.2617 -1.5497  0.4223
  708MOL0     H97658   4.315   0.835  11.331  1.5198 -0.8164 -0.8199
  708MOL0     H97659   4.423   0.941  11.427 -1.1244  0.8757  2.9266
  708MOL0     H97660   4.481   0.669  11.314  1.5713 -0.7208 -0.8966
  708MOL0     H97661   4.550   0.815  11.257  1.6086 -1.2033 -0.2881
  708MOL0     H97662   4.681   0.953  11.262  0.5523 -1.1756 -0.4463
  708MOL0     H97663   4.783   1.121  11.178  0.1102  0.9819  0.3974
  708MOL0     H97664   4.970   1.125  11.189  1.3021 -0.1038  4.7188
  708MOL0     H97665   4.864   1.220  11.296 -0.5952  2.5856 -2.2579
  708MOL0     H97666   5.046   1.339  11.280 -0.4538  1.3799 -1.3593
  708MOL0     H97667   5.163   1.542  11.195 -2.1143 -0.5912  0.9062
  708MOL0     H97668   5.368   1.664  11.327  0.5791  0.6170  1.3126
  708MOL0     H97669   5.537   1.615  11.319  0.4696  0.7252 -0.7175
  708MOL0     H97670   5.518   1.750  11.088 -0.8417 -2.2616  0.0758
  708MOL0     H97671   5.396   1.840  11.185  0.7914  0.2699  2.1286
  708MOL0     H97672   5.601   1.827  11.365  4.6689 -1.5269 -0.3803
  708MOL0     H97673   5.575   1.967  11.247 -0.8274  0.3512  0.1930
  708MOL0     H97674   5.741   1.861  11.093  0.1413  0.7103  1.2037
  708MOL0     H97675   5.754   1.719  11.195  0.3461  0.3287  1.7918
  708MOL0     H97676   5.822   2.002  11.273  3.1352 -0.6946  0.5707
  708MOL0     H97677   5.819   1.869  11.387  0.8243 -1.7206 -0.8508
  708MOL0     H97678   5.986   1.868  11.129 -0.5355 -2.6448 -0.1394
  708MOL0     H97679   5.991   1.756  11.270  0.3864 -0.0245 -1.4812
  708MOL0     H97680   6.046   1.931  11.421 -0.4049  0.4645 -0.2680
  708MOL0     H97681   6.059   2.056  11.288  1.1623  0.5592  0.3624
  708MOL0     H97682   6.228   1.908  11.171 -0.5758  1.5966 -0.3823
  708MOL0     H97683   6.252   1.815  11.322  0.0607  0.1193 -2.4427
  708MOL0     H97684   5.541   1.330  11.212  0.1329 -1.5516 -0.9613
  708MOL0     H97685   5.412   1.134  11.318  0.9725 -0.1331 -0.2302
  708MOL0     H97686   5.045   0.847  11.578  2.3326  1.6015 -1.4761
  708MOL0     H97687   4.823   0.732  11.601 -1.9941 -0.4652 -1.3783
  708MOL0     H97688   2.824   1.180  11.761 -0.6066 -1.4559 -0.1329
  708MOL0     H97689   2.637   1.140  11.620  2.9550 -2.6168  2.3292
  708MOL0     H97690   2.454   1.167  11.030 -0.4404 -1.5995  0.9190
  708MOL0     H97691   2.251   1.159  10.949 -0.4879  0.5932 -0.9454
  708MOL0     H97692   1.993   1.412  11.097 -2.0271  0.1186  0.4347
  708MOL0     H97693   1.894   1.304  10.997  1.0448 -2.8177 -1.2639
  708MOL0     H97694   1.871   1.260  11.303 -2.3582 -0.1978  1.8307
  708MOL0     H97695   1.765   1.213  11.173  0.3090  0.7592 -1.4308
  708MOL0     H97696   1.698   1.467  11.153  0.6921 -0.5219 -0.1416
  708MOL0     H97697   1.649   1.356  11.281  1.5454  0.3004  3.7341
  708MOL0     H97698   1.902   1.525  11.336  0.8051 -1.3917  4.0708
  708MOL0     H97699   1.778   1.476  11.445  0.3422  0.4571  1.0236
  708MOL0     H97700   1.594   1.829  11.290 -2.8047 -1.3928  0.8654
  708MOL0     H97701   2.094   1.277  11.335 -0.8176  2.6681 -0.7623
  708MOL0     H97702   2.381   1.375  11.490 -1.9496  1.7184  1.7145
  708MOL0     H97703   2.216   1.309  11.511  0.3372 -2.9456  2.2965
  708MOL0     H97704   2.334   1.205  11.535 -0.0970 -2.2112 -2.7909
  709MOL0     O97705   9.962   8.951   7.979 -0.0013  0.2550  0.5743
  709MOL0     C97706   9.928   9.034   8.064  0.9874 -0.5292  0.3062
  709MOL0     O97707  10.014   9.126   8.123 -0.0080  0.5027 -0.2268
  709MOL0     C97708  10.153   9.125   8.104  0.1398 -0.4408  0.0000
  709MOL0     C97709  10.226   9.242   8.125  0.5962 -0.1874  0.3595
  709MOL0     C97710  10.361   9.242   8.122  0.0596  0.5671 -0.4498
  709MOL0     C97711  10.433   9.127   8.072 -0.1417  0.0597 -0.4792
  709MOL0     O97712  10.570   9.154   8.070  0.0998 -0.1004 -0.3079
  709MOL0     C97713  10.651   9.037   8.057 -0.4460 -0.3561  0.7725
  709MOL0     C97714  10.680   9.005   7.910  0.6777 -0.5822  0.9261
  709MOL0     C97715  10.794   8.900   7.891 -0.1008 -0.2519 -0.6768
  709MOL0     C97716  10.767   8.771   7.968  0.7114 -0.9549  0.4930
  709MOL0     C97717  10.813   8.646   7.906 -0.3348 -1.1285 -0.3218
  709MOL0     C97718  10.752   8.520   7.973  0.5162  0.2696 -0.7754
  709MOL0     C97719  10.802   8.390   7.911 -0.1395 -0.4584 -0.0997
  709MOL0     C97720  10.748   8.368   7.775  0.5670 -0.3247  0.0778
  709MOL0     N97721  10.839   8.320   7.678  0.1257  0.1634  0.2356
  709MOL0     C97722  10.942   8.384   7.622 -1.6017  0.1469 -0.8423
  709MOL0     C97723  11.024   8.286   7.574  0.8057  0.5758  0.3709
  709MOL0     C97724  11.157   8.305   7.502  0.5640  0.3936  0.5578
  709MOL0     C97725  11.264   8.296   7.608  0.8158  0.3534 -0.1186
  709MOL0     C97726  11.390   8.292   7.535 -0.2141  1.2050 -0.4591
  709MOL0     C97727  11.515   8.285   7.621 -0.6384  0.0826 -0.3907
  709MOL0     O97728  11.575   8.152   7.622  0.1601 -1.0192  0.7602
  709MOL0     C97729  11.702   8.131   7.667  0.7388  0.4508 -0.5698
  709MOL0     C97730  11.732   7.998   7.690 -0.3832 -0.0173  0.2818
  709MOL0     C97731  11.859   7.965   7.735  0.5404  0.0575 -0.2774
  709MOL0     C97732  11.866   7.815   7.766 -0.4855  0.7346 -0.0942
  709MOL0     C97733  11.962   8.062   7.744  0.6382  1.5811 -1.1249
  709MOL0     C97734  12.100   8.034   7.800  0.1378 -0.2056 -1.0572
  709MOL0     O97735  12.154   8.126   7.889 -0.0968 -0.6410  0.6871
  709MOL0     C97736  12.251   8.083   7.978  0.2106 -0.4305  1.1575
  709MOL0     C97737  12.218   8.029   8.104 -0.1217  0.4158  1.2442
  709MOL0     C97738  12.310   7.986   8.198 -0.3343 -1.0761  0.0616
  709MOL0     C97739  12.446   7.997   8.171  0.0003  0.0318  0.3647
  709MOL0     O97740  12.529   7.962   8.278  0.2556 -0.0383  0.3010
  709MOL0     C97741  12.664   8.004   8.288 -0.2791  0.8539  0.7021
  709MOL0     C97742  12.741   7.891   8.208  0.8310  0.2000 -0.0332
  709MOL0     C97743  12.887   7.928   8.184  0.2613 -0.3505  1.1616
  709MOL0     C97744  12.988   7.926   8.294 -0.3526  0.1481  0.3139
  709MOL0     C97745  13.037   7.787   8.321 -0.1475  0.1672  0.7967
  709MOL0     C97746  13.159   7.788   8.417  0.1242 -0.0528 -0.0099
  709MOL0     C97747  13.113   7.819   8.563  0.0872  0.0001 -0.0834
  709MOL0     C97748  13.231   7.886   8.644  1.2980  0.0424 -0.0287
  709MOL0    Cl97749  13.365   7.776   8.674 -0.1288  0.1937  0.0094
  709MOL0     C97750  12.488   8.062   8.051 -0.5388 -0.2312  0.3458
  709MOL0     C97751  12.393   8.102   7.957  0.2831  0.0323  0.2095
  709MOL0     O97752  12.151   7.929   7.769 -0.3678 -0.1235  0.4668
  709MOL0     C97753  11.924   8.192   7.718 -0.0837 -0.0425  0.3936
  709MOL0     C97754  11.794   8.229   7.679  1.3941  0.1035 -0.7641
  709MOL0     N97755  10.984   8.166   7.614  0.0522 -0.2989  0.0497
  709MOL0     N97756  10.870   8.189   7.675 -0.4260 -1.0195  0.0327
  709MOL0     C97757  10.365   9.008   8.053 -0.8807 -1.0444 -0.8740
  709MOL0     C97758  10.230   9.007   8.082  0.8432 -0.5841  1.3633
  709MOL0     C97759   9.786   9.032   8.124  0.6399 -0.8345  0.3302
  709MOL0     C97760   9.760   9.064   8.263  0.1084 -0.1729 -0.4974
  709MOL0     C97761   9.630   9.051   8.310 -0.6633 -1.1203  0.2655
  709MOL0     C97762   9.523   9.028   8.223 -0.1283 -0.1805 -0.0631
  709MOL0     O97763   9.393   9.024   8.269  0.3806  0.1650  0.4528
  709MOL0     C97764   9.387   8.958   8.394  0.2014  0.2756  0.3231
  709MOL0     C97765   9.246   8.912   8.418 -1.0773  0.3235 -0.5749
  709MOL0     C97766   9.162   9.033   8.451 -0.3395 -0.0344  0.0362
  709MOL0     C97767   9.011   9.007   8.447  0.6431  0.4064  0.1520
  709MOL0     C97768   8.966   8.915   8.547  0.2662  0.3543 -0.3010
  709MOL0     C97769   8.923   8.847   8.639  0.6857  0.1200  0.3224
  709MOL0     C97770   9.553   8.999   8.094  0.9099  0.1129  0.2357
  709MOL0     C97771   9.682   9.001   8.041  0.5195  0.0093  0.2469
  709MOL0     C97772   9.697   8.984   7.893  0.2895 -0.0134 -0.4213
  709MOL0     H97773  10.175   9.334   8.152 -0.5515 -1.2718  2.0893
  709MOL0     H97774  10.411   9.336   8.138  0.5294  0.1228  0.8078
  709MOL0     H97775  10.613   8.950   8.111 -0.5572  0.6228  2.3119
  709MOL0     H97776  10.748   9.059   8.102 -0.3677  1.5744 -0.2219
  709MOL0     H97777  10.589   8.968   7.861  0.8508  0.4155 -0.1781
  709MOL0     H97778  10.696   9.099   7.856  0.5646  0.0845  2.0272
  709MOL0     H97779  10.807   8.877   7.785 -0.7482  0.7664 -1.0006
  709MOL0     H97780  10.887   8.946   7.924  1.4478 -1.5280 -3.0050
  709MOL0     H97781  10.792   8.769   8.074  0.7376 -1.9383  0.4749
  709MOL0     H97782  10.659   8.758   7.956  0.3231  2.3917 -0.6768
  709MOL0     H97783  10.921   8.642   7.923 -0.0795 -0.3770 -1.6077
  709MOL0     H97784  10.784   8.642   7.800 -0.0946 -1.5250 -0.3775
  709MOL0     H97785  10.784   8.498   8.075 -0.8361 -0.1295 -0.4274
  709MOL0     H97786  10.644   8.526   7.965  0.4731 -1.4198 -2.1365
  709MOL0     H97787  10.779   8.304   7.975  2.1686 -0.5586  0.6956
  709MOL0     H97788  10.911   8.398   7.912  0.1635 -3.3585 -0.0816
  709MOL0     H97789  10.671   8.292   7.791  1.9404 -1.3925  2.1423
  709MOL0     H97790  10.713   8.465   7.740  0.4578  1.0031  3.4781
  709MOL0     H97791  10.946   8.492   7.618  2.5481  0.4894  3.4376
  709MOL0     H97792  11.155   8.407   7.461 -1.2655  1.7596  3.6537
  709MOL0     H97793  11.176   8.228   7.427 -2.1069 -0.1939  0.3888
  709MOL0     H97794  11.264   8.376   7.682 -2.8762  1.2585 -0.8952
  709MOL0     H97795  11.257   8.210   7.675  0.5023  0.7955  0.4290
  709MOL0     H97796  11.386   8.203   7.471 -1.2268  0.0617  1.1111
  709MOL0     H97797  11.395   8.375   7.465  2.2535  0.0394 -1.7715
  709MOL0     H97798  11.587   8.352   7.573 -1.0210 -0.3231 -1.5653
  709MOL0     H97799  11.473   8.311   7.719 -1.5721 -0.0594 -0.7374
  709MOL0     H97800  11.651   7.928   7.674 -0.2440 -0.1975  0.3711
  709MOL0     H97801  11.905   7.757   7.682  2.9477  1.7620  0.6352
  709MOL0     H97802  11.765   7.780   7.788 -0.8098  1.8793  0.3250
  709MOL0     H97803  11.921   7.804   7.860  0.8022  2.1822 -0.6325
  709MOL0     H97804  12.113   8.004   8.117  0.0622 -1.3075 -0.1510
  709MOL0     H97805  12.289   7.937   8.293  2.4032 -0.5304  1.0695
  709MOL0     H97806  12.670   8.103   8.241  0.8790 -0.2008 -1.5586
  709MOL0     H97807  12.702   8.009   8.390  2.0816  4.4216 -0.1556
  709MOL0     H97808  12.729   7.795   8.258  1.6553 -0.4115 -0.9754
  709MOL0     H97809  12.697   7.869   8.110 -0.3275 -0.6576  0.6638
  709MOL0     H97810  12.901   8.031   8.151  0.7936 -0.3857  1.2710
  709MOL0     H97811  12.914   7.857   8.106  1.4348 -2.1609  3.1023
  709MOL0     H97812  12.934   7.963   8.382 -1.2013  0.2975 -0.2604
  709MOL0     H97813  13.076   7.987   8.271 -1.3068  0.8450 -1.7736
  709MOL0     H97814  12.950   7.730   8.357  0.2250 -0.0873  1.3039
  709MOL0     H97815  13.063   7.742   8.225  1.2021 -1.2521  1.7711
  709MOL0     H97816  13.232   7.861   8.380  1.2933  0.1472  2.5087
  709MOL0     H97817  13.209   7.691   8.406  2.7446  1.3605 -1.9557
  709MOL0     H97818  13.073   7.726   8.605 -1.2258  0.9445  0.8387
  709MOL0     H97819  13.022   7.879   8.553  0.2138 -0.0399 -1.8270
  709MOL0     H97820  13.199   7.936   8.736  2.7493  1.2920 -0.1540
  709MOL0     H97821  13.261   7.966   8.576 -3.3593  0.7413 -1.6590
  709MOL0     H97822  12.596   8.062   8.037 -0.6152  3.9599 -1.7737
  709MOL0     H97823  12.425   8.146   7.863 -3.7802  0.3723 -1.2420
  709MOL0     H97824  11.998   8.271   7.718  0.1374 -0.2438  0.9011
  709MOL0     H97825  11.778   8.334   7.653 -1.9333 -0.4450 -1.4572
  709MOL0     H97826  10.420   8.923   8.014 -0.3338 -1.6758  1.1236
  709MOL0     H97827  10.175   8.915   8.065  1.3938 -0.2928 -2.9484
  709MOL0     H97828   9.849   9.085   8.322  0.8098  4.9333 -2.7990
  709MOL0     H97829   9.613   9.060   8.417  2.7733  0.3443  0.8452
  709MOL0     H97830   9.450   8.868   8.392 -1.0067 -0.5874 -0.9142
  709MOL0     H97831   9.424   9.028   8.470  0.0063 -0.3924  1.0408
  709MOL0     H97832   9.241   8.841   8.501 -1.8174 -0.7870 -1.5398
  709MOL0     H97833   9.204   8.854   8.336 -1.1432 -0.1355 -0.2190
  709MOL0     H97834   9.195   9.079   8.545 -0.4586  0.1660 -0.0177
  709MOL0     H97835   9.186   9.109   8.376  3.7631 -0.1588  1.0050
  709MOL0     H97836   8.983   8.956   8.354 -0.7464  1.5423 -0.0850
  709MOL0     H97837   8.947   9.095   8.458 -0.1911 -0.0511 -0.8362
  709MOL0     H97838   8.888   8.782   8.717 -0.2070 -2.0649 -1.7859
  709MOL0     H97839   9.481   8.981   8.014  1.6853  0.7821 -0.6376
  709MOL0     H97840   9.741   9.078   7.859  0.6880  0.7652  2.0803
  709MOL0     H97841   9.755   8.895   7.866  1.3464  0.6507 -0.3756
  709MOL0     H97842   9.601   8.978   7.841 -0.6537 -1.3123  1.3920
  710MOL0     O97843   2.116   4.112   2.134  0.3199 -0.1755 -0.4055
  710MOL0     C97844   2.115   4.179   2.237 -0.6602 -0.3793  0.4820
  710MOL0     O97845   2.225   4.249   2.277  0.1598 -0.5249 -0.3617
  710MOL0     C97846   2.348   4.230   2.211  0.0691  0.5635  0.0576
  710MOL0     C97847   2.373   4.185   2.076  0.8435 -0.9926 -0.1643
  710MOL0     C97848   2.511   4.165   2.033 -1.0339  0.8994  0.1601
  710MOL0     C97849   2.612   4.159   2.125  0.1931  0.7592 -0.8748
  710MOL0     O97850   2.742   4.114   2.094 -0.2988  0.6464 -0.0864
  710MOL0     C97851   2.760   3.970   2.084  0.9560  0.5946 -0.2344
  710MOL0     C97852   2.876   3.916   1.998  0.1642  0.6197 -0.3135
  710MOL0     C97853   3.007   3.990   2.034  0.0344  1.1082  0.2712
  710MOL0     C97854   3.113   3.949   1.938  0.1200  0.7329 -0.3669
  710MOL0     C97855   3.255   3.935   2.013  0.1219  0.6170 -0.0548
  710MOL0     C97856   3.355   3.921   1.899 -0.3798  0.0288 -0.6481
  710MOL0     C97857   3.484   3.859   1.948 -0.1731  0.4511 -0.3566
  710MOL0     C97858   3.596   3.891   1.848 -0.3025  0.1926  0.4612
  710MOL0     N97859   3.738   3.855   1.860 -0.8023 -0.5836 -0.7314
  710MOL0     C97860   3.794   3.734   1.822 -0.3630 -0.3439 -0.0887
  710MOL0     C97861   3.931   3.761   1.813 -0.9608 -1.7455  0.0074
  710MOL0     C97862   4.047   3.673   1.766  0.0231 -0.7362  1.2139
  710MOL0     C97863   4.180   3.757   1.752  0.4431 -0.7303  0.5133
  710MOL0     C97864   4.294   3.673   1.698  0.1729 -0.1654  0.0501
  710MOL0     C97865   4.402   3.760   1.629  0.3425  0.7455 -0.4846
  710MOL0     O97866   4.510   3.693   1.562 -0.2407 -0.1174  0.4422
  710MOL0     C97867   4.619   3.637   1.626  0.1785 -1.0155  0.1233
  710MOL0     C97868   4.724   3.598   1.538  0.3770  0.2208  0.2948
  710MOL0     C97869   4.847   3.546   1.583 -0.3909 -1.2065  0.7280
  710MOL0     C97870   4.953   3.509   1.481 -0.2537  0.0668 -1.0480
  710MOL0     C97871   4.865   3.529   1.727  0.0816 -0.7663  0.3533
  710MOL0     C97872   4.982   3.472   1.787  0.1232  0.5200 -1.3167
  710MOL0     O97873   5.098   3.473   1.722  0.5227  0.3110  0.2171
  710MOL0     C97874   5.217   3.440   1.784  0.2609  0.2418  0.3373
  710MOL0     C97875   5.252   3.485   1.909 -0.8016  0.0991  0.5235
  710MOL0     C97876   5.373   3.461   1.974  0.9264  0.1896 -0.1133
  710MOL0     C97877   5.471   3.378   1.911  0.8592  0.5270  0.9998
  710MOL0     O97878   5.597   3.371   1.955  0.6516  0.7635  0.3361
  710MOL0     C97879   5.622   3.400   2.094 -0.6759 -0.2747 -0.5815
  710MOL0     C97880   5.553   3.304   2.193  0.6556 -0.0133 -1.0254
  710MOL0     C97881   5.607   3.165   2.189  0.2148  0.5666  0.4142
  710MOL0     C97882   5.507   3.060   2.112 -0.3991  0.5238 -0.1175
  710MOL0     C97883   5.545   2.918   2.150 -0.5227  1.2437  0.2656
  710MOL0     C97884   5.477   2.802   2.077  0.1561 -0.1501  1.5725
  710MOL0     C97885   5.451   2.836   1.928 -0.1098 -0.0340 -0.1054
  710MOL0     C97886   5.409   2.722   1.836 -0.0005 -0.3671  0.2241
  710MOL0    Cl97887   5.525   2.593   1.845 -0.0754 -0.0576  0.1094
  710MOL0     C97888   5.445   3.322   1.787  0.3485 -0.1950  0.1090
  710MOL0     C97889   5.316   3.349   1.730 -0.1893 -1.1858  0.1403
  710MOL0     O97890   4.969   3.444   1.907 -1.2531  0.1880 -0.3720
  710MOL0     C97891   4.758   3.582   1.813 -0.3768 -0.4408  0.2400
  710MOL0     C97892   4.644   3.630   1.763  0.5772 -0.1407  0.1776
  710MOL0     N97893   3.944   3.894   1.864 -0.6812  0.5484 -0.3855
  710MOL0     N97894   3.830   3.946   1.893  0.5446  0.4816 -0.8112
  710MOL0     C97895   2.587   4.190   2.257 -0.6511 -0.8109 -0.2131
  710MOL0     C97896   2.463   4.232   2.294  0.2832 -0.5086 -0.2255
  710MOL0     C97897   2.000   4.176   2.333  0.3780  0.4147  0.1991
  710MOL0     C97898   2.020   4.233   2.467 -0.0896 -0.0194  0.0647
  710MOL0     C97899   1.925   4.214   2.571  0.2472 -0.4907  0.1022
  710MOL0     C97900   1.803   4.159   2.534  0.1271 -0.2913 -0.0945
  710MOL0     O97901   1.701   4.140   2.622  0.4317 -0.1850  0.0176
  710MOL0     C97902   1.701   4.205   2.751 -0.3789 -0.6769  0.0391
  710MOL0     C97903   1.745   4.104   2.859 -0.5857  0.0041 -0.9015
  710MOL0     C97904   1.646   3.985   2.877  0.0817 -0.2031  0.0899
  710MOL0     C97905   1.513   4.035   2.924  0.2780  0.0495  1.1006
  710MOL0     C97906   1.421   3.926   2.950 -0.2659  0.2975  0.1883
  710MOL0     C97907   1.357   3.827   2.966  0.6253  0.6522  0.3465
  710MOL0     C97908   1.776   4.124   2.403  0.2276 -0.2184 -0.5240
  710MOL0     C97909   1.871   4.118   2.300  0.1074  0.6643  0.1796
  710MOL0     C97910   1.816   4.069   2.160  0.0348 -0.5857  0.7586
  710MOL0     H97911   2.298   4.195   1.999  2.1627  1.7927 -1.2499
  710MOL0     H97912   2.537   4.144   1.930 -1.3255  2.2635 -0.2031
  710MOL0     H97913   2.670   3.916   2.053 -0.1571  1.5475  1.1780
  710MOL0     H97914   2.778   3.954   2.191  1.7509 -1.1287 -0.5974
  710MOL0     H97915   2.884   3.807   2.007  0.5967  0.5213 -1.5828
  710MOL0     H97916   2.848   3.925   1.893 -0.0276 -1.2344 -0.4579
  710MOL0     H97917   3.000   4.099   2.025  0.3462  0.9923 -1.8349
  710MOL0     H97918   3.040   3.960   2.134 -0.2569 -0.5352 -0.1082
  710MOL0     H97919   3.086   3.859   1.882  0.5897  1.5556 -1.9927
  710MOL0     H97920   3.119   4.027   1.861 -0.5601  1.5109  0.3567
  710MOL0     H97921   3.248   3.848   2.079  0.9996  0.7023  0.1651
  710MOL0     H97922   3.274   4.028   2.068 -0.0623  0.4782  0.2481
  710MOL0     H97923   3.317   3.863   1.814 -0.1671 -0.5837 -0.3318
  710MOL0     H97924   3.371   4.024   1.866  1.1728 -0.5709 -1.8874
  710MOL0     H97925   3.476   3.754   1.977 -0.7668  0.6369  0.1871
  710MOL0     H97926   3.509   3.911   2.041  0.8748 -0.1805 -0.2751
  710MOL0     H97927   3.559   3.865   1.748  0.9714  1.6365 -0.4220
  710MOL0     H97928   3.604   4.000   1.848 -0.6642  0.2243 -0.3967
  710MOL0     H97929   3.743   3.643   1.793 -0.6772 -0.6558  1.3497
  710MOL0     H97930   4.005   3.635   1.673  0.0140 -0.0913  0.9495
  710MOL0     H97931   4.055   3.586   1.832  0.4948 -2.8190 -1.4046
  710MOL0     H97932   4.167   3.841   1.683  2.0181 -0.5958  0.3429
  710MOL0     H97933   4.202   3.798   1.851  1.8374 -0.5225  0.1429
  710MOL0     H97934   4.335   3.612   1.780 -0.0904  1.5778  1.5295
  710MOL0     H97935   4.257   3.614   1.614  1.0342 -0.8847  0.1453
  710MOL0     H97936   4.367   3.826   1.549  0.7377  1.1017 -0.3647
  710MOL0     H97937   4.440   3.821   1.711 -1.9683 -0.6551  1.7608
  710MOL0     H97938   4.711   3.592   1.430 -1.6319  0.4199  0.4868
  710MOL0     H97939   5.002   3.413   1.500 -0.7262  0.4359  2.8840
  710MOL0     H97940   5.022   3.594   1.483 -0.2746  0.2377  3.7505
  710MOL0     H97941   4.905   3.505   1.383 -0.9425 -0.7468 -0.6899
  710MOL0     H97942   5.196   3.559   1.967  1.9701  0.5341  2.9048
  710MOL0     H97943   5.392   3.516   2.065  0.8826  0.5080 -0.2956
  710MOL0     H97944   5.729   3.379   2.101  0.1828  3.5893 -0.1032
  710MOL0     H97945   5.604   3.501   2.131 -2.6153 -1.2491  1.3940
  710MOL0     H97946   5.556   3.346   2.294  2.4232 -0.2860 -0.9271
  710MOL0     H97947   5.448   3.302   2.161  1.5897  0.0137 -4.5985
  710MOL0     H97948   5.617   3.133   2.293 -1.2391  2.1737  1.0950
  710MOL0     H97949   5.707   3.160   2.144  0.8205 -1.7174  1.8510
  710MOL0     H97950   5.520   3.097   2.010  4.2338 -1.7730 -0.6377
  710MOL0     H97951   5.403   3.079   2.138  0.2800  3.6723  0.8640
  710MOL0     H97952   5.653   2.911   2.133 -0.5602 -0.0117  0.5024
  710MOL0     H97953   5.538   2.896   2.257 -1.6798  0.8669  0.1216
  710MOL0     H97954   5.387   2.777   2.134 -0.6540 -0.0803  0.3817
  710MOL0     H97955   5.544   2.716   2.069  1.1785  0.7943 -0.8945
  710MOL0     H97956   5.547   2.872   1.889  1.3710 -2.4470  1.0175
  710MOL0     H97957   5.372   2.911   1.924 -0.4642 -0.3781  0.2529
  710MOL0     H97958   5.394   2.761   1.735  0.9283 -1.8367 -0.5210
  710MOL0     H97959   5.315   2.682   1.875  0.5962 -0.6182  1.4285
  710MOL0     H97960   5.526   3.262   1.747 -0.3088 -2.3413  1.8153
  710MOL0     H97961   5.299   3.319   1.628 -0.6705  2.0651 -0.8609
  710MOL0     H97962   4.772   3.583   1.920 -0.9365 -0.7754  0.3144
  710MOL0     H97963   4.569   3.675   1.827  1.1481  2.2624 -0.7490
  710MOL0     H97964   2.665   4.171   2.330  0.0617  0.3712 -0.6558
  710MOL0     H97965   2.426   4.250   2.394  0.5328 -0.6616 -0.1042
  710MOL0     H97966   2.115   4.281   2.487  0.0825 -0.6971  0.9723
  710MOL0     H97967   1.963   4.246   2.668  2.8507 -3.0810  0.0830
  710MOL0     H97968   1.767   4.292   2.761  0.5726 -1.4205  0.4456
  710MOL0     H97969   1.601   4.249   2.757 -0.7506 -1.3654 -0.9842
  710MOL0     H97970   1.754   4.162   2.952  1.3076  0.9663 -1.6308
  710MOL0     H97971   1.851   4.079   2.850  0.4402  2.5855  1.9344
  710MOL0     H97972   1.628   3.933   2.783 -3.1977  0.3870  0.2712
  710MOL0     H97973   1.688   3.919   2.953  0.4469 -0.8644 -0.6778
  710MOL0     H97974   1.466   4.085   2.838  2.5131 -1.7857 -1.3620
  710MOL0     H97975   1.524   4.101   3.011 -1.7245 -0.5003  1.8229
  710MOL0     H97976   1.314   3.729   2.972  2.2433 -0.5096 -3.6974
  710MOL0     H97977   1.677   4.084   2.385  0.2796 -0.6928  0.2038
  710MOL0     H97978   1.829   3.963   2.138 -2.5028 -1.0113  0.9693
  710MOL0     H97979   1.709   4.091   2.163 -0.2966 -1.7284 -1.0217
  710MOL0     H97980   1.861   4.128   2.079 -2.8019  0.3338 -0.2647
  711MOL0     O97981  10.928   0.436   3.958  0.5478  0.2164 -0.4256
  711MOL0     C97982  10.905   0.501   4.062 -0.2900 -0.0663 -0.3761
  711MOL0     O97983  10.979   0.604   4.115 -0.1299  0.1312  0.0130
  711MOL0     C97984  11.090   0.649   4.048  0.0530 -0.3087  0.2574
  711MOL0     C97985  11.181   0.566   3.989 -0.6049  0.5785  0.2798
  711MOL0     C97986  11.302   0.613   3.928 -0.0130  0.5730 -0.5012
  711MOL0     C97987  11.327   0.747   3.921  0.0893  0.2264  0.8083
  711MOL0     O97988  11.433   0.793   3.843  0.8400 -0.7365  0.3819
  711MOL0     C97989  11.530   0.709   3.777  0.6874 -0.3044  0.2090
  711MOL0     C97990  11.623   0.799   3.705  0.7329 -0.7951  0.1884
  711MOL0     C97991  11.678   0.910   3.793 -0.1281  0.0642  0.7897
  711MOL0     C97992  11.767   1.011   3.709  0.6253  0.2579 -0.3748
  711MOL0     C97993  11.882   0.945   3.643  0.4960  0.1419 -0.2813
  711MOL0     C97994  11.956   1.046   3.554  0.4380 -0.3053 -0.3791
  711MOL0     C97995  12.099   0.994   3.528  0.3884 -0.3371  0.0252
  711MOL0     C97996  12.184   1.089   3.431  0.1598 -0.1519 -0.0389
  711MOL0     N97997  12.256   1.000   3.340  0.3474  0.6912 -0.1119
  711MOL0     C97998  12.196   0.906   3.250 -0.1622 -0.0147 -0.5070
  711MOL0     C97999  12.297   0.833   3.211  0.2808  0.3535 -0.5272
  711MOL0     C98000  12.263   0.700   3.142  0.2685  0.3179 -0.4307
  711MOL0     C98001  12.278   0.721   2.989  0.2193 -0.0374  0.2997
  711MOL0     C98002  12.152   0.772   2.914  0.2675  0.0743 -0.3600
  711MOL0     C98003  12.030   0.679   2.938  0.1009 -1.0085  0.0074
  711MOL0     O98004  11.910   0.747   2.873 -0.1314  0.7361 -0.3567
  711MOL0     C98005  11.796   0.668   2.871  0.2019 -0.1492  0.0503
  711MOL0     C98006  11.787   0.532   2.908  0.7894  0.0672  0.2071
  711MOL0     C98007  11.663   0.465   2.890 -0.6333  0.7880 -0.2418
  711MOL0     C98008  11.648   0.328   2.963 -0.6210  0.0137 -0.4996
  711MOL0     C98009  11.556   0.536   2.828  0.7207 -0.7574  0.5373
  711MOL0     C98010  11.417   0.490   2.812 -0.8191 -0.0187  0.2603
  711MOL0     O98011  11.338   0.569   2.714  0.3524 -0.0294  0.3816
  711MOL0     C98012  11.203   0.554   2.740  0.3835  0.2788 -0.3258
  711MOL0     C98013  11.160   0.658   2.832  0.2733  0.3168  0.4786
  711MOL0     C98014  11.024   0.674   2.871  0.3807  1.4494  0.6967
  711MOL0     C98015  10.933   0.589   2.808 -0.8459 -0.4883  1.2430
  711MOL0     O98016  10.801   0.583   2.827  0.0884 -0.6199  0.4838
  711MOL0     C98017  10.727   0.706   2.852  0.2355  0.2771  0.3728
  711MOL0     C98018  10.591   0.713   2.793  0.9905  0.7740 -0.0412
  711MOL0     C98019  10.491   0.604   2.846 -0.2763  0.1420  0.0325
  711MOL0     C98020  10.348   0.663   2.837 -0.2105  0.4136  0.0343
  711MOL0     C98021  10.245   0.547   2.820 -0.4078  0.2222  0.0469
  711MOL0     C98022  10.110   0.614   2.795  0.7118 -1.3411 -0.2092
  711MOL0     C98023   9.992   0.521   2.831  0.3002  0.8718  0.0261
  711MOL0     C98024   9.983   0.404   2.736  0.3454 -0.5822  0.1700
  711MOL0    Cl98025   9.869   0.280   2.781 -0.0344 -0.2451 -0.5014
  711MOL0     C98026  10.975   0.482   2.726 -0.3563  0.5716 -0.4006
  711MOL0     C98027  11.108   0.457   2.699  0.2091  0.2335  0.4738
  711MOL0     O98028  11.372   0.407   2.888 -0.1026  0.5675  0.0245
  711MOL0     C98029  11.578   0.673   2.783  0.6003 -0.2457  0.1497
  711MOL0     C98030  11.697   0.734   2.807 -0.3936  0.1220 -1.0537
  711MOL0     N98031  12.419   0.883   3.251  0.2210 -0.2521 -0.3775
  711MOL0     N98032  12.389   0.986   3.323  0.0056 -0.6594 -0.2064
  711MOL0     C98033  11.237   0.833   3.979 -0.0470  0.2464 -0.1439
  711MOL0     C98034  11.119   0.789   4.041 -0.6057 -0.3506  0.2970
  711MOL0     C98035  10.784   0.476   4.153  0.2056  0.2016  0.6735
  711MOL0     C98036  10.751   0.567   4.257 -0.3368 -0.5866  0.2881
  711MOL0     C98037  10.638   0.550   4.350 -0.5627  0.0534  0.3364
  711MOL0     C98038  10.558   0.439   4.324  0.0684  0.2453  0.6586
  711MOL0     O98039  10.462   0.433   4.417 -0.0638  0.2058 -0.2848
  711MOL0     C98040  10.397   0.307   4.441  0.6785  0.2040  0.7353
  711MOL0     C98041  10.271   0.277   4.358  0.3792  0.5601  0.6061
  711MOL0     C98042  10.195   0.141   4.378 -0.6573 -0.0361 -0.1306
  711MOL0     C98043  10.276   0.020   4.331 -0.3888 -0.1639  0.4556
  711MOL0     C98044  10.316   0.024   4.190 -0.2369 -1.0706 -0.7862
  711MOL0     C98045  10.367   0.036   4.079 -0.1875  0.9623  0.4331
  711MOL0     C98046  10.589   0.350   4.222  0.6385 -0.5179  0.1883
  711MOL0     C98047  10.702   0.366   4.142  0.5706 -0.3798 -0.1084
  711MOL0     C98048  10.721   0.261   4.030 -0.8532  0.2890 -0.4889
  711MOL0     H98049  11.178   0.457   3.986  2.0260  0.4704 -0.1609
  711MOL0     H98050  11.364   0.538   3.879 -0.1512 -0.9072  1.4981
  711MOL0     H98051  11.488   0.634   3.710 -1.1093  0.7490  0.0929
  711MOL0     H98052  11.580   0.652   3.857  2.0578 -2.3642 -1.9798
  711MOL0     H98053  11.695   0.725   3.669  1.0752 -2.1969  3.3820
  711MOL0     H98054  11.566   0.840   3.622  3.5183 -1.1862 -2.0436
  711MOL0     H98055  11.601   0.958   3.854  0.3235 -0.3429  1.6912
  711MOL0     H98056  11.742   0.862   3.867 -0.0895 -1.2355 -0.0579
  711MOL0     H98057  11.705   1.050   3.628  0.5332  2.0800  0.5182
  711MOL0     H98058  11.809   1.093   3.768 -1.1434  1.7559 -1.0660
  711MOL0     H98059  11.845   0.859   3.587 -0.9784 -1.6963  3.2512
  711MOL0     H98060  11.953   0.910   3.718 -0.6236  1.2536  1.3668
  711MOL0     H98061  11.890   1.065   3.469  1.2394  2.6164 -0.4617
  711MOL0     H98062  11.961   1.145   3.600 -0.4346 -0.9363  1.1672
  711MOL0     H98063  12.083   0.896   3.482  5.4022 -1.2075 -0.4537
  711MOL0     H98064  12.153   0.983   3.622 -0.4739 -1.3332  0.4273
  711MOL0     H98065  12.128   1.162   3.371  0.5606  1.0614  1.0077
  711MOL0     H98066  12.252   1.146   3.494 -1.3953  1.2943  0.4091
  711MOL0     H98067  12.092   0.888   3.224 -0.6396 -2.9369  2.6900
  711MOL0     H98068  12.173   0.657   3.185  0.4096 -0.3766 -0.8147
  711MOL0     H98069  12.343   0.632   3.174  0.9854  1.0615 -0.6011
  711MOL0     H98070  12.355   0.790   2.954 -1.8369  1.3921 -1.6668
  711MOL0     H98071  12.293   0.624   2.942 -1.8023  1.0548 -2.8698
  711MOL0     H98072  12.113   0.866   2.953 -2.8851 -1.2632  0.0040
  711MOL0     H98073  12.167   0.783   2.807 -0.1198 -0.3285 -0.4605
  711MOL0     H98074  12.047   0.576   2.904  3.4607 -0.8246  0.7961
  711MOL0     H98075  12.003   0.674   3.044  0.2159  0.9634  0.1655
  711MOL0     H98076  11.866   0.484   2.965  1.7508  3.4057  1.9674
  711MOL0     H98077  11.742   0.274   2.981 -1.7393 -1.6307  0.7431
  711MOL0     H98078  11.584   0.256   2.912  0.7005 -1.6671  0.1259
  711MOL0     H98079  11.610   0.345   3.064  0.5801  0.4964 -0.1029
  711MOL0     H98080  11.226   0.735   2.871  0.9572  0.2079 -0.4422
  711MOL0     H98081  10.999   0.758   2.935 -0.2711  0.7077  1.4372
  711MOL0     H98082  10.720   0.729   2.959  0.4887 -0.3362  0.5248
  711MOL0     H98083  10.792   0.783   2.810 -0.1593  0.2653 -0.2716
  711MOL0     H98084  10.566   0.815   2.823 -0.8612  0.1664  0.6572
  711MOL0     H98085  10.589   0.708   2.683 -0.0166  1.3300 -0.0653
  711MOL0     H98086  10.505   0.593   2.954 -1.9782  0.1205  0.2766
  711MOL0     H98087  10.501   0.506   2.798 -1.3410  0.1995 -0.3254
  711MOL0     H98088  10.345   0.732   2.752  2.4641  2.0193  1.1210
  711MOL0     H98089  10.320   0.711   2.931 -0.4671 -2.8475  1.7451
  711MOL0     H98090  10.271   0.488   2.731  1.2439 -2.7524  2.3158
  711MOL0     H98091  10.241   0.485   2.910 -0.0654  0.4826  0.2417
  711MOL0     H98092  10.093   0.647   2.693  0.7363 -0.5294  0.0398
  711MOL0     H98093  10.101   0.702   2.860  1.5910 -0.8950 -0.6648
  711MOL0     H98094   9.902   0.583   2.828 -0.8566 -0.7602 -0.2643
  711MOL0     H98095  10.000   0.488   2.935 -0.1478 -0.6476 -0.3904
  711MOL0     H98096  10.082   0.358   2.727  0.2860 -0.8184  0.6729
  711MOL0     H98097   9.958   0.445   2.637 -0.3307  0.5700  0.7898
  711MOL0     H98098  10.902   0.423   2.671  0.3339  0.2600 -1.0003
  711MOL0     H98099  11.142   0.378   2.632  1.8532 -0.9624  2.5831
  711MOL0     H98100  11.502   0.739   2.741  1.9668  1.3586  0.0622
  711MOL0     H98101  11.720   0.835   2.774 -1.3592 -0.1420 -2.6652
  711MOL0     H98102  11.258   0.939   3.971 -1.2128  0.4524 -0.6412
  711MOL0     H98103  11.060   0.873   4.076 -0.0171  1.7124 -3.1756
  711MOL0     H98104  10.815   0.654   4.265 -1.2411  0.2225 -0.8811
  711MOL0     H98105  10.601   0.608   4.433  0.1194 -0.1637  0.7979
  711MOL0     H98106  10.475   0.232   4.428  2.8782  2.1621  2.0762
  711MOL0     H98107  10.367   0.291   4.545 -3.0765  0.3358 -0.1722
  711MOL0     H98108  10.289   0.287   4.251 -0.1814 -0.5370  0.3954
  711MOL0     H98109  10.207   0.362   4.381  1.5456  1.5940  0.1584
  711MOL0     H98110  10.187   0.119   4.485  1.4039 -0.2330  0.0350
  711MOL0     H98111  10.094   0.152   4.337 -0.7255  2.5067  0.5685
  711MOL0     H98112  10.219  -0.070   4.356 -1.6331  0.3211 -0.5442
  711MOL0     H98113  10.370   0.022   4.387  0.6051  2.0027 -1.1558
  711MOL0     H98114  10.410   0.045   3.982 -0.7533  0.1975  0.0984
  711MOL0     H98115  10.531   0.258   4.221 -0.0028 -0.1169 -0.3539
  711MOL0     H98116  10.733   0.314   3.935  0.8680 -0.6226 -0.8103
  711MOL0     H98117  10.809   0.198   4.044 -2.5220 -2.1171 -0.2367
  711MOL0     H98118  10.630   0.201   4.019 -1.3314  0.4468  1.9953
  712MOL0     O98119   5.928   2.452   2.709  0.6971  0.5029  0.5792
  712MOL0     C98120   5.882   2.497   2.809 -0.2513  0.4023 -0.2077
  712MOL0     O98121   5.953   2.573   2.897  0.6163  0.2531  0.1792
  712MOL0     C98122   6.086   2.573   2.878 -0.5272 -0.6291  0.2291
  712MOL0     C98123   6.155   2.694   2.852 -0.5844 -0.0250 -0.6430
  712MOL0     C98124   6.298   2.700   2.854 -0.3653 -0.0443  0.1458
  712MOL0     C98125   6.374   2.580   2.856 -0.1799 -0.2676 -0.2088
  712MOL0     O98126   6.513   2.599   2.838 -0.0949  0.1003  0.0023
  712MOL0     C98127   6.593   2.482   2.794  1.0833  0.5579  0.3073
  712MOL0     C98128   6.713   2.526   2.710  0.5236  0.2015 -0.4172
  712MOL0     C98129   6.831   2.567   2.796  0.4816 -0.0604  0.3048
  712MOL0     C98130   6.953   2.581   2.696  0.4158 -0.1082 -0.0922
  712MOL0     C98131   7.075   2.645   2.771 -0.0789  0.5271 -0.1005
  712MOL0     C98132   7.060   2.789   2.828  0.1501 -0.1389  0.2294
  712MOL0     C98133   7.055   2.891   2.708  0.2022 -0.3604 -0.2435
  712MOL0     C98134   7.023   3.027   2.769  0.0084  0.0650 -0.9459
  712MOL0     N98135   7.031   3.135   2.671 -0.3961  0.0353  0.2999
  712MOL0     C98136   6.958   3.257   2.684 -0.2248 -0.6207  0.8021
  712MOL0     C98137   6.965   3.317   2.560  0.0591  0.0164 -0.3892
  712MOL0     C98138   6.871   3.421   2.513  0.3993  0.3831 -0.0852
  712MOL0     C98139   6.761   3.384   2.410  0.2563 -0.2647 -0.2222
  712MOL0     C98140   6.655   3.494   2.407 -0.3579  0.0471  0.6760
  712MOL0     C98141   6.695   3.612   2.322  0.2591 -0.5657  0.5022
  712MOL0     O98142   6.716   3.563   2.183  0.4632  0.0480  0.1213
  712MOL0     C98143   6.787   3.661   2.111 -0.1285  0.5309 -0.8039
  712MOL0     C98144   6.901   3.629   2.043 -0.0914  0.0465 -0.6824
  712MOL0     C98145   6.983   3.732   1.982 -0.4633 -1.0068  1.5005
  712MOL0     C98146   7.119   3.687   1.917  0.6984  0.5036 -0.7310
  712MOL0     C98147   6.931   3.864   1.974  0.0916 -0.0063 -0.7363
  712MOL0     C98148   6.998   3.985   1.925 -0.7467  0.7735 -0.2658
  712MOL0     O98149   6.954   4.107   1.956 -0.2912 -0.8506  0.5972
  712MOL0     C98150   7.021   4.223   1.910 -1.0612 -0.8294  0.8069
  712MOL0     C98151   6.960   4.327   1.832  0.4584  0.0056  0.2276
  712MOL0     C98152   7.021   4.450   1.804 -0.1247 -0.4665  0.0552
  712MOL0     C98153   7.150   4.465   1.844  0.3703  0.0913  0.4711
  712MOL0     O98154   7.222   4.581   1.814  0.1816 -0.2434  0.3300
  712MOL0     C98155   7.146   4.700   1.769 -0.8103  0.1262  0.1589
  712MOL0     C98156   7.246   4.818   1.777  0.4616 -0.0844  0.3438
  712MOL0     C98157   7.371   4.793   1.691 -0.0826  0.2380 -0.0064
  712MOL0     C98158   7.473   4.898   1.709  0.0710 -0.4634  0.7992
  712MOL0     C98159   7.588   4.884   1.623 -0.6616 -0.2900 -0.0526
  712MOL0     C98160   7.691   4.984   1.665  1.2766  0.6918  0.1411
  712MOL0     C98161   7.827   4.929   1.619 -0.0194 -0.1687 -0.8149
  712MOL0     C98162   7.930   5.018   1.677 -1.1043  0.5542 -0.3514
  712MOL0    Cl98163   8.088   4.971   1.595  0.0517 -0.2155 -0.1300
  712MOL0     C98164   7.216   4.366   1.921  0.2257 -0.0320 -0.9738
  712MOL0     C98165   7.156   4.242   1.950 -0.2361 -0.2173 -0.1093
  712MOL0     O98166   7.087   3.957   1.843  0.3982  0.1726  0.3387
  712MOL0     C98167   6.814   3.896   2.043 -0.3773  0.5493 -0.8558
  712MOL0     C98168   6.742   3.796   2.112  0.2130 -0.5069  0.0714
  712MOL0     N98169   7.042   3.241   2.478  0.1974 -0.4498 -0.9238
  712MOL0     N98170   7.087   3.135   2.545  0.6722 -0.1230 -0.0971
  712MOL0     C98171   6.300   2.464   2.872  0.2154 -0.1556  0.7409
  712MOL0     C98172   6.167   2.461   2.895  0.1996  0.5819 -0.2316
  712MOL0     C98173   5.748   2.461   2.848  0.4676 -0.2260 -0.1709
  712MOL0     C98174   5.723   2.480   2.988 -0.3519 -0.4185 -0.6491
  712MOL0     C98175   5.620   2.409   3.047  0.5169  0.7693  0.4648
  712MOL0     C98176   5.526   2.336   2.969  0.1302 -0.4957  0.0146
  712MOL0     O98177   5.418   2.274   3.031 -0.0936 -0.0096 -0.1147
  712MOL0     C98178   5.355   2.324   3.149 -0.3063 -0.0881  0.5862
  712MOL0     C98179   5.241   2.228   3.163 -0.5057  0.4278 -0.0603
  712MOL0     C98180   5.267   2.080   3.191 -0.1004  0.5657 -0.1445
  712MOL0     C98181   5.135   1.994   3.186  0.0186 -0.4989 -0.1161
  712MOL0     C98182   5.186   1.851   3.189  0.1571  0.6994 -0.7536
  712MOL0     C98183   5.221   1.739   3.192  0.4902  0.1184 -0.1482
  712MOL0     C98184   5.543   2.333   2.833 -1.1512 -0.0717  0.0419
  712MOL0     C98185   5.656   2.397   2.768 -0.1892 -0.4375  0.3232
  712MOL0     C98186   5.675   2.387   2.625 -0.0111  0.3637 -0.6070
  712MOL0     H98187   6.096   2.785   2.844 -0.9192  0.0731  2.0599
  712MOL0     H98188   6.351   2.794   2.845 -0.8731  0.1041 -1.7107
  712MOL0     H98189   6.520   2.428   2.732 -0.4625  1.9560  0.8249
  712MOL0     H98190   6.623   2.422   2.881  2.5574  0.6592 -0.1213
  712MOL0     H98191   6.737   2.447   2.639  3.0630 -1.0003  1.6274
  712MOL0     H98192   6.689   2.615   2.650 -1.7575  0.8164  1.2500
  712MOL0     H98193   6.812   2.670   2.828  1.7065  1.7464 -3.9468
  712MOL0     H98194   6.854   2.496   2.876 -2.0696 -6.1396 -3.6373
  712MOL0     H98195   6.975   2.489   2.641 -2.0385 -1.0635  0.3777
  712MOL0     H98196   6.927   2.645   2.611 -0.2139  0.4900  0.5332
  712MOL0     H98197   7.156   2.639   2.697 -0.2226 -1.5671 -0.1402
  712MOL0     H98198   7.082   2.569   2.849 -1.9760 -1.6332 -1.8841
  712MOL0     H98199   6.968   2.790   2.887 -1.0596 -0.3275 -1.5599
  712MOL0     H98200   7.148   2.816   2.886 -0.5256  2.7644  0.0621
  712MOL0     H98201   6.990   2.865   2.624  0.5592  1.0209 -0.9828
  712MOL0     H98202   7.153   2.898   2.660  0.5638  0.6941  0.5980
  712MOL0     H98203   6.930   3.023   2.826  0.2645  1.8148 -0.3314
  712MOL0     H98204   7.108   3.044   2.837 -0.8620 -3.5814  1.3160
  712MOL0     H98205   6.903   3.302   2.766 -2.1469 -0.2006 -0.6229
  712MOL0     H98206   6.918   3.506   2.464 -2.3015  1.0968 -1.6767
  712MOL0     H98207   6.823   3.455   2.605  0.5182 -1.8732  0.8745
  712MOL0     H98208   6.817   3.378   2.316 -1.0913 -2.7923 -0.9708
  712MOL0     H98209   6.708   3.289   2.423 -3.7445  1.8400  0.3743
  712MOL0     H98210   6.565   3.452   2.361 -0.0734  1.4158 -1.2883
  712MOL0     H98211   6.632   3.529   2.508 -1.0336  2.0326 -0.1233
  712MOL0     H98212   6.603   3.671   2.319  1.1000  0.8170 -2.3118
  712MOL0     H98213   6.779   3.668   2.364 -1.4289  1.5491  1.2414
  712MOL0     H98214   6.933   3.525   2.044 -4.2230 -1.4408  1.6348
  712MOL0     H98215   7.203   3.741   1.962  0.4156  1.2425 -1.0758
  712MOL0     H98216   7.122   3.708   1.809 -1.3056  1.5587 -0.6191
  712MOL0     H98217   7.143   3.581   1.934 -2.2210  0.0010  0.9278
  712MOL0     H98218   6.858   4.300   1.805 -0.4150  1.7388  1.6003
  712MOL0     H98219   6.967   4.529   1.751  1.1999 -1.2764 -2.6843
  712MOL0     H98220   7.117   4.699   1.664  0.1482 -1.3009 -0.1137
  712MOL0     H98221   7.058   4.723   1.830 -1.2350  0.7141 -0.6571
  712MOL0     H98222   7.191   4.908   1.748  2.5014  2.4653  3.6296
  712MOL0     H98223   7.283   4.827   1.879  0.9603 -0.6496  0.2198
  712MOL0     H98224   7.335   4.788   1.588 -1.0712  0.0512  0.3324
  712MOL0     H98225   7.418   4.699   1.719 -0.4691  0.4148  1.3410
  712MOL0     H98226   7.502   4.891   1.815 -1.6177  2.0103  1.5073
  712MOL0     H98227   7.427   4.996   1.691 -2.3239 -1.4565  1.2211
  712MOL0     H98228   7.619   4.781   1.645 -4.1681 -1.1339  1.7728
  712MOL0     H98229   7.571   4.885   1.515 -1.5782 -4.0460 -0.0937
  712MOL0     H98230   7.709   5.003   1.771  3.8630  1.0020 -0.2846
  712MOL0     H98231   7.664   5.079   1.620 -0.4188  1.3861  2.4258
  712MOL0     H98232   7.827   4.926   1.509 -0.0667  0.3671 -0.8323
  712MOL0     H98233   7.853   4.830   1.658 -0.4753  0.2828  0.6993
  712MOL0     H98234   7.929   5.018   1.786 -1.1656  0.8815 -0.3507
  712MOL0     H98235   7.920   5.125   1.659  3.2427  1.2357  0.2602
  712MOL0     H98236   7.313   4.385   1.965 -0.0849 -1.1383  0.2803
  712MOL0     H98237   7.206   4.160   2.000 -3.2407 -0.8192  2.2345
  712MOL0     H98238   6.770   3.994   2.030  0.2707  1.1123  0.8759
  712MOL0     H98239   6.656   3.836   2.165  1.4399  1.7157  0.5280
  712MOL0     H98240   6.371   2.382   2.879  1.5656  0.9395  0.3375
  712MOL0     H98241   6.132   2.363   2.925 -0.6527  0.9698  0.0768
  712MOL0     H98242   5.799   2.527   3.049  0.9506 -2.1950 -0.8085
  712MOL0     H98243   5.603   2.444   3.148 -1.5425  1.4646 -0.0638
  712MOL0     H98244   5.418   2.332   3.238  2.6428  1.7820 -1.5027
  712MOL0     H98245   5.322   2.426   3.128 -0.6135  0.1358  2.0332
  712MOL0     H98246   5.195   2.243   3.065  0.7464  1.3950 -0.5169
  712MOL0     H98247   5.171   2.267   3.238 -0.1904 -1.6483  1.4173
  712MOL0     H98248   5.345   2.035   3.129 -0.8640 -0.7647 -0.1800
  712MOL0     H98249   5.311   2.084   3.291 -0.3232 -0.5928  0.0171
  712MOL0     H98250   5.074   2.003   3.095 -1.0736 -2.9301  0.2842
  712MOL0     H98251   5.064   2.015   3.267 -1.9469  2.8909 -2.4246
  712MOL0     H98252   5.239   1.634   3.200 -0.2839 -0.0422 -0.5081
  712MOL0     H98253   5.473   2.282   2.768  0.2778  0.3666 -1.9538
  712MOL0     H98254   5.585   2.345   2.578  0.4178  0.0900 -1.1879
  712MOL0     H98255   5.682   2.491   2.591 -0.8216  0.7493  0.3513
  712MOL0     H98256   5.762   2.327   2.597 -0.0847 -0.5318  0.9372
  713MOL0     O98257   1.718   5.479   9.269 -0.6563  0.1108  0.2188
  713MOL0     C98258   1.691   5.425   9.375 -0.0878  0.7974 -0.4080
  713MOL0     O98259   1.779   5.357   9.447 -0.4037  0.2036  0.0543
  713MOL0     C98260   1.887   5.313   9.380 -0.1387  0.3942 -0.3038
  713MOL0     C98261   1.879   5.210   9.288  0.1795 -0.0499 -0.1566
  713MOL0     C98262   1.993   5.161   9.227  0.6827 -0.2126 -0.0477
  713MOL0     C98263   2.119   5.219   9.249  0.2694  0.1138 -0.3317
  713MOL0     O98264   2.234   5.186   9.194 -1.1868  0.2406  0.2704
  713MOL0     C98265   2.239   5.085   9.092  0.1306 -0.1955 -0.7546
  713MOL0     C98266   2.385   5.062   9.048  0.0159  0.1764  0.4886
  713MOL0     C98267   2.464   5.039   9.175  0.1317  0.7933 -0.5836
  713MOL0     C98268   2.463   4.897   9.240  0.5018  0.3005 -0.4110
  713MOL0     C98269   2.527   4.905   9.377 -0.2455 -0.0436 -0.3928
  713MOL0     C98270   2.422   4.942   9.482 -0.5447 -0.1883 -1.0959
  713MOL0     C98271   2.482   4.934   9.627  0.5195  0.4094 -0.0122
  713MOL0     C98272   2.386   4.989   9.730 -0.2140  0.5024  0.0881
  713MOL0     N98273   2.259   4.920   9.737  0.0676 -0.8273  0.9098
  713MOL0     C98274   2.154   4.981   9.669 -0.6282  0.0593  0.0175
  713MOL0     C98275   2.056   4.888   9.674 -0.4680  0.7267  0.6307
  713MOL0     C98276   1.927   4.896   9.594  0.9325  0.6673  0.2365
  713MOL0     C98277   1.892   4.766   9.516  0.5102 -0.4687 -0.2589
  713MOL0     C98278   1.966   4.761   9.380 -0.1872  0.3082 -0.4728
  713MOL0     C98279   1.975   4.613   9.324  0.2249 -0.2661  0.4966
  713MOL0     O98280   2.071   4.591   9.228 -0.6482  0.0747  0.0314
  713MOL0     C98281   2.199   4.571   9.275  0.3155  0.0443 -0.0138
  713MOL0     C98282   2.286   4.523   9.174 -0.1330  0.6901 -0.4541
  713MOL0     C98283   2.425   4.511   9.198 -0.1810  0.0337  0.3963
  713MOL0     C98284   2.506   4.452   9.085 -0.8727 -0.3689  0.0297
  713MOL0     C98285   2.477   4.529   9.330 -0.6291  0.8019  0.9259
  713MOL0     C98286   2.615   4.527   9.372  0.5386 -0.7364 -0.2254
  713MOL0     O98287   2.659   4.604   9.476 -1.2292 -0.2102 -0.4499
  713MOL0     C98288   2.796   4.612   9.495 -0.1281 -0.7909 -0.3420
  713MOL0     C98289   2.866   4.728   9.446 -0.0386 -0.2664 -0.4506
  713MOL0     C98290   3.004   4.729   9.465 -0.1191  0.5187  0.6133
  713MOL0     C98291   3.078   4.618   9.530 -0.3179 -0.4295  0.6685
  713MOL0     O98292   3.212   4.614   9.550  0.3274  0.4069  0.2137
  713MOL0     C98293   3.285   4.738   9.542  0.2092  0.7915 -0.2638
  713MOL0     C98294   3.438   4.700   9.574  1.0938  0.4948 -0.2813
  713MOL0     C98295   3.499   4.599   9.477  0.0346 -0.2593  0.4989
  713MOL0     C98296   3.650   4.604   9.465  0.0713  0.0524 -0.4975
  713MOL0     C98297   3.727   4.565   9.595  0.1465  0.7810  0.5533
  713MOL0     C98298   3.884   4.574   9.582  0.2576  0.6988  0.3383
  713MOL0     C98299   3.926   4.719   9.579  0.5643 -0.0569  0.0314
  713MOL0     C98300   4.053   4.731   9.647 -0.8971 -0.3327 -0.0161
  713MOL0    Cl98301   4.174   4.605   9.578  0.4502 -0.3320  0.5221
  713MOL0     C98302   3.000   4.516   9.574  0.7727  0.1923  0.7608
  713MOL0     C98303   2.861   4.506   9.558 -0.2441 -0.3237 -0.1740
  713MOL0     O98304   2.679   4.449   9.306 -0.3905  0.5136  0.2622
  713MOL0     C98305   2.381   4.556   9.432  0.4071 -1.0381 -0.8953
  713MOL0     C98306   2.249   4.588   9.404 -0.4295  0.0335 -0.4954
  713MOL0     N98307   2.118   4.774   9.737 -0.1409  0.1666 -0.8113
  713MOL0     N98308   2.234   4.799   9.788  0.2895  0.0669 -0.1886
  713MOL0     C98309   2.125   5.324   9.351 -0.0444 -0.0216  0.1366
  713MOL0     C98310   2.015   5.363   9.422  0.3384 -1.0035  0.2835
  713MOL0     C98311   1.549   5.457   9.428 -0.5728  0.1294 -0.1062
  713MOL0     C98312   1.451   5.473   9.331  0.4617  0.3688 -0.1056
  713MOL0     C98313   1.315   5.506   9.359  0.1728 -0.0407 -0.2532
  713MOL0     C98314   1.278   5.519   9.492  0.2279 -0.0428  0.7222
  713MOL0     O98315   1.138   5.545   9.509 -0.2493 -0.8796 -0.9287
  713MOL0     C98316   1.100   5.585   9.638 -0.4140 -0.9673  0.4721
  713MOL0     C98317   0.970   5.661   9.630  0.3438 -0.4506  0.0731
  713MOL0     C98318   0.854   5.581   9.558 -0.8869  0.3701 -0.5678
  713MOL0     C98319   0.718   5.629   9.601  0.1719  0.7482  0.1568
  713MOL0     C98320   0.683   5.768   9.563 -0.5516  0.8295 -0.4239
  713MOL0     C98321   0.651   5.876   9.525 -0.5400  1.2138 -0.7426
  713MOL0     C98322   1.374   5.507   9.593  0.3620  0.2272 -0.8983
  713MOL0     C98323   1.507   5.460   9.561 -1.1112  0.0776  0.5863
  713MOL0     C98324   1.601   5.442   9.682  1.0751 -0.5495  0.1140
  713MOL0     H98325   1.781   5.169   9.269  1.0540 -1.9988 -0.7913
  713MOL0     H98326   1.972   5.089   9.149 -0.0136  2.6941 -2.7579
  713MOL0     H98327   2.177   5.124   9.011 -1.1759  2.4575  1.3189
  713MOL0     H98328   2.187   4.994   9.125  2.2509 -1.0967  0.2773
  713MOL0     H98329   2.384   4.977   8.979 -1.9879 -0.2706  1.0098
  713MOL0     H98330   2.423   5.142   8.983 -0.1763 -0.5429 -0.5283
  713MOL0     H98331   2.567   5.069   9.152 -0.1524  2.1823 -0.1679
  713MOL0     H98332   2.436   5.116   9.248 -1.8979  1.2671 -1.7902
  713MOL0     H98333   2.366   4.848   9.249  0.2721  0.6456 -0.9444
  713MOL0     H98334   2.532   4.833   9.184  0.5372  0.2992 -0.3657
  713MOL0     H98335   2.615   4.968   9.361 -1.4327  0.9948 -3.6458
  713MOL0     H98336   2.561   4.805   9.406 -1.8115 -0.7021 -0.7306
  713MOL0     H98337   2.366   5.029   9.448 -2.4427 -2.1626 -3.4622
  713MOL0     H98338   2.339   4.869   9.480 -0.0251 -0.7872 -1.2593
  713MOL0     H98339   2.570   4.999   9.632 -1.3602  3.2722 -1.7124
  713MOL0     H98340   2.508   4.830   9.651 -1.0005 -0.0926 -0.4138
  713MOL0     H98341   2.429   4.957   9.825 -2.3030  1.1731  1.3189
  713MOL0     H98342   2.393   5.098   9.726  3.3661  0.4021 -0.0674
  713MOL0     H98343   2.154   5.076   9.615 -1.2259 -0.4345 -0.8712
  713MOL0     H98344   1.952   4.974   9.521  0.4930 -0.4208 -1.1386
  713MOL0     H98345   1.843   4.925   9.657  1.7977  0.1602  1.6636
  713MOL0     H98346   1.920   4.677   9.574 -1.0268 -0.2305  0.9195
  713MOL0     H98347   1.782   4.759   9.517  0.5702 -1.7995  1.0457
  713MOL0     H98348   1.911   4.831   9.316  1.1018  0.7287 -1.1525
  713MOL0     H98349   2.066   4.794   9.407 -0.5769  0.8389  0.3610
  713MOL0     H98350   1.990   4.549   9.411 -0.0887  1.8304  2.1609
  713MOL0     H98351   1.876   4.581   9.290  0.1539 -1.9133  2.1393
  713MOL0     H98352   2.241   4.507   9.077  0.0102  4.3902 -1.2581
  713MOL0     H98353   2.583   4.527   9.067  0.2345 -1.4905 -0.0779
  713MOL0     H98354   2.454   4.447   8.989  1.5945 -0.0599 -1.4070
  713MOL0     H98355   2.549   4.354   9.108 -2.3890 -0.8103  1.1994
  713MOL0     H98356   2.813   4.816   9.409  1.5343  1.3808  1.0370
  713MOL0     H98357   3.065   4.805   9.417  2.8890 -2.9096 -1.4806
  713MOL0     H98358   3.280   4.773   9.439  1.2113 -0.2624 -0.6923
  713MOL0     H98359   3.253   4.815   9.613  0.8851 -0.4026  1.4264
  713MOL0     H98360   3.498   4.792   9.573  1.3275  0.3702 -2.3660
  713MOL0     H98361   3.449   4.651   9.670  3.8509  1.4478 -0.0081
  713MOL0     H98362   3.462   4.615   9.375 -0.6054  0.5732  0.8509
  713MOL0     H98363   3.465   4.500   9.509 -2.0529 -0.1068 -1.0210
  713MOL0     H98364   3.685   4.707   9.452  2.9895 -0.5203  1.8844
  713MOL0     H98365   3.678   4.538   9.382  0.1328  0.5164 -0.8504
  713MOL0     H98366   3.696   4.621   9.684 -1.2738  1.7092 -0.4689
  713MOL0     H98367   3.700   4.461   9.614  0.8039  1.0507  3.3924
  713MOL0     H98368   3.925   4.525   9.494  0.8845  0.5459  0.7096
  713MOL0     H98369   3.930   4.529   9.671 -2.3039  0.5007  1.6414
  713MOL0     H98370   3.862   4.788   9.635 -0.0342  0.7696 -1.6142
  713MOL0     H98371   3.925   4.756   9.476  1.2098  1.8403  0.6609
  713MOL0     H98372   4.046   4.720   9.755  1.3336  0.6510  0.2852
  713MOL0     H98373   4.084   4.836   9.639 -0.3722 -0.4084  0.9318
  713MOL0     H98374   3.042   4.432   9.629  3.1981  0.0293 -1.1855
  713MOL0     H98375   2.809   4.427   9.611 -0.0124  0.1933  0.8517
  713MOL0     H98376   2.419   4.574   9.532 -1.0634  0.8253 -0.6181
  713MOL0     H98377   2.173   4.622   9.474  2.4213  0.8873  2.4397
  713MOL0     H98378   2.227   5.353   9.375  0.3344 -1.7507  0.7744
  713MOL0     H98379   2.030   5.442   9.495 -2.0494 -0.6269  0.4460
  713MOL0     H98380   1.481   5.471   9.227 -0.2282  3.0801 -0.4426
  713MOL0     H98381   1.250   5.527   9.275  1.7188 -1.2531 -1.8414
  713MOL0     H98382   1.095   5.509   9.716 -0.5429  0.5882  2.0126
  713MOL0     H98383   1.160   5.671   9.669 -0.1537 -1.1877  0.5892
  713MOL0     H98384   0.980   5.754   9.573 -0.6180  1.1091  2.3097
  713MOL0     H98385   0.945   5.684   9.734  1.9274  0.7709  0.2217
  713MOL0     H98386   0.852   5.575   9.449 -0.4711 -0.1529 -0.5538
  713MOL0     H98387   0.866   5.477   9.590  1.0076  0.6339 -0.2988
  713MOL0     H98388   0.701   5.607   9.707  5.0697 -3.4024  0.4637
  713MOL0     H98389   0.642   5.571   9.548 -0.1161 -0.2183  1.5497
  713MOL0     H98390   0.635   5.973   9.482 -2.5763  0.2943 -2.1878
  713MOL0     H98391   1.348   5.530   9.696 -2.9850  2.0588 -2.0258
  713MOL0     H98392   1.541   5.417   9.770  1.7825 -1.9552  0.2263
  713MOL0     H98393   1.658   5.350   9.666  0.4196 -1.0724  0.7140
  713MOL0     H98394   1.665   5.528   9.699 -0.0117  0.2124  0.4753
  714MOL0     O98395   0.783   9.237   7.908 -0.3881  0.7163 -0.0989
  714MOL0     C98396   0.903   9.209   7.942  0.3991  0.9553 -1.0984
  714MOL0     O98397   0.939   9.122   8.047 -0.0595  0.4429  0.4336
  714MOL0     C98398   0.833   9.061   8.102 -0.7876 -0.4004  0.0241
  714MOL0     C98399   0.776   9.120   8.210 -0.2522  0.1918 -0.1554
  714MOL0     C98400   0.683   9.049   8.288  0.2733  0.3828  0.8985
  714MOL0     C98401   0.640   8.925   8.242  0.4994 -0.0490 -0.2987
  714MOL0     O98402   0.560   8.844   8.324 -0.3017 -0.3584 -0.5531
  714MOL0     C98403   0.455   8.775   8.255 -0.0140 -0.2989 -0.3642
  714MOL0     C98404   0.341   8.737   8.347 -0.1733 -0.0481 -0.3510
  714MOL0     C98405   0.249   8.636   8.271  0.2516  0.3012 -0.0991
  714MOL0     C98406   0.165   8.559   8.377 -0.3466 -0.0818  0.6883
  714MOL0     C98407   0.079   8.453   8.313  0.6509 -0.3724  0.6298
  714MOL0     C98408  -0.015   8.384   8.410  0.2722 -0.9676  0.4729
  714MOL0     C98409  -0.125   8.471   8.468  0.3632 -0.3038  0.4851
  714MOL0     C98410  -0.187   8.404   8.590  0.9475  0.6258 -0.1120
  714MOL0     N98411  -0.088   8.410   8.698 -0.2042 -0.4151 -0.6375
  714MOL0     C98412  -0.072   8.525   8.767 -0.8894 -0.1221  0.0606
  714MOL0     C98413   0.034   8.500   8.851  1.0803  0.4331  0.5660
  714MOL0     C98414   0.099   8.600   8.945  0.1264 -1.0301  0.0286
  714MOL0     C98415   0.151   8.727   8.875  1.0535 -0.0897 -0.5793
  714MOL0     C98416   0.256   8.702   8.763  1.0897 -0.3558 -0.1208
  714MOL0     C98417   0.391   8.671   8.817  0.4969 -0.6671 -0.3820
  714MOL0     O98418   0.399   8.541   8.886  0.5284  0.0356 -0.3786
  714MOL0     C98419   0.518   8.505   8.931 -1.2357 -0.2783 -0.5045
  714MOL0     C98420   0.519   8.381   8.993 -0.0216  0.0133 -0.4736
  714MOL0     C98421   0.642   8.328   9.035  0.0922 -0.4388 -0.7805
  714MOL0     C98422   0.644   8.198   9.113  0.4165 -0.0256  0.7145
  714MOL0     C98423   0.768   8.390   9.003 -0.5683  0.6895 -0.3691
  714MOL0     C98424   0.903   8.332   9.025 -0.1623  0.7495 -0.6546
  714MOL0     O98425   1.011   8.413   9.015  0.3698 -0.4179  0.2761
  714MOL0     C98426   1.138   8.371   9.036 -0.2188 -0.0205  0.6693
  714MOL0     C98427   1.236   8.373   8.935 -0.3945  0.2348 -0.0617
  714MOL0     C98428   1.368   8.331   8.952 -0.1290 -0.2357  0.2531
  714MOL0     C98429   1.403   8.260   9.074 -0.8444 -0.2627  0.4947
  714MOL0     O98430   1.523   8.209   9.102 -0.0906  0.2075  0.4883
  714MOL0     C98431   1.628   8.238   9.005 -0.6976 -0.3347 -0.2144
  714MOL0     C98432   1.756   8.155   9.053  0.1660  0.1298  0.9114
  714MOL0     C98433   1.813   8.204   9.185 -0.6403 -0.1927  0.4613
  714MOL0     C98434   1.888   8.339   9.173  0.0925 -0.3913 -0.3989
  714MOL0     C98435   1.975   8.380   9.294 -0.2969 -0.4215 -0.3235
  714MOL0     C98436   1.901   8.382   9.431 -0.5279  0.4960 -0.4855
  714MOL0     C98437   1.997   8.447   9.539 -0.2029  0.0643 -0.1323
  714MOL0     C98438   1.914   8.490   9.674 -0.6109  0.4822 -0.2219
  714MOL0    Cl98439   2.039   8.562   9.779  0.4621 -0.2017 -0.2749
  714MOL0     C98440   1.303   8.256   9.171  0.7042 -0.2672  0.4722
  714MOL0     C98441   1.174   8.317   9.155  0.1413 -0.1180  0.2314
  714MOL0     O98442   0.914   8.207   9.050  0.3780  0.0463  0.0803
  714MOL0     C98443   0.765   8.520   8.947 -0.0424  0.5193  0.0663
  714MOL0     C98444   0.641   8.574   8.913  0.3369  0.7041  0.1308
  714MOL0     N98445   0.074   8.367   8.841  0.1107  0.1395 -0.6799
  714MOL0     N98446  -0.006   8.313   8.755  0.2289  0.3078 -0.2843
  714MOL0     C98447   0.696   8.867   8.123  0.3167  0.5107  0.4551
  714MOL0     C98448   0.795   8.938   8.053 -0.4891 -0.5566 -0.7731
  714MOL0     C98449   1.014   9.284   7.885  0.3351 -0.0614  0.3604
  714MOL0     C98450   1.132   9.297   7.959 -0.1229  0.5995 -0.1378
  714MOL0     C98451   1.238   9.363   7.906 -0.4636 -0.7233  0.0724
  714MOL0     C98452   1.229   9.430   7.782 -0.3984  0.4062 -0.3925
  714MOL0     O98453   1.337   9.505   7.737 -0.4448  0.2277  0.4616
  714MOL0     C98454   1.330   9.650   7.753  0.3664 -0.2246 -0.0760
  714MOL0     C98455   1.284   9.721   7.632  0.0247 -0.8138 -0.2306
  714MOL0     C98456   1.373   9.725   7.507 -0.2747 -0.9998  0.3530
  714MOL0     C98457   1.520   9.768   7.533  0.3188  0.6908  0.3800
  714MOL0     C98458   1.617   9.737   7.432  0.5675  0.0855  0.0905
  714MOL0     C98459   1.699   9.727   7.344  0.3223 -0.0571  0.2764
  714MOL0     C98460   1.113   9.418   7.707  0.1670  0.0259  0.7017
  714MOL0     C98461   1.001   9.345   7.758  0.8782 -0.0272 -0.4297
  714MOL0     C98462   0.878   9.335   7.669  0.3641  0.1180 -0.5518
  714MOL0     H98463   0.815   9.216   8.244  1.7975 -0.1808 -1.2945
  714MOL0     H98464   0.638   9.112   8.365 -0.1042  3.6294 -1.7572
  714MOL0     H98465   0.493   8.679   8.218  0.2012 -0.4084  0.1312
  714MOL0     H98466   0.409   8.844   8.184  0.2551  2.3532  1.8768
  714MOL0     H98467   0.396   8.694   8.431  2.9373  0.3959 -2.0219
  714MOL0     H98468   0.288   8.827   8.382  0.7892  0.3351  0.1501
  714MOL0     H98469   0.190   8.695   8.200 -0.0469  2.4271  1.8055
  714MOL0     H98470   0.306   8.555   8.226 -0.3217 -1.4577  2.1546
  714MOL0     H98471   0.229   8.517   8.456  1.7251 -0.7212 -1.2163
  714MOL0     H98472   0.107   8.635   8.428  1.9861  0.8464  2.1263
  714MOL0     H98473   0.137   8.379   8.257  0.1346 -1.8836  2.0090
  714MOL0     H98474   0.015   8.497   8.236  0.7420 -3.7006 -1.5529
  714MOL0     H98475  -0.052   8.289   8.370 -0.5448 -0.7257  0.6418
  714MOL0     H98476   0.054   8.352   8.489  0.7547  0.6496  0.7362
  714MOL0     H98477  -0.204   8.475   8.392  0.0320  0.0108  0.8341
  714MOL0     H98478  -0.083   8.567   8.500  0.6442  0.6641 -2.4662
  714MOL0     H98479  -0.285   8.441   8.622 -0.2181 -2.8436  0.7879
  714MOL0     H98480  -0.203   8.297   8.576 -1.7331  1.0746 -1.1099
  714MOL0     H98481  -0.118   8.622   8.749  0.6625  1.1849  2.4385
  714MOL0     H98482   0.177   8.546   9.000  0.3509  1.5526  2.4245
  714MOL0     H98483   0.016   8.625   9.012  0.2472 -2.0322  0.5808
  714MOL0     H98484   0.066   8.777   8.827 -0.1370 -1.4688  0.0345
  714MOL0     H98485   0.194   8.793   8.950  2.7905 -1.1953 -0.5568
  714MOL0     H98486   0.222   8.619   8.700 -0.2314 -0.3151  0.4880
  714MOL0     H98487   0.265   8.788   8.696  1.5762  0.6143  1.1555
  714MOL0     H98488   0.455   8.673   8.729  1.6509  1.7056  0.4092
  714MOL0     H98489   0.428   8.751   8.882  0.0012 -0.0729 -0.8259
  714MOL0     H98490   0.432   8.319   9.009  0.0711 -0.7629 -2.7543
  714MOL0     H98491   0.718   8.201   9.193  1.9962  0.6296 -0.7045
  714MOL0     H98492   0.657   8.119   9.039 -1.9077  0.1695  0.0133
  714MOL0     H98493   0.548   8.177   9.159 -0.1709  0.2907 -0.3365
  714MOL0     H98494   1.206   8.408   8.837  1.7541 -1.6475 -1.4950
  714MOL0     H98495   1.421   8.364   8.863 -2.9765 -0.5282 -1.7009
  714MOL0     H98496   1.601   8.197   8.907  1.5712 -2.7762  0.0619
  714MOL0     H98497   1.652   8.344   8.998 -1.2759 -0.1877 -0.0493
  714MOL0     H98498   1.729   8.049   9.059  0.1410  0.0767 -0.0659
  714MOL0     H98499   1.830   8.156   8.973 -1.0162 -2.7400 -0.3525
  714MOL0     H98500   1.888   8.133   9.223  0.4913  1.6906  1.9547
  714MOL0     H98501   1.749   8.210   9.273 -0.8569  1.4283  0.2120
  714MOL0     H98502   1.815   8.421   9.166  0.8307  0.1987 -1.3984
  714MOL0     H98503   1.952   8.329   9.085 -1.9123 -0.9716 -1.8652
  714MOL0     H98504   2.037   8.291   9.306 -1.6543 -1.1599  1.7342
  714MOL0     H98505   2.031   8.471   9.269 -0.1759 -0.8120 -1.5708
  714MOL0     H98506   1.868   8.288   9.478  0.0959  0.1720 -0.6864
  714MOL0     H98507   1.820   8.455   9.425 -1.4000 -0.2052  1.8478
  714MOL0     H98508   2.041   8.534   9.490 -2.2067 -0.4877 -3.1454
  714MOL0     H98509   2.076   8.381   9.577 -0.0639  1.1396  1.6032
  714MOL0     H98510   1.876   8.400   9.724 -1.1953 -0.5603 -2.3943
  714MOL0     H98511   1.836   8.565   9.659  0.2997  1.8307  1.4472
  714MOL0     H98512   1.336   8.210   9.264 -0.8977 -2.3353  0.1054
  714MOL0     H98513   1.100   8.311   9.235 -0.7420  1.4733 -0.4328
  714MOL0     H98514   0.851   8.584   8.928 -1.2008  2.6181  1.5241
  714MOL0     H98515   0.639   8.662   8.850  2.1462  0.9969  0.4282
  714MOL0     H98516   0.671   8.767   8.088  0.5673  0.4966  0.3110
  714MOL0     H98517   0.846   8.903   7.963  0.5682  2.4657 -1.4834
  714MOL0     H98518   1.139   9.258   8.060 -2.5990 -0.2169 -0.2156
  714MOL0     H98519   1.324   9.369   7.972  0.0437  0.7684 -0.6718
  714MOL0     H98520   1.262   9.676   7.834 -0.3749 -0.7382 -0.5202
  714MOL0     H98521   1.426   9.692   7.785  0.0860 -0.2930  0.8737
  714MOL0     H98522   1.274   9.826   7.663 -2.6882 -0.4147 -2.0894
  714MOL0     H98523   1.182   9.692   7.606 -1.2770 -0.5810  3.8301
  714MOL0     H98524   1.375   9.620   7.475  2.9870 -1.1218  0.6004
  714MOL0     H98525   1.332   9.788   7.429 -1.3363 -0.2360  1.4887
  714MOL0     H98526   1.551   9.703   7.616  1.9218  0.2519 -0.5301
  714MOL0     H98527   1.537   9.872   7.564 -0.0943  0.4585  1.4411
  714MOL0     H98528   1.774   9.737   7.267  1.4432  0.1232  1.3690
  714MOL0     H98529   1.106   9.461   7.608  1.3656  1.9434  1.3993
  714MOL0     H98530   0.789   9.380   7.714  0.5891 -1.3829  1.5867
  714MOL0     H98531   0.898   9.377   7.571 -2.4856  1.9524 -0.4634
  714MOL0     H98532   0.865   9.228   7.648  5.6742 -0.5501 -1.6006
  715MOL0     O98533   6.996   1.294   3.155 -0.3314 -0.6263  0.4605
  715MOL0     C98534   7.027   1.371   3.245 -0.2585 -0.0657  0.3698
  715MOL0     O98535   7.138   1.456   3.248 -1.3308  0.4493  0.8302
  715MOL0     C98536   7.205   1.471   3.127 -0.7294 -0.2966 -0.3573
  715MOL0     C98537   7.145   1.507   3.008  0.3765  1.1067  0.0460
  715MOL0     C98538   7.213   1.540   2.894  0.3855 -0.9316  0.8758
  715MOL0     C98539   7.357   1.540   2.899  0.3541 -0.9753  0.4587
  715MOL0     O98540   7.426   1.565   2.784 -0.9527  0.1004 -0.5228
  715MOL0     C98541   7.572   1.566   2.787  0.6185  0.0565 -0.4153
  715MOL0     C98542   7.625   1.696   2.810 -0.3947  0.4803  0.2578
  715MOL0     C98543   7.773   1.714   2.770  0.4712 -0.0525  0.0758
  715MOL0     C98544   7.801   1.865   2.755  0.2091  0.4812 -0.1909
  715MOL0     C98545   7.944   1.906   2.781 -0.3644  0.3568  0.9815
  715MOL0     C98546   7.967   2.050   2.740 -0.2678 -0.8842  0.3472
  715MOL0     C98547   8.103   2.115   2.738  0.2617  0.3574  0.6577
  715MOL0     C98548   8.182   2.115   2.866 -0.2822  0.3355  0.2819
  715MOL0     N98549   8.316   2.181   2.859 -0.2678  0.3204  0.4146
  715MOL0     C98550   8.381   2.243   2.963 -0.0547 -0.2448  0.4085
  715MOL0     C98551   8.492   2.305   2.910  0.1524  0.0288 -0.4787
  715MOL0     C98552   8.589   2.396   2.979 -0.5424  0.8930  0.1829
  715MOL0     C98553   8.607   2.530   2.902  0.6474 -0.1296  0.8622
  715MOL0     C98554   8.735   2.608   2.944  0.0862 -0.5558  0.0954
  715MOL0     C98555   8.705   2.662   3.079  0.1352 -0.4320  0.5007
  715MOL0     O98556   8.817   2.739   3.115  0.2269  0.3272 -0.1466
  715MOL0     C98557   8.822   2.792   3.241  0.2045 -0.5484 -0.6089
  715MOL0     C98558   8.714   2.799   3.333  0.5246  0.0472  0.1875
  715MOL0     C98559   8.731   2.866   3.458  0.3471  0.1811 -0.3148
  715MOL0     C98560   8.625   2.840   3.559  0.1752  0.1926 -0.0014
  715MOL0     C98561   8.848   2.941   3.490  0.3192  1.0998 -0.4917
  715MOL0     C98562   8.867   3.017   3.620  0.6297  0.0220 -0.2358
  715MOL0     O98563   8.991   3.032   3.665 -0.2922 -0.5030 -0.4059
  715MOL0     C98564   9.015   3.069   3.794  0.8078  0.7244 -0.0304
  715MOL0     C98565   9.107   3.170   3.809  0.0232  0.3277 -0.0779
  715MOL0     C98566   9.154   3.202   3.940  0.2372  0.7809 -1.0041
  715MOL0     C98567   9.117   3.136   4.057  0.7222 -0.2449  0.0734
  715MOL0     O98568   9.159   3.159   4.185 -0.0946 -0.0408  0.2608
  715MOL0     C98569   9.253   3.270   4.218  0.4277  0.7064  0.8839
  715MOL0     C98570   9.299   3.256   4.353 -0.6169 -0.2664 -0.5934
  715MOL0     C98571   9.370   3.391   4.388 -0.2449  0.4610 -0.1920
  715MOL0     C98572   9.412   3.402   4.545 -0.4823  0.4046 -0.6353
  715MOL0     C98573   9.489   3.279   4.596 -0.0020  0.2733 -0.2128
  715MOL0     C98574   9.619   3.237   4.516 -0.0928 -0.1624  0.3222
  715MOL0     C98575   9.705   3.137   4.595  0.7925 -0.4026 -0.4956
  715MOL0     C98576   9.835   3.123   4.519 -0.0320  0.8249 -0.1611
  715MOL0    Cl98577   9.928   3.278   4.534  0.0175  0.5206  0.5375
  715MOL0     C98578   9.008   3.048   4.044  0.4372 -0.3940 -0.4959
  715MOL0     C98579   8.963   3.003   3.918 -0.7999  0.0712  0.7261
  715MOL0     O98580   8.771   3.075   3.675 -0.8007 -0.2984 -0.0203
  715MOL0     C98581   8.948   2.938   3.397  0.8644  0.1244 -0.2907
  715MOL0     C98582   8.933   2.866   3.276  0.3091  0.9856  0.2814
  715MOL0     N98583   8.498   2.275   2.779  0.2410  0.0566 -0.0179
  715MOL0     N98584   8.395   2.195   2.747  0.6643 -0.2350 -0.2563
  715MOL0     C98585   7.410   1.521   3.019  0.1707 -0.0694 -0.3021
  715MOL0     C98586   7.340   1.476   3.132 -0.6311 -0.3249 -0.0994
  715MOL0     C98587   6.941   1.390   3.368 -0.5305  0.6386  0.3440
  715MOL0     C98588   6.988   1.430   3.491 -0.9770 -0.6834  1.2325
  715MOL0     C98589   6.911   1.433   3.603  0.1963 -0.2921  0.5683
  715MOL0     C98590   6.774   1.409   3.601 -0.4880  0.1373 -0.2439
  715MOL0     O98591   6.705   1.416   3.721 -0.1891 -0.4992  0.2892
  715MOL0     C98592   6.584   1.503   3.704 -0.1616  0.2063 -0.5807
  715MOL0     C98593   6.521   1.513   3.842 -0.1780  0.1617 -0.9176
  715MOL0     C98594   6.628   1.545   3.953 -0.0961  0.0693 -0.9448
  715MOL0     C98595   6.711   1.670   3.917  0.7083  0.4374  0.3403
  715MOL0     C98596   6.623   1.786   3.888  0.0800  1.0419  0.0309
  715MOL0     C98597   6.547   1.863   3.830 -0.8087  1.1298 -1.1746
  715MOL0     C98598   6.724   1.371   3.478 -0.1847 -0.1200  0.3347
  715MOL0     C98599   6.805   1.353   3.363 -0.4671  0.5730 -0.7881
  715MOL0     C98600   6.736   1.315   3.237  0.1012 -0.1576 -0.0829
  715MOL0     H98601   7.036   1.508   3.006  0.3428 -0.0018  0.1974
  715MOL0     H98602   7.158   1.583   2.810 -2.0307 -0.8767  2.3854
  715MOL0     H98603   7.618   1.533   2.693 -0.5646  1.0713 -1.3968
  715MOL0     H98604   7.617   1.500   2.861 -0.2652  0.2054  0.2690
  715MOL0     H98605   7.555   1.759   2.754 -0.5432 -1.4361 -1.8449
  715MOL0     H98606   7.636   1.726   2.915  0.7039  2.3989 -0.3638
  715MOL0     H98607   7.833   1.668   2.849 -1.9027  0.7012  2.4522
  715MOL0     H98608   7.797   1.655   2.682  1.4979  0.0763  0.2581
  715MOL0     H98609   7.783   1.889   2.650  3.3783 -3.1464 -1.7678
  715MOL0     H98610   7.724   1.917   2.813  0.7176  1.2432 -0.1815
  715MOL0     H98611   8.011   1.845   2.720 -2.5479 -0.2223 -0.9991
  715MOL0     H98612   7.966   1.884   2.886 -3.1702  0.8440  1.7526
  715MOL0     H98613   7.928   2.067   2.639  1.3472 -0.0699 -0.1614
  715MOL0     H98614   7.914   2.110   2.814  0.5754  1.1815 -0.6636
  715MOL0     H98615   8.092   2.220   2.711  2.4162 -0.1476 -2.9284
  715MOL0     H98616   8.161   2.078   2.653 -1.1441 -0.9696  0.2289
  715MOL0     H98617   8.126   2.158   2.949  0.4491  1.8798  0.0132
  715MOL0     H98618   8.189   2.009   2.892 -3.6347  0.1132  0.7119
  715MOL0     H98619   8.342   2.262   3.063  0.1252 -3.6698  1.2522
  715MOL0     H98620   8.686   2.351   3.002  0.7606  1.0310 -4.1841
  715MOL0     H98621   8.540   2.411   3.076 -2.8789 -1.4230 -0.5035
  715MOL0     H98622   8.626   2.510   2.796  3.2450 -0.0761  1.2499
  715MOL0     H98623   8.508   2.574   2.918  1.3644  2.1763 -0.6162
  715MOL0     H98624   8.816   2.537   2.963 -1.2023 -1.8222  1.1222
  715MOL0     H98625   8.767   2.685   2.873  1.8742  0.5271  1.9701
  715MOL0     H98626   8.614   2.721   3.082  0.0872 -0.4437 -0.4734
  715MOL0     H98627   8.698   2.578   3.149  1.2150 -0.0401  1.1165
  715MOL0     H98628   8.620   2.746   3.316 -0.2094  1.3220  0.0826
  715MOL0     H98629   8.575   2.931   3.592 -1.5246 -0.4662 -0.6086
  715MOL0     H98630   8.665   2.780   3.641 -1.3265  1.8810  2.0823
  715MOL0     H98631   8.549   2.776   3.514  0.3092  1.6440 -2.5076
  715MOL0     H98632   9.147   3.227   3.726 -1.1859  0.6895 -0.4442
  715MOL0     H98633   9.226   3.282   3.955  0.4093  0.8507 -2.1004
  715MOL0     H98634   9.331   3.278   4.141 -0.6173  2.2194 -0.0768
  715MOL0     H98635   9.186   3.356   4.209  3.4329  3.1296  0.0292
  715MOL0     H98636   9.218   3.241   4.425 -0.8959 -1.1467 -1.0713
  715MOL0     H98637   9.374   3.177   4.365 -2.6896 -1.9844  2.3960
  715MOL0     H98638   9.310   3.479   4.366  0.6873  1.4714  1.1714
  715MOL0     H98639   9.460   3.399   4.325  0.8520  1.0307  1.3720
  715MOL0     H98640   9.323   3.411   4.608  0.0101 -1.4575  0.3813
  715MOL0     H98641   9.476   3.491   4.553  2.4524 -1.3351 -2.5798
  715MOL0     H98642   9.505   3.282   4.704  0.7829  0.1935 -0.3227
  715MOL0     H98643   9.418   3.199   4.577 -0.4799  0.6068  0.1367
  715MOL0     H98644   9.683   3.326   4.509  0.0767 -0.3447 -0.6489
  715MOL0     H98645   9.597   3.202   4.414 -0.9293  1.8619 -0.2604
  715MOL0     H98646   9.654   3.042   4.609 -1.4781  1.1416  3.2250
  715MOL0     H98647   9.725   3.177   4.695 -2.5566  1.9938 -0.6314
  715MOL0     H98648   9.807   3.090   4.418 -1.0814  0.1841  0.3236
  715MOL0     H98649   9.901   3.048   4.564  1.4805  2.1326 -0.0891
  715MOL0     H98650   8.964   3.009   4.136 -0.3437  0.4149 -0.5096
  715MOL0     H98651   8.884   2.929   3.909 -0.9131  0.2839 -0.0846
  715MOL0     H98652   9.042   2.990   3.415  0.4483  1.7520 -2.3855
  715MOL0     H98653   9.018   2.866   3.209  0.4250 -0.9058  0.3730
  715MOL0     H98654   7.515   1.534   3.045  0.3104  0.0846 -0.9196
  715MOL0     H98655   7.393   1.453   3.224 -1.8684  4.2829  2.0608
  715MOL0     H98656   7.091   1.462   3.499 -0.4209 -2.4423  1.6227
  715MOL0     H98657   6.950   1.475   3.695 -0.1109  1.5569 -0.1097
  715MOL0     H98658   6.601   1.601   3.659  0.0492  0.8592  0.8683
  715MOL0     H98659   6.510   1.450   3.643  0.0139 -0.2894 -0.3637
  715MOL0     H98660   6.465   1.424   3.872 -1.8890  1.1511 -1.0545
  715MOL0     H98661   6.447   1.593   3.842 -0.2300  0.2407 -4.2492
  715MOL0     H98662   6.581   1.567   4.049 -1.4463  0.8703 -1.7521
  715MOL0     H98663   6.697   1.462   3.968  0.9772  1.1246  0.1286
  715MOL0     H98664   6.773   1.655   3.829 -0.8190  4.3122 -1.6472
  715MOL0     H98665   6.780   1.689   4.000  1.4038 -2.8351  0.6537
  715MOL0     H98666   6.485   1.927   3.770 -0.6127 -0.7580 -3.5487
  715MOL0     H98667   6.617   1.353   3.470 -0.3201 -0.2352  2.0579
  715MOL0     H98668   6.779   1.222   3.199 -0.1139  0.8565 -3.0503
  715MOL0     H98669   6.630   1.295   3.253 -0.0997  0.5627 -0.4729
  715MOL0     H98670   6.749   1.395   3.165 -3.1514  1.2951  0.7870
  716MOL0     O98671  11.069  11.376   8.147  0.9406  0.2959  0.0561
  716MOL0     C98672  11.002  11.323   8.054  1.0841 -1.0118  0.5596
  716MOL0     O98673  11.045  11.219   7.989 -0.0723  0.1513 -0.9966
  716MOL0     C98674  11.177  11.165   7.999  0.3313  0.6161  0.2936
  716MOL0     C98675  11.292  11.242   7.975  0.5978  0.0379 -0.0713
  716MOL0     C98676  11.423  11.185   8.001  0.0435 -0.3522  0.6506
  716MOL0     C98677  11.434  11.061   8.061 -0.4789  0.0386 -0.6365
  716MOL0     O98678  11.566  11.015   8.093 -0.7287 -0.3799  0.1008
  716MOL0     C98679  11.577  10.901   8.176 -0.0578  0.5753 -0.5098
  716MOL0     C98680  11.712  10.893   8.242 -0.2511  0.1431 -0.5036
  716MOL0     C98681  11.713  10.949   8.379  0.2645  0.4736 -0.2643
  716MOL0     C98682  11.851  10.959   8.448  0.2655 -0.9495  0.2233
  716MOL0     C98683  11.840  11.039   8.574 -0.6872 -0.3357 -0.6359
  716MOL0     C98684  11.820  11.197   8.576 -0.0513 -0.9861  0.1566
  716MOL0     C98685  11.923  11.264   8.478 -0.2968 -0.3141  0.4947
  716MOL0     C98686  11.937  11.408   8.508  1.3196  0.7937 -0.1078
  716MOL0     N98687  12.054  11.434   8.597 -0.7791  0.5048 -0.0172
  716MOL0     C98688  12.039  11.432   8.729 -0.1686 -0.3839 -0.1509
  716MOL0     C98689  12.162  11.462   8.784  0.1986  0.7240  0.3132
  716MOL0     C98690  12.187  11.457   8.933 -1.7364  0.4043  0.1221
  716MOL0     C98691  12.164  11.594   8.987 -0.1394 -0.3756  0.5284
  716MOL0     C98692  12.147  11.599   9.145  0.5571  0.1903  0.3431
  716MOL0     C98693  12.155  11.749   9.194  0.0751  0.3169  0.7717
  716MOL0     O98694  12.112  11.843   9.092  0.0547  0.3838  0.3951
  716MOL0     C98695  11.982  11.879   9.080 -0.0813 -0.5607  0.2143
  716MOL0     C98696  11.896  11.934   9.181  0.4306 -0.7446  0.6974
  716MOL0     C98697  11.766  11.981   9.139  0.0560 -0.2036  0.7036
  716MOL0     C98698  11.685  12.034   9.259 -0.3978 -0.2486 -0.4214
  716MOL0     C98699  11.711  11.953   9.012 -0.4421 -0.4067  0.5796
  716MOL0     C98700  11.570  11.982   8.984 -0.6010  0.1134  0.2356
  716MOL0     O98701  11.476  11.888   8.996 -0.5533 -0.2763 -0.4349
  716MOL0     C98702  11.350  11.934   9.019  1.0249 -0.1337 -0.3396
  716MOL0     C98703  11.318  11.987   9.147  0.0282 -0.2645  0.8421
  716MOL0     C98704  11.197  12.051   9.165  0.0027 -1.0752  0.8943
  716MOL0     C98705  11.098  12.059   9.060 -1.1486 -0.1579 -0.3934
  716MOL0     O98706  10.981  12.119   9.077 -0.0373  0.1509 -0.2617
  716MOL0     C98707  10.966  12.225   9.171  1.0734  0.2384  0.4312
  716MOL0     C98708  10.819  12.258   9.167 -0.0546 -0.3562 -0.1882
  716MOL0     C98709  10.782  12.355   9.285  0.0756  0.2672  0.2228
  716MOL0     C98710  10.633  12.403   9.253 -0.2252  0.3503 -0.5564
  716MOL0     C98711  10.561  12.478   9.366 -0.0816 -0.0438  1.1044
  716MOL0     C98712  10.424  12.534   9.326  0.0503  0.2821 -0.8139
  716MOL0     C98713  10.419  12.650   9.226 -0.3569 -0.5835  0.0588
  716MOL0     C98714  10.526  12.761   9.240 -0.2552 -0.3122  0.0056
  716MOL0    Cl98715  10.487  12.892   9.114 -0.1689 -0.0461 -0.0958
  716MOL0     C98716  11.132  12.003   8.933 -0.3092 -0.8492 -0.5038
  716MOL0     C98717  11.251  11.942   8.913  0.2515 -0.2925 -0.2427
  716MOL0     O98718  11.539  12.101   8.970 -0.0015  0.0216 -0.3008
  716MOL0     C98719  11.798  11.894   8.923  0.5802 -0.0804  1.2974
  716MOL0     C98720  11.934  11.877   8.952  0.1193  0.0965 -0.0433
  716MOL0     N98721  12.256  11.484   8.679  0.1736 -0.0918  0.1291
  716MOL0     N98722  12.186  11.453   8.568 -0.3761 -0.4355 -0.2202
  716MOL0     C98723  11.318  10.985   8.075 -0.3988 -0.1508  1.0859
  716MOL0     C98724  11.194  11.034   8.046 -0.4436  0.0810 -0.0687
  716MOL0     C98725  10.877  11.390   8.008  0.3595 -0.5643 -0.2721
  716MOL0     C98726  10.849  11.514   8.070  0.3812  0.3118  0.9829
  716MOL0     C98727  10.746  11.598   8.032 -0.1370  0.2656 -0.0839
  716MOL0     C98728  10.661  11.557   7.931 -0.0459  0.3472 -0.5500
  716MOL0     O98729  10.564  11.643   7.883  0.1167  0.6938  0.2731
  716MOL0     C98730  10.535  11.766   7.944  0.1425  0.3367  0.0501
  716MOL0     C98731  10.461  11.745   8.081  0.7943 -0.7742  0.8008
  716MOL0     C98732  10.344  11.641   8.058  0.8873  0.3798 -0.3599
  716MOL0     C98733  10.251  11.658   7.937  0.8757 -0.2867 -0.2135
  716MOL0     C98734  10.211  11.793   7.925  0.3121 -0.7498 -0.5918
  716MOL0     C98735  10.182  11.911   7.928  0.7981 -0.3286 -0.1217
  716MOL0     C98736  10.677  11.432   7.876 -0.2283 -0.4206  0.3080
  716MOL0     C98737  10.790  11.355   7.903  0.7226  0.3836 -1.0452
  716MOL0     C98738  10.792  11.223   7.843 -0.1157 -0.2806  0.6598
  716MOL0     H98739  11.283  11.343   7.936 -0.5169  0.5078  1.3017
  716MOL0     H98740  11.511  11.240   7.971 -0.1201 -0.0081  0.8038
  716MOL0     H98741  11.561  10.820   8.105  0.5303  1.4031 -1.6173
  716MOL0     H98742  11.501  10.903   8.256  0.1802  2.2154 -0.2782
  716MOL0     H98743  11.746  10.789   8.256  2.3211  1.0054  0.3567
  716MOL0     H98744  11.785  10.934   8.170  0.1930 -1.4932 -1.0399
  716MOL0     H98745  11.659  11.044   8.391 -1.4568 -0.5203  0.1073
  716MOL0     H98746  11.650  10.887   8.442 -0.8566 -0.2016 -1.9833
  716MOL0     H98747  11.889  10.857   8.462 -0.6532 -1.4310 -0.6127
  716MOL0     H98748  11.921  11.001   8.375  1.1513 -0.7068  1.2027
  716MOL0     H98749  11.932  11.035   8.633 -1.7037  5.2542  2.0304
  716MOL0     H98750  11.770  10.995   8.646  0.4792  0.6351  1.1809
  716MOL0     H98751  11.725  11.236   8.539  0.1338 -1.5078 -0.8931
  716MOL0     H98752  11.826  11.230   8.680 -1.1029  0.1072 -0.1056
  716MOL0     H98753  11.878  11.256   8.379  0.7695 -0.0787 -0.0204
  716MOL0     H98754  12.026  11.226   8.479  0.1509  0.8860  0.9248
  716MOL0     H98755  11.960  11.457   8.413  0.2033 -0.7334 -1.2132
  716MOL0     H98756  11.844  11.454   8.540  0.7628 -1.7465  2.3941
  716MOL0     H98757  11.946  11.414   8.783 -1.1522  2.2399 -0.8418
  716MOL0     H98758  12.291  11.423   8.941 -1.1272  2.3613  1.2455
  716MOL0     H98759  12.134  11.382   8.992 -1.7110 -0.8958 -1.4314
  716MOL0     H98760  12.248  11.657   8.958  1.2849 -2.2975  0.3039
  716MOL0     H98761  12.074  11.639   8.944 -1.5371 -2.3708  1.2380
  716MOL0     H98762  12.051  11.549   9.160  0.2253  1.0663  1.2647
  716MOL0     H98763  12.211  11.534   9.206  0.1741  0.2002  0.7601
  716MOL0     H98764  12.107  11.755   9.292 -0.7632  1.0778  0.3318
  716MOL0     H98765  12.262  11.769   9.198  0.6779 -0.7729 -3.7538
  716MOL0     H98766  11.949  11.961   9.273  1.5713 -1.4539  0.2686
  716MOL0     H98767  11.624  12.120   9.227  2.1752  1.7582 -0.3339
  716MOL0     H98768  11.759  12.067   9.332  3.8432 -1.3287 -3.8008
  716MOL0     H98769  11.628  11.960   9.315  0.7004  1.2178  2.8928
  716MOL0     H98770  11.395  12.001   9.223 -1.9725 -0.0919  2.9435
  716MOL0     H98771  11.180  12.103   9.259  0.9062 -0.8320  0.9289
  716MOL0     H98772  10.978  12.183   9.271 -1.8342 -2.1902 -0.0811
  716MOL0     H98773  11.033  12.309   9.150  1.2195 -0.0204 -0.1411
  716MOL0     H98774  10.797  12.294   9.066 -2.0894  0.6982  0.5928
  716MOL0     H98775  10.758  12.168   9.178 -0.8847  0.3310  1.1227
  716MOL0     H98776  10.848  12.441   9.277  0.1930  0.2007  0.4547
  716MOL0     H98777  10.799  12.316   9.386  1.7025  1.0031  0.2729
  716MOL0     H98778  10.574  12.314   9.227  1.0722 -0.8722  0.4550
  716MOL0     H98779  10.629  12.474   9.171 -2.5643  0.6001 -0.2688
  716MOL0     H98780  10.549  12.414   9.454  2.7678  1.6608  2.9067
  716MOL0     H98781  10.626  12.560   9.397 -0.5209 -0.0506  2.0835
  716MOL0     H98782  10.374  12.573   9.415 -0.1304  0.8629 -1.1681
  716MOL0     H98783  10.375  12.449   9.277 -3.3712  1.6677 -0.1099
  716MOL0     H98784  10.318  12.692   9.227  0.9151  2.8697 -0.6835
  716MOL0     H98785  10.429  12.608   9.125 -0.4226  2.9228 -1.5422
  716MOL0     H98786  10.622  12.721   9.205 -0.1200  1.5950 -1.9975
  716MOL0     H98787  10.528  12.796   9.343  2.0648 -1.4116  0.4071
  716MOL0     H98788  11.066  12.007   8.848 -0.7375  0.5882 -0.1232
  716MOL0     H98789  11.280  11.918   8.811 -0.0366  1.2203 -0.7054
  716MOL0     H98790  11.762  11.883   8.821  1.2163  0.2428  1.0294
  716MOL0     H98791  11.998  11.828   8.879 -1.4183 -1.5309 -0.3754
  716MOL0     H98792  11.320  10.880   8.101 -0.9845 -0.3426  0.3874
  716MOL0     H98793  11.108  10.970   8.064  0.1397 -1.0595 -1.1846
  716MOL0     H98794  10.922  11.546   8.144  0.8651  0.2364  0.5417
  716MOL0     H98795  10.755  11.696   8.076  3.7059 -1.3733  3.4906
  716MOL0     H98796  10.626  11.826   7.951  0.9782 -1.0845  4.7384
  716MOL0     H98797  10.469  11.818   7.874  2.1057  2.5337 -0.2905
  716MOL0     H98798  10.423  11.841   8.118 -0.7669 -0.3644 -1.6580
  716MOL0     H98799  10.522  11.704   8.162  2.8072  3.3422  1.6008
  716MOL0     H98800  10.388  11.544   8.034 -1.2899 -0.3670 -1.6288
  716MOL0     H98801  10.286  11.628   8.149 -0.3944  1.5021 -0.9822
  716MOL0     H98802  10.162  11.594   7.946 -0.1597  1.3703  3.0305
  716MOL0     H98803  10.311  11.632   7.850  0.7739  0.0494 -0.3841
  716MOL0     H98804  10.158  12.015   7.940  2.7564  0.8003 -4.0843
  716MOL0     H98805  10.607  11.404   7.798 -0.9415 -1.2953  1.2500
  716MOL0     H98806  10.808  11.148   7.920 -0.0228 -1.0148 -0.0623
  716MOL0     H98807  10.706  11.194   7.781  1.4199  1.2265 -2.4493
  716MOL0     H98808  10.877  11.219   7.774  0.9279  0.6710  1.8341
  717MOL0     O98809   8.808   6.730   8.767 -0.4545  0.1160  0.2811
  717MOL0     C98810   8.762   6.662   8.672 -0.1127  0.6041 -0.9849
  717MOL0     O98811   8.829   6.563   8.615  0.2623  0.1889 -0.3938
  717MOL0     C98812   8.965   6.557   8.597 -0.3173 -0.4153 -0.9650
  717MOL0     C98813   9.058   6.654   8.628 -0.2865 -0.1601  0.2766
  717MOL0     C98814   9.199   6.626   8.610  0.5818  0.0557  0.6306
  717MOL0     C98815   9.242   6.505   8.560  0.3263  0.7436 -0.8404
  717MOL0     O98816   9.374   6.475   8.556  0.4168 -1.0996 -0.8643
  717MOL0     C98817   9.413   6.380   8.658 -0.6886 -0.8990  0.1508
  717MOL0     C98818   9.525   6.291   8.598 -0.3168  0.1741 -1.4465
  717MOL0     C98819   9.665   6.355   8.577 -0.0483 -0.0832  0.4685
  717MOL0     C98820   9.754   6.249   8.518 -0.3158  0.1091  0.9266
  717MOL0     C98821   9.886   6.304   8.462 -0.1709 -0.4147  0.3628
  717MOL0     C98822   9.969   6.345   8.588  0.0433 -0.3928  0.3587
  717MOL0     C98823  10.096   6.417   8.551 -0.1616  0.0496 -0.2977
  717MOL0     C98824  10.194   6.427   8.668  0.3964  0.0517  0.4526
  717MOL0     N98825  10.307   6.514   8.630  0.1016  0.2349  0.9600
  717MOL0     C98826  10.396   6.500   8.520 -0.9003 -0.4645 -0.6688
  717MOL0     C98827  10.497   6.588   8.538  0.1026  0.4833  0.3682
  717MOL0     C98828  10.615   6.594   8.445  0.8452 -0.1031 -0.1948
  717MOL0     C98829  10.695   6.727   8.466 -1.0673  0.1222  0.0122
  717MOL0     C98830  10.782   6.719   8.585 -0.5101  0.3207 -0.3813
  717MOL0     C98831  10.856   6.846   8.599 -1.0812 -0.0089  0.1956
  717MOL0     O98832  10.929   6.881   8.477 -0.5630 -0.2321 -0.1335
  717MOL0     C98833  11.056   6.834   8.447 -0.5801 -0.5652 -0.7918
  717MOL0     C98834  11.117   6.720   8.497 -0.3911 -0.0883  0.0605
  717MOL0     C98835  11.245   6.676   8.465 -0.0543 -0.8851  0.0381
  717MOL0     C98836  11.287   6.539   8.531 -0.5693 -0.4705 -0.4213
  717MOL0     C98837  11.318   6.755   8.374  0.8868  0.3396  0.2888
  717MOL0     C98838  11.468   6.729   8.349 -0.1099 -0.1655 -0.6275
  717MOL0     O98839  11.552   6.834   8.329  0.2899 -0.4242  0.0576
  717MOL0     C98840  11.687   6.805   8.325 -0.2498  0.2820 -0.0998
  717MOL0     C98841  11.764   6.879   8.416  0.2491  0.8561  0.0408
  717MOL0     C98842  11.905   6.867   8.425 -0.4878  0.5734  0.0597
  717MOL0     C98843  11.971   6.769   8.344  0.9860  0.0227  0.0796
  717MOL0     O98844  12.104   6.722   8.356 -0.0083 -0.3305  0.3892
  717MOL0     C98845  12.172   6.740   8.475 -0.4086 -0.4260 -0.1295
  717MOL0     C98846  12.261   6.869   8.460 -0.5799 -0.8178 -0.5318
  717MOL0     C98847  12.406   6.861   8.522 -0.1746  0.0719 -0.4559
  717MOL0     C98848  12.399   6.878   8.671 -0.2603  0.6212  0.3097
  717MOL0     C98849  12.546   6.870   8.740  1.0159  0.0502 -0.0137
  717MOL0     C98850  12.523   6.922   8.880 -0.5931  0.5010 -0.2277
  717MOL0     C98851  12.664   6.956   8.937 -0.2741  0.0514 -0.6417
  717MOL0     C98852  12.719   7.094   8.897  0.1565  1.2079  0.0612
  717MOL0    Cl98853  12.823   7.179   8.999  0.4660  1.0435 -0.0096
  717MOL0     C98854  11.883   6.698   8.257 -0.2710 -0.2436  0.0854
  717MOL0     C98855  11.751   6.716   8.240  0.7409 -0.4417 -0.4661
  717MOL0     O98856  11.500   6.608   8.336  0.1286  0.2355  0.0539
  717MOL0     C98857  11.264   6.869   8.314 -0.3430  0.5224 -0.4051
  717MOL0     C98858  11.132   6.904   8.350  0.4340  0.1561  0.2141
  717MOL0     N98859  10.469   6.657   8.653 -0.0159  0.7897 -0.0075
  717MOL0     N98860  10.350   6.623   8.696  0.3662 -0.1316  0.6392
  717MOL0     C98861   9.146   6.406   8.537 -0.5781  0.3519 -0.4086
  717MOL0     C98862   9.011   6.432   8.549  0.6308 -0.0073 -0.2094
  717MOL0     C98863   8.621   6.697   8.621 -0.2083 -1.0137 -0.1513
  717MOL0     C98864   8.552   6.784   8.707  0.2945  0.8225 -0.0420
  717MOL0     C98865   8.416   6.821   8.678  0.8305  0.0294  0.3093
  717MOL0     C98866   8.361   6.794   8.559 -0.3303  0.0041 -0.0384
  717MOL0     O98867   8.241   6.845   8.516 -0.4549  0.5472  0.2002
  717MOL0     C98868   8.148   6.916   8.602 -0.2649  0.0123 -0.0427
  717MOL0     C98869   8.023   6.942   8.527  0.1242 -0.0404  0.3671
  717MOL0     C98870   7.928   6.812   8.502  0.2978  0.0487  0.1900
  717MOL0     C98871   7.808   6.847   8.421  0.4689 -0.6567  0.1735
  717MOL0     C98872   7.721   6.953   8.472 -0.3000  0.2354  0.5099
  717MOL0     C98873   7.646   7.029   8.520  0.1047 -0.3468 -0.5035
  717MOL0     C98874   8.427   6.710   8.466  0.0530 -1.3319 -0.5958
  717MOL0     C98875   8.557   6.659   8.498 -0.7132  0.0476 -0.2336
  717MOL0     C98876   8.631   6.581   8.395 -0.2312  0.4046 -0.6068
  717MOL0     H98877   9.048   6.757   8.663  2.4728 -0.0346  0.8953
  717MOL0     H98878   9.277   6.697   8.636 -1.3283  3.4448 -1.9860
  717MOL0     H98879   9.331   6.315   8.690 -1.6032  1.2555  2.3790
  717MOL0     H98880   9.443   6.436   8.747 -0.1879  0.2645 -0.7224
  717MOL0     H98881   9.532   6.220   8.681  1.7842  1.0932 -0.7736
  717MOL0     H98882   9.502   6.239   8.505 -0.1147  0.3607 -1.6016
  717MOL0     H98883   9.662   6.442   8.510 -0.1322 -0.1935  0.3280
  717MOL0     H98884   9.711   6.385   8.672  1.1236 -3.4756  1.0975
  717MOL0     H98885   9.777   6.174   8.594  1.3758  0.8885  1.2416
  717MOL0     H98886   9.706   6.190   8.440 -0.7951  0.5346  0.8960
  717MOL0     H98887   9.873   6.387   8.392 -1.6074  0.6474  1.7943
  717MOL0     H98888   9.942   6.228   8.407  2.1174  2.9599 -2.3650
  717MOL0     H98889   9.909   6.412   8.650 -0.5430  0.5820 -1.1945
  717MOL0     H98890   9.994   6.253   8.641  0.2610  0.5277  1.9017
  717MOL0     H98891  10.059   6.519   8.532 -2.4333 -0.7640 -0.5104
  717MOL0     H98892  10.138   6.377   8.458 -2.4669  1.0980 -1.8971
  717MOL0     H98893  10.152   6.466   8.761  1.2356  0.7282  0.5625
  717MOL0     H98894  10.239   6.332   8.698  0.5200 -0.2984 -0.7893
  717MOL0     H98895  10.387   6.430   8.437  0.4383 -0.3445 -0.9319
  717MOL0     H98896  10.577   6.606   8.343 -0.2323  0.3329  0.2381
  717MOL0     H98897  10.676   6.504   8.457 -1.6893 -1.9687 -0.2891
  717MOL0     H98898  10.754   6.738   8.374  0.3796  3.3178  1.1695
  717MOL0     H98899  10.626   6.812   8.467 -2.3201 -0.8786  0.2743
  717MOL0     H98900  10.722   6.706   8.676  1.3608  0.8379  0.9840
  717MOL0     H98901  10.842   6.627   8.583 -2.6741 -1.2125  0.8925
  717MOL0     H98902  10.789   6.931   8.620  1.8295  2.0163  2.0156
  717MOL0     H98903  10.923   6.844   8.685  1.8806  2.2756 -1.8262
  717MOL0     H98904  11.068   6.669   8.579  1.0869 -1.1185  0.3543
  717MOL0     H98905  11.196   6.490   8.567 -1.3180  3.1410  3.3318
  717MOL0     H98906  11.355   6.569   8.612  0.8655  1.0197 -2.0930
  717MOL0     H98907  11.346   6.469   8.471  0.2005 -2.4027  2.3729
  717MOL0     H98908  11.719   6.941   8.492 -0.1836  1.6322 -0.8272
  717MOL0     H98909  11.956   6.940   8.487 -0.0042 -0.1304  0.5057
  717MOL0     H98910  12.108   6.749   8.563 -0.7431 -2.0323 -0.1901
  717MOL0     H98911  12.238   6.654   8.492  3.4766  2.1670 -0.6685
  717MOL0     H98912  12.280   6.881   8.353 -0.6252  0.2382 -0.4364
  717MOL0     H98913  12.211   6.961   8.491  0.0441 -0.5873 -0.1695
  717MOL0     H98914  12.472   6.933   8.473 -0.6369 -0.5269 -2.0380
  717MOL0     H98915  12.450   6.763   8.504 -0.3336 -0.3355  1.2093
  717MOL0     H98916  12.337   6.795   8.704 -0.1870  0.0094 -1.0171
  717MOL0     H98917  12.354   6.976   8.691  1.8484  2.4426 -2.8073
  717MOL0     H98918  12.582   6.766   8.737 -2.7488 -1.4789  1.7646
  717MOL0     H98919  12.625   6.929   8.693 -0.2810  0.8465 -1.2510
  717MOL0     H98920  12.464   6.850   8.938  0.3734 -1.6320 -1.7628
  717MOL0     H98921  12.475   7.019   8.870 -1.4786  0.0760 -0.1668
  717MOL0     H98922  12.729   6.872   8.910  0.1203 -0.7542  2.3420
  717MOL0     H98923  12.656   6.949   9.046 -0.3023  3.1011 -0.3707
  717MOL0     H98924  12.634   7.155   8.863 -0.1418  1.9812  2.0927
  717MOL0     H98925  12.780   7.074   8.808  0.1334  2.4186 -0.2466
  717MOL0     H98926  11.931   6.633   8.184 -0.2340  2.9262 -2.9595
  717MOL0     H98927  11.705   6.667   8.155 -2.2956 -0.8354  1.2630
  717MOL0     H98928  11.321   6.926   8.242  0.0373 -0.9256 -1.2907
  717MOL0     H98929  11.080   6.987   8.302  1.0947 -0.5459 -1.8073
  717MOL0     H98930   9.189   6.309   8.516 -0.0443  0.2253  1.1597
  717MOL0     H98931   8.942   6.350   8.533 -0.5395  1.1105 -1.0891
  717MOL0     H98932   8.597   6.815   8.800 -0.6668  1.5418  0.2028
  717MOL0     H98933   8.374   6.895   8.746  0.0886  0.4999 -0.6366
  717MOL0     H98934   8.126   6.856   8.691 -4.7007 -1.7541 -2.0285
  717MOL0     H98935   8.197   7.008   8.636  1.1588 -1.7721  3.2350
  717MOL0     H98936   8.056   6.980   8.429  0.9122  0.2849  0.7463
  717MOL0     H98937   7.960   7.020   8.570 -0.8104 -0.4550 -0.2289
  717MOL0     H98938   7.980   6.727   8.457  2.7901  2.0900 -1.0237
  717MOL0     H98939   7.899   6.776   8.601 -0.5688  2.6503  0.9941
  717MOL0     H98940   7.752   6.756   8.396 -0.8419  0.2098 -0.1974
  717MOL0     H98941   7.829   6.893   8.324 -2.1688  1.8237  0.6137
  717MOL0     H98942   7.566   7.087   8.560  1.0000 -0.0734  0.9701
  717MOL0     H98943   8.381   6.698   8.368 -1.7332 -4.0113  0.4682
  717MOL0     H98944   8.634   6.476   8.425 -0.4563 -0.5973 -3.7039
  717MOL0     H98945   8.589   6.615   8.299 -3.6008  2.7443  1.4585
  717MOL0     H98946   8.731   6.624   8.396  0.1368 -0.4390 -0.2644
  718MOL0     O98947   6.525   1.032   6.080 -0.1818  0.1340 -0.3337
  718MOL0     C98948   6.448   1.039   6.179 -0.0837  0.0725  0.6858
  718MOL0     O98949   6.424   1.151   6.249  0.2990  0.4068 -0.1616
  718MOL0     C98950   6.508   1.262   6.250  0.2651  0.6190  0.3048
  718MOL0     C98951   6.640   1.260   6.219 -0.9443 -0.4223 -0.6016
  718MOL0     C98952   6.716   1.383   6.249  1.2389  0.3576  0.4472
  718MOL0     C98953   6.648   1.506   6.293 -1.1150 -0.1931 -0.3728
  718MOL0     O98954   6.704   1.632   6.315 -0.3415  0.4910 -0.0040
  718MOL0     C98955   6.825   1.658   6.240  0.1987 -0.4124 -0.2343
  718MOL0     C98956   6.821   1.810   6.220 -0.5026  0.2826  0.5033
  718MOL0     C98957   6.938   1.843   6.130 -0.8064 -0.7587  0.0967
  718MOL0     C98958   7.046   1.909   6.216 -0.6970  0.5844 -0.4946
  718MOL0     C98959   7.169   1.946   6.129  0.5615  0.0249 -0.2905
  718MOL0     C98960   7.136   2.021   6.002 -0.3062 -0.0063 -0.4852
  718MOL0     C98961   7.255   2.108   5.960 -0.1995  1.0835 -0.0974
  718MOL0     C98962   7.235   2.156   5.820 -0.6020 -0.6262  0.3305
  718MOL0     N98963   7.334   2.256   5.777 -0.0411 -0.4785 -0.3492
  718MOL0     C98964   7.332   2.395   5.790  0.4994 -0.0433  1.3070
  718MOL0     C98965   7.452   2.440   5.741  0.4148  0.2971 -0.2272
  718MOL0     C98966   7.502   2.574   5.717  0.0778 -0.4979 -0.9791
  718MOL0     C98967   7.603   2.620   5.821  0.5750  0.1042 -0.7875
  718MOL0     C98968   7.691   2.731   5.755  0.0846  0.6372  0.3228
  718MOL0     C98969   7.801   2.766   5.845  0.3034  0.8825 -0.7808
  718MOL0     O98970   7.901   2.664   5.857  0.5356 -0.1712  0.0342
  718MOL0     C98971   8.028   2.712   5.901 -0.0347 -0.2292  0.6051
  718MOL0     C98972   8.142   2.646   5.854  0.1721  0.0877 -0.4727
  718MOL0     C98973   8.273   2.693   5.879  0.8301 -0.4714 -0.8124
  718MOL0     C98974   8.386   2.605   5.871  0.1507 -0.4219  0.1576
  718MOL0     C98975   8.295   2.804   5.950 -0.0570 -0.2197 -0.9667
  718MOL0     C98976   8.426   2.878   5.962 -0.1155  0.6306  0.6646
  718MOL0     O98977   8.508   2.890   5.856  0.6500 -0.2487  0.2198
  718MOL0     C98978   8.625   2.954   5.881 -0.7189  0.2813  0.5879
  718MOL0     C98979   8.738   2.877   5.907  0.5158  0.0004  0.5125
  718MOL0     C98980   8.871   2.930   5.936  0.3227  0.5864  0.2889
  718MOL0     C98981   8.887   3.066   5.940 -0.4443 -0.1222  1.1577
  718MOL0     O98982   9.003   3.119   5.982 -0.1950 -0.1739  0.5433
  718MOL0     C98983   8.987   3.202   6.090 -0.3997 -0.1552  0.4307
  718MOL0     C98984   9.119   3.189   6.169 -0.6519  0.2293 -0.3236
  718MOL0     C98985   9.235   3.261   6.101 -0.2001  0.8186  0.0750
  718MOL0     C98986   9.338   3.303   6.202 -0.4027 -0.5523  0.0684
  718MOL0     C98987   9.421   3.187   6.260 -0.0500  0.3789  0.2188
  718MOL0     C98988   9.529   3.234   6.354  0.4372 -0.6698 -0.0176
  718MOL0     C98989   9.604   3.114   6.422 -0.0191 -0.5192 -0.0753
  718MOL0     C98990   9.723   3.162   6.506  0.2143 -0.0653  0.4977
  718MOL0    Cl98991   9.802   3.023   6.582  0.4237  0.5810 -0.0080
  718MOL0     C98992   8.783   3.149   5.894 -0.4977 -0.7104 -0.7140
  718MOL0     C98993   8.653   3.089   5.872  0.5631 -0.2963  0.4512
  718MOL0     O98994   8.442   2.930   6.067  0.3251 -0.5104  0.2417
  718MOL0     C98995   8.181   2.880   5.991 -0.5246  1.1368 -0.0246
  718MOL0     C98996   8.052   2.833   5.974 -0.5047  0.2456 -0.2259
  718MOL0     N98997   7.529   2.323   5.708  0.3117 -0.8605  0.4144
  718MOL0     N98998   7.458   2.223   5.718 -0.2227  0.3500 -0.4789
  718MOL0     C98999   6.515   1.494   6.314  1.0667 -0.5445  0.2964
  718MOL0     C99000   6.447   1.373   6.289 -0.0090  0.1688  0.6988
  718MOL0     C99001   6.355   0.933   6.187  0.9040 -0.0388  0.1061
  718MOL0     C99002   6.211   0.957   6.202 -0.7950  0.1475 -0.2886
  718MOL0     C99003   6.119   0.854   6.217  0.8224 -0.5719 -0.1854
  718MOL0     C99004   6.163   0.724   6.201 -0.4203 -0.5003  0.5487
  718MOL0     O99005   6.088   0.605   6.212 -0.6210 -0.4875  0.8457
  718MOL0     C99006   5.973   0.607   6.297 -0.0454  0.2961 -0.6339
  718MOL0     C99007   5.839   0.646   6.215 -0.7297 -0.3204 -0.3736
  718MOL0     C99008   5.813   0.535   6.113 -0.1434  0.7005  0.2573
  718MOL0     C99009   5.764   0.404   6.173  0.5388 -0.8109 -0.6795
  718MOL0     C99010   5.638   0.429   6.245 -0.7157  0.3614 -0.7525
  718MOL0     C99011   5.545   0.468   6.305  0.9243  0.7713 -0.1773
  718MOL0     C99012   6.300   0.699   6.195 -0.1660  0.7614  0.1612
  718MOL0     C99013   6.399   0.800   6.183  0.2320 -0.5062 -0.4399
  718MOL0     C99014   6.543   0.760   6.175 -0.1174 -0.7479 -0.7549
  718MOL0     H99015   6.690   1.174   6.177  2.1522  0.2423  1.3637
  718MOL0     H99016   6.823   1.367   6.243  1.1637  0.0117 -0.0095
  718MOL0     H99017   6.823   1.606   6.144  1.9636 -0.4026 -0.2987
  718MOL0     H99018   6.916   1.641   6.298 -0.8848  0.8147  1.9537
  718MOL0     H99019   6.722   1.845   6.189  0.2135  0.8378 -1.2490
  718MOL0     H99020   6.823   1.857   6.319  0.4210  0.8118  0.2440
  718MOL0     H99021   6.987   1.755   6.087 -0.2556  0.0232 -0.9116
  718MOL0     H99022   6.902   1.899   6.043  1.7457 -0.3524 -0.7807
  718MOL0     H99023   7.018   2.006   6.259 -0.4974  1.0507 -1.3850
  718MOL0     H99024   7.073   1.849   6.303 -0.8618  0.9996 -0.1519
  718MOL0     H99025   7.239   1.864   6.111  0.0313 -0.5479  0.1923
  718MOL0     H99026   7.225   2.014   6.194  1.2086  0.3241 -1.1488
  718MOL0     H99027   7.105   1.946   5.928  0.6974 -2.3296  1.3295
  718MOL0     H99028   7.051   2.088   6.017  1.3886  2.7238 -2.2452
  718MOL0     H99029   7.342   2.041   5.967 -2.4481 -1.9924  0.4751
  718MOL0     H99030   7.266   2.195   6.025  1.9598  0.8137 -0.0100
  718MOL0     H99031   7.244   2.076   5.746 -0.6495  1.0867 -1.6482
  718MOL0     H99032   7.136   2.201   5.822  0.1623  1.2630  4.1606
  718MOL0     H99033   7.254   2.461   5.827  0.8049 -0.0623  1.9996
  718MOL0     H99034   7.421   2.647   5.730 -0.5155 -1.6827  4.9247
  718MOL0     H99035   7.538   2.598   5.617  0.6737  1.0369 -0.4341
  718MOL0     H99036   7.554   2.654   5.914  1.3475 -0.4901 -0.1514
  718MOL0     H99037   7.667   2.536   5.848  0.2565  0.1237  0.0626
  718MOL0     H99038   7.724   2.681   5.663  0.4005 -1.7515  1.6525
  718MOL0     H99039   7.625   2.815   5.731  0.0276  1.4048  2.8808
  718MOL0     H99040   7.853   2.851   5.801  2.2067  0.5967  0.7496
  718MOL0     H99041   7.764   2.801   5.942  0.2653  1.3078 -0.9467
  718MOL0     H99042   8.130   2.555   5.797 -1.3413 -0.8211  1.1686
  718MOL0     H99043   8.470   2.636   5.807 -0.7612  0.2740 -0.7390
  718MOL0     H99044   8.354   2.510   5.829 -0.0716  0.2337 -1.2132
  718MOL0     H99045   8.433   2.581   5.967  0.0225 -3.0378 -0.3616
  718MOL0     H99046   8.717   2.770   5.902 -0.2216 -0.0798  3.3895
  718MOL0     H99047   8.945   2.853   5.956 -0.3714 -0.0017  0.6838
  718MOL0     H99048   8.967   3.307   6.069  0.6690 -0.1913 -0.8608
  718MOL0     H99049   8.906   3.167   6.156 -1.0959 -2.4334 -1.4759
  718MOL0     H99050   9.096   3.234   6.266 -0.5856 -0.1510 -0.1345
  718MOL0     H99051   9.152   3.086   6.181 -0.1838  0.4804  0.6500
  718MOL0     H99052   9.190   3.354   6.068  1.0552  3.0674  3.9707
  718MOL0     H99053   9.261   3.200   6.014 -0.5962  1.5087 -0.5258
  718MOL0     H99054   9.276   3.360   6.272 -0.9566 -1.2954  0.2002
  718MOL0     H99055   9.406   3.370   6.148 -0.0612 -0.1567  0.9702
  718MOL0     H99056   9.353   3.122   6.316  1.2020 -1.9291 -0.8109
  718MOL0     H99057   9.465   3.128   6.179  1.3005  0.2226  1.0385
  718MOL0     H99058   9.486   3.301   6.429 -0.0488 -0.2147 -0.6919
  718MOL0     H99059   9.600   3.289   6.291  3.1758 -3.5011  0.3342
  718MOL0     H99060   9.653   3.047   6.350 -2.5213 -0.5212 -1.8966
  718MOL0     H99061   9.537   3.052   6.481  0.9171 -1.3145  0.1837
  718MOL0     H99062   9.702   3.237   6.582 -0.4883 -1.1541  1.3981
  718MOL0     H99063   9.795   3.197   6.431 -0.4170  1.5242  0.6026
  718MOL0     H99064   8.796   3.257   5.893 -0.2575 -0.7038  0.5306
  718MOL0     H99065   8.578   3.157   5.831  0.0623 -2.4808 -2.6938
  718MOL0     H99066   8.183   2.970   6.052  2.4426  3.2683 -2.9034
  718MOL0     H99067   7.971   2.895   6.011 -0.6036  0.2207 -0.3973
  718MOL0     H99068   6.462   1.582   6.349 -1.2731 -1.7993  0.1193
  718MOL0     H99069   6.341   1.354   6.299 -0.3256  1.3175 -0.2256
  718MOL0     H99070   6.184   1.058   6.227  3.7916  2.3726 -2.9887
  718MOL0     H99071   6.017   0.877   6.245  0.5167 -2.5575  0.5234
  718MOL0     H99072   5.951   0.514   6.351  0.3904  1.0481  0.8838
  718MOL0     H99073   5.983   0.680   6.378 -1.3588  0.7319 -0.8381
  718MOL0     H99074   5.849   0.736   6.154 -1.8260  0.4837  0.5917
  718MOL0     H99075   5.755   0.668   6.281 -0.2558  0.3462  0.0160
  718MOL0     H99076   5.740   0.563   6.037 -1.9449 -1.2231  1.1700
  718MOL0     H99077   5.908   0.518   6.060  1.5450  3.8761  1.9483
  718MOL0     H99078   5.830   0.356   6.246 -1.8748 -2.3184  0.6758
  718MOL0     H99079   5.741   0.333   6.093  1.1745  0.9626 -2.5169
  718MOL0     H99080   5.466   0.509   6.365  1.8460  0.6051  1.2189
  718MOL0     H99081   6.334   0.597   6.187  0.7315  1.1950 -3.6157
  718MOL0     H99082   6.560   0.655   6.201  0.2049 -0.1368  1.6975
  718MOL0     H99083   6.574   0.766   6.070 -0.0928  0.1101 -0.7024
  718MOL0     H99084   6.595   0.827   6.243 -4.6907  2.1650  0.3584
  719MOL0     O99085   7.737   3.001   7.503  0.8675 -0.0008 -0.6167
  719MOL0     C99086   7.793   3.109   7.506 -1.0013  0.5841  0.3419
  719MOL0     O99087   7.730   3.225   7.484  0.2667 -0.1192  0.4938
  719MOL0     C99088   7.601   3.238   7.436 -0.5363 -0.4227 -0.5497
  719MOL0     C99089   7.515   3.309   7.521  0.1319  0.2559  0.9153
  719MOL0     C99090   7.385   3.334   7.485  0.4756  0.9899 -0.0004
  719MOL0     C99091   7.328   3.286   7.361 -0.2510 -0.1604 -0.6562
  719MOL0     O99092   7.208   3.328   7.309  0.1764 -0.1318 -0.8220
  719MOL0     C99093   7.104   3.361   7.416 -0.7715 -0.7083 -0.7483
  719MOL0     C99094   6.960   3.353   7.367  0.4241 -0.3839 -0.3893
  719MOL0     C99095   6.863   3.400   7.478  0.5750  0.5994 -0.4330
  719MOL0     C99096   6.725   3.445   7.425 -0.1163 -0.5294  0.3948
  719MOL0     C99097   6.629   3.342   7.365  0.2378  0.6566 -0.7853
  719MOL0     C99098   6.500   3.414   7.305 -0.3609 -0.2767 -1.4733
  719MOL0     C99099   6.444   3.345   7.182 -1.1519 -0.7009 -0.0803
  719MOL0     C99100   6.494   3.428   7.056  0.5527  0.5165  0.1787
  719MOL0     N99101   6.634   3.418   7.038  0.2302 -0.1267  0.5282
  719MOL0     C99102   6.713   3.300   7.011 -0.8207  0.0722 -0.5835
  719MOL0     C99103   6.846   3.354   7.003  0.2851  0.1794  0.3311
  719MOL0     C99104   6.973   3.281   6.958  0.6255 -0.1694 -0.3252
  719MOL0     C99105   7.103   3.358   6.972 -0.3046  0.2652 -0.5998
  719MOL0     C99106   7.126   3.453   6.850 -0.3507  0.3736 -0.2298
  719MOL0     C99107   7.267   3.492   6.832  0.1208 -0.4303  0.3342
  719MOL0     O99108   7.267   3.607   6.750 -0.2599 -0.4590 -0.1368
  719MOL0     C99109   7.392   3.662   6.731 -0.2932 -0.1641  0.7035
  719MOL0     C99110   7.406   3.763   6.632  0.2994  0.3166 -0.1450
  719MOL0     C99111   7.530   3.822   6.592  0.3682 -0.1308  0.3697
  719MOL0     C99112   7.519   3.923   6.482  0.2483 -1.0641 -0.6680
  719MOL0     C99113   7.647   3.793   6.668 -0.3783  0.2631  0.5925
  719MOL0     C99114   7.781   3.849   6.649  0.1695 -0.1937  1.0687
  719MOL0     O99115   7.835   3.903   6.765  0.1721  0.1800  0.0082
  719MOL0     C99116   7.970   3.934   6.754 -0.0286  0.1578 -0.4664
  719MOL0     C99117   8.076   3.846   6.709  0.7857 -0.1183 -0.6514
  719MOL0     C99118   8.210   3.883   6.714 -0.8685 -0.4720 -0.1532
  719MOL0     C99119   8.255   4.004   6.769 -0.8942 -0.3797 -0.2771
  719MOL0     O99120   8.389   4.032   6.761 -0.8284  0.6443  0.4121
  719MOL0     C99121   8.434   4.161   6.814 -0.3694 -0.8420 -0.0941
  719MOL0     C99122   8.590   4.175   6.808  0.0959 -0.2158  0.7316
  719MOL0     C99123   8.632   4.176   6.661 -0.0246  0.0651  0.1329
  719MOL0     C99124   8.788   4.220   6.653  0.6909 -0.1842  0.4147
  719MOL0     C99125   8.866   4.223   6.519  0.8260  0.2524 -0.7097
  719MOL0     C99126   8.854   4.072   6.450  0.0518 -0.8208  0.2992
  719MOL0     C99127   8.972   4.035   6.360  0.6516 -0.0873 -0.1667
  719MOL0     C99128   9.102   3.995   6.433  0.6460  0.5726 -0.8387
  719MOL0    Cl99129   9.202   4.152   6.440  0.1233 -0.0364 -0.1583
  719MOL0     C99130   8.147   4.091   6.821  0.0832 -1.1529  0.8337
  719MOL0     C99131   8.012   4.054   6.803 -0.0433 -0.0417 -0.6544
  719MOL0     O99132   7.831   3.843   6.538  0.1522 -0.4022 -0.3322
  719MOL0     C99133   7.629   3.699   6.772  0.7808 -0.2231  0.2967
  719MOL0     C99134   7.507   3.635   6.805  0.1615 -0.2392 -0.0295
  719MOL0     N99135   6.844   3.488   7.030 -0.5701 -0.0488 -0.3811
  719MOL0     N99136   6.725   3.521   7.058 -0.7000 -0.3083 -0.3096
  719MOL0     C99137   7.416   3.222   7.277  0.4532  0.2046 -0.2885
  719MOL0     C99138   7.556   3.206   7.307 -0.3406 -0.0712 -0.1933
  719MOL0     C99139   7.934   3.123   7.553 -0.3099  0.5393  0.3645
  719MOL0     C99140   7.960   3.216   7.655  0.2412 -1.9146 -0.3388
  719MOL0     C99141   8.085   3.226   7.717  1.1759  0.4953 -0.0735
  719MOL0     C99142   8.189   3.140   7.675  0.6083  0.0527 -0.1941
  719MOL0     O99143   8.326   3.143   7.715  0.9473 -0.3773  0.6367
  719MOL0     C99144   8.376   3.268   7.762 -0.1833  0.5718 -0.5357
  719MOL0     C99145   8.528   3.248   7.779  0.5385 -0.1357  0.1994
  719MOL0     C99146   8.592   3.368   7.856 -0.4616 -0.2488 -0.4384
  719MOL0     C99147   8.739   3.321   7.901 -0.5898  0.3985 -0.7706
  719MOL0     C99148   8.797   3.416   8.002 -0.0918 -0.7382 -0.1447
  719MOL0     C99149   8.863   3.496   8.068 -0.3249  0.0049 -0.3561
  719MOL0     C99150   8.165   3.045   7.581  0.5908 -0.1384  0.6535
  719MOL0     C99151   8.044   3.034   7.516  0.1168 -0.5790 -0.4251
  719MOL0     C99152   8.024   2.913   7.428 -0.1363  0.0266  0.0530
  719MOL0     H99153   7.551   3.338   7.619 -1.5941  0.1421  1.6161
  719MOL0     H99154   7.327   3.395   7.552  0.1303  0.5472  0.1130
  719MOL0     H99155   7.131   3.460   7.453  3.8339 -2.1309  0.3580
  719MOL0     H99156   7.112   3.286   7.495  2.8417  2.3419  2.0956
  719MOL0     H99157   6.949   3.419   7.281 -0.7786  2.2406  1.6317
  719MOL0     H99158   6.937   3.252   7.333 -1.7888 -0.8020  2.0189
  719MOL0     H99159   6.850   3.317   7.548  3.9518  0.7039  0.5192
  719MOL0     H99160   6.906   3.484   7.533  0.8344 -0.2430  0.6988
  719MOL0     H99161   6.673   3.496   7.507  0.1916  1.8113 -0.7963
  719MOL0     H99162   6.746   3.515   7.344 -3.6744 -0.5310 -0.6818
  719MOL0     H99163   6.610   3.260   7.436  0.1467  0.9619 -0.4526
  719MOL0     H99164   6.683   3.283   7.291  3.7188 -0.7682  2.5362
  719MOL0     H99165   6.424   3.431   7.382 -2.8319  0.3318 -3.8858
  719MOL0     H99166   6.520   3.521   7.290  3.3235 -0.1914  2.1128
  719MOL0     H99167   6.335   3.347   7.185 -1.1666  0.3576  3.4059
  719MOL0     H99168   6.472   3.240   7.173 -1.7042 -0.7414 -1.6736
  719MOL0     H99169   6.441   3.390   6.968 -0.9682 -3.3564  2.5079
  719MOL0     H99170   6.456   3.529   7.076  0.8705  0.8523 -0.8730
  719MOL0     H99171   6.690   3.196   6.990 -0.8927 -0.2313  0.8538
  719MOL0     H99172   6.966   3.240   6.857 -0.5251  3.7881 -2.0529
  719MOL0     H99173   6.982   3.193   7.022  1.2480 -0.8665 -1.3694
  719MOL0     H99174   7.110   3.415   7.064 -1.6843  0.4774 -0.6154
  719MOL0     H99175   7.182   3.282   6.976  2.8335  3.2261 -1.6507
  719MOL0     H99176   7.084   3.422   6.754  0.1368  0.7821 -0.5813
  719MOL0     H99177   7.068   3.544   6.870 -1.4643 -0.2064 -0.6997
  719MOL0     H99178   7.303   3.517   6.932  2.8390  5.1253 -1.6418
  719MOL0     H99179   7.317   3.407   6.786 -1.8685 -2.6357  1.9560
  719MOL0     H99180   7.314   3.787   6.580 -0.4726 -1.6379  0.2294
  719MOL0     H99181   7.419   3.965   6.470  0.1487 -0.1769  2.3688
  719MOL0     H99182   7.561   3.894   6.386  1.6419  1.2949 -0.8357
  719MOL0     H99183   7.590   4.003   6.501 -0.1979  0.0159 -3.1810
  719MOL0     H99184   8.052   3.750   6.666  1.2628 -0.7682  0.5016
  719MOL0     H99185   8.271   3.799   6.683  0.5372  0.9618 -1.4838
  719MOL0     H99186   8.389   4.245   6.760 -1.4304 -2.0326 -1.0942
  719MOL0     H99187   8.407   4.174   6.920  0.4148 -0.2624  0.0498
  719MOL0     H99188   8.633   4.270   6.841  0.2342  0.5079 -1.3861
  719MOL0     H99189   8.644   4.102   6.869  0.3057 -0.0895  0.6989
  719MOL0     H99190   8.567   4.229   6.591  0.4544  1.0766  0.4308
  719MOL0     H99191   8.632   4.077   6.613 -0.2216  0.5329 -0.8560
  719MOL0     H99192   8.852   4.168   6.725  1.2302 -1.2201 -0.7749
  719MOL0     H99193   8.794   4.326   6.682 -0.2796  0.2861 -0.9727
  719MOL0     H99194   8.829   4.292   6.442 -0.5236 -2.3851 -2.5708
  719MOL0     H99195   8.968   4.255   6.544  0.3569  1.2083  0.0691
  719MOL0     H99196   8.768   4.078   6.383  0.9056  0.1522 -0.7370
  719MOL0     H99197   8.827   3.995   6.523 -2.5548  0.5490  0.9033
  719MOL0     H99198   8.983   4.125   6.298 -2.4869 -0.1440 -1.0256
  719MOL0     H99199   8.952   3.955   6.288  2.6887 -0.1762 -0.6765
  719MOL0     H99200   9.160   3.916   6.385  3.4962  1.5346  0.7317
  719MOL0     H99201   9.077   3.956   6.533  0.4113 -0.7046 -1.3697
  719MOL0     H99202   8.164   4.194   6.854  1.0947  0.5067 -4.0988
  719MOL0     H99203   7.939   4.122   6.845 -1.0133 -2.4028  1.7640
  719MOL0     H99204   7.724   3.678   6.819 -0.5452  1.5833  4.2475
  719MOL0     H99205   7.507   3.564   6.887 -1.7613 -0.8043 -0.4815
  719MOL0     H99206   7.376   3.182   7.184 -0.7909 -0.3109  0.4358
  719MOL0     H99207   7.616   3.141   7.245  1.5314 -1.1485  2.5453
  719MOL0     H99208   7.885   3.287   7.688  0.7004 -1.3619 -0.4756
  719MOL0     H99209   8.106   3.303   7.790 -0.4649 -1.4628  2.6630
  719MOL0     H99210   8.364   3.346   7.687 -0.6257 -0.5406 -1.6464
  719MOL0     H99211   8.329   3.293   7.858  0.3752 -0.8842  0.1324
  719MOL0     H99212   8.564   3.233   7.677  1.7328 -1.9116  0.8447
  719MOL0     H99213   8.557   3.164   7.842  0.8561  1.5069  2.3698
  719MOL0     H99214   8.601   3.457   7.794  1.8484 -0.4610 -0.4854
  719MOL0     H99215   8.538   3.395   7.948  0.3994  0.9977 -0.2726
  719MOL0     H99216   8.807   3.319   7.816 -0.2560  0.9936 -0.5271
  719MOL0     H99217   8.730   3.222   7.947  3.4230 -0.3276 -1.1946
  719MOL0     H99218   8.915   3.564   8.133  2.4688 -1.5789 -0.7586
  719MOL0     H99219   8.249   2.985   7.550  0.1683 -0.3538 -0.0966
  719MOL0     H99220   8.092   2.909   7.342 -0.8342 -1.2427 -0.4760
  719MOL0     H99221   8.046   2.825   7.489 -0.9173  1.4095  2.4472
  719MOL0     H99222   7.920   2.912   7.393  0.1666  0.7741 -0.9136
  720MOL0     O99223   6.593   7.196   2.438 -0.3028  0.2091  0.2238
  720MOL0     C99224   6.551   7.081   2.444 -0.5673 -0.7664  0.4705
  720MOL0     O99225   6.623   6.971   2.481  0.4654 -0.3031  0.4131
  720MOL0     C99226   6.750   6.972   2.525  0.8939 -0.6868 -0.0012
  720MOL0     C99227   6.833   6.860   2.491  0.5005 -0.2072  0.3675
  720MOL0     C99228   6.962   6.843   2.551  0.5612 -0.1825  0.1865
  720MOL0     C99229   7.011   6.937   2.633 -0.7048 -0.0317 -0.4812
  720MOL0     O99230   7.136   6.911   2.696 -0.2782 -0.0536 -0.0859
  720MOL0     C99231   7.235   7.017   2.722  0.7742  0.1529  1.0676
  720MOL0     C99232   7.366   6.956   2.776  0.6852 -0.2374  0.0141
  720MOL0     C99233   7.437   6.886   2.660 -0.7984  0.1325 -0.0389
  720MOL0     C99234   7.563   6.816   2.723  0.8910  0.2108 -0.8261
  720MOL0     C99235   7.662   6.776   2.612  0.2501  0.7880  0.0805
  720MOL0     C99236   7.741   6.886   2.537  0.2414 -0.0572 -0.1289
  720MOL0     C99237   7.852   6.841   2.447 -0.4557 -0.0557 -0.5784
  720MOL0     C99238   7.921   6.955   2.367 -0.2988 -1.1387 -0.4242
  720MOL0     N99239   7.995   7.053   2.459  0.0829  0.1127 -0.6673
  720MOL0     C99240   7.947   7.166   2.516  0.5517 -0.5141 -0.4869
  720MOL0     C99241   8.040   7.213   2.602 -0.4796  0.2814  0.5285
  720MOL0     C99242   8.033   7.331   2.693  0.3348  0.3217  0.3442
  720MOL0     C99243   7.923   7.425   2.678 -1.1446  0.2850  0.5050
  720MOL0     C99244   7.944   7.552   2.757 -0.0780 -0.2281  0.1257
  720MOL0     C99245   7.828   7.638   2.752 -0.3640  0.0306 -0.2071
  720MOL0     O99246   7.842   7.700   2.623  0.1070  0.1532  0.3685
  720MOL0     C99247   7.733   7.734   2.554  0.5154  0.1193  0.2411
  720MOL0     C99248   7.714   7.872   2.516  0.3654 -0.2917  0.0935
  720MOL0     C99249   7.598   7.920   2.446 -0.8785 -1.0769 -0.3945
  720MOL0     C99250   7.592   8.070   2.422 -0.5462 -0.8460  0.8513
  720MOL0     C99251   7.506   7.822   2.398  0.2371  0.0263 -0.0859
  720MOL0     C99252   7.384   7.851   2.311  0.3758 -0.8009  0.2857
  720MOL0     O99253   7.369   7.975   2.272  0.1465  0.0323  0.0478
  720MOL0     C99254   7.242   8.025   2.226  0.2010  0.1997 -0.8075
  720MOL0     C99255   7.241   8.165   2.211  0.4658 -0.9299  0.7181
  720MOL0     C99256   7.120   8.230   2.182  0.8146 -0.0139 -0.0018
  720MOL0     C99257   6.995   8.154   2.170  0.0161 -0.4451 -0.2928
  720MOL0     O99258   6.879   8.212   2.141 -0.1696  0.2877  0.3961
  720MOL0     C99259   6.896   8.301   2.033 -0.2009 -0.4695  0.6162
  720MOL0     C99260   6.779   8.265   1.933 -0.1184 -0.5643 -0.4064
  720MOL0     C99261   6.770   8.354   1.818  0.6422 -0.2745  0.5735
  720MOL0     C99262   6.652   8.313   1.723  0.4703  0.2439 -0.7290
  720MOL0     C99263   6.622   8.444   1.631 -0.3099  0.0355  0.0026
  720MOL0     C99264   6.720   8.461   1.512  0.1003  0.3073  0.6259
  720MOL0     C99265   6.707   8.338   1.417 -0.3078  0.0181 -0.1496
  720MOL0     C99266   6.776   8.371   1.285 -0.9261  0.3199  0.1563
  720MOL0    Cl99267   6.694   8.498   1.183  0.1886 -0.4980 -0.0519
  720MOL0     C99268   7.003   8.016   2.173  0.3110  0.1932 -0.0888
  720MOL0     C99269   7.124   7.953   2.210  0.1377 -0.3127  0.5096
  720MOL0     O99270   7.322   7.751   2.278 -0.4451  0.0382  0.1172
  720MOL0     C99271   7.530   7.683   2.431  0.6994 -0.0210 -0.3801
  720MOL0     C99272   7.643   7.636   2.498  0.2499 -0.8572  1.4030
  720MOL0     N99273   8.151   7.132   2.584  0.3836 -0.2932  0.1402
  720MOL0     N99274   8.119   7.031   2.505 -0.7135  0.6866  0.1596
  720MOL0     C99275   6.932   7.043   2.670  0.8194 -0.3412 -0.0513
  720MOL0     C99276   6.801   7.053   2.627 -0.1596 -1.1466 -0.7054
  720MOL0     C99277   6.406   7.059   2.428 -0.4484  0.7986 -0.9032
  720MOL0     C99278   6.363   6.933   2.476  0.3544  0.6285  0.4140
  720MOL0     C99279   6.232   6.900   2.488  0.5904 -0.2314  0.8890
  720MOL0     C99280   6.133   6.993   2.473  0.4361 -0.4619  0.1843
  720MOL0     O99281   6.005   6.964   2.505  0.7769 -0.1819  0.0189
  720MOL0     C99282   5.940   7.063   2.595 -0.5663 -0.2139 -0.1156
  720MOL0     C99283   5.973   7.032   2.743 -0.1726 -0.4965  0.2989
  720MOL0     C99284   5.881   7.124   2.826 -0.0783 -0.6843 -0.0900
  720MOL0     C99285   5.860   7.071   2.971  0.5830  0.4922  0.5315
  720MOL0     C99286   5.982   7.067   3.061  0.5146 -0.0563 -0.2665
  720MOL0     C99287   6.074   7.063   3.137 -0.1376  1.0533 -0.1824
  720MOL0     C99288   6.169   7.110   2.409  0.7849  0.2549 -0.6148
  720MOL0     C99289   6.301   7.146   2.389 -0.6558 -0.1958 -0.7936
  720MOL0     C99290   6.331   7.279   2.326  0.5772 -0.3462  0.1204
  720MOL0     H99291   6.787   6.794   2.419 -1.7198  0.7873  0.7879
  720MOL0     H99292   7.024   6.766   2.508  1.0262  1.7450 -2.9266
  720MOL0     H99293   7.187   7.077   2.800 -0.2062 -1.7471  1.9948
  720MOL0     H99294   7.246   7.076   2.631 -1.5765  0.0423  0.6536
  720MOL0     H99295   7.424   7.043   2.807 -1.1252  0.9086  0.3460
  720MOL0     H99296   7.346   6.892   2.862  0.4433  0.8328  0.7860
  720MOL0     H99297   7.377   6.809   2.611 -0.8087  0.4172 -0.4767
  720MOL0     H99298   7.452   6.966   2.587 -0.7896  1.2895  1.1924
  720MOL0     H99299   7.617   6.890   2.783  2.7470  0.1344 -2.3116
  720MOL0     H99300   7.535   6.734   2.790  1.7703  0.0229 -0.6742
  720MOL0     H99301   7.603   6.706   2.551  2.2702 -2.6636  1.8072
  720MOL0     H99302   7.737   6.722   2.669  0.8969  1.5671 -0.0188
  720MOL0     H99303   7.690   6.963   2.478  0.4462 -0.8154 -1.3314
  720MOL0     H99304   7.786   6.938   2.622  0.3089 -1.5466  0.7734
  720MOL0     H99305   7.814   6.769   2.373 -1.1639 -1.3471  0.9808
  720MOL0     H99306   7.930   6.793   2.507 -0.4297  1.5952  0.7746
  720MOL0     H99307   7.994   6.920   2.294  0.9099 -1.4012  0.8667
  720MOL0     H99308   7.836   6.999   2.314 -0.9581  0.5924  1.9148
  720MOL0     H99309   7.846   7.205   2.510  0.5148 -0.3402  0.9329
  720MOL0     H99310   8.124   7.390   2.674 -0.5504  1.1226 -1.5981
  720MOL0     H99311   8.035   7.295   2.796  2.2959 -2.2259 -0.4729
  720MOL0     H99312   7.902   7.452   2.574  0.7576  0.7046  0.1945
  720MOL0     H99313   7.836   7.376   2.722 -1.2053  2.1091  2.6127
  720MOL0     H99314   7.968   7.532   2.862  1.8605  0.8111 -0.0692
  720MOL0     H99315   8.036   7.601   2.723 -1.3465  0.0060 -3.3558
  720MOL0     H99316   7.740   7.576   2.770 -0.3322  0.1254  0.2927
  720MOL0     H99317   7.829   7.724   2.819  2.4279  0.6427 -0.8896
  720MOL0     H99318   7.788   7.943   2.552  0.7429 -0.2222 -0.8145
  720MOL0     H99319   7.687   8.119   2.446 -0.4808 -1.5324  2.0661
  720MOL0     H99320   7.517   8.120   2.484 -0.6726  0.9585 -0.6588
  720MOL0     H99321   7.579   8.098   2.317  1.9777  2.3602  1.2157
  720MOL0     H99322   7.331   8.225   2.227 -0.0807 -0.1770  1.0104
  720MOL0     H99323   7.126   8.338   2.173 -0.8734  0.0139 -1.1727
  720MOL0     H99324   6.869   8.400   2.069 -0.9286 -0.4969  0.1881
  720MOL0     H99325   6.994   8.314   1.986  0.4654  0.2082  2.1421
  720MOL0     H99326   6.784   8.162   1.896 -1.8043  0.0506 -2.5676
  720MOL0     H99327   6.684   8.273   1.987 -0.4209 -0.5115 -0.9439
  720MOL0     H99328   6.861   8.342   1.758 -1.3311 -0.8061 -2.5794
  720MOL0     H99329   6.759   8.457   1.851  0.8230  0.4031 -1.3552
  720MOL0     H99330   6.561   8.294   1.781 -0.8689 -0.2473 -2.9109
  720MOL0     H99331   6.679   8.224   1.666 -0.0959 -1.5801  1.6962
  720MOL0     H99332   6.520   8.449   1.591 -0.3959  0.5204  0.2744
  720MOL0     H99333   6.639   8.537   1.685 -0.4174  0.1975 -0.2403
  720MOL0     H99334   6.824   8.461   1.547  1.5298 -0.3742 -3.1291
  720MOL0     H99335   6.708   8.561   1.468  0.5310  1.2435  2.5471
  720MOL0     H99336   6.600   8.314   1.411 -1.0724  2.3089  2.0539
  720MOL0     H99337   6.748   8.244   1.455 -4.1872 -2.1389 -0.7725
  720MOL0     H99338   6.788   8.275   1.233 -1.7407 -0.0380  0.6066
  720MOL0     H99339   6.876   8.411   1.304 -2.0745  2.9869  1.0478
  720MOL0     H99340   6.916   7.951   2.172 -1.8770  2.8990  0.7276
  720MOL0     H99341   7.119   7.849   2.238  2.0520 -0.3156  0.9849
  720MOL0     H99342   7.473   7.597   2.398 -0.5210  1.8328 -3.5955
  720MOL0     H99343   7.656   7.529   2.511 -1.8249 -1.2693  0.4369
  720MOL0     H99344   6.964   7.099   2.758 -0.6729 -0.4245  0.5693
  720MOL0     H99345   6.734   7.128   2.668  1.4882 -0.7174  1.3718
  720MOL0     H99346   6.419   6.842   2.496 -0.6133 -0.0045  0.3560
  720MOL0     H99347   6.210   6.798   2.518 -2.2105 -0.0360 -0.1759
  720MOL0     H99348   5.965   7.168   2.575  2.3775 -0.8475 -0.2470
  720MOL0     H99349   5.834   7.065   2.569 -0.2910  0.8127 -1.2151
  720MOL0     H99350   6.079   7.048   2.763 -0.8597  2.5247  2.2003
  720MOL0     H99351   5.946   6.926   2.748 -0.6317 -0.5395 -1.8791
  720MOL0     H99352   5.920   7.227   2.824 -0.3862 -0.5716 -0.3881
  720MOL0     H99353   5.784   7.116   2.775  0.8676  1.7990 -2.5839
  720MOL0     H99354   5.823   6.968   2.966  0.7304  0.4754 -2.7568
  720MOL0     H99355   5.783   7.132   3.019 -1.7032 -1.3808 -0.5358
  720MOL0     H99356   6.162   7.059   3.198 -0.8001 -0.9569  0.7383
  720MOL0     H99357   6.090   7.170   2.366 -2.8018 -4.1966 -0.9893
  720MOL0     H99358   6.402   7.283   2.243 -0.6231  4.7188 -1.0300
  720MOL0     H99359   6.243   7.321   2.278  1.7462  1.4697 -0.5520
  720MOL0     H99360   6.377   7.351   2.395  1.5689  1.8296 -2.6180
  721MOL0     O99361   2.110   3.131   9.985 -0.9012 -0.1592 -0.4349
  721MOL0     C99362   2.065   3.093  10.093 -0.7250 -0.3059 -0.2537
  721MOL0     O99363   2.132   3.071  10.209 -0.5855 -0.4527  0.0979
  721MOL0     C99364   2.266   3.083  10.203 -0.5015  0.9452 -0.2794
  721MOL0     C99365   2.338   3.197  10.158  0.5589  0.0346 -0.1794
  721MOL0     C99366   2.478   3.208  10.167 -0.8339  0.8145  0.2114
  721MOL0     C99367   2.556   3.102  10.218  0.1241  0.2886  0.2620
  721MOL0     O99368   2.695   3.088  10.223  0.7807 -0.2889 -0.1096
  721MOL0     C99369   2.770   3.207  10.216  0.8007  0.2003  0.0129
  721MOL0     C99370   2.918   3.163  10.205 -0.3011  0.5110  0.0724
  721MOL0     C99371   2.969   3.173  10.059  0.6193 -0.1057  0.5413
  721MOL0     C99372   3.074   3.079  10.035  0.4709  0.9822 -0.1586
  721MOL0     C99373   3.206   3.095  10.115  0.2888  1.9910  0.6927
  721MOL0     C99374   3.288   2.967  10.078 -0.4448  0.0182 -0.0644
  721MOL0     C99375   3.424   2.973  10.151 -0.2946  0.8092 -0.4801
  721MOL0     C99376   3.433   2.887  10.275  0.0716 -0.9152  0.3960
  721MOL0     N99377   3.551   2.913  10.354  0.1100 -0.4476 -0.1518
  721MOL0     C99378   3.556   2.994  10.471 -0.9184 -0.9083 -0.4645
  721MOL0     C99379   3.694   2.982  10.511 -0.0328  0.0548  1.2112
  721MOL0     C99380   3.761   3.052  10.624 -0.0811 -0.3921 -0.0913
  721MOL0     C99381   3.886   2.999  10.652 -0.7682 -1.0023 -0.7991
  721MOL0     C99382   3.945   3.089  10.763 -1.2773  0.0914 -0.6799
  721MOL0     C99383   4.091   3.072  10.783  0.6774  0.7748  0.6902
  721MOL0     O99384   4.143   3.191  10.851 -0.0697 -0.4633  0.9871
  721MOL0     C99385   4.272   3.190  10.897  0.7346  0.3446  0.6844
  721MOL0     C99386   4.385   3.113  10.848 -1.1763  0.5634 -0.0580
  721MOL0     C99387   4.515   3.128  10.903 -0.3882 -0.5971  0.4137
  721MOL0     C99388   4.633   3.041  10.852  0.1764  1.1355  0.4593
  721MOL0     C99389   4.534   3.221  11.012  0.6431  0.3405 -0.5034
  721MOL0     C99390   4.661   3.253  11.077 -0.4412  0.4438 -0.1263
  721MOL0     O99391   4.665   3.246  11.217 -0.7013  0.1439  0.6924
  721MOL0     C99392   4.787   3.230  11.276  0.3826  1.5165 -0.5837
  721MOL0     C99393   4.855   3.349  11.316 -0.3488  0.4641  0.5101
  721MOL0     C99394   4.978   3.332  11.387  0.2967 -0.1942 -0.6500
  721MOL0     C99395   5.027   3.202  11.418  0.3034 -0.3096  0.1328
  721MOL0     O99396   5.139   3.173  11.487 -0.0859  0.1570  0.3620
  721MOL0     C99397   5.231   3.282  11.507 -0.2941  0.1297 -0.0181
  721MOL0     C99398   5.366   3.230  11.556 -0.3459  0.1244 -0.2421
  721MOL0     C99399   5.365   3.191  11.706 -0.4314 -0.3273  1.1340
  721MOL0     C99400   5.385   3.319  11.792 -0.2078 -0.1954 -0.0682
  721MOL0     C99401   5.388   3.295  11.941  0.1202  0.1992 -0.5712
  721MOL0     C99402   5.517   3.222  12.006  0.1821  0.1555  0.2221
  721MOL0     C99403   5.638   3.319  11.998 -0.0572  0.3501 -0.5813
  721MOL0     C99404   5.759   3.235  11.960  0.0117  0.0730 -0.2500
  721MOL0    Cl99405   5.743   3.193  11.789  0.0099 -0.2129 -0.1587
  721MOL0     C99406   4.948   3.090  11.386  0.1127  0.7577  0.3217
  721MOL0     C99407   4.837   3.099  11.311 -0.4201 -0.7782  0.3655
  721MOL0     O99408   4.763   3.270  11.002  0.4978  0.2573 -0.2786
  721MOL0     C99409   4.422   3.297  11.054  0.0387  0.7401  0.0042
  721MOL0     C99410   4.292   3.290  10.993  0.6462  0.2961  0.0644
  721MOL0     N99411   3.754   2.903  10.419  0.4494 -0.3653  0.9596
  721MOL0     N99412   3.673   2.856  10.334  0.0534  0.6697 -0.2139
  721MOL0     C99413   2.486   2.990  10.254  0.5715  0.7064  0.3446
  721MOL0     C99414   2.344   2.985  10.255  0.3225 -0.1470 -0.3178
  721MOL0     C99415   1.935   3.031  10.083  0.2862  0.3544 -0.2278
  721MOL0     C99416   1.846   3.081   9.984 -0.5755  0.5723  0.1851
  721MOL0     C99417   1.723   3.020   9.972  0.2925  0.6872  0.5909
  721MOL0     C99418   1.677   2.926  10.050  0.3098 -0.2478 -0.5683
  721MOL0     O99419   1.552   2.869  10.057 -0.2846 -0.3683  1.3176
  721MOL0     C99420   1.446   2.946   9.992  0.3679  0.7958 -0.8570
  721MOL0     C99421   1.429   3.079  10.071  1.1257  0.4328 -0.2072
  721MOL0     C99422   1.312   3.162  10.034 -0.2649  0.2061  0.2348
  721MOL0     C99423   1.350   3.221   9.894  1.3044 -0.4792  0.6010
  721MOL0     C99424   1.267   3.338   9.860 -0.0742  0.2219 -0.2150
  721MOL0     C99425   1.204   3.443   9.835 -0.4962  0.1395  0.8349
  721MOL0     C99426   1.756   2.878  10.146  0.0798 -0.2998 -0.6085
  721MOL0     C99427   1.889   2.913  10.156 -0.6164 -0.3945 -0.9337
  721MOL0     C99428   1.981   2.850  10.264  0.1490 -1.1448  1.1958
  721MOL0     H99429   2.274   3.280  10.128  0.4082 -0.2499 -0.6429
  721MOL0     H99430   2.527   3.295  10.124 -0.1447 -0.2812 -1.3239
  721MOL0     H99431   2.746   3.254  10.312  0.5084 -2.0883  1.1310
  721MOL0     H99432   2.744   3.272  10.132  0.9997  0.4595  0.1463
  721MOL0     H99433   2.982   3.228  10.264 -1.0383  1.9172 -0.6207
  721MOL0     H99434   2.924   3.065  10.252  0.2994  1.5176  2.1978
  721MOL0     H99435   2.887   3.150   9.990 -0.1922  2.0088  0.7135
  721MOL0     H99436   3.000   3.277  10.048  0.4673  0.2236  2.8264
  721MOL0     H99437   3.034   2.981  10.062 -2.0325  1.6497 -1.1436
  721MOL0     H99438   3.095   3.054   9.930 -2.7213 -2.7116 -0.1326
  721MOL0     H99439   3.199   3.095  10.224  2.0216 -1.8834  0.9716
  721MOL0     H99440   3.267   3.183  10.094  2.2486  0.8248  1.2267
  721MOL0     H99441   3.231   2.876  10.098  0.7940 -0.3103  2.3662
  721MOL0     H99442   3.321   2.975   9.974 -1.0818  2.1482 -0.1517
  721MOL0     H99443   3.438   3.072  10.195  0.4002  1.1958 -1.5235
  721MOL0     H99444   3.501   2.937  10.082 -1.1676  1.0062 -1.5861
  721MOL0     H99445   3.347   2.888  10.344 -1.4054  0.1831 -1.3607
  721MOL0     H99446   3.438   2.783  10.242  1.6692 -0.8098  0.2290
  721MOL0     H99447   3.483   3.064  10.509 -0.5564 -0.2116 -1.0365
  721MOL0     H99448   3.698   3.043  10.714  1.1487  0.7480  0.9301
  721MOL0     H99449   3.757   3.159  10.599 -0.6054 -0.8253 -2.0029
  721MOL0     H99450   3.879   2.894  10.683 -4.1430 -0.1529  1.9860
  721MOL0     H99451   3.965   3.008  10.576  1.9124  1.2793  1.9928
  721MOL0     H99452   3.940   3.197  10.749  1.9678  0.4253  0.0059
  721MOL0     H99453   3.889   3.080  10.857 -2.2010  0.9267 -1.1406
  721MOL0     H99454   4.111   2.986  10.849 -0.3946  1.1303  1.5207
  721MOL0     H99455   4.140   3.077  10.686 -0.9393  1.8381 -0.1131
  721MOL0     H99456   4.368   3.039  10.770  0.2990 -0.0853  0.2112
  721MOL0     H99457   4.699   3.104  10.792  1.6260  0.3322  1.1563
  721MOL0     H99458   4.603   2.953  10.795 -0.5858  1.2210  0.7192
  721MOL0     H99459   4.691   3.017  10.941 -0.8628 -2.7619  0.2438
  721MOL0     H99460   4.818   3.447  11.290  1.0428  0.3099 -2.4464
  721MOL0     H99461   5.022   3.430  11.404 -0.9762  0.2010  0.6580
  721MOL0     H99462   5.256   3.320  11.407  0.3855  0.2737  0.1985
  721MOL0     H99463   5.193   3.351  11.583 -0.7572 -2.9166  2.7027
  721MOL0     H99464   5.386   3.137  11.501 -3.4161 -0.4792 -0.4883
  721MOL0     H99465   5.455   3.291  11.541 -0.1162  0.1496  1.1071
  721MOL0     H99466   5.445   3.120  11.727 -0.7233 -0.4632  1.8073
  721MOL0     H99467   5.271   3.140  11.729  1.2649 -3.0824  2.4713
  721MOL0     H99468   5.298   3.383  11.775 -0.0288 -0.2818 -1.4428
  721MOL0     H99469   5.470   3.373  11.750 -1.5438  0.4773 -2.0896
  721MOL0     H99470   5.352   3.372  12.010  0.5986 -0.9052  0.9537
  721MOL0     H99471   5.309   3.219  11.947 -0.0004  0.1912 -1.9068
  721MOL0     H99472   5.523   3.134  11.942 -1.2810 -0.3150  0.6955
  721MOL0     H99473   5.496   3.186  12.107  0.3492 -0.9576 -0.1296
  721MOL0     H99474   5.672   3.366  12.091  3.0001 -0.7581 -1.0208
  721MOL0     H99475   5.622   3.400  11.927 -3.3553 -0.0435 -0.4443
  721MOL0     H99476   5.764   3.139  12.013 -2.5026 -1.8593 -3.2125
  721MOL0     H99477   5.853   3.286  11.984  0.4118 -0.7973  0.0513
  721MOL0     H99478   4.970   2.994  11.431 -1.0158  0.9597  1.3379
  721MOL0     H99479   4.774   3.019  11.274 -1.1702  0.0768 -0.2486
  721MOL0     H99480   4.433   3.378  11.125  0.3442  0.2662  0.5112
  721MOL0     H99481   4.214   3.356  11.030 -1.3463 -0.7159 -2.0972
  721MOL0     H99482   2.537   2.900  10.289 -3.0102 -2.4624 -1.7704
  721MOL0     H99483   2.295   2.895  10.293 -0.6142  1.7227  3.3275
  721MOL0     H99484   1.865   3.165   9.918 -0.6676  1.2392  0.9947
  721MOL0     H99485   1.656   3.052   9.893 -1.1778  2.5546  2.5053
  721MOL0     H99486   1.451   2.957   9.884 -2.3379 -0.0013 -1.1504
  721MOL0     H99487   1.352   2.898  10.023  1.3680 -0.1242  0.9714
  721MOL0     H99488   1.514   3.149  10.076 -0.0998  1.9288  4.2157
  721MOL0     H99489   1.410   3.035  10.169  0.5698 -0.8771 -0.8828
  721MOL0     H99490   1.219   3.106  10.026  0.6075 -1.1679 -0.6998
  721MOL0     H99491   1.309   3.233  10.118 -1.2989 -1.8790  2.0457
  721MOL0     H99492   1.350   3.146   9.815  3.2453  1.3826 -1.3280
  721MOL0     H99493   1.454   3.255   9.903  1.6625 -1.2622 -0.4400
  721MOL0     H99494   1.140   3.525   9.809 -1.8368 -1.4948 -1.4233
  721MOL0     H99495   1.720   2.788  10.195 -0.4606 -1.3606 -2.7992
  721MOL0     H99496   1.943   2.748  10.278 -0.2680 -1.4145 -1.3854
  721MOL0     H99497   2.086   2.848  10.231 -0.4772 -0.4355 -0.9883
  721MOL0     H99498   1.959   2.901  10.358 -4.8557 -3.1607  1.3909
  722MOL0     O99499   2.739   8.089   1.988  0.8704  0.4354 -0.7393
  722MOL0     C99500   2.635   8.112   1.927 -0.7491  1.0509 -0.0830
  722MOL0     O99501   2.599   8.033   1.815 -0.2230 -0.1686  0.3647
  722MOL0     C99502   2.673   7.922   1.776  0.9946  0.4166 -0.0892
  722MOL0     C99503   2.812   7.896   1.781  0.1845  0.0729 -0.3511
  722MOL0     C99504   2.862   7.764   1.754  0.6530 -0.0828  0.6549
  722MOL0     C99505   2.777   7.668   1.687  0.3911  0.2057 -0.4320
  722MOL0     O99506   2.823   7.560   1.609 -0.1169  0.9574 -0.3239
  722MOL0     C99507   2.962   7.519   1.617  0.7985  0.4131  0.0341
  722MOL0     C99508   2.985   7.378   1.542  0.2324 -0.3451 -0.1024
  722MOL0     C99509   3.115   7.297   1.567 -0.6960  0.8259 -0.0347
  722MOL0     C99510   3.140   7.202   1.447  0.1684 -0.6761 -0.4975
  722MOL0     C99511   3.276   7.133   1.467 -0.4022 -0.2610  0.0476
  722MOL0     C99512   3.297   7.011   1.374 -0.4112  0.6813  0.6610
  722MOL0     C99513   3.448   7.007   1.330 -0.0281 -0.5044  0.2273
  722MOL0     C99514   3.538   6.945   1.439  0.4622  0.4781 -0.1732
  722MOL0     N99515   3.671   6.926   1.397 -0.3798  0.6909  0.6096
  722MOL0     C99516   3.764   7.024   1.387 -0.1459 -0.4496 -0.0591
  722MOL0     C99517   3.866   6.967   1.319  0.6372  0.3024 -0.7568
  722MOL0     C99518   3.999   7.032   1.296 -0.8138  0.1154 -0.4830
  722MOL0     C99519   4.109   6.945   1.236 -1.1060 -0.1400  0.0397
  722MOL0     C99520   4.236   7.027   1.201  0.3050  0.0835 -0.1813
  722MOL0     C99521   4.355   6.962   1.124 -0.5956  0.2342  0.0381
  722MOL0     O99522   4.463   6.916   1.208 -0.2793 -0.2098 -0.2135
  722MOL0     C99523   4.545   7.011   1.268  0.8209  0.1358 -0.2455
  722MOL0     C99524   4.620   6.976   1.371 -0.3052  0.8657  0.1156
  722MOL0     C99525   4.709   7.062   1.436 -0.8771  0.6189 -0.3413
  722MOL0     C99526   4.755   7.019   1.573  0.5301  0.1212 -0.1769
  722MOL0     C99527   4.740   7.193   1.376 -0.3930  0.9218  0.5477
  722MOL0     C99528   4.856   7.274   1.423 -0.2818 -0.1044 -0.8711
  722MOL0     O99529   4.849   7.408   1.392 -0.1620 -0.2967 -0.7262
  722MOL0     C99530   4.962   7.483   1.418 -0.2172  0.3388 -0.0698
  722MOL0     C99531   4.969   7.562   1.533 -0.1491 -0.4765  0.9322
  722MOL0     C99532   5.086   7.626   1.564 -0.8648  0.4501  0.5876
  722MOL0     C99533   5.197   7.626   1.477  0.4225  0.9607  0.3422
  722MOL0     O99534   5.314   7.689   1.504  0.1572 -0.6791 -0.0799
  722MOL0     C99535   5.390   7.639   1.615 -0.7774 -0.2365 -0.1283
  722MOL0     C99536   5.384   7.739   1.732  0.2642 -0.4774 -0.7425
  722MOL0     C99537   5.503   7.747   1.826 -0.3539  0.1314  0.4424
  722MOL0     C99538   5.544   7.619   1.896  0.6204 -0.3214 -1.0941
  722MOL0     C99539   5.694   7.620   1.940 -0.0158  0.5046  0.2154
  722MOL0     C99540   5.746   7.491   2.011  0.0363  0.3193  0.2676
  722MOL0     C99541   5.887   7.510   2.061  0.5940 -0.0712 -0.6361
  722MOL0     C99542   5.978   7.545   1.953  0.0941  0.2463 -0.4887
  722MOL0    Cl99543   6.145   7.512   2.010 -0.0381 -0.5493 -0.3257
  722MOL0     C99544   5.183   7.563   1.349 -0.3533 -0.1763  1.0148
  722MOL0     C99545   5.068   7.488   1.323 -0.0652 -0.0083  0.4819
  722MOL0     O99546   4.937   7.223   1.504 -0.5717  0.0476  0.3000
  722MOL0     C99547   4.646   7.236   1.270 -0.2992  0.2458  0.3254
  722MOL0     C99548   4.547   7.145   1.222  0.0766  0.0569  0.2557
  722MOL0     N99549   3.837   6.836   1.300  0.0448  0.1462  0.1175
  722MOL0     N99550   3.718   6.812   1.337  0.4243 -0.0846  0.0065
  722MOL0     C99551   2.643   7.692   1.689  0.3970  0.3057  0.4919
  722MOL0     C99552   2.593   7.813   1.728  0.2817  0.1800  0.0829
  722MOL0     C99553   2.539   8.217   1.966  0.1428 -0.2896 -0.2085
  722MOL0     C99554   2.589   8.333   2.032  0.2003 -0.9964 -0.4636
  722MOL0     C99555   2.499   8.433   2.071  0.4327  0.4213 -0.3337
  722MOL0     C99556   2.363   8.429   2.036 -0.4302 -0.1478  0.2783
  722MOL0     O99557   2.283   8.532   2.064 -0.3030 -0.2165  0.1554
  722MOL0     C99558   2.340   8.662   2.073 -0.3190 -0.5997  0.4064
  722MOL0     C99559   2.223   8.757   2.114  0.4793  0.6814  0.1126
  722MOL0     C99560   2.124   8.764   1.999 -0.3260 -0.5760 -1.0224
  722MOL0     C99561   1.995   8.849   2.032  0.0974  1.0166  0.9711
  722MOL0     C99562   2.006   8.995   2.052 -1.2077 -0.6410  0.9632
  722MOL0     C99563   2.030   9.106   2.078  0.2773  0.1954  0.4407
  722MOL0     C99564   2.321   8.318   1.966  0.0418  0.2346  0.2374
  722MOL0     C99565   2.402   8.206   1.938 -0.8003 -0.5810 -0.7962
  722MOL0     C99566   2.338   8.087   1.873 -0.1350 -0.6862  0.0841
  722MOL0     H99567   2.883   7.966   1.823 -1.1307  0.1188  1.9152
  722MOL0     H99568   2.967   7.737   1.763 -0.1771 -3.5930  0.9417
  722MOL0     H99569   2.999   7.516   1.720  2.0655 -0.8560 -0.4287
  722MOL0     H99570   3.020   7.598   1.569  0.1013  1.2601  0.5473
  722MOL0     H99571   2.892   7.321   1.550 -1.2186  1.5777 -2.0382
  722MOL0     H99572   2.990   7.400   1.435 -1.4296 -0.6613 -0.2615
  722MOL0     H99573   3.198   7.369   1.569 -1.5102  1.7721  0.3639
  722MOL0     H99574   3.103   7.238   1.659 -3.0815 -1.1350 -1.4813
  722MOL0     H99575   3.051   7.138   1.454  0.6982 -1.4262 -0.4731
  722MOL0     H99576   3.140   7.258   1.353 -0.2633  1.0664  0.5051
  722MOL0     H99577   3.286   7.108   1.573 -2.6646 -0.7447  0.1942
  722MOL0     H99578   3.348   7.211   1.441  1.0522 -1.4600  0.2915
  722MOL0     H99579   3.264   6.927   1.435 -2.9272 -0.4505 -1.9936
  722MOL0     H99580   3.232   6.999   1.286 -0.0165  0.3872  0.4053
  722MOL0     H99581   3.481   7.104   1.291  1.1705 -0.6488  0.8506
  722MOL0     H99582   3.458   6.938   1.245  0.6945  1.6930 -1.5845
  722MOL0     H99583   3.531   7.015   1.523  2.8211  0.6280 -0.0481
  722MOL0     H99584   3.495   6.846   1.459  1.8249 -0.1846 -0.4239
  722MOL0     H99585   3.755   7.127   1.422  0.1274 -0.1561 -0.8047
  722MOL0     H99586   4.032   7.054   1.398  4.0206 -0.6156 -1.6465
  722MOL0     H99587   3.992   7.126   1.241 -2.7330 -1.9253 -4.1154
  722MOL0     H99588   4.135   6.865   1.306 -0.9877  0.2612  0.4597
  722MOL0     H99589   4.065   6.904   1.145 -0.4131 -3.2023  0.9340
  722MOL0     H99590   4.198   7.101   1.131  0.8563 -0.3357 -0.9371
  722MOL0     H99591   4.270   7.061   1.300  1.1581  0.7042 -0.6777
  722MOL0     H99592   4.319   6.879   1.062 -1.1496  0.0817  0.5466
  722MOL0     H99593   4.387   7.049   1.065  0.8441  1.8785  3.0124
  722MOL0     H99594   4.604   6.873   1.400  1.9667  0.6925  1.0078
  722MOL0     H99595   4.695   6.941   1.622 -3.3119  2.8864 -0.0347
  722MOL0     H99596   4.738   7.109   1.632  0.1935  0.6344 -1.0405
  722MOL0     H99597   4.861   6.992   1.575  0.8167  1.2290  0.3547
  722MOL0     H99598   4.885   7.553   1.601 -1.2379 -1.0659 -0.4580
  722MOL0     H99599   5.103   7.668   1.663  0.7106  1.4374 -0.0631
  722MOL0     H99600   5.360   7.541   1.652  1.1071 -1.1813 -0.9225
  722MOL0     H99601   5.493   7.629   1.579 -0.8169  2.6750 -1.3036
  722MOL0     H99602   5.374   7.839   1.689  1.8203  1.4370  2.8555
  722MOL0     H99603   5.290   7.717   1.783  1.9336 -1.5046  2.1343
  722MOL0     H99604   5.473   7.814   1.907 -1.4547 -0.5625  0.6216
  722MOL0     H99605   5.584   7.795   1.769 -0.8562  2.9872  1.9658
  722MOL0     H99606   5.524   7.536   1.828  4.1818 -2.7724  0.5380
  722MOL0     H99607   5.480   7.606   1.985  2.6604 -2.7631  0.1382
  722MOL0     H99608   5.756   7.621   1.850  1.9209 -2.5494  1.3702
  722MOL0     H99609   5.720   7.704   2.005  2.4890 -0.0283  0.0116
  722MOL0     H99610   5.730   7.414   1.935 -0.9488 -1.1168  1.8528
  722MOL0     H99611   5.686   7.468   2.099  0.3440  0.4969  0.5263
  722MOL0     H99612   5.932   7.419   2.102  2.3102  0.7105 -0.7338
  722MOL0     H99613   5.881   7.581   2.143  1.5956  0.8313 -1.3113
  722MOL0     H99614   5.958   7.647   1.918 -1.9519  0.8888  2.2153
  722MOL0     H99615   5.969   7.472   1.873 -1.4617 -0.3510  0.2093
  722MOL0     H99616   5.260   7.553   1.273 -0.9351  1.7116  0.1099
  722MOL0     H99617   5.062   7.433   1.230 -1.0007 -1.1738  1.1901
  722MOL0     H99618   4.658   7.334   1.224  1.1694 -1.1200 -2.4557
  722MOL0     H99619   4.495   7.193   1.140  1.5067 -0.5535 -1.0594
  722MOL0     H99620   2.566   7.623   1.656  1.4366 -1.5949  1.8031
  722MOL0     H99621   2.486   7.826   1.720 -0.2337 -2.9913  0.3549
  722MOL0     H99622   2.694   8.351   2.051  0.5633 -3.8352  0.8029
  722MOL0     H99623   2.548   8.513   2.127  1.3147  1.8780 -3.0060
  722MOL0     H99624   2.437   8.674   2.122  1.5103 -0.0168 -3.0602
  722MOL0     H99625   2.363   8.692   1.971  0.6190  0.3805  0.8838
  722MOL0     H99626   2.268   8.854   2.135 -0.0324  0.8627  0.3662
  722MOL0     H99627   2.180   8.737   2.212  1.5766  0.4911  0.5736
  722MOL0     H99628   2.154   8.816   1.908 -0.0883  0.8235 -0.1901
  722MOL0     H99629   2.101   8.660   1.974  0.7764 -0.8285 -1.0500
  722MOL0     H99630   1.943   8.798   2.114 -0.8869 -2.3179 -1.5317
  722MOL0     H99631   1.920   8.833   1.954 -0.7381 -0.0988  1.9611
  722MOL0     H99632   2.051   9.209   2.095  1.6308 -0.0154  0.1721
  722MOL0     H99633   2.216   8.327   1.939  0.3691  2.4779 -0.5087
  722MOL0     H99634   2.357   8.105   1.767  0.0254  1.6262  0.4649
  722MOL0     H99635   2.384   7.998   1.918  1.4706  2.2919  5.2284
  722MOL0     H99636   2.230   8.080   1.890 -0.5406 -0.3620 -2.0792
  723MOL0     O99637   2.643   1.446  10.465 -0.6437 -0.9204  0.9285
  723MOL0     C99638   2.602   1.503  10.358 -0.9310  0.4958  0.1721
  723MOL0     O99639   2.684   1.567  10.268 -0.0503  0.2530 -0.1674
  723MOL0     C99640   2.815   1.540  10.284 -0.3104 -0.1663 -0.1064
  723MOL0     C99641   2.889   1.593  10.394 -0.4253 -0.4325 -1.0394
  723MOL0     C99642   3.032   1.584  10.388  0.6141  0.4601 -1.1466
  723MOL0     C99643   3.101   1.519  10.280  0.4357 -0.1476 -0.2044
  723MOL0     O99644   3.241   1.511  10.278  0.1168 -0.4758 -0.2380
  723MOL0     C99645   3.315   1.416  10.205  0.2762  0.1365 -0.4351
  723MOL0     C99646   3.365   1.303  10.301  0.1249 -0.7546 -0.2385
  723MOL0     C99647   3.433   1.347  10.432  1.0370  0.7463  0.1282
  723MOL0     C99648   3.577   1.403  10.418 -0.3358 -0.0369 -0.6276
  723MOL0     C99649   3.676   1.382  10.548 -0.0363 -0.1145 -0.6330
  723MOL0     C99650   3.618   1.451  10.675  0.2680 -0.5132 -0.0252
  723MOL0     C99651   3.608   1.612  10.662 -0.3031 -0.3187 -0.1417
  723MOL0     C99652   3.742   1.690  10.638  0.5743  0.1133  0.3040
  723MOL0     N99653   3.722   1.830  10.621 -0.2891 -0.5124  0.1461
  723MOL0     C99654   3.807   1.924  10.669 -0.3625 -0.0541 -0.5961
  723MOL0     C99655   3.775   2.041  10.607  0.1146  0.4045  0.1065
  723MOL0     C99656   3.844   2.160  10.638 -0.4730 -1.2112 -0.4632
  723MOL0     C99657   3.756   2.267  10.692 -0.7036  0.5466  0.1348
  723MOL0     C99658   3.735   2.246  10.845  0.5761 -0.3523 -0.1894
  723MOL0     C99659   3.619   2.340  10.902 -0.1266 -0.7743  0.1197
  723MOL0     O99660   3.635   2.480  10.878  0.2887 -0.4850 -0.0817
  723MOL0     C99661   3.723   2.548  10.962  0.1892  0.4459 -0.1403
  723MOL0     C99662   3.735   2.532  11.099  0.5399  0.0813 -0.5625
  723MOL0     C99663   3.815   2.618  11.180  0.9615  0.0657 -0.4383
  723MOL0     C99664   3.794   2.598  11.323  1.0488  0.5407 -0.4074
  723MOL0     C99665   3.899   2.711  11.115 -0.2522  0.5850 -0.1980
  723MOL0     C99666   3.982   2.810  11.191 -0.4789 -0.4867 -0.2359
  723MOL0     O99667   4.059   2.891  11.111  0.2756 -0.0924  0.5510
  723MOL0     C99668   4.130   2.983  11.175  0.0606 -0.4698 -0.5556
  723MOL0     C99669   4.082   3.106  11.228 -0.2655 -0.3122  0.8637
  723MOL0     C99670   4.163   3.195  11.297  0.6327 -0.5090  0.6523
  723MOL0     C99671   4.295   3.155  11.320  0.2165 -0.0189 -0.0877
  723MOL0     O99672   4.376   3.215  11.415  0.5792 -0.1201 -0.4500
  723MOL0     C99673   4.311   3.274  11.533  0.3437  0.1819  0.5612
  723MOL0     C99674   4.304   3.427  11.514  0.0289 -0.6169 -0.2201
  723MOL0     C99675   4.435   3.485  11.562  0.0085  0.3135 -0.4917
  723MOL0     C99676   4.439   3.634  11.542 -0.4725  0.1825  0.1479
  723MOL0     C99677   4.572   3.686  11.598 -0.4809  0.3016  0.1190
  723MOL0     C99678   4.632   3.828  11.555 -0.1828  0.1437 -0.6667
  723MOL0     C99679   4.750   3.867  11.646  0.6172 -1.0004 -0.3932
  723MOL0     C99680   4.803   4.008  11.623  0.4421 -0.0282 -0.3080
  723MOL0    Cl99681   4.872   4.062  11.777 -0.5777  0.0592  0.2919
  723MOL0     C99682   4.342   3.040  11.264 -0.7046  0.3714  0.6120
  723MOL0     C99683   4.262   2.963  11.183  0.1512 -0.7030 -0.8693
  723MOL0     O99684   3.961   2.827  11.312  0.4104 -0.5240 -0.3160
  723MOL0     C99685   3.875   2.735  10.976  0.4645 -0.2395  0.1550
  723MOL0     C99686   3.792   2.654  10.907  0.3453  0.8187  0.1372
  723MOL0     N99687   3.683   2.015  10.511 -0.9671 -0.5849  0.1597
  723MOL0     N99688   3.651   1.890  10.520  0.0804  0.0023  0.4242
  723MOL0     C99689   3.022   1.476  10.174 -0.1420 -0.6539  0.4223
  723MOL0     C99690   2.884   1.481  10.176  0.4922 -0.2921 -0.0371
  723MOL0     C99691   2.463   1.473  10.320 -0.2104  1.1917 -0.4041
  723MOL0     C99692   2.423   1.540  10.201  0.0974 -1.5035  0.1331
  723MOL0     C99693   2.292   1.531  10.158  0.0501  1.6165  0.2364
  723MOL0     C99694   2.211   1.433  10.215 -0.5353 -0.7943  0.3927
  723MOL0     O99695   2.081   1.418  10.169 -0.5817 -0.1665 -0.2491
  723MOL0     C99696   2.035   1.291  10.113 -0.8691 -0.2507  0.6082
  723MOL0     C99697   1.907   1.295  10.022 -0.2271 -0.0722 -0.0753
  723MOL0     C99698   1.913   1.340   9.875 -0.2431  0.1910 -0.1929
  723MOL0     C99699   1.961   1.490   9.864  0.8432 -0.2780 -0.3866
  723MOL0     C99700   2.054   1.515   9.753 -0.6600 -0.6807 -0.6579
  723MOL0     C99701   2.136   1.532   9.667 -1.2167  0.1111  0.1113
  723MOL0     C99702   2.250   1.364  10.326 -0.7094 -0.4756 -1.0899
  723MOL0     C99703   2.374   1.372  10.384  0.2076 -0.0741 -0.0879
  723MOL0     C99704   2.405   1.279  10.498 -0.4142 -0.3650  0.0076
  723MOL0     H99705   2.849   1.654  10.474  2.1563 -1.5881  1.3146
  723MOL0     H99706   3.083   1.631  10.471 -0.9317  0.9477 -0.4460
  723MOL0     H99707   3.406   1.467  10.172  0.7326 -1.5047 -1.8785
  723MOL0     H99708   3.258   1.370  10.124 -0.3299 -1.4250  0.8204
  723MOL0     H99709   3.282   1.243  10.339  0.3551  0.2987  2.1340
  723MOL0     H99710   3.437   1.243  10.245  2.3110  1.5978 -0.1592
  723MOL0     H99711   3.361   1.413  10.481 -0.6461 -0.8243 -0.1452
  723MOL0     H99712   3.445   1.260  10.497 -1.8772  1.0480  1.1971
  723MOL0     H99713   3.622   1.341  10.340  0.7410  0.8117 -0.7144
  723MOL0     H99714   3.580   1.506  10.381  1.2189  0.1814  0.0102
  723MOL0     H99715   3.777   1.411  10.518  1.4784 -2.9098  1.3042
  723MOL0     H99716   3.687   1.275  10.569 -0.9817 -0.1100 -0.0609
  723MOL0     H99717   3.526   1.401  10.705  0.5531 -0.8509  0.2927
  723MOL0     H99718   3.693   1.432  10.753  0.7845  1.7979  0.1104
  723MOL0     H99719   3.560   1.640  10.756  0.6060 -0.9388  0.5205
  723MOL0     H99720   3.544   1.641  10.578  0.1289 -2.3015 -1.2122
  723MOL0     H99721   3.800   1.671  10.729  1.2112 -1.6134 -0.4260
  723MOL0     H99722   3.788   1.648  10.548 -1.8755  0.1676 -1.0650
  723MOL0     H99723   3.889   1.915  10.740 -1.5290  1.3546  1.0146
  723MOL0     H99724   3.896   2.188  10.546 -0.4267  0.3134 -0.0108
  723MOL0     H99725   3.918   2.142  10.716 -0.7251 -1.6579 -0.3283
  723MOL0     H99726   3.816   2.356  10.670 -0.3197  0.5728  1.2416
  723MOL0     H99727   3.657   2.267  10.645 -1.0750  2.0402  0.8405
  723MOL0     H99728   3.706   2.145  10.874 -0.5048 -0.1423 -0.4798
  723MOL0     H99729   3.831   2.263  10.894  0.0361  0.9831  0.4716
  723MOL0     H99730   3.522   2.311  10.862  1.5799 -1.8388 -3.7177
  723MOL0     H99731   3.611   2.324  11.010  2.1026  0.0911  0.4624
  723MOL0     H99732   3.663   2.465  11.145  0.9195  0.8311  1.1966
  723MOL0     H99733   3.891   2.611  11.372  0.0797 -0.5782  1.9229
  723MOL0     H99734   3.752   2.502  11.351 -0.0376  1.3305  0.7822
  723MOL0     H99735   3.735   2.684  11.356  0.1076 -0.8261  1.7090
  723MOL0     H99736   3.975   3.128  11.224 -0.0940  0.4295 -1.4215
  723MOL0     H99737   4.121   3.282  11.346 -0.5558  1.2326 -3.1061
  723MOL0     H99738   4.206   3.243  11.541  0.0142  1.5058  1.9829
  723MOL0     H99739   4.366   3.235  11.619  0.3634 -1.3764 -0.1179
  723MOL0     H99740   4.292   3.447  11.407  0.2479 -1.1121 -0.3416
  723MOL0     H99741   4.221   3.471  11.569  0.5653  1.9405 -1.2802
  723MOL0     H99742   4.524   3.440  11.516  1.0340  0.2276  1.4641
  723MOL0     H99743   4.456   3.463  11.668  1.3775  4.1138  0.2062
  723MOL0     H99744   4.351   3.675  11.593 -1.2104 -1.2112  0.0624
  723MOL0     H99745   4.419   3.656  11.437  1.5877 -0.4901 -0.4340
  723MOL0     H99746   4.553   3.708  11.703  1.7090  3.1646  0.0534
  723MOL0     H99747   4.649   3.609  11.601  0.5604  1.3506  2.7922
  723MOL0     H99748   4.558   3.909  11.554  1.1500  1.4368 -0.1090
  723MOL0     H99749   4.684   3.830  11.459  2.0742  1.9059  0.4689
  723MOL0     H99750   4.834   3.799  11.624  0.4600 -1.0268 -0.9171
  723MOL0     H99751   4.714   3.859  11.749 -1.6817  0.2980 -1.0308
  723MOL0     H99752   4.731   4.075  11.575 -0.9839 -1.5504 -0.3823
  723MOL0     H99753   4.888   4.001  11.554  0.6617 -2.4937  0.1368
  723MOL0     H99754   4.447   3.012  11.273  0.6947  4.8445  1.0149
  723MOL0     H99755   4.304   2.874  11.137 -0.4170 -0.6041 -1.5940
  723MOL0     H99756   3.917   2.821  10.926 -1.5242 -1.0603 -3.2086
  723MOL0     H99757   3.779   2.665  10.800  3.9668 -0.1258 -0.5176
  723MOL0     H99758   3.077   1.441  10.087 -0.4031  0.9314 -0.4071
  723MOL0     H99759   2.819   1.459  10.092  0.2155 -0.2715  0.1700
  723MOL0     H99760   2.499   1.603  10.156  0.3201 -0.6134  1.6753
  723MOL0     H99761   2.252   1.585  10.073  0.9974  0.3514 -1.0533
  723MOL0     H99762   2.126   1.252  10.065 -1.8810 -1.1133 -0.6879
  723MOL0     H99763   2.018   1.233  10.204 -0.4688 -0.0363  0.8246
  723MOL0     H99764   1.830   1.357  10.069  1.7791  0.5839  2.5898
  723MOL0     H99765   1.860   1.197  10.029 -0.8495  0.2702  0.6741
  723MOL0     H99766   1.985   1.287   9.813  0.6208  2.4698 -1.2514
  723MOL0     H99767   1.816   1.324   9.828 -0.6148  0.5298  0.4492
  723MOL0     H99768   1.989   1.522   9.965  1.1010  0.0373 -0.5554
  723MOL0     H99769   1.879   1.552   9.828  0.9680 -1.6527 -3.3345
  723MOL0     H99770   2.204   1.565   9.591 -1.1285 -0.9955 -0.2964
  723MOL0     H99771   2.173   1.309  10.380 -0.8288  3.8162  3.8886
  723MOL0     H99772   2.317   1.239  10.549  0.0884 -0.6278  0.6913
  723MOL0     H99773   2.471   1.201  10.458  1.3556  0.1085  1.8123
  723MOL0     H99774   2.461   1.330  10.577 -0.3447  0.5556 -0.6310
  724MOL0     O99775   3.153   6.367  10.173  0.2996  0.1911  0.4654
  724MOL0     C99776   3.031   6.341  10.181  0.0401  0.0181  0.3465
  724MOL0     O99777   2.963   6.307  10.294  0.0312 -0.8623 -0.6200
  724MOL0     C99778   3.042   6.278  10.399 -0.2502  0.2590 -0.2580
  724MOL0     C99779   3.150   6.184  10.397 -0.0122  0.1997  0.4983
  724MOL0     C99780   3.207   6.146  10.527  0.5127  0.3819  0.4269
  724MOL0     C99781   3.163   6.205  10.654 -0.2840  0.9186 -0.2578
  724MOL0     O99782   3.224   6.163  10.770 -0.2185  0.3105 -0.0577
  724MOL0     C99783   3.351   6.096  10.783  0.2694 -0.4306 -0.1246
  724MOL0     C99784   3.387   6.108  10.930  0.1988 -1.2479 -0.0601
  724MOL0     C99785   3.321   6.006  11.021 -0.1878  0.1366 -0.0055
  724MOL0     C99786   3.359   6.030  11.166  0.4076  0.4154 -0.0272
  724MOL0     C99787   3.256   5.959  11.255 -0.4802 -0.4684 -0.0684
  724MOL0     C99788   3.235   6.043  11.377  0.3690  0.1067 -0.6821
  724MOL0     C99789   3.120   5.981  11.467 -0.3406  0.4495 -0.2329
  724MOL0     C99790   3.113   6.038  11.607 -0.3962  0.0816 -0.4263
  724MOL0     N99791   3.012   5.963  11.691 -1.0691  0.6772 -0.1190
  724MOL0     C99792   3.052   5.873  11.800  1.4331 -0.5416  0.2535
  724MOL0     C99793   2.937   5.803  11.826 -0.6613  0.4423  0.8966
  724MOL0     C99794   2.912   5.688  11.920 -1.0518 -0.5655 -0.9106
  724MOL0     C99795   2.792   5.720  12.016 -0.8511  0.1649 -0.8410
  724MOL0     C99796   2.652   5.704  11.954 -0.3519  0.5250 -0.1324
  724MOL0     C99797   2.524   5.746  12.032 -0.2980  0.5381  0.1496
  724MOL0     O99798   2.521   5.664  12.154 -0.1209  0.1792 -0.3334
  724MOL0     C99799   2.415   5.682  12.242  0.3075  0.7379  0.2010
  724MOL0     C99800   2.321   5.792  12.254  1.0285 -0.5338  0.6163
  724MOL0     C99801   2.207   5.780  12.335  0.4623 -0.6515 -0.3548
  724MOL0     C99802   2.104   5.897  12.333 -0.3157 -0.5680 -0.0016
  724MOL0     C99803   2.197   5.671  12.433  0.6138 -0.7271 -0.0488
  724MOL0     C99804   2.092   5.659  12.536  0.4975 -0.1965  0.3899
  724MOL0     O99805   2.131   5.572  12.638 -0.6567 -0.2597 -0.8220
  724MOL0     C99806   2.041   5.563  12.746 -0.1417 -0.1016  0.3878
  724MOL0     C99807   1.921   5.500  12.726 -0.8520 -0.7388  0.3385
  724MOL0     C99808   1.831   5.491  12.834  0.0053  0.2642 -0.6938
  724MOL0     C99809   1.854   5.549  12.955  1.0523  0.1900 -0.1736
  724MOL0     O99810   1.754   5.531  13.053 -0.1007 -0.3629  0.1088
  724MOL0     C99811   1.782   5.581  13.189 -0.5989  0.0675  0.0966
  724MOL0     C99812   1.725   5.718  13.215 -1.3258  0.2371 -0.0534
  724MOL0     C99813   1.583   5.724  13.269  0.5721  0.5026 -0.2469
  724MOL0     C99814   1.480   5.711  13.154  0.1309 -0.1816  0.7502
  724MOL0     C99815   1.348   5.753  13.221 -0.6465 -0.4457 -0.0065
  724MOL0     C99816   1.235   5.772  13.126  0.4339  0.1613 -0.2175
  724MOL0     C99817   1.181   5.646  13.052 -0.0556 -0.7041 -0.7312
  724MOL0     C99818   1.039   5.663  12.993  0.4333  0.3464 -0.7199
  724MOL0    Cl99819   0.922   5.692  13.116  0.3071 -0.3856 -0.0406
  724MOL0     C99820   1.975   5.616  12.976  0.7464 -0.6978 -0.0904
  724MOL0     C99821   2.069   5.617  12.877 -0.6729  0.1735 -0.1476
  724MOL0     O99822   1.990   5.720  12.526  0.3227 -0.5747 -0.7799
  724MOL0     C99823   2.293   5.563  12.416  0.6050 -0.2429 -0.7834
  724MOL0     C99824   2.398   5.573  12.332 -0.2710  0.5568 -0.3836
  724MOL0     N99825   2.837   5.852  11.743 -0.6934  0.6287  0.1781
  724MOL0     N99826   2.880   5.939  11.663 -0.0246 -0.3011 -0.1807
  724MOL0     C99827   3.052   6.291  10.647 -0.4613  0.1567 -0.0080
  724MOL0     C99828   3.002   6.330  10.525 -0.2916 -0.5887  0.6204
  724MOL0     C99829   2.952   6.329  10.060  0.5190 -0.3695 -0.4710
  724MOL0     C99830   2.845   6.238  10.070  0.6472  0.2332 -0.4638
  724MOL0     C99831   2.763   6.229   9.960  0.6978  0.5420 -0.4777
  724MOL0     C99832   2.778   6.290   9.842 -0.3738  0.1781 -1.0180
  724MOL0     O99833   2.696   6.256   9.738 -0.5115  0.8754 -0.0173
  724MOL0     C99834   2.744   6.164   9.639  0.0319 -0.4069  0.4044
  724MOL0     C99835   2.617   6.115   9.565 -0.3600 -0.1816  0.5131
  724MOL0     C99836   2.573   6.218   9.452  0.6777  0.2389  0.0029
  724MOL0     C99837   2.614   6.174   9.309  0.4313 -0.1793 -0.3039
  724MOL0     C99838   2.762   6.160   9.290 -0.5375 -0.3598 -0.4107
  724MOL0     C99839   2.880   6.152   9.281 -0.1332  0.5118  0.2829
  724MOL0     C99840   2.892   6.364   9.829  0.4786 -0.6783 -0.2031
  724MOL0     C99841   2.982   6.392   9.935  1.5498 -0.0933 -0.9724
  724MOL0     C99842   3.081   6.500   9.917  0.4397  0.6960 -0.4618
  724MOL0     H99843   3.190   6.151  10.302 -0.5578  2.9921 -0.8106
  724MOL0     H99844   3.291   6.078  10.526  0.8855  0.8182  1.2215
  724MOL0     H99845   3.425   6.146  10.721 -0.6943 -0.6257 -1.4721
  724MOL0     H99846   3.339   5.993  10.750 -0.0753 -0.0956 -1.0859
  724MOL0     H99847   3.495   6.103  10.946  0.2710 -3.8456 -0.8932
  724MOL0     H99848   3.368   6.211  10.964  1.7571  0.1240 -2.9782
  724MOL0     H99849   3.212   6.008  11.009 -0.4562 -1.7323  1.5134
  724MOL0     H99850   3.354   5.905  10.996  2.8784  0.7498  1.1646
  724MOL0     H99851   3.463   5.997  11.177 -0.3069 -4.0588 -3.5532
  724MOL0     H99852   3.358   6.139  11.177 -1.1052  0.5051 -0.7969
  724MOL0     H99853   3.296   5.859  11.274  4.4756  0.9366 -1.5319
  724MOL0     H99854   3.164   5.945  11.198  0.4728 -1.0380 -1.5128
  724MOL0     H99855   3.329   6.064  11.429 -1.0543  0.5605  1.9126
  724MOL0     H99856   3.197   6.138  11.339  0.7339 -0.1047 -1.5882
  724MOL0     H99857   3.147   5.875  11.474  3.7561  1.3099 -0.3279
  724MOL0     H99858   3.027   5.998  11.413 -0.7763 -0.3744  0.2430
  724MOL0     H99859   3.209   6.034  11.658 -0.9368  2.7454  0.9487
  724MOL0     H99860   3.083   6.143  11.599  1.7831  1.0011  2.0706
  724MOL0     H99861   3.147   5.855  11.848  2.2812 -2.0062 -1.8613
  724MOL0     H99862   3.007   5.668  11.971  1.0231  2.2383 -3.3471
  724MOL0     H99863   2.894   5.595  11.864 -1.5094 -1.8390  1.2346
  724MOL0     H99864   2.811   5.653  12.100  0.7358 -0.1310 -1.4013
  724MOL0     H99865   2.807   5.822  12.053  1.0865 -1.3031  2.8497
  724MOL0     H99866   2.652   5.770  11.867  3.1433  0.6654 -0.1458
  724MOL0     H99867   2.624   5.602  11.927  0.0371  0.0316  1.2360
  724MOL0     H99868   2.529   5.854  12.047  0.1909  1.1105 -3.2615
  724MOL0     H99869   2.427   5.743  11.982 -0.0360 -0.2977 -0.3266
  724MOL0     H99870   2.318   5.882  12.194 -1.7392 -1.8000 -1.3725
  724MOL0     H99871   2.008   5.856  12.301 -1.7323  2.9186 -0.6428
  724MOL0     H99872   2.137   5.981  12.270 -0.6973  0.9854  1.7799
  724MOL0     H99873   2.084   5.944  12.430  0.1693 -0.4907  0.0639
  724MOL0     H99874   1.875   5.480  12.630 -3.5651  1.0084  1.1726
  724MOL0     H99875   1.742   5.429  12.840 -0.0506  0.4483  0.6930
  724MOL0     H99876   1.744   5.503  13.256  0.2425 -0.7232 -0.3258
  724MOL0     H99877   1.890   5.574  13.201 -0.7518 -2.0325  0.6224
  724MOL0     H99878   1.799   5.765  13.280  0.7319 -1.5805 -0.9485
  724MOL0     H99879   1.735   5.781  13.126 -1.9533  1.5300  0.7661
  724MOL0     H99880   1.580   5.824  13.313  0.2037  0.3173  0.1599
  724MOL0     H99881   1.546   5.654  13.345 -0.5716  1.6075  0.2576
  724MOL0     H99882   1.465   5.613  13.107 -1.8098  0.2343  0.4239
  724MOL0     H99883   1.501   5.771  13.065  2.5777 -2.2128 -0.1802
  724MOL0     H99884   1.320   5.679  13.297 -1.0956 -2.3853 -1.9418
  724MOL0     H99885   1.370   5.849  13.269  0.3709 -0.9807  0.6541
  724MOL0     H99886   1.255   5.846  13.048 -1.6893  0.1137 -0.8549
  724MOL0     H99887   1.151   5.811  13.185 -1.0429 -1.7524 -0.9565
  724MOL0     H99888   1.164   5.556  13.111 -0.6636  0.0041  0.1888
  724MOL0     H99889   1.263   5.625  12.982  0.1445  0.2492 -0.8112
  724MOL0     H99890   1.000   5.573  12.945 -1.6264  1.1255 -0.6256
  724MOL0     H99891   1.038   5.740  12.915  0.0956  0.0595 -1.0031
  724MOL0     H99892   2.005   5.669  13.066 -0.6740 -0.1147  0.0661
  724MOL0     H99893   2.159   5.674  12.899  0.7494 -2.4143  1.1449
  724MOL0     H99894   2.279   5.478  12.483 -3.3838  1.6992  1.2251
  724MOL0     H99895   2.471   5.493  12.319 -0.0549  0.4571  1.2242
  724MOL0     H99896   2.992   6.312  10.735 -1.2578  0.2261 -0.5573
  724MOL0     H99897   2.917   6.396  10.514  0.7880  0.8957  0.8873
  724MOL0     H99898   2.822   6.194  10.166  1.4829  1.7369  0.4615
  724MOL0     H99899   2.669   6.177   9.980  0.9313  0.6159  0.9377
  724MOL0     H99900   2.815   6.207   9.567 -0.0887  1.0375  1.1225
  724MOL0     H99901   2.810   6.091   9.688  2.6969 -0.0741 -2.4027
  724MOL0     H99902   2.532   6.098   9.631 -0.2493 -3.2488  0.0077
  724MOL0     H99903   2.639   6.016   9.523  0.1103 -0.0675  0.4766
  724MOL0     H99904   2.467   6.242   9.456  0.5021 -0.6326  1.4126
  724MOL0     H99905   2.610   6.317   9.482  0.6693 -0.3474  2.1531
  724MOL0     H99906   2.585   6.252   9.237 -0.0388  1.5320  1.6500
  724MOL0     H99907   2.556   6.084   9.286 -1.4174  0.6168  0.9883
  724MOL0     H99908   2.987   6.156   9.271  0.2929  0.5588  3.6543
  724MOL0     H99909   2.902   6.400   9.728  0.3875  3.2840  1.0192
  724MOL0     H99910   3.030   6.581   9.864 -1.2007  0.1650  0.2368
  724MOL0     H99911   3.112   6.543  10.013  3.0173  2.0877 -1.8386
  724MOL0     H99912   3.170   6.469   9.862 -0.1399 -0.9039 -0.5612
  725MOL0     O99913   4.430   5.486   8.794 -0.2501  0.2276  0.0392
  725MOL0     C99914   4.379   5.579   8.842 -0.0197 -0.8490 -0.2474
  725MOL0     O99915   4.249   5.593   8.862  0.3836  0.6451  0.0123
  725MOL0     C99916   4.163   5.488   8.856  0.6878  0.6006 -0.4166
  725MOL0     C99917   4.148   5.412   8.741 -0.2546  0.6600 -0.5132
  725MOL0     C99918   4.055   5.307   8.732 -0.3704  0.6275 -0.7488
  725MOL0     C99919   3.961   5.287   8.834 -0.1827 -0.4472 -0.3435
  725MOL0     O99920   3.867   5.185   8.831  0.0885 -0.3851  0.4094
  725MOL0     C99921   3.893   5.073   8.748  0.0282 -0.7498  0.5034
  725MOL0     C99922   3.808   4.950   8.785 -1.0089 -0.6023  0.3631
  725MOL0     C99923   3.662   4.985   8.749 -0.3742 -0.8069 -0.0573
  725MOL0     C99924   3.571   4.861   8.764 -0.3133 -0.4924  0.0493
  725MOL0     C99925   3.432   4.893   8.698 -0.4621 -0.0643 -0.2974
  725MOL0     C99926   3.333   4.775   8.690  0.0781  0.0064 -0.1304
  725MOL0     C99927   3.192   4.823   8.666 -0.2533 -0.0404  0.2439
  725MOL0     C99928   3.166   4.873   8.519  0.5093 -0.6677 -0.7506
  725MOL0     N99929   3.035   4.927   8.505  0.3760 -0.5567 -0.0333
  725MOL0     C99930   2.920   4.868   8.544 -0.0490 -0.3918 -0.6987
  725MOL0     C99931   2.821   4.963   8.536 -0.2478  0.1709  0.1970
  725MOL0     C99932   2.670   4.946   8.554 -0.3148  0.6014  0.6171
  725MOL0     C99933   2.589   5.080   8.564  0.7228  0.6589  0.0821
  725MOL0     C99934   2.441   5.040   8.600  0.1517  0.2247  0.4869
  725MOL0     C99935   2.368   4.969   8.484  0.7954 -0.9618 -0.1517
  725MOL0     O99936   2.222   4.999   8.485 -0.3675  0.1696  0.1536
  725MOL0     C99937   2.138   4.961   8.588 -0.0675  0.0930 -0.2746
  725MOL0     C99938   2.177   4.867   8.688 -0.7932  0.5037 -0.2817
  725MOL0     C99939   2.104   4.852   8.806 -0.3101  0.2604 -0.7505
  725MOL0     C99940   2.165   4.745   8.890 -0.6109 -0.3870  0.1909
  725MOL0     C99941   1.989   4.934   8.833  0.1630  0.1622 -0.1383
  725MOL0     C99942   1.901   4.915   8.959 -0.1184  0.3814  1.2314
  725MOL0     O99943   1.798   4.992   8.957 -0.2535  0.5795 -0.1942
  725MOL0     C99944   1.709   4.975   9.067 -0.2179 -0.2400  0.5057
  725MOL0     C99945   1.626   5.082   9.079  0.5832  0.5026  0.5294
  725MOL0     C99946   1.526   5.092   9.175 -0.4048 -0.7885  1.0578
  725MOL0     C99947   1.505   4.979   9.259 -0.0952 -0.3060 -0.4342
  725MOL0     O99948   1.404   4.974   9.356 -0.2229 -0.0067  0.1288
  725MOL0     C99949   1.405   5.078   9.455 -0.5567 -0.2405  0.5522
  725MOL0     C99950   1.290   5.046   9.551 -0.1914 -0.0172 -0.8606
  725MOL0     C99951   1.155   5.061   9.482 -0.4219 -0.1463 -0.3574
  725MOL0     C99952   1.047   5.099   9.588 -0.7319  0.5149 -0.1074
  725MOL0     C99953   0.910   5.129   9.537 -0.2112  0.2205 -0.4314
  725MOL0     C99954   0.812   5.130   9.655 -0.2924 -0.1848 -0.1570
  725MOL0     C99955   0.680   5.174   9.600  0.1981 -0.3399  0.0173
  725MOL0     C99956   0.557   5.173   9.691  0.5854 -0.0994 -0.0887
  725MOL0    Cl99957   0.415   5.235   9.600 -0.0238 -0.2496 -0.1986
  725MOL0     C99958   1.585   4.859   9.240  0.1643 -0.6231  0.4497
  725MOL0     C99959   1.683   4.861   9.142  0.0406  0.4139  0.4807
  725MOL0     O99960   1.944   4.846   9.052  0.6064 -0.6057  0.3870
  725MOL0     C99961   1.939   5.014   8.723 -0.0505 -0.2450 -1.0397
  725MOL0     C99962   2.020   5.026   8.609  0.2885 -0.9346 -0.1826
  725MOL0     N99963   2.880   5.079   8.478  1.0342  0.3375 -0.0363
  725MOL0     N99964   3.005   5.057   8.465  0.1343  0.7510  0.4932
  725MOL0     C99965   3.965   5.375   8.940 -0.1803 -0.4689  0.2199
  725MOL0     C99966   4.066   5.474   8.956  0.1769  0.9129  0.6275
  725MOL0     C99967   4.485   5.679   8.872  0.5948  0.1693  0.2978
  725MOL0     C99968   4.614   5.673   8.802  0.1631 -0.1315 -0.1111
  725MOL0     C99969   4.711   5.773   8.827 -0.4049  0.4701  0.3866
  725MOL0     C99970   4.682   5.883   8.904 -0.3907 -0.1306  0.6567
  725MOL0     O99971   4.763   5.990   8.925  0.3539  0.0175  0.1764
  725MOL0     C99972   4.868   6.014   8.822 -0.3803  0.5460 -0.5587
  725MOL0     C99973   4.925   6.153   8.822 -0.6907 -0.7921  0.1498
  725MOL0     C99974   5.015   6.182   8.700 -0.1768  0.3673 -0.0924
  725MOL0     C99975   5.129   6.281   8.714  0.1253  0.1609  0.6499
  725MOL0     C99976   5.217   6.256   8.827 -0.6526  0.3693  0.3281
  725MOL0     C99977   5.287   6.259   8.923 -0.1353 -0.3776  0.3972
  725MOL0     C99978   4.557   5.892   8.967 -0.2005 -0.4150  0.7324
  725MOL0     C99979   4.466   5.790   8.970  0.2055 -0.0507 -0.2935
  725MOL0     C99980   4.346   5.801   9.059  0.1627 -0.3161 -0.0581
  725MOL0     H99981   4.218   5.429   8.661  0.8396  0.5415  0.3946
  725MOL0     H99982   4.057   5.257   8.635  0.9718 -2.0836  0.5776
  725MOL0     H99983   3.998   5.043   8.762 -0.2242 -2.4579 -0.8101
  725MOL0     H99984   3.872   5.092   8.642 -2.8988  3.0063  1.5825
  725MOL0     H99985   3.847   4.866   8.726 -1.3041 -1.0498  0.7974
  725MOL0     H99986   3.825   4.919   8.888  0.2402 -0.7764  0.1164
  725MOL0     H99987   3.627   5.066   8.814 -0.2375 -0.5855 -0.2592
  725MOL0     H99988   3.658   5.023   8.646 -1.0533 -0.0843  0.2179
  725MOL0     H99989   3.611   4.769   8.720 -0.3524  0.7195 -2.7299
  725MOL0     H99990   3.552   4.841   8.870 -3.8902  0.9825 -0.1848
  725MOL0     H99991   3.449   4.920   8.593 -1.6064 -1.3898 -0.8526
  725MOL0     H99992   3.387   4.980   8.746  1.1649 -0.2452  1.6972
  725MOL0     H99993   3.354   4.707   8.607 -2.8513  2.2093 -2.9387
  725MOL0     H99994   3.333   4.718   8.783  2.3947 -1.1632 -0.7768
  725MOL0     H99995   3.165   4.895   8.743 -2.8519 -0.2507 -0.3774
  725MOL0     H99996   3.130   4.733   8.678  0.3544 -0.7908 -1.7316
  725MOL0     H99997   3.237   4.954   8.500 -0.7511  0.0651 -2.5365
  725MOL0     H99998   3.181   4.794   8.445  1.3676 -1.7990  0.5691
  725MOL0     H99999   2.905   4.763   8.564  0.4176 -0.2421  0.5326
  725MOL0     H    0   2.654   4.877   8.637  1.1009 -1.0449 -0.4055
  725MOL0     H    1   2.630   4.896   8.465  0.0607 -1.7934  1.7163
  725MOL0     H    2   2.627   5.135   8.651  0.3742 -0.3900  0.9280
  725MOL0     H    3   2.594   5.137   8.471  0.1573 -0.5162 -0.6822
  725MOL0     H    4   2.431   4.983   8.693  0.4360 -1.8488 -0.6947
  725MOL0     H    5   2.390   5.137   8.606  1.2070  0.7089  2.3955
  725MOL0     H    6   2.406   5.019   8.394 -0.5158 -0.7011 -0.5825
  725MOL0     H    7   2.390   4.862   8.487  2.8516 -0.5713  0.7732
  725MOL0     H    8   2.265   4.807   8.668 -0.3443  1.3711 -0.9915
  725MOL0     H    9   2.212   4.793   8.976 -2.4325 -0.0019  1.0251
  725MOL0     H   10   2.237   4.681   8.839 -0.0887 -0.6599  1.2425
  725MOL0     H   11   2.082   4.676   8.912 -2.3124  0.5444 -2.7754
  725MOL0     H   12   1.621   5.171   9.018 -0.3493  0.5243  0.6132
  725MOL0     H   13   1.444   5.163   9.178  0.0255 -0.0587 -1.6757
  725MOL0     H   14   1.501   5.070   9.507  0.0289  0.9152 -0.3093
  725MOL0     H   15   1.399   5.181   9.419  0.3265  0.1023  1.3721
  725MOL0     H   16   1.302   4.947   9.597  0.9984  0.9591  1.0719
  725MOL0     H   17   1.305   5.117   9.633 -0.8832  1.7686 -2.2288
  725MOL0     H   18   1.130   4.971   9.424 -1.7656  2.1795 -3.7010
  725MOL0     H   19   1.165   5.139   9.406  0.4178 -0.2277 -0.3350
  725MOL0     H   20   1.075   5.184   9.650 -0.4679 -1.1291  2.1577
  725MOL0     H   21   1.035   5.011   9.652 -1.7441  1.2222  0.6935
  725MOL0     H   22   0.917   5.220   9.476  0.8449  1.0732  0.9145
  725MOL0     H   23   0.881   5.049   9.468  2.7869 -0.2162 -1.3524
  725MOL0     H   24   0.849   5.199   9.732  1.3245  2.1874 -2.8748
  725MOL0     H   25   0.808   5.030   9.698  0.6700 -0.3787 -0.5036
  725MOL0     H   26   0.647   5.118   9.512 -4.0450  1.1313  0.4376
  725MOL0     H   27   0.695   5.278   9.568  2.5228  0.0252  2.0369
  725MOL0     H   28   0.579   5.233   9.779 -2.5557  0.8566  0.1481
  725MOL0     H   29   0.527   5.073   9.725  1.1867 -0.4483 -0.5530
  725MOL0     H   30   1.566   4.772   9.301  2.2659 -2.4311 -1.3219
  725MOL0     H   31   1.733   4.766   9.130  1.3778  0.8412  2.2825
  725MOL0     H   32   1.843   5.065   8.729  1.0320  2.0355 -1.7103
  725MOL0     H   33   1.997   5.094   8.527  0.6146  0.5886  0.9518
  725MOL0     H   34   3.882   5.375   9.010 -1.1674  0.0755 -0.9113
  725MOL0     H   35   4.060   5.539   9.043  0.6559  0.6371  0.8706
  725MOL0     H   36   4.641   5.602   8.725 -1.0525 -1.0704  0.3047
  725MOL0     H   37   4.807   5.765   8.777  0.0426  1.3383  1.0739
  725MOL0     H   38   4.951   5.943   8.832  0.7879  2.1259  1.8942
  725MOL0     H   39   4.809   5.999   8.731 -2.0657 -0.1909  0.6015
  725MOL0     H   40   4.977   6.171   8.917 -1.5111  0.7948  0.3317
  725MOL0     H   41   4.836   6.216   8.819 -2.3285 -2.9776  0.7264
  725MOL0     H   42   5.064   6.086   8.678 -4.4491 -2.5581  1.7890
  725MOL0     H   43   4.959   6.211   8.611  1.8406 -0.4739 -1.7082
  725MOL0     H   44   5.100   6.387   8.714 -1.7041 -0.2689 -1.0168
  725MOL0     H   45   5.186   6.263   8.622 -1.3654 -0.2928 -0.2273
  725MOL0     H   46   5.340   6.250   9.016 -0.2805 -2.1129  0.3342
  725MOL0     H   47   4.534   5.976   9.032 -0.6049 -1.1338  1.5539
  725MOL0     H   48   4.361   5.866   9.145  0.6190  0.6691 -0.8711
  725MOL0     H   49   4.257   5.844   9.012  1.0735  1.4050 -0.2738
  725MOL0     H   50   4.318   5.699   9.089 -2.1467  1.1529  3.4479
  726MOL0     O   51   9.789  11.329   7.667 -0.0819 -0.4917 -0.4798
  726MOL0     C   52   9.826  11.424   7.742 -0.0590  1.1558  0.3065
  726MOL0     O   53   9.930  11.503   7.715  0.4573  0.0645 -0.7171
  726MOL0     C   54  10.011  11.456   7.611  0.2574 -1.6274 -0.1520
  726MOL0     C   55   9.983  11.509   7.481 -0.2222  0.1784  0.5334
  726MOL0     C   56  10.064  11.463   7.372 -0.3275  0.1545 -0.3079
  726MOL0     C   57  10.163  11.369   7.397 -0.0423 -0.3178 -0.3679
  726MOL0     O   58  10.249  11.308   7.303  0.2407  0.1650 -0.7026
  726MOL0     C   59  10.302  11.404   7.214 -0.5559 -0.1306  0.3467
  726MOL0     C   60  10.402  11.347   7.106 -0.3957  0.0393  0.9166
  726MOL0     C   61  10.545  11.343   7.163 -0.3921 -0.2710  0.6417
  726MOL0     C   62  10.637  11.286   7.055  0.5963  0.3121  0.1580
  726MOL0     C   63  10.786  11.276   7.085  0.9792  0.3302 -0.1994
  726MOL0     C   64  10.848  11.406   7.134  0.5075  0.1132 -0.4661
  726MOL0     C   65  10.999  11.396   7.142  1.2103 -0.5821 -0.0554
  726MOL0     C   66  11.073  11.405   7.003 -0.0066  0.5468 -0.0750
  726MOL0     N   67  11.211  11.367   7.047  0.7616 -0.1214  0.5429
  726MOL0     C   68  11.306  11.463   7.063 -0.8688  0.5091  0.5692
  726MOL0     C   69  11.422  11.395   7.088  0.4208  0.5095 -0.9016
  726MOL0     C   70  11.549  11.458   7.141 -0.1646  0.7880 -0.1411
  726MOL0     C   71  11.674  11.394   7.070 -0.3034  0.2702  0.4785
  726MOL0     C   72  11.673  11.424   6.925 -0.5292  0.2391  1.0141
  726MOL0     C   73  11.795  11.367   6.850  0.5800 -0.1113 -0.0926
  726MOL0     O   74  11.908  11.465   6.837 -0.2392  0.5441 -0.1520
  726MOL0     C   75  12.038  11.419   6.829  0.4519 -0.0643 -0.1548
  726MOL0     C   76  12.083  11.282   6.822 -0.3468 -0.0504 -1.0326
  726MOL0     C   77  12.212  11.238   6.789  0.3715 -0.3467  0.0691
  726MOL0     C   78  12.235  11.095   6.771 -1.0317  0.2875 -0.7708
  726MOL0     C   79  12.308  11.338   6.765 -0.4896  0.9682 -0.6167
  726MOL0     C   80  12.451  11.311   6.748 -0.1342 -1.2951 -0.1194
  726MOL0     O   81  12.509  11.218   6.835 -0.1620 -0.1132 -0.0420
  726MOL0     C   82  12.641  11.180   6.807  0.6217  0.3169 -0.7840
  726MOL0     C   83  12.750  11.272   6.789 -0.9115  0.0019  0.2046
  726MOL0     C   84  12.878  11.226   6.743  0.1313 -0.1487 -0.2307
  726MOL0     C   85  12.911  11.094   6.739  0.2019  0.7996 -0.5565
  726MOL0     O   86  13.038  11.037   6.723  0.2153 -0.5207  0.0016
  726MOL0     C   87  13.145  11.127   6.703 -0.7509 -0.6192  0.2778
  726MOL0     C   88  13.278  11.064   6.664  0.8908 -0.5572  0.0468
  726MOL0     C   89  13.351  11.011   6.779 -0.5710 -0.3173 -1.4265
  726MOL0     C   90  13.494  10.958   6.746  0.8621 -0.5446 -0.4393
  726MOL0     C   91  13.538  10.883   6.867 -0.1621 -0.3339 -0.2373
  726MOL0     C   92  13.682  10.835   6.852 -0.9708 -0.1852 -0.8494
  726MOL0     C   93  13.719  10.732   6.962  0.5902 -0.1974 -0.0207
  726MOL0     C   94  13.868  10.706   6.993  0.4369  0.5319 -0.1091
  726MOL0    Cl   95  13.944  10.849   7.054 -0.0013  0.2914  0.3235
  726MOL0     C   96  12.806  11.004   6.770  0.0864  0.3536  0.0156
  726MOL0     C   97  12.669  11.045   6.788  0.2445  0.1446 -0.9498
  726MOL0     O   98  12.508  11.366   6.652 -0.2646 -0.3444 -0.4963
  726MOL0     C   99  12.270  11.473   6.778  0.2226 -0.5430 -0.3638
  726MOL0     C  100  12.141  11.514   6.806 -0.5309 -0.1411 -0.2840
  726MOL0     N  101  11.391  11.252   7.092 -0.0838 -0.7653  0.2768
  726MOL0     N  102  11.263  11.239   7.066  0.0631 -0.1595  0.0604
  726MOL0     C  103  10.171  11.303   7.524  0.1122 -0.5945  0.5630
  726MOL0     C  104  10.102  11.351   7.626 -0.6392  0.1337 -1.3309
  726MOL0     C  105   9.740  11.457   7.865  0.9444  0.0406  0.1599
  726MOL0     C  106   9.668  11.357   7.927  0.4359  0.7624  0.3957
  726MOL0     C  107   9.589  11.376   8.037 -0.4900 -0.0614 -0.1173
  726MOL0     C  108   9.581  11.505   8.094  0.4941  0.2565  0.8011
  726MOL0     O  109   9.524  11.527   8.212  0.2583 -0.2148 -0.5769
  726MOL0     C  110   9.473  11.655   8.257 -0.9025  0.4388 -0.0994
  726MOL0     C  111   9.376  11.633   8.381  0.8880  0.0239  0.9649
  726MOL0     C  112   9.236  11.575   8.349 -0.4190 -0.4361  0.3694
  726MOL0     C  113   9.132  11.618   8.453 -0.4188  0.6331 -0.3676
  726MOL0     C  114   9.146  11.542   8.581 -0.8612  0.1833 -0.3061
  726MOL0     C  115   9.140  11.504   8.702  0.5772 -0.9551  0.1462
  726MOL0     C  116   9.661  11.606   8.040 -0.4848  0.4816  0.4957
  726MOL0     C  117   9.737  11.586   7.928  0.4585 -0.3944  0.8149
  726MOL0     C  118   9.824  11.705   7.888  0.0922 -0.0031 -0.4870
  726MOL0     H  119   9.907  11.587   7.484  0.1504  0.5533  3.1710
  726MOL0     H  120  10.050  11.493   7.268 -0.1996  2.5160  0.3220
  726MOL0     H  121  10.337  11.492   7.269  0.1766  0.1044 -0.4644
  726MOL0     H  122  10.210  11.435   7.163 -0.4935 -0.0036  0.3123
  726MOL0     H  123  10.379  11.249   7.063  0.1108  0.1291  0.4274
  726MOL0     H  124  10.394  11.417   7.023 -1.0497  2.4426  2.8709
  726MOL0     H  125  10.576  11.445   7.186  0.2302 -0.1157 -0.7837
  726MOL0     H  126  10.548  11.274   7.248 -0.6776 -2.4758 -1.0395
  726MOL0     H  127  10.600  11.184   7.040  0.9543  0.1215  0.5477
  726MOL0     H  128  10.624  11.340   6.961 -0.9156 -1.9415 -1.0174
  726MOL0     H  129  10.834  11.244   6.992  1.6875  2.8278 -0.7790
  726MOL0     H  130  10.803  11.198   7.159  0.3084  1.5502  1.2880
  726MOL0     H  131  10.814  11.493   7.077  0.6926  0.4143 -0.1231
  726MOL0     H  132  10.807  11.434   7.232  0.1791 -4.3838  0.8820
  726MOL0     H  133  11.030  11.305   7.195  0.6212  0.0445  1.4276
  726MOL0     H  134  11.024  11.482   7.205  0.4195 -1.5210  1.6135
  726MOL0     H  135  11.035  11.329   6.934 -0.2470  0.8451 -0.2769
  726MOL0     H  136  11.069  11.505   6.958 -0.2013 -0.1063 -1.5811
  726MOL0     H  137  11.291  11.570   7.077  1.1400  0.7297  1.4021
  726MOL0     H  138  11.551  11.434   7.248  1.5062 -3.3450 -0.9143
  726MOL0     H  139  11.556  11.565   7.118 -0.4701  0.1772 -3.5503
  726MOL0     H  140  11.765  11.436   7.114  1.0599  0.2682 -2.1079
  726MOL0     H  141  11.668  11.285   7.072  0.2463  0.1437 -1.6704
  726MOL0     H  142  11.578  11.390   6.883  0.2596 -0.7480 -0.0291
  726MOL0     H  143  11.677  11.533   6.914 -0.1889  0.1571  0.2911
  726MOL0     H  144  11.823  11.276   6.904 -0.8375 -0.1375  0.6340
  726MOL0     H  145  11.761  11.343   6.749  2.7241  1.2471 -1.2122
  726MOL0     H  146  12.014  11.200   6.841  1.1328 -0.6060  2.9179
  726MOL0     H  147  12.147  11.035   6.748 -1.8296  1.4600 -0.8678
  726MOL0     H  148  12.273  11.066   6.870 -2.6491  2.3777  0.5652
  726MOL0     H  149  12.304  11.087   6.687 -0.7091  4.1553 -1.0946
  726MOL0     H  150  12.733  11.376   6.815 -1.2788 -0.4671  1.9800
  726MOL0     H  151  12.952  11.304   6.728  0.2163 -0.4303 -1.3242
  726MOL0     H  152  13.123  11.189   6.615 -2.0524 -0.6558  0.5593
  726MOL0     H  153  13.157  11.193   6.789  2.4505 -0.7746  0.0679
  726MOL0     H  154  13.265  10.988   6.586  1.1214 -2.8684  2.1431
  726MOL0     H  155  13.343  11.138   6.617  2.1454 -1.8479 -0.3529
  726MOL0     H  156  13.283  10.932   6.813  0.0353 -1.2637 -2.3571
  726MOL0     H  157  13.353  11.096   6.848 -1.2469 -0.9579 -0.5965
  726MOL0     H  158  13.555  11.047   6.731  0.5227 -0.5719 -2.3191
  726MOL0     H  159  13.483  10.900   6.654 -1.8474  0.2666 -0.7135
  726MOL0     H  160  13.517  10.948   6.952  0.1172 -1.2409  0.5460
  726MOL0     H  161  13.473  10.795   6.874  1.2844 -1.4551 -0.3717
  726MOL0     H  162  13.743  10.925   6.857  0.1138 -0.9162  3.6421
  726MOL0     H  163  13.683  10.803   6.747  0.9121  3.6703 -2.2112
  726MOL0     H  164  13.670  10.643   6.920  0.7243 -0.3395  0.1248
  726MOL0     H  165  13.671  10.758   7.057 -0.0699  0.9593 -0.6458
  726MOL0     H  166  13.931  10.672   6.910 -0.4064 -2.3117  0.2925
  726MOL0     H  167  13.881  10.620   7.059  0.4553 -1.8520 -2.9847
  726MOL0     H  168  12.829  10.899   6.752  2.1056  0.6665  0.4451
  726MOL0     H  169  12.599  10.964   6.807 -1.2916  1.7940  0.8452
  726MOL0     H  170  12.334  11.558   6.758 -0.9239  0.2888 -0.6198
  726MOL0     H  171  12.112  11.618   6.816 -0.3664 -0.1759  0.5950
  726MOL0     H  172  10.231  11.213   7.536 -1.1757 -2.2612 -3.7113
  726MOL0     H  173  10.125  11.315   7.726  1.7336  0.6003 -1.6440
  726MOL0     H  174   9.675  11.255   7.891 -0.6911 -0.5758  3.5580
  726MOL0     H  175   9.542  11.295   8.092 -2.2891  1.5370  0.7980
  726MOL0     H  176   9.561  11.706   8.297 -0.4245 -0.7371  0.4047
  726MOL0     H  177   9.437  11.714   8.173 -0.5300  3.7349  1.9018
  726MOL0     H  178   9.372  11.730   8.432  2.8093  0.4086  0.4504
  726MOL0     H  179   9.431  11.565   8.447  0.4727 -0.1931  1.0906
  726MOL0     H  180   9.196  11.600   8.251 -0.7339 -2.0869  0.0422
  726MOL0     H  181   9.234  11.466   8.343 -1.0835 -0.4085 -0.0167
  726MOL0     H  182   9.032  11.600   8.411 -0.5002  1.7119 -0.6531
  726MOL0     H  183   9.136  11.726   8.470 -0.5754  0.8858 -1.7911
  726MOL0     H  184   9.122  11.480   8.805 -1.8938  1.2040  0.3063
  726MOL0     H  185   9.676  11.702   8.090  1.3861 -1.1939  3.4723
  726MOL0     H  186   9.797  11.734   7.786  0.0724 -1.0929 -0.8007
  726MOL0     H  187   9.785  11.788   7.947 -3.1689 -1.1041 -0.9306
  726MOL0     H  188   9.933  11.698   7.901  0.2730  0.7423 -1.4726
  727MOL0     O  189   5.144   0.405   9.593  0.1934  0.4874  0.1718
  727MOL0     C  190   5.110   0.476   9.497  0.0312 -0.0942 -0.2960
  727MOL0     O  191   5.188   0.521   9.398  0.0809  0.3057  0.2493
  727MOL0     C  192   5.322   0.514   9.420 -0.4238 -0.1140  0.2337
  727MOL0     C  193   5.395   0.420   9.345  0.1596  0.4299  0.8736
  727MOL0     C  194   5.533   0.413   9.338 -0.1401  0.1402  0.1264
  727MOL0     C  195   5.602   0.511   9.405 -0.4330 -0.3569 -0.8707
  727MOL0     O  196   5.736   0.517   9.369 -0.3535 -0.2073 -0.2674
  727MOL0     C  197   5.805   0.623   9.440 -0.2231 -0.1084  0.5540
  727MOL0     C  198   5.952   0.626   9.383  0.1783 -1.1087 -0.1856
  727MOL0     C  199   6.023   0.496   9.384 -0.0516  0.1905 -0.1785
  727MOL0     C  200   6.164   0.506   9.332  0.7866 -0.0812  0.2276
  727MOL0     C  201   6.230   0.373   9.338  0.1911  0.4816  0.5987
  727MOL0     C  202   6.381   0.369   9.282  0.5258 -0.1810 -0.0691
  727MOL0     C  203   6.451   0.239   9.293 -0.3947  0.2490  0.6718
  727MOL0     C  204   6.506   0.225   9.429  0.3629  0.7118  0.1173
  727MOL0     N  205   6.602   0.114   9.430 -0.0754  0.1705 -0.3120
  727MOL0     C  206   6.735   0.127   9.417  0.2828 -0.6689 -0.8775
  727MOL0     C  207   6.784   0.005   9.391  0.1411  0.8169  0.2281
  727MOL0     C  208   6.931  -0.033   9.380  0.4512 -0.0095 -0.8622
  727MOL0     C  209   6.952  -0.186   9.382  0.3342  0.3288 -1.5357
  727MOL0     C  210   7.101  -0.221   9.362  0.3976  0.4090 -0.1947
  727MOL0     C  211   7.114  -0.371   9.341 -0.2283  0.2386 -0.5529
  727MOL0     O  212   7.249  -0.421   9.341 -0.0651 -1.0207 -0.1265
  727MOL0     C  213   7.318  -0.415   9.463  0.1241  0.5246 -0.0756
  727MOL0     C  214   7.270  -0.457   9.592 -0.2797 -0.2922 -0.0875
  727MOL0     C  215   7.338  -0.437   9.712  0.0407  0.1298  0.3052
  727MOL0     C  216   7.264  -0.490   9.835  0.1347 -0.0864 -0.5134
  727MOL0     C  217   7.469  -0.375   9.707 -0.0436  0.3970  0.4614
  727MOL0     C  218   7.549  -0.335   9.819 -0.1274  1.1032 -0.1634
  727MOL0     O  219   7.684  -0.304   9.797  0.6128 -0.0235  0.1623
  727MOL0     C  220   7.759  -0.318   9.912 -0.6693 -0.3969 -0.0920
  727MOL0     C  221   7.828  -0.436   9.939  1.0627  0.2928 -0.0810
  727MOL0     C  222   7.914  -0.453  10.049  1.2660  1.0223 -0.0582
  727MOL0     C  223   7.922  -0.354  10.150 -0.0968 -0.8619  1.0013
  727MOL0     O  224   8.012  -0.370  10.254  0.4074 -0.5364  0.1346
  727MOL0     C  225   8.126  -0.451  10.233  0.0927  0.1358 -0.7762
  727MOL0     C  226   8.225  -0.435  10.347  0.5304 -0.5979 -0.0674
  727MOL0     C  227   8.311  -0.302  10.335 -0.1866  0.0260  0.1176
  727MOL0     C  228   8.375  -0.276  10.471  0.2493  0.3747  0.6046
  727MOL0     C  229   8.456  -0.151  10.472  0.3201 -0.3777  0.3164
  727MOL0     C  230   8.517  -0.108  10.607 -0.6333 -0.5800 -0.1752
  727MOL0     C  231   8.574   0.036  10.602  0.1140 -0.2783 -0.1915
  727MOL0     C  232   8.560   0.110  10.732  0.1702 -0.0202  0.1710
  727MOL0    Cl  233   8.694   0.064  10.837 -0.1262  0.1856 -0.0895
  727MOL0     C  234   7.845  -0.238  10.128 -0.5634  0.1515  0.0715
  727MOL0     C  235   7.774  -0.214  10.008  0.3459  0.3561  0.3039
  727MOL0     O  236   7.493  -0.309   9.930  1.4134 -0.2856  0.8486
  727MOL0     C  237   7.523  -0.345   9.583 -0.2703  0.7309  0.3722
  727MOL0     C  238   7.452  -0.367   9.462  0.0632  0.3260  0.2172
  727MOL0     N  239   6.678  -0.085   9.389  0.4091 -0.1824  0.1005
  727MOL0     N  240   6.570  -0.015   9.419 -0.4277 -0.0651 -1.0083
  727MOL0     C  241   5.534   0.599   9.496  0.0805  0.8238  0.0465
  727MOL0     C  242   5.395   0.598   9.499 -0.3978 -0.2966  0.8583
  727MOL0     C  243   4.968   0.525   9.475  0.4543  0.2982  0.4711
  727MOL0     C  244   4.940   0.631   9.390 -0.9268 -0.1638  0.6088
  727MOL0     C  245   4.808   0.676   9.370 -0.7793 -0.1151  0.1441
  727MOL0     C  246   4.702   0.634   9.436 -0.2456 -0.4837 -0.6601
  727MOL0     O  247   4.586   0.701   9.415 -0.9090 -0.0284  0.2263
  727MOL0     C  248   4.461   0.658   9.464 -0.1850  0.5809  0.6308
  727MOL0     C  249   4.413   0.546   9.377 -0.8776  0.2002  0.5982
  727MOL0     C  250   4.416   0.584   9.234 -0.2827  0.5816  0.3131
  727MOL0     C  251   4.318   0.499   9.152 -0.2978  0.7230 -0.7619
  727MOL0     C  252   4.358   0.496   9.011 -0.5039 -0.2904 -0.3955
  727MOL0     C  253   4.380   0.514   8.889  0.0714 -0.2685 -0.2372
  727MOL0     C  254   4.732   0.530   9.523 -0.4458  0.4793 -0.1148
  727MOL0     C  255   4.858   0.471   9.540  1.0774 -0.8516  0.7122
  727MOL0     C  256   4.844   0.356   9.625 -0.5448 -0.3572  0.0434
  727MOL0     H  257   5.336   0.352   9.284  1.8386  1.0174 -1.5493
  727MOL0     H  258   5.581   0.328   9.289 -1.9403 -1.8884  1.6560
  727MOL0     H  259   5.807   0.593   9.545 -0.7496  1.1946  0.9662
  727MOL0     H  260   5.760   0.722   9.424 -0.2036 -0.2697 -0.5700
  727MOL0     H  261   5.959   0.668   9.282 -1.3343 -0.1973  0.0704
  727MOL0     H  262   6.013   0.693   9.443 -0.0029  0.3053 -1.5101
  727MOL0     H  263   6.020   0.453   9.485  0.4462  1.4460  0.3921
  727MOL0     H  264   5.977   0.431   9.310 -0.5139  1.8023 -1.3630
  727MOL0     H  265   6.144   0.531   9.227 -1.0477 -0.8679  0.3732
  727MOL0     H  266   6.221   0.586   9.381 -1.4643  1.8331 -0.1140
  727MOL0     H  267   6.174   0.301   9.278  4.1721 -1.4716 -1.1559
  727MOL0     H  268   6.238   0.331   9.439  1.1879 -0.5960  0.1044
  727MOL0     H  269   6.389   0.395   9.176  0.2784  0.5033  0.0767
  727MOL0     H  270   6.435   0.443   9.342 -2.1053  0.9534  1.0210
  727MOL0     H  271   6.534   0.246   9.222 -0.5322 -0.4950  0.4294
  727MOL0     H  272   6.388   0.158   9.256 -0.6522  1.1012 -0.8248
  727MOL0     H  273   6.567   0.315   9.445  3.1005 -1.0494  0.3217
  727MOL0     H  274   6.425   0.203   9.499 -2.5419  1.2017 -2.8842
  727MOL0     H  275   6.801   0.208   9.445 -0.5563 -0.8108  1.7949
  727MOL0     H  276   6.983   0.008   9.467  0.4557 -0.6926 -0.5370
  727MOL0     H  277   6.967   0.001   9.282  1.5528 -1.3713 -0.9569
  727MOL0     H  278   6.911  -0.228   9.474 -0.2913  0.5460 -1.7040
  727MOL0     H  279   6.884  -0.226   9.305 -1.2990  0.4456 -0.2079
  727MOL0     H  280   7.146  -0.172   9.276  0.5164 -3.7276 -2.7631
  727MOL0     H  281   7.155  -0.190   9.452  0.0325 -0.9062  0.5053
  727MOL0     H  282   7.053  -0.424   9.415 -1.3492  0.5941 -1.2043
  727MOL0     H  283   7.079  -0.393   9.240  0.1795  1.1661 -0.9102
  727MOL0     H  284   7.172  -0.505   9.598  0.5426 -1.8462  2.9487
  727MOL0     H  285   7.333  -0.484   9.920 -1.6329 -0.3288  0.9950
  727MOL0     H  286   7.226  -0.591   9.818  2.2676 -1.4569  1.9936
  727MOL0     H  287   7.179  -0.425   9.857  1.7708  1.4651  1.8004
  727MOL0     H  288   7.814  -0.517   9.868  2.0600 -0.6416  0.7492
  727MOL0     H  289   7.956  -0.553  10.052  0.6848  0.7621 -0.4312
  727MOL0     H  290   8.101  -0.557  10.230 -1.7930  0.4703  0.6599
  727MOL0     H  291   8.165  -0.414  10.138 -1.7862 -0.7828 -1.9883
  727MOL0     H  292   8.168  -0.436  10.441  0.9477  0.3350  0.1990
  727MOL0     H  293   8.291  -0.521  10.337 -0.1922 -1.0076 -1.6185
  727MOL0     H  294   8.240  -0.225  10.305 -1.3702 -2.1828 -3.4969
  727MOL0     H  295   8.387  -0.316  10.257 -1.0648  0.8618 -0.9151
  727MOL0     H  296   8.446  -0.357  10.494 -3.1822 -2.5510  1.8284
  727MOL0     H  297   8.292  -0.261  10.541 -1.0019  3.3948 -1.3729
  727MOL0     H  298   8.530  -0.159  10.392 -2.1473 -1.6733 -2.0410
  727MOL0     H  299   8.385  -0.073  10.444 -2.4839 -3.1871 -1.0975
  727MOL0     H  300   8.587  -0.178  10.652 -0.2501  0.7214  1.3740
  727MOL0     H  301   8.444  -0.123  10.687  2.4142  0.2670  3.0009
  727MOL0     H  302   8.526   0.102  10.528  2.9916  1.4858 -0.6352
  727MOL0     H  303   8.678   0.021  10.574  0.1432 -1.4353  0.4978
  727MOL0     H  304   8.459   0.096  10.772  0.0131 -0.8248 -0.4833
  727MOL0     H  305   8.564   0.219  10.720 -0.4444 -0.0149 -0.0291
  727MOL0     H  306   7.859  -0.167  10.209  0.4870  0.1433 -0.0890
  727MOL0     H  307   7.728  -0.116   9.999  0.6785  0.5187  0.3957
  727MOL0     H  308   7.620  -0.297   9.576  0.0805 -0.2108 -3.4559
  727MOL0     H  309   7.498  -0.357   9.364  0.0067 -3.6212 -0.3542
  727MOL0     H  310   5.592   0.672   9.551  2.2070  2.0083 -3.4567
  727MOL0     H  311   5.335   0.669   9.556 -0.1548 -0.1786  0.9663
  727MOL0     H  312   5.022   0.680   9.337  0.5962 -2.3841  0.7954
  727MOL0     H  313   4.809   0.764   9.307  1.8050 -0.3515 -0.2570
  727MOL0     H  314   4.462   0.640   9.572 -0.1084 -1.5948  0.3160
  727MOL0     H  315   4.391   0.742   9.465 -2.5587 -1.2629 -0.2386
  727MOL0     H  316   4.311   0.523   9.406 -2.8972  2.8737 -3.4529
  727MOL0     H  317   4.471   0.454   9.394 -1.0552  0.2477  1.4805
  727MOL0     H  318   4.400   0.691   9.215 -0.2703  0.6645  0.7520
  727MOL0     H  319   4.515   0.565   9.190 -0.0492 -0.0696  1.0970
  727MOL0     H  320   4.216   0.537   9.160 -0.8530 -0.5318 -1.5621
  727MOL0     H  321   4.308   0.398   9.193  0.1248  0.0572 -2.2273
  727MOL0     H  322   4.408   0.530   8.787 -3.1621 -0.7331 -1.3280
  727MOL0     H  323   4.642   0.496   9.574  0.7662 -1.2079  0.9868
  727MOL0     H  324   4.913   0.275   9.599  0.2062 -0.4060  2.0258
  727MOL0     H  325   4.851   0.379   9.732 -1.8425 -0.3311  0.1441
  727MOL0     H  326   4.741   0.318   9.628 -2.1357  3.5643  1.3494
  728MOL0     O  327   5.715   2.239   6.525 -0.7771  0.4775 -0.4948
  728MOL0     C  328   5.658   2.329   6.469 -0.2743  0.4819 -0.3010
  728MOL0     O  329   5.705   2.454   6.454  0.5293 -0.2721  0.2448
  728MOL0     C  330   5.834   2.496   6.474  0.6202  0.7711 -0.9385
  728MOL0     C  331   5.859   2.630   6.512  0.3355 -0.2638 -0.5431
  728MOL0     C  332   5.998   2.672   6.533 -0.1159  0.1808  0.4848
  728MOL0     C  333   6.104   2.581   6.512  0.2774  0.4361  0.1161
  728MOL0     O  334   6.220   2.634   6.544 -0.6844  0.2571 -0.4619
  728MOL0     C  335   6.335   2.559   6.497 -0.4857 -0.3781  0.1808
  728MOL0     C  336   6.449   2.649   6.551 -0.3910 -0.5597  0.2178
  728MOL0     C  337   6.582   2.586   6.509  0.7113  0.4169  0.7834
  728MOL0     C  338   6.696   2.676   6.551 -0.4065  0.3776  0.7080
  728MOL0     C  339   6.835   2.632   6.501 -1.5890 -1.4420 -0.0173
  728MOL0     C  340   6.946   2.719   6.559 -0.5343  0.3034 -0.4588
  728MOL0     C  341   7.081   2.681   6.501  0.5646 -0.1103  0.1734
  728MOL0     C  342   7.097   2.729   6.355 -0.8727  0.1684  0.6649
  728MOL0     N  343   7.232   2.711   6.308 -0.5845 -0.8159  0.1686
  728MOL0     C  344   7.299   2.585   6.300  0.7677  0.1587 -1.3445
  728MOL0     C  345   7.433   2.611   6.286  0.1308 -0.5162 -0.1985
  728MOL0     C  346   7.542   2.501   6.287  0.5932 -0.2883 -0.0153
  728MOL0     C  347   7.662   2.534   6.198  0.5291 -0.2393 -0.6229
  728MOL0     C  348   7.742   2.409   6.143 -0.1341  0.3763 -0.1277
  728MOL0     C  349   7.894   2.434   6.164 -0.0974 -0.8913 -0.6284
  728MOL0     O  350   7.926   2.458   6.297 -0.5295  0.6273  0.0407
  728MOL0     C  351   8.047   2.520   6.318  0.2438 -0.3190  0.3988
  728MOL0     C  352   8.082   2.574   6.442  0.8082  0.8514 -0.5585
  728MOL0     C  353   8.202   2.635   6.469 -0.3977 -0.1728  0.4798
  728MOL0     C  354   8.216   2.699   6.610 -0.1363  0.1339 -0.8409
  728MOL0     C  355   8.296   2.643   6.365 -0.4235  0.2915  0.4422
  728MOL0     C  356   8.426   2.716   6.366 -0.5060  0.1731  0.0121
  728MOL0     O  357   8.536   2.651   6.306  0.1897  0.2879  0.1603
  728MOL0     C  358   8.659   2.699   6.331 -0.7288  0.8184  0.5843
  728MOL0     C  359   8.760   2.606   6.354  0.5223 -0.9710 -0.3436
  728MOL0     C  360   8.890   2.644   6.375  0.4400  0.2929 -0.6716
  728MOL0     C  361   8.930   2.779   6.349 -0.2959  0.1671  0.5401
  728MOL0     O  362   9.064   2.828   6.341  0.0902  0.0503 -0.2210
  728MOL0     C  363   9.150   2.754   6.426  0.2028 -1.3505 -0.3162
  728MOL0     C  364   9.282   2.840   6.419 -1.1018 -0.3972  0.9422
  728MOL0     C  365   9.403   2.762   6.477 -0.5230  0.8952 -0.8258
  728MOL0     C  366   9.464   2.656   6.388  0.8301 -0.6428 -0.0567
  728MOL0     C  367   9.568   2.571   6.461 -0.4307 -0.1614 -0.5529
  728MOL0     C  368   9.701   2.645   6.490  0.2291 -0.5784 -0.3948
  728MOL0     C  369   9.816   2.572   6.565  0.1612  0.8984  0.3307
  728MOL0     C  370   9.949   2.648   6.564  0.2942  0.1059  0.5804
  728MOL0    Cl  371  10.059   2.536   6.643 -0.1579  0.0658 -0.0312
  728MOL0     C  372   8.835   2.864   6.296  0.3850  0.6908  0.1857
  728MOL0     C  373   8.699   2.826   6.298 -0.7176  0.2966  1.5420
  728MOL0     O  374   8.424   2.823   6.421  0.9751 -0.3909  0.6985
  728MOL0     C  375   8.267   2.566   6.248  0.2752 -0.0868  0.0630
  728MOL0     C  376   8.146   2.508   6.224  0.0600  0.0033  0.1395
  728MOL0     N  377   7.445   2.754   6.285 -0.3589 -1.1753 -0.1032
  728MOL0     N  378   7.330   2.811   6.300 -0.2791  0.7878 -0.5283
  728MOL0     C  379   6.084   2.456   6.462 -0.1449  0.1955 -0.2741
  728MOL0     C  380   5.950   2.407   6.448  0.0580 -0.7792  0.0618
  728MOL0     C  381   5.533   2.307   6.382 -0.0398 -0.0661  0.4031
  728MOL0     C  382   5.512   2.385   6.267 -1.0867 -0.2007 -0.5237
  728MOL0     C  383   5.399   2.378   6.183  0.7809  0.6342  1.3020
  728MOL0     C  384   5.306   2.277   6.208 -1.0324 -0.2718  0.0573
  728MOL0     O  385   5.197   2.264   6.135  0.6596 -0.0716  0.3204
  728MOL0     C  386   5.120   2.374   6.105 -0.0258  0.5316  0.4410
  728MOL0     C  387   5.116   2.389   5.955  0.1305  0.5916  0.8121
  728MOL0     C  388   5.047   2.264   5.896 -0.0591 -0.1273  0.6161
  728MOL0     C  389   4.952   2.307   5.783  0.0964 -0.6509  0.2191
  728MOL0     C  390   4.828   2.374   5.827 -0.6022 -0.3912 -0.5724
  728MOL0     C  391   4.715   2.417   5.860 -0.0840  0.5461 -0.4622
  728MOL0     C  392   5.335   2.189   6.303  0.4806  0.7404 -0.7549
  728MOL0     C  393   5.446   2.195   6.388 -0.4795  0.0258 -0.7721
  728MOL0     C  394   5.442   2.111   6.513 -0.0150  0.4232 -0.8754
  728MOL0     H  395   5.768   2.683   6.539 -0.3806 -2.2581  1.2377
  728MOL0     H  396   6.007   2.768   6.583 -3.2217  1.0323 -0.3916
  728MOL0     H  397   6.330   2.545   6.389  1.2807 -1.7262  0.2281
  728MOL0     H  398   6.336   2.463   6.549  0.8425 -0.5607 -0.1548
  728MOL0     H  399   6.438   2.752   6.514 -2.4083 -1.0402 -0.6292
  728MOL0     H  400   6.455   2.652   6.660  0.7158  1.0328  0.1482
  728MOL0     H  401   6.587   2.485   6.551 -1.8347 -1.0698 -2.1313
  728MOL0     H  402   6.567   2.568   6.402 -0.4363 -1.0561  1.1623
  728MOL0     H  403   6.677   2.779   6.523  0.9700  0.3886 -0.2698
  728MOL0     H  404   6.700   2.685   6.660  1.3558  2.8499  0.5269
  728MOL0     H  405   6.831   2.631   6.392 -0.0508  1.0976 -0.1691
  728MOL0     H  406   6.847   2.528   6.534 -1.4798 -1.9453 -1.5594
  728MOL0     H  407   6.931   2.826   6.540 -1.9439 -0.0316 -1.3741
  728MOL0     H  408   6.960   2.705   6.667  1.8377 -1.4504 -0.9133
  728MOL0     H  409   7.098   2.573   6.499  0.8471 -0.0625 -2.0699
  728MOL0     H  410   7.165   2.726   6.553  1.3842 -1.2300 -0.1476
  728MOL0     H  411   7.033   2.674   6.287 -2.0266  3.2922 -0.9750
  728MOL0     H  412   7.067   2.834   6.352  0.0481  0.4944  1.8548
  728MOL0     H  413   7.262   2.484   6.316  3.4956 -0.4652  2.1793
  728MOL0     H  414   7.500   2.403   6.264 -0.0074 -0.2553  0.9089
  728MOL0     H  415   7.582   2.496   6.389  1.0132  1.4446 -0.0507
  728MOL0     H  416   7.615   2.580   6.110  1.9349 -1.0792 -1.8568
  728MOL0     H  417   7.725   2.614   6.237 -0.2561 -1.0862  2.6596
  728MOL0     H  418   7.700   2.317   6.185  1.5436 -0.2374  0.2941
  728MOL0     H  419   7.733   2.392   6.035 -0.8199 -3.0115  0.3465
  728MOL0     H  420   7.943   2.339   6.146  0.9588 -1.5128  4.2135
  728MOL0     H  421   7.917   2.520   6.100 -1.4028 -0.6862 -0.8506
  728MOL0     H  422   8.004   2.570   6.517  2.1279  0.7987  0.8674
  728MOL0     H  423   8.224   2.808   6.611  3.2874 -0.0263  0.0434
  728MOL0     H  424   8.314   2.671   6.650 -0.0186  1.0531 -0.4540
  728MOL0     H  425   8.148   2.666   6.688  1.4496 -0.4378  0.3428
  728MOL0     H  426   8.726   2.504   6.367 -1.7103 -0.0620  1.6158
  728MOL0     H  427   8.962   2.568   6.403 -1.3641 -0.4266  2.6298
  728MOL0     H  428   9.112   2.754   6.529  0.5075 -1.1796 -0.2034
  728MOL0     H  429   9.165   2.650   6.395  0.3526 -1.2843 -0.4657
  728MOL0     H  430   9.301   2.863   6.314  1.1236 -1.7715  0.9737
  728MOL0     H  431   9.277   2.937   6.470 -0.2195  0.2292 -0.1284
  728MOL0     H  432   9.378   2.734   6.579 -0.1659  0.4916 -0.8428
  728MOL0     H  433   9.483   2.836   6.494  0.8884 -1.1633  2.3118
  728MOL0     H  434   9.515   2.697   6.300  1.8125 -4.2897 -1.3660
  728MOL0     H  435   9.387   2.583   6.360  1.5136 -3.2556  3.9673
  728MOL0     H  436   9.524   2.532   6.553  0.7907  0.3990  0.2955
  728MOL0     H  437   9.592   2.482   6.403 -0.1746 -0.8890  0.6340
  728MOL0     H  438   9.684   2.742   6.538  0.8117 -0.4978 -0.3404
  728MOL0     H  439   9.739   2.663   6.389 -1.4811 -2.2331 -1.3898
  728MOL0     H  440   9.832   2.476   6.517 -3.0379  0.3829  0.0335
  728MOL0     H  441   9.783   2.547   6.667  0.9520 -2.8919 -0.2072
  728MOL0     H  442   9.932   2.736   6.626 -2.2869 -0.4896  0.8280
  728MOL0     H  443   9.982   2.674   6.463  0.6538 -0.7541  0.4721
  728MOL0     H  444   8.852   2.966   6.264 -0.9474  1.1289  0.8189
  728MOL0     H  445   8.625   2.900   6.272 -0.0459  0.3543 -0.3891
  728MOL0     H  446   8.350   2.554   6.178  0.9705 -0.9687  1.0166
  728MOL0     H  447   8.138   2.454   6.130  2.0814 -3.4996  1.7766
  728MOL0     H  448   6.170   2.397   6.432  0.8815  1.6117 -0.2076
  728MOL0     H  449   5.918   2.309   6.413  0.4139 -0.5554 -0.9323
  728MOL0     H  450   5.582   2.467   6.250 -1.0110 -0.0783  0.3333
  728MOL0     H  451   5.392   2.454   6.106  3.4744 -1.1058 -0.8892
  728MOL0     H  452   5.016   2.363   6.139  0.6667 -1.4196  2.1046
  728MOL0     H  453   5.157   2.464   6.154 -2.0049  0.1212  2.8801
  728MOL0     H  454   5.219   2.396   5.918  0.0890  1.7722  0.8903
  728MOL0     H  455   5.060   2.479   5.929 -1.7958 -1.2521 -1.8900
  728MOL0     H  456   5.131   2.212   5.851  0.4791 -0.7878  2.3072
  728MOL0     H  457   4.986   2.209   5.969 -0.1934  1.1022  1.4613
  728MOL0     H  458   4.918   2.224   5.721 -2.1607  0.9989 -0.8954
  728MOL0     H  459   4.994   2.374   5.707  0.2938 -0.3053  0.6286
  728MOL0     H  460   4.620   2.466   5.867  0.7787  2.0977  1.5921
  728MOL0     H  461   5.271   2.102   6.311  1.6909 -0.3282 -2.0518
  728MOL0     H  462   5.341   2.073   6.534  0.3941 -0.1378  0.1314
  728MOL0     H  463   5.510   2.028   6.493  1.0440  1.1313 -0.3139
  728MOL0     H  464   5.481   2.172   6.595 -1.0870 -1.2485  0.9778
  729MOL0     O  465   7.530   5.219   5.007 -0.3231 -0.9235  0.0541
  729MOL0     C  466   7.506   5.310   4.926  0.0119 -0.6963 -0.1442
  729MOL0     O  467   7.593   5.375   4.848  0.3378  0.1355 -0.0124
  729MOL0     C  468   7.728   5.363   4.875  0.1219  0.1601 -0.4484
  729MOL0     C  469   7.807   5.288   4.777  0.9009  0.2711 -0.0140
  729MOL0     C  470   7.949   5.286   4.790 -0.0443 -0.5132  0.0858
  729MOL0     C  471   8.012   5.348   4.891  1.3744 -0.5210  0.1536
  729MOL0     O  472   8.142   5.338   4.927  0.5908 -0.1208  0.7453
  729MOL0     C  473   8.235   5.254   4.855 -0.1361  1.0406  0.5235
  729MOL0     C  474   8.376   5.261   4.932  0.1812 -0.4204 -0.1485
  729MOL0     C  475   8.384   5.158   5.051  0.9866 -0.3762 -0.4370
  729MOL0     C  476   8.533   5.120   5.095  0.3330 -0.2651  0.4719
  729MOL0     C  477   8.541   4.999   5.199  0.8093 -1.1637 -0.7455
  729MOL0     C  478   8.468   4.864   5.164  0.4473  0.0010  0.6050
  729MOL0     C  479   8.491   4.764   5.282  0.1279 -0.5974  1.3398
  729MOL0     C  480   8.452   4.619   5.247  0.2929  0.0733  0.9187
  729MOL0     N  481   8.309   4.595   5.215 -0.3159  0.7759  0.6117
  729MOL0     C  482   8.245   4.595   5.094 -0.1208 -0.2619 -0.7813
  729MOL0     C  483   8.113   4.589   5.120 -0.0089  0.6783  0.7712
  729MOL0     C  484   7.997   4.591   5.018 -0.7703  0.0345 -0.4805
  729MOL0     C  485   7.984   4.459   4.950 -1.4179  0.0235 -0.9563
  729MOL0     C  486   7.908   4.476   4.809  0.2432  0.8764  0.1979
  729MOL0     C  487   8.003   4.522   4.697 -0.1976  0.1968  0.3507
  729MOL0     O  488   8.015   4.664   4.694 -0.2527 -0.2055  0.1742
  729MOL0     C  489   8.132   4.718   4.649 -0.5609  0.1428 -0.0686
  729MOL0     C  490   8.190   4.701   4.519 -0.8961 -0.2707 -0.2896
  729MOL0     C  491   8.315   4.759   4.488 -0.0495 -0.0009  0.3643
  729MOL0     C  492   8.369   4.741   4.345 -0.1471  0.2089 -0.0913
  729MOL0     C  493   8.383   4.836   4.591  0.5821  0.1910  0.9178
  729MOL0     C  494   8.519   4.903   4.574 -0.4274  0.6102  0.9823
  729MOL0     O  495   8.570   4.917   4.440  0.0802 -0.0710 -0.0635
  729MOL0     C  496   8.674   5.002   4.414  0.1322 -1.1499 -0.5230
  729MOL0     C  497   8.657   5.106   4.323  0.1195 -0.6715 -0.1417
  729MOL0     C  498   8.758   5.203   4.293  0.4924  0.8565  0.2620
  729MOL0     C  499   8.884   5.188   4.353  0.6200 -0.8721  0.3087
  729MOL0     O  500   8.999   5.257   4.317  0.2208 -0.0291  0.0326
  729MOL0     C  501   8.994   5.334   4.204 -0.6397  0.3619 -0.0831
  729MOL0     C  502   9.127   5.346   4.142 -1.0683  0.1928  0.2199
  729MOL0     C  503   9.232   5.416   4.226  1.0322  0.8465  0.1078
  729MOL0     C  504   9.361   5.456   4.147  0.5943 -0.6710 -0.1175
  729MOL0     C  505   9.457   5.530   4.237  0.0421  0.5145 -0.7907
  729MOL0     C  506   9.598   5.546   4.175  0.8162 -0.2046 -0.6142
  729MOL0     C  507   9.697   5.645   4.246 -0.0070  0.6926  0.4482
  729MOL0     C  508   9.669   5.793   4.223 -0.2464 -0.2270 -0.0190
  729MOL0    Cl  509   9.724   5.857   4.066  0.1042  0.6358 -0.8546
  729MOL0     C  510   8.899   5.083   4.445 -0.3995 -0.0066  0.1476
  729MOL0     C  511   8.804   4.999   4.479  0.3652  0.3379 -0.8275
  729MOL0     O  512   8.577   4.952   4.676  0.0355 -0.0265 -0.1694
  729MOL0     C  513   8.318   4.856   4.715  0.3635 -0.1708 -0.8707
  729MOL0     C  514   8.194   4.799   4.741 -0.7368 -0.7025 -0.3337
  729MOL0     N  515   8.100   4.576   5.260  0.6159 -0.0088 -0.1610
  729MOL0     N  516   8.218   4.593   5.315  0.2179  1.0205  0.0821
  729MOL0     C  517   7.939   5.413   4.990  0.6068 -0.0446  0.5349
  729MOL0     C  518   7.799   5.424   4.979  0.2476 -0.6135 -0.2578
  729MOL0     C  519   7.358   5.328   4.907 -0.5310 -0.7503  0.4276
  729MOL0     C  520   7.269   5.227   4.938  0.1706 -1.0529 -0.7516
  729MOL0     C  521   7.128   5.246   4.940  0.5565  0.1486  0.2675
  729MOL0     C  522   7.077   5.370   4.899 -0.7632  0.4981 -0.3450
  729MOL0     O  523   6.943   5.385   4.907 -0.2350  0.3706 -0.7378
  729MOL0     C  524   6.869   5.412   4.784 -0.1712 -0.7923  0.3585
  729MOL0     C  525   6.860   5.555   4.750 -0.5305  0.2980 -0.4988
  729MOL0     C  526   6.756   5.623   4.837 -0.3832 -0.4418 -0.4549
  729MOL0     C  527   6.781   5.622   4.988  0.3591 -0.2995 -0.9625
  729MOL0     C  528   6.727   5.746   5.050  0.0179 -0.6667  0.8475
  729MOL0     C  529   6.693   5.863   5.085  0.8549  0.1780  0.7302
  729MOL0     C  530   7.163   5.472   4.863 -0.3558 -0.5334  0.0313
  729MOL0     C  531   7.306   5.455   4.859  0.2153 -0.2237  0.1180
  729MOL0     C  532   7.390   5.566   4.793  0.0173  0.0612  1.0933
  729MOL0     H  533   7.754   5.249   4.691 -0.8194  2.2332  0.0696
  729MOL0     H  534   8.018   5.241   4.719  1.3492  0.5436  0.7194
  729MOL0     H  535   8.266   5.285   4.755  0.4987 -1.2795 -0.0741
  729MOL0     H  536   8.196   5.152   4.849 -0.8202  1.3763 -1.4274
  729MOL0     H  537   8.456   5.237   4.861 -0.1254  0.4052 -0.7771
  729MOL0     H  538   8.387   5.359   4.979 -2.2761 -0.1937  0.0762
  729MOL0     H  539   8.324   5.197   5.134  2.2216 -1.3148  0.9503
  729MOL0     H  540   8.334   5.074   5.003  0.0950  0.8807 -1.7927
  729MOL0     H  541   8.593   5.087   5.010  2.6043  3.5171  0.3730
  729MOL0     H  542   8.587   5.199   5.149 -0.4882  1.5943 -1.3062
  729MOL0     H  543   8.498   5.030   5.296  0.7796 -1.5266 -0.6434
  729MOL0     H  544   8.646   4.981   5.223  0.8572 -0.9109 -0.7625
  729MOL0     H  545   8.361   4.873   5.144  0.7655 -0.4497 -1.4771
  729MOL0     H  546   8.514   4.825   5.073  0.3697  1.5124 -0.1106
  729MOL0     H  547   8.447   4.804   5.373 -1.6972  0.9921 -0.1416
  729MOL0     H  548   8.600   4.752   5.290  0.1451 -0.5065  1.2490
  729MOL0     H  549   8.500   4.581   5.156 -2.0488 -2.1014  0.4571
  729MOL0     H  550   8.463   4.554   5.334 -2.2063  1.9459  2.7642
  729MOL0     H  551   8.300   4.605   5.001  0.9617  1.9668  0.0304
  729MOL0     H  552   7.984   4.674   4.948 -1.0935 -1.5136 -2.3343
  729MOL0     H  553   7.909   4.597   5.083 -0.3035 -1.6677  0.3825
  729MOL0     H  554   8.084   4.421   4.931 -0.6865  1.3003  0.1955
  729MOL0     H  555   7.928   4.387   5.010  1.1474 -0.7948  0.5772
  729MOL0     H  556   7.876   4.377   4.774  1.2244  0.3712  0.6806
  729MOL0     H  557   7.814   4.531   4.821 -0.5090 -0.4629  0.8505
  729MOL0     H  558   8.098   4.467   4.708  0.2854 -0.5691 -4.8464
  729MOL0     H  559   7.967   4.485   4.600 -0.2582 -0.2338  0.5329
  729MOL0     H  560   8.140   4.633   4.451  0.7636 -0.8303 -0.9990
  729MOL0     H  561   8.320   4.660   4.291  0.0003 -0.7432  1.1398
  729MOL0     H  562   8.463   4.694   4.376 -0.6988  1.2786  3.8176
  729MOL0     H  563   8.384   4.825   4.276  0.0919  0.1318 -0.1349
  729MOL0     H  564   8.563   5.119   4.269  1.9387  2.5402 -2.9270
  729MOL0     H  565   8.735   5.267   4.208 -3.3153 -3.2364 -2.1917
  729MOL0     H  566   8.932   5.296   4.123  0.4129  1.8239 -1.6382
  729MOL0     H  567   8.953   5.431   4.231 -2.0503 -0.2152 -0.0684
  729MOL0     H  568   9.165   5.248   4.111 -2.1091  0.7172 -3.1519
  729MOL0     H  569   9.120   5.399   4.047 -2.0135 -0.2169  0.0527
  729MOL0     H  570   9.254   5.353   4.312 -1.7668 -1.5005 -0.7083
  729MOL0     H  571   9.182   5.508   4.258  0.3973 -0.0956  1.9666
  729MOL0     H  572   9.337   5.515   4.058 -0.3970  0.9260  1.1423
  729MOL0     H  573   9.407   5.361   4.121  1.2851 -0.4874  0.3955
  729MOL0     H  574   9.415   5.621   4.282  4.5849  1.1301  3.0215
  729MOL0     H  575   9.470   5.478   4.332 -0.3780  1.6168 -0.1028
  729MOL0     H  576   9.591   5.574   4.070 -1.0591 -1.8946 -1.0190
  729MOL0     H  577   9.636   5.443   4.177 -0.9751 -0.8921  0.4778
  729MOL0     H  578   9.798   5.621   4.213 -0.2971 -3.4193  1.9222
  729MOL0     H  579   9.690   5.623   4.353  1.2962  3.5217  1.2196
  729MOL0     H  580   9.721   5.853   4.298 -0.0221  1.3033 -1.3465
  729MOL0     H  581   9.561   5.809   4.226 -0.2050 -0.0808  1.5747
  729MOL0     H  582   8.990   5.073   4.503 -2.2692 -0.9270  3.1074
  729MOL0     H  583   8.813   4.919   4.552 -0.6086  2.0571  1.2559
  729MOL0     H  584   8.361   4.918   4.794  2.1251 -2.1977 -0.1438
  729MOL0     H  585   8.157   4.813   4.842 -0.0442 -1.3706  0.0194
  729MOL0     H  586   7.994   5.468   5.066 -0.4272  1.0471  0.5224
  729MOL0     H  587   7.730   5.483   5.038 -3.5276 -1.9955 -2.9238
  729MOL0     H  588   7.297   5.128   4.972 -0.9850 -0.9954  0.4519
  729MOL0     H  589   7.052   5.173   4.967  0.8399  0.4831  2.1241
  729MOL0     H  590   6.936   5.374   4.707  1.3813  0.1280  1.1893
  729MOL0     H  591   6.765   5.379   4.778 -1.3401  2.7032 -1.0666
  729MOL0     H  592   6.835   5.566   4.644  1.3620  1.0739 -0.9013
  729MOL0     H  593   6.959   5.602   4.756  0.3440 -1.0846 -2.5311
  729MOL0     H  594   6.751   5.728   4.806 -1.8696 -0.8241 -1.6505
  729MOL0     H  595   6.653   5.594   4.814 -1.3888  2.7337 -0.5645
  729MOL0     H  596   6.884   5.619   5.023 -0.0173 -0.1855  0.2314
  729MOL0     H  597   6.724   5.543   5.040  2.0184  0.1902  1.8247
  729MOL0     H  598   6.674   5.961   5.122  0.5116  0.5377 -0.3509
  729MOL0     H  599   7.137   5.574   4.837 -0.1228 -0.6590 -0.6991
  729MOL0     H  600   7.333   5.649   4.750  1.0324 -1.2546 -3.3148
  729MOL0     H  601   7.464   5.609   4.861  2.0590  1.8196 -2.0119
  729MOL0     H  602   7.437   5.527   4.702 -3.1789 -0.9461 -0.2589
  730MOL0     O  603   4.583   4.948   7.108 -0.3358 -0.2205  0.3407
  730MOL0     C  604   4.629   4.875   7.197 -0.4284 -0.1698 -0.0435
  730MOL0     O  605   4.759   4.866   7.235 -0.8775 -0.7407  0.2453
  730MOL0     C  606   4.855   4.951   7.178 -0.4486  1.4523 -0.5335
  730MOL0     C  607   4.876   5.076   7.228  0.0623  0.8926  0.3812
  730MOL0     C  608   4.992   5.143   7.187  0.2209 -0.0661 -0.1402
  730MOL0     C  609   5.083   5.097   7.095 -0.0806  0.4712 -0.0485
  730MOL0     O  610   5.207   5.158   7.079 -0.8439  0.4205 -0.3082
  730MOL0     C  611   5.322   5.097   7.143 -0.1452 -0.3629  0.7504
  730MOL0     C  612   5.365   4.960   7.097 -0.3969 -0.1971 -0.2589
  730MOL0     C  613   5.494   4.913   7.179 -0.2615 -0.0158  0.0174
  730MOL0     C  614   5.460   4.863   7.319  0.4514 -0.2632  0.0932
  730MOL0     C  615   5.563   4.775   7.377 -0.0914  0.7498 -0.9514
  730MOL0     C  616   5.690   4.845   7.432  0.0755  0.3862  0.4604
  730MOL0     C  617   5.782   4.755   7.508  0.5780 -0.1758 -0.6119
  730MOL0     C  618   5.847   4.651   7.418 -0.2542  0.5387  0.3734
  730MOL0     N  619   5.929   4.722   7.316 -0.2738 -0.2391  0.5970
  730MOL0     C  620   5.883   4.753   7.192  0.3305  0.2317  0.1886
  730MOL0     C  621   5.991   4.770   7.111  0.3880 -0.3181 -0.6162
  730MOL0     C  622   5.985   4.823   6.967  0.2553 -0.2772 -0.5315
  730MOL0     C  623   6.118   4.872   6.908 -0.5987  0.4642  0.1811
  730MOL0     C  624   6.196   4.970   6.992  0.6955  0.4944 -0.1879
  730MOL0     C  625   6.312   5.027   6.909 -0.1222 -0.5531 -0.3511
  730MOL0     O  626   6.261   5.112   6.807  0.2971  0.0214  0.3625
  730MOL0     C  627   6.315   5.239   6.793 -0.2098  0.6298  0.3304
  730MOL0     C  628   6.233   5.339   6.845  0.0044  0.7848 -0.7497
  730MOL0     C  629   6.274   5.476   6.833  0.4618 -0.1234  0.4717
  730MOL0     C  630   6.185   5.585   6.894  0.0830 -0.3333  0.6089
  730MOL0     C  631   6.396   5.504   6.761  1.2531  0.0903 -0.0020
  730MOL0     C  632   6.440   5.640   6.735 -0.3524  0.5708 -0.0014
  730MOL0     O  633   6.350   5.745   6.742  0.6503  0.7933 -0.4296
  730MOL0     C  634   6.392   5.873   6.734  0.2927  0.0735  0.2516
  730MOL0     C  635   6.503   5.909   6.805  0.3772  0.7449  0.0288
  730MOL0     C  636   6.554   6.033   6.792  0.7629 -0.1582 -0.2151
  730MOL0     C  637   6.481   6.135   6.735 -0.5144 -0.6123 -0.3340
  730MOL0     O  638   6.524   6.267   6.738 -0.0129 -0.8275  0.1167
  730MOL0     C  639   6.436   6.382   6.745 -0.9906  0.9632  0.0220
  730MOL0     C  640   6.524   6.499   6.725 -0.2779 -0.5868 -0.0713
  730MOL0     C  641   6.604   6.523   6.858  0.3312 -0.2804  0.2519
  730MOL0     C  642   6.696   6.654   6.850  0.2535  0.4049 -0.2897
  730MOL0     C  643   6.760   6.689   6.983 -0.5865  0.4286 -0.1835
  730MOL0     C  644   6.846   6.813   6.962 -0.0867 -0.9176  0.2641
  730MOL0     C  645   6.924   6.852   7.087 -0.5436 -0.2944 -0.4337
  730MOL0     C  646   6.964   6.997   7.106 -0.1535 -0.0467 -0.0861
  730MOL0    Cl  647   7.114   6.995   7.210  0.3529  0.2387 -0.6300
  730MOL0     C  648   6.357   6.100   6.673 -0.9666  0.2857 -0.4990
  730MOL0     C  649   6.319   5.971   6.664 -1.1348 -0.2237  0.4951
  730MOL0     O  650   6.559   5.648   6.712 -0.0912 -0.1168 -0.8971
  730MOL0     C  651   6.456   5.396   6.697 -0.4466 -0.4861  0.5441
  730MOL0     C  652   6.420   5.268   6.710 -0.3659  0.8624 -0.3701
  730MOL0     N  653   6.103   4.743   7.193 -0.7556  0.0262 -0.3614
  730MOL0     N  654   6.066   4.714   7.315  0.0885  0.5921 -0.0468
  730MOL0     C  655   5.041   4.982   7.021 -0.9058 -0.0111  0.2728
  730MOL0     C  656   4.920   4.914   7.059 -1.1036  0.1179 -0.4266
  730MOL0     C  657   4.531   4.798   7.287 -0.5312 -0.2743  0.6744
  730MOL0     C  658   4.571   4.768   7.417 -0.2809 -0.0526  0.2332
  730MOL0     C  659   4.486   4.702   7.505  0.0376  0.3984  0.3461
  730MOL0     C  660   4.360   4.654   7.466  0.1623  0.0980  0.5122
  730MOL0     O  661   4.288   4.577   7.547 -0.3017 -0.0864 -0.5839
  730MOL0     C  662   4.153   4.530   7.509 -0.3849 -0.1481 -0.4511
  730MOL0     C  663   4.074   4.506   7.636  0.6059  0.6327 -0.2544
  730MOL0     C  664   3.992   4.624   7.694  0.2876  0.6297 -0.0664
  730MOL0     C  665   4.083   4.738   7.735 -0.2291  0.1696  0.9225
  730MOL0     C  666   4.009   4.859   7.772 -0.6617 -0.2402  0.5189
  730MOL0     C  667   3.953   4.952   7.816  0.2021 -0.7121  0.9420
  730MOL0     C  668   4.320   4.684   7.341 -0.0317  0.0595  0.6572
  730MOL0     C  669   4.403   4.749   7.250  0.5671  0.2733  0.2080
  730MOL0     C  670   4.337   4.768   7.109 -0.1719 -0.7876  0.4314
  730MOL0     H  671   4.818   5.118   7.310  0.6751  1.8488  0.3423
  730MOL0     H  672   5.032   5.235   7.229 -1.0787  1.2686 -1.6665
  730MOL0     H  673   5.310   5.101   7.252  5.2302  0.9329  1.5980
  730MOL0     H  674   5.400   5.170   7.121 -0.1104 -0.4881  0.4583
  730MOL0     H  675   5.282   4.890   7.104  0.8682 -1.6288  1.3707
  730MOL0     H  676   5.393   4.974   6.992 -1.1978  0.0691 -0.4379
  730MOL0     H  677   5.547   4.845   7.112  0.2605 -0.5002  0.8879
  730MOL0     H  678   5.558   5.000   7.196 -1.5866  0.9730  0.1165
  730MOL0     H  679   5.448   4.949   7.385  3.0435  2.2309 -2.4040
  730MOL0     H  680   5.369   4.803   7.304  0.4081 -0.0422 -0.5967
  730MOL0     H  681   5.607   4.706   7.305 -0.6013 -0.8202  0.1729
  730MOL0     H  682   5.521   4.716   7.459  0.0789  0.8656 -0.7785
  730MOL0     H  683   5.732   4.909   7.355 -1.5816  0.6446 -0.2638
  730MOL0     H  684   5.659   4.921   7.505  1.2919 -0.7680  2.2628
  730MOL0     H  685   5.729   4.707   7.591  2.9703  0.0145  1.1046
  730MOL0     H  686   5.864   4.808   7.557  1.1360 -2.5760  1.2988
  730MOL0     H  687   5.902   4.580   7.480  0.3641 -2.9070 -3.6186
  730MOL0     H  688   5.776   4.591   7.361 -1.1142  0.4902  1.4622
  730MOL0     H  689   5.777   4.759   7.168 -0.0413 -2.2117  0.9415
  730MOL0     H  690   5.920   4.911   6.966  1.9358  1.0494  0.3775
  730MOL0     H  691   5.945   4.749   6.898 -2.9965 -1.1757  2.0296
  730MOL0     H  692   6.172   4.778   6.893 -1.2755 -0.1458  1.4169
  730MOL0     H  693   6.097   4.919   6.812 -2.2888  1.6886  1.1042
  730MOL0     H  694   6.133   5.045   7.041  0.5440 -1.3142  2.5951
  730MOL0     H  695   6.244   4.916   7.074  0.0520 -0.0297 -0.1416
  730MOL0     H  696   6.383   5.090   6.963  1.1966  0.0281 -2.6432
  730MOL0     H  697   6.363   4.943   6.862 -0.8617 -1.6966  0.8105
  730MOL0     H  698   6.143   5.304   6.896  0.4419 -1.3218 -1.3620
  730MOL0     H  699   6.101   5.540   6.947 -0.4888  0.4027  0.3415
  730MOL0     H  700   6.141   5.639   6.810 -0.2851 -2.4266 -0.6272
  730MOL0     H  701   6.248   5.647   6.959 -0.4283  1.3468 -0.4405
  730MOL0     H  702   6.561   5.840   6.867  0.3566  0.1746 -0.5841
  730MOL0     H  703   6.649   6.066   6.833 -0.2486  1.4043  1.0274
  730MOL0     H  704   6.359   6.386   6.668  0.1595  0.1256 -1.2028
  730MOL0     H  705   6.387   6.378   6.843  1.1082 -0.4598  1.0909
  730MOL0     H  706   6.583   6.482   6.634  1.8963  2.0571  0.7383
  730MOL0     H  707   6.458   6.585   6.711  0.5723  0.4657  2.0065
  730MOL0     H  708   6.661   6.438   6.897  0.2372  0.4906  2.1985
  730MOL0     H  709   6.529   6.542   6.936 -0.0463  1.7674 -0.5387
  730MOL0     H  710   6.639   6.743   6.824 -0.4724  0.8876  2.6529
  730MOL0     H  711   6.769   6.633   6.770 -0.5762  1.5130 -1.3638
  730MOL0     H  712   6.690   6.725   7.059  2.7272  0.7240  3.0054
  730MOL0     H  713   6.814   6.598   7.012 -2.6901 -1.5023 -1.8951
  730MOL0     H  714   6.784   6.902   6.946  1.5687  0.2334  0.0516
  730MOL0     H  715   6.912   6.792   6.878  0.0653  0.5335  0.0052
  730MOL0     H  716   7.015   6.793   7.071 -1.5398 -2.2131  0.5510
  730MOL0     H  717   6.868   6.815   7.173 -0.9710  0.5956 -0.3192
  730MOL0     H  718   6.894   7.064   7.157  1.1275  1.2855  0.0090
  730MOL0     H  719   6.987   7.039   7.008 -1.6342  1.3141  0.0975
  730MOL0     H  720   6.289   6.168   6.621 -2.7766 -3.8698 -4.2985
  730MOL0     H  721   6.226   5.935   6.621 -0.9160  0.6812 -0.7840
  730MOL0     H  722   6.542   5.419   6.635 -0.8493  1.9418  0.7823
  730MOL0     H  723   6.471   5.188   6.657 -1.3702  0.4731 -0.7740
  730MOL0     H  724   5.107   4.937   6.948 -1.0006  0.7982 -0.3215
  730MOL0     H  725   4.900   4.816   7.017  0.1166 -0.0815 -0.5781
  730MOL0     H  726   4.669   4.785   7.460 -0.3450 -0.8044  0.7064
  730MOL0     H  727   4.518   4.675   7.606  0.9046 -0.3586 -0.1152
  730MOL0     H  728   4.100   4.608   7.454  1.9095  1.2011 -0.8666
  730MOL0     H  729   4.168   4.441   7.447  0.0817  0.7613 -1.6910
  730MOL0     H  730   4.139   4.460   7.711  0.9395 -0.3892 -1.1330
  730MOL0     H  731   4.004   4.426   7.609  1.9008 -0.7866  0.4447
  730MOL0     H  732   3.925   4.653   7.613 -0.1831 -1.5810 -0.5409
  730MOL0     H  733   3.931   4.590   7.778  1.7854 -1.8637  0.1272
  730MOL0     H  734   4.151   4.764   7.653  1.0639  1.2446  2.2755
  730MOL0     H  735   4.152   4.708   7.815  3.1138 -1.9672 -2.4721
  730MOL0     H  736   3.882   5.021   7.858 -0.2854 -0.7995  0.2808
  730MOL0     H  737   4.223   4.652   7.304 -0.0212  1.3962 -0.5893
  730MOL0     H  738   4.278   4.860   7.106  0.7989 -0.0789  1.9658
  730MOL0     H  739   4.413   4.781   7.032 -1.1226 -1.3714 -0.6461
  730MOL0     H  740   4.274   4.683   7.082  0.5180 -0.9742 -0.6665
  731MOL0     O  741   0.787   5.801   8.203  0.3011 -0.2563 -0.1041
  731MOL0     C  742   0.777   5.802   8.329  0.1632  0.7643  0.2899
  731MOL0     O  743   0.843   5.709   8.410  0.0062  0.0291  0.6890
  731MOL0     C  744   0.883   5.595   8.353  0.0135  0.1158 -0.0439
  731MOL0     C  745   0.818   5.522   8.251 -0.0627  0.3599 -0.3711
  731MOL0     C  746   0.875   5.406   8.198 -0.4738 -0.3205 -0.1878
  731MOL0     C  747   1.006   5.368   8.232 -0.8644  0.4849 -0.3326
  731MOL0     O  748   1.058   5.255   8.169  0.3084 -0.1977  0.2516
  731MOL0     C  749   1.194   5.259   8.110  0.4098 -1.0089 -1.1033
  731MOL0     C  750   1.221   5.124   8.041  0.4533 -0.7532 -0.2323
  731MOL0     C  751   1.369   5.095   8.012 -0.6699 -0.3471 -0.3499
  731MOL0     C  752   1.426   4.959   8.038  0.5895 -0.3716 -0.5857
  731MOL0     C  753   1.562   4.930   7.975  0.3743 -0.2248 -0.4194
  731MOL0     C  754   1.618   4.799   8.019 -0.9755  0.6294  0.0491
  731MOL0     C  755   1.762   4.786   7.974  0.1327  0.5375 -0.1938
  731MOL0     C  756   1.814   4.647   8.008 -1.0256  0.4893 -0.2148
  731MOL0     N  757   1.928   4.612   7.924  0.4186  0.9222 -0.0349
  731MOL0     C  758   1.965   4.479   7.894 -0.5052 -0.2292 -0.3418
  731MOL0     C  759   2.082   4.489   7.826  0.2732 -0.5569 -1.0517
  731MOL0     C  760   2.166   4.374   7.779  0.5238  0.3864 -0.2919
  731MOL0     C  761   2.307   4.392   7.840 -0.0190 -0.6293 -0.2792
  731MOL0     C  762   2.416   4.302   7.786  0.2125 -0.4812  0.3423
  731MOL0     C  763   2.538   4.323   7.873 -0.1835 -0.4068  0.5701
  731MOL0     O  764   2.532   4.396   7.993 -0.0587  0.1777  0.3523
  731MOL0     C  765   2.642   4.447   8.051 -0.1919 -1.1097  0.0240
  731MOL0     C  766   2.637   4.505   8.177 -0.2013  0.0171  1.0749
  731MOL0     C  767   2.744   4.559   8.248  0.1724 -0.0848  0.4202
  731MOL0     C  768   2.709   4.650   8.370  0.3997 -0.2491  0.0496
  731MOL0     C  769   2.870   4.555   8.187  0.2036  0.0295  0.0574
  731MOL0     C  770   2.990   4.606   8.266 -1.4724 -1.1889  0.0149
  731MOL0     O  771   3.101   4.614   8.188  0.2720 -0.2528 -0.7974
  731MOL0     C  772   3.222   4.626   8.237 -0.1145  0.7023 -0.4834
  731MOL0     C  773   3.297   4.741   8.208  0.3896 -0.5865  0.5186
  731MOL0     C  774   3.426   4.765   8.272  0.7035 -1.0773  0.7671
  731MOL0     C  775   3.484   4.669   8.350 -0.0947  0.3112  0.0502
  731MOL0     O  776   3.604   4.682   8.425 -0.3176  0.2372  0.8877
  731MOL0     C  777   3.732   4.711   8.358 -0.9553 -0.1442 -0.5753
  731MOL0     C  778   3.854   4.688   8.455 -0.2078  0.5638 -0.1404
  731MOL0     C  779   3.984   4.651   8.393  1.0142 -0.4493  0.1112
  731MOL0     C  780   4.097   4.668   8.489 -1.4051 -0.4590  0.1927
  731MOL0     C  781   4.233   4.666   8.409 -0.2271 -1.0751 -0.1857
  731MOL0     C  782   4.359   4.672   8.491 -0.2596  0.3791  0.1605
  731MOL0     C  783   4.484   4.664   8.412 -0.0807 -0.3220 -0.4929
  731MOL0     C  784   4.607   4.644   8.497 -0.3097 -0.9603  1.0063
  731MOL0    Cl  785   4.644   4.796   8.591  0.0707 -0.5511 -0.0377
  731MOL0     C  786   3.410   4.553   8.380  0.5153  0.6392  0.0453
  731MOL0     C  787   3.290   4.531   8.313  0.1113  0.1706 -0.4697
  731MOL0     O  788   2.989   4.629   8.389 -0.1177 -0.5887  0.4979
  731MOL0     C  789   2.883   4.497   8.065  0.4273  0.0371 -0.3868
  731MOL0     C  790   2.777   4.443   7.997 -0.2030  0.5550 -0.7885
  731MOL0     N  791   2.115   4.625   7.823 -0.0680  0.3846  0.0568
  731MOL0     N  792   2.013   4.697   7.867  0.0285  0.4280  0.2647
  731MOL0     C  793   1.079   5.444   8.329  0.8214 -0.3365  0.4834
  731MOL0     C  794   1.013   5.551   8.392  0.4771 -0.5890 -0.0627
  731MOL0     C  795   0.721   5.927   8.396  0.3022  0.1493 -0.4952
  731MOL0     C  796   0.783   5.974   8.593  0.6537 -0.5117  0.0874
  731MOL0     C  797   0.716   6.148   8.687  0.8775 -0.4227  0.7231
  731MOL0     C  798   0.587   6.282   8.584  0.0719 -0.7636  0.4812
  731MOL0     O  799   0.562   6.392   8.655  0.4238 -0.9935  0.1735
  731MOL0     C  800   0.463   6.476   8.588  0.0428  0.1120 -0.5294
  731MOL0     C  801   0.325   6.431   8.616 -0.3266 -0.2501  0.0894
  731MOL0     C  802   0.266   6.449   8.757  0.0497 -0.5314  0.3399
  731MOL0     C  803   0.187   6.319   8.798  0.1600  0.5216  0.6892
  731MOL0     C  804   0.138   6.322   8.935 -0.6886 -0.1872  0.2487
  731MOL0     C  805   0.094   6.328   9.049 -0.0107  0.0016 -0.0181
  731MOL0     C  806   0.528   6.241   8.386  0.2461  0.9187 -0.2910
  731MOL0     C  807   0.592   6.057   8.291  0.0498 -0.0223 -0.0807
  731MOL0     C  808   0.545   6.031   8.155  0.1278  0.7082 -0.0501
  731MOL0     H  809   0.715   5.540   8.222 -0.4125 -1.8665 -0.6645
  731MOL0     H  810   0.809   5.357   8.126 -0.3021  1.7016 -1.7974
  731MOL0     H  811   1.246   5.280   8.204 -0.5772 -0.7473 -0.6019
  731MOL0     H  812   1.202   5.337   8.034  2.4031  2.2769  2.1074
  731MOL0     H  813   1.176   5.047   8.105  0.6958 -0.4321  0.3296
  731MOL0     H  814   1.160   5.123   7.950 -0.7825  0.6845  0.5357
  731MOL0     H  815   1.396   5.128   7.911  3.3432  1.1355  1.0147
  731MOL0     H  816   1.432   5.161   8.072  1.2603 -0.9830 -1.5522
  731MOL0     H  817   1.421   4.939   8.145 -1.0870  0.6373 -0.4413
  731MOL0     H  818   1.358   4.883   7.999 -0.0616  0.3444 -0.8762
  731MOL0     H  819   1.624   5.016   8.001  0.2552  0.7524 -3.0000
  731MOL0     H  820   1.549   4.919   7.867  0.9136  0.6744 -0.5827
  731MOL0     H  821   1.618   4.794   8.129 -2.7297  1.1594  0.1153
  731MOL0     H  822   1.558   4.715   7.983 -1.1447  0.6665  0.2408
  731MOL0     H  823   1.821   4.865   8.020  2.5522 -0.7290 -0.9584
  731MOL0     H  824   1.770   4.803   7.866 -0.3641  0.1702 -0.2960
  731MOL0     H  825   1.861   4.644   8.107  1.6394  0.1986 -1.4097
  731MOL0     H  826   1.734   4.573   7.994 -2.6468  2.0725  0.4209
  731MOL0     H  827   1.936   4.379   7.924  1.6909 -1.0119 -0.6280
  731MOL0     H  828   2.166   4.380   7.670  0.6461 -0.8964 -0.3721
  731MOL0     H  829   2.131   4.279   7.821  1.5283  0.8753  1.8041
  731MOL0     H  830   2.345   4.493   7.820 -1.5245  0.1645  0.6703
  731MOL0     H  831   2.300   4.378   7.948  0.4334  1.0364 -0.0012
  731MOL0     H  832   2.385   4.198   7.800 -0.3215 -0.6862 -1.9578
  731MOL0     H  833   2.438   4.324   7.682  1.8254 -1.1665  0.5149
  731MOL0     H  834   2.587   4.226   7.887  2.7073  0.7700 -0.6524
  731MOL0     H  835   2.601   4.380   7.804 -0.6131 -1.0969 -0.4155
  731MOL0     H  836   2.538   4.504   8.223 -1.3914 -0.5458 -1.3128
  731MOL0     H  837   2.751   4.621   8.467 -0.6707 -0.8790  0.3492
  731MOL0     H  838   2.601   4.655   8.388  0.1418 -1.3151 -1.0598
  731MOL0     H  839   2.749   4.749   8.349  0.6965 -0.1438  1.0507
  731MOL0     H  840   3.262   4.804   8.126  3.1749 -0.4013 -0.6120
  731MOL0     H  841   3.482   4.852   8.239 -0.5172 -0.0283  1.3557
  731MOL0     H  842   3.736   4.636   8.279 -3.0179 -2.1019  1.0601
  731MOL0     H  843   3.734   4.810   8.310  0.7745  0.2607  0.2590
  731MOL0     H  844   3.859   4.765   8.533 -2.7711 -0.5763  1.2770
  731MOL0     H  845   3.828   4.602   8.517  0.5215 -0.8163 -1.6669
  731MOL0     H  846   3.998   4.706   8.299 -2.4687 -0.5122 -0.5872
  731MOL0     H  847   3.972   4.549   8.356  1.4562  0.5336 -3.0556
  731MOL0     H  848   4.102   4.583   8.558  0.3007  1.1745  2.2215
  731MOL0     H  849   4.096   4.753   8.559  0.3724 -0.2697  0.0419
  731MOL0     H  850   4.238   4.572   8.354  0.3444 -0.2568 -1.5798
  731MOL0     H  851   4.237   4.758   8.350  3.5185  1.2727  3.1958
  731MOL0     H  852   4.362   4.590   8.563  3.3757  0.7236  0.5792
  731MOL0     H  853   4.356   4.763   8.553 -0.3970  1.3914 -1.2839
  731MOL0     H  854   4.493   4.752   8.347  0.8503  0.3234  0.4857
  731MOL0     H  855   4.485   4.574   8.351  2.6385 -0.8982  0.2922
  731MOL0     H  856   4.699   4.624   8.440 -0.4619  1.9016 -0.4237
  731MOL0     H  857   4.598   4.560   8.567  2.2352 -0.3127  2.2466
  731MOL0     H  858   3.455   4.472   8.437  2.2940 -0.0204 -2.1181
  731MOL0     H  859   3.225   4.447   8.337 -1.1801  1.9110  2.8230
  731MOL0     H  860   2.978   4.480   8.015  1.2087 -1.8333  1.6068
  731MOL0     H  861   2.784   4.409   7.894 -1.3692  1.1406 -1.0760
  731MOL0     H  862   1.183   5.417   8.344  0.7313 -1.2066 -0.3528
  731MOL0     H  863   1.070   5.603   8.469 -0.0423 -0.1997  0.0624
  731MOL0     H  864   0.857   5.910   8.640  3.0750 -0.3955 -3.2639
  731MOL0     H  865   0.756   6.177   8.784 -0.7291  1.3241  0.9420
  731MOL0     H  866   0.469   6.571   8.642 -1.6375 -0.6114  1.0670
  731MOL0     H  867   0.469   6.496   8.481 -0.7863  2.9217 -0.1480
  731MOL0     H  868   0.297   6.331   8.585  0.3198 -1.4006  2.9226
  731MOL0     H  869   0.272   6.488   8.540  1.6862 -3.1705 -3.8609
  731MOL0     H  870   0.348   6.458   8.829  1.8953 -0.8998 -1.6074
  731MOL0     H  871   0.206   6.539   8.774 -0.0320 -0.8734  2.0383
  731MOL0     H  872   0.249   6.231   8.777  0.0514  0.0990  2.0555
  731MOL0     H  873   0.101   6.313   8.731  1.9369 -0.9530 -1.5829
  731MOL0     H  874   0.048   6.315   9.145  0.0484  1.0116  0.1616
  731MOL0     H  875   0.463   6.308   8.330 -0.7245  1.6194  1.5737
  731MOL0     H  876   0.475   6.110   8.127 -2.3017  0.4103  4.3267
  731MOL0     H  877   0.633   6.041   8.090 -0.8811  2.2799 -1.2514
  731MOL0     H  878   0.495   5.934   8.154  0.3646  0.4771  2.7544
  732MOL0     O  879   2.843   2.292   5.687  0.0327 -0.3004  0.0560
  732MOL0     C  880   2.873   2.346   5.792  0.2376 -0.2605 -0.1732
  732MOL0     O  881   2.793   2.418   5.877 -0.0108  0.4983  0.0451
  732MOL0     C  882   2.660   2.419   5.853 -0.6791  0.4377 -0.3220
  732MOL0     C  883   2.591   2.522   5.901  0.4835  0.0466 -0.9627
  732MOL0     C  884   2.453   2.512   5.918 -0.1807 -0.5699  0.4576
  732MOL0     C  885   2.383   2.403   5.874 -0.2778  0.0388  0.2001
  732MOL0     O  886   2.243   2.399   5.857  0.3746  0.5756 -0.1091
  732MOL0     C  887   2.163   2.511   5.909 -0.9170  0.4681 -0.2052
  732MOL0     C  888   2.023   2.524   5.851 -0.7777  0.3592  0.6512
  732MOL0     C  889   1.928   2.455   5.949 -0.1746 -0.7611  0.6419
  732MOL0     C  890   1.930   2.300   5.969 -0.5998 -0.7911 -0.4660
  732MOL0     C  891   1.828   2.259   6.069 -1.0701 -0.4174 -0.0364
  732MOL0     C  892   1.814   2.115   6.111 -0.0737  0.2052 -0.1911
  732MOL0     C  893   1.946   2.048   6.156 -0.4339  0.4517 -0.5655
  732MOL0     C  894   2.033   2.132   6.254 -0.0844 -1.0418  0.8920
  732MOL0     N  895   2.148   2.073   6.311 -0.0203 -0.1320 -0.5533
  732MOL0     C  896   2.184   2.063   6.441 -0.1655  0.0946  0.1213
  732MOL0     C  897   2.295   1.979   6.448 -0.0792 -0.0466 -0.0636
  732MOL0     C  898   2.377   1.940   6.566  0.8192  0.0646 -0.7935
  732MOL0     C  899   2.531   1.968   6.546  0.0457 -0.4624 -0.8686
  732MOL0     C  900   2.604   1.921   6.677  0.4105  0.0379 -0.3836
  732MOL0     C  901   2.761   1.914   6.665 -0.0529 -0.4872 -0.5687
  732MOL0     O  902   2.790   1.814   6.562 -0.6937 -0.9594 -0.5062
  732MOL0     C  903   2.848   1.709   6.620 -0.4644 -0.3304 -0.1600
  732MOL0     C  904   2.989   1.698   6.613 -0.2126 -0.5047 -0.2908
  732MOL0     C  905   3.055   1.587   6.656  0.6455  0.1793 -1.1027
  732MOL0     C  906   3.196   1.550   6.632 -0.3402  0.9411  0.5952
  732MOL0     C  907   2.970   1.487   6.727  0.0162  0.0247  0.1966
  732MOL0     C  908   3.028   1.377   6.804 -0.7046  0.0988 -0.5582
  732MOL0     O  909   3.119   1.401   6.906 -0.7081  0.4191  0.7350
  732MOL0     C  910   3.165   1.298   6.982  0.1635  0.0388 -0.7121
  732MOL0     C  911   3.175   1.314   7.120 -0.1086 -0.3414 -0.5040
  732MOL0     C  912   3.239   1.226   7.201 -1.0951 -0.2856  0.0471
  732MOL0     C  913   3.298   1.115   7.148 -1.1973  1.0859 -0.0040
  732MOL0     O  914   3.343   1.021   7.238 -0.2982 -0.5724  0.1079
  732MOL0     C  915   3.236   0.933   7.287  0.0642 -0.1861 -0.7416
  732MOL0     C  916   3.277   0.782   7.272 -0.7937 -1.2469 -0.5255
  732MOL0     C  917   3.325   0.737   7.133  0.8250  0.1137 -0.2081
  732MOL0     C  918   3.314   0.582   7.117  0.0204 -0.0790 -0.3065
  732MOL0     C  919   3.429   0.509   7.190 -0.3370  0.4576 -0.0526
  732MOL0     C  920   3.395   0.358   7.183 -0.3276 -0.0686  0.9965
  732MOL0     C  921   3.523   0.291   7.223 -0.0578  0.2111  0.3563
  732MOL0     C  922   3.515   0.137   7.223  0.2693 -0.0087 -0.6011
  732MOL0    Cl  923   3.494   0.080   7.065  0.0725 -0.1310  0.0186
  732MOL0     C  924   3.277   1.089   7.012 -0.1650  0.4066 -0.6484
  732MOL0     C  925   3.220   1.183   6.931  0.1945  0.0923 -0.0959
  732MOL0     O  926   2.976   1.268   6.781  0.5724 -0.2829 -0.3146
  732MOL0     C  927   2.834   1.505   6.738  0.3988 -0.3313  0.6256
  732MOL0     C  928   2.773   1.617   6.684 -0.0675  0.0369  0.0452
  732MOL0     N  929   2.316   1.928   6.318  0.5608 -0.1040 -0.8836
  732MOL0     N  930   2.228   1.985   6.235  0.0679  0.2538 -0.2483
  732MOL0     C  931   2.455   2.299   5.816  0.2731 -1.0822  1.1885
  732MOL0     C  932   2.594   2.305   5.808  1.3285 -0.0788 -0.2366
  732MOL0     C  933   3.005   2.338   5.826 -0.5211 -0.0310 -0.3045
  732MOL0     C  934   3.033   2.288   5.959 -0.4366 -1.3204 -0.4455
  732MOL0     C  935   3.165   2.274   6.006  0.2315 -0.7002  0.2020
  732MOL0     C  936   3.272   2.319   5.924 -0.3672  0.3542  0.3474
  732MOL0     O  937   3.399   2.293   5.960  0.0331 -0.4508  0.0983
  732MOL0     C  938   3.438   2.223   6.078 -0.0802  0.3069 -0.6479
  732MOL0     C  939   3.591   2.225   6.097 -0.4558 -0.9385  0.4642
  732MOL0     C  940   3.664   2.364   6.109  0.2459  0.4832  0.0658
  732MOL0     C  941   3.807   2.354   6.139 -0.3320  0.4466 -0.6547
  732MOL0     C  942   3.836   2.297   6.272 -0.1988 -0.3987 -0.2010
  732MOL0     C  943   3.862   2.263   6.384  0.2574 -0.9241  0.0923
  732MOL0     C  944   3.240   2.377   5.801 -0.2139 -0.2935 -0.8802
  732MOL0     C  945   3.109   2.389   5.753 -0.4300 -0.1941 -0.0542
  732MOL0     C  946   3.090   2.484   5.640 -0.4318 -0.3247 -0.0800
  732MOL0     H  947   2.644   2.605   5.945 -0.9434  1.1775 -1.3084
  732MOL0     H  948   2.396   2.591   5.966 -1.0176 -0.2781 -0.9450
  732MOL0     H  949   2.207   2.602   5.867 -1.7002  0.4706 -1.0525
  732MOL0     H  950   2.173   2.533   6.016  0.5166  2.1198 -0.6408
  732MOL0     H  951   2.000   2.630   5.851 -0.3213  0.4997  2.3995
  732MOL0     H  952   2.003   2.489   5.750 -2.5306  1.7353  0.4817
  732MOL0     H  953   1.949   2.496   6.048 -1.7201  0.7189  0.4091
  732MOL0     H  954   1.830   2.496   5.921  0.6291  0.5004 -0.4112
  732MOL0     H  955   1.894   2.249   5.880  0.7733 -1.7700 -0.4891
  732MOL0     H  956   2.025   2.265   6.010  0.1761  0.3292 -1.2541
  732MOL0     H  957   1.733   2.283   6.020  0.3163  2.5831 -1.4949
  732MOL0     H  958   1.833   2.323   6.158 -1.4314 -0.1948 -0.1756
  732MOL0     H  959   1.740   2.124   6.191 -1.2227  0.0511 -1.1960
  732MOL0     H  960   1.769   2.055   6.031 -2.9454  0.4179  1.1455
  732MOL0     H  961   2.009   2.006   6.078  2.0117  0.5554  1.2293
  732MOL0     H  962   1.919   1.966   6.224 -0.7643  2.7006  2.2236
  732MOL0     H  963   2.067   2.227   6.211  1.5515 -1.2815  1.5902
  732MOL0     H  964   1.975   2.166   6.340 -1.8221 -3.4100  0.7566
  732MOL0     H  965   2.141   2.107   6.530  0.9128  0.1610  0.6247
  732MOL0     H  966   2.356   1.835   6.590  1.0379 -0.2809 -2.0784
  732MOL0     H  967   2.346   2.003   6.650  0.4066  0.9093 -1.5669
  732MOL0     H  968   2.566   1.919   6.455 -1.7836 -1.9917 -0.8194
  732MOL0     H  969   2.541   2.077   6.540 -1.5494 -0.3316 -1.6230
  732MOL0     H  970   2.575   1.988   6.758 -3.6943 -2.4705  0.4852
  732MOL0     H  971   2.558   1.825   6.700  3.6997 -1.4338  0.5502
  732MOL0     H  972   2.803   2.013   6.644  1.1419 -0.5146  1.3954
  732MOL0     H  973   2.798   1.880   6.762 -1.3902  2.5878  1.2053
  732MOL0     H  974   3.054   1.775   6.574 -0.4726  0.3811  0.9617
  732MOL0     H  975   3.210   1.442   6.623  0.9932  1.0989  0.4330
  732MOL0     H  976   3.263   1.581   6.714 -0.0198  0.2370  0.6054
  732MOL0     H  977   3.237   1.599   6.542  1.8023 -0.5644  0.6644
  732MOL0     H  978   3.122   1.402   7.155  0.2607  0.7630 -2.5672
  732MOL0     H  979   3.250   1.242   7.308 -0.6451  2.0769 -0.2938
  732MOL0     H  980   3.219   0.948   7.394 -1.3433 -2.3281 -0.6080
  732MOL0     H  981   3.143   0.939   7.230  0.0292 -0.2041 -0.6859
  732MOL0     H  982   3.363   0.771   7.338 -0.0225  2.2450 -0.7806
  732MOL0     H  983   3.192   0.725   7.312 -1.1357 -0.2941  0.1501
  732MOL0     H  984   3.426   0.772   7.107 -0.4924  2.2527 -2.9694
  732MOL0     H  985   3.256   0.773   7.056  1.8958  1.5180 -0.5546
  732MOL0     H  986   3.327   0.556   7.012  1.5421 -2.9011  0.4775
  732MOL0     H  987   3.225   0.539   7.165  1.5161 -1.4112  1.4372
  732MOL0     H  988   3.518   0.540   7.134  0.4798 -1.1227  0.3184
  732MOL0     H  989   3.426   0.533   7.297 -2.6771 -1.4410  0.3832
  732MOL0     H  990   3.372   0.341   7.078 -2.0689  0.7632  1.2065
  732MOL0     H  991   3.319   0.322   7.252  0.5390 -2.3448  0.8539
  732MOL0     H  992   3.548   0.326   7.323  1.6269  1.2803 -0.3796
  732MOL0     H  993   3.610   0.310   7.160  0.8947 -0.0862  1.5503
  732MOL0     H  994   3.434   0.107   7.290  1.6421  0.6103  1.4498
  732MOL0     H  995   3.610   0.095   7.257 -1.1379 -1.3547  1.9479
  732MOL0     H  996   3.320   0.998   6.971 -0.0597 -1.2320  2.7692
  732MOL0     H  997   3.221   1.180   6.823  1.7152  3.6899 -0.3079
  732MOL0     H  998   2.770   1.427   6.779 -0.1695 -0.8039 -1.0540
  732MOL0     H  999   2.667   1.612   6.657 -0.1661 -0.6395  0.5284
  732MOL0     H 1000   2.401   2.210   5.786  0.0577 -0.4694 -0.3253
  732MOL0     H 1001   2.635   2.213   5.768 -1.0081 -0.9531 -0.7501
  732MOL0     H 1002   2.945   2.250   6.010 -1.1712  0.9161  0.0869
  732MOL0     H 1003   3.169   2.228   6.105 -1.1867  0.7360  0.9766
  732MOL0     H 1004   3.388   2.258   6.168 -1.8771 -0.3113 -1.3718
  732MOL0     H 1005   3.408   2.118   6.075 -1.0260  0.5496 -0.1101
  732MOL0     H 1006   3.636   2.162   6.020 -3.8878 -2.6122 -0.3333
  732MOL0     H 1007   3.603   2.171   6.191  0.1052  0.1963  1.0782
  732MOL0     H 1008   3.668   2.411   6.010 -0.3595  2.1810  0.8125
  732MOL0     H 1009   3.619   2.440   6.173  1.0028  0.7410  0.2959
  732MOL0     H 1010   3.862   2.448   6.125  1.3525 -0.4177 -0.1455
  732MOL0     H 1011   3.851   2.281   6.070 -0.9976  0.0139 -0.6241
  732MOL0     H 1012   3.881   2.251   6.489 -1.3680 -0.9532  0.4196
  732MOL0     H 1013   3.323   2.423   5.748  0.1923 -2.3880 -2.1757
  732MOL0     H 1014   3.181   2.525   5.595  0.3018  1.2418  2.6474
  732MOL0     H 1015   3.016   2.450   5.567 -0.0639 -0.3463 -0.4516
  732MOL0     H 1016   3.043   2.569   5.690 -0.8188  1.4173 -3.1493
  733MOL0     O 1017   8.831   7.111   5.653  0.1923  0.3537 -0.9506
  733MOL0     C 1018   8.899   7.009   5.662  0.3276  1.0760 -0.1312
  733MOL0     O 1019   8.849   6.883   5.671  0.0924 -0.2237  0.2207
  733MOL0     C 1020   8.717   6.857   5.651 -0.6259  0.5686  0.1269
  733MOL0     C 1021   8.604   6.923   5.703  0.0078 -0.3703 -0.0206
  733MOL0     C 1022   8.476   6.874   5.673  0.4918  0.2008  0.4498
  733MOL0     C 1023   8.457   6.753   5.607  0.4546 -0.1548 -0.6199
  733MOL0     O 1024   8.346   6.688   5.565  0.1462 -0.0133 -1.0803
  733MOL0     C 1025   8.221   6.725   5.614  0.1372  0.2124  0.4416
  733MOL0     C 1026   8.100   6.678   5.530 -0.1682  0.2293  0.8847
  733MOL0     C 1027   8.050   6.542   5.577  0.3867 -0.4233 -0.8560
  733MOL0     C 1028   7.964   6.493   5.458  0.8041 -0.2500 -0.2103
  733MOL0     C 1029   7.833   6.566   5.434  0.3793 -0.6520 -0.4177
  733MOL0     C 1030   7.737   6.557   5.559 -0.4128 -0.2309 -0.4436
  733MOL0     C 1031   7.597   6.590   5.523  0.8498 -0.8120  0.8077
  733MOL0     C 1032   7.574   6.741   5.508  0.3992 -0.3510  0.4790
  733MOL0     N 1033   7.468   6.774   5.406 -0.0290 -0.1710 -0.7100
  733MOL0     C 1034   7.465   6.735   5.278  1.3622 -0.6115  0.5595
  733MOL0     C 1035   7.357   6.795   5.225 -0.4257 -0.2878  0.3526
  733MOL0     C 1036   7.338   6.807   5.076 -0.0387  1.0773 -0.2762
  733MOL0     C 1037   7.415   6.929   5.012 -0.1224  0.3531 -0.0144
  733MOL0     C 1038   7.564   6.915   4.975 -0.3446  0.4447  0.6804
  733MOL0     C 1039   7.600   6.802   4.881  0.4327 -0.0473 -0.5503
  733MOL0     O 1040   7.624   6.673   4.947  0.4070 -0.1886  0.7509
  733MOL0     C 1041   7.748   6.633   4.982 -0.3502  0.3528  1.2548
  733MOL0     C 1042   7.873   6.686   4.951  1.0075 -0.5114  0.5436
  733MOL0     C 1043   7.992   6.621   4.994  0.2962 -0.2682 -0.0947
  733MOL0     C 1044   8.118   6.694   4.950  0.2970  0.4412  0.1563
  733MOL0     C 1045   7.988   6.493   5.062 -0.0977  0.4726  0.3848
  733MOL0     C 1046   8.110   6.417   5.094  0.1565 -0.5632 -0.0395
  733MOL0     O 1047   8.225   6.492   5.119  0.0349  0.1120 -1.0122
  733MOL0     C 1048   8.338   6.440   5.181  0.3720  0.0674  0.2842
  733MOL0     C 1049   8.356   6.436   5.318 -0.0802 -0.7454 -1.4977
  733MOL0     C 1050   8.473   6.378   5.378  0.0507  0.5372 -0.0773
  733MOL0     C 1051   8.576   6.327   5.295  0.2388 -1.2191 -0.2763
  733MOL0     O 1052   8.690   6.267   5.335  0.4884 -0.3601  0.1716
  733MOL0     C 1053   8.675   6.155   5.425  0.8317 -0.2790 -1.3203
  733MOL0     C 1054   8.817   6.106   5.460 -0.6490 -0.6600  0.1275
  733MOL0     C 1055   8.900   6.069   5.333  0.1581  0.6722 -0.7625
  733MOL0     C 1056   9.038   6.018   5.367  0.2432  0.0915  0.6714
  733MOL0     C 1057   9.049   5.880   5.420 -0.4906 -0.4810  0.5008
  733MOL0     C 1058   9.197   5.856   5.442  1.0727 -0.2800 -0.1809
  733MOL0     C 1059   9.227   5.704   5.453 -0.2378 -0.7553 -0.4751
  733MOL0     C 1060   9.376   5.700   5.490  0.1061  0.2849  0.5764
  733MOL0    Cl 1061   9.410   5.760   5.647  0.1490  0.1688 -0.2177
  733MOL0     C 1062   8.554   6.335   5.156 -0.3877 -0.0586  0.8341
  733MOL0     C 1063   8.438   6.387   5.098  1.2377 -0.6497  0.6870
  733MOL0     O 1064   8.099   6.299   5.115  0.5727 -0.4679  0.6392
  733MOL0     C 1065   7.859   6.440   5.088 -0.8512  0.1207  0.2316
  733MOL0     C 1066   7.748   6.512   5.056 -0.3097 -0.1093  0.6861
  733MOL0     N 1067   7.304   6.880   5.316  0.0541 -0.5399  0.0245
  733MOL0     N 1068   7.374   6.869   5.427 -0.6493 -0.3939  0.6060
  733MOL0     C 1069   8.574   6.690   5.568  0.8677 -0.3114  0.5252
  733MOL0     C 1070   8.701   6.740   5.576  0.6773 -0.2869 -0.6881
  733MOL0     C 1071   9.052   7.009   5.670  0.8870 -0.2266 -0.1140
  733MOL0     C 1072   9.115   6.892   5.716 -0.2026  0.2278 -0.4419
  733MOL0     C 1073   9.257   6.906   5.740  0.1474  0.0170  0.0064
  733MOL0     C 1074   9.337   7.015   5.718  0.8951 -0.1418  0.5113
  733MOL0     O 1075   9.472   7.008   5.745  0.2383 -0.3203 -0.0386
  733MOL0     C 1076   9.554   7.127   5.752  0.5594  0.8984 -0.4636
  733MOL0     C 1077   9.526   7.191   5.888 -0.7248 -0.2732 -0.1088
  733MOL0     C 1078   9.604   7.319   5.912  0.2055 -0.0515 -1.2190
  733MOL0     C 1079   9.755   7.301   5.956  0.7380 -0.1796 -0.3736
  733MOL0     C 1080   9.791   7.422   6.036 -0.7653 -0.4231  0.3426
  733MOL0     C 1081   9.833   7.516   6.097 -0.0424  1.0410 -0.3289
  733MOL0     C 1082   9.269   7.124   5.661 -0.1903  0.3053  0.5306
  733MOL0     C 1083   9.133   7.128   5.632 -0.0088  0.0757  0.5452
  733MOL0     C 1084   9.072   7.242   5.552  0.1423  0.4177  0.1145
  733MOL0     H 1085   8.630   7.011   5.762  0.6432 -1.1433  0.8876
  733MOL0     H 1086   8.389   6.933   5.701  0.6853  0.4350  0.5650
  733MOL0     H 1087   8.214   6.834   5.615 -0.8855  0.1865 -1.1847
  733MOL0     H 1088   8.211   6.695   5.718  2.5460  3.2174  1.7150
  733MOL0     H 1089   8.016   6.746   5.546 -1.1781 -0.5458 -0.8858
  733MOL0     H 1090   8.128   6.680   5.424 -0.0336 -1.8333  0.8421
  733MOL0     H 1091   8.135   6.477   5.602 -1.8978 -2.6851  1.6027
  733MOL0     H 1092   7.992   6.548   5.669  3.1053 -0.1929  0.9488
  733MOL0     H 1093   8.017   6.505   5.363 -2.6749  2.0340 -2.1014
  733MOL0     H 1094   7.941   6.386   5.470 -1.5294  0.2997  0.8758
  733MOL0     H 1095   7.785   6.524   5.345 -0.7794  1.7037 -1.0000
  733MOL0     H 1096   7.858   6.667   5.398  0.4346 -0.1455  0.9795
  733MOL0     H 1097   7.745   6.456   5.601  1.3636  0.2257  0.4192
  733MOL0     H 1098   7.775   6.623   5.637  1.4761 -0.6093 -0.9714
  733MOL0     H 1099   7.520   6.558   5.594 -3.6651  3.2499 -1.5722
  733MOL0     H 1100   7.578   6.534   5.432 -2.6036  2.0357 -0.4874
  733MOL0     H 1101   7.548   6.783   5.605 -0.4808 -2.2444  1.1046
  733MOL0     H 1102   7.666   6.790   5.475 -1.1588  2.7530  0.3912
  733MOL0     H 1103   7.550   6.685   5.234  0.9867 -1.6239  0.9417
  733MOL0     H 1104   7.233   6.810   5.046 -0.4449 -0.7399  0.8791
  733MOL0     H 1105   7.379   6.719   5.026 -1.9478 -0.9991  1.6409
  733MOL0     H 1106   7.367   6.955   4.918  1.4470 -0.5684 -1.1100
  733MOL0     H 1107   7.406   7.010   5.085 -2.0453 -0.3394  0.5839
  733MOL0     H 1108   7.590   7.009   4.925  1.4360 -1.4425 -2.2661
  733MOL0     H 1109   7.614   6.918   5.072  0.9518 -1.1919  0.1152
  733MOL0     H 1110   7.520   6.782   4.810  0.0425 -0.2982 -0.0486
  733MOL0     H 1111   7.687   6.831   4.821  0.3491  0.7644 -0.2977
  733MOL0     H 1112   7.875   6.771   4.884  2.5374  0.5471  1.8407
  733MOL0     H 1113   8.207   6.636   4.924 -1.2954 -1.6122 -0.9563
  733MOL0     H 1114   8.139   6.750   5.042 -1.6410 -1.2555  1.7348
  733MOL0     H 1115   8.098   6.762   4.867 -0.3347 -0.4681 -0.4475
  733MOL0     H 1116   8.278   6.466   5.387  1.9446  1.2627  0.0904
  733MOL0     H 1117   8.493   6.369   5.485  2.5043  0.3230 -0.5058
  733MOL0     H 1118   8.624   6.190   5.515  1.0792 -0.4545 -1.1094
  733MOL0     H 1119   8.615   6.081   5.371 -0.1185 -0.2384 -0.3414
  733MOL0     H 1120   8.879   6.181   5.511  1.7562 -1.8579 -0.8494
  733MOL0     H 1121   8.814   6.017   5.523 -2.1832  0.1512  1.2578
  733MOL0     H 1122   8.915   6.157   5.271  1.2836  1.2781  0.3282
  733MOL0     H 1123   8.855   5.989   5.273  0.4170 -2.8343  3.2269
  733MOL0     H 1124   9.070   6.091   5.441  0.0291  1.0891 -0.2012
  733MOL0     H 1125   9.096   6.022   5.274 -1.1105 -0.8628 -0.2558
  733MOL0     H 1126   8.988   5.866   5.510  0.7438  2.2596  1.8635
  733MOL0     H 1127   8.998   5.814   5.348  1.7237 -0.2750 -1.3607
  733MOL0     H 1128   9.213   5.904   5.539  1.8728  0.7565 -0.8087
  733MOL0     H 1129   9.255   5.907   5.365  1.9903  2.3446  2.0944
  733MOL0     H 1130   9.197   5.651   5.362  0.6735 -0.1493 -1.1446
  733MOL0     H 1131   9.174   5.658   5.537 -0.1794  0.0344  0.0011
  733MOL0     H 1132   9.424   5.758   5.410  1.5601  2.0471  2.6109
  733MOL0     H 1133   9.416   5.599   5.479 -1.5191 -0.4673  1.3084
  733MOL0     H 1134   8.639   6.293   5.103  0.8790  0.1101  2.6606
  733MOL0     H 1135   8.432   6.391   4.990  0.8184 -0.2207  0.7205
  733MOL0     H 1136   7.852   6.348   5.145 -1.5997 -0.4813 -0.8065
  733MOL0     H 1137   7.654   6.469   5.087  1.2567 -0.9599  5.0430
  733MOL0     H 1138   8.577   6.594   5.517  2.1897  0.8020 -1.6205
  733MOL0     H 1139   8.791   6.687   5.545  1.7644  2.1055 -1.9042
  733MOL0     H 1140   9.071   6.795   5.734 -1.0227  0.9221  1.5329
  733MOL0     H 1141   9.309   6.817   5.773  0.1320 -0.3924 -1.0285
  733MOL0     H 1142   9.659   7.095   5.742  0.0285 -0.7382 -1.2851
  733MOL0     H 1143   9.539   7.205   5.677 -0.3625  1.5286  0.3603
  733MOL0     H 1144   9.562   7.115   5.958 -1.4230  0.6128  1.2516
  733MOL0     H 1145   9.419   7.204   5.906 -1.3238 -3.9595 -0.1909
  733MOL0     H 1146   9.606   7.388   5.826  2.1305  2.2605  0.5287
  733MOL0     H 1147   9.551   7.370   5.993 -1.2240 -1.9319 -0.9134
  733MOL0     H 1148   9.819   7.300   5.867  1.4118  1.9821  0.0141
  733MOL0     H 1149   9.767   7.209   6.013 -1.7053 -1.1812 -1.3393
  733MOL0     H 1150   9.867   7.601   6.154  2.5771  0.3114 -0.6883
  733MOL0     H 1151   9.334   7.209   5.641  0.5402 -0.1395  0.9467
  733MOL0     H 1152   9.041   7.213   5.451  0.1829  1.8117 -0.3237
  733MOL0     H 1153   8.983   7.290   5.594 -0.2643  3.8096 -3.9400
  733MOL0     H 1154   9.141   7.326   5.542  1.4748 -0.7005 -0.3699
  734MOL0     O 1155   2.465   4.628   8.605 -0.2569  0.4929  0.6955
  734MOL0     C 1156   2.485   4.522   8.662 -0.6941 -0.4268  0.5142
  734MOL0     O 1157   2.587   4.498   8.750  0.6203  0.0660 -0.2825
  734MOL0     C 1158   2.647   4.610   8.797  0.5021 -0.3943  0.4363
  734MOL0     C 1159   2.580   4.713   8.865  0.0550  0.0864  0.4166
  734MOL0     C 1160   2.651   4.817   8.922  0.4199 -0.0438  0.5630
  734MOL0     C 1161   2.782   4.829   8.917 -0.6467 -0.0741 -0.4437
  734MOL0     O 1162   2.854   4.928   8.963  0.4456  0.5830 -0.0766
  734MOL0     C 1163   2.838   4.960   9.104  0.2491 -0.6454 -0.2558
  734MOL0     C 1164   2.976   4.993   9.173 -0.7827 -0.4340  0.5420
  734MOL0     C 1165   3.090   4.917   9.105  0.4550 -0.4492 -0.2327
  734MOL0     C 1166   3.225   4.959   9.165  1.2809 -0.0383 -0.1276
  734MOL0     C 1167   3.350   4.866   9.134  0.8352 -0.2633  0.3472
  734MOL0     C 1168   3.479   4.911   9.203  0.9843 -0.0769  0.1403
  734MOL0     C 1169   3.551   5.026   9.142  0.1926 -0.1255 -0.2964
  734MOL0     C 1170   3.706   5.013   9.156  0.4961 -0.3740  0.2247
  734MOL0     N 1171   3.747   5.079   9.281 -0.3693  0.5925  0.0692
  734MOL0     C 1172   3.734   5.203   9.325  0.3568 -0.3637 -1.1528
  734MOL0     C 1173   3.828   5.230   9.419  0.1757 -0.3482  0.2868
  734MOL0     C 1174   3.850   5.353   9.489 -0.1961 -0.1839  0.5487
  734MOL0     C 1175   3.986   5.410   9.485 -0.1484  0.3944 -0.9168
  734MOL0     C 1176   4.055   5.422   9.348  0.2819  0.4654 -0.3394
  734MOL0     C 1177   4.167   5.523   9.343 -0.2683  0.1842 -0.5492
  734MOL0     O 1178   4.235   5.493   9.469  0.3603 -0.0259  0.3134
  734MOL0     C 1179   4.321   5.591   9.516 -0.0647  0.2790 -0.9247
  734MOL0     C 1180   4.415   5.661   9.440 -0.4989  0.5587 -0.7536
  734MOL0     C 1181   4.498   5.766   9.491 -0.4304  0.0001 -0.1052
  734MOL0     C 1182   4.583   5.841   9.389 -0.4219 -0.0378  0.2843
  734MOL0     C 1183   4.484   5.805   9.627 -0.1533  0.1129 -0.2711
  734MOL0     C 1184   4.567   5.911   9.697  0.4725  0.1334  0.6230
  734MOL0     O 1185   4.672   5.979   9.632  0.2545  0.1551  0.2855
  734MOL0     C 1186   4.775   6.050   9.696  0.1312  0.6433 -0.1174
  734MOL0     C 1187   4.809   6.066   9.832  0.0011 -0.0271 -1.0504
  734MOL0     C 1188   4.929   6.142   9.862  0.7553 -0.4761  0.1719
  734MOL0     C 1189   4.997   6.207   9.761 -0.5409 -0.1746 -0.0205
  734MOL0     O 1190   5.104   6.294   9.795 -0.2087 -0.0949  0.2360
  734MOL0     C 1191   5.099   6.433   9.751 -0.3530  0.4661 -0.1391
  734MOL0     C 1192   5.052   6.528   9.856 -0.4622  0.5161  0.5289
  734MOL0     C 1193   5.157   6.515   9.968  0.8011 -0.7704 -0.1812
  734MOL0     C 1194   5.131   6.619  10.080 -0.1976  0.0244 -0.6903
  734MOL0     C 1195   5.232   6.601  10.196  0.2628  0.5968 -0.1672
  734MOL0     C 1196   5.225   6.714  10.295 -0.0767 -0.5369 -0.2336
  734MOL0     C 1197   5.348   6.701  10.382 -0.2714  0.3853  0.1657
  734MOL0     C 1198   5.354   6.820  10.480 -0.6965  0.2532  0.3479
  734MOL0    Cl 1199   5.512   6.831  10.568  0.3301 -0.0680 -0.2109
  734MOL0     C 1200   4.970   6.185   9.624  0.6370  0.5496  0.0696
  734MOL0     C 1201   4.859   6.101   9.596  0.4152  0.1429 -0.0339
  734MOL0     O 1202   4.543   5.928   9.814 -0.3503 -0.0688  0.3209
  734MOL0     C 1203   4.391   5.728   9.704  0.0000 -0.4670  0.2783
  734MOL0     C 1204   4.308   5.628   9.650 -0.0301 -0.6527 -0.2944
  734MOL0     N 1205   3.897   5.115   9.436 -0.1046 -0.2137  0.0023
  734MOL0     N 1206   3.850   5.024   9.362  0.0793  0.2532  0.0175
  734MOL0     C 1207   2.851   4.726   8.855  0.0482 -0.3909 -0.4102
  734MOL0     C 1208   2.788   4.620   8.787  0.3290  0.2164 -0.6936
  734MOL0     C 1209   2.401   4.401   8.635 -0.3585 -0.0372 -0.1716
  734MOL0     C 1210   2.435   4.287   8.714 -0.1385  0.3965  0.9277
  734MOL0     C 1211   2.371   4.164   8.702  0.3041  0.1567  0.5418
  734MOL0     C 1212   2.262   4.151   8.614  0.0446 -0.3823 -0.2065
  734MOL0     O 1213   2.211   4.024   8.623  0.2104 -0.1180 -0.0948
  734MOL0     C 1214   2.085   4.003   8.552  0.4612 -0.2379  0.5965
  734MOL0     C 1215   1.956   4.022   8.631 -0.0084 -0.6643  0.6737
  734MOL0     C 1216   1.822   3.986   8.562 -0.6598  0.6258 -0.1420
  734MOL0     C 1217   1.706   3.951   8.657 -0.2354 -0.8271 -0.5087
  734MOL0     C 1218   1.591   3.910   8.574 -0.2132 -0.3238 -0.8947
  734MOL0     C 1219   1.491   3.879   8.518  0.3798  0.4780  0.6256
  734MOL0     C 1220   2.225   4.267   8.548 -0.2621  0.0764 -0.1461
  734MOL0     C 1221   2.290   4.388   8.552  0.4394 -0.4678  0.0999
  734MOL0     C 1222   2.241   4.512   8.473  0.0142  0.1605  0.5394
  734MOL0     H 1223   2.473   4.698   8.875  0.1070 -1.3974 -0.9201
  734MOL0     H 1224   2.593   4.900   8.962  0.2778  0.4608 -0.6599
  734MOL0     H 1225   2.790   4.880   9.161 -2.5416  0.9209 -0.2585
  734MOL0     H 1226   2.774   5.047   9.118  0.1905 -0.7270 -0.0208
  734MOL0     H 1227   2.990   5.098   9.146 -4.0027  0.1972  0.8888
  734MOL0     H 1228   2.976   4.983   9.281  1.7917  0.7796  0.7240
  734MOL0     H 1229   3.066   4.812   9.121 -1.5661  0.3819  3.7211
  734MOL0     H 1230   3.094   4.939   8.998 -3.2872 -1.8717 -0.8126
  734MOL0     H 1231   3.238   5.060   9.124  0.9333  0.2017  0.3535
  734MOL0     H 1232   3.211   4.965   9.273 -0.2163  2.6788 -0.3879
  734MOL0     H 1233   3.362   4.847   9.027 -1.5763 -1.6348  0.2547
  734MOL0     H 1234   3.328   4.770   9.182  0.0290  0.7690  2.1664
  734MOL0     H 1235   3.456   4.929   9.309 -0.0303 -0.0476 -0.0759
  734MOL0     H 1236   3.548   4.826   9.205 -1.0916 -1.9145 -1.5911
  734MOL0     H 1237   3.508   5.120   9.178  1.7871 -0.2877  2.2504
  734MOL0     H 1238   3.515   5.025   9.039 -2.8697  1.7602  0.5998
  734MOL0     H 1239   3.732   4.908   9.141  1.1125 -0.2586  0.4648
  734MOL0     H 1240   3.760   5.061   9.073  3.3634 -1.9727  1.0207
  734MOL0     H 1241   3.652   5.265   9.290 -0.0223  1.4879  2.4784
  734MOL0     H 1242   3.799   5.342   9.585 -0.1594 -2.6959  0.3354
  734MOL0     H 1243   3.792   5.426   9.432 -1.9695 -1.0376  1.1914
  734MOL0     H 1244   3.975   5.511   9.526 -3.7205 -0.2381 -0.0469
  734MOL0     H 1245   4.052   5.352   9.549 -2.1808 -2.1146 -0.9482
  734MOL0     H 1246   4.096   5.323   9.325  0.1257  0.9088 -2.7098
  734MOL0     H 1247   3.987   5.446   9.266 -1.2202 -0.4480  0.5808
  734MOL0     H 1248   4.234   5.511   9.258  0.4807 -0.1729  0.0826
  734MOL0     H 1249   4.128   5.626   9.345 -0.8598 -0.0509  0.3447
  734MOL0     H 1250   4.421   5.649   9.332 -2.6641 -1.6917 -0.7127
  734MOL0     H 1251   4.584   5.949   9.408 -0.6980 -0.1268  0.8419
  734MOL0     H 1252   4.546   5.830   9.287  0.5990  1.1008 -0.2157
  734MOL0     H 1253   4.690   5.824   9.395 -0.0215  1.2437 -2.0674
  734MOL0     H 1254   4.755   6.006   9.904  1.9500 -0.9964 -0.3260
  734MOL0     H 1255   4.950   6.169   9.965  0.9506  1.7831 -0.4180
  734MOL0     H 1256   5.199   6.460   9.715 -0.0709  0.5486  0.6830
  734MOL0     H 1257   5.030   6.445   9.667 -5.3760 -0.0417  3.4880
  734MOL0     H 1258   5.052   6.629   9.815  2.8870  0.4900  0.1878
  734MOL0     H 1259   4.950   6.498   9.883  0.0201 -1.0423  0.7264
  734MOL0     H 1260   5.253   6.534   9.921  0.6256  0.7599  0.0166
  734MOL0     H 1261   5.171   6.413  10.004  0.3818 -0.6373  0.3812
  734MOL0     H 1262   5.031   6.606  10.122  0.1486  0.9034  0.4618
  734MOL0     H 1263   5.151   6.721  10.046  1.0385 -0.2873 -0.9628
  734MOL0     H 1264   5.221   6.508  10.252  1.1342  2.7738  4.0873
  734MOL0     H 1265   5.328   6.599  10.143  0.1977  2.1295 -0.4120
  734MOL0     H 1266   5.131   6.713  10.351 -0.0349 -4.0561 -0.0506
  734MOL0     H 1267   5.235   6.805  10.236 -0.4922  1.1331  2.1116
  734MOL0     H 1268   5.437   6.693  10.319 -0.3987 -0.8294  0.1189
  734MOL0     H 1269   5.348   6.608  10.439 -0.9148  0.7695  0.8076
  734MOL0     H 1270   5.266   6.816  10.545 -1.7279  0.6779 -0.9635
  734MOL0     H 1271   5.336   6.908  10.418 -7.1808  0.1685  1.3582
  734MOL0     H 1272   5.039   6.228   9.552 -0.2208 -1.6226 -2.2026
  734MOL0     H 1273   4.831   6.068   9.497  0.5542 -2.0732  0.6266
  734MOL0     H 1274   4.384   5.750   9.810 -0.8206  1.7403 -0.1679
  734MOL0     H 1275   4.228   5.571   9.696 -2.0224  0.0474 -2.6909
  734MOL0     H 1276   2.957   4.742   8.840 -0.1240  2.5022  0.8383
  734MOL0     H 1277   2.836   4.537   8.737  0.7276 -1.2781  2.0181
  734MOL0     H 1278   2.516   4.294   8.786  0.2309  2.8629  0.3470
  734MOL0     H 1279   2.403   4.077   8.758 -2.0860 -0.5049  1.0350
  734MOL0     H 1280   2.080   4.071   8.466 -1.0285  0.2215  1.0147
  734MOL0     H 1281   2.079   3.898   8.520 -1.7162 -2.0943  5.8777
  734MOL0     H 1282   1.953   4.130   8.648 -1.9572 -0.4175 -0.9540
  734MOL0     H 1283   1.959   3.995   8.737  0.9441  1.4844  1.2494
  734MOL0     H 1284   1.797   4.068   8.494  3.1160  1.0792 -1.2326
  734MOL0     H 1285   1.838   3.891   8.508 -2.5231  1.8097 -3.0522
  734MOL0     H 1286   1.678   4.045   8.707  0.0202 -2.3703  2.8212
  734MOL0     H 1287   1.733   3.874   8.730  1.1342 -1.0428 -1.2122
  734MOL0     H 1288   1.405   3.839   8.469  1.9531  0.4614 -2.3848
  734MOL0     H 1289   2.130   4.267   8.496  0.6945  1.5699 -2.0063
  734MOL0     H 1290   2.329   4.552   8.421 -0.1718 -0.1949 -0.0643
  734MOL0     H 1291   2.161   4.496   8.400 -0.3788 -0.7231  1.1544
  734MOL0     H 1292   2.205   4.586   8.545 -0.8583  1.9610 -1.6230
  735MOL0     O 1293  10.575   5.081   6.608  0.4448 -0.5301 -0.2166
  735MOL0     C 1294  10.550   5.034   6.502 -0.8996 -0.0021  0.2476
  735MOL0     O 1295  10.640   5.029   6.401 -1.1399 -0.1758  0.6882
  735MOL0     C 1296  10.757   5.100   6.412 -0.3159  0.7197  0.2177
  735MOL0     C 1297  10.764   5.245   6.414 -0.4609  0.6783  0.2818
  735MOL0     C 1298  10.879   5.322   6.408 -0.2568  0.2858  0.2574
  735MOL0     C 1299  10.996   5.249   6.418 -1.3864 -0.2278  0.3951
  735MOL0     O 1300  11.125   5.289   6.406  0.1326  0.1244 -0.0561
  735MOL0     C 1301  11.142   5.424   6.388 -0.6335 -0.1780 -0.3489
  735MOL0     C 1302  11.293   5.457   6.405  0.4299 -0.1292  0.7245
  735MOL0     C 1303  11.384   5.396   6.289 -0.1688 -0.1345 -0.3466
  735MOL0     C 1304  11.513   5.479   6.290 -0.1020  1.1296 -0.3545
  735MOL0     C 1305  11.619   5.439   6.188 -0.2567  1.4833  0.3956
  735MOL0     C 1306  11.680   5.562   6.118 -0.1557 -0.1009 -0.3518
  735MOL0     C 1307  11.749   5.523   5.986 -0.5156 -0.5383 -0.4676
  735MOL0     C 1308  11.839   5.642   5.925  0.6404  0.1998 -0.5976
  735MOL0     N 1309  11.964   5.671   5.997 -0.2634  0.0843 -0.3922
  735MOL0     C 1310  12.006   5.783   6.067 -0.5271 -0.3823  0.3128
  735MOL0     C 1311  12.134   5.762   6.108 -0.1439 -0.1456  0.6184
  735MOL0     C 1312  12.220   5.875   6.163 -0.1836  1.2678  0.0748
  735MOL0     C 1313  12.270   5.839   6.299  0.2697 -0.1143 -0.0835
  735MOL0     C 1314  12.350   5.711   6.312  1.0564  0.4871 -0.2278
  735MOL0     C 1315  12.389   5.680   6.455  0.5121  0.1975 -0.3409
  735MOL0     O 1316  12.483   5.776   6.511  0.2090  0.0844 -0.2839
  735MOL0     C 1317  12.616   5.764   6.479 -0.7764 -1.0000  0.1948
  735MOL0     C 1318  12.706   5.839   6.550  0.1472 -0.0393 -0.1235
  735MOL0     C 1319  12.845   5.824   6.542  0.0005 -1.2377  0.2540
  735MOL0     C 1320  12.918   5.922   6.629 -0.6236  0.1381 -0.0997
  735MOL0     C 1321  12.904   5.731   6.449  0.1740  0.0787 -0.5699
  735MOL0     C 1322  13.054   5.705   6.446  0.5147 -0.5331 -0.5902
  735MOL0     O 1323  13.131   5.722   6.561  0.2887  0.0336 -1.2479
  735MOL0     C 1324  13.270   5.718   6.547  0.4087 -0.9012  0.7468
  735MOL0     C 1325  13.342   5.597   6.534 -0.2696 -0.8429 -0.5184
  735MOL0     C 1326  13.483   5.592   6.542  0.1355  0.6244 -0.9379
  735MOL0     C 1327  13.552   5.710   6.537  0.1634 -0.4216  0.6556
  735MOL0     O 1328  13.693   5.716   6.505 -0.7629 -0.3438  0.2047
  735MOL0     C 1329  13.771   5.600   6.552 -0.0198  0.5239 -0.0878
  735MOL0     C 1330  13.923   5.639   6.548  0.0210 -0.4056 -0.5128
  735MOL0     C 1331  14.004   5.529   6.608 -0.5360 -0.0374 -0.5479
  735MOL0     C 1332  14.152   5.577   6.607  0.5441  0.8419  0.1473
  735MOL0     C 1333  14.258   5.502   6.695  0.3250  0.2303  0.2842
  735MOL0     C 1334  14.270   5.356   6.658 -0.2121 -0.5433  0.4723
  735MOL0     C 1335  14.396   5.288   6.720  0.7571 -0.0170  0.2317
  735MOL0     C 1336  14.408   5.140   6.694  0.1234  0.4408 -0.1148
  735MOL0    Cl 1337  14.390   5.095   6.522 -0.0551 -0.2950 -0.0820
  735MOL0     C 1338  13.482   5.830   6.532  0.1229  1.3716  0.2670
  735MOL0     C 1339  13.344   5.840   6.538  0.4491 -0.7839 -0.4164
  735MOL0     O 1340  13.097   5.668   6.334 -0.5918  0.1105 -0.3648
  735MOL0     C 1341  12.810   5.660   6.369 -0.1129  0.3431 -0.0646
  735MOL0     C 1342  12.673   5.675   6.397  0.5191 -0.1441 -0.3442
  735MOL0     N 1343  12.169   5.637   6.064 -0.0977  0.3295 -0.1949
  735MOL0     N 1344  12.071   5.590   5.991  0.3429  0.3379 -0.5777
  735MOL0     C 1345  10.996   5.110   6.428 -0.3646 -0.0976  0.0697
  735MOL0     C 1346  10.881   5.035   6.421  0.3647 -0.2167 -0.1078
  735MOL0     C 1347  10.404   5.005   6.478  0.3931 -0.0240 -0.1234
  735MOL0     C 1348  10.343   5.079   6.378 -0.2658  0.1334  0.4487
  735MOL0     C 1349  10.208   5.044   6.339 -1.2583  0.2771 -0.3711
  735MOL0     C 1350  10.134   4.940   6.397  0.6641 -0.1041  0.5018
  735MOL0     O 1351  10.000   4.928   6.353  0.0761 -0.9423 -0.7581
  735MOL0     C 1352   9.909   4.843   6.429  0.1226 -0.3074  0.5739
  735MOL0     C 1353   9.884   4.719   6.334  0.4752 -0.1080 -1.0845
  735MOL0     C 1354   9.995   4.614   6.346 -0.4894  0.9782  0.5339
  735MOL0     C 1355   9.994   4.520   6.221 -0.5631 -0.0848 -0.7436
  735MOL0     C 1356   9.870   4.448   6.197  0.6256 -1.0412  0.1409
  735MOL0     C 1357   9.761   4.391   6.192  0.2788 -0.6180  0.2234
  735MOL0     C 1358  10.206   4.869   6.502  0.9013 -0.9300 -0.2888
  735MOL0     C 1359  10.336   4.902   6.541 -0.2557  0.2367  0.3436
  735MOL0     C 1360  10.401   4.828   6.644  0.7191  0.3648 -0.1893
  735MOL0     H 1361  10.669   5.298   6.418 -0.0777  1.7128 -2.2079
  735MOL0     H 1362  10.877   5.429   6.393  0.1280  0.1472 -0.9202
  735MOL0     H 1363  11.099   5.486   6.467  0.9504 -0.9720  1.2039
  735MOL0     H 1364  11.113   5.449   6.285 -0.9852 -1.6718 -0.6372
  735MOL0     H 1365  11.297   5.566   6.403 -1.8315  0.1399  3.7556
  735MOL0     H 1366  11.334   5.422   6.500 -4.2205 -1.3720  2.6013
  735MOL0     H 1367  11.402   5.289   6.306  0.7420  0.3762  2.4039
  735MOL0     H 1368  11.331   5.414   6.195  0.1018  0.4249 -0.3932
  735MOL0     H 1369  11.480   5.580   6.261 -3.7416  0.4931  1.0227
  735MOL0     H 1370  11.549   5.475   6.393 -1.5620 -1.5157  0.1426
  735MOL0     H 1371  11.562   5.386   6.111 -1.1698  5.2216 -1.7675
  735MOL0     H 1372  11.702   5.386   6.235  1.3245  2.1252 -1.5334
  735MOL0     H 1373  11.609   5.645   6.115  0.7902  0.7798  0.7697
  735MOL0     H 1374  11.760   5.598   6.184  0.4466  1.1440 -1.6790
  735MOL0     H 1375  11.666   5.502   5.918 -0.8115  0.6074 -0.4767
  735MOL0     H 1376  11.820   5.441   6.000  0.1751 -0.3994 -2.7136
  735MOL0     H 1377  11.869   5.605   5.827  2.7120 -1.9402  0.7554
  735MOL0     H 1378  11.773   5.729   5.916  0.4233  0.0447 -0.5258
  735MOL0     H 1379  11.953   5.877   6.056  1.8164  0.7582 -3.1898
  735MOL0     H 1380  12.159   5.966   6.169 -1.6817  0.3055  0.1423
  735MOL0     H 1381  12.299   5.887   6.089  0.8770 -0.1976  0.9380
  735MOL0     H 1382  12.331   5.922   6.337 -3.4321  1.2091  3.7987
  735MOL0     H 1383  12.190   5.842   6.374  0.4638  1.1040  0.1105
  735MOL0     H 1384  12.309   5.623   6.262  1.1963  1.4167 -2.0241
  735MOL0     H 1385  12.441   5.730   6.254  0.5821  0.3636 -1.0206
  735MOL0     H 1386  12.302   5.683   6.521  2.2346  0.6210  2.0395
  735MOL0     H 1387  12.434   5.580   6.456  0.6376  0.0744 -4.2216
  735MOL0     H 1388  12.670   5.909   6.626  0.3956 -3.3453  3.3595
  735MOL0     H 1389  13.025   5.914   6.610 -0.5403 -0.7876  0.6792
  735MOL0     H 1390  12.905   5.923   6.737  3.9746 -3.4002  0.7909
  735MOL0     H 1391  12.890   6.020   6.590  1.4953  1.4295  1.4383
  735MOL0     H 1392  13.284   5.506   6.538 -1.1683 -0.2263  0.9365
  735MOL0     H 1393  13.529   5.494   6.532  0.7844  0.7265  0.6620
  735MOL0     H 1394  13.740   5.562   6.649  1.2248 -3.8197 -1.1821
  735MOL0     H 1395  13.753   5.522   6.477  0.0952 -0.3237  0.7499
  735MOL0     H 1396  13.958   5.665   6.448 -1.7119  0.3126 -0.9657
  735MOL0     H 1397  13.935   5.731   6.607  3.0461  1.6272 -3.8912
  735MOL0     H 1398  13.993   5.440   6.545 -1.2928 -0.2792 -0.0846
  735MOL0     H 1399  13.976   5.503   6.710  2.9405  0.1204  0.5775
  735MOL0     H 1400  14.144   5.680   6.642 -0.6605  0.9989 -0.5142
  735MOL0     H 1401  14.194   5.582   6.506 -0.7630  0.0514 -0.4699
  735MOL0     H 1402  14.349   5.556   6.668  0.1229 -0.3542 -1.6623
  735MOL0     H 1403  14.243   5.515   6.803 -2.6624 -2.1996  0.3091
  735MOL0     H 1404  14.276   5.345   6.549 -1.9480  0.6166  0.2204
  735MOL0     H 1405  14.172   5.321   6.693 -1.4467 -2.8604 -4.4367
  735MOL0     H 1406  14.392   5.309   6.827  2.3300 -1.4303  0.6114
  735MOL0     H 1407  14.490   5.333   6.688  0.6170  0.8577  1.0173
  735MOL0     H 1408  14.329   5.087   6.747  0.4768 -0.6157 -0.6259
  735MOL0     H 1409  14.505   5.105   6.730  0.7946  1.2469 -1.0640
  735MOL0     H 1410  13.542   5.920   6.520  0.7877  0.9373  0.3224
  735MOL0     H 1411  13.303   5.940   6.539  2.4432  0.0880 -0.7129
  735MOL0     H 1412  12.854   5.592   6.296 -0.6247  1.9358 -1.9173
  735MOL0     H 1413  12.600   5.602   6.363 -0.6878  0.7257  0.3136
  735MOL0     H 1414  11.091   5.059   6.415  0.3095  0.5777  1.9452
  735MOL0     H 1415  10.875   4.927   6.427  1.3295 -0.3148 -0.7428
  735MOL0     H 1416  10.386   5.160   6.319 -1.6615  1.6697  1.4440
  735MOL0     H 1417  10.174   5.098   6.251  0.5979  2.4047  0.1066
  735MOL0     H 1418   9.946   4.808   6.526  2.1141 -0.0079 -0.0278
  735MOL0     H 1419   9.818   4.904   6.436  1.0638  1.4215 -1.2493
  735MOL0     H 1420   9.862   4.757   6.234  0.0168 -1.3876 -1.4826
  735MOL0     H 1421   9.798   4.668   6.378  1.0677  1.2862  1.9292
  735MOL0     H 1422  10.090   4.668   6.356 -0.8475  1.5280  1.0826
  735MOL0     H 1423   9.991   4.560   6.441 -0.1234 -1.5871 -0.8176
  735MOL0     H 1424  10.069   4.440   6.229  0.8722  1.3204  0.4909
  735MOL0     H 1425  10.033   4.573   6.134  1.1319  0.2270  0.1539
  735MOL0     H 1426   9.665   4.347   6.176  1.1748 -2.5125 -0.1713
  735MOL0     H 1427  10.155   4.782   6.542 -1.1021  0.0029 -0.7246
  735MOL0     H 1428  10.393   4.905   6.721 -1.3879  0.4242 -0.4163
  735MOL0     H 1429  10.329   4.750   6.670  0.8695 -0.0658 -1.0471
  735MOL0     H 1430  10.505   4.801   6.626  0.6591 -0.5389  0.7354
  736MOL0     O 1431   5.598   9.308   4.906  0.8005 -0.2041 -0.2231
  736MOL0     C 1432   5.542   9.408   4.866  0.4511 -0.5858 -0.2677
  736MOL0     O 1433   5.596   9.534   4.845 -0.3060 -0.2202  0.3720
  736MOL0     C 1434   5.732   9.544   4.830 -0.7023  0.3773 -0.6559
  736MOL0     C 1435   5.829   9.544   4.933  0.4913 -0.3038  0.1844
  736MOL0     C 1436   5.965   9.548   4.906  0.2080  0.0087 -0.1025
  736MOL0     C 1437   6.015   9.578   4.779  0.8565  0.7048  1.1960
  736MOL0     O 1438   6.145   9.596   4.736  0.4683  0.0386 -0.6116
  736MOL0     C 1439   6.228   9.636   4.844  0.2429  0.0600  0.0021
  736MOL0     C 1440   6.362   9.661   4.774  0.6254 -0.0585  0.0091
  736MOL0     C 1441   6.461   9.757   4.846  0.4618 -0.2001 -0.4741
  736MOL0     C 1442   6.524   9.694   4.973  0.4354  0.5602  0.0883
  736MOL0     C 1443   6.639   9.772   5.033 -1.3979 -0.0547  0.3484
  736MOL0     C 1444   6.750   9.688   5.115  0.7152 -0.7855  0.1422
  736MOL0     C 1445   6.869   9.776   5.136  0.0979  0.2511  0.0026
  736MOL0     C 1446   6.849   9.902   5.223  0.4492 -1.4187  0.0838
  736MOL0     N 1447   6.983   9.956   5.260  0.1967 -0.4419  0.1395
  736MOL0     C 1448   7.047   9.924   5.382  0.2127 -0.2070  0.1613
  736MOL0     C 1449   7.160   9.996   5.383 -1.2053  0.7210  0.3540
  736MOL0     C 1450   7.272  10.009   5.489 -0.3143  0.5887  0.3845
  736MOL0     C 1451   7.389  10.081   5.416 -0.0529 -0.3362  0.6013
  736MOL0     C 1452   7.495  10.132   5.518  0.1970 -0.0420 -0.1860
  736MOL0     C 1453   7.634  10.158   5.461  0.8371 -0.2598 -0.9938
  736MOL0     O 1454   7.674  10.023   5.421  0.4072 -0.2837  0.4407
  736MOL0     C 1455   7.804   9.972   5.440  1.1331 -0.1299  0.3229
  736MOL0     C 1456   7.820   9.840   5.410  0.3665 -0.2857 -0.0340
  736MOL0     C 1457   7.940   9.774   5.414 -0.1892  0.1815 -0.4370
  736MOL0     C 1458   7.943   9.634   5.372  0.2288  0.1960  0.1128
  736MOL0     C 1459   8.057   9.845   5.467  0.8177 -0.3340 -0.4678
  736MOL0     C 1460   8.190   9.792   5.489 -0.0908 -0.3507 -0.3821
  736MOL0     O 1461   8.221   9.659   5.464 -0.3996 -0.3364  0.2515
  736MOL0     C 1462   8.338   9.616   5.521  0.1388  0.4341 -0.8463
  736MOL0     C 1463   8.446   9.598   5.433  0.4925  0.0370 -0.6509
  736MOL0     C 1464   8.567   9.554   5.491 -0.6605  0.7518 -0.0749
  736MOL0     C 1465   8.578   9.509   5.628 -0.3385 -0.1352  0.1060
  736MOL0     O 1466   8.692   9.450   5.666 -0.3378  0.2274 -0.4482
  736MOL0     C 1467   8.747   9.475   5.793  0.4113 -0.1038 -0.6408
  736MOL0     C 1468   8.743   9.353   5.884 -0.8472 -0.3504  0.3357
  736MOL0     C 1469   8.781   9.378   6.032  0.1845  1.5161 -0.2331
  736MOL0     C 1470   8.699   9.469   6.116  0.4999  0.4384 -0.2061
  736MOL0     C 1471   8.733   9.445   6.260  0.7396  0.0531 -0.9491
  736MOL0     C 1472   8.868   9.499   6.300 -0.1787 -0.0436  0.7658
  736MOL0     C 1473   8.879   9.521   6.456 -0.0337 -0.1311 -0.3376
  736MOL0     C 1474   8.936   9.408   6.542  0.2729  0.0198 -0.7827
  736MOL0    Cl 1475   8.933   9.448   6.718 -0.1133 -0.0420  0.0834
  736MOL0     C 1476   8.465   9.521   5.703  0.4352 -0.5648 -0.0682
  736MOL0     C 1477   8.341   9.575   5.656  0.4673  0.8618 -0.0034
  736MOL0     O 1478   8.266   9.866   5.550  0.5999 -0.8104  0.3594
  736MOL0     C 1479   8.040   9.987   5.489  0.5874  0.7460  0.0374
  736MOL0     C 1480   7.918  10.056   5.474 -0.5726 -0.6156  0.3041
  736MOL0     N 1481   7.172  10.060   5.257  0.3708  0.5944 -0.3656
  736MOL0     N 1482   7.074  10.029   5.183 -0.6357  0.3060  0.2748
  736MOL0     C 1483   5.920   9.575   4.671  0.0640  0.6258 -0.3278
  736MOL0     C 1484   5.778   9.556   4.700 -0.0960  0.1672 -0.1260
  736MOL0     C 1485   5.388   9.399   4.867 -0.3855 -0.6707  0.4370
  736MOL0     C 1486   5.336   9.287   4.939  1.0203 -0.6515  0.5349
  736MOL0     C 1487   5.197   9.286   4.970 -0.8793  0.2198  1.0699
  736MOL0     C 1488   5.107   9.382   4.925 -1.0957  0.6592  0.2663
  736MOL0     O 1489   4.973   9.372   4.946  0.1061 -0.0409  0.2143
  736MOL0     C 1490   4.917   9.475   5.026  0.0101  0.2389 -0.4520
  736MOL0     C 1491   4.780   9.528   4.974  0.3866 -0.0308 -0.2063
  736MOL0     C 1492   4.696   9.592   5.086 -0.2120  1.0875  0.9116
  736MOL0     C 1493   4.550   9.574   5.045 -0.3209  1.1912 -0.7813
  736MOL0     C 1494   4.454   9.613   5.151 -0.7440  0.2624 -0.1221
  736MOL0     C 1495   4.377   9.660   5.230  0.4764  0.2582  0.4106
  736MOL0     C 1496   5.165   9.487   4.838  0.3305 -0.3192  0.0226
  736MOL0     C 1497   5.302   9.502   4.806  0.0222  0.2851 -0.5416
  736MOL0     C 1498   5.352   9.616   4.728  0.1319  0.0469  1.0134
  736MOL0     H 1499   5.807   9.539   5.039 -0.2685 -0.2386  0.0393
  736MOL0     H 1500   6.039   9.538   4.985  1.3209  2.0276 -0.8422
  736MOL0     H 1501   6.245   9.548   4.908  2.1101  0.8614  0.6873
  736MOL0     H 1502   6.204   9.726   4.901 -0.6372 -0.8988  1.2001
  736MOL0     H 1503   6.413   9.566   4.753  0.1829 -0.2445 -0.2420
  736MOL0     H 1504   6.347   9.709   4.677 -0.5722  0.2464  0.3344
  736MOL0     H 1505   6.551   9.772   4.786  1.6114 -3.5817  0.1766
  736MOL0     H 1506   6.411   9.851   4.872  1.2182 -0.1620  0.9553
  736MOL0     H 1507   6.444   9.670   5.044  1.7069 -1.6454  0.8646
  736MOL0     H 1508   6.561   9.596   4.943 -0.9661  0.2022 -0.5830
  736MOL0     H 1509   6.603   9.860   5.087 -1.4177  2.7674 -3.7309
  736MOL0     H 1510   6.685   9.798   4.937  0.5154 -1.4546  0.8312
  736MOL0     H 1511   6.701   9.671   5.211  2.2042  0.2921  1.1265
  736MOL0     H 1512   6.777   9.590   5.072 -4.1896 -0.6012 -4.4546
  736MOL0     H 1513   6.927   9.811   5.050  1.7467 -0.7696  0.6603
  736MOL0     H 1514   6.936   9.710   5.191  1.3200  0.6109 -0.9947
  736MOL0     H 1515   6.793   9.974   5.162  0.0370 -0.8369  1.1138
  736MOL0     H 1516   6.802   9.879   5.319  3.3967  0.9172  2.2925
  736MOL0     H 1517   6.999   9.867   5.461  1.2314  0.4167  1.2682
  736MOL0     H 1518   7.291   9.913   5.537 -4.2620 -0.7604 -0.3883
  736MOL0     H 1519   7.228  10.079   5.561 -2.5513  1.5356 -1.7670
  736MOL0     H 1520   7.432  10.013   5.342  6.0750  3.4837 -0.1236
  736MOL0     H 1521   7.351  10.169   5.362 -0.6315 -1.1144 -0.2926
  736MOL0     H 1522   7.455  10.224   5.561 -2.4132 -1.8477  1.5855
  736MOL0     H 1523   7.502  10.054   5.595 -1.3778 -0.7492 -0.7096
  736MOL0     H 1524   7.625  10.221   5.372  1.8199  0.4754 -0.5914
  736MOL0     H 1525   7.690  10.211   5.538 -3.8485  1.9367  1.2945
  736MOL0     H 1526   7.732   9.785   5.378 -0.4430  0.6131  0.5788
  736MOL0     H 1527   8.005   9.626   5.282 -1.4747  1.3107 -1.2179
  736MOL0     H 1528   7.843   9.596   5.347 -0.5360  1.5900  0.9513
  736MOL0     H 1529   7.989   9.561   5.439  0.2353  0.1197  0.0246
  736MOL0     H 1530   8.442   9.625   5.328  0.6516  1.0278 -0.4107
  736MOL0     H 1531   8.655   9.541   5.429 -0.0363  0.6172  0.8025
  736MOL0     H 1532   8.853   9.501   5.783 -0.0194  2.9118  1.2723
  736MOL0     H 1533   8.699   9.561   5.841  0.1549 -0.8647  0.5145
  736MOL0     H 1534   8.642   9.311   5.882 -1.1958  0.4380 -2.4525
  736MOL0     H 1535   8.820   9.292   5.837  0.0437 -0.1886  1.5180
  736MOL0     H 1536   8.885   9.410   6.042  0.3283  0.5677  1.9748
  736MOL0     H 1537   8.766   9.276   6.068  1.3246  1.7045  0.8584
  736MOL0     H 1538   8.596   9.440   6.094  0.1056  0.9218  0.9333
  736MOL0     H 1539   8.719   9.572   6.087  1.3172 -0.2021 -2.0780
  736MOL0     H 1540   8.658   9.491   6.325  1.4778 -0.8185  0.5931
  736MOL0     H 1541   8.720   9.338   6.274  0.3894  0.4688  3.0798
  736MOL0     H 1542   8.864   9.594   6.246 -0.0204 -1.7379 -2.4356
  736MOL0     H 1543   8.951   9.439   6.260 -1.3264 -0.3488 -1.2913
  736MOL0     H 1544   8.780   9.548   6.493 -0.2490 -1.2558 -0.0675
  736MOL0     H 1545   8.947   9.605   6.473 -1.1709  0.6154  0.7323
  736MOL0     H 1546   9.038   9.387   6.508 -0.3266  1.1749 -3.5891
  736MOL0     H 1547   8.899   9.307   6.523  1.1426 -0.1114 -1.8833
  736MOL0     H 1548   8.457   9.483   5.804  2.4798 -0.7584  0.0739
  736MOL0     H 1549   8.250   9.576   5.714 -0.1047 -0.2615 -0.8245
  736MOL0     H 1550   8.119  10.052   5.526 -1.8691  2.6599  2.3201
  736MOL0     H 1551   7.904  10.158   5.507 -2.5817 -0.4531 -0.8880
  736MOL0     H 1552   5.949   9.585   4.567  0.9028 -3.3938 -0.6642
  736MOL0     H 1553   5.697   9.548   4.628 -0.3154 -0.6417  0.1911
  736MOL0     H 1554   5.398   9.213   4.990  0.7242 -1.8184 -0.7356
  736MOL0     H 1555   5.158   9.201   5.026 -1.0117  0.6883  1.6955
  736MOL0     H 1556   4.910   9.422   5.121  2.2848 -0.9656 -0.8649
  736MOL0     H 1557   4.982   9.560   5.047 -1.6493  1.0018  2.0598
  736MOL0     H 1558   4.733   9.440   4.930  1.0528  0.1097 -1.2387
  736MOL0     H 1559   4.789   9.610   4.902  1.6284  0.3872  0.3923
  736MOL0     H 1560   4.702   9.535   5.180 -0.5260  0.8390  0.7815
  736MOL0     H 1561   4.723   9.697   5.097  1.8568  0.8059 -0.7546
  736MOL0     H 1562   4.544   9.468   5.019  2.3129 -0.0029  2.6171
  736MOL0     H 1563   4.526   9.637   4.959  0.0148  1.6941 -0.5189
  736MOL0     H 1564   4.299   9.693   5.296 -0.1920 -1.4058  0.5030
  736MOL0     H 1565   5.095   9.564   4.810 -1.8623 -1.5557  1.8244
  736MOL0     H 1566   5.266   9.661   4.678  0.8757  0.7847  0.3845
  736MOL0     H 1567   5.399   9.692   4.791  2.5935  0.1654 -0.8146
  736MOL0     H 1568   5.422   9.587   4.649  2.1184  1.4459  2.1899
  737MOL0     O 1569   7.499   7.637   1.846 -0.1166  0.5433 -0.2979
  737MOL0     C 1570   7.502   7.519   1.813  0.0617 -0.0378  0.5580
  737MOL0     O 1571   7.616   7.458   1.757 -0.0694 -0.4340  0.8543
  737MOL0     C 1572   7.736   7.521   1.736  0.4358  0.4348  0.2052
  737MOL0     C 1573   7.775   7.540   1.608  0.5442  0.1435 -0.7024
  737MOL0     C 1574   7.894   7.617   1.576 -0.8142 -0.1188 -0.2748
  737MOL0     C 1575   7.956   7.694   1.679 -0.4639  0.4059  0.1320
  737MOL0     O 1576   8.062   7.772   1.686  0.6038 -0.6746 -0.1521
  737MOL0     C 1577   8.070   7.859   1.569  0.3126 -0.7588  0.3508
  737MOL0     C 1578   8.012   7.994   1.616 -0.6055  0.0126 -0.4954
  737MOL0     C 1579   8.087   8.055   1.737 -0.7841  0.3187  0.4760
  737MOL0     C 1580   8.034   8.201   1.748 -0.0418  0.1377 -0.2249
  737MOL0     C 1581   8.069   8.264   1.884  0.4020  0.4883 -0.0574
  737MOL0     C 1582   8.216   8.302   1.896 -0.4008  0.1470 -0.0984
  737MOL0     C 1583   8.264   8.350   2.033 -0.7423 -0.8821 -0.3183
  737MOL0     C 1584   8.416   8.392   2.026 -0.1092  0.1749 -1.1556
  737MOL0     N 1585   8.453   8.447   2.153 -0.5150 -0.0391 -0.8974
  737MOL0     C 1586   8.397   8.557   2.215 -0.0390 -0.6496  0.1350
  737MOL0     C 1587   8.466   8.585   2.326  0.1048 -0.4437  0.4125
  737MOL0     C 1588   8.434   8.693   2.423 -1.0441 -0.5188 -0.3179
  737MOL0     C 1589   8.467   8.834   2.372  0.3345  0.1798  0.1719
  737MOL0     C 1590   8.618   8.859   2.320  0.3016 -0.6950 -0.5430
  737MOL0     C 1591   8.739   8.834   2.409  0.5966 -0.1920 -0.1922
  737MOL0     O 1592   8.738   8.941   2.501  0.1041 -0.5943  0.3346
  737MOL0     C 1593   8.860   8.942   2.562  0.0240 -0.6668 -0.6220
  737MOL0     C 1594   8.931   9.055   2.541 -0.9197 -0.3486 -0.3211
  737MOL0     C 1595   9.058   9.086   2.600 -0.7942 -0.3736 -0.9104
  737MOL0     C 1596   9.123   9.222   2.583 -0.6858 -0.1549  0.0417
  737MOL0     C 1597   9.119   8.981   2.678 -0.1498 -1.2326  0.0848
  737MOL0     C 1598   9.257   8.995   2.737 -0.5900 -0.7643  0.0113
  737MOL0     O 1599   9.328   9.109   2.717 -0.5152 -0.2706  0.7496
  737MOL0     C 1600   9.440   9.129   2.791 -1.1383  0.0105  0.6287
  737MOL0     C 1601   9.440   9.203   2.903 -0.1288  0.2536 -0.4983
  737MOL0     C 1602   9.567   9.235   2.974  0.2636  0.8319  0.2472
  737MOL0     C 1603   9.682   9.184   2.929 -0.6836  0.0855 -0.1159
  737MOL0     O 1604   9.806   9.209   2.978  0.4213  0.5666  0.3104
  737MOL0     C 1605   9.822   9.335   3.031 -0.0967  0.0720  0.6210
  737MOL0     C 1606   9.949   9.354   3.106  0.8148  0.6335 -0.1126
  737MOL0     C 1607  10.073   9.299   3.030 -0.5344 -0.0022 -0.4999
  737MOL0     C 1608  10.107   9.388   2.912 -0.5095  0.0620  0.1720
  737MOL0     C 1609  10.249   9.355   2.861  0.8408 -0.2000 -0.0148
  737MOL0     C 1610  10.268   9.437   2.733 -0.4292  0.1593 -0.4697
  737MOL0     C 1611  10.399   9.388   2.674  0.1614  0.1930 -0.5522
  737MOL0     C 1612  10.444   9.484   2.562  0.7735  0.6535 -0.0203
  737MOL0    Cl 1613  10.486   9.644   2.628 -0.2514 -0.0091 -0.0361
  737MOL0     C 1614   9.687   9.105   2.813  0.4395 -0.0658 -0.2486
  737MOL0     C 1615   9.566   9.072   2.750  0.6802 -0.4107  0.6633
  737MOL0     O 1616   9.293   8.900   2.808 -0.5203  0.6118 -0.0076
  737MOL0     C 1617   9.053   8.858   2.692  0.5618 -0.3218 -0.0009
  737MOL0     C 1618   8.923   8.839   2.645 -0.6427 -0.2207 -0.0856
  737MOL0     N 1619   8.580   8.502   2.321  0.0217  0.3655 -1.2091
  737MOL0     N 1620   8.563   8.420   2.222  0.3254  0.5547  0.2426
  737MOL0     C 1621   7.919   7.658   1.805 -0.0523  0.3617 -0.4155
  737MOL0     C 1622   7.811   7.577   1.837  0.2580 -0.5018  0.8466
  737MOL0     C 1623   7.373   7.448   1.795 -0.1955  0.1292 -0.1300
  737MOL0     C 1624   7.333   7.411   1.667  0.6424 -0.7209 -1.2522
  737MOL0     C 1625   7.203   7.368   1.643  0.1636  0.1451 -0.1389
  737MOL0     C 1626   7.113   7.354   1.752 -0.1903 -0.5048  0.4949
  737MOL0     O 1627   6.978   7.321   1.734 -0.4102 -0.5420  0.0335
  737MOL0     C 1628   6.941   7.273   1.605 -0.0931 -0.4940  0.2544
  737MOL0     C 1629   6.800   7.227   1.613  0.1505  0.6701 -0.4125
  737MOL0     C 1630   6.687   7.333   1.648 -0.5957  0.3976 -0.2220
  737MOL0     C 1631   6.562   7.272   1.693  0.2868  0.2819  0.0915
  737MOL0     C 1632   6.460   7.377   1.729 -0.1042 -0.2586  0.3589
  737MOL0     C 1633   6.384   7.460   1.760  0.8513  0.6120 -0.3125
  737MOL0     C 1634   7.159   7.384   1.879 -0.4343  0.0424  0.1702
  737MOL0     C 1635   7.288   7.437   1.904  0.1932  0.3126 -0.3492
  737MOL0     C 1636   7.328   7.480   2.046  0.0899 -0.1863  0.0294
  737MOL0     H 1637   7.705   7.505   1.533 -0.2508  1.2697 -0.5081
  737MOL0     H 1638   7.914   7.631   1.470 -1.9569 -3.6073 -1.1138
  737MOL0     H 1639   7.996   7.839   1.491  0.2697  1.3831 -0.2268
  737MOL0     H 1640   8.169   7.867   1.523 -0.4156  0.7121 -1.0557
  737MOL0     H 1641   8.025   8.057   1.528  2.0087 -2.8452 -2.3906
  737MOL0     H 1642   7.910   7.967   1.646 -0.7435 -0.3626 -1.2819
  737MOL0     H 1643   8.073   7.994   1.827 -0.7322 -1.1078 -0.4512
  737MOL0     H 1644   8.195   8.060   1.720 -0.4941  2.0751  2.4409
  737MOL0     H 1645   8.068   8.267   1.668 -3.2278  2.8476  0.4321
  737MOL0     H 1646   7.926   8.205   1.730  0.1222 -0.3552 -1.3710
  737MOL0     H 1647   8.043   8.189   1.960  0.6570  1.4450  0.9975
  737MOL0     H 1648   8.014   8.356   1.906 -0.6972 -0.5834  1.9982
  737MOL0     H 1649   8.266   8.207   1.877  1.2016  1.0309 -0.4812
  737MOL0     H 1650   8.232   8.372   1.813  0.1507  2.7895  2.0744
  737MOL0     H 1651   8.256   8.282   2.118  0.5339  2.2711  2.5524
  737MOL0     H 1652   8.191   8.430   2.051 -1.3002 -0.6655 -3.0886
  737MOL0     H 1653   8.481   8.306   2.010  0.3947 -0.1374  1.9508
  737MOL0     H 1654   8.431   8.470   1.952  3.4434  2.3471  1.5302
  737MOL0     H 1655   8.303   8.604   2.188  1.1010  1.6890 -0.0496
  737MOL0     H 1656   8.495   8.671   2.512  0.6262  0.5981 -1.1319
  737MOL0     H 1657   8.329   8.693   2.453 -0.9328  2.2866  0.3787
  737MOL0     H 1658   8.393   8.862   2.296  0.7182  1.5038  0.2511
  737MOL0     H 1659   8.465   8.902   2.458 -0.5591  0.5470 -0.1200
  737MOL0     H 1660   8.642   8.804   2.228  1.1965  0.7323 -1.1878
  737MOL0     H 1661   8.619   8.964   2.292 -0.0408 -0.3754  0.5624
  737MOL0     H 1662   8.726   8.736   2.455  0.2716  0.9228  2.2983
  737MOL0     H 1663   8.827   8.843   2.345  1.6064  0.2045  1.2123
  737MOL0     H 1664   8.884   9.132   2.479 -3.2248 -1.2273  0.2557
  737MOL0     H 1665   9.038   9.283   2.552  0.1148  0.3259 -1.2620
  737MOL0     H 1666   9.200   9.222   2.506  2.3693  1.6087  2.8377
  737MOL0     H 1667   9.168   9.263   2.674  0.3520  1.9042 -1.3216
  737MOL0     H 1668   9.368   9.267   2.953  1.8796  0.2481  2.6463
  737MOL0     H 1669   9.565   9.293   3.066  3.4950 -0.2485  1.1323
  737MOL0     H 1670   9.809   9.410   2.953 -1.7493  2.0306  2.6539
  737MOL0     H 1671   9.744   9.358   3.104 -0.1792  3.3644 -0.3342
  737MOL0     H 1672   9.969   9.460   3.123  2.6175  0.3906 -0.4779
  737MOL0     H 1673   9.936   9.296   3.198 -0.9790 -2.1059 -1.9495
  737MOL0     H 1674  10.074   9.193   3.001  0.9476 -0.2663  0.3624
  737MOL0     H 1675  10.150   9.316   3.106  1.3688 -1.3538 -2.0242
  737MOL0     H 1676  10.098   9.496   2.925 -1.6040  0.3850 -2.4835
  737MOL0     H 1677  10.031   9.373   2.834  0.5964  0.4578 -1.0208
  737MOL0     H 1678  10.335   9.391   2.917  0.4729  1.7386 -0.6070
  737MOL0     H 1679  10.249   9.248   2.837 -1.1306 -1.1762  3.5809
  737MOL0     H 1680  10.272   9.545   2.751  1.8468  0.1794 -0.8483
  737MOL0     H 1681  10.188   9.414   2.662 -0.4677  1.0631 -0.7285
  737MOL0     H 1682  10.383   9.286   2.637  3.1183 -0.3361 -0.5959
  737MOL0     H 1683  10.481   9.372   2.745  0.4329  0.2037 -0.8623
  737MOL0     H 1684  10.374   9.500   2.480  1.1982 -1.2753 -0.8214
  737MOL0     H 1685  10.524   9.432   2.509 -0.3075 -0.0669 -1.0105
  737MOL0     H 1686   9.782   9.063   2.781  1.1293  0.1772  1.3706
  737MOL0     H 1687   9.574   9.006   2.664  0.8828 -2.1018  1.9214
  737MOL0     H 1688   9.106   8.775   2.737  2.4373  1.4056  1.1268
  737MOL0     H 1689   8.873   8.748   2.678  0.3005  0.4128  3.5413
  737MOL0     H 1690   7.965   7.688   1.899 -1.2289 -1.4528  0.7950
  737MOL0     H 1691   7.780   7.559   1.940  0.7850  2.1326  1.5440
  737MOL0     H 1692   7.395   7.428   1.580  0.7789 -3.8800 -1.8662
  737MOL0     H 1693   7.173   7.339   1.543 -0.5983  0.6807 -0.0712
  737MOL0     H 1694   6.951   7.346   1.524 -2.8234 -0.2556  0.0303
  737MOL0     H 1695   6.992   7.182   1.570  0.0922 -0.3309  0.0995
  737MOL0     H 1696   6.781   7.146   1.685  3.1206  0.6738  0.5275
  737MOL0     H 1697   6.773   7.194   1.512 -3.0189 -0.2131  0.5856
  737MOL0     H 1698   6.726   7.395   1.729  0.6578 -0.4200 -0.1600
  737MOL0     H 1699   6.671   7.391   1.557 -1.0633  2.2174  0.9657
  737MOL0     H 1700   6.581   7.218   1.787 -0.4891 -0.9217 -0.4125
  737MOL0     H 1701   6.523   7.207   1.614  0.2411 -1.2920  1.3385
  737MOL0     H 1702   6.314   7.531   1.799 -0.5016  0.0723 -1.6195
  737MOL0     H 1703   7.105   7.369   1.972  1.5246 -2.6927  1.0349
  737MOL0     H 1704   7.304   7.586   2.058  1.5063  0.0676  0.8675
  737MOL0     H 1705   7.268   7.420   2.114 -0.5940  0.5777  0.1121
  737MOL0     H 1706   7.433   7.463   2.070 -0.1399 -2.7897 -0.5210
  738MOL0     O 1707  11.182   0.617   7.861  0.5106  0.4739  0.3739
  738MOL0     C 1708  11.164   0.506   7.918  0.0211 -0.4226 -0.9146
  738MOL0     O 1709  11.049   0.467   7.976  0.8077  0.0927  0.4195
  738MOL0     C 1710  10.948   0.550   7.942  0.3149  0.6821  0.4692
  738MOL0     C 1711  10.868   0.514   7.825  0.1933 -0.1736  0.1381
  738MOL0     C 1712  10.769   0.603   7.782 -0.1606  0.0192  0.0040
  738MOL0     C 1713  10.735   0.718   7.863  0.8882  0.1799  1.1811
  738MOL0     O 1714  10.633   0.801   7.825  0.5717 -0.0722  0.1141
  738MOL0     C 1715  10.567   0.794   7.698 -0.1677  0.0416  0.0465
  738MOL0     C 1716  10.487   0.920   7.683  0.1843  0.3102 -0.0550
  738MOL0     C 1717  10.353   0.911   7.750  0.4348 -0.5155 -0.3398
  738MOL0     C 1718  10.357   0.893   7.908  0.5231 -0.5057  0.0572
  738MOL0     C 1719  10.231   0.964   7.956 -0.6250 -0.7200 -0.7619
  738MOL0     C 1720  10.220   1.004   8.107  0.5698 -0.1322  0.1421
  738MOL0     C 1721  10.293   1.129   8.146  0.3646  0.7999  0.4231
  738MOL0     C 1722  10.225   1.215   8.251  0.6213  0.2799  0.2008
  738MOL0     N 1723  10.254   1.170   8.389 -0.0662  0.5226 -0.2245
  738MOL0     C 1724  10.377   1.180   8.445 -0.6502 -0.2374  0.2392
  738MOL0     C 1725  10.361   1.107   8.557  0.4782 -0.2140  0.2797
  738MOL0     C 1726  10.472   1.095   8.664 -0.0220 -0.4444  0.7918
  738MOL0     C 1727  10.498   1.221   8.747  0.2318 -0.4046 -0.0722
  738MOL0     C 1728  10.588   1.211   8.862 -0.3863  2.0076 -0.4851
  738MOL0     C 1729  10.734   1.174   8.827  0.1784  0.3653  0.4284
  738MOL0     O 1730  10.812   1.140   8.946  0.6086  0.0020  0.0701
  738MOL0     C 1731  10.901   1.232   8.974  0.5092 -0.3757 -0.0277
  738MOL0     C 1732  11.029   1.190   8.978 -0.6429  0.3163  0.1524
  738MOL0     C 1733  11.137   1.259   9.035 -0.8484  0.6086  0.5071
  738MOL0     C 1734  11.273   1.184   9.018 -0.3290 -0.3770 -0.2635
  738MOL0     C 1735  11.119   1.392   9.071  0.0058 -0.0803 -0.4389
  738MOL0     C 1736  11.236   1.478   9.119  0.4176 -0.9196 -0.3784
  738MOL0     O 1737  11.209   1.612   9.125 -0.8637 -0.2975  0.3784
  738MOL0     C 1738  11.318   1.691   9.162  0.1262 -0.4679 -0.4069
  738MOL0     C 1739  11.324   1.742   9.289 -0.3768 -0.6326 -0.4931
  738MOL0     C 1740  11.432   1.819   9.328 -0.6555  0.4841  0.1650
  738MOL0     C 1741  11.540   1.844   9.239  0.7893 -0.1714 -0.2948
  738MOL0     O 1742  11.649   1.918   9.271  0.5099  0.5840  0.0090
  738MOL0     C 1743  11.656   1.985   9.393  0.9750  0.5371  0.0606
  738MOL0     C 1744  11.779   2.066   9.391 -0.1747  0.1824 -0.3151
  738MOL0     C 1745  11.911   1.987   9.373  0.8969 -0.2169  0.1534
  738MOL0     C 1746  12.032   2.079   9.389 -0.3936 -0.4205  0.6645
  738MOL0     C 1747  12.160   1.987   9.391  0.4597  0.2840 -0.0216
  738MOL0     C 1748  12.187   1.921   9.526  0.4783 -0.3646  0.1730
  738MOL0     C 1749  12.314   1.837   9.512  0.0700  0.2087  0.1466
  738MOL0     C 1750  12.450   1.905   9.491 -0.9019 -0.4597  0.3095
  738MOL0    Cl 1751  12.570   1.783   9.523  0.0977 -0.6038 -0.0018
  738MOL0     C 1752  11.526   1.802   9.109  0.6000  0.2506  0.9764
  738MOL0     C 1753  11.417   1.722   9.064  0.1558 -0.9112 -0.3068
  738MOL0     O 1754  11.347   1.430   9.148 -0.0323  0.3717 -0.0438
  738MOL0     C 1755  10.986   1.440   9.065  0.2750 -0.6353 -0.1450
  738MOL0     C 1756  10.873   1.360   9.020 -0.4858 -0.6922  0.9797
  738MOL0     N 1757  10.232   1.054   8.561  0.3338 -0.1207  0.3538
  738MOL0     N 1758  10.172   1.085   8.456 -0.6759 -0.6457 -0.0409
  738MOL0     C 1759  10.813   0.749   7.972  0.1718 -0.0159  0.7427
  738MOL0     C 1760  10.922   0.666   8.011 -0.5985 -0.4575 -0.2808
  738MOL0     C 1761  11.283   0.410   7.913  0.3968 -0.1707 -0.4168
  738MOL0     C 1762  11.362   0.408   7.798  0.0535 -0.1145  0.1687
  738MOL0     C 1763  11.454   0.307   7.783  1.1575  0.0240 -0.3279
  738MOL0     C 1764  11.465   0.203   7.879  0.2808 -0.5108 -0.0333
  738MOL0     O 1765  11.561   0.108   7.872 -0.1990 -0.0817  0.7762
  738MOL0     C 1766  11.606   0.061   7.747 -0.0068 -0.2395  0.6258
  738MOL0     C 1767  11.757   0.079   7.704  0.3489  0.4646 -0.5775
  738MOL0     C 1768  11.765   0.032   7.550  0.1667 -0.3009 -0.2997
  738MOL0     C 1769  11.902  -0.041   7.524  0.3464 -0.1034 -0.9011
  738MOL0     C 1770  11.916  -0.094   7.391 -0.1662  0.8890  0.5488
  738MOL0     C 1771  11.916  -0.140   7.283 -0.4546  0.1448  0.5056
  738MOL0     C 1772  11.401   0.216   7.999  0.3030  0.3810 -0.5579
  738MOL0     C 1773  11.302   0.315   8.023  0.1000 -0.0498  0.5555
  738MOL0     C 1774  11.219   0.317   8.159 -0.1033  0.3230  0.4920
  738MOL0     H 1775  10.896   0.429   7.764 -2.0614 -1.1143  0.3146
  738MOL0     H 1776  10.714   0.574   7.693 -0.4766  0.4328  0.0602
  738MOL0     H 1777  10.497   0.710   7.693 -1.4332  1.0258  0.5797
  738MOL0     H 1778  10.632   0.769   7.614 -2.2629 -3.8829 -0.6423
  738MOL0     H 1779  10.545   1.004   7.725  1.7603 -0.0175 -1.4574
  738MOL0     H 1780  10.466   0.930   7.577 -0.2415 -0.0500 -0.0038
  738MOL0     H 1781  10.300   0.999   7.712  0.5922  0.0749  0.7766
  738MOL0     H 1782  10.303   0.826   7.703 -2.2010  0.4879  0.4779
  738MOL0     H 1783  10.369   0.789   7.940  0.3954 -0.2622  0.9223
  738MOL0     H 1784  10.442   0.949   7.948 -1.0979  3.5139 -1.5265
  738MOL0     H 1785  10.152   0.891   7.933 -3.5808  2.4838 -1.5983
  738MOL0     H 1786  10.205   1.055   7.902  1.6024  0.3972 -0.0685
  738MOL0     H 1787  10.120   1.029   8.144  0.6772  1.5870 -0.6319
  738MOL0     H 1788  10.270   0.930   8.170  2.2539  2.3958  1.9875
  738MOL0     H 1789  10.317   1.190   8.059  0.0333 -2.4622 -2.1370
  738MOL0     H 1790  10.389   1.104   8.193  2.1398  0.9609 -2.8438
  738MOL0     H 1791  10.263   1.317   8.255 -0.8990  0.9643 -1.3143
  738MOL0     H 1792  10.116   1.211   8.256  0.6542  0.7903  1.8502
  738MOL0     H 1793  10.460   1.240   8.409 -1.7737  1.4793  0.3836
  738MOL0     H 1794  10.565   1.082   8.608  0.9535  2.5025  1.5383
  738MOL0     H 1795  10.451   1.007   8.724 -1.1213 -0.5442  0.2806
  738MOL0     H 1796  10.530   1.303   8.682 -0.8657 -0.5916 -0.8923
  738MOL0     H 1797  10.399   1.252   8.782  1.7271  1.0345  3.3085
  738MOL0     H 1798  10.585   1.305   8.917  1.8328 -0.0718  3.6083
  738MOL0     H 1799  10.554   1.133   8.930  3.0321  2.1971  1.6524
  738MOL0     H 1800  10.728   1.087   8.760 -0.8285  0.4062  0.4538
  738MOL0     H 1801  10.780   1.244   8.757 -0.9513 -0.6871 -1.4669
  738MOL0     H 1802  11.043   1.095   8.925 -1.9597 -0.4173  1.0601
  738MOL0     H 1803  11.265   1.086   8.970  2.6522 -0.2822 -1.1505
  738MOL0     H 1804  11.321   1.167   9.115 -0.1626 -0.0790 -0.2916
  738MOL0     H 1805  11.339   1.239   8.951 -0.8371  1.2579  0.5344
  738MOL0     H 1806  11.242   1.720   9.355  0.4483 -0.0435  0.7707
  738MOL0     H 1807  11.429   1.845   9.434 -0.8141 -2.9168  1.1037
  738MOL0     H 1808  11.567   2.045   9.410 -0.0685 -0.3046 -2.1029
  738MOL0     H 1809  11.656   1.908   9.472 -2.0888 -1.3145 -1.5648
  738MOL0     H 1810  11.776   2.132   9.304  0.1010  0.9362  0.2364
  738MOL0     H 1811  11.785   2.126   9.483 -2.2172 -1.9100  1.3093
  738MOL0     H 1812  11.905   1.950   9.270  1.7959 -0.0204  0.0262
  738MOL0     H 1813  11.912   1.904   9.444 -0.0932  0.2969  0.7998
  738MOL0     H 1814  12.018   2.131   9.484  0.1047  0.4652  0.2569
  738MOL0     H 1815  12.034   2.156   9.312 -0.6451 -2.2918 -1.3243
  738MOL0     H 1816  12.148   1.915   9.310 -2.1846  0.5508  0.0288
  738MOL0     H 1817  12.240   2.055   9.364 -0.3446  0.7034 -1.4300
  738MOL0     H 1818  12.098   1.860   9.543 -0.6749  1.5645  1.5314
  738MOL0     H 1819  12.198   1.995   9.606  5.4775 -0.7341  0.1214
  738MOL0     H 1820  12.300   1.772   9.425  0.0772  1.9690 -1.2226
  738MOL0     H 1821  12.323   1.776   9.603  0.2926 -0.1940 -0.1406
  738MOL0     H 1822  12.452   1.990   9.560  0.3314  2.0965 -2.6274
  738MOL0     H 1823  12.469   1.946   9.392 -2.6844  3.0543  1.2755
  738MOL0     H 1824  11.610   1.820   9.043 -0.6128  0.4046 -0.5988
  738MOL0     H 1825  11.415   1.670   8.969  2.3968 -2.0235  0.1725
  738MOL0     H 1826  10.968   1.537   9.109  1.3652 -0.8768  0.8668
  738MOL0     H 1827  10.776   1.408   9.029 -0.5465 -0.9825  2.0635
  738MOL0     H 1828  10.792   0.846   8.015 -4.8014 -0.3823 -0.1748
  738MOL0     H 1829  10.992   0.694   8.089  0.1282  0.3190 -1.1921
  738MOL0     H 1830  11.348   0.489   7.728 -0.9701 -2.0706 -2.0446
  738MOL0     H 1831  11.513   0.299   7.692 -0.4598 -1.5571 -1.2998
  738MOL0     H 1832  11.584  -0.047   7.741 -0.4855 -0.0775 -1.7213
  738MOL0     H 1833  11.544   0.105   7.668 -1.0347  2.1571  2.6282
  738MOL0     H 1834  11.812   0.004   7.763  1.9990  0.7274 -1.7070
  738MOL0     H 1835  11.794   0.179   7.726  2.6683 -0.4413 -0.0033
  738MOL0     H 1836  11.686  -0.036   7.517  0.3574  0.1321 -1.7228
  738MOL0     H 1837  11.765   0.120   7.485  1.7770  0.6318  0.8728
  738MOL0     H 1838  11.898  -0.121   7.599 -0.1490  0.3899 -0.3955
  738MOL0     H 1839  11.988   0.023   7.545  0.5030 -0.9550  1.2736
  738MOL0     H 1840  11.913  -0.186   7.186 -0.0598  1.0818  0.0369
  738MOL0     H 1841  11.438   0.154   8.080  3.0349  1.5538 -0.7929
  738MOL0     H 1842  11.231   0.412   8.213  2.0306  0.2570  0.2205
  738MOL0     H 1843  11.116   0.293   8.134 -0.5757  2.5665  0.0081
  738MOL0     H 1844  11.263   0.249   8.233  1.8371  0.3434 -0.5565
  739MOL0     O 1845   3.418   1.654   3.747  0.3512  0.0974  0.3931
  739MOL0     C 1846   3.421   1.601   3.635 -0.6084 -0.2645 -0.7507
  739MOL0     O 1847   3.522   1.607   3.550  0.0093  0.1261  0.5579
  739MOL0     C 1848   3.642   1.659   3.597  0.3215  0.7620  0.8646
  739MOL0     C 1849   3.658   1.793   3.578  0.4946  0.2000 -0.5664
  739MOL0     C 1850   3.776   1.863   3.605  0.9533 -0.0692  0.2528
  739MOL0     C 1851   3.887   1.792   3.647 -0.3412 -0.0619  0.4171
  739MOL0     O 1852   4.001   1.864   3.679 -0.1493  0.0949 -0.0090
  739MOL0     C 1853   4.101   1.809   3.758  0.0563  0.1929  0.7712
  739MOL0     C 1854   4.224   1.888   3.730  0.2847  0.8027  0.3032
  739MOL0     C 1855   4.275   1.896   3.584  0.2246  0.0060  0.6401
  739MOL0     C 1856   4.376   1.793   3.551  0.4681 -0.0583 -0.5112
  739MOL0     C 1857   4.403   1.780   3.406 -0.5152 -0.2368  0.3968
  739MOL0     C 1858   4.435   1.920   3.346 -0.8791 -0.5968  0.0000
  739MOL0     C 1859   4.506   1.903   3.214  0.1452  0.1689 -0.3403
  739MOL0     C 1860   4.546   2.038   3.145 -0.0509  0.1104 -0.3309
  739MOL0     N 1861   4.657   2.090   3.223  0.1240 -0.2255  0.6449
  739MOL0     C 1862   4.632   2.203   3.309  0.6520  0.3147 -0.2719
  739MOL0     C 1863   4.758   2.262   3.325 -0.8078 -0.4231  0.2902
  739MOL0     C 1864   4.781   2.393   3.403  0.1531  0.4329  0.2221
  739MOL0     C 1865   4.827   2.375   3.547 -0.8610 -0.4286  0.7892
  739MOL0     C 1866   4.963   2.299   3.543 -0.5303 -0.0434 -0.4666
  739MOL0     C 1867   5.083   2.380   3.497 -0.6425  0.5471  0.8165
  739MOL0     O 1868   5.199   2.303   3.509 -0.0768  0.0328  0.6681
  739MOL0     C 1869   5.325   2.359   3.502  0.3051 -0.7487  0.5643
  739MOL0     C 1870   5.351   2.494   3.462  0.0185 -1.0165 -0.3025
  739MOL0     C 1871   5.485   2.546   3.453  0.1505 -0.0351 -0.1554
  739MOL0     C 1872   5.498   2.695   3.423  0.1689 -0.5727  0.2781
  739MOL0     C 1873   5.593   2.462   3.482 -0.6321  0.5985 -0.2464
  739MOL0     C 1874   5.732   2.501   3.464 -0.6062  0.1786 -0.6809
  739MOL0     O 1875   5.780   2.538   3.338  0.2804  0.3043 -0.5947
  739MOL0     C 1876   5.915   2.554   3.316 -0.5497  0.7617 -0.3632
  739MOL0     C 1877   6.004   2.449   3.325 -0.3138 -0.4873  0.3711
  739MOL0     C 1878   6.139   2.479   3.303  0.3597  0.3445  0.3844
  739MOL0     C 1879   6.178   2.609   3.268  0.7330 -0.2803 -1.2850
  739MOL0     O 1880   6.307   2.646   3.262 -0.1018 -1.2322 -0.4497
  739MOL0     C 1881   6.404   2.549   3.221  0.5019 -1.6041  0.1287
  739MOL0     C 1882   6.485   2.525   3.342  0.1923  0.6732  0.2453
  739MOL0     C 1883   6.623   2.472   3.326  0.0978 -0.0031  0.3556
  739MOL0     C 1884   6.730   2.580   3.287  1.0657 -0.5418  0.2091
  739MOL0     C 1885   6.828   2.511   3.194  0.1171  0.2870  0.1036
  739MOL0     C 1886   6.938   2.598   3.145  0.9125 -0.2861  0.3128
  739MOL0     C 1887   7.038   2.637   3.258  0.2270  0.9903 -0.0259
  739MOL0     C 1888   7.141   2.730   3.211 -0.1120 -0.0854 -0.9727
  739MOL0    Cl 1889   7.282   2.665   3.123  0.0285  0.6008 -0.1580
  739MOL0     C 1890   6.086   2.706   3.239  0.5374 -0.8081  0.7248
  739MOL0     C 1891   5.954   2.680   3.261 -0.3676  0.4614  0.2295
  739MOL0     O 1892   5.804   2.495   3.565  1.0708 -0.4470  0.3868
  739MOL0     C 1893   5.562   2.331   3.516 -0.5307  0.2487  0.5047
  739MOL0     C 1894   5.439   2.274   3.522  0.8601 -0.7286 -0.0077
  739MOL0     N 1895   4.852   2.188   3.249 -0.0827 -0.4740 -1.0669
  739MOL0     N 1896   4.797   2.083   3.200  0.5442  0.1151 -1.1732
  739MOL0     C 1897   3.874   1.649   3.661 -0.6898 -0.1350  0.5530
  739MOL0     C 1898   3.752   1.585   3.638  0.3455 -0.5421  0.1367
  739MOL0     C 1899   3.290   1.548   3.587  0.5779  0.1362  0.3131
  739MOL0     C 1900   3.210   1.488   3.683  0.1089 -0.0771  0.0070
  739MOL0     C 1901   3.093   1.427   3.642 -0.1809  0.4983  0.2381
  739MOL0     C 1902   3.045   1.420   3.510  0.8715  0.6638  0.1169
  739MOL0     O 1903   2.942   1.347   3.458  0.5934 -0.6377  0.4675
  739MOL0     C 1904   2.870   1.269   3.552 -0.5270 -0.0963  0.5045
  739MOL0     C 1905   2.753   1.196   3.490 -0.6401  0.0794 -0.2541
  739MOL0     C 1906   2.795   1.127   3.365  0.3115  0.7162 -0.1843
  739MOL0     C 1907   2.902   1.010   3.381  0.8045 -0.4355 -0.0664
  739MOL0     C 1908   2.900   0.921   3.259 -0.2940 -0.3089 -0.3679
  739MOL0     C 1909   2.891   0.845   3.165 -0.2780 -0.4593  0.6388
  739MOL0     C 1910   3.127   1.477   3.411  0.7606  0.3066 -0.9049
  739MOL0     C 1911   3.245   1.537   3.448 -0.4339  0.0604  0.3374
  739MOL0     C 1912   3.324   1.603   3.341 -0.1965 -1.1081 -0.6227
  739MOL0     H 1913   3.573   1.846   3.535  1.3892 -0.2150 -3.0195
  739MOL0     H 1914   3.785   1.971   3.591 -1.2661  0.6028  3.0494
  739MOL0     H 1915   4.127   1.703   3.742  2.7703  0.7979  0.5941
  739MOL0     H 1916   4.079   1.815   3.865  0.4005 -1.2031  0.9475
  739MOL0     H 1917   4.206   1.988   3.770  2.3397  0.5307  2.0682
  739MOL0     H 1918   4.299   1.840   3.793 -0.8641 -1.0052  0.3833
  739MOL0     H 1919   4.191   1.900   3.514  1.4730  1.6392 -0.8608
  739MOL0     H 1920   4.330   1.987   3.558  0.5648 -0.9832 -2.4688
  739MOL0     H 1921   4.472   1.810   3.599  0.4581  2.7840 -1.3054
  739MOL0     H 1922   4.342   1.697   3.591  0.6471  0.2325  0.3631
  739MOL0     H 1923   4.320   1.727   3.359  1.2597 -0.0808 -3.2950
  739MOL0     H 1924   4.497   1.723   3.400 -0.2119  0.1317  1.4995
  739MOL0     H 1925   4.336   1.964   3.332 -0.7434  0.5124  2.1490
  739MOL0     H 1926   4.506   1.970   3.413  0.3812 -3.6707  1.1741
  739MOL0     H 1927   4.452   1.842   3.140  2.1717  0.6435 -2.3092
  739MOL0     H 1928   4.595   1.841   3.229 -0.6845 -0.8442  0.6006
  739MOL0     H 1929   4.572   2.030   3.039 -2.1357 -3.0770 -0.7173
  739MOL0     H 1930   4.459   2.104   3.157 -0.9692 -1.4321  2.3247
  739MOL0     H 1931   4.539   2.234   3.356  1.4038 -2.7504  3.7486
  739MOL0     H 1932   4.681   2.437   3.401 -0.2090 -0.3593 -1.7721
  739MOL0     H 1933   4.838   2.465   3.344  0.6319  0.4530  0.7021
  739MOL0     H 1934   4.829   2.467   3.607 -3.2782  0.4557 -0.3218
  739MOL0     H 1935   4.757   2.313   3.604 -0.2638 -1.2570  0.6305
  739MOL0     H 1936   4.993   2.267   3.643  1.2383  3.6054  0.3686
  739MOL0     H 1937   4.960   2.211   3.478  1.4829  0.4032 -1.2562
  739MOL0     H 1938   5.067   2.421   3.396 -0.4310  1.5442  1.1742
  739MOL0     H 1939   5.098   2.463   3.566  0.5811 -0.5492  1.9260
  739MOL0     H 1940   5.268   2.562   3.443  0.4159 -1.1485 -2.9422
  739MOL0     H 1941   5.404   2.746   3.448 -0.1259 -1.7396  1.6859
  739MOL0     H 1942   5.534   2.704   3.320  0.5856 -0.0896  0.4567
  739MOL0     H 1943   5.571   2.745   3.488  1.6977  1.1241 -2.5645
  739MOL0     H 1944   5.969   2.353   3.359 -2.4828  0.6015  1.3767
  739MOL0     H 1945   6.212   2.402   3.324  0.1097 -0.3371 -1.1514
  739MOL0     H 1946   6.358   2.456   3.187 -2.0676 -1.9197  3.9279
  739MOL0     H 1947   6.472   2.597   3.150  0.0326 -1.4763 -0.2429
  739MOL0     H 1948   6.491   2.614   3.407  1.1210  0.6698  0.1828
  739MOL0     H 1949   6.423   2.457   3.401  0.0568 -1.5247 -2.2849
  739MOL0     H 1950   6.610   2.407   3.239 -0.6336  2.3822 -1.4250
  739MOL0     H 1951   6.645   2.410   3.414 -0.4443  0.7947  1.0640
  739MOL0     H 1952   6.772   2.612   3.383 -3.1107  0.4009  1.9344
  739MOL0     H 1953   6.680   2.661   3.234  0.7278 -0.9814 -0.1544
  739MOL0     H 1954   6.866   2.422   3.245  2.4427  0.1371 -1.7639
  739MOL0     H 1955   6.780   2.475   3.102 -0.4113 -3.3141  1.6093
  739MOL0     H 1956   6.897   2.682   3.088  0.7636  0.4044  1.4073
  739MOL0     H 1957   6.994   2.546   3.067 -1.8674  0.5570 -2.4793
  739MOL0     H 1958   7.086   2.550   3.305  1.3669  0.5503 -1.9037
  739MOL0     H 1959   6.981   2.692   3.334  0.3752  2.2801 -0.8182
  739MOL0     H 1960   7.183   2.761   3.308  1.8163 -0.5310 -1.6096
  739MOL0     H 1961   7.100   2.820   3.165 -0.5806 -0.7399 -1.8608
  739MOL0     H 1962   6.117   2.802   3.200  0.3373 -0.5755  1.1300
  739MOL0     H 1963   5.884   2.758   3.235  0.6605  0.6930 -2.0945
  739MOL0     H 1964   5.646   2.268   3.545 -0.0542  1.2927  1.4709
  739MOL0     H 1965   5.427   2.168   3.543  0.3460 -1.1324 -2.0478
  739MOL0     H 1966   3.961   1.592   3.692 -0.6308 -0.6550 -0.5422
  739MOL0     H 1967   3.742   1.478   3.630  0.8184 -0.4934 -1.3265
  739MOL0     H 1968   3.227   1.492   3.790  0.9274  0.9456 -0.1380
  739MOL0     H 1969   3.031   1.375   3.715 -0.7171 -1.6593 -1.6325
  739MOL0     H 1970   2.937   1.190   3.586 -0.8890 -0.4282  0.4453
  739MOL0     H 1971   2.840   1.311   3.649 -2.4205 -2.8080  1.2317
  739MOL0     H 1972   2.676   1.268   3.461  1.6873  3.6031  1.5353
  739MOL0     H 1973   2.715   1.122   3.560  1.1578 -0.2022  0.4915
  739MOL0     H 1974   2.709   1.075   3.323 -0.1877 -0.2218  1.8491
  739MOL0     H 1975   2.835   1.187   3.284  0.8847 -0.1661 -0.5755
  739MOL0     H 1976   2.873   0.955   3.471 -0.8895  0.0310 -0.2928
  739MOL0     H 1977   3.000   1.052   3.404  0.2505  1.6842 -1.2589
  739MOL0     H 1978   2.904   0.784   3.078  0.7981 -0.8100  1.0203
  739MOL0     H 1979   3.087   1.477   3.310 -0.1279 -0.0823 -0.5648
  739MOL0     H 1980   3.417   1.552   3.316 -0.3768 -1.1093 -1.3099
  739MOL0     H 1981   3.261   1.624   3.254 -0.7273 -0.6702 -0.1442
  739MOL0     H 1982   3.356   1.701   3.377 -0.7825  0.0772 -3.1058
  740MOL0     O 1983   3.381   7.650   7.217  0.0079 -0.1936 -0.2416
  740MOL0     C 1984   3.378   7.582   7.114  0.6129 -0.7292 -0.5991
  740MOL0     O 1985   3.481   7.559   7.039 -0.1233  0.3013  0.7141
  740MOL0     C 1986   3.603   7.601   7.053  0.2752 -0.3354  0.5565
  740MOL0     C 1987   3.621   7.736   7.084  0.5420 -0.2080 -0.2518
  740MOL0     C 1988   3.746   7.786   7.108  0.6478  0.8413 -0.4674
  740MOL0     C 1989   3.856   7.706   7.093 -0.3024  0.1525  0.4963
  740MOL0     O 1990   3.983   7.754   7.124  0.3703  0.2598 -0.0072
  740MOL0     C 1991   3.995   7.878   7.202 -0.0972  0.1569  0.7538
  740MOL0     C 1992   4.144   7.881   7.240 -0.3830  0.5510 -0.2473
  740MOL0     C 1993   4.218   7.967   7.136 -0.4147  0.6170  0.3071
  740MOL0     C 1994   4.367   7.975   7.180 -0.2261  0.3093 -0.0880
  740MOL0     C 1995   4.446   7.993   7.056  0.1141  0.4985 -0.1743
  740MOL0     C 1996   4.599   7.993   7.080 -0.4993  0.3400  0.0921
  740MOL0     C 1997   4.679   8.013   6.946  0.3704  0.1383 -0.0546
  740MOL0     C 1998   4.825   7.988   6.976 -0.2603  0.2736  0.1210
  740MOL0     N 1999   4.911   7.997   6.861 -0.1592 -0.4646  0.2475
  740MOL0     C 2000   4.902   7.911   6.760  0.1145  0.4562  0.2361
  740MOL0     C 2001   4.974   7.972   6.667 -0.3573 -1.6433  0.8668
  740MOL0     C 2002   4.967   7.928   6.525  0.0692 -0.1705  0.0931
  740MOL0     C 2003   5.104   7.900   6.464 -0.4040  0.5064  0.1342
  740MOL0     C 2004   5.185   7.789   6.549 -0.6358 -0.4227 -0.7918
  740MOL0     C 2005   5.288   7.719   6.472  0.7568  0.7254 -0.3982
  740MOL0     O 2006   5.385   7.814   6.443 -0.0432 -0.1315  0.6140
  740MOL0     C 2007   5.518   7.792   6.438 -0.5757 -0.2611 -0.1460
  740MOL0     C 2008   5.592   7.674   6.447  1.2865 -0.1219  0.1556
  740MOL0     C 2009   5.729   7.661   6.445  0.0987  0.0074 -0.2971
  740MOL0     C 2010   5.782   7.521   6.481  0.2824 -0.0120  0.1152
  740MOL0     C 2011   5.807   7.777   6.413  0.8927  0.4604  0.1901
  740MOL0     C 2012   5.949   7.783   6.397 -0.3849 -1.0186 -0.6445
  740MOL0     O 2013   6.002   7.908   6.353 -0.8314  0.1142  0.1400
  740MOL0     C 2014   6.139   7.913   6.322 -0.0423  0.5311 -0.3009
  740MOL0     C 2015   6.182   7.901   6.189 -0.3781  0.9885 -0.3654
  740MOL0     C 2016   6.317   7.897   6.162 -0.4381 -0.1436 -0.9470
  740MOL0     C 2017   6.414   7.925   6.257 -0.1789  0.7118  0.3108
  740MOL0     O 2018   6.548   7.916   6.217  0.5533  0.2817  0.0808
  740MOL0     C 2019   6.643   7.867   6.304 -0.0464  0.0146  0.1399
  740MOL0     C 2020   6.748   7.974   6.302 -0.4643  0.4425 -0.8019
  740MOL0     C 2021   6.721   8.089   6.399 -0.9662  0.1862 -1.2201
  740MOL0     C 2022   6.834   8.187   6.421 -0.9050  0.4812  0.6157
  740MOL0     C 2023   6.800   8.292   6.524 -0.6166  0.7171 -0.2417
  740MOL0     C 2024   6.879   8.421   6.507 -0.2652 -0.2645 -0.1197
  740MOL0     C 2025   7.033   8.391   6.490 -0.2990 -0.4582 -0.1652
  740MOL0     C 2026   7.114   8.521   6.499 -0.1505 -0.4889 -0.0553
  740MOL0    Cl 2027   7.290   8.490   6.462  0.2142 -0.4738 -0.0400
  740MOL0     C 2028   6.367   7.962   6.382 -0.3155  0.9591 -0.0407
  740MOL0     C 2029   6.238   7.959   6.418 -0.2412  0.5824  0.9953
  740MOL0     O 2030   6.020   7.683   6.409  0.3317  0.4917 -0.4321
  740MOL0     C 2031   5.727   7.895   6.396  0.2602 -0.2100  0.1606
  740MOL0     C 2032   5.591   7.902   6.412  0.8999 -0.4485 -0.1050
  740MOL0     N 2033   5.045   8.081   6.724  0.0590 -0.1020 -0.1376
  740MOL0     N 2034   4.996   8.101   6.842 -0.2310 -0.0628 -0.3192
  740MOL0     C 2035   3.843   7.578   7.043 -0.6400  0.0764  0.1034
  740MOL0     C 2036   3.711   7.522   7.033 -0.8867  0.7888  0.0931
  740MOL0     C 2037   3.243   7.529   7.080 -0.0703  0.0914 -0.2277
  740MOL0     C 2038   3.246   7.391   7.032  0.7403  0.4094 -0.2835
  740MOL0     C 2039   3.125   7.332   7.003  0.2973 -0.0759  0.3779
  740MOL0     C 2040   3.003   7.402   7.001 -0.6910 -0.1328  0.1028
  740MOL0     O 2041   2.901   7.323   6.972  0.2176  0.7551  0.2464
  740MOL0     C 2042   2.777   7.360   7.031  0.3285 -0.2351 -0.0104
  740MOL0     C 2043   2.674   7.267   6.963 -0.3645  0.7443 -0.8635
  740MOL0     C 2044   2.536   7.268   7.026 -0.7197  0.0305  0.3470
  740MOL0     C 2045   2.434   7.186   6.939  0.5709 -0.3356 -0.0769
  740MOL0     C 2046   2.302   7.195   6.993  0.1111 -1.0638  0.0994
  740MOL0     C 2047   2.186   7.213   7.018 -0.0734  0.3462 -0.4078
  740MOL0     C 2048   3.004   7.541   7.035 -0.0214  0.4528  0.1892
  740MOL0     C 2049   3.122   7.603   7.092  0.3363 -0.5952  0.0202
  740MOL0     C 2050   3.119   7.747   7.139 -1.1045  0.0324 -0.4819
  740MOL0     H 2051   3.538   7.805   7.099  1.4936  0.6093  1.5338
  740MOL0     H 2052   3.742   7.888   7.143 -0.4842 -0.1991  2.8519
  740MOL0     H 2053   3.944   7.872   7.299 -2.2047  1.7672 -0.1584
  740MOL0     H 2054   3.963   7.966   7.146  1.0206 -1.9506 -3.5776
  740MOL0     H 2055   4.143   7.939   7.332 -1.8741 -0.3004  0.3034
  740MOL0     H 2056   4.188   7.783   7.258  1.8418  1.0353 -2.4554
  740MOL0     H 2057   4.213   7.915   7.040  1.2811  0.7745  0.0974
  740MOL0     H 2058   4.182   8.070   7.133  1.4373  1.2912 -0.2654
  740MOL0     H 2059   4.395   8.063   7.239  0.2833  0.4816 -0.5781
  740MOL0     H 2060   4.382   7.881   7.234 -0.3152 -0.7467 -1.8313
  740MOL0     H 2061   4.413   8.083   7.004  0.2685  1.0464  0.6524
  740MOL0     H 2062   4.427   7.915   6.982 -0.2792  0.7476 -0.3386
  740MOL0     H 2063   4.636   8.072   7.146 -0.3506  0.9715 -0.7331
  740MOL0     H 2064   4.631   7.896   7.122 -1.0679 -1.0951 -2.5875
  740MOL0     H 2065   4.670   8.119   6.919  0.9378  1.1240  3.1810
  740MOL0     H 2066   4.651   7.957   6.856  2.8851 -5.2009  2.0683
  740MOL0     H 2067   4.866   8.045   7.060  1.9476  0.5210 -1.0460
  740MOL0     H 2068   4.839   7.893   7.030 -0.6707  1.6525  2.8454
  740MOL0     H 2069   4.839   7.823   6.752  1.3424 -0.3159 -1.6302
  740MOL0     H 2070   4.909   8.000   6.466  0.6958  0.3999  0.1574
  740MOL0     H 2071   4.921   7.829   6.525  1.4109 -0.8179 -0.1341
  740MOL0     H 2072   5.072   7.857   6.369  1.3846  1.9248 -1.1640
  740MOL0     H 2073   5.154   7.995   6.446 -1.8706  0.5537 -5.2090
  740MOL0     H 2074   5.239   7.834   6.634 -2.5140 -3.3538  2.1898
  740MOL0     H 2075   5.117   7.724   6.604 -0.0588 -1.1503 -0.9304
  740MOL0     H 2076   5.337   7.642   6.532  1.7510 -0.2203 -2.2972
  740MOL0     H 2077   5.254   7.672   6.379 -0.5450  0.7905  0.0339
  740MOL0     H 2078   5.532   7.585   6.467  0.7348 -0.4993 -2.7593
  740MOL0     H 2079   5.766   7.461   6.391 -2.2282  4.3721 -2.7460
  740MOL0     H 2080   5.717   7.487   6.562 -0.4383  0.5004 -0.2325
  740MOL0     H 2081   5.882   7.514   6.526  0.2174 -1.6543  0.0408
  740MOL0     H 2082   6.112   7.869   6.112  1.0549 -2.9211 -0.2678
  740MOL0     H 2083   6.342   7.881   6.058  1.9530 -1.5593 -0.2378
  740MOL0     H 2084   6.609   7.843   6.405 -2.3740 -0.4783 -0.6894
  740MOL0     H 2085   6.681   7.774   6.259  2.3504  1.2982 -0.6456
  740MOL0     H 2086   6.846   7.933   6.332 -0.7552  0.6012  0.4506
  740MOL0     H 2087   6.748   8.019   6.203  2.1383 -0.5246 -1.3154
  740MOL0     H 2088   6.709   8.043   6.498 -2.1518 -0.6027 -1.7148
  740MOL0     H 2089   6.630   8.143   6.372 -1.5646  0.5204  1.2253
  740MOL0     H 2090   6.851   8.229   6.322 -0.4525 -2.4957 -0.6787
  740MOL0     H 2091   6.929   8.138   6.445 -1.5168 -0.2436  1.6275
  740MOL0     H 2092   6.694   8.316   6.538 -1.7390 -1.0748 -4.2713
  740MOL0     H 2093   6.819   8.243   6.620  1.9204  0.9597 -0.5465
  740MOL0     H 2094   6.860   8.464   6.605  0.6125 -1.6093  0.6748
  740MOL0     H 2095   6.834   8.487   6.432 -0.2272 -2.3323 -2.0973
  740MOL0     H 2096   7.037   8.355   6.387 -0.2612  0.3706 -0.4580
  740MOL0     H 2097   7.071   8.314   6.558 -1.5113 -0.2181  0.8396
  740MOL0     H 2098   7.096   8.552   6.602  0.2453 -1.8804  0.4669
  740MOL0     H 2099   7.082   8.599   6.429 -0.9566 -0.0591  0.7686
  740MOL0     H 2100   6.439   7.978   6.462 -1.3229 -1.2377  1.4280
  740MOL0     H 2101   6.204   7.992   6.516 -1.1037  3.4832 -0.1946
  740MOL0     H 2102   5.788   7.985   6.384  1.5766 -0.7284  2.4236
  740MOL0     H 2103   5.541   7.996   6.394  1.1803 -0.8395 -3.6624
  740MOL0     H 2104   3.937   7.531   7.016 -1.1988 -0.5281 -0.8522
  740MOL0     H 2105   3.702   7.416   7.012 -1.5217  0.5681  1.4132
  740MOL0     H 2106   3.340   7.338   7.023  1.4347  1.3957  0.8341
  740MOL0     H 2107   3.124   7.227   6.976  3.7545 -0.0650 -0.2782
  740MOL0     H 2108   2.788   7.343   7.139 -3.8939 -1.3136  0.4393
  740MOL0     H 2109   2.759   7.466   7.008  1.7716  0.1812  0.6356
  740MOL0     H 2110   2.706   7.163   6.966  1.4524  1.2645  1.8479
  740MOL0     H 2111   2.666   7.307   6.862 -1.7912 -0.0819 -1.0988
  740MOL0     H 2112   2.541   7.230   7.129  2.7415  2.1415  1.1653
  740MOL0     H 2113   2.513   7.374   7.041  0.3722  0.1863  1.1058
  740MOL0     H 2114   2.463   7.084   6.910  2.6029  0.0880  0.2667
  740MOL0     H 2115   2.424   7.235   6.843  0.4504 -3.1593 -1.6212
  740MOL0     H 2116   2.081   7.218   7.037 -0.0416  0.6438 -0.3126
  740MOL0     H 2117   2.914   7.597   7.012 -0.8320 -1.4205 -1.5513
  740MOL0     H 2118   3.201   7.796   7.086 -1.4994 -0.9574 -2.0739
  740MOL0     H 2119   3.030   7.803   7.108 -0.5153  0.0488 -2.2026
  740MOL0     H 2120   3.120   7.762   7.248  2.3590  2.3151 -0.6440
  741MOL0     O 2121   8.482   7.150   7.188  0.9444  0.3090 -0.5496
  741MOL0     C 2122   8.439   7.153   7.074 -0.1812 -0.0676  0.5744
  741MOL0     O 2123   8.512   7.170   6.964  0.3191 -0.0781  0.2195
  741MOL0     C 2124   8.637   7.110   6.943  0.5196 -0.4479 -0.8992
  741MOL0     C 2125   8.745   7.190   6.905 -0.2632 -0.8696  0.3675
  741MOL0     C 2126   8.872   7.135   6.920 -0.0063  0.3576  0.7944
  741MOL0     C 2127   8.896   6.997   6.940  0.1172 -0.5121  0.1339
  741MOL0     O 2128   9.019   6.950   6.968 -0.4031 -0.1103  0.0306
  741MOL0     C 2129   9.124   6.999   6.877  0.1071 -0.0996 -0.2413
  741MOL0     C 2130   9.241   6.901   6.883 -0.3213 -0.7086 -0.8599
  741MOL0     C 2131   9.364   6.954   6.806 -0.5989  0.6484  0.1474
  741MOL0     C 2132   9.455   6.827   6.789 -0.2057 -0.7897  0.7511
  741MOL0     C 2133   9.590   6.867   6.723 -0.0255  0.6512  0.7051
  741MOL0     C 2134   9.683   6.753   6.653  0.3900 -1.0411 -0.6664
  741MOL0     C 2135   9.750   6.674   6.769 -0.4177  0.5385  0.2608
  741MOL0     C 2136   9.819   6.556   6.703 -0.6462  0.1833  0.5182
  741MOL0     N 2137   9.930   6.612   6.621 -0.0406  0.7267 -1.2178
  741MOL0     C 2138  10.047   6.663   6.673 -0.4298 -0.7384  0.0127
  741MOL0     C 2139  10.108   6.710   6.571 -0.1489  0.5396  0.0831
  741MOL0     C 2140  10.223   6.805   6.582 -0.0151 -0.0788 -0.7083
  741MOL0     C 2141  10.354   6.755   6.518  0.5510  0.5868 -0.3251
  741MOL0     C 2142  10.476   6.816   6.579 -0.6836 -0.8377  0.3782
  741MOL0     C 2143  10.610   6.773   6.502 -0.1481 -0.2166  0.8069
  741MOL0     O 2144  10.629   6.852   6.391 -0.0292  0.4335  0.4713
  741MOL0     C 2145  10.740   6.849   6.305 -0.1010  0.9860 -1.1579
  741MOL0     C 2146  10.844   6.753   6.317  0.1377  0.0465  0.1923
  741MOL0     C 2147  10.937   6.751   6.211 -0.1758  0.1840 -0.7471
  741MOL0     C 2148  11.026   6.631   6.203 -0.4000  0.5151  0.6374
  741MOL0     C 2149  10.950   6.853   6.115 -1.1714  0.0446  0.2323
  741MOL0     C 2150  11.063   6.856   6.014 -0.7963 -0.3444  1.1390
  741MOL0     O 2151  11.101   6.983   5.985 -0.0040  0.2224 -0.4865
  741MOL0     C 2152  11.208   7.010   5.900  0.6937 -0.6096  1.0951
  741MOL0     C 2153  11.317   6.928   5.863 -0.3029 -0.1103  0.8979
  741MOL0     C 2154  11.415   6.969   5.771  0.5426 -0.4187  0.6610
  741MOL0     C 2155  11.404   7.091   5.705 -0.0817 -0.2000  0.6404
  741MOL0     O 2156  11.494   7.142   5.615  1.3005  0.8274  0.3653
  741MOL0     C 2157  11.631   7.106   5.622  0.5638 -0.6789 -1.0033
  741MOL0     C 2158  11.694   7.154   5.755 -0.2427 -0.1863  0.3810
  741MOL0     C 2159  11.700   7.305   5.751 -0.0087  0.3195  0.8119
  741MOL0     C 2160  11.732   7.361   5.886  0.3103 -0.2823 -0.2617
  741MOL0     C 2161  11.822   7.483   5.870  0.9237 -0.0317 -0.1845
  741MOL0     C 2162  11.819   7.570   5.991  0.5120  0.2898  0.6116
  741MOL0     C 2163  11.704   7.677   5.988 -0.3860 -0.1501 -0.1955
  741MOL0     C 2164  11.717   7.776   6.106 -0.4494 -0.2993 -0.0486
  741MOL0    Cl 2165  11.643   7.720   6.266 -0.0613 -0.2585 -0.3937
  741MOL0     C 2166  11.291   7.162   5.737 -0.5513  0.1203 -0.4072
  741MOL0     C 2167  11.190   7.131   5.829  0.1151  0.3063  0.6616
  741MOL0     O 2168  11.105   6.752   5.954  0.5334  0.2293 -0.6430
  741MOL0     C 2169  10.861   6.959   6.123  0.2277 -0.5033  0.1461
  741MOL0     C 2170  10.759   6.952   6.216 -0.9901 -0.1534  0.0210
  741MOL0     N 2171  10.059   6.644   6.461  0.8815 -0.4795 -0.4689
  741MOL0     N 2172   9.945   6.584   6.491 -0.0642  0.0878 -0.1468
  741MOL0     C 2173   8.786   6.919   6.970 -0.6555  0.6614 -0.2765
  741MOL0     C 2174   8.652   6.970   6.959  0.7115  0.0878  0.5338
  741MOL0     C 2175   8.291   7.130   7.050 -0.8719 -0.5482  0.3909
  741MOL0     C 2176   8.257   7.022   6.972 -0.6050  0.3601  0.5214
  741MOL0     C 2177   8.128   6.983   6.945 -0.5231 -0.6296  0.7200
  741MOL0     C 2178   8.022   7.065   6.993  1.0223  0.0247  0.3601
  741MOL0     O 2179   7.889   7.050   6.975  0.3595  1.2391 -0.1029
  741MOL0     C 2180   7.849   6.924   6.917  0.3348  0.2493  0.1787
  741MOL0     C 2181   7.701   6.906   6.952 -0.4067 -0.2856  0.3291
  741MOL0     C 2182   7.598   6.979   6.864  0.7704 -0.7362  0.1216
  741MOL0     C 2183   7.603   6.943   6.712 -0.0370  0.3595 -0.2418
  741MOL0     C 2184   7.537   6.821   6.679  0.5570  0.7933  0.2532
  741MOL0     C 2185   7.479   6.723   6.647 -0.2748  0.8404  0.3832
  741MOL0     C 2186   8.053   7.166   7.081  0.0048  0.4903  0.1906
  741MOL0     C 2187   8.186   7.200   7.112  0.1472  0.2203  0.4531
  741MOL0     C 2188   8.211   7.312   7.220  0.0020  0.1196  0.5879
  741MOL0     H 2189   8.737   7.296   6.884  1.2239 -0.8240 -0.1095
  741MOL0     H 2190   8.956   7.194   6.886 -0.7076  1.5147  1.0104
  741MOL0     H 2191   9.163   7.095   6.911  1.2664 -1.0623  1.3098
  741MOL0     H 2192   9.077   7.016   6.779 -2.4626  0.6549  1.0441
  741MOL0     H 2193   9.281   6.887   6.984  3.6728 -1.3578 -2.3184
  741MOL0     H 2194   9.199   6.808   6.843 -2.7367  0.2371 -0.6762
  741MOL0     H 2195   9.342   6.998   6.708  0.9118  0.7355 -0.1746
  741MOL0     H 2196   9.425   7.020   6.869  0.4131 -2.8986  3.2027
  741MOL0     H 2197   9.474   6.769   6.880  0.3641 -1.0835  0.4487
  741MOL0     H 2198   9.394   6.755   6.734  0.2658 -0.7626  0.1871
  741MOL0     H 2199   9.646   6.911   6.806  2.4110  1.4455 -1.2530
  741MOL0     H 2200   9.571   6.939   6.642 -0.2438  0.0434  0.2035
  741MOL0     H 2201   9.621   6.692   6.587 -1.4152  1.1022 -1.0765
  741MOL0     H 2202   9.756   6.812   6.597 -1.0538  1.4471 -0.0703
  741MOL0     H 2203   9.684   6.637   6.848  0.8478 -1.8760  0.2669
  741MOL0     H 2204   9.813   6.746   6.822 -0.5460  1.7149 -1.1298
  741MOL0     H 2205   9.857   6.479   6.771 -0.9744  0.7215  1.3203
  741MOL0     H 2206   9.744   6.510   6.637 -3.0661  1.7131  2.0581
  741MOL0     H 2207  10.069   6.679   6.778  0.6822 -4.4610  0.4965
  741MOL0     H 2208  10.244   6.827   6.687 -2.4744 -0.4816 -0.0533
  741MOL0     H 2209  10.199   6.903   6.542  0.2475 -0.0142 -0.7084
  741MOL0     H 2210  10.345   6.650   6.547 -5.7152  0.2342 -2.0863
  741MOL0     H 2211  10.351   6.767   6.409  0.1759  1.9817 -0.1770
  741MOL0     H 2212  10.464   6.925   6.582 -1.3241 -0.9195  1.1309
  741MOL0     H 2213  10.503   6.788   6.682  0.8042 -1.6898 -0.2063
  741MOL0     H 2214  10.695   6.778   6.570  0.2798  1.1758  0.1940
  741MOL0     H 2215  10.604   6.670   6.465 -1.5031 -0.5812  1.9724
  741MOL0     H 2216  10.842   6.686   6.402 -0.7801  2.8552  2.5949
  741MOL0     H 2217  10.999   6.570   6.117  2.0216  3.5637 -2.6055
  741MOL0     H 2218  11.029   6.578   6.299 -2.9124  0.8641  0.9749
  741MOL0     H 2219  11.130   6.661   6.187 -0.4173  0.6888  0.8389
  741MOL0     H 2220  11.328   6.828   5.903  0.0514 -0.1317  0.7485
  741MOL0     H 2221  11.484   6.891   5.742 -1.2305 -1.6593 -0.3959
  741MOL0     H 2222  11.638   6.997   5.627 -1.0863 -0.7876 -0.0488
  741MOL0     H 2223  11.679   7.141   5.530 -0.5837  1.3636 -0.9087
  741MOL0     H 2224  11.636   7.117   5.840  3.1089  0.8277  3.3330
  741MOL0     H 2225  11.795   7.115   5.773  1.6514  4.6683  2.0087
  741MOL0     H 2226  11.603   7.344   5.718  1.2590  0.1329 -3.9991
  741MOL0     H 2227  11.755   7.338   5.662  0.7147 -3.0279 -0.1155
  741MOL0     H 2228  11.780   7.283   5.945  1.9220  0.3267 -0.7252
  741MOL0     H 2229  11.640   7.384   5.940  0.4175 -1.5042  0.4725
  741MOL0     H 2230  11.925   7.447   5.861  0.8932 -1.1349  2.7464
  741MOL0     H 2231  11.784   7.535   5.781 -0.7211 -1.0334 -0.1059
  741MOL0     H 2232  11.910   7.630   5.997  1.5506 -1.2577  0.9152
  741MOL0     H 2233  11.813   7.506   6.080 -0.3566  0.3642  0.6220
  741MOL0     H 2234  11.601   7.641   5.995 -0.7112  1.0468  2.0675
  741MOL0     H 2235  11.701   7.724   5.890 -0.0995  0.1388 -0.0664
  741MOL0     H 2236  11.672   7.873   6.082 -0.2746  0.0315  0.9300
  741MOL0     H 2237  11.821   7.798   6.132 -1.2276  1.7960  1.5837
  741MOL0     H 2238  11.283   7.255   5.681  1.4811  0.4163 -0.3100
  741MOL0     H 2239  11.119   7.212   5.843  0.6518  1.6026 -2.9401
  741MOL0     H 2240  10.867   7.043   6.054  2.8923  0.7574  1.7377
  741MOL0     H 2241  10.680   7.026   6.226  0.2647  1.3213 -0.5458
  741MOL0     H 2242   8.804   6.813   6.982 -2.0698  0.5725  1.4190
  741MOL0     H 2243   8.565   6.913   6.988 -0.6146  2.5101  1.6328
  741MOL0     H 2244   8.336   6.966   6.923  0.8516  1.0154  2.0594
  741MOL0     H 2245   8.109   6.893   6.886  1.1064  1.0315 -2.6188
  741MOL0     H 2246   7.876   6.930   6.811  2.6968  2.4584  0.7991
  741MOL0     H 2247   7.908   6.840   6.956  1.6960  0.7967 -0.6311
  741MOL0     H 2248   7.698   6.938   7.057  0.0704  0.0463  0.2442
  741MOL0     H 2249   7.679   6.799   6.947 -1.5331 -0.0563  0.1141
  741MOL0     H 2250   7.495   6.971   6.902  0.0265  4.0773 -0.2091
  741MOL0     H 2251   7.622   7.086   6.871 -1.9004 -0.1427  2.1288
  741MOL0     H 2252   7.709   6.937   6.687 -0.2849 -2.3025 -0.8543
  741MOL0     H 2253   7.551   7.023   6.657  1.2928  1.5529  0.1746
  741MOL0     H 2254   7.436   6.632   6.610 -0.9149  1.1754  0.2771
  741MOL0     H 2255   7.969   7.213   7.131 -0.2495  1.2054 -0.8703
  741MOL0     H 2256   8.254   7.393   7.160 -0.5417  1.4378  1.9314
  741MOL0     H 2257   8.114   7.345   7.256 -2.5881 -2.3626 -3.3016
  741MOL0     H 2258   8.275   7.287   7.305  0.5358 -0.8894 -0.0845
  742MOL0     O 2259   5.919   1.420   8.877  0.0993 -0.3968 -0.1545
  742MOL0     C 2260   5.828   1.338   8.895 -0.4396  0.6340  0.4983
  742MOL0     O 2261   5.842   1.205   8.864  0.0032 -0.6301 -0.1425
  742MOL0     C 2262   5.961   1.146   8.841  0.0524  0.0599  0.2824
  742MOL0     C 2263   6.089   1.175   8.891  0.3295  0.6108  0.2572
  742MOL0     C 2264   6.197   1.090   8.862  0.0526  0.1894 -0.2217
  742MOL0     C 2265   6.178   0.989   8.770  0.1208 -0.2783 -0.5776
  742MOL0     O 2266   6.279   0.911   8.714 -0.0855  0.0249 -1.0374
  742MOL0     C 2267   6.416   0.931   8.761 -0.3823  0.2698 -0.3854
  742MOL0     C 2268   6.490   1.051   8.691  0.3726 -0.3745 -0.0052
  742MOL0     C 2269   6.642   1.047   8.731 -0.1981  0.8012 -0.1835
  742MOL0     C 2270   6.734   1.110   8.621 -0.1549  0.5114  0.1279
  742MOL0     C 2271   6.891   1.122   8.660  0.8909 -0.1501 -0.4770
  742MOL0     C 2272   6.980   1.125   8.529 -0.1017  0.2690 -0.1145
  742MOL0     C 2273   7.134   1.139   8.549  0.2538 -0.0908  1.0086
  742MOL0     C 2274   7.186   1.017   8.624 -0.7490  0.1139  0.1638
  742MOL0     N 2275   7.326   1.050   8.650  0.4659  0.7686 -0.4316
  742MOL0     C 2276   7.413   1.132   8.578  0.2184 -0.0101 -0.4766
  742MOL0     C 2277   7.536   1.108   8.631 -0.1680  0.1498  0.5577
  742MOL0     C 2278   7.671   1.169   8.591 -0.3703  0.1510  0.3457
  742MOL0     C 2279   7.797   1.138   8.676  0.5494 -0.8566 -0.1259
  742MOL0     C 2280   7.930   1.204   8.633 -0.1771  0.5252 -0.4987
  742MOL0     C 2281   7.989   1.153   8.496 -0.3625  0.1624  0.2625
  742MOL0     O 2282   8.046   1.016   8.503 -1.1397 -0.4976 -0.2775
  742MOL0     C 2283   8.169   0.987   8.552 -0.4479 -0.0202  0.0103
  742MOL0     C 2284   8.206   0.856   8.540 -0.2286 -0.7306  1.0136
  742MOL0     C 2285   8.344   0.824   8.568  0.6870  0.9221  0.0271
  742MOL0     C 2286   8.384   0.681   8.537  0.2661 -0.4645  0.9441
  742MOL0     C 2287   8.440   0.923   8.602  0.3969 -0.0096 -0.4465
  742MOL0     C 2288   8.587   0.889   8.625  2.3168 -0.7831 -0.0981
  742MOL0     O 2289   8.666   0.999   8.599  0.4073 -0.3317 -0.4940
  742MOL0     C 2290   8.799   0.993   8.617  0.2912 -0.5974 -1.0116
  742MOL0     C 2291   8.888   0.906   8.543  0.9907 -0.3146 -0.1116
  742MOL0     C 2292   9.022   0.901   8.568  0.0613 -0.0963  0.3466
  742MOL0     C 2293   9.077   0.990   8.669  0.0881 -0.3133 -0.7745
  742MOL0     O 2294   9.214   0.999   8.684  0.1895  0.5014 -0.8344
  742MOL0     C 2295   9.269   1.022   8.817  0.7203  0.0060 -0.1143
  742MOL0     C 2296   9.399   1.094   8.798  0.5805  0.3309  0.1598
  742MOL0     C 2297   9.489   1.018   8.710  0.1018  0.0603  0.1529
  742MOL0     C 2298   9.614   1.098   8.671  0.3311 -0.4666  0.1989
  742MOL0     C 2299   9.711   1.011   8.599 -0.6828  0.3746 -0.7642
  742MOL0     C 2300   9.801   0.925   8.699  0.4532 -0.0835 -0.4240
  742MOL0     C 2301   9.921   0.874   8.626 -0.1369  1.1477 -0.4908
  742MOL0     C 2302  10.023   0.832   8.726 -0.4845  0.3301 -0.5170
  742MOL0    Cl 2303   9.986   0.665   8.790 -0.0350 -0.3037  0.7247
  742MOL0     C 2304   8.984   1.074   8.744  0.3405 -0.0142  0.3692
  742MOL0     C 2305   8.843   1.068   8.721 -0.0536  0.1784 -0.3504
  742MOL0     O 2306   8.631   0.781   8.664 -0.3526 -0.0303  0.3384
  742MOL0     C 2307   8.393   1.050   8.625  0.2607  0.5615 -0.1356
  742MOL0     C 2308   8.266   1.081   8.589 -0.4008 -0.1888  0.2292
  742MOL0     N 2309   7.519   1.014   8.734 -0.4611  0.3301 -0.1810
  742MOL0     N 2310   7.402   0.977   8.738 -0.3309 -0.5149 -0.2962
  742MOL0     C 2311   6.054   0.950   8.722  0.2704 -0.4951 -0.3108
  742MOL0     C 2312   5.945   1.037   8.752 -0.3988  0.5211  0.0883
  742MOL0     C 2313   5.700   1.382   8.969 -0.7936 -0.1517 -0.3572
  742MOL0     C 2314   5.590   1.294   8.964  0.0614 -0.2219  0.6472
  742MOL0     C 2315   5.468   1.315   9.023  0.7504 -0.3628  0.7240
  742MOL0     C 2316   5.443   1.434   9.089 -0.1963  0.0794  0.1683
  742MOL0     O 2317   5.325   1.453   9.161 -0.3902 -0.4181 -0.1308
  742MOL0     C 2318   5.271   1.341   9.246  0.3132  0.0427  0.6227
  742MOL0     C 2319   5.172   1.386   9.350  0.6593 -0.2617 -0.5275
  742MOL0     C 2320   5.245   1.434   9.482  0.3042 -0.2109  0.4681
  742MOL0     C 2321   5.149   1.465   9.591  1.0236  0.3280  0.5899
  742MOL0     C 2322   5.053   1.353   9.609  0.2393 -0.4418  0.0872
  742MOL0     C 2323   4.994   1.254   9.644 -0.0869  0.5757  0.2312
  742MOL0     C 2324   5.542   1.532   9.086  0.2489 -0.5913  1.2618
  742MOL0     C 2325   5.671   1.511   9.029  0.0244  0.0084  0.4946
  742MOL0     C 2326   5.786   1.615   9.049  0.1762 -0.3481 -0.1225
  742MOL0     H 2327   6.108   1.253   8.963 -0.1680  0.3914  0.6318
  742MOL0     H 2328   6.296   1.123   8.894 -0.9608  0.1113  3.4409
  742MOL0     H 2329   6.469   0.836   8.745 -2.2136 -0.7131 -0.9043
  742MOL0     H 2330   6.426   0.954   8.867 -1.2406  0.4198 -0.3292
  742MOL0     H 2331   6.498   1.031   8.584  1.4592 -0.7773  0.1334
  742MOL0     H 2332   6.445   1.148   8.710  0.6903 -0.5039  1.5603
  742MOL0     H 2333   6.657   1.093   8.829 -1.9224  0.1765  0.4099
  742MOL0     H 2334   6.674   0.942   8.730 -1.1977  0.4648 -2.3476
  742MOL0     H 2335   6.726   1.045   8.534  0.8840  0.5420 -0.0006
  742MOL0     H 2336   6.687   1.204   8.588 -0.0974 -0.0761 -1.7210
  742MOL0     H 2337   6.909   1.034   8.722 -1.0998 -1.7756 -2.0436
  742MOL0     H 2338   6.901   1.209   8.725  0.5230  1.1506 -2.0736
  742MOL0     H 2339   6.971   1.037   8.465  3.7204  1.1711 -2.2113
  742MOL0     H 2340   6.956   1.210   8.464  0.0760 -1.1061 -2.0322
  742MOL0     H 2341   7.164   1.235   8.591 -1.1811  1.3294 -1.0705
  742MOL0     H 2342   7.183   1.132   8.452 -1.6077  1.5402 -0.0960
  742MOL0     H 2343   7.138   1.008   8.723  0.2920 -0.0988  0.6657
  742MOL0     H 2344   7.169   0.924   8.569 -0.5957 -0.5175  1.1436
  742MOL0     H 2345   7.389   1.199   8.496 -3.3060 -1.9204 -1.1868
  742MOL0     H 2346   7.667   1.278   8.582  2.2234  0.3158  0.4422
  742MOL0     H 2347   7.685   1.126   8.491 -0.7394  3.1796 -1.1105
  742MOL0     H 2348   7.781   1.176   8.778  0.2516  2.7431 -1.3971
  742MOL0     H 2349   7.820   1.031   8.683 -2.1620 -1.6600 -2.0392
  742MOL0     H 2350   7.910   1.311   8.631  0.3319  0.6329  0.0372
  742MOL0     H 2351   8.003   1.180   8.711 -0.5001  1.1689  0.0152
  742MOL0     H 2352   7.916   1.164   8.415  0.5499  2.7169 -0.3330
  742MOL0     H 2353   8.061   1.228   8.462 -0.9516 -0.1018 -1.6665
  742MOL0     H 2354   8.141   0.782   8.494 -1.0876 -0.1384  1.2550
  742MOL0     H 2355   8.302   0.612   8.514  0.4298 -0.3013 -0.1908
  742MOL0     H 2356   8.449   0.632   8.609 -0.9908 -2.3153  0.8814
  742MOL0     H 2357   8.451   0.680   8.450  3.3142  3.2734  2.9571
  742MOL0     H 2358   8.847   0.851   8.459 -0.5110 -1.8991  1.5902
  742MOL0     H 2359   9.083   0.832   8.511 -2.3190 -1.1943 -1.0084
  742MOL0     H 2360   9.204   1.074   8.889 -1.4209 -2.0469 -0.3976
  742MOL0     H 2361   9.301   0.926   8.859  1.5999 -0.7912 -2.4912
  742MOL0     H 2362   9.382   1.194   8.757  1.8493  1.0501  1.3254
  742MOL0     H 2363   9.443   1.117   8.896  0.0283  2.4754 -0.0526
  742MOL0     H 2364   9.445   0.986   8.615 -0.9322 -0.3315  0.7498
  742MOL0     H 2365   9.515   0.931   8.770  0.3559  0.5927  0.8331
  742MOL0     H 2366   9.656   1.151   8.757 -0.6406 -0.2388  0.5503
  742MOL0     H 2367   9.595   1.172   8.593  1.5621  0.0753  0.3948
  742MOL0     H 2368   9.669   0.945   8.523  1.0104 -0.3806 -1.0802
  742MOL0     H 2369   9.779   1.086   8.558  0.1735  1.9466  3.0959
  742MOL0     H 2370   9.741   0.844   8.742 -1.9493  0.6595 -2.1814
  742MOL0     H 2371   9.830   0.993   8.780 -1.7964  0.8315 -0.3379
  742MOL0     H 2372   9.964   0.955   8.566  1.6289  2.8783  2.7604
  742MOL0     H 2373   9.882   0.795   8.562  0.9736  1.9570 -2.2320
  742MOL0     H 2374  10.025   0.903   8.809 -1.2831 -2.7113  2.3194
  742MOL0     H 2375  10.127   0.821   8.691 -0.3848 -2.4862  0.4050
  742MOL0     H 2376   9.016   1.138   8.825 -2.4036  1.8257  0.1525
  742MOL0     H 2377   8.782   1.126   8.790  3.5119  1.3704  2.0938
  742MOL0     H 2378   8.467   1.123   8.657 -1.4379  1.5927  1.6499
  742MOL0     H 2379   8.231   1.183   8.598 -2.4446 -1.0054  2.2604
  742MOL0     H 2380   6.032   0.863   8.660  1.4889 -2.2427  1.5590
  742MOL0     H 2381   5.849   1.010   8.709 -0.9388  0.2654  1.4000
  742MOL0     H 2382   5.601   1.199   8.913  0.3456  0.0139  0.2597
  742MOL0     H 2383   5.390   1.240   9.018 -1.3514  1.7590 -0.7047
  742MOL0     H 2384   5.216   1.281   9.173 -0.0626 -1.9777  2.4571
  742MOL0     H 2385   5.350   1.278   9.289  2.4456  1.7330 -0.5885
  742MOL0     H 2386   5.100   1.305   9.364  0.2865 -0.4437 -2.9877
  742MOL0     H 2387   5.119   1.473   9.309 -2.2734 -1.9515 -0.6006
  742MOL0     H 2388   5.315   1.359   9.519  3.0859  1.3205 -1.3103
  742MOL0     H 2389   5.318   1.513   9.463  2.2179 -1.1795  3.1862
  742MOL0     H 2390   5.098   1.556   9.559 -2.6815 -1.9375 -0.5319
  742MOL0     H 2391   5.198   1.480   9.688  2.7756 -1.0725 -0.0213
  742MOL0     H 2392   4.935   1.172   9.679  0.7624 -1.1670 -2.1177
  742MOL0     H 2393   5.530   1.633   9.123 -3.0972 -0.3215 -0.2063
  742MOL0     H 2394   5.877   1.568   9.089 -0.0966  0.1297  1.1283
  742MOL0     H 2395   5.812   1.667   8.957  1.7259 -0.6134  0.1397
  742MOL0     H 2396   5.762   1.686   9.129 -0.4480 -0.5022 -0.1683
  743MOL0     O 2397   0.191   4.771   5.761 -0.7352  0.5251 -0.1631
  743MOL0     C 2398   0.148   4.708   5.669  1.1349 -0.1355  0.5048
  743MOL0     O 2399   0.221   4.633   5.582  0.4260  0.5997  0.2061
  743MOL0     C 2400   0.358   4.612   5.586 -0.7238  0.3245 -0.7340
  743MOL0     C 2401   0.433   4.612   5.713  0.3184 -0.7101 -0.4811
  743MOL0     C 2402   0.576   4.602   5.708  0.7896 -0.2078  0.1570
  743MOL0     C 2403   0.648   4.576   5.594  0.1279  0.0232 -0.0540
  743MOL0     O 2404   0.780   4.552   5.595 -0.0807 -0.1052  0.2531
  743MOL0     C 2405   0.852   4.519   5.719 -1.5259 -0.9082  0.0557
  743MOL0     C 2406   1.013   4.533   5.685  0.3394  0.6549  0.4037
  743MOL0     C 2407   1.084   4.458   5.809  0.0474  0.2621  0.2807
  743MOL0     C 2408   1.227   4.498   5.849  0.3595 -0.4410 -1.2105
  743MOL0     C 2409   1.324   4.468   5.735 -0.1403 -1.0207 -0.5680
  743MOL0     C 2410   1.337   4.320   5.712 -0.1500 -0.6001  0.8167
  743MOL0     C 2411   1.403   4.289   5.572  0.0566  0.7878 -0.1318
  743MOL0     C 2412   1.442   4.139   5.578 -0.7624 -0.1895 -0.0453
  743MOL0     N 2413   1.560   4.108   5.669  0.3190 -0.2524  0.5742
  743MOL0     C 2414   1.688   4.154   5.657 -0.8966 -0.1444 -0.2124
  743MOL0     C 2415   1.769   4.081   5.747  0.5963  0.6297  0.3170
  743MOL0     C 2416   1.914   4.109   5.774 -0.3701  0.2021  0.1595
  743MOL0     C 2417   1.999   4.038   5.669 -0.0123 -0.1250 -0.1512
  743MOL0     C 2418   2.151   4.030   5.703  1.8413 -0.5697  0.8228
  743MOL0     C 2419   2.239   3.974   5.595 -0.2871 -0.7187 -0.2917
  743MOL0     O 2420   2.318   3.857   5.626  0.5027  0.0313  0.2878
  743MOL0     C 2421   2.447   3.848   5.597  0.0084  0.3665  0.0400
  743MOL0     C 2422   2.513   3.918   5.504 -0.6166  0.0285  0.0428
  743MOL0     C 2423   2.648   3.893   5.475 -0.5741 -0.8261  0.4456
  743MOL0     C 2424   2.713   3.982   5.367  0.2333  0.2332  0.3919
  743MOL0     C 2425   2.728   3.791   5.545  0.4455  0.3860  0.3381
  743MOL0     C 2426   2.874   3.767   5.523  0.3061  0.2560 -0.4227
  743MOL0     O 2427   2.934   3.672   5.600  0.2511  0.6162  0.5157
  743MOL0     C 2428   3.073   3.673   5.616 -0.0544 -0.2699  0.6213
  743MOL0     C 2429   3.142   3.585   5.545 -0.0249  0.9790  0.5204
  743MOL0     C 2430   3.279   3.572   5.558  0.2750  0.6193  0.3331
  743MOL0     C 2431   3.354   3.642   5.652 -0.1214  0.6364 -0.5307
  743MOL0     O 2432   3.491   3.614   5.657 -0.4522  0.5312  0.2368
  743MOL0     C 2433   3.567   3.727   5.713 -0.3827 -0.8202  0.1388
  743MOL0     C 2434   3.719   3.706   5.687  0.7210 -0.5166  0.1053
  743MOL0     C 2435   3.737   3.626   5.560  0.3733 -0.2048 -0.2715
  743MOL0     C 2436   3.857   3.682   5.487 -0.5323 -0.1482 -0.1585
  743MOL0     C 2437   3.894   3.614   5.360 -0.2507 -0.5625 -0.5633
  743MOL0     C 2438   4.010   3.694   5.289  0.4285 -0.0685  0.5131
  743MOL0     C 2439   4.068   3.599   5.182 -0.4294 -0.1234 -0.9735
  743MOL0     C 2440   4.221   3.616   5.155 -0.2903  0.3687  0.4915
  743MOL0    Cl 2441   4.312   3.546   5.294 -0.3161 -0.2307  0.2750
  743MOL0     C 2442   3.279   3.732   5.727 -0.3391 -0.4416  0.3979
  743MOL0     C 2443   3.140   3.749   5.714  0.1882 -0.0831 -1.2334
  743MOL0     O 2444   2.937   3.840   5.448 -0.3227 -0.7964  0.0198
  743MOL0     C 2445   2.654   3.721   5.639 -0.0839 -0.6346 -0.3719
  743MOL0     C 2446   2.522   3.737   5.659  0.8779 -0.3737  0.0139
  743MOL0     N 2447   1.685   3.993   5.808 -0.7494  0.0750 -0.4931
  743MOL0     N 2448   1.571   4.005   5.758  0.6761  0.6917  0.6014
  743MOL0     C 2449   0.579   4.566   5.476  0.3619  0.7550  1.0516
  743MOL0     C 2450   0.440   4.581   5.472  1.0995 -0.3387 -0.4052
  743MOL0     C 2451  -0.002   4.721   5.642  0.8048 -0.3352  0.4788
  743MOL0     C 2452  -0.077   4.767   5.755  0.5198  0.1736  0.1753
  743MOL0     C 2453  -0.211   4.789   5.742  0.4415  0.0186 -0.1307
  743MOL0     C 2454  -0.275   4.767   5.625  0.0165  0.2727  0.2552
  743MOL0     O 2455  -0.405   4.798   5.601  0.9430 -0.0831 -0.2005
  743MOL0     C 2456  -0.502   4.815   5.702  1.5762  0.8548 -0.6316
  743MOL0     C 2457  -0.529   4.962   5.735  0.3588 -0.5412  0.6824
  743MOL0     C 2458  -0.636   5.030   5.643 -0.1383  0.2927 -0.9409
  743MOL0     C 2459  -0.601   5.015   5.496 -0.4324  0.6902 -0.1599
  743MOL0     C 2460  -0.714   5.064   5.416  0.6571 -0.0519  0.4215
  743MOL0     C 2461  -0.802   5.114   5.349 -0.6249  0.2734 -0.2808
  743MOL0     C 2462  -0.209   4.726   5.513 -0.2940  0.6957  0.4126
  743MOL0     C 2463  -0.071   4.693   5.519  0.7141 -0.9373 -0.5764
  743MOL0     C 2464  -0.015   4.650   5.387 -0.4472 -0.2041  1.2980
  743MOL0     H 2465   0.388   4.622   5.811  1.1541 -1.2422 -0.0348
  743MOL0     H 2466   0.630   4.611   5.802  1.4778  0.1887 -0.2735
  743MOL0     H 2467   0.834   4.414   5.743 -1.2185 -1.8765 -3.3914
  743MOL0     H 2468   0.831   4.583   5.805  1.2562  0.8012 -0.4201
  743MOL0     H 2469   1.041   4.485   5.590  1.2885 -0.0599  1.0245
  743MOL0     H 2470   1.045   4.638   5.678  1.5888  0.1864 -2.4035
  743MOL0     H 2471   1.026   4.485   5.898 -0.2310 -0.3380  0.2822
  743MOL0     H 2472   1.073   4.351   5.793 -2.6072  0.6915 -1.4372
  743MOL0     H 2473   1.218   4.606   5.864 -0.5198 -0.7057  0.2828
  743MOL0     H 2474   1.275   4.448   5.934 -2.2079 -2.4912 -0.8571
  743MOL0     H 2475   1.421   4.512   5.758 -1.0573  1.0090 -0.3958
  743MOL0     H 2476   1.284   4.513   5.643  0.1179 -1.5982 -0.9673
  743MOL0     H 2477   1.401   4.286   5.794  0.4303 -1.5733 -0.0142
  743MOL0     H 2478   1.244   4.263   5.720 -1.6284  1.5518  0.0437
  743MOL0     H 2479   1.484   4.362   5.561 -1.3171  2.5914  1.1192
  743MOL0     H 2480   1.330   4.295   5.491 -1.1657  3.7695  1.0687
  743MOL0     H 2481   1.348   4.088   5.600 -1.4508  0.6087 -1.0513
  743MOL0     H 2482   1.473   4.111   5.477  1.0965 -0.8923  0.6533
  743MOL0     H 2483   1.721   4.230   5.588  0.9729 -1.6984 -1.1110
  743MOL0     H 2484   1.937   4.087   5.879 -0.2505 -0.2489  0.0372
  743MOL0     H 2485   1.929   4.217   5.759  0.5274  0.4985  2.7320
  743MOL0     H 2486   1.954   3.941   5.649 -2.4072  1.0346 -0.7023
  743MOL0     H 2487   1.981   4.087   5.574 -0.5984 -0.7948 -0.3930
  743MOL0     H 2488   2.188   4.132   5.719  1.0938  0.1225 -1.4686
  743MOL0     H 2489   2.160   3.972   5.796  0.1131 -2.7476 -0.3019
  743MOL0     H 2490   2.174   3.951   5.510 -0.1509  0.6717 -0.8021
  743MOL0     H 2491   2.307   4.054   5.565  0.7323 -1.5261 -0.2178
  743MOL0     H 2492   2.464   3.988   5.438 -0.1004 -0.8422 -1.2984
  743MOL0     H 2493   2.645   4.053   5.320 -0.0023 -0.5462 -0.4663
  743MOL0     H 2494   2.753   3.920   5.286  1.5417 -0.7131  1.7033
  743MOL0     H 2495   2.800   4.033   5.409  0.4982 -0.8316  1.1959
  743MOL0     H 2496   3.095   3.516   5.476  0.0253  1.7833 -0.3386
  743MOL0     H 2497   3.325   3.497   5.494 -2.5758 -1.9756  1.1063
  743MOL0     H 2498   3.541   3.818   5.658  0.0627 -0.8827 -0.1840
  743MOL0     H 2499   3.542   3.743   5.818  0.8002 -1.0763  0.4714
  743MOL0     H 2500   3.772   3.801   5.683 -0.6719  0.2841 -0.1360
  743MOL0     H 2501   3.750   3.637   5.766 -1.2523  0.6966  2.0383
  743MOL0     H 2502   3.651   3.633   5.493  2.0695 -3.0876 -3.0713
  743MOL0     H 2503   3.741   3.518   5.577  2.5978 -0.2713 -0.8900
  743MOL0     H 2504   3.940   3.678   5.558 -0.7585 -1.6115  0.0419
  743MOL0     H 2505   3.835   3.787   5.463 -0.7673 -0.3631 -0.9041
  743MOL0     H 2506   3.926   3.515   5.393  1.3056 -0.4675 -1.6642
  743MOL0     H 2507   3.805   3.613   5.296 -1.0855 -0.8502  0.5715
  743MOL0     H 2508   4.086   3.738   5.354  0.1381  3.6291 -1.4116
  743MOL0     H 2509   3.961   3.781   5.246  2.4487  0.4503 -0.8682
  743MOL0     H 2510   4.022   3.628   5.087 -0.1312  3.3765 -0.1712
  743MOL0     H 2511   4.052   3.492   5.196  0.0145 -0.0270  0.4068
  743MOL0     H 2512   4.238   3.724   5.146  1.6473  0.4722  3.6567
  743MOL0     H 2513   4.250   3.552   5.071  0.3208  1.6555 -0.3244
  743MOL0     H 2514   3.338   3.787   5.800 -1.4312 -0.6358  1.4745
  743MOL0     H 2515   3.096   3.823   5.780  2.8707  0.4229  0.1431
  743MOL0     H 2516   2.700   3.638   5.691  0.6276  0.5026  0.8657
  743MOL0     H 2517   2.474   3.668   5.727  1.8700 -1.9608 -0.8331
  743MOL0     H 2518   0.617   4.528   5.382  0.0833  3.5509 -0.2940
  743MOL0     H 2519   0.385   4.571   5.379 -0.9505  0.7576  0.6047
  743MOL0     H 2520  -0.028   4.775   5.851  4.0376 -3.4656 -1.0343
  743MOL0     H 2521  -0.257   4.823   5.834 -0.5014 -2.1592  0.2606
  743MOL0     H 2522  -0.593   4.758   5.686  1.1735  0.9935  0.9580
  743MOL0     H 2523  -0.460   4.763   5.789 -2.3923 -2.5351 -0.4188
  743MOL0     H 2524  -0.429   5.005   5.725  1.0302 -2.1006  0.4104
  743MOL0     H 2525  -0.549   4.976   5.842 -1.5800  3.8078 -0.0406
  743MOL0     H 2526  -0.734   4.988   5.666 -0.0617  0.7631  0.3367
  743MOL0     H 2527  -0.643   5.137   5.669  0.8805 -0.1630  1.4882
  743MOL0     H 2528  -0.595   4.911   5.462 -0.0081  1.1101 -1.4183
  743MOL0     H 2529  -0.508   5.058   5.458 -1.2238  1.7279 -0.9868
  743MOL0     H 2530  -0.884   5.144   5.286  0.7252  2.0155 -1.2956
  743MOL0     H 2531  -0.269   4.700   5.426 -0.8617 -1.2016  1.3016
  743MOL0     H 2532  -0.012   4.541   5.383 -1.6572 -0.2168 -0.1535
  743MOL0     H 2533  -0.067   4.693   5.301  0.9055  0.9522  1.0158
  743MOL0     H 2534   0.085   4.692   5.374 -0.8858  0.1044 -1.8413
  744MOL0     O 2535   6.485   4.734   9.484  0.1530 -0.1810  0.0377
  744MOL0     C 2536   6.362   4.752   9.507  0.2889  0.4576 -0.2500
  744MOL0     O 2537   6.306   4.819   9.610 -0.1722 -0.4458 -0.3324
  744MOL0     C 2538   6.396   4.889   9.675 -0.2790  0.9747  0.3081
  744MOL0     C 2539   6.470   4.836   9.776 -0.3592  0.3407 -0.1477
  744MOL0     C 2540   6.552   4.923   9.857 -0.1352  0.5317  0.6976
  744MOL0     C 2541   6.561   5.068   9.826 -0.6796  0.8740 -0.0751
  744MOL0     O 2542   6.640   5.156   9.900  0.5972  0.7605  0.2253
  744MOL0     C 2543   6.689   5.121  10.028 -0.5460 -0.5609  0.3104
  744MOL0     C 2544   6.769   5.236  10.087  0.5694  0.1464  0.3030
  744MOL0     C 2545   6.901   5.231  10.017 -0.2147 -0.1922  0.1197
  744MOL0     C 2546   6.981   5.364  10.027 -0.3003  0.5215  0.0197
  744MOL0     C 2547   7.095   5.365   9.917 -0.0988  0.8055 -0.4674
  744MOL0     C 2548   7.182   5.484   9.934 -0.5565 -0.1900 -0.8288
  744MOL0     C 2549   7.102   5.624   9.897  0.1732 -0.1933 -0.2775
  744MOL0     C 2550   7.195   5.743   9.934  0.1621 -0.0058  0.1238
  744MOL0     N 2551   7.326   5.764   9.869  0.5514 -0.2608 -0.2811
  744MOL0     C 2552   7.445   5.724   9.926 -0.0630 -0.5281 -0.0616
  744MOL0     C 2553   7.541   5.733   9.832 -0.3679  0.2287 -0.1191
  744MOL0     C 2554   7.684   5.707   9.854 -0.4494  0.1544 -0.5159
  744MOL0     C 2555   7.748   5.581   9.821 -0.5950  0.1307 -0.3459
  744MOL0     C 2556   7.900   5.569   9.798  0.9406  0.5843 -0.8792
  744MOL0     C 2557   7.946   5.450   9.714  0.4753 -0.0383  0.4893
  744MOL0     O 2558   7.954   5.492   9.580  0.4255  0.2607  0.7417
  744MOL0     C 2559   7.919   5.393   9.482  0.0884 -0.8484 -0.3870
  744MOL0     C 2560   7.827   5.425   9.385 -0.4898  0.4509  0.1546
  744MOL0     C 2561   7.800   5.341   9.278  0.0201  0.3812 -0.4620
  744MOL0     C 2562   7.689   5.386   9.185 -0.1111  0.6760 -0.0302
  744MOL0     C 2563   7.871   5.213   9.275 -0.0633  0.5319 -0.2017
  744MOL0     C 2564   7.853   5.107   9.172  1.2099 -0.3500  0.8356
  744MOL0     O 2565   7.927   4.993   9.188  0.5613 -0.7367  0.1258
  744MOL0     C 2566   7.916   4.896   9.099  0.6728 -0.2203  0.0572
  744MOL0     C 2567   7.990   4.906   8.978  0.2386  0.4545  0.3415
  744MOL0     C 2568   7.969   4.812   8.875 -0.4764 -0.1250  0.0473
  744MOL0     C 2569   7.898   4.695   8.908 -0.5856  0.6988 -0.2753
  744MOL0     O 2570   7.873   4.603   8.813  0.1320  0.3897 -1.2729
  744MOL0     C 2571   7.828   4.648   8.683 -0.3008  0.0682  0.3585
  744MOL0     C 2572   7.753   4.531   8.609 -0.0305 -0.3512 -1.0517
  744MOL0     C 2573   7.606   4.516   8.641  0.3047 -0.2862  0.5874
  744MOL0     C 2574   7.534   4.412   8.552  0.4756  0.3032  0.0801
  744MOL0     C 2575   7.385   4.422   8.552  1.7171 -0.1395 -0.1935
  744MOL0     C 2576   7.305   4.320   8.466 -0.5626 -0.0308 -0.0926
  744MOL0     C 2577   7.156   4.323   8.468  0.1662 -0.2574 -0.1392
  744MOL0     C 2578   7.083   4.341   8.334  0.6219 -0.0568 -0.0197
  744MOL0    Cl 2579   7.113   4.511   8.267  0.6832  0.1163 -0.0041
  744MOL0     C 2580   7.854   4.672   9.039  0.2352  0.1153  0.0581
  744MOL0     C 2581   7.856   4.770   9.132 -0.5174 -0.8887 -0.1197
  744MOL0     O 2582   7.776   5.119   9.074  0.0167  0.9091 -0.3166
  744MOL0     C 2583   7.967   5.189   9.371  0.2026 -0.5282 -0.7533
  744MOL0     C 2584   7.985   5.274   9.481 -0.4523  0.1824  0.5400
  744MOL0     N 2585   7.484   5.803   9.728  0.5402  0.1624 -0.0396
  744MOL0     N 2586   7.357   5.799   9.747  0.0693 -0.3944  0.3612
  744MOL0     C 2587   6.485   5.111   9.719 -0.1517 -1.0025  0.0387
  744MOL0     C 2588   6.399   5.023   9.647 -0.0086 -0.1315 -0.5361
  744MOL0     C 2589   6.274   4.683   9.409  0.7899 -0.1142  0.5228
  744MOL0     C 2590   6.330   4.677   9.277  0.0012 -0.7766 -0.2366
  744MOL0     C 2591   6.262   4.618   9.172 -0.0722 -0.4286 -0.0593
  744MOL0     C 2592   6.137   4.559   9.196 -0.0504  0.1076 -1.2490
  744MOL0     O 2593   6.087   4.493   9.086  0.2037  0.2134 -0.0553
  744MOL0     C 2594   6.050   4.355   9.099  0.0342 -0.4690 -0.7393
  744MOL0     C 2595   5.965   4.313   8.979 -0.3810  0.5418  0.2043
  744MOL0     C 2596   6.048   4.258   8.866 -0.0566  0.1618  0.8854
  744MOL0     C 2597   5.969   4.177   8.767 -0.1204 -0.0674 -0.1216
  744MOL0     C 2598   6.058   4.090   8.685  0.0458 -0.5281 -0.5989
  744MOL0     C 2599   6.135   4.025   8.622  1.2315  0.0815 -0.0850
  744MOL0     C 2600   6.080   4.568   9.330 -0.4760 -0.0167 -0.4026
  744MOL0     C 2601   6.146   4.615   9.438 -0.3164 -0.5056  0.1217
  744MOL0     C 2602   6.083   4.609   9.579  0.5341 -0.0426 -0.2895
  744MOL0     H 2603   6.464   4.731   9.802 -3.0169  0.7387  1.2464
  744MOL0     H 2604   6.606   4.874   9.938  0.9068  2.3931  1.1860
  744MOL0     H 2605   6.744   5.027  10.020 -1.9995 -1.2550 -3.1286
  744MOL0     H 2606   6.603   5.101  10.092  0.1526 -1.4223  1.0028
  744MOL0     H 2607   6.724   5.335  10.071 -0.9274 -0.6871 -0.8714
  744MOL0     H 2608   6.775   5.223  10.196  0.7445 -1.8134  0.0870
  744MOL0     H 2609   6.966   5.150  10.052 -0.9173  0.2980  2.8053
  744MOL0     H 2610   6.884   5.220   9.910  0.7416  1.4145 -0.2349
  744MOL0     H 2611   6.914   5.447  10.002  0.7915  0.8943 -1.8309
  744MOL0     H 2612   7.032   5.377  10.123 -0.7392 -0.6628  0.4311
  744MOL0     H 2613   7.057   5.363   9.814  1.8150 -2.2286 -1.2522
  744MOL0     H 2614   7.155   5.273   9.919  0.5519  1.2120 -0.9298
  744MOL0     H 2615   7.227   5.507  10.031 -0.2312  3.0528 -1.6239
  744MOL0     H 2616   7.271   5.481   9.870 -1.0843  0.2761 -1.6038
  744MOL0     H 2617   7.008   5.635   9.952 -0.0788 -2.9298 -0.0205
  744MOL0     H 2618   7.083   5.624   9.789 -0.4963 -0.4532 -0.1663
  744MOL0     H 2619   7.142   5.837   9.913  1.9330  1.0977  0.4029
  744MOL0     H 2620   7.200   5.741  10.043  3.1836 -1.9418  0.0643
  744MOL0     H 2621   7.447   5.704  10.032  2.0904  2.1039  0.4832
  744MOL0     H 2622   7.711   5.735   9.956  1.7511 -0.5737 -0.8333
  744MOL0     H 2623   7.723   5.778   9.779 -2.7688 -0.2356 -2.2185
  744MOL0     H 2624   7.724   5.517   9.907 -1.4114  0.3177 -0.4329
  744MOL0     H 2625   7.693   5.536   9.738 -3.1451  2.0385  0.1892
  744MOL0     H 2626   7.944   5.664   9.764  2.3909  0.7815  1.3692
  744MOL0     H 2627   7.928   5.537   9.898 -0.0713  0.5770 -0.5866
  744MOL0     H 2628   8.050   5.432   9.742  0.9086  0.8746 -0.4587
  744MOL0     H 2629   7.878   5.366   9.732  0.7728 -0.3178  0.3191
  744MOL0     H 2630   7.784   5.524   9.382  2.4711  1.8644  0.1145
  744MOL0     H 2631   7.735   5.389   9.086  0.1273 -3.6216 -0.2354
  744MOL0     H 2632   7.652   5.487   9.207 -0.6189  0.5058 -0.0896
  744MOL0     H 2633   7.609   5.313   9.198  1.1299 -0.5202  1.1273
  744MOL0     H 2634   8.043   4.999   8.960  1.1724  0.2397  1.7496
  744MOL0     H 2635   8.016   4.822   8.777 -1.0988  0.0529 -0.2387
  744MOL0     H 2636   7.768   4.739   8.687 -1.4103 -0.5798 -0.9378
  744MOL0     H 2637   7.918   4.671   8.625 -0.4278  0.1477  0.1919
  744MOL0     H 2638   7.757   4.539   8.500  3.9980 -0.1396 -1.0408
  744MOL0     H 2639   7.802   4.439   8.643  3.7264  1.9095  0.2785
  744MOL0     H 2640   7.552   4.609   8.622  0.8072 -0.3918 -1.6411
  744MOL0     H 2641   7.600   4.500   8.749 -0.8383 -2.8761  0.1890
  744MOL0     H 2642   7.556   4.310   8.584  0.9834 -0.0963 -1.4573
  744MOL0     H 2643   7.567   4.419   8.448 -0.1856  0.0585 -0.1500
  744MOL0     H 2644   7.355   4.411   8.656  3.0602 -0.7506  0.1555
  744MOL0     H 2645   7.352   4.521   8.519  0.2777 -0.0542  1.3423
  744MOL0     H 2646   7.326   4.224   8.513  1.6650 -0.5204 -1.9274
  744MOL0     H 2647   7.353   4.318   8.368  0.2705  1.4298  0.2494
  744MOL0     H 2648   7.125   4.409   8.528 -0.9389  0.4461 -1.6515
  744MOL0     H 2649   7.119   4.232   8.516 -1.0893  0.0557 -0.4887
  744MOL0     H 2650   6.976   4.327   8.350  0.4115 -0.1173 -1.3770
  744MOL0     H 2651   7.104   4.263   8.260 -0.0581 -1.1372  0.8932
  744MOL0     H 2652   7.827   4.572   9.072  1.3552 -0.3526 -0.3675
  744MOL0     H 2653   7.828   4.758   9.237 -0.6926  0.9264  0.0617
  744MOL0     H 2654   8.038   5.108   9.360  1.8137  1.0086 -2.4001
  744MOL0     H 2655   8.059   5.255   9.559 -0.6786  1.3604  1.0726
  744MOL0     H 2656   6.494   5.216   9.692 -1.6925 -0.6962  0.6286
  744MOL0     H 2657   6.338   5.067   9.569 -1.5722  0.2505  0.8662
  744MOL0     H 2658   6.424   4.725   9.250  1.1621 -0.5406  3.6666
  744MOL0     H 2659   6.293   4.630   9.068 -2.2496 -0.3063 -0.7520
  744MOL0     H 2660   6.141   4.295   9.107  0.7812  0.3715 -2.4198
  744MOL0     H 2661   5.990   4.346   9.190 -1.1077  0.8052 -1.3257
  744MOL0     H 2662   5.918   4.401   8.934  1.2373  0.1173 -2.5546
  744MOL0     H 2663   5.892   4.244   9.022 -0.5310  1.8360  2.1154
  744MOL0     H 2664   6.091   4.345   8.816 -1.1351  1.0039  1.3761
  744MOL0     H 2665   6.125   4.196   8.913  1.3276  2.4510  1.8635
  744MOL0     H 2666   5.916   4.241   8.696  0.2710  0.7120  0.2744
  744MOL0     H 2667   5.896   4.116   8.820  1.6070 -1.3417  0.9016
  744MOL0     H 2668   6.198   3.956   8.570  1.0898  0.4726 -0.7911
  744MOL0     H 2669   5.979   4.530   9.344 -0.9624  1.2762 -0.3330
  744MOL0     H 2670   6.109   4.687   9.652  1.1234 -2.1324  1.8795
  744MOL0     H 2671   5.974   4.617   9.573  0.7031  1.3376 -2.8842
  744MOL0     H 2672   6.120   4.516   9.624 -1.9262 -1.5384 -1.1683
  745MOL0     O 2673   9.258   4.310   2.955 -0.2409  0.2875 -0.6930
  745MOL0     C 2674   9.327   4.267   2.866 -0.1636 -0.1218  0.4297
  745MOL0     O 2675   9.296   4.158   2.797 -0.1879  0.8657  0.5629
  745MOL0     C 2676   9.172   4.105   2.805  0.1387 -0.8745 -1.2652
  745MOL0     C 2677   9.113   4.067   2.927  0.1501  0.8557  0.3869
  745MOL0     C 2678   8.986   4.015   2.932 -0.5323 -0.0673 -0.0963
  745MOL0     C 2679   8.907   4.001   2.814  0.5005 -0.2178 -0.2526
  745MOL0     O 2680   8.783   3.942   2.826 -0.0460  0.2312 -0.0368
  745MOL0     C 2681   8.728   3.897   2.707  0.3738  0.4699  0.1167
  745MOL0     C 2682   8.606   3.811   2.738 -0.1782  0.8787 -0.2333
  745MOL0     C 2683   8.490   3.851   2.638 -0.3813  1.1915 -0.7016
  745MOL0     C 2684   8.382   3.751   2.659 -0.5013 -0.3251 -0.6577
  745MOL0     C 2685   8.263   3.765   2.558  0.1717  0.6422  1.2850
  745MOL0     C 2686   8.141   3.670   2.577  0.7123 -0.2872 -0.0439
  745MOL0     C 2687   8.190   3.525   2.592 -0.2341 -0.1851  0.5348
  745MOL0     C 2688   8.084   3.409   2.596  0.3960  0.1832 -0.1357
  745MOL0     N 2689   7.973   3.435   2.510  0.5211  0.8326 -0.3104
  745MOL0     C 2690   7.868   3.524   2.536 -0.9359 -0.2255 -0.6352
  745MOL0     C 2691   7.825   3.550   2.408  0.4156 -0.6012 -0.5339
  745MOL0     C 2692   7.735   3.664   2.376 -0.5466  0.3276  0.5554
  745MOL0     C 2693   7.799   3.799   2.382  0.4455 -0.8874 -0.0673
  745MOL0     C 2694   7.908   3.809   2.277  0.7557  0.8211 -0.2903
  745MOL0     C 2695   7.966   3.956   2.252  0.4553  0.0200 -1.1209
  745MOL0     O 2696   8.012   4.008   2.381  0.0537  0.5864 -0.3153
  745MOL0     C 2697   8.068   4.137   2.379  1.0097 -0.5823 -0.6037
  745MOL0     C 2698   8.076   4.221   2.269 -0.3827 -0.4676  1.0969
  745MOL0     C 2699   8.150   4.346   2.276 -0.4117  0.2635 -0.3777
  745MOL0     C 2700   8.154   4.432   2.154  0.3267 -0.4454  0.3757
  745MOL0     C 2701   8.221   4.379   2.396  0.0235 -0.4174 -0.6094
  745MOL0     C 2702   8.289   4.509   2.425 -0.3976  0.3161  0.1114
  745MOL0     O 2703   8.379   4.511   2.526  0.2269  0.1714  0.1296
  745MOL0     C 2704   8.493   4.587   2.520 -0.6590 -0.4743 -0.0372
  745MOL0     C 2705   8.558   4.610   2.646 -0.1941  0.4064 -0.3168
  745MOL0     C 2706   8.678   4.682   2.644 -0.7857  0.5605 -0.6306
  745MOL0     C 2707   8.738   4.733   2.526 -0.2779  0.1483  0.5682
  745MOL0     O 2708   8.856   4.809   2.516  1.0323  0.0308 -0.5424
  745MOL0     C 2709   8.974   4.750   2.580 -0.0590 -0.2235 -0.3202
  745MOL0     C 2710   9.045   4.861   2.661  0.3098 -0.6535  0.5632
  745MOL0     C 2711   9.168   4.801   2.727  0.2571  1.5832 -0.1027
  745MOL0     C 2712   9.233   4.876   2.835 -0.0904 -0.3334  0.4695
  745MOL0     C 2713   9.317   4.989   2.773 -0.1167  0.3858 -0.0980
  745MOL0     C 2714   9.396   5.057   2.873 -0.5932 -1.0328  0.8844
  745MOL0     C 2715   9.489   5.169   2.821 -0.1818 -0.9966 -0.6362
  745MOL0     C 2716   9.547   5.261   2.929 -0.8106  0.5199 -0.5034
  745MOL0    Cl 2717   9.642   5.390   2.856  0.3324 -0.1620  0.1484
  745MOL0     C 2718   8.675   4.704   2.405 -0.7779 -0.6722 -0.1881
  745MOL0     C 2719   8.555   4.633   2.403 -0.2288 -0.1693  0.9127
  745MOL0     O 2720   8.255   4.606   2.362  0.5364  0.1411 -0.2741
  745MOL0     C 2721   8.216   4.281   2.492 -0.3878  0.4270 -0.5582
  745MOL0     C 2722   8.143   4.167   2.495  0.0494 -0.3662  0.3619
  745MOL0     N 2723   7.890   3.469   2.316  0.0610 -0.4684  0.3514
  745MOL0     N 2724   7.966   3.389   2.380 -0.1611  0.4000  0.0834
  745MOL0     C 2725   8.961   4.055   2.695  0.3661  0.1029  0.2919
  745MOL0     C 2726   9.089   4.101   2.694  0.9158 -0.4550  0.9140
  745MOL0     C 2727   9.463   4.327   2.841 -0.4037  0.1707  0.3513
  745MOL0     C 2728   9.555   4.241   2.778 -0.1568 -0.0920 -0.1067
  745MOL0     C 2729   9.689   4.283   2.759 -0.0324  0.3481  0.2356
  745MOL0     C 2730   9.734   4.407   2.778  0.9507  0.9830 -0.0660
  745MOL0     O 2731   9.852   4.440   2.721  0.1002  0.1193 -0.2372
  745MOL0     C 2732   9.915   4.567   2.739  0.0830 -0.3024 -0.1687
  745MOL0     C 2733  10.061   4.571   2.697 -0.1055  0.5668 -0.3158
  745MOL0     C 2734  10.114   4.714   2.705  0.9356 -0.5758  0.1017
  745MOL0     C 2735  10.200   4.744   2.822 -0.3808 -0.3325  0.4162
  745MOL0     C 2736  10.118   4.760   2.940  0.4672 -0.2582 -0.7105
  745MOL0     C 2737  10.057   4.785   3.039  0.1652  0.2933  0.0442
  745MOL0     C 2738   9.642   4.499   2.827  1.0137 -0.7491 -0.1298
  745MOL0     C 2739   9.506   4.466   2.853  0.0775  0.4876  0.4784
  745MOL0     C 2740   9.411   4.573   2.875  0.9396 -0.8000  0.5482
  745MOL0     H 2741   9.160   4.086   3.023 -1.7665  3.5784  0.8837
  745MOL0     H 2742   8.936   3.964   3.013  1.7459 -2.6106 -0.1153
  745MOL0     H 2743   8.796   3.828   2.656 -0.5110 -1.3019  1.2524
  745MOL0     H 2744   8.705   3.984   2.645  1.6223  2.4055  2.2204
  745MOL0     H 2745   8.639   3.707   2.729 -0.5042  0.5141  2.1371
  745MOL0     H 2746   8.564   3.814   2.839  0.7400 -2.8372  0.4172
  745MOL0     H 2747   8.449   3.949   2.662 -3.2640 -0.2836  0.9506
  745MOL0     H 2748   8.529   3.846   2.536  2.3292  1.9366  0.2193
  745MOL0     H 2749   8.429   3.652   2.653  0.2602 -0.1837  1.9712
  745MOL0     H 2750   8.354   3.773   2.762  2.0169  3.0191 -0.5042
  745MOL0     H 2751   8.296   3.746   2.456 -1.0442  1.1824  0.7797
  745MOL0     H 2752   8.230   3.869   2.562 -1.0144  0.2847  1.0082
  745MOL0     H 2753   8.085   3.687   2.670 -1.6132 -1.5892 -1.1039
  745MOL0     H 2754   8.079   3.689   2.488  0.1337  2.0566  0.7877
  745MOL0     H 2755   8.252   3.516   2.681  0.0690 -1.1440  0.2439
  745MOL0     H 2756   8.252   3.513   2.502 -0.1293  0.9289  0.4369
  745MOL0     H 2757   8.128   3.314   2.565  0.3436 -0.4477  1.5905
  745MOL0     H 2758   8.036   3.406   2.695 -0.0172 -1.0081 -0.3489
  745MOL0     H 2759   7.843   3.579   2.626  0.8707  0.0168 -0.2441
  745MOL0     H 2760   7.663   3.660   2.458 -1.3345  1.5939 -0.0427
  745MOL0     H 2761   7.685   3.647   2.281 -0.0041  3.9433 -0.5380
  745MOL0     H 2762   7.723   3.876   2.366  0.9098 -0.4611 -0.2519
  745MOL0     H 2763   7.840   3.810   2.482 -2.1918  0.5218  0.9745
  745MOL0     H 2764   7.995   3.750   2.306  1.4148  2.3855  1.0755
  745MOL0     H 2765   7.859   3.776   2.185  0.6051  1.4986 -0.4596
  745MOL0     H 2766   8.045   3.943   2.177  2.2308  0.8968  0.4993
  745MOL0     H 2767   7.889   4.021   2.209 -0.2343  1.0234  1.4612
  745MOL0     H 2768   8.020   4.196   2.179  2.6957  2.8418 -2.1196
  745MOL0     H 2769   8.256   4.466   2.133 -0.4454  0.4561 -2.3731
  745MOL0     H 2770   8.094   4.522   2.170  2.2737  0.8124  0.9149
  745MOL0     H 2771   8.114   4.373   2.071 -1.5627 -1.6732  2.0372
  745MOL0     H 2772   8.527   4.565   2.740 -0.0572 -1.1890 -1.0058
  745MOL0     H 2773   8.733   4.681   2.738  0.4558 -0.2178 -1.3211
  745MOL0     H 2774   8.943   4.674   2.652  0.2816 -2.4443 -2.3792
  745MOL0     H 2775   9.036   4.697   2.507 -2.8841 -1.7611 -1.7844
  745MOL0     H 2776   9.080   4.938   2.591  0.2295 -1.6831 -0.6652
  745MOL0     H 2777   8.975   4.891   2.739 -0.7346 -0.6492 -0.3469
  745MOL0     H 2778   9.246   4.772   2.656  0.3363  1.0972  0.1780
  745MOL0     H 2779   9.141   4.702   2.763 -1.2131  2.3931  1.1640
  745MOL0     H 2780   9.287   4.811   2.904 -1.0344 -1.8727 -0.1923
  745MOL0     H 2781   9.153   4.929   2.888 -2.1950 -2.3805 -0.5081
  745MOL0     H 2782   9.386   4.941   2.703  0.5603 -4.6647  3.4968
  745MOL0     H 2783   9.252   5.064   2.728 -0.0401 -0.8238 -2.3936
  745MOL0     H 2784   9.461   4.989   2.929 -0.8426 -1.7175  0.3590
  745MOL0     H 2785   9.327   5.109   2.940 -0.1495  0.2142  0.3954
  745MOL0     H 2786   9.438   5.241   2.756 -1.6006 -0.4639  0.9703
  745MOL0     H 2787   9.571   5.134   2.759  2.2616  0.6733  1.4344
  745MOL0     H 2788   9.597   5.207   3.010  0.6438  1.3256 -0.8256
  745MOL0     H 2789   9.459   5.309   2.973 -1.6730  0.2130 -1.8335
  745MOL0     H 2790   8.700   4.762   2.317 -1.6121  1.1268  0.7045
  745MOL0     H 2791   8.506   4.607   2.310  1.4190  1.4392 -0.4646
  745MOL0     H 2792   8.279   4.301   2.578 -0.5407  2.2458 -0.8148
  745MOL0     H 2793   8.154   4.089   2.569  0.9808 -1.1667 -0.5949
  745MOL0     H 2794   8.910   4.054   2.600 -1.1777  3.3433  0.9408
  745MOL0     H 2795   9.118   4.153   2.603 -1.0152  0.6346  0.8545
  745MOL0     H 2796   9.528   4.137   2.761 -3.7195  0.9138 -1.4226
  745MOL0     H 2797   9.759   4.207   2.724  1.3886  1.3798  0.7209
  745MOL0     H 2798   9.855   4.641   2.686  2.3034  0.8382 -1.2503
  745MOL0     H 2799   9.908   4.612   2.838  0.1445  0.1893 -0.3860
  745MOL0     H 2800  10.081   4.546   2.592  1.9758  0.8694 -0.0509
  745MOL0     H 2801  10.113   4.497   2.759  1.4511  2.9940  1.4745
  745MOL0     H 2802  10.175   4.724   2.615 -2.0257  0.5329 -1.9369
  745MOL0     H 2803  10.035   4.790   2.695  1.9508  0.2955 -1.8583
  745MOL0     H 2804  10.254   4.837   2.801  0.7204 -1.1377 -0.4181
  745MOL0     H 2805  10.270   4.661   2.836  1.8787  1.5933  1.3265
  745MOL0     H 2806   9.990   4.810   3.119 -0.9408  0.5353 -0.9240
  745MOL0     H 2807   9.672   4.603   2.832  1.6940 -0.9122 -0.6714
  745MOL0     H 2808   9.406   4.636   2.786 -3.0120 -2.3272 -0.5139
  745MOL0     H 2809   9.310   4.541   2.900  0.1894 -0.2142 -1.5798
  745MOL0     H 2810   9.434   4.636   2.962  1.2868 -0.9662  0.5793
  746MOL0     O 2811  11.226  10.744   8.809 -1.3938  0.2515  0.2272
  746MOL0     C 2812  11.195  10.848   8.871 -0.4648 -0.0269  0.1356
  746MOL0     O 2813  11.285  10.937   8.932 -0.5916  1.0337  0.8414
  746MOL0     C 2814  11.425  10.927   8.930  0.1907  0.0135  0.3121
  746MOL0     C 2815  11.486  11.045   8.987 -0.2805 -0.1173  0.0965
  746MOL0     C 2816  11.630  11.051   8.985  0.8729  0.5522 -0.6587
  746MOL0     C 2817  11.713  10.945   8.936 -0.0962 -0.3651  0.6408
  746MOL0     O 2818  11.840  10.959   8.956  0.1403 -0.8482 -0.4604
  746MOL0     C 2819  11.930  10.853   8.922 -0.8756  0.4279  0.7054
  746MOL0     C 2820  11.934  10.725   9.008  0.3432  0.7145 -0.3957
  746MOL0     C 2821  12.006  10.612   8.942 -0.7013 -1.0315  0.0056
  746MOL0     C 2822  11.941  10.480   9.002  0.4953  0.4030  0.2246
  746MOL0     C 2823  12.029  10.361   8.967 -0.6107  0.1958  0.6210
  746MOL0     C 2824  11.963  10.231   9.008 -1.0202  0.0218 -0.3865
  746MOL0     C 2825  12.066  10.111   9.023 -0.4882 -0.5325  0.1102
  746MOL0     C 2826  12.013  10.003   9.115 -0.2506  0.1293  0.3660
  746MOL0     N 2827  12.099   9.894   9.147 -0.1201  0.8750  0.3211
  746MOL0     C 2828  12.180   9.815   9.061  0.2384  0.6183 -0.6576
  746MOL0     C 2829  12.237   9.729   9.148 -0.7390  0.1992  0.2589
  746MOL0     C 2830  12.333   9.617   9.110 -0.0331  1.0473 -0.1705
  746MOL0     C 2831  12.400   9.553   9.235  0.7725  0.0308  0.5657
  746MOL0     C 2832  12.529   9.629   9.280 -0.7595 -0.0629  0.9180
  746MOL0     C 2833  12.553   9.613   9.424 -0.8543  0.4147  0.1693
  746MOL0     O 2834  12.568   9.478   9.455  1.0760 -0.7917  0.6653
  746MOL0     C 2835  12.686   9.429   9.421  0.3116  0.1068 -0.2118
  746MOL0     C 2836  12.677   9.313   9.348  0.5612 -0.1617  0.0780
  746MOL0     C 2837  12.796   9.246   9.308 -0.2329  0.9877  0.9222
  746MOL0     C 2838  12.780   9.124   9.213 -0.6977  0.0143  0.7602
  746MOL0     C 2839  12.921   9.298   9.348  1.1194  0.4140 -0.1475
  746MOL0     C 2840  13.056   9.244   9.315 -0.2613 -0.9654  0.0506
  746MOL0     O 2841  13.165   9.288   9.396  0.1559 -0.9538  0.2144
  746MOL0     C 2842  13.284   9.222   9.399 -0.1276  0.9245 -0.4993
  746MOL0     C 2843  13.400   9.297   9.425 -0.0913  1.0616 -0.1404
  746MOL0     C 2844  13.524   9.237   9.443 -0.3739 -0.5541  0.5299
  746MOL0     C 2845  13.550   9.104   9.413 -0.3800 -0.1455  0.2319
  746MOL0     O 2846  13.679   9.058   9.433 -0.3346 -0.0697 -0.2070
  746MOL0     C 2847  13.724   8.932   9.384 -0.1870 -0.1777 -0.3272
  746MOL0     C 2848  13.874   8.946   9.352 -0.0601  1.1248  0.0869
  746MOL0     C 2849  13.936   8.811   9.309 -0.1174 -0.6163  0.1531
  746MOL0     C 2850  14.074   8.825   9.248  0.2245  0.2265  0.4048
  746MOL0     C 2851  14.136   8.687   9.212  0.1181 -0.5950  0.0151
  746MOL0     C 2852  14.065   8.606   9.103  0.2326 -0.3775  0.1558
  746MOL0     C 2853  14.155   8.493   9.054 -1.2503  0.0954  0.1311
  746MOL0     C 2854  14.115   8.426   8.930 -0.9752  0.9150  0.2593
  746MOL0    Cl 2855  14.013   8.291   8.971  0.1760 -0.1222  0.0075
  746MOL0     C 2856  13.438   9.027   9.382 -0.0962  0.2616 -0.7796
  746MOL0     C 2857  13.311   9.083   9.377  0.1386 -0.6232 -0.8328
  746MOL0     O 2858  13.071   9.166   9.222 -0.3769  0.0608  0.4754
  746MOL0     C 2859  12.923   9.415   9.433  0.6993  0.1075 -0.5853
  746MOL0     C 2860  12.810   9.477   9.468 -0.6389  0.0952 -0.8110
  746MOL0     N 2861  12.188   9.747   9.274  0.0847 -0.4468  0.3170
  746MOL0     N 2862  12.106   9.845   9.271 -0.0701 -0.0343  0.2584
  746MOL0     C 2863  11.647  10.842   8.879  0.4425 -0.4929 -0.2835
  746MOL0     C 2864  11.506  10.829   8.862 -0.4346  0.0871 -1.0861
  746MOL0     C 2865  11.048  10.881   8.881  0.1699 -0.2146  0.1947
  746MOL0     C 2866  11.008  10.983   8.974  0.6472 -1.0162  0.2979
  746MOL0     C 2867  10.876  11.007   9.007 -0.0511  0.4041 -0.2742
  746MOL0     C 2868  10.775  10.937   8.947  0.2522 -0.7914 -0.5941
  746MOL0     O 2869  10.651  10.971   8.992 -0.1414  0.2310 -0.0690
  746MOL0     C 2870  10.538  10.908   8.940  0.4434 -0.1201 -0.0801
  746MOL0     C 2871  10.435  10.901   9.043  0.0769  0.6330 -0.4603
  746MOL0     C 2872  10.325  10.797   8.983 -0.2600 -0.2352  0.3133
  746MOL0     C 2873  10.189  10.787   9.060 -0.2534 -0.0961 -0.2125
  746MOL0     C 2874  10.113  10.667   9.021  1.5099 -0.7932  0.1376
  746MOL0     C 2875  10.059  10.565   8.976 -0.1061  0.5926 -0.0143
  746MOL0     C 2876  10.810  10.854   8.846 -0.0297 -0.1121 -0.0391
  746MOL0     C 2877  10.941  10.822   8.809 -0.9953 -0.5001  0.5255
  746MOL0     C 2878  10.965  10.737   8.686  0.4161  0.2464  0.1862
  746MOL0     H 2879  11.434  11.120   9.046  0.5517 -0.5100  1.3847
  746MOL0     H 2880  11.688  11.128   9.034  1.1894 -2.3530  4.2208
  746MOL0     H 2881  12.035  10.886   8.915  0.3129 -2.0324  4.1082
  746MOL0     H 2882  11.918  10.828   8.816 -0.8135  0.1440  0.7635
  746MOL0     H 2883  11.976  10.742   9.107 -2.9956  2.1914  0.9263
  746MOL0     H 2884  11.837  10.681   9.033 -0.3110  1.8451 -0.8511
  746MOL0     H 2885  11.982  10.612   8.836  3.0657 -0.2995 -0.9776
  746MOL0     H 2886  12.115  10.619   8.940 -0.7695  0.1526 -0.9064
  746MOL0     H 2887  11.930  10.481   9.111 -1.2179 -0.2322  0.0839
  746MOL0     H 2888  11.841  10.464   8.961  1.2966 -2.2841 -0.9065
  746MOL0     H 2889  12.124  10.385   9.017 -1.5092  3.9610  0.8024
  746MOL0     H 2890  12.046  10.358   8.859 -2.3108 -1.1392  0.3421
  746MOL0     H 2891  11.930  10.249   9.111  1.6445  0.1172  0.5117
  746MOL0     H 2892  11.877  10.210   8.944 -0.8527 -0.8951 -0.3186
  746MOL0     H 2893  12.163  10.140   9.065 -0.3034 -2.1514  0.8411
  746MOL0     H 2894  12.095  10.075   8.924 -1.4419  0.0031 -0.3794
  746MOL0     H 2895  11.965  10.044   9.205 -2.0490 -1.8759  0.3910
  746MOL0     H 2896  11.926   9.959   9.066 -0.7344  0.4663  0.9028
  746MOL0     H 2897  12.192   9.826   8.953 -2.0911  1.1684 -0.9041
  746MOL0     H 2898  12.405   9.654   9.037 -0.5501  2.2931 -0.0699
  746MOL0     H 2899  12.279   9.532   9.066  0.6951  1.2306 -1.4760
  746MOL0     H 2900  12.329   9.553   9.318  0.3505  1.9327  0.2584
  746MOL0     H 2901  12.419   9.447   9.217 -1.3010 -0.2431 -0.3344
  746MOL0     H 2902  12.609   9.583   9.222  0.9039  1.4365  1.9270
  746MOL0     H 2903  12.534   9.737   9.265  2.9208 -0.0338  1.4163
  746MOL0     H 2904  12.639   9.675   9.452  0.1911  0.5401 -2.9298
  746MOL0     H 2905  12.458   9.641   9.470 -1.4344  1.4979 -1.5649
  746MOL0     H 2906  12.595   9.261   9.300  2.3662 -0.8027 -2.5456
  746MOL0     H 2907  12.822   9.158   9.118 -0.8011  1.3956  1.1859
  746MOL0     H 2908  12.680   9.086   9.191 -0.0849  0.2473 -2.9213
  746MOL0     H 2909  12.835   9.036   9.249 -1.7523 -0.9418  0.1027
  746MOL0     H 2910  13.389   9.404   9.440 -1.3246  0.8062  0.9851
  746MOL0     H 2911  13.611   9.293   9.473  0.9119  0.2703 -4.0267
  746MOL0     H 2912  13.723   8.871   9.475 -0.3551 -0.4915 -0.5402
  746MOL0     H 2913  13.668   8.885   9.304 -0.4567  0.7844 -0.7240
  746MOL0     H 2914  13.868   9.020   9.272  0.8003  3.2436  1.9027
  746MOL0     H 2915  13.934   8.999   9.426  0.2305  1.6036 -0.4843
  746MOL0     H 2916  13.881   8.750   9.237 -0.2477  0.8419 -1.0172
  746MOL0     H 2917  13.949   8.756   9.403  0.5556  0.2723  0.5973
  746MOL0     H 2918  14.141   8.872   9.321 -0.0779 -0.6187  1.2507
  746MOL0     H 2919  14.069   8.894   9.163  0.6034  3.7984  3.0452
  746MOL0     H 2920  14.234   8.711   9.170 -0.8284 -0.7679 -2.4762
  746MOL0     H 2921  14.132   8.629   9.304 -0.0230  0.3087  0.5964
  746MOL0     H 2922  14.051   8.670   9.016 -2.2343 -1.3160 -0.2147
  746MOL0     H 2923  13.971   8.573   9.148  1.1613 -1.0676  1.6708
  746MOL0     H 2924  14.168   8.421   9.136  2.5662 -0.9604 -1.1607
  746MOL0     H 2925  14.250   8.546   9.040 -1.0822  0.6624  2.9029
  746MOL0     H 2926  14.206   8.398   8.875  1.6622  2.0689  3.7048
  746MOL0     H 2927  14.065   8.501   8.867 -0.7295 -1.5043 -3.1268
  746MOL0     H 2928  13.447   8.920   9.368  1.8050  0.7552 -4.2413
  746MOL0     H 2929  13.227   9.016   9.361  0.1459 -0.8894  0.1826
  746MOL0     H 2930  13.015   9.455   9.474  1.0327 -0.2900 -0.9269
  746MOL0     H 2931  12.810   9.559   9.540  0.7867  0.4753 -1.2135
  746MOL0     H 2932  11.701  10.754   8.848  1.0334  0.1243 -1.0745
  746MOL0     H 2933  11.472  10.734   8.822  1.4657 -0.8042 -0.6692
  746MOL0     H 2934  11.079  11.039   9.034 -0.9259  2.3252 -0.7519
  746MOL0     H 2935  10.856  11.090   9.074 -1.3150  0.2765 -0.4622
  746MOL0     H 2936  10.510  10.974   8.857  1.3526  0.9613  0.4410
  746MOL0     H 2937  10.548  10.806   8.901  1.8012  0.1520 -0.5164
  746MOL0     H 2938  10.399  11.002   9.066  1.0027  0.7872  0.3954
  746MOL0     H 2939  10.472  10.851   9.133  2.4178 -0.0629 -1.7277
  746MOL0     H 2940  10.297  10.824   8.880 -1.7071 -4.5695 -0.6368
  746MOL0     H 2941  10.369  10.697   8.979  0.7246  0.0819  2.1185
  746MOL0     H 2942  10.133  10.878   9.040 -1.2274 -0.6729 -0.1657
  746MOL0     H 2943  10.217  10.792   9.166  0.6689  0.1271 -0.4544
  746MOL0     H 2944  10.019  10.483   8.920 -0.3920 -0.0452  1.0962
  746MOL0     H 2945  10.730  10.807   8.790  0.3489 -1.5479  0.5671
  746MOL0     H 2946  11.034  10.787   8.617 -0.9957 -0.8726 -2.1906
  746MOL0     H 2947  11.015  10.644   8.714 -1.3574 -1.2257 -1.3107
  746MOL0     H 2948  10.876  10.701   8.633  2.4584 -1.2944 -2.4479
  747MOL0     O 2949   4.726   9.236   1.435  0.4791 -0.3201  0.9722
  747MOL0     C 2950   4.753   9.136   1.371 -0.5220  0.0223  0.2908
  747MOL0     O 2951   4.873   9.099   1.350  0.8530 -1.2627  0.1174
  747MOL0     C 2952   4.984   9.172   1.373 -0.0201 -0.0890  0.2054
  747MOL0     C 2953   5.019   9.224   1.496  0.2237  0.6486  0.0253
  747MOL0     C 2954   5.138   9.296   1.506 -0.2458 -0.2148 -0.6330
  747MOL0     C 2955   5.224   9.322   1.399  1.3881 -0.4795  0.1984
  747MOL0     O 2956   5.344   9.390   1.411 -0.0941 -0.6738  0.0050
  747MOL0     C 2957   5.426   9.346   1.525  0.5727 -0.0907 -0.2094
  747MOL0     C 2958   5.533   9.440   1.548 -0.0895  0.5565  0.8828
  747MOL0     C 2959   5.495   9.574   1.607  0.0024  0.3078 -0.4878
  747MOL0     C 2960   5.606   9.693   1.611  0.2612 -0.3200 -0.4252
  747MOL0     C 2961   5.740   9.656   1.678  0.8203 -0.4845 -0.8261
  747MOL0     C 2962   5.835   9.779   1.683 -0.2219  0.1374 -0.0805
  747MOL0     C 2963   5.955   9.760   1.773  0.1474 -0.5373 -0.1999
  747MOL0     C 2964   6.047   9.640   1.743 -0.8766  0.1209 -0.2874
  747MOL0     N 2965   6.159   9.667   1.829 -0.2922 -0.3066 -0.1121
  747MOL0     C 2966   6.271   9.738   1.787  0.7545 -0.0696 -0.1764
  747MOL0     C 2967   6.342   9.744   1.901 -0.0613 -1.0955 -0.5111
  747MOL0     C 2968   6.472   9.821   1.924 -0.1574 -0.7720  0.4665
  747MOL0     C 2969   6.511   9.835   2.072 -0.2372  0.3197 -0.1280
  747MOL0     C 2970   6.665   9.874   2.108  0.7141 -0.2398 -0.5329
  747MOL0     C 2971   6.702   9.999   2.031  0.3415  1.0607 -0.7934
  747MOL0     O 2972   6.651  10.121   2.091  0.2447 -0.0213 -0.0791
  747MOL0     C 2973   6.729  10.227   2.121  0.5459 -0.4421  0.3977
  747MOL0     C 2974   6.749  10.261   2.250 -0.0026 -0.6622  0.2252
  747MOL0     C 2975   6.841  10.360   2.293 -0.7376  0.5696 -0.1820
  747MOL0     C 2976   6.848  10.385   2.442  0.6237  0.6746  0.4675
  747MOL0     C 2977   6.906  10.438   2.193  0.7949  0.4794  0.2616
  747MOL0     C 2978   6.997  10.554   2.226 -0.4163 -1.0661 -0.1997
  747MOL0     O 2979   6.991  10.618   2.355  1.1594  0.0130 -0.0205
  747MOL0     C 2980   7.108  10.688   2.398  0.1328 -0.4767  0.1959
  747MOL0     C 2981   7.085  10.764   2.507 -0.3517 -0.3872 -0.2548
  747MOL0     C 2982   7.177  10.855   2.562 -0.1376 -0.1170 -0.5149
  747MOL0     C 2983   7.315  10.867   2.521  0.4522  0.3720  0.2148
  747MOL0     O 2984   7.403  10.952   2.592  0.2447  0.2956  0.4758
  747MOL0     C 2985   7.544  10.926   2.570  0.1278  0.0545 -0.6309
  747MOL0     C 2986   7.623  11.027   2.651 -0.7655  0.2797  0.4234
  747MOL0     C 2987   7.598  11.019   2.801 -0.2935  0.0546  0.0877
  747MOL0     C 2988   7.638  11.156   2.858 -0.3048 -0.1115 -0.6995
  747MOL0     C 2989   7.652  11.143   3.013  0.0585  0.1401 -0.2688
  747MOL0     C 2990   7.515  11.105   3.083 -0.5290  0.1433  0.8459
  747MOL0     C 2991   7.546  11.083   3.226 -0.1402  0.6006  0.4592
  747MOL0     C 2992   7.436  11.087   3.329 -0.2581 -0.2950  0.3013
  747MOL0    Cl 2993   7.326  10.947   3.313 -0.0072 -0.1522  0.2007
  747MOL0     C 2994   7.334  10.792   2.403 -0.1724 -0.2238 -0.0022
  747MOL0     C 2995   7.242  10.696   2.347  1.1686  0.6430  0.5551
  747MOL0     O 2996   7.075  10.586   2.141  0.5413  0.0923 -0.7249
  747MOL0     C 2997   6.868  10.408   2.052 -0.0064 -0.0401 -0.8300
  747MOL0     C 2998   6.771  10.308   2.019  0.6830  0.6591 -0.4666
  747MOL0     N 2999   6.283   9.668   2.002  0.5581 -1.0625  0.0701
  747MOL0     N 3000   6.168   9.637   1.961 -0.0034  0.0375  0.0994
  747MOL0     C 3001   5.174   9.284   1.270  0.2781  0.2319 -0.1529
  747MOL0     C 3002   5.063   9.200   1.261 -0.4629 -0.0827 -0.2187
  747MOL0     C 3003   4.655   9.035   1.325  0.3174  0.0905 -0.2622
  747MOL0     C 3004   4.681   8.955   1.211 -0.1946 -0.3870 -0.8034
  747MOL0     C 3005   4.588   8.866   1.156 -0.2485 -0.1183 -0.1989
  747MOL0     C 3006   4.481   8.838   1.234 -0.4946 -0.5314 -0.0378
  747MOL0     O 3007   4.390   8.742   1.206  0.1852 -0.5225 -1.0827
  747MOL0     C 3008   4.435   8.620   1.155 -0.6758 -0.7477  0.3725
  747MOL0     C 3009   4.327   8.509   1.172 -0.4366  0.4842 -0.8526
  747MOL0     C 3010   4.185   8.541   1.137  1.3829 -0.0150 -0.3632
  747MOL0     C 3011   4.103   8.618   1.243 -0.3659 -0.6120 -0.4380
  747MOL0     C 3012   4.042   8.527   1.328 -0.2275 -0.1529 -1.0235
  747MOL0     C 3013   3.996   8.438   1.400 -0.3701  0.0614 -0.1845
  747MOL0     C 3014   4.462   8.907   1.352  0.0471 -0.3763 -0.3116
  747MOL0     C 3015   4.544   9.005   1.403  0.7171 -0.9488 -0.1744
  747MOL0     C 3016   4.495   9.074   1.527 -0.5558 -0.6323 -0.7567
  747MOL0     H 3017   4.943   9.219   1.574 -2.1855  2.1465 -2.0674
  747MOL0     H 3018   5.163   9.321   1.609 -0.1283 -1.7363 -0.2723
  747MOL0     H 3019   5.463   9.245   1.508 -1.0722 -0.3715 -2.7083
  747MOL0     H 3020   5.368   9.341   1.617  0.2737  1.3979 -0.2808
  747MOL0     H 3021   5.591   9.395   1.629 -0.1804 -2.8901 -0.8195
  747MOL0     H 3022   5.587   9.465   1.456  1.8840  0.2259  1.9164
  747MOL0     H 3023   5.417   9.623   1.549 -1.0145  0.1758  0.7298
  747MOL0     H 3024   5.460   9.544   1.706  1.6978 -2.2076 -0.5669
  747MOL0     H 3025   5.627   9.724   1.508  1.0143 -0.8271 -0.4276
  747MOL0     H 3026   5.574   9.782   1.667  0.7923 -0.9834  0.9570
  747MOL0     H 3027   5.784   9.571   1.625 -0.2656 -0.6247 -1.5359
  747MOL0     H 3028   5.721   9.646   1.785 -0.8434  2.2698 -0.7689
  747MOL0     H 3029   5.875   9.798   1.583  1.6993 -0.3167  0.5437
  747MOL0     H 3030   5.776   9.864   1.720 -0.4647 -0.5971  1.2882
  747MOL0     H 3031   5.922   9.749   1.876 -0.9182 -0.7416 -0.5486
  747MOL0     H 3032   6.010   9.854   1.763 -0.1464 -0.2639  0.6591
  747MOL0     H 3033   6.007   9.543   1.773  1.6795 -1.6830 -2.1793
  747MOL0     H 3034   6.082   9.640   1.639  1.1789  0.9252  0.3479
  747MOL0     H 3035   6.309   9.773   1.692  0.2005  0.4211 -0.2187
  747MOL0     H 3036   6.457   9.926   1.898  1.0651 -1.8276 -6.0788
  747MOL0     H 3037   6.547   9.784   1.854 -2.0459 -2.6314 -0.6893
  747MOL0     H 3038   6.441   9.904   2.118  0.3252  0.5102  0.4607
  747MOL0     H 3039   6.500   9.739   2.124 -1.3832  0.4469 -0.1203
  747MOL0     H 3040   6.660   9.893   2.216 -3.4269 -0.5211 -0.5210
  747MOL0     H 3041   6.738   9.793   2.095 -0.4874 -1.2622 -1.1074
  747MOL0     H 3042   6.811   9.996   2.027  0.3691  0.7506 -0.0713
  747MOL0     H 3043   6.681   9.990   1.924  0.1867 -1.7239 -0.5872
  747MOL0     H 3044   6.682  10.211   2.319  0.3688 -0.3201  0.8524
  747MOL0     H 3045   6.949  10.402   2.481  0.9235 -2.2082  1.1749
  747MOL0     H 3046   6.803  10.298   2.489  0.4317 -0.1259 -1.1279
  747MOL0     H 3047   6.781  10.469   2.460  1.6972  1.6997 -0.1455
  747MOL0     H 3048   6.984  10.778   2.543 -1.6202  1.6313 -4.0586
  747MOL0     H 3049   7.151  10.922   2.643  1.0861 -2.8038  2.2631
  747MOL0     H 3050   7.566  10.828   2.614 -1.6882 -0.0824  0.0426
  747MOL0     H 3051   7.576  10.923   2.465  0.3008  1.8993 -0.6535
  747MOL0     H 3052   7.729  11.011   2.628 -1.1387  1.3807 -2.5147
  747MOL0     H 3053   7.601  11.125   2.608 -2.0634 -0.7140 -1.3032
  747MOL0     H 3054   7.649  10.936   2.851  0.0219 -0.4104 -0.9774
  747MOL0     H 3055   7.491  11.005   2.818 -0.2537  2.2222  2.6868
  747MOL0     H 3056   7.558  11.231   2.849  0.3318  0.5742 -0.7506
  747MOL0     H 3057   7.718  11.196   2.795 -2.2700  3.6382 -1.1142
  747MOL0     H 3058   7.729  11.066   3.025  1.6121  1.7921  0.9285
  747MOL0     H 3059   7.681  11.242   3.051  0.0204  0.2466 -0.5141
  747MOL0     H 3060   7.486  11.011   3.036  1.1186  0.2406 -0.4711
  747MOL0     H 3061   7.434  11.177   3.069 -1.6288 -0.9778  1.2152
  747MOL0     H 3062   7.617  11.161   3.256  0.2104  0.4536  0.0167
  747MOL0     H 3063   7.607  10.993   3.239  1.2427  1.6841  1.9050
  747MOL0     H 3064   7.378  11.180   3.325  1.4827  0.8889  1.0759
  747MOL0     H 3065   7.495  11.084   3.421  1.2173 -1.6163 -0.6337
  747MOL0     H 3066   7.432  10.787   2.355  0.4701 -0.0227  1.2394
  747MOL0     H 3067   7.264  10.627   2.266 -1.0491 -0.6052  0.9327
  747MOL0     H 3068   6.912  10.462   1.969 -1.3479  2.0811 -0.2295
  747MOL0     H 3069   6.744  10.288   1.916  0.2688 -0.4861 -0.1563
  747MOL0     H 3070   5.225   9.315   1.179  0.4020  0.0484 -0.1460
  747MOL0     H 3071   5.040   9.171   1.159  1.4935  0.3842 -0.8224
  747MOL0     H 3072   4.759   8.991   1.144 -1.2869 -1.9254 -2.9983
  747MOL0     H 3073   4.612   8.810   1.066 -0.7862 -0.6834  0.0062
  747MOL0     H 3074   4.445   8.640   1.047  1.9614  1.8968  0.9776
  747MOL0     H 3075   4.537   8.596   1.186 -0.2987 -3.6093 -2.4411
  747MOL0     H 3076   4.328   8.471   1.274 -0.1378 -1.1222 -1.4204
  747MOL0     H 3077   4.352   8.431   1.099 -2.4034  1.2191 -2.4154
  747MOL0     H 3078   4.193   8.617   1.058  0.2044  1.2543  0.6891
  747MOL0     H 3079   4.137   8.449   1.101  2.0068 -1.1461  1.5351
  747MOL0     H 3080   4.034   8.688   1.195  3.1582  3.4324 -0.2177
  747MOL0     H 3081   4.169   8.690   1.291 -1.1706 -0.0067 -0.2356
  747MOL0     H 3082   3.939   8.363   1.451 -2.1155  0.5265 -1.3646
  747MOL0     H 3083   4.388   8.863   1.417  1.5465 -2.7571 -0.0799
  747MOL0     H 3084   4.465   9.178   1.512  0.1731 -0.6232 -2.4506
  747MOL0     H 3085   4.414   9.022   1.579 -0.2222 -1.7909 -1.3568
  747MOL0     H 3086   4.574   9.073   1.602 -2.6005 -0.3328  1.4936
  748MOL0     O 3087   7.182   4.362   9.257 -0.0644  0.7935  0.7121
  748MOL0     C 3088   7.110   4.458   9.262 -0.1343  0.6904  0.4214
  748MOL0     O 3089   7.105   4.553   9.354 -0.3578 -1.0701  0.4950
  748MOL0     C 3090   7.179   4.555   9.467  0.4069  0.3111 -0.1473
  748MOL0     C 3091   7.240   4.456   9.543  0.0331 -0.1590 -1.3192
  748MOL0     C 3092   7.319   4.483   9.657  0.4844  0.0979 -0.6620
  748MOL0     C 3093   7.332   4.623   9.701  0.3711  0.5500 -0.1919
  748MOL0     O 3094   7.402   4.668   9.811 -0.0972 -0.3662  0.1611
  748MOL0     C 3095   7.452   4.564   9.891 -0.3526  0.3182 -0.0650
  748MOL0     C 3096   7.523   4.614  10.021 -0.1859  0.0893  0.4908
  748MOL0     C 3097   7.660   4.679   9.990  0.0808 -0.8771 -0.4844
  748MOL0     C 3098   7.749   4.675  10.116  0.1558  0.3719 -0.9783
  748MOL0     C 3099   7.892   4.729  10.086  0.5436  0.7346 -0.9927
  748MOL0     C 3100   7.987   4.703  10.207 -0.9581  0.0857  0.1400
  748MOL0     C 3101   8.131   4.721  10.156  0.2278 -0.1027  0.3945
  748MOL0     C 3102   8.172   4.608  10.058  1.1372 -0.5996 -1.1882
  748MOL0     N 3103   8.314   4.591  10.043  0.3938  0.1526 -0.7276
  748MOL0     C 3104   8.403   4.680   9.993 -0.1770 -0.2219  0.0678
  748MOL0     C 3105   8.519   4.665  10.051 -0.4554 -0.3640  0.1735
  748MOL0     C 3106   8.638   4.757  10.023  0.4286 -0.2657 -0.4731
  748MOL0     C 3107   8.754   4.740  10.110  0.0404  0.7501  0.8574
  748MOL0     C 3108   8.892   4.786  10.038  0.2421 -0.0588 -1.0528
  748MOL0     C 3109   8.944   4.693   9.931 -0.7808  0.3774 -0.1733
  748MOL0     O 3110   9.072   4.746   9.894  0.5499 -0.2204 -0.1341
  748MOL0     C 3111   9.156   4.673   9.814  0.4090  0.0282  0.1364
  748MOL0     C 3112   9.152   4.535   9.795  0.4402  0.3035  0.8157
  748MOL0     C 3113   9.223   4.467   9.691 -0.2876  0.2128  0.0268
  748MOL0     C 3114   9.193   4.318   9.673  0.3720 -0.0317  0.1352
  748MOL0     C 3115   9.308   4.541   9.611  0.4057 -0.4271  0.4064
  748MOL0     C 3116   9.381   4.488   9.494  0.0732 -0.1316  0.2431
  748MOL0     O 3117   9.443   4.367   9.519 -0.0653 -0.2972 -0.7942
  748MOL0     C 3118   9.506   4.288   9.421 -0.3048 -0.6328 -0.7093
  748MOL0     C 3119   9.595   4.343   9.324 -0.1605  0.7010 -1.4379
  748MOL0     C 3120   9.656   4.244   9.239 -0.2301 -0.5033  0.5683
  748MOL0     C 3121   9.639   4.106   9.249  0.1899  0.0295  0.2104
  748MOL0     O 3122   9.708   4.012   9.176 -0.4480 -0.8249 -0.1661
  748MOL0     C 3123   9.802   4.045   9.084 -0.7415 -0.5812 -0.4693
  748MOL0     C 3124   9.934   4.093   9.137 -0.2031  0.5366 -0.1155
  748MOL0     C 3125  10.043   4.074   9.042 -0.8522 -0.1277  0.4852
  748MOL0     C 3126  10.186   4.082   9.093 -0.0197  0.5491 -0.6906
  748MOL0     C 3127  10.283   4.088   8.971  0.3678  0.0556 -1.0660
  748MOL0     C 3128  10.430   4.096   9.027 -0.5906 -0.2740 -0.7081
  748MOL0     C 3129  10.540   4.093   8.920  0.0614  0.0378  0.2491
  748MOL0     C 3130  10.547   3.954   8.857 -0.0656 -0.1573 -0.4092
  748MOL0    Cl 3131  10.709   3.932   8.787 -0.0024 -0.0607 -0.3313
  748MOL0     C 3132   9.558   4.066   9.353  0.7697  0.4042 -0.6342
  748MOL0     C 3133   9.491   4.150   9.434 -0.4538  0.9085 -0.0965
  748MOL0     O 3134   9.396   4.557   9.397 -1.2745 -0.3196  0.0480
  748MOL0     C 3135   9.319   4.684   9.629 -0.8418 -1.1650 -0.0088
  748MOL0     C 3136   9.246   4.748   9.737  0.3721 -0.2586  0.4517
  748MOL0     N 3137   8.511   4.550  10.130 -0.1662 -0.1702  1.0441
  748MOL0     N 3138   8.382   4.511  10.125 -0.2716 -0.4701 -0.0237
  748MOL0     C 3139   7.262   4.718   9.618  0.4800 -0.2122 -0.8886
  748MOL0     C 3140   7.183   4.686   9.515  0.1821 -0.3529 -0.3875
  748MOL0     C 3141   7.048   4.495   9.135  0.0408 -0.1644  0.6694
  748MOL0     C 3142   7.076   4.622   9.082  1.4963 -1.2522  0.2954
  748MOL0     C 3143   7.006   4.670   8.973 -0.8240 -0.1067 -0.6838
  748MOL0     C 3144   6.935   4.590   8.890  0.0934  0.3117  0.2815
  748MOL0     O 3145   6.883   4.621   8.763  0.3951  0.0535  0.1754
  748MOL0     C 3146   6.922   4.745   8.703 -0.3947  0.1560  0.5915
  748MOL0     C 3147   6.834   4.763   8.577  0.0578 -0.3364  0.1801
  748MOL0     C 3148   6.837   4.643   8.476  0.3531  0.0071 -0.0881
  748MOL0     C 3149   6.776   4.676   8.330 -0.7487  0.5118 -0.6704
  748MOL0     C 3150   6.777   4.567   8.231 -0.5596  1.0271 -0.3167
  748MOL0     C 3151   6.787   4.479   8.151  0.7611 -0.5738 -0.6275
  748MOL0     C 3152   6.915   4.460   8.933 -0.5384 -0.1729 -0.6275
  748MOL0     C 3153   6.971   4.408   9.049 -0.1696  0.4297 -0.1496
  748MOL0     C 3154   6.933   4.264   9.086 -0.4177 -0.0666 -0.6808
  748MOL0     H 3155   7.236   4.354   9.506 -0.2727 -0.7337  0.1865
  748MOL0     H 3156   7.362   4.395   9.704 -0.1977 -0.5073 -1.1593
  748MOL0     H 3157   7.526   4.509   9.831  0.8883  1.5900  0.2536
  748MOL0     H 3158   7.372   4.506   9.938 -0.8083  1.8908  1.1774
  748MOL0     H 3159   7.458   4.688  10.068 -1.3950 -0.5962 -0.0776
  748MOL0     H 3160   7.528   4.531  10.091 -0.4018  0.8613  1.4430
  748MOL0     H 3161   7.716   4.624   9.914 -1.5527 -0.6515 -1.9146
  748MOL0     H 3162   7.648   4.786   9.966  4.0300 -0.1689  0.0403
  748MOL0     H 3163   7.705   4.730  10.200  2.2339 -0.6083  0.8423
  748MOL0     H 3164   7.748   4.571  10.149 -0.6725  0.6653 -0.0175
  748MOL0     H 3165   7.895   4.838  10.082  0.6175  0.9814  2.5619
  748MOL0     H 3166   7.931   4.687   9.993 -3.8716 -1.6493 -2.0716
  748MOL0     H 3167   7.962   4.777  10.284  2.7453  0.0603  1.5761
  748MOL0     H 3168   7.971   4.601  10.241  1.0993 -0.5119 -0.5271
  748MOL0     H 3169   8.192   4.739  10.245 -2.1004  1.5833  1.7693
  748MOL0     H 3170   8.134   4.816  10.101 -0.5174 -0.9628 -1.2109
  748MOL0     H 3171   8.135   4.514  10.101 -0.2863 -0.1575 -1.4027
  748MOL0     H 3172   8.129   4.622   9.959  1.2147  3.0147 -0.8441
  748MOL0     H 3173   8.376   4.762   9.928 -0.5883 -1.7046 -1.7320
  748MOL0     H 3174   8.602   4.859  10.039 -0.4637 -0.7687  0.8342
  748MOL0     H 3175   8.659   4.750   9.916 -1.7990 -0.7603 -0.9071
  748MOL0     H 3176   8.732   4.800  10.199 -0.7197  1.8678 -0.0549
  748MOL0     H 3177   8.766   4.632  10.126 -1.1020  0.3973 -0.5640
  748MOL0     H 3178   8.882   4.887   9.998  2.1470  0.7444  0.3446
  748MOL0     H 3179   8.971   4.800  10.113  1.2562  2.6502 -2.4970
  748MOL0     H 3180   8.945   4.591   9.970  0.5427  1.2188  2.2294
  748MOL0     H 3181   8.883   4.702   9.841  3.8024  3.4933 -3.4444
  748MOL0     H 3182   9.081   4.482   9.857 -0.4903  0.9204  0.3041
  748MOL0     H 3183   9.173   4.288   9.569  0.4035  1.5472 -0.3442
  748MOL0     H 3184   9.103   4.296   9.731 -1.0557  0.2260 -1.8707
  748MOL0     H 3185   9.280   4.265   9.714  0.0310 -1.2957 -0.6871
  748MOL0     H 3186   9.626   4.446   9.314  1.0397  0.6685  1.0864
  748MOL0     H 3187   9.727   4.286   9.169 -1.7927  1.0393 -0.1848
  748MOL0     H 3188   9.813   3.956   9.021 -2.1668 -1.6583  0.7368
  748MOL0     H 3189   9.776   4.130   9.020  2.4594  1.8249  1.1309
  748MOL0     H 3190   9.931   4.183   9.199  2.0552  0.2595  0.4642
  748MOL0     H 3191   9.961   4.017   9.211 -2.5530 -0.2951 -0.0263
  748MOL0     H 3192  10.037   4.140   8.954  0.0651  0.7808  1.0884
  748MOL0     H 3193  10.033   3.974   8.998 -0.5514 -0.4226  1.0923
  748MOL0     H 3194  10.229   4.000   9.151  3.4112  0.5758 -2.8855
  748MOL0     H 3195  10.194   4.174   9.152  3.3276  1.2506 -1.9798
  748MOL0     H 3196  10.267   3.992   8.923 -0.4827 -1.3792  1.8679
  748MOL0     H 3197  10.258   4.165   8.897 -0.5044  2.3188  1.3873
  748MOL0     H 3198  10.454   4.019   9.100 -2.1988  0.2942  0.4591
  748MOL0     H 3199  10.449   4.187   9.084 -0.5257 -0.0960 -1.0111
  748MOL0     H 3200  10.632   4.111   8.977 -0.3062 -3.5440  2.2394
  748MOL0     H 3201  10.516   4.167   8.843 -4.6570  2.5242  3.5839
  748MOL0     H 3202  10.469   3.949   8.780  0.4615  2.2694 -1.1886
  748MOL0     H 3203  10.519   3.884   8.936  1.0720  4.5505  4.7355
  748MOL0     H 3204   9.539   3.960   9.367  0.4130  0.6554  0.9841
  748MOL0     H 3205   9.426   4.110   9.511 -1.9297  0.3246 -1.5904
  748MOL0     H 3206   9.387   4.747   9.573 -1.2635 -2.0595 -1.5870
  748MOL0     H 3207   9.256   4.856   9.744 -1.2163 -0.1684  2.4103
  748MOL0     H 3208   7.267   4.823   9.645 -0.6487 -0.2788 -0.3312
  748MOL0     H 3209   7.140   4.769   9.459  2.4523 -0.0033 -1.7207
  748MOL0     H 3210   7.131   4.705   9.126  2.2098 -0.8471 -1.2863
  748MOL0     H 3211   7.014   4.776   8.950  1.9345  0.5179  2.3836
  748MOL0     H 3212   6.916   4.830   8.772 -1.0398  1.4905 -1.0336
  748MOL0     H 3213   7.027   4.740   8.674  0.3364 -2.7351  3.1694
  748MOL0     H 3214   6.863   4.858   8.532 -1.7443  0.3104  0.3069
  748MOL0     H 3215   6.733   4.795   8.604  0.9747  0.4570  2.9958
  748MOL0     H 3216   6.942   4.615   8.467  1.0957  1.9076  1.9025
  748MOL0     H 3217   6.793   4.556   8.526 -0.8373  0.6034 -0.0586
  748MOL0     H 3218   6.834   4.755   8.283  0.5245  0.2319  0.3560
  748MOL0     H 3219   6.678   4.720   8.350  0.3419  2.7424  0.0521
  748MOL0     H 3220   6.810   4.405   8.077  1.6836  0.8426 -1.8224
  748MOL0     H 3221   6.861   4.394   8.866 -0.8252 -1.3544  0.7206
  748MOL0     H 3222   6.983   4.189   9.024  2.1737  1.6691 -0.8564
  748MOL0     H 3223   6.953   4.238   9.190  0.2385  0.2974 -0.7093
  748MOL0     H 3224   6.825   4.255   9.072 -0.8867 -2.6566  3.1684
  749MOL0     O 3225   6.360   3.072   4.750  0.4633  0.4402 -0.7199
  749MOL0     C 3226   6.325   3.072   4.635 -1.0064 -0.1254 -0.9217
  749MOL0     O 3227   6.396   3.029   4.533  0.7339  0.0569 -0.6557
  749MOL0     C 3228   6.526   3.003   4.548  0.1712 -0.3049  0.0308
  749MOL0     C 3229   6.576   2.894   4.477  0.4702 -0.7032  0.6745
  749MOL0     C 3230   6.715   2.877   4.476  0.2773 -0.3581  0.3008
  749MOL0     C 3231   6.811   2.964   4.537 -0.1273 -0.2570  1.1323
  749MOL0     O 3232   6.951   2.932   4.528  0.2038 -1.0070  0.0849
  749MOL0     C 3233   7.044   3.035   4.569  0.1199  0.3447  0.0885
  749MOL0     C 3234   7.185   2.971   4.553 -0.5079 -0.5689 -0.6361
  749MOL0     C 3235   7.261   2.996   4.416  0.1628  0.6124  0.6687
  749MOL0     C 3236   7.192   2.897   4.316  0.4726  0.1605  0.9936
  749MOL0     C 3237   7.269   2.873   4.183  0.2849 -0.4664  0.5210
  749MOL0     C 3238   7.192   2.800   4.066  0.3044  0.0399 -0.7982
  749MOL0     C 3239   7.259   2.832   3.930  0.4161  0.3878 -1.0913
  749MOL0     C 3240   7.163   2.843   3.806  0.6578 -0.3457  0.7347
  749MOL0     N 3241   7.199   2.750   3.703  0.2805  0.4149 -0.4503
  749MOL0     C 3242   7.133   2.631   3.706 -0.4148 -0.3376  0.1528
  749MOL0     C 3243   7.177   2.562   3.598 -0.0198 -0.6310  0.3616
  749MOL0     C 3244   7.157   2.414   3.573 -0.2334 -0.4056 -0.0567
  749MOL0     C 3245   7.280   2.356   3.501  0.6073 -0.6292 -0.0923
  749MOL0     C 3246   7.261   2.205   3.490 -0.0217  0.7312 -0.4495
  749MOL0     C 3247   7.371   2.144   3.412 -0.3731 -0.4000 -0.1924
  749MOL0     O 3248   7.497   2.146   3.494  0.2229 -0.2146  0.8579
  749MOL0     C 3249   7.625   2.144   3.433 -0.6400  0.4728 -0.6945
  749MOL0     C 3250   7.657   2.129   3.304 -0.3883  0.1615  0.5420
  749MOL0     C 3251   7.794   2.140   3.254  0.3346  0.7517 -0.3928
  749MOL0     C 3252   7.801   2.130   3.106 -0.1102  0.2820  0.1972
  749MOL0     C 3253   7.906   2.167   3.346  0.0929 -0.7219  0.7951
  749MOL0     C 3254   8.049   2.199   3.322  0.7350 -0.5432 -1.0700
  749MOL0     O 3255   8.117   2.220   3.433 -0.1419  0.2958 -0.2287
  749MOL0     C 3256   8.248   2.251   3.415 -0.8136 -0.8154 -0.1127
  749MOL0     C 3257   8.351   2.163   3.385  0.0021  0.2407  0.0582
  749MOL0     C 3258   8.482   2.208   3.360 -0.4152  0.1278  0.4564
  749MOL0     C 3259   8.507   2.349   3.381  0.3086 -0.0871  0.0431
  749MOL0     O 3260   8.631   2.401   3.359  0.0106 -0.0366 -0.8394
  749MOL0     C 3261   8.681   2.464   3.474 -0.3932  0.4226  0.4810
  749MOL0     C 3262   8.840   2.485   3.447  0.2335 -0.0121 -0.1330
  749MOL0     C 3263   8.911   2.524   3.583 -0.5245  0.5603 -0.6726
  749MOL0     C 3264   9.047   2.572   3.545 -0.4599  0.0422 -0.0265
  749MOL0     C 3265   9.155   2.582   3.662  0.5760  0.2994  0.6134
  749MOL0     C 3266   9.120   2.671   3.776 -0.2076  0.4099 -0.6222
  749MOL0     C 3267   9.229   2.695   3.880 -0.9173 -0.1787  0.0546
  749MOL0     C 3268   9.329   2.817   3.855  0.2378 -0.1657 -0.1378
  749MOL0    Cl 3269   9.453   2.820   3.978  0.1420  0.0556 -0.0041
  749MOL0     C 3270   8.407   2.437   3.418  0.2458 -0.1693 -0.4222
  749MOL0     C 3271   8.281   2.390   3.428 -0.0333  0.1801  0.4057
  749MOL0     O 3272   8.093   2.212   3.203 -0.3993  0.2054  0.5273
  749MOL0     C 3273   7.856   2.178   3.476 -0.0707  0.4402 -0.4763
  749MOL0     C 3274   7.721   2.174   3.518  0.7554  0.3501  0.5506
  749MOL0     N 3275   7.268   2.639   3.533  0.2836 -0.3724 -0.2107
  749MOL0     N 3276   7.275   2.757   3.593 -0.4346 -0.1495 -0.4669
  749MOL0     C 3277   6.756   3.064   4.619 -0.7841  0.4326 -0.1834
  749MOL0     C 3278   6.619   3.085   4.624 -0.1960 -0.4622 -0.1078
  749MOL0     C 3279   6.192   3.128   4.628  0.4965 -0.0974  0.1245
  749MOL0     C 3280   6.135   3.188   4.741  0.1598  0.3031  0.7807
  749MOL0     C 3281   6.009   3.240   4.741  0.4286 -0.3263 -0.7235
  749MOL0     C 3282   5.921   3.222   4.638 -0.1874  0.2377  0.2619
  749MOL0     O 3283   5.790   3.274   4.639  0.1847  0.2970  0.1858
  749MOL0     C 3284   5.678   3.185   4.600  0.5642 -0.7006  0.3099
  749MOL0     C 3285   5.546   3.264   4.598 -0.0957  0.8042  0.1760
  749MOL0     C 3286   5.488   3.271   4.741 -0.1014 -0.1774  0.6902
  749MOL0     C 3287   5.348   3.330   4.722  0.6326 -0.5331 -0.9352
  749MOL0     C 3288   5.316   3.401   4.853 -0.3798 -0.3761  0.0861
  749MOL0     C 3289   5.308   3.462   4.951  1.0147 -0.4928  0.2912
  749MOL0     C 3290   5.972   3.160   4.519  0.4616 -0.4583 -0.0405
  749MOL0     C 3291   6.106   3.122   4.510 -0.8549  0.3123  0.3898
  749MOL0     C 3292   6.154   3.057   4.380  0.4130 -0.9900 -0.6925
  749MOL0     H 3293   6.510   2.833   4.416  1.5324 -0.7283 -0.4729
  749MOL0     H 3294   6.752   2.793   4.419 -3.6637 -0.9899 -1.7347
  749MOL0     H 3295   7.042   3.074   4.671  1.9055 -0.6849  0.5742
  749MOL0     H 3296   7.040   3.123   4.504 -0.3705  1.8164  2.0527
  749MOL0     H 3297   7.257   2.999   4.630  2.8496 -1.1748 -3.2768
  749MOL0     H 3298   7.180   2.866   4.584  1.8778 -0.7092 -0.5318
  749MOL0     H 3299   7.263   3.098   4.376 -1.1473  1.2803  2.1949
  749MOL0     H 3300   7.366   2.969   4.433  0.9965  2.5521 -0.9570
  749MOL0     H 3301   7.172   2.798   4.357 -0.3991 -0.5011 -0.9162
  749MOL0     H 3302   7.093   2.937   4.292 -0.2305 -1.4012  1.1592
  749MOL0     H 3303   7.361   2.822   4.213 -0.1616  0.1408  3.2151
  749MOL0     H 3304   7.310   2.965   4.139  0.7904 -1.6299 -1.5561
  749MOL0     H 3305   7.198   2.691   4.077 -0.3810  0.1639  1.0879
  749MOL0     H 3306   7.090   2.839   4.058  0.3793  0.7697  1.2707
  749MOL0     H 3307   7.331   2.751   3.921 -1.3573 -1.5862  1.0957
  749MOL0     H 3308   7.331   2.914   3.945 -0.2015  0.5077  2.0756
  749MOL0     H 3309   7.061   2.821   3.840 -0.1057 -0.8338 -1.6860
  749MOL0     H 3310   7.164   2.944   3.764  1.0479 -0.9905 -0.8852
  749MOL0     H 3311   7.067   2.600   3.785  1.8342  0.1298  2.3519
  749MOL0     H 3312   7.067   2.402   3.513  1.0400  2.2178 -2.7530
  749MOL0     H 3313   7.131   2.370   3.670 -1.3221 -0.1972 -0.2432
  749MOL0     H 3314   7.286   2.390   3.397  0.7937  1.1019  0.4574
  749MOL0     H 3315   7.366   2.393   3.557  1.4436 -1.2731 -0.9128
  749MOL0     H 3316   7.260   2.166   3.593 -2.7009 -1.2693 -1.1128
  749MOL0     H 3317   7.160   2.180   3.458 -0.2143  0.1839  0.5281
  749MOL0     H 3318   7.342   2.043   3.381  4.0685 -1.7263 -0.7472
  749MOL0     H 3319   7.384   2.202   3.321  1.0980 -1.3773 -0.6291
  749MOL0     H 3320   7.579   2.118   3.229  2.6744  0.5937 -3.0231
  749MOL0     H 3321   7.878   2.056   3.080  0.3803 -0.7926  4.0074
  749MOL0     H 3322   7.825   2.226   3.060 -0.5541  0.6428  0.6937
  749MOL0     H 3323   7.706   2.095   3.064 -0.3431  1.1639 -0.0320
  749MOL0     H 3324   8.326   2.062   3.356 -0.5230  0.9154 -2.0513
  749MOL0     H 3325   8.574   2.164   3.322  1.1553  1.8656  2.0265
  749MOL0     H 3326   8.625   2.557   3.489  0.5584  1.1324 -0.2598
  749MOL0     H 3327   8.670   2.407   3.567 -1.0506 -0.0084  0.1531
  749MOL0     H 3328   8.885   2.393   3.408 -1.4305 -0.1034 -2.0389
  749MOL0     H 3329   8.864   2.562   3.373  0.3896  0.0456 -0.0215
  749MOL0     H 3330   8.924   2.445   3.657  0.1644 -1.4302 -2.7928
  749MOL0     H 3331   8.857   2.607   3.631  0.1220 -0.4223  1.8972
  749MOL0     H 3332   9.031   2.678   3.520  1.6996  0.8774  1.7156
  749MOL0     H 3333   9.100   2.522   3.464 -0.9967 -0.1193 -0.2793
  749MOL0     H 3334   9.160   2.479   3.699 -4.9972 -0.6511 -0.4610
  749MOL0     H 3335   9.253   2.614   3.625  0.9228  0.8143  1.9272
  749MOL0     H 3336   9.033   2.632   3.830  0.2390  1.1864  0.7082
  749MOL0     H 3337   9.090   2.771   3.741 -2.4822 -0.2566 -0.7443
  749MOL0     H 3338   9.296   2.610   3.895 -1.1689  0.0663  3.2508
  749MOL0     H 3339   9.186   2.713   3.979 -0.8281  0.6814 -0.0536
  749MOL0     H 3340   9.272   2.910   3.862  0.7109  0.1924 -0.9109
  749MOL0     H 3341   9.373   2.806   3.755  1.6703  0.9533  0.3475
  749MOL0     H 3342   8.412   2.545   3.423  0.5667 -0.1458  5.5559
  749MOL0     H 3343   8.196   2.456   3.428  1.1207  1.8218  2.9132
  749MOL0     H 3344   7.916   2.215   3.559 -3.1249  2.1112  1.1674
  749MOL0     H 3345   7.702   2.200   3.622  1.9718 -2.0816  1.4502
  749MOL0     H 3346   6.814   3.123   4.690  0.8464 -0.6680 -0.5420
  749MOL0     H 3347   6.587   3.168   4.686 -1.3766 -0.1982 -1.0434
  749MOL0     H 3348   6.181   3.198   4.839  0.6567 -0.1825  0.6072
  749MOL0     H 3349   5.976   3.304   4.822 -1.4303 -1.2433 -0.7136
  749MOL0     H 3350   5.697   3.140   4.502  0.1740 -0.1068 -0.0471
  749MOL0     H 3351   5.654   3.107   4.672  0.0147 -1.2168 -0.4043
  749MOL0     H 3352   5.466   3.214   4.544  1.5486 -0.4348 -1.2260
  749MOL0     H 3353   5.554   3.367   4.561  0.8139  0.1139 -1.6918
  749MOL0     H 3354   5.475   3.171   4.783 -1.1938 -1.5008 -2.4874
  749MOL0     H 3355   5.545   3.334   4.810  0.4109  0.0482  0.0732
  749MOL0     H 3356   5.271   3.263   4.684 -1.9153  2.1338 -0.7986
  749MOL0     H 3357   5.344   3.404   4.642 -2.9722  2.9616  2.0653
  749MOL0     H 3358   5.283   3.530   5.030 -2.9485  0.3854 -1.4721
  749MOL0     H 3359   5.904   3.152   4.435  0.7817 -0.6738 -0.2787
  749MOL0     H 3360   6.225   3.132   4.344 -1.1219  0.3120 -1.0673
  749MOL0     H 3361   6.203   2.960   4.396  0.7957 -0.8197 -0.8063
  749MOL0     H 3362   6.073   3.033   4.310  1.3404  0.6202 -2.4219
  750MOL0     O 3363   0.898   3.517   6.958  0.0308  0.3818 -0.4985
  750MOL0     C 3364   0.921   3.587   7.060 -1.2156 -0.2547 -1.0363
  750MOL0     O 3365   1.021   3.583   7.133 -0.2816 -0.0866 -0.8765
  750MOL0     C 3366   1.132   3.515   7.080 -0.3890 -0.6591  0.2564
  750MOL0     C 3367   1.216   3.577   6.977 -0.9102 -0.1583  0.2779
  750MOL0     C 3368   1.322   3.512   6.924  0.2522 -0.1565  0.1699
  750MOL0     C 3369   1.354   3.384   6.971 -0.1781  0.0593  0.0060
  750MOL0     O 3370   1.463   3.316   6.920 -0.2564 -0.2251  0.7074
  750MOL0     C 3371   1.533   3.374   6.813 -0.3508  0.2863  0.3962
  750MOL0     C 3372   1.649   3.279   6.794  0.5913 -0.4834 -0.1377
  750MOL0     C 3373   1.777   3.331   6.865  1.0128 -0.1340  0.0593
  750MOL0     C 3374   1.849   3.452   6.819  0.4041 -0.1774  0.6829
  750MOL0     C 3375   1.971   3.487   6.902 -0.0514 -0.2039 -0.3871
  750MOL0     C 3376   1.960   3.507   7.055 -0.4455 -0.1680 -0.5088
  750MOL0     C 3377   2.103   3.524   7.109  0.6063 -0.5429  0.0654
  750MOL0     C 3378   2.133   3.674   7.125 -0.0859 -0.1936 -0.1644
  750MOL0     N 3379   2.272   3.703   7.156  0.1324  0.8801  0.7170
  750MOL0     C 3380   2.374   3.718   7.069 -0.1548 -0.7195  0.4250
  750MOL0     C 3381   2.484   3.708   7.144 -0.4937 -0.5490  0.1830
  750MOL0     C 3382   2.628   3.714   7.078  0.2694  0.2296 -0.1637
  750MOL0     C 3383   2.685   3.852   7.113  0.0534  0.2158 -0.6259
  750MOL0     C 3384   2.787   3.895   7.008 -0.2483 -1.0417 -0.0767
  750MOL0     C 3385   2.844   4.022   7.046 -0.1248 -0.4093 -0.2054
  750MOL0     O 3386   2.931   4.055   6.936 -0.1741 -0.1218 -0.9332
  750MOL0     C 3387   3.024   4.150   6.955 -0.3379  0.0683 -0.4275
  750MOL0     C 3388   3.131   4.152   6.862 -0.1859 -0.6725  0.9205
  750MOL0     C 3389   3.243   4.231   6.881  0.4195  0.6890 -0.6298
  750MOL0     C 3390   3.359   4.213   6.790  0.6810  0.1629  0.5925
  750MOL0     C 3391   3.245   4.329   6.987 -0.0789 -0.2193  0.0495
  750MOL0     C 3392   3.346   4.434   7.016 -0.2949 -0.1895  0.9732
  750MOL0     O 3393   3.344   4.495   7.140 -0.5644  0.0035 -0.0925
  750MOL0     C 3394   3.454   4.573   7.179 -0.0052 -0.1207 -0.3149
  750MOL0     C 3395   3.514   4.544   7.299 -0.5371 -0.9512  0.3599
  750MOL0     C 3396   3.616   4.630   7.346 -0.1392  0.1874  0.2502
  750MOL0     C 3397   3.656   4.748   7.275  0.2039 -0.9151 -0.4212
  750MOL0     O 3398   3.740   4.847   7.324  0.9569  0.1902 -0.1768
  750MOL0     C 3399   3.818   4.816   7.429 -0.2911 -0.3382  0.2537
  750MOL0     C 3400   3.915   4.934   7.421  0.6876  0.0229 -0.7630
  750MOL0     C 3401   4.025   4.922   7.312 -1.1463  0.2630 -0.1110
  750MOL0     C 3402   4.084   5.061   7.279  0.4211 -0.5038  1.2266
  750MOL0     C 3403   4.161   5.135   7.383 -0.1211  0.7236  0.1308
  750MOL0     C 3404   4.266   5.050   7.460 -0.0226  0.0556 -0.2772
  750MOL0     C 3405   4.362   5.125   7.549  0.6654 -0.1648 -0.3565
  750MOL0     C 3406   4.476   5.186   7.469  0.9550  1.2997 -1.0802
  750MOL0    Cl 3407   4.619   5.190   7.586 -0.0244 -0.3409  0.0544
  750MOL0     C 3408   3.609   4.766   7.149  0.0321 -0.2004 -0.2894
  750MOL0     C 3409   3.499   4.685   7.106 -0.2656 -0.0666  0.5521
  750MOL0     O 3410   3.434   4.453   6.930  0.0392  1.2153 -0.1899
  750MOL0     C 3411   3.138   4.319   7.084 -0.8594  0.3215  0.6873
  750MOL0     C 3412   3.030   4.237   7.061  0.3153  0.1778 -0.2397
  750MOL0     N 3413   2.448   3.704   7.275 -0.9965 -0.0650 -0.6540
  750MOL0     N 3414   2.321   3.703   7.282  0.1797 -0.1052 -0.5555
  750MOL0     C 3415   1.283   3.323   7.071  0.0051 -0.8729 -0.0958
  750MOL0     C 3416   1.175   3.389   7.130 -0.2431 -0.1012 -0.0152
  750MOL0     C 3417   0.812   3.680   7.100 -0.0845 -0.4975 -0.0924
  750MOL0     C 3418   0.685   3.680   7.037  0.0636  0.5751 -0.4256
  750MOL0     C 3419   0.578   3.761   7.064  0.5047 -0.3392  0.3173
  750MOL0     C 3420   0.585   3.856   7.169 -0.0646  0.1797  0.8279
  750MOL0     O 3421   0.483   3.941   7.205  0.1122  0.1769  0.1138
  750MOL0     C 3422   0.354   3.930   7.122  0.0390 -0.3794  0.1136
  750MOL0     C 3423   0.270   4.049   7.148  0.3217  0.2331  0.3477
  750MOL0     C 3424   0.172   4.034   7.273 -0.8937  0.7275 -0.4390
  750MOL0     C 3425   0.068   4.138   7.293 -0.5422  0.4255 -0.0157
  750MOL0     C 3426   0.116   4.278   7.327  0.1812 -0.0791  0.0642
  750MOL0     C 3427   0.161   4.386   7.336  0.5295 -0.2001 -0.0906
  750MOL0     C 3428   0.710   3.855   7.238 -0.2289  0.3145 -0.4570
  750MOL0     C 3429   0.825   3.778   7.199 -0.7958 -0.0415 -0.1845
  750MOL0     C 3430   0.954   3.809   7.284  0.3212 -0.4205  0.5552
  750MOL0     H 3431   1.205   3.681   6.949 -1.8767  0.1363  1.6231
  750MOL0     H 3432   1.379   3.566   6.849 -0.1245  1.1639  0.8062
  750MOL0     H 3433   1.581   3.470   6.833  0.8172 -0.0163 -0.7989
  750MOL0     H 3434   1.471   3.386   6.724 -0.8746  3.0218  1.0518
  750MOL0     H 3435   1.617   3.177   6.815 -2.9200  0.8146  1.7696
  750MOL0     H 3436   1.668   3.287   6.686  1.1407  0.7209  0.0345
  750MOL0     H 3437   1.741   3.354   6.966  0.2663  1.6267 -0.5764
  750MOL0     H 3438   1.849   3.249   6.869  1.8806  0.6717  2.9520
  750MOL0     H 3439   1.877   3.443   6.714  1.0668  0.1337  0.8264
  750MOL0     H 3440   1.782   3.538   6.813  0.3908 -0.1600  1.0491
  750MOL0     H 3441   2.025   3.571   6.857  2.8544 -0.0838  2.9470
  750MOL0     H 3442   2.039   3.402   6.894 -2.6379 -2.7316  2.0625
  750MOL0     H 3443   1.903   3.598   7.075 -0.2748 -0.2335  0.3413
  750MOL0     H 3444   1.921   3.418   7.106  1.3434  0.9786  3.2779
  750MOL0     H 3445   2.183   3.472   7.054  0.7241 -1.6235  1.2192
  750MOL0     H 3446   2.097   3.478   7.208 -0.3377 -3.0704 -1.0688
  750MOL0     H 3447   2.117   3.713   7.024  0.8470 -1.9175 -1.0172
  750MOL0     H 3448   2.064   3.721   7.196  3.0978 -0.2239  3.2616
  750MOL0     H 3449   2.380   3.721   6.961 -0.5723  0.4871  0.4200
  750MOL0     H 3450   2.623   3.694   6.971  3.2725  1.3942 -0.6398
  750MOL0     H 3451   2.694   3.635   7.114  0.6938  1.7313  2.6737
  750MOL0     H 3452   2.610   3.932   7.110 -0.0787  0.2362  1.5149
  750MOL0     H 3453   2.723   3.847   7.216  0.1768  1.4270 -0.5953
  750MOL0     H 3454   2.866   3.820   6.997  0.4826 -0.2683 -0.1199
  750MOL0     H 3455   2.727   3.916   6.919 -0.8854  3.8578  1.2339
  750MOL0     H 3456   2.773   4.102   7.071  1.5152  0.5968  1.4179
  750MOL0     H 3457   2.907   4.012   7.134 -1.2113  3.9751  1.3080
  750MOL0     H 3458   3.125   4.086   6.776  2.3479 -0.4736  0.4950
  750MOL0     H 3459   3.363   4.291   6.712  0.1438 -1.6673 -1.3641
  750MOL0     H 3460   3.355   4.124   6.726 -0.0971 -1.4533  2.7966
  750MOL0     H 3461   3.451   4.226   6.847  0.3464  1.3268  0.8912
  750MOL0     H 3462   3.482   4.454   7.351 -0.0265 -1.0645  0.4842
  750MOL0     H 3463   3.670   4.617   7.439  0.5147  3.2506  0.4316
  750MOL0     H 3464   3.762   4.821   7.523  1.0178  0.9409  1.0071
  750MOL0     H 3465   3.875   4.722   7.430  0.0894 -0.1125  0.1486
  750MOL0     H 3466   3.854   5.025   7.430 -2.5179 -2.0627  0.6353
  750MOL0     H 3467   3.962   4.927   7.520  2.5274  1.6328 -1.4744
  750MOL0     H 3468   3.978   4.876   7.224 -0.5156 -2.4756  0.9033
  750MOL0     H 3469   4.101   4.850   7.345  0.1616  1.4065 -0.5333
  750MOL0     H 3470   4.000   5.129   7.260 -1.4273 -1.8970  3.8429
  750MOL0     H 3471   4.152   5.054   7.194  0.9884  0.9410  1.5172
  750MOL0     H 3472   4.207   5.216   7.325 -2.3075  0.9920 -1.3486
  750MOL0     H 3473   4.096   5.178   7.460  0.4380  1.9721 -0.0599
  750MOL0     H 3474   4.327   4.991   7.392  0.9056 -0.3133  0.8438
  750MOL0     H 3475   4.204   4.979   7.515  0.1981  1.0210  1.3118
  750MOL0     H 3476   4.400   5.064   7.632  1.4092 -1.8327 -1.8622
  750MOL0     H 3477   4.301   5.207   7.588 -0.9518 -1.2114 -0.6097
  750MOL0     H 3478   4.463   5.287   7.430  0.0987  1.1469 -1.2104
  750MOL0     H 3479   4.503   5.120   7.386 -0.6506  0.6174 -1.0833
  750MOL0     H 3480   3.648   4.852   7.095 -2.1926 -0.1410 -1.9408
  750MOL0     H 3481   3.450   4.708   7.012 -3.3779 -0.1593  2.0395
  750MOL0     H 3482   3.129   4.382   7.172  1.8086 -0.7520  1.8116
  750MOL0     H 3483   2.958   4.239   7.142  0.6506  0.9067  0.0519
  750MOL0     H 3484   1.313   3.225   7.108 -0.6894 -1.1249 -0.1727
  750MOL0     H 3485   1.113   3.344   7.207 -0.0529  0.7965  0.6923
  750MOL0     H 3486   0.663   3.619   6.949  1.0287  0.5313 -0.6444
  750MOL0     H 3487   0.488   3.736   7.009 -1.3659  0.3478  2.8613
  750MOL0     H 3488   0.370   3.924   7.014 -2.5180 -2.9202 -0.2423
  750MOL0     H 3489   0.300   3.839   7.151 -0.4826  0.0863  0.6031
  750MOL0     H 3490   0.204   4.065   7.062  0.5667 -0.9857 -0.0917
  750MOL0     H 3491   0.331   4.139   7.162  1.6693 -0.7602  1.0623
  750MOL0     H 3492   0.130   3.935   7.256  0.6823 -0.2171  0.8485
  750MOL0     H 3493   0.239   4.028   7.359  1.0344  0.8580 -1.8661
  750MOL0     H 3494   0.015   4.101   7.381 -0.0925 -0.1663  0.0129
  750MOL0     H 3495  -0.004   4.136   7.211 -2.6900 -2.0048  1.7897
  750MOL0     H 3496   0.202   4.484   7.352 -0.2243  0.1949 -0.5074
  750MOL0     H 3497   0.720   3.926   7.319  0.3337 -0.5871  0.2932
  750MOL0     H 3498   1.035   3.841   7.219 -0.6648  3.4561  0.9667
  750MOL0     H 3499   0.931   3.888   7.356  0.1453  1.9065 -1.9149
  750MOL0     H 3500   0.984   3.725   7.348  0.7169  0.9048  2.1879
  751MOL0     O 3501   8.506  10.953   1.023 -0.1003  0.2711  0.6000
  751MOL0     C 3502   8.525  11.055   0.956  0.1197 -0.2613 -0.1424
  751MOL0     O 3503   8.576  11.062   0.833  0.5166 -0.4651 -0.2516
  751MOL0     C 3504   8.567  10.948   0.757  1.0852  0.3355 -1.2877
  751MOL0     C 3505   8.624  10.818   0.785  0.1444 -0.6467 -0.9619
  751MOL0     C 3506   8.625  10.718   0.679  0.2053  0.0317  0.2372
  751MOL0     C 3507   8.554  10.733   0.562 -0.0033 -0.0443  0.5209
  751MOL0     O 3508   8.577  10.635   0.469  0.6165 -0.5835  0.3276
  751MOL0     C 3509   8.466  10.633   0.372  0.2679 -0.5320 -0.2704
  751MOL0     C 3510   8.448  10.487   0.317 -0.0910  0.0403 -0.0966
  751MOL0     C 3511   8.308  10.459   0.240 -0.0021 -0.6965 -1.0093
  751MOL0     C 3512   8.326  10.352   0.132 -0.7358 -0.4858  0.9583
  751MOL0     C 3513   8.355  10.219   0.192  0.4767  0.2851 -0.9691
  751MOL0     C 3514   8.375  10.110   0.084 -0.5397 -0.0950 -0.1531
  751MOL0     C 3515   8.439   9.974   0.132 -0.4681 -0.2149 -0.2962
  751MOL0     C 3516   8.355   9.929   0.254 -0.7956  0.1179 -0.3862
  751MOL0     N 3517   8.401   9.796   0.284  0.0272 -0.4853  0.1675
  751MOL0     C 3518   8.354   9.680   0.238 -1.8286  0.1240 -0.1939
  751MOL0     C 3519   8.431   9.588   0.303  0.7479  0.3785 -0.2794
  751MOL0     C 3520   8.426   9.442   0.272  0.5812 -0.4848 -0.4227
  751MOL0     C 3521   8.562   9.384   0.284  0.0698  0.5442 -1.1428
  751MOL0     C 3522   8.569   9.241   0.228  0.1822  0.4394  0.1342
  751MOL0     C 3523   8.715   9.186   0.246  0.1875  1.3211  0.0016
  751MOL0     O 3524   8.811   9.240   0.152 -0.0018 -0.2237  0.3127
  751MOL0     C 3525   8.937   9.185   0.163 -0.9563  0.2732 -0.0384
  751MOL0     C 3526   9.024   9.248   0.251  0.4744  0.1937  0.8406
  751MOL0     C 3527   9.156   9.193   0.282  0.7489 -0.7948 -0.8019
  751MOL0     C 3528   9.246   9.280   0.358 -0.0608  0.9728  0.5818
  751MOL0     C 3529   9.191   9.066   0.223 -1.0667 -0.7851  0.0197
  751MOL0     C 3530   9.312   8.994   0.264 -0.5943 -0.5792 -0.1377
  751MOL0     O 3531   9.338   8.887   0.182 -0.1371 -0.2980 -0.1779
  751MOL0     C 3532   9.435   8.803   0.217 -0.6918  0.5782  0.6483
  751MOL0     C 3533   9.440   8.736   0.344 -0.3985 -0.9709  0.1805
  751MOL0     C 3534   9.549   8.658   0.369 -0.0036  1.4042  1.0401
  751MOL0     C 3535   9.649   8.644   0.275 -0.3945 -0.2359  0.4543
  751MOL0     O 3536   9.760   8.563   0.294  0.0830  0.0963 -0.1927
  751MOL0     C 3537   9.768   8.460   0.395 -0.1859 -0.1059  0.0040
  751MOL0     C 3538   9.871   8.345   0.368 -0.2895  0.7856 -0.0307
  751MOL0     C 3539  10.006   8.400   0.324 -0.2090  0.1146 -0.0787
  751MOL0     C 3540  10.076   8.471   0.435 -0.4070 -0.3135 -0.2196
  751MOL0     C 3541  10.218   8.423   0.461  0.3931  0.5260  0.0353
  751MOL0     C 3542  10.276   8.484   0.587 -0.4680 -0.1184  0.0464
  751MOL0     C 3543  10.421   8.437   0.629 -0.4135  0.8006 -0.5294
  751MOL0     C 3544  10.529   8.504   0.543  0.3563 -0.2504 -0.4695
  751MOL0    Cl 3545  10.681   8.483   0.636 -0.2173  0.3099  0.8074
  751MOL0     C 3546   9.648   8.707   0.150  0.1310  0.4487  0.2453
  751MOL0     C 3547   9.539   8.787   0.124  1.0527  0.0599 -0.1513
  751MOL0     O 3548   9.382   9.030   0.358 -0.0108  0.6077  0.1373
  751MOL0     C 3549   9.106   9.010   0.131  0.7811  0.0937 -0.3973
  751MOL0     C 3550   8.980   9.071   0.102  0.2292 -0.2602 -0.0805
  751MOL0     N 3551   8.516   9.646   0.391 -0.0243  0.1147  0.0759
  751MOL0     N 3552   8.492   9.773   0.384 -0.0484 -1.1355 -0.3294
  751MOL0     C 3553   8.498  10.863   0.538  0.4727 -1.0590  0.1446
  751MOL0     C 3554   8.505  10.967   0.630  0.4686  0.7848  0.5500
  751MOL0     C 3555   8.485  11.184   1.016 -0.5503 -1.2403  1.0155
  751MOL0     C 3556   8.575  11.289   0.988  0.2153  0.0745 -0.4250
  751MOL0     C 3557   8.549  11.416   1.035  0.1465 -0.0786  0.6450
  751MOL0     C 3558   8.425  11.446   1.088  0.5482 -0.8988  0.9272
  751MOL0     O 3559   8.384  11.572   1.134 -0.1790  0.4151  0.6134
  751MOL0     C 3560   8.433  11.700   1.088  1.0151  0.3078 -0.0585
  751MOL0     C 3561   8.400  11.742   0.941  0.4115  0.9300 -0.2549
  751MOL0     C 3562   8.250  11.746   0.919  0.0189  0.4397  0.9364
  751MOL0     C 3563   8.219  11.820   0.788 -0.5317  0.1337  0.4485
  751MOL0     C 3564   8.081  11.815   0.745  0.3281  0.3249  0.3973
  751MOL0     C 3565   7.964  11.816   0.697 -0.8858  0.1273  0.2205
  751MOL0     C 3566   8.328  11.348   1.104  0.1378 -0.6972  0.0290
  751MOL0     C 3567   8.359  11.219   1.060  1.1690 -0.5593 -0.4187
  751MOL0     C 3568   8.251  11.125   1.035 -0.0452 -0.4985  0.0774
  751MOL0     H 3569   8.680  10.815   0.878  0.9042  0.6964 -1.3482
  751MOL0     H 3570   8.674  10.625   0.707 -1.3703  0.0495  3.5333
  751MOL0     H 3571   8.488  10.705   0.292  0.7266  1.4929  1.5876
  751MOL0     H 3572   8.376  10.657   0.429  1.2876 -0.8295  1.5239
  751MOL0     H 3573   8.533  10.460   0.252  0.6458  1.2072  0.3514
  751MOL0     H 3574   8.449  10.421   0.404  0.0163  0.8221  0.5021
  751MOL0     H 3575   8.232  10.435   0.314  0.7090 -2.2014 -0.7478
  751MOL0     H 3576   8.279  10.554   0.193 -0.6154 -1.7671 -2.8784
  751MOL0     H 3577   8.239  10.338   0.066  1.0667 -1.0614 -1.4576
  751MOL0     H 3578   8.399  10.380   0.055 -3.9344  0.7221 -1.9007
  751MOL0     H 3579   8.276  10.204   0.265 -1.1250  1.5564 -2.3478
  751MOL0     H 3580   8.448  10.219   0.250 -1.5849 -0.3886  2.5881
  751MOL0     H 3581   8.289  10.081   0.022 -2.0491 -2.0735  2.6187
  751MOL0     H 3582   8.437  10.153   0.005 -1.1815 -1.9866 -1.7842
  751MOL0     H 3583   8.542   9.993   0.165 -0.6812 -0.9200  0.8148
  751MOL0     H 3584   8.450   9.897   0.056  0.2311 -2.1522  1.6400
  751MOL0     H 3585   8.388   9.989   0.339  1.4309 -0.8517 -0.4703
  751MOL0     H 3586   8.246   9.928   0.251 -0.9101 -0.3270  2.0468
  751MOL0     H 3587   8.291   9.658   0.152  0.9685 -0.3063 -2.2903
  751MOL0     H 3588   8.390   9.433   0.170  0.7493 -1.7968 -0.3856
  751MOL0     H 3589   8.366   9.377   0.337  1.8977 -3.4830 -1.9732
  751MOL0     H 3590   8.639   9.445   0.235  1.9701 -0.3451  0.5527
  751MOL0     H 3591   8.592   9.379   0.390  1.7176 -2.9887 -1.6324
  751MOL0     H 3592   8.500   9.179   0.285  0.0871 -1.6293 -2.0773
  751MOL0     H 3593   8.542   9.242   0.122  0.2163 -0.2738  0.1181
  751MOL0     H 3594   8.747   9.202   0.349 -0.7463  0.2998  0.4620
  751MOL0     H 3595   8.713   9.078   0.229  1.1709  0.9262  2.0553
  751MOL0     H 3596   9.001   9.351   0.276 -1.3776 -0.3149  1.3862
  751MOL0     H 3597   9.336   9.311   0.304 -1.1352  5.7457  1.1044
  751MOL0     H 3598   9.287   9.235   0.449  0.1467 -0.8150 -0.3591
  751MOL0     H 3599   9.189   9.365   0.398  3.1297  4.0424 -0.8600
  751MOL0     H 3600   9.366   8.747   0.424 -0.4641  1.2041 -0.1282
  751MOL0     H 3601   9.557   8.610   0.466  2.4666 -0.5534 -0.0199
  751MOL0     H 3602   9.793   8.512   0.488  0.6929  2.4281 -1.5611
  751MOL0     H 3603   9.676   8.401   0.404 -0.1519 -0.2469 -0.5336
  751MOL0     H 3604   9.895   8.283   0.455 -0.2132  2.3919  1.1483
  751MOL0     H 3605   9.830   8.290   0.283  2.6782 -0.7262 -0.6067
  751MOL0     H 3606   9.992   8.462   0.235  0.1026  2.0491  1.1518
  751MOL0     H 3607  10.060   8.307   0.302 -1.0283 -0.3972  0.0613
  751MOL0     H 3608  10.022   8.465   0.531  0.1434  0.7886  0.1773
  751MOL0     H 3609  10.088   8.577   0.413 -1.1917  0.7058  3.4805
  751MOL0     H 3610  10.227   8.314   0.461 -0.0470  0.4350  2.1801
  751MOL0     H 3611  10.278   8.450   0.374 -1.8362  0.6333 -1.5484
  751MOL0     H 3612  10.201   8.457   0.662  0.9245 -1.0644  1.1549
  751MOL0     H 3613  10.278   8.591   0.569 -1.0992 -0.0341  0.4222
  751MOL0     H 3614  10.428   8.328   0.627  0.6257  0.7503  2.2824
  751MOL0     H 3615  10.436   8.466   0.733 -1.6716  2.4492 -0.7609
  751MOL0     H 3616  10.502   8.609   0.532  0.9953  0.0275  0.4765
  751MOL0     H 3617  10.533   8.456   0.444  1.4271  1.0441 -1.0753
  751MOL0     H 3618   9.728   8.689   0.080 -2.7921  0.2380 -3.3427
  751MOL0     H 3619   9.541   8.836   0.027 -1.0984  1.6483  0.5172
  751MOL0     H 3620   9.129   8.919   0.076 -1.2291 -0.1320 -0.9503
  751MOL0     H 3621   8.905   9.025   0.039 -1.3072  1.3453  0.4855
  751MOL0     H 3622   8.445  10.888   0.447  1.3372  2.4864  0.4557
  751MOL0     H 3623   8.461  11.063   0.604 -1.4151 -0.6393 -1.9486
  751MOL0     H 3624   8.665  11.271   0.930 -0.5698  0.9761 -1.9752
  751MOL0     H 3625   8.622  11.496   1.023  1.3761 -1.5279 -3.2703
  751MOL0     H 3626   8.391  11.775   1.155  1.5427 -1.3124  2.2151
  751MOL0     H 3627   8.542  11.702   1.097  0.9397  0.4517  0.8746
  751MOL0     H 3628   8.462  11.675   0.880  2.6270  1.7900  0.9030
  751MOL0     H 3629   8.442  11.844   0.943  0.7760  0.9107  4.2371
  751MOL0     H 3630   8.213  11.644   0.907 -2.2126  1.1430  1.4150
  751MOL0     H 3631   8.195  11.785   1.005 -1.5209 -0.0749  0.2148
  751MOL0     H 3632   8.269  11.769   0.705  4.3422  2.7137  1.4230
  751MOL0     H 3633   8.268  11.917   0.796  2.6975 -0.8544 -3.4351
  751MOL0     H 3634   7.860  11.802   0.673  0.0942 -0.8774 -4.4985
  751MOL0     H 3635   8.241  11.376   1.164 -0.0210 -0.5221 -0.2819
  751MOL0     H 3636   8.161  11.163   1.085 -0.8161 -1.2434 -0.7097
  751MOL0     H 3637   8.247  11.118   0.926 -0.3066  0.4342  0.0200
  751MOL0     H 3638   8.271  11.025   1.074  1.1615 -0.4000 -0.2411
  752MOL0     O 3639   5.218  11.275   8.447 -0.7569 -0.0317 -0.0226
  752MOL0     C 3640   5.147  11.303   8.352  0.8718  0.2671  0.1861
  752MOL0     O 3641   5.181  11.327   8.219  0.9093 -0.2205 -0.3466
  752MOL0     C 3642   5.315  11.319   8.191 -0.6641 -0.1505  0.8949
  752MOL0     C 3643   5.417  11.398   8.251  0.6654 -0.6313  0.4404
  752MOL0     C 3644   5.553  11.379   8.218  0.3436 -0.3013 -0.3976
  752MOL0     C 3645   5.593  11.286   8.122 -0.0764 -0.9960  0.3413
  752MOL0     O 3646   5.724  11.269   8.097 -0.8403 -0.1591  0.5598
  752MOL0     C 3647   5.758  11.211   7.972 -0.1278  0.4597 -0.2025
  752MOL0     C 3648   5.910  11.221   7.948  0.1875 -0.8922  0.8320
  752MOL0     C 3649   5.993  11.152   8.054 -0.0612  0.1166 -1.1010
  752MOL0     C 3650   5.968  11.005   8.073 -0.3353 -0.1359  0.1146
  752MOL0     C 3651   6.067  10.953   8.180 -1.1866  0.7452  0.1869
  752MOL0     C 3652   6.063  10.801   8.184 -0.0225 -0.0303  0.0095
  752MOL0     C 3653   5.999  10.752   8.312  1.1626 -0.2225  0.2364
  752MOL0     C 3654   6.101  10.766   8.422  0.4963  0.1636 -0.7632
  752MOL0     N 3655   6.069  10.710   8.559 -0.7414 -0.3051  0.6483
  752MOL0     C 3656   6.134  10.750   8.681 -0.2900  0.4829  0.4961
  752MOL0     C 3657   6.074  10.676   8.775  0.2727  0.9353  0.2654
  752MOL0     C 3658   6.116  10.670   8.918  0.8405  0.2528  0.4145
  752MOL0     C 3659   6.177  10.540   8.952 -0.7442  0.8744  0.5329
  752MOL0     C 3660   6.194  10.509   9.103  0.2404  0.2445 -0.0014
  752MOL0     C 3661   6.293  10.389   9.136 -0.3341 -0.2063 -0.1999
  752MOL0     O 3662   6.417  10.433   9.092  0.2449  0.5367  0.0288
  752MOL0     C 3663   6.531  10.364   9.139 -0.4209  0.6395 -0.4388
  752MOL0     C 3664   6.536  10.225   9.185 -0.3521 -0.4054  1.5292
  752MOL0     C 3665   6.662  10.166   9.199  0.0788 -0.0226  0.0096
  752MOL0     C 3666   6.648  10.026   9.267  0.8062 -0.5509  0.4397
  752MOL0     C 3667   6.791  10.231   9.189 -0.3988  0.3914  0.1158
  752MOL0     C 3668   6.926  10.178   9.212 -0.3637  0.3271 -0.3767
  752MOL0     O 3669   7.033  10.260   9.208 -0.0206  0.0257  0.2226
  752MOL0     C 3670   7.167  10.218   9.232  0.2890 -0.0138 -0.0110
  752MOL0     C 3671   7.204  10.105   9.318  0.1090 -0.1766 -0.1773
  752MOL0     C 3672   7.334  10.056   9.321 -0.4510 -0.3250 -0.2743
  752MOL0     C 3673   7.438  10.129   9.256  0.5323 -0.5172  0.4267
  752MOL0     O 3674   7.574  10.093   9.266  0.4170 -0.2284  0.2395
  752MOL0     C 3675   7.620  10.055   9.392 -0.4833  0.1447  0.2489
  752MOL0     C 3676   7.769  10.016   9.383  0.1278  0.2773 -0.1495
  752MOL0     C 3677   7.814   9.943   9.510  0.0323 -0.1668 -0.1063
  752MOL0     C 3678   7.790   9.800   9.508  0.0593 -0.0626  0.1028
  752MOL0     C 3679   7.882   9.731   9.410 -1.1059  0.1322 -0.3322
  752MOL0     C 3680   8.032   9.752   9.409  0.5427 -0.4991 -0.0954
  752MOL0     C 3681   8.097   9.703   9.543  0.3869  0.0637 -0.5523
  752MOL0     C 3682   8.247   9.724   9.551  0.0234 -0.3291 -0.3991
  752MOL0    Cl 3683   8.296   9.888   9.503 -0.1437  0.4188  0.3248
  752MOL0     C 3684   7.397  10.242   9.181  0.2401  0.7949  0.4670
  752MOL0     C 3685   7.267  10.281   9.162  1.1537  0.6446 -0.2657
  752MOL0     O 3686   6.931  10.055   9.218  0.5897 -0.3716  0.2704
  752MOL0     C 3687   6.780  10.357   9.138 -1.2868 -1.1502  0.2545
  752MOL0     C 3688   6.659  10.419   9.104 -0.1474 -0.2430  1.3593
  752MOL0     N 3689   5.971  10.605   8.716 -0.5928 -0.5114  0.8630
  752MOL0     N 3690   5.962  10.628   8.585  0.3498 -0.2810 -0.3767
  752MOL0     C 3691   5.491  11.210   8.067 -0.1551 -0.5629  0.0654
  752MOL0     C 3692   5.359  11.231   8.092 -0.1298 -0.5935 -0.8821
  752MOL0     C 3693   5.000  11.305   8.381  0.1937 -0.7500 -0.6947
  752MOL0     C 3694   4.939  11.188   8.434 -0.4362 -0.3556  0.1445
  752MOL0     C 3695   4.803  11.178   8.458 -1.0137 -0.0174 -0.5821
  752MOL0     C 3696   4.712  11.283   8.425  0.0223 -0.3398 -0.1748
  752MOL0     O 3697   4.580  11.266   8.465  0.1566  0.2996 -0.1401
  752MOL0     C 3698   4.481  11.369   8.437 -0.3435  0.1650 -0.0084
  752MOL0     C 3699   4.398  11.358   8.299  0.0168  0.1951 -0.3273
  752MOL0     C 3700   4.324  11.216   8.281  0.6664 -0.7833  0.6941
  752MOL0     C 3701   4.228  11.215   8.160  0.1037 -0.5893  0.4132
  752MOL0     C 3702   4.158  11.085   8.151  0.7201 -0.6673  0.0646
  752MOL0     C 3703   4.116  10.971   8.154 -0.7685 -0.3204  0.4475
  752MOL0     C 3704   4.769  11.393   8.366 -0.3142  0.4680  0.3120
  752MOL0     C 3705   4.915  11.415   8.346  0.6188 -0.2552  0.3771
  752MOL0     C 3706   4.970  11.537   8.284 -0.0844 -0.3564  0.3099
  752MOL0     H 3707   5.396  11.477   8.322  1.3002  1.6826 -1.7625
  752MOL0     H 3708   5.629  11.441   8.265  1.3510 -2.7215  1.3950
  752MOL0     H 3709   5.700  11.264   7.896 -0.7254 -0.6960 -0.5888
  752MOL0     H 3710   5.724  11.107   7.976  0.7301  0.0581 -2.2543
  752MOL0     H 3711   5.931  11.191   7.845  0.3302  0.7479  0.3543
  752MOL0     H 3712   5.934  11.327   7.932 -2.5462 -0.4360 -1.0348
  752MOL0     H 3713   6.102  11.157   8.042  0.3281 -3.7467 -0.6469
  752MOL0     H 3714   5.977  11.193   8.154 -0.0187 -0.3207 -0.9114
  752MOL0     H 3715   5.866  11.002   8.113 -1.2135 -0.2907 -1.9888
  752MOL0     H 3716   5.978  10.945   7.982 -3.0084  0.0066 -0.3620
  752MOL0     H 3717   6.022  10.996   8.270 -1.4677 -1.3159  1.0725
  752MOL0     H 3718   6.172  10.980   8.162 -0.7884 -1.9223 -2.1453
  752MOL0     H 3719   6.002  10.765   8.100  1.6007  0.5798 -1.4981
  752MOL0     H 3720   6.160  10.757   8.159 -1.0792 -1.4592 -1.9634
  752MOL0     H 3721   5.973  10.646   8.305  1.5065 -0.1884 -2.5933
  752MOL0     H 3722   5.906  10.808   8.331  1.8259  0.2064  2.5500
  752MOL0     H 3723   6.195  10.719   8.392  1.4301  0.0156  2.0227
  752MOL0     H 3724   6.135  10.869   8.437  1.1288 -0.3525  2.0368
  752MOL0     H 3725   6.223  10.812   8.678 -0.0800  0.1638 -2.6119
  752MOL0     H 3726   6.018  10.678   8.967 -0.9783 -3.2019 -2.2005
  752MOL0     H 3727   6.183  10.748   8.957 -1.6346  0.6120  4.5282
  752MOL0     H 3728   6.116  10.461   8.905 -0.8908 -0.2628  2.5344
  752MOL0     H 3729   6.276  10.537   8.906  0.3791 -2.3764  2.7982
  752MOL0     H 3730   6.249  10.595   9.141  2.9613 -1.3955  0.0261
  752MOL0     H 3731   6.093  10.494   9.143  0.9749 -1.9848  1.2308
  752MOL0     H 3732   6.306  10.376   9.243  0.8147  1.5242 -0.0817
  752MOL0     H 3733   6.261  10.296   9.089 -0.7425  0.6117 -1.6191
  752MOL0     H 3734   6.449  10.162   9.200 -1.3624  0.1313 -1.3571
  752MOL0     H 3735   6.673  10.036   9.373  0.3692  1.6062  0.3800
  752MOL0     H 3736   6.702   9.945   9.217  0.1406 -1.4717  1.1733
  752MOL0     H 3737   6.546   9.985   9.263  0.6723 -0.1876 -2.5608
  752MOL0     H 3738   7.136  10.055   9.387  0.3536  1.3063  1.1899
  752MOL0     H 3739   7.351   9.961   9.370 -0.2756  1.1601  2.7598
  752MOL0     H 3740   7.615  10.138   9.463  0.0005 -0.6048  1.1917
  752MOL0     H 3741   7.582   9.957   9.423 -2.7980  0.7778 -0.4294
  752MOL0     H 3742   7.791   9.963   9.290  1.1911  0.6871 -0.1435
  752MOL0     H 3743   7.816  10.114   9.373 -0.9834  0.8742  0.2386
  752MOL0     H 3744   7.764   9.990   9.595 -0.3289  0.1028 -0.4621
  752MOL0     H 3745   7.921   9.966   9.520 -0.0452  0.2618 -0.2381
  752MOL0     H 3746   7.685   9.781   9.485 -1.2367  3.3559  2.3681
  752MOL0     H 3747   7.808   9.763   9.610 -0.4842  1.5515  0.8230
  752MOL0     H 3748   7.869   9.625   9.434  2.1608 -0.4225 -0.5716
  752MOL0     H 3749   7.851   9.754   9.308  0.2001  2.1774 -0.3122
  752MOL0     H 3750   8.055   9.855   9.381 -0.2247 -0.2462  0.1875
  752MOL0     H 3751   8.068   9.696   9.322 -0.1002 -0.2037 -0.5631
  752MOL0     H 3752   8.088   9.596   9.564  4.9786 -0.4600 -0.2327
  752MOL0     H 3753   8.057   9.761   9.626 -1.2618 -1.3671 -0.2917
  752MOL0     H 3754   8.294   9.646   9.492  1.3032 -0.9005  1.3101
  752MOL0     H 3755   8.281   9.707   9.654  0.7055 -0.8471 -0.7070
  752MOL0     H 3756   7.463  10.309   9.127  0.7168 -0.5290 -0.6350
  752MOL0     H 3757   7.244  10.371   9.106 -0.9422  0.2227 -0.1494
  752MOL0     H 3758   6.868  10.418   9.116 -1.3671 -0.4643  1.6828
  752MOL0     H 3759   6.656  10.509   9.043  2.6492 -1.0427 -0.1269
  752MOL0     H 3760   5.518  11.127   8.003 -0.0544 -1.0433  0.7241
  752MOL0     H 3761   5.290  11.164   8.042  0.3488  0.1858 -2.7119
  752MOL0     H 3762   5.004  11.105   8.462 -0.1052 -0.2993 -0.4258
  752MOL0     H 3763   4.760  11.097   8.516 -0.7583 -1.1052 -1.8482
  752MOL0     H 3764   4.403  11.360   8.513 -0.6341 -1.5888 -0.4707
  752MOL0     H 3765   4.522  11.471   8.441 -2.8673  1.2509 -0.0538
  752MOL0     H 3766   4.458  11.379   8.210  0.8187  1.6668  0.5240
  752MOL0     H 3767   4.328  11.442   8.296  3.3106  3.1860  0.1687
  752MOL0     H 3768   4.408  11.151   8.257  1.2055  0.7528 -2.0431
  752MOL0     H 3769   4.267  11.185   8.369 -2.3088 -0.3827 -0.9499
  752MOL0     H 3770   4.296  11.218   8.074  0.0444  0.8262  0.3864
  752MOL0     H 3771   4.155  11.296   8.155 -2.2001 -2.6027 -2.1914
  752MOL0     H 3772   4.070  10.874   8.156 -2.6932  0.4670 -1.2653
  752MOL0     H 3773   4.698  11.469   8.333  0.3245  1.5351  1.3077
  752MOL0     H 3774   4.908  11.621   8.318  0.6572  0.6192 -0.7064
  752MOL0     H 3775   5.062  11.562   8.339 -1.0750  1.4937  1.2494
  752MOL0     H 3776   4.974  11.531   8.175 -2.9662  0.3142  0.0896
  753MOL0     O 3777   6.949   9.434   8.064 -0.3848  0.6251  0.6996
  753MOL0     C 3778   6.892   9.350   7.990  0.1565 -0.0249  0.2610
  753MOL0     O 3779   6.756   9.352   7.955 -0.2773  0.2587 -0.4050
  753MOL0     C 3780   6.686   9.466   7.980 -0.2708 -0.4415 -0.4915
  753MOL0     C 3781   6.679   9.573   7.884 -0.5219  0.0656  0.3613
  753MOL0     C 3782   6.615   9.696   7.920  0.4213  0.1685 -0.8512
  753MOL0     C 3783   6.554   9.723   8.044  1.2572  0.1716  1.2323
  753MOL0     O 3784   6.485   9.838   8.068 -0.8322 -0.3044 -0.5756
  753MOL0     C 3785   6.581   9.943   8.093 -0.3299  0.1489  1.0051
  753MOL0     C 3786   6.504  10.072   8.104 -0.4538 -0.0503  0.6055
  753MOL0     C 3787   6.353  10.063   8.131  0.4060 -0.0714 -0.7377
  753MOL0     C 3788   6.324  10.029   8.280 -0.7692  0.0620 -0.0860
  753MOL0     C 3789   6.178  10.061   8.328 -0.8818  1.0143  0.0712
  753MOL0     C 3790   6.071   9.982   8.244 -0.3345 -0.5433 -0.4169
  753MOL0     C 3791   6.079   9.824   8.261 -0.8342 -0.6814 -0.8007
  753MOL0     C 3792   5.994   9.755   8.164 -0.2926 -0.2225 -0.0260
  753MOL0     N 3793   6.031   9.784   8.024  0.6758  0.4897  0.8907
  753MOL0     C 3794   6.160   9.764   7.978  0.1525 -0.5264 -0.2966
  753MOL0     C 3795   6.153   9.802   7.848  0.0157  0.7844  0.8455
  753MOL0     C 3796   6.255   9.800   7.738  0.6066 -0.3892  0.3196
  753MOL0     C 3797   6.246   9.671   7.654 -0.4413  0.4439 -0.0443
  753MOL0     C 3798   6.227   9.541   7.733  0.4051 -0.6519  0.2728
  753MOL0     C 3799   6.251   9.416   7.641 -0.2379 -0.3287 -0.3053
  753MOL0     O 3800   6.155   9.427   7.532 -0.2995 -0.0080  0.6538
  753MOL0     C 3801   6.115   9.306   7.475  1.1864  0.2331  0.2341
  753MOL0     C 3802   6.180   9.180   7.490  0.1209 -0.4930 -0.0833
  753MOL0     C 3803   6.138   9.065   7.422  0.0812  0.1243 -0.0886
  753MOL0     C 3804   6.240   8.950   7.429 -0.2425 -0.2704 -0.2399
  753MOL0     C 3805   6.014   9.061   7.348 -0.7281 -0.9426 -0.1226
  753MOL0     C 3806   5.952   8.950   7.280  0.2024  0.1289 -0.0434
  753MOL0     O 3807   5.832   8.976   7.218 -0.1302  0.5966 -0.4754
  753MOL0     C 3808   5.760   8.884   7.140 -0.6264 -0.1214 -0.5290
  753MOL0     C 3809   5.628   8.916   7.123  1.0687 -0.2793 -0.0082
  753MOL0     C 3810   5.539   8.833   7.056  0.6147 -0.0342  0.1472
  753MOL0     C 3811   5.577   8.706   6.998  0.1078  0.0080  0.2217
  753MOL0     O 3812   5.504   8.617   6.931 -0.2291 -0.4965 -0.2031
  753MOL0     C 3813   5.369   8.664   6.895  0.2942 -0.2106 -0.4195
  753MOL0     C 3814   5.304   8.560   6.809 -1.1703  0.3692  0.5155
  753MOL0     C 3815   5.355   8.552   6.669  0.2130 -0.1087  0.1269
  753MOL0     C 3816   5.292   8.435   6.586 -0.3425 -0.2980  0.0876
  753MOL0     C 3817   5.152   8.468   6.544 -0.6541  1.4480  0.3328
  753MOL0     C 3818   5.132   8.390   6.421 -0.4617 -0.1129  0.0648
  753MOL0     C 3819   4.980   8.369   6.406  0.0901  0.0124  0.2739
  753MOL0     C 3820   4.947   8.287   6.289 -0.6052  0.3621 -0.2279
  753MOL0    Cl 3821   4.976   8.403   6.159 -0.0063  0.2455  0.2929
  753MOL0     C 3822   5.717   8.677   7.014  0.1881  0.1236  0.1761
  753MOL0     C 3823   5.804   8.765   7.086  0.2085  0.0092  0.9145
  753MOL0     O 3824   6.006   8.838   7.283  0.2408 -0.5541 -0.3485
  753MOL0     C 3825   5.952   9.189   7.340  0.2973 -1.7111  0.4097
  753MOL0     C 3826   6.000   9.310   7.402  0.5575 -0.8250 -0.2163
  753MOL0     N 3827   6.026   9.833   7.811  0.1428 -0.4638 -0.0970
  753MOL0     N 3828   5.945   9.817   7.912 -0.0869 -0.6552 -0.3159
  753MOL0     C 3829   6.544   9.612   8.130  0.5207 -0.0373  0.3801
  753MOL0     C 3830   6.607   9.491   8.098 -0.2992 -0.1031 -0.0172
  753MOL0     C 3831   6.976   9.239   7.945  0.4781 -0.4127  0.3006
  753MOL0     C 3832   6.934   9.107   7.971  0.1716 -0.4421  0.4943
  753MOL0     C 3833   7.007   8.999   7.925  0.1797  0.1300  0.2854
  753MOL0     C 3834   7.118   9.015   7.843 -0.2504  0.5605  0.1804
  753MOL0     O 3835   7.157   8.898   7.785 -0.6295  0.1177 -0.1539
  753MOL0     C 3836   7.273   8.909   7.702  0.4100  0.4815  0.8090
  753MOL0     C 3837   7.327   8.771   7.651 -0.3578  0.6187 -0.3648
  753MOL0     C 3838   7.221   8.675   7.591  0.1915 -0.6513  0.7632
  753MOL0     C 3839   7.187   8.714   7.446 -0.7738 -0.4025 -0.1876
  753MOL0     C 3840   7.066   8.649   7.405  0.6033 -0.3127  0.4355
  753MOL0     C 3841   6.951   8.619   7.376 -0.8695  0.2146  0.0854
  753MOL0     C 3842   7.158   9.142   7.821 -1.1035 -0.0047  0.1462
  753MOL0     C 3843   7.091   9.256   7.866 -0.5246 -0.8752  1.2796
  753MOL0     C 3844   7.140   9.398   7.826 -0.7795  0.8064  0.7306
  753MOL0     H 3845   6.720   9.554   7.786  0.1572 -1.2607  0.8663
  753MOL0     H 3846   6.621   9.777   7.848  0.7752  1.2857  0.3995
  753MOL0     H 3847   6.645   9.959   8.007  0.2499 -1.0810  1.1984
  753MOL0     H 3848   6.646   9.925   8.180  1.0342 -2.0441 -0.3816
  753MOL0     H 3849   6.550  10.140   8.177  0.4270  0.7286 -0.6462
  753MOL0     H 3850   6.517  10.117   8.005  1.4316  0.0369  0.8540
  753MOL0     H 3851   6.306  10.158   8.105 -2.9811 -1.2922  0.3037
  753MOL0     H 3852   6.299   9.989   8.072  1.6435  0.3074 -2.3964
  753MOL0     H 3853   6.356   9.925   8.292 -1.7114 -0.4085 -1.4265
  753MOL0     H 3854   6.399  10.091   8.331  1.1047 -1.0897 -1.2940
  753MOL0     H 3855   6.163  10.169   8.331  0.8598  1.2614  1.7788
  753MOL0     H 3856   6.158  10.022   8.428 -0.1645  3.0284  1.0651
  753MOL0     H 3857   5.971  10.011   8.279 -0.7733  4.1323 -4.5510
  753MOL0     H 3858   6.070  10.005   8.137 -3.9052 -2.1270 -0.8889
  753MOL0     H 3859   6.048   9.791   8.360  0.4763  2.1002  0.6620
  753MOL0     H 3860   6.183   9.791   8.256 -0.4322  0.2765  0.6590
  753MOL0     H 3861   6.011   9.647   8.177 -1.9544 -0.4434  0.6091
  753MOL0     H 3862   5.886   9.765   8.174 -0.1503  0.6846  0.7523
  753MOL0     H 3863   6.251   9.731   8.027 -0.6296 -1.4679  0.5544
  753MOL0     H 3864   6.353   9.813   7.784  1.4688 -2.1994 -0.9006
  753MOL0     H 3865   6.238   9.887   7.673  1.3671 -2.5046 -2.9285
  753MOL0     H 3866   6.166   9.687   7.581  0.5152 -1.9441 -1.7008
  753MOL0     H 3867   6.333   9.670   7.588  0.2466  2.4595  0.7522
  753MOL0     H 3868   6.294   9.535   7.819 -0.7982 -3.0578  1.1347
  753MOL0     H 3869   6.126   9.538   7.775  0.5477  3.7506  1.4105
  753MOL0     H 3870   6.354   9.421   7.606 -0.1666  1.3236  0.0289
  753MOL0     H 3871   6.233   9.330   7.706 -0.5172 -2.1019 -2.5970
  753MOL0     H 3872   6.274   9.184   7.544  0.2019  0.2496 -0.2712
  753MOL0     H 3873   6.241   8.896   7.334 -0.6324  0.4423 -0.6598
  753MOL0     H 3874   6.218   8.881   7.511  1.1349  1.1325  1.4183
  753MOL0     H 3875   6.345   8.981   7.438  0.8871 -3.6699 -0.4990
  753MOL0     H 3876   5.595   9.016   7.149  2.2687  0.2914 -0.5520
  753MOL0     H 3877   5.441   8.878   7.043  1.4967  2.3631  1.1798
  753MOL0     H 3878   5.310   8.695   6.981 -0.0757  0.3037 -0.8465
  753MOL0     H 3879   5.382   8.757   6.839  0.3732 -0.2118 -0.4045
  753MOL0     H 3880   5.310   8.469   6.870 -1.3147  1.9379  3.0441
  753MOL0     H 3881   5.196   8.579   6.810 -1.0895  0.8289  1.1464
  753MOL0     H 3882   5.464   8.542   6.664  0.1168 -1.0620 -0.1884
  753MOL0     H 3883   5.341   8.652   6.628  1.3257  0.5781  1.3123
  753MOL0     H 3884   5.290   8.348   6.652  1.8863 -0.2203  0.3146
  753MOL0     H 3885   5.360   8.414   6.504  1.3390  0.9708  1.0743
  753MOL0     H 3886   5.083   8.434   6.622 -0.0325  2.6332  1.4395
  753MOL0     H 3887   5.134   8.575   6.526  1.1201  1.6823 -0.2551
  753MOL0     H 3888   5.188   8.296   6.424  3.3304  1.9730  0.7820
  753MOL0     H 3889   5.170   8.447   6.336 -0.6421 -0.8849 -0.5538
  753MOL0     H 3890   4.935   8.468   6.398  1.3068  0.4634 -2.2012
  753MOL0     H 3891   4.950   8.319   6.498  0.4088 -0.2739  0.2267
  753MOL0     H 3892   4.839   8.266   6.288 -0.6424  0.3033  1.7166
  753MOL0     H 3893   5.004   8.193   6.287  0.6387  1.1075 -0.9206
  753MOL0     H 3894   5.747   8.582   6.972  2.5034  0.8262  0.1316
  753MOL0     H 3895   5.905   8.730   7.103 -0.0067  0.2373  2.7817
  753MOL0     H 3896   5.855   9.204   7.292  0.1750 -3.2392  0.1349
  753MOL0     H 3897   5.950   9.406   7.411 -0.6121 -1.4523  0.2245
  753MOL0     H 3898   6.487   9.627   8.221 -1.8262 -0.7929 -0.8784
  753MOL0     H 3899   6.606   9.407   8.166 -3.0180 -1.1989 -1.2628
  753MOL0     H 3900   6.845   9.089   8.030 -1.1175  1.9431 -0.5898
  753MOL0     H 3901   6.968   8.902   7.953 -1.4623  0.8758  0.7096
  753MOL0     H 3902   7.243   8.976   7.621 -0.4413 -1.8682 -0.9117
  753MOL0     H 3903   7.350   8.956   7.764  1.7257  0.2890 -0.6021
  753MOL0     H 3904   7.360   8.715   7.739  2.0218 -0.4676 -1.8363
  753MOL0     H 3905   7.407   8.777   7.576 -0.7832  1.9138 -0.7334
  753MOL0     H 3906   7.257   8.572   7.602  0.1938 -0.6602  0.6771
  753MOL0     H 3907   7.139   8.686   7.662  0.7721  0.3133  1.3177
  753MOL0     H 3908   7.261   8.683   7.371 -1.5656 -0.3386 -1.0208
  753MOL0     H 3909   7.168   8.822   7.445  3.9294  0.6455  0.3070
  753MOL0     H 3910   6.848   8.595   7.355 -0.6765  0.8725 -1.7712
  753MOL0     H 3911   7.244   9.165   7.759 -1.5783 -1.6827 -1.2229
  753MOL0     H 3912   7.153   9.466   7.911 -0.7094  2.8267 -0.7996
  753MOL0     H 3913   7.235   9.391   7.773 -0.9221  3.5341 -0.0598
  753MOL0     H 3914   7.081   9.449   7.750  0.2393  0.3641 -0.3923
  754MOL0     O 3915   9.760   7.770   9.368  0.0728 -0.6092 -0.1948
  754MOL0     C 3916   9.680   7.781   9.278  0.4214 -0.0663  0.7545
  754MOL0     O 3917   9.720   7.827   9.154  0.3485  0.6364 -0.3204
  754MOL0     C 3918   9.851   7.789   9.118 -0.2435  0.0926 -0.2788
  754MOL0     C 3919   9.918   7.887   9.049 -0.0656 -0.2862 -0.6596
  754MOL0     C 3920  10.052   7.869   8.997  0.4834 -0.0495  0.2366
  754MOL0     C 3921  10.116   7.752   9.034 -0.3389  0.1944 -0.3225
  754MOL0     O 3922  10.250   7.725   9.003  0.5089  0.6601  0.5241
  754MOL0     C 3923  10.332   7.810   8.914 -0.7935  0.9382 -0.4099
  754MOL0     C 3924  10.446   7.727   8.886 -0.0675  0.3014 -0.7436
  754MOL0     C 3925  10.515   7.693   9.020  0.1592  0.5234 -0.8784
  754MOL0     C 3926  10.672   7.680   9.002  0.2769  0.3226  0.2581
  754MOL0     C 3927  10.744   7.603   9.117  0.8990 -0.7537 -0.2522
  754MOL0     C 3928  10.712   7.458   9.132 -0.6557 -0.0072 -0.3346
  754MOL0     C 3929  10.771   7.395   9.254  0.0455  0.3091  0.2290
  754MOL0     C 3930  10.739   7.245   9.269  0.7172  0.1669 -0.4238
  754MOL0     N 3931  10.824   7.194   9.371  0.4253  0.6704 -0.0467
  754MOL0     C 3932  10.946   7.131   9.356 -0.1851  0.2071  0.0163
  754MOL0     C 3933  10.980   7.084   9.474  0.2469 -0.0307  0.0957
  754MOL0     C 3934  11.097   7.001   9.501 -0.4459 -0.5768  0.0026
  754MOL0     C 3935  11.100   6.880   9.406  1.0180  0.2457  0.2542
  754MOL0     C 3936  11.223   6.787   9.435  0.0567  0.6788  0.3434
  754MOL0     C 3937  11.357   6.856   9.403 -0.6516 -0.4071 -0.1900
  754MOL0     O 3938  11.473   6.779   9.442 -0.5267  0.1269 -0.1766
  754MOL0     C 3939  11.600   6.829   9.423 -0.3607 -0.3099 -0.0178
  754MOL0     C 3940  11.625   6.934   9.339 -0.1246 -0.3739 -0.1218
  754MOL0     C 3941  11.752   6.983   9.323 -0.1065  0.0326  0.6124
  754MOL0     C 3942  11.760   7.119   9.265 -0.7469  0.7740 -0.0163
  754MOL0     C 3943  11.867   6.912   9.363 -0.0782 -0.2754  0.3918
  754MOL0     C 3944  12.012   6.968   9.357  0.2023  0.0685  0.4096
  754MOL0     O 3945  12.036   7.080   9.284  0.5275  0.0652 -0.3626
  754MOL0     C 3946  12.155   7.139   9.296 -0.4298 -0.1702  0.2348
  754MOL0     C 3947  12.265   7.088   9.226 -0.3868  0.5027  0.1553
  754MOL0     C 3948  12.383   7.162   9.231 -0.0195 -0.3919  0.2434
  754MOL0     C 3949  12.393   7.282   9.297 -0.1272  0.2730 -0.3630
  754MOL0     O 3950  12.510   7.347   9.323  0.1759 -0.6220  0.7273
  754MOL0     C 3951  12.627   7.296   9.259 -0.3481  0.1621 -0.2473
  754MOL0     C 3952  12.755   7.367   9.312 -0.0526 -0.0986  0.2669
  754MOL0     C 3953  12.768   7.511   9.257 -0.8301 -0.3216 -0.0064
  754MOL0     C 3954  12.899   7.588   9.316 -0.3504 -0.0609  0.1147
  754MOL0     C 3955  12.895   7.739   9.267 -0.5753  0.2688  0.0793
  754MOL0     C 3956  12.970   7.817   9.377 -0.0694 -0.3259 -0.1947
  754MOL0     C 3957  12.960   7.970   9.360  0.4027  0.2370 -0.8341
  754MOL0     C 3958  12.981   8.047   9.488  0.4084 -0.5550  0.1474
  754MOL0    Cl 3959  12.914   8.200   9.469 -0.0317 -0.0365 -0.1440
  754MOL0     C 3960  12.281   7.340   9.343 -0.2003  0.4251 -0.3221
  754MOL0     C 3961  12.163   7.278   9.334  0.8295  0.1511 -0.3585
  754MOL0     O 3962  12.095   6.906   9.426 -0.1167 -0.1619 -0.3171
  754MOL0     C 3963  11.839   6.795   9.440  0.3830  0.7937 -0.5515
  754MOL0     C 3964  11.707   6.763   9.474  0.0165  0.7554  0.0338
  754MOL0     N 3965  10.875   7.102   9.562  0.5000 -0.0877 -0.3036
  754MOL0     N 3966  10.785   7.169   9.493 -0.4214  0.7161 -0.9151
  754MOL0     C 3967  10.051   7.649   9.105  0.3654 -0.7508  0.3450
  754MOL0     C 3968   9.919   7.664   9.147  0.6293 -0.2082 -0.0321
  754MOL0     C 3969   9.537   7.740   9.311  0.2736 -0.0805  0.3304
  754MOL0     C 3970   9.499   7.738   9.442  0.3913  0.0235  0.3166
  754MOL0     C 3971   9.365   7.718   9.476  0.9803 -0.1261 -0.1432
  754MOL0     C 3972   9.265   7.687   9.389  0.2297  0.4396 -0.4965
  754MOL0     O 3973   9.140   7.665   9.447  0.0660 -1.0284 -0.6093
  754MOL0     C 3974   9.025   7.638   9.367 -0.0557 -0.3026  0.6983
  754MOL0     C 3975   8.898   7.684   9.447  0.4416 -0.2266 -0.2864
  754MOL0     C 3976   8.880   7.832   9.482  0.2783 -0.5429 -0.3048
  754MOL0     C 3977   8.745   7.875   9.530  0.0294  0.2496  0.3280
  754MOL0     C 3978   8.643   7.867   9.426  0.2907 -0.0824 -0.0274
  754MOL0     C 3979   8.550   7.830   9.360 -0.6696  0.4474  0.4303
  754MOL0     C 3980   9.293   7.672   9.255 -0.6093  0.3258 -0.2240
  754MOL0     C 3981   9.429   7.701   9.215 -0.0788 -1.1296  0.7743
  754MOL0     C 3982   9.457   7.694   9.066 -0.4609 -0.9734  0.2991
  754MOL0     H 3983   9.868   7.982   9.036 -1.4876 -0.7430  1.0187
  754MOL0     H 3984  10.105   7.956   8.958 -0.5707  0.7047  0.4459
  754MOL0     H 3985  10.355   7.901   8.970  1.8471 -0.6807  1.3098
  754MOL0     H 3986  10.286   7.827   8.816 -2.9989 -2.3142 -0.1061
  754MOL0     H 3987  10.409   7.637   8.835  1.8332 -1.5032  0.8689
  754MOL0     H 3988  10.515   7.777   8.818 -1.4608 -0.5148 -2.8714
  754MOL0     H 3989  10.500   7.774   9.092  3.4312 -0.3282  0.9704
  754MOL0     H 3990  10.475   7.598   9.056  2.1385  0.7257  2.2112
  754MOL0     H 3991  10.704   7.625   8.912  0.1943  1.8097 -0.7099
  754MOL0     H 3992  10.722   7.777   8.993 -1.1160  0.9262 -1.7476
  754MOL0     H 3993  10.705   7.645   9.210 -1.7182  2.8647 -2.7017
  754MOL0     H 3994  10.848   7.636   9.117  0.9384 -0.8668 -0.7450
  754MOL0     H 3995  10.604   7.437   9.129 -0.4679 -1.4255  1.3699
  754MOL0     H 3996  10.755   7.412   9.042 -0.5134  0.3248 -0.4343
  754MOL0     H 3997  10.743   7.449   9.345  1.0946  1.9015 -0.3436
  754MOL0     H 3998  10.880   7.403   9.243 -0.2167  1.8998 -2.1298
  754MOL0     H 3999  10.638   7.229   9.308  1.7862 -1.1168  2.0664
  754MOL0     H 4000  10.753   7.187   9.178  0.9051 -2.7489  1.3187
  754MOL0     H 4001  11.010   7.109   9.271  2.8885 -1.1882  2.5190
  754MOL0     H 4002  11.091   6.979   9.608 -0.6278  1.3768  0.4334
  754MOL0     H 4003  11.179   7.072   9.485  1.6157 -2.2801  2.1455
  754MOL0     H 4004  11.013   6.815   9.411  1.7864 -0.7302  2.4877
  754MOL0     H 4005  11.103   6.897   9.298  0.2802 -2.2412 -0.2365
  754MOL0     H 4006  11.223   6.764   9.542  1.4605  0.1737  0.2505
  754MOL0     H 4007  11.203   6.701   9.371 -4.9987  1.4631  0.4095
  754MOL0     H 4008  11.375   6.872   9.297 -0.0581 -1.8517 -0.3271
  754MOL0     H 4009  11.355   6.943   9.470 -2.9703 -1.1950  0.8557
  754MOL0     H 4010  11.539   6.990   9.303  1.1353  1.2352 -0.7400
  754MOL0     H 4011  11.815   7.188   9.330 -2.3544  0.5480  1.6512
  754MOL0     H 4012  11.664   7.170   9.252 -1.3636 -0.0188  1.2221
  754MOL0     H 4013  11.813   7.113   9.170  0.6319 -0.5282  0.7751
  754MOL0     H 4014  12.265   6.984   9.195 -0.5050  0.5254  0.0760
  754MOL0     H 4015  12.462   7.111   9.176 -0.4958 -1.7471  0.7729
  754MOL0     H 4016  12.639   7.192   9.290 -2.4766  0.4931  2.0136
  754MOL0     H 4017  12.619   7.302   9.150  1.9156  2.5257 -0.3980
  754MOL0     H 4018  12.766   7.355   9.420  3.5211 -0.3111 -0.0021
  754MOL0     H 4019  12.833   7.304   9.269  1.3821  1.6844  0.1530
  754MOL0     H 4020  12.683   7.573   9.287 -0.2913  0.4413 -0.0044
  754MOL0     H 4021  12.781   7.505   9.149 -1.5353  1.7600 -0.2648
  754MOL0     H 4022  12.999   7.548   9.298 -1.3537 -1.5771 -2.8721
  754MOL0     H 4023  12.863   7.582   9.419 -4.1495  0.2426 -1.0333
  754MOL0     H 4024  12.921   7.754   9.162 -1.3002  3.4547  0.2554
  754MOL0     H 4025  12.792   7.774   9.258 -0.3590  0.7893 -0.4765
  754MOL0     H 4026  13.075   7.791   9.366  0.1326 -0.1124  1.0680
  754MOL0     H 4027  12.945   7.795   9.481  0.1493  0.2054 -0.0287
  754MOL0     H 4028  12.854   7.980   9.337 -0.0640 -1.3417  0.4191
  754MOL0     H 4029  13.013   8.006   9.271  1.0598 -0.0577 -0.5706
  754MOL0     H 4030  13.089   8.051   9.502  0.3430 -1.4959  1.0802
  754MOL0     H 4031  12.932   7.997   9.573  2.1804  1.7834  2.7374
  754MOL0     H 4032  12.291   7.432   9.399  1.2707  1.8706 -2.8031
  754MOL0     H 4033  12.081   7.321   9.391  1.9426  0.2576  1.2323
  754MOL0     H 4034  11.921   6.731   9.470 -1.2965 -1.7816 -1.0946
  754MOL0     H 4035  11.682   6.692   9.552 -3.7594  2.5918  0.7437
  754MOL0     H 4036  10.110   7.561   9.128  2.5081  0.3947 -0.4978
  754MOL0     H 4037   9.870   7.585   9.203 -1.2861  1.5405  0.8948
  754MOL0     H 4038   9.561   7.753   9.529 -0.3829  2.8002  0.4823
  754MOL0     H 4039   9.344   7.707   9.582 -0.9931  2.2106 -0.1958
  754MOL0     H 4040   9.031   7.696   9.274  1.9266 -1.5139  0.0123
  754MOL0     H 4041   9.006   7.533   9.342 -1.8175  0.1711 -0.1233
  754MOL0     H 4042   8.909   7.635   9.544  3.5187  1.0563  0.1211
  754MOL0     H 4043   8.805   7.647   9.403  2.5435 -5.2844 -1.1666
  754MOL0     H 4044   8.942   7.850   9.569 -2.4340  2.1708  1.2594
  754MOL0     H 4045   8.922   7.902   9.409 -2.3240  0.2867 -1.1314
  754MOL0     H 4046   8.746   7.978   9.568  0.4158  0.4503 -0.2232
  754MOL0     H 4047   8.722   7.818   9.621  0.1521  2.0841  1.5811
  754MOL0     H 4048   8.478   7.801   9.287 -1.0642 -0.7427  1.2637
  754MOL0     H 4049   9.218   7.655   9.178 -1.6018 -0.9365  0.9649
  754MOL0     H 4050   9.400   7.611   9.023  1.8349 -2.6473  0.2963
  754MOL0     H 4051   9.432   7.789   9.019 -0.1753 -0.6075  0.8837
  754MOL0     H 4052   9.561   7.664   9.049  1.3639  2.9547  3.0483
  755MOL0     O 4053   7.374   9.975   8.086 -0.0817 -1.4545  0.5863
  755MOL0     C 4054   7.340   9.978   8.207 -0.4412  0.2965  0.4871
  755MOL0     O 4055   7.417  10.035   8.307  0.8196  0.1052  0.2149
  755MOL0     C 4056   7.552  10.042   8.284  0.3276 -0.2289  0.1530
  755MOL0     C 4057   7.607  10.167   8.267 -0.7466 -0.1862  0.0133
  755MOL0     C 4058   7.749  10.180   8.244  0.3164  0.1476  0.5073
  755MOL0     C 4059   7.833  10.068   8.221  0.2041 -1.3411  0.5189
  755MOL0     O 4060   7.962  10.097   8.192  0.4889 -0.5668  0.7431
  755MOL0     C 4061   8.050   9.985   8.198 -0.2613  0.0873 -0.8850
  755MOL0     C 4062   8.195  10.003   8.159  0.1403 -0.3600  0.1419
  755MOL0     C 4063   8.269   9.870   8.159 -0.1480  0.4087 -0.2671
  755MOL0     C 4064   8.420   9.881   8.187 -0.1014  0.0395  0.3978
  755MOL0     C 4065   8.447   9.891   8.344 -0.8562 -0.7949  0.7428
  755MOL0     C 4066   8.596   9.931   8.369  0.6306  0.5553  0.1580
  755MOL0     C 4067   8.706   9.846   8.291  0.3844  1.1009  0.5434
  755MOL0     C 4068   8.714   9.695   8.343 -0.2901  0.0020  0.8573
  755MOL0     N 4069   8.769   9.684   8.482 -0.0995 -0.5975 -0.2921
  755MOL0     C 4070   8.905   9.685   8.527  0.1712  0.2374 -0.3180
  755MOL0     C 4071   8.894   9.620   8.647  0.6996  1.2471  0.2318
  755MOL0     C 4072   9.010   9.605   8.742  0.8939  0.0474 -0.3508
  755MOL0     C 4073   8.985   9.474   8.837 -0.5716  0.9608  0.9271
  755MOL0     C 4074   8.999   9.341   8.754  0.0642  0.4579 -0.6887
  755MOL0     C 4075   8.918   9.221   8.802 -0.0714 -0.4600 -0.5942
  755MOL0     O 4076   8.788   9.270   8.854 -0.2113 -0.0356 -0.0297
  755MOL0     C 4077   8.708   9.171   8.905  0.5231 -0.8597  0.5765
  755MOL0     C 4078   8.742   9.039   8.912 -0.7006 -0.3244  0.6715
  755MOL0     C 4079   8.660   8.938   8.968  0.0152  1.2666 -0.8617
  755MOL0     C 4080   8.709   8.795   8.971 -0.3002 -0.7941  0.7927
  755MOL0     C 4081   8.535   8.979   9.024 -0.0338 -0.1202  0.2354
  755MOL0     C 4082   8.425   8.890   9.086 -0.5320  0.5417  0.5496
  755MOL0     O 4083   8.338   8.953   9.165  0.3175 -0.5654 -0.6845
  755MOL0     C 4084   8.207   8.899   9.176  0.2893 -0.5929  0.7972
  755MOL0     C 4085   8.153   8.922   9.307 -0.4338 -0.5245  0.3002
  755MOL0     C 4086   8.023   8.868   9.337 -0.3909  0.1456  0.6061
  755MOL0     C 4087   7.939   8.820   9.233 -1.0652  0.4127  0.2378
  755MOL0     O 4088   7.809   8.795   9.273  0.2103  0.3268  0.0532
  755MOL0     C 4089   7.735   8.705   9.208  0.2090 -0.1247 -0.1309
  755MOL0     C 4090   7.593   8.711   9.254 -0.2291  0.3421 -0.0610
  755MOL0     C 4091   7.579   8.678   9.407 -0.1845  0.3030  0.3416
  755MOL0     C 4092   7.440   8.643   9.449  0.0464 -0.0972 -0.6357
  755MOL0     C 4093   7.428   8.624   9.600 -0.0265 -0.1494  0.5679
  755MOL0     C 4094   7.471   8.476   9.650 -0.2364 -0.4221 -0.1362
  755MOL0     C 4095   7.424   8.462   9.791  0.3948  0.1162  0.1969
  755MOL0     C 4096   7.482   8.338   9.864 -0.2260 -0.2043  0.7702
  755MOL0    Cl 4097   7.442   8.200   9.747 -0.5936 -0.0482 -0.3016
  755MOL0     C 4098   7.998   8.806   9.102  0.1998  0.5306 -0.0061
  755MOL0     C 4099   8.129   8.847   9.074 -0.6675 -0.9272  0.1272
  755MOL0     O 4100   8.416   8.781   9.044 -0.4473  0.1098 -0.2299
  755MOL0     C 4101   8.499   9.118   9.018 -0.6358  0.1428 -0.4284
  755MOL0     C 4102   8.586   9.215   8.958  0.6926 -0.0519  0.1399
  755MOL0     N 4103   8.766   9.593   8.672 -0.2699  0.4859  0.2571
  755MOL0     N 4104   8.693   9.634   8.579  0.0807  0.3541 -0.3137
  755MOL0     C 4105   7.776   9.949   8.228 -0.4116 -0.6320  0.7715
  755MOL0     C 4106   7.637   9.931   8.252  0.4316 -0.7754 -0.3936
  755MOL0     C 4107   7.226   9.901   8.262  0.0370  0.3073  0.5863
  755MOL0     C 4108   7.177   9.942   8.388  0.1402 -0.1041  0.2722
  755MOL0     C 4109   7.079   9.874   8.460 -0.0139 -0.9620  0.8274
  755MOL0     C 4110   7.011   9.775   8.402  0.4660 -0.0639  0.4018
  755MOL0     O 4111   6.919   9.705   8.484 -0.0396 -0.6156  0.3707
  755MOL0     C 4112   6.827   9.605   8.421  0.2037  0.3218  0.1336
  755MOL0     C 4113   6.704   9.570   8.520  0.3689  0.0750 -0.7635
  755MOL0     C 4114   6.639   9.693   8.586  0.5262  0.4138  0.1753
  755MOL0     C 4115   6.538   9.772   8.499  0.8906  0.4755  0.7482
  755MOL0     C 4116   6.422   9.690   8.462  0.6538 -0.5012 -0.8348
  755MOL0     C 4117   6.327   9.616   8.447  0.5091  1.1660  0.8643
  755MOL0     C 4118   7.050   9.736   8.270 -0.3007 -0.6519 -0.1582
  755MOL0     C 4119   7.157   9.798   8.201  0.5070 -0.2676 -1.1528
  755MOL0     C 4120   7.176   9.759   8.056  0.4443 -0.2870 -0.3642
  755MOL0     H 4121   7.547  10.257   8.278 -2.5484 -1.4445  1.0441
  755MOL0     H 4122   7.796  10.278   8.243 -1.0786  0.8702 -1.2464
  755MOL0     H 4123   8.025   9.915   8.117 -2.6306 -0.6800  0.4088
  755MOL0     H 4124   8.045   9.922   8.288  0.9428  0.2304 -0.7115
  755MOL0     H 4125   8.200  10.046   8.059  0.5811  0.2708  0.4256
  755MOL0     H 4126   8.248  10.072   8.226  0.0589  0.6392 -0.7926
  755MOL0     H 4127   8.222   9.805   8.234  0.3770  0.2470 -0.0752
  755MOL0     H 4128   8.249   9.834   8.058 -2.7891  1.3399 -0.1737
  755MOL0     H 4129   8.474   9.798   8.141 -1.7658 -0.8387 -0.0712
  755MOL0     H 4130   8.451   9.974   8.139 -1.4281  1.3480  1.9578
  755MOL0     H 4131   8.443   9.793   8.393 -0.1875 -1.0504  0.3007
  755MOL0     H 4132   8.377   9.964   8.386 -1.0796  1.0822 -2.5351
  755MOL0     H 4133   8.610  10.036   8.341  3.7294  0.4007  0.7566
  755MOL0     H 4134   8.612   9.929   8.477  1.9707 -1.6241 -0.0268
  755MOL0     H 4135   8.802   9.897   8.306  0.2104  2.6437 -2.6743
  755MOL0     H 4136   8.687   9.857   8.184  0.3560  0.7088  0.5078
  755MOL0     H 4137   8.622   9.637   8.352 -0.3179 -0.3561 -1.2360
  755MOL0     H 4138   8.790   9.643   8.284  2.2479  1.5112  2.6028
  755MOL0     H 4139   8.992   9.721   8.473  1.3424 -1.8820  0.0747
  755MOL0     H 4140   9.020   9.701   8.794 -1.0054 -1.9332  4.1268
  755MOL0     H 4141   9.100   9.600   8.679  0.6362  0.4240 -0.7585
  755MOL0     H 4142   9.054   9.472   8.921 -0.8663 -2.1989  1.2189
  755MOL0     H 4143   8.886   9.483   8.882 -1.1425  1.1606 -0.3255
  755MOL0     H 4144   8.990   9.347   8.646 -0.5377  0.5146 -0.6409
  755MOL0     H 4145   9.104   9.311   8.761 -0.5043 -1.4755  0.5623
  755MOL0     H 4146   8.900   9.149   8.722  0.7074 -2.2333  0.7574
  755MOL0     H 4147   8.974   9.177   8.885  1.9901  1.6530 -0.7399
  755MOL0     H 4148   8.841   9.011   8.876  1.0795  3.1322  2.3579
  755MOL0     H 4149   8.674   8.736   9.056  1.6817 -3.1280  0.1173
  755MOL0     H 4150   8.816   8.803   8.992 -0.2739  0.5114  0.2801
  755MOL0     H 4151   8.689   8.744   8.876  2.5827  1.0061 -0.9311
  755MOL0     H 4152   8.213   8.978   9.378 -0.3728  1.5667 -1.3052
  755MOL0     H 4153   7.988   8.874   9.439 -0.4125 -0.9698  0.6792
  755MOL0     H 4154   7.735   8.724   9.100 -0.9942 -1.8163 -0.4629
  755MOL0     H 4155   7.764   8.603   9.234 -2.6430 -0.5943  1.5821
  755MOL0     H 4156   7.534   8.802   9.243 -0.0788  1.5437  5.7656
  755MOL0     H 4157   7.548   8.634   9.190  0.6289 -1.9004  1.8677
  755MOL0     H 4158   7.623   8.754   9.471 -0.8280 -0.5673  1.8677
  755MOL0     H 4159   7.646   8.595   9.430 -1.0488 -0.3439  0.5839
  755MOL0     H 4160   7.403   8.560   9.387 -0.6699  0.1351 -0.5345
  755MOL0     H 4161   7.384   8.730   9.414 -1.1163 -1.1030 -1.4038
  755MOL0     H 4162   7.507   8.689   9.639  2.4194 -1.8885 -1.1883
  755MOL0     H 4163   7.323   8.644   9.623 -0.8047 -1.1544 -1.7737
  755MOL0     H 4164   7.579   8.466   9.637  0.1162  1.9340  0.3598
  755MOL0     H 4165   7.417   8.405   9.588  0.1568 -0.3043 -0.6281
  755MOL0     H 4166   7.317   8.444   9.781  0.0537  1.3505  1.3109
  755MOL0     H 4167   7.451   8.548   9.853  2.5895 -1.5034  1.6491
  755MOL0     H 4168   7.430   8.311   9.956 -1.9962 -0.9950 -0.4101
  755MOL0     H 4169   7.587   8.345   9.894 -0.4834  1.3284  1.4289
  755MOL0     H 4170   7.942   8.756   9.024 -0.0814  0.1667  0.4259
  755MOL0     H 4171   8.170   8.843   8.973  2.3688  2.6476  1.0239
  755MOL0     H 4172   8.400   9.150   9.051 -0.0327  2.4500 -0.6783
  755MOL0     H 4173   8.554   9.317   8.942 -2.1276 -1.1545 -2.3200
  755MOL0     H 4174   7.838   9.860   8.218  0.7508  0.3879 -2.3274
  755MOL0     H 4175   7.598   9.830   8.260 -1.9776  0.2152  2.0529
  755MOL0     H 4176   7.226  10.020   8.445  1.9240 -0.0355 -1.2743
  755MOL0     H 4177   7.047   9.897   8.561 -2.1442  0.4774 -0.0822
  755MOL0     H 4178   6.786   9.642   8.327 -0.1127  0.1641  0.2063
  755MOL0     H 4179   6.874   9.510   8.391 -0.5650 -0.0521  0.0888
  755MOL0     H 4180   6.739   9.510   8.604 -1.3357 -1.0902 -0.8350
  755MOL0     H 4181   6.624   9.516   8.469 -1.1265  2.2671 -0.8953
  755MOL0     H 4182   6.598   9.656   8.680  1.8106 -2.4597 -0.2782
  755MOL0     H 4183   6.715   9.771   8.600 -0.5497  1.8256 -1.4277
  755MOL0     H 4184   6.590   9.813   8.411 -1.4751 -0.6077 -1.2627
  755MOL0     H 4185   6.504   9.858   8.556 -2.0454  0.3889 -0.6913
  755MOL0     H 4186   6.244   9.551   8.427 -0.3261  2.3351  0.4151
  755MOL0     H 4187   6.994   9.653   8.230 -1.3988  0.7710 -1.7362
  755MOL0     H 4188   7.161   9.851   7.999 -1.6438  1.0930  2.1679
  755MOL0     H 4189   7.269   9.703   8.043 -1.0800 -3.0973 -0.0241
  755MOL0     H 4190   7.096   9.689   8.029 -1.1052  1.2841 -0.0141
  756MOL0     O 4191   4.241   6.724   0.425  0.7172  0.1483  0.1129
  756MOL0     C 4192   4.192   6.632   0.361 -0.4232 -0.0984  0.1128
  756MOL0     O 4193   4.261   6.523   0.312  0.4110 -0.6447  0.1807
  756MOL0     C 4194   4.387   6.504   0.362  0.0371 -0.3255 -0.3323
  756MOL0     C 4195   4.494   6.579   0.314 -0.4638 -0.1026 -0.2547
  756MOL0     C 4196   4.621   6.569   0.368  0.5456 -0.7697 -0.7744
  756MOL0     C 4197   4.646   6.471   0.472  0.0904  0.1742  0.4494
  756MOL0     O 4198   4.770   6.435   0.522  0.1775 -0.1782  0.1243
  756MOL0     C 4199   4.877   6.445   0.421  0.5094 -0.7806 -0.3921
  756MOL0     C 4200   5.001   6.374   0.480  0.2273  0.4623 -0.1533
  756MOL0     C 4201   5.062   6.446   0.599  0.7822 -0.3863 -0.0350
  756MOL0     C 4202   5.192   6.379   0.636 -0.3222  1.1421 -0.3379
  756MOL0     C 4203   5.261   6.429   0.770 -0.5359 -0.5916  0.0285
  756MOL0     C 4204   5.179   6.437   0.892 -0.3660 -0.0993  0.6465
  756MOL0     C 4205   5.262   6.457   1.015 -0.2174 -0.8574  0.0519
  756MOL0     C 4206   5.321   6.606   1.017  0.1722  0.0226 -0.2009
  756MOL0     N 4207   5.410   6.625   1.136  0.6777  0.3494  0.7582
  756MOL0     C 4208   5.362   6.659   1.263  0.3903 -0.2383 -0.2440
  756MOL0     C 4209   5.467   6.633   1.343 -0.6227 -0.0279 -0.4212
  756MOL0     C 4210   5.464   6.631   1.491 -0.4947  0.9432 -0.5789
  756MOL0     C 4211   5.415   6.485   1.545  0.5668 -0.3752 -0.0630
  756MOL0     C 4212   5.361   6.486   1.678  0.6716 -0.0924  0.4975
  756MOL0     C 4213   5.311   6.353   1.725 -0.8410 -0.0746 -0.2010
  756MOL0     O 4214   5.406   6.242   1.719  0.1521  0.1185  0.8019
  756MOL0     C 4215   5.509   6.229   1.807 -0.5518  0.3020  0.1301
  756MOL0     C 4216   5.614   6.144   1.762 -0.1454 -0.0179  0.1541
  756MOL0     C 4217   5.741   6.130   1.834  0.2947  0.5101  1.3160
  756MOL0     C 4218   5.840   6.039   1.780 -1.1423 -0.3165  0.1276
  756MOL0     C 4219   5.761   6.215   1.950 -0.8653  0.6706 -0.0636
  756MOL0     C 4220   5.893   6.228   2.020  0.3135  0.8506 -0.3189
  756MOL0     O 4221   5.886   6.287   2.144 -0.2697  0.3730 -0.4526
  756MOL0     C 4222   5.998   6.336   2.218 -0.1390  0.4397  0.8805
  756MOL0     C 4223   5.961   6.438   2.303  0.1100  0.2320 -0.1467
  756MOL0     C 4224   6.057   6.498   2.378  0.6698 -1.5605  0.4972
  756MOL0     C 4225   6.193   6.465   2.377 -0.3296  0.1610  0.4753
  756MOL0     O 4226   6.279   6.540   2.458  0.1552 -0.3923 -0.3012
  756MOL0     C 4227   6.422   6.516   2.447  0.6442  0.3600  0.1158
  756MOL0     C 4228   6.511   6.557   2.571  0.4247  0.3378  0.2579
  756MOL0     C 4229   6.641   6.489   2.556 -0.0524  0.1124  0.0734
  756MOL0     C 4230   6.734   6.514   2.678 -0.2610  0.5354  0.3725
  756MOL0     C 4231   6.875   6.496   2.632 -0.3067 -0.4834 -0.4108
  756MOL0     C 4232   6.975   6.530   2.740 -0.2997 -0.2247  0.0991
  756MOL0     C 4233   7.116   6.465   2.700  0.6846 -0.1378 -0.4069
  756MOL0     C 4234   7.221   6.495   2.805  0.4586 -0.1730 -0.0375
  756MOL0    Cl 4235   7.389   6.433   2.761  0.2060 -0.0778 -0.0555
  756MOL0     C 4236   6.224   6.359   2.292 -1.0335 -0.1312  0.2902
  756MOL0     C 4237   6.132   6.291   2.215  0.9261 -0.5690  0.6077
  756MOL0     O 4238   5.998   6.201   1.960 -0.3303 -1.3598 -0.7624
  756MOL0     C 4239   5.650   6.290   1.992 -0.5267  0.0873 -0.0979
  756MOL0     C 4240   5.527   6.300   1.934  0.2529 -0.1216  0.8128
  756MOL0     N 4241   5.571   6.580   1.266 -0.3003  0.7387  0.4738
  756MOL0     N 4242   5.534   6.569   1.142  0.5258 -0.2855  0.0442
  756MOL0     C 4243   4.532   6.407   0.528  0.5416 -0.6193  0.3363
  756MOL0     C 4244   4.404   6.422   0.467 -0.2983  0.4926 -0.3972
  756MOL0     C 4245   4.053   6.649   0.312 -0.0540 -0.6920 -0.2292
  756MOL0     C 4246   3.993   6.780   0.303  0.4842  0.0328  0.5171
  756MOL0     C 4247   3.866   6.803   0.251 -0.3527  1.2378 -0.4075
  756MOL0     C 4248   3.784   6.695   0.219  0.6866  0.5067  0.6002
  756MOL0     O 4249   3.660   6.691   0.151 -0.0625  0.0317 -0.5099
  756MOL0     C 4250   3.587   6.817   0.155 -0.0492 -0.1868  0.3644
  756MOL0     C 4251   3.511   6.827   0.293  0.0403  0.0442 -0.8608
  756MOL0     C 4252   3.424   6.703   0.331  0.0309 -0.0379  0.4761
  756MOL0     C 4253   3.388   6.692   0.485 -0.1186 -0.4875 -0.8284
  756MOL0     C 4254   3.512   6.654   0.559  1.0035  0.3035  0.2146
  756MOL0     C 4255   3.615   6.622   0.610 -1.1543  0.2130 -0.6236
  756MOL0     C 4256   3.835   6.567   0.238 -0.3140  0.0551 -0.4205
  756MOL0     C 4257   3.968   6.538   0.283  0.6915 -0.4431 -0.3316
  756MOL0     C 4258   3.998   6.395   0.320 -0.0032  0.1185 -0.0051
  756MOL0     H 4259   4.470   6.645   0.231 -0.4398 -0.9089 -0.9246
  756MOL0     H 4260   4.704   6.624   0.324  1.1612  1.2100  2.5289
  756MOL0     H 4261   4.887   6.552   0.400 -4.0282 -0.1257 -0.3382
  756MOL0     H 4262   4.835   6.396   0.333  0.9099 -2.8701  0.5268
  756MOL0     H 4263   4.953   6.286   0.523 -1.7532  1.6686  0.2438
  756MOL0     H 4264   5.080   6.346   0.410  0.7886 -1.8983  1.3291
  756MOL0     H 4265   5.073   6.551   0.572 -0.3316 -0.0517  0.7500
  756MOL0     H 4266   4.984   6.433   0.674 -1.5751  0.9825 -2.0877
  756MOL0     H 4267   5.186   6.270   0.641  1.3065  0.9676 -1.4714
  756MOL0     H 4268   5.259   6.407   0.553 -0.3450 -1.8804 -1.4869
  756MOL0     H 4269   5.300   6.527   0.743  2.1839 -0.4943  3.5701
  756MOL0     H 4270   5.349   6.368   0.791 -0.5707 -0.5949  0.1680
  756MOL0     H 4271   5.093   6.503   0.888 -2.5023 -2.6717  1.4548
  756MOL0     H 4272   5.134   6.338   0.898 -0.2165 -0.2310 -0.2027
  756MOL0     H 4273   5.340   6.381   1.027 -1.2170 -1.6512  2.2909
  756MOL0     H 4274   5.201   6.436   1.104  0.6934  0.8866  1.1296
  756MOL0     H 4275   5.381   6.622   0.927  1.9044  1.5406  1.1396
  756MOL0     H 4276   5.238   6.677   1.022  1.5602  1.7840 -1.2333
  756MOL0     H 4277   5.264   6.676   1.306 -0.4431 -1.4529 -1.5858
  756MOL0     H 4278   5.397   6.710   1.526  0.3803  1.1170  0.8300
  756MOL0     H 4279   5.564   6.655   1.531  0.7742 -1.6374 -2.0009
  756MOL0     H 4280   5.346   6.444   1.471  1.4502  0.5693 -1.4528
  756MOL0     H 4281   5.499   6.415   1.552  1.2642  0.4128 -0.3422
  756MOL0     H 4282   5.441   6.526   1.741  0.8988 -1.5025  1.1372
  756MOL0     H 4283   5.275   6.553   1.685 -1.8733 -2.9958 -0.5951
  756MOL0     H 4284   5.293   6.366   1.833  1.5997 -0.7122  0.3490
  756MOL0     H 4285   5.210   6.328   1.693 -0.4566 -3.3943  0.7908
  756MOL0     H 4286   5.584   6.090   1.673  0.8845 -3.7870  1.8871
  756MOL0     H 4287   5.784   5.966   1.721  0.1471 -0.2772 -1.2131
  756MOL0     H 4288   5.893   5.986   1.860  3.2380  4.5377  1.0311
  756MOL0     H 4289   5.926   6.076   1.722  0.9360 -1.2412  2.4387
  756MOL0     H 4290   5.857   6.467   2.308  0.0715  0.0778 -0.0391
  756MOL0     H 4291   6.040   6.587   2.438  1.3136 -1.4328  0.4898
  756MOL0     H 4292   6.428   6.407   2.445 -3.8805 -0.0481 -0.4494
  756MOL0     H 4293   6.459   6.571   2.360 -2.2304  0.3918 -1.1846
  756MOL0     H 4294   6.513   6.666   2.575  1.4432  0.3054  1.0686
  756MOL0     H 4295   6.460   6.515   2.658 -1.6604  0.4515 -0.8215
  756MOL0     H 4296   6.679   6.538   2.465 -1.5797  0.0933 -0.6152
  756MOL0     H 4297   6.623   6.381   2.561  1.7797 -0.2911 -1.1943
  756MOL0     H 4298   6.713   6.441   2.757 -0.1543  1.9703  1.7844
  756MOL0     H 4299   6.715   6.613   2.721 -0.4907  1.6885 -2.1997
  756MOL0     H 4300   6.893   6.390   2.610  0.8961 -0.4164  0.1781
  756MOL0     H 4301   6.905   6.543   2.537  0.6780  1.1797  0.6743
  756MOL0     H 4302   6.948   6.490   2.838 -0.7702  0.3091  0.1977
  756MOL0     H 4303   6.973   6.639   2.749  2.3969 -0.0611 -0.5149
  756MOL0     H 4304   7.145   6.511   2.605 -0.4318  2.4644  0.4205
  756MOL0     H 4305   7.099   6.357   2.695  3.3438 -0.7383  1.5989
  756MOL0     H 4306   7.189   6.449   2.899  1.8675  0.2666  0.6844
  756MOL0     H 4307   7.225   6.601   2.832 -3.1739 -0.5349  2.6891
  756MOL0     H 4308   6.322   6.313   2.286 -0.6492  0.7266 -0.0707
  756MOL0     H 4309   6.160   6.204   2.157  2.8196  0.6984 -0.4814
  756MOL0     H 4310   5.676   6.363   2.068 -0.6869 -0.4900  0.5113
  756MOL0     H 4311   5.449   6.363   1.976 -0.3212  0.7892 -1.5004
  756MOL0     H 4312   4.537   6.343   0.615 -1.4964 -1.7417 -0.3068
  756MOL0     H 4313   4.323   6.358   0.500  1.1530 -2.0268 -1.4096
  756MOL0     H 4314   4.060   6.865   0.319 -0.3409  1.3473 -2.4098
  756MOL0     H 4315   3.831   6.904   0.232 -1.2387  1.0944  0.4088
  756MOL0     H 4316   3.649   6.900   0.121 -1.1999  0.5148 -0.0734
  756MOL0     H 4317   3.501   6.809   0.087  0.0032  2.7693 -0.1607
  756MOL0     H 4318   3.452   6.917   0.312  0.4342 -0.1525  1.5332
  756MOL0     H 4319   3.585   6.829   0.373  0.7264  0.4405 -1.4893
  756MOL0     H 4320   3.330   6.705   0.276 -0.4891 -3.4749  1.0532
  756MOL0     H 4321   3.488   6.620   0.299  0.7363  1.3004 -1.7763
  756MOL0     H 4322   3.303   6.627   0.509  0.1986 -1.2721 -1.7817
  756MOL0     H 4323   3.357   6.789   0.524  1.6502 -0.1324 -0.2346
  756MOL0     H 4324   3.714   6.604   0.646 -0.4648  4.1358 -0.0418
  756MOL0     H 4325   3.773   6.481   0.212  1.6530 -0.9479 -2.1025
  756MOL0     H 4326   4.031   6.391   0.424 -0.7926 -0.4760  0.2329
  756MOL0     H 4327   3.909   6.332   0.326 -1.0182  1.4956 -0.1422
  756MOL0     H 4328   4.069   6.355   0.247  2.0333  1.3380  1.1950
  757MOL0     O 4329   8.118   8.885   3.203 -0.3472  0.0502  0.4621
  757MOL0     C 4330   8.022   8.951   3.168  0.4348  0.1900 -0.0293
  757MOL0     O 4331   8.016   9.077   3.125  0.0705 -0.3223  0.2795
  757MOL0     C 4332   8.141   9.150   3.125  0.4066 -0.0391 -0.5223
  757MOL0     C 4333   8.225   9.153   3.236  0.8594  0.4982  0.0115
  757MOL0     C 4334   8.343   9.222   3.225  0.2216 -0.0809  0.9961
  757MOL0     C 4335   8.386   9.300   3.111 -0.4976 -0.1439 -0.6795
  757MOL0     O 4336   8.474   9.398   3.107  0.0580  0.2493  0.0256
  757MOL0     C 4337   8.585   9.369   3.194 -0.6399 -0.2244  0.2665
  757MOL0     C 4338   8.684   9.478   3.155 -0.1571 -0.6848 -0.4695
  757MOL0     C 4339   8.806   9.462   3.258 -0.4710  0.5011 -0.1473
  757MOL0     C 4340   8.915   9.561   3.232 -0.1020 -0.2259  0.2178
  757MOL0     C 4341   9.043   9.501   3.291 -0.5187 -0.3707 -0.3348
  757MOL0     C 4342   9.170   9.554   3.215 -0.6997 -0.3465  0.3443
  757MOL0     C 4343   9.304   9.486   3.235 -0.3618  0.1718  0.8185
  757MOL0     C 4344   9.360   9.473   3.380 -0.5660  0.4142  0.5849
  757MOL0     N 4345   9.494   9.410   3.370 -0.3838  0.6944 -0.0306
  757MOL0     C 4346   9.600   9.465   3.440  0.4536 -0.1734  0.7598
  757MOL0     C 4347   9.693   9.375   3.418 -0.3160 -0.5462  0.0635
  757MOL0     C 4348   9.840   9.392   3.461  0.9335  0.5442  0.4990
  757MOL0     C 4349   9.892   9.527   3.420 -0.2848  0.2624  1.2351
  757MOL0     C 4350  10.034   9.556   3.489 -0.0782  0.2432 -0.0887
  757MOL0     C 4351  10.153   9.474   3.433  0.2066 -0.3081  0.7482
  757MOL0     O 4352  10.177   9.511   3.294 -0.3198  0.7945  0.5318
  757MOL0     C 4353  10.314   9.508   3.261 -0.2191 -0.3414  0.3618
  757MOL0     C 4354  10.347   9.564   3.139  0.5093 -1.5711  0.6609
  757MOL0     C 4355  10.479   9.572   3.090  0.1538  0.0187 -0.4884
  757MOL0     C 4356  10.500   9.638   2.948  0.2223  0.7492  0.1602
  757MOL0     C 4357  10.583   9.491   3.154  0.5414 -0.3107  0.7261
  757MOL0     C 4358  10.724   9.479   3.109 -0.0570  0.5680 -0.1424
  757MOL0     O 4359  10.789   9.358   3.147  0.0099 -0.1722  0.1362
  757MOL0     C 4360  10.918   9.353   3.104 -0.1034  0.1332  0.9860
  757MOL0     C 4361  11.019   9.400   3.186 -1.0295  0.1015 -0.1408
  757MOL0     C 4362  11.152   9.374   3.151  0.0064  0.1832  0.4226
  757MOL0     C 4363  11.193   9.317   3.025 -0.2445  0.0635  0.1965
  757MOL0     O 4364  11.331   9.326   2.998 -0.3070  0.5022 -0.2445
  757MOL0     C 4365  11.382   9.291   2.867  1.0859  0.1044  0.1840
  757MOL0     C 4366  11.511   9.366   2.840  0.1517  0.2440 -0.1550
  757MOL0     C 4367  11.501   9.499   2.770  0.5923  0.6737 -0.0105
  757MOL0     C 4368  11.634   9.571   2.779  0.9986  0.2183  0.1074
  757MOL0     C 4369  11.736   9.516   2.679 -0.0196 -0.3540 -0.0287
  757MOL0     C 4370  11.868   9.583   2.700  0.0906  0.6848 -0.3711
  757MOL0     C 4371  11.961   9.520   2.599 -0.9757 -0.4970 -0.5824
  757MOL0     C 4372  12.107   9.558   2.586 -0.3221 -0.1660 -0.0756
  757MOL0    Cl 4373  12.198   9.525   2.739 -0.0905  0.2649  0.1719
  757MOL0     C 4374  11.083   9.285   2.944  0.0155 -0.1186  0.9810
  757MOL0     C 4375  10.954   9.298   2.982  1.3747 -0.2217 -0.1132
  757MOL0     O 4376  10.774   9.575   3.059  1.1389  0.1465  0.7869
  757MOL0     C 4377  10.542   9.426   3.271 -0.6966 -0.0762 -0.0919
  757MOL0     C 4378  10.416   9.436   3.324  0.6942 -0.8040 -0.5069
  757MOL0     N 4379   9.652   9.266   3.344  0.3869 -0.2081 -0.7906
  757MOL0     N 4380   9.527   9.292   3.309  0.1442  0.4238  0.1611
  757MOL0     C 4381   8.291   9.300   3.009 -0.7287  0.4354  0.6317
  757MOL0     C 4382   8.176   9.229   3.014 -0.0889  0.0687  0.6593
  757MOL0     C 4383   7.896   8.874   3.184  0.5934  0.2148 -0.9618
  757MOL0     C 4384   7.778   8.951   3.199 -0.5710 -0.5677  0.3766
  757MOL0     C 4385   7.647   8.899   3.193 -0.3985  0.7247  0.0896
  757MOL0     C 4386   7.628   8.769   3.142  0.6580  0.7384  0.6841
  757MOL0     O 4387   7.505   8.711   3.127 -1.1648  0.6449 -0.3309
  757MOL0     C 4388   7.383   8.773   3.161  1.2026 -0.1527 -0.1691
  757MOL0     C 4389   7.339   8.861   3.039  0.1448  0.2776 -0.1824
  757MOL0     C 4390   7.336   8.783   2.909 -0.3494 -0.4933  0.0825
  757MOL0     C 4391   7.286   8.892   2.809 -0.0612 -0.1058 -0.0798
  757MOL0     C 4392   7.302   8.830   2.679 -0.2627  0.0492 -0.1889
  757MOL0     C 4393   7.322   8.775   2.570  0.2412  0.4654  0.5977
  757MOL0     C 4394   7.742   8.694   3.122 -0.4400 -0.6034 -0.3443
  757MOL0     C 4395   7.872   8.738   3.146 -0.5721 -0.7750  0.8694
  757MOL0     C 4396   7.986   8.635   3.141 -0.0664  0.2693 -0.0640
  757MOL0     H 4397   8.220   9.107   3.334  1.4383  0.8945  0.2333
  757MOL0     H 4398   8.414   9.218   3.307  1.6753 -0.7439 -0.2543
  757MOL0     H 4399   8.637   9.277   3.166 -0.0964 -0.7227  2.7285
  757MOL0     H 4400   8.567   9.375   3.301  3.8037 -1.8490  1.3110
  757MOL0     H 4401   8.713   9.461   3.050  0.9947 -2.5877  0.1068
  757MOL0     H 4402   8.637   9.576   3.168  3.6773  1.1697  0.9615
  757MOL0     H 4403   8.775   9.476   3.362  1.3210  1.8133  0.2574
  757MOL0     H 4404   8.847   9.361   3.248  0.2837  0.4816  2.4148
  757MOL0     H 4405   8.926   9.570   3.124 -1.3902 -2.6268 -0.1657
  757MOL0     H 4406   8.890   9.657   3.279  0.6739  0.0326  0.1230
  757MOL0     H 4407   9.042   9.392   3.291  0.5119 -0.3918 -0.9741
  757MOL0     H 4408   9.043   9.532   3.396 -1.1565 -0.6531 -0.2466
  757MOL0     H 4409   9.148   9.554   3.107  0.6826  0.6825  0.0416
  757MOL0     H 4410   9.197   9.655   3.246  2.1695 -1.0737  0.4783
  757MOL0     H 4411   9.371   9.548   3.174 -1.5873  1.8406  1.1126
  757MOL0     H 4412   9.296   9.385   3.194  1.8286  0.9652 -1.9305
  757MOL0     H 4413   9.362   9.571   3.429  0.4544 -0.0911  1.6157
  757MOL0     H 4414   9.299   9.415   3.449  0.2285 -3.3118 -1.5373
  757MOL0     H 4415   9.601   9.549   3.509  0.2036  0.8571 -0.4299
  757MOL0     H 4416   9.905   9.315   3.416  2.7148  3.3354 -2.0635
  757MOL0     H 4417   9.852   9.378   3.569  2.5166  1.0825  0.4136
  757MOL0     H 4418   9.900   9.528   3.310 -0.7135 -5.0771  0.9146
  757MOL0     H 4419   9.819   9.602   3.451  2.0888  3.1621  0.2630
  757MOL0     H 4420  10.055   9.663   3.489 -0.2600  0.2821  0.5904
  757MOL0     H 4421  10.035   9.534   3.596  0.5002  3.6231  0.6856
  757MOL0     H 4422  10.235   9.508   3.497 -0.4117  1.3528  0.7256
  757MOL0     H 4423  10.138   9.366   3.440 -0.5044 -0.2218  0.6595
  757MOL0     H 4424  10.270   9.607   3.075  0.9599  0.0054  1.1239
  757MOL0     H 4425  10.560   9.728   2.963 -0.1233  0.8073  1.2703
  757MOL0     H 4426  10.409   9.661   2.892  0.4223  3.1840  0.7230
  757MOL0     H 4427  10.559   9.565   2.891  1.4948  1.4941  0.4681
  757MOL0     H 4428  10.989   9.456   3.274  1.8921  0.0756  0.9691
  757MOL0     H 4429  11.230   9.402   3.222 -0.0634 -4.9151  3.0266
  757MOL0     H 4430  11.388   9.184   2.843  0.5661  0.2247 -0.5170
  757MOL0     H 4431  11.318   9.341   2.795  5.7184  3.9497 -1.8266
  757MOL0     H 4432  11.571   9.373   2.931  1.5812  1.2621 -1.1352
  757MOL0     H 4433  11.567   9.295   2.778  0.3126  0.4309 -0.2233
  757MOL0     H 4434  11.423   9.561   2.815 -1.5388 -0.7654 -1.5240
  757MOL0     H 4435  11.467   9.482   2.667 -3.4209  0.0155  1.2255
  757MOL0     H 4436  11.673   9.547   2.878  1.5393  0.7358  0.0263
  757MOL0     H 4437  11.615   9.679   2.771 -1.0218 -0.2623 -4.1729
  757MOL0     H 4438  11.745   9.409   2.698  0.9172 -0.5385 -1.4191
  757MOL0     H 4439  11.714   9.522   2.573  0.8855 -1.9675 -0.3311
  757MOL0     H 4440  11.915   9.569   2.798 -0.6563 -1.7573 -0.2845
  757MOL0     H 4441  11.855   9.687   2.668  1.1441  0.5309 -1.3511
  757MOL0     H 4442  11.930   9.556   2.500 -0.1187 -1.6377 -1.3056
  757MOL0     H 4443  11.961   9.410   2.604  1.2712 -0.5093  3.5265
  757MOL0     H 4444  12.121   9.664   2.564  1.2168  0.3664  2.9421
  757MOL0     H 4445  12.158   9.500   2.508  2.7221  0.1364  1.5307
  757MOL0     H 4446  11.101   9.264   2.839 -0.4937  4.1383 -0.1134
  757MOL0     H 4447  10.873   9.274   2.914 -2.1536  2.9173  2.5500
  757MOL0     H 4448  10.612   9.369   3.329  0.4892  1.0337 -0.3803
  757MOL0     H 4449  10.397   9.366   3.405  2.1546  1.3085  1.8329
  757MOL0     H 4450   8.302   9.366   2.923  2.2342 -0.9997 -0.1858
  757MOL0     H 4451   8.110   9.237   2.928  2.4508 -0.2458 -1.4588
  757MOL0     H 4452   7.771   9.055   3.226  0.2966 -0.3888 -0.0459
  757MOL0     H 4453   7.554   8.953   3.211 -1.1152  0.1702 -1.6967
  757MOL0     H 4454   7.315   8.691   3.185  0.4965 -0.4510 -2.8158
  757MOL0     H 4455   7.379   8.843   3.245  1.4496  0.4858 -0.6774
  757MOL0     H 4456   7.391   8.957   3.039  1.5429 -0.3245  3.3878
  757MOL0     H 4457   7.233   8.881   3.055 -0.3783 -2.2739 -0.0416
  757MOL0     H 4458   7.435   8.741   2.890  1.3263  1.7147  3.0421
  757MOL0     H 4459   7.268   8.697   2.904  1.5793 -2.0018 -1.9062
  757MOL0     H 4460   7.345   8.982   2.829  2.1466 -1.8224  1.5859
  757MOL0     H 4461   7.179   8.902   2.832 -0.4036 -3.6351  0.3929
  757MOL0     H 4462   7.348   8.730   2.476 -0.3120  3.1558 -0.9367
  757MOL0     H 4463   7.723   8.592   3.091  1.4107 -1.0035 -0.2755
  757MOL0     H 4464   7.944   8.540   3.108 -1.1549  0.5764  0.3955
  757MOL0     H 4465   8.069   8.676   3.082  0.2068  0.6141  0.5426
  757MOL0     H 4466   8.021   8.619   3.243 -2.5053 -0.8977  0.6578
  758MOL0     O 4467   0.311   9.851   2.449 -0.3284  0.7662 -0.5728
  758MOL0     C 4468   0.323   9.773   2.356 -0.0958 -0.6896 -0.8513
  758MOL0     O 4469   0.435   9.763   2.286  0.1561 -0.2821  0.7542
  758MOL0     C 4470   0.554   9.815   2.329  0.3414 -0.4341  0.6778
  758MOL0     C 4471   0.663   9.798   2.239 -0.1548  0.0802 -0.3133
  758MOL0     C 4472   0.797   9.853   2.265  0.3620 -0.1590  0.6313
  758MOL0     C 4473   0.814   9.915   2.384 -0.0204 -0.4542 -0.8224
  758MOL0     O 4474   0.942   9.918   2.426  0.2149 -0.0009  0.8695
  758MOL0     C 4475   0.968   9.806   2.508  0.3838  0.4520  0.5093
  758MOL0     C 4476   1.118   9.809   2.529  0.0024  0.6289 -0.0961
  758MOL0     C 4477   1.159   9.689   2.604 -0.2346 -0.3200  0.6076
  758MOL0     C 4478   1.103   9.556   2.565  0.0292  0.0069  0.0743
  758MOL0     C 4479   1.188   9.446   2.622 -0.1260  0.1847  0.3210
  758MOL0     C 4480   1.141   9.310   2.580 -0.7651  0.1425  0.8106
  758MOL0     C 4481   1.022   9.262   2.658 -0.4320 -0.1510 -0.0808
  758MOL0     C 4482   1.022   9.108   2.639  0.3380  0.0250  0.4648
  758MOL0     N 4483   0.903   9.055   2.709 -0.9735  0.8600 -0.1919
  758MOL0     C 4484   0.773   9.073   2.680  0.5499  0.1878 -0.0125
  758MOL0     C 4485   0.696   9.009   2.779  0.3777  0.6523 -0.0578
  758MOL0     C 4486   0.547   9.023   2.793  0.2928 -0.0230  0.5046
  758MOL0     C 4487   0.498   9.105   2.922 -0.1389  0.3370 -0.5641
  758MOL0     C 4488   0.533   9.261   2.922  1.4358 -0.1059 -0.0858
  758MOL0     C 4489   0.523   9.323   3.071  0.7011  0.1277  0.0459
  758MOL0     O 4490   0.619   9.255   3.155 -0.3906  0.0317  0.3313
  758MOL0     C 4491   0.756   9.267   3.124 -0.4071  0.1251 -0.0539
  758MOL0     C 4492   0.822   9.387   3.086 -0.6115  0.8717 -0.2891
  758MOL0     C 4493   0.957   9.384   3.051  0.0918 -0.8311  1.1352
  758MOL0     C 4494   1.007   9.519   3.026 -0.7203 -0.1689  0.2549
  758MOL0     C 4495   1.032   9.262   3.048 -0.6377 -0.4800 -0.1772
  758MOL0     C 4496   1.177   9.264   3.016 -0.1758 -0.1123 -0.5274
  758MOL0     O 4497   1.224   9.133   3.003  0.0484  0.1283  0.8600
  758MOL0     C 4498   1.362   9.112   3.004  0.2404  0.5561 -0.0973
  758MOL0     C 4499   1.454   9.174   2.919  0.4661  0.5255 -0.1178
  758MOL0     C 4500   1.585   9.146   2.935  0.4348  0.4567 -0.0077
  758MOL0     C 4501   1.633   9.048   3.022 -0.0821 -0.7916 -0.0341
  758MOL0     O 4502   1.767   9.012   3.021 -0.2845  0.0517 -0.0343
  758MOL0     C 4503   1.864   9.092   2.944  1.5380 -0.1480  0.1281
  758MOL0     C 4504   2.007   9.026   2.943 -0.5789 -0.2113  0.0411
  758MOL0     C 4505   2.126   9.118   2.921  0.7898  0.6644  0.4964
  758MOL0     C 4506   2.092   9.249   2.849  0.1544 -0.2901  0.8231
  758MOL0     C 4507   2.223   9.311   2.792  0.0551  0.2680 -0.8842
  758MOL0     C 4508   2.317   9.369   2.905  0.1155  0.1110 -0.3564
  758MOL0     C 4509   2.401   9.471   2.845 -0.6717 -1.0484  0.0808
  758MOL0     C 4510   2.497   9.534   2.950  0.3411 -1.2037  0.6840
  758MOL0    Cl 4511   2.582   9.678   2.891 -0.5169  0.4570  0.1618
  758MOL0     C 4512   1.541   8.980   3.109  0.2749  0.3132  0.3259
  758MOL0     C 4513   1.408   9.010   3.094  0.2589  1.2532  0.0309
  758MOL0     O 4514   1.244   9.367   3.019  0.1078  0.3825  0.0826
  758MOL0     C 4515   0.970   9.141   3.092  0.3609  0.1491  0.0543
  758MOL0     C 4516   0.831   9.147   3.131 -0.5994  0.5206 -0.2785
  758MOL0     N 4517   0.781   8.945   2.863  0.0085  0.2132  0.1896
  758MOL0     N 4518   0.906   8.959   2.811  0.0336  0.2135 -0.9935
  758MOL0     C 4519   0.715   9.921   2.482  0.4891 -1.1008 -0.2442
  758MOL0     C 4520   0.591   9.870   2.455  0.0142 -0.5029  0.6723
  758MOL0     C 4521   0.199   9.693   2.328 -0.6899  0.5883  0.3017
  758MOL0     C 4522   0.205   9.585   2.245 -0.5515  0.5690  0.4343
  758MOL0     C 4523   0.088   9.531   2.189 -0.6005 -0.4221  0.1524
  758MOL0     C 4524  -0.029   9.567   2.231 -0.4433  0.6033  0.2153
  758MOL0     O 4525  -0.130   9.493   2.168  0.4200 -0.1989 -0.5160
  758MOL0     C 4526  -0.262   9.509   2.233  0.1686  0.1942  0.4868
  758MOL0     C 4527  -0.282   9.455   2.381 -0.0132  0.9237 -0.3546
  758MOL0     C 4528  -0.418   9.484   2.432  0.8439  0.3225 -0.7646
  758MOL0     C 4529  -0.438   9.439   2.578  0.9093  0.7462 -0.2140
  758MOL0     C 4530  -0.361   9.519   2.672 -0.1823  0.1174  0.2790
  758MOL0     C 4531  -0.308   9.579   2.756 -0.3082  0.1250 -0.2791
  758MOL0     C 4532  -0.038   9.661   2.323 -0.2148  0.3155 -0.0402
  758MOL0     C 4533   0.070   9.731   2.370 -0.5367 -0.1161  0.0585
  758MOL0     C 4534   0.046   9.834   2.477  0.5246 -0.6591  0.7285
  758MOL0     H 4535   0.651   9.754   2.141 -1.9017 -0.0953 -0.0407
  758MOL0     H 4536   0.886   9.850   2.203  1.3419  1.3260  1.8612
  758MOL0     H 4537   0.945   9.718   2.448  1.1866  2.0011 -2.2530
  758MOL0     H 4538   0.917   9.804   2.605  2.5933  0.4447  1.7380
  758MOL0     H 4539   1.164   9.825   2.431 -0.1903 -0.1361 -0.3113
  758MOL0     H 4540   1.136   9.890   2.601  1.1080 -1.9620  2.7842
  758MOL0     H 4541   1.269   9.689   2.600 -0.2585  0.6781 -1.2748
  758MOL0     H 4542   1.135   9.721   2.705 -1.8607  0.3396  0.0447
  758MOL0     H 4543   0.995   9.551   2.586 -0.6603  1.1934 -2.8009
  758MOL0     H 4544   1.109   9.562   2.456 -1.5407  2.0370  0.0293
  758MOL0     H 4545   1.201   9.459   2.730 -0.5920 -0.8441  0.5145
  758MOL0     H 4546   1.287   9.463   2.578 -0.6451 -3.5473 -2.8242
  758MOL0     H 4547   1.121   9.309   2.473  0.2604 -1.1092  0.6069
  758MOL0     H 4548   1.221   9.238   2.599 -1.1681 -0.8520 -1.0757
  758MOL0     H 4549   0.931   9.308   2.618 -0.0899  0.3611 -0.2758
  758MOL0     H 4550   1.027   9.283   2.765 -1.8627  2.3870 -0.4346
  758MOL0     H 4551   1.014   9.086   2.532 -2.9170  0.1113  0.5877
  758MOL0     H 4552   1.115   9.067   2.679  1.2019  1.2211 -0.2217
  758MOL0     H 4553   0.738   9.138   2.599 -2.2811  0.2321  1.1539
  758MOL0     H 4554   0.510   8.921   2.801  0.4774 -0.0916  0.4917
  758MOL0     H 4555   0.506   9.070   2.703  4.2109 -1.1887 -2.1515
  758MOL0     H 4556   0.395   9.081   2.952 -0.0985  0.4747 -0.3158
  758MOL0     H 4557   0.560   9.054   2.995  2.2535 -0.8962 -3.2571
  758MOL0     H 4558   0.635   9.278   2.888  1.6095  1.4583  1.0955
  758MOL0     H 4559   0.465   9.314   2.854  0.4081 -1.4642 -0.1641
  758MOL0     H 4560   0.543   9.430   3.078  1.5037  0.0325 -0.5403
  758MOL0     H 4561   0.429   9.287   3.113  2.6998 -4.4205  1.2937
  758MOL0     H 4562   0.773   9.483   3.096  1.0354  1.6547  0.7760
  758MOL0     H 4563   1.032   9.527   2.920 -1.3952  0.5700  0.1429
  758MOL0     H 4564   1.091   9.539   3.092 -0.4418 -1.7543  0.4184
  758MOL0     H 4565   0.940   9.603   3.049  0.5127  0.3901  1.9607
  758MOL0     H 4566   1.409   9.245   2.850 -1.9497  0.8541  1.6700
  758MOL0     H 4567   1.651   9.194   2.863  1.5703  2.5268  2.2932
  758MOL0     H 4568   1.843   9.106   2.838  1.4740  0.7450  0.2497
  758MOL0     H 4569   1.877   9.188   2.994  0.7201 -0.7748  1.6185
  758MOL0     H 4570   2.020   8.979   3.040  0.2097 -1.1429 -0.5017
  758MOL0     H 4571   2.021   8.951   2.864  0.5790  0.5624 -0.5110
  758MOL0     H 4572   2.210   9.074   2.867  0.6676  1.9316 -0.7793
  758MOL0     H 4573   2.183   9.129   3.014  2.2672 -0.2370 -0.2649
  758MOL0     H 4574   2.031   9.313   2.913  2.4427  0.7756  2.0970
  758MOL0     H 4575   2.021   9.235   2.768 -0.3438 -0.2753  1.2544
  758MOL0     H 4576   2.279   9.242   2.729  2.1606 -0.8492  2.0021
  758MOL0     H 4577   2.180   9.394   2.734 -1.0753 -0.0173 -0.4914
  758MOL0     H 4578   2.379   9.292   2.951  0.4427 -0.8803 -2.3747
  758MOL0     H 4579   2.243   9.408   2.976 -0.0931 -1.5380  0.3896
  758MOL0     H 4580   2.337   9.551   2.806 -1.0153 -1.8672 -1.1030
  758MOL0     H 4581   2.464   9.429   2.765 -1.0491  0.0260 -0.7991
  758MOL0     H 4582   2.561   9.449   2.976  0.6374 -1.4049 -0.6084
  758MOL0     H 4583   2.460   9.574   3.045  2.7576  3.5684 -0.0761
  758MOL0     H 4584   1.577   8.903   3.176 -0.4934  0.9784  1.5366
  758MOL0     H 4585   1.335   8.955   3.153  1.2847 -0.1138  0.0724
  758MOL0     H 4586   1.030   9.051   3.087  1.0604  0.6577 -1.0177
  758MOL0     H 4587   0.793   9.049   3.158  1.4723 -0.3800 -0.4578
  758MOL0     H 4588   0.747   9.969   2.573  0.3597 -0.2739 -0.6302
  758MOL0     H 4589   0.525   9.885   2.540 -0.5249 -0.1661  0.1993
  758MOL0     H 4590   0.297   9.546   2.201 -1.0526  1.4029 -1.4269
  758MOL0     H 4591   0.097   9.446   2.122  0.4366 -0.4952  0.3696
  758MOL0     H 4592  -0.295   9.613   2.229  1.3902  0.5604 -1.4996
  758MOL0     H 4593  -0.327   9.444   2.174  2.8883 -2.6596  0.3485
  758MOL0     H 4594  -0.212   9.507   2.447 -0.1600  3.7813 -2.2494
  758MOL0     H 4595  -0.258   9.348   2.385  2.2159  1.4012  0.6302
  758MOL0     H 4596  -0.449   9.587   2.413  2.8318  1.2407  0.5404
  758MOL0     H 4597  -0.499   9.425   2.390  1.0356 -0.7746  0.3316
  758MOL0     H 4598  -0.417   9.332   2.589 -3.1946 -0.3250 -0.9196
  758MOL0     H 4599  -0.545   9.446   2.597  0.5016 -2.4451 -0.6953
  758MOL0     H 4600  -0.269   9.648   2.829  0.6931  0.5874 -1.2212
  758MOL0     H 4601  -0.139   9.677   2.359 -0.9287 -2.4522 -0.5454
  758MOL0     H 4602   0.054   9.935   2.435  0.3836 -0.9939 -0.1256
  758MOL0     H 4603  -0.056   9.830   2.516  0.0935  0.7700 -0.1835
  758MOL0     H 4604   0.105   9.818   2.568  1.1264  0.3637  0.5350
  759MOL0     O 4605   9.811   6.067   2.982 -0.4260 -0.2414 -0.2796
  759MOL0     C 4606   9.791   5.959   2.948 -0.1941 -0.2468  0.1672
  759MOL0     O 4607   9.666   5.907   2.925  0.1921  0.5027  0.4735
  759MOL0     C 4608   9.554   5.982   2.936  0.1729 -0.5482 -0.3308
  759MOL0     C 4609   9.432   5.922   2.976 -0.4128  0.6427 -0.1000
  759MOL0     C 4610   9.314   5.985   2.993  0.7151 -0.3025 -0.4595
  759MOL0     C 4611   9.294   6.123   2.955 -0.2508  1.1905  0.1254
  759MOL0     O 4612   9.177   6.192   2.955 -0.2018 -0.3644 -0.3638
  759MOL0     C 4613   9.051   6.114   2.948 -0.5278  0.1986  0.0396
  759MOL0     C 4614   8.932   6.207   2.937 -0.5988  0.3376 -0.1829
  759MOL0     C 4615   8.804   6.118   2.933 -0.2038  0.6773  0.1023
  759MOL0     C 4616   8.675   6.201   2.929  0.8886 -0.6941 -0.6375
  759MOL0     C 4617   8.547   6.124   2.896  0.4783  0.0933 -0.2103
  759MOL0     C 4618   8.548   6.033   2.770 -0.5382 -0.2575  0.2674
  759MOL0     C 4619   8.411   6.020   2.713  0.3473  0.6635  0.2020
  759MOL0     C 4620   8.310   5.957   2.811 -0.2640 -0.3463 -1.1180
  759MOL0     N 4621   8.181   5.940   2.744 -0.6788  0.1519 -0.8384
  759MOL0     C 4622   8.116   6.036   2.681 -0.0952 -0.8700 -0.2276
  759MOL0     C 4623   8.023   5.978   2.612 -0.8568 -1.0020 -0.1417
  759MOL0     C 4624   7.937   6.043   2.503  0.0835  0.1410 -0.2515
  759MOL0     C 4625   8.020   6.111   2.393  0.1822  0.1911  0.1966
  759MOL0     C 4626   8.150   6.030   2.347  0.4775  0.2354 -0.1721
  759MOL0     C 4627   8.205   6.101   2.225  0.4566 -0.7718  0.0334
  759MOL0     O 4628   8.257   6.234   2.253  1.0266 -0.2411  0.0730
  759MOL0     C 4629   8.370   6.237   2.332  0.0313 -0.1688 -0.1261
  759MOL0     C 4630   8.492   6.274   2.273  0.6398 -0.3520  0.9074
  759MOL0     C 4631   8.603   6.315   2.340 -0.4000 -0.0936  0.4638
  759MOL0     C 4632   8.730   6.350   2.258 -0.0750 -0.8035 -1.0475
  759MOL0     C 4633   8.603   6.309   2.472 -0.2984  0.0378 -0.5049
  759MOL0     C 4634   8.730   6.336   2.553  0.5653 -0.1196 -0.7933
  759MOL0     O 4635   8.833   6.244   2.542  0.3818 -0.4347  0.2398
  759MOL0     C 4636   8.968   6.278   2.554  0.1205 -1.1722  1.2032
  759MOL0     C 4637   9.051   6.177   2.581 -1.6102  0.7539  0.0351
  759MOL0     C 4638   9.187   6.191   2.598  0.2176 -0.5964 -0.9477
  759MOL0     C 4639   9.238   6.317   2.584 -0.0074  0.5985 -0.8646
  759MOL0     O 4640   9.367   6.336   2.582 -0.4401  0.5714 -1.0413
  759MOL0     C 4641   9.426   6.466   2.591 -0.3628  0.2435  0.7425
  759MOL0     C 4642   9.572   6.478   2.561  0.0112  0.2014  0.6099
  759MOL0     C 4643   9.658   6.454   2.682 -0.3691  0.3087  0.1017
  759MOL0     C 4644   9.803   6.493   2.638  0.0753  0.4721  0.8754
  759MOL0     C 4645   9.882   6.464   2.764  0.3802  0.7691  0.3066
  759MOL0     C 4646  10.024   6.517   2.754  0.5860 -0.4144  0.9748
  759MOL0     C 4647  10.101   6.515   2.887 -0.1272  0.3737 -0.1618
  759MOL0     C 4648  10.105   6.369   2.937  0.2886 -0.9085  0.6394
  759MOL0    Cl 4649  10.234   6.357   3.058 -0.2851 -0.1510 -0.3651
  759MOL0     C 4650   9.149   6.420   2.540  0.3709  0.3528 -0.1076
  759MOL0     C 4651   9.015   6.407   2.526 -0.3572  0.3233 -0.5912
  759MOL0     O 4652   8.727   6.426   2.632  0.7079 -0.4752 -0.4308
  759MOL0     C 4653   8.481   6.284   2.539 -0.0346  0.0763  0.1958
  759MOL0     C 4654   8.366   6.253   2.468 -1.1361 -0.2257 -0.2543
  759MOL0     N 4655   8.042   5.838   2.626 -0.0987  1.2770  0.7127
  759MOL0     N 4656   8.133   5.821   2.713 -0.1337 -0.0271 -0.0632
  759MOL0     C 4657   9.413   6.184   2.908 -0.8737  0.2858  0.2947
  759MOL0     C 4658   9.539   6.119   2.911 -0.3376  0.1432  0.9250
  759MOL0     C 4659   9.907   5.862   2.941 -0.8378 -0.1915 -0.4057
  759MOL0     C 4660   9.874   5.724   2.913 -0.5915  0.2474  0.8245
  759MOL0     C 4661   9.975   5.626   2.899 -0.1642  0.4076 -0.1233
  759MOL0     C 4662  10.110   5.651   2.940 -1.2658  0.7435  0.2197
  759MOL0     O 4663  10.199   5.545   2.950  0.0297 -0.0794  0.3082
  759MOL0     C 4664  10.337   5.577   2.977 -0.3448  0.1970 -0.1420
  759MOL0     C 4665  10.378   5.543   3.116 -0.0103 -0.0625 -0.7828
  759MOL0     C 4666  10.278   5.607   3.216 -1.2780 -0.1372  0.2073
  759MOL0     C 4667  10.308   5.549   3.354 -0.0110 -0.7189 -0.3633
  759MOL0     C 4668  10.238   5.623   3.463 -0.0660 -0.4406  0.2241
  759MOL0     C 4669  10.194   5.695   3.551  0.1831 -0.1611  0.4768
  759MOL0     C 4670  10.139   5.788   2.977 -0.6174  1.2542  0.7831
  759MOL0     C 4671  10.044   5.892   2.977  0.1993 -0.7429 -0.0259
  759MOL0     C 4672  10.102   6.028   3.005 -0.6444 -0.0152 -0.1790
  759MOL0     H 4673   9.432   5.813   2.973 -1.3944  0.6526 -1.7033
  759MOL0     H 4674   9.229   5.926   3.028 -1.4950  0.4004 -4.1060
  759MOL0     H 4675   9.037   6.060   3.042  0.2980 -1.0363 -0.5120
  759MOL0     H 4676   9.054   6.044   2.864  4.4123  1.5899 -1.2695
  759MOL0     H 4677   8.938   6.271   3.026  0.6917 -0.9368  0.7017
  759MOL0     H 4678   8.941   6.255   2.840 -3.2125 -1.1198 -1.2375
  759MOL0     H 4679   8.815   6.064   2.839  0.4432  2.0908 -0.6594
  759MOL0     H 4680   8.801   6.034   3.003  0.2856 -2.5512 -3.3992
  759MOL0     H 4681   8.661   6.254   3.024 -2.6059 -2.1842 -0.1408
  759MOL0     H 4682   8.693   6.274   2.850 -2.2277 -0.8577 -1.6729
  759MOL0     H 4683   8.470   6.201   2.893  0.0449 -0.2370  1.2995
  759MOL0     H 4684   8.517   6.059   2.979 -2.8391  1.1046 -0.4882
  759MOL0     H 4685   8.625   6.063   2.698  1.6682 -1.8104  1.8699
  759MOL0     H 4686   8.585   5.935   2.800  1.8845  0.9014  1.3128
  759MOL0     H 4687   8.408   5.962   2.620  0.1079 -0.5830  0.9661
  759MOL0     H 4688   8.369   6.121   2.702 -0.7121  0.5141  2.3893
  759MOL0     H 4689   8.346   5.868   2.864  3.6862  0.9517 -1.2467
  759MOL0     H 4690   8.291   6.026   2.894  0.2951 -0.0952 -1.1914
  759MOL0     H 4691   8.127   6.144   2.688 -0.2704 -0.9115  0.7782
  759MOL0     H 4692   7.871   6.115   2.551  1.4521  0.8545  0.6027
  759MOL0     H 4693   7.879   5.960   2.461  1.4153 -1.5707  1.1327
  759MOL0     H 4694   7.959   6.131   2.305 -0.2688 -2.4574 -0.1730
  759MOL0     H 4695   8.049   6.208   2.435 -0.8803 -0.0111  1.4879
  759MOL0     H 4696   8.228   6.023   2.423 -0.7824  0.5077  1.2004
  759MOL0     H 4697   8.116   5.929   2.323  1.7223 -0.8507  2.2941
  759MOL0     H 4698   8.293   6.043   2.196  0.2518 -1.4342  0.7030
  759MOL0     H 4699   8.131   6.129   2.150  2.5006 -0.9175 -2.1464
  759MOL0     H 4700   8.492   6.275   2.164  2.3303 -4.4400  0.6967
  759MOL0     H 4701   8.709   6.400   2.163 -3.4917 -0.2591 -0.1366
  759MOL0     H 4702   8.794   6.266   2.228  0.1021 -0.7767 -0.7463
  759MOL0     H 4703   8.783   6.422   2.321 -2.2196 -1.3387  1.5468
  759MOL0     H 4704   9.003   6.080   2.585 -0.4284  0.1511  0.1497
  759MOL0     H 4705   9.256   6.110   2.617  1.3914  0.0053 -2.4160
  759MOL0     H 4706   9.388   6.514   2.500  1.9999  0.2099 -0.3453
  759MOL0     H 4707   9.402   6.521   2.682  0.6619  2.3943 -0.1868
  759MOL0     H 4708   9.614   6.412   2.484  0.4261  0.1318  0.8918
  759MOL0     H 4709   9.586   6.584   2.539  1.0254 -0.0810 -0.1626
  759MOL0     H 4710   9.640   6.352   2.716  0.8693  0.3904  1.0781
  759MOL0     H 4711   9.636   6.523   2.765  1.6465  1.1375  0.0057
  759MOL0     H 4712   9.798   6.600   2.618 -1.3175  0.5077  1.2973
  759MOL0     H 4713   9.843   6.434   2.556  0.8297 -0.9995  2.2335
  759MOL0     H 4714   9.840   6.522   2.847 -0.1289 -1.5947  1.7912
  759MOL0     H 4715   9.876   6.359   2.793  0.4960  1.8309  5.0578
  759MOL0     H 4716  10.023   6.623   2.726  1.1059 -0.6952 -0.1677
  759MOL0     H 4717  10.084   6.474   2.672  0.5324  3.9733 -1.6741
  759MOL0     H 4718  10.054   6.571   2.968 -0.8295  1.3547 -1.2193
  759MOL0     H 4719  10.199   6.561   2.869 -0.0442  0.8818  1.4269
  759MOL0     H 4720  10.123   6.299   2.855 -0.3277  1.3329 -1.5409
  759MOL0     H 4721  10.018   6.339   2.996 -1.8772 -1.7161 -2.7340
  759MOL0     H 4722   9.178   6.522   2.519 -1.0977  1.0347  0.9626
  759MOL0     H 4723   8.957   6.491   2.488  0.0888  0.6057 -0.6621
  759MOL0     H 4724   8.483   6.275   2.647  0.3405 -0.9757  0.1087
  759MOL0     H 4725   8.268   6.238   2.511 -2.1076 -0.4676 -2.4077
  759MOL0     H 4726   9.406   6.280   2.859 -1.5369  0.5160  0.8229
  759MOL0     H 4727   9.627   6.177   2.884  1.3051 -2.1306  1.1726
  759MOL0     H 4728   9.773   5.691   2.888 -0.1398  0.0262 -0.8546
  759MOL0     H 4729   9.946   5.524   2.874  1.5844 -0.2537  0.3935
  759MOL0     H 4730  10.398   5.514   2.911 -0.6352  1.5294 -1.7559
  759MOL0     H 4731  10.353   5.678   2.938 -0.6881 -1.0487 -3.9100
  759MOL0     H 4732  10.475   5.582   3.149 -0.9014  1.6348 -0.0255
  759MOL0     H 4733  10.380   5.436   3.136 -1.2400  0.1427  0.6315
  759MOL0     H 4734  10.294   5.715   3.230  2.5345 -0.4569 -0.4963
  759MOL0     H 4735  10.175   5.587   3.186 -2.1360  3.2193  0.5000
  759MOL0     H 4736  10.414   5.543   3.379 -0.1287  2.2039  1.2463
  759MOL0     H 4737  10.271   5.446   3.353 -2.9381  0.2273 -1.1594
  759MOL0     H 4738  10.150   5.761   3.624  0.7859 -0.6650  1.3044
  759MOL0     H 4739  10.239   5.812   3.009 -0.0031  2.7146 -1.9263
  759MOL0     H 4740  10.045   6.117   2.976  2.0933  1.4189 -1.4907
  759MOL0     H 4741  10.125   6.041   3.112  1.4937  2.8249 -0.8565
  759MOL0     H 4742  10.198   6.040   2.956 -0.5034  3.6518  0.6879
  760MOL0     O 4743   5.690   5.095   1.471 -0.6317  0.0287  0.7497
  760MOL0     C 4744   5.756   5.120   1.571  0.6516  0.5513 -0.9687
  760MOL0     O 4745   5.713   5.187   1.680  0.1354  0.6437  0.4920
  760MOL0     C 4746   5.590   5.249   1.674 -0.3463  0.4551  0.1959
  760MOL0     C 4747   5.556   5.348   1.580  0.4706  1.3497  0.2343
  760MOL0     C 4748   5.416   5.381   1.569 -0.0668  0.6395  0.8254
  760MOL0     C 4749   5.317   5.324   1.655 -0.9793 -0.2240 -0.2032
  760MOL0     O 4750   5.185   5.361   1.664 -0.0603  0.0917 -0.1055
  760MOL0     C 4751   5.145   5.487   1.608  0.2942 -1.1331 -0.0722
  760MOL0     C 4752   5.037   5.566   1.694 -0.4283 -0.0236  0.2206
  760MOL0     C 4753   5.083   5.589   1.832  0.1817 -0.9234 -0.0585
  760MOL0     C 4754   4.983   5.686   1.911  0.2871  0.0704  0.8864
  760MOL0     C 4755   5.017   5.683   2.068  0.2647  0.6033  0.8774
  760MOL0     C 4756   5.146   5.766   2.096  0.8508 -0.2112  0.1490
  760MOL0     C 4757   5.160   5.784   2.254  0.2252  1.3582  0.1361
  760MOL0     C 4758   5.046   5.850   2.328 -0.7364 -0.3378 -1.0652
  760MOL0     N 4759   5.088   5.903   2.462 -0.1517  0.5572 -0.7767
  760MOL0     C 4760   5.056   6.021   2.517  0.3162  0.2646 -0.2665
  760MOL0     C 4761   5.093   6.016   2.648 -0.0305  0.4811  0.9454
  760MOL0     C 4762   5.088   6.127   2.744 -0.0138  0.7799  0.4480
  760MOL0     C 4763   5.133   6.081   2.887 -0.5471  0.8075  0.1721
  760MOL0     C 4764   5.015   6.007   2.964 -1.1181  0.5992  0.4812
  760MOL0     C 4765   5.002   6.008   3.115 -0.3529 -0.6389 -0.2559
  760MOL0     O 4766   5.132   5.971   3.167 -0.6843 -0.2722 -0.5392
  760MOL0     C 4767   5.139   5.963   3.302  0.6096  0.0110  0.6458
  760MOL0     C 4768   5.251   5.898   3.352 -0.1040 -0.3809 -0.3544
  760MOL0     C 4769   5.273   5.878   3.490 -0.3628 -0.5236 -0.2909
  760MOL0     C 4770   5.411   5.833   3.538 -0.1653 -0.0892  0.1122
  760MOL0     C 4771   5.173   5.917   3.580  0.6237 -0.1334  0.2612
  760MOL0     C 4772   5.171   5.903   3.728 -0.0017 -0.1429  0.0821
  760MOL0     O 4773   5.111   6.004   3.803 -0.2490 -0.3366 -1.1281
  760MOL0     C 4774   5.123   6.005   3.942 -0.7487 -0.2746  0.6322
  760MOL0     C 4775   5.154   6.127   4.014  0.7949 -0.1900  0.3997
  760MOL0     C 4776   5.134   6.135   4.150  0.3702 -0.4749 -0.2629
  760MOL0     C 4777   5.089   6.024   4.222 -0.5072 -0.6796 -0.3080
  760MOL0     O 4778   5.065   6.045   4.355 -0.6126 -0.1565  0.3346
  760MOL0     C 4779   5.062   5.929   4.445  0.2569 -1.1699  0.3582
  760MOL0     C 4780   5.073   5.971   4.592 -0.4845  0.2179 -0.0540
  760MOL0     C 4781   5.093   5.846   4.681 -0.0988  0.2873 -0.1522
  760MOL0     C 4782   5.094   5.865   4.830  0.4787  0.4911  0.3259
  760MOL0     C 4783   5.111   5.748   4.914 -0.7946 -0.3980 -0.1120
  760MOL0     C 4784   4.993   5.652   4.904 -0.6985 -0.1515  0.0307
  760MOL0     C 4785   5.003   5.549   5.019 -0.7770 -0.1246  0.0327
  760MOL0     C 4786   4.878   5.477   5.044 -0.0529  0.4175  0.4380
  760MOL0    Cl 4787   4.824   5.382   4.903 -0.4879  0.1671 -0.0957
  760MOL0     C 4788   5.055   5.908   4.151 -0.0042  0.4685 -0.1056
  760MOL0     C 4789   5.071   5.904   4.011  0.2115  0.2875 -0.5399
  760MOL0     O 4790   5.209   5.798   3.779 -0.3163  0.1371 -0.3194
  760MOL0     C 4791   5.061   5.972   3.528  0.3766 -0.5951  0.1937
  760MOL0     C 4792   5.046   6.004   3.394  0.1178  0.0448 -0.4988
  760MOL0     N 4793   5.152   5.892   2.664 -0.6356 -0.3684 -0.4322
  760MOL0     N 4794   5.149   5.823   2.560  0.5878 -0.7212  0.0008
  760MOL0     C 4795   5.362   5.222   1.738  0.6718 -0.0363 -0.2628
  760MOL0     C 4796   5.494   5.185   1.751 -0.3410  0.2065 -0.3431
  760MOL0     C 4797   5.893   5.065   1.588  0.0833 -0.6045  0.3096
  760MOL0     C 4798   5.969   5.086   1.709  0.3462  0.4948  0.3779
  760MOL0     C 4799   6.100   5.040   1.714 -0.4023  0.0145  0.5028
  760MOL0     C 4800   6.168   4.975   1.612  0.2104 -0.3445 -0.4914
  760MOL0     O 4801   6.301   4.926   1.620  0.7649 -0.6895 -0.3211
  760MOL0     C 4802   6.381   4.965   1.726 -0.2932 -0.2315 -0.7008
  760MOL0     C 4803   6.524   4.951   1.694  0.2261  0.8139  0.2824
  760MOL0     C 4804   6.581   4.803   1.698  0.3422 -0.0075 -0.3139
  760MOL0     C 4805   6.730   4.787   1.677  0.1157 -0.3476 -0.5937
  760MOL0     C 4806   6.803   4.862   1.779 -0.2043  0.6695  0.3358
  760MOL0     C 4807   6.862   4.922   1.857  0.0367 -0.1965 -0.9083
  760MOL0     C 4808   6.096   4.970   1.496 -0.5404 -0.5028 -0.5959
  760MOL0     C 4809   5.959   5.004   1.485  0.2229 -0.9563  0.4712
  760MOL0     C 4810   5.890   4.957   1.353 -0.4302  0.5859  0.6025
  760MOL0     H 4811   5.633   5.391   1.517 -0.7221  1.9062 -0.8681
  760MOL0     H 4812   5.390   5.439   1.480 -0.6528  0.8262  1.1161
  760MOL0     H 4813   5.109   5.471   1.506  1.7545 -2.5793 -0.4023
  760MOL0     H 4814   5.236   5.547   1.616  1.5622 -3.2160  5.9442
  760MOL0     H 4815   5.002   5.656   1.641 -2.1539 -1.7558 -1.8127
  760MOL0     H 4816   4.952   5.497   1.691  0.9860 -1.8165 -0.5182
  760MOL0     H 4817   5.091   5.497   1.890  1.1939  0.0357  1.3751
  760MOL0     H 4818   5.179   5.641   1.837 -1.3482  2.0032  1.1410
  760MOL0     H 4819   4.981   5.783   1.862  1.3664  0.5064  1.6736
  760MOL0     H 4820   4.884   5.641   1.894  0.2459  0.4272  0.1571
  760MOL0     H 4821   5.045   5.578   2.084 -2.1183 -0.3531 -0.5964
  760MOL0     H 4822   4.928   5.691   2.131 -0.6283 -1.1299 -0.0659
  760MOL0     H 4823   5.231   5.723   2.043 -1.3654 -4.0735 -0.6927
  760MOL0     H 4824   5.121   5.865   2.058  1.8979  0.4325  1.0621
  760MOL0     H 4825   5.255   5.834   2.272  0.3755  1.3622 -0.6440
  760MOL0     H 4826   5.175   5.683   2.294 -1.9024  0.5554 -0.9298
  760MOL0     H 4827   4.995   5.927   2.269  1.4510  3.0373  1.0476
  760MOL0     H 4828   4.969   5.776   2.350 -1.0979  0.4375  0.4648
  760MOL0     H 4829   5.002   6.097   2.461 -1.4698  0.6841  1.8943
  760MOL0     H 4830   4.985   6.162   2.750  0.7468  2.9924  2.5075
  760MOL0     H 4831   5.137   6.213   2.699 -1.2385  1.9388  1.2751
  760MOL0     H 4832   5.220   6.016   2.871 -1.6454 -0.3024 -1.7026
  760MOL0     H 4833   5.174   6.168   2.938  2.5484 -0.4734  0.0823
  760MOL0     H 4834   4.923   6.049   2.923 -1.3689  0.0005  0.4196
  760MOL0     H 4835   5.028   5.905   2.926  0.5985  1.2367 -0.7516
  760MOL0     H 4836   4.964   6.102   3.156 -0.5943 -0.3349 -1.1636
  760MOL0     H 4837   4.930   5.931   3.145 -0.1000 -0.1643  1.6955
  760MOL0     H 4838   5.332   5.874   3.284  1.2091  1.4251  0.5167
  760MOL0     H 4839   5.459   5.927   3.564  1.7885 -0.4677 -1.8888
  760MOL0     H 4840   5.474   5.788   3.461  0.8673  0.6057  0.5398
  760MOL0     H 4841   5.416   5.762   3.621 -0.0022 -2.5887 -1.8832
  760MOL0     H 4842   5.181   6.214   3.955 -0.1525  0.0514  0.2982
  760MOL0     H 4843   5.165   6.225   4.203  0.2566  0.0701 -1.0996
  760MOL0     H 4844   4.969   5.874   4.432 -1.1446  1.1664 -0.1542
  760MOL0     H 4845   5.142   5.859   4.418  0.5889 -1.1591  1.2739
  760MOL0     H 4846   5.159   6.036   4.611  0.3519 -0.7335 -0.4910
  760MOL0     H 4847   4.976   6.016   4.617 -1.0946 -2.3633  2.7189
  760MOL0     H 4848   5.187   5.798   4.653  0.5165  1.0066  0.6332
  760MOL0     H 4849   5.016   5.771   4.665  0.4339 -1.3064  3.6804
  760MOL0     H 4850   5.003   5.915   4.862  0.1245 -0.2030  0.4157
  760MOL0     H 4851   5.178   5.933   4.849  0.7578  0.7454 -1.5937
  760MOL0     H 4852   5.204   5.699   4.886  0.2652  0.3406  1.9017
  760MOL0     H 4853   5.135   5.784   5.015  1.3248 -2.0034  0.0120
  760MOL0     H 4854   5.004   5.602   4.807  1.8648 -1.1217  0.7244
  760MOL0     H 4855   4.898   5.704   4.910 -0.3076  0.4219  1.7083
  760MOL0     H 4856   5.038   5.598   5.109 -0.4876  2.2951 -1.3143
  760MOL0     H 4857   5.083   5.478   4.997 -0.4791 -0.0402  0.8203
  760MOL0     H 4858   4.802   5.554   5.063  0.6068  0.6426  2.4509
  760MOL0     H 4859   4.893   5.413   5.131  0.1334 -2.2887 -1.4833
  760MOL0     H 4860   5.019   5.820   4.202  2.4390  0.4046  1.7128
  760MOL0     H 4861   5.037   5.817   3.957 -1.7079  0.4152  0.3983
  760MOL0     H 4862   4.974   5.985   3.592 -0.0574 -0.8643 -0.3350
  760MOL0     H 4863   4.958   6.055   3.354  0.0451 -0.5468 -1.1009
  760MOL0     H 4864   5.295   5.181   1.813  0.0358 -1.1852 -1.4090
  760MOL0     H 4865   5.516   5.117   1.833 -2.0354 -2.5050 -1.9628
  760MOL0     H 4866   5.928   5.146   1.791 -0.8572  0.1537  0.0527
  760MOL0     H 4867   6.149   5.046   1.811  1.1548 -1.8643 -0.0947
  760MOL0     H 4868   6.359   5.068   1.758 -0.3565 -0.2280 -0.7541
  760MOL0     H 4869   6.354   4.901   1.810  2.7425 -0.3567  0.2853
  760MOL0     H 4870   6.578   5.021   1.758 -1.3111  2.0925  0.2416
  760MOL0     H 4871   6.532   4.995   1.594 -1.3421 -0.4916 -0.4592
  760MOL0     H 4872   6.542   4.743   1.781  0.7785 -2.8669 -2.0262
  760MOL0     H 4873   6.540   4.760   1.606 -2.1125 -1.3128  1.2972
  760MOL0     H 4874   6.755   4.822   1.577  0.8287 -1.4674 -0.8382
  760MOL0     H 4875   6.754   4.680   1.687 -0.1060 -0.1869  2.6990
  760MOL0     H 4876   6.915   4.990   1.920 -0.7400 -0.2442 -0.1898
  760MOL0     H 4877   6.143   4.917   1.414  2.3077 -1.6393  1.5816
  760MOL0     H 4878   5.807   4.888   1.368 -1.7149  2.0564  0.4803
  760MOL0     H 4879   5.864   5.051   1.305  2.5449  1.0302 -0.3295
  760MOL0     H 4880   5.961   4.908   1.286 -2.1626 -1.2229  0.0035
  761MOL0     O 4881   0.930   8.473   5.630 -0.0155 -0.4974 -0.7632
  761MOL0     C 4882   1.007   8.485   5.538 -0.7161 -0.4521 -0.3086
  761MOL0     O 4883   1.028   8.596   5.458 -0.0502 -0.2969  0.6630
  761MOL0     C 4884   0.934   8.692   5.471 -0.0990 -0.0553  0.0600
  761MOL0     C 4885   0.830   8.693   5.373 -0.1845  0.2464  0.3815
  761MOL0     C 4886   0.727   8.784   5.382  0.9307  0.1365 -0.1069
  761MOL0     C 4887   0.715   8.858   5.504 -0.0254  0.1262 -0.4779
  761MOL0     O 4888   0.617   8.948   5.535  0.4761  0.3652  0.0350
  761MOL0     C 4889   0.530   8.998   5.434  0.0380  0.3701  0.2955
  761MOL0     C 4890   0.419   9.078   5.499  0.3018  0.1804  0.1443
  761MOL0     C 4891   0.303   9.006   5.566  0.0643 -0.4438 -0.1918
  761MOL0     C 4892   0.224   8.905   5.473 -0.6419 -0.0702  0.7099
  761MOL0     C 4893   0.113   8.828   5.547 -0.2843 -0.0595  0.7172
  761MOL0     C 4894   0.013   8.797   5.438  0.8124  0.2722 -0.3099
  761MOL0     C 4895  -0.098   8.708   5.482 -0.4229  0.3934 -1.1261
  761MOL0     C 4896  -0.220   8.726   5.400  1.1476 -0.3968  0.8078
  761MOL0     N 4897  -0.231   8.650   5.277 -0.0869 -0.3489 -0.5704
  761MOL0     C 4898  -0.127   8.629   5.191  0.8831 -0.2369 -0.3091
  761MOL0     C 4899  -0.163   8.524   5.120 -0.4856  0.1634  0.5137
  761MOL0     C 4900  -0.080   8.453   5.021  0.5487  0.4622  0.5706
  761MOL0     C 4901   0.063   8.428   5.068 -0.0992 -0.0073 -0.0581
  761MOL0     C 4902   0.144   8.333   4.981  0.1800 -0.8514 -0.1409
  761MOL0     C 4903   0.292   8.347   5.015  0.3339 -0.0969 -0.0035
  761MOL0     O 4904   0.309   8.286   5.140 -0.4702  0.0128  0.1698
  761MOL0     C 4905   0.441   8.246   5.174  0.3439 -0.6734 -0.8593
  761MOL0     C 4906   0.505   8.313   5.275 -0.1361  0.3314 -0.7252
  761MOL0     C 4907   0.636   8.265   5.314 -0.1628  0.4094 -0.6722
  761MOL0     C 4908   0.705   8.355   5.416  0.0653  0.0259  0.3640
  761MOL0     C 4909   0.707   8.164   5.234  0.3679 -0.4236  0.2573
  761MOL0     C 4910   0.847   8.120   5.254 -0.4674 -0.4336  0.4758
  761MOL0     O 4911   0.908   8.032   5.157 -0.2559 -0.1768 -0.8710
  761MOL0     C 4912   1.042   8.000   5.152  0.6802  0.5882 -0.2643
  761MOL0     C 4913   1.140   8.095   5.187  0.4581  0.4643  0.7418
  761MOL0     C 4914   1.273   8.052   5.179  0.5199 -0.3954 -0.2734
  761MOL0     C 4915   1.317   7.929   5.128 -0.4989 -0.2154 -0.4185
  761MOL0     O 4916   1.444   7.882   5.139  0.1463 -0.3580  0.0001
  761MOL0     C 4917   1.555   7.958   5.093 -0.8810  1.1602 -0.2459
  761MOL0     C 4918   1.674   7.870   5.064 -0.5131  0.8852  0.9813
  761MOL0     C 4919   1.642   7.762   4.952 -1.1699 -0.4183  0.0742
  761MOL0     C 4920   1.768   7.668   4.934 -0.1293  0.0727  0.0512
  761MOL0     C 4921   1.888   7.734   4.852  0.2931  0.0179  0.9876
  761MOL0     C 4922   2.003   7.635   4.818 -0.4911 -0.3669 -0.4468
  761MOL0     C 4923   2.139   7.698   4.811  0.0372 -0.5072 -0.7551
  761MOL0     C 4924   2.251   7.600   4.775  0.0259  0.9404  0.2406
  761MOL0    Cl 4925   2.266   7.450   4.875 -0.2589 -0.3255  0.1212
  761MOL0     C 4926   1.215   7.838   5.089  0.0132 -1.4364  0.6236
  761MOL0     C 4927   1.074   7.874   5.106  0.0550  0.0930  0.1542
  761MOL0     O 4928   0.905   8.161   5.353 -0.4613  0.2821 -0.6984
  761MOL0     C 4929   0.628   8.094   5.137 -0.9051 -1.5254  0.0665
  761MOL0     C 4930   0.501   8.136   5.112  0.8679 -0.2079 -0.1048
  761MOL0     N 4931  -0.292   8.489   5.155 -0.3756 -0.0187  0.1148
  761MOL0     N 4932  -0.329   8.567   5.249  0.1714 -0.2827 -0.3029
  761MOL0     C 4933   0.821   8.855   5.601  0.4808  0.4486 -0.2144
  761MOL0     C 4934   0.927   8.772   5.585 -0.2170 -0.1125  0.1436
  761MOL0     C 4935   1.120   8.387   5.528  0.4863 -1.0654  0.1210
  761MOL0     C 4936   1.218   8.413   5.435  0.4181  0.5033  0.5432
  761MOL0     C 4937   1.322   8.323   5.416  0.5898 -0.8240  0.4708
  761MOL0     C 4938   1.332   8.204   5.483  0.9447 -0.3327  0.7978
  761MOL0     O 4939   1.451   8.146   5.472 -0.5981  0.4299 -0.0699
  761MOL0     C 4940   1.479   8.024   5.545  0.5611  0.0329  0.6058
  761MOL0     C 4941   1.629   7.992   5.531 -0.3727  0.7088  0.2711
  761MOL0     C 4942   1.720   8.097   5.601  0.6951 -0.1184  0.2929
  761MOL0     C 4943   1.725   8.079   5.747 -0.1836  0.1968  0.3951
  761MOL0     C 4944   1.612   8.130   5.833  0.9228  1.0670  0.1695
  761MOL0     C 4945   1.515   8.181   5.889  0.8102 -0.4836  0.6876
  761MOL0     C 4946   1.231   8.173   5.568 -0.4059  0.1408 -0.3543
  761MOL0     C 4947   1.126   8.263   5.590 -0.4116  1.1110  0.2877
  761MOL0     C 4948   1.016   8.211   5.678  0.3572  0.2180  0.0027
  761MOL0     H 4949   0.846   8.630   5.286  1.7478  3.6539 -1.9611
  761MOL0     H 4950   0.638   8.780   5.320 -0.1131 -0.1646  1.3520
  761MOL0     H 4951   0.483   8.909   5.391 -1.3154  0.5718  1.2842
  761MOL0     H 4952   0.594   9.057   5.368 -1.3044  1.5903  0.0349
  761MOL0     H 4953   0.454   9.155   5.568 -1.0016 -1.2072  2.4744
  761MOL0     H 4954   0.371   9.126   5.413  1.5866 -0.6717 -1.0834
  761MOL0     H 4955   0.336   8.960   5.660  1.4978  1.5143  0.3441
  761MOL0     H 4956   0.228   9.083   5.588 -0.6881 -0.2800 -2.9909
  761MOL0     H 4957   0.174   8.959   5.392  0.0376  0.3566  0.5647
  761MOL0     H 4958   0.293   8.832   5.429  0.4267  1.3270 -0.0571
  761MOL0     H 4959   0.062   8.878   5.629  0.6527  0.0028  1.2859
  761MOL0     H 4960   0.163   8.739   5.587 -0.6358 -1.8977 -2.5778
  761MOL0     H 4961  -0.019   8.897   5.408  0.3905  0.8952  2.0309
  761MOL0     H 4962   0.068   8.763   5.350  3.2588  0.3597  1.1101
  761MOL0     H 4963  -0.127   8.730   5.586 -0.7409  1.8007 -1.4868
  761MOL0     H 4964  -0.063   8.605   5.471 -1.6903  0.0105 -1.7635
  761MOL0     H 4965  -0.307   8.703   5.462 -1.6315 -1.6476 -3.1982
  761MOL0     H 4966  -0.241   8.826   5.362 -1.8723 -1.7488 -1.5192
  761MOL0     H 4967  -0.032   8.682   5.189  1.0835 -0.3884  2.2438
  761MOL0     H 4968  -0.075   8.511   4.929  0.4741 -0.3802  0.0241
  761MOL0     H 4969  -0.132   8.365   4.983 -1.3426  1.7081  0.1161
  761MOL0     H 4970   0.105   8.529   5.064  1.3198 -0.5934 -0.6917
  761MOL0     H 4971   0.049   8.386   5.168 -0.8587 -3.5383 -1.5252
  761MOL0     H 4972   0.107   8.230   4.979 -2.0833 -0.0632 -0.8574
  761MOL0     H 4973   0.128   8.366   4.878  1.5957  0.1363 -0.0777
  761MOL0     H 4974   0.347   8.290   4.940 -0.3519 -1.0663  0.2136
  761MOL0     H 4975   0.339   8.445   5.021  1.2927 -0.6464  2.0629
  761MOL0     H 4976   0.473   8.387   5.347  0.1308 -0.5071  0.2779
  761MOL0     H 4977   0.630   8.414   5.470 -0.0603 -2.0588  2.6396
  761MOL0     H 4978   0.775   8.416   5.358 -0.0491 -0.4180 -0.2565
  761MOL0     H 4979   0.765   8.296   5.485  2.6808  0.7709 -1.1421
  761MOL0     H 4980   1.119   8.198   5.214  1.4720  0.0673  3.3411
  761MOL0     H 4981   1.344   8.128   5.213  0.1767 -0.8989  1.7376
  761MOL0     H 4982   1.516   8.005   5.003 -1.2668 -0.7157 -1.1102
  761MOL0     H 4983   1.591   8.026   5.171  0.3776  0.4431 -0.1696
  761MOL0     H 4984   1.756   7.936   5.033  0.1166 -0.0152  0.6713
  761MOL0     H 4985   1.716   7.818   5.150 -0.2489 -1.9807 -0.7345
  761MOL0     H 4986   1.610   7.813   4.861 -3.3591  0.2641  1.1473
  761MOL0     H 4987   1.563   7.691   4.979 -2.2705  0.6993 -0.1199
  761MOL0     H 4988   1.737   7.576   4.884  1.5082  0.4480 -1.7867
  761MOL0     H 4989   1.805   7.641   5.033  0.4216 -1.0819 -0.4607
  761MOL0     H 4990   1.835   7.766   4.762 -1.2749  0.8712  2.1559
  761MOL0     H 4991   1.919   7.820   4.912  1.3695 -0.6383  1.3954
  761MOL0     H 4992   1.987   7.579   4.726 -0.0629  0.9814 -1.3703
  761MOL0     H 4993   2.009   7.564   4.901 -4.0020 -1.1741 -0.7286
  761MOL0     H 4994   2.167   7.722   4.914  1.0695  2.2633 -1.5926
  761MOL0     H 4995   2.138   7.792   4.754 -2.0325 -0.9353 -1.4887
  761MOL0     H 4996   2.345   7.656   4.773  0.8015 -0.3054 -1.7682
  761MOL0     H 4997   2.238   7.575   4.670  0.2739  2.7595 -0.2593
  761MOL0     H 4998   1.248   7.737   5.067 -0.5082 -1.5004  0.1018
  761MOL0     H 4999   0.992   7.807   5.083 -0.7021  0.3590  1.8759
  761MOL0     H 5000   0.672   8.006   5.092  1.0870 -0.2186 -0.6919
  761MOL0     H 5001   0.441   8.097   5.030  1.2882  0.0691 -0.5519
  761MOL0     H 5002   0.805   8.914   5.691 -3.2464 -1.6377  0.7179
  761MOL0     H 5003   1.007   8.777   5.658  0.8349  0.2316 -0.9863
  761MOL0     H 5004   1.213   8.501   5.372  1.4047  0.4681  0.3966
  761MOL0     H 5005   1.395   8.354   5.342 -0.0755 -0.6276 -0.1171
  761MOL0     H 5006   1.461   8.035   5.652  3.2185  3.8540  0.8498
  761MOL0     H 5007   1.419   7.942   5.504  2.7196  0.1395 -3.2804
  761MOL0     H 5008   1.664   7.978   5.428  1.0464 -0.7244  0.8877
  761MOL0     H 5009   1.656   7.901   5.586 -0.9612  0.7298  0.5974
  761MOL0     H 5010   1.821   8.081   5.564  0.3064 -1.4183 -0.2632
  761MOL0     H 5011   1.692   8.200   5.578 -0.0760 -0.6282 -1.1498
  761MOL0     H 5012   1.818   8.119   5.788  0.8297 -0.5802 -1.0446
  761MOL0     H 5013   1.727   7.972   5.769  0.6513  0.2719  0.7320
  761MOL0     H 5014   1.434   8.237   5.932  0.2670  0.3830 -1.3625
  761MOL0     H 5015   1.244   8.081   5.623 -0.9495 -1.1673 -2.3281
  761MOL0     H 5016   1.027   8.103   5.692  1.4804  0.2710 -0.3786
  761MOL0     H 5017   1.012   8.269   5.770  1.6134  1.4745 -0.7028
  761MOL0     H 5018   0.920   8.225   5.627  0.2198  0.0415  0.2132
  762MOL0     O 5019   5.202   5.159   8.309  0.5847 -0.0864  0.0412
  762MOL0     C 5020   5.257   5.054   8.306  0.9599 -0.9397  0.3444
  762MOL0     O 5021   5.380   5.042   8.259 -0.7903  0.1781  0.1400
  762MOL0     C 5022   5.475   5.140   8.249 -0.5658  0.6122 -0.4303
  762MOL0     C 5023   5.551   5.149   8.134  1.4171 -0.2440 -0.9159
  762MOL0     C 5024   5.647   5.249   8.113 -0.7580 -0.7382 -0.5518
  762MOL0     C 5025   5.680   5.338   8.218 -0.4668 -0.1523  0.1038
  762MOL0     O 5026   5.774   5.439   8.201 -0.1346  0.1105  0.2613
  762MOL0     C 5027   5.889   5.393   8.127 -0.5645 -0.8794  0.4295
  762MOL0     C 5028   5.973   5.528   8.139 -0.5239 -0.1322  0.1183
  762MOL0     C 5029   6.087   5.539   8.028  0.5339 -0.1830 -0.4154
  762MOL0     C 5030   6.168   5.673   8.051 -0.5912  0.4022  0.2320
  762MOL0     C 5031   6.242   5.707   7.930 -0.1086 -0.1110  0.3402
  762MOL0     C 5032   6.301   5.850   7.936  0.1947  0.3943  0.5325
  762MOL0     C 5033   6.180   5.951   7.912  0.4404 -0.4584  0.0148
  762MOL0     C 5034   6.197   6.073   7.998  0.5564 -0.1475  0.1048
  762MOL0     N 5035   6.207   6.046   8.145 -0.2422  0.1996  0.4477
  762MOL0     C 5036   6.110   5.986   8.219 -0.4620  0.4147  0.0005
  762MOL0     C 5037   6.159   5.965   8.338  0.0418 -0.1819 -1.0648
  762MOL0     C 5038   6.080   5.893   8.451 -0.1784 -0.7631 -0.1643
  762MOL0     C 5039   6.141   5.937   8.589 -0.2741  0.0040  0.7116
  762MOL0     C 5040   6.076   5.863   8.704 -0.7482  0.5293 -1.4317
  762MOL0     C 5041   6.173   5.843   8.823 -0.1750  0.6774 -0.5192
  762MOL0     O 5042   6.139   5.918   8.941  0.2062  0.5877  0.6249
  762MOL0     C 5043   6.075   5.846   9.043 -0.2569 -0.3546  1.0680
  762MOL0     C 5044   6.066   5.919   9.169 -0.5668 -0.5197 -0.3477
  762MOL0     C 5045   5.994   5.866   9.281 -0.4521 -0.7850  0.7864
  762MOL0     C 5046   6.005   5.940   9.407  1.1533 -1.2727 -0.6096
  762MOL0     C 5047   5.923   5.743   9.262 -0.1512 -0.1188 -0.2225
  762MOL0     C 5048   5.846   5.681   9.373  0.5084 -0.1774  0.7247
  762MOL0     O 5049   5.820   5.748   9.492 -0.6265  1.1356  0.1873
  762MOL0     C 5050   5.741   5.685   9.571  0.3584  0.2917  0.2151
  762MOL0     C 5051   5.607   5.648   9.543 -0.1221  0.0112  0.4516
  762MOL0     C 5052   5.523   5.595   9.637  0.6702  0.8788 -0.2487
  762MOL0     C 5053   5.576   5.571   9.764 -0.0540  0.1346 -0.8198
  762MOL0     O 5054   5.504   5.501   9.855  0.3380  0.5028  0.1035
  762MOL0     C 5055   5.579   5.386   9.907  0.2997  0.9221 -0.4365
  762MOL0     C 5056   5.487   5.271   9.938 -0.5433 -0.7752 -0.2214
  762MOL0     C 5057   5.408   5.311  10.069  0.5510 -0.2925 -0.3277
  762MOL0     C 5058   5.301   5.193  10.099  0.0600  0.0548 -0.0026
  762MOL0     C 5059   5.192   5.229  10.206  0.2015  0.2777  0.5304
  762MOL0     C 5060   5.238   5.230  10.349  0.6819 -0.1402 -1.1345
  762MOL0     C 5061   5.141   5.313  10.438  0.2909  0.3376  0.4471
  762MOL0     C 5062   5.178   5.339  10.583 -0.2097  0.5870 -0.6580
  762MOL0    Cl 5063   5.160   5.180  10.671 -0.1960 -0.0309 -0.1116
  762MOL0     C 5064   5.700   5.619   9.795  0.1707  0.1326 -0.4103
  762MOL0     C 5065   5.784   5.677   9.706  0.5339 -0.1309  0.5707
  762MOL0     O 5066   5.819   5.557   9.354  0.4720  0.5898  0.1578
  762MOL0     C 5067   5.925   5.677   9.136 -0.1310 -0.4887 -0.1267
  762MOL0     C 5068   5.993   5.734   9.027  0.1344  0.1962  0.2248
  762MOL0     N 5069   6.292   6.015   8.333  0.1938 -0.0345  0.0057
  762MOL0     N 5070   6.315   6.071   8.215  0.0564  0.2279 -1.0601
  762MOL0     C 5071   5.608   5.321   8.338 -0.4034 -0.6017 -0.4613
  762MOL0     C 5072   5.509   5.224   8.352 -0.0047  0.9277  0.1709
  762MOL0     C 5073   5.182   4.931   8.325  0.8957  0.2564 -0.5021
  762MOL0     C 5074   5.238   4.807   8.293 -0.7231  0.5321  0.3199
  762MOL0     C 5075   5.161   4.690   8.281 -0.4428 -0.3743  0.1959
  762MOL0     C 5076   5.020   4.689   8.310 -0.1183  0.5505  0.0545
  762MOL0     O 5077   4.935   4.580   8.312 -0.1271  0.6740 -1.5359
  762MOL0     C 5078   4.983   4.442   8.333 -0.6128  1.0771  0.3141
  762MOL0     C 5079   4.878   4.339   8.379 -0.2187 -0.9494 -0.4964
  762MOL0     C 5080   4.751   4.349   8.296  1.1259  0.2092 -0.3322
  762MOL0     C 5081   4.641   4.269   8.373 -0.1377 -0.1759 -0.0045
  762MOL0     C 5082   4.505   4.287   8.325  0.0998 -0.0996  0.3121
  762MOL0     C 5083   4.388   4.300   8.285 -0.4380  0.4447 -0.1311
  762MOL0     C 5084   4.970   4.811   8.350  0.8364  1.3409 -0.7048
  762MOL0     C 5085   5.046   4.927   8.367  0.6933 -0.1837 -0.1304
  762MOL0     C 5086   4.979   5.047   8.436 -0.9665  0.3459  0.1675
  762MOL0     H 5087   5.545   5.066   8.065  0.2633 -0.6091 -0.3976
  762MOL0     H 5088   5.696   5.241   8.016 -0.0163 -1.8180 -0.1054
  762MOL0     H 5089   5.867   5.367   8.023 -2.4250 -1.3055  0.8916
  762MOL0     H 5090   5.930   5.303   8.175 -3.1088 -2.6927 -0.5472
  762MOL0     H 5091   5.909   5.616   8.140  0.2103  0.4014  0.6769
  762MOL0     H 5092   6.029   5.529   8.233  1.5283 -3.4005 -0.8674
  762MOL0     H 5093   6.146   5.447   8.030 -0.4941 -0.9391 -2.4569
  762MOL0     H 5094   6.033   5.543   7.933 -2.8559  0.8811  1.4021
  762MOL0     H 5095   6.093   5.749   8.074  0.5302  1.7362 -0.4150
  762MOL0     H 5096   6.239   5.663   8.134 -0.1982  3.2947  0.3190
  762MOL0     H 5097   6.174   5.695   7.845  0.5234 -2.3235  0.0932
  762MOL0     H 5098   6.330   5.643   7.918  1.9882  2.2177  2.1110
  762MOL0     H 5099   6.354   5.859   8.030  3.3236  1.8338 -1.2153
  762MOL0     H 5100   6.378   5.868   7.860 -1.4292 -0.1197 -1.3277
  762MOL0     H 5101   6.086   5.902   7.937 -0.2454  1.4275  1.3999
  762MOL0     H 5102   6.170   5.982   7.808 -1.9115 -0.9834  0.0248
  762MOL0     H 5103   6.284   6.131   7.964 -0.0330  0.1897 -0.8726
  762MOL0     H 5104   6.120   6.150   7.988  0.2636 -0.4994 -0.4131
  762MOL0     H 5105   6.010   5.951   8.194 -0.9865  0.4942  1.8210
  762MOL0     H 5106   6.094   5.785   8.441 -0.2459 -0.8849  0.9704
  762MOL0     H 5107   5.973   5.914   8.445  0.2408  2.0713  0.4856
  762MOL0     H 5108   6.248   5.917   8.590 -0.3362 -0.3919  2.1046
  762MOL0     H 5109   6.144   6.045   8.604  3.8951  0.3073 -1.0117
  762MOL0     H 5110   5.985   5.917   8.733 -0.5463  0.7717 -1.2520
  762MOL0     H 5111   6.053   5.765   8.663  2.5805 -1.3673  0.8340
  762MOL0     H 5112   6.179   5.736   8.845 -0.0546  0.8120  0.1330
  762MOL0     H 5113   6.277   5.871   8.806  0.1746 -1.0607 -1.5395
  762MOL0     H 5114   6.114   6.016   9.179 -2.5047  0.8867 -3.3058
  762MOL0     H 5115   6.023   5.874   9.492  1.1679  0.9066  1.1590
  762MOL0     H 5116   5.904   5.983   9.418 -0.8883 -5.2506 -1.7579
  762MOL0     H 5117   6.075   6.024   9.407 -2.2384  1.8233 -0.1844
  762MOL0     H 5118   5.556   5.670   9.450 -0.0443  0.7647  0.5793
  762MOL0     H 5119   5.417   5.578   9.625  1.0271 -1.1855 -0.8555
  762MOL0     H 5120   5.638   5.343   9.824 -0.4166 -3.2482  0.9640
  762MOL0     H 5121   5.646   5.404   9.992 -2.1150 -1.1991  2.1069
  762MOL0     H 5122   5.422   5.253   9.852 -1.4914  0.3869  0.2366
  762MOL0     H 5123   5.546   5.181   9.958 -0.5157 -0.7910 -0.3709
  762MOL0     H 5124   5.359   5.409  10.058 -1.4506 -0.8129  2.5602
  762MOL0     H 5125   5.475   5.322  10.155 -0.2587 -1.7148  0.5350
  762MOL0     H 5126   5.349   5.100  10.134  1.3395 -0.1304 -2.0525
  762MOL0     H 5127   5.249   5.154  10.011  2.2431 -2.5023 -0.3129
  762MOL0     H 5128   5.153   5.327  10.179  1.7020  1.6613  3.0110
  762MOL0     H 5129   5.109   5.158  10.216  0.5772 -0.3606 -0.6671
  762MOL0     H 5130   5.333   5.285  10.353 -0.6793  2.2965 -0.4431
  762MOL0     H 5131   5.249   5.130  10.390 -0.6378  0.5893  1.1580
  762MOL0     H 5132   5.039   5.274  10.434  0.6533 -0.6964  0.9820
  762MOL0     H 5133   5.136   5.413  10.393  1.1047  0.2243  0.0859
  762MOL0     H 5134   5.107   5.415  10.616  2.3758  3.0866 -0.5080
  762MOL0     H 5135   5.283   5.368  10.592 -0.0420 -0.6204  1.9626
  762MOL0     H 5136   5.728   5.618   9.900 -0.6677 -1.4407 -0.1720
  762MOL0     H 5137   5.882   5.705   9.744  1.6821  0.1635 -2.3543
  762MOL0     H 5138   5.876   5.583   9.112  0.2234  0.0061 -3.1786
  762MOL0     H 5139   5.979   5.684   8.931 -0.7485 -0.0732  0.4910
  762MOL0     H 5140   5.642   5.371   8.428 -0.0066 -0.9285 -0.4279
  762MOL0     H 5141   5.459   5.199   8.445 -1.7004 -1.5072 -1.2675
  762MOL0     H 5142   5.338   4.793   8.255 -2.1845 -4.2069 -2.6466
  762MOL0     H 5143   5.209   4.594   8.264  1.3127  0.4273  0.4114
  762MOL0     H 5144   5.024   4.412   8.236 -0.0284  0.4603  0.7470
  762MOL0     H 5145   5.065   4.432   8.405  1.7454 -1.8287 -2.4638
  762MOL0     H 5146   4.859   4.372   8.481 -0.1548  1.1102 -1.0913
  762MOL0     H 5147   4.916   4.237   8.384  0.6503 -0.6968 -1.4224
  762MOL0     H 5148   4.721   4.454   8.292  0.4091  0.0825  1.0721
  762MOL0     H 5149   4.766   4.312   8.194  2.6255 -0.7152  0.1878
  762MOL0     H 5150   4.642   4.277   8.482  0.7386 -5.9427  0.7197
  762MOL0     H 5151   4.660   4.162   8.363  0.1448 -0.3065  1.6631
  762MOL0     H 5152   4.289   4.331   8.255 -1.0520 -1.6734 -0.4519
  762MOL0     H 5153   4.868   4.807   8.387  0.9810 -0.1374 -0.3878
  762MOL0     H 5154   4.890   5.017   8.493 -0.0730 -0.9356  0.9269
  762MOL0     H 5155   5.044   5.093   8.511 -2.4875  3.9086 -0.4869
  762MOL0     H 5156   4.943   5.123   8.367  1.8619  0.8595 -0.8655
  763MOL0     O 5157   0.813   6.604   2.706  0.0438 -0.2901 -0.6599
  763MOL0     C 5158   0.743   6.656   2.792 -0.2532 -1.0752 -0.5505
  763MOL0     O 5159   0.782   6.693   2.918 -0.8182  0.7484 -0.3687
  763MOL0     C 5160   0.912   6.685   2.953  0.3061  0.3163 -0.4072
  763MOL0     C 5161   0.954   6.574   3.039 -0.1880 -0.4349  0.3295
  763MOL0     C 5162   1.085   6.552   3.062  0.0872 -0.8056  0.4644
  763MOL0     C 5163   1.183   6.644   3.022  0.0527 -0.3620  0.6074
  763MOL0     O 5164   1.311   6.611   3.068  0.3935 -0.0855 -0.3664
  763MOL0     C 5165   1.415   6.672   2.994 -0.5772  0.1388 -0.4016
  763MOL0     C 5166   1.558   6.624   3.033  1.0446  0.7199 -0.2463
  763MOL0     C 5167   1.572   6.478   2.995 -0.2571  0.2431 -0.0487
  763MOL0     C 5168   1.703   6.424   3.053  0.2744  0.4826 -0.7178
  763MOL0     C 5169   1.714   6.276   3.014 -0.1464 -0.2824 -0.7706
  763MOL0     C 5170   1.838   6.211   3.074 -0.2263 -0.3754  0.8984
  763MOL0     C 5171   1.851   6.061   3.068  0.3782  0.6697  0.2299
  763MOL0     C 5172   1.997   6.010   3.086  0.1591 -0.1507 -0.3665
  763MOL0     N 5173   2.090   6.076   2.993  0.2038  0.4501  0.2788
  763MOL0     C 5174   2.096   6.052   2.856 -0.4697  0.0698 -0.1071
  763MOL0     C 5175   2.193   6.135   2.820 -0.8659  0.4412 -0.6471
  763MOL0     C 5176   2.229   6.183   2.687 -0.0686 -0.9936 -0.6309
  763MOL0     C 5177   2.243   6.062   2.579 -0.7509 -0.4271  0.0717
  763MOL0     C 5178   2.343   5.947   2.633  0.3347  0.0875 -0.0621
  763MOL0     C 5179   2.486   5.990   2.624 -0.2533  0.8512  0.1717
  763MOL0     O 5180   2.523   6.036   2.489  0.3853  0.2971 -0.9802
  763MOL0     C 5181   2.662   6.053   2.490  0.8681  0.1892  0.8582
  763MOL0     C 5182   2.715   6.101   2.374 -0.7150  0.7901  1.0366
  763MOL0     C 5183   2.855   6.131   2.350  0.6811  0.7061  0.2132
  763MOL0     C 5184   2.886   6.171   2.208 -0.4564  0.3884  1.6956
  763MOL0     C 5185   2.947   6.141   2.453  1.1066 -0.0874  1.1063
  763MOL0     C 5186   3.087   6.177   2.448  0.2108  0.2420 -0.1821
  763MOL0     O 5187   3.138   6.249   2.343  0.2790  0.0247  0.2238
  763MOL0     C 5188   3.266   6.295   2.355 -0.0656  0.4047  0.6802
  763MOL0     C 5189   3.293   6.430   2.319 -0.0547  0.8852  0.1308
  763MOL0     C 5190   3.411   6.499   2.333 -0.3973 -0.3247  0.3001
  763MOL0     C 5191   3.513   6.427   2.398 -0.5512 -0.3661  0.7847
  763MOL0     O 5192   3.633   6.486   2.426 -1.1104 -0.0177 -0.2534
  763MOL0     C 5193   3.679   6.594   2.346 -1.1044  0.2868  0.2521
  763MOL0     C 5194   3.830   6.630   2.382 -0.0535  0.2509 -0.3350
  763MOL0     C 5195   3.844   6.691   2.527 -0.0102  0.0264  0.5005
  763MOL0     C 5196   3.996   6.694   2.560  0.5874  0.5813 -0.1836
  763MOL0     C 5197   4.022   6.726   2.705 -0.1640 -0.4345 -0.5700
  763MOL0     C 5198   4.171   6.693   2.731  0.3381  0.6658 -0.1702
  763MOL0     C 5199   4.276   6.764   2.653 -0.0101  0.1796 -0.9086
  763MOL0     C 5200   4.410   6.736   2.715 -0.0305  0.0088 -0.1622
  763MOL0    Cl 5201   4.544   6.803   2.620  0.1815 -0.3310 -0.1796
  763MOL0     C 5202   3.504   6.295   2.423 -0.2548  1.1062  0.5525
  763MOL0     C 5203   3.382   6.226   2.400 -0.8558  0.1826 -0.4398
  763MOL0     O 5204   3.156   6.147   2.544  0.2195 -0.2313 -0.8319
  763MOL0     C 5205   2.889   6.092   2.579  0.6394  0.0911  0.5611
  763MOL0     C 5206   2.759   6.049   2.592  0.4516  0.5294  0.4624
  763MOL0     N 5207   2.231   6.209   2.927 -0.0187  0.9121 -0.3717
  763MOL0     N 5208   2.184   6.163   3.032 -0.3526 -1.4226  0.2141
  763MOL0     C 5209   1.140   6.763   2.964 -0.3445  0.1775  0.0962
  763MOL0     C 5210   1.009   6.780   2.919  0.2015  0.3945  0.3953
  763MOL0     C 5211   0.605   6.684   2.747 -0.5993  0.3619 -0.0069
  763MOL0     C 5212   0.594   6.730   2.609  1.0422 -1.4051 -0.0711
  763MOL0     C 5213   0.473   6.756   2.549  0.0709 -1.3032 -0.5025
  763MOL0     C 5214   0.356   6.743   2.623  0.0957 -0.2210 -0.2809
  763MOL0     O 5215   0.223   6.772   2.590 -0.0217 -0.0840  0.0185
  763MOL0     C 5216   0.196   6.824   2.460  0.1658 -0.5550  0.5656
  763MOL0     C 5217   0.043   6.824   2.453  0.0258  0.2683 -0.2080
  763MOL0     C 5218  -0.027   6.914   2.555  0.6914 -0.5403 -0.6367
  763MOL0     C 5219  -0.181   6.909   2.532  1.0088 -0.1537 -0.0579
  763MOL0     C 5220  -0.211   7.007   2.426  0.6598 -0.3556  0.2698
  763MOL0     C 5221  -0.258   7.089   2.349 -0.4147 -0.4758  0.1124
  763MOL0     C 5222   0.367   6.702   2.757 -0.5365 -0.2835 -0.9702
  763MOL0     C 5223   0.492   6.667   2.819  0.0558 -0.4653  0.0666
  763MOL0     C 5224   0.487   6.607   2.959  0.1549  0.0235 -0.0401
  763MOL0     H 5225   0.884   6.494   3.063 -1.7332  0.3925 -1.1634
  763MOL0     H 5226   1.116   6.466   3.122 -1.8791 -1.6250  0.3704
  763MOL0     H 5227   1.407   6.781   2.995  1.5233  0.3454 -0.4583
  763MOL0     H 5228   1.400   6.635   2.892 -0.2728 -0.3886 -0.2600
  763MOL0     H 5229   1.628   6.690   2.980  1.3915 -0.4958 -1.3380
  763MOL0     H 5230   1.581   6.644   3.138 -1.4138 -0.5482  0.5914
  763MOL0     H 5231   1.487   6.424   3.038  0.1797 -0.1140  0.3723
  763MOL0     H 5232   1.578   6.469   2.886  3.1762 -1.4673  0.1609
  763MOL0     H 5233   1.795   6.477   3.027  1.5299 -0.8141  0.8936
  763MOL0     H 5234   1.702   6.441   3.161  1.4101  0.0851 -0.6299
  763MOL0     H 5235   1.707   6.267   2.905  0.1752  4.2335 -1.3765
  763MOL0     H 5236   1.624   6.232   3.058 -0.4499  2.1582  1.3081
  763MOL0     H 5237   1.926   6.263   3.036  0.1290 -1.2619  0.4614
  763MOL0     H 5238   1.840   6.233   3.181 -0.8810  1.4634  0.5707
  763MOL0     H 5239   1.817   6.034   2.968 -1.1514  3.6127 -0.1501
  763MOL0     H 5240   1.784   6.025   3.147 -0.3049  0.9341 -0.2187
  763MOL0     H 5241   2.020   6.028   3.191 -0.6357  0.5086 -0.2951
  763MOL0     H 5242   2.003   5.902   3.072  0.2023 -0.8853  4.0103
  763MOL0     H 5243   2.029   5.992   2.795 -1.8305 -0.1608  1.5491
  763MOL0     H 5244   2.312   6.254   2.693 -2.8918  2.6395 -0.5130
  763MOL0     H 5245   2.146   6.244   2.650 -1.3688 -2.3275 -0.0013
  763MOL0     H 5246   2.149   6.009   2.559 -1.1991  0.3755  0.0209
  763MOL0     H 5247   2.286   6.106   2.489 -3.2652  2.8542  0.2720
  763MOL0     H 5248   2.319   5.922   2.737 -1.6198 -0.9376 -0.7010
  763MOL0     H 5249   2.333   5.857   2.572 -2.3806  0.5173 -0.3918
  763MOL0     H 5250   2.504   6.059   2.707  0.6463 -0.5271  1.1802
  763MOL0     H 5251   2.535   5.899   2.660 -1.2733 -0.9151 -2.6193
  763MOL0     H 5252   2.646   6.093   2.291 -1.1875  0.3099  1.4700
  763MOL0     H 5253   2.807   6.142   2.137  0.1492  1.4248  0.5462
  763MOL0     H 5254   2.982   6.130   2.176 -1.2626 -1.3963  1.4827
  763MOL0     H 5255   2.887   6.280   2.197  4.1872  0.5069  1.4311
  763MOL0     H 5256   3.205   6.484   2.286 -0.9276 -0.5343  0.0539
  763MOL0     H 5257   3.417   6.605   2.313 -0.7922 -0.7583 -2.4781
  763MOL0     H 5258   3.662   6.567   2.242 -2.9065 -1.8354  1.0241
  763MOL0     H 5259   3.624   6.685   2.371 -1.5908 -0.1453  0.7764
  763MOL0     H 5260   3.896   6.542   2.386  2.9676  2.3528 -0.7612
  763MOL0     H 5261   3.878   6.697   2.310  1.0556 -1.3453 -1.1415
  763MOL0     H 5262   3.793   6.626   2.599 -3.3964 -0.1911 -1.8969
  763MOL0     H 5263   3.787   6.782   2.546 -2.4519 -1.6514  1.7753
  763MOL0     H 5264   4.037   6.766   2.490 -0.3877  1.3365 -0.0103
  763MOL0     H 5265   4.036   6.594   2.542  2.8595  1.0104  1.9107
  763MOL0     H 5266   3.999   6.829   2.734  0.9556 -0.7749  1.8027
  763MOL0     H 5267   3.959   6.659   2.765 -0.8040  2.2190  1.9412
  763MOL0     H 5268   4.182   6.584   2.729 -2.1947  0.3595 -1.3587
  763MOL0     H 5269   4.194   6.719   2.834 -1.3946 -1.4741  0.8276
  763MOL0     H 5270   4.266   6.873   2.654  1.3385  0.3745  2.2110
  763MOL0     H 5271   4.281   6.724   2.552 -0.2225 -1.4910 -0.2796
  763MOL0     H 5272   4.421   6.629   2.732 -1.8727 -0.4540 -1.4787
  763MOL0     H 5273   4.419   6.782   2.814  0.6145  1.1540 -0.7326
  763MOL0     H 5274   3.587   6.237   2.462 -1.9612 -0.3132  2.3088
  763MOL0     H 5275   3.372   6.122   2.430 -1.2763  0.5561  0.7555
  763MOL0     H 5276   2.949   6.084   2.669 -0.7985 -1.0892  1.4595
  763MOL0     H 5277   2.738   6.014   2.693 -0.1131  0.4909  0.3359
  763MOL0     H 5278   1.209   6.847   2.953 -1.1495  1.0756  1.6543
  763MOL0     H 5279   0.991   6.867   2.856 -0.6431  0.1972  0.3596
  763MOL0     H 5280   0.681   6.751   2.548 -0.5128  3.6205 -1.0221
  763MOL0     H 5281   0.479   6.803   2.451 -3.0313  1.4129  0.4180
  763MOL0     H 5282   0.226   6.929   2.467 -1.3889 -0.1618  2.7926
  763MOL0     H 5283   0.244   6.778   2.373 -0.6094  1.7673 -1.1770
  763MOL0     H 5284  -0.005   6.727   2.467  1.2675 -0.3555 -0.0991
  763MOL0     H 5285   0.014   6.863   2.355  1.4756  1.7242 -0.1075
  763MOL0     H 5286  -0.004   6.878   2.656 -0.5058 -1.0713 -0.5264
  763MOL0     H 5287   0.017   7.013   2.542  0.9827 -0.9045 -2.8681
  763MOL0     H 5288  -0.235   6.941   2.622  0.0836  0.9667 -0.9694
  763MOL0     H 5289  -0.212   6.809   2.501  1.0866 -0.0900 -0.3522
  763MOL0     H 5290  -0.305   7.151   2.276 -1.0437 -1.3261 -0.2277
  763MOL0     H 5291   0.267   6.686   2.798 -0.6017 -2.4686 -1.8966
  763MOL0     H 5292   0.548   6.517   2.964 -0.9768 -0.7108  1.3285
  763MOL0     H 5293   0.539   6.672   3.031  3.2228 -1.8819 -0.3659
  763MOL0     H 5294   0.388   6.581   2.998 -0.0024 -0.0368 -0.4739
  764MOL0     O 5295   1.950   4.762  11.130 -0.9845 -0.1645 -0.9043
  764MOL0     C 5296   1.969   4.820  11.024  0.1431  0.1375  1.0642
  764MOL0     O 5297   1.873   4.849  10.934 -0.2778  0.0918  0.0021
  764MOL0     C 5298   1.742   4.840  10.976 -0.2211  0.5464  0.4640
  764MOL0     C 5299   1.649   4.858  10.868  0.1985 -0.0906 -0.9859
  764MOL0     C 5300   1.513   4.866  10.887 -0.2005  0.1749  0.0753
  764MOL0     C 5301   1.454   4.867  11.013 -0.4760 -0.2445  0.2729
  764MOL0     O 5302   1.317   4.858  11.015  0.4188 -0.3479  0.3149
  764MOL0     C 5303   1.251   4.985  10.976  0.7315 -0.3059 -0.9293
  764MOL0     C 5304   1.102   5.001  11.015 -0.0663 -0.6669  0.0264
  764MOL0     C 5305   1.090   5.015  11.164  0.2636 -0.6409 -0.4561
  764MOL0     C 5306   0.940   5.035  11.204 -0.2496 -0.5107  0.3800
  764MOL0     C 5307   0.920   5.093  11.342  0.3333 -0.0997 -0.3194
  764MOL0     C 5308   0.777   5.135  11.361  0.6554  0.1486  1.2072
  764MOL0     C 5309   0.732   5.166  11.505  0.2518  0.2169  0.0635
  764MOL0     C 5310   0.701   5.042  11.592  0.2061  0.1474 -0.9385
  764MOL0     N 5311   0.614   4.942  11.531  0.9995 -0.0663  0.2885
  764MOL0     C 5312   0.502   4.964  11.455 -0.2087  0.0390  0.5142
  764MOL0     C 5313   0.466   4.846  11.402 -0.7171  0.2142  0.5701
  764MOL0     C 5314   0.357   4.813  11.317  0.8924 -0.6222 -0.6992
  764MOL0     C 5315   0.399   4.804  11.177  0.2230  0.6164 -0.1103
  764MOL0     C 5316   0.284   4.736  11.100  0.6140 -0.2341  0.2972
  764MOL0     C 5317   0.288   4.754  10.945  0.3776  0.0780 -0.0462
  764MOL0     O 5318   0.164   4.722  10.890  0.4699 -0.1323  0.2037
  764MOL0     C 5319   0.139   4.594  10.845  0.5393  0.9047 -0.1376
  764MOL0     C 5320   0.010   4.568  10.801 -0.2046  0.2694 -0.1902
  764MOL0     C 5321  -0.031   4.439  10.749 -0.6337  0.4447 -0.7604
  764MOL0     C 5322  -0.170   4.420  10.697  0.2329 -0.0055  0.0268
  764MOL0     C 5323   0.066   4.333  10.743  0.7739 -0.1278 -0.1458
  764MOL0     C 5324   0.043   4.190  10.708  1.2541 -0.5471  0.8034
  764MOL0     O 5325   0.151   4.108  10.727  0.1988 -0.2969  0.1445
  764MOL0     C 5326   0.151   3.976  10.685  0.0617 -0.6630  0.0812
  764MOL0     C 5327   0.214   3.883  10.768  0.8091 -0.3280 -0.0516
  764MOL0     C 5328   0.217   3.753  10.731 -0.1864  0.0707 -0.4250
  764MOL0     C 5329   0.155   3.711  10.613 -0.4376  0.0041  0.2303
  764MOL0     O 5330   0.159   3.576  10.588 -0.8789  1.2126  0.6550
  764MOL0     C 5331   0.097   3.513  10.474 -0.4706 -0.1439 -1.1834
  764MOL0     C 5332   0.131   3.366  10.449  0.1505 -0.0018  0.2565
  764MOL0     C 5333   0.273   3.325  10.474 -0.1413 -0.2407 -0.4622
  764MOL0     C 5334   0.263   3.173  10.446 -0.0256  1.0563  0.5680
  764MOL0     C 5335   0.402   3.109  10.459  0.1296 -0.5339 -0.6963
  764MOL0     C 5336   0.396   2.957  10.455 -0.6160 -0.3527  0.0186
  764MOL0     C 5337   0.530   2.900  10.496 -0.7461  0.4882  0.1835
  764MOL0     C 5338   0.531   2.756  10.449 -0.7883  0.0920  0.7478
  764MOL0    Cl 5339   0.628   2.646  10.548 -0.0869 -0.1130 -0.1401
  764MOL0     C 5340   0.094   3.808  10.532 -0.0515 -0.1151 -0.4400
  764MOL0     C 5341   0.091   3.940  10.568 -0.1778 -0.1314  0.4969
  764MOL0     O 5342  -0.061   4.158  10.654  0.2169  0.4619 -0.5271
  764MOL0     C 5343   0.194   4.365  10.785 -0.3897 -0.5522 -1.1272
  764MOL0     C 5344   0.233   4.494  10.826  0.0243 -0.0886 -0.3369
  764MOL0     N 5345   0.549   4.743  11.462 -0.7339  1.1379 -0.4347
  764MOL0     N 5346   0.637   4.808  11.534 -0.2108  0.2660 -0.4448
  764MOL0     C 5347   1.541   4.853  11.120 -0.7863  0.2562 -0.0058
  764MOL0     C 5348   1.684   4.850  11.104  0.0185 -0.9898  0.5239
  764MOL0     C 5349   2.111   4.830  10.972  0.6633  0.3444  1.4221
  764MOL0     C 5350   2.125   4.829  10.834  1.1580 -0.7728 -1.4737
  764MOL0     C 5351   2.249   4.833  10.775 -0.4499  0.2112  0.6780
  764MOL0     C 5352   2.356   4.789  10.852 -0.4468  0.4653 -0.7514
  764MOL0     O 5353   2.479   4.767  10.794  0.1613  0.8828  0.1268
  764MOL0     C 5354   2.540   4.885  10.730 -0.1472 -0.4572 -0.4368
  764MOL0     C 5355   2.620   4.844  10.604  0.2907 -0.2936 -0.0915
  764MOL0     C 5356   2.682   4.962  10.523 -0.0979 -0.3202  0.2596
  764MOL0     C 5357   2.792   4.911  10.420  0.6894 -0.7319  0.4214
  764MOL0     C 5358   2.909   4.873  10.496  0.0107  0.2097 -0.4107
  764MOL0     C 5359   3.003   4.828  10.558 -0.4169 -0.8375  0.4753
  764MOL0     C 5360   2.342   4.789  10.994  0.1943 -0.4731 -0.1755
  764MOL0     C 5361   2.224   4.818  11.051  0.3795 -0.6263 -0.6854
  764MOL0     C 5362   2.213   4.812  11.208 -0.1889  0.0633  0.1056
  764MOL0     H 5363   1.684   4.868  10.765 -1.3218 -0.1611 -1.5253
  764MOL0     H 5364   1.453   4.851  10.798  1.7579 -1.4444 -1.0549
  764MOL0     H 5365   1.261   5.010  10.870 -0.5220  2.2575 -0.5107
  764MOL0     H 5366   1.304   5.069  11.023  0.8206 -0.6035 -0.4885
  764MOL0     H 5367   1.057   5.086  10.964 -2.4173 -1.6592  0.3097
  764MOL0     H 5368   1.048   4.906  11.006 -0.1262 -0.6629  0.3336
  764MOL0     H 5369   1.134   4.929  11.216  1.0030  0.6742  1.2041
  764MOL0     H 5370   1.148   5.099  11.204 -0.0877 -0.9091  0.6369
  764MOL0     H 5371   0.889   5.104  11.137 -1.4674 -0.2767  1.4974
  764MOL0     H 5372   0.878   4.945  11.197 -0.2095 -0.4866 -0.2485
  764MOL0     H 5373   0.986   5.180  11.350  0.0797  0.3358 -2.4813
  764MOL0     H 5374   0.945   5.014  11.414 -1.8826  0.1100  0.7605
  764MOL0     H 5375   0.760   5.225  11.300  0.8907 -0.0734  0.8063
  764MOL0     H 5376   0.714   5.051  11.330  0.7633  0.8903 -1.3217
  764MOL0     H 5377   0.636   5.219  11.497 -1.7011 -3.2660 -2.2474
  764MOL0     H 5378   0.812   5.227  11.548  2.0145 -1.7577 -0.2615
  764MOL0     H 5379   0.796   5.014  11.638 -1.3973  1.2233  3.5463
  764MOL0     H 5380   0.634   5.073  11.674 -1.6324 -2.0487 -1.5055
  764MOL0     H 5381   0.459   5.058  11.423  0.8377 -0.4081 -2.6540
  764MOL0     H 5382   0.276   4.887  11.324  0.4444 -1.1728  0.1221
  764MOL0     H 5383   0.318   4.718  11.353 -2.8350  1.8428  2.6416
  764MOL0     H 5384   0.435   4.900  11.139 -0.9861  1.3171  0.4592
  764MOL0     H 5385   0.477   4.730  11.156 -0.9828  0.2259 -4.1428
  764MOL0     H 5386   0.275   4.628  11.115  1.9029 -0.3058  0.6471
  764MOL0     H 5387   0.186   4.774  11.131  0.4738 -1.8079  1.9810
  764MOL0     H 5388   0.312   4.860  10.932  1.3219 -0.1032  0.0968
  764MOL0     H 5389   0.376   4.711  10.896  1.4605  2.9700 -0.8674
  764MOL0     H 5390  -0.062   4.648  10.808  0.6059  0.9248  0.9390
  764MOL0     H 5391  -0.224   4.348  10.759  1.2593 -1.8588 -1.1407
  764MOL0     H 5392  -0.155   4.386  10.594  1.7931 -0.4127  0.3628
  764MOL0     H 5393  -0.212   4.521  10.701 -0.0269 -0.1582  1.3789
  764MOL0     H 5394   0.260   3.916  10.860  1.4296  0.2166 -0.5460
  764MOL0     H 5395   0.282   3.684  10.785 -0.1406 -0.5708 -1.2729
  764MOL0     H 5396  -0.010   3.522  10.493 -0.1050  1.9798  0.3352
  764MOL0     H 5397   0.130   3.564  10.383  0.4303  0.1118 -0.7254
  764MOL0     H 5398   0.066   3.308  10.514  1.0439 -1.1061  0.2016
  764MOL0     H 5399   0.092   3.345  10.349 -5.4469 -2.3194  2.5085
  764MOL0     H 5400   0.307   3.348  10.575 -0.2981 -0.5025 -0.3483
  764MOL0     H 5401   0.342   3.360  10.396  2.7110 -2.0460  1.0675
  764MOL0     H 5402   0.219   3.147  10.349 -3.0334  1.0272  1.8333
  764MOL0     H 5403   0.205   3.126  10.526  1.6113  0.5064  1.4903
  764MOL0     H 5404   0.469   3.147  10.381  1.0770 -1.4520 -0.3626
  764MOL0     H 5405   0.453   3.141  10.551  2.2002 -0.0140 -1.9458
  764MOL0     H 5406   0.366   2.918  10.357 -0.4799  0.7119 -0.4494
  764MOL0     H 5407   0.316   2.923  10.521 -3.2416 -0.5607 -3.0127
  764MOL0     H 5408   0.546   2.900  10.604  0.1154  1.4118  0.0700
  764MOL0     H 5409   0.607   2.963  10.449 -3.5343  2.1426 -2.6022
  764MOL0     H 5410   0.581   2.757  10.352 -0.2478  4.3170  0.8480
  764MOL0     H 5411   0.426   2.724  10.443 -0.7959  0.0349  1.1663
  764MOL0     H 5412   0.032   3.773  10.451 -0.1758 -3.8048  1.0741
  764MOL0     H 5413   0.050   4.015  10.501  0.7542 -0.2725 -0.2428
  764MOL0     H 5414   0.276   4.294  10.795  1.7227  1.2862 -3.7859
  764MOL0     H 5415   0.340   4.506  10.842  0.2196  0.3709 -1.8380
  764MOL0     H 5416   1.492   4.861  11.216 -0.6774  1.2089 -0.0173
  764MOL0     H 5417   1.746   4.861  11.192  1.2458  2.5138 -0.6150
  764MOL0     H 5418   2.037   4.844  10.772 -1.1434 -0.2029  1.6695
  764MOL0     H 5419   2.267   4.843  10.669 -0.7236 -1.9207  0.3852
  764MOL0     H 5420   2.467   4.963  10.711  0.1153 -0.1837 -0.3278
  764MOL0     H 5421   2.613   4.923  10.802 -0.9843 -0.1322  0.2592
  764MOL0     H 5422   2.557   4.784  10.537 -0.3363  0.5824 -0.3023
  764MOL0     H 5423   2.701   4.777  10.636 -0.0938 -0.9499 -0.4625
  764MOL0     H 5424   2.608   5.020  10.466  0.5332 -0.2846 -0.5445
  764MOL0     H 5425   2.729   5.026  10.598  1.6547 -0.0293 -1.0214
  764MOL0     H 5426   2.823   4.992  10.354  0.2084 -0.1665  0.8838
  764MOL0     H 5427   2.763   4.828  10.354  0.3836  0.1363 -0.5596
  764MOL0     H 5428   3.072   4.778  10.622  2.0157 -0.7277 -1.9034
  764MOL0     H 5429   2.427   4.768  11.058  0.4509 -2.9536 -1.2175
  764MOL0     H 5430   2.186   4.715  11.250  1.1578  0.0615  1.0697
  764MOL0     H 5431   2.307   4.839  11.258  0.8989 -0.1488 -1.7596
  764MOL0     H 5432   2.136   4.884  11.236  0.5559  0.9259 -0.0088
  765MOL0     O 5433   4.253   6.343   2.127 -0.3634 -0.0705 -0.3083
  765MOL0     C 5434   4.160   6.377   2.200 -0.2547  0.1692  0.2133
  765MOL0     O 5435   4.163   6.390   2.331 -0.7649 -0.3324  1.0284
  765MOL0     C 5436   4.286   6.390   2.394 -0.5932 -0.3249 -0.1603
  765MOL0     C 5437   4.312   6.322   2.519  0.6527  0.0558  0.2184
  765MOL0     C 5438   4.433   6.338   2.587  0.3820  0.5130 -0.5077
  765MOL0     C 5439   4.526   6.427   2.537  0.2590 -0.5086 -0.1540
  765MOL0     O 5440   4.636   6.442   2.618 -0.5479 -0.0185 -0.4702
  765MOL0     C 5441   4.755   6.502   2.562  0.2281  0.2221 -0.5799
  765MOL0     C 5442   4.880   6.464   2.648  1.0505  1.3055  1.1117
  765MOL0     C 5443   4.864   6.484   2.792  0.2901 -0.1056  0.1789
  765MOL0     C 5444   4.893   6.630   2.835  0.1983 -0.7711 -0.3764
  765MOL0     C 5445   4.913   6.635   2.978  0.0047 -0.1958  0.0573
  765MOL0     C 5446   4.938   6.783   3.021 -0.3898 -0.2498 -0.0454
  765MOL0     C 5447   4.973   6.807   3.166 -0.2254 -0.5353 -0.3060
  765MOL0     C 5448   5.079   6.711   3.218  0.4123 -0.2575  0.2657
  765MOL0     N 5449   5.119   6.755   3.355 -0.1851  0.8019 -0.1279
  765MOL0     C 5450   5.041   6.771   3.467 -0.1207 -0.8739 -0.2493
  765MOL0     C 5451   5.131   6.825   3.550  0.2388 -0.0198 -0.6472
  765MOL0     C 5452   5.091   6.875   3.689 -1.0413 -0.4657  0.1828
  765MOL0     C 5453   5.205   6.892   3.799 -0.4232 -0.9703  0.0772
  765MOL0     C 5454   5.298   7.022   3.777  0.0214  0.5877  0.0121
  765MOL0     C 5455   5.387   7.045   3.908  0.2756 -0.3981  0.6450
  765MOL0     O 5456   5.477   7.148   3.874 -0.8243  0.5289 -0.3929
  765MOL0     C 5457   5.609   7.116   3.854  0.6398  0.6380 -0.4031
  765MOL0     C 5458   5.685   7.069   3.959 -0.3992 -0.0342 -0.6798
  765MOL0     C 5459   5.823   7.060   3.937  0.1977  0.2731 -0.4796
  765MOL0     C 5460   5.909   7.010   4.051  0.0591  0.3748  0.6582
  765MOL0     C 5461   5.879   7.089   3.810  0.5206 -0.3425  0.0989
  765MOL0     C 5462   6.016   7.052   3.777 -0.1506 -0.2432 -0.1177
  765MOL0     O 5463   6.109   7.096   3.858  0.0706  0.0545 -0.0221
  765MOL0     C 5464   6.246   7.079   3.838 -0.0233 -0.6312 -0.6228
  765MOL0     C 5465   6.298   6.952   3.825  0.4282  1.0932  0.1448
  765MOL0     C 5466   6.438   6.933   3.826 -0.7338 -0.2725 -0.1550
  765MOL0     C 5467   6.532   7.041   3.853  0.2625 -0.2293 -0.2387
  765MOL0     O 5468   6.659   7.004   3.856 -0.6010  0.2448 -0.0661
  765MOL0     C 5469   6.753   7.103   3.893 -0.2917 -1.2693  0.5848
  765MOL0     C 5470   6.895   7.056   3.849  0.4784 -0.0533  0.9671
  765MOL0     C 5471   6.986   7.166   3.869 -0.2809  0.1464 -0.3014
  765MOL0     C 5472   7.125   7.111   3.826  0.3722  0.5683 -0.0642
  765MOL0     C 5473   7.249   7.207   3.821  0.0735 -0.5495  0.6006
  765MOL0     C 5474   7.370   7.136   3.766  0.1301 -0.0102  0.0959
  765MOL0     C 5475   7.358   7.069   3.634  0.9342 -0.2851 -0.8004
  765MOL0     C 5476   7.486   7.043   3.556 -0.2844  0.0410 -0.2819
  765MOL0    Cl 5477   7.578   6.927   3.654  0.2200  0.3346  0.2597
  765MOL0     C 5478   6.465   7.166   3.884 -0.1253  0.3364  0.0897
  765MOL0     C 5479   6.331   7.182   3.861  0.4288 -0.5437 -0.3599
  765MOL0     O 5480   6.036   6.984   3.678 -0.1809  0.0805  0.3062
  765MOL0     C 5481   5.796   7.126   3.701  0.2909 -0.7949 -0.2842
  765MOL0     C 5482   5.666   7.151   3.732 -0.7598  0.1823 -0.1404
  765MOL0     N 5483   5.257   6.840   3.492 -0.4585 -0.1081  0.6513
  765MOL0     N 5484   5.250   6.790   3.374 -0.0084 -0.7641  0.3174
  765MOL0     C 5485   4.496   6.513   2.431  0.4174 -0.4900 -0.6588
  765MOL0     C 5486   4.374   6.489   2.364 -0.0381 -0.9938  0.3967
  765MOL0     C 5487   4.025   6.377   2.142 -0.5129  0.7549 -0.3737
  765MOL0     C 5488   3.920   6.330   2.217 -1.4326  0.9564 -0.2496
  765MOL0     C 5489   3.792   6.321   2.169 -0.5043  0.8916 -0.7376
  765MOL0     C 5490   3.756   6.357   2.038  0.6807  0.5809  0.6131
  765MOL0     O 5491   3.643   6.331   1.969  0.2471  0.3142 -0.5486
  765MOL0     C 5492   3.541   6.279   2.052 -0.0754  0.0596 -0.7824
  765MOL0     C 5493   3.422   6.233   1.963 -0.0296 -0.1769 -0.0668
  765MOL0     C 5494   3.356   6.347   1.888 -0.4616 -0.2758  0.5559
  765MOL0     C 5495   3.298   6.453   1.985  0.5255 -0.3517  0.1296
  765MOL0     C 5496   3.215   6.549   1.914 -0.0151 -0.2036  0.8650
  765MOL0     C 5497   3.125   6.608   1.850  0.2404  0.3720  0.2827
  765MOL0     C 5498   3.864   6.401   1.963 -0.2694 -1.0505  0.2028
  765MOL0     C 5499   3.995   6.410   2.007 -0.3409 -0.2858 -0.0618
  765MOL0     C 5500   4.101   6.445   1.904  0.5449 -0.1366  0.1151
  765MOL0     H 5501   4.250   6.243   2.559  0.6006 -0.1189 -0.2069
  765MOL0     H 5502   4.458   6.294   2.683  0.3493  1.3764 -0.0933
  765MOL0     H 5503   4.759   6.611   2.554 -0.2224  0.1571 -1.7883
  765MOL0     H 5504   4.758   6.451   2.466  1.0380  0.2058 -0.5575
  765MOL0     H 5505   4.889   6.356   2.634  1.5855  1.3375  1.1697
  765MOL0     H 5506   4.967   6.515   2.607  1.8633 -2.1823 -2.0621
  765MOL0     H 5507   4.768   6.445   2.827  0.9795 -1.4452  0.6174
  765MOL0     H 5508   4.939   6.416   2.832 -0.1925 -0.8933 -0.2446
  765MOL0     H 5509   4.983   6.660   2.780  0.9587  2.1932  2.1491
  765MOL0     H 5510   4.815   6.697   2.797  0.6176  0.0262  0.1490
  765MOL0     H 5511   4.996   6.572   3.012  1.3640  1.2756 -0.4238
  765MOL0     H 5512   4.828   6.594   3.034  0.4153 -0.0442  0.8103
  765MOL0     H 5513   5.007   6.835   2.955 -1.7035  0.3317 -1.0049
  765MOL0     H 5514   4.850   6.841   2.991 -0.4248  0.4053  1.2331
  765MOL0     H 5515   4.881   6.799   3.225  0.9644 -0.1219  1.6869
  765MOL0     H 5516   5.005   6.912   3.168 -1.3729 -0.1732 -0.0327
  765MOL0     H 5517   5.040   6.608   3.216  0.7852 -0.4180 -2.9810
  765MOL0     H 5518   5.162   6.697   3.149 -0.1251 -0.8252 -0.2743
  765MOL0     H 5519   4.938   6.743   3.487 -0.1402 -1.0597 -0.6012
  765MOL0     H 5520   5.010   6.817   3.737  0.3310  0.4594  4.0110
  765MOL0     H 5521   5.056   6.977   3.673  1.4379  0.1097 -2.2135
  765MOL0     H 5522   5.162   6.902   3.899  1.6263 -0.1746  0.9334
  765MOL0     H 5523   5.267   6.802   3.795 -2.1174 -2.1706 -0.2718
  765MOL0     H 5524   5.359   7.000   3.690 -2.3136 -1.8487 -1.1473
  765MOL0     H 5525   5.244   7.112   3.745  0.5444  0.8590 -0.1273
  765MOL0     H 5526   5.328   7.078   3.994 -0.9527 -2.4322  0.6583
  765MOL0     H 5527   5.436   6.953   3.940  2.3768  1.2475  2.5189
  765MOL0     H 5528   5.645   7.062   4.060  4.2735 -2.6732  1.3030
  765MOL0     H 5529   5.978   7.088   4.085  1.2756 -0.9772  1.4220
  765MOL0     H 5530   5.963   6.921   4.019 -2.2361 -0.3520 -1.5111
  765MOL0     H 5531   5.841   6.993   4.136  0.8719  2.5037  1.8088
  765MOL0     H 5532   6.225   6.876   3.798 -0.3643  1.3348  1.5227
  765MOL0     H 5533   6.470   6.833   3.802 -0.1600 -0.4345  1.2116
  765MOL0     H 5534   6.734   7.196   3.838 -1.0009  0.2040  3.1835
  765MOL0     H 5535   6.771   7.123   3.999  1.1307 -1.9078  0.4831
  765MOL0     H 5536   6.924   6.965   3.904 -1.9912 -2.5154 -1.4718
  765MOL0     H 5537   6.889   7.024   3.744 -0.4063  3.0501 -0.0109
  765MOL0     H 5538   6.978   7.198   3.973  0.3721 -0.3930 -0.0831
  765MOL0     H 5539   6.958   7.253   3.809 -0.5430  1.1795  1.2495
  765MOL0     H 5540   7.105   7.075   3.725 -1.1659  0.5825  0.2174
  765MOL0     H 5541   7.149   7.024   3.887 -1.1152 -0.5684 -1.0398
  765MOL0     H 5542   7.219   7.284   3.749  0.1305 -2.7355 -1.8722
  765MOL0     H 5543   7.275   7.249   3.919  0.0591  0.2257  0.2852
  765MOL0     H 5544   7.404   7.053   3.828 -0.6386 -0.3451  0.0791
  765MOL0     H 5545   7.457   7.203   3.767  0.1647  0.0234 -1.7752
  765MOL0     H 5546   7.296   7.133   3.571  0.4733  2.7621  2.3779
  765MOL0     H 5547   7.324   6.966   3.648  2.0834 -0.5501  0.1611
  765MOL0     H 5548   7.524   7.144   3.542 -1.2372  0.2985 -1.0882
  765MOL0     H 5549   7.467   6.994   3.460 -1.6483  0.6669 -0.3579
  765MOL0     H 5550   6.537   7.244   3.903  1.9487 -0.5117 -3.4483
  765MOL0     H 5551   6.297   7.281   3.891 -0.0958 -0.1377 -2.1201
  765MOL0     H 5552   5.851   7.149   3.610  0.6015 -1.3835 -0.2517
  765MOL0     H 5553   5.596   7.181   3.655 -1.4807  3.2959  1.5951
  765MOL0     H 5554   4.562   6.592   2.398  0.4567 -1.0336 -1.9330
  765MOL0     H 5555   4.354   6.563   2.287  1.2709 -0.0119  0.9629
  765MOL0     H 5556   3.936   6.302   2.321 -4.6645  2.1169  0.6729
  765MOL0     H 5557   3.722   6.286   2.245 -0.2278  1.1744 -0.3482
  765MOL0     H 5558   3.573   6.195   2.116 -0.3156  0.0338 -0.6947
  765MOL0     H 5559   3.513   6.357   2.124  1.6995 -0.0583  0.0992
  765MOL0     H 5560   3.344   6.183   2.022  1.7551 -2.8841  0.1909
  765MOL0     H 5561   3.458   6.154   1.897  2.1221 -0.8965  1.8122
  765MOL0     H 5562   3.422   6.398   1.817 -1.8942  5.4977  2.7951
  765MOL0     H 5563   3.273   6.304   1.831 -0.0943 -0.8192  0.4316
  765MOL0     H 5564   3.375   6.509   2.039 -1.1947  2.9596 -0.6038
  765MOL0     H 5565   3.226   6.408   2.054 -1.2522  1.2877 -0.5432
  765MOL0     H 5566   3.040   6.663   1.815  0.5550  0.3339 -0.5486
  765MOL0     H 5567   3.867   6.402   1.854 -0.5653 -0.2964  0.1976
  765MOL0     H 5568   4.145   6.543   1.925  2.4027 -0.8187 -0.4372
  765MOL0     H 5569   4.180   6.369   1.902  1.4521  0.8056 -0.8484
  765MOL0     H 5570   4.062   6.452   1.802  1.5705  0.1031 -0.2773
  766MOL0     O 5571   6.077   3.779  10.401 -0.1310  0.1822  0.5024
  766MOL0     C 5572   5.996   3.777  10.502 -0.6087  0.9134  0.1149
  766MOL0     O 5573   6.027   3.820  10.627  0.5847  0.7695  0.2915
  766MOL0     C 5574   6.155   3.856  10.654  1.2178 -0.5081 -0.4920
  766MOL0     C 5575   6.183   3.991  10.692  0.7786  0.3124  0.0210
  766MOL0     C 5576   6.311   4.019  10.740  0.1341 -0.6985  0.2900
  766MOL0     C 5577   6.424   3.930  10.729  0.4634 -0.4645 -0.3544
  766MOL0     O 5578   6.540   3.980  10.762 -0.6742 -0.1277  0.6084
  766MOL0     C 5579   6.642   3.881  10.805 -0.0676 -0.1613 -0.4843
  766MOL0     C 5580   6.730   3.964  10.909 -0.7211  0.8952  0.3742
  766MOL0     C 5581   6.839   3.877  10.960  0.1207 -0.2592  0.5342
  766MOL0     C 5582   6.941   3.953  11.036  0.1096 -0.2509  0.9876
  766MOL0     C 5583   7.059   3.886  11.101 -0.4643 -0.3093  0.7335
  766MOL0     C 5584   7.174   3.846  11.007  0.8055 -0.2301  0.0631
  766MOL0     C 5585   7.296   3.791  11.085 -0.7909 -0.1869  1.0494
  766MOL0     C 5586   7.410   3.748  10.981  0.2076  0.5860  0.2705
  766MOL0     N 5587   7.468   3.865  10.911 -0.2629 -0.1970 -0.6377
  766MOL0     C 5588   7.507   3.980  10.972  0.2478 -0.7136 -0.0485
  766MOL0     C 5589   7.561   4.045  10.863  0.3820  0.0946 -0.0604
  766MOL0     C 5590   7.636   4.172  10.882 -0.2962 -0.0524 -0.1282
  766MOL0     C 5591   7.781   4.149  10.895 -0.9039  0.4840  0.2717
  766MOL0     C 5592   7.848   4.284  10.922  0.0943 -0.4318 -0.2831
  766MOL0     C 5593   8.002   4.281  10.922 -0.4153  0.6427 -0.0696
  766MOL0     O 5594   8.056   4.399  10.986  0.1335  0.0844  1.1005
  766MOL0     C 5595   8.194   4.407  11.013  0.8216 -1.1156  0.4322
  766MOL0     C 5596   8.236   4.494  11.116  0.6288  0.3269 -0.0118
  766MOL0     C 5597   8.370   4.529  11.134  0.6241  0.1563  0.3360
  766MOL0     C 5598   8.401   4.613  11.257  0.8296  0.6186  0.3575
  766MOL0     C 5599   8.470   4.477  11.044  0.0840  0.0228 -0.6663
  766MOL0     C 5600   8.618   4.491  11.055 -0.3720  0.1463  0.9839
  766MOL0     O 5601   8.701   4.446  10.948  0.1688 -0.2490 -0.2217
  766MOL0     C 5602   8.828   4.433  10.974 -0.8721 -0.3424 -0.8236
  766MOL0     C 5603   8.867   4.330  11.056 -0.5355  1.5190 -0.5931
  766MOL0     C 5604   8.996   4.297  11.078  0.2293 -1.0641  0.3639
  766MOL0     C 5605   9.099   4.372  11.011  0.6169  0.0761 -1.3262
  766MOL0     O 5606   9.229   4.332  11.032  0.0561  0.1461 -0.3194
  766MOL0     C 5607   9.332   4.408  10.971  1.0270 -0.8419 -0.5467
  766MOL0     C 5608   9.464   4.333  10.987 -0.1439 -0.7648  0.3645
  766MOL0     C 5609   9.580   4.382  10.892 -0.3357  0.4124 -0.7839
  766MOL0     C 5610   9.702   4.287  10.915 -0.1021 -0.9403  0.2334
  766MOL0     C 5611   9.828   4.339  10.845 -1.6505  0.0085  1.1508
  766MOL0     C 5612   9.942   4.237  10.855 -0.2969  0.4032 -0.4299
  766MOL0     C 5613   9.906   4.110  10.772 -0.3729 -0.0568 -0.2518
  766MOL0     C 5614  10.031   4.031  10.722  0.3143  0.6317  0.4334
  766MOL0    Cl 5615  10.175   4.040  10.840  0.3725 -0.0875 -0.1445
  766MOL0     C 5616   9.055   4.496  10.949 -0.2657 -0.1566 -0.1921
  766MOL0     C 5617   8.920   4.522  10.923  0.6559  0.2756 -0.3700
  766MOL0     O 5618   8.667   4.541  11.153  0.2229  0.4487 -0.2533
  766MOL0     C 5619   8.424   4.399  10.935  0.7757 -0.0353  0.3292
  766MOL0     C 5620   8.293   4.362  10.927  0.3041 -0.0161  0.6448
  766MOL0     N 5621   7.539   3.978  10.744 -0.6805 -0.7561 -0.5263
  766MOL0     N 5622   7.479   3.868  10.782 -0.6616  0.3877 -0.1190
  766MOL0     C 5623   6.397   3.808  10.676 -0.1793 -0.1604  0.0092
  766MOL0     C 5624   6.263   3.773  10.632  0.5153 -0.7496  0.2229
  766MOL0     C 5625   5.857   3.729  10.481  0.0250  0.0520  0.3612
  766MOL0     C 5626   5.764   3.755  10.584  0.0251  0.4285 -0.6488
  766MOL0     C 5627   5.629   3.720  10.565  0.2974 -0.3080 -0.0267
  766MOL0     C 5628   5.592   3.635  10.463 -0.0187 -0.3216  0.8129
  766MOL0     O 5629   5.480   3.564  10.462  0.7938 -0.1867 -0.0571
  766MOL0     C 5630   5.365   3.614  10.542 -0.0892 -0.2047  0.2461
  766MOL0     C 5631   5.272   3.495  10.552  0.1420  0.1231  0.5843
  766MOL0     C 5632   5.149   3.545  10.624 -0.1775  0.1007  0.1729
  766MOL0     C 5633   5.034   3.450  10.606  0.2590  0.1442 -0.5153
  766MOL0     C 5634   4.962   3.464  10.479  0.9084 -0.5304 -0.1723
  766MOL0     C 5635   4.909   3.477  10.372 -0.1411  0.1227  0.3505
  766MOL0     C 5636   5.683   3.606  10.364  0.1124 -0.6185 -0.7146
  766MOL0     C 5637   5.815   3.649  10.369 -0.1516  0.1091 -0.6001
  766MOL0     C 5638   5.901   3.583  10.267 -0.2614 -0.3052 -0.4193
  766MOL0     H 5639   6.094   4.052  10.705 -1.3549 -3.0814  3.2237
  766MOL0     H 5640   6.321   4.119  10.780  0.8461 -1.1442  1.2740
  766MOL0     H 5641   6.702   3.852  10.718  2.6742  0.5626  1.0502
  766MOL0     H 5642   6.590   3.794  10.847  0.3733 -0.2912 -0.2057
  766MOL0     H 5643   6.763   4.054  10.857 -2.2960  0.8098 -0.8932
  766MOL0     H 5644   6.660   3.999  10.986 -1.3696  0.0464  0.1930
  766MOL0     H 5645   6.805   3.804  11.035  1.7704 -2.6815 -0.9345
  766MOL0     H 5646   6.890   3.820  10.882 -1.5996 -1.6981  0.4088
  766MOL0     H 5647   6.984   4.031  10.973 -0.3744 -0.8757 -0.1303
  766MOL0     H 5648   6.886   3.994  11.122 -0.5064  0.9035  0.0683
  766MOL0     H 5649   7.033   3.800  11.162  1.1402 -0.9521  0.5699
  766MOL0     H 5650   7.107   3.960  11.167  0.6233 -1.6948  1.5574
  766MOL0     H 5651   7.146   3.761  10.944 -0.5846  0.8409 -0.8229
  766MOL0     H 5652   7.201   3.931  10.944 -2.9708  1.1014 -0.0252
  766MOL0     H 5653   7.270   3.712  11.156  1.4498 -1.3826  0.6351
  766MOL0     H 5654   7.336   3.873  11.145  1.6754 -0.5656  0.0355
  766MOL0     H 5655   7.486   3.692  11.038  1.6698  2.6694  0.4652
  766MOL0     H 5656   7.360   3.685  10.906 -2.3120  1.5162  1.0742
  766MOL0     H 5657   7.502   3.995  11.079 -1.4472 -0.2940 -0.1462
  766MOL0     H 5658   7.598   4.222  10.972  1.1599 -2.7852  2.1723
  766MOL0     H 5659   7.618   4.234  10.794 -0.4665 -2.6200 -2.0194
  766MOL0     H 5660   7.800   4.079  10.977  0.1751  1.6382  1.0466
  766MOL0     H 5661   7.828   4.098  10.810  1.3681 -0.5310  2.0180
  766MOL0     H 5662   7.814   4.347  10.839  0.2910 -0.4264 -0.3585
  766MOL0     H 5663   7.815   4.333  11.013  2.7239  2.8292 -0.8917
  766MOL0     H 5664   8.037   4.192  10.976 -1.1511 -0.8500 -1.9179
  766MOL0     H 5665   8.038   4.270  10.820 -0.1870  1.7870 -0.1214
  766MOL0     H 5666   8.159   4.537  11.180 -0.4353  0.4798 -1.3505
  766MOL0     H 5667   8.303   4.607  11.305 -0.5240  0.3390 -2.2453
  766MOL0     H 5668   8.427   4.716  11.232  1.4636  0.1098 -1.1587
  766MOL0     H 5669   8.480   4.565  11.315  1.3245  1.8700  0.7429
  766MOL0     H 5670   8.791   4.270  11.105  0.5065  0.7760  0.1563
  766MOL0     H 5671   9.021   4.214  11.143 -0.4930 -0.8491  0.9410
  766MOL0     H 5672   9.315   4.432  10.866 -1.3064  1.6166  0.2812
  766MOL0     H 5673   9.341   4.502  11.027 -1.7857 -0.4476 -0.6358
  766MOL0     H 5674   9.483   4.353  11.093  0.5957  1.9329 -0.1934
  766MOL0     H 5675   9.452   4.225  10.979  4.0930 -1.8173  3.9816
  766MOL0     H 5676   9.605   4.488  10.904 -2.0384  0.5823  2.6595
  766MOL0     H 5677   9.547   4.371  10.788  1.3991 -0.1306 -1.2970
  766MOL0     H 5678   9.671   4.191  10.872 -0.5605 -0.6834 -0.0303
  766MOL0     H 5679   9.712   4.273  11.023  2.6733  2.5046  0.5728
  766MOL0     H 5680   9.819   4.361  10.738  1.8736 -1.0797  0.5263
  766MOL0     H 5681   9.859   4.430  10.898 -1.1113  0.9594 -0.7047
  766MOL0     H 5682   9.955   4.223  10.963  4.2830  0.4214 -0.7531
  766MOL0     H 5683  10.029   4.281  10.804  0.2379 -1.3251 -1.0840
  766MOL0     H 5684   9.850   4.143  10.684 -1.8377 -1.4210  0.1238
  766MOL0     H 5685   9.843   4.048  10.836 -0.7439  0.4685 -0.1079
  766MOL0     H 5686  10.060   4.079  10.628 -1.3393  1.0136  0.0950
  766MOL0     H 5687  10.008   3.926  10.706  1.2906 -0.2272  3.8936
  766MOL0     H 5688   9.128   4.565  10.910 -1.7928 -0.1872 -3.3870
  766MOL0     H 5689   8.884   4.617  10.885 -2.0954  0.0956  1.5266
  766MOL0     H 5690   8.491   4.367  10.856  2.0187  1.2472  0.8198
  766MOL0     H 5691   8.271   4.297  10.842 -1.6109  2.4838 -0.9207
  766MOL0     H 5692   6.473   3.733  10.655 -0.5533 -0.6500  0.3782
  766MOL0     H 5693   6.241   3.669  10.609  4.2827 -2.3828  2.8653
  766MOL0     H 5694   5.793   3.799  10.678  0.6748  0.4398 -0.8510
  766MOL0     H 5695   5.560   3.759  10.640  1.2912  0.0016  0.7503
  766MOL0     H 5696   5.390   3.649  10.643  1.4558  0.1926 -0.2447
  766MOL0     H 5697   5.317   3.693  10.483 -1.3564  0.9263  2.6253
  766MOL0     H 5698   5.327   3.411  10.594  3.0461  0.1209 -2.7224
  766MOL0     H 5699   5.254   3.457  10.451  2.7328 -3.1049  1.1778
  766MOL0     H 5700   5.175   3.561  10.728 -0.0908 -3.3316  0.8221
  766MOL0     H 5701   5.122   3.640  10.578  0.7714  1.8852  3.0708
  766MOL0     H 5702   4.955   3.462  10.680  0.6329  0.5080 -0.1677
  766MOL0     H 5703   5.073   3.350  10.621  1.0739  0.4039 -0.8266
  766MOL0     H 5704   4.857   3.497  10.281 -0.0783 -2.4872 -0.3436
  766MOL0     H 5705   5.645   3.527  10.300 -1.0230  0.7281 -1.7574
  766MOL0     H 5706   5.836   3.521  10.205  0.6344 -0.4480 -1.2407
  766MOL0     H 5707   5.950   3.656  10.201  1.2558 -0.6562  0.2787
  766MOL0     H 5708   5.978   3.522  10.314 -1.5366 -0.8988  0.9653
  767MOL0     O 5709   2.412   1.901  10.084  0.4765  0.0757  0.4373
  767MOL0     C 5710   2.396   1.909   9.961 -0.4551 -0.3086  0.2742
  767MOL0     O 5711   2.455   1.840   9.859 -0.5340  0.6069  0.1336
  767MOL0     C 5712   2.584   1.790   9.878  0.4034 -0.7577 -0.2008
  767MOL0     C 5713   2.697   1.880   9.895  0.7082 -0.1280  0.6809
  767MOL0     C 5714   2.826   1.831   9.876 -0.3996  0.2481 -0.2984
  767MOL0     C 5715   2.852   1.697   9.861 -1.2928  0.4608  0.3092
  767MOL0     O 5716   2.986   1.649   9.844  0.8002 -0.2702 -0.4397
  767MOL0     C 5717   3.094   1.709   9.912 -0.1841  0.6428  0.2990
  767MOL0     C 5718   3.217   1.620   9.872  0.3115 -0.0361  0.2150
  767MOL0     C 5719   3.344   1.683   9.928 -0.7907 -0.8406 -0.5824
  767MOL0     C 5720   3.463   1.599   9.884 -0.7142 -0.1366 -0.3203
  767MOL0     C 5721   3.588   1.601   9.979 -0.3972  0.1898  0.5718
  767MOL0     C 5722   3.637   1.749  10.005 -0.2937 -0.3719 -0.3618
  767MOL0     C 5723   3.766   1.761  10.099 -0.0758  0.8551 -0.1297
  767MOL0     C 5724   3.740   1.733  10.246  0.0787  0.0943  0.3576
  767MOL0     N 5725   3.871   1.733  10.303  0.1266 -0.4210  0.8317
  767MOL0     C 5726   3.929   1.845  10.367  0.4042 -0.3859  1.3890
  767MOL0     C 5727   4.046   1.799  10.414 -0.3127  0.9147 -0.0687
  767MOL0     C 5728   4.135   1.877  10.512 -0.2427 -0.4674 -0.3541
  767MOL0     C 5729   4.279   1.818  10.516 -0.4599 -0.7791 -0.0558
  767MOL0     C 5730   4.377   1.929  10.514  0.6732  0.3474 -0.2202
  767MOL0     C 5731   4.527   1.882  10.507  0.2517 -0.1379  0.2014
  767MOL0     O 5732   4.600   1.973  10.436 -0.1580  0.2740 -0.3805
  767MOL0     C 5733   4.732   1.937  10.424 -0.5324  0.9468  1.1144
  767MOL0     C 5734   4.779   1.816  10.367  0.3075  0.3096 -0.4516
  767MOL0     C 5735   4.918   1.775  10.368  0.1810  0.4836  0.0209
  767MOL0     C 5736   4.948   1.642  10.309  0.2563  0.1977  0.0654
  767MOL0     C 5737   5.006   1.865  10.428  0.5489 -0.1810  0.2165
  767MOL0     C 5738   5.159   1.843  10.446 -0.4128 -0.0503  0.2559
  767MOL0     O 5739   5.229   1.956  10.458 -0.5849  0.5471 -0.4572
  767MOL0     C 5740   5.361   1.945  10.428  0.3742  0.2352  0.6421
  767MOL0     C 5741   5.410   2.021  10.321 -0.2096  0.1333  0.0149
  767MOL0     C 5742   5.555   2.033  10.312 -0.4146  0.0066  0.6809
  767MOL0     C 5743   5.645   1.970  10.398 -0.3120 -0.3315 -0.2035
  767MOL0     O 5744   5.781   1.986  10.373  0.0569 -0.4296 -0.1476
  767MOL0     C 5745   5.879   1.923  10.457  0.1264  0.1357 -0.3629
  767MOL0     C 5746   6.021   1.920  10.387  0.1860 -1.0914  0.5647
  767MOL0     C 5747   6.074   2.057  10.368  1.0100 -0.1969 -0.1182
  767MOL0     C 5748   6.225   2.049  10.343 -0.3206 -0.5021 -0.4618
  767MOL0     C 5749   6.283   2.189  10.323  1.0550 -0.4821  0.7485
  767MOL0     C 5750   6.425   2.184  10.274 -0.0072 -0.0333  0.8045
  767MOL0     C 5751   6.430   2.127  10.125 -0.2502 -0.3184 -0.3545
  767MOL0     C 5752   6.542   2.205  10.054 -0.1030  0.0372 -0.8674
  767MOL0    Cl 5753   6.543   2.161   9.876 -0.3716  0.3692  0.1226
  767MOL0     C 5754   5.586   1.888  10.504 -0.5229  0.2526  0.5518
  767MOL0     C 5755   5.451   1.878  10.514  0.3534 -0.4665 -0.4619
  767MOL0     O 5756   5.204   1.727  10.448  0.3520 -0.0661 -0.7466
  767MOL0     C 5757   4.961   1.991  10.461 -0.2635  0.3504 -0.0191
  767MOL0     C 5758   4.828   2.028  10.460  1.1800  0.3684  0.0513
  767MOL0     N 5759   4.055   1.660  10.397 -0.2169  0.3820  0.4335
  767MOL0     N 5760   3.949   1.622  10.328 -0.5223 -0.4007 -0.1188
  767MOL0     C 5761   2.749   1.603   9.846 -0.4239 -0.2566  1.0688
  767MOL0     C 5762   2.617   1.650   9.858 -0.2685 -0.6033  0.6680
  767MOL0     C 5763   2.295   2.009   9.911 -0.3092  0.7628 -0.0796
  767MOL0     C 5764   2.340   2.115   9.837 -0.2931  0.2144  0.2651
  767MOL0     C 5765   2.246   2.186   9.765 -0.3135 -0.5111 -0.4729
  767MOL0     C 5766   2.109   2.172   9.789  0.9629  0.3132 -0.3597
  767MOL0     O 5767   2.028   2.254   9.720 -0.4285 -0.5733 -0.0482
  767MOL0     C 5768   1.888   2.222   9.712  0.1704 -0.7703 -0.1130
  767MOL0     C 5769   1.826   2.323   9.608  0.5389  0.2616 -0.0670
  767MOL0     C 5770   1.694   2.267   9.548 -0.0827  0.0650  0.3988
  767MOL0     C 5771   1.567   2.253   9.645 -0.3312 -0.3574  0.1684
  767MOL0     C 5772   1.458   2.195   9.569 -0.0657 -0.4139  0.5567
  767MOL0     C 5773   1.361   2.142   9.521 -0.0295 -0.2255  0.8863
  767MOL0     C 5774   2.067   2.075   9.890  0.2734 -0.0453  0.1661
  767MOL0     C 5775   2.162   1.989   9.952  0.9273  0.4739  0.7723
  767MOL0     C 5776   2.110   1.868  10.028  0.3609  0.0177 -0.6194
  767MOL0     H 5777   2.670   1.984   9.903  0.5326 -0.1005 -0.1525
  767MOL0     H 5778   2.918   1.886   9.886  2.1926 -3.5059 -1.1954
  767MOL0     H 5779   3.087   1.717  10.021 -0.5760  2.3753  0.1622
  767MOL0     H 5780   3.117   1.804   9.863  0.9336 -0.7687 -2.0635
  767MOL0     H 5781   3.199   1.517   9.905  0.0039  0.0901  0.4473
  767MOL0     H 5782   3.222   1.621   9.763 -0.9529  0.1353  0.1504
  767MOL0     H 5783   3.352   1.788   9.897 -1.8854 -0.1224  1.3912
  767MOL0     H 5784   3.324   1.686  10.035 -2.3063  2.5819 -0.8326
  767MOL0     H 5785   3.432   1.494   9.876 -1.1281 -0.4116  3.4062
  767MOL0     H 5786   3.490   1.630   9.782  0.4582  2.1230  0.6254
  767MOL0     H 5787   3.668   1.553   9.923 -2.3892 -1.3285 -1.1015
  767MOL0     H 5788   3.573   1.538  10.067 -1.6133 -0.8519 -0.3598
  767MOL0     H 5789   3.671   1.792   9.910  3.2712  1.4329  1.5056
  767MOL0     H 5790   3.556   1.813  10.043  0.0901 -0.7612  1.1877
  767MOL0     H 5791   3.803   1.861  10.074  0.2157  0.5477 -0.9702
  767MOL0     H 5792   3.836   1.687  10.060 -1.4167 -1.3540  1.4455
  767MOL0     H 5793   3.675   1.812  10.284  1.8210  1.3037  0.9780
  767MOL0     H 5794   3.693   1.637  10.268  0.6066 -0.6811 -1.6308
  767MOL0     H 5795   3.878   1.940  10.373 -0.2490 -0.0858 -4.1171
  767MOL0     H 5796   4.106   1.871  10.618  2.8075  1.9499  0.7951
  767MOL0     H 5797   4.138   1.980  10.477 -0.6484 -0.6566 -0.9363
  767MOL0     H 5798   4.301   1.754  10.601 -2.9223 -0.8764  0.5685
  767MOL0     H 5799   4.297   1.766  10.421  0.5795  1.9677 -1.4939
  767MOL0     H 5800   4.352   1.990  10.427  0.2466  0.0370 -0.3168
  767MOL0     H 5801   4.358   1.994  10.601 -2.4850  1.3232 -1.5082
  767MOL0     H 5802   4.565   1.872  10.609 -1.7979 -1.0417  0.9439
  767MOL0     H 5803   4.527   1.783  10.461  3.4695 -0.8806  1.5547
  767MOL0     H 5804   4.708   1.748  10.321  0.3648  0.3640 -0.6245
  767MOL0     H 5805   5.024   1.660  10.232 -0.1566 -0.0200 -0.4013
  767MOL0     H 5806   4.859   1.601  10.261  1.4235 -1.1124 -1.0961
  767MOL0     H 5807   4.987   1.578  10.389  0.3901 -1.2424 -1.1209
  767MOL0     H 5808   5.338   2.086  10.273 -0.8373  1.6239  2.7347
  767MOL0     H 5809   5.591   2.095  10.231  0.6823 -3.2366 -1.4948
  767MOL0     H 5810   5.882   1.979  10.551 -3.4532 -1.5868  0.9698
  767MOL0     H 5811   5.848   1.820  10.472  0.7473 -0.0687 -0.4478
  767MOL0     H 5812   6.081   1.856  10.452  1.7374 -0.0069  0.2449
  767MOL0     H 5813   6.014   1.872  10.289  1.0710  0.9971 -0.5797
  767MOL0     H 5814   6.048   2.123  10.452 -1.1872 -0.9551 -0.1597
  767MOL0     H 5815   6.027   2.103  10.280 -1.6564 -2.2575  0.1226
  767MOL0     H 5816   6.256   1.977  10.267 -1.1468 -1.7940  0.3701
  767MOL0     H 5817   6.263   2.009  10.437  1.1655  1.0704 -0.3603
  767MOL0     H 5818   6.226   2.246  10.249  2.8953 -0.0195 -0.3813
  767MOL0     H 5819   6.277   2.238  10.421 -2.9810 -0.5772  0.7348
  767MOL0     H 5820   6.481   2.113  10.336  0.6901 -0.7774 -0.6336
  767MOL0     H 5821   6.473   2.281  10.293 -0.2750  0.5173 -1.1973
  767MOL0     H 5822   6.335   2.142  10.074  0.5983 -1.5036 -2.3999
  767MOL0     H 5823   6.445   2.019  10.120  1.9213 -0.0064 -1.5472
  767MOL0     H 5824   6.634   2.180  10.107 -2.6444  1.2606  4.9288
  767MOL0     H 5825   6.539   2.313  10.071  0.5596  0.0275 -0.6749
  767MOL0     H 5826   5.652   1.836  10.572  1.9428  1.9137 -0.3913
  767MOL0     H 5827   5.412   1.820  10.598  1.7788 -0.2907  0.3502
  767MOL0     H 5828   5.026   2.069  10.498 -0.8664  1.9115 -2.0351
  767MOL0     H 5829   4.785   2.124  10.489 -0.6210 -0.2559 -0.4114
  767MOL0     H 5830   2.774   1.502   9.814  3.7240  0.2123  2.1487
  767MOL0     H 5831   2.543   1.574   9.838  0.0382 -0.9946  1.0037
  767MOL0     H 5832   2.446   2.136   9.824  0.3350 -3.0063 -0.7152
  767MOL0     H 5833   2.282   2.269   9.705 -0.5141  0.4145  0.6683
  767MOL0     H 5834   1.887   2.121   9.669  0.7409 -0.3733 -1.1006
  767MOL0     H 5835   1.830   2.232   9.804 -2.1838  1.8057 -1.7244
  767MOL0     H 5836   1.897   2.342   9.528  0.5522  3.2451  0.5516
  767MOL0     H 5837   1.803   2.421   9.651 -1.4586 -0.4793  0.6968
  767MOL0     H 5838   1.665   2.333   9.466 -0.7079  3.6022  3.2130
  767MOL0     H 5839   1.711   2.167   9.506 -1.3111 -0.1971  0.4923
  767MOL0     H 5840   1.539   2.349   9.690 -1.6801  0.4118 -2.1499
  767MOL0     H 5841   1.586   2.196   9.736 -2.2286  1.1860  1.6364
  767MOL0     H 5842   1.274   2.087   9.492 -0.5615 -1.2078  3.9915
  767MOL0     H 5843   1.961   2.075   9.913  0.1318 -0.3279 -0.4832
  767MOL0     H 5844   2.170   1.785   9.987  1.4009  1.4166 -2.0701
  767MOL0     H 5845   2.130   1.890  10.133  2.4203  1.7412 -1.2942
  767MOL0     H 5846   2.007   1.849   9.996  0.7029 -1.6090 -0.8683
  768MOL0     O 5847   4.247   4.228   1.669  0.7165 -0.1348 -0.1161
  768MOL0     C 5848   4.216   4.300   1.770  0.2047 -0.1688 -0.2678
  768MOL0     O 5849   4.282   4.298   1.893 -0.1326  0.3789  0.0666
  768MOL0     C 5850   4.376   4.201   1.908  0.7396  0.6721 -0.5078
  768MOL0     C 5851   4.341   4.064   1.903  0.9396  0.3035 -0.2118
  768MOL0     C 5852   4.432   3.965   1.939 -0.0686  0.1732  1.4818
  768MOL0     C 5853   4.560   4.005   1.963  0.1599 -1.3367  0.1322
  768MOL0     O 5854   4.649   3.908   1.990  0.5618  0.6074 -0.6283
  768MOL0     C 5855   4.787   3.938   2.035 -0.5414  0.5282 -0.9578
  768MOL0     C 5856   4.865   3.813   2.097 -0.1733  0.2799  0.0501
  768MOL0     C 5857   4.953   3.856   2.212 -0.1006 -0.7328  0.6432
  768MOL0     C 5858   5.072   3.943   2.176 -0.5186  0.1144  1.4940
  768MOL0     C 5859   5.162   3.970   2.300 -0.1327 -0.2341  0.1727
  768MOL0     C 5860   5.284   4.054   2.276  0.0620 -1.1096 -0.6208
  768MOL0     C 5861   5.257   4.182   2.185 -0.1830 -0.7505  0.4915
  768MOL0     C 5862   5.173   4.283   2.250  0.3998 -0.3813 -0.8698
  768MOL0     N 5863   5.226   4.342   2.374  0.1701  0.3330  0.6240
  768MOL0     C 5864   5.326   4.432   2.380 -0.2217 -0.6016 -0.3666
  768MOL0     C 5865   5.318   4.485   2.502 -0.4828  0.8441 -0.1756
  768MOL0     C 5866   5.407   4.585   2.568 -0.2376 -0.8462 -0.4376
  768MOL0     C 5867   5.541   4.537   2.622  0.2996 -0.0021 -0.3552
  768MOL0     C 5868   5.535   4.439   2.747 -0.5455  0.0052  0.1754
  768MOL0     C 5869   5.500   4.291   2.720 -0.6748 -0.6638  0.8934
  768MOL0     O 5870   5.567   4.249   2.600 -0.2193 -0.1928 -0.5604
  768MOL0     C 5871   5.551   4.115   2.564  0.4521  0.1151  0.7091
  768MOL0     C 5872   5.637   4.063   2.468  1.4387  0.0036  0.1018
  768MOL0     C 5873   5.619   3.936   2.416  0.0141  0.6955 -0.1188
  768MOL0     C 5874   5.709   3.890   2.304 -0.0897 -0.2211  0.4500
  768MOL0     C 5875   5.519   3.855   2.480  0.2008  0.1177  2.0031
  768MOL0     C 5876   5.495   3.712   2.436 -0.3988 -0.3442 -0.2433
  768MOL0     O 5877   5.422   3.638   2.521  0.4428 -0.0653  0.5314
  768MOL0     C 5878   5.346   3.531   2.476  0.5781  0.7510  0.7441
  768MOL0     C 5879   5.366   3.397   2.538  0.0211 -0.1581  0.4510
  768MOL0     C 5880   5.295   3.287   2.492 -0.3061  0.9339  1.2485
  768MOL0     C 5881   5.194   3.296   2.383 -0.8640  1.0129 -0.4773
  768MOL0     O 5882   5.131   3.191   2.328 -0.4562  0.1836  0.0988
  768MOL0     C 5883   5.130   3.069   2.406  0.5140 -0.3280 -0.3932
  768MOL0     C 5884   5.027   2.977   2.360  0.3793  0.7700  0.2178
  768MOL0     C 5885   4.879   3.004   2.405  0.6787 -0.1520 -0.4556
  768MOL0     C 5886   4.774   2.906   2.355  0.5198 -0.2243 -0.4298
  768MOL0     C 5887   4.644   2.917   2.438  0.3376  0.8894  0.1232
  768MOL0     C 5888   4.580   3.057   2.435  0.5420 -0.4015 -0.2985
  768MOL0     C 5889   4.435   3.044   2.482 -0.3231  0.2801 -0.2048
  768MOL0     C 5890   4.380   3.184   2.515 -0.0260 -1.3620 -0.7877
  768MOL0    Cl 5891   4.200   3.194   2.521 -0.5446 -0.2774 -0.0907
  768MOL0     C 5892   5.165   3.427   2.337  0.8583 -0.0964  0.2055
  768MOL0     C 5893   5.239   3.540   2.385  0.3376  0.0892 -0.2783
  768MOL0     O 5894   5.520   3.676   2.321 -0.3906 -0.2760  0.2517
  768MOL0     C 5895   5.441   3.907   2.577  1.3046 -0.2018  0.9936
  768MOL0     C 5896   5.451   4.037   2.607 -0.0796 -0.9056 -0.6877
  768MOL0     N 5897   5.213   4.424   2.576  0.6442  0.4578  0.1975
  768MOL0     N 5898   5.150   4.345   2.489 -0.3834  0.7004  0.0238
  768MOL0     C 5899   4.600   4.139   1.952 -0.2461 -0.6732 -0.0810
  768MOL0     C 5900   4.501   4.244   1.939  0.4240  0.4587 -0.1957
  768MOL0     C 5901   4.107   4.403   1.767  0.1970  0.0982 -0.6599
  768MOL0     C 5902   4.094   4.495   1.878 -0.9101  0.0442  0.2573
  768MOL0     C 5903   3.993   4.593   1.887  0.3672  0.4415  0.3266
  768MOL0     C 5904   3.924   4.620   1.763  0.4704  0.7207  0.4866
  768MOL0     O 5905   3.828   4.722   1.759 -0.3626 -0.4869  0.1024
  768MOL0     C 5906   3.770   4.771   1.884  0.7274 -0.1058  1.0353
  768MOL0     C 5907   3.649   4.847   1.821 -0.6830  0.4096  0.1373
  768MOL0     C 5908   3.564   4.900   1.938 -0.0829 -0.2757 -0.4591
  768MOL0     C 5909   3.523   4.812   2.064  0.2705 -0.1471 -0.2652
  768MOL0     C 5910   3.628   4.813   2.163  0.7425 -0.3970  0.1254
  768MOL0     C 5911   3.691   4.795   2.258 -0.4939 -0.4533 -1.2050
  768MOL0     C 5912   3.947   4.539   1.651 -0.0481 -0.6133 -0.1197
  768MOL0     C 5913   4.026   4.427   1.655 -0.9773  0.0255 -0.4716
  768MOL0     C 5914   4.021   4.336   1.531  0.0750  0.6600 -0.1558
  768MOL0     H 5915   4.236   4.041   1.895  0.8974 -0.0883  1.1542
  768MOL0     H 5916   4.398   3.862   1.947 -0.8900  0.0005 -2.1489
  768MOL0     H 5917   4.784   4.019   2.108 -0.6038  0.2644 -0.6699
  768MOL0     H 5918   4.836   3.975   1.944 -0.4769 -0.1154 -1.1953
  768MOL0     H 5919   4.777   3.762   2.138  0.8285  0.5424  2.6781
  768MOL0     H 5920   4.903   3.758   2.010 -1.9161 -0.1270 -0.5144
  768MOL0     H 5921   4.905   3.913   2.293 -2.2481 -1.0179 -0.3590
  768MOL0     H 5922   4.987   3.764   2.259 -0.0737  0.0864  2.3164
  768MOL0     H 5923   5.114   3.898   2.086 -1.2363  2.7501 -0.2935
  768MOL0     H 5924   5.035   4.042   2.147 -0.4220 -0.5363 -1.0834
  768MOL0     H 5925   5.193   3.872   2.340  1.2190  0.6651  1.4207
  768MOL0     H 5926   5.106   4.016   2.382  0.5652  1.8882 -0.4939
  768MOL0     H 5927   5.314   4.094   2.374 -1.2036 -2.3084  0.2954
  768MOL0     H 5928   5.359   3.989   2.229 -0.2221 -1.4909 -0.5484
  768MOL0     H 5929   5.205   4.157   2.091 -1.0058 -1.6035  1.1559
  768MOL0     H 5930   5.351   4.231   2.158 -1.0591 -0.2324 -1.9675
  768MOL0     H 5931   5.143   4.365   2.184  0.1602 -0.5162 -0.9312
  768MOL0     H 5932   5.078   4.235   2.274  0.8036 -1.0058 -0.4937
  768MOL0     H 5933   5.394   4.460   2.300 -1.2470  1.9270 -0.4444
  768MOL0     H 5934   5.349   4.633   2.648 -0.1817 -0.6793 -0.4974
  768MOL0     H 5935   5.425   4.657   2.488  0.2555  0.0331  0.4297
  768MOL0     H 5936   5.605   4.485   2.550  2.4351  0.0415  1.4142
  768MOL0     H 5937   5.598   4.627   2.643  0.9897 -0.8117  1.4120
  768MOL0     H 5938   5.635   4.438   2.791 -0.7154  0.0379  0.5666
  768MOL0     H 5939   5.467   4.482   2.822  0.2033  0.7001  0.4730
  768MOL0     H 5940   5.524   4.237   2.811  1.8396  0.3346  0.8955
  768MOL0     H 5941   5.391   4.286   2.719 -1.0368  2.7368 -2.1189
  768MOL0     H 5942   5.724   4.113   2.426  1.6661  0.6100  1.2499
  768MOL0     H 5943   5.660   3.856   2.213 -0.6681 -0.4888  0.8609
  768MOL0     H 5944   5.783   3.822   2.347  1.9703  1.3568 -0.4058
  768MOL0     H 5945   5.767   3.974   2.264  0.2183 -1.7510 -2.5978
  768MOL0     H 5946   5.448   3.391   2.608  0.5418 -2.6714 -0.2600
  768MOL0     H 5947   5.318   3.186   2.525  0.6392  1.0270  0.9162
  768MOL0     H 5948   5.227   3.021   2.391  1.0080  0.2842  0.6713
  768MOL0     H 5949   5.113   3.091   2.512 -2.0078  1.7200 -1.0970
  768MOL0     H 5950   5.031   2.979   2.251  1.5442  0.8001  0.2550
  768MOL0     H 5951   5.064   2.880   2.393  0.3046 -0.3422 -2.6800
  768MOL0     H 5952   4.853   3.105   2.372 -1.8307 -0.3727  0.6192
  768MOL0     H 5953   4.880   2.993   2.514 -1.2728 -0.4464 -0.4458
  768MOL0     H 5954   4.813   2.804   2.358 -1.5137 -1.0553 -0.3848
  768MOL0     H 5955   4.747   2.934   2.253  1.9246 -0.3758 -0.8635
  768MOL0     H 5956   4.584   2.830   2.408  1.0669  0.1647  0.7399
  768MOL0     H 5957   4.670   2.894   2.541  1.0616 -1.2249 -0.4710
  768MOL0     H 5958   4.569   3.095   2.334 -2.4993  1.2408  0.5518
  768MOL0     H 5959   4.628   3.123   2.508 -2.6343 -0.2575  1.8352
  768MOL0     H 5960   4.438   2.985   2.574 -2.9414 -0.1906 -0.3166
  768MOL0     H 5961   4.370   2.993   2.410 -0.6530  0.9925 -0.4288
  768MOL0     H 5962   4.407   3.267   2.450  1.9212 -0.9332  0.4864
  768MOL0     H 5963   4.415   3.206   2.617 -1.7854 -1.0439 -0.2231
  768MOL0     H 5964   5.081   3.434   2.270  1.7273  0.4779 -0.8528
  768MOL0     H 5965   5.228   3.637   2.336 -0.3734  0.4077  0.4803
  768MOL0     H 5966   5.363   3.852   2.630  1.2963 -0.3729  0.8044
  768MOL0     H 5967   5.379   4.073   2.680  1.9729 -0.0923  1.0462
  768MOL0     H 5968   4.701   4.179   1.958 -0.7337  0.6340 -0.1620
  768MOL0     H 5969   4.518   4.351   1.944  0.8646  0.3436  1.0998
  768MOL0     H 5970   4.160   4.476   1.962 -2.4640 -1.4784  1.1862
  768MOL0     H 5971   3.970   4.637   1.983 -0.6761  1.5594 -0.4171
  768MOL0     H 5972   3.743   4.692   1.955  0.3311 -1.0146 -0.0909
  768MOL0     H 5973   3.834   4.824   1.955 -0.1605 -0.1849  1.9320
  768MOL0     H 5974   3.582   4.784   1.763  0.0078 -0.9318  0.7586
  768MOL0     H 5975   3.684   4.931   1.760 -2.7777 -0.5843 -2.5959
  768MOL0     H 5976   3.613   4.988   1.981  2.1589 -2.5964  2.0925
  768MOL0     H 5977   3.472   4.935   1.889 -0.4971  1.8782  1.6887
  768MOL0     H 5978   3.499   4.711   2.030  1.0384  0.0668 -1.5156
  768MOL0     H 5979   3.434   4.861   2.104  0.8529  1.9961 -1.4608
  768MOL0     H 5980   3.744   4.761   2.345 -2.4738 -2.3324 -0.6200
  768MOL0     H 5981   3.892   4.563   1.561  0.1193 -3.3198 -1.0235
  768MOL0     H 5982   3.945   4.372   1.461  0.5918  0.4096 -0.8547
  768MOL0     H 5983   4.116   4.336   1.477  0.5011  3.8517  0.3897
  768MOL0     H 5984   4.006   4.231   1.556 -2.1660  0.7160 -1.0594
  769MOL0     O 5985   3.279   2.739   7.641  0.2890 -0.2394  0.1184
  769MOL0     C 5986   3.217   2.823   7.712  0.5962  0.0333  0.3573
  769MOL0     O 5987   3.277   2.925   7.784 -0.1301  0.1588  0.4321
  769MOL0     C 5988   3.416   2.921   7.769  0.1361  0.2168  0.5723
  769MOL0     C 5989   3.486   2.807   7.808 -0.2395  0.6025 -0.4612
  769MOL0     C 5990   3.624   2.796   7.773 -0.0482  0.0322 -0.2984
  769MOL0     C 5991   3.696   2.904   7.713  0.2931 -0.4456  0.2763
  769MOL0     O 5992   3.831   2.895   7.701  0.6820 -0.2271 -0.0418
  769MOL0     C 5993   3.908   3.010   7.716 -0.4218 -0.1647  0.1071
  769MOL0     C 5994   4.046   2.973   7.757  0.3527  0.3214  0.4460
  769MOL0     C 5995   4.138   3.089   7.764 -0.5910  0.0869  0.0546
  769MOL0     C 5996   4.273   3.049   7.838  0.1099  0.1272  0.9153
  769MOL0     C 5997   4.374   3.159   7.826  0.2939 -0.2357  0.7540
  769MOL0     C 5998   4.484   3.149   7.935 -0.3524  0.1769 -0.2689
  769MOL0     C 5999   4.605   3.066   7.874  0.0659 -0.2459 -0.1260
  769MOL0     C 6000   4.737   3.069   7.953  0.1896  0.4503  0.4714
  769MOL0     N 6001   4.839   2.982   7.884 -0.7278 -0.4171  0.3845
  769MOL0     C 6002   4.912   3.014   7.771  0.4843 -0.2556  0.1722
  769MOL0     C 6003   5.000   2.907   7.750  1.0201  0.0797 -0.5898
  769MOL0     C 6004   5.100   2.889   7.639 -0.2969  0.3108 -0.4457
  769MOL0     C 6005   5.091   2.766   7.548 -0.1459  0.5166  0.0589
  769MOL0     C 6006   5.170   2.777   7.419 -0.7909  0.4592 -0.3136
  769MOL0     C 6007   5.325   2.784   7.450  0.2504  0.2963  0.2406
  769MOL0     O 6008   5.353   2.671   7.531 -0.2669 -0.9334 -0.6049
  769MOL0     C 6009   5.484   2.648   7.559  0.0756 -0.3832 -1.5899
  769MOL0     C 6010   5.528   2.520   7.582 -0.2971  0.3033 -0.1705
  769MOL0     C 6011   5.656   2.503   7.610  0.7572 -0.9685 -0.0857
  769MOL0     C 6012   5.697   2.365   7.632  0.3388 -0.4340 -0.2073
  769MOL0     C 6013   5.752   2.609   7.604  0.0052  0.0649 -0.5487
  769MOL0     C 6014   5.899   2.586   7.614 -0.0881  0.5284 -0.1787
  769MOL0     O 6015   5.980   2.687   7.667  0.1859  0.1386  0.2599
  769MOL0     C 6016   6.119   2.680   7.650  0.7462  0.5997  0.7325
  769MOL0     C 6017   6.188   2.764   7.565 -0.2631  0.1585 -0.1650
  769MOL0     C 6018   6.326   2.778   7.573 -0.0690 -0.3179  0.4795
  769MOL0     C 6019   6.398   2.688   7.650  0.8384  0.0257 -0.7591
  769MOL0     O 6020   6.533   2.722   7.654  0.3892 -0.3978 -0.0422
  769MOL0     C 6021   6.622   2.668   7.755  0.8349  0.7681  0.9025
  769MOL0     C 6022   6.740   2.767   7.778 -0.0546 -0.4813  0.2810
  769MOL0     C 6023   6.824   2.729   7.903 -0.4236 -0.4732  0.1503
  769MOL0     C 6024   6.745   2.747   8.030 -0.6088 -0.6831 -0.1936
  769MOL0     C 6025   6.851   2.743   8.140 -0.1669  0.3207  0.9535
  769MOL0     C 6026   6.934   2.869   8.148 -0.4331 -0.0394  0.3508
  769MOL0     C 6027   7.024   2.833   8.272  0.3037  0.7082  0.7439
  769MOL0     C 6028   7.155   2.908   8.263 -1.0464  0.1107  0.6030
  769MOL0    Cl 6029   7.118   3.078   8.299  0.2167  0.3576  0.4750
  769MOL0     C 6030   6.332   2.599   7.733 -0.3207  0.0336 -0.2623
  769MOL0     C 6031   6.191   2.596   7.732 -0.7663 -0.4055 -0.0930
  769MOL0     O 6032   5.946   2.491   7.550  0.0907  0.1979  0.0047
  769MOL0     C 6033   5.708   2.738   7.606  0.4922  0.1552  0.5125
  769MOL0     C 6034   5.571   2.759   7.580  0.1378  0.5753  0.1440
  769MOL0     N 6035   4.987   2.827   7.864 -0.5019 -0.1226 -0.3062
  769MOL0     N 6036   4.886   2.861   7.937 -0.3897  0.0903 -0.1235
  769MOL0     C 6037   3.622   3.016   7.675  0.5177 -0.1211 -0.2733
  769MOL0     C 6038   3.485   3.022   7.703 -0.3831 -0.1006  0.5523
  769MOL0     C 6039   3.070   2.825   7.692  0.2000  0.8785  0.3124
  769MOL0     C 6040   3.009   2.951   7.673 -0.7045  0.4494 -0.6851
  769MOL0     C 6041   2.870   2.963   7.651  0.5184  0.3160 -0.1019
  769MOL0     C 6042   2.787   2.851   7.651  0.3869 -0.4717  0.3782
  769MOL0     O 6043   2.655   2.875   7.624 -0.2701 -0.2596  0.0764
  769MOL0     C 6044   2.571   2.757   7.614 -0.6982 -0.6817 -0.4865
  769MOL0     C 6045   2.430   2.816   7.563 -0.5269  0.5607 -0.5179
  769MOL0     C 6046   2.443   2.883   7.428  0.2403  0.1825 -0.1648
  769MOL0     C 6047   2.302   2.921   7.381  0.1663 -0.4783  0.1666
  769MOL0     C 6048   2.217   2.807   7.351 -0.3698  0.5947 -0.1948
  769MOL0     C 6049   2.170   2.704   7.311  0.0653 -0.2242 -0.7204
  769MOL0     C 6050   2.847   2.724   7.674  0.7990 -0.5762  0.1712
  769MOL0     C 6051   2.987   2.711   7.693  0.5833  0.2101 -0.2595
  769MOL0     C 6052   3.039   2.576   7.733 -0.0339  0.4012  0.1452
  769MOL0     H 6053   3.436   2.718   7.846 -1.4945  0.5683 -2.0781
  769MOL0     H 6054   3.677   2.701   7.782  1.5884  1.0656  2.3414
  769MOL0     H 6055   3.866   3.079   7.790 -0.6774  2.0232 -1.9308
  769MOL0     H 6056   3.919   3.073   7.627  1.1110 -1.8318 -0.9754
  769MOL0     H 6057   4.043   2.913   7.848  0.3451 -0.5176 -0.1045
  769MOL0     H 6058   4.079   2.910   7.674 -1.3963 -1.3468  0.9433
  769MOL0     H 6059   4.156   3.125   7.662 -5.3479  0.0510 -1.0486
  769MOL0     H 6060   4.092   3.170   7.821 -0.4426  0.2579 -0.0678
  769MOL0     H 6061   4.242   3.030   7.942  1.9174  2.2416  1.9248
  769MOL0     H 6062   4.318   2.962   7.789  1.5567  0.1463  2.1498
  769MOL0     H 6063   4.311   3.248   7.837 -1.1845 -1.3028  1.0575
  769MOL0     H 6064   4.421   3.162   7.727  0.3819 -1.6577  0.7308
  769MOL0     H 6065   4.525   3.241   7.978  1.4002 -0.2501 -0.9106
  769MOL0     H 6066   4.435   3.087   8.012  1.9793 -1.2114  0.2350
  769MOL0     H 6067   4.639   3.114   7.781 -1.8380 -0.7468 -1.1333
  769MOL0     H 6068   4.583   2.964   7.841  0.5443 -0.8417  1.3490
  769MOL0     H 6069   4.785   3.167   7.948 -0.7473  0.8555 -1.5031
  769MOL0     H 6070   4.713   3.038   8.055  2.5970 -3.1371  0.1294
  769MOL0     H 6071   4.906   3.102   7.707 -1.3487  0.3431  1.0918
  769MOL0     H 6072   5.194   2.888   7.693 -0.4769  1.6043 -0.0745
  769MOL0     H 6073   5.106   2.982   7.582 -4.2082  0.5633 -0.7590
  769MOL0     H 6074   5.124   2.677   7.603 -0.5606  2.3398  3.6104
  769MOL0     H 6075   4.989   2.739   7.523  0.7221 -1.6683 -1.4188
  769MOL0     H 6076   5.168   2.693   7.350  3.1463  0.2527 -0.3604
  769MOL0     H 6077   5.142   2.864   7.358  1.4156 -0.0286 -2.1448
  769MOL0     H 6078   5.382   2.760   7.360 -1.0046  0.5138 -0.6301
  769MOL0     H 6079   5.349   2.887   7.481 -0.3981  1.2830 -2.2989
  769MOL0     H 6080   5.455   2.440   7.571  0.3557 -0.2053 -0.9108
  769MOL0     H 6081   5.617   2.298   7.665  0.0048  0.2612  0.4147
  769MOL0     H 6082   5.765   2.363   7.718  2.4276  1.3381 -1.7297
  769MOL0     H 6083   5.737   2.318   7.542 -2.4718 -1.3273 -1.1154
  769MOL0     H 6084   6.125   2.831   7.508 -2.9293  0.2056  2.5625
  769MOL0     H 6085   6.384   2.857   7.529 -0.6546 -0.1507 -0.0082
  769MOL0     H 6086   6.569   2.644   7.848  1.1070 -3.3114  0.1894
  769MOL0     H 6087   6.652   2.568   7.723 -1.4185  0.8264 -1.7452
  769MOL0     H 6088   6.810   2.779   7.695  1.5925  1.4220  1.8574
  769MOL0     H 6089   6.692   2.862   7.801 -0.4330  0.2100 -2.8486
  769MOL0     H 6090   6.919   2.783   7.911 -1.2546  1.0158  0.3176
  769MOL0     H 6091   6.859   2.625   7.902 -1.1314 -0.8028  2.7406
  769MOL0     H 6092   6.673   2.666   8.049 -3.3571  1.5212 -0.6188
  769MOL0     H 6093   6.708   2.849   8.040  1.8399  0.1035  1.8510
  769MOL0     H 6094   6.796   2.728   8.233 -0.4574 -3.5079  0.3317
  769MOL0     H 6095   6.908   2.654   8.112 -1.8725 -0.8862  1.1698
  769MOL0     H 6096   6.879   2.958   8.179  0.6420  0.4793  0.8041
  769MOL0     H 6097   6.989   2.900   8.059 -0.3071 -0.2328  0.3611
  769MOL0     H 6098   7.049   2.727   8.275 -1.0630  0.2561 -1.5413
  769MOL0     H 6099   6.963   2.851   8.361  1.2625  0.0281  1.5657
  769MOL0     H 6100   7.201   2.898   8.164 -1.8947  2.4594 -0.1066
  769MOL0     H 6101   7.224   2.866   8.336  0.2118 -0.4832 -0.8670
  769MOL0     H 6102   6.391   2.537   7.799 -0.2283 -1.6669 -1.8555
  769MOL0     H 6103   6.127   2.536   7.796  0.6846 -0.8712  0.9635
  769MOL0     H 6104   5.771   2.827   7.606 -3.1898  2.9897  0.1438
  769MOL0     H 6105   5.537   2.862   7.576  0.2688  0.6500  0.8819
  769MOL0     H 6106   3.652   3.098   7.611 -0.8171  1.4373  1.0435
  769MOL0     H 6107   3.422   3.100   7.661  0.1712 -0.5751 -1.2351
  769MOL0     H 6108   3.068   3.042   7.673 -0.5631  0.4140 -2.9795
  769MOL0     H 6109   2.829   3.061   7.630  1.3916  1.0916  1.6603
  769MOL0     H 6110   2.614   2.684   7.545 -0.8536  0.2494 -1.5944
  769MOL0     H 6111   2.558   2.709   7.712  1.5277  0.6553  0.5424
  769MOL0     H 6112   2.392   2.883   7.640  2.9922  1.7446  0.3922
  769MOL0     H 6113   2.371   2.725   7.549  2.0582 -1.5734  1.2504
  769MOL0     H 6114   2.504   2.973   7.439  0.5678 -0.3425  4.5012
  769MOL0     H 6115   2.482   2.817   7.351  0.0535 -0.1847  0.0549
  769MOL0     H 6116   2.311   2.976   7.287 -1.4381 -0.4559 -0.0055
  769MOL0     H 6117   2.260   2.983   7.461  2.1034 -0.3771  1.1708
  769MOL0     H 6118   2.128   2.609   7.285 -1.3069  0.6228 -1.7402
  769MOL0     H 6119   2.786   2.634   7.677 -0.0347  0.0034  1.4968
  769MOL0     H 6120   2.956   2.511   7.764  1.4640 -0.8657  1.6589
  769MOL0     H 6121   3.094   2.523   7.655 -0.2495 -0.0150  0.2721
  769MOL0     H 6122   3.098   2.583   7.824  1.8296 -0.3807 -0.9398
  770MOL0     O 6123   5.688   0.054   4.534 -0.5613  0.3698 -0.0934
  770MOL0     C 6124   5.620  -0.038   4.557  0.3889  1.0739 -0.3121
  770MOL0     O 6125   5.667  -0.167   4.557  0.1176 -0.0816 -0.2529
  770MOL0     C 6126   5.800  -0.205   4.575 -1.1184 -0.2112  0.3411
  770MOL0     C 6127   5.833  -0.330   4.525  1.4379  0.4396  0.0954
  770MOL0     C 6128   5.964  -0.384   4.533 -0.1971  0.1002  0.9756
  770MOL0     C 6129   6.059  -0.306   4.611  0.2267 -0.0105 -0.3825
  770MOL0     O 6130   6.190  -0.335   4.628  0.3317 -0.1121  0.0291
  770MOL0     C 6131   6.237  -0.463   4.584 -0.0829 -0.4243  0.2830
  770MOL0     C 6132   6.389  -0.471   4.626  0.1935  0.0324  0.6202
  770MOL0     C 6133   6.475  -0.567   4.540  0.4156 -0.5286 -0.5315
  770MOL0     C 6134   6.621  -0.562   4.575  0.4597  0.3883 -0.0750
  770MOL0     C 6135   6.701  -0.440   4.526 -0.1488 -0.3326  0.1913
  770MOL0     C 6136   6.847  -0.436   4.591  0.4371  0.1359 -0.2733
  770MOL0     C 6137   6.931  -0.331   4.519  1.4282 -0.0176  0.3354
  770MOL0     C 6138   7.077  -0.366   4.567 -0.0494  0.7111 -0.7229
  770MOL0     N 6139   7.162  -0.250   4.536 -0.2309  0.7804 -0.8714
  770MOL0     C 6140   7.183  -0.151   4.626  0.2583 -0.1423  0.5669
  770MOL0     C 6141   7.298  -0.085   4.580  0.8367  0.5522 -0.2027
  770MOL0     C 6142   7.365   0.036   4.633 -0.0049  0.6789  0.6825
  770MOL0     C 6143   7.399   0.031   4.779 -0.1199  0.3120 -0.0841
  770MOL0     C 6144   7.486  -0.090   4.813  0.6367 -0.6464 -1.3425
  770MOL0     C 6145   7.623  -0.087   4.755 -0.3518 -0.0889 -0.0782
  770MOL0     O 6146   7.709  -0.139   4.859 -0.4715  0.2279  0.7949
  770MOL0     C 6147   7.844  -0.148   4.831  0.1071 -0.2790  0.1443
  770MOL0     C 6148   7.925  -0.174   4.945  0.3598 -0.6841  0.8486
  770MOL0     C 6149   8.062  -0.149   4.944  0.5278 -0.1018  0.4827
  770MOL0     C 6150   8.138  -0.155   5.081 -0.1326 -0.4758  0.4382
  770MOL0     C 6151   8.124  -0.133   4.817 -0.0993  0.3734  0.9682
  770MOL0     C 6152   8.277  -0.144   4.791 -0.0522  0.2319  0.1323
  770MOL0     O 6153   8.316  -0.176   4.663 -0.6523  0.7242  0.1089
  770MOL0     C 6154   8.448  -0.203   4.640 -0.2570  0.5674 -0.2811
  770MOL0     C 6155   8.531  -0.102   4.604  0.4972  0.2193  0.6271
  770MOL0     C 6156   8.669  -0.129   4.579  0.0229 -0.4499  0.3396
  770MOL0     C 6157   8.722  -0.258   4.602 -0.7610  0.1343  0.7109
  770MOL0     O 6158   8.853  -0.282   4.559  0.1323 -0.1860  0.4159
  770MOL0     C 6159   8.930  -0.357   4.650 -1.2821 -0.8716  0.1178
  770MOL0     C 6160   9.077  -0.376   4.601 -0.0985  0.2232  0.6925
  770MOL0     C 6161   9.164  -0.253   4.580 -0.2728  0.2622  0.0177
  770MOL0     C 6162   9.305  -0.283   4.522  0.0323 -1.2904 -0.5563
  770MOL0     C 6163   9.392  -0.154   4.493  0.9867  0.0959  0.1375
  770MOL0     C 6164   9.515  -0.197   4.423 -0.0039 -0.0500  0.0128
  770MOL0     C 6165   9.605  -0.082   4.385  0.4304 -0.6186  0.1207
  770MOL0     C 6166   9.724  -0.146   4.309  0.3663 -0.3282 -0.9323
  770MOL0    Cl 6167   9.832  -0.031   4.237  0.3798 -0.1099  0.0064
  770MOL0     C 6168   8.634  -0.364   4.643 -0.3686  0.3264  0.2649
  770MOL0     C 6169   8.499  -0.334   4.661 -0.6044  0.0763  0.6645
  770MOL0     O 6170   8.351  -0.135   4.888  0.1293 -0.1302 -0.4910
  770MOL0     C 6171   8.044  -0.138   4.701  0.2711 -0.3069 -0.1415
  770MOL0     C 6172   7.902  -0.119   4.711 -0.5372  0.8308  1.0327
  770MOL0     N 6173   7.331  -0.142   4.456  0.0599  0.4816 -0.2803
  770MOL0     N 6174   7.256  -0.251   4.445  0.2621  0.7878  0.5484
  770MOL0     C 6175   6.022  -0.182   4.670 -0.0916  0.6640  0.4643
  770MOL0     C 6176   5.891  -0.131   4.657 -1.2269 -0.3322 -0.7147
  770MOL0     C 6177   5.473  -0.032   4.575 -0.6143 -0.7017 -0.3453
  770MOL0     C 6178   5.394  -0.146   4.560 -1.3437 -0.0985 -0.1604
  770MOL0     C 6179   5.258  -0.159   4.588 -0.0956  0.1325 -1.0049
  770MOL0     C 6180   5.198  -0.040   4.635 -0.4655  0.1400 -0.1636
  770MOL0     O 6181   5.069  -0.056   4.669 -0.2238 -0.3831  0.4673
  770MOL0     C 6182   4.974   0.053   4.657 -0.0503 -0.8593  0.7019
  770MOL0     C 6183   4.861   0.055   4.761 -0.2646 -0.2498  0.1388
  770MOL0     C 6184   4.758  -0.059   4.752 -0.4364  0.4239  0.1115
  770MOL0     C 6185   4.625  -0.032   4.825  0.1808 -0.1372  0.3843
  770MOL0     C 6186   4.642  -0.086   4.959 -0.5843 -0.2499 -0.5238
  770MOL0     C 6187   4.666  -0.137   5.070  0.3493  0.1993  1.3504
  770MOL0     C 6188   5.276   0.076   4.660  0.3894 -0.3173 -0.0487
  770MOL0     C 6189   5.412   0.084   4.626 -0.6470 -0.5534  0.6505
  770MOL0     C 6190   5.490   0.208   4.667  0.1848  0.2255 -0.5756
  770MOL0     H 6191   5.757  -0.378   4.463  1.5146 -1.4154  1.3414
  770MOL0     H 6192   5.987  -0.480   4.488 -1.1068  0.3126 -0.0012
  770MOL0     H 6193   6.207  -0.469   4.479 -1.4353  1.2732  0.5242
  770MOL0     H 6194   6.180  -0.536   4.642 -1.1520  0.1873  0.0414
  770MOL0     H 6195   6.425  -0.368   4.617 -1.0905  0.9287  4.2116
  770MOL0     H 6196   6.392  -0.498   4.732  1.3954 -1.2819  0.2918
  770MOL0     H 6197   6.429  -0.664   4.558  0.1329 -0.8151 -2.5562
  770MOL0     H 6198   6.468  -0.541   4.433  3.2715 -1.4874 -1.0452
  770MOL0     H 6199   6.639  -0.567   4.683  1.5289  1.6202 -0.1686
  770MOL0     H 6200   6.667  -0.658   4.548 -0.7758 -1.1069  2.6732
  770MOL0     H 6201   6.638  -0.355   4.554 -2.6758 -1.7043 -0.9323
  770MOL0     H 6202   6.703  -0.445   4.416  4.8149 -0.0680  0.0573
  770MOL0     H 6203   6.829  -0.414   4.697 -0.6527 -3.3117  0.3844
  770MOL0     H 6204   6.898  -0.532   4.580  2.1616  1.0188 -0.3268
  770MOL0     H 6205   6.901  -0.228   4.540  1.2439 -0.1433  0.7125
  770MOL0     H 6206   6.927  -0.341   4.410 -0.1584 -2.1310  0.5134
  770MOL0     H 6207   7.084  -0.373   4.676  0.8489 -1.6350 -0.8532
  770MOL0     H 6208   7.114  -0.461   4.526  0.5787  1.3759 -1.7225
  770MOL0     H 6209   7.126  -0.135   4.716 -1.7751  1.5095 -0.9207
  770MOL0     H 6210   7.293   0.118   4.622 -1.2979 -0.1679  2.4155
  770MOL0     H 6211   7.447   0.062   4.565 -0.1705  1.8892  0.9146
  770MOL0     H 6212   7.453   0.120   4.813 -0.8295  0.0349  1.9009
  770MOL0     H 6213   7.309   0.034   4.841  0.9992  1.8262  1.5914
  770MOL0     H 6214   7.495  -0.088   4.922  0.4995 -1.1974 -1.3179
  770MOL0     H 6215   7.431  -0.179   4.782 -1.5948  0.6760 -1.3874
  770MOL0     H 6216   7.625  -0.131   4.654  1.0383  1.7472 -0.9121
  770MOL0     H 6217   7.656   0.016   4.737 -2.5882  0.6874 -0.1000
  770MOL0     H 6218   7.874  -0.204   5.035  1.9379 -3.6434  0.8658
  770MOL0     H 6219   8.203  -0.068   5.089 -0.1235 -0.4730  0.3366
  770MOL0     H 6220   8.192  -0.248   5.100 -2.0408 -1.6401  0.4561
  770MOL0     H 6221   8.069  -0.140   5.164  1.3639  1.6084  1.3834
  770MOL0     H 6222   8.492  -0.002   4.585 -1.8206 -0.6604  0.4599
  770MOL0     H 6223   8.731  -0.045   4.549  1.3264 -0.5358  2.6059
  770MOL0     H 6224   8.920  -0.299   4.743 -2.6136  0.2654 -0.7045
  770MOL0     H 6225   8.887  -0.458   4.660 -1.6549 -0.7221  0.0222
  770MOL0     H 6226   9.126  -0.448   4.667 -2.3481  0.6565  2.9991
  770MOL0     H 6227   9.072  -0.428   4.504 -0.6876  1.9760 -0.2634
  770MOL0     H 6228   9.177  -0.212   4.681  1.7417  0.1305 -0.1428
  770MOL0     H 6229   9.118  -0.175   4.518  0.8607 -0.1899 -1.4403
  770MOL0     H 6230   9.292  -0.332   4.425  0.1041 -1.8880 -0.2687
  770MOL0     H 6231   9.354  -0.353   4.591  0.8639  1.3455  1.7231
  770MOL0     H 6232   9.336  -0.084   4.431  0.4910 -0.9688 -0.6396
  770MOL0     H 6233   9.421  -0.105   4.587 -1.1167 -0.8357  1.3469
  770MOL0     H 6234   9.477  -0.257   4.339 -2.7668 -0.6219  1.5215
  770MOL0     H 6235   9.571  -0.270   4.483 -1.1167 -2.3829 -1.6282
  770MOL0     H 6236   9.642  -0.034   4.476  1.5388  1.8354 -1.5202
  770MOL0     H 6237   9.556  -0.004   4.326  3.2688  1.2189 -0.0116
  770MOL0     H 6238   9.682  -0.207   4.229 -3.5274  1.0746 -0.1478
  770MOL0     H 6239   9.794  -0.211   4.361 -0.6092 -1.6719 -1.2465
  770MOL0     H 6240   8.686  -0.459   4.655  1.5528  1.0541 -1.7036
  770MOL0     H 6241   8.436  -0.417   4.693 -0.3033  0.0050  1.0706
  770MOL0     H 6242   8.095  -0.127   4.605 -1.0029  1.2594 -0.6813
  770MOL0     H 6243   7.843  -0.096   4.623 -2.1162 -3.0938  0.8438
  770MOL0     H 6244   6.092  -0.129   4.734  1.6050 -2.3282  1.2804
  770MOL0     H 6245   5.872  -0.042   4.714  1.6069  0.6318 -1.1017
  770MOL0     H 6246   5.444  -0.233   4.519 -1.3918  0.5169 -1.5606
  770MOL0     H 6247   5.215  -0.259   4.583  3.6060 -1.7119  0.4122
  770MOL0     H 6248   5.034   0.145   4.666 -0.2780 -0.7976  1.8420
  770MOL0     H 6249   4.918   0.037   4.565 -1.5533  1.0049  1.2395
  770MOL0     H 6250   4.808   0.149   4.744 -3.4299 -2.2736 -2.3584
  770MOL0     H 6251   4.911   0.060   4.858 -1.7114  0.6007  0.8729
  770MOL0     H 6252   4.736  -0.077   4.647  0.2880 -2.2137  0.3394
  770MOL0     H 6253   4.807  -0.145   4.797 -3.2168 -1.6970 -0.6469
  770MOL0     H 6254   4.546  -0.086   4.773  0.2204 -0.0812  0.2676
  770MOL0     H 6255   4.604   0.076   4.822 -1.2327 -0.4101 -0.2911
  770MOL0     H 6256   4.670  -0.186   5.166 -1.9037 -0.6750  1.0649
  770MOL0     H 6257   5.227   0.167   4.692  1.1575 -0.3358  1.2561
  770MOL0     H 6258   5.563   0.169   4.739 -0.6889 -4.9413 -2.0579
  770MOL0     H 6259   5.551   0.247   4.584  2.0215 -0.2687  0.4741
  770MOL0     H 6260   5.429   0.285   4.714 -2.7356 -2.9445  1.3099
  771MOL0     O 6261   6.826   8.601   9.980  0.1503  0.0457 -0.6718
  771MOL0     C 6262   6.873   8.692   9.912 -0.6813 -0.0807 -0.0897
  771MOL0     O 6263   7.006   8.728   9.902  0.4650 -0.1427 -0.0506
  771MOL0     C 6264   7.107   8.666   9.972 -0.7073  0.2047  1.1901
  771MOL0     C 6265   7.200   8.746  10.032 -0.8470  0.2353  0.1421
  771MOL0     C 6266   7.300   8.696  10.111 -0.3130  0.2873 -0.1214
  771MOL0     C 6267   7.312   8.559  10.137 -0.5581 -0.6327 -0.2875
  771MOL0     O 6268   7.404   8.485  10.212  0.2244 -0.1966  0.1719
  771MOL0     C 6269   7.514   8.543  10.282 -0.0901  0.0015 -0.0142
  771MOL0     C 6270   7.637   8.586  10.191 -0.1326  1.0323  0.0659
  771MOL0     C 6271   7.712   8.466  10.132  0.1599  0.2173 -0.0531
  771MOL0     C 6272   7.782   8.499   9.996 -0.5572  0.5931 -0.3205
  771MOL0     C 6273   7.877   8.613   9.994 -1.4937 -0.4065 -0.2871
  771MOL0     C 6274   8.001   8.595  10.074 -0.4936  0.0332 -1.1452
  771MOL0     C 6275   8.103   8.714  10.039 -0.3652 -0.3533 -0.1789
  771MOL0     C 6276   8.230   8.699  10.130 -0.0757 -0.5219  0.1419
  771MOL0     N 6277   8.324   8.804  10.082  0.1403  0.0304 -0.3137
  771MOL0     C 6278   8.350   8.838   9.954 -0.6027  0.2753  0.6359
  771MOL0     C 6279   8.441   8.946   9.965  0.3914  0.1816  0.0750
  771MOL0     C 6280   8.500   9.025   9.851 -0.2621 -0.3215 -0.3555
  771MOL0     C 6281   8.640   8.968   9.830 -0.1257  0.2107 -0.3383
  771MOL0     C 6282   8.722   9.054   9.734  0.0294  0.2635  0.1287
  771MOL0     C 6283   8.869   9.034   9.745 -0.4930 -0.5263 -0.0023
  771MOL0     O 6284   8.938   9.122   9.653  0.3410 -0.1634 -0.3222
  771MOL0     C 6285   9.072   9.104   9.632  0.1199 -0.0118  0.5714
  771MOL0     C 6286   9.157   9.000   9.684  0.8358 -0.1457 -0.0725
  771MOL0     C 6287   9.292   8.986   9.641 -0.7060  0.8358 -0.4944
  771MOL0     C 6288   9.374   8.873   9.701  0.1323  0.1979 -0.1716
  771MOL0     C 6289   9.346   9.081   9.547 -0.6245 -0.2634  0.2725
  771MOL0     C 6290   9.488   9.079   9.489  0.9165 -0.1091 -0.1396
  771MOL0     O 6291   9.502   9.156   9.382 -0.4304  0.3079  0.3490
  771MOL0     C 6292   9.626   9.180   9.318 -0.5763 -0.4145  0.5966
  771MOL0     C 6293   9.758   9.178   9.371 -0.9638  0.9530  0.3024
  771MOL0     C 6294   9.868   9.215   9.293 -0.8998  0.1205  0.4342
  771MOL0     C 6295   9.860   9.267   9.165  0.1332  0.7068 -0.4739
  771MOL0     O 6296   9.977   9.305   9.096  0.1787 -0.6849 -0.4875
  771MOL0     C 6297   9.977   9.362   8.964 -0.0240  0.0751 -0.0437
  771MOL0     C 6298  10.121   9.371   8.905  0.1052  0.5857  0.1583
  771MOL0     C 6299  10.205   9.467   8.984  0.4706 -0.1821 -0.1142
  771MOL0     C 6300  10.342   9.470   8.910  0.2935 -0.5018  0.7056
  771MOL0     C 6301  10.455   9.455   9.016  0.4945 -0.2086 -1.4401
  771MOL0     C 6302  10.597   9.434   8.945  0.6309  0.4700 -0.4794
  771MOL0     C 6303  10.693   9.356   9.031  0.9228 -0.9848  0.0628
  771MOL0     C 6304  10.835   9.376   8.996 -0.0306 -0.2055  0.1823
  771MOL0    Cl 6305  10.862   9.278   8.861 -0.1139 -0.2606 -0.2418
  771MOL0     C 6306   9.726   9.280   9.118  0.1152  0.2642 -0.8634
  771MOL0     C 6307   9.610   9.236   9.192 -0.2872  0.9261 -0.8150
  771MOL0     O 6308   9.579   9.011   9.540  0.1193  0.1530 -0.2057
  771MOL0     C 6309   9.259   9.181   9.502  0.4354 -0.5208 -0.9310
  771MOL0     C 6310   9.128   9.194   9.538  0.8759  0.8598 -0.4083
  771MOL0     N 6311   8.466   8.968  10.100  0.3824  0.5158 -0.7978
  771MOL0     N 6312   8.385   8.886  10.167 -0.1712 -0.5214  0.2888
  771MOL0     C 6313   7.227   8.473  10.069 -0.8170  0.6151 -0.1653
  771MOL0     C 6314   7.126   8.529   9.988  0.1209 -0.6016 -0.6335
  771MOL0     C 6315   6.778   8.761   9.822 -0.0356 -0.2011 -0.7436
  771MOL0     C 6316   6.819   8.778   9.689  0.7096  0.7602  0.0917
  771MOL0     C 6317   6.735   8.831   9.595  0.1398  0.4215 -0.0763
  771MOL0     C 6318   6.616   8.884   9.629  0.3642  0.5096 -0.4023
  771MOL0     O 6319   6.550   8.941   9.522  0.1020  0.0444  0.5741
  771MOL0     C 6320   6.411   8.976   9.537  0.3560 -0.4406 -0.3729
  771MOL0     C 6321   6.398   9.135   9.565  0.7700 -0.0377  0.3592
  771MOL0     C 6322   6.252   9.195   9.567 -0.3103 -0.2824 -0.0025
  771MOL0     C 6323   6.173   9.143   9.690 -0.3232 -0.6195  0.2041
  771MOL0     C 6324   6.035   9.112   9.643 -0.2152 -0.3192 -0.5746
  771MOL0     C 6325   5.920   9.092   9.588 -0.9708  0.3538 -0.1047
  771MOL0     C 6326   6.574   8.883   9.762  1.0240  0.3930 -0.1220
  771MOL0     C 6327   6.654   8.813   9.853  0.4296  0.2332 -0.9590
  771MOL0     C 6328   6.615   8.815  10.006  0.1159 -0.6108 -0.1865
  771MOL0     H 6329   7.203   8.854  10.022 -0.7140  0.3802  1.5612
  771MOL0     H 6330   7.372   8.763  10.157 -0.5786  0.9515 -0.6586
  771MOL0     H 6331   7.553   8.460  10.342  3.0887 -2.7210 -5.1306
  771MOL0     H 6332   7.482   8.627  10.344  1.7917 -0.6767  2.0320
  771MOL0     H 6333   7.603   8.652  10.111 -0.5529  0.5781 -0.1337
  771MOL0     H 6334   7.697   8.656  10.251 -1.0980  1.0668  1.0373
  771MOL0     H 6335   7.791   8.438  10.201 -1.0706 -0.6231  1.0705
  771MOL0     H 6336   7.635   8.390  10.116 -0.5908  0.5810  1.6568
  771MOL0     H 6337   7.841   8.413   9.962  2.1811  2.0856  0.3505
  771MOL0     H 6338   7.706   8.529   9.924  2.7630  1.4871 -3.7590
  771MOL0     H 6339   7.837   8.709  10.028  0.0409  0.5279 -0.9976
  771MOL0     H 6340   7.905   8.639   9.892 -1.8002 -1.1470 -0.5582
  771MOL0     H 6341   7.976   8.613  10.179  0.4730  1.2859 -1.1164
  771MOL0     H 6342   8.046   8.496  10.069 -0.4667 -0.2331  2.1017
  771MOL0     H 6343   8.054   8.810  10.057  1.0536  0.5000 -0.7283
  771MOL0     H 6344   8.119   8.717   9.931 -1.2607 -1.9765 -0.3969
  771MOL0     H 6345   8.205   8.718  10.235 -1.5079  2.2137 -0.5880
  771MOL0     H 6346   8.267   8.598  10.114  0.3870  0.0385 -3.2461
  771MOL0     H 6347   8.308   8.793   9.865 -1.7153 -0.6728  1.6270
  771MOL0     H 6348   8.492   9.132   9.873  0.9749 -0.0664 -1.0316
  771MOL0     H 6349   8.442   9.029   9.759 -0.8345  2.8397  0.0180
  771MOL0     H 6350   8.690   8.958   9.927 -1.5880 -2.4731  0.2470
  771MOL0     H 6351   8.628   8.866   9.791  0.8399  0.8387 -2.4392
  771MOL0     H 6352   8.692   9.033   9.631 -1.3129  1.0109  0.3486
  771MOL0     H 6353   8.704   9.161   9.747  1.7106  0.8743 -1.9199
  771MOL0     H 6354   8.914   9.053   9.843  1.1096  1.1322 -0.9929
  771MOL0     H 6355   8.887   8.928   9.722  2.1260 -0.3110  0.7022
  771MOL0     H 6356   9.117   8.918   9.743  1.9333 -0.3250  0.4505
  771MOL0     H 6357   9.321   8.823   9.782  2.8426 -2.0143  0.3947
  771MOL0     H 6358   9.473   8.900   9.740 -0.4507  1.1232  0.6894
  771MOL0     H 6359   9.376   8.807   9.613 -2.4526  0.2376 -0.3138
  771MOL0     H 6360   9.789   9.150   9.471 -1.0299 -2.3809 -0.5032
  771MOL0     H 6361   9.967   9.214   9.337  0.3887  1.2853 -2.2378
  771MOL0     H 6362   9.916   9.302   8.896  1.0285  0.8755 -1.7819
  771MOL0     H 6363   9.923   9.457   8.962  2.7677  1.8063 -2.8265
  771MOL0     H 6364  10.153   9.267   8.910  1.8951  0.9602 -1.8847
  771MOL0     H 6365  10.098   9.411   8.806 -1.6946  0.0605  0.3331
  771MOL0     H 6366  10.208   9.433   9.088 -0.8672  1.1645  0.4139
  771MOL0     H 6367  10.157   9.566   8.991 -0.6524 -0.5883 -1.4935
  771MOL0     H 6368  10.359   9.563   8.855  2.6360 -0.2327  1.7357
  771MOL0     H 6369  10.344   9.392   8.834  0.3664  0.3916 -0.2390
  771MOL0     H 6370  10.453   9.550   9.069 -0.3080  0.6645 -2.9957
  771MOL0     H 6371  10.431   9.371   9.082 -2.9146 -0.8197 -3.2183
  771MOL0     H 6372  10.643   9.532   8.929  2.9339 -0.2726  1.1999
  771MOL0     H 6373  10.578   9.386   8.848 -2.1864  2.7107 -1.2078
  771MOL0     H 6374  10.657   9.252   9.033  3.4295 -1.8985  0.4917
  771MOL0     H 6375  10.683   9.394   9.133 -1.7313 -3.1575  0.7593
  771MOL0     H 6376  10.909   9.342   9.069 -0.3518  1.3880  1.3081
  771MOL0     H 6377  10.856   9.480   8.969  0.8978 -0.4759 -0.2159
  771MOL0     H 6378   9.717   9.314   9.015  1.7530 -0.4128 -1.2571
  771MOL0     H 6379   9.515   9.260   9.146 -0.7287  1.2067  0.2112
  771MOL0     H 6380   9.296   9.262   9.441 -0.2829  0.0668 -0.5983
  771MOL0     H 6381   9.068   9.270   9.489  1.7917  0.7690 -1.7117
  771MOL0     H 6382   7.246   8.366  10.068  2.8575  1.1239  0.7977
  771MOL0     H 6383   7.058   8.456   9.943 -0.3862 -0.7080  0.2827
  771MOL0     H 6384   6.915   8.742   9.653 -0.7479 -2.3972 -1.0077
  771MOL0     H 6385   6.757   8.840   9.489 -1.9492 -2.0764 -0.8067
  771MOL0     H 6386   6.365   8.959   9.439  0.9911 -1.0185 -0.5774
  771MOL0     H 6387   6.350   8.915   9.605  1.7154 -0.0337  1.2862
  771MOL0     H 6388   6.453   9.199   9.494 -1.5591  1.2286 -0.4183
  771MOL0     H 6389   6.441   9.150   9.664 -0.2502 -0.7793  0.9248
  771MOL0     H 6390   6.256   9.303   9.582 -0.0637 -0.2620 -0.2125
  771MOL0     H 6391   6.212   9.169   9.468  1.4140 -3.2597 -0.0420
  771MOL0     H 6392   6.162   9.222   9.765  0.2632 -1.0787  0.7847
  771MOL0     H 6393   6.215   9.054   9.738  1.6618 -0.4404 -1.0591
  771MOL0     H 6394   5.826   9.071   9.540 -0.4730 -2.7502  0.0345
  771MOL0     H 6395   6.473   8.920   9.778 -0.0413 -0.3128 -4.1041
  771MOL0     H 6396   6.667   8.896  10.059 -4.3026  0.8172  2.5681
  771MOL0     H 6397   6.512   8.850  10.020  0.4524 -0.1098  1.1514
  771MOL0     H 6398   6.622   8.721  10.062 -0.7195  0.3177  1.5695
  772MOL0     O 6399   9.468  10.360   1.717 -0.3212  0.1776  0.3698
  772MOL0     C 6400   9.408  10.390   1.611 -0.3912  0.4398 -0.3943
  772MOL0     O 6401   9.461  10.448   1.502  0.1600 -0.0306  0.1322
  772MOL0     C 6402   9.586  10.496   1.522  0.5481  0.3788  0.1660
  772MOL0     C 6403   9.696  10.426   1.467  0.1228 -0.3549 -0.6087
  772MOL0     C 6404   9.822  10.473   1.479  0.5304  0.3088 -0.4122
  772MOL0     C 6405   9.844  10.597   1.522  0.7679 -0.1995 -0.5633
  772MOL0     O 6406   9.976  10.643   1.523 -0.0593 -0.2326  1.3269
  772MOL0     C 6407  10.006  10.765   1.590 -0.8059 -0.0734  0.0720
  772MOL0     C 6408  10.162  10.791   1.584  0.7170  0.5578 -0.1614
  772MOL0     C 6409  10.215  10.917   1.652  0.1693  0.1670  0.2105
  772MOL0     C 6410  10.367  10.933   1.632  0.2327  0.0904  0.1335
  772MOL0     C 6411  10.432  11.012   1.742  0.1151  0.3090 -0.4370
  772MOL0     C 6412  10.581  11.035   1.704  0.4691 -0.4065 -0.5021
  772MOL0     C 6413  10.660  11.105   1.813  0.6860 -0.2379 -0.4691
  772MOL0     C 6414  10.801  11.143   1.765  0.8167  0.5535  0.4281
  772MOL0     N 6415  10.884  11.208   1.866  0.5587 -0.1531 -0.1867
  772MOL0     C 6416  10.979  11.146   1.944  0.5479 -0.0229 -0.4328
  772MOL0     C 6417  11.002  11.242   2.033  0.3076  0.6297 -0.2216
  772MOL0     C 6418  11.105  11.231   2.144 -0.1014  0.2606  0.1356
  772MOL0     C 6419  11.235  11.156   2.120 -0.4110 -0.3151 -0.4610
  772MOL0     C 6420  11.329  11.146   2.240 -0.3071 -0.0092 -0.4585
  772MOL0     C 6421  11.466  11.076   2.216  0.5874  0.0821 -0.5375
  772MOL0     O 6422  11.551  11.117   2.322 -0.3675  0.0854 -0.4620
  772MOL0     C 6423  11.683  11.079   2.325 -0.5786  0.3786  0.5292
  772MOL0     C 6424  11.753  11.004   2.222 -0.3153 -0.1746 -0.5060
  772MOL0     C 6425  11.894  10.992   2.231  0.0775 -0.4244  0.1311
  772MOL0     C 6426  11.965  10.905   2.132  0.0175 -0.3448  0.6155
  772MOL0     C 6427  11.961  11.050   2.341 -1.0086 -0.3665  0.3832
  772MOL0     C 6428  12.107  11.028   2.364  0.0612 -0.0215  0.0255
  772MOL0     O 6429  12.163  11.123   2.433 -0.0445  0.0337 -0.2043
  772MOL0     C 6430  12.275  11.090   2.503 -0.3394 -0.3692  0.8373
  772MOL0     C 6431  12.293  11.077   2.639 -0.0147  0.3874 -0.2253
  772MOL0     C 6432  12.417  11.040   2.687  0.2671 -0.2018 -0.2309
  772MOL0     C 6433  12.523  11.024   2.602  0.3734 -0.1702 -0.1516
  772MOL0     O 6434  12.648  11.002   2.662  0.9016  0.5463  0.4827
  772MOL0     C 6435  12.768  11.000   2.583  0.4884  0.1673  0.1197
  772MOL0     C 6436  12.874  10.937   2.671 -0.2049  0.6740  0.3273
  772MOL0     C 6437  13.003  10.924   2.597 -1.4841 -0.0283 -0.7900
  772MOL0     C 6438  13.070  11.065   2.598  0.3818  0.0769  0.3920
  772MOL0     C 6439  13.221  11.060   2.576 -0.0591  0.2411  0.2048
  772MOL0     C 6440  13.286  11.200   2.600 -0.1543  0.0309 -0.0649
  772MOL0     C 6441  13.434  11.197   2.559  0.7737 -0.4769 -0.4709
  772MOL0     C 6442  13.499  11.325   2.585 -0.5458  0.8025 -0.0669
  772MOL0    Cl 6443  13.667  11.326   2.524 -0.2072  0.4548 -0.5037
  772MOL0     C 6444  12.502  11.039   2.462 -1.1437  0.1431  0.3951
  772MOL0     C 6445  12.382  11.069   2.417  0.2916 -0.2286 -0.1029
  772MOL0     O 6446  12.147  10.911   2.346  0.1067  0.1956 -0.4050
  772MOL0     C 6447  11.894  11.125   2.436  0.4274 -0.0678  0.2393
  772MOL0     C 6448  11.757  11.141   2.421 -0.1291  0.2493 -0.1409
  772MOL0     N 6449  10.909  11.347   2.016 -0.1980 -0.3328  0.3187
  772MOL0     N 6450  10.841  11.328   1.912  0.5638 -0.2438  0.4296
  772MOL0     C 6451   9.735  10.667   1.582  0.5137 -0.4506 -0.2928
  772MOL0     C 6452   9.603  10.624   1.584  0.4612  0.8669 -0.1936
  772MOL0     C 6453   9.266  10.340   1.586 -0.4138 -0.9034 -0.3056
  772MOL0     C 6454   9.180  10.407   1.501  0.2762 -0.4229 -0.3722
  772MOL0     C 6455   9.043  10.365   1.482 -0.0377  0.3192 -0.4070
  772MOL0     C 6456   9.000  10.247   1.544 -0.1856 -0.6552 -0.3238
  772MOL0     O 6457   8.881  10.193   1.515 -0.0332  0.3599 -0.2364
  772MOL0     C 6458   8.838  10.062   1.552  0.1580 -0.0820  0.1972
  772MOL0     C 6459   8.908   9.962   1.453 -0.5023  0.3944 -0.6881
  772MOL0     C 6460   8.809   9.898   1.351  0.8120  0.0684 -0.3598
  772MOL0     C 6461   8.862   9.780   1.270  0.5379 -0.1255  0.2329
  772MOL0     C 6462   8.931   9.682   1.359  0.4285 -0.4352  0.2373
  772MOL0     C 6463   8.992   9.595   1.425 -0.0597 -0.0824 -0.0884
  772MOL0     C 6464   9.088  10.180   1.636  1.1450 -0.3556  0.4248
  772MOL0     C 6465   9.219  10.221   1.655  0.5119 -0.9570 -0.3654
  772MOL0     C 6466   9.304  10.140   1.762  0.4733  0.1195 -0.0775
  772MOL0     H 6467   9.662  10.330   1.429  0.5359 -0.6408 -0.2562
  772MOL0     H 6468   9.905  10.424   1.430 -0.1158  0.7792 -2.0499
  772MOL0     H 6469   9.963  10.759   1.690  0.3892  2.6571  0.8278
  772MOL0     H 6470   9.945  10.843   1.544 -0.0919  0.3533 -0.1541
  772MOL0     H 6471  10.200  10.700   1.632  2.0455 -0.0643 -2.2690
  772MOL0     H 6472  10.190  10.799   1.479  0.5458  4.1305 -0.0602
  772MOL0     H 6473  10.162  11.004   1.616  0.1718 -0.1018 -0.4468
  772MOL0     H 6474  10.193  10.910   1.759  1.8383 -1.1007  0.5297
  772MOL0     H 6475  10.420  10.837   1.624  0.2855  0.1464 -0.2088
  772MOL0     H 6476  10.376  10.979   1.533 -3.5398 -1.0818 -0.9332
  772MOL0     H 6477  10.420  10.959   1.837  0.2725  1.2710  0.1323
  772MOL0     H 6478  10.382  11.106   1.766 -0.1695 -0.2207  1.2501
  772MOL0     H 6479  10.619  10.934   1.684  0.5567  0.1043 -3.2941
  772MOL0     H 6480  10.590  11.098   1.615  2.7709  0.5709  0.3203
  772MOL0     H 6481  10.662  11.039   1.901  0.6454  1.1882  0.6482
  772MOL0     H 6482  10.603  11.194   1.839  2.1643  1.6028 -3.0911
  772MOL0     H 6483  10.834  11.044   1.733  0.3128 -0.8489  3.8497
  772MOL0     H 6484  10.791  11.212   1.681 -3.1559 -0.2843  0.0009
  772MOL0     H 6485  11.018  11.045   1.932  1.2529  0.1598  0.2489
  772MOL0     H 6486  11.056  11.175   2.226  0.0797 -0.4589 -0.2379
  772MOL0     H 6487  11.138  11.333   2.164  3.1403 -0.3055 -1.7228
  772MOL0     H 6488  11.204  11.058   2.084 -0.3035 -1.0342  1.3115
  772MOL0     H 6489  11.292  11.211   2.044 -0.0645 -0.4290 -0.2845
  772MOL0     H 6490  11.352  11.248   2.272  3.5148 -1.8918  3.8715
  772MOL0     H 6491  11.280  11.097   2.324  0.8048 -0.1376  0.1290
  772MOL0     H 6492  11.452  10.967   2.223  0.3457  0.2166  4.9542
  772MOL0     H 6493  11.513  11.103   2.121  0.6147 -0.0579 -0.5651
  772MOL0     H 6494  11.700  10.961   2.137 -0.2912  2.3079 -1.8505
  772MOL0     H 6495  11.993  10.810   2.180  0.5001 -0.5638 -0.0911
  772MOL0     H 6496  12.063  10.945   2.106  0.9857 -1.9771  1.5589
  772MOL0     H 6497  11.925  10.890   2.032 -0.0315 -0.8818  0.7121
  772MOL0     H 6498  12.207  11.100   2.702 -1.2917  1.4307 -2.2714
  772MOL0     H 6499  12.440  11.023   2.792 -2.0839  0.0365  0.4002
  772MOL0     H 6500  12.755  10.937   2.494 -0.0460  2.2534 -1.3675
  772MOL0     H 6501  12.801  11.096   2.542 -0.7274  1.1923  1.4537
  772MOL0     H 6502  12.883  10.994   2.764  1.0721  1.4358 -0.2439
  772MOL0     H 6503  12.858  10.831   2.694 -0.4845  0.4445 -0.8518
  772MOL0     H 6504  13.002  10.876   2.499 -1.1601 -0.8173 -0.4160
  772MOL0     H 6505  13.065  10.863   2.663 -0.5145  3.1272  1.4574
  772MOL0     H 6506  13.037  11.121   2.686  1.1856  1.0291  0.1080
  772MOL0     H 6507  13.027  11.125   2.517 -4.1709 -0.9006  1.8042
  772MOL0     H 6508  13.260  10.990   2.650  1.3935  0.3194 -0.4605
  772MOL0     H 6509  13.240  11.026   2.474  0.8076  1.6949 -0.1494
  772MOL0     H 6510  13.271  11.228   2.705 -1.9099 -0.3139 -0.1874
  772MOL0     H 6511  13.240  11.279   2.539  0.6819 -1.1980 -2.4094
  772MOL0     H 6512  13.437  11.174   2.453  0.6618 -0.4075 -0.4889
  772MOL0     H 6513  13.481  11.113   2.612 -1.0752 -0.1138  1.9452
  772MOL0     H 6514  13.494  11.341   2.693 -1.7985 -3.0310  0.6071
  772MOL0     H 6515  13.442  11.403   2.533 -2.9610 -1.5962 -1.2941
  772MOL0     H 6516  12.584  11.031   2.392 -2.2565 -0.8162 -0.8693
  772MOL0     H 6517  12.366  11.075   2.310 -2.1882  0.3731  0.2486
  772MOL0     H 6518  11.943  11.184   2.513 -1.2106  1.0920  0.4380
  772MOL0     H 6519  11.712  11.211   2.491  2.8870 -0.1872  2.4622
  772MOL0     H 6520   9.744  10.762   1.635 -0.5219 -0.0886 -0.7320
  772MOL0     H 6521   9.522  10.677   1.632  0.8398  1.0329  0.2678
  772MOL0     H 6522   9.215  10.499   1.455  0.6128 -1.0641 -1.4324
  772MOL0     H 6523   8.992  10.430   1.412 -2.0691  2.3863  2.7566
  772MOL0     H 6524   8.854  10.045   1.658  3.9669 -2.0663 -0.5086
  772MOL0     H 6525   8.732  10.064   1.526  0.4984  0.4631 -1.3087
  772MOL0     H 6526   8.947   9.888   1.524 -4.2243 -1.8190 -0.6583
  772MOL0     H 6527   8.994  10.011   1.406 -0.6252  1.6089  0.2927
  772MOL0     H 6528   8.721   9.860   1.404 -0.5453 -0.6004 -2.9539
  772MOL0     H 6529   8.763   9.970   1.281 -1.5060 -1.8033 -0.9044
  772MOL0     H 6530   8.925   9.822   1.192  0.9552  1.5200  1.4070
  772MOL0     H 6531   8.776   9.734   1.219  1.6561 -1.9031 -0.1378
  772MOL0     H 6532   9.049   9.527   1.484 -0.6329  1.3723  2.2796
  772MOL0     H 6533   9.057  10.089   1.687 -0.0774 -0.4353 -0.4005
  772MOL0     H 6534   9.247  10.049   1.788 -0.4776  0.2677 -1.5357
  772MOL0     H 6535   9.396  10.117   1.707  0.4779 -1.3041  0.4793
  772MOL0     H 6536   9.310  10.209   1.846 -2.8716  0.4215  0.0438
  773MOL0     O 6537   3.205  10.477   6.208 -0.2323  0.0740  0.5288
  773MOL0     C 6538   3.193  10.421   6.095  0.8110 -0.5633 -0.6125
  773MOL0     O 6539   3.107  10.467   5.999  0.6716 -0.4385  0.2842
  773MOL0     C 6540   3.029  10.577   6.012 -0.4885 -0.0058 -1.2798
  773MOL0     C 6541   2.889  10.576   6.030 -0.2382  0.2573  0.8130
  773MOL0     C 6542   2.816  10.689   6.060  0.1141  0.2685 -0.2008
  773MOL0     C 6543   2.874  10.816   6.075 -1.4732  0.2267  0.3091
  773MOL0     O 6544   2.806  10.929   6.110 -0.1991 -0.7529  0.2615
  773MOL0     C 6545   2.765  10.933   6.246  0.4324 -0.0615  0.4518
  773MOL0     C 6546   2.707  11.078   6.278  0.6817  0.9336 -0.3229
  773MOL0     C 6547   2.580  11.122   6.197 -0.6753  0.6812 -0.1041
  773MOL0     C 6548   2.594  11.150   6.043  0.2458 -0.3114  0.9175
  773MOL0     C 6549   2.709  11.241   5.995  0.3007 -0.4009  0.0802
  773MOL0     C 6550   2.712  11.383   6.056 -0.0247  0.7641 -0.6542
  773MOL0     C 6551   2.585  11.461   6.025 -0.1027 -0.0021 -0.1180
  773MOL0     C 6552   2.566  11.586   6.120 -0.2546 -0.5526 -0.2873
  773MOL0     N 6553   2.671  11.692   6.096 -0.1984  0.6297 -0.0756
  773MOL0     C 6554   2.688  11.766   5.979 -1.2180  0.6353 -0.6948
  773MOL0     C 6555   2.784  11.855   6.010 -0.8865  0.2106  0.5971
  773MOL0     C 6556   2.821  11.973   5.922  0.8730  0.6027 -0.1597
  773MOL0     C 6557   2.973  11.997   5.914  0.2913 -0.3732  0.0934
  773MOL0     C 6558   3.054  11.899   5.827 -0.3532  0.0797  1.3663
  773MOL0     C 6559   3.203  11.919   5.862  0.1499  0.6470  0.1206
  773MOL0     O 6560   3.240  12.058   5.865 -0.1768  0.8671  0.1727
  773MOL0     C 6561   3.372  12.092   5.879 -0.4989  0.2248  0.2304
  773MOL0     C 6562   3.414  12.229   5.870  0.4306  0.6159 -0.0085
  773MOL0     C 6563   3.549  12.267   5.888 -0.1023  0.1139  0.7734
  773MOL0     C 6564   3.586  12.407   5.831  0.1075  0.0473 -0.0342
  773MOL0     C 6565   3.642  12.167   5.929  0.1368 -0.3376  0.0711
  773MOL0     C 6566   3.789  12.196   5.951 -0.4005 -0.7498 -0.2810
  773MOL0     O 6567   3.825  12.321   5.998  0.5216  0.3512 -0.3435
  773MOL0     C 6568   3.954  12.332   6.041  0.0747 -0.9268  0.2180
  773MOL0     C 6569   3.990  12.471   6.046 -0.4356 -0.5850  0.5140
  773MOL0     C 6570   4.124  12.507   6.093  0.2423  0.2592  0.1140
  773MOL0     C 6571   4.210  12.407   6.155  0.1290  0.6333  0.1169
  773MOL0     O 6572   4.333  12.413   6.209 -0.9824 -0.1256  0.3611
  773MOL0     C 6573   4.395  12.546   6.217  0.3800  0.0735  0.0108
  773MOL0     C 6574   4.520  12.556   6.296 -1.0286  0.2380  0.5633
  773MOL0     C 6575   4.528  12.507   6.442  0.3239 -0.3362 -1.5538
  773MOL0     C 6576   4.657  12.543   6.502  0.9097  0.5699  0.3972
  773MOL0     C 6577   4.655  12.542   6.659 -0.4176  0.7458  0.3879
  773MOL0     C 6578   4.658  12.388   6.703  0.7413  0.2169  0.6784
  773MOL0     C 6579   4.685  12.376   6.849  0.6112  0.5322 -1.8459
  773MOL0     C 6580   4.699  12.235   6.912 -0.4750 -0.7400  0.3339
  773MOL0    Cl 6581   4.556  12.133   6.912 -0.1243  0.0962 -0.2517
  773MOL0     C 6582   4.157  12.279   6.168  0.0773  0.1336 -0.2196
  773MOL0     C 6583   4.038  12.240   6.108  0.7622 -0.0521  0.8483
  773MOL0     O 6584   3.860  12.101   5.942 -1.0768  0.6414 -0.3635
  773MOL0     C 6585   3.601  12.033   5.940 -0.2528  0.7459 -0.0416
  773MOL0     C 6586   3.467  11.997   5.907  0.1685  0.6538 -0.5857
  773MOL0     N 6587   2.839  11.831   6.134  0.5733 -0.2358 -0.1807
  773MOL0     N 6588   2.765  11.739   6.185 -0.9855  0.6902 -0.1421
  773MOL0     C 6589   3.015  10.822   6.068  0.0360 -0.4084 -0.2314
  773MOL0     C 6590   3.094  10.704   6.043  0.1744  0.9933  0.9127
  773MOL0     C 6591   3.268  10.294   6.051  0.7830 -0.7132  0.4042
  773MOL0     C 6592   3.229  10.230   5.931  0.5979 -0.0716  0.4562
  773MOL0     C 6593   3.307  10.124   5.882  0.1165 -0.1166  0.7599
  773MOL0     C 6594   3.404  10.065   5.960 -0.0524 -0.5800  0.1621
  773MOL0     O 6595   3.481   9.956   5.917 -0.2635  0.0924 -0.6975
  773MOL0     C 6596   3.399   9.837   5.891 -0.1859 -0.4519  0.4158
  773MOL0     C 6597   3.484   9.708   5.898  0.3023 -0.4957 -0.4835
  773MOL0     C 6598   3.395   9.585   5.893 -0.0466  0.0473 -0.4765
  773MOL0     C 6599   3.471   9.453   5.903 -0.4444  0.1441 -0.0672
  773MOL0     C 6600   3.541   9.428   6.029  0.2674  0.7266  0.2650
  773MOL0     C 6601   3.610   9.410   6.124 -0.2640 -0.1890 -0.1020
  773MOL0     C 6602   3.433  10.121   6.085  0.2404  0.1019 -0.0457
  773MOL0     C 6603   3.371  10.236   6.132 -0.7161  0.7695  0.3106
  773MOL0     C 6604   3.418  10.301   6.271 -0.2793  0.2584 -0.0258
  773MOL0     H 6605   2.829  10.488   6.008 -3.4155  2.3725  0.4483
  773MOL0     H 6606   2.709  10.680   6.071  0.4543 -1.8063  2.2704
  773MOL0     H 6607   2.841  10.914   6.322 -0.4513  2.7497  2.1695
  773MOL0     H 6608   2.687  10.858   6.267  0.9725 -0.7957 -0.1062
  773MOL0     H 6609   2.683  11.082   6.384  0.5788  0.0297 -0.2987
  773MOL0     H 6610   2.796  11.139   6.259  1.5301  0.0742  0.6825
  773MOL0     H 6611   2.494  11.056   6.209 -2.8675  3.0930 -1.2831
  773MOL0     H 6612   2.542  11.213   6.246  0.9679 -1.0544  5.0382
  773MOL0     H 6613   2.608  11.060   5.984  0.1866  1.4110 -1.9194
  773MOL0     H 6614   2.502  11.196   6.007 -0.1286 -1.8957 -0.2628
  773MOL0     H 6615   2.698  11.261   5.888  1.3804  2.2499  0.3907
  773MOL0     H 6616   2.808  11.200   6.016  1.8294  2.7619 -0.3282
  773MOL0     H 6617   2.726  11.372   6.164  1.4732 -2.0703 -1.0477
  773MOL0     H 6618   2.806  11.425   6.019  0.1327  1.5587  0.5903
  773MOL0     H 6619   2.498  11.399   6.045  1.0509 -0.9026  2.7264
  773MOL0     H 6620   2.599  11.492   5.921 -2.0320  1.7672  0.0766
  773MOL0     H 6621   2.469  11.633   6.102  0.9022  4.4324  4.0869
  773MOL0     H 6622   2.574  11.549   6.222  4.5065  0.3553 -0.0755
  773MOL0     H 6623   2.637  11.757   5.883  0.1288 -0.9587 -1.3152
  773MOL0     H 6624   2.764  12.060   5.955  0.6402  0.5467 -0.4131
  773MOL0     H 6625   2.775  11.952   5.825 -1.0733 -0.8230  0.9968
  773MOL0     H 6626   2.978  12.100   5.877 -0.6681 -0.2530  0.2590
  773MOL0     H 6627   3.020  12.003   6.013  0.4289  0.0180  0.0054
  773MOL0     H 6628   3.010  11.800   5.836 -1.9763  0.5008 -1.0445
  773MOL0     H 6629   3.052  11.933   5.722 -1.2715 -2.3398  0.5368
  773MOL0     H 6630   3.222  11.867   5.956 -0.0545 -0.4236 -0.4081
  773MOL0     H 6631   3.257  11.865   5.784 -1.6624 -3.8175  1.6249
  773MOL0     H 6632   3.348  12.309   5.840 -0.1470 -0.0359 -0.5191
  773MOL0     H 6633   3.512  12.448   5.762 -1.5846 -2.4025  0.1725
  773MOL0     H 6634   3.678  12.400   5.773  0.4520 -2.9552  0.6700
  773MOL0     H 6635   3.580  12.481   5.911 -6.2950 -1.2215  1.2172
  773MOL0     H 6636   3.937  12.553   5.998  0.4115  1.9365  3.5799
  773MOL0     H 6637   4.151  12.612   6.090 -1.6404  0.9035  2.4329
  773MOL0     H 6638   4.403  12.594   6.119 -1.6726  0.5926  0.0548
  773MOL0     H 6639   4.324  12.613   6.266  1.6773  2.0028 -0.6595
  773MOL0     H 6640   4.604  12.523   6.233  0.0591  1.8973  1.0874
  773MOL0     H 6641   4.533  12.664   6.305  2.0645 -0.0883  1.1639
  773MOL0     H 6642   4.521  12.398   6.446  2.6587 -0.5084 -0.8397
  773MOL0     H 6643   4.442  12.554   6.490 -0.7585 -0.9455 -2.8172
  773MOL0     H 6644   4.681  12.641   6.460 -3.4591  0.9349 -1.7707
  773MOL0     H 6645   4.737  12.475   6.471  0.9488  0.6763  0.2638
  773MOL0     H 6646   4.749  12.591   6.689 -0.1688 -0.6445  2.0181
  773MOL0     H 6647   4.568  12.594   6.699  0.2111  1.4430  0.8859
  773MOL0     H 6648   4.738  12.333   6.653 -1.9000 -1.6104 -1.8520
  773MOL0     H 6649   4.562  12.347   6.673  0.6731  0.7164  0.2085
  773MOL0     H 6650   4.602  12.423   6.903  1.5053 -0.6827  0.7410
  773MOL0     H 6651   4.778  12.427   6.875  1.3774 -2.5093  2.4784
  773MOL0     H 6652   4.730  12.251   7.016 -0.7620 -1.1723  0.4874
  773MOL0     H 6653   4.780  12.198   6.849 -0.1358  0.9705 -0.2873
  773MOL0     H 6654   4.216  12.199   6.213 -0.7642 -1.0534 -1.1912
  773MOL0     H 6655   4.003  12.138   6.123  2.2641 -0.4317  1.9960
  773MOL0     H 6656   3.670  11.958   5.977  1.0485  0.4376 -2.8441
  773MOL0     H 6657   3.433  11.898   5.937 -0.3330  1.5591  2.1784
  773MOL0     H 6658   3.062  10.909   6.111  0.8021 -1.4131  1.0425
  773MOL0     H 6659   3.202  10.709   6.036  0.3996 -3.0080 -1.2124
  773MOL0     H 6660   3.144  10.265   5.874 -1.2987 -3.7174  0.7747
  773MOL0     H 6661   3.279  10.093   5.782  2.8661 -2.8616  0.6817
  773MOL0     H 6662   3.319   9.839   5.966 -0.2616 -1.3345  0.3692
  773MOL0     H 6663   3.359   9.858   5.791 -2.0998  2.2480  1.6160
  773MOL0     H 6664   3.533   9.705   5.996 -1.6992  1.0486  0.6366
  773MOL0     H 6665   3.559   9.713   5.819 -0.8284  0.5862 -1.5096
  773MOL0     H 6666   3.327   9.587   5.978  0.1443  4.9243 -0.1534
  773MOL0     H 6667   3.329   9.597   5.807 -3.5391  0.7085  2.0942
  773MOL0     H 6668   3.546   9.455   5.824 -1.3091  2.7027 -0.9467
  773MOL0     H 6669   3.401   9.369   5.903  0.9433 -1.0364  0.6390
  773MOL0     H 6670   3.667   9.387   6.211  0.2445  0.0316 -0.3715
  773MOL0     H 6671   3.518  10.083   6.142 -0.0557  1.8065  1.6019
  773MOL0     H 6672   3.346  10.300   6.354 -2.0128  0.4206 -1.4600
  773MOL0     H 6673   3.512  10.257   6.305 -1.3785  0.3580  3.5539
  773MOL0     H 6674   3.446  10.406   6.259 -2.0750  0.9495  1.3902
  774MOL0     O 6675   0.432   6.395   1.918  0.5055 -0.3603  0.1629
  774MOL0     C 6676   0.369   6.309   1.976  0.6867  0.4078 -0.6523
  774MOL0     O 6677   0.368   6.168   1.953  0.5910 -0.0721  0.1107
  774MOL0     C 6678   0.418   6.129   1.839 -0.7486  0.4385  0.4313
  774MOL0     C 6679   0.340   6.116   1.732 -0.1630 -0.6741 -0.0843
  774MOL0     C 6680   0.392   6.065   1.612  0.3368 -0.6250  0.0691
  774MOL0     C 6681   0.527   6.038   1.606  0.5245  0.6812  0.3822
  774MOL0     O 6682   0.593   5.999   1.484  0.5195  0.3469 -0.3221
  774MOL0     C 6683   0.516   6.024   1.366  0.1301 -0.1902 -0.7947
  774MOL0     C 6684   0.597   5.962   1.252 -0.2277  0.4243  0.3958
  774MOL0     C 6685   0.739   6.031   1.229  0.9835  1.2534 -0.5596
  774MOL0     C 6686   0.741   6.170   1.172 -0.2314  0.0362 -0.1905
  774MOL0     C 6687   0.889   6.214   1.136  0.4030  0.7472 -0.2933
  774MOL0     C 6688   0.987   6.233   1.244 -0.4345  0.2942  0.1363
  774MOL0     C 6689   1.100   6.332   1.193 -0.2937  0.6282 -0.0834
  774MOL0     C 6690   1.202   6.255   1.108  0.4061  0.4215  0.2336
  774MOL0     N 6691   1.311   6.186   1.193  0.7887  0.5076 -0.4187
  774MOL0     C 6692   1.353   6.056   1.179  1.0291  0.0194 -0.0533
  774MOL0     C 6693   1.441   6.031   1.278 -0.0429 -0.4568 -0.2363
  774MOL0     C 6694   1.512   5.905   1.324  0.1916 -0.1684 -0.8367
  774MOL0     C 6695   1.660   5.886   1.296 -0.5545 -0.6664  0.3941
  774MOL0     C 6696   1.748   5.958   1.399  0.1356  0.2144  0.1148
  774MOL0     C 6697   1.901   5.926   1.370 -0.2969  0.0676 -0.2007
  774MOL0     O 6698   1.976   5.968   1.477  0.2138  0.2486 -0.1578
  774MOL0     C 6699   2.117   5.961   1.472 -0.1221 -0.3722  0.0264
  774MOL0     C 6700   2.191   5.931   1.359  0.2522  0.5896  0.4147
  774MOL0     C 6701   2.337   5.915   1.363  0.3615 -0.5427 -0.2716
  774MOL0     C 6702   2.401   5.894   1.229  0.6607  0.8159 -0.1395
  774MOL0     C 6703   2.398   5.927   1.486 -0.7487 -0.2014 -0.0044
  774MOL0     C 6704   2.547   5.922   1.503  0.5108  0.1044  0.1651
  774MOL0     O 6705   2.614   5.867   1.397 -0.0904 -0.3760 -0.6244
  774MOL0     C 6706   2.750   5.877   1.398  0.2653 -0.1766 -1.1491
  774MOL0     C 6707   2.821   5.815   1.498 -0.4253 -0.2429 -0.3803
  774MOL0     C 6708   2.962   5.816   1.483  0.1795  0.1556 -0.3271
  774MOL0     C 6709   3.021   5.862   1.366  0.0752 -0.6164  0.0237
  774MOL0     O 6710   3.154   5.842   1.339  0.1509 -0.4370 -0.3213
  774MOL0     C 6711   3.247   5.830   1.444 -0.8138 -0.0307  0.1078
  774MOL0     C 6712   3.376   5.786   1.386  0.4574  0.3507 -0.3121
  774MOL0     C 6713   3.479   5.793   1.498 -0.8339 -0.3974  0.1660
  774MOL0     C 6714   3.627   5.804   1.439  0.4391  0.3914  0.2533
  774MOL0     C 6715   3.715   5.772   1.557  0.1777  0.2197 -0.3238
  774MOL0     C 6716   3.859   5.770   1.511 -0.6789 -0.1795 -0.3629
  774MOL0     C 6717   3.936   5.692   1.620 -0.1732  0.4306 -0.0100
  774MOL0     C 6718   4.089   5.717   1.614 -0.6590 -0.6018 -0.1350
  774MOL0    Cl 6719   4.143   5.620   1.468  0.3185 -0.0075  0.1820
  774MOL0     C 6720   2.949   5.918   1.263  0.9654 -0.4465  0.3083
  774MOL0     C 6721   2.811   5.917   1.279  0.6088  0.9538  0.1267
  774MOL0     O 6722   2.597   5.968   1.605  1.0512  0.6916  0.0792
  774MOL0     C 6723   2.318   5.951   1.598 -0.3388 -0.0373 -0.2318
  774MOL0     C 6724   2.181   5.972   1.599 -0.5324 -0.6243  0.8190
  774MOL0     N 6725   1.452   6.150   1.348  0.0384 -0.4806  0.8290
  774MOL0     N 6726   1.371   6.236   1.303 -0.9347  0.0760  0.3778
  774MOL0     C 6727   0.608   6.057   1.712  0.0339 -0.0721 -0.2352
  774MOL0     C 6728   0.559   6.102   1.829 -0.4838 -0.9816  0.4475
  774MOL0     C 6729   0.269   6.335   2.081 -0.0683 -0.6954  0.4323
  774MOL0     C 6730   0.143   6.282   2.068 -0.0721  0.5715 -0.3116
  774MOL0     C 6731   0.037   6.321   2.146 -0.0725 -0.9936 -0.3514
  774MOL0     C 6732   0.046   6.416   2.247  0.6619 -0.6145 -0.5873
  774MOL0     O 6733  -0.063   6.465   2.319  0.3577 -0.2844  0.0063
  774MOL0     C 6734  -0.195   6.422   2.287 -0.0830  0.7823 -0.5663
  774MOL0     C 6735  -0.309   6.487   2.379  0.2227  0.4636  0.1233
  774MOL0     C 6736  -0.311   6.457   2.526 -0.6458 -0.1122  0.3350
  774MOL0     C 6737  -0.443   6.502   2.585 -0.0246  1.1691  0.4821
  774MOL0     C 6738  -0.459   6.648   2.581 -0.6811  0.5356  0.0452
  774MOL0     C 6739  -0.478   6.767   2.589  0.3332  0.3124  0.6994
  774MOL0     C 6740   0.172   6.465   2.269  0.7290  0.4068  0.4092
  774MOL0     C 6741   0.278   6.437   2.179 -0.5968 -0.1136  0.0310
  774MOL0     C 6742   0.407   6.519   2.213 -0.6399 -0.0214  0.2190
  774MOL0     H 6743   0.232   6.133   1.731 -0.1162 -0.3867 -0.3367
  774MOL0     H 6744   0.321   6.064   1.530  1.5348  0.0332 -1.0171
  774MOL0     H 6745   0.514   6.133   1.351  2.4099 -0.1098 -0.8577
  774MOL0     H 6746   0.411   5.993   1.369 -0.4848  1.7739 -0.4488
  774MOL0     H 6747   0.605   5.854   1.262  0.1696  0.1653 -2.0284
  774MOL0     H 6748   0.539   5.974   1.159  1.0720  3.6160 -0.1287
  774MOL0     H 6749   0.802   6.029   1.319  1.7261  0.7397 -1.0730
  774MOL0     H 6750   0.806   5.972   1.166  3.5001  0.4383  2.6196
  774MOL0     H 6751   0.676   6.177   1.084 -1.1868  0.0290  0.4975
  774MOL0     H 6752   0.691   6.233   1.246  2.6398  1.3101  0.7706
  774MOL0     H 6753   0.873   6.313   1.093 -0.1282  1.0814  0.6389
  774MOL0     H 6754   0.937   6.152   1.060  0.4701  0.8815 -0.3605
  774MOL0     H 6755   0.937   6.279   1.330 -0.4814 -0.4720  0.5257
  774MOL0     H 6756   1.034   6.141   1.282 -0.5921 -0.0834 -0.5682
  774MOL0     H 6757   1.156   6.377   1.276  1.3848  0.1977 -0.9376
  774MOL0     H 6758   1.062   6.419   1.140  0.6471 -1.3363 -4.4088
  774MOL0     H 6759   1.145   6.175   1.060  0.2294 -0.6490  2.1437
  774MOL0     H 6760   1.240   6.326   1.034  0.5522 -1.8324 -1.9573
  774MOL0     H 6761   1.315   5.991   1.100 -4.9444  2.0331  0.6178
  774MOL0     H 6762   1.451   5.826   1.279 -0.7866 -0.6131  1.1638
  774MOL0     H 6763   1.497   5.902   1.432  1.5377  0.0694 -0.6260
  774MOL0     H 6764   1.675   5.778   1.297 -0.9378 -0.7220  0.4636
  774MOL0     H 6765   1.692   5.920   1.197 -0.4970 -0.1114  0.5970
  774MOL0     H 6766   1.735   6.066   1.408  1.6499  0.5347 -1.2026
  774MOL0     H 6767   1.721   5.920   1.499  2.3064  1.5439  1.2822
  774MOL0     H 6768   1.915   5.825   1.330 -2.4214  0.5647 -2.4335
  774MOL0     H 6769   1.922   5.989   1.284 -0.3990 -1.7567 -1.6240
  774MOL0     H 6770   2.152   5.909   1.260  2.2174 -4.2787  0.4117
  774MOL0     H 6771   2.478   5.968   1.206  0.8965  0.6491  0.0950
  774MOL0     H 6772   2.319   5.900   1.157 -0.6790 -2.4492  0.9149
  774MOL0     H 6773   2.446   5.795   1.219 -0.8316  0.0552  0.3808
  774MOL0     H 6774   2.769   5.763   1.577  0.0939  2.5266  1.9727
  774MOL0     H 6775   3.018   5.775   1.565  1.7461  3.2250  0.2652
  774MOL0     H 6776   3.259   5.912   1.514 -1.0575 -2.7894  3.6397
  774MOL0     H 6777   3.216   5.741   1.498 -0.9570 -0.4445 -0.6391
  774MOL0     H 6778   3.368   5.684   1.347  2.8919  1.0078 -2.9015
  774MOL0     H 6779   3.401   5.860   1.309 -0.9036  2.0485  0.8024
  774MOL0     H 6780   3.458   5.712   1.567 -2.2436 -0.4814 -0.3277
  774MOL0     H 6781   3.476   5.885   1.557 -0.6227 -0.0708 -0.3204
  774MOL0     H 6782   3.643   5.907   1.407  0.7525 -0.1445 -1.4203
  774MOL0     H 6783   3.648   5.733   1.358 -0.0742  1.2328 -0.6306
  774MOL0     H 6784   3.709   5.841   1.643  3.2186  0.8308 -0.4993
  774MOL0     H 6785   3.689   5.674   1.599 -0.2515  0.2261 -0.5754
  774MOL0     H 6786   3.895   5.872   1.497  2.0398 -0.9924  0.2393
  774MOL0     H 6787   3.872   5.714   1.418  0.1409 -0.6381  0.0184
  774MOL0     H 6788   3.925   5.584   1.608 -0.4365  0.4560 -0.0097
  774MOL0     H 6789   3.899   5.726   1.718 -0.2606 -0.0027  0.1081
  774MOL0     H 6790   4.133   5.683   1.709  1.3135  1.0376 -0.3879
  774MOL0     H 6791   4.110   5.823   1.598 -1.3613 -0.7485 -2.2833
  774MOL0     H 6792   2.998   5.934   1.168 -1.7578  0.4486 -1.0503
  774MOL0     H 6793   2.736   5.950   1.208 -1.9453 -0.8375  1.8252
  774MOL0     H 6794   2.370   5.957   1.692 -3.9168  1.3958  1.8533
  774MOL0     H 6795   2.118   5.986   1.687 -1.6608  0.1858 -0.0840
  774MOL0     H 6796   0.715   6.053   1.692 -0.0726 -0.6348 -0.7235
  774MOL0     H 6797   0.623   6.100   1.917  0.5755 -1.5362 -0.3133
  774MOL0     H 6798   0.121   6.207   1.992  2.2799  0.9222 -1.4142
  774MOL0     H 6799  -0.050   6.258   2.131  0.5879 -2.1275  0.5067
  774MOL0     H 6800  -0.214   6.451   2.183 -2.4582  0.2087 -0.3547
  774MOL0     H 6801  -0.202   6.313   2.295 -3.6107  0.8324 -1.0261
  774MOL0     H 6802  -0.405   6.452   2.338  1.0202 -2.6807  0.6453
  774MOL0     H 6803  -0.305   6.594   2.359  0.0111  0.2234 -1.3497
  774MOL0     H 6804  -0.280   6.353   2.538  0.1873 -0.2107 -2.0696
  774MOL0     H 6805  -0.237   6.525   2.570 -1.8112  0.4131  1.5473
  774MOL0     H 6806  -0.442   6.471   2.690 -0.9342 -0.6338 -0.0117
  774MOL0     H 6807  -0.524   6.452   2.533  1.1321  1.7842 -2.0801
  774MOL0     H 6808  -0.491   6.873   2.604 -0.8035 -0.0073  2.2223
  774MOL0     H 6809   0.178   6.534   2.352  3.4584  1.0192 -0.1883
  774MOL0     H 6810   0.387   6.567   2.309  0.0323  0.6817  0.0152
  774MOL0     H 6811   0.497   6.458   2.219 -0.1859  0.1306 -3.2389
  774MOL0     H 6812   0.421   6.593   2.134 -0.3327  0.6374  0.8798
  775MOL0     O 6813   6.204   8.841   8.958  0.5011 -0.1364 -0.2528
  775MOL0     C 6814   6.119   8.913   9.010  0.8733  0.2550 -0.2126
  775MOL0     O 6815   6.147   9.030   9.072 -0.3870 -0.8270  0.2454
  775MOL0     C 6816   6.271   9.063   9.122 -1.2633  0.4193 -1.1955
  775MOL0     C 6817   6.361   8.974   9.179  0.0191 -0.1505 -0.0108
  775MOL0     C 6818   6.494   9.022   9.200  0.7919  0.2834 -0.8648
  775MOL0     C 6819   6.533   9.152   9.174 -0.2488  0.4673 -0.1086
  775MOL0     O 6820   6.671   9.171   9.209  0.6226 -0.0300 -0.1141
  775MOL0     C 6821   6.699   9.286   9.286 -0.5080  0.6279  0.1379
  775MOL0     C 6822   6.786   9.255   9.404 -0.0220  0.1149 -1.2210
  775MOL0     C 6823   6.771   9.356   9.520 -0.5199  0.3215 -0.5091
  775MOL0     C 6824   6.854   9.322   9.642  0.2145 -0.4319 -0.6592
  775MOL0     C 6825   6.790   9.337   9.778 -0.2864  0.0344 -0.5749
  775MOL0     C 6826   6.875   9.273   9.904 -0.9427  0.7651  0.8970
  775MOL0     C 6827   6.883   9.123   9.889  0.0432  0.0206 -0.7217
  775MOL0     C 6828   6.948   9.063  10.012  0.7173 -0.5993  0.5521
  775MOL0     N 6829   7.091   9.108  10.044  0.1667  0.4230 -0.0646
  775MOL0     C 6830   7.189   9.135   9.958 -0.3507  0.0243  0.1601
  775MOL0     C 6831   7.301   9.147  10.041  0.5240  0.3428 -0.4364
  775MOL0     C 6832   7.443   9.183  10.002 -0.0761  0.2772 -0.5576
  775MOL0     C 6833   7.524   9.083   9.918 -0.4779 -0.1035 -0.9358
  775MOL0     C 6834   7.565   8.951   9.981 -0.6113  0.1630 -0.2543
  775MOL0     C 6835   7.651   8.872   9.888 -0.2841 -0.5439 -0.4672
  775MOL0     O 6836   7.764   8.949   9.839  0.0597  0.2282 -0.1677
  775MOL0     C 6837   7.866   8.896   9.764 -0.1923 -0.4156 -1.2584
  775MOL0     C 6838   7.867   8.773   9.699  0.1994 -0.2769  0.0206
  775MOL0     C 6839   7.985   8.728   9.639  0.0054  0.3888  0.8095
  775MOL0     C 6840   7.970   8.583   9.582  0.2642 -0.1986 -0.2989
  775MOL0     C 6841   8.103   8.812   9.646 -0.1780 -0.2551 -0.0824
  775MOL0     C 6842   8.232   8.782   9.577 -0.5573  0.7535 -0.0508
  775MOL0     O 6843   8.339   8.866   9.597  0.0742  0.3631 -0.7719
  775MOL0     C 6844   8.466   8.856   9.536  0.2304  0.2865 -0.1298
  775MOL0     C 6845   8.506   8.965   9.462  0.1839  0.0126  0.5656
  775MOL0     C 6846   8.623   8.959   9.381 -0.1720  1.0111 -0.2980
  775MOL0     C 6847   8.706   8.844   9.384 -0.1446 -0.5290 -1.1357
  775MOL0     O 6848   8.821   8.839   9.312  0.5448  0.6648 -0.3069
  775MOL0     C 6849   8.931   8.764   9.367 -0.0447  0.4995  0.2528
  775MOL0     C 6850   9.063   8.791   9.288  1.0180 -0.3100  1.0399
  775MOL0     C 6851   9.190   8.723   9.347  0.0451  0.6504  0.5444
  775MOL0     C 6852   9.316   8.785   9.290  0.0698 -0.3918  0.2205
  775MOL0     C 6853   9.445   8.700   9.319  0.0956 -0.1830 -0.4420
  775MOL0     C 6854   9.575   8.784   9.298  0.2958  0.1528 -0.2939
  775MOL0     C 6855   9.706   8.709   9.318 -0.7910 -0.1188 -0.1991
  775MOL0     C 6856   9.830   8.802   9.316 -0.0411  0.0380  0.0024
  775MOL0    Cl 6857   9.979   8.700   9.334 -0.2368  0.2732  0.2306
  775MOL0     C 6858   8.660   8.728   9.450  1.2801 -0.1343 -0.1553
  775MOL0     C 6859   8.544   8.743   9.529  0.1603 -0.2257  0.2328
  775MOL0     O 6860   8.236   8.679   9.507  0.2636 -1.1984 -0.3662
  775MOL0     C 6861   8.090   8.943   9.702 -0.3002  0.1228  0.0732
  775MOL0     C 6862   7.976   8.986   9.764 -0.2340  0.8840 -0.7637
  775MOL0     N 6863   7.267   9.105  10.165 -0.1106  0.1272  0.5578
  775MOL0     N 6864   7.143   9.084  10.164  0.3925  0.7349  0.9958
  775MOL0     C 6865   6.431   9.244   9.121  0.0649 -0.1398  0.7961
  775MOL0     C 6866   6.305   9.193   9.090  0.5039 -0.1994 -0.7078
  775MOL0     C 6867   5.977   8.885   9.012 -0.1344 -0.1424  0.9565
  775MOL0     C 6868   5.885   8.975   9.062  0.5617  0.5679 -0.2446
  775MOL0     C 6869   5.750   8.948   9.073 -0.1583  0.2698  0.8005
  775MOL0     C 6870   5.694   8.829   9.024 -0.6168 -0.6375 -0.0244
  775MOL0     O 6871   5.561   8.786   9.011 -1.1198 -1.0254 -0.0053
  775MOL0     C 6872   5.462   8.872   9.052 -0.6637 -0.1208  0.0556
  775MOL0     C 6873   5.338   8.796   9.018 -0.3837  0.2245 -0.3344
  775MOL0     C 6874   5.332   8.663   9.101  0.3274  0.3192 -0.0069
  775MOL0     C 6875   5.194   8.609   9.093 -0.0046 -0.3693  0.5269
  775MOL0     C 6876   5.190   8.471   9.146  0.1937 -0.5602 -0.3485
  775MOL0     C 6877   5.176   8.359   9.184 -0.0542  0.3059 -0.0728
  775MOL0     C 6878   5.783   8.736   8.963  0.0651 -0.5494 -0.6568
  775MOL0     C 6879   5.919   8.762   8.958 -0.1832  0.1876  0.5448
  775MOL0     C 6880   6.005   8.646   8.893 -0.2832  0.0836  0.3474
  775MOL0     H 6881   6.340   8.870   9.205 -0.7232  0.0469  0.2071
  775MOL0     H 6882   6.554   8.945   9.247 -0.1950  0.3215  0.5105
  775MOL0     H 6883   6.601   9.319   9.322 -0.7000 -1.0915  1.3192
  775MOL0     H 6884   6.747   9.370   9.236 -1.4848  0.3292 -1.3724
  775MOL0     H 6885   6.752   9.159   9.445  0.3273  0.1925 -0.7348
  775MOL0     H 6886   6.893   9.256   9.381  0.0098  1.0254 -1.0685
  775MOL0     H 6887   6.789   9.459   9.486  0.6214  0.4615  0.4546
  775MOL0     H 6888   6.666   9.343   9.549 -0.8133  1.7939 -0.8096
  775MOL0     H 6889   6.894   9.222   9.624 -1.6977 -1.3023 -0.3221
  775MOL0     H 6890   6.947   9.380   9.645 -0.0763  0.0057  0.5916
  775MOL0     H 6891   6.691   9.292   9.792  0.5034 -0.8056  3.5252
  775MOL0     H 6892   6.785   9.439   9.818 -1.1326 -0.5631  0.9156
  775MOL0     H 6893   6.972   9.322   9.922  0.3603 -0.5324 -2.0313
  775MOL0     H 6894   6.828   9.295  10.001  0.3434  1.8868  1.3061
  775MOL0     H 6895   6.952   9.108   9.806  3.9836  0.2208  2.2091
  775MOL0     H 6896   6.789   9.075   9.863 -1.0260  0.9926  1.1406
  775MOL0     H 6897   6.888   9.076  10.102 -0.8736 -0.4922 -0.4897
  775MOL0     H 6898   6.945   8.955   9.993  4.9137 -0.6284 -1.0603
  775MOL0     H 6899   7.179   9.143   9.850  2.2383 -1.6097 -0.2804
  775MOL0     H 6900   7.500   9.198  10.094  1.6595  0.7617 -1.6772
  775MOL0     H 6901   7.445   9.279   9.952 -0.5037  0.8250  0.4389
  775MOL0     H 6902   7.469   9.064   9.825  2.7757 -0.2232 -2.9856
  775MOL0     H 6903   7.614   9.138   9.888 -0.3444  1.3514  1.8622
  775MOL0     H 6904   7.613   8.971  10.077 -1.9080 -2.7250  1.1171
  775MOL0     H 6905   7.476   8.890   9.999  0.4116 -1.9741 -2.0417
  775MOL0     H 6906   7.684   8.780   9.937  2.5189 -0.5983 -2.2544
  775MOL0     H 6907   7.598   8.843   9.796  1.0077 -0.8777 -1.1363
  775MOL0     H 6908   7.785   8.702   9.703  0.3128 -0.3709  1.1207
  775MOL0     H 6909   8.007   8.586   9.479  0.5242  5.0829 -0.3435
  775MOL0     H 6910   7.865   8.552   9.579  0.6241 -1.3987 -1.7390
  775MOL0     H 6911   8.039   8.518   9.637  1.1658  2.1059  1.4625
  775MOL0     H 6912   8.455   9.057   9.484  1.1659 -0.1216  3.8581
  775MOL0     H 6913   8.638   9.046   9.318 -1.4900  2.0428  0.7368
  775MOL0     H 6914   8.948   8.794   9.471 -0.7713  2.5077 -0.1797
  775MOL0     H 6915   8.914   8.656   9.368 -0.3083  0.5422  0.2480
  775MOL0     H 6916   9.034   8.767   9.185  1.0760 -2.3394  1.4603
  775MOL0     H 6917   9.079   8.898   9.303  0.0675 -0.2119  1.4387
  775MOL0     H 6918   9.178   8.620   9.312  0.1658  0.9604 -0.4393
  775MOL0     H 6919   9.178   8.742   9.454 -0.0182  2.1274  0.3019
  775MOL0     H 6920   9.327   8.886   9.331 -1.2527  2.4654 -5.4954
  775MOL0     H 6921   9.306   8.809   9.184  0.9192  0.3640  0.3000
  775MOL0     H 6922   9.430   8.668   9.423 -1.9528  1.5419 -0.1238
  775MOL0     H 6923   9.439   8.609   9.259 -1.8291 -0.6996  0.4431
  775MOL0     H 6924   9.565   8.871   9.364 -1.4056  1.9726 -2.7880
  775MOL0     H 6925   9.567   8.817   9.195  4.3457 -0.7359 -1.0731
  775MOL0     H 6926   9.727   8.637   9.239  0.4360 -1.1836  1.0648
  775MOL0     H 6927   9.710   8.655   9.413  0.9684 -0.5640 -0.5022
  775MOL0     H 6928   9.832   8.883   9.390 -0.2472  0.8875 -0.9108
  775MOL0     H 6929   9.833   8.849   9.218  0.3409  1.5986  0.7323
  775MOL0     H 6930   8.709   8.631   9.453 -0.4298 -1.0554  3.4686
  775MOL0     H 6931   8.505   8.654   9.577 -2.1277 -0.9305 -2.5877
  775MOL0     H 6932   8.176   9.009   9.706 -0.0882 -0.1624  0.3331
  775MOL0     H 6933   7.966   9.088   9.800 -0.7990  0.1942  1.1494
  775MOL0     H 6934   6.474   9.342   9.103  0.4072 -0.1884  1.3354
  775MOL0     H 6935   6.225   9.255   9.050  0.8014  0.8166  0.2117
  775MOL0     H 6936   5.915   9.063   9.119 -1.9205 -0.8741  3.6623
  775MOL0     H 6937   5.683   9.020   9.121  0.2688  1.1534  0.1051
  775MOL0     H 6938   5.476   8.899   9.157  0.1836 -0.5249  0.0495
  775MOL0     H 6939   5.467   8.964   8.992  1.1943 -0.5306 -0.4857
  775MOL0     H 6940   5.334   8.782   8.909  0.3164 -0.9785 -0.2277
  775MOL0     H 6941   5.254   8.858   9.051 -0.4685 -0.9722  1.9140
  775MOL0     H 6942   5.407   8.588   9.073  2.4308  2.4888 -0.4975
  775MOL0     H 6943   5.366   8.682   9.203  0.6793 -0.7196  0.0903
  775MOL0     H 6944   5.175   8.602   8.985  0.8886  0.0643  0.3308
  775MOL0     H 6945   5.117   8.670   9.140 -2.0452 -2.4907  0.1117
  775MOL0     H 6946   5.188   8.263   9.231  2.9500  0.8759  0.5197
  775MOL0     H 6947   5.743   8.647   8.916 -0.7047 -0.0130 -1.0472
  775MOL0     H 6948   5.935   8.568   8.860 -0.0061 -0.1742  0.3664
  775MOL0     H 6949   6.061   8.679   8.805 -1.3038  1.2252  0.0983
  775MOL0     H 6950   6.062   8.612   8.980  0.0034  3.5707  1.6716
  776MOL0     O 6951   6.113   0.673   1.619 -0.2850 -0.0010  0.1878
  776MOL0     C 6952   6.038   0.583   1.578 -0.3181 -0.5597 -0.1122
  776MOL0     O 6953   6.078   0.470   1.510  0.0068  0.3512 -0.5881
  776MOL0     C 6954   6.218   0.460   1.498  0.5680 -0.7928  0.0222
  776MOL0     C 6955   6.288   0.367   1.570  0.5271 -0.6501  0.5966
  776MOL0     C 6956   6.428   0.357   1.555  0.3418 -0.1279  1.1684
  776MOL0     C 6957   6.494   0.448   1.465 -0.0244 -0.3559 -0.0918
  776MOL0     O 6958   6.632   0.444   1.466 -0.2015 -0.0590 -0.4535
  776MOL0     C 6959   6.710   0.561   1.415 -0.7894 -0.9682  0.4825
  776MOL0     C 6960   6.738   0.549   1.259 -0.1207  0.2548  0.0751
  776MOL0     C 6961   6.861   0.445   1.229 -0.3421 -0.2197 -0.2284
  776MOL0     C 6962   6.874   0.414   1.080 -0.0423  0.5694 -0.0205
  776MOL0     C 6963   6.993   0.320   1.048 -0.8505  0.7344 -0.0096
  776MOL0     C 6964   7.006   0.202   1.143  0.0853 -0.2566 -0.6848
  776MOL0     C 6965   7.116   0.101   1.124 -0.4552 -0.3140  0.1306
  776MOL0     C 6966   7.250   0.165   1.175 -0.1271 -0.0258 -0.2025
  776MOL0     N 6967   7.356   0.066   1.151 -0.9764 -0.5309  0.6761
  776MOL0     C 6968   7.423  -0.006   1.248 -0.0152 -0.8963  0.0506
  776MOL0     C 6969   7.507  -0.078   1.177  0.5082 -0.7131  0.3459
  776MOL0     C 6970   7.591  -0.187   1.240 -0.1693 -0.0628 -0.6509
  776MOL0     C 6971   7.711  -0.138   1.333 -0.7744 -0.7202  0.2574
  776MOL0     C 6972   7.785  -0.254   1.398  0.0627 -0.1009 -0.5052
  776MOL0     C 6973   7.866  -0.207   1.521 -0.5599  0.2781  0.5489
  776MOL0     O 6974   7.969  -0.110   1.486 -0.2691  0.0241 -0.3749
  776MOL0     C 6975   8.051  -0.060   1.592  0.2140  0.3272  0.4331
  776MOL0     C 6976   8.022  -0.072   1.728  0.1047 -0.6777 -0.3349
  776MOL0     C 6977   8.111  -0.013   1.830  0.9972  0.5613 -0.5129
  776MOL0     C 6978   8.084  -0.048   1.977 -0.9346 -0.3512 -0.7500
  776MOL0     C 6979   8.230   0.044   1.784  0.1554  0.4018 -0.0389
  776MOL0     C 6980   8.335   0.084   1.883 -0.2887  0.1551  0.0267
  776MOL0     O 6981   8.287   0.136   2.001  0.3460  0.3845 -0.5230
  776MOL0     C 6982   8.383   0.155   2.104 -0.9420  0.7061  0.8780
  776MOL0     C 6983   8.347   0.136   2.240  0.5286  0.0601 -0.3705
  776MOL0     C 6984   8.435   0.167   2.345 -0.5914 -0.0284  0.4086
  776MOL0     C 6985   8.556   0.234   2.324  0.6599 -0.4101  0.2889
  776MOL0     O 6986   8.619   0.280   2.435  0.1130 -0.8721 -0.4715
  776MOL0     C 6987   8.762   0.274   2.421  0.4288 -0.1339 -0.5553
  776MOL0     C 6988   8.838   0.310   2.555  0.5689  0.1108  0.4665
  776MOL0     C 6989   8.979   0.361   2.531 -0.0900 -1.1105 -0.2834
  776MOL0     C 6990   9.041   0.397   2.667  0.1736  0.7033 -0.0155
  776MOL0     C 6991   9.171   0.475   2.662  0.6109 -0.2187 -0.4858
  776MOL0     C 6992   9.290   0.388   2.631  0.8005 -0.2236 -0.1117
  776MOL0     C 6993   9.420   0.474   2.614  0.5143 -0.3872  0.0961
  776MOL0     C 6994   9.547   0.388   2.568 -0.6055  0.6690 -0.3818
  776MOL0    Cl 6995   9.675   0.509   2.526  0.1388  0.1523  0.2622
  776MOL0     C 6996   8.584   0.267   2.191  0.2690  0.2898  0.1379
  776MOL0     C 6997   8.500   0.223   2.086 -0.3984  0.3922 -0.7828
  776MOL0     O 6998   8.455   0.074   1.846  0.4249  0.3392 -0.5006
  776MOL0     C 6999   8.253   0.056   1.646 -0.3566 -0.0315  0.6624
  776MOL0     C 7000   8.165   0.008   1.554  0.2201  0.8572 -0.5607
  776MOL0     N 7001   7.528  -0.034   1.052  1.0733 -0.5771 -0.0524
  776MOL0     N 7002   7.426   0.046   1.032  1.3296 -0.4901 -1.1442
  776MOL0     C 7003   6.414   0.536   1.386  0.7451  0.1044  0.0868
  776MOL0     C 7004   6.278   0.547   1.411  0.3565  0.0867 -0.3609
  776MOL0     C 7005   5.894   0.618   1.573  0.2902 -0.0271  0.3181
  776MOL0     C 7006   5.814   0.548   1.477  0.8232 -0.6753 -0.0431
  776MOL0     C 7007   5.689   0.584   1.443 -0.2175  0.4424  1.0214
  776MOL0     C 7008   5.625   0.678   1.516  0.1936 -0.4742 -0.2456
  776MOL0     O 7009   5.490   0.697   1.511  0.3022 -0.2756 -0.8319
  776MOL0     C 7010   5.421   0.793   1.591 -0.5158  0.0823 -1.0657
  776MOL0     C 7011   5.283   0.792   1.524  0.1177  0.1379  0.4514
  776MOL0     C 7012   5.179   0.883   1.582 -0.3505 -0.3564  0.4601
  776MOL0     C 7013   5.143   0.842   1.724  0.2984  0.2220 -1.1985
  776MOL0     C 7014   5.031   0.925   1.770  0.6653 -0.7707  0.4419
  776MOL0     C 7015   4.946   1.011   1.796 -0.0617  0.1109  0.8206
  776MOL0     C 7016   5.693   0.746   1.621 -0.2977  0.2611 -0.3510
  776MOL0     C 7017   5.824   0.711   1.652  0.5079 -0.9792 -0.2596
  776MOL0     C 7018   5.888   0.800   1.754 -0.8067  0.1417 -0.2585
  776MOL0     H 7019   6.237   0.299   1.637 -1.8509  0.9208  0.4821
  776MOL0     H 7020   6.481   0.280   1.610  1.1002 -1.5871 -1.4369
  776MOL0     H 7021   6.809   0.571   1.460 -0.9033 -1.2937  0.8115
  776MOL0     H 7022   6.659   0.655   1.439 -0.2111 -0.5136 -0.0305
  776MOL0     H 7023   6.650   0.517   1.203 -0.1571 -0.5431  0.5764
  776MOL0     H 7024   6.772   0.645   1.220 -0.4048  1.4453  2.5661
  776MOL0     H 7025   6.950   0.495   1.268 -0.9492  0.6553  0.0679
  776MOL0     H 7026   6.843   0.353   1.285  4.0356 -1.1687 -0.0109
  776MOL0     H 7027   6.784   0.359   1.052 -0.9755  0.2766  3.1451
  776MOL0     H 7028   6.881   0.496   1.009  0.7470  0.4981 -0.0382
  776MOL0     H 7029   7.088   0.374   1.044  0.6252 -1.7126  0.1295
  776MOL0     H 7030   6.982   0.274   0.949 -1.8716 -1.2782  0.9701
  776MOL0     H 7031   7.023   0.246   1.241  0.6471  0.1557 -0.9609
  776MOL0     H 7032   6.908   0.152   1.135  0.7065 -1.5932 -0.1733
  776MOL0     H 7033   7.131   0.059   1.024 -0.5300 -2.5616  1.0146
  776MOL0     H 7034   7.097   0.013   1.186  0.2320 -1.0098 -0.6301
  776MOL0     H 7035   7.268   0.248   1.107 -1.7373 -1.7544 -2.9591
  776MOL0     H 7036   7.251   0.197   1.279 -0.6496 -0.8832  0.0799
  776MOL0     H 7037   7.401  -0.003   1.354  1.4530  2.0254  0.3560
  776MOL0     H 7038   7.637  -0.245   1.160  0.3232  0.2853 -0.6273
  776MOL0     H 7039   7.534  -0.253   1.306  0.1785  1.1936  0.9551
  776MOL0     H 7040   7.773  -0.082   1.263 -1.3716 -0.2992  0.0571
  776MOL0     H 7041   7.679  -0.065   1.408 -1.0876 -0.6308  0.0391
  776MOL0     H 7042   7.714  -0.332   1.429  2.1997 -2.2193 -0.6426
  776MOL0     H 7043   7.858  -0.282   1.322 -0.0616  1.2767 -1.1579
  776MOL0     H 7044   7.805  -0.161   1.599  0.5550  3.0770 -0.1100
  776MOL0     H 7045   7.918  -0.290   1.570 -1.8655 -1.1448 -0.3796
  776MOL0     H 7046   7.937  -0.130   1.762 -0.1804  0.7852  1.6048
  776MOL0     H 7047   8.002  -0.119   1.994 -1.8247  0.0723 -2.9006
  776MOL0     H 7048   8.065   0.049   2.024 -1.3275  0.3943 -2.3619
  776MOL0     H 7049   8.171  -0.103   2.012 -2.0454 -2.0348 -0.5181
  776MOL0     H 7050   8.256   0.082   2.265  0.6143 -0.3510 -0.9169
  776MOL0     H 7051   8.402   0.156   2.448 -1.1002  0.0604  0.2613
  776MOL0     H 7052   8.796   0.173   2.399  0.4480 -0.8260  2.3073
  776MOL0     H 7053   8.794   0.348   2.347  2.3109  3.2058  3.2453
  776MOL0     H 7054   8.771   0.377   2.609 -1.0935 -1.0131 -0.1379
  776MOL0     H 7055   8.842   0.214   2.608  1.2891  0.8726  1.8558
  776MOL0     H 7056   8.976   0.444   2.460 -1.8725 -1.5101 -0.7193
  776MOL0     H 7057   9.056   0.299   2.484  0.3926 -2.6561  2.3491
  776MOL0     H 7058   9.047   0.304   2.726  1.7308  0.5258 -0.4036
  776MOL0     H 7059   8.967   0.463   2.712 -1.5022  0.1146 -1.7912
  776MOL0     H 7060   9.154   0.557   2.592  2.7670  0.1350 -0.6445
  776MOL0     H 7061   9.187   0.525   2.757 -1.4379  1.1994 -0.8029
  776MOL0     H 7062   9.269   0.338   2.536 -1.7237  1.2017 -0.3951
  776MOL0     H 7063   9.295   0.320   2.717 -3.3744 -0.3439  0.2128
  776MOL0     H 7064   9.451   0.536   2.698 -2.9321 -0.6541  1.7472
  776MOL0     H 7065   9.398   0.540   2.530  0.1410  0.4198  0.8191
  776MOL0     H 7066   9.523   0.331   2.478  3.1713 -1.8158 -0.0300
  776MOL0     H 7067   9.586   0.327   2.650  1.4497 -0.7817 -2.3011
  776MOL0     H 7068   8.655   0.344   2.163 -2.4561  2.8057 -0.3215
  776MOL0     H 7069   8.527   0.255   1.986  1.4648  0.6108 -0.2486
  776MOL0     H 7070   8.337   0.117   1.616  0.7400 -0.2128  3.1176
  776MOL0     H 7071   8.185   0.020   1.448  2.0030  0.4561 -0.3167
  776MOL0     H 7072   6.445   0.602   1.306 -1.7680 -0.7419 -1.7064
  776MOL0     H 7073   6.210   0.613   1.358 -0.9218  0.4176  1.6127
  776MOL0     H 7074   5.857   0.466   1.420  0.4932 -1.7428  1.2070
  776MOL0     H 7075   5.623   0.535   1.372 -1.9882  3.5582  0.3143
  776MOL0     H 7076   5.417   0.763   1.696 -0.0623 -0.0158 -1.0713
  776MOL0     H 7077   5.465   0.893   1.584 -2.9532  1.3513  0.2892
  776MOL0     H 7078   5.243   0.690   1.531  0.9950 -0.3246 -0.9326
  776MOL0     H 7079   5.311   0.806   1.420 -0.0670 -2.9162 -0.1100
  776MOL0     H 7080   5.209   0.988   1.581  1.8833 -0.9056  1.8987
  776MOL0     H 7081   5.089   0.862   1.524  0.4008  0.5711 -1.1179
  776MOL0     H 7082   5.232   0.854   1.787  0.4626  0.9260 -1.5595
  776MOL0     H 7083   5.118   0.736   1.732 -0.1895  0.4544  1.7374
  776MOL0     H 7084   4.868   1.082   1.815 -2.3762 -2.0428 -0.0518
  776MOL0     H 7085   5.656   0.823   1.688  1.3652  0.7057  0.0914
  776MOL0     H 7086   5.971   0.743   1.797 -0.5118  1.5862  1.1956
  776MOL0     H 7087   5.943   0.890   1.724 -2.0629  0.4070 -1.9090
  776MOL0     H 7088   5.816   0.830   1.831 -0.0474 -2.0016  1.3707
  777MOL0     O 7089   9.630   6.566   0.596  0.3887 -0.7299 -0.8577
  777MOL0     C 7090   9.629   6.671   0.663  0.4598 -0.1338 -0.2441
  777MOL0     O 7091   9.735   6.723   0.721 -0.0902 -0.0637 -0.0736
  777MOL0     C 7092   9.862   6.729   0.671  0.8964 -0.2940  0.1236
  777MOL0     C 7093   9.902   6.729   0.543 -0.1066  0.1759 -0.2966
  777MOL0     C 7094  10.042   6.716   0.516 -0.3525 -0.4341  0.0954
  777MOL0     C 7095  10.137   6.747   0.607 -0.9208  0.6345 -0.1629
  777MOL0     O 7096  10.265   6.775   0.547 -0.4745 -0.1546  0.0003
  777MOL0     C 7097  10.379   6.814   0.628 -0.1086 -0.0175  0.1709
  777MOL0     C 7098  10.493   6.866   0.536 -0.2907  0.0199  0.8261
  777MOL0     C 7099  10.455   6.994   0.451 -0.5624  0.1641 -0.1728
  777MOL0     C 7100  10.523   7.007   0.316 -0.1282 -0.4943 -0.3589
  777MOL0     C 7101  10.678   7.013   0.325 -0.4313  0.4661  0.3417
  777MOL0     C 7102  10.739   7.135   0.385  0.9640 -0.7243 -0.4394
  777MOL0     C 7103  10.889   7.108   0.394 -0.5673  0.3988  0.6264
  777MOL0     C 7104  10.951   7.236   0.443 -0.0374 -0.7649  0.0473
  777MOL0     N 7105  11.101   7.222   0.456  0.4445 -0.2761 -0.1192
  777MOL0     C 7106  11.190   7.266   0.362  0.1138 -0.5240  0.4777
  777MOL0     C 7107  11.308   7.239   0.417  0.1443 -0.2625 -0.3068
  777MOL0     C 7108  11.445   7.289   0.368 -0.0069 -0.3357 -0.2460
  777MOL0     C 7109  11.538   7.333   0.479 -0.0508 -0.1829  0.3540
  777MOL0     C 7110  11.671   7.390   0.431  0.1931  0.4658  0.6489
  777MOL0     C 7111  11.745   7.310   0.318 -0.1414  0.0662 -0.6663
  777MOL0     O 7112  11.868   7.377   0.293  0.1409  0.2635 -0.5517
  777MOL0     C 7113  11.979   7.335   0.370 -0.4537 -0.5026  0.0286
  777MOL0     C 7114  11.984   7.240   0.474 -0.0071 -0.7096  0.2669
  777MOL0     C 7115  12.103   7.219   0.540  0.0292 -0.0017  0.2810
  777MOL0     C 7116  12.085   7.106   0.639  0.5429 -0.0055 -0.0869
  777MOL0     C 7117  12.227   7.282   0.511 -0.2551  0.2031  0.8740
  777MOL0     C 7118  12.356   7.281   0.586  0.3392  0.6117 -0.0757
  777MOL0     O 7119  12.456   7.351   0.534  0.3342 -0.1158  0.3365
  777MOL0     C 7120  12.575   7.375   0.594  1.3290  0.3007  0.5614
  777MOL0     C 7121  12.581   7.447   0.706  0.1833  1.0806  0.2598
  777MOL0     C 7122  12.703   7.472   0.766 -0.5488  0.4911  1.0602
  777MOL0     C 7123  12.816   7.417   0.698  0.1562 -0.1486 -0.4920
  777MOL0     O 7124  12.942   7.428   0.748 -0.4629 -0.3256  0.5391
  777MOL0     C 7125  12.979   7.486   0.878  0.0910 -0.1856 -0.4197
  777MOL0     C 7126  13.127   7.541   0.892 -1.1287  0.3568 -0.3180
  777MOL0     C 7127  13.160   7.657   0.804  0.2522  0.2525  0.2221
  777MOL0     C 7128  13.298   7.696   0.847 -0.9662  0.6375  0.4680
  777MOL0     C 7129  13.357   7.791   0.748  0.1337 -0.3814 -0.1790
  777MOL0     C 7130  13.507   7.821   0.762 -0.3620  1.5947  0.2143
  777MOL0     C 7131  13.561   7.905   0.646  0.0569  0.4271 -0.3068
  777MOL0     C 7132  13.710   7.913   0.638  0.0637 -0.7346 -0.6525
  777MOL0    Cl 7133  13.789   7.936   0.799 -0.0358  0.0855  0.2464
  777MOL0     C 7134  12.805   7.354   0.574 -0.1260 -0.7249 -0.3580
  777MOL0     C 7135  12.681   7.333   0.533  0.0142  0.3121  1.0371
  777MOL0     O 7136  12.362   7.239   0.697  0.0284 -0.2609 -0.0962
  777MOL0     C 7137  12.213   7.383   0.405  0.4394 -0.3664 -0.6097
  777MOL0     C 7138  12.094   7.409   0.343 -0.5382 -0.1633 -0.4567
  777MOL0     N 7139  11.292   7.149   0.524  0.4965 -0.6257  0.3014
  777MOL0     N 7140  11.169   7.155   0.559 -0.4319  0.8049  0.5434
  777MOL0     C 7141  10.091   6.772   0.733 -0.9322  0.4087 -0.0920
  777MOL0     C 7142   9.959   6.742   0.772 -0.3923 -0.1341  0.3545
  777MOL0     C 7143   9.492   6.708   0.707  0.4262 -0.3291  0.2994
  777MOL0     C 7144   9.386   6.611   0.718  0.2651 -0.0430  1.0750
  777MOL0     C 7145   9.257   6.650   0.744 -0.4989 -0.0784 -0.8915
  777MOL0     C 7146   9.230   6.781   0.784 -0.0254 -0.9810 -0.6243
  777MOL0     O 7147   9.099   6.828   0.818 -0.6289 -1.0726  0.5831
  777MOL0     C 7148   8.991   6.807   0.729  0.5467 -0.5009  0.2568
  777MOL0     C 7149   9.020   6.864   0.589  0.4429  0.4891 -0.0551
  777MOL0     C 7150   9.052   7.017   0.596  0.1054 -0.8808 -0.9373
  777MOL0     C 7151   8.950   7.119   0.651  0.3804  0.6588  0.1810
  777MOL0     C 7152   8.824   7.127   0.571 -0.4704 -0.6336 -0.1130
  777MOL0     C 7153   8.724   7.133   0.504 -0.1223  0.5067  0.7786
  777MOL0     C 7154   9.332   6.876   0.771  0.2471  0.0071 -0.2194
  777MOL0     C 7155   9.467   6.841   0.732  0.4250  0.0513 -0.2514
  777MOL0     C 7156   9.566   6.951   0.720  0.0719 -0.4098  0.0069
  777MOL0     H 7157   9.834   6.712   0.460 -1.0518  0.6617  0.3559
  777MOL0     H 7158  10.073   6.703   0.413  0.6900 -2.5759  0.6177
  777MOL0     H 7159  10.405   6.727   0.690 -0.3704 -0.4740 -0.3533
  777MOL0     H 7160  10.354   6.897   0.694 -2.1405  0.8423 -1.5614
  777MOL0     H 7161  10.571   6.876   0.613 -1.4245 -1.0650  2.1598
  777MOL0     H 7162  10.526   6.790   0.464 -0.4164  0.6264  0.1211
  777MOL0     H 7163  10.346   6.995   0.443 -0.7770 -1.1583  1.7557
  777MOL0     H 7164  10.478   7.079   0.516 -2.1125  0.5035 -0.0284
  777MOL0     H 7165  10.486   6.922   0.257 -0.6869 -0.3918 -0.1672
  777MOL0     H 7166  10.487   7.101   0.274  0.4792 -0.7152 -1.3928
  777MOL0     H 7167  10.712   7.000   0.222  0.4352  1.7014  0.4548
  777MOL0     H 7168  10.705   6.930   0.390 -2.3968 -1.3728 -1.0597
  777MOL0     H 7169  10.715   7.221   0.322  1.3958  0.3666  0.8388
  777MOL0     H 7170  10.687   7.154   0.480 -0.7542 -2.4272 -0.9586
  777MOL0     H 7171  10.924   7.087   0.293 -0.5655 -3.1057  1.2350
  777MOL0     H 7172  10.911   7.029   0.467  3.6289  0.8601  0.0594
  777MOL0     H 7173  10.931   7.313   0.368  2.6422 -1.9315 -2.0295
  777MOL0     H 7174  10.916   7.273   0.540  1.5810 -0.5590  0.5939
  777MOL0     H 7175  11.157   7.325   0.277 -1.3312 -2.7176 -0.5740
  777MOL0     H 7176  11.415   7.368   0.299 -2.9815  1.6471  2.9639
  777MOL0     H 7177  11.483   7.202   0.314 -0.1737 -2.4799  2.8393
  777MOL0     H 7178  11.482   7.397   0.548 -0.3732 -0.7713  0.6438
  777MOL0     H 7179  11.555   7.240   0.532  1.6158 -0.1057  0.0076
  777MOL0     H 7180  11.654   7.481   0.373  1.3492 -0.3762 -1.0874
  777MOL0     H 7181  11.736   7.413   0.516 -3.8736 -0.0722  4.2533
  777MOL0     H 7182  11.756   7.203   0.338  0.4213 -0.1641 -2.0533
  777MOL0     H 7183  11.680   7.313   0.230  0.0975  1.6700 -0.8086
  777MOL0     H 7184  11.893   7.188   0.503 -1.4195  0.4936 -1.7084
  777MOL0     H 7185  12.012   7.116   0.720 -2.1122 -1.2736 -2.1818
  777MOL0     H 7186  12.177   7.071   0.687 -0.3481  0.7374  2.3322
  777MOL0     H 7187  12.052   7.015   0.589  3.1830 -0.6265 -0.8235
  777MOL0     H 7188  12.488   7.480   0.751 -2.0214 -2.0062 -1.6302
  777MOL0     H 7189  12.715   7.530   0.856  0.4082 -1.4405  2.2324
  777MOL0     H 7190  12.922   7.578   0.892  2.3917  1.3870 -0.7131
  777MOL0     H 7191  12.947   7.401   0.939  2.6539 -0.2289  1.0208
  777MOL0     H 7192  13.155   7.558   0.997 -0.2617  0.1240 -0.5074
  777MOL0     H 7193  13.183   7.455   0.856 -0.2794  0.0577  1.5924
  777MOL0     H 7194  13.082   7.733   0.817 -2.1979 -2.3015  1.7213
  777MOL0     H 7195  13.163   7.632   0.698 -2.3238  3.8139 -0.8935
  777MOL0     H 7196  13.366   7.610   0.854  0.2353  1.4871 -0.2945
  777MOL0     H 7197  13.298   7.742   0.947 -1.6495  0.5387  0.5189
  777MOL0     H 7198  13.349   7.738   0.653 -2.1122 -2.3692  1.0080
  777MOL0     H 7199  13.295   7.881   0.755  1.1926  0.4400 -1.1057
  777MOL0     H 7200  13.567   7.730   0.766 -0.7356  1.3955  2.7761
  777MOL0     H 7201  13.526   7.869   0.859 -3.3733  1.4760  0.9575
  777MOL0     H 7202  13.523   8.007   0.659 -3.1072 -0.7761  0.5443
  777MOL0     H 7203  13.528   7.861   0.551  0.9442 -0.5093 -0.1980
  777MOL0     H 7204  13.743   7.991   0.569  1.9431 -1.3758 -0.5489
  777MOL0     H 7205  13.747   7.824   0.587 -1.7398 -1.2417 -1.1506
  777MOL0     H 7206  12.893   7.320   0.521 -1.1432 -1.5219 -1.5778
  777MOL0     H 7207  12.667   7.279   0.439 -4.8857  0.0403  1.6361
  777MOL0     H 7208  12.292   7.455   0.383 -0.6311  0.9002 -0.4536
  777MOL0     H 7209  12.088   7.497   0.280  1.1810  1.9704  2.1461
  777MOL0     H 7210  10.162   6.798   0.811  2.3919  0.1542 -2.8037
  777MOL0     H 7211   9.928   6.760   0.875  0.2506  2.4940  0.1791
  777MOL0     H 7212   9.401   6.509   0.685 -1.1088  0.2460 -0.5941
  777MOL0     H 7213   9.180   6.574   0.750 -2.4302  1.9057  2.1962
  777MOL0     H 7214   8.952   6.705   0.720 -1.2465  0.1952 -0.3795
  777MOL0     H 7215   8.902   6.864   0.759 -0.4442 -1.5314 -0.6324
  777MOL0     H 7216   8.925   6.863   0.534  0.7287  0.9217 -0.5688
  777MOL0     H 7217   9.090   6.800   0.534 -2.9941 -1.0817 -3.0168
  777MOL0     H 7218   9.140   7.028   0.661  1.3844 -0.7691 -2.6052
  777MOL0     H 7219   9.083   7.041   0.494  1.1088 -0.7826 -0.6220
  777MOL0     H 7220   9.007   7.212   0.655  0.4062  0.5796  2.9202
  777MOL0     H 7221   8.935   7.081   0.752  2.1183 -1.8917 -0.4269
  777MOL0     H 7222   8.640   7.123   0.439  0.3358 -1.6795  0.4593
  777MOL0     H 7223   9.306   6.977   0.801  0.9503  0.3078 -0.6151
  777MOL0     H 7224   9.648   6.942   0.792 -0.3023  2.3766  0.8957
  777MOL0     H 7225   9.606   6.950   0.618 -1.2498  1.3873 -0.5802
  777MOL0     H 7226   9.523   7.050   0.736  1.1922 -0.0727  1.0801
  778MOL0     O 7227   4.731   4.860  10.049 -0.0152 -0.4114 -0.2809
  778MOL0     C 7228   4.720   4.983  10.048  0.2923 -0.5093 -0.9102
  778MOL0     O 7229   4.680   5.063   9.941 -0.4623  0.4358  0.1764
  778MOL0     C 7230   4.677   5.006   9.822 -0.2297 -0.2443  0.1134
  778MOL0     C 7231   4.742   5.061   9.720  0.0636  0.8374  0.7044
  778MOL0     C 7232   4.749   5.008   9.589 -0.2391 -0.7361 -0.2961
  778MOL0     C 7233   4.677   4.890   9.560 -0.1807  0.5797 -0.1428
  778MOL0     O 7234   4.680   4.844   9.431  0.4073  0.9385  0.1114
  778MOL0     C 7235   4.562   4.779   9.374  0.3859  0.0802 -0.2101
  778MOL0     C 7236   4.581   4.740   9.226 -0.1635  1.2831 -0.4956
  778MOL0     C 7237   4.645   4.861   9.146 -0.1955  0.2342  0.3602
  778MOL0     C 7238   4.685   4.828   9.000 -0.1276  0.0655 -0.3099
  778MOL0     C 7239   4.761   4.935   8.926  0.2155 -0.4459  0.5163
  778MOL0     C 7240   4.697   5.075   8.930  0.1175  0.7242 -0.3874
  778MOL0     C 7241   4.797   5.171   8.854 -0.0724 -0.6355  0.7034
  778MOL0     C 7242   4.741   5.324   8.854 -0.8935  0.1220 -0.1626
  778MOL0     N 7243   4.824   5.413   8.780 -0.5027  0.5504 -0.3703
  778MOL0     C 7244   4.839   5.409   8.646 -0.4726 -0.2144 -0.5117
  778MOL0     C 7245   4.924   5.511   8.616 -0.9135  0.6833 -0.7696
  778MOL0     C 7246   4.988   5.548   8.485 -0.2736  0.1228 -0.0500
  778MOL0     C 7247   4.979   5.695   8.474  0.0437 -0.4184 -0.4207
  778MOL0     C 7248   5.009   5.748   8.335 -0.8407 -0.2858  0.0856
  778MOL0     C 7249   5.167   5.744   8.300  1.1747 -0.9044 -0.2387
  778MOL0     O 7250   5.188   5.797   8.170  0.5618  0.0273  0.7487
  778MOL0     C 7251   5.315   5.853   8.150 -1.0760 -0.2981 -0.4558
  778MOL0     C 7252   5.432   5.826   8.207  0.6895  0.8161  0.2041
  778MOL0     C 7253   5.557   5.870   8.170  0.1787  0.0981  0.4170
  778MOL0     C 7254   5.672   5.846   8.255 -0.8351 -0.7830 -0.5041
  778MOL0     C 7255   5.556   5.962   8.064 -0.9215 -0.0177 -0.5949
  778MOL0     C 7256   5.681   6.032   8.022 -0.2632  0.7715  0.3230
  778MOL0     O 7257   5.661   6.165   8.000 -0.9447  0.3251  1.1253
  778MOL0     C 7258   5.768   6.237   7.965  0.3765  0.2955 -0.4548
  778MOL0     C 7259   5.814   6.332   8.057  0.0307 -0.8044  0.8192
  778MOL0     C 7260   5.929   6.415   8.027  0.2842  0.3422 -0.6104
  778MOL0     C 7261   5.992   6.406   7.909 -0.2966  0.3967  0.1680
  778MOL0     O 7262   6.105   6.474   7.873 -1.2439  0.2172 -0.2972
  778MOL0     C 7263   6.080   6.611   7.887  0.8226 -0.6470 -0.2414
  778MOL0     C 7264   6.157   6.687   7.785  0.0210 -0.1440 -0.6043
  778MOL0     C 7265   6.153   6.654   7.629 -0.5580 -0.6602 -0.0991
  778MOL0     C 7266   6.243   6.745   7.543  0.0093 -0.4996 -0.0368
  778MOL0     C 7267   6.196   6.736   7.399  0.0693  0.7243  0.0613
  778MOL0     C 7268   6.304   6.790   7.310 -0.7245  0.4582 -0.0601
  778MOL0     C 7269   6.255   6.780   7.165  0.5146 -0.6128  0.5518
  778MOL0     C 7270   6.359   6.792   7.050 -0.4461 -0.3182  0.0373
  778MOL0    Cl 7271   6.425   6.959   7.054  0.0820 -0.1148 -0.1703
  778MOL0     C 7272   5.945   6.308   7.816 -0.6078 -0.5829 -0.9907
  778MOL0     C 7273   5.838   6.221   7.848  0.1302  0.0631  0.6085
  778MOL0     O 7274   5.791   5.975   8.013  0.7402  0.0247  0.0559
  778MOL0     C 7275   5.442   5.993   7.991  0.8612  0.3846  0.1261
  778MOL0     C 7276   5.319   5.936   8.037  0.6133 -0.4433 -0.1611
  778MOL0     N 7277   4.967   5.578   8.735  0.0170  0.6201  0.3891
  778MOL0     N 7278   4.907   5.508   8.835 -0.5781 -0.1809 -0.1475
  778MOL0     C 7279   4.612   4.828   9.656  0.4463  0.7740  0.1516
  778MOL0     C 7280   4.602   4.891   9.783  0.1772  0.6548 -0.9426
  778MOL0     C 7281   4.717   5.047  10.182 -0.7781  0.2954 -0.5616
  778MOL0     C 7282   4.603   5.122  10.206  0.8569  0.6948 -0.5027
  778MOL0     C 7283   4.591   5.181  10.331 -0.1981 -0.1617  0.4725
  778MOL0     C 7284   4.686   5.166  10.433 -0.4416  0.0646 -0.3285
  778MOL0     O 7285   4.652   5.209  10.558 -1.0735 -0.0709 -0.1053
  778MOL0     C 7286   4.754   5.231  10.650  0.7045  0.1614  0.8420
  778MOL0     C 7287   4.769   5.104  10.742 -0.4256  0.9419 -0.5111
  778MOL0     C 7288   4.851   5.138  10.870 -0.3575  0.2235  0.0602
  778MOL0     C 7289   4.919   5.008  10.926  0.4499 -0.2845  0.5053
  778MOL0     C 7290   4.848   4.880  10.927 -0.0584 -0.1492  0.1005
  778MOL0     C 7291   4.797   4.768  10.917 -0.0047 -0.1050  0.5281
  778MOL0     C 7292   4.805   5.098  10.399 -0.0035  0.2495 -0.5523
  778MOL0     C 7293   4.824   5.041  10.271  0.1216  0.1188 -0.7375
  778MOL0     C 7294   4.942   4.961  10.250 -0.3059  0.8325 -0.3612
  778MOL0     H 7295   4.800   5.149   9.745  0.6759 -0.0841  2.7262
  778MOL0     H 7296   4.804   5.060   9.512 -0.8452 -0.2317 -0.4047
  778MOL0     H 7297   4.481   4.850   9.395 -2.6800 -3.8000  2.8155
  778MOL0     H 7298   4.530   4.685   9.420  0.5053 -0.5618 -1.4208
  778MOL0     H 7299   4.654   4.658   9.225  0.0420  1.3538  2.0365
  778MOL0     H 7300   4.488   4.714   9.174  1.4465 -0.7943 -2.5790
  778MOL0     H 7301   4.578   4.947   9.149  2.4293  2.4984 -0.7239
  778MOL0     H 7302   4.744   4.879   9.191  1.3281 -3.3822 -1.1718
  778MOL0     H 7303   4.745   4.738   8.989 -0.5061 -0.4207  1.4079
  778MOL0     H 7304   4.591   4.805   8.949 -0.6476 -0.8891  1.0458
  778MOL0     H 7305   4.764   4.906   8.821  0.7987 -2.8484  1.1549
  778MOL0     H 7306   4.861   4.945   8.968  1.0052 -1.2709 -1.1088
  778MOL0     H 7307   4.602   5.077   8.876  0.2719 -0.1500 -0.6995
  778MOL0     H 7308   4.680   5.113   9.031  0.6783  1.3011 -0.5038
  778MOL0     H 7309   4.800   5.139   8.750  0.7855 -1.9072  1.0963
  778MOL0     H 7310   4.895   5.167   8.902 -0.0291  2.0804  1.0217
  778MOL0     H 7311   4.637   5.325   8.820 -0.6904  2.8279 -0.9081
  778MOL0     H 7312   4.760   5.355   8.957  0.4581 -0.5317 -0.1878
  778MOL0     H 7313   4.811   5.333   8.574 -0.0997 -0.8739  0.0219
  778MOL0     H 7314   4.928   5.505   8.404 -3.2996 -0.4904  2.3419
  778MOL0     H 7315   5.087   5.502   8.477 -0.6223 -0.4043 -1.9208
  778MOL0     H 7316   4.885   5.744   8.503  0.3757  0.7481 -1.2187
  778MOL0     H 7317   5.043   5.757   8.538 -2.2480  1.3741  0.2858
  778MOL0     H 7318   4.957   5.707   8.247  1.2291  0.9492 -1.8168
  778MOL0     H 7319   4.993   5.856   8.344 -0.3114 -0.2655  0.8780
  778MOL0     H 7320   5.229   5.794   8.375 -0.2263  0.0464  0.3373
  778MOL0     H 7321   5.201   5.641   8.308 -0.7585 -1.4837  1.6445
  778MOL0     H 7322   5.436   5.766   8.297  2.9305  1.7351  0.7922
  778MOL0     H 7323   5.742   5.782   8.200 -0.9848 -0.4474 -1.1030
  778MOL0     H 7324   5.637   5.805   8.350  0.8276  0.2852  0.6083
  778MOL0     H 7325   5.726   5.940   8.269 -0.3699 -0.4825 -3.6133
  778MOL0     H 7326   5.768   6.357   8.153 -1.4060  0.2457 -0.0961
  778MOL0     H 7327   5.952   6.483   8.108 -1.5163  1.4592 -0.9691
  778MOL0     H 7328   5.973   6.635   7.888  1.3728  2.4160  2.6562
  778MOL0     H 7329   6.115   6.636   7.987 -0.2297  0.5837 -0.1562
  778MOL0     H 7330   6.135   6.794   7.794  0.4116 -0.1908  1.1043
  778MOL0     H 7331   6.257   6.669   7.824 -0.3292 -1.1583 -0.1601
  778MOL0     H 7332   6.052   6.662   7.588 -0.1350 -0.5955 -1.1551
  778MOL0     H 7333   6.193   6.552   7.616  0.1463 -0.3148 -0.7447
  778MOL0     H 7334   6.349   6.720   7.549  0.5002  1.1466 -1.0796
  778MOL0     H 7335   6.228   6.849   7.575 -1.8500  0.0556 -2.4103
  778MOL0     H 7336   6.166   6.634   7.373 -2.0059  1.4644 -0.6331
  778MOL0     H 7337   6.102   6.791   7.383 -0.0457 -0.4209 -4.7158
  778MOL0     H 7338   6.396   6.731   7.320 -0.8546 -0.5393 -3.4524
  778MOL0     H 7339   6.324   6.894   7.337 -1.9940  0.6886  0.0599
  778MOL0     H 7340   6.173   6.852   7.151  1.7232  1.5190  3.3228
  778MOL0     H 7341   6.221   6.677   7.155  1.2557 -0.7362 -0.8848
  778MOL0     H 7342   6.327   6.773   6.947 -1.8006  1.6067  0.0514
  778MOL0     H 7343   6.437   6.718   7.067 -0.0332  0.5400  2.1605
  778MOL0     H 7344   6.006   6.309   7.726 -0.6615 -1.7312 -1.0556
  778MOL0     H 7345   5.789   6.159   7.773 -0.0342  0.6654  0.2072
  778MOL0     H 7346   5.442   6.056   7.902 -0.7476  0.7996  0.3942
  778MOL0     H 7347   5.230   5.952   7.977  1.3322  1.4313 -0.8286
  778MOL0     H 7348   4.576   4.727   9.638 -0.2637  1.4508 -2.9018
  778MOL0     H 7349   4.546   4.839   9.860 -0.7166 -0.1719 -2.1261
  778MOL0     H 7350   4.515   5.131  10.144 -0.4726  0.3376  1.2594
  778MOL0     H 7351   4.502   5.240  10.351  0.1919 -0.2729  2.9587
  778MOL0     H 7352   4.853   5.255  10.609  1.5681 -0.4339  2.4611
  778MOL0     H 7353   4.719   5.315  10.711  1.5180  1.0392  0.1380
  778MOL0     H 7354   4.819   5.022  10.689  0.6014  1.0172  0.3109
  778MOL0     H 7355   4.664   5.085  10.766 -0.2215  1.9442  1.3528
  778MOL0     H 7356   4.932   5.208  10.847  1.4076 -1.1747  1.6708
  778MOL0     H 7357   4.787   5.182  10.947 -0.0701  1.6592 -0.4890
  778MOL0     H 7358   4.938   5.039  11.029  0.3931 -1.6658  0.9536
  778MOL0     H 7359   5.016   5.000  10.877 -0.6906 -0.3847 -1.8930
  778MOL0     H 7360   4.757   4.671  10.896 -1.0301  0.3191  0.4150
  778MOL0     H 7361   4.874   5.088  10.482  0.2440 -3.3889 -1.0213
  778MOL0     H 7362   5.023   4.988  10.318  0.7335 -1.0208 -0.7942
  778MOL0     H 7363   4.920   4.856  10.271  0.4480  1.1860  2.7074
  778MOL0     H 7364   4.974   4.963  10.146  1.9238 -0.9239  0.2058
  779MOL0     O 7365   0.626   0.426   3.139 -0.8994 -0.6464  0.0324
  779MOL0     C 7366   0.636   0.322   3.205 -0.1770 -0.1633 -0.0288
  779MOL0     O 7367   0.750   0.260   3.233 -0.0286  0.3913  0.0150
  779MOL0     C 7368   0.878   0.306   3.198  0.3492  0.9463  0.6674
  779MOL0     C 7369   0.972   0.285   3.297 -0.0648 -0.1894 -0.5876
  779MOL0     C 7370   1.105   0.337   3.280 -0.4811  0.4124 -0.1567
  779MOL0     C 7371   1.145   0.414   3.167  0.5090 -0.5871 -0.4825
  779MOL0     O 7372   1.272   0.462   3.137  0.7440 -0.3306 -0.0327
  779MOL0     C 7373   1.355   0.499   3.248  0.3463  0.1300  0.1108
  779MOL0     C 7374   1.467   0.585   3.214 -0.1624  0.3297  0.0097
  779MOL0     C 7375   1.577   0.593   3.319 -0.2762  0.3397 -0.0440
  779MOL0     C 7376   1.696   0.673   3.271 -0.6523 -0.8684  0.3758
  779MOL0     C 7377   1.811   0.680   3.374  0.3852  0.6788 -0.5376
  779MOL0     C 7378   1.944   0.731   3.306  0.3530  0.1904  0.3402
  779MOL0     C 7379   2.017   0.628   3.220 -0.2188 -0.4106  0.2523
  779MOL0     C 7380   2.049   0.505   3.292 -0.2986 -0.7919 -0.7581
  779MOL0     N 7381   2.170   0.431   3.252  0.3647  0.5092 -0.1376
  779MOL0     C 7382   2.179   0.334   3.153 -0.0939  0.0828 -0.1781
  779MOL0     C 7383   2.312   0.307   3.136 -0.0047 -0.1773  0.5480
  779MOL0     C 7384   2.368   0.208   3.047  0.4935  0.3992  0.0599
  779MOL0     C 7385   2.452   0.099   3.122 -0.2482  0.6187 -0.2639
  779MOL0     C 7386   2.364  -0.011   3.174  0.0799 -0.2410 -0.3771
  779MOL0     C 7387   2.448  -0.127   3.228  0.1210  0.5657  0.1551
  779MOL0     O 7388   2.536  -0.099   3.343  0.9586  0.0481  0.2491
  779MOL0     C 7389   2.606  -0.199   3.404 -0.2867  0.0164 -0.2319
  779MOL0     C 7390   2.625  -0.329   3.341 -0.4096 -0.2002 -0.1298
  779MOL0     C 7391   2.702  -0.425   3.408  0.6505 -0.3956 -0.9233
  779MOL0     C 7392   2.753  -0.541   3.325  0.0837 -0.4377  0.9280
  779MOL0     C 7393   2.746  -0.403   3.548  0.0012 -0.0550  0.7581
  779MOL0     C 7394   2.850  -0.485   3.613  1.2188  0.1220  0.6413
  779MOL0     O 7395   2.865  -0.615   3.579  0.9377 -0.6531 -0.3510
  779MOL0     C 7396   2.980  -0.682   3.581 -0.6447  0.1026 -0.0847
  779MOL0     C 7397   2.978  -0.826   3.572 -0.2300  0.7958 -0.8749
  779MOL0     C 7398   3.095  -0.909   3.581 -0.2121  0.7057  0.6511
  779MOL0     C 7399   3.214  -0.837   3.595 -0.3532 -0.8180 -0.1110
  779MOL0     O 7400   3.337  -0.884   3.583  0.4276  0.9053  1.0213
  779MOL0     C 7401   3.358  -1.016   3.518  0.2456 -0.2307 -0.5048
  779MOL0     C 7402   3.506  -1.045   3.490  0.0826 -0.8058 -0.2038
  779MOL0     C 7403   3.528  -1.176   3.408  0.4578 -0.0857  0.0959
  779MOL0     C 7404   3.510  -1.155   3.256 -0.6175  0.3334  0.1769
  779MOL0     C 7405   3.546  -1.292   3.174  0.2552 -1.3973 -0.1956
  779MOL0     C 7406   3.702  -1.306   3.172 -0.6065  0.0141 -0.1082
  779MOL0     C 7407   3.754  -1.390   3.052  0.0816 -0.3307 -0.2794
  779MOL0     C 7408   3.686  -1.532   3.055  0.3278  0.2578 -0.7171
  779MOL0    Cl 7409   3.712  -1.616   3.214  0.0044 -0.3581  0.3243
  779MOL0     C 7410   3.215  -0.704   3.581  0.3407 -0.3706  0.2797
  779MOL0     C 7411   3.101  -0.628   3.577 -0.6573 -0.2009 -0.1848
  779MOL0     O 7412   2.912  -0.436   3.706  0.1984 -0.2662 -0.6304
  779MOL0     C 7413   2.726  -0.276   3.607 -0.2348  0.8956  1.4739
  779MOL0     C 7414   2.658  -0.174   3.535 -0.4296  0.3874  0.4593
  779MOL0     N 7415   2.371   0.375   3.237 -0.1620  0.2924 -0.3416
  779MOL0     N 7416   2.295   0.448   3.304 -0.4631 -0.2034 -0.4358
  779MOL0     C 7417   1.049   0.413   3.067  0.0891 -0.3642 -0.1323
  779MOL0     C 7418   0.926   0.356   3.078  0.4625  1.5109 -0.1826
  779MOL0     C 7419   0.513   0.254   3.234  0.4909  0.1570  0.7386
  779MOL0     C 7420   0.505   0.114   3.235  0.0603 -0.1218  0.2009
  779MOL0     C 7421   0.390   0.043   3.259  0.3895  0.1339  0.6041
  779MOL0     C 7422   0.272   0.113   3.291 -0.6245 -0.1526  0.6389
  779MOL0     O 7423   0.161   0.030   3.295 -0.8536 -1.3661  0.0515
  779MOL0     C 7424   0.042   0.096   3.340 -0.0978  0.2787 -0.5442
  779MOL0     C 7425  -0.075  -0.006   3.368 -0.2687 -0.1818 -0.0403
  779MOL0     C 7426  -0.129  -0.090   3.251  1.1337  0.2600  0.3196
  779MOL0     C 7427  -0.191  -0.015   3.132 -0.5068 -0.0857  0.0114
  779MOL0     C 7428  -0.206  -0.127   3.035 -0.0248 -1.1071 -0.8831
  779MOL0     C 7429  -0.241  -0.206   2.949  0.3616 -0.5145  0.1220
  779MOL0     C 7430   0.284   0.251   3.300 -0.0899  0.5545 -0.8561
  779MOL0     C 7431   0.407   0.325   3.291  0.4254  0.7927 -0.1871
  779MOL0     C 7432   0.390   0.473   3.325  0.0282  0.6495  0.2884
  779MOL0     H 7433   0.944   0.241   3.392 -0.0917 -1.2997 -1.0871
  779MOL0     H 7434   1.178   0.327   3.360  0.4515  2.0462 -0.7554
  779MOL0     H 7435   1.394   0.417   3.310  0.1960  0.9965  1.3889
  779MOL0     H 7436   1.290   0.557   3.314  1.0124  0.3261  0.6039
  779MOL0     H 7437   1.508   0.548   3.120  0.6550  1.3046 -0.0383
  779MOL0     H 7438   1.436   0.690   3.203  1.4495  0.8170 -0.1210
  779MOL0     H 7439   1.535   0.636   3.411 -2.9532 -2.1234  0.0101
  779MOL0     H 7440   1.603   0.491   3.348 -0.0814  0.5089  0.3925
  779MOL0     H 7441   1.725   0.642   3.170 -0.5160  0.9990 -0.1961
  779MOL0     H 7442   1.668   0.777   3.251 -0.2591 -0.8289  0.0174
  779MOL0     H 7443   1.832   0.583   3.419 -2.3769 -1.6040 -3.7306
  779MOL0     H 7444   1.779   0.744   3.457  0.0088  1.6957 -1.4471
  779MOL0     H 7445   1.934   0.824   3.250  2.4305 -0.0205 -0.4614
  779MOL0     H 7446   2.008   0.770   3.386 -1.9838  0.2403  2.3076
  779MOL0     H 7447   2.104   0.677   3.176 -0.6440  0.4900  0.3860
  779MOL0     H 7448   1.951   0.586   3.144 -2.1989 -0.2905  1.8095
  779MOL0     H 7449   2.053   0.543   3.394 -0.7265  0.9262 -1.3540
  779MOL0     H 7450   1.962   0.439   3.285 -1.4382  0.6809 -0.9864
  779MOL0     H 7451   2.091   0.294   3.103 -1.0573  0.1984  1.3744
  779MOL0     H 7452   2.435   0.264   2.981 -1.1414 -0.0119 -2.0483
  779MOL0     H 7453   2.285   0.170   2.988  1.2979 -0.2114 -0.6925
  779MOL0     H 7454   2.522   0.063   3.045  1.4536 -0.9396  1.9050
  779MOL0     H 7455   2.512   0.145   3.201 -2.1197  3.2255 -0.2471
  779MOL0     H 7456   2.319   0.032   3.264  5.1837 -1.3720  3.2014
  779MOL0     H 7457   2.296  -0.040   3.094  0.4544 -1.5341 -0.2533
  779MOL0     H 7458   2.381  -0.206   3.266 -1.1297  0.5039 -1.9849
  779MOL0     H 7459   2.507  -0.177   3.151  1.1121 -1.0724  1.8864
  779MOL0     H 7460   2.593  -0.338   3.238 -1.9510 -0.1286  0.3036
  779MOL0     H 7461   2.737  -0.525   3.219 -0.7626 -0.1774  1.0936
  779MOL0     H 7462   2.702  -0.635   3.347 -0.5324  0.0034  1.4299
  779MOL0     H 7463   2.861  -0.551   3.339  0.4699  0.3448 -1.2328
  779MOL0     H 7464   2.887  -0.884   3.569  0.1725  0.1553 -1.0035
  779MOL0     H 7465   3.093  -1.018   3.582  1.5451  0.6225 -0.7262
  779MOL0     H 7466   3.325  -1.097   3.582  0.8928 -0.8734 -0.9643
  779MOL0     H 7467   3.291  -1.022   3.432 -1.3219  0.7416  0.5980
  779MOL0     H 7468   3.539  -0.963   3.425 -0.9061 -1.6233 -1.7996
  779MOL0     H 7469   3.568  -1.032   3.579  0.4631  0.2776 -0.6070
  779MOL0     H 7470   3.450  -1.245   3.442 -1.2194  0.7539 -1.8174
  779MOL0     H 7471   3.632  -1.205   3.425  1.4356  3.2746  0.6105
  779MOL0     H 7472   3.557  -1.062   3.224  0.7788  1.5149  4.8353
  779MOL0     H 7473   3.403  -1.147   3.233 -0.4459 -3.5031 -2.9066
  779MOL0     H 7474   3.502  -1.380   3.221 -2.1284  1.2879  3.0765
  779MOL0     H 7475   3.511  -1.273   3.072 -3.1688  0.4133  1.1628
  779MOL0     H 7476   3.733  -1.343   3.270 -2.2927  1.1028  0.8932
  779MOL0     H 7477   3.751  -1.210   3.159  1.5571 -0.8616  1.0523
  779MOL0     H 7478   3.861  -1.405   3.069  0.1793  1.1956  0.6481
  779MOL0     H 7479   3.738  -1.347   2.953 -0.5908  1.6800  0.6426
  779MOL0     H 7480   3.716  -1.605   2.979  0.6970  0.9832 -1.2910
  779MOL0     H 7481   3.580  -1.519   3.031 -0.0266 -1.0077  0.0988
  779MOL0     H 7482   3.310  -0.654   3.568  0.5033 -0.5584  0.7197
  779MOL0     H 7483   3.111  -0.520   3.566 -1.5488  0.3297  3.1189
  779MOL0     H 7484   2.776  -0.246   3.699  1.2981 -0.1619  1.0370
  779MOL0     H 7485   2.627  -0.079   3.577 -0.8970  0.5695 -0.2961
  779MOL0     H 7486   1.079   0.455   2.971  0.0606 -1.6887 -0.7390
  779MOL0     H 7487   0.870   0.361   2.985 -1.1876 -1.4159  0.5371
  779MOL0     H 7488   0.595   0.055   3.217  0.1372  0.1590 -0.3539
  779MOL0     H 7489   0.381  -0.065   3.250 -2.3897  0.4736 -2.5763
  779MOL0     H 7490   0.068   0.142   3.436  3.7408  0.3855 -1.4693
  779MOL0     H 7491   0.008   0.174   3.271  0.9090 -0.8536 -2.3988
  779MOL0     H 7492  -0.155   0.050   3.418  1.1346  0.4800  1.5581
  779MOL0     H 7493  -0.033  -0.078   3.438  0.2452 -0.3475 -0.5168
  779MOL0     H 7494  -0.039  -0.145   3.221  1.4794  0.9193  0.1472
  779MOL0     H 7495  -0.191  -0.176   3.280  0.8781  0.4637  0.3800
  779MOL0     H 7496  -0.118   0.055   3.091 -0.2656 -1.4831 -2.0790
  779MOL0     H 7497  -0.287   0.033   3.153 -0.4934 -0.7664  1.7909
  779MOL0     H 7498  -0.276  -0.286   2.887 -0.7255 -0.2739  0.4174
  779MOL0     H 7499   0.194   0.309   3.319 -0.6718 -0.3041 -0.9499
  779MOL0     H 7500   0.414   0.542   3.244 -0.8420  0.9994  0.3175
  779MOL0     H 7501   0.286   0.503   3.342 -0.3572 -0.2032 -0.4984
  779MOL0     H 7502   0.460   0.494   3.407  1.5648 -0.3232 -0.7340
  780MOL0     O 7503   3.831   1.491   8.604  0.0835 -0.5487 -0.2976
  780MOL0     C 7504   3.846   1.577   8.517  0.2375 -0.2425 -0.4135
  780MOL0     O 7505   3.946   1.671   8.519 -0.7660 -0.0831  0.7599
  780MOL0     C 7506   4.013   1.686   8.640 -0.2099  0.0694  0.0304
  780MOL0     C 7507   4.087   1.586   8.710 -0.7117  0.5749 -0.7828
  780MOL0     C 7508   4.178   1.611   8.814 -0.3897 -0.1683 -0.2444
  780MOL0     C 7509   4.194   1.746   8.856  0.2858  0.2244  0.2191
  780MOL0     O 7510   4.290   1.771   8.947  0.0821 -0.4391 -0.0628
  780MOL0     C 7511   4.397   1.844   8.908 -0.2615  0.4877  0.4473
  780MOL0     C 7512   4.465   1.907   9.032  0.3453 -0.6495  0.4534
  780MOL0     C 7513   4.586   1.989   8.985 -0.2923  0.1977  0.3420
  780MOL0     C 7514   4.697   1.989   9.095  0.0726 -0.5749  0.8399
  780MOL0     C 7515   4.827   2.063   9.055  0.4303  0.4992 -0.2959
  780MOL0     C 7516   4.930   2.070   9.164 -0.1776  0.0132 -0.1246
  780MOL0     C 7517   5.056   2.127   9.095  0.0216  0.1432 -0.1291
  780MOL0     C 7518   5.156   2.166   9.203  0.9128 -0.4828  0.1810
  780MOL0     N 7519   5.288   2.185   9.129 -0.2290 -0.4590 -0.3661
  780MOL0     C 7520   5.361   2.093   9.057 -0.3028  0.5078 -0.4750
  780MOL0     C 7521   5.488   2.144   9.044 -1.0098  0.2110 -0.1712
  780MOL0     C 7522   5.610   2.057   9.005  0.2550  0.8140  0.3144
  780MOL0     C 7523   5.741   2.137   8.991  0.2032  0.0936  0.5858
  780MOL0     C 7524   5.730   2.250   8.901 -0.4617  0.0275  0.5629
  780MOL0     C 7525   5.861   2.328   8.884  0.0744  0.2603 -0.2385
  780MOL0     O 7526   5.832   2.451   8.818 -0.3102 -0.0776 -0.5293
  780MOL0     C 7527   5.929   2.541   8.838 -0.6224 -0.0264 -0.2325
  780MOL0     C 7528   5.943   2.621   8.950 -0.5780 -0.0971  0.4715
  780MOL0     C 7529   6.042   2.722   8.968  0.2424  0.2040 -0.1938
  780MOL0     C 7530   6.036   2.791   9.102  0.3788 -0.0710 -0.0815
  780MOL0     C 7531   6.129   2.749   8.865  0.4270 -0.8800 -0.8575
  780MOL0     C 7532   6.202   2.877   8.847  0.3958  0.4061 -0.9641
  780MOL0     O 7533   6.266   2.893   8.722  0.1396  0.0267 -0.3904
  780MOL0     C 7534   6.282   3.022   8.689  0.3307 -0.6252 -1.0125
  780MOL0     C 7535   6.390   3.100   8.738 -0.0217 -0.2762  0.1345
  780MOL0     C 7536   6.398   3.242   8.723 -0.8662  0.3850  0.4955
  780MOL0     C 7537   6.299   3.297   8.648 -0.2385 -1.3701 -0.4578
  780MOL0     O 7538   6.300   3.432   8.652 -0.0752  0.2574  0.6193
  780MOL0     C 7539   6.331   3.477   8.520  0.6441 -0.4089  0.1464
  780MOL0     C 7540   6.291   3.618   8.486  0.6185 -0.2257  1.0616
  780MOL0     C 7541   6.133   3.656   8.508 -0.0232  0.2673 -0.0737
  780MOL0     C 7542   6.044   3.562   8.437 -0.5769  0.6035 -0.1494
  780MOL0     C 7543   5.901   3.595   8.459  0.2843 -0.2016 -0.4713
  780MOL0     C 7544   5.800   3.486   8.411 -0.8868  0.2542 -0.6882
  780MOL0     C 7545   5.661   3.537   8.443 -0.7426  0.3578 -0.5143
  780MOL0     C 7546   5.613   3.658   8.351 -0.6707  0.8639  0.5956
  780MOL0    Cl 7547   5.656   3.635   8.182  0.7623 -0.0230  0.3182
  780MOL0     C 7548   6.195   3.222   8.588  0.2907 -0.9487  0.0505
  780MOL0     C 7549   6.188   3.082   8.614  0.8075  0.7037  0.0691
  780MOL0     O 7550   6.197   2.966   8.934 -0.1738 -0.2804  0.2224
  780MOL0     C 7551   6.124   2.665   8.744  1.1958 -0.0393 -0.1703
  780MOL0     C 7552   6.029   2.555   8.738 -0.0456 -0.6864 -0.0511
  780MOL0     N 7553   5.487   2.250   9.137  0.4254  0.1302  0.1120
  780MOL0     N 7554   5.367   2.285   9.165  0.2539 -0.2624  0.1012
  780MOL0     C 7555   4.123   1.849   8.791 -0.1614  0.3159  0.1440
  780MOL0     C 7556   4.032   1.816   8.689 -0.8023 -0.1303 -0.7995
  780MOL0     C 7557   3.758   1.582   8.392 -0.3825  1.0609 -0.0976
  780MOL0     C 7558   3.825   1.630   8.275 -0.0543 -0.6693  0.6408
  780MOL0     C 7559   3.747   1.642   8.151 -0.4066 -0.4960  0.6386
  780MOL0     C 7560   3.610   1.624   8.156 -0.9985  0.8381  0.1698
  780MOL0     O 7561   3.544   1.633   8.035 -0.0516  0.0058  0.4293
  780MOL0     C 7562   3.404   1.640   8.042 -0.0694 -0.2916 -0.0367
  780MOL0     C 7563   3.364   1.664   7.888 -0.9088 -0.2814 -0.7573
  780MOL0     C 7564   3.207   1.673   7.880 -0.5860 -0.1746  0.4059
  780MOL0     C 7565   3.162   1.708   7.742 -0.3406 -0.1514 -0.7668
  780MOL0     C 7566   3.023   1.748   7.741  0.3193  0.6025 -0.1133
  780MOL0     C 7567   2.904   1.774   7.734 -0.0721 -0.2015  0.1908
  780MOL0     C 7568   3.553   1.572   8.271 -0.3141  0.0232  0.4207
  780MOL0     C 7569   3.626   1.544   8.383  0.6519 -0.2070  0.0792
  780MOL0     C 7570   3.556   1.495   8.504 -0.4762  0.2815 -0.5824
  780MOL0     H 7571   4.087   1.487   8.665  0.8318  0.2864 -0.2076
  780MOL0     H 7572   4.237   1.532   8.859  0.8430  1.0641  0.3643
  780MOL0     H 7573   4.372   1.919   8.833  2.2066  1.2929  0.3226
  780MOL0     H 7574   4.473   1.777   8.864 -0.6691  0.4915 -0.2796
  780MOL0     H 7575   4.399   1.987   9.068  0.9523 -0.5514  1.3830
  780MOL0     H 7576   4.484   1.840   9.116 -2.0646 -0.5363  1.1435
  780MOL0     H 7577   4.629   1.948   8.893 -1.1430  0.4564 -0.1911
  780MOL0     H 7578   4.550   2.090   8.965 -1.5432 -0.6088 -1.9203
  780MOL0     H 7579   4.666   2.029   9.191  2.0833 -1.0796  1.7590
  780MOL0     H 7580   4.714   1.883   9.117 -0.7448 -0.7411  0.6865
  780MOL0     H 7581   4.811   2.166   9.021  1.1853  0.6175 -0.3018
  780MOL0     H 7582   4.872   2.003   8.975 -2.5488 -2.3559 -0.0357
  780MOL0     H 7583   4.889   2.124   9.250 -2.5683  1.2897 -1.9430
  780MOL0     H 7584   4.951   1.965   9.185  0.1084 -0.1276 -1.0947
  780MOL0     H 7585   5.042   2.219   9.038 -0.7257  0.3144  0.3237
  780MOL0     H 7586   5.095   2.047   9.031  0.9464 -0.5510  1.2290
  780MOL0     H 7587   5.120   2.259   9.248  0.3831  0.0720 -1.3344
  780MOL0     H 7588   5.176   2.084   9.273  1.9834  1.1196  1.8702
  780MOL0     H 7589   5.309   2.000   9.035 -0.4009  0.6640 -0.9255
  780MOL0     H 7590   5.593   2.022   8.902 -1.2037  0.8186  0.5422
  780MOL0     H 7591   5.626   1.976   9.076  1.0806 -0.2603 -1.0428
  780MOL0     H 7592   5.777   2.171   9.089 -2.9991  2.8319  1.0136
  780MOL0     H 7593   5.814   2.070   8.945 -0.2187  2.0139 -3.2663
  780MOL0     H 7594   5.696   2.212   8.805  2.1736 -1.9193  0.2645
  780MOL0     H 7595   5.653   2.319   8.937  0.5380 -0.2419  3.5258
  780MOL0     H 7596   5.901   2.355   8.982 -0.1892  3.7722 -0.9785
  780MOL0     H 7597   5.938   2.272   8.830  2.4714  1.6629  1.5249
  780MOL0     H 7598   5.867   2.595   9.023 -0.7934 -0.0275  0.2713
  780MOL0     H 7599   6.133   2.831   9.133  0.2863  0.8485 -0.9005
  780MOL0     H 7600   6.011   2.725   9.185  1.1849 -0.7742 -0.3848
  780MOL0     H 7601   5.967   2.875   9.091  0.4502  0.3245  2.0822
  780MOL0     H 7602   6.476   3.075   8.798  1.9423  2.6378 -1.2371
  780MOL0     H 7603   6.475   3.304   8.768 -0.3302 -0.5903  0.9518
  780MOL0     H 7604   6.440   3.487   8.513  0.7503  0.1731  1.9961
  780MOL0     H 7605   6.304   3.406   8.441  2.3383 -0.2780 -0.5906
  780MOL0     H 7606   6.348   3.696   8.537 -1.4405  2.7750 -0.9204
  780MOL0     H 7607   6.313   3.647   8.383  2.8090  1.6577  1.9810
  780MOL0     H 7608   6.130   3.760   8.473  1.9426  1.1264  2.0137
  780MOL0     H 7609   6.120   3.658   8.617  3.7837  1.8988  0.5181
  780MOL0     H 7610   6.067   3.464   8.481 -0.0994  0.3145 -1.0242
  780MOL0     H 7611   6.084   3.560   8.335 -0.8558  1.3942 -0.2785
  780MOL0     H 7612   5.885   3.621   8.565  0.7804 -0.8753 -0.2273
  780MOL0     H 7613   5.872   3.681   8.397  0.6828  1.9111  2.0702
  780MOL0     H 7614   5.832   3.393   8.459  0.0717  1.5329  1.2533
  780MOL0     H 7615   5.815   3.477   8.302 -2.9365  0.0268 -0.9814
  780MOL0     H 7616   5.655   3.563   8.549 -4.5059  0.9431 -0.7367
  780MOL0     H 7617   5.595   3.451   8.431  2.2746 -1.8829 -2.6692
  780MOL0     H 7618   5.650   3.753   8.390  0.8127  1.9508 -3.0158
  780MOL0     H 7619   5.504   3.667   8.362 -0.6551  2.0311 -0.0847
  780MOL0     H 7620   6.119   3.265   8.524  2.7540  0.6983 -1.9928
  780MOL0     H 7621   6.106   3.022   8.574 -0.6166  1.3795  1.8520
  780MOL0     H 7622   6.178   2.670   8.650  1.0396 -2.4602 -0.4506
  780MOL0     H 7623   6.016   2.489   8.653 -2.1105 -0.2994 -0.0862
  780MOL0     H 7624   4.146   1.952   8.817  2.7609 -0.3641  0.5923
  780MOL0     H 7625   3.982   1.905   8.652 -0.8142  0.3602  0.3341
  780MOL0     H 7626   3.932   1.650   8.271 -0.2207  0.1186 -0.4588
  780MOL0     H 7627   3.805   1.664   8.062  1.1963 -0.0519  1.7545
  780MOL0     H 7628   3.364   1.544   8.075  1.5489 -1.0498 -0.1736
  780MOL0     H 7629   3.360   1.724   8.096  0.5899  0.0203  0.0248
  780MOL0     H 7630   3.398   1.581   7.825 -1.0645  2.8507 -5.5065
  780MOL0     H 7631   3.416   1.753   7.851 -0.0521 -1.9589 -3.9384
  780MOL0     H 7632   3.156   1.586   7.923 -2.9744  1.0834  0.2245
  780MOL0     H 7633   3.185   1.759   7.943 -0.1682 -0.1382  0.5068
  780MOL0     H 7634   3.171   1.616   7.683  1.4125 -1.1796  0.9799
  780MOL0     H 7635   3.219   1.792   7.700  0.7077 -0.7977 -0.6785
  780MOL0     H 7636   2.798   1.782   7.721  0.0826  0.2728 -0.8941
  780MOL0     H 7637   3.446   1.566   8.285 -0.7311 -0.2028 -2.4280
  780MOL0     H 7638   3.549   1.577   8.576 -0.0432  1.2779 -1.6457
  780MOL0     H 7639   3.449   1.479   8.491 -0.0937 -0.9662 -2.7575
  780MOL0     H 7640   3.602   1.402   8.539  1.6032  1.2236 -0.6231
  781MOL0     O 7641   6.920   1.598   0.433 -0.2761 -0.4731  0.5237
  781MOL0     C 7642   6.850   1.667   0.368 -0.4577 -0.1548 -0.7808
  781MOL0     O 7643   6.889   1.781   0.306 -0.4097  0.0232  0.7820
  781MOL0     C 7644   6.983   1.865   0.356  0.9783  0.1111  1.2164
  781MOL0     C 7645   6.935   1.973   0.424 -0.5805  0.7249  0.1469
  781MOL0     C 7646   7.019   2.053   0.503  0.8773  0.3009  0.2850
  781MOL0     C 7647   7.150   2.018   0.513 -0.2661  0.4709 -0.2539
  781MOL0     O 7648   7.233   2.111   0.575 -0.3188 -1.0603 -0.5450
  781MOL0     C 7649   7.376   2.096   0.589 -0.0967 -0.8385 -0.0032
  781MOL0     C 7650   7.400   2.012   0.709  0.7556  0.5312  0.8060
  781MOL0     C 7651   7.543   1.974   0.736  0.0060  0.3505 -0.2128
  781MOL0     C 7652   7.572   1.859   0.822  1.0804 -0.4665 -0.3653
  781MOL0     C 7653   7.712   1.853   0.886 -0.0533 -0.7709  0.4547
  781MOL0     C 7654   7.838   1.866   0.796  0.6858  0.0678 -0.8643
  781MOL0     C 7655   7.964   1.798   0.863  0.2520  0.8765  0.2704
  781MOL0     C 7656   8.081   1.830   0.776  0.0026  0.2464  0.0662
  781MOL0     N 7657   8.199   1.779   0.845  0.1918 -0.4125  0.0542
  781MOL0     C 7658   8.266   1.657   0.817  0.3520 -0.4152 -0.0886
  781MOL0     C 7659   8.369   1.658   0.903 -0.6486 -0.2141  0.9390
  781MOL0     C 7660   8.484   1.547   0.917  0.8611 -1.5059 -0.5490
  781MOL0     C 7661   8.549   1.585   1.047 -0.3853 -0.2679  0.0481
  781MOL0     C 7662   8.664   1.491   1.059  0.5534  0.1427 -0.2777
  781MOL0     C 7663   8.733   1.536   1.186  0.0549 -0.0078 -0.0279
  781MOL0     O 7664   8.825   1.431   1.214  0.1267  0.2941  0.3593
  781MOL0     C 7665   8.934   1.465   1.293  0.5271 -0.4624  0.1269
  781MOL0     C 7666   8.937   1.544   1.406 -1.4047 -0.6779  0.0584
  781MOL0     C 7667   9.053   1.575   1.484  0.1915  0.0195  0.4792
  781MOL0     C 7668   9.028   1.654   1.609 -0.2925 -0.5835  0.0474
  781MOL0     C 7669   9.179   1.524   1.436  0.1068  0.9069 -0.6478
  781MOL0     C 7670   9.309   1.550   1.504  0.0336  0.4791  0.1086
  781MOL0     O 7671   9.425   1.517   1.434 -0.0598  0.1568  0.3673
  781MOL0     C 7672   9.554   1.552   1.481  0.7986 -0.9771 -0.0391
  781MOL0     C 7673   9.642   1.589   1.373 -0.0017  0.2826 -0.6364
  781MOL0     C 7674   9.770   1.653   1.413  0.3533  0.1023  0.5376
  781MOL0     C 7675   9.817   1.655   1.545  0.5829  0.8041  0.6272
  781MOL0     O 7676   9.941   1.691   1.577  0.0780  0.7592  0.3658
  781MOL0     C 7677  10.042   1.590   1.565  0.4897 -0.1657  0.5004
  781MOL0     C 7678  10.155   1.634   1.468 -0.4437 -0.1017 -0.0550
  781MOL0     C 7679  10.261   1.526   1.466 -1.1384  1.3030 -0.7763
  781MOL0     C 7680  10.369   1.552   1.354 -0.4402 -0.1460 -0.5065
  781MOL0     C 7681  10.479   1.454   1.341  0.0568  0.2456 -0.3761
  781MOL0     C 7682  10.616   1.514   1.297  0.0739 -0.1738 -1.2737
  781MOL0     C 7683  10.603   1.596   1.172  0.2879  0.1321 -0.6048
  781MOL0     C 7684  10.738   1.645   1.122  0.1345  0.0875  0.2343
  781MOL0    Cl 7685  10.841   1.732   1.235 -0.1681 -0.0957 -0.1982
  781MOL0     C 7686   9.725   1.622   1.650 -0.0877 -0.2732 -0.2642
  781MOL0     C 7687   9.593   1.575   1.613 -0.1092 -0.5235  0.0516
  781MOL0     O 7688   9.307   1.570   1.627 -0.0360 -1.2508  0.0543
  781MOL0     C 7689   9.174   1.442   1.320 -0.3516  0.5762 -0.1732
  781MOL0     C 7690   9.057   1.411   1.254 -0.3313  0.4546  0.0223
  781MOL0     N 7691   8.366   1.779   0.972  0.1109  0.3310  0.0404
  781MOL0     N 7692   8.259   1.844   0.944  0.2653 -0.2754 -0.1270
  781MOL0     C 7693   7.202   1.905   0.439  0.7008 -0.8892  0.1868
  781MOL0     C 7694   7.112   1.829   0.361  0.1154  0.1717 -1.4909
  781MOL0     C 7695   6.719   1.615   0.336  1.0781 -0.2382  1.1255
  781MOL0     C 7696   6.653   1.655   0.220 -0.2965 -0.5355  0.8677
  781MOL0     C 7697   6.524   1.610   0.192  0.6398 -0.3462 -0.2213
  781MOL0     C 7698   6.451   1.521   0.277  0.1295 -0.3494 -0.9691
  781MOL0     O 7699   6.316   1.482   0.269  0.3952  0.1550 -0.2843
  781MOL0     C 7700   6.248   1.537   0.155  0.9504 -1.2323 -0.0999
  781MOL0     C 7701   6.106   1.480   0.151  0.6094  0.3022 -0.2762
  781MOL0     C 7702   6.006   1.566   0.075 -0.0977  0.1773 -0.1957
  781MOL0     C 7703   5.883   1.502   0.032  0.3572 -0.1186 -0.5704
  781MOL0     C 7704   5.785   1.497   0.146  0.3569 -0.4400 -0.4533
  781MOL0     C 7705   5.706   1.461   0.230 -0.3909  0.3349  0.2806
  781MOL0     C 7706   6.522   1.483   0.392  0.3440 -1.2936  0.3329
  781MOL0     C 7707   6.651   1.524   0.420 -0.0702 -0.8962  0.4266
  781MOL0     C 7708   6.708   1.453   0.545  0.3111  0.8411  0.5710
  781MOL0     H 7709   6.827   1.981   0.426 -0.7037 -0.6082  2.0427
  781MOL0     H 7710   6.969   2.136   0.550  0.2705 -0.3613  0.8431
  781MOL0     H 7711   7.424   2.193   0.605 -0.4134 -0.8067  0.8236
  781MOL0     H 7712   7.425   2.055   0.501  2.8238  1.5517  0.3642
  781MOL0     H 7713   7.350   2.055   0.797 -2.1724  0.4597 -0.6811
  781MOL0     H 7714   7.352   1.914   0.701  1.0415  0.2037  2.7202
  781MOL0     H 7715   7.591   1.947   0.641  1.1034  0.3542  0.3363
  781MOL0     H 7716   7.608   2.055   0.771  2.2333 -1.2481 -0.4182
  781MOL0     H 7717   7.502   1.857   0.906 -0.6101  1.3292 -1.6628
  781MOL0     H 7718   7.554   1.766   0.768 -0.3189  0.2607 -1.2023
  781MOL0     H 7719   7.722   1.758   0.939 -0.0296  0.7056  3.3029
  781MOL0     H 7720   7.731   1.930   0.961 -1.1144 -0.2254  0.1759
  781MOL0     H 7721   7.826   1.830   0.694  0.9893  0.0730 -0.9027
  781MOL0     H 7722   7.855   1.974   0.792 -0.1033  0.3461  1.4503
  781MOL0     H 7723   7.950   1.690   0.852  2.2604  0.6426 -0.3900
  781MOL0     H 7724   7.980   1.824   0.968 -0.1718 -0.8819  0.8071
  781MOL0     H 7725   8.076   1.781   0.678  3.0114  0.1335 -0.1305
  781MOL0     H 7726   8.082   1.939   0.760 -2.2454  0.2036 -0.6699
  781MOL0     H 7727   8.238   1.592   0.735 -0.9550  0.8148 -0.6438
  781MOL0     H 7728   8.557   1.550   0.836  1.5687 -0.3672  0.1087
  781MOL0     H 7729   8.436   1.449   0.922  2.3649 -2.3764 -2.0040
  781MOL0     H 7730   8.589   1.687   1.041 -2.1552  0.5992  1.8065
  781MOL0     H 7731   8.479   1.589   1.131  0.4243  1.9126  0.6973
  781MOL0     H 7732   8.634   1.386   1.063 -0.7337  0.3742 -2.4166
  781MOL0     H 7733   8.731   1.495   0.973  1.0212  1.3191  0.1177
  781MOL0     H 7734   8.776   1.637   1.183  2.0866 -0.7243  1.9531
  781MOL0     H 7735   8.654   1.537   1.261  1.2486  0.7211  1.2567
  781MOL0     H 7736   8.836   1.582   1.419 -0.8639  0.7471  0.2555
  781MOL0     H 7737   9.097   1.739   1.597  1.6659 -2.2057 -0.6897
  781MOL0     H 7738   9.052   1.587   1.692  0.8123 -0.5126 -0.1922
  781MOL0     H 7739   8.927   1.694   1.622  0.1113 -0.2471  3.0839
  781MOL0     H 7740   9.629   1.571   1.267  1.3131 -2.8850 -0.3705
  781MOL0     H 7741   9.838   1.686   1.336  0.4687 -1.5313 -0.1108
  781MOL0     H 7742  10.081   1.567   1.665 -0.8215 -0.7763  0.8954
  781MOL0     H 7743  10.008   1.491   1.531  1.5376 -1.0521  1.9427
  781MOL0     H 7744  10.107   1.643   1.370  0.0983 -0.8351 -0.3906
  781MOL0     H 7745  10.180   1.735   1.502 -0.0967  1.1760 -3.6933
  781MOL0     H 7746  10.218   1.427   1.449  0.0191  0.8059 -0.9351
  781MOL0     H 7747  10.310   1.517   1.564  0.4849 -3.0079 -1.7462
  781MOL0     H 7748  10.416   1.642   1.396 -0.2540 -0.1784 -0.6425
  781MOL0     H 7749  10.324   1.579   1.259 -3.5239 -0.9698  0.6085
  781MOL0     H 7750  10.504   1.412   1.438  1.4769  0.3304 -0.6740
  781MOL0     H 7751  10.450   1.366   1.282  2.9698 -0.0762 -1.5047
  781MOL0     H 7752  10.681   1.427   1.282  0.0903  0.0116 -2.3576
  781MOL0     H 7753  10.660   1.574   1.378  2.7107 -2.5953 -0.7455
  781MOL0     H 7754  10.540   1.683   1.189  0.3994  0.3196 -1.1209
  781MOL0     H 7755  10.557   1.531   1.097  0.0153  0.2223 -0.5182
  781MOL0     H 7756  10.731   1.701   1.028  2.5448  2.9852  1.6263
  781MOL0     H 7757  10.802   1.560   1.097  1.6865  1.7095 -1.6333
  781MOL0     H 7758   9.759   1.618   1.754  0.5932 -2.4650 -0.5147
  781MOL0     H 7759   9.528   1.542   1.693  0.4047 -1.2805  0.1706
  781MOL0     H 7760   9.270   1.406   1.285  0.0488  1.5331 -0.0674
  781MOL0     H 7761   9.059   1.337   1.174 -3.5555  0.6880 -0.4209
  781MOL0     H 7762   7.307   1.880   0.428  0.8590 -0.2557  0.1790
  781MOL0     H 7763   7.141   1.737   0.310  0.3480 -0.2217 -0.6663
  781MOL0     H 7764   6.690   1.736   0.157  1.5770 -2.0871 -0.1370
  781MOL0     H 7765   6.471   1.659   0.111 -3.0076 -0.6252  1.7994
  781MOL0     H 7766   6.238   1.646   0.148 -1.5156 -1.4786 -1.4434
  781MOL0     H 7767   6.301   1.502   0.066 -0.3879  0.3097 -1.5806
  781MOL0     H 7768   6.064   1.460   0.250  0.4244  3.2536  0.3260
  781MOL0     H 7769   6.113   1.379   0.108 -0.8222 -0.4506  1.1792
  781MOL0     H 7770   5.992   1.655   0.138 -0.3964  0.7569 -1.0615
  781MOL0     H 7771   6.047   1.595  -0.022 -2.8346  1.7375 -0.9726
  781MOL0     H 7772   5.897   1.398   0.003  0.7286  0.4401 -2.5782
  781MOL0     H 7773   5.842   1.549  -0.058 -0.5169 -1.5580 -0.9378
  781MOL0     H 7774   5.651   1.434   0.318 -0.6420  0.5517  0.1933
  781MOL0     H 7775   6.481   1.407   0.457 -0.4503 -1.2164 -0.0611
  781MOL0     H 7776   6.803   1.402   0.523 -1.0189 -1.1981 -0.7351
  781MOL0     H 7777   6.727   1.533   0.617  2.8891  1.3204 -0.5094
  781MOL0     H 7778   6.644   1.381   0.596 -1.0911  0.9063 -1.0213
  782MOL0     O 7779   3.243  11.250   9.513 -0.1213  0.0509 -0.4868
  782MOL0     C 7780   3.128  11.287   9.523 -0.2621 -0.6232 -0.6879
  782MOL0     O 7781   3.094  11.411   9.565 -0.0543 -0.2471 -0.2663
  782MOL0     C 7782   3.178  11.514   9.523 -0.7062  0.7044 -0.5644
  782MOL0     C 7783   3.175  11.619   9.624  0.1056  0.7959 -0.1854
  782MOL0     C 7784   3.242  11.736   9.607 -0.4579  0.1255 -1.0214
  782MOL0     C 7785   3.316  11.764   9.491 -0.6728  0.5200 -0.8166
  782MOL0     O 7786   3.393  11.880   9.491  0.0064  0.2547 -0.5828
  782MOL0     C 7787   3.508  11.886   9.412  0.1995 -0.2708  0.2943
  782MOL0     C 7788   3.624  11.808   9.478 -0.1000  0.2121  0.7473
  782MOL0     C 7789   3.671  11.859   9.621 -0.1733  0.4257  0.5067
  782MOL0     C 7790   3.807  11.779   9.655  0.0686  0.4067 -0.1493
  782MOL0     C 7791   3.844  11.805   9.807 -0.0709 -0.0652 -0.4392
  782MOL0     C 7792   3.965  11.730   9.846  0.1683  0.1760 -0.4061
  782MOL0     C 7793   4.020  11.769   9.990 -0.4110 -0.5057  0.2649
  782MOL0     C 7794   4.165  11.732  10.000  0.3451 -0.6670  0.0807
  782MOL0     N 7795   4.210  11.756  10.140 -0.1883  0.1702 -0.6492
  782MOL0     C 7796   4.254  11.882  10.184  0.2426  0.2855  0.0228
  782MOL0     C 7797   4.324  11.869  10.304 -0.5268  0.1443 -0.3396
  782MOL0     C 7798   4.377  11.985  10.388 -0.1917  0.1778 -0.6035
  782MOL0     C 7799   4.478  12.076  10.309 -0.1940 -0.3446  0.3916
  782MOL0     C 7800   4.590  11.995  10.227 -0.2977 -0.4125 -0.6503
  782MOL0     C 7801   4.642  11.879  10.314  0.0589  0.3272  0.4786
  782MOL0     O 7802   4.669  11.939  10.450  0.3303 -0.1304  0.2368
  782MOL0     C 7803   4.775  12.025  10.464 -0.5113  0.5610 -0.3539
  782MOL0     C 7804   4.811  12.060  10.597  0.3938 -0.9447 -0.6267
  782MOL0     C 7805   4.929  12.137  10.631 -0.5100  0.1972 -0.1732
  782MOL0     C 7806   4.978  12.144  10.780  0.5042  0.5739 -0.5109
  782MOL0     C 7807   5.007  12.195  10.533 -0.1516  0.1012  0.2006
  782MOL0     C 7808   5.134  12.271  10.548 -0.7725  0.1200 -0.4864
  782MOL0     O 7809   5.236  12.255  10.453 -0.1615  0.5964  0.4543
  782MOL0     C 7810   5.351  12.330  10.461  0.1880 -0.0139  0.0498
  782MOL0     C 7811   5.466  12.264  10.491  0.5088  0.4972  0.8805
  782MOL0     C 7812   5.593  12.317  10.473  0.2495 -0.9114 -1.1538
  782MOL0     C 7813   5.599  12.448  10.429 -0.3079  0.1896  0.8854
  782MOL0     O 7814   5.720  12.511  10.422 -0.9783 -0.5086  0.8423
  782MOL0     C 7815   5.814  12.486  10.524 -0.5759  0.0418 -0.9056
  782MOL0     C 7816   5.884  12.609  10.550  0.6427  0.1877 -0.3688
  782MOL0     C 7817   5.978  12.649  10.436  0.2291  0.5504  0.3954
  782MOL0     C 7818   6.051  12.776  10.480  0.6188 -0.3301  0.4137
  782MOL0     C 7819   6.204  12.776  10.437 -0.0952  0.2776 -0.0267
  782MOL0     C 7820   6.272  12.901  10.487 -0.2088  1.0007  0.0307
  782MOL0     C 7821   6.346  12.891  10.617 -0.4485  0.1130 -0.4286
  782MOL0     C 7822   6.398  13.027  10.653  0.4077 -0.2811  0.2441
  782MOL0    Cl 7823   6.470  12.997  10.814  0.2665  0.4691  0.3186
  782MOL0     C 7824   5.491  12.527  10.407  0.7969  0.0918 -0.3406
  782MOL0     C 7825   5.367  12.464  10.422 -0.0452  0.5733 -0.6192
  782MOL0     O 7826   5.147  12.333  10.655  0.7497  0.9242  0.2808
  782MOL0     C 7827   4.975  12.153  10.403  0.3697 -0.2998 -0.1856
  782MOL0     C 7828   4.872  12.063  10.371 -0.7736  0.7478 -0.1485
  782MOL0     N 7829   4.325  11.732  10.332 -0.5953 -0.1508 -0.5223
  782MOL0     N 7830   4.254  11.671  10.237 -0.1401  0.0730  0.4353
  782MOL0     C 7831   3.315  11.655   9.394 -0.4238 -0.8533 -0.7183
  782MOL0     C 7832   3.255  11.532   9.411 -0.5990  0.2911 -0.2516
  782MOL0     C 7833   3.018  11.189   9.543  0.0499 -0.0131  1.1642
  782MOL0     C 7834   2.883  11.241   9.525 -0.4277 -0.9856 -0.3316
  782MOL0     C 7835   2.775  11.143   9.509  0.2355 -1.0119  0.1132
  782MOL0     C 7836   2.799  11.016   9.535  0.3188 -0.1935  0.1879
  782MOL0     O 7837   2.680  10.933   9.516 -0.1100 -0.8007  0.1045
  782MOL0     C 7838   2.667  10.818   9.595 -0.0748  0.0374  0.2277
  782MOL0     C 7839   2.655  10.844   9.747  0.3557  0.4661  0.4228
  782MOL0     C 7840   2.524  10.924   9.769  0.2046 -0.3808  0.5032
  782MOL0     C 7841   2.561  11.028   9.888 -0.5312 -0.1459 -0.2356
  782MOL0     C 7842   2.440  11.089   9.942 -0.3042 -0.1564  0.1388
  782MOL0     C 7843   2.341  11.141  10.000 -0.5005 -0.9923 -0.4113
  782MOL0     C 7844   2.919  10.971   9.574 -0.5710  0.6227  0.7565
  782MOL0     C 7845   3.037  11.052   9.575  0.8439  0.3179  0.1865
  782MOL0     C 7846   3.161  10.978   9.604  0.0975  0.5507 -0.2126
  782MOL0     H 7847   3.114  11.603   9.712  1.0036 -1.4594  0.0848
  782MOL0     H 7848   3.236  11.804   9.691 -1.2053  0.3643 -1.2555
  782MOL0     H 7849   3.540  11.990   9.403 -0.5476 -0.0155  0.5799
  782MOL0     H 7850   3.490  11.853   9.309  1.0309  2.2269 -0.7438
  782MOL0     H 7851   3.588  11.705   9.487 -0.3784  0.2791  0.4035
  782MOL0     H 7852   3.706  11.806   9.405 -2.5628 -0.0069 -2.1944
  782MOL0     H 7853   3.705  11.962   9.612  2.9589 -0.4199  1.3244
  782MOL0     H 7854   3.587  11.848   9.691 -0.2135  1.1400  0.5807
  782MOL0     H 7855   3.803  11.670   9.642  1.7586  0.2501  0.3331
  782MOL0     H 7856   3.893  11.813   9.595  0.1660 -0.5170 -0.5513
  782MOL0     H 7857   3.759  11.778   9.870  1.9439 -1.8753  1.6922
  782MOL0     H 7858   3.874  11.909   9.821 -1.3521  0.3399 -0.5512
  782MOL0     H 7859   3.950  11.622   9.839  0.3231  0.0496  0.9714
  782MOL0     H 7860   4.046  11.763   9.779 -0.4435  0.6645 -0.9188
  782MOL0     H 7861   3.970  11.704  10.062  0.4286 -0.9111  0.4940
  782MOL0     H 7862   4.004  11.875  10.014 -3.9152 -0.7781 -0.3731
  782MOL0     H 7863   4.177  11.624   9.988  2.3713 -0.9066  3.1781
  782MOL0     H 7864   4.239  11.778   9.933 -0.4160 -0.7889 -0.8585
  782MOL0     H 7865   4.242  11.973  10.128  2.8197  0.3932 -0.4753
  782MOL0     H 7866   4.437  11.943  10.469 -0.6581 -1.6851 -1.1639
  782MOL0     H 7867   4.289  12.036  10.426 -0.5205 -1.2675  0.6989
  782MOL0     H 7868   4.435  12.145  10.235 -0.0798  0.8714  1.4152
  782MOL0     H 7869   4.531  12.145  10.375 -1.6254  0.7220  0.4900
  782MOL0     H 7870   4.544  11.958  10.135 -0.5995  0.6658 -0.9424
  782MOL0     H 7871   4.665  12.068  10.195 -0.2384 -0.8600 -1.5556
  782MOL0     H 7872   4.573  11.795  10.312 -0.7037  0.9312  0.7946
  782MOL0     H 7873   4.735  11.845  10.268 -0.5075  0.5428 -0.8638
  782MOL0     H 7874   4.758  12.007  10.675  0.3264 -2.4737 -1.6638
  782MOL0     H 7875   5.073  12.094  10.798  0.1095  0.3567  1.0873
  782MOL0     H 7876   4.908  12.104  10.854 -0.1650  1.2956 -0.7342
  782MOL0     H 7877   4.996  12.249  10.807 -0.9852  1.1783 -1.6925
  782MOL0     H 7878   5.450  12.159  10.515  2.0272  0.3015  1.1547
  782MOL0     H 7879   5.684  12.260  10.485  0.8210 -1.0533 -4.8413
  782MOL0     H 7880   5.770  12.453  10.619  0.1822 -0.9486 -0.8809
  782MOL0     H 7881   5.882  12.405  10.495  0.2008  0.3504 -0.0108
  782MOL0     H 7882   5.821  12.695  10.570  1.8049  0.7462  1.0803
  782MOL0     H 7883   5.949  12.588  10.636  0.8192  2.4603  0.1176
  782MOL0     H 7884   5.933  12.663  10.338  1.0543  0.2627 -0.0371
  782MOL0     H 7885   6.057  12.573  10.437  0.2510  0.5424  2.2224
  782MOL0     H 7886   6.048  12.794  10.588  3.8172 -1.5078  0.8068
  782MOL0     H 7887   6.005  12.862  10.430 -0.4832 -2.1721 -1.9712
  782MOL0     H 7888   6.253  12.688  10.479 -3.3074  0.2080  4.3330
  782MOL0     H 7889   6.215  12.764  10.329 -0.1683  1.4077 -0.1713
  782MOL0     H 7890   6.193  12.977  10.486 -2.0971 -0.9067 -0.4951
  782MOL0     H 7891   6.346  12.926  10.410  0.2966  1.1733  0.5606
  782MOL0     H 7892   6.430  12.821  10.609  0.1298  0.6234  0.7964
  782MOL0     H 7893   6.278  12.847  10.691  0.7952 -1.0670  0.0632
  782MOL0     H 7894   6.315  13.097  10.668 -0.5313 -1.5067  0.9590
  782MOL0     H 7895   6.469  13.068  10.580 -0.5810  1.1449  0.0263
  782MOL0     H 7896   5.494  12.630  10.372  0.1336 -0.0452 -0.8033
  782MOL0     H 7897   5.274  12.514  10.396 -1.0539 -0.8059  0.1701
  782MOL0     H 7898   5.028  12.184  10.314  0.8291 -3.6597 -1.1973
  782MOL0     H 7899   4.870  12.026  10.269  1.1037 -3.9918  1.2746
  782MOL0     H 7900   3.369  11.670   9.301 -0.5372  3.6011 -0.3100
  782MOL0     H 7901   3.263  11.459   9.331  0.6014  0.6274 -0.4655
  782MOL0     H 7902   2.862  11.342   9.491  1.2611 -1.5958 -3.4911
  782MOL0     H 7903   2.682  11.188   9.475 -0.8097 -1.7703  1.8217
  782MOL0     H 7904   2.576  10.769   9.559 -0.6098  1.0911  0.1026
  782MOL0     H 7905   2.745  10.743   9.582  1.0958  1.3669 -0.6619
  782MOL0     H 7906   2.746  10.884   9.793  1.2528 -1.6571  0.5771
  782MOL0     H 7907   2.647  10.743   9.787 -2.4144 -0.7508 -2.7285
  782MOL0     H 7908   2.488  10.966   9.675 -4.5766 -0.3288  2.1020
  782MOL0     H 7909   2.442  10.866   9.812 -2.9639  3.5716  0.3914
  782MOL0     H 7910   2.620  11.110   9.845 -2.9631  1.8755  0.0331
  782MOL0     H 7911   2.625  10.981   9.963 -0.8806  0.5431  0.5062
  782MOL0     H 7912   2.259  11.193  10.046 -1.1871 -0.0093 -2.6525
  782MOL0     H 7913   2.924  10.868   9.610  1.6567 -0.0364 -1.2011
  782MOL0     H 7914   3.149  10.870   9.592  3.3793  0.2425 -1.9338
  782MOL0     H 7915   3.238  10.999   9.529 -1.6211 -4.5491 -4.0366
  782MOL0     H 7916   3.181  10.994   9.710  1.5891 -3.9857  0.4344
  783MOL0     O 7917   8.680   1.758   9.491 -0.1208 -0.7262  0.2705
  783MOL0     C 7918   8.682   1.634   9.458  0.4279 -0.5522 -0.4934
  783MOL0     O 7919   8.625   1.585   9.344  0.4463 -0.1117  0.2682
  783MOL0     C 7920   8.506   1.641   9.297 -0.6165  0.3157 -0.0022
  783MOL0     C 7921   8.423   1.742   9.356  0.1839  1.0859 -0.7422
  783MOL0     C 7922   8.313   1.792   9.292 -0.3831  0.4996  1.0413
  783MOL0     C 7923   8.279   1.750   9.161  0.3741 -0.2519  0.2145
  783MOL0     O 7924   8.174   1.823   9.107 -1.2366 -0.3628  0.1461
  783MOL0     C 7925   8.126   1.781   8.974  0.5011 -0.6605 -1.3297
  783MOL0     C 7926   7.988   1.843   8.954 -0.2730 -0.4383 -1.0446
  783MOL0     C 7927   7.989   1.997   8.985 -0.5455 -0.1680  0.3926
  783MOL0     C 7928   7.845   2.059   8.969 -1.8472 -0.2009  0.9108
  783MOL0     C 7929   7.732   2.007   9.055  0.0052  0.0786 -0.6052
  783MOL0     C 7930   7.772   2.012   9.209  1.1694 -0.6701 -0.5140
  783MOL0     C 7931   7.659   1.984   9.312 -0.2169  0.1969  0.4429
  783MOL0     C 7932   7.582   1.856   9.278 -0.0433  0.0799 -0.8135
  783MOL0     N 7933   7.494   1.827   9.396  0.7359 -0.6700  0.3692
  783MOL0     C 7934   7.361   1.861   9.398 -0.5075  1.0626 -0.0088
  783MOL0     C 7935   7.313   1.811   9.510 -0.0280  0.1850 -0.0605
  783MOL0     C 7936   7.182   1.836   9.570  0.8218  0.3389  0.5483
  783MOL0     C 7937   7.060   1.774   9.497 -0.2289  0.0022  0.2559
  783MOL0     C 7938   7.036   1.620   9.512 -0.3203  0.2583 -1.0029
  783MOL0     C 7939   7.147   1.543   9.438  0.1485 -0.2922 -0.2943
  783MOL0     O 7940   7.163   1.598   9.304 -0.4535  0.1187  0.7040
  783MOL0     C 7941   7.273   1.551   9.240  0.1275  1.0366  0.0986
  783MOL0     C 7942   7.304   1.608   9.120  0.2192 -0.4758  0.6868
  783MOL0     C 7943   7.417   1.561   9.047  0.1599 -0.4142 -0.6365
  783MOL0     C 7944   7.422   1.622   8.915 -1.3187 -0.8973  0.0503
  783MOL0     C 7945   7.508   1.464   9.103  0.8075 -0.7412 -0.4359
  783MOL0     C 7946   7.633   1.408   9.044 -0.2493 -0.4720 -0.3513
  783MOL0     O 7947   7.691   1.311   9.120 -1.1769 -0.2650 -0.1150
  783MOL0     C 7948   7.819   1.265   9.083  0.6057 -0.2309  0.2247
  783MOL0     C 7949   7.832   1.129   9.038 -0.5053  0.4661 -1.2679
  783MOL0     C 7950   7.952   1.074   9.003 -0.3273 -0.2029  0.0828
  783MOL0     C 7951   8.068   1.157   9.008  0.6825  0.3790 -0.4004
  783MOL0     O 7952   8.200   1.107   8.996 -0.0194  0.2562 -0.0330
  783MOL0     C 7953   8.222   0.973   8.964  0.6215 -0.2094  0.2669
  783MOL0     C 7954   8.380   0.941   8.955 -0.0817 -0.3186 -0.0611
  783MOL0     C 7955   8.453   0.938   9.095  0.0714  0.1677  0.8604
  783MOL0     C 7956   8.561   1.053   9.100 -0.4779  1.1266  0.0293
  783MOL0     C 7957   8.672   1.012   9.200 -0.0538 -0.1477  0.1511
  783MOL0     C 7958   8.768   0.914   9.125 -0.6425 -0.1977 -0.2882
  783MOL0     C 7959   8.853   0.828   9.220  0.3793 -0.1758 -0.7785
  783MOL0     C 7960   8.970   0.762   9.147 -0.0420 -0.0304 -0.1410
  783MOL0    Cl 7961   9.032   0.637   9.254  0.1583 -0.1675  0.0001
  783MOL0     C 7962   8.052   1.294   9.041 -0.0764  0.4769 -0.2829
  783MOL0     C 7963   7.932   1.350   9.082  0.0467 -0.1611 -0.3931
  783MOL0     O 7964   7.681   1.462   8.943 -0.2290  0.0705  0.2940
  783MOL0     C 7965   7.470   1.407   9.226  0.1326 -0.7561  0.2490
  783MOL0     C 7966   7.360   1.446   9.296  0.3405  0.0098 -0.3054
  783MOL0     N 7967   7.409   1.730   9.574  0.2116  0.2167  0.6463
  783MOL0     N 7968   7.515   1.742   9.499 -0.3464  0.0627 -0.3406
  783MOL0     C 7969   8.359   1.655   9.088  0.3946 -0.6762 -0.2108
  783MOL0     C 7970   8.466   1.600   9.168 -1.0662 -0.3242 -0.3822
  783MOL0     C 7971   8.757   1.551   9.551 -0.6534  0.0601  0.2931
  783MOL0     C 7972   8.842   1.616   9.650 -0.6161 -0.5555  0.0089
  783MOL0     C 7973   8.928   1.540   9.734  0.5100 -0.1774  0.2196
  783MOL0     C 7974   8.913   1.404   9.742  0.4579 -0.0300  0.3873
  783MOL0     O 7975   8.996   1.322   9.817 -0.6066 -0.5976 -0.6733
  783MOL0     C 7976   9.139   1.347   9.798 -0.9264 -0.8844 -0.2979
  783MOL0     C 7977   9.229   1.226   9.791 -0.3686  0.3041  0.2956
  783MOL0     C 7978   9.371   1.261   9.807 -1.1906 -0.6286  0.2818
  783MOL0     C 7979   9.458   1.143   9.777 -0.3566 -0.5510  0.2118
  783MOL0     C 7980   9.597   1.174   9.825 -0.5651 -0.0036  0.5052
  783MOL0     C 7981   9.705   1.217   9.869 -0.2011 -0.3616  1.4395
  783MOL0     C 7982   8.818   1.339   9.660 -0.5002 -0.1250  0.2336
  783MOL0     C 7983   8.736   1.411   9.565 -1.3570  0.1969  0.6779
  783MOL0     C 7984   8.612   1.346   9.512 -0.6572  0.1826  0.5099
  783MOL0     H 7985   8.437   1.780   9.457  1.8621 -2.4042  0.5117
  783MOL0     H 7986   8.252   1.867   9.342 -1.8307  0.8563 -1.1284
  783MOL0     H 7987   8.115   1.672   8.976  0.8918 -0.7015  1.2002
  783MOL0     H 7988   8.200   1.809   8.898 -1.1128  2.7546 -1.8251
  783MOL0     H 7989   7.942   1.815   8.858 -1.7188  1.3732 -0.9347
  783MOL0     H 7990   7.917   1.796   9.023 -1.3952 -2.4705 -3.3980
  783MOL0     H 7991   8.027   2.006   9.087  1.3064 -1.6067 -0.1150
  783MOL0     H 7992   8.063   2.046   8.921  0.3201 -3.6664 -1.5572
  783MOL0     H 7993   7.863   2.164   8.996 -0.2941 -0.4913  1.1359
  783MOL0     H 7994   7.822   2.052   8.863  1.0182 -0.0888  0.1774
  783MOL0     H 7995   7.689   1.913   9.018 -0.4302 -0.1516  0.4739
  783MOL0     H 7996   7.648   2.075   9.039 -1.4110 -1.7580 -1.3007
  783MOL0     H 7997   7.846   1.936   9.239  1.7941  0.5539  1.2021
  783MOL0     H 7998   7.816   2.110   9.229  3.6039 -1.5488 -1.1975
  783MOL0     H 7999   7.589   2.068   9.320 -0.6579  0.0254 -1.2232
  783MOL0     H 8000   7.698   1.972   9.413 -0.2315  0.1383  0.4417
  783MOL0     H 8001   7.519   1.867   9.189  1.6753  0.8257 -1.9829
  783MOL0     H 8002   7.649   1.774   9.249 -1.7524 -1.6971  0.0089
  783MOL0     H 8003   7.305   1.918   9.325  0.6488  2.3854  0.0911
  783MOL0     H 8004   7.176   1.945   9.567 -2.2391  0.3131  1.8262
  783MOL0     H 8005   7.181   1.809   9.676  0.3880 -0.7866  0.2837
  783MOL0     H 8006   6.976   1.828   9.541  0.0691  1.2367 -0.6031
  783MOL0     H 8007   7.056   1.796   9.389 -1.5886 -1.9272 -0.1208
  783MOL0     H 8008   7.032   1.587   9.616 -1.6349  0.8851 -0.8443
  783MOL0     H 8009   6.936   1.597   9.475 -0.0890 -0.7535 -1.0376
  783MOL0     H 8010   7.234   1.540   9.504  0.3121 -4.1455 -0.4609
  783MOL0     H 8011   7.125   1.437   9.424  1.9869 -0.9928  1.5978
  783MOL0     H 8012   7.235   1.684   9.084 -2.2130 -3.0781 -0.4616
  783MOL0     H 8013   7.470   1.720   8.922  0.7633 -1.6076 -2.4510
  783MOL0     H 8014   7.327   1.638   8.864 -0.7739 -1.1526 -1.0978
  783MOL0     H 8015   7.489   1.564   8.849 -1.9051 -0.5931 -0.8309
  783MOL0     H 8016   7.746   1.063   9.040  1.4751 -2.3514  1.6830
  783MOL0     H 8017   7.965   0.970   8.974 -2.0187 -0.4818  0.2232
  783MOL0     H 8018   8.184   0.904   9.040  0.6130  1.8474  2.2678
  783MOL0     H 8019   8.179   0.936   8.871 -1.2097 -1.4005  1.5187
  783MOL0     H 8020   8.395   0.849   8.897  1.0823 -0.1832 -0.0138
  783MOL0     H 8021   8.422   1.017   8.888  0.5817 -0.8073 -0.2210
  783MOL0     H 8022   8.493   0.837   9.098  1.9875  0.8580  0.0539
  783MOL0     H 8023   8.379   0.948   9.175  0.1150 -0.6667  1.0092
  783MOL0     H 8024   8.507   1.137   9.145 -0.7848  0.0094  1.8733
  783MOL0     H 8025   8.596   1.081   9.000 -2.4907 -1.7668 -1.6587
  783MOL0     H 8026   8.730   1.101   9.225  0.1656 -1.0438  3.2164
  783MOL0     H 8027   8.630   0.972   9.293 -1.0171 -1.3346 -0.7526
  783MOL0     H 8028   8.836   0.976   9.067 -1.4876  0.5929 -0.4616
  783MOL0     H 8029   8.711   0.850   9.057  0.5928  0.0728 -1.6218
  783MOL0     H 8030   8.784   0.756   9.265  0.5511  0.4632  0.5804
  783MOL0     H 8031   8.898   0.888   9.300 -0.2578 -2.4736  1.4734
  783MOL0     H 8032   9.049   0.836   9.132  0.7173  0.0687  3.3287
  783MOL0     H 8033   8.931   0.714   9.057 -2.8642  1.2660  0.2792
  783MOL0     H 8034   8.142   1.355   9.041  1.8295 -2.1198 -1.4597
  783MOL0     H 8035   7.925   1.447   9.131  0.0709  0.2706 -1.2172
  783MOL0     H 8036   7.531   1.333   9.275 -1.9238 -1.0717  2.5565
  783MOL0     H 8037   7.344   1.399   9.392  0.0148  0.9272  0.1007
  783MOL0     H 8038   8.342   1.620   8.987  0.2335 -4.5519  1.0095
  783MOL0     H 8039   8.541   1.536   9.121  1.2558  2.3769 -0.6176
  783MOL0     H 8040   8.868   1.721   9.642  0.1798 -0.8892 -4.1303
  783MOL0     H 8041   9.002   1.584   9.801  0.7418 -0.0120 -0.1403
  783MOL0     H 8042   9.165   1.414   9.715  0.9938  1.3264  1.9184
  783MOL0     H 8043   9.173   1.407   9.883  0.7687  1.4873 -2.4692
  783MOL0     H 8044   9.221   1.186   9.689  0.3016  2.3928 -0.6422
  783MOL0     H 8045   9.195   1.157   9.869 -1.6036  1.4714  0.8307
  783MOL0     H 8046   9.406   1.328   9.728  3.0094 -2.9312 -0.0994
  783MOL0     H 8047   9.391   1.297   9.908  1.6722  0.5260 -0.6091
  783MOL0     H 8048   9.466   1.104   9.675 -2.2513  1.1274 -0.6380
  783MOL0     H 8049   9.414   1.059   9.832 -3.3289  1.4883  1.1513
  783MOL0     H 8050   9.796   1.264   9.901  1.0670 -0.7511 -1.3332
  783MOL0     H 8051   8.819   1.231   9.670  0.1510 -0.0163  1.6816
  783MOL0     H 8052   8.624   1.339   9.403 -0.0487  1.0468  0.5102
  783MOL0     H 8053   8.599   1.247   9.555  2.6442 -0.8809 -0.5948
  783MOL0     H 8054   8.527   1.411   9.534  1.0327  3.2804 -1.3655
  784MOL0     O 8055   0.907   5.346   1.102  0.2175 -0.4803 -0.3403
  784MOL0     C 8056   0.833   5.296   1.009  0.0334 -0.2423 -0.0643
  784MOL0     O 8057   0.863   5.302   0.874 -0.2664 -0.0372 -0.1707
  784MOL0     C 8058   0.984   5.358   0.838  0.6528 -0.1633 -0.4665
  784MOL0     C 8059   1.003   5.501   0.809  0.0863 -0.3350 -0.5304
  784MOL0     C 8060   1.128   5.542   0.755 -0.7411  0.2335  0.9626
  784MOL0     C 8061   1.227   5.457   0.699  0.8117  0.7143 -0.0143
  784MOL0     O 8062   1.337   5.494   0.630 -0.0900  0.2950  0.1396
  784MOL0     C 8063   1.350   5.635   0.587 -0.6126  0.6163 -0.4526
  784MOL0     C 8064   1.490   5.657   0.534 -0.7690 -0.6284 -0.0542
  784MOL0     C 8065   1.611   5.614   0.622 -0.5533 -0.4653 -0.9315
  784MOL0     C 8066   1.720   5.731   0.634 -0.6494 -0.1429 -0.2824
  784MOL0     C 8067   1.809   5.740   0.508 -0.0353  0.2734 -0.1395
  784MOL0     C 8068   1.949   5.815   0.523 -0.1644 -0.2067  0.6613
  784MOL0     C 8069   1.936   5.965   0.492  0.2196  0.4319  0.4235
  784MOL0     C 8070   2.048   6.067   0.527 -0.0125  0.0458  0.4236
  784MOL0     N 8071   2.170   6.033   0.458 -0.4473  0.2506 -0.2465
  784MOL0     C 8072   2.183   6.028   0.322  0.0343  0.0778 -0.0653
  784MOL0     C 8073   2.307   5.977   0.297 -0.5814 -0.8551  0.4904
  784MOL0     C 8074   2.348   5.935   0.159 -1.4749  0.1516  0.1176
  784MOL0     C 8075   2.499   5.915   0.153 -0.2211  0.7859  0.1563
  784MOL0     C 8076   2.532   5.903  -0.000  0.3880  0.3854 -1.1021
  784MOL0     C 8077   2.679   5.868  -0.023 -0.7970  0.7181  0.7030
  784MOL0     O 8078   2.692   5.817  -0.157  0.3457  0.7758 -0.3346
  784MOL0     C 8079   2.799   5.744  -0.197  1.1525 -0.1796  0.1342
  784MOL0     C 8080   2.789   5.668  -0.307 -0.4617  1.2888  0.2119
  784MOL0     C 8081   2.895   5.606  -0.367 -0.0471  0.9328  0.1548
  784MOL0     C 8082   2.868   5.539  -0.501 -0.7881 -0.0281  0.2494
  784MOL0     C 8083   3.022   5.621  -0.314  0.5301  0.2743 -0.6248
  784MOL0     C 8084   3.148   5.571  -0.372 -0.6163  0.8794 -0.1735
  784MOL0     O 8085   3.175   5.597  -0.505  0.4246 -0.2859 -0.2287
  784MOL0     C 8086   3.294   5.564  -0.566  0.6576  0.4018 -0.2491
  784MOL0     C 8087   3.361   5.444  -0.534  0.9046 -0.2946 -0.0308
  784MOL0     C 8088   3.458   5.391  -0.619  0.1118 -0.0936 -0.1848
  784MOL0     C 8089   3.504   5.467  -0.730 -0.2491 -0.5250 -0.1869
  784MOL0     O 8090   3.601   5.421  -0.824  0.8692  0.5538 -0.2629
  784MOL0     C 8091   3.688   5.325  -0.778  0.0739 -0.7958  0.2405
  784MOL0     C 8092   3.821   5.328  -0.840  0.6236  0.6884 -0.6288
  784MOL0     C 8093   3.829   5.292  -0.991  0.8169 -0.4739 -0.4631
  784MOL0     C 8094   3.769   5.150  -1.023  0.5347  0.3118 -1.0875
  784MOL0     C 8095   3.880   5.044  -1.024 -0.7793  0.6366  0.0375
  784MOL0     C 8096   3.958   5.053  -1.158 -0.4250  0.6588 -1.1280
  784MOL0     C 8097   4.091   4.980  -1.158  0.2077 -0.2532 -1.1063
  784MOL0     C 8098   4.140   4.938  -1.299  0.1539  0.6746 -0.1600
  784MOL0    Cl 8099   4.316   4.885  -1.311 -0.2979  0.1359  0.3377
  784MOL0     C 8100   3.461   5.595  -0.752  0.1800 -0.1667 -0.7176
  784MOL0     C 8101   3.353   5.640  -0.672  0.0312  0.3505 -0.5496
  784MOL0     O 8102   3.230   5.523  -0.296  0.3798 -0.3972 -0.5865
  784MOL0     C 8103   3.032   5.685  -0.191  0.3516 -0.2753 -0.7510
  784MOL0     C 8104   2.924   5.753  -0.141 -0.7695 -0.3638 -0.6142
  784MOL0     N 8105   2.372   5.963   0.422  1.2487  0.5079 -0.2520
  784MOL0     N 8106   2.282   5.994   0.516 -0.8845 -0.9931  0.3921
  784MOL0     C 8107   1.215   5.324   0.745 -0.5814 -0.1778  0.1927
  784MOL0     C 8108   1.095   5.273   0.808 -0.1170  0.3562 -0.0788
  784MOL0     C 8109   0.703   5.240   1.053  0.3970  0.1712 -0.2499
  784MOL0     C 8110   0.584   5.298   0.987 -0.8445 -0.6725  0.0353
  784MOL0     C 8111   0.455   5.264   1.016 -0.3696 -0.0259  0.0259
  784MOL0     C 8112   0.433   5.167   1.111 -0.0773 -0.2948  0.4377
  784MOL0     O 8113   0.303   5.114   1.119  0.7481 -0.1674 -0.0959
  784MOL0     C 8114   0.294   4.967   1.119 -0.6506 -0.8346  0.3214
  784MOL0     C 8115   0.167   4.920   1.039 -0.2570  0.2852 -0.1828
  784MOL0     C 8116   0.036   4.951   1.119  0.1599  0.0410  0.4012
  784MOL0     C 8117  -0.093   4.908   1.039 -0.2443  0.7311 -0.0584
  784MOL0     C 8118  -0.128   5.024   0.956 -0.7048  0.2697  0.5910
  784MOL0     C 8119  -0.156   5.121   0.889  1.1761 -0.3127  0.9203
  784MOL0     C 8120   0.544   5.123   1.178  0.1750 -0.0951 -0.2282
  784MOL0     C 8121   0.678   5.148   1.155  0.4622 -0.8277 -0.3997
  784MOL0     C 8122   0.786   5.097   1.247 -0.4824 -0.5192 -0.5704
  784MOL0     H 8123   0.929   5.580   0.811 -2.1171 -2.3102  0.9446
  784MOL0     H 8124   1.132   5.644   0.719 -2.8156  0.3763  0.9809
  784MOL0     H 8125   1.325   5.709   0.664  0.6241  0.5636  0.0160
  784MOL0     H 8126   1.277   5.661   0.510 -2.5782  0.6762  1.3260
  784MOL0     H 8127   1.497   5.609   0.436 -0.2669  0.5913 -0.6365
  784MOL0     H 8128   1.491   5.765   0.521  5.2737 -0.3515 -0.0186
  784MOL0     H 8129   1.565   5.593   0.719 -3.4368  1.8739 -1.6277
  784MOL0     H 8130   1.649   5.520   0.582 -0.8489 -0.9085 -0.1912
  784MOL0     H 8131   1.667   5.825   0.650  0.7792  0.6475 -0.0304
  784MOL0     H 8132   1.783   5.711   0.721 -1.2739  0.8036  0.4066
  784MOL0     H 8133   1.748   5.783   0.429  1.1482  1.9962 -0.1720
  784MOL0     H 8134   1.847   5.639   0.488  0.7864  0.6378 -0.4754
  784MOL0     H 8135   1.991   5.811   0.624  1.9461 -0.4037 -0.1703
  784MOL0     H 8136   2.021   5.766   0.457 -2.1824 -3.5233  0.7262
  784MOL0     H 8137   1.850   6.003   0.547 -0.6913 -0.1673 -0.5492
  784MOL0     H 8138   1.916   5.976   0.385  0.3189 -0.8900  0.2483
  784MOL0     H 8139   2.008   6.159   0.483 -0.7838 -0.8468 -0.8183
  784MOL0     H 8140   2.052   6.070   0.636 -0.6244 -0.6723  0.4735
  784MOL0     H 8141   2.110   6.068   0.251 -0.3398  0.9545  0.7970
  784MOL0     H 8142   2.329   6.005   0.077  0.2618  0.3285 -0.1889
  784MOL0     H 8143   2.296   5.841   0.138  2.3180 -2.4903  1.3728
  784MOL0     H 8144   2.544   6.006   0.195  0.5927  0.7013 -0.4941
  784MOL0     H 8145   2.534   5.827   0.207  0.7353  0.4041 -1.0370
  784MOL0     H 8146   2.465   5.831  -0.047  0.0781 -2.4055  3.0984
  784MOL0     H 8147   2.513   6.000  -0.049  1.1374 -0.0335 -2.2571
  784MOL0     H 8148   2.742   5.956  -0.012  1.8061 -0.7403 -1.2432
  784MOL0     H 8149   2.711   5.785   0.041 -1.9252 -1.0529 -0.8967
  784MOL0     H 8150   2.691   5.664  -0.353 -0.0245  1.3022 -0.7501
  784MOL0     H 8151   2.937   5.587  -0.570 -1.5070  1.1775  0.3381
  784MOL0     H 8152   2.768   5.553  -0.542 -0.4720 -0.8215 -0.8406
  784MOL0     H 8153   2.896   5.433  -0.491  1.2498  0.5792  1.4470
  784MOL0     H 8154   3.320   5.387  -0.451 -1.6283  2.4773  0.7953
  784MOL0     H 8155   3.504   5.294  -0.603  0.7817  0.1691 -0.4926
  784MOL0     H 8156   3.715   5.352  -0.675  2.2814 -3.2022  0.3883
  784MOL0     H 8157   3.643   5.226  -0.763  0.7389 -1.1421  0.0189
  784MOL0     H 8158   3.866   5.428  -0.827 -0.4872  1.5318 -2.7615
  784MOL0     H 8159   3.880   5.260  -0.778  0.0132  0.4253 -0.3314
  784MOL0     H 8160   3.936   5.296  -1.012  1.0000 -0.1974  0.4689
  784MOL0     H 8161   3.787   5.379  -1.041  2.1159  0.4937  0.0696
  784MOL0     H 8162   3.711   5.144  -1.115 -1.0994  0.9066 -0.1494
  784MOL0     H 8163   3.696   5.131  -0.943  1.1173 -0.4918 -0.7293
  784MOL0     H 8164   3.951   5.048  -0.941  0.0077 -0.6778 -0.5357
  784MOL0     H 8165   3.828   4.947  -1.023  1.1131 -0.4595  2.5241
  784MOL0     H 8166   3.982   5.157  -1.182  1.0889  0.9014  1.0984
  784MOL0     H 8167   3.896   5.014  -1.239 -0.4457 -2.3309  0.2035
  784MOL0     H 8168   4.082   4.893  -1.092  3.4523  0.8533  1.0048
  784MOL0     H 8169   4.169   5.047  -1.122  0.9183 -0.8554 -1.4913
  784MOL0     H 8170   4.134   5.028  -1.361  0.7218  2.2307  1.9451
  784MOL0     H 8171   4.070   4.867  -1.343  1.0487  0.6474 -1.6227
  784MOL0     H 8172   3.501   5.661  -0.828 -2.2570  2.7630  0.3598
  784MOL0     H 8173   3.298   5.733  -0.688 -0.1223  0.3018 -0.3149
  784MOL0     H 8174   3.135   5.693  -0.159  0.2981 -2.1805 -0.0067
  784MOL0     H 8175   2.941   5.809  -0.050 -3.6804  0.0117 -0.2252
  784MOL0     H 8176   1.304   5.262   0.734 -0.2150  0.1964  0.9764
  784MOL0     H 8177   1.080   5.169   0.832  0.6612 -0.0408 -1.2018
  784MOL0     H 8178   0.594   5.387   0.926  0.0330 -0.1058  0.9689
  784MOL0     H 8179   0.366   5.315   0.979  0.0645 -0.3256 -1.5358
  784MOL0     H 8180   0.380   4.928   1.065  1.1970  0.6044  2.0400
  784MOL0     H 8181   0.305   4.928   1.221  0.9978  1.4529  1.1088
  784MOL0     H 8182   0.169   4.812   1.020 -0.7184  0.7939 -4.0657
  784MOL0     H 8183   0.160   4.972   0.943  0.2924  3.7656  1.4898
  784MOL0     H 8184   0.051   4.896   1.213  1.2789  0.0475  0.2455
  784MOL0     H 8185   0.021   5.058   1.131 -3.1746 -0.2012 -0.7944
  784MOL0     H 8186  -0.172   4.882   1.110  0.4743  0.3676  0.6442
  784MOL0     H 8187  -0.077   4.822   0.974 -1.3790 -0.3176  0.9935
  784MOL0     H 8188  -0.166   5.203   0.820 -0.5266 -1.9856 -0.9564
  784MOL0     H 8189   0.530   5.056   1.262  0.3886  1.1671  0.8615
  784MOL0     H 8190   0.781   5.163   1.334 -0.1288  1.2410 -1.8298
  784MOL0     H 8191   0.775   4.993   1.277  1.0508 -0.0614  1.8790
  784MOL0     H 8192   0.880   5.104   1.192 -0.2123  2.4448  0.0840
  785MOL0     O 8193   5.434  10.958   6.018 -0.5916  0.4219 -1.0933
  785MOL0     C 8194   5.333  10.919   5.950 -0.1502 -0.2666 -0.2421
  785MOL0     O 8195   5.332  10.909   5.818  0.0471 -0.0146 -0.2784
  785MOL0     C 8196   5.434  10.954   5.739  0.5078  0.2010 -0.3088
  785MOL0     C 8197   5.482  11.089   5.739 -0.3369  0.4266 -0.1986
  785MOL0     C 8198   5.593  11.119   5.655 -0.0391  0.4044 -0.6190
  785MOL0     C 8199   5.662  11.020   5.578  0.7770 -0.3123 -0.5342
  785MOL0     O 8200   5.771  11.060   5.503  0.5468 -0.2695  0.2924
  785MOL0     C 8201   5.817  10.961   5.414 -0.2016 -0.6142  0.4444
  785MOL0     C 8202   5.952  11.003   5.347  0.1804  0.0516 -0.2910
  785MOL0     C 8203   6.065  11.016   5.443  0.0296 -0.2191  0.5664
  785MOL0     C 8204   6.181  11.084   5.380 -0.8471  0.1708 -0.8872
  785MOL0     C 8205   6.289  11.142   5.477  0.3560 -0.5213 -0.2513
  785MOL0     C 8206   6.430  11.131   5.399 -0.5042 -0.0067 -0.0331
  785MOL0     C 8207   6.542  11.205   5.482 -0.2105 -0.0367  0.0895
  785MOL0     C 8208   6.671  11.225   5.401 -0.1694 -0.0181 -0.3670
  785MOL0     N 8209   6.733  11.344   5.460 -0.6100 -0.1594  0.3802
  785MOL0     C 8210   6.721  11.473   5.414  0.1209  0.0968  0.3770
  785MOL0     C 8211   6.828  11.542   5.453  0.3648 -0.3927  0.5513
  785MOL0     C 8212   6.879  11.671   5.414 -0.7456 -0.6368 -0.3885
  785MOL0     C 8213   6.921  11.759   5.540 -0.3276  0.0456  1.0432
  785MOL0     C 8214   6.961  11.900   5.486 -0.3401 -0.1027  0.5134
  785MOL0     C 8215   7.062  11.969   5.578  0.7230 -0.6324  0.5046
  785MOL0     O 8216   7.019  12.005   5.708  0.2730 -0.5707  0.9603
  785MOL0     C 8217   7.120  11.985   5.798 -0.3755  0.0393 -0.7918
  785MOL0     C 8218   7.154  11.862   5.853 -0.1463  0.6543 -0.4524
  785MOL0     C 8219   7.272  11.846   5.922  0.6336  0.3343  0.4414
  785MOL0     C 8220   7.305  11.711   5.979  0.2332 -0.3589 -0.1509
  785MOL0     C 8221   7.351  11.960   5.950 -0.4253  0.3486  0.3305
  785MOL0     C 8222   7.478  11.953   6.027 -0.2459 -0.3244 -0.5928
  785MOL0     O 8223   7.578  12.040   5.985  0.1227 -0.2153  0.4323
  785MOL0     C 8224   7.694  12.041   6.060 -0.7173  0.5070  0.0508
  785MOL0     C 8225   7.743  12.167   6.102  0.0043  0.4154  0.0939
  785MOL0     C 8226   7.862  12.178   6.166 -0.3974  0.0210 -0.9762
  785MOL0     C 8227   7.942  12.065   6.200  0.8059  0.6264  0.8025
  785MOL0     O 8228   8.058  12.064   6.275  0.2250 -0.0164  0.3919
  785MOL0     C 8229   8.162  11.979   6.220  0.7112 -0.2571 -0.7107
  785MOL0     C 8230   8.287  11.993   6.316  0.2437  0.0252 -0.3256
  785MOL0     C 8231   8.272  11.909   6.446 -0.0580  0.8125  0.0210
  785MOL0     C 8232   8.387  11.909   6.544  0.1964 -0.3152 -0.0503
  785MOL0     C 8233   8.518  11.836   6.487  0.2365  0.7099  0.9178
  785MOL0     C 8234   8.625  11.836   6.605 -1.2977 -1.2616 -0.7993
  785MOL0     C 8235   8.699  11.977   6.608 -0.2288 -0.1321  0.1803
  785MOL0     C 8236   8.754  12.006   6.748 -0.0298  1.4382 -0.2355
  785MOL0    Cl 8237   8.883  11.894   6.780 -0.0603  0.2819  0.0950
  785MOL0     C 8238   7.890  11.939   6.156 -0.1248  0.2199 -0.7014
  785MOL0     C 8239   7.767  11.929   6.089 -0.5768  0.4500 -0.6253
  785MOL0     O 8240   7.479  11.892   6.131 -0.7782 -0.6922 -0.7974
  785MOL0     C 8241   7.308  12.085   5.912 -0.5385 -0.3033  0.2542
  785MOL0     C 8242   7.192  12.101   5.831 -1.5044  0.3763 -0.4202
  785MOL0     N 8243   6.904  11.456   5.529 -0.3368  0.3297 -0.2612
  785MOL0     N 8244   6.851  11.341   5.532  0.1768 -0.1932  0.2143
  785MOL0     C 8245   5.604  10.886   5.580 -0.1798 -0.4163 -0.0991
  785MOL0     C 8246   5.497  10.852   5.666 -0.6683 -0.3588  0.9020
  785MOL0     C 8247   5.201  10.892   6.022  0.0193  0.2348  0.7229
  785MOL0     C 8248   5.206  10.830   6.140  0.3407  0.9655 -0.6333
  785MOL0     C 8249   5.091  10.829   6.218  0.1983  0.4064  0.0408
  785MOL0     C 8250   4.969  10.863   6.161  0.2518  0.8495  0.2072
  785MOL0     O 8251   4.851  10.859   6.231  0.0541 -0.1152  0.1368
  785MOL0     C 8252   4.783  10.737   6.210  1.7064  0.3120 -0.1203
  785MOL0     C 8253   4.656  10.729   6.299  0.2824  0.1869  0.2363
  785MOL0     C 8254   4.694  10.701   6.451 -0.5551 -0.9533 -0.2128
  785MOL0     C 8255   4.561  10.683   6.529 -0.1237 -0.7054  0.4169
  785MOL0     C 8256   4.576  10.705   6.676 -0.3667 -0.8715  0.5496
  785MOL0     C 8257   4.590  10.725   6.798 -0.7549 -0.1323  1.0738
  785MOL0     C 8258   4.973  10.922   6.040  0.6847 -0.4472 -0.3882
  785MOL0     C 8259   5.085  10.941   5.962  0.4903  0.2672  0.5704
  785MOL0     C 8260   5.068  10.989   5.815 -0.4859 -0.6349 -0.5095
  785MOL0     H 8261   5.434  11.165   5.800 -2.2971  0.9238 -2.2023
  785MOL0     H 8262   5.623  11.222   5.644 -1.9492  0.9453 -1.1833
  785MOL0     H 8263   5.747  10.935   5.335  0.1495 -2.0575  0.5863
  785MOL0     H 8264   5.842  10.875   5.477 -0.8016  0.8410  2.8135
  785MOL0     H 8265   5.995  10.934   5.275  1.2370  1.4014 -1.0049
  785MOL0     H 8266   5.932  11.098   5.296  1.6329 -0.5497 -2.0641
  785MOL0     H 8267   6.033  11.086   5.521 -1.9725  0.2761 -0.6273
  785MOL0     H 8268   6.094  10.916   5.477  2.2558 -1.4260 -4.0397
  785MOL0     H 8269   6.237  11.007   5.326  1.1750  0.3013  0.8582
  785MOL0     H 8270   6.140  11.165   5.320 -0.3343  0.2724 -1.1053
  785MOL0     H 8271   6.279  11.100   5.578  2.7238  3.1363  1.7216
  785MOL0     H 8272   6.268  11.248   5.494  0.9589 -0.2634 -1.1168
  785MOL0     H 8273   6.454  11.028   5.373 -1.5916 -0.4354  0.5828
  785MOL0     H 8274   6.421  11.190   5.307 -2.8895  2.0312  1.3941
  785MOL0     H 8275   6.568  11.144   5.568 -2.4444 -1.2422 -0.0446
  785MOL0     H 8276   6.510  11.305   5.514 -3.9964 -0.1834 -2.5987
  785MOL0     H 8277   6.732  11.135   5.408 -1.9559 -1.2192  0.6470
  785MOL0     H 8278   6.659  11.246   5.294 -0.6933 -1.5976 -0.6413
  785MOL0     H 8279   6.659  11.509   5.333 -2.4563  1.4490  2.7567
  785MOL0     H 8280   6.794  11.725   5.371 -0.2901  0.4134 -0.0101
  785MOL0     H 8281   6.970  11.656   5.356 -0.7371 -4.3045  0.3230
  785MOL0     H 8282   6.833  11.769   5.605 -2.3480  1.6359 -1.7105
  785MOL0     H 8283   6.999  11.718   5.605 -0.4904  0.2347  1.3623
  785MOL0     H 8284   7.016  11.883   5.392  2.2823  2.1539  1.4924
  785MOL0     H 8285   6.878  11.966   5.459 -2.5719 -2.1801  1.9081
  785MOL0     H 8286   7.141  11.893   5.575  0.0716 -1.3066 -0.7032
  785MOL0     H 8287   7.096  12.061   5.531 -1.8692  0.0979 -0.1174
  785MOL0     H 8288   7.090  11.778   5.828 -2.8737  2.4854 -0.0446
  785MOL0     H 8289   7.293  11.719   6.087 -1.7686  2.9554 -0.5060
  785MOL0     H 8290   7.408  11.679   5.962  0.2477  0.3940 -1.6672
  785MOL0     H 8291   7.230  11.639   5.945 -1.2831  0.7443  0.7650
  785MOL0     H 8292   7.678  12.252   6.079  0.9847  0.8429 -1.2501
  785MOL0     H 8293   7.883  12.284   6.173 -0.4877  0.4721 -5.0584
  785MOL0     H 8294   8.143  11.871   6.224  0.3994 -0.1692  0.7850
  785MOL0     H 8295   8.191  12.009   6.119  0.7610  0.9186 -0.3641
  785MOL0     H 8296   8.380  11.952   6.275  0.6816 -2.9408  3.0770
  785MOL0     H 8297   8.284  12.101   6.335 -0.1303  0.1733 -1.1641
  785MOL0     H 8298   8.256  11.804   6.418 -0.5199  0.3941  1.7762
  785MOL0     H 8299   8.183  11.949   6.495  0.3389  1.2446  0.4021
  785MOL0     H 8300   8.356  11.856   6.635  0.7146  1.3414  1.1415
  785MOL0     H 8301   8.416  12.009   6.579  0.2483 -0.6742  0.9724
  785MOL0     H 8302   8.493  11.741   6.440  2.2012  1.0166 -0.8763
  785MOL0     H 8303   8.565  11.895   6.409  0.4246  0.1069  0.5686
  785MOL0     H 8304   8.704  11.763   6.587 -1.1580 -1.0470 -1.0537
  785MOL0     H 8305   8.583  11.810   6.703  1.5324 -1.3223  0.5186
  785MOL0     H 8306   8.631  12.061   6.592  2.5312  2.1051 -0.4311
  785MOL0     H 8307   8.784  11.984   6.540  0.0985 -3.0582  0.1246
  785MOL0     H 8308   8.675  11.986   6.821  0.0940 -0.5081 -0.5782
  785MOL0     H 8309   8.786  12.111   6.752 -0.1326  1.5264 -1.4270
  785MOL0     H 8310   7.942  11.845   6.173  0.9190  0.6710 -1.2863
  785MOL0     H 8311   7.737  11.830   6.057 -0.7561  0.1797  0.3294
  785MOL0     H 8312   7.340  12.184   5.941  1.7936 -0.5137 -1.3128
  785MOL0     H 8313   7.167  12.201   5.795  1.1381  0.2723 -2.8631
  785MOL0     H 8314   5.636  10.813   5.506  1.1423 -0.7606  0.7790
  785MOL0     H 8315   5.477  10.746   5.671  1.1519 -0.7077  1.6284
  785MOL0     H 8316   5.297  10.790   6.184  1.3329  2.5203 -1.1929
  785MOL0     H 8317   5.089  10.801   6.323  1.6339 -1.3561 -0.3537
  785MOL0     H 8318   4.747  10.715   6.109 -2.9283 -0.2146  1.3947
  785MOL0     H 8319   4.835  10.650   6.250  1.2403 -0.8147 -1.8578
  785MOL0     H 8320   4.581  10.656   6.270  0.8904 -0.7573  0.9752
  785MOL0     H 8321   4.597  10.820   6.284  0.9451  0.4053 -1.1881
  785MOL0     H 8322   4.747  10.606   6.460  1.2317 -0.1002 -1.2066
  785MOL0     H 8323   4.754  10.787   6.483  3.2388 -3.5680  0.2842
  785MOL0     H 8324   4.519  10.585   6.508 -0.1303 -0.8360  1.0265
  785MOL0     H 8325   4.484  10.754   6.499 -0.4895 -1.3619 -0.2088
  785MOL0     H 8326   4.582  10.759   6.900  0.0341  2.7778  0.2505
  785MOL0     H 8327   4.882  10.958   5.993  2.2874  3.1563 -1.0721
  785MOL0     H 8328   5.096  10.912   5.744 -1.2750  0.0732 -1.6235
  785MOL0     H 8329   4.963  11.020   5.805 -0.4161  0.8137  2.2602
  785MOL0     H 8330   5.128  11.078   5.792 -0.6964 -0.1623  0.6802
  786MOL0     O 8331   5.582  10.475   4.501  0.2737  0.5032  0.4015
  786MOL0     C 8332   5.520  10.429   4.410 -0.2987 -0.2683  0.6020
  786MOL0     O 8333   5.578  10.387   4.287 -0.0182 -0.0672 -0.2685
  786MOL0     C 8334   5.712  10.365   4.279  0.1067  1.0450 -0.4255
  786MOL0     C 8335   5.774  10.269   4.356 -0.0248  0.8352  0.1413
  786MOL0     C 8336   5.918  10.263   4.352  1.1101 -0.1395  0.4202
  786MOL0     C 8337   5.990  10.348   4.263 -0.4785  0.1481  0.2036
  786MOL0     O 8338   6.125  10.331   4.235  0.4245  0.6211  0.0705
  786MOL0     C 8339   6.197  10.451   4.219 -0.1290 -0.4625 -0.0057
  786MOL0     C 8340   6.346  10.425   4.256 -0.4950  0.0447  0.1678
  786MOL0     C 8341   6.418  10.567   4.250 -0.0536  0.6581 -0.8608
  786MOL0     C 8342   6.565  10.554   4.217  0.1672  0.1997 -0.0582
  786MOL0     C 8343   6.635  10.687   4.191  0.7573  0.4287  0.0743
  786MOL0     C 8344   6.789  10.674   4.178  0.1650 -0.2609 -0.3965
  786MOL0     C 8345   6.857  10.802   4.185 -0.2325  0.2156 -0.7466
  786MOL0     C 8346   7.005  10.786   4.213 -0.7232 -0.4650 -0.0298
  786MOL0     N 8347   7.086  10.716   4.121 -0.6210  0.0140 -0.3212
  786MOL0     C 8348   7.073  10.582   4.089  0.3518 -0.7130  0.8002
  786MOL0     C 8349   7.189  10.545   4.036 -0.3535  0.0662 -0.5846
  786MOL0     C 8350   7.209  10.412   3.971 -0.2715 -0.3930  0.4275
  786MOL0     C 8351   7.347  10.400   3.900  0.1495  0.0079 -0.7978
  786MOL0     C 8352   7.459  10.393   4.000 -0.2052 -0.0907  0.1844
  786MOL0     C 8353   7.571  10.297   3.955  0.5006  0.4590 -0.3140
  786MOL0     O 8354   7.699  10.319   4.007 -0.1202  0.0099  0.3679
  786MOL0     C 8355   7.800  10.234   3.956 -0.3651  0.3757 -1.6428
  786MOL0     C 8356   7.784  10.132   3.860 -0.8441  0.3831  0.3857
  786MOL0     C 8357   7.883  10.054   3.815  0.1962  0.2870  0.5742
  786MOL0     C 8358   7.839   9.953   3.706 -0.4118  0.3377 -0.7716
  786MOL0     C 8359   8.014  10.079   3.860  0.5230  0.4147  0.1305
  786MOL0     C 8360   8.131  10.000   3.832  0.1236  0.6750  0.1370
  786MOL0     O 8361   8.247  10.053   3.882 -0.1472  0.3290 -0.4559
  786MOL0     C 8362   8.359   9.973   3.907  0.7074  0.5544  0.2062
  786MOL0     C 8363   8.404   9.876   3.820 -0.2868  0.7370  0.4748
  786MOL0     C 8364   8.524   9.817   3.848  0.5133 -0.0498  0.8386
  786MOL0     C 8365   8.598   9.835   3.962  0.2493 -0.0496 -0.2595
  786MOL0     O 8366   8.702   9.749   3.975 -0.2750 -0.3068  0.5913
  786MOL0     C 8367   8.802   9.778   4.068  0.3701 -0.7518  0.3429
  786MOL0     C 8368   8.910   9.676   4.046 -0.2972  0.5383  0.5566
  786MOL0     C 8369   9.035   9.704   4.128  0.3878  0.4689 -0.0824
  786MOL0     C 8370   9.148   9.602   4.106  1.2792  0.2081  0.0783
  786MOL0     C 8371   9.265   9.651   4.200  0.1623 -0.4073 -0.2371
  786MOL0     C 8372   9.401   9.629   4.130  0.2731  0.6300 -0.4237
  786MOL0     C 8373   9.500   9.666   4.247  0.0147 -0.3558  1.0074
  786MOL0     C 8374   9.630   9.605   4.210 -0.3144 -0.6700  0.2787
  786MOL0    Cl 8375   9.616   9.434   4.207  0.7226  0.0361  0.1229
  786MOL0     C 8376   8.548   9.923   4.055 -1.2210  0.5295  0.1250
  786MOL0     C 8377   8.430   9.997   4.021  0.2089 -0.0841 -0.4222
  786MOL0     O 8378   8.116   9.903   3.759  0.7073  0.7655 -0.5278
  786MOL0     C 8379   8.038  10.193   3.946 -0.0553  1.1183  0.6117
  786MOL0     C 8380   7.929  10.260   4.001 -0.2093  0.4384 -0.0766
  786MOL0     N 8381   7.278  10.650   4.042  0.2937 -0.0889 -0.8705
  786MOL0     N 8382   7.212  10.752   4.085  0.1583 -0.2273  0.9558
  786MOL0     C 8383   5.916  10.445   4.194 -1.3438  0.6497  0.4458
  786MOL0     C 8384   5.782  10.460   4.205 -0.3560  0.3151 -0.1374
  786MOL0     C 8385   5.377  10.426   4.412  0.9057  0.7728 -0.0604
  786MOL0     C 8386   5.307  10.466   4.300  0.3371  0.1412  0.1222
  786MOL0     C 8387   5.172  10.487   4.289 -0.2358  0.4411  0.0925
  786MOL0     C 8388   5.088  10.470   4.403  0.5181 -0.1928 -0.7454
  786MOL0     O 8389   4.949  10.481   4.403  0.4028 -0.0353  0.5512
  786MOL0     C 8390   4.899  10.616   4.407 -0.8132 -0.0373 -0.9021
  786MOL0     C 8391   4.759  10.643   4.456 -0.1822  0.0292  1.0569
  786MOL0     C 8392   4.675  10.743   4.364  0.2616  0.0627 -0.2298
  786MOL0     C 8393   4.563  10.803   4.451  0.5611  0.3370 -0.2976
  786MOL0     C 8394   4.598  10.905   4.546  0.6577 -0.2359 -0.4037
  786MOL0     C 8395   4.649  10.995   4.611  0.1931  0.1844 -0.1785
  786MOL0     C 8396   5.155  10.437   4.521  0.4754 -0.2363  0.1484
  786MOL0     C 8397   5.293  10.412   4.534  0.2005  0.4158  0.2407
  786MOL0     C 8398   5.353  10.368   4.667  0.4000  0.5180  0.1662
  786MOL0     H 8399   5.719  10.203   4.422  1.8475 -3.1333 -1.9165
  786MOL0     H 8400   5.979  10.187   4.401 -0.5245 -1.8659 -0.1015
  786MOL0     H 8401   6.155  10.529   4.284 -0.4496  2.0663 -2.9692
  786MOL0     H 8402   6.195  10.481   4.114  1.6592 -2.2672 -0.6185
  786MOL0     H 8403   6.362  10.390   4.358 -1.1198  1.1124  0.6532
  786MOL0     H 8404   6.370  10.350   4.180  0.4909  0.9249 -0.4276
  786MOL0     H 8405   6.380  10.633   4.170  3.0011  1.5413 -1.7366
  786MOL0     H 8406   6.414  10.612   4.349  0.3534 -0.1342 -0.4857
  786MOL0     H 8407   6.620  10.494   4.290  0.4289 -1.1343 -1.3147
  786MOL0     H 8408   6.565  10.495   4.126  0.4650 -0.0636  0.1088
  786MOL0     H 8409   6.605  10.759   4.268 -3.1295  2.4849 -3.0030
  786MOL0     H 8410   6.599  10.725   4.095  1.3233  0.7903 -0.0045
  786MOL0     H 8411   6.831  10.612   4.257 -2.3016 -1.4175  0.1033
  786MOL0     H 8412   6.814  10.627   4.082 -0.0652  0.8779 -1.0400
  786MOL0     H 8413   6.823  10.864   4.269  0.4435 -0.9674  0.4193
  786MOL0     H 8414   6.840  10.861   4.094 -2.9156  1.1140  0.2264
  786MOL0     H 8415   7.043  10.888   4.220  1.0027 -1.1597  1.4797
  786MOL0     H 8416   7.024  10.748   4.313  1.8500  1.9635  0.5149
  786MOL0     H 8417   6.980  10.526   4.096  1.1927 -2.7956 -2.4521
  786MOL0     H 8418   7.125  10.391   3.904 -1.1650  0.5220  1.2337
  786MOL0     H 8419   7.187  10.337   4.047 -1.6514  0.7432  1.1829
  786MOL0     H 8420   7.354  10.305   3.846  2.2669 -0.6041  0.4315
  786MOL0     H 8421   7.374  10.488   3.841  0.1494  2.8413  3.0484
  786MOL0     H 8422   7.507  10.491   4.009  1.5021 -0.6732 -1.7340
  786MOL0     H 8423   7.431  10.370   4.103  1.2569  0.3144  0.6926
  786MOL0     H 8424   7.546  10.192   3.967 -1.5375  0.7173 -1.8560
  786MOL0     H 8425   7.571  10.319   3.848  0.6508  0.5109 -0.3047
  786MOL0     H 8426   7.687  10.118   3.813 -0.3326  0.4586 -0.7097
  786MOL0     H 8427   7.741   9.967   3.659 -1.1808 -0.1023  0.6268
  786MOL0     H 8428   7.846   9.853   3.750 -1.4037  0.4402 -0.3605
  786MOL0     H 8429   7.912   9.976   3.628  1.1231 -0.3500  0.4040
  786MOL0     H 8430   8.350   9.842   3.732  0.9878 -0.6789  0.1898
  786MOL0     H 8431   8.555   9.741   3.778  0.8534 -0.0740  1.0150
  786MOL0     H 8432   8.845   9.878   4.059 -0.4451 -0.4287 -0.1244
  786MOL0     H 8433   8.766   9.767   4.171  0.7732 -0.1241  0.5547
  786MOL0     H 8434   8.875   9.576   4.074  0.9227 -0.1996 -0.4435
  786MOL0     H 8435   8.941   9.678   3.941 -1.3139 -1.5580  0.1649
  786MOL0     H 8436   9.012   9.693   4.235  1.0033 -2.4431 -0.1623
  786MOL0     H 8437   9.070   9.806   4.108 -0.2834  1.1037  1.7292
  786MOL0     H 8438   9.174   9.600   4.000 -0.4103 -2.4584 -0.3813
  786MOL0     H 8439   9.114   9.502   4.132  1.4882 -0.6235 -2.6239
  786MOL0     H 8440   9.254   9.757   4.225  3.2555 -0.3077  1.1105
  786MOL0     H 8441   9.266   9.598   4.295 -2.3913 -2.0638 -1.0245
  786MOL0     H 8442   9.419   9.713   4.062  2.7700 -0.3852 -1.1383
  786MOL0     H 8443   9.409   9.535   4.076 -0.1856  0.4216 -0.1349
  786MOL0     H 8444   9.468   9.621   4.341  0.4714 -0.7697  0.9685
  786MOL0     H 8445   9.515   9.773   4.261  0.3782 -0.4812  1.6256
  786MOL0     H 8446   9.699   9.632   4.291 -2.5554  1.4293  1.5951
  786MOL0     H 8447   9.666   9.642   4.114 -1.3458  2.0282  0.8499
  786MOL0     H 8448   8.613   9.936   4.142 -0.1892  1.0801 -0.7119
  786MOL0     H 8449   8.393  10.070   4.094 -3.2210 -0.1409 -1.8907
  786MOL0     H 8450   8.135  10.225   3.985 -0.9564  3.7960  0.8711
  786MOL0     H 8451   7.954  10.341   4.067  3.4103  1.0681 -1.9669
  786MOL0     H 8452   5.974  10.517   4.137 -0.5970 -0.1838  0.1374
  786MOL0     H 8453   5.720  10.530   4.149 -3.9190 -3.3373 -1.2307
  786MOL0     H 8454   5.357  10.471   4.204 -3.1717  1.3190 -1.8360
  786MOL0     H 8455   5.121  10.503   4.194 -1.8101  0.3418  0.8774
  786MOL0     H 8456   4.967  10.677   4.467 -1.0436 -0.5063 -0.1444
  786MOL0     H 8457   4.903  10.654   4.305 -1.1456 -0.4790 -1.0854
  786MOL0     H 8458   4.764  10.675   4.561 -1.9135  2.1180  0.5623
  786MOL0     H 8459   4.709  10.546   4.454 -0.5672  0.2155 -1.4568
  786MOL0     H 8460   4.731  10.817   4.305  1.2643 -0.1648  0.4161
  786MOL0     H 8461   4.614  10.682   4.296 -2.4991  1.3180  0.9806
  786MOL0     H 8462   4.512  10.727   4.510 -1.2482 -0.2389 -2.4686
  786MOL0     H 8463   4.493  10.849   4.380  1.3982  0.5387 -1.0213
  786MOL0     H 8464   4.702  11.076   4.655 -0.7997 -0.1349  1.6837
  786MOL0     H 8465   5.091  10.441   4.609 -1.1901  1.5476 -1.0603
  786MOL0     H 8466   5.353  10.451   4.739  2.7824 -0.0774  0.9437
  786MOL0     H 8467   5.286  10.297   4.716  0.3111  0.0894 -0.5716
  786MOL0     H 8468   5.453  10.325   4.662 -0.2241 -0.9405 -0.2237
  787MOL0     O 8469   5.667   3.070   5.115  0.1363 -0.6864  0.5654
  787MOL0     C 8470   5.607   3.000   5.032 -0.1181  1.1537  0.1636
  787MOL0     O 8471   5.662   2.896   4.965 -0.4756 -0.8115 -0.0666
  787MOL0     C 8472   5.796   2.878   4.983 -0.2598 -0.9937 -0.4868
  787MOL0     C 8473   5.840   2.815   5.103 -0.9536 -0.7968  0.4653
  787MOL0     C 8474   5.981   2.783   5.113 -0.2136  0.1085  0.5019
  787MOL0     C 8475   6.070   2.809   5.003  1.0148 -0.3938  0.1184
  787MOL0     O 8476   6.201   2.787   5.040 -0.3072 -0.0421  0.0188
  787MOL0     C 8477   6.298   2.848   4.959 -0.2649  0.2149  0.8030
  787MOL0     C 8478   6.428   2.811   5.019 -0.1139  0.6290 -0.4583
  787MOL0     C 8479   6.552   2.873   4.941 -0.6231  0.2518 -0.5358
  787MOL0     C 8480   6.685   2.801   4.979 -0.2823 -0.1646 -0.7504
  787MOL0     C 8481   6.788   2.802   4.866  0.5356  0.3312 -0.0076
  787MOL0     C 8482   6.906   2.713   4.896  0.3133  0.5170 -0.8823
  787MOL0     C 8483   7.012   2.711   4.791 -0.1833  0.1280  0.8045
  787MOL0     C 8484   7.129   2.621   4.830  0.4125  0.7561 -0.3870
  787MOL0     N 8485   7.242   2.633   4.740 -0.0086  0.7189 -0.0848
  787MOL0     C 8486   7.255   2.583   4.607  0.5308 -0.1308 -0.8888
  787MOL0     C 8487   7.368   2.629   4.560  0.3834 -0.1246 -0.4604
  787MOL0     C 8488   7.423   2.618   4.419  0.1416  0.0712 -0.6225
  787MOL0     C 8489   7.526   2.511   4.409  0.4649  1.1187 -0.7049
  787MOL0     C 8490   7.571   2.474   4.271 -0.1207  0.8496  0.8384
  787MOL0     C 8491   7.458   2.418   4.181 -0.0996  0.2311 -0.7742
  787MOL0     O 8492   7.487   2.440   4.043  0.1763 -0.4917 -0.0376
  787MOL0     C 8493   7.599   2.400   3.981  0.3940 -0.2245  0.1415
  787MOL0     C 8494   7.640   2.483   3.880 -0.9086 -0.4090  0.8143
  787MOL0     C 8495   7.765   2.463   3.814 -0.6737 -0.0128 -0.1139
  787MOL0     C 8496   7.806   2.569   3.715 -0.0599 -0.3938 -0.5809
  787MOL0     C 8497   7.853   2.355   3.862 -0.8336 -0.7041  0.6978
  787MOL0     C 8498   7.985   2.332   3.794  0.0655  0.0452  0.2351
  787MOL0     O 8499   8.056   2.226   3.830 -0.3269  0.0725 -0.0929
  787MOL0     C 8500   8.189   2.254   3.838 -0.0783 -0.6093  0.0797
  787MOL0     C 8501   8.280   2.222   3.741  0.3879  0.0657  0.2881
  787MOL0     C 8502   8.412   2.265   3.745 -0.0810 -0.0506  0.1464
  787MOL0     C 8503   8.460   2.349   3.848  0.1236  0.7961  0.8424
  787MOL0     O 8504   8.586   2.400   3.850 -0.4371  0.0374  0.3832
  787MOL0     C 8505   8.609   2.526   3.913  0.1825  0.4949  0.5695
  787MOL0     C 8506   8.759   2.560   3.922 -0.4120 -0.8794 -0.0178
  787MOL0     C 8507   8.780   2.611   4.062  0.1342 -0.1508 -0.5255
  787MOL0     C 8508   8.925   2.638   4.095  1.3306 -0.7653 -0.0563
  787MOL0     C 8509   8.931   2.706   4.226 -0.4976  0.2038 -0.5895
  787MOL0     C 8510   9.082   2.745   4.258 -0.5118 -0.4930 -0.5462
  787MOL0     C 8511   9.095   2.801   4.395 -0.2235  0.2200 -0.7102
  787MOL0     C 8512   9.237   2.785   4.446  0.4001 -0.3418  0.0095
  787MOL0    Cl 8513   9.277   2.614   4.495  0.3281  0.0127  0.2862
  787MOL0     C 8514   8.377   2.354   3.962  0.0643 -0.1119  0.9435
  787MOL0     C 8515   8.238   2.316   3.953 -0.1840 -0.9929 -0.4817
  787MOL0     O 8516   8.023   2.417   3.710 -0.3657  0.8315 -0.0467
  787MOL0     C 8517   7.808   2.269   3.960 -0.4837 -0.0225  0.3045
  787MOL0     C 8518   7.675   2.294   4.018  0.2005 -0.2610  0.3815
  787MOL0     N 8519   7.429   2.699   4.665  0.4749 -0.1653  0.3784
  787MOL0     N 8520   7.355   2.704   4.773 -0.0433 -0.0187 -0.1909
  787MOL0     C 8521   6.017   2.875   4.894 -0.4857  0.2804 -0.9659
  787MOL0     C 8522   5.883   2.899   4.874 -0.1808 -0.4113 -0.2360
  787MOL0     C 8523   5.456   2.996   5.041  0.0876  0.1393  0.0581
  787MOL0     C 8524   5.385   2.891   4.982  0.2556 -0.8543 -0.2006
  787MOL0     C 8525   5.253   2.878   4.998 -0.0978 -0.1100  0.3140
  787MOL0     C 8526   5.181   2.959   5.078  0.9880  0.0559 -0.2083
  787MOL0     O 8527   5.045   2.949   5.106  0.7001 -0.5972  0.4033
  787MOL0     C 8528   4.958   2.932   4.994 -0.3862  0.0405 -0.4279
  787MOL0     C 8529   4.956   3.058   4.916  0.0229  0.0730  0.0721
  787MOL0     C 8530   4.879   3.172   5.007 -0.4063  0.4463  0.9895
  787MOL0     C 8531   4.919   3.315   4.958  0.1373  0.2592  0.2996
  787MOL0     C 8532   4.809   3.410   5.007 -0.5889  0.4387  1.0726
  787MOL0     C 8533   4.720   3.480   5.044 -0.4290 -0.0360  0.5157
  787MOL0     C 8534   5.245   3.067   5.143 -0.2313  0.1826 -0.2404
  787MOL0     C 8535   5.384   3.090   5.116  0.0718  1.0376  0.2684
  787MOL0     C 8536   5.450   3.218   5.155 -0.0509 -0.5523 -0.4148
  787MOL0     H 8537   5.773   2.778   5.180 -0.0551 -1.2051  1.0671
  787MOL0     H 8538   5.994   2.719   5.199 -1.6264 -2.3077 -0.9537
  787MOL0     H 8539   6.285   2.956   4.964  1.9556  0.5374  0.7709
  787MOL0     H 8540   6.294   2.813   4.856  1.4211 -0.4280  0.9222
  787MOL0     H 8541   6.414   2.848   5.121  1.3961  1.1683 -0.4318
  787MOL0     H 8542   6.443   2.703   5.030 -1.5646  0.1118 -2.9084
  787MOL0     H 8543   6.535   2.847   4.837 -0.8208 -2.0962  0.0159
  787MOL0     H 8544   6.562   2.981   4.947 -0.5258  0.2007  0.4081
  787MOL0     H 8545   6.743   2.838   5.064  1.4390 -3.6061 -0.2233
  787MOL0     H 8546   6.662   2.695   4.994 -1.0937  0.0871 -0.1587
  787MOL0     H 8547   6.811   2.908   4.849  0.5858  0.2150 -0.6893
  787MOL0     H 8548   6.744   2.761   4.775 -0.7207  1.2575  0.1590
  787MOL0     H 8549   6.936   2.739   4.997 -4.4615 -2.8369  1.8072
  787MOL0     H 8550   6.867   2.611   4.905 -1.5410  1.0009 -2.5708
  787MOL0     H 8551   7.051   2.813   4.781 -1.2278  0.3601 -1.8318
  787MOL0     H 8552   6.969   2.676   4.697  1.9585  2.0659 -1.0313
  787MOL0     H 8553   7.157   2.646   4.932  1.8118 -1.4059 -0.1913
  787MOL0     H 8554   7.086   2.521   4.844 -0.9141  1.3653  0.0709
  787MOL0     H 8555   7.185   2.523   4.550  3.4370 -1.9631 -2.7797
  787MOL0     H 8556   7.453   2.719   4.388 -1.0562 -0.1399 -2.6078
  787MOL0     H 8557   7.334   2.589   4.363 -1.7348  0.6255  1.8988
  787MOL0     H 8558   7.621   2.549   4.446  0.6271 -0.9138  1.1796
  787MOL0     H 8559   7.494   2.421   4.463  1.3758  0.9513 -0.4304
  787MOL0     H 8560   7.616   2.558   4.216 -0.1421 -0.9907 -2.2244
  787MOL0     H 8561   7.645   2.394   4.279 -1.6522 -0.7471 -0.2604
  787MOL0     H 8562   7.456   2.310   4.199 -1.5409  0.2683 -0.6024
  787MOL0     H 8563   7.358   2.451   4.210 -0.4241 -2.6504  1.9398
  787MOL0     H 8564   7.584   2.574   3.860  1.3005  0.8097 -0.2658
  787MOL0     H 8565   7.834   2.518   3.622  0.0518  0.5687 -1.0996
  787MOL0     H 8566   7.891   2.623   3.758 -0.8141  2.0469 -1.9416
  787MOL0     H 8567   7.731   2.641   3.680 -0.4716  1.3147  3.3453
  787MOL0     H 8568   8.229   2.179   3.655 -0.7259  2.0178 -0.0860
  787MOL0     H 8569   8.483   2.254   3.663  2.3762  1.0965  2.0116
  787MOL0     H 8570   8.564   2.599   3.845  0.6695 -1.7898 -2.4333
  787MOL0     H 8571   8.566   2.525   4.013 -0.9747 -1.1850  0.1001
  787MOL0     H 8572   8.817   2.473   3.891 -0.4510 -0.2338 -2.0516
  787MOL0     H 8573   8.787   2.636   3.848 -1.3537 -0.8951 -0.4067
  787MOL0     H 8574   8.749   2.538   4.138  0.2468 -0.5021 -0.8118
  787MOL0     H 8575   8.721   2.702   4.069  1.9322  1.0854 -0.8451
  787MOL0     H 8576   8.960   2.708   4.019 -3.8873 -0.0046 -2.2078
  787MOL0     H 8577   8.983   2.546   4.090 -0.0494 -1.6589 -5.0085
  787MOL0     H 8578   8.867   2.794   4.229 -2.6135 -1.2721  0.5283
  787MOL0     H 8579   8.897   2.642   4.308  2.4490  0.5693  1.0529
  787MOL0     H 8580   9.120   2.811   4.180  0.2249 -0.3077 -0.0356
  787MOL0     H 8581   9.145   2.655   4.257 -0.2337 -0.3530  1.1065
  787MOL0     H 8582   9.037   2.743   4.468  3.8038 -3.4363 -0.0502
  787MOL0     H 8583   9.067   2.907   4.387  0.4139  0.3168 -1.8506
  787MOL0     H 8584   9.231   2.824   4.548  1.5416 -1.6362  0.6160
  787MOL0     H 8585   9.309   2.848   4.393 -0.9833  3.6832  2.4050
  787MOL0     H 8586   8.408   2.391   4.059 -1.6619 -0.1517  1.5542
  787MOL0     H 8587   8.173   2.326   4.040 -0.4823 -2.0762 -0.5721
  787MOL0     H 8588   7.881   2.197   3.996 -0.5824 -0.3229 -0.0913
  787MOL0     H 8589   7.634   2.232   4.097  0.7040 -0.2849  0.6296
  787MOL0     H 8590   6.082   2.916   4.817 -1.9346  0.4831 -2.1155
  787MOL0     H 8591   5.853   2.960   4.790 -3.7423  0.7048  1.6493
  787MOL0     H 8592   5.432   2.815   4.920 -3.5134 -1.6504 -2.4093
  787MOL0     H 8593   5.200   2.801   4.944 -0.9286  1.3025 -0.9952
  787MOL0     H 8594   4.996   2.843   4.944  2.9757 -0.4849  2.6353
  787MOL0     H 8595   4.858   2.912   5.034  0.5739 -3.0389  0.7426
  787MOL0     H 8596   4.906   3.029   4.823  0.6417 -0.5298 -0.0817
  787MOL0     H 8597   5.056   3.089   4.884  0.6595  0.3537  2.2132
  787MOL0     H 8598   4.777   3.164   4.968 -0.9534  2.0169  1.9598
  787MOL0     H 8599   4.880   3.148   5.113 -0.1580 -3.4454  0.2280
  787MOL0     H 8600   4.922   3.336   4.850 -0.5173  0.7925  0.3814
  787MOL0     H 8601   5.017   3.345   4.998  0.5050  0.2386 -0.5494
  787MOL0     H 8602   4.641   3.545   5.077 -0.1750  1.3771 -1.4776
  787MOL0     H 8603   5.185   3.132   5.206 -1.2754 -1.1335  0.1500
  787MOL0     H 8604   5.525   3.208   5.235 -0.1436  0.1281 -0.2309
  787MOL0     H 8605   5.493   3.256   5.062 -2.5455 -0.0292 -1.4057
  787MOL0     H 8606   5.371   3.285   5.190 -0.5379 -0.3720 -1.8026
  788MOL0     O 8607   9.277   3.929  10.248 -0.4352 -0.3365  0.1139
  788MOL0     C 8608   9.232   3.888  10.137  0.6790  0.0027  0.3840
  788MOL0     O 8609   9.293   3.905  10.013  0.0212 -0.1738 -0.7523
  788MOL0     C 8610   9.431   3.923  10.008 -0.1858 -0.7580  0.1633
  788MOL0     C 8611   9.527   3.846  10.083 -0.3607  0.5277  0.8591
  788MOL0     C 8612   9.661   3.871  10.068 -0.5525  0.0703  0.4551
  788MOL0     C 8613   9.710   3.972   9.978  0.1419  0.7285 -0.5257
  788MOL0     O 8614   9.840   3.993   9.954 -0.3032  0.7100 -0.4049
  788MOL0     C 8615   9.924   3.888  10.006 -0.4805  0.3361  0.4539
  788MOL0     C 8616  10.063   3.897   9.967 -0.3384 -1.2331 -0.5127
  788MOL0     C 8617  10.100   3.883   9.817  0.2622  0.5805  0.3032
  788MOL0     C 8618  10.129   3.734   9.787  0.6030 -0.6025  0.5230
  788MOL0     C 8619  10.179   3.730   9.641  0.2771  0.4389 -1.0086
  788MOL0     C 8620  10.247   3.585   9.632 -0.0636 -0.5460 -0.0165
  788MOL0     C 8621  10.339   3.588   9.507 -0.2170  0.7350 -0.2529
  788MOL0     C 8622  10.239   3.565   9.390 -0.9563  0.3322  0.0085
  788MOL0     N 8623  10.314   3.569   9.251 -0.5957  0.2513 -0.1813
  788MOL0     C 8624  10.390   3.475   9.180  0.5708  0.6568 -0.1462
  788MOL0     C 8625  10.412   3.533   9.056 -0.1207  0.1384 -0.5077
  788MOL0     C 8626  10.477   3.485   8.934  0.4420  0.4029 -0.0645
  788MOL0     C 8627  10.626   3.515   8.947 -0.3390  0.7413  1.2984
  788MOL0     C 8628  10.700   3.472   8.818  0.1386 -0.0337  0.1061
  788MOL0     C 8629  10.854   3.471   8.811  0.3011 -0.2738  0.1191
  788MOL0     O 8630  10.896   3.602   8.861 -0.1383 -0.0682 -0.2706
  788MOL0     C 8631  11.017   3.650   8.816 -0.1309  0.2708  0.2427
  788MOL0     C 8632  11.108   3.571   8.742 -0.5216  0.0978  0.5111
  788MOL0     C 8633  11.221   3.632   8.669  0.3768 -0.4409  0.4794
  788MOL0     C 8634  11.309   3.550   8.585 -0.0173 -0.3342 -0.0041
  788MOL0     C 8635  11.241   3.767   8.689 -0.9130 -0.3500 -0.0459
  788MOL0     C 8636  11.369   3.836   8.635 -0.4012 -0.6804 -0.0232
  788MOL0     O 8637  11.440   3.915   8.728  0.5945 -0.3639 -0.8396
  788MOL0     C 8638  11.562   3.963   8.693  0.8785 -0.2110  0.8219
  788MOL0     C 8639  11.596   4.093   8.741  0.2668  0.3551  0.2102
  788MOL0     C 8640  11.722   4.141   8.718  0.0681 -0.4423  0.4277
  788MOL0     C 8641  11.820   4.064   8.648  0.2757  0.1208 -0.3636
  788MOL0     O 8642  11.949   4.108   8.625 -1.1190  0.7138 -0.2000
  788MOL0     C 8643  11.975   4.233   8.569  0.4603 -0.9831  0.3728
  788MOL0     C 8644  11.922   4.240   8.427 -0.8876  0.7083  1.5716
  788MOL0     C 8645  11.968   4.355   8.351  0.6949 -0.5888  0.4841
  788MOL0     C 8646  11.947   4.486   8.420 -0.4337 -1.0874  0.6677
  788MOL0     C 8647  11.974   4.603   8.318  0.7486 -0.1077 -0.6771
  788MOL0     C 8648  11.910   4.743   8.358 -0.1635  0.3025 -0.7605
  788MOL0     C 8649  11.756   4.771   8.357 -0.0800 -0.5254 -0.0499
  788MOL0     C 8650  11.681   4.739   8.221 -0.4785 -0.2365 -0.4855
  788MOL0    Cl 8651  11.796   4.790   8.090  0.0375 -0.4923  0.3177
  788MOL0     C 8652  11.784   3.930   8.618  0.5835  0.1348  0.2041
  788MOL0     C 8653  11.654   3.878   8.645 -0.0743  0.2120  0.1459
  788MOL0     O 8654  11.402   3.828   8.514  0.1444  0.9011 -0.6544
  788MOL0     C 8655  11.159   3.836   8.779 -0.2779  0.2973  0.3199
  788MOL0     C 8656  11.047   3.786   8.828  0.1802  0.3479 -1.1338
  788MOL0     N 8657  10.344   3.656   9.053 -1.0758  0.4449 -1.2258
  788MOL0     N 8658  10.293   3.674   9.170  0.3535 -0.3507 -0.6427
  788MOL0     C 8659   9.609   4.042   9.907 -0.6551  0.8218  0.2250
  788MOL0     C 8660   9.473   4.022   9.920 -0.3425 -0.8651  0.6277
  788MOL0     C 8661   9.090   3.829  10.129  1.0151 -0.4024  0.5448
  788MOL0     C 8662   9.043   3.777  10.020 -0.2144 -0.3164  0.4241
  788MOL0     C 8663   8.910   3.738   9.997 -0.3860  0.8608 -0.1516
  788MOL0     C 8664   8.824   3.725  10.114 -0.3774  0.8728  0.7469
  788MOL0     O 8665   8.699   3.667  10.104  0.1351 -0.8166 -0.1269
  788MOL0     C 8666   8.638   3.632   9.981 -0.0988 -0.1033  0.4656
  788MOL0     C 8667   8.493   3.615  10.006 -0.0643  0.0690  1.1315
  788MOL0     C 8668   8.459   3.523  10.124 -0.1561  0.0741  0.0220
  788MOL0     C 8669   8.319   3.466  10.106  0.1768  0.0626  0.0846
  788MOL0     C 8670   8.317   3.347  10.022 -0.2087  0.4100  1.0286
  788MOL0     C 8671   8.302   3.250   9.948  0.0086 -0.7990 -0.0490
  788MOL0     C 8672   8.873   3.785  10.228 -0.1383 -0.4514  0.2786
  788MOL0     C 8673   8.999   3.839  10.240 -0.1337 -0.0286  0.2735
  788MOL0     C 8674   9.040   3.897  10.375  0.0720  0.7563  0.7621
  788MOL0     H 8675   9.494   3.774  10.157  0.1424 -1.7662 -0.9904
  788MOL0     H 8676   9.724   3.804  10.126 -1.1548 -3.0686 -2.1984
  788MOL0     H 8677   9.891   3.790   9.972  0.4174 -0.8480  2.7917
  788MOL0     H 8678   9.930   3.887  10.115 -0.6500 -2.6193  0.4981
  788MOL0     H 8679  10.100   3.996   9.995  0.4529 -2.1888  2.1263
  788MOL0     H 8680  10.116   3.826  10.031  2.0761 -1.2358 -2.3877
  788MOL0     H 8681  10.011   3.913   9.762 -0.8531 -2.6400  0.1670
  788MOL0     H 8682  10.187   3.946   9.793  1.0052  0.3506  2.2330
  788MOL0     H 8683  10.214   3.702   9.848  0.9505  0.0815  0.4011
  788MOL0     H 8684  10.049   3.662   9.806  1.8277 -1.6982  1.8242
  788MOL0     H 8685  10.256   3.808   9.636  0.0389  1.0825  2.5869
  788MOL0     H 8686  10.090   3.748   9.581 -1.4782  1.1302  1.6326
  788MOL0     H 8687  10.316   3.569   9.716 -0.2240  2.1745  0.7245
  788MOL0     H 8688  10.166   3.512   9.636 -1.5151  0.9792 -0.3943
  788MOL0     H 8689  10.406   3.502   9.504 -0.4389  0.5297  0.4909
  788MOL0     H 8690  10.394   3.683   9.503  0.5971  0.4395  2.1779
  788MOL0     H 8691  10.189   3.468   9.399  2.2199 -1.4365  0.1222
  788MOL0     H 8692  10.170   3.649   9.387 -1.0723  0.2161 -0.9699
  788MOL0     H 8693  10.415   3.372   9.202  1.0347  0.9214  0.6101
  788MOL0     H 8694  10.437   3.544   8.851 -1.5432 -0.5066  0.1818
  788MOL0     H 8695  10.461   3.377   8.921 -0.7186  0.4196  1.0943
  788MOL0     H 8696  10.646   3.621   8.961  2.4733  0.6403 -0.9257
  788MOL0     H 8697  10.660   3.463   9.037 -0.1636 -0.8933  0.3426
  788MOL0     H 8698  10.677   3.369   8.788 -1.8642  0.6884 -0.9899
  788MOL0     H 8699  10.660   3.540   8.742 -0.3330 -4.6678 -4.3743
  788MOL0     H 8700  10.887   3.389   8.875  1.8705  1.7624  2.1069
  788MOL0     H 8701  10.874   3.451   8.706 -3.0662  2.6534 -1.2968
  788MOL0     H 8702  11.097   3.464   8.728 -0.4545  0.2070 -0.4375
  788MOL0     H 8703  11.274   3.448   8.604 -4.0185  0.9901  0.5327
  788MOL0     H 8704  11.413   3.548   8.618 -0.4239 -2.5028  1.3594
  788MOL0     H 8705  11.303   3.574   8.478  2.3270  1.1408  0.1151
  788MOL0     H 8706  11.515   4.136   8.798 -1.4733 -2.4195 -0.0128
  788MOL0     H 8707  11.741   4.241   8.757 -2.2494  1.1937 -2.2673
  788MOL0     H 8708  11.938   4.317   8.628 -0.1814 -2.0342  1.4891
  788MOL0     H 8709  12.084   4.241   8.561  0.2663  1.3147 -1.2832
  788MOL0     H 8710  11.965   4.151   8.379 -2.2801  0.2402  1.1475
  788MOL0     H 8711  11.815   4.226   8.416 -0.7962 -1.6151  2.9500
  788MOL0     H 8712  11.913   4.353   8.257  4.2001 -0.2579 -1.7417
  788MOL0     H 8713  12.074   4.350   8.323  0.4490 -1.3594 -0.3632
  788MOL0     H 8714  12.020   4.503   8.500  0.5979  1.2341 -0.6818
  788MOL0     H 8715  11.843   4.501   8.449 -0.6906 -3.0767  0.9580
  788MOL0     H 8716  12.082   4.616   8.312  1.1244  0.8069  4.0156
  788MOL0     H 8717  11.933   4.577   8.220  0.5440  1.0359 -0.9099
  788MOL0     H 8718  11.947   4.821   8.290  1.5864  0.0092 -0.1735
  788MOL0     H 8719  11.963   4.764   8.451  1.6115 -0.0485 -1.6463
  788MOL0     H 8720  11.758   4.875   8.390 -0.2127 -0.4724 -0.2090
  788MOL0     H 8721  11.707   4.717   8.439 -0.9300  2.6733  1.7146
  788MOL0     H 8722  11.586   4.795   8.222  1.3727  3.5628 -4.6685
  788MOL0     H 8723  11.661   4.632   8.217 -1.1468 -0.2295  1.4621
  788MOL0     H 8724  11.852   3.868   8.561  0.8185  0.0094  0.6223
  788MOL0     H 8725  11.645   3.775   8.612  3.3118  0.0939 -0.8332
  788MOL0     H 8726  11.175   3.942   8.794  0.8089  0.2505 -0.3842
  788MOL0     H 8727  10.976   3.846   8.885 -2.7832 -3.1905 -0.6957
  788MOL0     H 8728   9.662   4.113   9.843 -3.2085  1.4369 -1.3248
  788MOL0     H 8729   9.406   4.076   9.854  0.3354 -0.5863  0.1572
  788MOL0     H 8730   9.111   3.778   9.935  0.3594  4.6959  0.6414
  788MOL0     H 8731   8.874   3.714   9.898  1.3139  0.2444 -0.6616
  788MOL0     H 8732   8.646   3.716   9.911  3.5201 -0.1959  0.5557
  788MOL0     H 8733   8.673   3.537   9.939 -2.8275 -0.0836 -2.1667
  788MOL0     H 8734   8.438   3.583   9.917 -2.1539  1.5833  1.7872
  788MOL0     H 8735   8.463   3.718  10.025  0.9117  0.2834  1.5519
  788MOL0     H 8736   8.533   3.445  10.143  1.4003  2.1992  3.9277
  788MOL0     H 8737   8.459   3.593  10.208  2.8630 -0.6562  0.7723
  788MOL0     H 8738   8.263   3.553  10.071  3.2009  1.9789 -0.3535
  788MOL0     H 8739   8.270   3.431  10.197  0.1542 -0.9032 -0.2932
  788MOL0     H 8740   8.287   3.170   9.879 -0.7475 -0.3147 -0.4571
  788MOL0     H 8741   8.798   3.778  10.305 -1.6476 -0.4245 -1.1405
  788MOL0     H 8742   9.088   3.994  10.359  0.5529  0.7663  2.1284
  788MOL0     H 8743   8.948   3.917  10.432  0.6744  1.1745  1.6229
  788MOL0     H 8744   9.104   3.827  10.430  1.1506  0.7941 -0.4178
  789MOL0     O 8745   5.767   0.824   0.625 -0.2186 -0.2894 -0.0915
  789MOL0     C 8746   5.683   0.817   0.539  0.8407 -0.4984  0.9171
  789MOL0     O 8747   5.701   0.859   0.412 -0.9316  0.3402  0.3923
  789MOL0     C 8748   5.823   0.911   0.384 -0.3948 -0.6536 -0.1007
  789MOL0     C 8749   5.950   0.838   0.375  0.5253 -0.3663 -0.6103
  789MOL0     C 8750   6.066   0.909   0.354 -0.7954 -0.6148 -0.2671
  789MOL0     C 8751   6.062   1.050   0.322  0.1206  0.4780 -0.5463
  789MOL0     O 8752   6.176   1.131   0.308  0.3995 -0.3451  0.1650
  789MOL0     C 8753   6.303   1.093   0.362  0.0946 -0.8535 -0.2691
  789MOL0     C 8754   6.415   1.120   0.258 -0.1916  0.3239  0.2684
  789MOL0     C 8755   6.558   1.106   0.307 -0.1335 -0.4251 -0.1715
  789MOL0     C 8756   6.580   0.994   0.416 -1.0161  0.3234  0.0090
  789MOL0     C 8757   6.732   0.993   0.472  0.2979 -0.3936 -0.4455
  789MOL0     C 8758   6.842   1.009   0.375  0.1031 -1.1936 -0.0015
  789MOL0     C 8759   6.977   0.997   0.441 -0.1401  0.5264  0.0065
  789MOL0     C 8760   7.014   1.095   0.552  0.1430 -0.5825 -0.3791
  789MOL0     N 8761   7.139   1.057   0.604  0.6077  0.2496  0.4572
  789MOL0     C 8762   7.167   0.945   0.677  0.7609 -0.1272 -0.1908
  789MOL0     C 8763   7.299   0.935   0.673 -0.0627 -0.6296  0.8299
  789MOL0     C 8764   7.397   0.860   0.759 -0.0983 -0.0039  0.6381
  789MOL0     C 8765   7.528   0.812   0.688  0.1700  0.6793 -0.2583
  789MOL0     C 8766   7.626   0.745   0.791  0.1854  0.0537  0.1314
  789MOL0     C 8767   7.765   0.715   0.732  0.3413  0.2132 -0.7183
  789MOL0     O 8768   7.828   0.843   0.736 -0.4038  0.3869 -0.5481
  789MOL0     C 8769   7.962   0.845   0.770  0.2097 -0.0462  0.2560
  789MOL0     C 8770   8.014   0.776   0.883  0.2758 -0.3682  0.5020
  789MOL0     C 8771   8.146   0.795   0.933 -0.7792  0.8509 -0.0962
  789MOL0     C 8772   8.166   0.718   1.073  0.0368 -0.1422 -0.8014
  789MOL0     C 8773   8.235   0.878   0.870 -0.0982  0.4019 -0.4614
  789MOL0     C 8774   8.378   0.892   0.908  0.3148  0.0712  0.1869
  789MOL0     O 8775   8.460   0.948   0.823 -0.0549 -0.2495  0.7813
  789MOL0     C 8776   8.586   0.973   0.854 -0.3244  0.6560 -0.7336
  789MOL0     C 8777   8.688   0.949   0.764 -0.0258  0.6734 -0.2852
  789MOL0     C 8778   8.813   0.998   0.788 -0.0560 -0.5934 -0.8310
  789MOL0     C 8779   8.840   1.085   0.890  1.5374 -0.7955  0.1709
  789MOL0     O 8780   8.963   1.130   0.925  0.7925 -0.3333 -0.1919
  789MOL0     C 8781   9.086   1.093   0.865 -0.3435 -0.2065  0.3386
  789MOL0     C 8782   9.108   1.168   0.732  0.3677  0.5400 -0.9011
  789MOL0     C 8783   9.257   1.208   0.713 -0.2750  0.0999 -0.5916
  789MOL0     C 8784   9.274   1.246   0.565  0.4330  0.3150 -0.3790
  789MOL0     C 8785   9.414   1.254   0.529 -0.8736 -0.1343 -0.3973
  789MOL0     C 8786   9.419   1.357   0.417  0.1988 -0.8335 -0.9541
  789MOL0     C 8787   9.547   1.341   0.344 -0.5982  0.8472 -0.0379
  789MOL0     C 8788   9.569   1.441   0.231 -0.4233 -0.4588  0.2368
  789MOL0    Cl 8789   9.740   1.455   0.186 -0.3679 -0.1321 -0.2179
  789MOL0     C 8790   8.739   1.127   0.978  0.1266 -0.1351  0.5488
  789MOL0     C 8791   8.611   1.062   0.961  0.4285 -0.0602  0.2964
  789MOL0     O 8792   8.408   0.855   1.021  1.0174  0.0083  0.0311
  789MOL0     C 8793   8.181   0.950   0.764  0.5798  0.1111  1.4871
  789MOL0     C 8794   8.053   0.932   0.710  0.9820  0.0630 -0.7187
  789MOL0     N 8795   7.344   1.037   0.596 -1.6030 -0.2106 -0.3023
  789MOL0     N 8796   7.250   1.103   0.546  0.2690 -0.4313  0.1428
  789MOL0     C 8797   5.941   1.116   0.327  0.5472 -0.0413  0.9627
  789MOL0     C 8798   5.822   1.053   0.351 -0.0479 -0.3951  0.8272
  789MOL0     C 8799   5.561   0.743   0.573 -0.4754 -0.6193  0.9316
  789MOL0     C 8800   5.508   0.659   0.475  0.3797  0.4278 -0.0285
  789MOL0     C 8801   5.393   0.577   0.496 -0.7978 -0.3621 -1.2189
  789MOL0     C 8802   5.328   0.594   0.613  0.2637  0.2556 -0.0371
  789MOL0     O 8803   5.213   0.519   0.629 -0.2196  0.3295  0.4671
  789MOL0     C 8804   5.091   0.584   0.681 -0.2370 -0.4956  0.3345
  789MOL0     C 8805   5.049   0.700   0.583  0.1145 -0.3779 -0.0823
  789MOL0     C 8806   5.021   0.649   0.439  0.1529  0.2952 -0.4060
  789MOL0     C 8807   4.918   0.533   0.439 -0.0640  0.3418  0.3057
  789MOL0     C 8808   4.792   0.569   0.512  1.4761  0.2021  0.5029
  789MOL0     C 8809   4.683   0.574   0.570 -0.8190 -0.5740 -0.8521
  789MOL0     C 8810   5.364   0.693   0.700 -0.1300 -0.2309 -1.4705
  789MOL0     C 8811   5.481   0.770   0.686  0.5036 -0.3282 -0.7334
  789MOL0     C 8812   5.516   0.884   0.773  0.7195  0.4431 -0.4768
  789MOL0     H 8813   5.948   0.733   0.403 -0.6900 -0.1089  0.3518
  789MOL0     H 8814   6.161   0.857   0.357 -0.2441  0.3896  2.5839
  789MOL0     H 8815   6.312   0.995   0.409 -2.1397 -0.3522  1.3687
  789MOL0     H 8816   6.317   1.154   0.451  0.8580  1.6105 -1.9701
  789MOL0     H 8817   6.399   1.042   0.183  3.3166 -2.4684  2.0807
  789MOL0     H 8818   6.412   1.220   0.214 -2.1700  0.4505  0.6141
  789MOL0     H 8819   6.626   1.096   0.222 -1.3458 -2.1482 -0.9978
  789MOL0     H 8820   6.587   1.202   0.350  1.3829 -1.2836  0.8455
  789MOL0     H 8821   6.522   1.020   0.505  2.4233  0.5812  2.3768
  789MOL0     H 8822   6.551   0.895   0.378  0.3863  0.9729 -3.0943
  789MOL0     H 8823   6.749   0.903   0.531  0.9161 -0.7365 -1.1374
  789MOL0     H 8824   6.732   1.071   0.549  1.6963 -1.1599  0.3705
  789MOL0     H 8825   6.830   0.941   0.291  0.6414 -2.3080  0.8075
  789MOL0     H 8826   6.830   1.112   0.340 -4.5446 -1.4194  0.2865
  789MOL0     H 8827   7.052   1.012   0.362  0.1501 -2.6590 -0.4623
  789MOL0     H 8828   6.985   0.896   0.480 -2.6762 -0.2380 -1.1862
  789MOL0     H 8829   7.021   1.196   0.510 -4.0306  0.2313  0.4272
  789MOL0     H 8830   6.939   1.106   0.630  4.3509 -0.4388  4.1184
  789MOL0     H 8831   7.097   0.881   0.729  0.7076  0.5177  0.5405
  789MOL0     H 8832   7.342   0.775   0.802 -3.3870  0.6104 -1.9850
  789MOL0     H 8833   7.435   0.928   0.836 -2.4672  0.7593  1.2218
  789MOL0     H 8834   7.504   0.744   0.606 -0.3567  1.4348 -0.7470
  789MOL0     H 8835   7.583   0.899   0.652  0.6110  0.4466 -0.1531
  789MOL0     H 8836   7.651   0.807   0.877 -0.7809 -1.5392  1.6308
  789MOL0     H 8837   7.580   0.652   0.826  1.7123 -1.1802 -0.9903
  789MOL0     H 8838   7.813   0.643   0.799 -1.0284  0.6829  0.8312
  789MOL0     H 8839   7.771   0.673   0.631  1.7691  1.3656 -1.1614
  789MOL0     H 8840   7.957   0.704   0.939  0.7123 -1.0598  0.0790
  789MOL0     H 8841   8.080   0.654   1.092  0.4377 -0.2250  0.8761
  789MOL0     H 8842   8.175   0.793   1.153  0.7980 -2.6008  1.5842
  789MOL0     H 8843   8.257   0.656   1.075 -0.3097 -0.6455 -0.4829
  789MOL0     H 8844   8.692   0.889   0.673  2.8842  1.4041 -0.7580
  789MOL0     H 8845   8.892   0.983   0.715  2.9280  1.5104  1.7148
  789MOL0     H 8846   9.169   1.137   0.921  1.8074 -0.7923 -2.1646
  789MOL0     H 8847   9.109   0.987   0.851 -0.7185 -0.3604  0.8530
  789MOL0     H 8848   9.060   1.116   0.649 -0.2072  1.4161 -1.1405
  789MOL0     H 8849   9.052   1.262   0.744 -0.9726 -0.3595  0.3616
  789MOL0     H 8850   9.317   1.120   0.738 -0.4292  0.7125  2.2943
  789MOL0     H 8851   9.290   1.291   0.777 -4.2169  1.8726 -0.5760
  789MOL0     H 8852   9.221   1.341   0.549  0.5694  0.2056 -1.5986
  789MOL0     H 8853   9.226   1.181   0.492 -2.4304  2.0057 -0.1563
  789MOL0     H 8854   9.465   1.277   0.623 -1.9151 -2.3564  0.7857
  789MOL0     H 8855   9.450   1.157   0.493  0.8904  0.8176 -1.3508
  789MOL0     H 8856   9.409   1.460   0.454  2.8963 -1.1670  1.0675
  789MOL0     H 8857   9.341   1.344   0.342 -1.1608 -1.7692  0.5591
  789MOL0     H 8858   9.560   1.246   0.291 -0.2391 -0.1818  1.8382
  789MOL0     H 8859   9.628   1.350   0.416 -0.3109  3.7707 -0.5987
  789MOL0     H 8860   9.536   1.534   0.279  1.2411 -1.1371  2.9558
  789MOL0     H 8861   9.501   1.429   0.146 -0.1888  1.7047 -0.3148
  789MOL0     H 8862   8.758   1.205   1.051  0.4789  0.1171  0.1998
  789MOL0     H 8863   8.536   1.091   1.034  0.6469  2.2851 -0.3427
  789MOL0     H 8864   8.249   1.004   0.699 -3.8177  1.6307 -2.4600
  789MOL0     H 8865   8.022   0.989   0.623 -1.0145 -2.3707 -1.7523
  789MOL0     H 8866   5.946   1.222   0.305  1.8101 -0.6505 -2.3144
  789MOL0     H 8867   5.734   1.114   0.337  0.0544 -0.1797  1.1157
  789MOL0     H 8868   5.543   0.655   0.372  0.0565 -0.2950 -0.1186
  789MOL0     H 8869   5.346   0.519   0.418 -2.2912 -1.5299  0.4683
  789MOL0     H 8870   5.010   0.511   0.680  0.1300 -0.9157  1.0569
  789MOL0     H 8871   5.108   0.622   0.782 -0.5798  1.3358 -0.2634
  789MOL0     H 8872   5.136   0.766   0.578 -1.1165  1.2338 -1.2605
  789MOL0     H 8873   4.969   0.765   0.619  2.2064  1.8635  0.7755
  789MOL0     H 8874   4.993   0.723   0.363 -0.5154 -0.8701 -1.3195
  789MOL0     H 8875   5.114   0.615   0.392 -0.5794  0.9040 -2.3940
  789MOL0     H 8876   4.956   0.441   0.483 -0.8288 -2.1849 -3.7423
  789MOL0     H 8877   4.880   0.518   0.337 -1.1258 -2.1603  0.9819
  789MOL0     H 8878   4.595   0.586   0.631 -0.5754 -0.0356 -0.6027
  789MOL0     H 8879   5.302   0.711   0.787 -1.7479 -0.1901 -2.5886
  789MOL0     H 8880   5.433   0.908   0.839  3.3798  1.0212  2.9532
  789MOL0     H 8881   5.607   0.868   0.832  0.0489  1.2537  0.8235
  789MOL0     H 8882   5.535   0.978   0.721 -4.9026  1.7536 -0.8208
  790MOL0     O 8883   2.243   6.230  10.936  0.5318 -0.7758  0.8581
  790MOL0     C 8884   2.210   6.228  11.057  0.4540  0.0789  0.8216
  790MOL0     O 8885   2.291   6.240  11.158 -0.2806 -0.7331  0.1210
  790MOL0     C 8886   2.424   6.223  11.158  0.6755 -0.5893  0.4820
  790MOL0     C 8887   2.482   6.122  11.089 -0.1799 -0.7527  0.5066
  790MOL0     C 8888   2.623   6.097  11.101  0.6810  0.5290  0.4061
  790MOL0     C 8889   2.709   6.180  11.180 -0.5995 -0.4138 -0.1510
  790MOL0     O 8890   2.848   6.161  11.183 -0.0968  0.8869 -0.4734
  790MOL0     C 8891   2.914   6.170  11.059 -0.2536 -0.1730  0.1305
  790MOL0     C 8892   3.036   6.258  11.063 -0.3374  0.4867  0.1684
  790MOL0     C 8893   2.990   6.394  11.127 -0.0086 -0.8012 -0.3666
  790MOL0     C 8894   3.110   6.480  11.117  0.0988  0.4750 -0.4739
  790MOL0     C 8895   3.130   6.538  10.978 -0.3907 -0.6584  0.2598
  790MOL0     C 8896   3.268   6.600  10.964  0.3560 -0.3202 -0.4744
  790MOL0     C 8897   3.277   6.662  10.826  0.1797 -0.2844 -0.1362
  790MOL0     C 8898   3.230   6.808  10.826 -0.1815  0.5321 -0.4342
  790MOL0     N 8899   3.325   6.886  10.892 -0.1045  0.5824  0.2232
  790MOL0     C 8900   3.305   6.932  11.017  0.2861  0.7812  0.2209
  790MOL0     C 8901   3.425   6.988  11.050 -0.0609  0.5631  0.3017
  790MOL0     C 8902   3.457   7.064  11.178  0.9217  0.4240  0.7688
  790MOL0     C 8903   3.608   7.071  11.185 -0.7426 -0.8528 -0.5965
  790MOL0     C 8904   3.654   7.142  11.319  0.5750 -0.0545 -0.8837
  790MOL0     C 8905   3.805   7.153  11.314 -0.7911  0.4396  0.9201
  790MOL0     O 8906   3.861   7.015  11.324  0.0732  0.0663 -0.2749
  790MOL0     C 8907   3.993   7.007  11.357 -0.9279 -0.4058 -0.4536
  790MOL0     C 8908   4.036   6.878  11.374 -0.2480 -0.0170  0.4479
  790MOL0     C 8909   4.177   6.864  11.395  0.2320 -0.7732 -0.3026
  790MOL0     C 8910   4.221   6.726  11.416 -0.1465  0.3393  0.7444
  790MOL0     C 8911   4.272   6.976  11.407  0.4693  0.4135 -1.0676
  790MOL0     C 8912   4.413   6.964  11.435  0.7612  0.1268 -0.3853
  790MOL0     O 8913   4.487   7.072  11.395  0.0070 -0.2312  0.5125
  790MOL0     C 8914   4.623   7.065  11.401  0.7108 -0.3561  0.3091
  790MOL0     C 8915   4.697   7.123  11.503  0.0751  0.4828 -0.1558
  790MOL0     C 8916   4.834   7.115  11.497  0.4369  1.5429 -0.0682
  790MOL0     C 8917   4.899   7.034  11.406 -0.2296 -0.2814  0.3768
  790MOL0     O 8918   5.033   7.032  11.406  0.0545 -0.0444  0.3640
  790MOL0     C 8919   5.097   6.947  11.504 -0.1504 -0.6642 -1.1704
  790MOL0     C 8920   5.192   7.034  11.587  0.1448  0.5544  0.9031
  790MOL0     C 8921   5.341   7.043  11.547  0.5873 -0.3062 -0.4371
  790MOL0     C 8922   5.364   7.124  11.417  0.1610  0.6356 -0.4187
  790MOL0     C 8923   5.498   7.076  11.358 -0.7877 -0.6797  0.7924
  790MOL0     C 8924   5.626   7.113  11.438  0.1349  0.6512  0.1094
  790MOL0     C 8925   5.656   7.257  11.481 -0.5913 -0.3630  0.1170
  790MOL0     C 8926   5.735   7.278  11.610 -0.0354  0.2203 -0.0584
  790MOL0    Cl 8927   5.639   7.197  11.748 -0.4675  0.4268  0.4033
  790MOL0     C 8928   4.834   6.980  11.299 -0.4173 -0.4471  0.1591
  790MOL0     C 8929   4.697   7.006  11.296  0.1923  0.0420  0.1229
  790MOL0     O 8930   4.453   6.869  11.494 -0.2973 -0.0630  0.4391
  790MOL0     C 8931   4.216   7.099  11.392  0.0033 -0.5110 -0.3418
  790MOL0     C 8932   4.081   7.117  11.376  0.7106  0.0494  0.2538
  790MOL0     N 8933   3.516   6.955  10.951 -0.3888 -0.1993  0.0050
  790MOL0     N 8934   3.454   6.897  10.855  0.3923 -0.4605 -0.1431
  790MOL0     C 8935   2.651   6.284  11.249 -0.4974  0.2674 -0.4404
  790MOL0     C 8936   2.508   6.298  11.244 -0.2877 -0.0478  0.5980
  790MOL0     C 8937   2.069   6.235  11.088  0.2222 -0.2009 -1.0043
  790MOL0     C 8938   1.981   6.310  11.012 -0.6005 -0.1091  0.3152
  790MOL0     C 8939   1.842   6.311  11.031  0.1539 -0.1445 -1.0752
  790MOL0     C 8940   1.785   6.233  11.135  0.1815  0.3059  0.7893
  790MOL0     O 8941   1.645   6.217  11.146  0.5716 -0.3498  0.0294
  790MOL0     C 8942   1.569   6.344  11.151  0.3811  0.1847 -1.3123
  790MOL0     C 8943   1.453   6.324  11.259  0.0927 -0.4144  0.7980
  790MOL0     C 8944   1.500   6.254  11.391 -0.1723 -0.3644 -1.0839
  790MOL0     C 8945   1.417   6.301  11.511 -0.1485 -0.0362 -0.5297
  790MOL0     C 8946   1.469   6.242  11.636 -0.3411  0.1749 -0.1739
  790MOL0     C 8947   1.523   6.179  11.813  0.0275 -0.3171  0.1545
  790MOL0     C 8948   1.862   6.160  11.218  0.4429 -0.0293 -0.1455
  790MOL0     C 8949   2.006   6.164  11.192 -0.6049 -0.0855 -0.9410
  790MOL0     C 8950   2.087   6.073  11.285 -0.0762  0.2548 -0.2752
  790MOL0     H 8951   2.428   6.040  11.043  0.3960 -0.3668 -0.8980
  790MOL0     H 8952   2.649   6.004  11.052 -1.5588  0.2467 -0.3608
  790MOL0     H 8953   2.849   6.213  10.982  1.2414  0.7664 -0.6515
  790MOL0     H 8954   2.949   6.067  11.043  3.0820  0.8262  0.2230
  790MOL0     H 8955   3.118   6.215  11.122  0.2514 -0.0504 -1.0076
  790MOL0     H 8956   3.075   6.281  10.963  1.7788  2.4323  1.3478
  790MOL0     H 8957   2.909   6.432  11.064  0.5732  2.9487  0.8714
  790MOL0     H 8958   2.956   6.385  11.231 -0.4057  0.3740 -0.3732
  790MOL0     H 8959   3.105   6.560  11.192 -0.3560 -0.9487  1.0725
  790MOL0     H 8960   3.202   6.426  11.141 -2.1663 -3.9805 -0.6952
  790MOL0     H 8961   3.054   6.613  10.954 -0.7990 -1.3628 -0.7365
  790MOL0     H 8962   3.124   6.453  10.909 -2.0814 -0.6355  0.3338
  790MOL0     H 8963   3.293   6.680  11.035  1.1100 -1.1189  0.1766
  790MOL0     H 8964   3.344   6.521  10.972  0.7122  0.1509  1.4808
  790MOL0     H 8965   3.221   6.599  10.755  0.4710  0.3960 -0.9893
  790MOL0     H 8966   3.378   6.663  10.785 -0.4677 -0.7034 -1.8222
  790MOL0     H 8967   3.215   6.858  10.729 -0.2687  1.2609 -0.0481
  790MOL0     H 8968   3.130   6.811  10.869  0.0788 -1.7623  0.4782
  790MOL0     H 8969   3.212   6.915  11.071 -0.2355 -5.1423 -1.8077
  790MOL0     H 8970   3.413   7.017  11.267 -1.1960  3.3270  1.3845
  790MOL0     H 8971   3.419   7.166  11.175  1.9836  0.8418  1.0726
  790MOL0     H 8972   3.635   6.965  11.196 -1.6314 -1.3982 -3.0982
  790MOL0     H 8973   3.647   7.117  11.095  0.8575  0.6804  0.8038
  790MOL0     H 8974   3.604   7.239  11.328  0.5109 -0.0388 -1.3640
  790MOL0     H 8975   3.619   7.074  11.397 -0.8018  2.1578  0.5215
  790MOL0     H 8976   3.833   7.189  11.214 -0.0793  0.1308  1.0102
  790MOL0     H 8977   3.851   7.210  11.395  3.2524  0.4100 -1.1343
  790MOL0     H 8978   3.967   6.795  11.371 -0.5582  0.2646 -0.3927
  790MOL0     H 8979   4.302   6.693  11.352 -1.5410 -0.6019 -0.6082
  790MOL0     H 8980   4.138   6.656  11.400  1.9192 -3.1925  3.7170
  790MOL0     H 8981   4.244   6.717  11.523 -2.0445 -4.0462  1.0205
  790MOL0     H 8982   4.646   7.183  11.577 -1.6777 -2.5723  1.3304
  790MOL0     H 8983   4.886   7.175  11.571  1.4857  1.6705 -0.8885
  790MOL0     H 8984   5.030   6.895  11.573  1.8449 -0.5775  0.9721
  790MOL0     H 8985   5.164   6.869  11.468  0.0176 -1.6492  1.0919
  790MOL0     H 8986   5.155   7.135  11.606 -0.3922 -0.0875  3.7191
  790MOL0     H 8987   5.187   6.988  11.686 -1.1683  0.2260  0.7002
  790MOL0     H 8988   5.369   6.938  11.537  0.5360 -0.5632  1.5836
  790MOL0     H 8989   5.407   7.077  11.628 -1.5310 -0.2213  1.3316
  790MOL0     H 8990   5.379   7.232  11.426 -2.3208  0.8938  2.9192
  790MOL0     H 8991   5.287   7.104  11.342 -0.3291  1.9276 -0.2833
  790MOL0     H 8992   5.501   6.967  11.356  2.4586 -0.6894 -1.5764
  790MOL0     H 8993   5.507   7.126  11.261 -0.4002  1.9876  2.0934
  790MOL0     H 8994   5.702   7.089  11.362 -0.9130  0.6242 -0.9585
  790MOL0     H 8995   5.645   7.045  11.521 -0.5651  0.5409  0.1777
  790MOL0     H 8996   5.558   7.305  11.492 -0.6357  0.6754 -3.5377
  790MOL0     H 8997   5.707   7.306  11.398 -1.4662 -2.0457 -1.4732
  790MOL0     H 8998   5.740   7.385  11.632  0.5252  0.4990 -1.4433
  790MOL0     H 8999   5.836   7.239  11.599 -0.7089 -2.4997  2.2653
  790MOL0     H 9000   4.889   6.911  11.236  0.0760  0.4315 -0.3929
  790MOL0     H 9001   4.632   6.973  11.216 -1.1857  1.8729  0.4353
  790MOL0     H 9002   4.276   7.187  11.411 -1.8959  0.5702  0.8849
  790MOL0     H 9003   4.041   7.218  11.373 -1.6965 -0.7234  2.3785
  790MOL0     H 9004   2.709   6.352  11.310 -0.1690  0.5368 -1.0472
  790MOL0     H 9005   2.462   6.381  11.296  1.0711 -0.1895  2.1151
  790MOL0     H 9006   2.022   6.370  10.933  0.3871 -0.1537  0.7812
  790MOL0     H 9007   1.774   6.359  10.962 -1.0519  0.2235  0.3299
  790MOL0     H 9008   1.628   6.423  11.199  0.6683 -1.1639  0.6422
  790MOL0     H 9009   1.526   6.372  11.054  0.4124  1.1609 -1.0598
  790MOL0     H 9010   1.369   6.272  11.212 -0.4389 -0.8126  2.1227
  790MOL0     H 9011   1.415   6.425  11.276 -0.7497 -0.4862 -0.5501
  790MOL0     H 9012   1.497   6.145  11.386 -2.5764 -0.3003 -3.1504
  790MOL0     H 9013   1.602   6.295  11.393 -0.8435  1.6513 -3.2102
  790MOL0     H 9014   1.312   6.276  11.492 -0.0906 -2.6689  1.9282
  790MOL0     H 9015   1.429   6.409  11.508 -2.2115  0.2442 -0.0682
  790MOL0     H 9016   1.551   6.155  11.914 -1.1725  0.4649  0.6949
  790MOL0     H 9017   1.828   6.103  11.304 -0.7150 -0.0287 -0.5892
  790MOL0     H 9018   2.137   6.141  11.354  1.3541 -3.3445  2.5629
  790MOL0     H 9019   2.018   6.008  11.340  1.4204  0.3295  1.7860
  790MOL0     H 9020   2.159   6.011  11.231  0.7478 -2.6833  3.7524
  791MOL0     O 9021  10.845   1.385   6.966 -0.3112  0.1635  0.4372
  791MOL0     C 9022  10.753   1.341   7.042 -0.3364  0.1490  0.2310
  791MOL0     O 9023  10.740   1.211   7.077 -0.4161 -0.1563  0.0420
  791MOL0     C 9024  10.819   1.111   7.023  0.2652 -1.0262 -0.2850
  791MOL0     C 9025  10.853   0.999   7.097 -0.1554  0.4983  0.2708
  791MOL0     C 9026  10.919   0.895   7.040 -0.5940 -0.2103 -0.3945
  791MOL0     C 9027  10.963   0.887   6.909 -0.5507  0.2354  0.5214
  791MOL0     O 9028  11.043   0.778   6.871  0.0917  0.1155 -0.3647
  791MOL0     C 9029  11.080   0.763   6.737 -0.0202 -0.1001  0.1847
  791MOL0     C 9030  11.229   0.773   6.720  0.2054 -0.1527  0.5353
  791MOL0     C 9031  11.290   0.912   6.720  0.4146  0.4559  0.4231
  791MOL0     C 9032  11.427   0.908   6.773  0.9539  0.4756 -0.5692
  791MOL0     C 9033  11.447   0.876   6.927  0.6808  0.1238 -0.6598
  791MOL0     C 9034  11.349   0.938   7.030 -0.0914 -0.1313  0.3081
  791MOL0     C 9035  11.360   1.086   7.032  0.1348 -0.8478  0.1284
  791MOL0     C 9036  11.261   1.129   7.151 -0.0453  0.0949  0.1363
  791MOL0     N 9037  11.248   1.273   7.155 -0.1465 -0.0807 -0.5205
  791MOL0     C 9038  11.140   1.340   7.106  0.0293 -0.8586 -0.7435
  791MOL0     C 9039  11.157   1.464   7.150 -0.2307  0.7341  0.0730
  791MOL0     C 9040  11.061   1.573   7.105  0.4152  0.4753 -0.7059
  791MOL0     C 9041  11.125   1.703   7.091  0.8724 -0.6994 -0.2020
  791MOL0     C 9042  11.181   1.729   6.944 -0.1857 -0.2943 -0.7868
  791MOL0     C 9043  11.066   1.769   6.847  0.9552  0.1262  0.5367
  791MOL0     O 9044  11.114   1.769   6.706  0.1377  0.0221 -0.5560
  791MOL0     C 9045  11.145   1.894   6.654 -0.7034  0.5917  0.2768
  791MOL0     C 9046  11.175   2.011   6.719  0.4222 -0.0565  0.2163
  791MOL0     C 9047  11.230   2.123   6.654  0.5467 -0.6989 -0.1979
  791MOL0     C 9048  11.259   2.248   6.736 -0.1087  0.1298  0.5737
  791MOL0     C 9049  11.249   2.119   6.513 -0.2880 -0.6156  0.0427
  791MOL0     C 9050  11.326   2.223   6.438 -0.5660 -0.1228  0.2208
  791MOL0     O 9051  11.326   2.208   6.301 -0.2525 -0.1510  0.5659
  791MOL0     C 9052  11.432   2.267   6.223  0.3709  0.1994  0.1632
  791MOL0     C 9053  11.569   2.260   6.260 -0.9933 -0.1734  0.3164
  791MOL0     C 9054  11.669   2.318   6.177  0.4508  0.6538 -0.3621
  791MOL0     C 9055  11.629   2.384   6.059 -0.9890 -0.2959 -0.2150
  791MOL0     O 9056  11.741   2.422   5.976  0.0254 -0.6325 -0.1879
  791MOL0     C 9057  11.733   2.551   5.908  0.1057 -0.5820  0.5570
  791MOL0     C 9058  11.778   2.663   6.005 -0.1116 -0.3672 -0.3514
  791MOL0     C 9059  11.914   2.625   6.070  0.4424  0.1522  0.3934
  791MOL0     C 9060  11.980   2.737   6.146 -0.7380  0.7976  0.1731
  791MOL0     C 9061  12.134   2.714   6.154 -0.1453  0.1688  0.2242
  791MOL0     C 9062  12.202   2.810   6.249 -0.0346 -0.3787 -0.6435
  791MOL0     C 9063  12.353   2.813   6.238  0.4421  0.0339 -0.1746
  791MOL0     C 9064  12.412   2.908   6.340  0.0957 -0.1130 -0.2388
  791MOL0    Cl 9065  12.425   3.068   6.279 -0.3099  0.0191 -0.3148
  791MOL0     C 9066  11.502   2.386   6.022  0.4783  0.0839  0.0699
  791MOL0     C 9067  11.407   2.332   6.104 -0.2315  0.7117 -0.0273
  791MOL0     O 9068  11.398   2.309   6.503  0.7877  0.0105 -0.2107
  791MOL0     C 9069  11.211   2.002   6.440 -0.1984  0.3897  0.0661
  791MOL0     C 9070  11.168   1.893   6.518  1.0143  0.2896  0.6731
  791MOL0     N 9071  11.277   1.478   7.220  0.4009  0.4617 -0.6222
  791MOL0     N 9072  11.332   1.365   7.226  0.1599  0.5518 -0.3199
  791MOL0     C 9073  10.915   1.000   6.830 -0.2951 -0.4506 -0.7175
  791MOL0     C 9074  10.850   1.109   6.890 -1.0770  0.2677 -0.1845
  791MOL0     C 9075  10.649   1.439   7.082  0.2340  0.7755 -0.1009
  791MOL0     C 9076  10.654   1.574   7.067  0.2098  0.3687 -0.2093
  791MOL0     C 9077  10.563   1.668   7.126 -0.5392 -0.2612  0.8657
  791MOL0     C 9078  10.459   1.616   7.191 -0.7938  0.8883 -0.4564
  791MOL0     O 9079  10.371   1.698   7.263  0.0341 -0.1565  0.8172
  791MOL0     C 9080  10.235   1.693   7.219 -0.0536  0.8184 -0.3886
  791MOL0     C 9081  10.154   1.791   7.300  1.3648  0.4465 -0.1692
  791MOL0     C 9082  10.153   1.755   7.446 -0.4022  0.0754  0.0135
  791MOL0     C 9083  10.079   1.857   7.534  1.5156 -1.6087  0.3843
  791MOL0     C 9084   9.948   1.896   7.477 -0.6630  0.5603 -0.2182
  791MOL0     C 9085   9.840   1.930   7.446  0.3048 -0.1669  0.1669
  791MOL0     C 9086  10.438   1.482   7.195 -0.1468  1.1034  0.1217
  791MOL0     C 9087  10.526   1.387   7.141 -0.6668 -0.0829  0.0128
  791MOL0     C 9088  10.477   1.240   7.139  0.5339 -0.4421  0.2423
  791MOL0     H 9089  10.818   0.989   7.199  1.2798 -1.4568  0.6245
  791MOL0     H 9090  10.950   0.812   7.103 -1.9847  0.9710  2.0278
  791MOL0     H 9091  11.033   0.835   6.670 -3.7094 -2.3798  0.0793
  791MOL0     H 9092  11.046   0.666   6.700 -1.4563  0.0369  1.0554
  791MOL0     H 9093  11.283   0.701   6.783  0.2988  0.6660  1.4162
  791MOL0     H 9094  11.242   0.733   6.620  1.2595  2.2611 -0.3798
  791MOL0     H 9095  11.288   0.933   6.613 -0.7442 -1.5271  0.0111
  791MOL0     H 9096  11.241   0.987   6.783 -0.2189  1.5298 -1.2809
  791MOL0     H 9097  11.494   0.842   6.717  0.4762  1.5659 -2.5132
  791MOL0     H 9098  11.458   1.011   6.754 -3.1984  1.3762 -3.9325
  791MOL0     H 9099  11.549   0.913   6.946  0.2662  0.5942  0.7767
  791MOL0     H 9100  11.436   0.767   6.935 -1.6836  0.4482  3.0328
  791MOL0     H 9101  11.245   0.906   7.015 -1.2826  0.9504  4.5620
  791MOL0     H 9102  11.381   0.907   7.130 -0.3933 -5.0270 -0.8323
  791MOL0     H 9103  11.327   1.130   6.938 -2.4560 -3.6667 -0.4082
  791MOL0     H 9104  11.457   1.116   7.074 -0.4291 -0.9273  1.5602
  791MOL0     H 9105  11.166   1.076   7.144  0.6642 -1.1732 -0.2326
  791MOL0     H 9106  11.309   1.090   7.242  2.5154  3.2353  0.2894
  791MOL0     H 9107  11.054   1.296   7.055 -0.5022 -1.5424  0.7060
  791MOL0     H 9108  10.974   1.584   7.170 -0.1144  1.9076 -1.6060
  791MOL0     H 9109  11.009   1.545   7.013  0.1780 -0.1217 -0.3984
  791MOL0     H 9110  11.053   1.785   7.101  1.6366  0.2728 -2.2635
  791MOL0     H 9111  11.206   1.720   7.163 -0.3488 -1.4140  1.4209
  791MOL0     H 9112  11.257   1.808   6.939 -0.9927  0.5378 -0.3238
  791MOL0     H 9113  11.232   1.637   6.914  1.5946 -0.4265  2.2384
  791MOL0     H 9114  10.988   1.693   6.863  3.1134 -2.3658 -0.0976
  791MOL0     H 9115  11.030   1.869   6.874  2.3081  0.7528  0.1006
  791MOL0     H 9116  11.165   2.023   6.826  0.9989  3.1658 -0.0037
  791MOL0     H 9117  11.366   2.271   6.731 -0.0540  0.1783  1.7052
  791MOL0     H 9118  11.233   2.232   6.841  0.8901  1.3378  1.0277
  791MOL0     H 9119  11.210   2.341   6.706 -1.9574 -0.3029  2.0304
  791MOL0     H 9120  11.599   2.203   6.347  1.5975 -1.7505 -1.4727
  791MOL0     H 9121  11.772   2.301   6.204 -0.3862 -3.5118  0.8225
  791MOL0     H 9122  11.804   2.551   5.825 -1.6040  3.8254 -1.2172
  791MOL0     H 9123  11.635   2.564   5.860 -0.0447  0.8657  1.2060
  791MOL0     H 9124  11.795   2.753   5.944  2.3908 -1.1996 -0.9977
  791MOL0     H 9125  11.704   2.692   6.079  1.3692 -0.0044  1.0491
  791MOL0     H 9126  11.969   2.573   5.991 -0.0529  1.5462 -0.9067
  791MOL0     H 9127  11.884   2.549   6.143  1.6639  0.6052  1.3913
  791MOL0     H 9128  11.944   2.737   6.249  2.9020 -1.3024  1.6231
  791MOL0     H 9129  11.967   2.837   6.104  1.9637  1.9893  1.9601
  791MOL0     H 9130  12.167   2.613   6.181  0.1217  0.0786 -0.4292
  791MOL0     H 9131  12.174   2.725   6.053  1.3372  1.1031  0.8908
  791MOL0     H 9132  12.167   2.775   6.346 -0.1716 -1.9697 -1.2296
  791MOL0     H 9133  12.168   2.913   6.233 -1.2257 -0.5143  0.7608
  791MOL0     H 9134  12.400   2.831   6.140  0.4404 -2.1562 -0.6160
  791MOL0     H 9135  12.386   2.713   6.267  4.2167  1.2544  0.1785
  791MOL0     H 9136  12.514   2.871   6.352  0.6053  0.9092 -1.2360
  791MOL0     H 9137  12.352   2.897   6.431 -0.1095 -0.2602 -0.3913
  791MOL0     H 9138  11.457   2.424   5.931  0.2269  2.1583  1.0062
  791MOL0     H 9139  11.303   2.332   6.074 -0.1110 -0.4878 -0.4660
  791MOL0     H 9140  11.252   1.997   6.339  0.9692  1.9335  0.4220
  791MOL0     H 9141  11.149   1.798   6.468  1.9766  0.5671 -0.2779
  791MOL0     H 9142  10.954   1.005   6.729  2.3173 -1.1674  0.1747
  791MOL0     H 9143  10.808   1.193   6.835  0.2529  1.2957  0.3124
  791MOL0     H 9144  10.749   1.609   7.027  0.0004 -2.2248 -3.3772
  791MOL0     H 9145  10.581   1.772   7.103  2.1839 -0.8674 -0.0622
  791MOL0     H 9146  10.238   1.730   7.116 -0.2088 -0.0469 -0.7047
  791MOL0     H 9147  10.196   1.592   7.210 -0.4562  1.0979 -2.0385
  791MOL0     H 9148  10.051   1.769   7.271 -0.5075  1.1204  4.9611
  791MOL0     H 9149  10.173   1.898   7.285  0.5424  0.5946 -0.1930
  791MOL0     H 9150  10.111   1.658   7.475  1.7001 -0.2783  2.2562
  791MOL0     H 9151  10.252   1.762   7.494  0.3075  3.2262 -1.6198
  791MOL0     H 9152  10.137   1.950   7.535  2.0112 -1.8897 -0.5922
  791MOL0     H 9153  10.054   1.824   7.635  0.2027 -0.8726  0.3168
  791MOL0     H 9154   9.736   1.948   7.427  0.1424  1.7386  2.3826
  791MOL0     H 9155  10.349   1.463   7.254 -0.6229  2.1004 -0.2646
  791MOL0     H 9156  10.377   1.231   7.182  0.9775  0.6142  1.5257
  791MOL0     H 9157  10.482   1.202   7.036 -2.7871  1.6256 -0.8507
  791MOL0     H 9158  10.546   1.198   7.212  0.6686  0.5680  0.7140
  792MOL0     O 9159   6.273   8.347   1.279 -0.9137  0.1055  0.3423
  792MOL0     C 9160   6.178   8.269   1.279 -0.1827 -0.0502  0.3354
  792MOL0     O 9161   6.146   8.193   1.391  0.2565  0.0776  0.5247
  792MOL0     C 9162   6.239   8.139   1.476  0.2767  0.7945 -0.0713
  792MOL0     C 9163   6.375   8.096   1.433 -0.1175 -0.6995  0.3764
  792MOL0     C 9164   6.456   8.045   1.529  0.1398  0.2810  0.2960
  792MOL0     C 9165   6.421   8.033   1.660  0.8853  0.4567 -0.2254
  792MOL0     O 9166   6.508   7.988   1.750 -0.3019  0.5128 -0.4988
  792MOL0     C 9167   6.477   7.885   1.848 -0.2502  0.4858 -0.0314
  792MOL0     C 9168   6.580   7.771   1.816 -0.4422  0.3468  0.5279
  792MOL0     C 9169   6.723   7.817   1.858  0.8778  0.4292  0.6963
  792MOL0     C 9170   6.810   7.694   1.843  0.4864 -0.2092  0.3763
  792MOL0     C 9171   6.955   7.713   1.885 -0.0039  0.3448  0.6862
  792MOL0     C 9172   7.028   7.813   1.787  0.6858 -0.4164 -0.9094
  792MOL0     C 9173   7.172   7.795   1.810  0.0187  0.5389  0.2875
  792MOL0     C 9174   7.259   7.877   1.717  0.2009 -0.2006  0.3350
  792MOL0     N 9175   7.284   7.814   1.588  0.1169 -0.8007 -0.2003
  792MOL0     C 9176   7.377   7.717   1.562 -1.0174 -0.3672  0.0326
  792MOL0     C 9177   7.378   7.699   1.428  0.2909  0.2398 -0.2827
  792MOL0     C 9178   7.479   7.625   1.356 -0.7407 -0.0561 -0.6697
  792MOL0     C 9179   7.592   7.723   1.324 -0.3501  0.3417 -0.5711
  792MOL0     C 9180   7.560   7.820   1.208  0.3553 -0.6802  0.7642
  792MOL0     C 9181   7.672   7.842   1.112 -0.2781 -0.4093 -0.4454
  792MOL0     O 9182   7.795   7.901   1.171 -0.3447 -0.1910 -0.1383
  792MOL0     C 9183   7.912   7.867   1.116  0.3971  0.1286 -0.5601
  792MOL0     C 9184   8.026   7.899   1.187 -0.5140  0.1441 -0.5516
  792MOL0     C 9185   8.157   7.870   1.136 -0.3450  0.0716 -0.6094
  792MOL0     C 9186   8.270   7.913   1.231  0.3129 -0.2447 -0.6323
  792MOL0     C 9187   8.175   7.800   1.013 -0.4402 -0.3800 -0.1770
  792MOL0     C 9188   8.305   7.762   0.951 -0.2947 -0.3211  0.1257
  792MOL0     O 9189   8.305   7.735   0.811 -0.4593  0.3855  0.1477
  792MOL0     C 9190   8.409   7.673   0.749  0.3112 -0.4545 -0.7120
  792MOL0     C 9191   8.474   7.556   0.799  0.0838  0.2941 -0.1795
  792MOL0     C 9192   8.590   7.515   0.745 -0.3672  0.2110  0.1747
  792MOL0     C 9193   8.651   7.574   0.639 -0.3260 -0.2848  0.3061
  792MOL0     O 9194   8.777   7.532   0.607 -0.3742 -0.0837  1.3347
  792MOL0     C 9195   8.807   7.539   0.469  0.0913 -0.0224 -0.1698
  792MOL0     C 9196   8.922   7.449   0.423  0.0152 -0.0552 -0.0361
  792MOL0     C 9197   9.056   7.502   0.474 -0.6424  0.4040  0.4560
  792MOL0     C 9198   9.171   7.433   0.395  0.9747  0.2112 -0.2494
  792MOL0     C 9199   9.308   7.468   0.444  0.5103  0.0194 -0.3093
  792MOL0     C 9200   9.406   7.377   0.368  0.1779 -0.2182 -0.1902
  792MOL0     C 9201   9.546   7.392   0.414 -0.6136 -0.5862 -0.7066
  792MOL0     C 9202   9.651   7.291   0.376 -0.1604 -0.2523  0.0202
  792MOL0    Cl 9203   9.627   7.130   0.446  0.4036  0.0696 -0.4592
  792MOL0     C 9204   8.586   7.692   0.587 -0.0870  0.2484 -0.4661
  792MOL0     C 9205   8.465   7.738   0.644 -0.3689 -0.1441 -0.2894
  792MOL0     O 9206   8.395   7.722   1.031  0.5252  0.4908 -0.9753
  792MOL0     C 9207   8.058   7.784   0.937 -0.5544 -0.3616  0.1028
  792MOL0     C 9208   7.929   7.819   0.987  0.0298  0.3868 -0.4369
  792MOL0     N 9209   7.267   7.765   1.380 -0.8360  0.6527  0.4418
  792MOL0     N 9210   7.210   7.824   1.477  0.4008 -0.0522 -0.2963
  792MOL0     C 9211   6.290   8.061   1.698  0.6334 -0.2325  0.3347
  792MOL0     C 9212   6.197   8.120   1.610 -0.0548  0.4424  0.1776
  792MOL0     C 9213   6.088   8.258   1.156 -0.0896  0.2025 -0.7784
  792MOL0     C 9214   5.988   8.156   1.147 -0.6781  0.5433 -0.0549
  792MOL0     C 9215   5.907   8.135   1.036  0.1134  0.1670  0.0392
  792MOL0     C 9216   5.916   8.229   0.934  0.1335 -0.1544 -0.0679
  792MOL0     O 9217   5.821   8.208   0.834  0.5212 -0.8282  0.1634
  792MOL0     C 9218   5.812   8.293   0.718 -1.0622  0.0695  0.2870
  792MOL0     C 9219   5.725   8.226   0.608  0.1666  0.0278  0.6568
  792MOL0     C 9220   5.575   8.269   0.632  0.6101  0.7535  0.7220
  792MOL0     C 9221   5.476   8.210   0.521 -0.1289  1.0225 -0.2939
  792MOL0     C 9222   5.521   8.270   0.392  0.0538  0.3080  0.3052
  792MOL0     C 9223   5.558   8.323   0.293  0.8270 -0.1226  1.1818
  792MOL0     C 9224   6.005   8.333   0.944 -0.8524  0.2025  0.4232
  792MOL0     C 9225   6.098   8.344   1.041  0.2626  0.2302  0.0526
  792MOL0     C 9226   6.201   8.452   1.033  0.5946  0.3485 -0.5698
  792MOL0     H 9227   6.410   8.110   1.331  1.4122 -1.0103  0.8307
  792MOL0     H 9228   6.556   8.010   1.506 -0.4892 -0.7959 -0.9189
  792MOL0     H 9229   6.376   7.847   1.828  0.6244 -0.5957 -3.0548
  792MOL0     H 9230   6.496   7.914   1.951  2.0425 -1.8923  0.3096
  792MOL0     H 9231   6.548   7.671   1.846 -2.0118 -0.0304 -2.0077
  792MOL0     H 9232   6.601   7.753   1.710  1.1741 -1.2482  1.0903
  792MOL0     H 9233   6.750   7.900   1.791  0.7410  1.1317  1.4999
  792MOL0     H 9234   6.725   7.861   1.957  0.4471  0.6598  0.6009
  792MOL0     H 9235   6.768   7.613   1.904  0.3265 -1.9343 -1.9094
  792MOL0     H 9236   6.796   7.652   1.743 -2.3321 -1.0960  1.0388
  792MOL0     H 9237   7.001   7.615   1.868  2.2956  1.3781  0.6328
  792MOL0     H 9238   6.961   7.742   1.990 -0.6221 -0.0844  0.8461
  792MOL0     H 9239   7.002   7.795   1.683 -0.6538 -0.0483 -0.6500
  792MOL0     H 9240   6.994   7.914   1.809 -1.4543 -0.9620 -1.4639
  792MOL0     H 9241   7.201   7.690   1.795  0.4727  0.4826  1.4432
  792MOL0     H 9242   7.203   7.818   1.912 -0.3847 -1.0813  0.8024
  792MOL0     H 9243   7.232   7.980   1.697 -0.7660 -1.0132 -3.0943
  792MOL0     H 9244   7.353   7.890   1.771 -1.5345  2.5625  3.0412
  792MOL0     H 9245   7.446   7.671   1.632  0.1032  0.5276 -0.4451
  792MOL0     H 9246   7.444   7.587   1.260 -1.9411  1.0948 -0.7216
  792MOL0     H 9247   7.517   7.551   1.427 -0.3956  2.2440  1.6870
  792MOL0     H 9248   7.622   7.775   1.416 -0.1977 -4.8246  2.7493
  792MOL0     H 9249   7.676   7.657   1.300 -1.4324 -2.8632  3.2572
  792MOL0     H 9250   7.483   7.773   1.148  0.7882 -1.5294  0.8600
  792MOL0     H 9251   7.525   7.916   1.246  0.7472 -0.4684  0.6032
  792MOL0     H 9252   7.690   7.741   1.073 -1.8456 -2.8757  4.4769
  792MOL0     H 9253   7.634   7.901   1.027  0.5758 -0.8377 -1.1492
  792MOL0     H 9254   8.019   7.949   1.282  0.7366 -2.7552  1.2035
  792MOL0     H 9255   8.234   7.995   1.293  1.8303 -0.7834  1.0771
  792MOL0     H 9256   8.354   7.963   1.183 -0.9964  0.9558 -1.7386
  792MOL0     H 9257   8.287   7.828   1.298  1.9406  2.5477  2.8419
  792MOL0     H 9258   8.422   7.508   0.882 -2.6859  0.8782 -1.4531
  792MOL0     H 9259   8.641   7.428   0.784 -0.5765  0.9846  2.3242
  792MOL0     H 9260   8.720   7.507   0.411  0.9774  0.5292 -1.8819
  792MOL0     H 9261   8.833   7.642   0.443 -1.9262  0.7084  0.5364
  792MOL0     H 9262   8.910   7.342   0.444  0.5362  0.1742  1.5784
  792MOL0     H 9263   8.923   7.460   0.314  1.1639  1.2091  0.0671
  792MOL0     H 9264   9.058   7.456   0.574  0.6720 -1.8341 -0.5220
  792MOL0     H 9265   9.071   7.610   0.476  1.5688  0.1551 -0.3335
  792MOL0     H 9266   9.164   7.455   0.289  2.8991  2.3714 -0.0134
  792MOL0     H 9267   9.144   7.328   0.410 -2.7192  0.9058 -1.2255
  792MOL0     H 9268   9.334   7.572   0.425  0.4580 -0.0894 -0.9754
  792MOL0     H 9269   9.316   7.443   0.551 -0.9044  0.0006 -0.1828
  792MOL0     H 9270   9.388   7.413   0.266 -0.3333  1.5363  0.4893
  792MOL0     H 9271   9.375   7.272   0.372 -2.0900  0.3519 -0.9969
  792MOL0     H 9272   9.544   7.393   0.523 -0.3186  0.2746 -0.7035
  792MOL0     H 9273   9.584   7.488   0.378  1.6343 -0.6735  1.2180
  792MOL0     H 9274   9.745   7.334   0.411  0.4309 -1.6276  0.1938
  792MOL0     H 9275   9.671   7.272   0.270 -1.0760 -1.7804  0.0796
  792MOL0     H 9276   8.645   7.734   0.506  0.0033 -1.1597 -1.1548
  792MOL0     H 9277   8.411   7.827   0.612  2.1210  1.1410 -1.1579
  792MOL0     H 9278   8.063   7.759   0.831  1.2400 -0.1237  0.0983
  792MOL0     H 9279   7.848   7.794   0.920  0.3626 -1.6600 -0.1433
  792MOL0     H 9280   6.259   8.045   1.801 -1.8863 -0.1568 -0.3357
  792MOL0     H 9281   6.103   8.153   1.652  0.3744 -1.0989  2.5263
  792MOL0     H 9282   5.967   8.088   1.229  0.5187 -0.0057 -0.1888
  792MOL0     H 9283   5.827   8.062   1.033  0.4926 -0.2318 -0.5733
  792MOL0     H 9284   5.762   8.386   0.745 -1.4311  0.6068 -2.0922
  792MOL0     H 9285   5.912   8.316   0.679 -0.9970  0.4092  0.6455
  792MOL0     H 9286   5.733   8.117   0.611  4.7832  0.2043  3.1065
  792MOL0     H 9287   5.752   8.264   0.508 -3.2957  3.9851  0.9419
  792MOL0     H 9288   5.544   8.241   0.733 -0.2269 -1.3708 -0.0569
  792MOL0     H 9289   5.584   8.377   0.623  1.1516  0.6201 -0.5530
  792MOL0     H 9290   5.374   8.245   0.538 -0.2698  0.8290 -0.7450
  792MOL0     H 9291   5.493   8.103   0.504  1.9408  0.9676  1.6475
  792MOL0     H 9292   5.592   8.378   0.207  0.7879 -1.2788  0.4055
  792MOL0     H 9293   6.013   8.408   0.866  1.5578  1.2999  1.6295
  792MOL0     H 9294   6.191   8.473   0.926 -1.7889 -0.3473 -0.5422
  792MOL0     H 9295   6.175   8.543   1.088  1.9720 -0.3345  1.3093
  792MOL0     H 9296   6.300   8.415   1.062  0.0481  1.2427  2.9884
  793MOL0     O 9297   5.085   9.498   0.890 -0.0798 -0.3311 -0.3591
  793MOL0     C 9298   5.007   9.495   0.984 -0.0279  0.7932  0.2327
  793MOL0     O 9299   5.026   9.563   1.103 -0.0952  0.0890 -0.5360
  793MOL0     C 9300   5.131   9.654   1.123 -0.0708 -0.4517 -0.9025
  793MOL0     C 9301   5.215   9.641   1.234  0.2377 -1.0335  0.0150
  793MOL0     C 9302   5.310   9.740   1.268  0.1992  1.1663 -0.3595
  793MOL0     C 9303   5.334   9.848   1.177  0.0080  0.5561  0.8744
  793MOL0     O 9304   5.425   9.937   1.223 -0.4769 -0.1628 -0.0411
  793MOL0     C 9305   5.461  10.053   1.142  1.3761 -0.0110 -0.2523
  793MOL0     C 9306   5.578  10.131   1.210 -0.8729  0.5850 -0.3568
  793MOL0     C 9307   5.708  10.042   1.228  0.0150 -1.1881  0.4875
  793MOL0     C 9308   5.826  10.132   1.240  0.1216 -0.3950  0.0408
  793MOL0     C 9309   5.937  10.056   1.313  0.2704  0.1021  0.2904
  793MOL0     C 9310   6.055  10.137   1.363 -0.1474 -0.1427  0.0143
  793MOL0     C 9311   6.155  10.047   1.439 -0.5546 -0.1107  0.1950
  793MOL0     C 9312   6.276  10.134   1.501  0.5281  0.0873 -0.6478
  793MOL0     N 9313   6.407  10.128   1.434 -1.0466  0.1176  0.0963
  793MOL0     C 9314   6.450  10.173   1.313  0.2619  0.5411  0.6832
  793MOL0     C 9315   6.583  10.131   1.310  0.4956 -0.6434  0.1642
  793MOL0     C 9316   6.678  10.164   1.196  0.5494 -0.7080  0.2918
  793MOL0     C 9317   6.804  10.222   1.250  0.3066 -0.2567  0.3243
  793MOL0     C 9318   6.778  10.358   1.326  0.1812  0.0556 -0.2048
  793MOL0     C 9319   6.897  10.400   1.416  0.1889 -0.7417 -0.5506
  793MOL0     O 9320   7.019  10.436   1.349  0.4499 -0.2653 -0.1727
  793MOL0     C 9321   7.104  10.508   1.427  0.4137 -0.2321  0.3681
  793MOL0     C 9322   7.209  10.450   1.494 -0.6941 -0.4173  0.0212
  793MOL0     C 9323   7.305  10.522   1.568 -0.3485  0.7313  0.4093
  793MOL0     C 9324   7.392  10.437   1.657  0.1076 -0.3209  0.8984
  793MOL0     C 9325   7.291  10.662   1.570 -0.2638  0.1617 -0.8610
  793MOL0     C 9326   7.382  10.751   1.649 -0.0523  0.2703 -0.2895
  793MOL0     O 9327   7.360  10.889   1.630 -0.6174  0.0787  0.0103
  793MOL0     C 9328   7.453  10.985   1.674  0.3489  0.8247  0.1707
  793MOL0     C 9329   7.582  10.960   1.698  0.1711 -0.1580  0.3349
  793MOL0     C 9330   7.664  11.061   1.752  0.0368 -0.6264 -0.5877
  793MOL0     C 9331   7.612  11.186   1.791  0.3147 -0.9030  0.4041
  793MOL0     O 9332   7.694  11.269   1.862  0.0183  1.1242 -0.5292
  793MOL0     C 9333   7.641  11.384   1.935 -0.5846 -0.0247 -0.3114
  793MOL0     C 9334   7.642  11.520   1.844  0.1160 -0.1646 -0.9339
  793MOL0     C 9335   7.778  11.540   1.774  0.6257  0.1993 -0.0247
  793MOL0     C 9336   7.777  11.672   1.696 -0.0350 -0.4281 -0.2206
  793MOL0     C 9337   7.876  11.685   1.579  1.0125 -0.2527  0.2087
  793MOL0     C 9338   8.023  11.723   1.618  0.4622  0.2793 -0.4755
  793MOL0     C 9339   8.038  11.858   1.689  0.1858  0.2408  0.1178
  793MOL0     C 9340   8.174  11.934   1.668 -0.3829 -0.0287 -0.4943
  793MOL0    Cl 9341   8.217  11.984   1.502 -0.2335  0.1672 -0.2174
  793MOL0     C 9342   7.480  11.205   1.770  0.6043  0.0376 -0.4584
  793MOL0     C 9343   7.404  11.112   1.704  0.0860 -0.1767  0.4308
  793MOL0     O 9344   7.478  10.702   1.706  0.3351 -1.2911  0.4386
  793MOL0     C 9345   7.180  10.718   1.509  0.6198  0.5356 -0.7133
  793MOL0     C 9346   7.087  10.644   1.439 -0.5106 -0.2991 -0.5381
  793MOL0     N 9347   6.612  10.060   1.422  0.4491  0.3531  0.4182
  793MOL0     N 9348   6.509  10.057   1.492  0.7366 -0.1982  0.6235
  793MOL0     C 9349   5.258   9.859   1.062 -0.0433 -0.0079 -0.7933
  793MOL0     C 9350   5.152   9.770   1.042  0.2682 -0.0107  0.7100
  793MOL0     C 9351   4.866   9.439   0.980  0.5695  0.9804  0.7518
  793MOL0     C 9352   4.784   9.432   1.108 -0.2048  1.0223 -0.8320
  793MOL0     C 9353   4.658   9.377   1.122 -0.0347  0.1389  0.1983
  793MOL0     C 9354   4.597   9.344   1.003  0.7823 -0.0577 -0.6063
  793MOL0     O 9355   4.472   9.282   0.989  0.2092  0.7680  0.0182
  793MOL0     C 9356   4.389   9.253   1.106 -0.4340  0.8378  0.0623
  793MOL0     C 9357   4.244   9.233   1.059  0.3007  0.3487  0.4216
  793MOL0     C 9358   4.220   9.126   0.942 -0.0829  0.0425  0.6823
  793MOL0     C 9359   4.237   8.980   0.994  1.3770  1.2599  0.4309
  793MOL0     C 9360   4.190   8.885   0.882  0.5455  0.1071 -0.3433
  793MOL0     C 9361   4.140   8.806   0.806 -1.0032  0.0021  0.5664
  793MOL0     C 9362   4.661   9.357   0.881  0.6820  0.1337  0.3259
  793MOL0     C 9363   4.797   9.393   0.868  0.0507 -0.2921  0.7460
  793MOL0     C 9364   4.863   9.387   0.732 -0.3410 -0.1773  0.1732
  793MOL0     H 9365   5.196   9.558   1.301  2.4978 -0.9539  0.8559
  793MOL0     H 9366   5.370   9.738   1.358 -0.5758  1.3794  0.1711
  793MOL0     H 9367   5.372  10.112   1.117  1.1686 -1.1613 -2.3782
  793MOL0     H 9368   5.488  10.019   1.042  0.8454  2.2641 -1.2226
  793MOL0     H 9369   5.585  10.218   1.145 -1.7697 -0.9572 -2.6385
  793MOL0     H 9370   5.549  10.153   1.313 -1.0487 -0.0804 -0.2567
  793MOL0     H 9371   5.698   9.988   1.322  2.1840  0.6971  1.9057
  793MOL0     H 9372   5.719   9.966   1.149 -2.5416 -0.2731 -0.8590
  793MOL0     H 9373   5.865  10.156   1.141 -0.5059  3.6055  0.5669
  793MOL0     H 9374   5.801  10.224   1.295 -2.4588 -1.4225  0.7435
  793MOL0     H 9375   5.967   9.977   1.244 -0.5178  1.3470 -1.5563
  793MOL0     H 9376   5.904  10.009   1.406  0.3112 -1.1748 -0.3287
  793MOL0     H 9377   6.111  10.185   1.282  1.9957 -0.4151  1.2581
  793MOL0     H 9378   6.012  10.215   1.427 -2.7482  1.4756 -3.3581
  793MOL0     H 9379   6.204   9.978   1.370 -0.0983  0.4302 -0.0289
  793MOL0     H 9380   6.099   9.997   1.518 -1.2570 -0.6049 -0.5960
  793MOL0     H 9381   6.251  10.240   1.495  0.3868  0.0958  0.0405
  793MOL0     H 9382   6.297  10.095   1.601  0.8191  3.5821  0.7928
  793MOL0     H 9383   6.395  10.227   1.236  1.0740 -0.0138 -0.3158
  793MOL0     H 9384   6.633  10.240   1.132 -2.5949  0.1844  3.2605
  793MOL0     H 9385   6.702  10.077   1.134  0.8259  0.7566 -1.7548
  793MOL0     H 9386   6.862  10.149   1.308  1.8515  1.3090  0.8480
  793MOL0     H 9387   6.854  10.250   1.157 -0.4878  0.2568  0.0487
  793MOL0     H 9388   6.758  10.443   1.260  2.9556  0.0855 -1.1201
  793MOL0     H 9389   6.701  10.349   1.403  0.2795 -2.5471 -0.3137
  793MOL0     H 9390   6.864  10.483   1.478 -1.0075 -0.4857 -1.4727
  793MOL0     H 9391   6.916  10.309   1.473 -1.2075 -1.1276 -0.6422
  793MOL0     H 9392   7.206  10.342   1.506 -1.2845 -0.5991 -1.5497
  793MOL0     H 9393   7.365  10.332   1.645 -2.6246  0.4477 -0.4044
  793MOL0     H 9394   7.377  10.454   1.764  3.1085 -1.0947  1.5273
  793MOL0     H 9395   7.499  10.440   1.635  0.4328 -0.4875  2.3369
  793MOL0     H 9396   7.636  10.868   1.680  2.0042  0.1387  3.5687
  793MOL0     H 9397   7.762  11.019   1.772 -0.3303 -1.1643  0.1207
  793MOL0     H 9398   7.538  11.369   1.968 -0.2552 -0.5207  0.5077
  793MOL0     H 9399   7.698  11.400   2.027  1.8570 -4.0049 -0.9226
  793MOL0     H 9400   7.553  11.509   1.781 -1.0596  2.3675  0.1687
  793MOL0     H 9401   7.620  11.598   1.917  1.0325 -1.8984  1.3258
  793MOL0     H 9402   7.784  11.458   1.701 -2.3384 -0.0146 -0.1546
  793MOL0     H 9403   7.856  11.541   1.850  0.2025 -0.2358  0.4218
  793MOL0     H 9404   7.789  11.754   1.768  1.1579 -1.8305  1.2334
  793MOL0     H 9405   7.677  11.687   1.653 -0.8547  0.8800  1.9559
  793MOL0     H 9406   7.866  11.596   1.515 -1.5223  1.7159 -2.3735
  793MOL0     H 9407   7.833  11.768   1.523  0.2254  0.7355  2.1569
  793MOL0     H 9408   8.080  11.727   1.525 -0.3542  2.7403 -0.9291
  793MOL0     H 9409   8.064  11.646   1.685  0.7104 -0.5369 -1.5407
  793MOL0     H 9410   8.018  11.852   1.796 -0.3840 -0.5414 -0.0220
  793MOL0     H 9411   7.969  11.935   1.654 -0.7904  0.0980  1.6631
  793MOL0     H 9412   8.260  11.889   1.719 -1.3927  1.1637  2.4592
  793MOL0     H 9413   8.159  12.030   1.718  1.2755 -1.2837  2.6849
  793MOL0     H 9414   7.425  11.295   1.794  0.0759 -0.6627  1.0729
  793MOL0     H 9415   7.298  11.132   1.692 -0.0830 -0.8854  0.6789
  793MOL0     H 9416   7.159  10.824   1.525  0.4355  0.3119  0.6357
  793MOL0     H 9417   6.997  10.684   1.393 -2.1928 -0.2675  2.5514
  793MOL0     H 9418   5.269   9.945   0.997 -0.8333  0.0201 -0.9009
  793MOL0     H 9419   5.079   9.801   0.968  1.7193  2.1148  0.0780
  793MOL0     H 9420   4.834   9.447   1.203 -0.7847 -0.1747 -0.3257
  793MOL0     H 9421   4.616   9.361   1.221  2.5901 -3.4186  0.9409
  793MOL0     H 9422   4.420   9.164   1.161 -0.6125  1.3019  0.9399
  793MOL0     H 9423   4.394   9.332   1.182 -0.4369  0.8621  0.0374
  793MOL0     H 9424   4.203   9.330   1.032  0.7884  0.6456  0.7291
  793MOL0     H 9425   4.182   9.198   1.142 -0.7913 -0.7744 -0.8228
  793MOL0     H 9426   4.117   9.136   0.908 -0.0611 -0.4102  0.4828
  793MOL0     H 9427   4.288   9.152   0.860 -0.2880  1.0413  0.8154
  793MOL0     H 9428   4.179   8.957   1.084  0.1333  1.8036 -0.2079
  793MOL0     H 9429   4.340   8.953   1.018  0.1823 -1.0903  3.6720
  793MOL0     H 9430   4.088   8.745   0.735  0.3383  1.0833 -1.4682
  793MOL0     H 9431   4.610   9.322   0.792 -2.3260  1.0515  1.5504
  793MOL0     H 9432   4.805   9.333   0.657 -0.6618  1.1145 -0.5310
  793MOL0     H 9433   4.881   9.488   0.696  5.8526  0.3968  3.5871
  793MOL0     H 9434   4.962   9.342   0.738 -0.1276  0.2774  0.0908
  794MOL0     O 9435   4.336   1.682   7.465 -0.0580  0.6029 -0.4056
  794MOL0     C 9436   4.226   1.673   7.519 -0.0297  0.1174  0.0147
  794MOL0     O 9437   4.205   1.692   7.650  0.2644  0.6706 -0.2257
  794MOL0     C 9438   4.323   1.702   7.716  0.8510 -0.1591  0.8767
  794MOL0     C 9439   4.361   1.599   7.797 -0.0777 -0.1152 -0.0638
  794MOL0     C 9440   4.472   1.608   7.879 -0.3457 -0.4779  0.0341
  794MOL0     C 9441   4.553   1.727   7.880  0.2870  0.1910 -0.6286
  794MOL0     O 9442   4.659   1.757   7.963 -0.3732  0.4599  0.0298
  794MOL0     C 9443   4.701   1.655   8.053  0.2094  0.3984 -0.3968
  794MOL0     C 9444   4.820   1.566   8.007  0.4441 -1.2920  0.0644
  794MOL0     C 9445   4.937   1.656   7.953 -0.2958  0.5916 -0.0082
  794MOL0     C 9446   5.070   1.594   7.944  0.3090 -0.0116  0.2201
  794MOL0     C 9447   5.159   1.686   7.866 -0.4395 -0.4093  0.5390
  794MOL0     C 9448   5.306   1.634   7.831  0.2086 -0.3606  0.5395
  794MOL0     C 9449   5.384   1.738   7.756 -0.0891 -0.2442  0.4316
  794MOL0     C 9450   5.344   1.734   7.606 -0.4681 -1.0612  0.1738
  794MOL0     N 9451   5.389   1.610   7.541  0.4008 -0.3906  0.0101
  794MOL0     C 9452   5.513   1.605   7.491 -0.2375 -1.0767 -1.1443
  794MOL0     C 9453   5.519   1.493   7.417 -0.5183 -0.5065  0.3671
  794MOL0     C 9454   5.647   1.452   7.352  0.3051  0.3194  0.3886
  794MOL0     C 9455   5.656   1.501   7.202  0.0792 -0.5016  0.2315
  794MOL0     C 9456   5.793   1.448   7.147  0.2163 -0.5138 -0.1473
  794MOL0     C 9457   5.807   1.461   6.998  0.0403  0.2471 -0.3508
  794MOL0     O 9458   5.919   1.377   6.966  0.4033 -0.3857  0.1516
  794MOL0     C 9459   6.044   1.422   6.937 -0.1804 -0.2658 -0.7092
  794MOL0     C 9460   6.073   1.551   6.895 -0.0471 -0.2887 -0.3988
  794MOL0     C 9461   6.203   1.590   6.853 -0.4497 -0.4500  0.3208
  794MOL0     C 9462   6.216   1.730   6.795  0.2333  0.5043  0.1118
  794MOL0     C 9463   6.315   1.504   6.865 -0.2087  0.2694  1.1662
  794MOL0     C 9464   6.461   1.532   6.825 -0.4424 -0.3383 -0.1689
  794MOL0     O 9465   6.548   1.435   6.830 -0.2638 -0.3311 -0.4531
  794MOL0     C 9466   6.679   1.461   6.776 -0.0322  0.2707  1.4590
  794MOL0     C 9467   6.710   1.390   6.663  0.1595 -0.0862  0.1477
  794MOL0     C 9468   6.837   1.383   6.609 -0.4079 -1.2191  0.5310
  794MOL0     C 9469   6.941   1.465   6.661  0.0360 -0.9269 -0.4304
  794MOL0     O 9470   7.062   1.466   6.596 -0.0667  1.0305  0.5067
  794MOL0     C 9471   7.170   1.542   6.642  0.2048 -0.0355  0.4789
  794MOL0     C 9472   7.288   1.498   6.546 -0.4582 -0.9216  0.2140
  794MOL0     C 9473   7.407   1.593   6.573 -0.4381  0.0463  0.5844
  794MOL0     C 9474   7.538   1.546   6.498  0.6648 -1.4080 -0.0149
  794MOL0     C 9475   7.639   1.655   6.519 -0.4011 -0.2635  0.4171
  794MOL0     C 9476   7.778   1.634   6.449  0.1158  0.0579 -0.1107
  794MOL0     C 9477   7.876   1.750   6.463 -0.3845 -0.8420 -0.3355
  794MOL0     C 9478   7.909   1.800   6.599  0.3691 -0.6175 -0.1830
  794MOL0    Cl 9479   7.956   1.660   6.694 -0.0708 -0.3266 -0.2575
  794MOL0     C 9480   6.908   1.548   6.777 -0.4564 -0.0734  0.2595
  794MOL0     C 9481   6.781   1.538   6.829 -0.5717  0.0403 -0.0991
  794MOL0     O 9482   6.485   1.646   6.785  0.1791 -0.0308  0.5455
  794MOL0     C 9483   6.287   1.376   6.915 -0.4393  0.5301  0.6560
  794MOL0     C 9484   6.150   1.334   6.943  1.0068 -0.4015 -0.0340
  794MOL0     N 9485   5.394   1.430   7.429  0.3656 -0.8852 -0.3997
  794MOL0     N 9486   5.318   1.501   7.502  0.3462 -0.0603 -0.1693
  794MOL0     C 9487   4.504   1.835   7.811  1.0699 -0.7422  0.5075
  794MOL0     C 9488   4.391   1.828   7.724  0.1017  1.0837 -0.3385
  794MOL0     C 9489   4.110   1.629   7.428  0.5672 -0.1296 -1.1460
  794MOL0     C 9490   4.116   1.663   7.292  0.1078 -0.0214  0.7252
  794MOL0     C 9491   4.022   1.612   7.203 -0.3248 -0.3259  0.1697
  794MOL0     C 9492   3.908   1.541   7.245  0.0213  0.1866 -0.2667
  794MOL0     O 9493   3.807   1.511   7.157  0.0166 -0.3306 -0.0644
  794MOL0     C 9494   3.685   1.452   7.212 -0.0171  0.2603  1.4634
  794MOL0     C 9495   3.570   1.487   7.113 -0.0995  0.3965 -0.3989
  794MOL0     C 9496   3.578   1.408   6.984  0.2300  0.5846 -0.4559
  794MOL0     C 9497   3.480   1.459   6.881  0.6501  0.6243 -0.6622
  794MOL0     C 9498   3.485   1.376   6.757  0.4592 -0.3231 -0.6125
  794MOL0     C 9499   3.491   1.309   6.658 -0.1681  0.2962 -0.2712
  794MOL0     C 9500   3.903   1.508   7.383 -0.1177 -0.0502 -0.4272
  794MOL0     C 9501   3.999   1.546   7.477 -0.4351  0.2681 -0.4716
  794MOL0     C 9502   4.005   1.475   7.610  0.5088 -0.8138  0.0264
  794MOL0     H 9503   4.295   1.513   7.796 -0.2880  0.0442 -0.7226
  794MOL0     H 9504   4.510   1.522   7.933  0.9458  0.1742  0.2260
  794MOL0     H 9505   4.625   1.593   8.102  1.1633  0.2042  0.9063
  794MOL0     H 9506   4.748   1.709   8.136  1.4919 -0.4543 -0.5443
  794MOL0     H 9507   4.851   1.506   8.093  0.2437 -0.4275  0.7498
  794MOL0     H 9508   4.783   1.506   7.923 -0.7220 -2.0589  1.1061
  794MOL0     H 9509   4.907   1.697   7.856  1.2927 -1.3102 -1.3956
  794MOL0     H 9510   4.947   1.744   8.017  1.9069 -1.7448  3.1519
  794MOL0     H 9511   5.102   1.586   8.049 -0.2886 -3.4149  0.2455
  794MOL0     H 9512   5.066   1.498   7.892  0.4547  1.0968 -1.9578
  794MOL0     H 9513   5.165   1.776   7.927 -1.7744  0.1042 -0.0410
  794MOL0     H 9514   5.105   1.704   7.773  2.0481 -2.1749 -1.3998
  794MOL0     H 9515   5.349   1.628   7.931  1.4479  1.3471  0.1576
  794MOL0     H 9516   5.300   1.531   7.795 -1.5385 -1.8285  4.4362
  794MOL0     H 9517   5.490   1.711   7.757  1.2745  3.8386 -3.1588
  794MOL0     H 9518   5.379   1.838   7.800  0.4148  0.3598 -0.8309
  794MOL0     H 9519   5.234   1.736   7.603 -0.4396 -0.8101 -1.7858
  794MOL0     H 9520   5.397   1.814   7.554 -1.4932  0.3557  1.2043
  794MOL0     H 9521   5.586   1.684   7.508  1.0398 -2.5691  0.5994
  794MOL0     H 9522   5.647   1.342   7.353  2.2831  0.2812  0.6239
  794MOL0     H 9523   5.733   1.482   7.413  0.1555 -2.5183  2.1846
  794MOL0     H 9524   5.579   1.447   7.147 -2.8529  1.6602  1.8945
  794MOL0     H 9525   5.648   1.609   7.182  1.7611 -0.7794 -2.3309
  794MOL0     H 9526   5.874   1.501   7.198  0.4551 -2.2819  1.4165
  794MOL0     H 9527   5.796   1.347   7.189 -1.5307 -0.1124  1.0655
  794MOL0     H 9528   5.724   1.430   6.934 -1.5366  2.0396  0.7061
  794MOL0     H 9529   5.823   1.566   6.970  0.4165  0.5239  0.8330
  794MOL0     H 9530   5.990   1.620   6.890  0.0301 -0.0446  1.1413
  794MOL0     H 9531   6.293   1.778   6.855  0.2213  0.8338 -0.1330
  794MOL0     H 9532   6.124   1.786   6.814 -0.9424 -1.2773 -0.1190
  794MOL0     H 9533   6.239   1.731   6.688 -0.2665 -1.6419 -0.0686
  794MOL0     H 9534   6.636   1.318   6.629 -0.9606  1.1465 -0.0920
  794MOL0     H 9535   6.863   1.313   6.531 -2.1301 -1.6126  0.2743
  794MOL0     H 9536   7.151   1.650   6.634 -0.4599 -0.1992 -0.3273
  794MOL0     H 9537   7.192   1.527   6.748 -1.4291  1.5305  1.1002
  794MOL0     H 9538   7.318   1.397   6.574 -3.3985 -1.4973  1.6145
  794MOL0     H 9539   7.254   1.494   6.442 -1.4498  0.9156  0.4300
  794MOL0     H 9540   7.440   1.580   6.676  0.4934 -2.2116  0.0580
  794MOL0     H 9541   7.369   1.694   6.556  0.6493  1.1068  3.7122
  794MOL0     H 9542   7.535   1.528   6.391  3.1423 -0.7927 -0.2598
  794MOL0     H 9543   7.571   1.454   6.547  0.7551 -1.0936  0.5349
  794MOL0     H 9544   7.603   1.746   6.469  1.3094 -0.4689 -1.3401
  794MOL0     H 9545   7.662   1.673   6.625  0.6541  0.0646  0.1537
  794MOL0     H 9546   7.761   1.624   6.342 -1.2810  2.6614 -0.2145
  794MOL0     H 9547   7.831   1.546   6.487 -0.6691 -1.2048 -1.8290
  794MOL0     H 9548   7.834   1.829   6.400 -1.4824 -1.5585 -0.5326
  794MOL0     H 9549   7.972   1.712   6.426  1.0066  2.7645 -0.8581
  794MOL0     H 9550   7.824   1.848   6.648 -2.3213 -3.3014 -1.7834
  794MOL0     H 9551   7.992   1.869   6.589  1.2026 -1.8093 -2.1556
  794MOL0     H 9552   6.987   1.607   6.822 -0.4889  0.9676 -0.9886
  794MOL0     H 9553   6.771   1.586   6.926 -2.4546  1.4610 -0.9341
  794MOL0     H 9554   6.352   1.291   6.934  2.0079  1.5527 -2.2517
  794MOL0     H 9555   6.119   1.238   6.982 -3.7362  0.9090  0.0702
  794MOL0     H 9556   4.558   1.929   7.810  1.3555 -0.9048  0.1833
  794MOL0     H 9557   4.354   1.910   7.663 -0.8623  1.0363  0.1523
  794MOL0     H 9558   4.188   1.723   7.238 -3.6466  4.1064 -0.2229
  794MOL0     H 9559   4.030   1.636   7.098 -1.9111 -0.7319 -0.0592
  794MOL0     H 9560   3.695   1.344   7.207 -0.8640  0.1680  1.5099
  794MOL0     H 9561   3.662   1.489   7.312 -2.6765  0.4804  0.8665
  794MOL0     H 9562   3.562   1.594   7.090 -1.7961  0.2931 -0.3908
  794MOL0     H 9563   3.475   1.465   7.163 -0.4127 -1.6442 -1.8005
  794MOL0     H 9564   3.682   1.411   6.950  0.2279 -2.0049 -0.8661
  794MOL0     H 9565   3.548   1.306   7.009 -1.1764  1.3171  1.0708
  794MOL0     H 9566   3.513   1.561   6.860 -1.0185  1.2376 -0.4197
  794MOL0     H 9567   3.382   1.455   6.930  1.7305 -0.0779  1.5748
  794MOL0     H 9568   3.500   1.250   6.569  2.6289 -1.0401  0.7813
  794MOL0     H 9569   3.825   1.448   7.429  0.0630  0.8998  1.2332
  794MOL0     H 9570   3.966   1.542   7.687 -3.2255 -0.3730 -2.0168
  794MOL0     H 9571   3.953   1.380   7.602  0.5114 -0.7396 -0.9683
  794MOL0     H 9572   4.110   1.454   7.632  0.8619 -1.1663 -1.8525
  795MOL0     O 9573   4.047   1.202   1.903  0.6338 -0.5917  0.0499
  795MOL0     C 9574   4.030   1.242   1.787  0.3570  0.2360  0.2439
  795MOL0     O 9575   4.136   1.291   1.700  0.7543  0.7690  0.5146
  795MOL0     C 9576   4.256   1.306   1.755 -0.6580  1.1354 -0.2215
  795MOL0     C 9577   4.292   1.421   1.822 -0.0276 -0.3232  0.0290
  795MOL0     C 9578   4.424   1.435   1.873  0.3014 -0.0813 -0.6025
  795MOL0     C 9579   4.518   1.328   1.861  0.4211  0.0723 -0.4192
  795MOL0     O 9580   4.641   1.316   1.921  0.0828 -0.2573 -0.2736
  795MOL0     C 9581   4.676   1.411   2.019 -0.5708 -0.5103  0.1251
  795MOL0     C 9582   4.815   1.383   2.083 -0.9341  0.3735  0.9995
  795MOL0     C 9583   4.925   1.382   1.965 -0.8720 -0.8523  0.0140
  795MOL0     C 9584   5.057   1.365   2.046 -0.7442 -0.2205  0.7231
  795MOL0     C 9585   5.188   1.381   1.972  0.1008  0.2859 -0.3470
  795MOL0     C 9586   5.213   1.259   1.894 -0.3603  0.2088  0.9863
  795MOL0     C 9587   5.334   1.260   1.801 -0.0117 -0.0256 -0.2326
  795MOL0     C 9588   5.469   1.263   1.886  0.3048  0.2629 -0.9301
  795MOL0     N 9589   5.586   1.204   1.814 -1.0081  0.1330  0.8263
  795MOL0     C 9590   5.683   1.271   1.732  0.4426 -1.0673 -0.1325
  795MOL0     C 9591   5.735   1.176   1.656 -0.8118 -0.4121  0.2681
  795MOL0     C 9592   5.840   1.181   1.547 -0.5844  0.4032  0.1794
  795MOL0     C 9593   5.843   1.047   1.468  0.4686  0.0640  0.7772
  795MOL0     C 9594   5.958   1.052   1.363  0.2050  0.8254  0.5354
  795MOL0     C 9595   5.980   0.908   1.307  0.2167 -0.4443  0.2331
  795MOL0     O 9596   6.080   0.906   1.209  0.4337 -0.0901 -0.1672
  795MOL0     C 9597   6.209   0.901   1.256 -0.8026  1.0635  0.0594
  795MOL0     C 9598   6.256   0.902   1.390 -0.4843  0.4108 -0.1536
  795MOL0     C 9599   6.398   0.899   1.423 -0.2344 -0.5245 -1.1170
  795MOL0     C 9600   6.428   0.879   1.570 -0.3539  0.6728  0.2955
  795MOL0     C 9601   6.486   0.918   1.317  0.5787 -0.5883 -1.1628
  795MOL0     C 9602   6.625   0.937   1.334 -0.0774  0.3650 -1.1164
  795MOL0     O 9603   6.654   1.035   1.423 -0.0425 -0.7835 -0.2078
  795MOL0     C 9604   6.789   1.030   1.454  0.2617 -0.6278  0.6205
  795MOL0     C 9605   6.835   0.944   1.556  0.2058  1.1894  0.4499
  795MOL0     C 9606   6.970   0.930   1.593  0.5289  0.3183 -0.4498
  795MOL0     C 9607   7.060   1.009   1.530 -0.3927 -0.2964  0.2870
  795MOL0     O 9608   7.190   0.980   1.556 -0.3586  0.0816 -0.2613
  795MOL0     C 9609   7.276   1.088   1.593  0.3336  0.4993 -0.8720
  795MOL0     C 9610   7.418   1.050   1.630  0.2546 -0.6175 -0.0807
  795MOL0     C 9611   7.503   1.175   1.675  0.9191 -0.5293  0.8685
  795MOL0     C 9612   7.644   1.132   1.712 -0.1080  0.1661  0.7706
  795MOL0     C 9613   7.736   1.251   1.765  0.3020 -0.5968  0.0376
  795MOL0     C 9614   7.747   1.375   1.679 -0.0771 -1.1145 -0.5778
  795MOL0     C 9615   7.778   1.354   1.530 -0.0572  0.5442  0.6896
  795MOL0     C 9616   7.895   1.263   1.486  0.5896  0.2769  0.4132
  795MOL0    Cl 9617   8.045   1.315   1.557 -0.0834 -0.1762  0.0801
  795MOL0     C 9618   7.017   1.110   1.445  0.4985  0.3751 -0.1134
  795MOL0     C 9619   6.882   1.127   1.399  0.2209  0.0163 -1.2532
  795MOL0     O 9620   6.702   0.885   1.261  0.1204  0.4524  0.3620
  795MOL0     C 9621   6.436   0.916   1.188  0.1754  0.4221  0.4704
  795MOL0     C 9622   6.307   0.902   1.153 -0.2240  0.3186 -0.1483
  795MOL0     N 9623   5.677   1.058   1.692 -0.0946  0.0098 -0.9731
  795MOL0     N 9624   5.599   1.073   1.789  0.4534  0.0443 -0.2964
  795MOL0     C 9625   4.476   1.211   1.789  0.4480 -0.0187  0.5872
  795MOL0     C 9626   4.348   1.198   1.741 -0.3176 -0.1060 -0.2022
  795MOL0     C 9627   3.901   1.232   1.721 -0.0087 -0.5424  0.4985
  795MOL0     C 9628   3.836   1.352   1.701 -0.2186 -0.3292 -0.2269
  795MOL0     C 9629   3.720   1.370   1.627  0.4212 -0.0036 -0.3351
  795MOL0     C 9630   3.682   1.260   1.547 -0.1535 -0.5245 -0.3654
  795MOL0     O 9631   3.571   1.268   1.473  0.6356  0.0888 -0.4865
  795MOL0     C 9632   3.489   1.384   1.468  0.1929  1.0151 -0.5871
  795MOL0     C 9633   3.549   1.515   1.396  0.6722 -0.3077  0.0559
  795MOL0     C 9634   3.485   1.648   1.433 -0.6046  0.0435 -1.3577
  795MOL0     C 9635   3.474   1.682   1.584 -0.4532 -0.2976 -0.1343
  795MOL0     C 9636   3.378   1.794   1.606  0.2814  0.1760  0.3396
  795MOL0     C 9637   3.288   1.880   1.621  0.2226 -0.6893  0.4618
  795MOL0     C 9638   3.741   1.132   1.571  0.2469 -1.3910 -0.3908
  795MOL0     C 9639   3.862   1.126   1.642  1.0189 -0.1980  0.2506
  795MOL0     C 9640   3.946   1.002   1.629 -1.4524  0.3141  0.3854
  795MOL0     H 9641   4.222   1.504   1.824 -1.2133 -1.0441 -3.6005
  795MOL0     H 9642   4.446   1.530   1.922  0.0388  1.3474 -3.0894
  795MOL0     H 9643   4.603   1.399   2.100  0.5509 -2.4784  0.9242
  795MOL0     H 9644   4.675   1.513   1.979 -2.9611  0.1706  1.7273
  795MOL0     H 9645   4.848   1.452   2.161  1.3498 -0.8908  1.2435
  795MOL0     H 9646   4.819   1.282   2.123 -2.3793 -0.8278 -1.6629
  795MOL0     H 9647   4.915   1.296   1.897  0.8814 -1.0827 -0.0163
  795MOL0     H 9648   4.941   1.473   1.907 -1.5150 -1.0186 -0.4367
  795MOL0     H 9649   5.055   1.436   2.129 -1.0799  0.1427  0.4118
  795MOL0     H 9650   5.047   1.269   2.098  0.2747 -1.3635 -1.0924
  795MOL0     H 9651   5.275   1.399   2.037 -2.0517  2.9680  2.0308
  795MOL0     H 9652   5.179   1.468   1.906 -2.9338 -0.7694 -1.5148
  795MOL0     H 9653   5.224   1.175   1.963  0.8715 -0.4223  0.0564
  795MOL0     H 9654   5.124   1.242   1.832 -0.8770  1.2470  1.4130
  795MOL0     H 9655   5.328   1.343   1.729  0.4335  1.3192  1.2364
  795MOL0     H 9656   5.335   1.170   1.739  1.3652 -0.5123  0.4530
  795MOL0     H 9657   5.495   1.365   1.917  2.7177 -0.4425 -0.4077
  795MOL0     H 9658   5.453   1.200   1.974 -2.2784 -0.6753 -1.9806
  795MOL0     H 9659   5.702   1.378   1.724 -1.8039 -0.2668  3.0384
  795MOL0     H 9660   5.936   1.206   1.591 -0.9858  2.4102 -0.0038
  795MOL0     H 9661   5.816   1.267   1.485 -1.3400 -0.4504 -0.7512
  795MOL0     H 9662   5.849   0.957   1.530  2.7398  0.3320  1.0344
  795MOL0     H 9663   5.747   1.032   1.418  1.7964 -1.0845 -1.6235
  795MOL0     H 9664   5.942   1.119   1.278  0.7307  0.5564  0.2229
  795MOL0     H 9665   6.050   1.062   1.422  1.1792 -3.6110  0.0969
  795MOL0     H 9666   5.979   0.832   1.386 -1.4501 -0.4217  0.2748
  795MOL0     H 9667   5.885   0.885   1.257 -0.8389  1.0794  1.4341
  795MOL0     H 9668   6.189   0.894   1.476 -1.6186  0.6018 -0.9930
  795MOL0     H 9669   6.533   0.848   1.579 -0.5682 -1.0276 -2.0720
  795MOL0     H 9670   6.362   0.807   1.620 -1.8949  1.7033 -0.2017
  795MOL0     H 9671   6.406   0.973   1.620 -2.9381  0.5873 -0.5388
  795MOL0     H 9672   6.773   0.866   1.599  1.9950 -0.0860  0.8226
  795MOL0     H 9673   7.004   0.855   1.664 -2.4430 -0.9149 -0.1934
  795MOL0     H 9674   7.277   1.156   1.507 -2.1151  0.6462 -0.8543
  795MOL0     H 9675   7.231   1.133   1.681 -0.4399 -0.2177 -0.8859
  795MOL0     H 9676   7.419   0.977   1.712  0.7666 -0.7191 -0.1800
  795MOL0     H 9677   7.459   0.999   1.543 -3.3102  1.0575 -3.0392
  795MOL0     H 9678   7.457   1.227   1.759  0.0839 -2.4420  1.6416
  795MOL0     H 9679   7.510   1.243   1.589  0.8856 -0.5260  0.8686
  795MOL0     H 9680   7.694   1.075   1.634 -0.5280  1.3821 -0.4298
  795MOL0     H 9681   7.644   1.063   1.797 -0.1315 -1.8093 -0.7711
  795MOL0     H 9682   7.697   1.282   1.862 -0.4163  1.2222 -0.8057
  795MOL0     H 9683   7.834   1.208   1.788  0.9374  2.3058  3.6677
  795MOL0     H 9684   7.816   1.441   1.732 -2.6034  0.8451  0.4916
  795MOL0     H 9685   7.655   1.432   1.694 -0.0751 -1.7598  2.6881
  795MOL0     H 9686   7.781   1.449   1.475  0.9379  0.5844  0.8005
  795MOL0     H 9687   7.689   1.309   1.484  0.9880  1.2783 -2.2626
  795MOL0     H 9688   7.891   1.257   1.377 -2.6326 -2.1857  0.5324
  795MOL0     H 9689   7.870   1.163   1.523 -0.3042  0.5497  0.5718
  795MOL0     H 9690   7.097   1.173   1.407  0.3757  1.0470  0.6999
  795MOL0     H 9691   6.844   1.208   1.339 -2.5031 -1.7749 -2.1648
  795MOL0     H 9692   6.509   0.921   1.109 -0.3257 -3.1314 -0.3880
  795MOL0     H 9693   6.284   0.888   1.047  1.0893 -3.7751 -0.0978
  795MOL0     H 9694   4.543   1.125   1.794 -0.7986 -1.0331  0.5235
  795MOL0     H 9695   4.326   1.110   1.681 -2.3878 -1.1052  1.8321
  795MOL0     H 9696   3.868   1.439   1.757 -0.0419  0.6474 -1.7840
  795MOL0     H 9697   3.669   1.465   1.632  1.1948  0.4240 -0.3760
  795MOL0     H 9698   3.401   1.349   1.412  0.1432 -1.7913  1.0783
  795MOL0     H 9699   3.455   1.408   1.569 -0.0245  0.1277 -0.4442
  795MOL0     H 9700   3.527   1.500   1.290  1.7104  1.8837 -0.5269
  795MOL0     H 9701   3.658   1.526   1.404  0.8227 -0.4011 -1.5039
  795MOL0     H 9702   3.546   1.731   1.395  2.0602 -1.3956 -0.5044
  795MOL0     H 9703   3.389   1.656   1.382 -0.8606 -1.1248 -1.0737
  795MOL0     H 9704   3.569   1.718   1.625 -1.3967  1.7571  0.3838
  795MOL0     H 9705   3.431   1.596   1.634 -1.5569  0.5819  0.4704
  795MOL0     H 9706   3.216   1.960   1.624  1.1344  0.1256  1.5074
  795MOL0     H 9707   3.696   1.045   1.523  1.4901 -2.4689  0.3471
  795MOL0     H 9708   3.957   0.963   1.528 -4.0667  0.4082 -0.0077
  795MOL0     H 9709   4.047   1.016   1.667 -0.2077 -1.4414 -2.0460
  795MOL0     H 9710   3.910   0.910   1.677 -1.1053  0.3418  0.7029
  796MOL0     O 9711   0.692   0.975   7.644  0.5166 -0.3459 -0.5798
  796MOL0     C 9712   0.775   1.014   7.733 -0.4885 -0.6820 -0.1146
  796MOL0     O 9713   0.903   0.968   7.744  0.0360  0.3597  0.3655
  796MOL0     C 9714   0.948   0.875   7.657 -0.6848 -0.4490 -0.4334
  796MOL0     C 9715   1.052   0.914   7.572  0.4688 -0.1272  0.0671
  796MOL0     C 9716   1.092   0.829   7.470 -0.4694  0.7279 -0.1339
  796MOL0     C 9717   1.031   0.700   7.454 -0.8312  0.6646 -0.5071
  796MOL0     O 9718   1.082   0.612   7.365 -0.4106  0.2541  0.3640
  796MOL0     C 9719   1.153   0.501   7.426 -0.5408  0.3197 -0.3191
  796MOL0     C 9720   1.305   0.531   7.443  0.0404 -0.6792 -0.0203
  796MOL0     C 9721   1.362   0.566   7.299 -0.5094 -0.5630 -0.4122
  796MOL0     C 9722   1.369   0.446   7.194 -0.4226 -0.4487  0.5113
  796MOL0     C 9723   1.449   0.328   7.235 -0.5164  0.8497  0.9818
  796MOL0     C 9724   1.598   0.347   7.251 -0.4796  0.0699  0.4106
  796MOL0     C 9725   1.669   0.346   7.116 -0.1300  0.7554 -0.3730
  796MOL0     C 9726   1.812   0.413   7.111  0.7204  0.3387  0.4855
  796MOL0     N 9727   1.902   0.348   7.202 -0.0885  0.1771 -0.7484
  796MOL0     C 9728   2.002   0.263   7.164 -0.1976 -0.4930  0.2070
  796MOL0     C 9729   2.078   0.248   7.279 -0.3918  0.5226 -0.1387
  796MOL0     C 9730   2.195   0.162   7.304 -0.2072  0.4753 -0.5495
  796MOL0     C 9731   2.176   0.049   7.398  0.2904 -0.3747  0.1016
  796MOL0     C 9732   2.287  -0.044   7.413 -0.5556  1.1338 -0.0428
  796MOL0     C 9733   2.437   0.019   7.421  0.6285 -0.6622  0.4194
  796MOL0     O 9734   2.533  -0.085   7.434  0.3611 -0.0512 -0.2681
  796MOL0     C 9735   2.671  -0.066   7.417  0.8551  0.3554  0.3678
  796MOL0     C 9736   2.730   0.065   7.429 -0.8380 -0.1118  0.0993
  796MOL0     C 9737   2.864   0.082   7.413  0.6920  0.4972  0.1904
  796MOL0     C 9738   2.910   0.226   7.430 -0.7527  0.1532 -0.5766
  796MOL0     C 9739   2.945  -0.033   7.404 -0.1823  0.6245  0.3759
  796MOL0     C 9740   3.093  -0.026   7.400  0.0684 -0.5388  0.3109
  796MOL0     O 9741   3.164  -0.119   7.477  0.3382 -0.1884  0.3338
  796MOL0     C 9742   3.301  -0.123   7.481 -0.2030  0.3887 -0.7298
  796MOL0     C 9743   3.382  -0.227   7.424  0.1952 -0.0005  0.1371
  796MOL0     C 9744   3.521  -0.217   7.433 -0.1493 -0.0116 -0.8443
  796MOL0     C 9745   3.588  -0.109   7.495  0.3608 -0.0778  0.6980
  796MOL0     O 9746   3.722  -0.085   7.491  0.5166 -0.0570  0.5901
  796MOL0     C 9747   3.810  -0.176   7.429 -0.2068 -0.2668 -0.3602
  796MOL0     C 9748   3.950  -0.112   7.418 -0.1866  0.0771 -0.4874
  796MOL0     C 9749   3.954   0.013   7.324  0.8288 -0.0319 -0.2313
  796MOL0     C 9750   3.905  -0.003   7.183 -0.0199  1.1481  0.1279
  796MOL0     C 9751   3.889   0.139   7.129 -0.5496  0.9165  0.6028
  796MOL0     C 9752   3.893   0.141   6.978  0.4629  0.3079  0.4676
  796MOL0     C 9753   3.859   0.284   6.928 -0.6870 -0.0064  0.1637
  796MOL0     C 9754   3.722   0.293   6.859  0.6773 -0.4783  0.3413
  796MOL0    Cl 9755   3.728   0.342   6.689  0.4282 -0.4717  0.0913
  796MOL0     C 9756   3.502  -0.022   7.553  0.7033 -0.4921 -0.6249
  796MOL0     C 9757   3.360  -0.021   7.552 -0.0725 -1.5260 -0.3573
  796MOL0     O 9758   3.144   0.071   7.347  0.6995 -0.2168 -0.0086
  796MOL0     C 9759   2.888  -0.159   7.381  0.1826 -0.1784  0.2585
  796MOL0     C 9760   2.753  -0.181   7.384  1.0352  0.4966  0.3058
  796MOL0     N 9761   2.018   0.317   7.381 -0.0739 -0.8910 -1.7165
  796MOL0     N 9762   1.908   0.378   7.335 -0.4219  0.8233  0.6099
  796MOL0     C 9763   0.926   0.658   7.541 -0.5523 -0.2725 -0.2592
  796MOL0     C 9764   0.886   0.747   7.645  0.5721  0.8795  0.1598
  796MOL0     C 9765   0.720   1.117   7.821 -0.0343  0.0634 -0.1567
  796MOL0     C 9766   0.596   1.188   7.788 -0.5514  0.1242 -0.0749
  796MOL0     C 9767   0.540   1.280   7.875 -0.8553 -0.1407  0.0819
  796MOL0     C 9768   0.608   1.321   7.989 -0.3866  0.2599 -0.5040
  796MOL0     O 9769   0.537   1.415   8.059  0.6869  0.4408  0.4368
  796MOL0     C 9770   0.585   1.446   8.193 -1.6598 -0.2607 -0.6188
  796MOL0     C 9771   0.521   1.565   8.261 -0.5149  0.2380  1.2153
  796MOL0     C 9772   0.366   1.575   8.239  0.3982 -0.5316  0.9639
  796MOL0     C 9773   0.292   1.460   8.304 -0.4942 -0.1216  0.5863
  796MOL0     C 9774   0.152   1.435   8.267  0.0402 -1.2109 -0.5963
  796MOL0     C 9775   0.042   1.424   8.229 -0.2518  0.3130  1.0965
  796MOL0     C 9776   0.733   1.265   8.024 -0.4096 -0.1746  0.5229
  796MOL0     C 9777   0.787   1.165   7.941 -0.1817 -0.0133  0.8256
  796MOL0     C 9778   0.912   1.110   7.984 -0.6870 -0.7937  0.9405
  796MOL0     H 9779   1.103   1.009   7.582 -1.4359  0.9350  0.1777
  796MOL0     H 9780   1.162   0.846   7.389 -1.1377  0.5822 -0.7530
  796MOL0     H 9781   1.149   0.410   7.366  1.2061  0.4398 -0.6817
  796MOL0     H 9782   1.115   0.471   7.523 -1.6634 -1.8318 -1.3649
  796MOL0     H 9783   1.320   0.622   7.502  1.7380  0.9948 -2.7829
  796MOL0     H 9784   1.361   0.450   7.492 -2.1748 -1.1283  1.9625
  796MOL0     H 9785   1.295   0.639   7.253  1.2783  1.5814  0.2702
  796MOL0     H 9786   1.466   0.599   7.303  0.1136 -2.5081  2.6764
  796MOL0     H 9787   1.264   0.422   7.177 -1.6475  4.6862 -0.7164
  796MOL0     H 9788   1.409   0.495   7.105 -0.4337  1.1993  1.3792
  796MOL0     H 9789   1.432   0.247   7.164  0.9272  1.0861  0.3250
  796MOL0     H 9790   1.411   0.285   7.328 -1.8766 -0.7751 -0.2785
  796MOL0     H 9791   1.617   0.442   7.301 -1.9591 -1.3243  3.9057
  796MOL0     H 9792   1.637   0.263   7.309 -0.8124 -0.1507  0.3184
  796MOL0     H 9793   1.605   0.389   7.038 -2.5901 -1.0443  0.5212
  796MOL0     H 9794   1.691   0.240   7.099  0.9310  0.8013  0.6536
  796MOL0     H 9795   1.858   0.417   7.012 -0.9737  1.6488 -0.3073
  796MOL0     H 9796   1.793   0.517   7.139 -1.0144  0.6759 -1.6450
  796MOL0     H 9797   2.029   0.230   7.064  0.7820  0.1193  0.2580
  796MOL0     H 9798   2.265   0.229   7.354  0.4878 -0.3706 -0.3500
  796MOL0     H 9799   2.241   0.126   7.211  0.3978 -1.4812  0.4379
  796MOL0     H 9800   2.171   0.098   7.495 -1.2566 -0.2283 -0.0324
  796MOL0     H 9801   2.080  -0.000   7.381  0.0362 -0.6980  2.2037
  796MOL0     H 9802   2.269  -0.104   7.502  1.4225  0.7483  0.1392
  796MOL0     H 9803   2.273  -0.115   7.331  1.0340  1.0980 -0.3166
  796MOL0     H 9804   2.457   0.081   7.333  1.6512 -0.4819  0.7620
  796MOL0     H 9805   2.439   0.094   7.501 -0.9657  2.5265 -2.3080
  796MOL0     H 9806   2.659   0.146   7.439 -1.0635 -0.1508 -1.0126
  796MOL0     H 9807   3.006   0.223   7.482  0.1047 -1.1943 -2.1317
  796MOL0     H 9808   2.841   0.298   7.475  1.1527  2.2895 -0.9228
  796MOL0     H 9809   2.926   0.260   7.327 -2.1917 -1.1595 -1.2798
  796MOL0     H 9810   3.345  -0.310   7.364 -3.1496  1.8382 -0.5871
  796MOL0     H 9811   3.582  -0.293   7.385 -1.4412 -0.8568 -1.1962
  796MOL0     H 9812   3.819  -0.264   7.493  0.9982 -1.7242 -2.4133
  796MOL0     H 9813   3.772  -0.210   7.332  2.8162 -1.0820 -1.3559
  796MOL0     H 9814   3.988  -0.091   7.519 -3.0495 -0.7641  0.8605
  796MOL0     H 9815   4.022  -0.189   7.388  2.1557 -0.1700  4.6036
  796MOL0     H 9816   4.055   0.053   7.311 -0.8822  4.0406 -3.1179
  796MOL0     H 9817   3.891   0.091   7.368 -2.3142 -0.8905 -2.8233
  796MOL0     H 9818   3.814  -0.062   7.178  0.2985  0.7452 -1.4873
  796MOL0     H 9819   3.987  -0.056   7.133 -0.2190 -1.3508  2.2702
  796MOL0     H 9820   3.792   0.177   7.163  0.4094  2.1887  2.0820
  796MOL0     H 9821   3.956   0.214   7.172 -3.8643  4.0461  0.8140
  796MOL0     H 9822   3.824   0.078   6.921  1.1353  1.8015 -2.1389
  796MOL0     H 9823   3.999   0.135   6.952  0.6708  2.5355  0.5857
  796MOL0     H 9824   3.933   0.329   6.861 -0.6674 -0.7002 -0.2945
  796MOL0     H 9825   3.847   0.350   7.014  2.0899  0.7377  0.0760
  796MOL0     H 9826   3.658   0.351   6.925 -0.1304 -2.7922  1.7339
  796MOL0     H 9827   3.666   0.199   6.862  1.9782 -1.2604  1.3040
  796MOL0     H 9828   3.548   0.062   7.603  1.6226 -0.6220 -1.2363
  796MOL0     H 9829   3.303   0.057   7.601  0.4591 -1.1418 -0.3369
  796MOL0     H 9830   2.959  -0.240   7.368 -0.0946 -0.7109  1.8218
  796MOL0     H 9831   2.699  -0.273   7.362 -1.2597  1.0384  3.1031
  796MOL0     H 9832   0.874   0.564   7.527 -0.3769 -0.2070 -1.4213
  796MOL0     H 9833   0.808   0.705   7.708  1.0140 -5.3711 -2.6629
  796MOL0     H 9834   0.540   1.164   7.698  0.3294 -2.9065  0.0711
  796MOL0     H 9835   0.443   1.328   7.863 -0.3687  1.9119  3.1154
  796MOL0     H 9836   0.573   1.354   8.252 -2.8696  0.7724  0.8004
  796MOL0     H 9837   0.693   1.463   8.199 -1.4050 -2.1595  2.1823
  796MOL0     H 9838   0.574   1.657   8.233  5.0408 -2.9347 -0.1196
  796MOL0     H 9839   0.539   1.561   8.368  0.1813  0.6390  1.1223
  796MOL0     H 9840   0.321   1.664   8.284  1.9888  0.0043  1.5634
  796MOL0     H 9841   0.337   1.578   8.133 -1.9564  4.1970  1.4530
  796MOL0     H 9842   0.289   1.472   8.413 -0.5478  0.9726  0.4769
  796MOL0     H 9843   0.349   1.372   8.272  0.1599  0.3526  0.4131
  796MOL0     H 9844  -0.053   1.410   8.182  0.4227  1.8397 -0.9024
  796MOL0     H 9845   0.792   1.302   8.107 -1.0980  1.7069  0.2086
  796MOL0     H 9846   0.998   1.125   7.918 -0.8456 -1.2590  0.6162
  796MOL0     H 9847   0.941   1.135   8.086  0.4065 -0.0747  0.4638
  796MOL0     H 9848   0.904   1.001   7.974 -1.7810 -0.6367 -0.1061
  797MOL0     O 9849   1.302   4.372  10.966  0.6162 -0.4074  0.2808
  797MOL0     C 9850   1.317   4.291  11.058 -0.4707  0.2330  0.1738
  797MOL0     O 9851   1.429   4.224  11.086 -0.0728  0.7436 -0.0112
  797MOL0     C 9852   1.547   4.261  11.019 -0.1101  0.4814  0.1876
  797MOL0     C 9853   1.633   4.154  10.967 -0.6295 -0.2499  0.1975
  797MOL0     C 9854   1.766   4.186  10.933 -0.6436 -0.1433  0.1724
  797MOL0     C 9855   1.813   4.321  10.940  0.6873  0.4251 -0.3596
  797MOL0     O 9856   1.943   4.339  10.914  0.0220 -0.5961  0.2760
  797MOL0     C 9857   2.010   4.460  10.968 -0.2636 -0.3192  0.3121
  797MOL0     C 9858   2.151   4.465  10.916 -0.1749 -0.3287 -0.1481
  797MOL0     C 9859   2.233   4.336  10.937 -0.1802 -0.0331  0.4489
  797MOL0     C 9860   2.241   4.299  11.085 -0.7488  0.2043  0.2987
  797MOL0     C 9861   2.362   4.204  11.098  0.2860  0.6106 -0.5162
  797MOL0     C 9862   2.494   4.285  11.116 -0.3652 -0.0854  0.5252
  797MOL0     C 9863   2.612   4.187  11.102  0.5398  0.6674 -0.3146
  797MOL0     C 9864   2.756   4.233  11.119  0.7344 -0.2601 -0.1077
  797MOL0     N 9865   2.778   4.270  11.261  0.2127 -0.8178  0.5208
  797MOL0     C 9866   2.900   4.261  11.328 -0.4049 -0.2132  0.0222
  797MOL0     C 9867   2.875   4.294  11.454  0.3365  0.2020 -0.6189
  797MOL0     C 9868   2.960   4.268  11.578 -0.4384  0.3643 -1.0538
  797MOL0     C 9869   2.923   4.349  11.702  0.1617 -0.7630  0.3804
  797MOL0     C 9870   3.042   4.354  11.809  0.2790 -0.5839 -0.0374
  797MOL0     C 9871   3.176   4.395  11.750 -0.6559  0.6545  0.0413
  797MOL0     O 9872   3.155   4.497  11.660  0.0559  0.3639  0.3850
  797MOL0     C 9873   3.254   4.528  11.570  0.2771  0.6573  0.4692
  797MOL0     C 9874   3.206   4.607  11.466  0.0135 -0.2525  0.9829
  797MOL0     C 9875   3.277   4.654  11.355 -0.6589  0.6074 -0.4746
  797MOL0     C 9876   3.208   4.739  11.263 -0.4696  0.2452  0.1865
  797MOL0     C 9877   3.423   4.624  11.353  0.3231 -0.0192  0.6690
  797MOL0     C 9878   3.519   4.653  11.246 -0.8406  1.0974  0.0710
  797MOL0     O 9879   3.477   4.683  11.128  0.0340  0.0910  0.4451
  797MOL0     C 9880   3.555   4.655  11.018 -0.5431 -0.5202 -0.7192
  797MOL0     C 9881   3.554   4.742  10.916 -0.0533  0.0589 -0.4951
  797MOL0     C 9882   3.641   4.732  10.799 -0.2997  0.2961 -0.3719
  797MOL0     C 9883   3.746   4.627  10.804 -0.4880  0.1538  0.2411
  797MOL0     O 9884   3.848   4.608  10.714 -0.2364 -0.4249 -0.4688
  797MOL0     C 9885   3.854   4.696  10.602 -0.5622 -0.0497  0.1907
  797MOL0     C 9886   3.981   4.656  10.520  0.1943  0.1222 -0.0536
  797MOL0     C 9887   4.116   4.688  10.595 -0.4270 -0.3030 -0.3117
  797MOL0     C 9888   4.128   4.822  10.655 -0.1384 -0.4981 -0.7023
  797MOL0     C 9889   4.272   4.854  10.701  0.1625 -0.2579 -0.4507
  797MOL0     C 9890   4.296   4.969  10.813 -0.1573  0.1863 -0.0710
  797MOL0     C 9891   4.246   5.103  10.762  0.3938  0.3778  0.8260
  797MOL0     C 9892   4.312   5.161  10.633 -0.7275 -0.5310  0.0222
  797MOL0    Cl 9893   4.237   5.312  10.580  0.1839 -0.0002  0.5368
  797MOL0     C 9894   3.737   4.531  10.906  0.1099 -0.3360  0.6974
  797MOL0     C 9895   3.636   4.543  11.003  0.7974 -0.2116 -0.0821
  797MOL0     O 9896   3.635   4.664  11.284 -0.6378 -0.5708  0.4227
  797MOL0     C 9897   3.467   4.542  11.457 -0.8158  0.2370 -0.3188
  797MOL0     C 9898   3.394   4.497  11.567  0.7126 -0.0502 -0.3599
  797MOL0     N 9899   2.738   4.324  11.468  0.2303 -0.1600  0.0437
  797MOL0     N 9900   2.680   4.306  11.349 -0.1541  0.3662 -0.0413
  797MOL0     C 9901   1.729   4.415  10.999  0.0221 -0.1323 -0.1002
  797MOL0     C 9902   1.594   4.392  11.025 -0.0881 -0.9566  0.0689
  797MOL0     C 9903   1.200   4.257  11.155 -0.0632  0.3691 -0.9442
  797MOL0     C 9904   1.227   4.243  11.293 -0.6937 -0.7068  0.5700
  797MOL0     C 9905   1.126   4.225  11.387 -0.4687  0.2428 -0.3862
  797MOL0     C 9906   0.991   4.229  11.351 -0.3693  0.3942 -0.3628
  797MOL0     O 9907   0.898   4.228  11.453 -0.1887 -0.8167  0.6760
  797MOL0     C 9908   0.781   4.140  11.434 -0.1802 -0.1685  0.6134
  797MOL0     C 9909   0.660   4.237  11.410  0.1783  0.9502 -0.2652
  797MOL0     C 9910   0.639   4.326  11.532  0.2728  0.9252  0.5249
  797MOL0     C 9911   0.488   4.365  11.561 -0.6933 -0.0272 -0.9123
  797MOL0     C 9912   0.394   4.255  11.571 -0.3469 -1.0602 -0.8293
  797MOL0     C 9913   0.318   4.154  11.571 -0.2698  0.0289 -0.1915
  797MOL0     C 9914   0.962   4.228  11.216  0.2594 -0.3289 -0.6315
  797MOL0     C 9915   1.064   4.238  11.119  0.5257  0.0038  0.9555
  797MOL0     C 9916   1.026   4.241  10.969 -0.2030 -0.4720  0.3699
  797MOL0     H 9917   1.595   4.053  10.967 -1.4625  0.0499 -0.9160
  797MOL0     H 9918   1.826   4.101  10.902  0.3864  1.0846 -1.3325
  797MOL0     H 9919   2.010   4.446  11.077  0.5403 -2.1970  0.1086
  797MOL0     H 9920   1.965   4.555  10.938  0.8567  0.6045  1.4429
  797MOL0     H 9921   2.139   4.490  10.811 -3.4688 -1.9121 -0.2728
  797MOL0     H 9922   2.196   4.550  10.968 -0.6502  0.5221 -1.0977
  797MOL0     H 9923   2.198   4.254  10.873  2.4442 -1.3156  0.4991
  797MOL0     H 9924   2.330   4.345  10.886 -1.4449  1.6033 -1.8610
  797MOL0     H 9925   2.244   4.390  11.145  0.1953  1.6951 -1.8631
  797MOL0     H 9926   2.152   4.241  11.110 -0.8291 -0.6439 -1.7444
  797MOL0     H 9927   2.370   4.132  11.016  0.8939 -1.0113  0.9132
  797MOL0     H 9928   2.345   4.158  11.196  3.1524 -0.9078 -0.6388
  797MOL0     H 9929   2.502   4.354  11.031 -0.5445  0.3537  0.8633
  797MOL0     H 9930   2.492   4.338  11.211  0.8414 -1.3528  1.2955
  797MOL0     H 9931   2.624   4.140  11.003 -0.2912 -1.1924  0.4149
  797MOL0     H 9932   2.590   4.099  11.164 -1.6192  3.1330  2.7121
  797MOL0     H 9933   2.821   4.159  11.071 -1.8012 -1.8618 -1.2520
  797MOL0     H 9934   2.768   4.316  11.049 -0.9244  1.0037  1.0190
  797MOL0     H 9935   2.987   4.215  11.282 -1.4570 -0.8239 -1.4334
  797MOL0     H 9936   3.059   4.297  11.541 -0.5171 -1.4863 -2.8701
  797MOL0     H 9937   2.962   4.163  11.612 -0.6841  0.6163 -0.2435
  797MOL0     H 9938   2.887   4.446  11.665 -1.0227 -0.7741  1.4381
  797MOL0     H 9939   2.835   4.305  11.749  0.1490 -0.8302  0.2948
  797MOL0     H 9940   3.013   4.440  11.870  1.5696  0.7620 -1.2731
  797MOL0     H 9941   3.046   4.260  11.865  0.2828  0.2302  1.3945
  797MOL0     H 9942   3.252   4.418  11.825  1.2836 -1.1673 -1.2479
  797MOL0     H 9943   3.216   4.310  11.694 -2.2629 -0.2643  0.2206
  797MOL0     H 9944   3.100   4.626  11.462 -0.3115 -1.9899 -2.3929
  797MOL0     H 9945   3.269   4.768  11.177  2.4358 -1.0413  1.6321
  797MOL0     H 9946   3.201   4.838  11.310  0.7813  0.1881  0.5499
  797MOL0     H 9947   3.114   4.694  11.233 -0.0654 -0.2389 -0.3740
  797MOL0     H 9948   3.485   4.823  10.936 -0.2983  0.1141 -1.4794
  797MOL0     H 9949   3.651   4.800  10.715 -2.1907  1.2005  0.0868
  797MOL0     H 9950   3.766   4.676  10.540  0.3931 -1.5179 -0.7463
  797MOL0     H 9951   3.845   4.802  10.630  0.1271 -0.1405  0.7822
  797MOL0     H 9952   3.983   4.552  10.488 -0.5583  0.1274 -0.1407
  797MOL0     H 9953   3.988   4.716  10.429  1.5335  0.7312  0.4305
  797MOL0     H 9954   4.203   4.673  10.530  0.1980 -1.1672  0.6802
  797MOL0     H 9955   4.123   4.612  10.674  0.7225  0.0105 -0.0901
  797MOL0     H 9956   4.070   4.826  10.748  0.4882  1.0465 -0.3359
  797MOL0     H 9957   4.093   4.899  10.586  0.3968  1.2437  0.8683
  797MOL0     H 9958   4.305   4.758  10.742 -0.3396 -0.7858 -1.2510
  797MOL0     H 9959   4.331   4.864  10.609  3.8288 -1.9351  1.4721
  797MOL0     H 9960   4.405   4.973  10.827  0.0574  0.9553 -1.7783
  797MOL0     H 9961   4.252   4.947  10.911  0.2365 -0.0904  0.0491
  797MOL0     H 9962   4.251   5.176  10.843  2.3967  1.5543 -0.2832
  797MOL0     H 9963   4.140   5.084  10.741  1.1631 -0.6330 -2.8158
  797MOL0     H 9964   4.312   5.083  10.556  1.5440 -2.0668  1.4446
  797MOL0     H 9965   4.407   5.198  10.673 -0.9064  0.2089 -0.2215
  797MOL0     H 9966   3.815   4.456  10.896  0.1321 -0.1990 -0.3671
  797MOL0     H 9967   3.623   4.469  11.081  1.5513  1.8496  2.1487
  797MOL0     H 9968   3.571   4.512  11.446 -0.7414  0.6057 -0.6479
  797MOL0     H 9969   3.444   4.447  11.649 -1.0709  0.9521  1.4255
  797MOL0     H 9970   1.765   4.514  11.024  1.8014 -1.0939  1.3736
  797MOL0     H 9971   1.539   4.475  11.069  0.9838 -0.2919  0.1810
  797MOL0     H 9972   1.329   4.253  11.327 -0.0809  1.4100 -1.6294
  797MOL0     H 9973   1.159   4.222  11.490  1.1448  1.9464 -0.7866
  797MOL0     H 9974   0.798   4.066  11.354 -1.6879  1.0074 -0.8759
  797MOL0     H 9975   0.757   4.080  11.523 -1.2030  1.6021  1.5885
  797MOL0     H 9976   0.568   4.183  11.387 -0.0613 -0.6780  3.6051
  797MOL0     H 9977   0.683   4.301  11.324  1.3853  0.3470 -0.4234
  797MOL0     H 9978   0.675   4.274  11.621  0.5780  1.5194  0.7545
  797MOL0     H 9979   0.696   4.418  11.521 -3.3716  3.4931  1.2994
  797MOL0     H 9980   0.450   4.439  11.490  0.6965  1.1935 -0.4293
  797MOL0     H 9981   0.492   4.409  11.661  2.3043  1.5551 -1.6223
  797MOL0     H 9982   0.251   4.071  11.573  0.5289 -0.6137  0.4900
  797MOL0     H 9983   0.858   4.215  11.189 -0.1244  0.1519  0.5505
  797MOL0     H 9984   0.917   4.235  10.969 -0.1461 -4.3869  1.2769
  797MOL0     H 9985   1.061   4.330  10.916  0.3282 -1.2362 -0.5757
  797MOL0     H 9986   1.068   4.151  10.923  0.5828  0.3026 -0.4717
  798MOL0     O 9987   1.036   7.488   5.500 -0.0374 -0.8791 -0.1968
  798MOL0     C 9988   1.044   7.609   5.528  0.0342  0.2562 -0.3142
  798MOL0     O 9989   1.164   7.682   5.525  0.3346 -0.1139 -0.2071
  798MOL0     C 9990   1.278   7.616   5.494 -0.4648  0.4364  0.2629
  798MOL0     C 9991   1.315   7.494   5.550 -0.3606 -0.2845  0.3096
  798MOL0     C 9992   1.434   7.437   5.506 -0.1971 -0.6334  0.1285
  798MOL0     C 9993   1.514   7.499   5.406 -1.3172  0.3550 -0.0982
  798MOL0     O 9994   1.629   7.450   5.339  0.1632  0.6362 -0.1744
  798MOL0     C 9995   1.691   7.328   5.387 -0.3273 -0.2479 -0.0940
  798MOL0     C 9996   1.815   7.353   5.473 -1.1869  0.0313 -0.1472
  798MOL0     C 9997   1.828   7.227   5.569  0.2796 -0.4575 -0.3594
  798MOL0     C 9998   1.933   7.241   5.677  0.2244 -0.9168 -0.7675
  798MOL0     C 9999   1.928   7.140   5.790 -0.3429  2.1855 -1.1826
  798MOL0     C10000   1.974   6.996   5.756  0.4163  0.5249  0.2392
  798MOL0     C10001   1.946   6.906   5.877 -0.1520 -0.2588 -0.1497
  798MOL0     C10002   2.005   6.770   5.876  0.0935 -0.4526  0.0010
  798MOL0     N10003   1.973   6.702   5.747 -0.5905  0.2420  0.7424
  798MOL0     C10004   1.847   6.655   5.707  0.8300  0.1504  0.3900
  798MOL0     C10005   1.848   6.646   5.574  0.5279 -0.4946 -0.9942
  798MOL0     C10006   1.733   6.615   5.494 -0.9426  0.2358 -0.6894
  798MOL0     C10007   1.621   6.717   5.507  0.0231 -0.3303  0.3823
  798MOL0     C10008   1.666   6.847   5.436  0.5282  0.4400 -0.3563
  798MOL0     C10009   1.722   6.828   5.294 -0.4611 -0.5442 -0.1835
  798MOL0     O10010   1.749   6.955   5.247 -0.1588  0.9140 -0.3676
  798MOL0     C10011   1.876   6.997   5.263 -0.0608 -0.6640 -0.1375
  798MOL0     C10012   1.908   7.091   5.172  0.3674 -0.0382 -0.1061
  798MOL0     C10013   2.036   7.141   5.149  0.7916  0.9525  0.0626
  798MOL0     C10014   2.061   7.229   5.030  0.0871 -0.6989 -0.4784
  798MOL0     C10015   2.137   7.105   5.234 -0.7905  0.0440 -0.3439
  798MOL0     C10016   2.264   7.179   5.228 -0.8250 -0.3913  0.1160
  798MOL0     O10017   2.371   7.103   5.253 -0.2124 -0.1394  1.2177
  798MOL0     C10018   2.494   7.139   5.213  0.4926  0.1920 -0.6933
  798MOL0     C10019   2.521   7.167   5.074 -0.4990  0.1074 -0.6529
  798MOL0     C10020   2.635   7.233   5.026  0.0027  0.2727 -0.3142
  798MOL0     C10021   2.736   7.268   5.127 -0.1344  0.2493  0.2676
  798MOL0     O10022   2.848   7.339   5.088  0.9547 -0.2866  0.1989
  798MOL0     C10023   2.906   7.437   5.173 -0.2741  0.9237 -0.0397
  798MOL0     C10024   2.978   7.538   5.092  0.1047  1.4456  0.0207
  798MOL0     C10025   2.886   7.654   5.057 -1.6002 -0.0086 -0.1476
  798MOL0     C10026   2.795   7.627   4.933  0.4043  0.0881 -0.4976
  798MOL0     C10027   2.708   7.747   4.912  0.3334 -0.8005 -0.2890
  798MOL0     C10028   2.664   7.759   4.771  0.7083  0.3569  0.1189
  798MOL0     C10029   2.570   7.882   4.747  0.5617 -0.2168  0.2301
  798MOL0     C10030   2.510   7.878   4.604  0.6288  0.5510 -0.7584
  798MOL0    Cl10031   2.485   8.048   4.560 -0.1895  0.6172 -0.5832
  798MOL0     C10032   2.719   7.239   5.262  1.0087  0.8511 -0.0648
  798MOL0     C10033   2.597   7.182   5.308 -0.0507 -0.3272  0.2746
  798MOL0     O10034   2.263   7.299   5.218  0.7495  0.1539 -0.1720
  798MOL0     C10035   2.112   7.002   5.331 -0.3128  0.0793 -0.6871
  798MOL0     C10036   1.983   6.964   5.352 -0.2187  0.1921  0.9511
  798MOL0     N10037   1.981   6.641   5.530 -0.2748  0.0385  0.0060
  798MOL0     N10038   2.052   6.692   5.630 -0.5352 -0.0393 -0.0376
  798MOL0     C10039   1.473   7.616   5.354 -0.2664 -0.8162  0.3598
  798MOL0     C10040   1.354   7.674   5.392 -0.2878 -0.3427 -0.2634
  798MOL0     C10041   0.921   7.681   5.557 -0.2078 -0.0746  0.9280
  798MOL0     C10042   0.913   7.819   5.530 -0.9135 -0.2537 -0.8326
  798MOL0     C10043   0.801   7.891   5.578  0.1278  0.5100  0.7933
  798MOL0     C10044   0.686   7.832   5.618 -0.1536 -0.2884  0.2721
  798MOL0     O10045   0.570   7.901   5.643 -0.0163  0.2222  0.5483
  798MOL0     C10046   0.510   7.959   5.529 -0.0710 -0.5103  0.5978
  798MOL0     C10047   0.358   7.943   5.520 -0.2629 -0.2906 -0.9516
  798MOL0     C10048   0.310   8.028   5.410  0.2434 -0.5457  0.4079
  798MOL0     C10049   0.173   7.979   5.359  0.4219 -0.7611 -0.0480
  798MOL0     C10050   0.180   7.911   5.229 -0.2673 -0.6225  0.2866
  798MOL0     C10051   0.181   7.857   5.123 -0.1952  0.1451 -0.0658
  798MOL0     C10052   0.685   7.697   5.639 -0.8673 -0.5313 -0.3547
  798MOL0     C10053   0.802   7.627   5.614  0.1265  0.2145  0.6246
  798MOL0     C10054   0.790   7.485   5.672 -0.1959 -0.0217  0.7583
  798MOL0     H10055   1.256   7.440   5.622 -0.8361 -1.4633 -0.9158
  798MOL0     H10056   1.472   7.351   5.561  1.7658  0.2864  0.2903
  798MOL0     H10057   1.726   7.266   5.304 -1.8196 -0.5234 -0.5375
  798MOL0     H10058   1.613   7.267   5.433 -0.9030 -2.0997 -3.2413
  798MOL0     H10059   1.905   7.366   5.412  1.2129 -0.2129  3.0584
  798MOL0     H10060   1.798   7.430   5.548 -1.6762 -0.8260  0.6449
  798MOL0     H10061   1.728   7.211   5.612 -0.3859  1.5507 -1.0702
  798MOL0     H10062   1.856   7.139   5.510 -1.2017  0.0272 -1.8584
  798MOL0     H10063   2.033   7.251   5.633  0.5773  1.1927  0.3470
  798MOL0     H10064   1.921   7.336   5.731  2.3482 -0.3062 -1.2698
  798MOL0     H10065   1.829   7.128   5.834  0.2966 -1.1496 -0.4101
  798MOL0     H10066   1.992   7.166   5.874 -0.0570 -1.9635  0.0989
  798MOL0     H10067   1.928   6.953   5.666 -0.7595  1.0462  0.5769
  798MOL0     H10068   2.080   6.995   5.729  0.9453  3.0317  1.8156
  798MOL0     H10069   1.839   6.891   5.895 -0.1674 -0.2968 -0.2720
  798MOL0     H10070   1.974   6.958   5.969 -2.1196  0.2743  0.1845
  798MOL0     H10071   2.114   6.777   5.883  0.1093  4.7674 -1.4255
  798MOL0     H10072   1.959   6.712   5.957 -1.1588 -1.3900 -1.3454
  798MOL0     H10073   1.754   6.642   5.762 -0.6420  2.7129 -1.3031
  798MOL0     H10074   1.703   6.518   5.532  1.5317 -1.4598 -2.7189
  798MOL0     H10075   1.767   6.594   5.392 -1.8573 -3.8294 -0.3239
  798MOL0     H10076   1.542   6.666   5.450 -1.0850  3.0346 -1.3270
  798MOL0     H10077   1.586   6.743   5.607 -0.6101 -0.4571  0.2043
  798MOL0     H10078   1.585   6.920   5.426 -0.8373 -1.1741 -1.7348
  798MOL0     H10079   1.737   6.897   5.502 -1.2835  0.6363  1.5699
  798MOL0     H10080   1.812   6.767   5.300 -0.5712 -0.5852  1.5583
  798MOL0     H10081   1.647   6.777   5.233 -0.5851 -2.0503  1.1450
  798MOL0     H10082   1.831   7.121   5.102  1.5181 -0.5752 -1.6510
  798MOL0     H10083   2.020   7.327   5.053 -2.1313 -2.3219  3.4412
  798MOL0     H10084   2.007   7.199   4.940 -4.0050  1.1731  1.0829
  798MOL0     H10085   2.168   7.237   5.008  0.0158 -0.4758 -0.7533
  798MOL0     H10086   2.448   7.147   4.995  2.5510 -1.3304 -3.3477
  798MOL0     H10087   2.640   7.268   4.924 -2.2282  0.2185 -0.5070
  798MOL0     H10088   2.827   7.491   5.227  0.9879  3.5463 -0.6603
  798MOL0     H10089   2.971   7.382   5.242 -0.5693  1.0780  0.3657
  798MOL0     H10090   3.061   7.581   5.150  1.4378 -0.6354 -0.2437
  798MOL0     H10091   3.018   7.496   4.999 -1.2083 -1.1018  0.5173
  798MOL0     H10092   2.948   7.733   5.015  0.3465 -1.2661  0.2433
  798MOL0     H10093   2.841   7.702   5.145  2.0621  2.1979  0.7418
  798MOL0     H10094   2.732   7.544   4.965  1.0950  0.4080  1.8770
  798MOL0     H10095   2.854   7.600   4.845  0.0185 -2.0834 -0.1466
  798MOL0     H10096   2.619   7.732   4.974  0.7100 -0.2628  0.3954
  798MOL0     H10097   2.760   7.834   4.953  2.8833 -2.6725  0.7398
  798MOL0     H10098   2.606   7.668   4.754 -0.4205  0.5746  2.4623
  798MOL0     H10099   2.751   7.761   4.704  0.0146  1.6927 -0.7981
  798MOL0     H10100   2.632   7.972   4.756 -2.0614  1.8603 -0.8472
  798MOL0     H10101   2.491   7.896   4.821 -1.3487  0.2950 -1.8060
  798MOL0     H10102   2.414   7.824   4.606 -0.5089  2.5052  1.3497
  798MOL0     H10103   2.580   7.834   4.532 -0.8999  0.1628 -2.0620
  798MOL0     H10104   2.798   7.249   5.335  1.1116  1.3380 -0.2395
  798MOL0     H10105   2.580   7.160   5.413 -1.2159  0.9598  0.3790
  798MOL0     H10106   2.202   6.976   5.386 -0.0764  1.5015 -0.3613
  798MOL0     H10107   1.973   6.890   5.430 -2.0796 -2.8472 -1.8926
  798MOL0     H10108   1.527   7.665   5.274 -1.9910  0.8407  0.1512
  798MOL0     H10109   1.320   7.769   5.352 -0.7867 -0.9707 -1.3783
  798MOL0     H10110   0.999   7.871   5.488  2.9916 -1.6798  4.3114
  798MOL0     H10111   0.803   8.000   5.570  0.3675  0.4097 -0.8725
  798MOL0     H10112   0.539   8.064   5.538 -0.2465 -0.4523  0.5165
  798MOL0     H10113   0.547   7.909   5.439  0.5493  1.0445 -0.0595
  798MOL0     H10114   0.315   7.974   5.616  0.3902 -2.4255  0.0992
  798MOL0     H10115   0.327   7.840   5.503  0.1754 -0.9007  1.5161
  798MOL0     H10116   0.306   8.133   5.441 -0.2425  0.0124 -1.3891
  798MOL0     H10117   0.388   8.008   5.336 -1.2116 -1.4356 -0.9465
  798MOL0     H10118   0.109   8.066   5.341 -0.5385 -1.0584  1.7267
  798MOL0     H10119   0.122   7.921   5.436 -0.1072 -0.7860 -0.4111
  798MOL0     H10120   0.167   7.803   5.032 -1.3355  1.5661 -0.7765
  798MOL0     H10121   0.593   7.648   5.670 -0.1766 -1.7469 -0.1561
  798MOL0     H10122   0.894   7.472   5.706  0.3567  3.7530  1.0222
  798MOL0     H10123   0.731   7.483   5.764 -1.4832  1.2045  0.0042
  798MOL0     H10124   0.766   7.410   5.597  0.6858  1.5676 -1.1889
  799MOL0     O10125   3.458  11.251   5.256 -0.4152  0.3630 -0.1500
  799MOL0     C10126   3.472  11.339   5.341 -1.0848 -0.3567 -0.0819
  799MOL0     O10127   3.571  11.339   5.442 -0.4970 -1.0575 -0.1351
  799MOL0     C10128   3.654  11.237   5.429 -0.1558  0.1174  0.3366
  799MOL0     C10129   3.606  11.112   5.479  0.0647 -0.3728 -0.3412
  799MOL0     C10130   3.678  10.996   5.459  0.0854  0.0125 -0.4185
  799MOL0     C10131   3.804  11.009   5.388 -0.1548  0.8112 -0.1625
  799MOL0     O10132   3.882  10.898   5.352 -0.2351 -0.0252 -0.0273
  799MOL0     C10133   3.844  10.751   5.350 -0.2453 -0.8638 -0.6244
  799MOL0     C10134   3.956  10.660   5.337 -0.2590 -0.1681  0.1557
  799MOL0     C10135   3.917  10.510   5.355 -0.4708 -0.2384 -0.5668
  799MOL0     C10136   4.035  10.416   5.372 -0.5581 -0.1597  0.1750
  799MOL0     C10137   4.104  10.389   5.239 -0.3566  0.2031  0.0049
  799MOL0     C10138   4.010  10.351   5.122 -0.5433 -0.8857  0.0103
  799MOL0     C10139   4.085  10.310   4.997  0.3529  0.3044 -1.3055
  799MOL0     C10140   3.988  10.253   4.898  0.1472  0.1366  0.3722
  799MOL0     N10141   4.058  10.182   4.793  0.2971  0.0841 -0.4395
  799MOL0     C10142   4.062  10.228   4.661 -1.4882 -0.2232  1.2698
  799MOL0     C10143   4.103  10.114   4.587  0.6250 -0.7204  0.4024
  799MOL0     C10144   4.119  10.109   4.433  1.1186 -0.0232  0.4641
  799MOL0     C10145   4.258  10.095   4.389 -0.0363 -0.3120  0.2302
  799MOL0     C10146   4.347  10.217   4.419  0.3152  0.3562  0.1260
  799MOL0     C10147   4.494  10.188   4.414  0.0390 -0.8139 -0.2400
  799MOL0     O10148   4.518  10.186   4.271  0.1538  0.4728 -0.5729
  799MOL0     C10149   4.653  10.170   4.249  0.4767 -0.2755  0.0758
  799MOL0     C10150   4.714  10.273   4.180  0.1475 -0.7777  0.2342
  799MOL0     C10151   4.845  10.254   4.135  0.6094  0.2584 -0.9492
  799MOL0     C10152   4.884  10.341   4.025  0.3073 -0.2713  0.5445
  799MOL0     C10153   4.929  10.147   4.177 -1.0133  0.7633 -0.4039
  799MOL0     C10154   5.066  10.119   4.119 -0.2017 -0.2941  0.7346
  799MOL0     O10155   5.131  10.212   4.047  0.5682 -0.1084  0.3445
  799MOL0     C10156   5.261  10.177   4.011  0.7465 -0.0623 -0.1393
  799MOL0     C10157   5.294  10.143   3.878  0.0765  0.6101  0.3827
  799MOL0     C10158   5.425  10.102   3.841 -0.5510 -0.1312 -0.0908
  799MOL0     C10159   5.534  10.105   3.931 -0.5992  0.1880 -0.6082
  799MOL0     O10160   5.664  10.078   3.886 -0.2016 -1.0121  0.1876
  799MOL0     C10161   5.773  10.110   3.969 -0.0845  0.7660 -0.7602
  799MOL0     C10162   5.896  10.078   3.883  0.1340  0.5436  0.9741
  799MOL0     C10163   6.030  10.112   3.949  0.1241  0.6178  0.7209
  799MOL0     C10164   6.147  10.072   3.863  0.0854 -1.0882  0.4548
  799MOL0     C10165   6.275  10.124   3.935 -0.0420 -0.1949  0.2792
  799MOL0     C10166   6.389  10.092   3.850 -0.8427 -0.4679 -0.9856
  799MOL0     C10167   6.458   9.957   3.859 -0.8312 -0.0033  0.6433
  799MOL0     C10168   6.553   9.930   3.741  0.1686 -0.3398 -0.8578
  799MOL0    Cl10169   6.473   9.919   3.591 -0.4246  0.3000 -0.2038
  799MOL0     C10170   5.500  10.144   4.067 -0.1957 -0.7112 -0.6645
  799MOL0     C10171   5.367  10.177   4.102  0.3811 -0.6888 -0.5458
  799MOL0     O10172   5.099   9.994   4.121 -0.3192  0.1375 -0.5716
  799MOL0     C10173   4.868  10.046   4.249 -0.0031  0.3407  0.7008
  799MOL0     C10174   4.733  10.064   4.289 -0.2022 -0.9565  0.2976
  799MOL0     N10175   4.110  10.007   4.676 -0.7102 -0.3124 -0.1869
  799MOL0     N10176   4.096  10.049   4.799 -0.3710  0.7620 -0.1613
  799MOL0     C10177   3.852  11.129   5.334 -1.0353  0.3984 -0.2666
  799MOL0     C10178   3.771  11.238   5.357 -0.6668 -0.6070  0.5952
  799MOL0     C10179   3.379  11.456   5.346 -0.1615  0.4679  0.3579
  799MOL0     C10180   3.423  11.561   5.423 -0.0044 -0.1676 -0.1702
  799MOL0     C10181   3.342  11.673   5.432  0.5140 -0.3385  0.0603
  799MOL0     C10182   3.213  11.684   5.374  0.7059 -0.8033 -0.0936
  799MOL0     O10183   3.144  11.804   5.400  0.3018 -0.3487 -0.0262
  799MOL0     C10184   3.013  11.811   5.344  0.2046  0.3108  0.0666
  799MOL0     C10185   2.950  11.934   5.395  0.5255  0.2217 -0.5669
  799MOL0     C10186   2.803  11.923   5.351 -0.0668 -0.5128 -0.0227
  799MOL0     C10187   2.719  12.046   5.394  0.1419  0.6773  0.8931
  799MOL0     C10188   2.584  12.014   5.354  0.0983 -0.4970  0.1102
  799MOL0     C10189   2.465  12.007   5.316  0.5318  0.2478 -0.6114
  799MOL0     C10190   3.173  11.576   5.294  0.1562  0.0408 -0.2539
  799MOL0     C10191   3.255  11.465   5.278 -0.2276 -0.1436 -0.0489
  799MOL0     C10192   3.202  11.356   5.191 -0.6347  0.2564 -0.2804
  799MOL0     H10193   3.507  11.110   5.524 -0.6372 -2.4296 -1.8343
  799MOL0     H10194   3.637  10.901   5.491 -0.6166  0.9534  1.6404
  799MOL0     H10195   3.769  10.745   5.271 -1.6504  0.5464  0.5364
  799MOL0     H10196   3.801  10.726   5.447 -3.2374 -0.0281 -1.6353
  799MOL0     H10197   3.996  10.670   5.236 -1.2253 -0.6366 -0.2863
  799MOL0     H10198   4.037  10.687   5.405  0.1778  2.0015 -1.1242
  799MOL0     H10199   3.873  10.499   5.454  0.9682 -1.7123 -0.0443
  799MOL0     H10200   3.851  10.475   5.275 -0.0815  1.0322 -1.4945
  799MOL0     H10201   4.101  10.447   5.453 -1.9941 -0.1081  1.3760
  799MOL0     H10202   4.001  10.316   5.402 -1.2070 -0.6332 -1.8973
  799MOL0     H10203   4.160  10.296   5.250 -3.2188 -2.0021 -2.4963
  799MOL0     H10204   4.173  10.468   5.207  0.8896 -1.2697 -1.0982
  799MOL0     H10205   3.951  10.267   5.160  0.3853 -0.3025  3.0056
  799MOL0     H10206   3.948  10.435   5.089 -1.0690 -0.3702  2.1685
  799MOL0     H10207   4.169  10.241   5.012 -0.7716 -0.5393  1.9150
  799MOL0     H10208   4.130  10.399   4.950  0.6355  1.2790  0.7157
  799MOL0     H10209   3.927  10.174   4.944 -1.2011  1.0810  0.2860
  799MOL0     H10210   3.926  10.329   4.849  1.4632  0.5846 -0.6298
  799MOL0     H10211   4.032  10.323   4.619 -2.2745 -0.7879  0.5000
  799MOL0     H10212   4.066  10.196   4.392  2.5009  1.8448  2.4092
  799MOL0     H10213   4.056  10.030   4.393  0.5975  2.2151 -3.7411
  799MOL0     H10214   4.308  10.012   4.438 -0.7865 -2.2780 -2.1090
  799MOL0     H10215   4.255  10.070   4.282  2.8073 -0.5660  0.1179
  799MOL0     H10216   4.324  10.282   4.333 -2.7682 -2.0866 -1.1041
  799MOL0     H10217   4.314  10.265   4.511 -0.5761  1.4573 -0.7314
  799MOL0     H10218   4.558  10.259   4.467 -1.4380  0.4218 -0.0412
  799MOL0     H10219   4.503  10.092   4.467 -0.1336 -0.1355  1.0548
  799MOL0     H10220   4.658  10.366   4.170 -0.8604 -1.1638  1.8521
  799MOL0     H10221   4.968  10.401   4.060 -0.6833 -0.0251  2.6453
  799MOL0     H10222   4.805  10.406   3.986  0.3973 -0.6752 -0.3500
  799MOL0     H10223   4.931  10.289   3.941  2.2760 -1.5369  2.3293
  799MOL0     H10224   5.218  10.134   3.802  1.0137  0.4640 -0.5709
  799MOL0     H10225   5.439  10.066   3.740  1.9183  3.0882 -1.0584
  799MOL0     H10226   5.761  10.216   3.990 -1.6567  0.4772 -0.0651
  799MOL0     H10227   5.786  10.065   4.068  0.5606 -0.7776 -1.5090
  799MOL0     H10228   5.895   9.969   3.869 -0.2489  0.4900  1.4238
  799MOL0     H10229   5.894  10.134   3.789 -1.8263 -0.7889  0.1484
  799MOL0     H10230   6.040  10.068   4.048  1.7474 -2.9081 -0.8142
  799MOL0     H10231   6.014  10.220   3.958 -1.6084  0.5743 -0.9445
  799MOL0     H10232   6.141  10.117   3.763 -0.8428 -3.3822 -0.6150
  799MOL0     H10233   6.144   9.963   3.848 -0.1077 -1.0919  0.5238
  799MOL0     H10234   6.273  10.233   3.940 -2.1361 -0.2484  1.6195
  799MOL0     H10235   6.284  10.079   4.034 -1.3377  0.7872  0.8648
  799MOL0     H10236   6.455  10.174   3.880 -1.3852 -0.0314 -0.9650
  799MOL0     H10237   6.369  10.119   3.746 -1.5828  0.3460 -0.6433
  799MOL0     H10238   6.374   9.888   3.872 -1.0784  0.0349 -0.5566
  799MOL0     H10239   6.523   9.954   3.946  3.4642 -1.2915 -2.2790
  799MOL0     H10240   6.612   9.838   3.753  1.1690  0.2301 -1.3137
  799MOL0     H10241   6.628  10.009   3.729 -2.1700  1.9202 -1.3123
  799MOL0     H10242   5.581  10.159   4.138  1.7932 -0.3757 -2.8944
  799MOL0     H10243   5.351  10.214   4.203 -0.7246 -2.7404  0.0880
  799MOL0     H10244   4.924   9.956   4.270 -0.4206 -0.3293 -0.9156
  799MOL0     H10245   4.674   9.989   4.342 -2.4632 -1.2312 -2.3711
  799MOL0     H10246   3.932  11.124   5.260 -1.3513  1.8469 -0.7280
  799MOL0     H10247   3.804  11.333   5.316 -1.5028 -0.9969 -1.0696
  799MOL0     H10248   3.520  11.565   5.473  0.4879  1.6304 -1.1545
  799MOL0     H10249   3.374  11.757   5.493 -3.3277  0.6469  0.9553
  799MOL0     H10250   3.010  11.810   5.235 -1.1504  1.5930  0.0760
  799MOL0     H10251   2.957  11.721   5.374 -1.1950  1.0920 -0.1342
  799MOL0     H10252   2.982  12.031   5.358 -2.1328  1.6193  0.5565
  799MOL0     H10253   2.957  11.932   5.504 -1.8463  0.1400 -0.3580
  799MOL0     H10254   2.799  11.899   5.244  3.9338 -0.2281 -0.3526
  799MOL0     H10255   2.765  11.843   5.416 -0.2542 -0.5217 -0.1420
  799MOL0     H10256   2.765  12.132   5.346  2.2114  0.8986  3.0854
  799MOL0     H10257   2.735  12.068   5.500  0.0238 -0.4577  1.1662
  799MOL0     H10258   2.366  12.005   5.275  1.6122  1.2322 -3.4688
  799MOL0     H10259   3.078  11.580   5.242  1.6007  0.4617 -3.0708
  799MOL0     H10260   3.094  11.367   5.183 -0.8748 -0.8129  1.0308
  799MOL0     H10261   3.239  11.366   5.089 -2.2726 -0.3770 -0.9710
  799MOL0     H10262   3.208  11.255   5.232  0.1200  0.4837  0.1970
  800MOL0     O10263   4.571   8.483   8.596  0.0583  0.3711 -0.1753
  800MOL0     C10264   4.627   8.369   8.616  0.1479 -0.3759  0.4456
  800MOL0     O10265   4.677   8.290   8.523  0.3176  0.1770 -0.5317
  800MOL0     C10266   4.662   8.332   8.389 -0.7042  0.0203 -0.8522
  800MOL0     C10267   4.554   8.393   8.327 -0.0483  0.8648 -0.3150
  800MOL0     C10268   4.561   8.414   8.189  0.5284  0.1611  0.1254
  800MOL0     C10269   4.657   8.371   8.114 -0.3302 -0.9844  0.4310
  800MOL0     O10270   4.653   8.412   7.979  0.1075  0.1167  0.5023
  800MOL0     C10271   4.775   8.405   7.900  0.2885 -0.8676  0.0338
  800MOL0     C10272   4.743   8.495   7.781  0.2074  0.7158  0.3517
  800MOL0     C10273   4.864   8.519   7.694 -0.2875 -0.3621 -0.2071
  800MOL0     C10274   4.981   8.590   7.768 -0.9101  0.9987 -0.8655
  800MOL0     C10275   5.107   8.597   7.682  0.9067  0.7226 -0.5885
  800MOL0     C10276   5.215   8.494   7.722 -0.1256  0.6119 -0.5801
  800MOL0     C10277   5.338   8.508   7.636 -0.7652 -1.0802 -0.4505
  800MOL0     C10278   5.471   8.460   7.701 -0.5652 -0.4233  0.1411
  800MOL0     N10279   5.544   8.558   7.789 -0.2173  0.1119  0.4610
  800MOL0     C10280   5.491   8.641   7.886 -0.0357  0.1485 -1.3366
  800MOL0     C10281   5.604   8.706   7.928 -0.0060 -0.3942 -0.5653
  800MOL0     C10282   5.623   8.800   8.041 -0.5952 -0.0482  0.6374
  800MOL0     C10283   5.551   8.933   8.011  0.0960 -1.0499  0.4787
  800MOL0     C10284   5.556   9.038   8.124  0.1608  0.1674  0.6093
  800MOL0     C10285   5.497   9.175   8.086 -0.5143 -0.0427  0.1013
  800MOL0     O10286   5.590   9.236   7.992  0.8742 -0.0698  0.3051
  800MOL0     C10287   5.580   9.366   7.946 -0.0265 -0.2914 -0.5086
  800MOL0     C10288   5.683   9.414   7.867  0.4519  0.1983  0.0583
  800MOL0     C10289   5.664   9.536   7.799 -0.6898 -0.6423 -0.1946
  800MOL0     C10290   5.782   9.555   7.715 -0.7727 -0.9979  0.2913
  800MOL0     C10291   5.556   9.626   7.823  0.3109 -0.2446  0.3029
  800MOL0     C10292   5.529   9.754   7.752 -0.2483 -0.5024  0.6127
  800MOL0     O10293   5.626   9.800   7.675  0.1706 -0.8118  1.2297
  800MOL0     C10294   5.598   9.842   7.547  0.3444 -0.4701 -0.5891
  800MOL0     C10295   5.504   9.780   7.462 -0.1911 -0.2452 -1.1827
  800MOL0     C10296   5.487   9.827   7.328 -0.0194 -0.0767 -0.2507
  800MOL0     C10297   5.572   9.923   7.272 -0.3118 -0.2161  0.1874
  800MOL0     O10298   5.584   9.969   7.147 -0.1677  0.0005 -0.0691
  800MOL0     C10299   5.462   9.974   7.072 -0.1797 -0.0725  0.4714
  800MOL0     C10300   5.472   9.999   6.924  0.4747 -0.7894 -0.5231
  800MOL0     C10301   5.520  10.131   6.895 -0.3115 -0.6192 -0.7010
  800MOL0     C10302   5.405  10.228   6.862 -0.1721 -0.2506  0.0010
  800MOL0     C10303   5.306  10.253   6.978  0.1521  0.3853  0.6593
  800MOL0     C10304   5.201  10.360   6.944  0.2859  0.2159 -0.8663
  800MOL0     C10305   5.252  10.509   6.953 -0.7308  0.3750 -0.4096
  800MOL0     C10306   5.155  10.624   6.912 -0.6496  0.6438 -0.7841
  800MOL0    Cl10307   4.996  10.603   6.990 -0.0033 -0.5537 -0.0893
  800MOL0     C10308   5.666   9.978   7.360 -0.1321 -0.0982 -0.4743
  800MOL0     C10309   5.678   9.938   7.492 -1.4268  0.4371 -0.5187
  800MOL0     O10310   5.417   9.807   7.768 -0.6091 -0.0279  0.1729
  800MOL0     C10311   5.454   9.571   7.907 -0.1438 -0.3794 -0.1053
  800MOL0     C10312   5.465   9.442   7.958  0.5118  0.0396  0.3253
  800MOL0     N10313   5.723   8.658   7.863  0.5900  0.9640  0.3163
  800MOL0     N10314   5.677   8.561   7.785 -0.0639  0.7716  0.3491
  800MOL0     C10315   4.759   8.288   8.165 -1.5189  1.0893  0.5784
  800MOL0     C10316   4.758   8.279   8.305 -0.2574 -0.2312  0.1729
  800MOL0     C10317   4.615   8.312   8.756  0.0991 -0.5806  0.5977
  800MOL0     C10318   4.557   8.395   8.855  0.0878 -0.2754 -0.2314
  800MOL0     C10319   4.553   8.362   8.991 -0.6314  1.2132 -0.3813
  800MOL0     C10320   4.620   8.250   9.038 -0.4403 -0.5430  0.1037
  800MOL0     O10321   4.615   8.215   9.173  0.3048  0.0852 -0.0261
  800MOL0     C10322   4.608   8.311   9.282  0.2999 -0.8672  0.5423
  800MOL0     C10323   4.730   8.407   9.268  0.2838 -0.2865  0.1909
  800MOL0     C10324   4.782   8.463   9.406 -0.2254 -0.0990  0.1750
  800MOL0     C10325   4.816   8.361   9.512 -0.1744  0.4413  0.5115
  800MOL0     C10326   4.895   8.249   9.444  0.6775 -0.3573 -0.9293
  800MOL0     C10327   4.950   8.152   9.397  0.1892  0.2103 -0.4302
  800MOL0     C10328   4.672   8.161   8.937 -0.2623  0.4682  0.0013
  800MOL0     C10329   4.676   8.183   8.806 -0.4589 -1.3566 -0.5437
  800MOL0     C10330   4.725   8.072   8.714  0.6182 -0.0898  1.8107
  800MOL0     H10331   4.462   8.404   8.382  0.3210 -1.2045  0.7868
  800MOL0     H10332   4.483   8.479   8.150  1.5551  1.5336  0.2995
  800MOL0     H10333   4.788   8.304   7.861  0.9196 -0.2331 -1.4847
  800MOL0     H10334   4.862   8.440   7.956  0.0141  5.5684 -2.7201
  800MOL0     H10335   4.662   8.445   7.727  0.9257  2.2866 -2.3554
  800MOL0     H10336   4.703   8.592   7.809 -1.8830 -0.1371  0.5348
  800MOL0     H10337   4.905   8.424   7.658  1.1804  0.9086 -2.0975
  800MOL0     H10338   4.826   8.572   7.606  1.4280  1.0826 -0.1248
  800MOL0     H10339   4.942   8.688   7.797  0.4526  0.5059  3.2680
  800MOL0     H10340   5.000   8.546   7.866 -1.1923  0.5434 -1.0131
  800MOL0     H10341   5.147   8.699   7.681  2.2728  0.2709 -3.7050
  800MOL0     H10342   5.087   8.575   7.577 -0.3030  4.0530 -1.1638
  800MOL0     H10343   5.252   8.517   7.823  0.9939 -2.0127 -0.2966
  800MOL0     H10344   5.178   8.393   7.740  0.2027  0.8678  1.8760
  800MOL0     H10345   5.353   8.614   7.613  1.8567 -1.5667 -1.3358
  800MOL0     H10346   5.323   8.449   7.546  1.5264  0.0240 -1.6404
  800MOL0     H10347   5.440   8.369   7.754 -0.6240 -1.5054 -1.6529
  800MOL0     H10348   5.541   8.429   7.624 -0.7827  0.1256 -0.2839
  800MOL0     H10349   5.386   8.660   7.910 -1.4469 -2.1784 -4.8609
  800MOL0     H10350   5.728   8.827   8.056 -0.8005  1.2767 -0.1418
  800MOL0     H10351   5.578   8.751   8.128 -3.4036 -1.2409 -1.3332
  800MOL0     H10352   5.596   8.974   7.920  2.3128 -3.6983  0.2533
  800MOL0     H10353   5.447   8.903   7.994  0.5887 -2.7343  0.2320
  800MOL0     H10354   5.515   8.990   8.213 -1.3077 -0.8063 -0.5591
  800MOL0     H10355   5.662   9.057   8.147  0.3472 -0.0407 -0.0519
  800MOL0     H10356   5.394   9.168   8.050  0.1007 -1.1689 -1.5165
  800MOL0     H10357   5.505   9.242   8.172  2.4709  1.8543 -1.4810
  800MOL0     H10358   5.768   9.346   7.865 -1.8726 -3.1540  2.9935
  800MOL0     H10359   5.863   9.586   7.780 -2.1996  2.0742  0.7875
  800MOL0     H10360   5.778   9.633   7.638 -2.0456 -1.4770 -0.1545
  800MOL0     H10361   5.818   9.466   7.662  1.8160 -0.1482  0.4767
  800MOL0     H10362   5.431   9.714   7.508 -0.2457  2.4386  3.1973
  800MOL0     H10363   5.413   9.768   7.275 -0.9309  0.1649  0.7093
  800MOL0     H10364   5.410   9.878   7.068  1.4537 -0.9640 -1.7434
  800MOL0     H10365   5.394  10.051   7.109  0.5938  1.6168 -1.4539
  800MOL0     H10366   5.539   9.923   6.884 -0.6049 -1.5328 -0.9525
  800MOL0     H10367   5.376   9.977   6.877  1.8612 -2.1402 -2.9091
  800MOL0     H10368   5.584  10.121   6.806 -2.6586  0.5317 -2.6430
  800MOL0     H10369   5.579  10.170   6.978 -2.1290 -0.9592  0.8092
  800MOL0     H10370   5.350  10.185   6.777 -5.8508  2.7228  1.6855
  800MOL0     H10371   5.445  10.324   6.828  0.9088 -0.9226 -0.7012
  800MOL0     H10372   5.242  10.166   6.993 -1.2863  1.6928  2.5756
  800MOL0     H10373   5.362  10.279   7.068  3.9117  2.6814 -2.0490
  800MOL0     H10374   5.114  10.342   7.008  0.4094 -0.2557 -0.8291
  800MOL0     H10375   5.162  10.356   6.842 -1.7927  1.6566 -0.2121
  800MOL0     H10376   5.343  10.525   6.895  1.4893 -1.8667  2.1532
  800MOL0     H10377   5.277  10.531   7.057 -0.0286 -0.8513 -0.2981
  800MOL0     H10378   5.149  10.629   6.803  2.0135  2.4139 -0.9328
  800MOL0     H10379   5.205  10.711   6.955 -2.6987  1.5123 -0.0494
  800MOL0     H10380   5.739  10.043   7.311 -0.6380  1.0776  0.2751
  800MOL0     H10381   5.763   9.974   7.549 -0.0765 -2.1583 -0.7279
  800MOL0     H10382   5.358   9.617   7.929  0.9399  2.6577 -1.2551
  800MOL0     H10383   5.377   9.400   8.005 -0.2472  1.2484  0.0472
  800MOL0     H10384   4.823   8.237   8.093 -3.4728 -0.7461  0.0260
  800MOL0     H10385   4.847   8.232   8.348 -0.0932  0.0288  0.1194
  800MOL0     H10386   4.510   8.485   8.816  0.8488 -0.5148 -1.8103
  800MOL0     H10387   4.510   8.426   9.067  2.4183 -0.2218  2.8673
  800MOL0     H10388   4.518   8.372   9.291  2.1922  2.3827 -0.8270
  800MOL0     H10389   4.614   8.257   9.377 -0.2284 -1.3151  0.3255
  800MOL0     H10390   4.691   8.496   9.217 -2.8519 -0.9352  1.2368
  800MOL0     H10391   4.813   8.361   9.213 -0.2947 -0.1942 -0.7909
  800MOL0     H10392   4.879   8.513   9.391  0.9247 -2.3718 -0.3353
  800MOL0     H10393   4.711   8.531   9.454  3.2226  1.8945  3.0314
  800MOL0     H10394   4.726   8.323   9.562 -0.7145  0.4074 -0.4714
  800MOL0     H10395   4.873   8.400   9.597 -1.0019  2.3191  0.2425
  800MOL0     H10396   4.990   8.059   9.362 -0.6455 -0.3847  0.1612
  800MOL0     H10397   4.723   8.078   8.987  0.2745  0.0355 -1.2317
  800MOL0     H10398   4.827   8.091   8.679  0.1365 -0.3438  0.1758
  800MOL0     H10399   4.729   7.977   8.767 -3.5241 -0.7306  1.2635
  800MOL0     H10400   4.651   8.056   8.635  0.5302  1.5215  1.5275
  801MOL0     O10401   0.823  11.035  10.870  0.0193 -0.6923 -0.1025
  801MOL0     C10402   0.777  10.983  10.762 -0.6685  0.4719 -0.3349
  801MOL0     O10403   0.846  10.944  10.648  0.7832 -0.8357 -0.2183
  801MOL0     C10404   0.975  10.987  10.628  0.0574  0.1201  0.3431
  801MOL0     C10405   1.004  11.064  10.513  0.2628 -0.2793 -0.0342
  801MOL0     C10406   1.141  11.095  10.487  0.0739 -0.1226 -0.0296
  801MOL0     C10407   1.246  11.052  10.569 -0.0056  0.7224  0.0415
  801MOL0     O10408   1.384  11.088  10.536  0.1313  1.1773  0.0252
  801MOL0     C10409   1.445  11.169  10.626 -0.4763 -0.0951 -0.2259
  801MOL0     C10410   1.592  11.126  10.637 -0.3631  0.0567  0.5930
  801MOL0     C10411   1.658  11.208  10.746 -0.9905  0.0329  0.2140
  801MOL0     C10412   1.652  11.133  10.881 -0.4593 -0.5850 -0.7969
  801MOL0     C10413   1.730  11.202  10.997 -0.5955 -0.0981  0.3748
  801MOL0     C10414   1.886  11.195  10.967 -0.6587 -0.5124 -0.5966
  801MOL0     C10415   1.974  11.271  11.067  0.0844 -0.0865  0.7001
  801MOL0     C10416   1.965  11.215  11.205 -0.9448  0.6204 -0.0884
  801MOL0     N10417   2.083  11.239  11.289 -0.0078 -0.4766  0.2168
  801MOL0     C10418   2.200  11.162  11.312 -0.0168 -0.1439  0.2039
  801MOL0     C10419   2.294  11.238  11.369  0.7077 -1.0194  0.2032
  801MOL0     C10420   2.433  11.196  11.410 -0.7364 -0.8011 -0.7327
  801MOL0     C10421   2.448  11.158  11.554 -0.0704 -0.3278  0.2905
  801MOL0     C10422   2.418  11.011  11.575  0.1691 -0.0486  0.5218
  801MOL0     C10423   2.431  10.973  11.723 -0.2319  0.0461 -0.7522
  801MOL0     O10424   2.424  10.826  11.740 -0.2240  0.3309 -0.1741
  801MOL0     C10425   2.535  10.749  11.741 -0.3796  0.3759  0.4958
  801MOL0     C10426   2.521  10.615  11.719  0.3413 -0.2071 -0.0450
  801MOL0     C10427   2.627  10.520  11.723  0.3820 -0.8769 -0.1768
  801MOL0     C10428   2.596  10.383  11.671 -0.3453  0.5147 -0.3911
  801MOL0     C10429   2.757  10.569  11.742  0.1037  0.2496 -0.3952
  801MOL0     C10430   2.882  10.482  11.745  0.4235  0.1669 -0.1969
  801MOL0     O10431   2.993  10.547  11.774  0.0427  0.4001  0.0899
  801MOL0     C10432   3.113  10.481  11.749 -0.6930  0.3934 -0.3473
  801MOL0     C10433   3.224  10.533  11.815 -0.5287 -0.2029  1.0472
  801MOL0     C10434   3.353  10.474  11.812  0.6218 -0.3418 -0.3094
  801MOL0     C10435   3.366  10.347  11.746  0.3609 -0.6786 -0.4438
  801MOL0     O10436   3.482  10.279  11.752 -0.3863  1.0124  0.4708
  801MOL0     C10437   3.524  10.199  11.637 -0.5364  0.1072 -0.3714
  801MOL0     C10438   3.671  10.177  11.643  0.7006 -0.1807  0.7296
  801MOL0     C10439   3.763  10.289  11.584 -0.0385 -0.0614 -0.2024
  801MOL0     C10440   3.909  10.252  11.616  0.3556  0.4032 -0.0592
  801MOL0     C10441   3.985  10.383  11.609 -0.0869 -0.9291 -0.1896
  801MOL0     C10442   4.130  10.377  11.666  0.3819  0.1393 -0.5983
  801MOL0     C10443   4.194  10.504  11.621 -0.7379 -0.2329 -1.2082
  801MOL0     C10444   4.344  10.503  11.651 -0.3516  0.1688  0.0482
  801MOL0    Cl10445   4.419  10.637  11.573  0.6180 -0.0168 -0.0855
  801MOL0     C10446   3.255  10.284  11.696 -0.5831 -0.0805  0.4393
  801MOL0     C10447   3.139  10.352  11.680  0.2181 -0.4602  0.0916
  801MOL0     O10448   2.869  10.363  11.747  0.1241  0.4265 -0.2039
  801MOL0     C10449   2.762  10.705  11.782 -0.6355  0.1389  0.0364
  801MOL0     C10450   2.659  10.791  11.775 -0.1033 -0.4908  0.2537
  801MOL0     N10451   2.231  11.364  11.382 -0.6720 -0.0876  0.7910
  801MOL0     N10452   2.115  11.369  11.332  0.0155 -0.4639 -0.4342
  801MOL0     C10453   1.213  10.976  10.683  0.3627  0.4703 -0.3694
  801MOL0     C10454   1.082  10.937  10.714 -0.3222 -0.0198  0.0479
  801MOL0     C10455   0.641  10.928  10.765  0.2670 -0.1741 -0.8212
  801MOL0     C10456   0.548  11.008  10.835 -0.0424  0.2836 -0.4505
  801MOL0     C10457   0.409  10.966  10.830  0.4324 -0.0899 -0.3215
  801MOL0     C10458   0.373  10.854  10.758 -0.6336 -0.0119 -0.3754
  801MOL0     O10459   0.246  10.823  10.727 -0.3004  0.0388 -0.0835
  801MOL0     C10460   0.177  10.779  10.845 -0.1347  0.7159 -0.1011
  801MOL0     C10461   0.100  10.657  10.808 -0.6924 -0.3726  0.2205
  801MOL0     C10462  -0.032  10.685  10.738 -0.4033 -0.6131 -0.4524
  801MOL0     C10463  -0.114  10.554  10.745  0.0964  0.4339  0.5979
  801MOL0     C10464  -0.243  10.585  10.670 -0.5956 -0.3268 -0.1524
  801MOL0     C10465  -0.350  10.620  10.623 -0.1047  0.0766 -0.4575
  801MOL0     C10466   0.464  10.782  10.686 -0.3071  0.4270 -0.0082
  801MOL0     C10467   0.601  10.813  10.684 -0.4278  1.5191 -0.2073
  801MOL0     C10468   0.692  10.721  10.603  0.6069  0.8051  0.3014
  801MOL0     H10469   0.928  11.102  10.446  3.2856  0.1147 -3.5314
  801MOL0     H10470   1.169  11.156  10.401  1.0062 -1.4061 -0.6609
  801MOL0     H10471   1.393  11.158  10.722  0.2137  1.4596  0.3583
  801MOL0     H10472   1.438  11.276  10.605 -0.7512 -0.2539 -0.9745
  801MOL0     H10473   1.594  11.019  10.657 -1.2922 -0.2079 -0.6372
  801MOL0     H10474   1.645  11.147  10.543  1.9109 -0.7921  1.6041
  801MOL0     H10475   1.764  11.210  10.717 -1.2774  1.6916 -0.8084
  801MOL0     H10476   1.623  11.309  10.765  0.8427 -0.1106  6.0667
  801MOL0     H10477   1.548  11.145  10.911  0.1752  2.0965  0.6779
  801MOL0     H10478   1.670  11.025  10.882 -1.9313 -0.9386  2.4119
  801MOL0     H10479   1.708  11.147  11.089  2.1717  1.4893  2.1408
  801MOL0     H10480   1.692  11.304  11.012  0.2539  0.2784  0.0585
  801MOL0     H10481   1.915  11.090  10.977  0.7875  0.0664  2.7196
  801MOL0     H10482   1.912  11.221  10.865 -1.9869  1.3293 -0.5245
  801MOL0     H10483   1.941  11.374  11.077  3.5011  1.2711 -0.5348
  801MOL0     H10484   2.074  11.287  11.026 -1.0698  3.3490 -1.1765
  801MOL0     H10485   1.871  11.242  11.254 -0.1742  1.9395  0.7141
  801MOL0     H10486   1.958  11.106  11.205 -2.4625  0.6899 -0.5407
  801MOL0     H10487   2.224  11.059  11.290 -0.8813  0.0347 -1.8526
  801MOL0     H10488   2.502  11.278  11.390  0.0150 -0.1677  3.5508
  801MOL0     H10489   2.468  11.113  11.348 -2.1347 -2.1037  0.1473
  801MOL0     H10490   2.553  11.176  11.579  0.2729 -0.0040 -1.2826
  801MOL0     H10491   2.382  11.217  11.618  0.3390 -1.4828  1.8468
  801MOL0     H10492   2.317  10.988  11.541  0.5659  0.3251 -0.9864
  801MOL0     H10493   2.493  10.954  11.520  0.5490  0.5125  0.4410
  801MOL0     H10494   2.528  11.013  11.753 -0.0183 -0.2622 -1.0303
  801MOL0     H10495   2.350  11.015  11.784  0.3106 -1.4102  1.0862
  801MOL0     H10496   2.422  10.576  11.697 -1.6617  2.5892  3.1268
  801MOL0     H10497   2.505  10.378  11.611 -0.3727 -1.0577 -0.2581
  801MOL0     H10498   2.580  10.318  11.758 -1.0283  1.1398 -0.0336
  801MOL0     H10499   2.676  10.338  11.611  1.4815  0.3143  1.9935
  801MOL0     H10500   3.217  10.628  11.867  2.4411  0.5271  0.3061
  801MOL0     H10501   3.441  10.523  11.854 -1.0815  0.6680  2.3448
  801MOL0     H10502   3.472  10.103  11.646  2.3666 -1.5980 -0.7864
  801MOL0     H10503   3.495  10.257  11.550  0.5106  0.1360 -0.7123
  801MOL0     H10504   3.681  10.158  11.751 -4.1641  1.3267  1.7006
  801MOL0     H10505   3.690  10.087  11.584 -0.8229  0.6096 -1.0591
  801MOL0     H10506   3.743  10.380  11.641 -0.3677 -0.2798  0.0352
  801MOL0     H10507   3.753  10.299  11.476 -1.8573  1.3343  0.0463
  801MOL0     H10508   3.942  10.182  11.539 -1.0996 -2.2978  1.5920
  801MOL0     H10509   3.927  10.206  11.714 -0.0073  0.2653 -0.0549
  801MOL0     H10510   3.985  10.426  11.508  2.9916  0.7853  0.4265
  801MOL0     H10511   3.927  10.450  11.673 -0.9910 -0.3273 -1.6028
  801MOL0     H10512   4.180  10.293  11.616  1.5102  0.4391 -0.0068
  801MOL0     H10513   4.131  10.377  11.775 -0.6978  1.9473 -0.5606
  801MOL0     H10514   4.159  10.595  11.670 -0.2415 -1.7004  2.1240
  801MOL0     H10515   4.181  10.506  11.512 -0.5932 -1.1020 -1.2497
  801MOL0     H10516   4.391  10.410  11.615 -0.2112 -0.4133  1.6424
  801MOL0     H10517   4.363  10.504  11.759 -1.4077 -2.3722  0.3251
  801MOL0     H10518   3.267  10.179  11.672  1.0578  0.1314  0.2324
  801MOL0     H10519   3.066  10.299  11.619  0.2542 -1.2905  0.7662
  801MOL0     H10520   2.857  10.750  11.806 -0.3447  0.1919 -1.1354
  801MOL0     H10521   2.687  10.890  11.811 -1.8769 -1.0135  3.4441
  801MOL0     H10522   1.291  10.944  10.752 -0.2560  3.2562  1.8166
  801MOL0     H10523   1.072  10.865  10.794 -0.1388  2.2129  2.2319
  801MOL0     H10524   0.587  11.098  10.883  1.5114 -0.6276  0.0812
  801MOL0     H10525   0.345  11.029  10.891 -0.4122 -1.3428  0.1372
  801MOL0     H10526   0.238  10.747  10.930 -0.0404 -1.4246 -0.9145
  801MOL0     H10527   0.109  10.859  10.876  0.0626  0.7646  0.2174
  801MOL0     H10528   0.077  10.598  10.897 -0.4743 -1.1912 -0.2559
  801MOL0     H10529   0.171  10.597  10.751 -1.0157 -2.8578  2.2721
  801MOL0     H10530  -0.090  10.760  10.794  1.6318  1.5668 -1.1172
  801MOL0     H10531  -0.008  10.720  10.638  1.5496 -0.4618  0.0331
  801MOL0     H10532  -0.143  10.525  10.847 -0.0188 -0.3764  0.3412
  801MOL0     H10533  -0.057  10.471  10.703  1.9868  1.2657  1.4088
  801MOL0     H10534  -0.449  10.645  10.590 -1.7460 -0.3682  3.5864
  801MOL0     H10535   0.441  10.697  10.622  1.7364 -0.9886  1.0253
  801MOL0     H10536   0.756  10.667  10.674 -1.2756 -0.1482  1.3537
  801MOL0     H10537   0.629  10.650  10.548 -1.7007  2.3142  0.8301
  801MOL0     H10538   0.749  10.772  10.525  2.7296  0.3711  1.4754
  802MOL0     O10539   4.102   3.393   4.647  0.2310  0.4072  0.3461
  802MOL0     C10540   4.045   3.496   4.607 -0.1587  0.6114 -0.1321
  802MOL0     O10541   4.100   3.625   4.593  0.1146  0.6165 -0.5896
  802MOL0     C10542   4.233   3.632   4.594 -0.5072  0.5377  0.1052
  802MOL0     C10543   4.298   3.622   4.718 -0.5930 -0.0211  0.2080
  802MOL0     C10544   4.443   3.621   4.717  0.1737 -0.9380  0.4638
  802MOL0     C10545   4.512   3.623   4.591  0.5269 -0.8596  0.4738
  802MOL0     O10546   4.648   3.625   4.577 -0.1179  0.4218  0.6956
  802MOL0     C10547   4.736   3.583   4.685 -0.0511 -0.1090  0.2289
  802MOL0     C10548   4.886   3.581   4.661  0.9215  0.8799  1.4635
  802MOL0     C10549   4.910   3.488   4.541 -0.6723 -0.2404 -0.6706
  802MOL0     C10550   5.049   3.528   4.480 -0.1831 -0.1880 -0.3184
  802MOL0     C10551   5.080   3.440   4.360  0.0907  0.6060  0.1681
  802MOL0     C10552   5.220   3.457   4.306  0.0391 -0.0806 -0.2130
  802MOL0     C10553   5.259   3.604   4.268  0.6071  0.7375 -0.1972
  802MOL0     C10554   5.373   3.607   4.167 -0.1177  0.2366  1.0450
  802MOL0     N10555   5.495   3.552   4.243  0.0815  0.3509 -0.5975
  802MOL0     C10556   5.551   3.618   4.351  0.1869  0.0634  0.4396
  802MOL0     C10557   5.672   3.563   4.378  0.3486 -0.6764 -0.0887
  802MOL0     C10558   5.779   3.612   4.474  0.3192 -0.5285  0.5970
  802MOL0     C10559   5.905   3.534   4.451 -0.7849  0.5257 -0.1096
  802MOL0     C10560   6.013   3.588   4.541 -0.7674 -0.3253  0.1368
  802MOL0     C10561   6.142   3.523   4.494  0.7658  0.4894 -0.7274
  802MOL0     O10562   6.247   3.559   4.581 -1.1360 -0.4155 -0.4244
  802MOL0     C10563   6.369   3.518   4.547  0.2501 -0.3372 -0.0737
  802MOL0     C10564   6.396   3.427   4.441  0.3902  0.7170  0.3980
  802MOL0     C10565   6.526   3.382   4.408 -0.3998  0.3450 -0.1108
  802MOL0     C10566   6.543   3.296   4.285 -0.4130  0.3192  0.2942
  802MOL0     C10567   6.638   3.415   4.494 -0.1905  0.4964  0.0071
  802MOL0     C10568   6.772   3.356   4.477 -0.5314  1.1467 -0.8307
  802MOL0     O10569   6.859   3.406   4.571 -0.2490 -0.2198 -0.6066
  802MOL0     C10570   6.999   3.391   4.567 -0.6139 -0.7586  0.2590
  802MOL0     C10571   7.058   3.373   4.689 -0.1647  0.5403 -0.8082
  802MOL0     C10572   7.202   3.365   4.694  0.3454  0.3222 -0.6761
  802MOL0     C10573   7.278   3.386   4.573 -0.2035  1.3557  0.1751
  802MOL0     O10574   7.418   3.375   4.594 -0.1672  0.1588  0.2874
  802MOL0     C10575   7.512   3.437   4.497 -0.6297  0.0093 -0.2560
  802MOL0     C10576   7.517   3.588   4.509  0.0771 -0.4742 -0.0555
  802MOL0     C10577   7.551   3.622   4.655  0.1744  0.1502  0.8079
  802MOL0     C10578   7.541   3.777   4.668 -0.4275 -0.0658 -0.4231
  802MOL0     C10579   7.679   3.849   4.650 -0.2119  0.3600  0.0880
  802MOL0     C10580   7.670   3.942   4.523  0.1710 -0.4620 -0.5235
  802MOL0     C10581   7.799   4.022   4.513 -0.3756  0.8352  0.1670
  802MOL0     C10582   7.818   4.132   4.617  0.0840  0.3336  0.4742
  802MOL0    Cl10583   7.672   4.239   4.632  0.0545 -0.2393  0.0019
  802MOL0     C10584   7.217   3.402   4.450  0.3264 -0.1626 -0.2405
  802MOL0     C10585   7.076   3.410   4.446  0.6861  0.2962 -0.2808
  802MOL0     O10586   6.802   3.269   4.390 -0.2970 -1.1788 -0.0717
  802MOL0     C10587   6.606   3.499   4.603  0.0709  0.4080  0.0452
  802MOL0     C10588   6.475   3.552   4.624  0.2230 -0.3149 -0.6923
  802MOL0     N10589   5.688   3.464   4.283  0.5608  0.7878 -0.1331
  802MOL0     N10590   5.584   3.452   4.207  0.7668  1.2111  0.0293
  802MOL0     C10591   4.440   3.650   4.472  0.5021  0.1999  0.0906
  802MOL0     C10592   4.303   3.633   4.474  0.3042 -0.2393  0.5343
  802MOL0     C10593   3.899   3.504   4.575 -0.1469  0.8529  0.3294
  802MOL0     C10594   3.837   3.625   4.582 -0.9011 -0.4839 -0.4054
  802MOL0     C10595   3.707   3.637   4.537 -0.1746 -0.5681  0.5400
  802MOL0     C10596   3.637   3.527   4.484  0.6187 -0.0874 -0.4750
  802MOL0     O10597   3.516   3.546   4.430  0.8166  0.0739 -0.3311
  802MOL0     C10598   3.460   3.673   4.429 -0.6415 -0.2887 -0.6375
  802MOL0     C10599   3.315   3.665   4.372  0.8626 -0.4961 -0.5162
  802MOL0     C10600   3.279   3.811   4.311 -0.3120 -0.3162  0.3606
  802MOL0     C10601   3.141   3.827   4.264 -0.4653  0.0888 -0.0629
  802MOL0     C10602   3.048   3.798   4.377  0.2011 -0.5194  0.4660
  802MOL0     C10603   2.961   3.777   4.460  0.0507  0.6691  0.3107
  802MOL0     C10604   3.693   3.400   4.483 -0.5227 -0.5508  0.2301
  802MOL0     C10605   3.823   3.391   4.536 -0.3744  0.0489  0.3703
  802MOL0     C10606   3.885   3.263   4.505  0.5038  1.0382 -0.2501
  802MOL0     H10607   4.232   3.620   4.803 -3.4416 -4.3748 -1.7300
  802MOL0     H10608   4.506   3.623   4.805  1.0076  1.4264 -0.0946
  802MOL0     H10609   4.700   3.484   4.714 -2.3030  0.0384 -1.7934
  802MOL0     H10610   4.726   3.650   4.771  0.0797 -0.9620  0.9301
  802MOL0     H10611   4.923   3.678   4.629 -1.0713  0.4464 -2.7627
  802MOL0     H10612   4.934   3.551   4.755  0.1590 -3.5846  0.6581
  802MOL0     H10613   4.920   3.384   4.574 -0.0768 -0.5677 -1.8230
  802MOL0     H10614   4.825   3.491   4.472 -0.2579  0.4605 -1.1562
  802MOL0     H10615   5.049   3.635   4.458 -1.0987 -0.5845 -2.5038
  802MOL0     H10616   5.125   3.516   4.557  0.8017 -0.1952 -1.2716
  802MOL0     H10617   5.008   3.466   4.282  0.5534 -1.2498 -0.9343
  802MOL0     H10618   5.078   3.339   4.403  1.8690  0.8474  0.9454
  802MOL0     H10619   5.290   3.415   4.380  0.5677  0.8705 -0.1545
  802MOL0     H10620   5.214   3.389   4.220 -1.5602 -1.4181  0.8822
  802MOL0     H10621   5.298   3.647   4.362  0.6582  1.1023 -0.3820
  802MOL0     H10622   5.177   3.664   4.228 -0.5964 -0.1921  0.8049
  802MOL0     H10623   5.352   3.550   4.075  1.4583 -0.4544  1.0780
  802MOL0     H10624   5.394   3.709   4.134  0.9169 -0.6701 -1.3284
  802MOL0     H10625   5.506   3.699   4.408 -1.7590 -0.5667 -0.1147
  802MOL0     H10626   5.755   3.595   4.579 -0.2436 -0.5287  0.4683
  802MOL0     H10627   5.798   3.720   4.467 -1.2195 -0.2322  0.6267
  802MOL0     H10628   5.892   3.428   4.474 -1.0309  1.1400  3.0749
  802MOL0     H10629   5.936   3.539   4.346 -1.1994 -1.0853 -0.3280
  802MOL0     H10630   6.026   3.696   4.530 -0.5155 -0.6206 -3.5582
  802MOL0     H10631   5.991   3.573   4.647 -1.2162 -1.5037 -0.1048
  802MOL0     H10632   6.119   3.416   4.499 -1.8854  1.0402  1.3418
  802MOL0     H10633   6.156   3.539   4.387 -1.2701 -3.2792 -1.7534
  802MOL0     H10634   6.318   3.383   4.381 -0.2029  0.2958  1.4518
  802MOL0     H10635   6.573   3.192   4.301  1.0855  0.8860  1.4075
  802MOL0     H10636   6.624   3.342   4.229  0.0167  0.3274  0.9069
  802MOL0     H10637   6.447   3.296   4.233 -1.4232 -4.6105  1.5785
  802MOL0     H10638   6.995   3.341   4.770 -0.0406  0.4112 -0.7622
  802MOL0     H10639   7.257   3.343   4.785  0.3704 -0.0052 -0.7728
  802MOL0     H10640   7.613   3.405   4.526 -1.1730 -0.8965  0.6983
  802MOL0     H10641   7.492   3.408   4.393 -0.0672  0.3396 -0.4648
  802MOL0     H10642   7.591   3.628   4.439  1.3541 -2.2261  0.2291
  802MOL0     H10643   7.420   3.619   4.469  0.9003  1.5629 -0.5848
  802MOL0     H10644   7.647   3.580   4.686  0.0916 -1.8232 -1.3877
  802MOL0     H10645   7.466   3.579   4.709  0.3306 -0.1247  0.8353
  802MOL0     H10646   7.501   3.786   4.770 -1.0404 -0.7164 -0.5993
  802MOL0     H10647   7.463   3.824   4.608  0.9607 -0.0250 -2.2737
  802MOL0     H10648   7.708   3.909   4.737  2.0229 -2.9532  1.8231
  802MOL0     H10649   7.742   3.760   4.640 -4.5965 -3.1904  0.8927
  802MOL0     H10650   7.580   4.004   4.533  0.6154 -0.0562  1.2854
  802MOL0     H10651   7.653   3.886   4.430 -2.3820  1.9094 -1.6349
  802MOL0     H10652   7.803   4.069   4.414 -1.8310 -1.0767 -0.8474
  802MOL0     H10653   7.886   3.957   4.519 -2.3510 -2.1059 -1.1200
  802MOL0     H10654   7.899   4.192   4.574 -0.0986  0.3894  0.2084
  802MOL0     H10655   7.863   4.099   4.711  1.1394 -0.2995 -0.2247
  802MOL0     H10656   7.283   3.405   4.364 -0.6518 -0.2753 -1.0075
  802MOL0     H10657   7.024   3.408   4.351  1.6507 -2.2821 -0.8345
  802MOL0     H10658   6.668   3.512   4.691 -2.2482  1.6920  1.5949
  802MOL0     H10659   6.451   3.604   4.717 -0.9703  1.4267 -1.9214
  802MOL0     H10660   4.477   3.664   4.371 -3.0790 -0.8252 -1.5503
  802MOL0     H10661   4.245   3.630   4.382  0.6121  3.4184  0.0805
  802MOL0     H10662   3.879   3.711   4.633  0.6519 -1.5552  0.1909
  802MOL0     H10663   3.668   3.738   4.532 -4.0566 -1.8598  0.9813
  802MOL0     H10664   3.446   3.712   4.530 -3.3576 -0.2384 -0.9590
  802MOL0     H10665   3.523   3.732   4.361  1.5349 -1.2197  0.4833
  802MOL0     H10666   3.244   3.641   4.452  1.2845  0.1405  0.0596
  802MOL0     H10667   3.318   3.586   4.296  2.5677 -2.8124  1.8108
  802MOL0     H10668   3.290   3.888   4.388 -1.8671  0.0042  0.2964
  802MOL0     H10669   3.352   3.835   4.232 -0.2414  0.7687  0.7377
  802MOL0     H10670   3.119   3.767   4.176 -1.9630  3.8441 -2.4969
  802MOL0     H10671   3.127   3.931   4.232  1.2047  1.6771  3.7067
  802MOL0     H10672   2.873   3.753   4.517  0.0078  1.9922  0.8458
  802MOL0     H10673   3.636   3.316   4.445 -2.6229  0.8535  0.0558
  802MOL0     H10674   3.815   3.187   4.469  0.6778  0.3954  0.7284
  802MOL0     H10675   3.966   3.282   4.434  0.9881  2.4393  0.6439
  802MOL0     H10676   3.929   3.217   4.594  0.1526  1.2196  0.0188
  803MOL0     O10677  10.936   8.547   7.321 -0.5414  0.0030 -0.0805
  803MOL0     C10678  10.904   8.634   7.402  0.1112  1.4729 -0.2910
  803MOL0     O10679  10.991   8.712   7.465 -0.5232 -0.7264  0.0628
  803MOL0     C10680  11.129   8.704   7.431  0.1850  0.0108  0.0083
  803MOL0     C10681  11.207   8.681   7.542  0.3091 -0.1132  0.0956
  803MOL0     C10682  11.341   8.663   7.533  0.1626  0.0122 -0.0151
  803MOL0     C10683  11.406   8.661   7.406 -0.4313 -0.5580 -1.0450
  803MOL0     O10684  11.544   8.642   7.395  0.1167  0.3903 -0.3863
  803MOL0     C10685  11.623   8.670   7.514 -0.5925 -0.2192  0.4669
  803MOL0     C10686  11.771   8.662   7.484  0.0633  0.2985 -0.3163
  803MOL0     C10687  11.798   8.749   7.362 -0.2840 -0.5982  0.4421
  803MOL0     C10688  11.947   8.765   7.339  0.2043 -0.0236  0.5506
  803MOL0     C10689  11.985   8.864   7.229  0.6932  0.2773 -0.4881
  803MOL0     C10690  12.128   8.857   7.198 -1.0933 -0.1394  0.0535
  803MOL0     C10691  12.178   8.960   7.105  0.7720  0.4652 -0.7040
  803MOL0     C10692  12.094   8.948   6.974 -0.0804  0.0204  0.4137
  803MOL0     N10693  12.151   9.029   6.866 -0.4747  0.0222  0.3025
  803MOL0     C10694  12.286   9.027   6.828  0.2146  1.1868  0.0172
  803MOL0     C10695  12.298   9.128   6.731 -0.0274  0.9337 -0.1333
  803MOL0     C10696  12.427   9.195   6.691 -0.1545 -1.0109 -0.2721
  803MOL0     C10697  12.504   9.114   6.584  0.5608  0.1677  0.8713
  803MOL0     C10698  12.629   9.192   6.523 -0.4188  0.8102  0.2027
  803MOL0     C10699  12.749   9.117   6.471  0.0958  0.4074 -0.9348
  803MOL0     O10700  12.836   9.073   6.583  0.3021 -0.0624  0.0820
  803MOL0     C10701  12.955   8.998   6.556  0.0809  0.0351 -0.0966
  803MOL0     C10702  12.996   8.961   6.426 -0.0821 -0.7433  0.1389
  803MOL0     C10703  13.117   8.899   6.404  0.6645  0.3436 -0.3093
  803MOL0     C10704  13.160   8.871   6.260  0.6721  0.0618 -0.8944
  803MOL0     C10705  13.204   8.864   6.507  0.1969  0.6736  0.5259
  803MOL0     C10706  13.329   8.784   6.491  0.0476  0.1813  0.3392
  803MOL0     O10707  13.361   8.696   6.586 -0.1193 -0.4668 -0.2951
  803MOL0     C10708  13.480   8.622   6.584  0.3304 -0.5800  0.8433
  803MOL0     C10709  13.517   8.557   6.702  0.4615  0.1243  0.6553
  803MOL0     C10710  13.642   8.488   6.712  0.3307  0.4531  0.1408
  803MOL0     C10711  13.721   8.464   6.605  0.4393 -0.0216  0.3852
  803MOL0     O10712  13.824   8.379   6.632 -0.0114  0.9126 -0.6046
  803MOL0     C10713  13.906   8.344   6.523 -0.5524  0.0651  0.6369
  803MOL0     C10714  14.026   8.279   6.585 -0.8549  0.2027 -0.3812
  803MOL0     C10715  14.104   8.395   6.659 -0.0873  0.2378 -0.9900
  803MOL0     C10716  14.237   8.354   6.731  0.5463 -0.2461  0.8125
  803MOL0     C10717  14.303   8.473   6.798  0.3079 -0.0291 -0.1688
  803MOL0     C10718  14.424   8.452   6.879  1.0140  0.1306 -0.2970
  803MOL0     C10719  14.456   8.585   6.949 -0.1419  0.0491 -0.3002
  803MOL0     C10720  14.576   8.571   7.043  0.5495 -0.2920  0.5913
  803MOL0    Cl10721  14.718   8.484   6.973  0.0225  0.2784  0.4381
  803MOL0     C10722  13.680   8.512   6.483  0.0973 -1.1706 -0.3950
  803MOL0     C10723  13.564   8.588   6.471  0.5085  0.1106 -0.4041
  803MOL0     O10724  13.407   8.822   6.401  0.9566  0.7102  0.3354
  803MOL0     C10725  13.155   8.889   6.639  0.1781  0.8482 -0.1406
  803MOL0     C10726  13.042   8.965   6.663  0.8113 -0.6020 -0.6920
  803MOL0     N10727  12.178   9.190   6.721  0.9906 -0.5978  0.1958
  803MOL0     N10728  12.095   9.134   6.805 -0.5468  0.3191 -0.7188
  803MOL0     C10729  11.324   8.681   7.292 -0.5955 -0.1178  0.0181
  803MOL0     C10730  11.190   8.700   7.303  0.2660 -0.2764 -0.1177
  803MOL0     C10731  10.771   8.646   7.458 -0.0875  0.0139 -0.2863
  803MOL0     C10732  10.732   8.754   7.539 -0.5595  0.1759  0.6665
  803MOL0     C10733  10.597   8.790   7.571  0.4418 -0.2231  0.2946
  803MOL0     C10734  10.498   8.697   7.546  0.4037 -0.7293  0.9827
  803MOL0     O10735  10.369   8.719   7.589  0.1156  0.4716 -0.6127
  803MOL0     C10736  10.341   8.808   7.697 -0.1693  0.9182 -0.4006
  803MOL0     C10737  10.207   8.785   7.764  0.4848 -0.5494  0.7881
  803MOL0     C10738  10.099   8.783   7.648 -0.2602 -0.2066  0.7625
  803MOL0     C10739  10.057   8.645   7.604 -0.2054 -0.6513  0.2600
  803MOL0     C10740   9.957   8.655   7.489 -0.3375  0.7177 -0.7662
  803MOL0     C10741   9.883   8.678   7.399  0.3222 -0.3022  0.9422
  803MOL0     C10742  10.536   8.579   7.479  0.0636 -0.0444 -0.7089
  803MOL0     C10743  10.666   8.559   7.423  0.6244  0.5607 -0.4700
  803MOL0     C10744  10.678   8.427   7.351 -0.1110  0.2186 -0.0364
  803MOL0     H10745  11.154   8.677   7.638  0.6060  0.6346  0.2977
  803MOL0     H10746  11.398   8.661   7.625  1.8054  1.6391 -0.9272
  803MOL0     H10747  11.604   8.593   7.589  2.7833 -0.4848  1.1931
  803MOL0     H10748  11.597   8.765   7.561  1.5883  0.4343  0.4789
  803MOL0     H10749  11.823   8.694   7.574  1.7617 -1.1061 -0.7385
  803MOL0     H10750  11.796   8.559   7.457 -2.1273 -0.9316  1.8883
  803MOL0     H10751  11.757   8.696   7.275  1.5170  0.1305 -0.9379
  803MOL0     H10752  11.748   8.846   7.364 -0.2559 -0.5867  2.5700
  803MOL0     H10753  11.992   8.786   7.436  1.5349 -2.4545  0.5386
  803MOL0     H10754  11.989   8.668   7.309 -0.8164 -0.9682  2.0096
  803MOL0     H10755  11.960   8.965   7.264 -0.3492 -0.5576  1.3152
  803MOL0     H10756  11.922   8.842   7.142  2.2777 -0.0610 -1.5960
  803MOL0     H10757  12.194   8.850   7.285  1.2060  1.3926 -1.4380
  803MOL0     H10758  12.151   8.767   7.139  0.5707  1.1195 -1.3177
  803MOL0     H10759  12.285   8.944   7.090  0.4903 -0.8043 -1.6202
  803MOL0     H10760  12.150   9.056   7.147 -1.4141 -0.1335 -0.6797
  803MOL0     H10761  12.083   8.845   6.941  2.8679 -0.9509  2.0145
  803MOL0     H10762  11.997   8.995   6.994  0.4733  1.9230 -1.0551
  803MOL0     H10763  12.365   8.969   6.875  0.4894  1.0199 -0.6324
  803MOL0     H10764  12.488   9.206   6.781 -0.7442 -1.7408  0.2223
  803MOL0     H10765  12.400   9.291   6.646  0.1497 -1.3665 -1.2372
  803MOL0     H10766  12.533   9.022   6.635  2.0515  0.2967  0.3081
  803MOL0     H10767  12.441   9.091   6.498  1.9244  1.6473 -0.6054
  803MOL0     H10768  12.594   9.259   6.444 -0.6772  1.6115  0.9760
  803MOL0     H10769  12.672   9.253   6.604  1.7746  2.1411 -1.8212
  803MOL0     H10770  12.713   9.034   6.410 -0.6471 -2.0041  2.5071
  803MOL0     H10771  12.811   9.188   6.415  3.3128 -1.2947  0.2205
  803MOL0     H10772  12.937   8.998   6.343  0.3439  3.9820  1.6343
  803MOL0     H10773  13.070   8.890   6.202 -1.3216  0.6347  2.1559
  803MOL0     H10774  13.200   8.769   6.253  1.1343  0.2073 -0.4810
  803MOL0     H10775  13.237   8.937   6.218 -1.3557  3.1116 -0.1183
  803MOL0     H10776  13.459   8.555   6.794  0.7225  0.7419  0.8418
  803MOL0     H10777  13.675   8.463   6.812  0.6259  0.9283  0.1670
  803MOL0     H10778  13.872   8.275   6.445  0.7654  0.7218 -0.5757
  803MOL0     H10779  13.952   8.430   6.473  0.8167 -0.8891  0.1745
  803MOL0     H10780  13.997   8.184   6.630 -0.8793  1.0628  1.4835
  803MOL0     H10781  14.087   8.245   6.500  0.5528  1.0184  0.2696
  803MOL0     H10782  14.035   8.427   6.738 -1.8974 -2.6972 -1.2266
  803MOL0     H10783  14.115   8.477   6.588  2.5843  1.1448  0.3246
  803MOL0     H10784  14.294   8.316   6.645 -1.7697  1.7324 -1.7666
  803MOL0     H10785  14.220   8.280   6.810  0.3360  1.0556  2.0359
  803MOL0     H10786  14.320   8.543   6.715  3.1167  0.3782  0.6551
  803MOL0     H10787  14.227   8.524   6.858  0.3267 -0.7292  0.4531
  803MOL0     H10788  14.510   8.411   6.825  1.8176 -0.0785  1.0823
  803MOL0     H10789  14.398   8.386   6.962 -1.6067 -0.1565 -1.2657
  803MOL0     H10790  14.367   8.610   7.008  0.5371  2.8264 -0.2939
  803MOL0     H10791  14.478   8.665   6.878  2.8851  0.8774  1.3883
  803MOL0     H10792  14.535   8.521   7.131 -0.4459 -0.7316 -0.1039
  803MOL0     H10793  14.606   8.676   7.051 -0.2812 -0.0851  1.0346
  803MOL0     H10794  13.730   8.483   6.391  0.0517 -1.6231 -0.2817
  803MOL0     H10795  13.536   8.623   6.372 -1.2965  3.1278  1.0239
  803MOL0     H10796  13.218   8.862   6.723  0.2029  1.9384  0.2047
  803MOL0     H10797  13.012   8.993   6.763 -2.2077  1.4629 -2.0159
  803MOL0     H10798  11.371   8.676   7.194  1.2715  0.7985  0.7997
  803MOL0     H10799  11.128   8.685   7.215  0.9938 -0.9445 -0.5278
  803MOL0     H10800  10.811   8.823   7.565 -2.3709  2.6902 -0.1704
  803MOL0     H10801  10.578   8.889   7.611  0.3053  0.1456 -0.6505
  803MOL0     H10802  10.418   8.786   7.772  1.6142  0.6603 -2.2257
  803MOL0     H10803  10.346   8.912   7.665  1.6714  1.0117  0.1163
  803MOL0     H10804  10.188   8.863   7.838  2.4305  0.5046  0.2372
  803MOL0     H10805  10.205   8.683   7.803 -1.0873 -1.3775 -1.2712
  803MOL0     H10806  10.003   8.829   7.672 -0.6772  0.7668 -2.3296
  803MOL0     H10807  10.144   8.826   7.558  1.2018  1.2273  2.1313
  803MOL0     H10808  10.020   8.580   7.683  0.3758 -1.9141 -0.4703
  803MOL0     H10809  10.140   8.591   7.558 -0.7755 -0.5740 -0.9028
  803MOL0     H10810   9.830   8.714   7.314 -0.9194  0.8547  2.1515
  803MOL0     H10811  10.454   8.507   7.475  0.7406 -0.9469  0.8857
  803MOL0     H10812  10.762   8.367   7.390 -1.6068 -1.9769  0.0024
  803MOL0     H10813  10.589   8.363   7.356  0.4253 -0.7501 -1.7574
  803MOL0     H10814  10.697   8.452   7.246  2.6097  0.3874  0.4099
  804MOL0     O10815  10.295   9.750   0.803  0.4814  0.0267  0.3380
  804MOL0     C10816  10.264   9.776   0.681 -0.4172 -0.2687 -0.5821
  804MOL0     O10817  10.348   9.753   0.579  0.6080  0.0066  0.5009
  804MOL0     C10818  10.448   9.656   0.597 -0.0487 -0.9432  0.3375
  804MOL0     C10819  10.443   9.537   0.680  0.1644 -0.3626  0.1048
  804MOL0     C10820  10.559   9.456   0.707  0.4815 -0.6923 -0.6029
  804MOL0     C10821  10.686   9.480   0.638 -0.3770 -0.2804 -0.3760
  804MOL0     O10822  10.795   9.401   0.654  0.5864  1.2090  1.1872
  804MOL0     C10823  10.768   9.268   0.688  0.9843 -0.4136 -0.4730
  804MOL0     C10824  10.879   9.180   0.620  0.6885  0.5375  0.1026
  804MOL0     C10825  11.019   9.230   0.648 -0.2558 -0.4241  0.0753
  804MOL0     C10826  11.119   9.113   0.670 -0.1063 -0.7121 -0.1624
  804MOL0     C10827  11.259   9.169   0.687  0.3118 -0.2798  0.4927
  804MOL0     C10828  11.284   9.254   0.814 -1.2491 -0.0874  0.3513
  804MOL0     C10829  11.427   9.308   0.833  0.8951  0.2098 -0.2669
  804MOL0     C10830  11.526   9.212   0.889 -0.0875 -0.0570  0.1805
  804MOL0     N10831  11.664   9.268   0.857  0.3193 -0.9776 -0.0516
  804MOL0     C10832  11.752   9.339   0.938 -0.2122  0.7999  0.5045
  804MOL0     C10833  11.864   9.346   0.862 -0.3965  0.3590  0.6050
  804MOL0     C10834  11.992   9.413   0.893 -0.3020  0.1704 -0.1743
  804MOL0     C10835  12.045   9.381   1.036 -0.5749 -0.2533  0.4720
  804MOL0     C10836  12.176   9.446   1.074 -0.2826 -0.2688  0.4138
  804MOL0     C10837  12.221   9.402   1.208 -0.0778 -0.0875 -0.5835
  804MOL0     O10838  12.234   9.256   1.227  0.4616  0.0069 -0.9654
  804MOL0     C10839  12.363   9.220   1.280  0.4394 -1.5159 -0.3014
  804MOL0     C10840  12.380   9.175   1.412 -0.6678 -0.6778  0.1509
  804MOL0     C10841  12.497   9.136   1.469 -0.0380  0.4067  0.2331
  804MOL0     C10842  12.501   9.074   1.605  0.0507 -0.2346  0.0530
  804MOL0     C10843  12.615   9.143   1.394 -0.1148 -0.3627 -0.2100
  804MOL0     C10844  12.752   9.107   1.441 -0.5992 -0.2083  0.0890
  804MOL0     O10845  12.854   9.125   1.357 -0.2339  0.1093 -0.0823
  804MOL0     C10846  12.980   9.093   1.398  0.1271 -0.0060  0.5544
  804MOL0     C10847  13.080   9.185   1.366  0.4397 -0.3121  0.7558
  804MOL0     C10848  13.204   9.162   1.403  0.2315 -0.1294 -0.7121
  804MOL0     C10849  13.249   9.051   1.471  0.2984  1.3301 -0.1277
  804MOL0     O10850  13.378   9.040   1.517  1.2000 -0.0883  0.5368
  804MOL0     C10851  13.456   8.921   1.501 -0.6465  0.3277 -0.5340
  804MOL0     C10852  13.609   8.954   1.528  0.1171  0.6876 -0.2072
  804MOL0     C10853  13.641   8.992   1.675 -0.0911 -0.1900  0.4497
  804MOL0     C10854  13.785   8.984   1.706  0.3536  0.0090  0.2776
  804MOL0     C10855  13.818   9.003   1.856  0.4547  0.1990 -0.2303
  804MOL0     C10856  13.970   9.008   1.878  0.0214 -2.1366  0.2011
  804MOL0     C10857  14.034   8.873   1.886  0.6135 -0.0977 -0.6548
  804MOL0     C10858  14.171   8.870   1.948  0.1690  0.1740  0.1582
  804MOL0    Cl10859  14.222   8.703   1.931  0.2926  0.1857  0.3182
  804MOL0     C10860  13.155   8.948   1.495 -0.4749  0.9909  0.2685
  804MOL0     C10861  13.017   8.972   1.459 -1.0936  0.0257  0.7022
  804MOL0     O10862  12.772   9.073   1.558 -0.1194 -0.5679 -0.1734
  804MOL0     C10863  12.604   9.182   1.260  0.0267 -0.2687 -0.0357
  804MOL0     C10864  12.481   9.227   1.209 -0.3266  0.2426 -0.1299
  804MOL0     N10865  11.837   9.293   0.737  0.4284  0.2557 -0.0089
  804MOL0     N10866  11.720   9.248   0.735  0.0516  0.2408  0.1613
  804MOL0     C10867  10.687   9.591   0.555  0.4974 -0.3360 -0.0255
  804MOL0     C10868  10.575   9.681   0.540 -0.2374  0.3271 -0.2673
  804MOL0     C10869  10.134   9.827   0.651  0.2207  0.3474 -0.2889
  804MOL0     C10870  10.117   9.886   0.527  0.6349  0.4437  0.1664
  804MOL0     C10871   9.999   9.949   0.488 -0.1347  0.8259 -0.1846
  804MOL0     C10872   9.891   9.950   0.574 -0.3238  0.1410 -0.0658
  804MOL0     O10873   9.781  10.018   0.527  0.4482 -0.3770  0.0643
  804MOL0     C10874   9.647   9.986   0.585  0.0729 -0.3193 -0.8650
  804MOL0     C10875   9.528  10.043   0.506  0.5064  0.5936  0.6380
  804MOL0     C10876   9.528  10.200   0.516  0.0323 -0.6952  0.7904
  804MOL0     C10877   9.465  10.252   0.377 -0.2999  0.3999  0.5690
  804MOL0     C10878   9.321  10.219   0.348 -0.3835 -0.4042  0.2349
  804MOL0     C10879   9.206  10.193   0.331  0.7874  0.7995 -1.0107
  804MOL0     C10880   9.903   9.886   0.698  0.4330  0.2710  0.5545
  804MOL0     C10881  10.022   9.827   0.733  0.6284 -0.3960  0.0454
  804MOL0     C10882  10.007   9.765   0.875 -0.7854 -0.2670 -0.2369
  804MOL0     H10883  10.351   9.510   0.730 -0.0882 -0.9570 -0.6535
  804MOL0     H10884  10.547   9.381   0.784 -1.4384  0.2475  0.0795
  804MOL0     H10885  10.670   9.231   0.656  1.3733 -1.9914  0.0456
  804MOL0     H10886  10.774   9.258   0.797 -0.7755  0.1715 -0.3035
  804MOL0     H10887  10.873   9.071   0.625 -0.6762  0.3781 -3.1083
  804MOL0     H10888  10.852   9.204   0.517  0.7573  1.5837  0.3143
  804MOL0     H10889  11.052   9.284   0.559 -0.1296  0.8047  0.8496
  804MOL0     H10890  11.015   9.295   0.735 -2.4937  0.2210 -0.4464
  804MOL0     H10891  11.089   9.064   0.763 -1.1076  0.5269  0.2100
  804MOL0     H10892  11.123   9.047   0.583 -1.2981  0.4578 -1.1521
  804MOL0     H10893  11.286   9.225   0.596  3.0112  1.2671  2.1121
  804MOL0     H10894  11.336   9.093   0.700  1.2192  0.8959  2.5722
  804MOL0     H10895  11.217   9.341   0.821  1.6577  2.3991 -0.5983
  804MOL0     H10896  11.270   9.187   0.898  2.8984 -0.0429  1.2669
  804MOL0     H10897  11.420   9.391   0.904  0.3522 -0.8920  1.0084
  804MOL0     H10898  11.466   9.354   0.742 -0.1386 -1.4045 -1.5852
  804MOL0     H10899  11.524   9.204   0.998  1.8636  0.9253  0.3372
  804MOL0     H10900  11.507   9.112   0.849 -3.8630  0.2305  0.8476
  804MOL0     H10901  11.742   9.373   1.040 -1.5739  0.6327  0.4472
  804MOL0     H10902  11.975   9.521   0.891  1.7998  0.5268 -1.2250
  804MOL0     H10903  12.068   9.368   0.827 -0.2704  0.8931 -0.6367
  804MOL0     H10904  11.969   9.401   1.112  0.1742  0.1989  1.1091
  804MOL0     H10905  12.048   9.271   1.037  0.7954 -0.2600 -0.7939
  804MOL0     H10906  12.252   9.421   0.999  0.8197 -2.5819  2.1991
  804MOL0     H10907  12.163   9.554   1.066  0.5002 -0.2042 -0.1181
  804MOL0     H10908  12.318   9.443   1.236 -0.5974  0.0431  1.1477
  804MOL0     H10909  12.150   9.446   1.279 -0.2488 -1.5072  0.1725
  804MOL0     H10910  12.293   9.184   1.476  0.0717  3.7948  0.8410
  804MOL0     H10911  12.558   9.138   1.675  1.1521 -2.3483  1.1940
  804MOL0     H10912  12.547   8.975   1.604 -0.4652 -0.4971  1.0230
  804MOL0     H10913  12.400   9.069   1.647 -0.8122  0.1019 -1.9037
  804MOL0     H10914  13.069   9.283   1.321 -1.0555  0.5269  2.7792
  804MOL0     H10915  13.265   9.246   1.375 -2.5879  3.1089  1.9389
  804MOL0     H10916  13.421   8.845   1.572 -2.8191  1.3141 -0.4543
  804MOL0     H10917  13.444   8.891   1.397  0.7899 -2.1938 -0.0439
  804MOL0     H10918  13.658   8.862   1.496  2.3032  1.6251  0.2519
  804MOL0     H10919  13.636   9.032   1.455 -1.5118  0.5327 -1.0174
  804MOL0     H10920  13.583   8.929   1.743 -0.4304  0.3795  0.6925
  804MOL0     H10921  13.591   9.088   1.692 -1.7183 -1.1205  1.2442
  804MOL0     H10922  13.827   9.068   1.650  1.7919 -0.7089  0.2330
  804MOL0     H10923  13.834   8.891   1.675  0.1374 -0.3988  1.1292
  804MOL0     H10924  13.771   9.093   1.898 -1.7438 -1.9336  2.2676
  804MOL0     H10925  13.772   8.921   1.912  1.7780  0.3101  1.0949
  804MOL0     H10926  13.975   9.041   1.982 -0.6320 -0.6941 -0.1992
  804MOL0     H10927  14.014   9.085   1.813 -0.2482  0.4759  2.9134
  804MOL0     H10928  14.047   8.837   1.783 -0.7601 -0.7094 -0.6353
  804MOL0     H10929  13.972   8.813   1.952 -1.5479  2.0785 -0.5621
  804MOL0     H10930  14.168   8.903   2.053  0.2188 -0.3195  0.3165
  804MOL0     H10931  14.238   8.945   1.907  0.9604  0.2612  1.5389
  804MOL0     H10932  13.188   8.855   1.538 -0.7358  0.6560 -0.2434
  804MOL0     H10933  12.944   8.893   1.470 -0.8409 -0.9395 -2.9536
  804MOL0     H10934  12.695   9.191   1.201  0.5394 -2.0189  0.4512
  804MOL0     H10935  12.479   9.264   1.107  0.5442  0.6633 -0.0079
  804MOL0     H10936  10.774   9.626   0.500 -0.3027  2.8622  0.5680
  804MOL0     H10937  10.592   9.777   0.493 -1.3972 -0.3145 -2.0786
  804MOL0     H10938  10.192   9.886   0.449 -0.1523 -1.4134 -0.6662
  804MOL0     H10939   9.983   9.982   0.386 -1.4338  0.1063 -0.2430
  804MOL0     H10940   9.635   9.878   0.594 -1.8459  0.0500  2.8941
  804MOL0     H10941   9.642  10.033   0.683  2.2709 -3.3589  0.8834
  804MOL0     H10942   9.436  10.013   0.557 -0.6816  0.9786 -1.1576
  804MOL0     H10943   9.547  10.008   0.404  2.6271  2.0826  0.4544
  804MOL0     H10944   9.463  10.238   0.596 -1.8345  3.8697 -2.4768
  804MOL0     H10945   9.629  10.236   0.533 -0.6082  1.9263 -0.4445
  804MOL0     H10946   9.532  10.230   0.294  0.8335  3.6654  0.4775
  804MOL0     H10947   9.475  10.361   0.383 -1.7257  0.6054 -0.1723
  804MOL0     H10948   9.102  10.171   0.319  0.7705 -1.1012  1.6998
  804MOL0     H10949   9.818   9.893   0.766  0.5413  1.8622  0.5557
  804MOL0     H10950   9.908   9.734   0.908  0.4739 -1.2189  3.1294
  804MOL0     H10951  10.071   9.678   0.889  1.9103  1.8087  1.3531
  804MOL0     H10952  10.031   9.846   0.945 -1.8447 -1.2702  1.3463
  805MOL0     O10953  10.335   3.012   7.475 -0.2931 -0.4432  0.5536
  805MOL0     C10954  10.389   3.068   7.379 -0.8352  0.3842  0.7601
  805MOL0     O10955  10.439   3.194   7.386 -0.4989 -0.8417  0.4482
  805MOL0     C10956  10.393   3.299   7.460  1.1121 -0.9063  0.1459
  805MOL0     C10957  10.483   3.387   7.510  0.5425  0.0998  0.1379
  805MOL0     C10958  10.439   3.493   7.592  0.4446 -0.7325  0.4336
  805MOL0     C10959  10.302   3.521   7.600  0.1570  0.2897  0.9121
  805MOL0     O10960  10.261   3.621   7.690  0.1659 -0.6367  1.1161
  805MOL0     C10961  10.127   3.666   7.689  0.0392 -0.4030 -0.3778
  805MOL0     C10962  10.117   3.803   7.765 -0.0412  0.6451 -0.5756
  805MOL0     C10963   9.974   3.850   7.791 -0.2447 -0.6354 -0.0972
  805MOL0     C10964   9.904   3.924   7.670 -0.6316  0.2665  0.9786
  805MOL0     C10965   9.785   3.998   7.717  0.2747 -0.4857 -0.0543
  805MOL0     C10966   9.692   4.078   7.612  0.0974  0.8577  1.2708
  805MOL0     C10967   9.575   4.136   7.681  0.3332 -0.4222 -0.4295
  805MOL0     C10968   9.514   4.254   7.611  0.5715 -0.0057  0.3294
  805MOL0     N10969   9.461   4.233   7.475  0.0716  0.6848 -0.5459
  805MOL0     C10970   9.491   4.303   7.362  1.1283  0.0176  0.0126
  805MOL0     C10971   9.407   4.256   7.269  0.3284  0.8229 -0.8356
  805MOL0     C10972   9.412   4.294   7.135 -0.6359 -0.7014  0.4035
  805MOL0     C10973   9.506   4.207   7.054 -0.0758  0.0257 -0.4680
  805MOL0     C10974   9.514   4.251   6.910  0.1194 -0.1945 -0.1999
  805MOL0     C10975   9.632   4.194   6.834  0.1346  0.0580 -0.2384
  805MOL0     O10976   9.750   4.252   6.890 -0.7854 -0.1629 -0.2429
  805MOL0     C10977   9.866   4.172   6.899  0.3876  0.2692  0.1587
  805MOL0     C10978   9.882   4.039   6.866 -0.7693  0.4978 -0.2280
  805MOL0     C10979  10.014   3.983   6.861 -0.3301  0.1184 -0.5181
  805MOL0     C10980  10.020   3.839   6.830  0.2790  0.1539  0.2423
  805MOL0     C10981  10.129   4.070   6.897 -0.3157  0.7390  0.4484
  805MOL0     C10982  10.260   4.016   6.912 -0.9074  0.0809 -0.3054
  805MOL0     O10983  10.339   4.100   6.993  0.2907 -0.0565  0.4892
  805MOL0     C10984  10.461   4.059   7.039  0.1847  0.0431  0.1446
  805MOL0     C10985  10.553   4.157   7.059 -0.3962  0.2461  0.4402
  805MOL0     C10986  10.687   4.125   7.090  0.3829  0.0215 -0.0160
  805MOL0     C10987  10.718   3.997   7.138 -0.2871 -0.1102  0.4836
  805MOL0     O10988  10.831   3.956   7.186 -0.4458 -0.1146 -1.2025
  805MOL0     C10989  10.919   4.052   7.246  0.4554  0.4340  0.4019
  805MOL0     C10990  11.031   3.985   7.324 -0.2981 -0.0584 -0.0247
  805MOL0     C10991  11.134   3.936   7.217 -0.7952  0.5233 -0.5700
  805MOL0     C10992  11.238   3.843   7.279  0.6333 -0.2755  0.7900
  805MOL0     C10993  11.185   3.717   7.351 -0.7394  0.3673 -0.6105
  805MOL0     C10994  11.303   3.616   7.342 -0.2385  0.9363 -0.1591
  805MOL0     C10995  11.276   3.479   7.422 -0.7572 -0.0825  0.8304
  805MOL0     C10996  11.372   3.367   7.372 -0.0001  0.1085 -0.3986
  805MOL0    Cl10997  11.548   3.423   7.397  0.0328  0.1093 -0.2479
  805MOL0     C10998  10.614   3.905   7.133  0.0703 -0.1046  0.0738
  805MOL0     C10999  10.488   3.929   7.076  0.0329  0.2599 -0.5144
  805MOL0     O11000  10.294   3.913   6.854  0.5494 -0.2060  0.9426
  805MOL0     C11001  10.106   4.203   6.929  0.0420  0.3736 -0.5332
  805MOL0     C11002   9.974   4.251   6.923 -0.2472  0.6568 -0.6518
  805MOL0     N11003   9.330   4.156   7.324  1.0590 -0.0466  0.5894
  805MOL0     N11004   9.360   4.139   7.445  0.1390 -0.3363  0.0099
  805MOL0     C11005  10.209   3.445   7.526  0.1624 -0.3023  0.2650
  805MOL0     C11006  10.253   3.330   7.466 -0.2208 -0.1428 -0.1589
  805MOL0     C11007  10.434   2.976   7.267  0.2400 -0.1297 -0.0152
  805MOL0     C11008  10.446   2.840   7.286 -0.7776  0.6804 -0.6821
  805MOL0     C11009  10.498   2.750   7.188  0.0746 -0.3706  0.8407
  805MOL0     C11010  10.529   2.797   7.059 -0.3529 -0.9110 -0.3689
  805MOL0     O11011  10.571   2.714   6.957 -0.0928 -0.2265  0.1225
  805MOL0     C11012  10.648   2.769   6.842  0.5884  0.7459 -0.1161
  805MOL0     C11013  10.750   2.656   6.794  0.1459 -0.3726  0.0511
  805MOL0     C11014  10.855   2.719   6.701 -0.6463 -0.5660  0.3864
  805MOL0     C11015  10.939   2.619   6.616  0.3393 -0.0897 -0.2355
  805MOL0     C11016  10.931   2.474   6.654  0.8197 -0.2613  0.5355
  805MOL0     C11017  10.921   2.357   6.675  0.4208 -0.4202  0.4646
  805MOL0     C11018  10.493   2.936   7.038  0.6297  0.3360  1.0343
  805MOL0     C11019  10.449   3.023   7.137 -0.2750 -0.4051 -0.8233
  805MOL0     C11020  10.422   3.158   7.088 -0.0571  0.0190  0.2772
  805MOL0     H11021  10.590   3.368   7.510  0.8553  1.4665 -1.9817
  805MOL0     H11022  10.500   3.569   7.640  1.6352  1.4010 -3.8793
  805MOL0     H11023  10.074   3.588   7.745 -0.9814  0.2672 -0.4033
  805MOL0     H11024  10.088   3.665   7.587  0.1472  0.6753 -0.4425
  805MOL0     H11025  10.171   3.793   7.859 -1.4660 -0.0503  0.2203
  805MOL0     H11026  10.159   3.883   7.704 -3.3997  0.0957 -4.0268
  805MOL0     H11027   9.912   3.766   7.825 -0.2627 -0.8952 -0.7478
  805MOL0     H11028   9.982   3.925   7.870  0.0930 -1.8379  1.0433
  805MOL0     H11029   9.975   3.991   7.620 -0.5186 -1.0653 -0.7178
  805MOL0     H11030   9.870   3.850   7.597 -1.4028 -1.1528  2.6887
  805MOL0     H11031   9.804   4.059   7.806 -0.1698  0.0082 -0.2901
  805MOL0     H11032   9.724   3.921   7.766 -0.1018 -0.1832 -0.0448
  805MOL0     H11033   9.744   4.161   7.563 -1.3310  0.8666 -0.3196
  805MOL0     H11034   9.652   4.016   7.531 -0.7499  2.9331  0.0336
  805MOL0     H11035   9.617   4.172   7.775  0.8911 -1.5730 -0.2275
  805MOL0     H11036   9.504   4.055   7.700  1.1025 -1.7139 -2.6923
  805MOL0     H11037   9.441   4.309   7.670 -0.6065 -0.7467 -0.4128
  805MOL0     H11038   9.586   4.336   7.613  1.8301 -1.0588  0.0659
  805MOL0     H11039   9.569   4.378   7.355 -0.1164  1.2038 -2.6779
  805MOL0     H11040   9.451   4.394   7.118  1.6791 -1.6350 -0.2235
  805MOL0     H11041   9.311   4.299   7.092 -1.7863  0.1306  3.0186
  805MOL0     H11042   9.604   4.216   7.101 -0.3856 -0.4450  0.2956
  805MOL0     H11043   9.479   4.101   7.054 -1.9771  0.2370  4.5492
  805MOL0     H11044   9.420   4.227   6.860  0.8930 -3.9313 -0.1992
  805MOL0     H11045   9.528   4.359   6.908 -1.3076  0.0332  0.6064
  805MOL0     H11046   9.614   4.088   6.856 -2.4478 -0.7211 -4.9092
  805MOL0     H11047   9.627   4.210   6.726  1.1788  1.1808 -0.1397
  805MOL0     H11048   9.797   3.978   6.836 -1.1335  0.0172  1.6738
  805MOL0     H11049   9.919   3.800   6.814 -0.1503  1.2606  0.1812
  805MOL0     H11050  10.065   3.788   6.916  0.0721  0.0641  0.2979
  805MOL0     H11051  10.074   3.830   6.735 -1.2059  0.3715 -0.6603
  805MOL0     H11052  10.519   4.258   7.040 -1.2011 -0.4283 -2.1261
  805MOL0     H11053  10.753   4.211   7.081 -1.6442  1.5794 -0.9601
  805MOL0     H11054  10.964   4.114   7.169  1.3742 -0.0748  0.5194
  805MOL0     H11055  10.860   4.112   7.316 -0.4669 -2.0992  1.9692
  805MOL0     H11056  11.061   4.075   7.378  1.4638  1.8713 -3.8335
  805MOL0     H11057  10.994   3.907   7.392 -0.7779 -1.1411 -1.4659
  805MOL0     H11058  11.196   4.020   7.184  2.7141 -0.3738  2.9803
  805MOL0     H11059  11.092   3.885   7.130  1.3979 -0.8328 -0.9323
  805MOL0     H11060  11.308   3.898   7.342 -0.6411 -0.0289  2.0523
  805MOL0     H11061  11.302   3.802   7.201  0.6355  0.0853  0.6043
  805MOL0     H11062  11.167   3.743   7.455  1.8382 -0.4557  0.1195
  805MOL0     H11063  11.096   3.679   7.299  0.8501 -1.0676 -2.4377
  805MOL0     H11064  11.396   3.653   7.387  0.3155 -0.2466 -0.2990
  805MOL0     H11065  11.318   3.587   7.238 -1.4036 -3.8312  0.7968
  805MOL0     H11066  11.175   3.453   7.389  0.0641  0.5501 -2.6462
  805MOL0     H11067  11.284   3.495   7.530  0.3289  0.9356  0.6222
  805MOL0     H11068  11.358   3.347   7.265  0.4466 -1.3644 -0.1938
  805MOL0     H11069  11.360   3.271   7.421  3.0631 -0.9510 -1.4580
  805MOL0     H11070  10.625   3.813   7.189 -0.6329  0.4551  1.1854
  805MOL0     H11071  10.413   3.850   7.077  2.3486 -2.0889  0.7413
  805MOL0     H11072  10.179   4.270   6.973  1.4466 -2.6381  2.1377
  805MOL0     H11073   9.959   4.356   6.947  4.8310  1.0601  2.2746
  805MOL0     H11074  10.104   3.472   7.525  0.3741  0.5489  0.6770
  805MOL0     H11075  10.174   3.264   7.432  0.5099 -0.4395 -1.3573
  805MOL0     H11076  10.421   2.795   7.382  0.8008 -0.3971 -0.7392
  805MOL0     H11077  10.512   2.643   7.202 -0.4064 -0.6350 -0.4873
  805MOL0     H11078  10.575   2.786   6.762  0.5613 -0.6636 -0.4203
  805MOL0     H11079  10.701   2.856   6.880  0.8993  0.2404  0.6371
  805MOL0     H11080  10.709   2.565   6.751  0.0792  0.7341 -2.3739
  805MOL0     H11081  10.802   2.625   6.886  1.7737  3.2654  0.5247
  805MOL0     H11082  10.804   2.784   6.629 -0.2609 -0.1286  0.5107
  805MOL0     H11083  10.914   2.790   6.759 -1.8464  1.0404 -0.2807
  805MOL0     H11084  11.040   2.660   6.628  0.1347  0.6620 -1.0287
  805MOL0     H11085  10.905   2.633   6.513  3.7434 -0.6430 -1.5735
  805MOL0     H11086  10.902   2.257   6.711  0.7803 -1.4514 -2.0466
  805MOL0     H11087  10.512   2.979   6.940  3.4604 -3.2830 -0.2279
  805MOL0     H11088  10.388   3.162   6.984  0.5858  3.4921  0.0853
  805MOL0     H11089  10.349   3.212   7.149 -0.0511  2.8983 -2.0574
  805MOL0     H11090  10.514   3.218   7.088  1.5587 -2.2024 -2.2946
  806MOL0     O11091   6.432  10.824   7.800 -0.7069 -0.0987  0.3405
  806MOL0     C11092   6.380  10.852   7.693 -0.8104  0.1299  0.0671
  806MOL0     O11093   6.447  10.882   7.580 -0.2687 -0.5888  0.6118
  806MOL0     C11094   6.583  10.872   7.584 -0.6182  0.2003  0.0239
  806MOL0     C11095   6.643  10.761   7.517  0.5791 -0.3108 -1.5155
  806MOL0     C11096   6.779  10.748   7.530 -0.1531 -0.3526  0.0144
  806MOL0     C11097   6.867  10.828   7.598 -0.0462  0.4514  0.2583
  806MOL0     O11098   7.000  10.791   7.602 -0.2593  0.3294 -0.1672
  806MOL0     C11099   7.100  10.892   7.643  0.3467  0.1096  0.6138
  806MOL0     C11100   7.230  10.816   7.692 -0.1290 -0.3994 -0.3088
  806MOL0     C11101   7.317  10.904   7.777  0.1291 -0.2590 -0.3688
  806MOL0     C11102   7.465  10.855   7.808 -0.2176  0.5659  0.2617
  806MOL0     C11103   7.558  10.876   7.694  0.6085  0.0440  0.4557
  806MOL0     C11104   7.703  10.839   7.716 -0.5774  0.0071  0.9610
  806MOL0     C11105   7.785  10.870   7.587 -0.4534  0.1520 -0.2131
  806MOL0     C11106   7.929  10.826   7.589 -0.1480 -0.0676 -0.1063
  806MOL0     N11107   8.021  10.911   7.672  0.0130 -1.0105  0.4421
  806MOL0     C11108   8.135  10.967   7.612 -0.2830  0.1997 -0.3763
  806MOL0     C11109   8.198  11.021   7.719  0.7817  0.8242 -0.0513
  806MOL0     C11110   8.332  11.097   7.737  0.4963  0.6289 -0.0203
  806MOL0     C11111   8.424  11.105   7.616 -0.2982 -0.8101  0.4786
  806MOL0     C11112   8.544  11.006   7.610  0.5361 -0.2707 -0.8504
  806MOL0     C11113   8.623  11.025   7.482  0.6221 -0.4387  0.4752
  806MOL0     O11114   8.540  11.005   7.371 -1.0306  0.2554  0.5477
  806MOL0     C11115   8.584  11.033   7.245  0.5598  0.3971 -0.0837
  806MOL0     C11116   8.486  11.074   7.150 -0.9834  0.6056 -0.3650
  806MOL0     C11117   8.525  11.075   7.015 -0.6125 -0.8897  0.3119
  806MOL0     C11118   8.425  11.110   6.906 -0.4046 -0.6291  0.4988
  806MOL0     C11119   8.660  11.057   6.987 -0.2355  0.7236  0.0878
  806MOL0     C11120   8.708  11.088   6.853  1.0711 -0.0909 -0.9975
  806MOL0     O11121   8.688  10.998   6.744  0.1759  1.0045  0.4034
  806MOL0     C11122   8.695  11.030   6.607 -0.3731  0.2568  0.3871
  806MOL0     C11123   8.695  10.918   6.520 -0.5753  0.2156  0.3744
  806MOL0     C11124   8.673  10.938   6.378 -0.2999  0.3646 -0.1903
  806MOL0     C11125   8.664  11.070   6.328  0.2293  0.1350  0.5265
  806MOL0     O11126   8.658  11.079   6.187  0.4091 -0.1684  0.0108
  806MOL0     C11127   8.651  11.211   6.141  0.6817  0.0343  0.7276
  806MOL0     C11128   8.626  11.214   5.991  0.3098 -0.1942  0.5122
  806MOL0     C11129   8.519  11.129   5.932 -0.6428  0.1204  0.6539
  806MOL0     C11130   8.378  11.150   5.992  0.0579 -0.4267  0.5592
  806MOL0     C11131   8.282  11.052   5.916 -0.1774 -0.9867 -0.3978
  806MOL0     C11132   8.261  10.932   5.998 -0.5146  0.8733 -0.1726
  806MOL0     C11133   8.137  10.853   5.943  0.2923  0.4620 -0.2989
  806MOL0     C11134   8.018  10.901   6.020 -0.1106 -0.2761  0.2790
  806MOL0    Cl11135   7.937  11.016   5.904  0.2906 -0.5851 -0.1733
  806MOL0     C11136   8.672  11.176   6.412  1.1433  0.2681  0.6431
  806MOL0     C11137   8.681  11.155   6.552  0.8693  0.4899 -0.6080
  806MOL0     O11138   8.767  11.194   6.846 -0.1987 -0.5159 -0.8396
  806MOL0     C11139   8.758  11.022   7.078  0.3068 -0.8510  0.3057
  806MOL0     C11140   8.720  11.001   7.212  0.3499 -1.0447 -0.7993
  806MOL0     N11141   8.130  10.985   7.833  0.3198  0.2102 -0.5288
  806MOL0     N11142   8.020  10.925   7.805 -0.0735 -1.0979 -0.6085
  806MOL0     C11143   6.808  10.943   7.654 -0.6685  0.1651 -0.0243
  806MOL0     C11144   6.672  10.973   7.637 -0.0512 -0.0066 -0.1768
  806MOL0     C11145   6.235  10.840   7.688 -0.0900  0.0545 -0.6411
  806MOL0     C11146   6.172  10.745   7.774 -0.2446 -1.1922 -0.6911
  806MOL0     C11147   6.033  10.723   7.784  0.5905 -0.3326  0.4842
  806MOL0     C11148   5.952  10.794   7.698  0.5416  0.0827  0.5187
  806MOL0     O11149   5.816  10.783   7.698  0.2858  0.1029  0.0035
  806MOL0     C11150   5.759  10.654   7.747  0.0566 -0.7311  0.7507
  806MOL0     C11151   5.622  10.623   7.692 -0.0267 -0.7472  0.1772
  806MOL0     C11152   5.502  10.671   7.777 -0.5999 -0.2693  0.3922
  806MOL0     C11153   5.372  10.660   7.693 -0.4429  0.3359 -1.1161
  806MOL0     C11154   5.268  10.749   7.743 -0.3126 -0.1891 -0.1706
  806MOL0     C11155   5.168  10.822   7.766  0.0573 -0.9394  0.4038
  806MOL0     C11156   6.004  10.890   7.614 -0.0535 -1.3520 -0.4931
  806MOL0     C11157   6.148  10.909   7.608 -0.1596  0.8163  0.8263
  806MOL0     C11158   6.195  11.018   7.508  0.9207  0.5805 -0.2753
  806MOL0     H11159   6.582  10.687   7.466 -3.2120  2.0249 -0.8010
  806MOL0     H11160   6.820  10.655   7.492  0.3580 -0.8109  1.6085
  806MOL0     H11161   7.062  10.955   7.724 -1.8284  1.9205 -1.6537
  806MOL0     H11162   7.115  10.968   7.565 -0.4625 -0.3208  0.0215
  806MOL0     H11163   7.201  10.732   7.756 -2.3232 -0.1939 -0.9293
  806MOL0     H11164   7.279  10.765   7.610  0.2007  0.4348 -0.6413
  806MOL0     H11165   7.315  10.998   7.721 -0.4515  0.1095  0.2511
  806MOL0     H11166   7.254  10.916   7.866 -1.7788 -3.9110 -1.0554
  806MOL0     H11167   7.492  10.895   7.907 -1.1967 -0.5714  1.0203
  806MOL0     H11168   7.473  10.746   7.812  1.4137  0.6513 -0.0026
  806MOL0     H11169   7.546  10.984   7.683 -1.4503 -0.0985  0.9484
  806MOL0     H11170   7.518  10.832   7.603  0.8342  1.0189 -0.1271
  806MOL0     H11171   7.757  10.890   7.796 -1.9855  1.3723  1.0908
  806MOL0     H11172   7.707  10.736   7.752 -0.3501  0.1506  1.3528
  806MOL0     H11173   7.774  10.978   7.570 -0.6762  0.6002  2.4078
  806MOL0     H11174   7.734  10.823   7.503 -1.4836  1.0187 -0.1111
  806MOL0     H11175   7.932  10.729   7.639  0.3969  0.6478  1.2695
  806MOL0     H11176   7.973  10.809   7.490 -1.2853  0.7519 -0.7711
  806MOL0     H11177   8.168  10.962   7.509  0.8388  1.5812 -0.1257
  806MOL0     H11178   8.388  11.061   7.823  1.5985  0.4256 -0.8075
  806MOL0     H11179   8.305  11.202   7.747 -3.8525  0.0681 -2.9794
  806MOL0     H11180   8.358  11.086   7.531 -1.3005  4.8391 -0.3992
  806MOL0     H11181   8.446  11.209   7.594 -0.2135  0.0404  3.9012
  806MOL0     H11182   8.608  11.017   7.698 -2.8192  0.0341  1.7652
  806MOL0     H11183   8.499  10.907   7.625  2.8762 -1.2855  0.0828
  806MOL0     H11184   8.660  11.127   7.468 -3.6764  1.7046  2.7499
  806MOL0     H11185   8.710  10.958   7.483 -0.7172 -2.2985 -0.0501
  806MOL0     H11186   8.384  11.092   7.183 -0.2202  0.1272  2.5022
  806MOL0     H11187   8.397  11.022   6.847  3.8980 -2.6662  1.1397
  806MOL0     H11188   8.449  11.188   6.833 -1.3442 -2.2471 -1.6340
  806MOL0     H11189   8.336  11.142   6.962  0.5161 -1.1995  2.3474
  806MOL0     H11190   8.713  10.817   6.554  2.1864  0.2729 -0.6794
  806MOL0     H11191   8.678  10.847   6.319 -2.2836 -0.5624  0.9674
  806MOL0     H11192   8.569  11.261   6.193  0.1588  1.3785 -1.2757
  806MOL0     H11193   8.742  11.267   6.164  2.1104 -2.1871  0.8151
  806MOL0     H11194   8.610  11.315   5.953  1.2224 -1.3477 -3.3235
  806MOL0     H11195   8.713  11.188   5.930 -1.2667 -0.6230 -1.6606
  806MOL0     H11196   8.549  11.026   5.952 -1.0089  0.5175  3.8666
  806MOL0     H11197   8.525  11.148   5.825  4.4934  0.6362  0.8275
  806MOL0     H11198   8.337  11.251   5.981  0.4935 -0.1602  1.3592
  806MOL0     H11199   8.382  11.134   6.100  0.4169  0.3366  0.6613
  806MOL0     H11200   8.182  11.095   5.903  0.1484 -0.0845 -0.0602
  806MOL0     H11201   8.324  11.041   5.816  1.6456 -1.4208  0.3745
  806MOL0     H11202   8.252  10.965   6.101 -0.7865  0.1268  0.0500
  806MOL0     H11203   8.347  10.865   5.986 -1.2583  0.1255 -1.6869
  806MOL0     H11204   8.149  10.745   5.959  1.1633  0.7134  0.8510
  806MOL0     H11205   8.128  10.872   5.836 -1.3654  0.8588 -0.1181
  806MOL0     H11206   8.042  10.947   6.116 -1.1450 -2.6949  1.7921
  806MOL0     H11207   7.944  10.822   6.038 -1.7089  1.2697  0.8753
  806MOL0     H11208   8.662  11.279   6.379  0.7887 -0.3152 -1.1954
  806MOL0     H11209   8.671  11.239   6.620 -3.9006  0.2497 -0.6691
  806MOL0     H11210   8.858  10.998   7.045 -0.1667 -0.6222 -1.3886
  806MOL0     H11211   8.788  10.957   7.285 -1.2283  1.1207  2.2082
  806MOL0     H11212   6.864  11.011   7.717  0.8042 -1.7022  0.7727
  806MOL0     H11213   6.643  11.066   7.684  4.6310  0.0957  3.1675
  806MOL0     H11214   6.243  10.693   7.838  4.4303  3.4144 -1.4616
  806MOL0     H11215   5.994  10.653   7.856  1.0787  0.5718  1.6548
  806MOL0     H11216   5.827  10.571   7.727 -1.0194 -1.7285  1.1049
  806MOL0     H11217   5.745  10.651   7.856  0.0168 -0.0777  0.7656
  806MOL0     H11218   5.608  10.515   7.687  1.9228 -1.1177  1.6380
  806MOL0     H11219   5.622  10.668   7.592  2.9646 -2.0454 -0.5221
  806MOL0     H11220   5.505  10.619   7.873  1.3091 -0.2699  0.3607
  806MOL0     H11221   5.513  10.778   7.798  1.7961 -0.5366  0.7988
  806MOL0     H11222   5.336  10.557   7.703 -0.0274  0.3704  1.3061
  806MOL0     H11223   5.384  10.677   7.586  0.0912 -0.0826 -1.1247
  806MOL0     H11224   5.087  10.881   7.803 -0.9959 -1.7104 -0.5707
  806MOL0     H11225   5.943  10.947   7.544  1.4440 -1.0663 -1.6297
  806MOL0     H11226   6.118  11.095   7.509  0.9227  0.5819 -0.1845
  806MOL0     H11227   6.285  11.071   7.540  1.3849  0.8782 -1.9844
  806MOL0     H11228   6.211  10.975   7.409 -2.8047  0.9952 -1.1942
  807MOL0     O11229   6.704   2.152   3.106  0.4675 -0.1817  0.0273
  807MOL0     C11230   6.621   2.097   3.038 -0.3520 -0.5751 -0.3358
  807MOL0     O11231   6.637   2.044   2.917 -0.2799 -0.1790  0.4889
  807MOL0     C11232   6.774   2.042   2.877 -0.5772  0.3593  0.2956
  807MOL0     C11233   6.836   2.139   2.798 -0.3488  0.4931  0.5344
  807MOL0     C11234   6.969   2.131   2.762  0.2957  0.7813 -0.8930
  807MOL0     C11235   7.036   2.019   2.805  0.3716  0.1288  0.4498
  807MOL0     O11236   7.166   2.016   2.758 -0.2198 -0.0883  0.1248
  807MOL0     C11237   7.215   1.886   2.724  0.9641 -0.7800 -0.7693
  807MOL0     C11238   7.282   1.894   2.587 -0.0133 -0.2498  0.2867
  807MOL0     C11239   7.406   1.978   2.579 -0.0849  0.2865  0.5427
  807MOL0     C11240   7.463   1.984   2.432 -0.2860 -0.3309  0.2388
  807MOL0     C11241   7.574   2.091   2.419 -0.0158 -0.7042 -0.0996
  807MOL0     C11242   7.626   2.098   2.276  0.3501 -0.4048  0.3882
  807MOL0     C11243   7.751   2.187   2.246 -0.1024 -0.0525 -0.5323
  807MOL0     C11244   7.878   2.119   2.290 -0.2292 -0.0646  0.0630
  807MOL0     N11245   7.975   2.217   2.334  0.0751 -0.5167  0.0103
  807MOL0     C11246   8.065   2.275   2.253 -0.0962  0.2407  0.2302
  807MOL0     C11247   8.125   2.375   2.325  0.0786  0.0651  1.1691
  807MOL0     C11248   8.222   2.482   2.274 -0.4450 -0.1011  0.4137
  807MOL0     C11249   8.365   2.443   2.301  0.1803 -0.2970  0.3446
  807MOL0     C11250   8.404   2.435   2.451  0.2588 -0.7490  0.0940
  807MOL0     C11251   8.562   2.410   2.469  0.6518 -0.0333  0.5881
  807MOL0     O11252   8.635   2.525   2.421 -0.6179 -0.2830 -0.7239
  807MOL0     C11253   8.773   2.538   2.448 -0.1561 -0.7510 -0.8133
  807MOL0     C11254   8.849   2.463   2.537  0.9997  0.7645  0.3662
  807MOL0     C11255   8.983   2.484   2.577 -1.0687  0.3596 -0.9704
  807MOL0     C11256   9.035   2.404   2.690 -0.1790  0.4262  0.3072
  807MOL0     C11257   9.061   2.585   2.505  0.2860  0.3655  0.4490
  807MOL0     C11258   9.215   2.595   2.518  0.1670 -0.4763  0.4240
  807MOL0     O11259   9.267   2.711   2.464  0.1897  0.1123 -0.6266
  807MOL0     C11260   9.404   2.711   2.451 -0.6616 -0.5486  0.2221
  807MOL0     C11261   9.483   2.617   2.384  0.8399 -0.6479 -0.1007
  807MOL0     C11262   9.623   2.636   2.360  0.2405 -1.0131 -0.4037
  807MOL0     C11263   9.687   2.755   2.401  0.9348  0.2759 -0.0078
  807MOL0     O11264   9.820   2.763   2.365 -0.2211 -0.0981  0.4313
  807MOL0     C11265   9.911   2.837   2.458  0.3315  0.1212 -0.1552
  807MOL0     C11266   9.934   2.977   2.406  1.1991 -0.1512 -0.2173
  807MOL0     C11267   9.962   2.987   2.260  0.1832 -0.1928  0.8789
  807MOL0     C11268  10.041   3.106   2.227 -0.2110  0.3209  0.3295
  807MOL0     C11269  10.108   3.085   2.090 -0.7957 -0.0959 -0.0666
  807MOL0     C11270  10.198   3.198   2.050  0.0353 -0.0492 -0.8551
  807MOL0     C11271  10.293   3.171   1.935  0.1603 -0.0873 -0.7709
  807MOL0     C11272  10.390   3.291   1.903 -0.9352  0.5370  0.1263
  807MOL0    Cl11273  10.503   3.309   2.045 -0.2018  0.4623  0.1269
  807MOL0     C11274   9.604   2.854   2.459  0.0197  0.0695  0.3031
  807MOL0     C11275   9.468   2.828   2.486  0.5223 -0.3612 -0.2109
  807MOL0     O11276   9.282   2.493   2.547  0.1034 -0.8029 -0.3069
  807MOL0     C11277   8.989   2.660   2.409  0.4319 -0.3436 -0.3237
  807MOL0     C11278   8.850   2.647   2.389 -0.5436  0.4118  0.4935
  807MOL0     N11279   8.064   2.378   2.453 -0.0331  0.1743  0.0878
  807MOL0     N11280   7.978   2.279   2.454  0.2352 -0.3891 -0.4163
  807MOL0     C11281   6.975   1.926   2.895 -0.5372  0.3824  0.2033
  807MOL0     C11282   6.845   1.932   2.929  0.2573 -0.4088  0.7145
  807MOL0     C11283   6.476   2.107   3.091 -0.6097 -0.0623  0.0798
  807MOL0     C11284   6.381   2.102   2.985 -0.1989 -0.5384 -0.3812
  807MOL0     C11285   6.238   2.103   3.005  0.6825 -0.4342 -0.6606
  807MOL0     C11286   6.189   2.113   3.137  0.0765  1.2612 -0.0953
  807MOL0     O11287   6.058   2.122   3.173  0.3506  0.9855  0.4003
  807MOL0     C11288   5.963   2.159   3.073 -0.4601 -0.2168  0.8123
  807MOL0     C11289   5.817   2.146   3.129  0.5264  0.3687  0.8381
  807MOL0     C11290   5.777   1.999   3.125 -0.0903  0.0491 -0.0274
  807MOL0     C11291   5.655   1.962   3.215  0.0728 -0.4400 -0.0541
  807MOL0     C11292   5.615   1.823   3.196 -1.6583  0.6825  0.8957
  807MOL0     C11293   5.575   1.714   3.158 -0.1656  0.2335 -0.8636
  807MOL0     C11294   6.286   2.099   3.246  0.7406  0.4878 -0.0067
  807MOL0     C11295   6.426   2.093   3.227 -1.0198 -0.8661  0.1075
  807MOL0     C11296   6.523   2.080   3.342  0.3248 -0.2830 -0.1623
  807MOL0     H11297   6.779   2.228   2.777  0.5222  0.8982 -0.2105
  807MOL0     H11298   7.039   2.201   2.716  1.4364 -0.5311 -1.2185
  807MOL0     H11299   7.125   1.824   2.720  0.1465 -0.0223  2.7780
  807MOL0     H11300   7.276   1.840   2.803  0.2852 -0.6103 -0.1351
  807MOL0     H11301   7.296   1.790   2.557 -0.4950 -0.6343  1.3291
  807MOL0     H11302   7.207   1.935   2.519 -0.8157 -0.8922  0.7737
  807MOL0     H11303   7.383   2.081   2.609  0.8672  1.0818 -1.2540
  807MOL0     H11304   7.469   1.929   2.654 -3.4883 -4.3082  0.7838
  807MOL0     H11305   7.501   1.891   2.389  0.8259  0.7434 -1.2029
  807MOL0     H11306   7.388   1.998   2.353  1.2704 -0.0437 -1.2325
  807MOL0     H11307   7.656   2.062   2.486  0.1880  0.9830  0.4170
  807MOL0     H11308   7.537   2.189   2.450  3.7259  0.1501  2.2618
  807MOL0     H11309   7.653   1.998   2.238  3.2596  1.1623 -2.1386
  807MOL0     H11310   7.541   2.140   2.223  1.2749  1.3079  0.1957
  807MOL0     H11311   7.729   2.287   2.284 -0.8519  0.4506 -2.2013
  807MOL0     H11312   7.767   2.200   2.138  1.1958  1.4869 -0.1884
  807MOL0     H11313   7.861   2.045   2.369  0.3382 -1.3452 -0.9724
  807MOL0     H11314   7.922   2.061   2.208  0.6796 -1.8696  1.7346
  807MOL0     H11315   8.083   2.248   2.150  0.4684 -1.0369  0.6408
  807MOL0     H11316   8.197   2.579   2.318 -1.0308 -0.3425  0.6185
  807MOL0     H11317   8.214   2.501   2.167  1.3796 -0.5287  0.1722
  807MOL0     H11318   8.393   2.353   2.246  0.6207  0.4639 -0.7043
  807MOL0     H11319   8.424   2.526   2.261 -1.0071 -0.1098 -1.0994
  807MOL0     H11320   8.367   2.522   2.505  0.6059 -0.9275  0.6255
  807MOL0     H11321   8.349   2.353   2.498 -1.1686  0.1597  0.0675
  807MOL0     H11322   8.581   2.390   2.574  0.2516  0.7325  0.8163
  807MOL0     H11323   8.595   2.315   2.426  1.2571  0.5968 -0.3891
  807MOL0     H11324   8.804   2.375   2.581 -0.0370  1.2227  0.2572
  807MOL0     H11325   9.078   2.313   2.648  1.4257  1.6439 -0.8437
  807MOL0     H11326   8.957   2.384   2.764 -1.4195  2.4339 -0.3654
  807MOL0     H11327   9.104   2.466   2.748  0.9214  0.6968 -1.1987
  807MOL0     H11328   9.444   2.519   2.358 -0.1921  0.0706 -1.3541
  807MOL0     H11329   9.671   2.570   2.288  0.1496 -0.1028 -1.3185
  807MOL0     H11330   9.878   2.836   2.563  1.7858  0.2492  0.3208
  807MOL0     H11331  10.004   2.781   2.449 -1.5018 -3.1481 -0.2620
  807MOL0     H11332   9.856   3.048   2.433  0.1134 -0.8652 -1.3977
  807MOL0     H11333  10.029   3.001   2.456  1.0799 -1.1629  0.5421
  807MOL0     H11334   9.873   2.983   2.197 -0.0891 -3.1538  1.2836
  807MOL0     H11335  10.028   2.903   2.234 -3.4653 -3.0364  0.0012
  807MOL0     H11336  10.128   3.113   2.293  0.6484 -1.4544 -0.5358
  807MOL0     H11337   9.987   3.201   2.237 -0.6409  0.1725 -0.5423
  807MOL0     H11338  10.166   2.994   2.111 -0.1184  0.9557  3.1833
  807MOL0     H11339  10.024   3.065   2.023 -2.0909  1.2613  1.0824
  807MOL0     H11340  10.245   3.238   2.140  1.0877 -0.2710 -1.2894
  807MOL0     H11341  10.133   3.277   2.011  1.6362  1.1536 -1.1832
  807MOL0     H11342  10.229   3.161   1.848  1.4059  0.2166 -1.7550
  807MOL0     H11343  10.348   3.079   1.957 -0.5530 -0.0037  1.7824
  807MOL0     H11344  10.325   3.378   1.893  0.4224  1.5484 -0.1030
  807MOL0     H11345  10.450   3.280   1.813  0.4454 -0.7998  1.1631
  807MOL0     H11346   9.656   2.941   2.498  0.6133 -1.0627  2.1617
  807MOL0     H11347   9.413   2.909   2.532  0.1645 -0.0449 -1.1782
  807MOL0     H11348   9.042   2.742   2.364 -1.6494  1.2769  0.0112
  807MOL0     H11349   8.801   2.704   2.311 -0.7404 -0.5219 -0.0728
  807MOL0     H11350   7.036   1.847   2.938 -0.6310  0.0995 -0.1753
  807MOL0     H11351   6.797   1.852   2.985 -0.3902 -1.8849 -1.8177
  807MOL0     H11352   6.410   2.102   2.880  1.8336 -1.3496  0.1490
  807MOL0     H11353   6.179   2.107   2.914  1.6087 -1.3519 -1.3231
  807MOL0     H11354   5.981   2.264   3.046  1.6706  0.1314  3.1928
  807MOL0     H11355   5.979   2.096   2.985  1.9624  0.1909  0.8971
  807MOL0     H11356   5.754   2.191   3.053  1.7653  0.6790 -0.0370
  807MOL0     H11357   5.797   2.199   3.223 -0.8711  0.2712  0.6099
  807MOL0     H11358   5.742   1.975   3.024 -0.5979  0.9413 -0.0803
  807MOL0     H11359   5.861   1.940   3.160 -1.2033 -0.5834  1.7177
  807MOL0     H11360   5.574   2.032   3.195 -1.5426 -2.0485  0.4742
  807MOL0     H11361   5.680   1.979   3.321 -0.8567  2.0388 -0.1822
  807MOL0     H11362   5.555   1.617   3.117  0.2096  0.4704 -1.6261
  807MOL0     H11363   6.242   2.090   3.345  1.4774 -0.5306  0.2463
  807MOL0     H11364   6.486   2.110   3.440  2.9435 -1.4831  1.2732
  807MOL0     H11365   6.544   1.973   3.343 -3.7062 -1.3225 -2.8749
  807MOL0     H11366   6.614   2.140   3.337  1.0219 -0.8359  3.4341
  808MOL0     O11367   4.403   7.351   5.793  0.6727  0.3016  0.3282
  808MOL0     C11368   4.392   7.385   5.678  0.2111  0.2598 -0.8690
  808MOL0     O11369   4.488   7.363   5.578  0.1760  0.6629  0.5001
  808MOL0     C11370   4.624   7.360   5.606  0.0932 -0.0226 -0.1540
  808MOL0     C11371   4.679   7.393   5.734 -0.1254  0.1047 -0.3076
  808MOL0     C11372   4.817   7.400   5.758 -0.3544 -1.1567 -0.0696
  808MOL0     C11373   4.898   7.373   5.649 -0.0966 -1.1291  0.6943
  808MOL0     O11374   5.033   7.360   5.652  0.0909  0.2026  0.6877
  808MOL0     C11375   5.106   7.419   5.759 -0.3451 -0.2100 -0.0132
  808MOL0     C11376   5.261   7.402   5.751  0.6248 -0.6602 -0.1543
  808MOL0     C11377   5.298   7.307   5.636 -0.2549  0.1511  0.2087
  808MOL0     C11378   5.450   7.301   5.626 -0.2371  0.2662 -0.6769
  808MOL0     C11379   5.488   7.189   5.523  0.5574  0.0357  0.2052
  808MOL0     C11380   5.633   7.205   5.498 -0.1450  0.8937 -0.9067
  808MOL0     C11381   5.681   7.100   5.392  0.0840 -0.1009  0.3207
  808MOL0     C11382   5.833   7.097   5.403  0.2784  0.3878  0.3479
  808MOL0     N11383   5.903   7.225   5.373 -0.3295  0.5951  0.3149
  808MOL0     C11384   5.950   7.309   5.460  1.3079 -0.0312  0.0720
  808MOL0     C11385   5.991   7.405   5.385 -0.5250  0.6148 -0.0884
  808MOL0     C11386   6.068   7.516   5.441  0.1447 -0.7662 -1.0530
  808MOL0     C11387   6.223   7.482   5.454 -0.0778  0.3631 -0.9952
  808MOL0     C11388   6.319   7.592   5.506  0.6832 -0.0607 -0.1775
  808MOL0     C11389   6.364   7.679   5.393  0.1423 -0.2233 -0.1734
  808MOL0     O11390   6.455   7.778   5.438 -0.4617 -0.1617 -0.5473
  808MOL0     C11391   6.581   7.725   5.477  0.7089 -0.3917 -0.4790
  808MOL0     C11392   6.654   7.607   5.440  0.1352  0.1697  0.9647
  808MOL0     C11393   6.783   7.574   5.487  0.2238  0.8802  0.0117
  808MOL0     C11394   6.843   7.435   5.455 -0.3957 -0.4644 -0.3033
  808MOL0     C11395   6.852   7.670   5.574 -0.8375  0.4920 -0.0139
  808MOL0     C11396   6.966   7.629   5.663 -0.1256 -0.5921  0.4852
  808MOL0     O11397   7.051   7.545   5.606  0.0484 -0.0851 -0.3881
  808MOL0     C11398   7.163   7.509   5.687  0.4022  0.0814 -0.1922
  808MOL0     C11399   7.283   7.592   5.693  0.9468 -0.1832  0.1409
  808MOL0     C11400   7.395   7.564   5.772  0.1599 -0.6160  0.1252
  808MOL0     C11401   7.392   7.445   5.845 -0.2320  0.7966 -0.3472
  808MOL0     O11402   7.493   7.392   5.925  0.2108  0.1166  0.0786
  808MOL0     C11403   7.615   7.458   5.945  0.6350  0.0026  0.1867
  808MOL0     C11404   7.686   7.411   6.073  0.2884 -0.3216 -0.3009
  808MOL0     C11405   7.793   7.507   6.132 -0.3866 -0.9665  0.9870
  808MOL0     C11406   7.930   7.480   6.055  0.2522  0.2075  0.5090
  808MOL0     C11407   8.042   7.581   6.081  0.3828 -0.7284  0.1891
  808MOL0     C11408   8.075   7.595   6.241 -0.2931 -0.0879  0.5750
  808MOL0     C11409   7.986   7.710   6.302 -0.6162 -0.5445  0.2883
  808MOL0     C11410   8.023   7.756   6.439 -1.0803  0.3883  0.1998
  808MOL0    Cl11411   7.937   7.656   6.566 -0.2609 -0.1680  0.2919
  808MOL0     C11412   7.281   7.358   5.838 -0.7502 -0.3266  0.7405
  808MOL0     C11413   7.170   7.386   5.762  0.2894 -0.3437 -0.3157
  808MOL0     O11414   6.980   7.691   5.770 -0.8424 -0.3452  0.0618
  808MOL0     C11415   6.788   7.789   5.596  0.1840  0.8426  0.1475
  808MOL0     C11416   6.654   7.818   5.549  0.1348  1.0659  0.6044
  808MOL0     N11417   5.958   7.391   5.253  1.1721 -0.5170  0.5163
  808MOL0     N11418   5.909   7.272   5.251  1.1185 -0.4487  0.4527
  808MOL0     C11419   4.852   7.339   5.520 -0.1269 -0.2754  0.0459
  808MOL0     C11420   4.712   7.335   5.503 -0.5574  0.9080  0.0019
  808MOL0     C11421   4.254   7.411   5.623 -0.3870  0.1801 -0.0748
  808MOL0     C11422   4.243   7.406   5.476 -0.7856  0.2901 -0.1644
  808MOL0     C11423   4.119   7.426   5.413  1.3079  0.0427 -0.5695
  808MOL0     C11424   3.998   7.430   5.490 -0.0024 -0.3969 -0.2189
  808MOL0     O11425   3.870   7.462   5.444 -0.1845 -0.2885 -0.3962
  808MOL0     C11426   3.840   7.452   5.310  0.1919 -0.1071 -0.7824
  808MOL0     C11427   3.689   7.472   5.310  0.6332 -0.2697  0.1366
  808MOL0     C11428   3.621   7.470   5.174  0.0525  0.2042 -0.1324
  808MOL0     C11429   3.469   7.513   5.182 -0.1182 -0.0462  0.3669
  808MOL0     C11430   3.400   7.525   5.055  0.2211  0.9147  0.0598
  808MOL0     C11431   3.337   7.533   4.952  0.8183 -0.2832 -0.5292
  808MOL0     C11432   4.007   7.440   5.633 -0.2478 -0.9973  0.2150
  808MOL0     C11433   4.129   7.431   5.695 -0.3287  0.3055  0.2954
  808MOL0     C11434   4.133   7.433   5.840  0.7355  0.6856 -0.5362
  808MOL0     H11435   4.618   7.422   5.818 -0.9347  1.1698 -1.2338
  808MOL0     H11436   4.850   7.415   5.860  1.0619 -0.3021 -0.6264
  808MOL0     H11437   5.075   7.358   5.844  3.3369 -0.9224  1.0228
  808MOL0     H11438   5.083   7.525   5.776 -0.8317 -0.1431 -1.0350
  808MOL0     H11439   5.313   7.498   5.742 -0.7903 -0.0013 -1.4716
  808MOL0     H11440   5.296   7.368   5.850  0.6240  1.1976  0.5149
  808MOL0     H11441   5.265   7.205   5.660  4.2852 -1.3018  1.2853
  808MOL0     H11442   5.256   7.337   5.540  1.1998 -0.9441 -0.8097
  808MOL0     H11443   5.484   7.398   5.588  1.4071  0.4049  0.9986
  808MOL0     H11444   5.496   7.280   5.723 -2.1128  2.3433  0.7384
  808MOL0     H11445   5.427   7.189   5.432 -0.3076  0.2840  0.7741
  808MOL0     H11446   5.471   7.094   5.574 -2.4227  0.9773  1.1547
  808MOL0     H11447   5.664   7.308   5.477  1.6803  0.2803 -1.3861
  808MOL0     H11448   5.688   7.181   5.590 -1.4338 -0.1326 -0.3726
  808MOL0     H11449   5.657   7.146   5.296 -1.8567 -0.0420  0.8025
  808MOL0     H11450   5.634   7.001   5.400  1.2012 -0.7200 -0.4021
  808MOL0     H11451   5.868   7.076   5.504  0.2929  0.3114  0.3276
  808MOL0     H11452   5.865   7.022   5.330 -1.2236  0.3830 -0.3383
  808MOL0     H11453   5.945   7.313   5.569 -1.3038 -0.7662  0.0599
  808MOL0     H11454   6.029   7.535   5.542  1.9572 -4.1556  0.4565
  808MOL0     H11455   6.049   7.602   5.377  0.8911  1.0065  0.9953
  808MOL0     H11456   6.240   7.404   5.529  3.3147 -1.0767 -3.0109
  808MOL0     H11457   6.253   7.415   5.373  0.3365 -2.2295  1.1821
  808MOL0     H11458   6.267   7.664   5.570  0.2090  0.5555 -1.2458
  808MOL0     H11459   6.396   7.553   5.574 -1.3408  0.8215  2.8385
  808MOL0     H11460   6.408   7.625   5.309 -2.2335  2.2087 -3.2365
  808MOL0     H11461   6.274   7.723   5.348  1.2036  0.5578 -1.5851
  808MOL0     H11462   6.595   7.536   5.382  3.0363 -1.4448 -0.2106
  808MOL0     H11463   6.946   7.443   5.419 -0.6054  3.4143 -0.4601
  808MOL0     H11464   6.785   7.383   5.378 -1.3344 -0.3815  0.3177
  808MOL0     H11465   6.864   7.372   5.542  0.6663 -0.8058 -0.7928
  808MOL0     H11466   7.278   7.684   5.636 -2.8747 -1.2089 -1.4451
  808MOL0     H11467   7.487   7.622   5.779  0.4878 -1.2118  0.9653
  808MOL0     H11468   7.681   7.454   5.858 -0.6824 -0.0054 -0.8404
  808MOL0     H11469   7.590   7.563   5.965 -1.1167 -0.6452  1.7702
  808MOL0     H11470   7.601   7.412   6.142 -0.0514  0.4303 -0.7188
  808MOL0     H11471   7.727   7.311   6.054  0.2308 -0.1673 -1.3151
  808MOL0     H11472   7.808   7.497   6.240  0.2897 -0.5103  0.9409
  808MOL0     H11473   7.761   7.609   6.111 -0.1072 -0.7162  1.7371
  808MOL0     H11474   7.913   7.466   5.948 -1.5641  0.9644  0.6622
  808MOL0     H11475   7.961   7.386   6.099  1.6649  1.1232  1.5501
  808MOL0     H11476   8.136   7.554   6.032 -0.4203 -0.5010 -1.5358
  808MOL0     H11477   8.017   7.682   6.047  3.5026 -0.8075 -2.9889
  808MOL0     H11478   8.181   7.618   6.251  0.5187 -3.2071  0.2527
  808MOL0     H11479   8.056   7.500   6.292  1.7644 -1.0114 -0.2601
  808MOL0     H11480   7.879   7.700   6.283 -0.3000 -1.2469 -1.2972
  808MOL0     H11481   8.014   7.795   6.239 -0.3813 -1.5302 -0.9789
  808MOL0     H11482   7.997   7.862   6.449 -0.5735  0.5813 -0.4741
  808MOL0     H11483   8.131   7.739   6.446 -0.7278  2.0253 -0.7074
  808MOL0     H11484   7.282   7.276   5.908 -2.6626 -1.6968 -0.7255
  808MOL0     H11485   7.075   7.334   5.773  0.7671 -1.3347 -0.7730
  808MOL0     H11486   6.849   7.861   5.649  0.9274  0.6660 -0.4558
  808MOL0     H11487   6.600   7.909   5.572  1.7359  2.4843 -0.9159
  808MOL0     H11488   4.917   7.321   5.435  0.0950 -0.4514  0.2515
  808MOL0     H11489   4.667   7.319   5.406  1.1204 -1.1008 -0.5034
  808MOL0     H11490   4.330   7.386   5.415  0.3127  2.1181  0.7284
  808MOL0     H11491   4.116   7.408   5.306  1.3849 -2.1211 -0.2566
  808MOL0     H11492   3.892   7.518   5.240  3.8112 -1.6811  0.1531
  808MOL0     H11493   3.883   7.354   5.286  1.5398 -0.0356  1.1473
  808MOL0     H11494   3.665   7.568   5.356 -0.4739  0.6211 -2.1500
  808MOL0     H11495   3.647   7.392   5.370  1.2917  1.2695  2.8029
  808MOL0     H11496   3.666   7.552   5.118 -0.2913  1.4168  1.2945
  808MOL0     H11497   3.634   7.380   5.113 -0.9967 -1.5441  2.0946
  808MOL0     H11498   3.460   7.605   5.240  2.0414  0.2603  0.2809
  808MOL0     H11499   3.418   7.434   5.238  1.7700 -1.9837 -0.5121
  808MOL0     H11500   3.282   7.539   4.860 -1.3478 -0.2756  0.6859
  808MOL0     H11501   3.919   7.456   5.695  1.4579  2.6079  2.0433
  808MOL0     H11502   4.147   7.335   5.889 -1.4543 -0.9005 -2.8341
  808MOL0     H11503   4.217   7.499   5.863  1.0461  0.8479 -2.0490
  808MOL0     H11504   4.039   7.476   5.875 -0.5329 -2.3961  0.1956
  809MOL0     O11505   0.399   8.610   1.596  0.0708 -0.8124  0.1332
  809MOL0     C11506   0.388   8.606   1.475 -0.0639 -0.3605 -0.1298
  809MOL0     O11507   0.503   8.614   1.389  1.0138  0.3030 -0.1308
  809MOL0     C11508   0.627   8.628   1.452  0.6154  0.2682 -1.0500
  809MOL0     C11509   0.707   8.735   1.413  0.2664  0.6718  0.3608
  809MOL0     C11510   0.828   8.761   1.478  0.2616 -0.2791 -1.0929
  809MOL0     C11511   0.868   8.676   1.585 -0.0218 -0.4228 -0.7281
  809MOL0     O11512   0.978   8.725   1.656 -0.9579 -0.0906 -0.3531
  809MOL0     C11513   1.063   8.633   1.730  0.7424 -0.3623  0.2436
  809MOL0     C11514   1.160   8.729   1.802 -0.8615  0.1473 -0.3901
  809MOL0     C11515   1.089   8.836   1.891 -0.2154  0.0797  0.6117
  809MOL0     C11516   1.199   8.943   1.945 -0.4501  0.0155 -0.3813
  809MOL0     C11517   1.151   9.065   2.013  1.3859 -0.5757  0.0681
  809MOL0     C11518   1.249   9.166   2.062  1.5887  0.0266  0.2206
  809MOL0     C11519   1.290   9.145   2.205  0.4802 -0.1844  1.6832
  809MOL0     C11520   1.384   9.260   2.247  0.7046  0.2276 -0.2831
  809MOL0     N11521   1.464   9.210   2.357 -0.3700  0.1013 -0.7023
  809MOL0     C11522   1.562   9.120   2.328  0.1671  0.3704 -0.6945
  809MOL0     C11523   1.626   9.092   2.442 -0.0283  0.4871  0.1460
  809MOL0     C11524   1.735   8.990   2.454 -0.2676  0.0768  0.9836
  809MOL0     C11525   1.864   9.062   2.455  0.1638  0.3184  1.0282
  809MOL0     C11526   1.981   8.964   2.458  0.3307 -0.3121 -0.2406
  809MOL0     C11527   2.128   9.013   2.465 -0.3232 -0.0023  0.7202
  809MOL0     O11528   2.215   8.897   2.448 -0.1273 -0.3079 -0.0325
  809MOL0     C11529   2.345   8.921   2.427  0.3147  0.2492 -0.5626
  809MOL0     C11530   2.428   8.812   2.409 -0.7055 -0.6462 -0.1089
  809MOL0     C11531   2.569   8.821   2.409  0.0082  0.0995 -0.3776
  809MOL0     C11532   2.644   8.684   2.382  0.0020  0.3584 -0.7499
  809MOL0     C11533   2.636   8.947   2.425 -0.0413  0.5559 -0.0060
  809MOL0     C11534   2.783   8.971   2.424 -1.0789 -0.5218  0.2402
  809MOL0     O11535   2.864   8.866   2.407  0.8814 -0.8000 -0.7531
  809MOL0     C11536   3.000   8.885   2.424 -0.2921  0.1429  0.4987
  809MOL0     C11537   3.060   8.939   2.546 -0.2222  0.1619 -0.2126
  809MOL0     C11538   3.197   8.949   2.548 -0.3289 -0.1023  0.5410
  809MOL0     C11539   3.284   8.923   2.435  0.3195  0.5089 -1.3379
  809MOL0     O11540   3.419   8.931   2.458  0.3075 -0.0216 -0.6275
  809MOL0     C11541   3.499   8.943   2.342  0.0853  0.3712  0.1005
  809MOL0     C11542   3.633   8.966   2.411  0.0492 -0.7498 -1.0733
  809MOL0     C11543   3.745   8.957   2.299  0.2783 -0.3117 -0.0855
  809MOL0     C11544   3.862   9.032   2.344 -0.9477  0.3013 -0.6604
  809MOL0     C11545   3.982   9.037   2.252  0.5615 -0.1924  0.1520
  809MOL0     C11546   4.115   9.050   2.330 -0.7123  0.3680 -0.0662
  809MOL0     C11547   4.235   9.039   2.247 -0.0284 -0.4189  0.1535
  809MOL0     C11548   4.363   9.070   2.333  0.4669  0.2067 -0.5577
  809MOL0    Cl11549   4.518   9.031   2.251  0.2533  0.2003 -0.2518
  809MOL0     C11550   3.215   8.883   2.322 -0.8669 -0.3578  0.6306
  809MOL0     C11551   3.075   8.870   2.316  0.0855  1.0197  0.1671
  809MOL0     O11552   2.820   9.086   2.433  0.3987 -0.1634  0.1343
  809MOL0     C11553   2.552   9.063   2.434  0.0405 -0.4207 -0.1882
  809MOL0     C11554   2.416   9.042   2.440  0.2560 -0.5984 -0.8065
  809MOL0     N11555   1.578   9.178   2.538 -0.4926  0.3132 -0.2440
  809MOL0     N11556   1.475   9.244   2.489  0.4197  0.1162 -0.8356
  809MOL0     C11557   0.798   8.568   1.624  1.3053 -1.3642  0.3448
  809MOL0     C11558   0.669   8.540   1.554 -0.0486 -0.0194 -0.3023
  809MOL0     C11559   0.256   8.589   1.416 -1.1267  0.1356 -1.7663
  809MOL0     C11560   0.258   8.540   1.291 -0.4664  0.4223  0.1313
  809MOL0     C11561   0.151   8.517   1.215  0.4466 -0.1730  0.1757
  809MOL0     C11562   0.023   8.522   1.280  0.2806 -0.4423  0.3283
  809MOL0     O11563  -0.095   8.499   1.213 -0.1021 -0.4875 -0.4906
  809MOL0     C11564  -0.089   8.411   1.101 -1.0835  0.7470  0.3827
  809MOL0     C11565  -0.219   8.410   1.029 -0.2850 -0.5915  1.4384
  809MOL0     C11566  -0.254   8.554   0.982  0.1489 -0.6178 -0.0182
  809MOL0     C11567  -0.366   8.537   0.881 -0.2481 -0.5109  0.4172
  809MOL0     C11568  -0.414   8.671   0.839  0.0319  0.3942  0.2894
  809MOL0     C11569  -0.471   8.773   0.799  0.5917 -0.2071 -0.1667
  809MOL0     C11570   0.019   8.557   1.418 -0.4235  0.2171  0.6743
  809MOL0     C11571   0.134   8.599   1.481 -0.0677  0.4042 -0.9184
  809MOL0     C11572   0.117   8.655   1.628 -0.4360  1.0320 -0.5625
  809MOL0     H11573   0.675   8.808   1.339 -1.0282 -1.5353 -1.4096
  809MOL0     H11574   0.888   8.850   1.460  1.6860 -0.1322  3.2306
  809MOL0     H11575   1.119   8.566   1.664 -0.9775 -1.5581 -0.0686
  809MOL0     H11576   1.000   8.579   1.801 -0.7331  0.3148 -0.5185
  809MOL0     H11577   1.233   8.670   1.859 -2.8026 -1.0344  1.0341
  809MOL0     H11578   1.217   8.783   1.726 -1.6031 -0.0748 -1.1111
  809MOL0     H11579   1.011   8.885   1.832  1.1306 -1.6384 -2.8742
  809MOL0     H11580   1.039   8.781   1.971 -0.2190 -1.9464 -0.7162
  809MOL0     H11581   1.268   8.897   2.016 -0.4877 -0.7448 -0.8332
  809MOL0     H11582   1.261   8.987   1.866  0.9399 -0.2842  0.5159
  809MOL0     H11583   1.086   9.021   2.090  0.8002 -1.5119 -0.9427
  809MOL0     H11584   1.082   9.117   1.947 -0.5408  0.0600  2.4420
  809MOL0     H11585   1.330   9.165   1.988  1.3753  3.4674 -0.2147
  809MOL0     H11586   1.201   9.263   2.049 -0.5120 -1.2884 -3.2411
  809MOL0     H11587   1.315   9.044   2.237 -1.5256 -0.5197  2.3107
  809MOL0     H11588   1.191   9.167   2.245 -0.0679  1.8390 -0.5231
  809MOL0     H11589   1.459   9.289   2.173  2.3042 -0.3588  1.0343
  809MOL0     H11590   1.318   9.346   2.266  2.7972  1.6650  0.8867
  809MOL0     H11591   1.580   9.065   2.236 -0.2559  0.7550 -1.0129
  809MOL0     H11592   1.739   8.930   2.362  0.9124  0.6377  0.6455
  809MOL0     H11593   1.703   8.937   2.544 -2.0290 -2.1976 -0.8516
  809MOL0     H11594   1.881   9.134   2.375  2.3971  0.7482  1.8217
  809MOL0     H11595   1.877   9.120   2.547  0.2959  1.3005  0.4088
  809MOL0     H11596   1.972   8.897   2.544 -0.8438 -0.1912 -0.2616
  809MOL0     H11597   1.968   8.915   2.361 -2.5547  0.9596 -0.5922
  809MOL0     H11598   2.137   9.075   2.375  0.9643  0.8991  1.4513
  809MOL0     H11599   2.155   9.070   2.554 -1.2486  2.1959 -0.3262
  809MOL0     H11600   2.382   8.713   2.407  1.1104 -1.6643  2.4757
  809MOL0     H11601   2.572   8.604   2.364 -0.0077  0.3260 -0.5723
  809MOL0     H11602   2.709   8.650   2.463 -0.5236 -1.7908 -1.1704
  809MOL0     H11603   2.706   8.706   2.294  0.8815  2.6907  0.3628
  809MOL0     H11604   3.003   8.975   2.631 -1.0325  1.4827 -1.2837
  809MOL0     H11605   3.241   8.976   2.644 -1.3014 -0.6290  1.1507
  809MOL0     H11606   3.508   8.846   2.292 -1.1951 -0.2001  0.9495
  809MOL0     H11607   3.467   9.023   2.275 -1.6288  0.2207  0.7093
  809MOL0     H11608   3.612   9.069   2.442 -4.5158 -1.5346 -0.9272
  809MOL0     H11609   3.656   8.903   2.498 -3.0503 -0.7711 -0.1586
  809MOL0     H11610   3.704   9.010   2.212 -1.7651 -2.3425 -0.4528
  809MOL0     H11611   3.779   8.856   2.273  1.5861  0.4163 -1.3920
  809MOL0     H11612   3.895   8.978   2.434 -1.3802 -0.9641 -1.2447
  809MOL0     H11613   3.827   9.133   2.366 -0.2878  0.8901 -2.2158
  809MOL0     H11614   3.983   8.944   2.194 -2.7097 -1.2212  1.5270
  809MOL0     H11615   3.974   9.123   2.186  2.0687  0.1546  0.3757
  809MOL0     H11616   4.115   8.968   2.402 -3.6772  0.6258  0.3841
  809MOL0     H11617   4.121   9.144   2.385 -2.6488  0.3125  0.3133
  809MOL0     H11618   4.231   9.119   2.173  2.4483 -0.4686 -0.1425
  809MOL0     H11619   4.239   8.947   2.187  1.1694 -0.7350  0.6841
  809MOL0     H11620   4.367   9.011   2.425  0.9278  2.3986  0.8961
  809MOL0     H11621   4.374   9.171   2.373  2.5187 -0.3141  0.3398
  809MOL0     H11622   3.267   8.869   2.227 -2.2612  1.3476 -0.4601
  809MOL0     H11623   3.029   8.834   2.224  0.0070  0.6734  0.3413
  809MOL0     H11624   2.594   9.163   2.444  0.6919 -0.5176 -1.6661
  809MOL0     H11625   2.354   9.130   2.453  1.9110  0.6011 -0.7120
  809MOL0     H11626   0.818   8.521   1.720 -2.3182 -0.1298  1.9224
  809MOL0     H11627   0.605   8.469   1.605 -0.3337  0.4810  0.0385
  809MOL0     H11628   0.350   8.528   1.234 -0.2743 -1.7237  0.7996
  809MOL0     H11629   0.173   8.485   1.114  3.6096 -0.9049  0.9888
  809MOL0     H11630  -0.007   8.436   1.034 -0.8872 -0.8317 -0.0185
  809MOL0     H11631  -0.080   8.308   1.137 -2.9391  0.8450  1.2810
  809MOL0     H11632  -0.305   8.382   1.091  1.6132 -1.0409  4.0289
  809MOL0     H11633  -0.217   8.332   0.952 -0.7497  1.1281 -0.4022
  809MOL0     H11634  -0.287   8.609   1.071  0.0060 -1.1420  0.2575
  809MOL0     H11635  -0.178   8.613   0.931  0.4340 -0.0392  1.0469
  809MOL0     H11636  -0.455   8.479   0.907  1.2879 -2.0221  2.5603
  809MOL0     H11637  -0.318   8.482   0.799 -3.0523 -1.5326 -0.6548
  809MOL0     H11638  -0.522   8.850   0.745  0.5659 -0.1835 -0.1094
  809MOL0     H11639  -0.082   8.565   1.459 -1.1143 -0.0138 -0.9121
  809MOL0     H11640   0.198   8.722   1.658  2.5012 -2.8785  1.2108
  809MOL0     H11641   0.024   8.711   1.636 -1.4172 -0.7457  1.5122
  809MOL0     H11642   0.122   8.563   1.688 -0.3172  0.8840 -0.7972
  810MOL0     O11643  10.778   7.193   5.084  0.0251  0.0476 -1.0589
  810MOL0     C11644  10.714   7.237   4.987 -0.0706  0.0555 -0.5344
  810MOL0     O11645  10.767   7.260   4.858  0.5963  0.0364 -0.5184
  810MOL0     C11646  10.898   7.296   4.858 -0.5534  0.1453 -0.5395
  810MOL0     C11647  10.992   7.191   4.846  0.7377  0.4281 -0.3394
  810MOL0     C11648  11.127   7.223   4.847  0.0033 -0.3649  0.1393
  810MOL0     C11649  11.172   7.357   4.843 -0.1508 -0.4138 -0.8792
  810MOL0     O11650  11.310   7.377   4.840  0.0840 -0.6032 -0.1508
  810MOL0     C11651  11.376   7.500   4.825  0.4229  0.1792  0.5685
  810MOL0     C11652  11.520   7.453   4.862  0.0553 -0.2858  0.3285
  810MOL0     C11653  11.626   7.559   4.829  0.2206  0.3585 -1.5284
  810MOL0     C11654  11.754   7.524   4.901  2.3263  0.1766 -0.2372
  810MOL0     C11655  11.860   7.622   4.850 -1.5997 -0.2276 -0.5399
  810MOL0     C11656  11.996   7.586   4.917 -0.2347  0.5353  0.4859
  810MOL0     C11657  12.104   7.690   4.879  0.2781 -0.2431 -0.6825
  810MOL0     C11658  12.242   7.639   4.917  0.1743 -0.5278  0.2177
  810MOL0     N11659  12.348   7.712   4.856  0.5748 -0.2848  0.0020
  810MOL0     C11660  12.477   7.652   4.845  0.4119  0.2697  0.2129
  810MOL0     C11661  12.556   7.741   4.782 -0.0822  0.1647 -0.4050
  810MOL0     C11662  12.705   7.726   4.767 -0.2093 -0.2020  0.9636
  810MOL0     C11663  12.752   7.669   4.631 -0.0599 -0.4971 -1.0356
  810MOL0     C11664  12.737   7.519   4.624 -0.0075 -0.4591  0.0983
  810MOL0     C11665  12.754   7.449   4.489 -1.5353  0.3750 -0.3411
  810MOL0     O11666  12.887   7.493   4.440  0.7134 -0.0392 -0.5304
  810MOL0     C11667  12.976   7.388   4.430 -0.4767 -0.3700 -0.0653
  810MOL0     C11668  13.114   7.418   4.450  0.1953  0.2015 -0.4032
  810MOL0     C11669  13.213   7.317   4.455 -0.6840 -0.8012 -0.0256
  810MOL0     C11670  13.358   7.351   4.502  0.0273  0.6653  0.3367
  810MOL0     C11671  13.179   7.181   4.415 -0.3070  0.7577  0.3405
  810MOL0     C11672  13.277   7.065   4.416  0.2717 -0.0380  0.3854
  810MOL0     O11673  13.388   7.069   4.492 -0.4898  0.1578  0.7048
  810MOL0     C11674  13.468   6.952   4.484 -0.0457 -0.7566 -0.0922
  810MOL0     C11675  13.542   6.919   4.364  0.3395  0.2772 -0.5494
  810MOL0     C11676  13.623   6.812   4.360  0.1062  0.6294 -0.2074
  810MOL0     C11677  13.645   6.726   4.467 -0.2988 -0.8772  0.1313
  810MOL0     O11678  13.720   6.611   4.456 -0.3949 -0.3271 -0.2124
  810MOL0     C11679  13.829   6.607   4.369  0.2921 -0.0121  0.1230
  810MOL0     C11680  13.934   6.709   4.416  0.6775  1.1530 -0.0486
  810MOL0     C11681  14.009   6.663   4.539 -0.2077 -0.5753  0.4400
  810MOL0     C11682  14.095   6.788   4.589 -0.5119  0.1302  0.3496
  810MOL0     C11683  14.054   6.826   4.730 -0.1222 -0.4537 -0.6264
  810MOL0     C11684  13.921   6.903   4.736 -0.0847  0.0888 -0.5914
  810MOL0     C11685  13.904   7.022   4.640 -0.2896 -0.1512 -0.5204
  810MOL0     C11686  13.841   7.152   4.699  0.0029 -0.3035  0.4235
  810MOL0    Cl11687  13.661   7.121   4.751 -0.4012 -0.3727  0.0180
  810MOL0     C11688  13.561   6.754   4.577 -0.8093 -0.9072 -0.4106
  810MOL0     C11689  13.483   6.866   4.587  0.7550  0.2304 -1.2279
  810MOL0     O11690  13.245   6.970   4.348 -0.2319  0.2320 -0.2701
  810MOL0     C11691  13.041   7.155   4.381  0.5790 -0.8827 -0.2858
  810MOL0     C11692  12.945   7.260   4.381  0.3785  0.7842  0.0168
  810MOL0     N11693  12.471   7.852   4.762  0.4992 -0.2897 -0.4175
  810MOL0     N11694  12.349   7.835   4.799  0.2496 -0.0929 -0.2082
  810MOL0     C11695  11.077   7.462   4.857 -0.9877  1.3027  0.0166
  810MOL0     C11696  10.938   7.432   4.859  0.4317 -0.2148  0.1418
  810MOL0     C11697  10.568   7.245   5.012 -0.7678 -0.4321  0.6125
  810MOL0     C11698  10.530   7.268   5.140  0.4972 -0.1506 -0.3472
  810MOL0     C11699  10.400   7.290   5.173 -0.5008 -0.6499  0.7291
  810MOL0     C11700  10.299   7.302   5.072 -0.5193 -0.3787  0.3785
  810MOL0     O11701  10.170   7.328   5.118  0.0907 -0.2537  0.4207
  810MOL0     C11702  10.071   7.333   5.017  0.1427  0.0678  0.1020
  810MOL0     C11703   9.943   7.388   5.060  0.5503 -0.6003 -0.7138
  810MOL0     C11704   9.830   7.370   4.967 -0.7175  0.0523  0.1651
  810MOL0     C11705   9.694   7.398   5.040 -0.7583  0.3211 -0.4456
  810MOL0     C11706   9.598   7.370   4.937  0.2975 -0.4153  0.4331
  810MOL0     C11707   9.523   7.356   4.838 -0.3534  0.0079 -1.4727
  810MOL0     C11708  10.336   7.251   4.946 -0.1170 -0.4614  0.5134
  810MOL0     C11709  10.471   7.229   4.911 -0.0579  0.2809  1.0137
  810MOL0     C11710  10.508   7.175   4.767  0.4393 -0.9503  0.3205
  810MOL0     H11711  10.958   7.089   4.830  0.7189  0.5187 -0.9069
  810MOL0     H11712  11.205   7.148   4.839 -0.1410 -1.0069  3.3250
  810MOL0     H11713  11.333   7.578   4.888 -2.2041 -0.6131 -0.1303
  810MOL0     H11714  11.359   7.536   4.723 -1.9937  2.5706  1.7028
  810MOL0     H11715  11.534   7.441   4.970 -1.6581  3.2502  1.0909
  810MOL0     H11716  11.549   7.361   4.810  2.1194  0.1499  0.6420
  810MOL0     H11717  11.631   7.543   4.721 -0.2658  1.7363 -1.7772
  810MOL0     H11718  11.581   7.654   4.859 -0.2106 -0.4508  0.5370
  810MOL0     H11719  11.734   7.545   5.007  1.9078  1.1095 -0.4849
  810MOL0     H11720  11.791   7.424   4.879  0.5947 -0.6826  0.5615
  810MOL0     H11721  11.836   7.725   4.880 -1.1872  0.4729 -2.4882
  810MOL0     H11722  11.865   7.602   4.743  0.6867 -1.2802 -0.3005
  810MOL0     H11723  11.989   7.598   5.026 -0.6672  2.1582  0.3041
  810MOL0     H11724  12.030   7.488   4.882 -0.7655  1.0845 -1.6920
  810MOL0     H11725  12.076   7.783   4.930 -0.9001 -0.9953  0.1051
  810MOL0     H11726  12.117   7.703   4.772  4.6701  0.3385 -0.2299
  810MOL0     H11727  12.253   7.633   5.026  0.5039  0.1926  0.2346
  810MOL0     H11728  12.253   7.539   4.874 -2.7890 -0.4083 -1.0008
  810MOL0     H11729  12.516   7.563   4.894  0.8581  1.5765  2.3832
  810MOL0     H11730  12.741   7.657   4.844  0.8868 -1.7562 -0.8556
  810MOL0     H11731  12.752   7.824   4.777 -1.2106  0.5826 -1.2501
  810MOL0     H11732  12.683   7.709   4.556 -1.6134 -0.8646  0.1334
  810MOL0     H11733  12.857   7.696   4.618  0.3630 -0.2902  2.0758
  810MOL0     H11734  12.813   7.471   4.686  1.4666 -0.2535 -1.4813
  810MOL0     H11735  12.635   7.491   4.650 -0.5303 -0.8766 -2.2202
  810MOL0     H11736  12.750   7.343   4.514  1.6040  0.5262  1.2733
  810MOL0     H11737  12.687   7.485   4.410  1.0747  1.7941 -2.0568
  810MOL0     H11738  13.134   7.520   4.482 -1.8909 -0.2071  2.5980
  810MOL0     H11739  13.434   7.323   4.428 -0.5861  2.1112 -0.8923
  810MOL0     H11740  13.388   7.300   4.594  2.1940 -0.7697 -1.0563
  810MOL0     H11741  13.372   7.458   4.520  2.2955  0.9272 -2.2298
  810MOL0     H11742  13.518   6.989   4.285  1.7534  1.4718  0.0369
  810MOL0     H11743  13.666   6.792   4.262  2.2652 -1.1901  1.0375
  810MOL0     H11744  13.870   6.506   4.359  1.1997  0.5492 -2.7057
  810MOL0     H11745  13.793   6.611   4.266 -0.1119 -2.4370  0.1063
  810MOL0     H11746  14.005   6.725   4.333  1.5970 -2.0282 -0.0293
  810MOL0     H11747  13.884   6.803   4.439  1.2726  1.5104 -0.1868
  810MOL0     H11748  14.075   6.578   4.521  1.1405  0.4367  0.4493
  810MOL0     H11749  13.941   6.627   4.616  1.7967 -3.2661  1.1091
  810MOL0     H11750  14.092   6.873   4.521  2.5015  1.7391  2.0209
  810MOL0     H11751  14.199   6.753   4.581 -0.9066 -1.3565  1.2288
  810MOL0     H11752  14.047   6.749   4.807  0.5314  1.8679  1.8845
  810MOL0     H11753  14.140   6.887   4.758 -0.6056 -0.5578  1.1775
  810MOL0     H11754  13.912   6.943   4.838  1.1732  2.7769 -1.4538
  810MOL0     H11755  13.840   6.830   4.724  0.7976 -0.6679 -2.1905
  810MOL0     H11756  13.833   6.987   4.564 -1.4104 -1.7323  1.1469
  810MOL0     H11757  14.004   7.051   4.606  0.3315  0.3658  1.5880
  810MOL0     H11758  13.836   7.234   4.627  0.0753 -0.1504  0.5903
  810MOL0     H11759  13.897   7.185   4.787 -0.7459 -1.6678  1.4472
  810MOL0     H11760  13.555   6.683   4.658 -3.1250 -0.7142 -0.3443
  810MOL0     H11761  13.423   6.876   4.677 -0.9852  0.3262 -2.3568
  810MOL0     H11762  12.991   7.060   4.371  1.2602 -1.2581 -0.2157
  810MOL0     H11763  12.843   7.228   4.364  0.2813  0.6626  0.7952
  810MOL0     H11764  11.108   7.564   4.839 -2.5053  1.5108 -1.6335
  810MOL0     H11765  10.874   7.520   4.859  0.1689 -0.4003  0.8962
  810MOL0     H11766  10.604   7.256   5.218  0.1821 -1.1447 -0.1893
  810MOL0     H11767  10.361   7.320   5.270 -0.2931 -0.8120  0.8641
  810MOL0     H11768  10.112   7.393   4.936  1.3418  1.1019  1.4164
  810MOL0     H11769  10.047   7.234   4.976 -0.3329  0.1399  0.2048
  810MOL0     H11770   9.963   7.495   5.063  0.8237 -0.6676  0.0699
  810MOL0     H11771   9.904   7.354   5.156 -0.0595 -0.0635 -0.7669
  810MOL0     H11772   9.851   7.440   4.886  2.9572  0.6537  1.4659
  810MOL0     H11773   9.829   7.269   4.927  0.7435  0.0063  0.1911
  810MOL0     H11774   9.693   7.500   5.078 -0.3770  0.0480  0.3202
  810MOL0     H11775   9.686   7.321   5.118  0.4992  2.9384  2.4613
  810MOL0     H11776   9.464   7.364   4.750 -0.5608 -0.6011 -1.3915
  810MOL0     H11777  10.265   7.225   4.867  0.8079 -1.2140 -0.0975
  810MOL0     H11778  10.533   7.253   4.694 -0.0098 -1.5786 -0.5165
  810MOL0     H11779  10.588   7.101   4.766 -0.1405 -1.6526 -2.1524
  810MOL0     H11780  10.418   7.130   4.723  1.1211 -0.8200 -1.2576
  811MOL0     O11781  10.928   9.488   4.655 -0.3903 -0.2395  0.6851
  811MOL0     C11782  10.900   9.479   4.778  1.2078 -0.5728  0.4596
  811MOL0     O11783  10.951   9.395   4.855  0.3181  1.6010 -0.0693
  811MOL0     C11784  11.074   9.353   4.823 -0.0980 -1.0566  0.5508
  811MOL0     C11785  11.182   9.433   4.866 -0.8296  0.7017  0.4504
  811MOL0     C11786  11.313   9.394   4.845 -0.5899  0.2952 -1.3118
  811MOL0     C11787  11.347   9.283   4.778 -0.4224  1.0820  0.1873
  811MOL0     O11788  11.480   9.253   4.762 -0.2173  0.5110  0.1709
  811MOL0     C11789  11.527   9.134   4.682  1.3903 -0.8388  0.3123
  811MOL0     C11790  11.516   9.165   4.537  1.2235 -0.1285  0.1250
  811MOL0     C11791  11.568   9.049   4.454  0.2730 -0.0046  0.6725
  811MOL0     C11792  11.611   9.090   4.315  0.1928  0.0655  0.6319
  811MOL0     C11793  11.655   8.963   4.239  0.7147  0.1366  0.1578
  811MOL0     C11794  11.802   8.925   4.256  0.4508  0.2263  0.4282
  811MOL0     C11795  11.909   9.031   4.195  0.9127 -0.3381  0.2854
  811MOL0     C11796  11.908   9.066   4.045  0.6928  0.3518  0.6262
  811MOL0     N11797  12.012   9.161   4.015  0.1428 -0.6321  0.3716
  811MOL0     C11798  12.147   9.133   3.995  0.5703  0.5282 -0.7735
  811MOL0     C11799  12.203   9.249   3.987 -1.3665  0.1129  0.4091
  811MOL0     C11800  12.343   9.272   3.933  0.7367  0.1165  0.6795
  811MOL0     C11801  12.462   9.267   4.028 -0.9993 -0.9067 -0.3111
  811MOL0     C11802  12.469   9.148   4.116  0.7480  0.5722  0.5055
  811MOL0     C11803  12.585   9.155   4.216 -0.3551 -0.7658  0.5958
  811MOL0     O11804  12.705   9.196   4.143  0.4519  0.5134  0.1101
  811MOL0     C11805  12.830   9.193   4.203  0.3156  0.3623 -0.0775
  811MOL0     C11806  12.840   9.189   4.343 -0.9021 -0.1993 -0.1038
  811MOL0     C11807  12.962   9.197   4.409 -0.5047 -0.5561 -0.1146
  811MOL0     C11808  12.970   9.179   4.559 -0.1719  0.3635  0.2072
  811MOL0     C11809  13.079   9.215   4.330 -0.5841  0.7472  0.3141
  811MOL0     C11810  13.217   9.199   4.379  0.7146  0.1147 -0.3448
  811MOL0     O11811  13.318   9.242   4.299 -0.7179 -0.3727  0.1912
  811MOL0     C11812  13.452   9.240   4.335  0.5985  0.4389  0.1712
  811MOL0     C11813  13.519   9.169   4.436 -0.2995 -0.0533 -1.0697
  811MOL0     C11814  13.655   9.187   4.449  0.1996 -1.3041 -0.5515
  811MOL0     C11815  13.729   9.274   4.365  0.1549  0.6329 -0.6624
  811MOL0     O11816  13.865   9.295   4.398  0.1064  0.0578 -0.4021
  811MOL0     C11817  13.949   9.373   4.318  0.1871 -0.3218  0.4489
  811MOL0     C11818  14.090   9.388   4.386  0.2642  0.0329 -0.3816
  811MOL0     C11819  14.078   9.459   4.523  0.2213  0.0161  0.3332
  811MOL0     C11820  14.214   9.463   4.581 -0.2168  0.4431 -0.4929
  811MOL0     C11821  14.215   9.550   4.708 -1.0269 -0.2021  0.4200
  811MOL0     C11822  14.202   9.698   4.678  0.2485  1.0107  0.1467
  811MOL0     C11823  14.237   9.765   4.806 -0.7729  0.4716 -0.5150
  811MOL0     C11824  14.234   9.913   4.791  0.1594  0.2857  0.3047
  811MOL0    Cl11825  14.278   9.980   4.954  0.2110 -0.2092 -0.2925
  811MOL0     C11826  13.667   9.324   4.248  0.3685  0.2554 -0.6902
  811MOL0     C11827  13.525   9.317   4.245 -0.2131 -0.6984 -1.1105
  811MOL0     O11828  13.233   9.147   4.488 -0.4581  0.4799 -0.3599
  811MOL0     C11829  13.071   9.224   4.183 -0.8631 -0.4929 -0.2512
  811MOL0     C11830  12.944   9.215   4.124 -0.5900 -1.0497 -0.8089
  811MOL0     N11831  12.112   9.348   4.010  0.3744 -0.2122 -0.3526
  811MOL0     N11832  11.994   9.302   4.023 -0.6400  0.3338 -0.4226
  811MOL0     C11833  11.238   9.199   4.738  0.0237  0.7614  0.6027
  811MOL0     C11834  11.107   9.242   4.751 -0.4768  0.1908 -0.3923
  811MOL0     C11835  10.794   9.571   4.820 -0.6493  0.4167 -0.5031
  811MOL0     C11836  10.692   9.607   4.729 -0.3041  0.6246  0.2082
  811MOL0     C11837  10.586   9.687   4.772 -0.0039 -0.4659 -0.0000
  811MOL0     C11838  10.573   9.742   4.893 -0.7329  0.0359 -0.6183
  811MOL0     O11839  10.474   9.824   4.936 -0.3846  0.2107  1.0453
  811MOL0     C11840  10.431   9.920   4.839  0.2722 -0.5999 -0.9349
  811MOL0     C11841  10.339  10.013   4.910 -0.6647  0.4430  0.5733
  811MOL0     C11842  10.407  10.081   5.043 -0.2605  0.0918 -0.2407
  811MOL0     C11843  10.352  10.224   5.072 -0.3337 -0.9219  0.3933
  811MOL0     C11844  10.205  10.230   5.072  0.3445 -0.2124  0.1724
  811MOL0     C11845  10.087  10.228   5.074 -0.8867 -0.4628  1.1184
  811MOL0     C11846  10.671   9.708   4.982 -0.0130  0.6456  0.1171
  811MOL0     C11847  10.778   9.619   4.952 -0.0110 -0.4586 -0.5191
  811MOL0     C11848  10.876   9.576   5.056  0.0942 -0.1858  0.4822
  811MOL0     H11849  11.163   9.528   4.916 -1.7159 -0.4595  2.4557
  811MOL0     H11850  11.383   9.472   4.876 -1.4627  0.5470  0.1338
  811MOL0     H11851  11.464   9.048   4.709 -0.4043 -0.1385 -1.3607
  811MOL0     H11852  11.633   9.119   4.701  1.9096  2.0337  0.0537
  811MOL0     H11853  11.410   9.182   4.517  1.5585  0.1105 -1.5925
  811MOL0     H11854  11.563   9.259   4.506  1.8477 -0.8231 -1.1595
  811MOL0     H11855  11.653   9.001   4.503 -1.8684 -2.4474  2.2723
  811MOL0     H11856  11.494   8.968   4.446 -2.5209  2.6169 -4.0724
  811MOL0     H11857  11.523   9.131   4.264  0.5963 -0.6909 -0.7373
  811MOL0     H11858  11.687   9.167   4.326 -0.9588  1.0694  1.7850
  811MOL0     H11859  11.631   8.967   4.132 -1.4148  0.5596  0.5973
  811MOL0     H11860  11.587   8.884   4.272 -2.0344  1.6875 -1.3416
  811MOL0     H11861  11.824   8.915   4.363  2.2760 -1.1072 -0.0281
  811MOL0     H11862  11.824   8.834   4.201 -1.1758  0.8659 -1.3855
  811MOL0     H11863  12.012   9.005   4.220  0.4836 -1.1774  1.2547
  811MOL0     H11864  11.892   9.130   4.239  1.6501  0.1664 -0.5496
  811MOL0     H11865  11.920   8.977   3.982 -0.5821 -0.1060  1.0025
  811MOL0     H11866  11.812   9.113   4.023 -1.1189 -2.7948  1.1945
  811MOL0     H11867  12.198   9.040   3.972  1.3610  0.7698 -0.0590
  811MOL0     H11868  12.337   9.378   3.910 -1.0104 -0.1804 -0.3742
  811MOL0     H11869  12.365   9.216   3.842 -2.1496  2.7010 -1.8075
  811MOL0     H11870  12.549   9.279   3.962 -0.7252 -2.9543 -0.3706
  811MOL0     H11871  12.459   9.349   4.101 -0.6314 -1.0378 -0.1447
  811MOL0     H11872  12.373   9.141   4.167 -1.1875  0.0930 -2.9081
  811MOL0     H11873  12.485   9.062   4.050 -0.1449  0.7320  0.0592
  811MOL0     H11874  12.566   9.236   4.287 -0.2492 -0.9876  0.8782
  811MOL0     H11875  12.593   9.058   4.265 -1.2102 -0.6646  0.9380
  811MOL0     H11876  12.756   9.180   4.411 -0.3049 -2.1751  0.4453
  811MOL0     H11877  13.044   9.251   4.594  1.7441  0.2591 -3.1849
  811MOL0     H11878  12.998   9.081   4.599 -4.0177 -2.3170 -2.8199
  811MOL0     H11879  12.868   9.201   4.592 -1.1882 -0.6288 -2.0225
  811MOL0     H11880  13.461   9.108   4.504 -2.4131 -1.6833 -4.0635
  811MOL0     H11881  13.703   9.154   4.540  3.9771  2.1434 -0.9708
  811MOL0     H11882  13.957   9.342   4.214 -0.8443 -1.8300  0.7814
  811MOL0     H11883  13.908   9.474   4.330  2.3135  0.6730 -0.1391
  811MOL0     H11884  14.120   9.283   4.398 -4.4487 -1.4267  0.9967
  811MOL0     H11885  14.152   9.448   4.320 -3.0720  0.8773 -3.0225
  811MOL0     H11886  14.012   9.397   4.583  0.0293 -0.7375 -0.6233
  811MOL0     H11887  14.051   9.564   4.512 -0.1031 -0.1812 -0.9706
  811MOL0     H11888  14.292   9.498   4.514  0.1090 -0.2479 -0.4779
  811MOL0     H11889  14.234   9.356   4.596 -0.1069  0.5747  0.4009
  811MOL0     H11890  14.142   9.518   4.783 -0.4854  2.6842  2.3661
  811MOL0     H11891  14.309   9.530   4.761 -1.6325 -2.2377  0.7968
  811MOL0     H11892  14.102   9.728   4.646  2.0800  4.9450 -2.6794
  811MOL0     H11893  14.276   9.719   4.600 -0.6440 -0.2087 -1.0775
  811MOL0     H11894  14.343   9.745   4.822 -0.7430  0.1885 -1.0463
  811MOL0     H11895  14.171   9.742   4.891  1.1055  0.3068  0.9741
  811MOL0     H11896  14.129   9.930   4.767  0.8250  0.4940 -2.8300
  811MOL0     H11897  14.310   9.938   4.717 -0.0256  0.5798  0.2173
  811MOL0     H11898  13.728   9.372   4.172  0.9564 -1.3137 -1.2505
  811MOL0     H11899  13.472   9.368   4.165 -1.6923  0.7788  0.7295
  811MOL0     H11900  13.160   9.232   4.122  0.6910  0.8072  2.0598
  811MOL0     H11901  12.935   9.237   4.018  1.2021  0.0100 -0.7763
  811MOL0     H11902  11.256   9.101   4.695  0.0471  2.1559 -2.9469
  811MOL0     H11903  11.016   9.190   4.724 -0.8113  0.0447  0.9146
  811MOL0     H11904  10.691   9.571   4.627  2.9948  0.3291  0.1732
  811MOL0     H11905  10.511   9.709   4.697  1.9932  0.3259 -1.8799
  811MOL0     H11906  10.517   9.978   4.805 -1.1758  2.1935 -0.0596
  811MOL0     H11907  10.372   9.888   4.753 -0.4578 -3.0607  0.3870
  811MOL0     H11908  10.238   9.978   4.932 -0.5698  0.9372  1.9224
  811MOL0     H11909  10.337  10.083   4.826  1.1083 -0.3388 -0.1750
  811MOL0     H11910  10.377  10.008   5.119 -2.0952  0.1685 -0.8324
  811MOL0     H11911  10.515  10.066   5.041  0.0356  1.7689  1.2272
  811MOL0     H11912  10.389  10.288   4.992  2.4356 -1.3802  1.1808
  811MOL0     H11913  10.384  10.272   5.165  0.4973  1.9679 -1.2758
  811MOL0     H11914   9.981  10.216   5.066 -0.9687  1.4611 -2.3141
  811MOL0     H11915  10.690   9.739   5.084  0.7019  1.3498 -0.2187
  811MOL0     H11916  10.842   9.606   5.156 -0.6195 -0.4843  0.3411
  811MOL0     H11917  10.881   9.467   5.071 -0.6770 -0.6268 -2.0365
  811MOL0     H11918  10.971   9.622   5.030 -0.4239 -0.3731 -2.0008
  812MOL0     O11919   3.679   1.768   1.186 -0.2539 -0.2972 -0.0611
  812MOL0     C11920   3.778   1.713   1.142  0.7501  0.5757  0.0093
  812MOL0     O11921   3.870   1.653   1.220 -0.0141  0.6265  0.6333
  812MOL0     C11922   3.891   1.672   1.352 -0.6041  0.6000 -0.5687
  812MOL0     C11923   3.979   1.578   1.414 -0.3199  0.5972  0.0954
  812MOL0     C11924   4.011   1.583   1.550 -0.1417 -0.1161 -1.2413
  812MOL0     C11925   3.948   1.679   1.632 -0.1013 -0.2476 -0.8299
  812MOL0     O11926   3.956   1.662   1.768  0.5817  0.7826  0.3695
  812MOL0     C11927   3.976   1.780   1.846  0.1125 -0.2235 -0.9441
  812MOL0     C11928   4.065   1.896   1.786  0.9111 -0.2130  0.4843
  812MOL0     C11929   4.197   1.847   1.718  0.4499 -0.8267  0.1661
  812MOL0     C11930   4.305   1.791   1.813  0.2108 -0.3774  0.3632
  812MOL0     C11931   4.376   1.893   1.905  0.7645  0.2771 -0.3234
  812MOL0     C11932   4.479   1.970   1.831 -0.3271  0.2567 -0.1802
  812MOL0     C11933   4.571   2.059   1.919  0.2466  0.2516 -0.3637
  812MOL0     C11934   4.714   2.056   1.870  0.6392  0.0931  0.7758
  812MOL0     N11935   4.772   1.923   1.841 -0.4474  0.5242 -0.2480
  812MOL0     C11936   4.783   1.861   1.725 -0.0293 -0.3105 -0.6688
  812MOL0     C11937   4.841   1.747   1.750  0.4561  0.4145 -0.1566
  812MOL0     C11938   4.865   1.647   1.635 -0.1665 -0.2081 -0.4737
  812MOL0     C11939   5.009   1.612   1.595  0.5835 -0.2951 -0.9947
  812MOL0     C11940   5.031   1.484   1.512  0.7309 -0.1456  0.2740
  812MOL0     C11941   5.006   1.341   1.582 -0.3911  0.1972  0.1448
  812MOL0     O11942   4.997   1.228   1.493  0.7000  0.1376  0.7657
  812MOL0     C11943   5.106   1.201   1.412  0.2347  0.2602  0.3582
  812MOL0     C11944   5.237   1.233   1.447  0.1504 -1.2607 -0.8152
  812MOL0     C11945   5.348   1.207   1.364  0.6539 -0.5321 -0.3888
  812MOL0     C11946   5.486   1.222   1.431 -0.2546 -0.6527  0.8428
  812MOL0     C11947   5.319   1.180   1.231 -0.7450  0.2504  0.0694
  812MOL0     C11948   5.426   1.162   1.124  0.2407 -0.4484  0.5611
  812MOL0     O11949   5.543   1.243   1.139  0.6267  0.0430 -0.5056
  812MOL0     C11950   5.666   1.212   1.085  0.0932  0.1475 -0.5144
  812MOL0     C11951   5.745   1.321   1.046  0.8133  0.3517 -0.2367
  812MOL0     C11952   5.859   1.298   0.976  0.0363  0.7778 -0.3475
  812MOL0     C11953   5.913   1.170   0.959  0.3630 -0.4296  0.0183
  812MOL0     O11954   6.019   1.154   0.878  0.4431 -0.3537 -0.5450
  812MOL0     C11955   5.996   1.081   0.754  0.0842  0.2439 -0.6057
  812MOL0     C11956   6.109   0.974   0.745  0.0933 -0.3933  0.3330
  812MOL0     C11957   6.250   1.031   0.758 -0.5652  0.6404  0.3191
  812MOL0     C11958   6.353   0.923   0.732 -0.2344 -0.9392  0.0813
  812MOL0     C11959   6.485   0.966   0.787  0.4311 -0.6669  0.2034
  812MOL0     C11960   6.584   0.857   0.809 -0.6301  0.7185 -0.2919
  812MOL0     C11961   6.716   0.919   0.872  0.4976 -0.4778 -1.1442
  812MOL0     C11962   6.812   0.803   0.877  0.1825  0.7702 -0.3353
  812MOL0    Cl11963   6.874   0.723   0.718  0.5292 -0.9563 -0.3477
  812MOL0     C11964   5.834   1.061   0.994 -0.5243  0.1413 -0.5409
  812MOL0     C11965   5.717   1.085   1.071 -0.5297  0.6767 -0.7120
  812MOL0     O11966   5.403   1.088   1.029 -0.3268  0.2602 -0.5360
  812MOL0     C11967   5.188   1.145   1.190  0.1650  0.7174 -0.9174
  812MOL0     C11968   5.082   1.155   1.282 -0.4701  0.0534  0.2176
  812MOL0     N11969   4.868   1.736   1.888 -0.0744 -0.6434  0.8657
  812MOL0     N11970   4.812   1.844   1.940  0.8070 -0.1209 -0.3153
  812MOL0     C11971   3.852   1.764   1.584 -0.5243 -0.2207  0.6845
  812MOL0     C11972   3.833   1.774   1.446 -0.1420  0.1988 -0.6867
  812MOL0     C11973   3.807   1.722   0.998  0.2178  0.2871  1.0339
  812MOL0     C11974   3.708   1.791   0.919 -0.4088 -0.1670 -1.1121
  812MOL0     C11975   3.729   1.833   0.791  0.0297 -0.4985  0.0651
  812MOL0     C11976   3.846   1.802   0.724 -0.3878 -0.1274  0.3344
  812MOL0     O11977   3.878   1.848   0.600  0.0036  0.3431 -0.1961
  812MOL0     C11978   3.783   1.837   0.494  0.4036 -0.3199 -0.4121
  812MOL0     C11979   3.795   1.701   0.430  0.2245 -0.4519  0.8665
  812MOL0     C11980   3.927   1.682   0.365  0.2117 -0.6563 -0.0554
  812MOL0     C11981   3.937   1.543   0.305  0.7247 -1.4144 -1.0366
  812MOL0     C11982   4.078   1.500   0.306 -0.1396  0.0021 -0.6163
  812MOL0     C11983   4.202   1.482   0.311  0.3543 -0.1244 -0.4935
  812MOL0     C11984   3.948   1.731   0.792 -0.7905  0.2251  0.9130
  812MOL0     C11985   3.929   1.702   0.930  1.4404  0.9795 -0.4455
  812MOL0     C11986   4.042   1.656   1.002 -0.2612  0.7989  0.2291
  812MOL0     H11987   4.026   1.498   1.357 -0.1489  0.7490  0.0214
  812MOL0     H11988   4.077   1.511   1.598 -0.2150  0.6439  0.0420
  812MOL0     H11989   4.030   1.738   1.931 -1.7340 -1.6212 -0.4012
  812MOL0     H11990   3.879   1.822   1.873 -0.4271 -2.6428  1.2001
  812MOL0     H11991   3.996   1.941   1.714 -0.9939 -3.1135  0.3291
  812MOL0     H11992   4.083   1.965   1.869 -0.5575  3.5823 -2.1177
  812MOL0     H11993   4.175   1.780   1.634  0.2492  3.4419 -3.5876
  812MOL0     H11994   4.244   1.926   1.658 -2.4731 -0.2931 -1.6209
  812MOL0     H11995   4.265   1.710   1.874  1.7767 -0.6267  1.0936
  812MOL0     H11996   4.374   1.749   1.740 -0.1245 -3.6731  1.7713
  812MOL0     H11997   4.415   1.835   1.989 -0.3180 -0.5813 -0.3790
  812MOL0     H11998   4.304   1.973   1.927  3.7459  2.9176  0.4720
  812MOL0     H11999   4.537   1.897   1.775 -1.7811  0.3503 -1.8809
  812MOL0     H12000   4.431   2.021   1.747 -3.0996  0.5118  1.4407
  812MOL0     H12001   4.575   2.022   2.022 -0.3284  0.6099 -0.2075
  812MOL0     H12002   4.540   2.163   1.930  3.5765  1.2845  0.4704
  812MOL0     H12003   4.728   2.125   1.787  1.1020 -0.1620  0.6436
  812MOL0     H12004   4.768   2.109   1.949 -2.5163  2.0198  1.8491
  812MOL0     H12005   4.747   1.896   1.629 -0.8859  1.8282  0.3647
  812MOL0     H12006   4.826   1.679   1.538 -0.7303 -1.2168 -0.5938
  812MOL0     H12007   4.816   1.556   1.669 -1.3071  0.9653  1.2046
  812MOL0     H12008   5.053   1.690   1.532  1.7936 -1.9025 -2.2526
  812MOL0     H12009   5.078   1.605   1.680  5.3049  2.2232 -4.1304
  812MOL0     H12010   4.954   1.484   1.434  0.2849 -2.1043  0.6728
  812MOL0     H12011   5.126   1.495   1.460  2.0221 -2.2759  2.0335
  812MOL0     H12012   5.087   1.325   1.654 -0.4503 -0.3678  0.0900
  812MOL0     H12013   4.911   1.341   1.636  0.5547  1.4651  1.8871
  812MOL0     H12014   5.261   1.275   1.544  2.2432 -0.5673 -1.5859
  812MOL0     H12015   5.483   1.167   1.526  1.2006  0.1604  1.3871
  812MOL0     H12016   5.501   1.328   1.452 -4.9104  0.4312 -0.1374
  812MOL0     H12017   5.570   1.178   1.378 -0.2274  0.4812 -0.0877
  812MOL0     H12018   5.698   1.417   1.064  1.4719  0.5507  0.4683
  812MOL0     H12019   5.925   1.381   0.952  1.0493  0.4408  1.1570
  812MOL0     H12020   5.896   1.040   0.734  0.8617 -1.2453 -1.5593
  812MOL0     H12021   6.020   1.150   0.673  2.5428  1.0770  0.7326
  812MOL0     H12022   6.084   0.898   0.820  1.9164 -1.9971 -0.5956
  812MOL0     H12023   6.106   0.929   0.646  2.2895  1.6168 -0.7459
  812MOL0     H12024   6.257   1.062   0.862  1.1530  0.1463  0.3789
  812MOL0     H12025   6.263   1.109   0.682 -1.4487 -0.6414 -1.2219
  812MOL0     H12026   6.371   0.902   0.627  2.5523  1.1072  0.0412
  812MOL0     H12027   6.314   0.836   0.786  1.8419 -1.3574  1.0097
  812MOL0     H12028   6.531   1.045   0.726 -2.3090  0.1684 -0.9485
  812MOL0     H12029   6.452   1.014   0.880  0.0951  5.1586 -2.4424
  812MOL0     H12030   6.605   0.808   0.713  2.8665  2.8704 -0.8295
  812MOL0     H12031   6.537   0.789   0.879 -1.0477  0.9850 -0.3134
  812MOL0     H12032   6.703   0.947   0.977  0.9007 -3.5138 -0.1836
  812MOL0     H12033   6.760   1.002   0.817  0.9797 -0.5715 -0.9013
  812MOL0     H12034   6.777   0.721   0.941  0.3305 -0.5418 -1.8475
  812MOL0     H12035   6.899   0.836   0.934  0.5175 -1.6943  0.7234
  812MOL0     H12036   5.862   0.960   0.964 -1.0478  0.4783 -2.2814
  812MOL0     H12037   5.655   1.003   1.107 -0.6001  0.6663 -0.8549
  812MOL0     H12038   5.154   1.107   1.094 -0.1880 -2.5705  0.3807
  812MOL0     H12039   4.981   1.144   1.244 -1.2616  2.4247  1.4675
  812MOL0     H12040   3.787   1.825   1.646 -0.1603  0.0871  0.7674
  812MOL0     H12041   3.761   1.843   1.403 -1.8572 -1.4698 -0.6652
  812MOL0     H12042   3.610   1.819   0.956  0.2229  0.1223  0.4397
  812MOL0     H12043   3.653   1.890   0.738 -0.0156 -0.9506 -0.3583
  812MOL0     H12044   3.681   1.851   0.532  1.0304  0.1782  1.1599
  812MOL0     H12045   3.800   1.920   0.424  1.9730 -1.3367 -1.3002
  812MOL0     H12046   3.715   1.685   0.357  1.1821 -0.9256 -0.1079
  812MOL0     H12047   3.771   1.631   0.510 -1.1215 -0.2122  0.6957
  812MOL0     H12048   3.944   1.756   0.287 -0.4967  1.5689  1.8086
  812MOL0     H12049   4.007   1.697   0.438 -2.1900 -1.5188  2.9947
  812MOL0     H12050   3.883   1.548   0.210 -0.5486  2.7718 -0.2835
  812MOL0     H12051   3.878   1.472   0.364 -3.0322  1.1846 -1.2752
  812MOL0     H12052   4.305   1.453   0.318  0.7693  1.5964  1.9494
  812MOL0     H12053   4.046   1.705   0.754 -0.0020  0.5389  2.6582
  812MOL0     H12054   4.136   1.652   0.946  1.6626 -1.5265  3.3302
  812MOL0     H12055   4.071   1.709   1.093  1.2688  2.3108 -1.0739
  812MOL0     H12056   4.024   1.550   1.018 -1.6790  0.4124 -3.0499
  813MOL0     O12057   0.137   0.052   0.691 -0.1765  0.1478  0.2904
  813MOL0     C12058   0.252   0.097   0.669  0.1827  0.8205 -0.5318
  813MOL0     O12059   0.362   0.056   0.733 -0.5901  0.2860 -0.7989
  813MOL0     C12060   0.365  -0.016   0.850  0.7497  0.2714  0.3617
  813MOL0     C12061   0.275  -0.122   0.889  0.3540  0.0886 -0.5925
  813MOL0     C12062   0.308  -0.203   1.006  0.1503  0.0653  0.1784
  813MOL0     C12063   0.417  -0.171   1.091  0.0190 -0.2914 -0.8116
  813MOL0     O12064   0.441  -0.248   1.199 -0.2140 -0.4533 -0.5962
  813MOL0     C12065   0.479  -0.184   1.329  0.4410 -1.0787 -0.3884
  813MOL0     C12066   0.356  -0.117   1.386 -0.4395  0.1795  0.2901
  813MOL0     C12067   0.240  -0.201   1.390  0.7064 -0.3853  0.7636
  813MOL0     C12068   0.112  -0.115   1.399  0.1967 -0.6467  0.2884
  813MOL0     C12069  -0.014  -0.197   1.420  0.1797 -0.1835 -0.0928
  813MOL0     C12070  -0.125  -0.085   1.448  0.8552  0.5700 -0.2209
  813MOL0     C12071  -0.267  -0.140   1.423 -0.1825  0.5431 -0.2494
  813MOL0     C12072  -0.333  -0.195   1.555  0.5247 -1.3236 -0.2246
  813MOL0     N12073  -0.269  -0.314   1.629  0.4886  0.0773 -0.3818
  813MOL0     C12074  -0.171  -0.320   1.721 -0.1629  0.4400  0.0605
  813MOL0     C12075  -0.168  -0.450   1.768  0.0964  0.1249  0.4607
  813MOL0     C12076  -0.063  -0.496   1.859 -0.4932  0.5107 -0.3534
  813MOL0     C12077   0.047  -0.594   1.800  0.5019  0.8111  0.5502
  813MOL0     C12078   0.108  -0.520   1.677  0.3175 -0.0319  0.3880
  813MOL0     C12079   0.220  -0.598   1.611 -0.8653  0.0836  0.0084
  813MOL0     O12080   0.334  -0.623   1.700  0.0932  0.6838 -0.5801
  813MOL0     C12081   0.434  -0.720   1.668  0.2740 -0.2547  0.4096
  813MOL0     C12082   0.427  -0.816   1.562  0.2323 -1.0118 -0.4207
  813MOL0     C12083   0.539  -0.886   1.517  0.5553 -0.0432  1.1013
  813MOL0     C12084   0.526  -0.968   1.391 -0.1158 -0.3551  0.2027
  813MOL0     C12085   0.655  -0.880   1.592 -0.0678  0.4281  0.1666
  813MOL0     C12086   0.787  -0.945   1.553 -0.1736  0.6279 -0.5653
  813MOL0     O12087   0.889  -0.887   1.622 -0.4083  0.6803  0.3699
  813MOL0     C12088   1.014  -0.923   1.582  0.1714  0.3471  0.4912
  813MOL0     C12089   1.073  -1.036   1.647  0.1917  0.7023 -0.2181
  813MOL0     C12090   1.197  -1.074   1.609 -0.5944 -0.0694 -0.5588
  813MOL0     C12091   1.277  -1.009   1.514  0.6094  0.4000  0.2429
  813MOL0     O12092   1.405  -1.057   1.480 -0.8230  0.2751  0.1866
  813MOL0     C12093   1.503  -0.966   1.446  0.8421 -0.3040 -0.2213
  813MOL0     C12094   1.639  -1.018   1.467  0.0816 -0.0969 -1.0615
  813MOL0     C12095   1.672  -1.131   1.379  0.5310 -0.3386 -0.4957
  813MOL0     C12096   1.699  -1.107   1.227  0.2097 -0.4158 -0.7247
  813MOL0     C12097   1.775  -1.226   1.159  0.7314 -0.8042 -0.0139
  813MOL0     C12098   1.690  -1.354   1.155  0.8979 -0.4418 -0.9858
  813MOL0     C12099   1.765  -1.451   1.070 -0.1410 -0.3058  0.0519
  813MOL0     C12100   1.909  -1.477   1.123  0.2107 -0.6489  0.0473
  813MOL0    Cl12101   1.899  -1.520   1.293  0.3800  0.3874 -0.5359
  813MOL0     C12102   1.222  -0.889   1.457  0.4907 -0.6433  0.9063
  813MOL0     C12103   1.087  -0.853   1.485 -0.2400  0.2846  0.5318
  813MOL0     O12104   0.810  -1.030   1.462  0.1845  0.0384  0.6745
  813MOL0     C12105   0.652  -0.811   1.725  0.1428  0.3946  0.4945
  813MOL0     C12106   0.541  -0.724   1.749 -0.4245 -0.3983 -0.7191
  813MOL0     N12107  -0.268  -0.517   1.705 -0.2783 -0.0512  0.3940
  813MOL0     N12108  -0.331  -0.439   1.628  0.6061  0.1742  0.0927
  813MOL0     C12109   0.493  -0.064   1.052  0.4648  0.0907  0.6137
  813MOL0     C12110   0.471   0.004   0.931 -0.7814 -0.6232 -0.6429
  813MOL0     C12111   0.277   0.195   0.566 -0.6837  0.9993 -0.7424
  813MOL0     C12112   0.378   0.170   0.472 -0.5652 -0.8483 -0.2530
  813MOL0     C12113   0.410   0.270   0.374  0.9021  0.8920  0.3308
  813MOL0     C12114   0.338   0.396   0.377 -0.1969 -0.3877  0.0856
  813MOL0     O12115   0.367   0.509   0.305  0.2196  0.7009 -0.3499
  813MOL0     C12116   0.474   0.520   0.209  0.7092 -0.0669  0.7509
  813MOL0     C12117   0.594   0.547   0.285 -0.3188  0.0176 -1.5679
  813MOL0     C12118   0.715   0.549   0.195 -0.2799 -0.1435 -0.3681
  813MOL0     C12119   0.712   0.669   0.090  0.8579 -0.0109 -0.3221
  813MOL0     C12120   0.842   0.702   0.037  0.3393  1.0060 -0.0558
  813MOL0     C12121   0.952   0.716  -0.012 -0.2507 -0.2845 -0.6770
  813MOL0     C12122   0.231   0.408   0.457  0.4835  0.4194  0.6174
  813MOL0     C12123   0.198   0.313   0.551  0.0121  0.3822  0.0109
  813MOL0     C12124   0.081   0.335   0.641  0.5664 -0.1960  0.0058
  813MOL0     H12125   0.188  -0.149   0.829 -1.8135  2.2556  1.3959
  813MOL0     H12126   0.246  -0.288   1.033 -0.3184  0.3403 -0.0308
  813MOL0     H12127   0.551  -0.103   1.323 -1.4453  0.6378 -0.8418
  813MOL0     H12128   0.513  -0.263   1.397 -1.1490 -2.1309 -0.7477
  813MOL0     H12129   0.372  -0.090   1.491 -0.3193 -0.0690  0.3360
  813MOL0     H12130   0.348  -0.021   1.334 -0.4713  0.6167  1.0731
  813MOL0     H12131   0.226  -0.251   1.294 -1.2961  1.4552 -0.0055
  813MOL0     H12132   0.258  -0.279   1.464  0.4940 -0.0694  1.1474
  813MOL0     H12133   0.118  -0.041   1.479  0.9255 -0.7277  0.3087
  813MOL0     H12134   0.112  -0.065   1.302  1.9451 -0.1067  0.5334
  813MOL0     H12135  -0.005  -0.271   1.500  0.3254  1.1488  1.1539
  813MOL0     H12136  -0.020  -0.259   1.330 -0.8031 -0.6589  0.2876
  813MOL0     H12137  -0.114  -0.039   1.547 -2.2791  1.1569 -0.0285
  813MOL0     H12138  -0.108  -0.008   1.372  2.5270 -0.3403 -0.8176
  813MOL0     H12139  -0.268  -0.218   1.346 -0.8815 -1.2651  1.5092
  813MOL0     H12140  -0.331  -0.058   1.389  2.5901  3.6516  1.4379
  813MOL0     H12141  -0.349  -0.112   1.625 -4.4489 -2.5927  0.4966
  813MOL0     H12142  -0.433  -0.228   1.524 -0.2964 -0.8356  1.7846
  813MOL0     H12143  -0.100  -0.240   1.742 -0.0741  0.0471  1.3219
  813MOL0     H12144  -0.112  -0.553   1.939  1.9229 -1.1038  0.0763
  813MOL0     H12145  -0.004  -0.408   1.888  1.4259 -1.4229  2.0310
  813MOL0     H12146   0.128  -0.619   1.869  2.7458  0.7302 -1.9638
  813MOL0     H12147   0.004  -0.691   1.772 -0.0388  1.1741  0.1159
  813MOL0     H12148   0.033  -0.509   1.598  0.6916 -0.1028  0.0187
  813MOL0     H12149   0.147  -0.424   1.713  0.6861  0.3765 -1.0225
  813MOL0     H12150   0.172  -0.694   1.590 -2.8099  0.8654  0.6222
  813MOL0     H12151   0.247  -0.556   1.514 -0.6437 -0.2258 -0.0668
  813MOL0     H12152   0.338  -0.824   1.501 -0.7389  2.2414  0.3963
  813MOL0     H12153   0.594  -0.933   1.313 -2.1283 -1.2482 -2.0944
  813MOL0     H12154   0.427  -0.959   1.344 -0.3019 -0.1435  0.6376
  813MOL0     H12155   0.533  -1.075   1.414  1.7804 -0.4675 -0.6863
  813MOL0     H12156   1.034  -1.091   1.732 -0.2138  1.3709  0.0393
  813MOL0     H12157   1.232  -1.159   1.666 -0.2063 -1.1955 -2.4024
  813MOL0     H12158   1.488  -0.934   1.342 -3.9713  0.1856  0.3560
  813MOL0     H12159   1.489  -0.882   1.515 -0.9311 -0.8487  0.1358
  813MOL0     H12160   1.704  -0.932   1.451 -2.1759  1.4862 -2.2914
  813MOL0     H12161   1.644  -1.052   1.571  2.6939  1.4569 -0.5861
  813MOL0     H12162   1.598  -1.208   1.402  0.7858  0.1230  2.2787
  813MOL0     H12163   1.764  -1.176   1.420  1.6412  1.6462 -0.6987
  813MOL0     H12164   1.756  -1.015   1.209 -0.1646  0.0158  0.2212
  813MOL0     H12165   1.603  -1.092   1.178 -1.0988 -0.0299  1.7729
  813MOL0     H12166   1.810  -1.202   1.058 -1.1092  2.1951 -0.0488
  813MOL0     H12167   1.860  -1.239   1.227 -1.3918 -2.0501  2.5822
  813MOL0     H12168   1.590  -1.335   1.114 -1.2812  1.7857  4.4812
  813MOL0     H12169   1.675  -1.395   1.255 -0.4791 -0.0695 -1.0189
  813MOL0     H12170   1.785  -1.406   0.972 -0.0887 -1.7339 -0.6124
  813MOL0     H12171   1.711  -1.545   1.063  2.8795 -2.1027 -1.3376
  813MOL0     H12172   1.971  -1.388   1.117 -2.3032  1.1592 -0.5140
  813MOL0     H12173   1.963  -1.554   1.067 -2.9404 -1.9623 -1.4149
  813MOL0     H12174   1.275  -0.839   1.377  0.9119 -1.9976  0.3103
  813MOL0     H12175   1.052  -0.762   1.436 -2.7376 -0.1826  1.3446
  813MOL0     H12176   0.737  -0.823   1.790  1.1223 -0.1729 -0.8561
  813MOL0     H12177   0.529  -0.660   1.835 -3.1715  0.5469 -1.6765
  813MOL0     H12178   0.572  -0.031   1.118 -1.2061  2.6856  1.5008
  813MOL0     H12179   0.550   0.070   0.896  0.2046 -0.6246  1.4533
  813MOL0     H12180   0.432   0.075   0.474  3.0784  1.0544  1.3355
  813MOL0     H12181   0.480   0.254   0.292 -0.7953 -2.0297 -0.6821
  813MOL0     H12182   0.495   0.432   0.147  2.2389  0.2402  0.8148
  813MOL0     H12183   0.451   0.607   0.146 -0.6423 -0.3539  0.8010
  813MOL0     H12184   0.612   0.461   0.350  1.0434  0.3572 -1.4609
  813MOL0     H12185   0.583   0.642   0.340 -4.1797  0.1297 -2.2185
  813MOL0     H12186   0.803   0.564   0.259 -4.2909 -0.2041  6.0835
  813MOL0     H12187   0.718   0.455   0.140 -0.0183  0.2446 -1.0266
  813MOL0     H12188   0.679   0.761   0.140  3.3270  0.1054  1.3245
  813MOL0     H12189   0.652   0.655   0.000  2.7207  0.3731 -1.6868
  813MOL0     H12190   1.052   0.723  -0.049  0.7072  1.3313  1.9328
  813MOL0     H12191   0.170   0.497   0.452 -2.4837 -1.4901  0.1463
  813MOL0     H12192   0.000   0.265   0.622  0.1506 -0.7084  3.0899
  813MOL0     H12193   0.116   0.313   0.743  2.4738 -1.3384 -0.8367
  813MOL0     H12194   0.054   0.440   0.628 -0.2760 -0.3280  0.6142
  814MOL0     O12195   5.605   5.089   6.907  0.9030  0.6458  0.3932
  814MOL0     C12196   5.618   5.203   6.876 -0.9694  0.1076  0.3640
  814MOL0     O12197   5.689   5.304   6.952  0.3120  0.3702 -0.1518
  814MOL0     C12198   5.715   5.271   7.080  0.9608  0.1494  0.7116
  814MOL0     C12199   5.631   5.291   7.185  0.2158  0.2290 -0.0275
  814MOL0     C12200   5.673   5.261   7.319  0.2742 -0.4117  1.2584
  814MOL0     C12201   5.801   5.199   7.343  0.6976 -0.2032  0.5262
  814MOL0     O12202   5.859   5.177   7.469  0.1243  0.2392 -0.2928
  814MOL0     C12203   5.793   5.211   7.591 -0.0577 -0.0828  0.0037
  814MOL0     C12204   5.891   5.195   7.716 -0.3325 -0.7596  0.4451
  814MOL0     C12205   6.002   5.301   7.701 -0.4685 -1.0269 -0.5346
  814MOL0     C12206   6.147   5.234   7.705 -0.2107  0.3110  0.7755
  814MOL0     C12207   6.242   5.299   7.617  0.0821  1.0155  0.6036
  814MOL0     C12208   6.222   5.246   7.476  0.0129  0.4449  0.5257
  814MOL0     C12209   6.334   5.313   7.388  0.0568  0.0356  0.2625
  814MOL0     C12210   6.295   5.291   7.245  0.6214  0.1850  0.1805
  814MOL0     N12211   6.391   5.357   7.165 -0.9300  0.9628  0.0328
  814MOL0     C12212   6.517   5.295   7.133  0.6867 -0.3082 -0.4034
  814MOL0     C12213   6.590   5.394   7.087  0.4922 -0.5791  0.1605
  814MOL0     C12214   6.727   5.407   7.026 -0.5448  0.0193 -0.3088
  814MOL0     C12215   6.812   5.488   7.124 -0.0279 -0.9740 -0.1189
  814MOL0     C12216   6.954   5.472   7.085 -0.2082  0.9110 -0.0376
  814MOL0     C12217   7.040   5.522   7.201  0.2091  0.2253  0.1266
  814MOL0     O12218   7.166   5.517   7.155  0.4314 -0.4781  0.2083
  814MOL0     C12219   7.260   5.434   7.212  0.6525 -0.8084 -0.1606
  814MOL0     C12220   7.312   5.327   7.149 -0.4066 -0.1523 -0.9209
  814MOL0     C12221   7.413   5.247   7.211  0.9873  0.0298  0.1368
  814MOL0     C12222   7.482   5.128   7.145 -0.0038 -0.4035 -0.9960
  814MOL0     C12223   7.471   5.288   7.336  0.1045 -0.0647  0.4567
  814MOL0     C12224   7.562   5.204   7.417 -0.2784 -0.0483  0.0627
  814MOL0     O12225   7.658   5.273   7.484 -0.5575 -0.0892 -0.6087
  814MOL0     C12226   7.746   5.203   7.570 -0.7689  0.5232 -0.6762
  814MOL0     C12227   7.841   5.115   7.525  0.2974  0.6006  0.7841
  814MOL0     C12228   7.915   5.047   7.614  0.4647  0.0117  0.6157
  814MOL0     C12229   7.897   5.062   7.756 -0.0247  0.7157  0.3644
  814MOL0     O12230   7.956   4.990   7.866  0.0163 -0.6808 -0.0676
  814MOL0     C12231   8.042   4.886   7.840  0.4814 -0.0180  0.9708
  814MOL0     C12232   8.067   4.804   7.966 -0.3400 -0.3942  0.7270
  814MOL0     C12233   8.165   4.685   7.935 -0.8361  0.0309  0.3728
  814MOL0     C12234   8.313   4.721   7.953 -0.4288  0.6123 -0.0749
  814MOL0     C12235   8.408   4.602   7.960 -0.3376  0.1316  0.6750
  814MOL0     C12236   8.555   4.652   7.984  0.5984  0.8721  0.0957
  814MOL0     C12237   8.664   4.545   7.962  0.7814 -0.2398 -0.3802
  814MOL0     C12238   8.813   4.602   7.975  1.2520 -0.1275  0.3347
  814MOL0    Cl12239   8.833   4.678   8.137 -0.2574  0.2838  0.3345
  814MOL0     C12240   7.806   5.161   7.803 -0.6326 -0.5300  0.1327
  814MOL0     C12241   7.727   5.229   7.705 -0.1212  0.2212 -0.4262
  814MOL0     O12242   7.543   5.084   7.416 -0.5269  0.3760 -0.2310
  814MOL0     C12243   7.402   5.392   7.404 -0.8428  0.5348 -0.6778
  814MOL0     C12244   7.303   5.469   7.339 -0.0506  0.6174  0.0538
  814MOL0     N12245   6.515   5.510   7.092 -0.4275  0.0441 -0.5297
  814MOL0     N12246   6.392   5.487   7.140 -0.3201  0.0015  0.3709
  814MOL0     C12247   5.876   5.181   7.232  0.4654  1.2088 -0.7011
  814MOL0     C12248   5.839   5.217   7.101 -0.0062 -0.1199  0.8969
  814MOL0     C12249   5.592   5.249   6.734  0.0640  0.2487 -0.0966
  814MOL0     C12250   5.671   5.344   6.682  0.1586 -0.8411  0.1227
  814MOL0     C12251   5.658   5.395   6.552 -0.3097 -0.4659 -0.5493
  814MOL0     C12252   5.548   5.351   6.475 -0.2296  0.9517  0.7778
  814MOL0     O12253   5.542   5.415   6.352  0.4685  0.3541 -0.0131
  814MOL0     C12254   5.422   5.392   6.277  1.0219 -0.1023  0.6039
  814MOL0     C12255   5.431   5.445   6.130  0.1586 -0.0736 -0.5300
  814MOL0     C12256   5.540   5.384   6.036  0.6794  0.3190 -0.5634
  814MOL0     C12257   5.523   5.435   5.898  0.7033  0.1158 -0.1750
  814MOL0     C12258   5.606   5.357   5.796  0.8729  0.5258 -0.7019
  814MOL0     C12259   5.668   5.302   5.714  0.6804 -0.3294  1.0494
  814MOL0     C12260   5.467   5.253   6.524 -0.6924  0.1017 -0.0935
  814MOL0     C12261   5.491   5.197   6.647 -0.2259 -0.4259  0.2542
  814MOL0     C12262   5.398   5.084   6.687 -0.1131  0.3828  0.4016
  814MOL0     H12263   5.533   5.330   7.158  0.2577  1.0373  0.9262
  814MOL0     H12264   5.599   5.285   7.395 -0.1919 -0.1225  0.7248
  814MOL0     H12265   5.713   5.139   7.608 -0.5267  0.0840 -1.4097
  814MOL0     H12266   5.754   5.312   7.575 -1.3162 -0.8498 -2.0421
  814MOL0     H12267   5.836   5.210   7.809  2.3848 -0.2442  2.0857
  814MOL0     H12268   5.933   5.094   7.709  0.0487 -0.4656 -3.4001
  814MOL0     H12269   5.990   5.357   7.607 -0.2700  0.1982  0.1509
  814MOL0     H12270   6.001   5.379   7.777 -3.4433 -0.0686 -1.4267
  814MOL0     H12271   6.183   5.222   7.807  1.6093 -2.2993 -0.0757
  814MOL0     H12272   6.134   5.130   7.673 -1.4430  0.6372  0.1308
  814MOL0     H12273   6.342   5.274   7.651  0.3051 -0.6118 -1.0665
  814MOL0     H12274   6.242   5.408   7.626  1.4696  0.9711  1.4029
  814MOL0     H12275   6.240   5.139   7.463  2.5132  1.0738 -2.1616
  814MOL0     H12276   6.126   5.274   7.431  0.7184 -0.1631 -1.4599
  814MOL0     H12277   6.434   5.271   7.403  0.5711  0.6973 -1.1428
  814MOL0     H12278   6.351   5.419   7.408  0.4877 -0.0656  0.4544
  814MOL0     H12279   6.288   5.186   7.214 -0.9370  1.1142 -3.1302
  814MOL0     H12280   6.195   5.330   7.222 -0.3821 -3.6592 -3.3261
  814MOL0     H12281   6.542   5.189   7.134 -1.1871 -0.7876  0.5834
  814MOL0     H12282   6.706   5.451   6.928 -2.9667 -0.1409  0.0721
  814MOL0     H12283   6.776   5.310   7.015  0.0227  0.3773 -0.9670
  814MOL0     H12284   6.782   5.593   7.133 -0.7645 -1.1682 -0.2533
  814MOL0     H12285   6.789   5.453   7.226 -0.4563  1.1719  0.5840
  814MOL0     H12286   6.983   5.371   7.057  0.6665  0.6329  1.7393
  814MOL0     H12287   6.969   5.550   7.009 -0.6920  2.9186  1.8300
  814MOL0     H12288   7.010   5.624   7.228  1.7568  0.8948 -0.5582
  814MOL0     H12289   7.029   5.466   7.294 -0.8740 -1.1463 -0.7835
  814MOL0     H12290   7.263   5.297   7.057  1.2315 -1.1694 -1.5041
  814MOL0     H12291   7.447   5.032   7.184 -0.0585  0.0383  0.0527
  814MOL0     H12292   7.591   5.134   7.150  0.1804 -2.2177 -1.7666
  814MOL0     H12293   7.462   5.136   7.037 -0.2924  3.6636 -0.7873
  814MOL0     H12294   7.850   5.078   7.424 -0.7708 -1.1821  1.2850
  814MOL0     H12295   7.985   4.977   7.570 -0.5321  0.0681 -1.1075
  814MOL0     H12296   7.990   4.827   7.764 -0.4792  4.3900 -2.1655
  814MOL0     H12297   8.131   4.920   7.786 -1.4172  0.0200 -2.4457
  814MOL0     H12298   8.120   4.859   8.044  1.2380 -0.8117 -0.0119
  814MOL0     H12299   7.969   4.770   8.001 -0.9394 -0.2576 -0.7381
  814MOL0     H12300   8.156   4.662   7.829  2.1881 -0.5107  0.1669
  814MOL0     H12301   8.132   4.606   8.003  0.3969 -0.1667  0.7620
  814MOL0     H12302   8.327   4.782   8.042 -1.7481 -1.2631  1.5072
  814MOL0     H12303   8.342   4.789   7.873 -0.2198  0.0890 -0.4524
  814MOL0     H12304   8.372   4.527   8.031  0.2534 -0.6583  0.1573
  814MOL0     H12305   8.411   4.560   7.859 -0.1010  0.5460  0.5099
  814MOL0     H12306   8.566   4.690   8.086 -2.1042  0.3881  0.6433
  814MOL0     H12307   8.579   4.728   7.909  2.0971 -0.6820 -1.0613
  814MOL0     H12308   8.647   4.506   7.862  0.1208 -0.6184 -0.1235
  814MOL0     H12309   8.658   4.472   8.043 -1.5780  1.5480  1.1656
  814MOL0     H12310   8.834   4.679   7.899  0.6105 -0.4586 -0.1855
  814MOL0     H12311   8.888   4.524   7.958  2.6091  1.5875 -2.2019
  814MOL0     H12312   7.792   5.187   7.907  1.2582  3.8357 -0.5129
  814MOL0     H12313   7.649   5.293   7.744 -0.8409 -1.6320  1.3407
  814MOL0     H12314   7.435   5.424   7.502 -3.0254 -0.2818  0.3867
  814MOL0     H12315   7.272   5.552   7.402  2.3602  0.1681  2.0032
  814MOL0     H12316   5.966   5.122   7.245 -1.2014 -0.8751  2.9347
  814MOL0     H12317   5.912   5.203   7.022  2.3304  0.3567  2.8376
  814MOL0     H12318   5.745   5.393   6.744  2.6667 -0.1635 -3.1135
  814MOL0     H12319   5.727   5.471   6.518  0.6205 -1.2066 -0.3950
  814MOL0     H12320   5.403   5.285   6.274  0.4495  0.0107 -0.0295
  814MOL0     H12321   5.332   5.438   6.320 -1.0980 -2.0846 -1.4553
  814MOL0     H12322   5.427   5.555   6.128 -1.3963  0.0167  2.2626
  814MOL0     H12323   5.330   5.428   6.090 -1.1345 -0.3680  2.5726
  814MOL0     H12324   5.644   5.392   6.068  0.5810 -1.2856  0.2547
  814MOL0     H12325   5.526   5.276   6.034  3.1899 -0.1286  1.0434
  814MOL0     H12326   5.559   5.538   5.907 -0.0087  0.3250  0.3777
  814MOL0     H12327   5.420   5.436   5.861 -0.0532 -1.3108  1.7642
  814MOL0     H12328   5.713   5.272   5.622  0.1201  2.0471 -0.0824
  814MOL0     H12329   5.386   5.215   6.463  0.8250  2.1435 -3.6719
  814MOL0     H12330   5.324   5.057   6.611 -2.1438  0.4619  2.2580
  814MOL0     H12331   5.459   4.996   6.710 -1.9140 -0.6926  1.3144
  814MOL0     H12332   5.340   5.100   6.779  0.0404 -2.1795  1.0116
  815MOL0     O12333   3.521  11.200  11.013  0.1946  0.5966 -0.3925
  815MOL0     C12334   3.504  11.158  10.898 -0.3593 -0.8224  0.3766
  815MOL0     O12335   3.507  11.234  10.789  0.3694 -0.0914 -0.1293
  815MOL0     C12336   3.565  11.361  10.808 -0.5110 -0.4912  0.1775
  815MOL0     C12337   3.487  11.472  10.782 -0.3719  0.3750 -0.4222
  815MOL0     C12338   3.549  11.598  10.795 -0.7254  0.1687  0.0995
  815MOL0     C12339   3.683  11.613  10.832 -0.0081  1.3606  0.3959
  815MOL0     O12340   3.744  11.740  10.839 -0.4986  0.1296 -0.4880
  815MOL0     C12341   3.880  11.753  10.884  0.2406 -0.6053  1.0902
  815MOL0     C12342   3.898  11.908  10.881  0.4527 -0.1654  0.9922
  815MOL0     C12343   4.033  11.953  10.941  0.2778 -0.8108  0.0877
  815MOL0     C12344   4.044  12.099  10.900  0.4520 -0.4520 -0.0527
  815MOL0     C12345   4.160  12.179  10.968  0.5247  0.5814 -0.0846
  815MOL0     C12346   4.290  12.110  10.924 -0.2452  0.5090 -0.0895
  815MOL0     C12347   4.413  12.199  10.955  0.2147 -0.9650 -0.3448
  815MOL0     C12348   4.538  12.171  10.861 -0.1533  0.0729  0.4283
  815MOL0     N12349   4.639  12.269  10.864 -0.2408  0.2419 -0.3613
  815MOL0     C12350   4.672  12.367  10.778 -0.4338  0.3383  0.0850
  815MOL0     C12351   4.756  12.449  10.842  0.2973 -0.4855 -0.2485
  815MOL0     C12352   4.784  12.585  10.793 -0.1834  0.1194 -0.4173
  815MOL0     C12353   4.927  12.597  10.762  0.0085  0.6021  0.1172
  815MOL0     C12354   5.019  12.624  10.881 -0.4836 -0.8048 -0.9823
  815MOL0     C12355   5.148  12.662  10.816 -0.2628 -0.4572  0.7993
  815MOL0     O12356   5.141  12.802  10.781 -0.3870 -0.2715 -0.4810
  815MOL0     C12357   5.254  12.841  10.713  0.3741  0.1324  0.2790
  815MOL0     C12358   5.371  12.883  10.773  0.3347  0.1896 -0.6983
  815MOL0     C12359   5.484  12.927  10.702  0.6631 -0.5498 -0.4476
  815MOL0     C12360   5.599  12.977  10.788 -0.4044  0.2817  0.1569
  815MOL0     C12361   5.489  12.913  10.559  0.6958 -0.0749 -0.3287
  815MOL0     C12362   5.614  12.927  10.473  0.3901 -0.3877 -0.7729
  815MOL0     O12363   5.597  12.893  10.340  0.7764  0.6371  0.5035
  815MOL0     C12364   5.702  12.904  10.247 -0.5292 -0.2437  0.1287
  815MOL0     C12365   5.722  12.800  10.164  0.3427  0.2264  0.1070
  815MOL0     C12366   5.823  12.801  10.063  0.0649  0.1080  0.7091
  815MOL0     C12367   5.886  12.921  10.041 -0.1930  0.8656  0.3532
  815MOL0     O12368   5.983  12.948   9.945  0.5345  0.2889  0.0871
  815MOL0     C12369   6.080  12.843   9.918  0.4016  0.0824  0.6885
  815MOL0     C12370   6.200  12.914   9.871 -0.1167 -0.2429 -0.0053
  815MOL0     C12371   6.184  13.014   9.756 -0.5525  0.5336 -0.3066
  815MOL0     C12372   6.321  13.062   9.701 -0.2936  0.8591 -1.0038
  815MOL0     C12373   6.291  13.184   9.607 -0.4984 -0.0803 -0.2383
  815MOL0     C12374   6.406  13.251   9.537 -0.0280  0.6575  0.3240
  815MOL0     C12375   6.483  13.173   9.443 -0.5366  0.3016 -0.6388
  815MOL0     C12376   6.624  13.232   9.421 -0.3727  0.6645 -0.1367
  815MOL0    Cl12377   6.733  13.215   9.559  0.3204 -0.0055  0.1249
  815MOL0     C12378   5.848  13.033  10.117 -0.1647  0.1607  0.2692
  815MOL0     C12379   5.761  13.027  10.222  0.2810  0.1756  0.6676
  815MOL0     O12380   5.716  12.977  10.520 -0.4972  0.6385  0.3633
  815MOL0     C12381   5.370  12.871  10.499  0.0819  0.0589  0.6401
  815MOL0     C12382   5.255  12.838  10.575  0.5568  0.0268  0.3243
  815MOL0     N12383   4.781  12.397  10.970  0.6652  0.1423 -0.2012
  815MOL0     N12384   4.717  12.286  10.981  0.0804  0.0612  0.6029
  815MOL0     C12385   3.759  11.491  10.855  0.0944 -0.3206  0.8105
  815MOL0     C12386   3.699  11.368  10.840  0.2419 -0.2952  0.8489
  815MOL0     C12387   3.483  11.018  10.873  0.1028 -0.2649 -0.1509
  815MOL0     C12388   3.360  10.966  10.822  0.1609 -0.2274 -0.0140
  815MOL0     C12389   3.336  10.829  10.792 -0.8012  0.5225 -0.5521
  815MOL0     C12390   3.444  10.731  10.816  0.3182 -1.3431  0.2697
  815MOL0     O12391   3.438  10.593  10.806  0.5962  0.2982  0.4632
  815MOL0     C12392   3.319  10.531  10.758 -0.1891  1.1179 -0.1864
  815MOL0     C12393   3.339  10.375  10.745 -0.6510  0.0190  0.2411
  815MOL0     C12394   3.476  10.333  10.681 -0.6832 -0.2309 -0.2066
  815MOL0     C12395   3.522  10.196  10.732 -0.6223  0.0181 -0.6824
  815MOL0     C12396   3.418  10.088  10.733 -0.2919 -0.2246 -0.8393
  815MOL0     C12397   3.336   9.998  10.726 -0.1034 -0.2025  1.0017
  815MOL0     C12398   3.562  10.788  10.872  0.1751 -0.5289 -0.3215
  815MOL0     C12399   3.586  10.927  10.890 -0.4118 -0.0938  0.7053
  815MOL0     C12400   3.726  10.969  10.923  0.0527 -0.4137 -0.4781
  815MOL0     H12401   3.380  11.456  10.769 -0.1599 -1.3055 -0.3307
  815MOL0     H12402   3.493  11.688  10.772  0.2955  1.3128  1.8467
  815MOL0     H12403   3.948  11.704  10.814 -0.2513  0.4655 -0.1944
  815MOL0     H12404   3.896  11.719  10.986 -2.1298  0.1185  1.7723
  815MOL0     H12405   3.901  11.941  10.777  3.9882 -0.1439  0.9750
  815MOL0     H12406   3.817  11.963  10.930  1.2154  3.1586 -1.1224
  815MOL0     H12407   4.020  11.948  11.050 -1.7508 -0.8666 -0.1208
  815MOL0     H12408   4.116  11.897  10.899 -0.6301 -0.0756 -2.9579
  815MOL0     H12409   4.055  12.106  10.792  0.3920 -0.3638 -0.0532
  815MOL0     H12410   3.948  12.148  10.921  0.1284 -0.6297 -1.0579
  815MOL0     H12411   4.158  12.171  11.077 -0.9978  0.6980 -0.0902
  815MOL0     H12412   4.149  12.287  10.953 -0.4379  0.5496  0.3377
  815MOL0     H12413   4.311  12.013  10.969 -0.3539 -0.9958 -3.0325
  815MOL0     H12414   4.283  12.108  10.815  0.1137  0.9776 -0.1233
  815MOL0     H12415   4.452  12.187  11.056  1.6565 -1.8423 -0.9714
  815MOL0     H12416   4.382  12.303  10.944 -3.3631 -1.6138  1.9461
  815MOL0     H12417   4.585  12.079  10.896 -1.4206 -0.9934 -0.5657
  815MOL0     H12418   4.501  12.160  10.759  1.2932  0.8994 -0.2305
  815MOL0     H12419   4.637  12.384  10.677  0.0787  3.8479  0.3414
  815MOL0     H12420   4.763  12.652  10.876  0.2791  0.4400 -0.5510
  815MOL0     H12421   4.725  12.604  10.703  1.5878  0.6566 -1.5334
  815MOL0     H12422   4.963  12.507  10.711 -3.2236  0.4681 -2.1854
  815MOL0     H12423   4.943  12.678  10.690  2.3389  0.5780  0.5104
  815MOL0     H12424   4.985  12.705  10.946 -0.7595  0.6648 -2.8369
  815MOL0     H12425   5.038  12.535  10.941 -3.1558 -0.2889  0.8297
  815MOL0     H12426   5.224  12.657  10.895  0.8555  0.3848 -0.1786
  815MOL0     H12427   5.174  12.610  10.724  0.6225  3.8344 -1.6645
  815MOL0     H12428   5.365  12.875  10.881 -0.2700  2.1182 -0.5536
  815MOL0     H12429   5.576  12.956  10.893  0.4611 -1.3577  0.0473
  815MOL0     H12430   5.604  13.083  10.761  0.9326 -0.2930 -2.0386
  815MOL0     H12431   5.694  12.926  10.769 -0.7060  0.3637 -1.7183
  815MOL0     H12432   5.673  12.704  10.171  0.3435  0.3520  2.4198
  815MOL0     H12433   5.870  12.715  10.016  2.7329  0.8309  1.8820
  815MOL0     H12434   6.095  12.778  10.004  1.8925  1.0173  1.1706
  815MOL0     H12435   6.059  12.770   9.840 -1.3348 -0.9971  2.0949
  815MOL0     H12436   6.249  12.963   9.956 -1.4093 -0.9992  1.2160
  815MOL0     H12437   6.262  12.834   9.830 -0.1602  0.3919 -1.3526
  815MOL0     H12438   6.121  13.099   9.787  0.8565  1.6305 -0.3355
  815MOL0     H12439   6.134  12.965   9.672  0.8038  0.1151 -0.8868
  815MOL0     H12440   6.376  12.981   9.652 -0.9772 -0.2543  0.0104
  815MOL0     H12441   6.387  13.094   9.782 -0.6769  1.0329 -0.7589
  815MOL0     H12442   6.217  13.158   9.531 -0.2232  0.8165 -0.8257
  815MOL0     H12443   6.248  13.268   9.663 -1.3714 -1.3542  1.0899
  815MOL0     H12444   6.470  13.289   9.617  1.3118 -2.9198  1.1539
  815MOL0     H12445   6.364  13.339   9.488 -0.1290 -1.1307 -3.1193
  815MOL0     H12446   6.426  13.188   9.351 -0.8445  2.7321 -0.1314
  815MOL0     H12447   6.479  13.067   9.470  0.2958  0.2318 -0.7623
  815MOL0     H12448   6.605  13.337   9.398  1.4166  1.4971  1.8304
  815MOL0     H12449   6.660  13.180   9.331  2.7416  4.0951 -1.1104
  815MOL0     H12450   5.901  13.127  10.105 -2.7705  1.4870 -2.1002
  815MOL0     H12451   5.740  13.110  10.288 -1.6574 -0.3597  0.7887
  815MOL0     H12452   5.353  12.882  10.392 -1.2558  0.1302  0.8370
  815MOL0     H12453   5.157  12.823  10.530  0.8771  2.7410 -1.5064
  815MOL0     H12454   3.865  11.505  10.869  0.0597  0.4043  0.4120
  815MOL0     H12455   3.745  11.270  10.845 -4.1683 -2.5252  3.2392
  815MOL0     H12456   3.273  11.019  10.784  0.2326  0.6677  1.0093
  815MOL0     H12457   3.239  10.794  10.758 -0.6409 -1.5201  0.9202
  815MOL0     H12458   3.222  10.558  10.799 -0.7140  0.2767 -0.8467
  815MOL0     H12459   3.316  10.560  10.653  3.9457  2.2471 -0.1795
  815MOL0     H12460   3.255  10.325  10.696 -1.5305  1.0427  0.6734
  815MOL0     H12461   3.336  10.349  10.851 -2.7547 -0.7118  0.0551
  815MOL0     H12462   3.465  10.322  10.572  0.9198 -1.9742 -0.2632
  815MOL0     H12463   3.551  10.407  10.709 -0.9663  1.0134 -2.5472
  815MOL0     H12464   3.546  10.203  10.838 -3.6422 -0.8821  0.1570
  815MOL0     H12465   3.597  10.158  10.662  0.0880 -0.5923  0.3824
  815MOL0     H12466   3.254   9.929  10.730  0.4891 -1.1495 -1.3972
  815MOL0     H12467   3.635  10.713  10.901  0.6556  0.5114  1.3443
  815MOL0     H12468   3.763  11.039  10.847  0.0105  1.7904  1.3952
  815MOL0     H12469   3.730  11.031  11.014  1.3836 -0.2250 -0.6384
  815MOL0     H12470   3.791  10.881  10.927 -1.4236 -1.4921  2.9240
  816MOL0     O12471  10.212   0.443   2.232  0.1484  0.5903 -0.3940
  816MOL0     C12472  10.203   0.443   2.114  1.2961  0.1068 -0.4838
  816MOL0     O12473  10.301   0.419   2.026 -0.3748 -0.6071  0.1245
  816MOL0     C12474  10.430   0.402   2.075  0.8287  0.4801  0.2978
  816MOL0     C12475  10.523   0.484   2.027 -0.0807  1.1408  0.0933
  816MOL0     C12476  10.657   0.470   2.059 -0.5591 -0.1349 -0.1566
  816MOL0     C12477  10.693   0.359   2.136 -0.7323 -0.0634  0.5323
  816MOL0     O12478  10.825   0.356   2.180 -0.0896 -0.7514  0.6087
  816MOL0     C12479  10.872   0.233   2.230 -0.9982  0.2159 -0.9106
  816MOL0     C12480  11.024   0.248   2.266  0.8146 -0.6304  0.4855
  816MOL0     C12481  11.131   0.257   2.156  0.2235 -0.2505 -0.5355
  816MOL0     C12482  11.276   0.274   2.211  0.2376  0.2443 -0.1337
  816MOL0     C12483  11.381   0.311   2.092 -0.7574 -0.0096 -0.5872
  816MOL0     C12484  11.387   0.201   1.981 -0.1934 -0.1245 -0.6275
  816MOL0     C12485  11.475   0.244   1.863 -0.3199 -0.4580  0.4463
  816MOL0     C12486  11.513   0.141   1.747 -0.5798  0.9051  0.1964
  816MOL0     N12487  11.577   0.024   1.800  0.2879  0.4093 -0.4606
  816MOL0     C12488  11.696   0.023   1.871  0.8119  0.9357 -1.0166
  816MOL0     C12489  11.719  -0.112   1.891  0.6355  0.6759  0.8623
  816MOL0     C12490  11.855  -0.162   1.939  0.2839  0.2003  0.6083
  816MOL0     C12491  11.975  -0.148   1.845 -0.0025  0.0331 -0.5350
  816MOL0     C12492  11.947  -0.225   1.714  0.5929  0.2654  0.2508
  816MOL0     C12493  11.952  -0.378   1.739  0.7472 -1.0820 -0.3209
  816MOL0     O12494  12.069  -0.426   1.805 -0.3127 -0.2572 -0.2712
  816MOL0     C12495  12.184  -0.444   1.727  0.4322  0.1728 -0.6668
  816MOL0     C12496  12.204  -0.410   1.588  0.5797  0.7098 -0.4132
  816MOL0     C12497  12.320  -0.431   1.522 -0.1725  0.4152 -1.1720
  816MOL0     C12498  12.342  -0.392   1.376 -0.1146  0.7013 -1.7654
  816MOL0     C12499  12.424  -0.501   1.589 -0.0556 -0.8552 -0.1143
  816MOL0     C12500  12.552  -0.543   1.535 -0.5076 -0.3017  0.9502
  816MOL0     O12501  12.632  -0.615   1.616  0.9124 -0.3852 -0.4008
  816MOL0     C12502  12.772  -0.609   1.613  0.6303 -0.2084  0.0821
  816MOL0     C12503  12.826  -0.686   1.713 -0.3075 -0.0263 -0.0001
  816MOL0     C12504  12.963  -0.708   1.725 -0.2945  0.9196  0.6841
  816MOL0     C12505  13.054  -0.644   1.642  0.2123 -0.1099  0.9220
  816MOL0     O12506  13.187  -0.670   1.645  0.4099  0.7469 -0.3709
  816MOL0     C12507  13.276  -0.631   1.540  0.9062 -0.1553  0.0147
  816MOL0     C12508  13.415  -0.675   1.586  0.6434  0.3077 -0.4262
  816MOL0     C12509  13.512  -0.665   1.469 -0.0855  1.3801  0.1179
  816MOL0     C12510  13.650  -0.707   1.527  0.2134  0.3431 -0.1493
  816MOL0     C12511  13.748  -0.677   1.415  0.0462  0.0754  0.4965
  816MOL0     C12512  13.889  -0.714   1.452 -0.0996 -0.0530  0.0327
  816MOL0     C12513  13.978  -0.660   1.347  0.0602 -0.3142 -0.1252
  816MOL0     C12514  14.125  -0.657   1.404  0.0140  0.4199  0.2580
  816MOL0    Cl12515  14.230  -0.682   1.263  0.0898  0.2632  0.5770
  816MOL0     C12516  12.996  -0.563   1.545  1.4836 -0.0866 -0.4204
  816MOL0     C12517  12.856  -0.544   1.532 -0.5017 -0.2075  0.3830
  816MOL0     O12518  12.580  -0.526   1.410  0.5982 -0.2909 -0.0776
  816MOL0     C12519  12.414  -0.523   1.729 -0.0218 -0.9209 -0.5601
  816MOL0     C12520  12.297  -0.486   1.798  0.0016 -0.7666 -0.1220
  816MOL0     N12521  11.613  -0.184   1.860  0.7819  0.3315 -0.0205
  816MOL0     N12522  11.525  -0.101   1.798  0.3844  0.5733 -0.2454
  816MOL0     C12523  10.600   0.261   2.170  0.1955 -0.0026 -0.3390
  816MOL0     C12524  10.471   0.290   2.139  0.4014 -0.2823 -0.5169
  816MOL0     C12525  10.063   0.404   2.064 -0.2765  0.3799  0.3769
  816MOL0     C12526  10.056   0.325   1.947  0.7508  1.3264 -0.1019
  816MOL0     C12527   9.935   0.274   1.907 -0.1056  0.0927 -0.3552
  816MOL0     C12528   9.814   0.292   1.974 -0.2490 -0.8219 -0.6532
  816MOL0     O12529   9.699   0.223   1.947 -0.0253  0.2337 -0.5208
  816MOL0     C12530   9.684   0.106   2.026 -0.4533 -0.3050  0.8796
  816MOL0     C12531   9.576   0.018   1.962 -0.0902  1.0969  0.3555
  816MOL0     C12532   9.505  -0.075   2.060  0.1928  0.2912 -0.0985
  816MOL0     C12533   9.393  -0.165   2.003 -0.1334 -0.6883 -0.1241
  816MOL0     C12534   9.299  -0.081   1.931 -0.3324  0.5205 -0.3581
  816MOL0     C12535   9.222  -0.007   1.883 -0.9254 -1.4088  0.8561
  816MOL0     C12536   9.820   0.389   2.082  0.0198  1.0369 -0.0525
  816MOL0     C12537   9.941   0.446   2.126  0.4546  0.0983  0.6997
  816MOL0     C12538   9.931   0.535   2.246 -0.1444 -0.7058 -1.2980
  816MOL0     H12539  10.496   0.559   1.953 -0.0912  0.5362 -0.5258
  816MOL0     H12540  10.740   0.526   2.016  0.9645 -2.5484 -0.5657
  816MOL0     H12541  10.875   0.149   2.160 -0.9425  0.5207 -1.2777
  816MOL0     H12542  10.818   0.194   2.317 -1.6122  0.2179 -1.2806
  816MOL0     H12543  11.039   0.337   2.328  2.2441 -0.7536  0.3532
  816MOL0     H12544  11.051   0.169   2.336 -0.9568 -0.0405  1.9096
  816MOL0     H12545  11.134   0.160   2.105  2.5375 -0.1491 -0.7055
  816MOL0     H12546  11.111   0.345   2.095  0.5111 -0.5203 -1.0268
  816MOL0     H12547  11.284   0.361   2.277  3.0598  0.9730 -1.3109
  816MOL0     H12548  11.308   0.183   2.262 -1.9762 -0.2539  0.4783
  816MOL0     H12549  11.484   0.323   2.127  0.4577 -1.1248 -3.4772
  816MOL0     H12550  11.350   0.406   2.049  2.3988  0.4435 -2.1924
  816MOL0     H12551  11.423   0.104   2.017 -1.4186  0.2742  1.8422
  816MOL0     H12552  11.286   0.180   1.945 -1.3155  1.2310  1.5046
  816MOL0     H12553  11.563   0.299   1.895 -0.3844 -0.4075  0.5384
  816MOL0     H12554  11.415   0.326   1.822 -0.5533 -1.0846 -0.4911
  816MOL0     H12555  11.424   0.112   1.689 -0.8967 -0.9757  1.5129
  816MOL0     H12556  11.575   0.191   1.672  1.5657  0.3038  1.4832
  816MOL0     H12557  11.771   0.100   1.881  2.9419 -0.5836 -3.8122
  816MOL0     H12558  11.844  -0.261   1.985 -1.0521  0.6421  1.2974
  816MOL0     H12559  11.876  -0.097   2.025 -2.3585  1.7594  0.1796
  816MOL0     H12560  11.990  -0.041   1.828 -2.3470  0.3827 -0.7359
  816MOL0     H12561  12.074  -0.176   1.882 -0.3208 -0.6471 -0.1744
  816MOL0     H12562  11.847  -0.203   1.675  0.8990  1.4630  0.1004
  816MOL0     H12563  12.025  -0.193   1.645 -0.6308  2.3287 -0.2667
  816MOL0     H12564  11.868  -0.396   1.806 -0.7247  1.8800 -1.1709
  816MOL0     H12565  11.934  -0.428   1.644 -1.0318  0.2736 -0.7652
  816MOL0     H12566  12.125  -0.368   1.526  2.0666  0.6806 -2.4504
  816MOL0     H12567  12.246  -0.352   1.340 -1.3439 -1.7839 -1.4998
  816MOL0     H12568  12.369  -0.473   1.308  1.8406 -0.4456  0.2640
  816MOL0     H12569  12.421  -0.317   1.372 -0.0061  0.7941  0.9142
  816MOL0     H12570  12.756  -0.727   1.785 -0.6343  1.0490  0.3104
  816MOL0     H12571  13.011  -0.780   1.791 -0.3156  0.6688  0.4300
  816MOL0     H12572  13.243  -0.680   1.447 -2.2324  1.7949 -0.0600
  816MOL0     H12573  13.265  -0.523   1.525 -3.5531 -0.6774 -2.0520
  816MOL0     H12574  13.459  -0.618   1.669  2.6840 -2.5862  0.6422
  816MOL0     H12575  13.415  -0.782   1.609  4.1049  0.0052 -1.2819
  816MOL0     H12576  13.518  -0.561   1.436 -2.5913  1.5987  0.2007
  816MOL0     H12577  13.476  -0.727   1.386 -1.4134  0.0676  1.6243
  816MOL0     H12578  13.652  -0.813   1.553 -3.2789  0.2246  0.1137
  816MOL0     H12579  13.659  -0.653   1.622  0.1864  0.4151 -0.1874
  816MOL0     H12580  13.716  -0.742   1.333 -2.8648 -1.7660  2.8763
  816MOL0     H12581  13.731  -0.575   1.380  0.0098 -0.6244 -1.6562
  816MOL0     H12582  13.899  -0.822   1.468  0.2697 -0.2394 -1.3340
  816MOL0     H12583  13.906  -0.664   1.548  0.6861  2.7182 -1.4467
  816MOL0     H12584  13.944  -0.557   1.333  0.4632  0.0620  1.4428
  816MOL0     H12585  13.974  -0.714   1.253  3.4141  0.0680 -0.6278
  816MOL0     H12586  14.141  -0.732   1.482 -3.0806  1.8233  2.4595
  816MOL0     H12587  14.152  -0.559   1.444  2.7697  0.3905 -1.3049
  816MOL0     H12588  13.057  -0.518   1.468  0.2582  1.6531 -0.4443
  816MOL0     H12589  12.824  -0.503   1.436  1.7992  0.3547 -0.2134
  816MOL0     H12590  12.497  -0.559   1.789  1.3925 -2.1826 -3.0896
  816MOL0     H12591  12.275  -0.493   1.904 -3.6820  3.7335 -0.2573
  816MOL0     H12592  10.621   0.173   2.229 -3.8147 -0.9371  0.0093
  816MOL0     H12593  10.397   0.219   2.174  0.5334 -0.9759 -1.6085
  816MOL0     H12594  10.145   0.300   1.891  0.6901  4.1990 -1.6925
  816MOL0     H12595   9.923   0.211   1.819 -0.7139 -0.2402 -0.0340
  816MOL0     H12596   9.775   0.046   2.031 -0.6657 -0.6028  1.2181
  816MOL0     H12597   9.654   0.142   2.125  0.2192  2.1099  0.2696
  816MOL0     H12598   9.631  -0.046   1.893  1.7212  1.0553  1.7574
  816MOL0     H12599   9.514   0.077   1.894  0.6338 -0.4224 -1.7342
  816MOL0     H12600   9.575  -0.143   2.110 -2.1993 -0.3393  2.6026
  816MOL0     H12601   9.463  -0.028   2.149  0.5271  2.8210 -1.1930
  816MOL0     H12602   9.346  -0.211   2.091  0.1866  0.8784  0.9154
  816MOL0     H12603   9.433  -0.250   1.949  2.3870  0.0903  0.3574
  816MOL0     H12604   9.155   0.051   1.824  0.9742 -0.1933 -0.1759
  816MOL0     H12605   9.733   0.416   2.142 -1.1008  0.9841 -1.5987
  816MOL0     H12606   9.993   0.624   2.229  0.2395 -0.0095  2.7190
  816MOL0     H12607   9.830   0.567   2.274  0.0692 -1.2276  0.1280
  816MOL0     H12608   9.974   0.485   2.333  1.1746  3.2114  0.5338
  817MOL0     O12609   9.725   0.669   1.438 -0.1718 -0.8907  0.2497
  817MOL0     C12610   9.619   0.721   1.404  0.0346 -0.0122  0.0852
  817MOL0     O12611   9.602   0.786   1.285 -0.6737  0.0106  0.0877
  817MOL0     C12612   9.697   0.784   1.184  0.3952  0.7791 -0.3051
  817MOL0     C12613   9.665   0.736   1.059 -0.5135  0.5366 -0.6727
  817MOL0     C12614   9.748   0.767   0.951  0.2039  0.2654 -0.8118
  817MOL0     C12615   9.859   0.849   0.956  0.0359  0.0557  0.5412
  817MOL0     O12616   9.934   0.874   0.846  0.2244 -0.2890 -0.7383
  817MOL0     C12617  10.036   0.774   0.825  0.0210 -0.2561 -0.4984
  817MOL0     C12618  10.166   0.820   0.890 -0.2610 -0.3280 -0.1819
  817MOL0     C12619  10.267   0.711   0.881  0.3711  0.2472 -0.5028
  817MOL0     C12620  10.410   0.756   0.882 -0.0043  0.4583 -0.9491
  817MOL0     C12621  10.507   0.643   0.846 -0.0801 -0.6699 -0.7882
  817MOL0     C12622  10.653   0.670   0.885  0.4578 -0.1374 -0.6027
  817MOL0     C12623  10.740   0.553   0.882  0.5037  0.8430 -0.6701
  817MOL0     C12624  10.786   0.501   0.737  0.4899  0.8160  0.5585
  817MOL0     N12625  10.878   0.388   0.742  0.1898  0.5562 -0.3123
  817MOL0     C12626  10.995   0.390   0.807 -0.6055 -0.3185  0.2359
  817MOL0     C12627  11.043   0.263   0.795 -0.8282  0.1457 -0.0081
  817MOL0     C12628  11.175   0.220   0.855 -0.9092  0.4125  0.0519
  817MOL0     C12629  11.184   0.067   0.890 -0.0342 -0.0029  0.1979
  817MOL0     C12630  11.310   0.052   0.971 -0.3841 -0.0043 -0.5734
  817MOL0     C12631  11.314  -0.090   1.014 -0.1893 -0.5839 -0.1672
  817MOL0     O12632  11.308  -0.187   0.910  0.5387  0.4035  0.3608
  817MOL0     C12633  11.363  -0.308   0.925  0.1069 -1.0654 -0.1193
  817MOL0     C12634  11.381  -0.367   1.050  0.1851  0.2515 -0.2057
  817MOL0     C12635  11.429  -0.503   1.050 -0.1960 -0.2184 -0.9784
  817MOL0     C12636  11.468  -0.553   1.187  0.9133 -0.2055  0.6588
  817MOL0     C12637  11.460  -0.583   0.934  0.1900  0.1592  0.1666
  817MOL0     C12638  11.503  -0.722   0.943 -0.0490  0.0586  0.4381
  817MOL0     O12639  11.590  -0.764   0.853  0.0083 -0.0012 -0.1455
  817MOL0     C12640  11.631  -0.898   0.858  0.6065  0.0217  0.3944
  817MOL0     C12641  11.658  -0.973   0.976 -0.1819 -0.1858  0.4784
  817MOL0     C12642  11.709  -1.105   0.970  0.6588  0.2723  0.3334
  817MOL0     C12643  11.746  -1.163   0.845 -0.7565  0.4209  0.2353
  817MOL0     O12644  11.794  -1.292   0.850  0.2655 -0.0460  0.0403
  817MOL0     C12645  11.792  -1.376   0.733 -0.0413 -0.7344  0.3775
  817MOL0     C12646  11.930  -1.339   0.657  1.4354  0.1196 -0.3884
  817MOL0     C12647  11.946  -1.372   0.514  1.0635  0.2992 -0.1250
  817MOL0     C12648  11.922  -1.524   0.474 -0.3898  0.6147  0.3963
  817MOL0     C12649  12.027  -1.612   0.544 -1.0590  0.4139 -0.4526
  817MOL0     C12650  12.012  -1.747   0.477  0.1783 -0.1451  0.5401
  817MOL0     C12651  12.072  -1.850   0.568  0.1102  0.3015  0.2238
  817MOL0     C12652  12.038  -1.989   0.511  0.2764  0.1368 -0.4069
  817MOL0    Cl12653  12.125  -2.040   0.361 -0.4902 -0.0962  0.5376
  817MOL0     C12654  11.712  -1.090   0.729 -0.3721  0.5274 -0.1000
  817MOL0     C12655  11.657  -0.963   0.739 -0.1978 -0.2498 -0.3718
  817MOL0     O12656  11.433  -0.793   1.018  0.2448 -0.0670  0.2240
  817MOL0     C12657  11.443  -0.515   0.817 -0.0633 -0.2506  0.7534
  817MOL0     C12658  11.399  -0.379   0.813  0.0746 -0.1049 -0.3072
  817MOL0     N12659  10.950   0.180   0.734  0.3212  0.7465  0.7909
  817MOL0     N12660  10.855   0.259   0.696 -0.7542 -0.4129 -0.2603
  817MOL0     C12661   9.887   0.906   1.080 -0.0599 -0.7140 -0.2009
  817MOL0     C12662   9.808   0.874   1.191  0.8329  0.1910  0.2214
  817MOL0     C12663   9.504   0.727   1.496  0.1134  0.9542 -0.2512
  817MOL0     C12664   9.510   0.821   1.598  0.4881  0.0219  0.1249
  817MOL0     C12665   9.402   0.826   1.697 -0.1381 -0.3408  0.1884
  817MOL0     C12666   9.294   0.738   1.695 -0.4981  0.0374 -0.7654
  817MOL0     O12667   9.197   0.753   1.794  0.0055 -0.4299  0.5621
  817MOL0     C12668   9.062   0.718   1.746 -0.4429  0.3542 -0.8405
  817MOL0     C12669   9.041   0.571   1.793 -0.0922 -0.8511 -0.7842
  817MOL0     C12670   8.920   0.509   1.729 -0.0932  0.2526  0.3013
  817MOL0     C12671   8.828   0.420   1.828 -0.1100  0.5404 -0.4278
  817MOL0     C12672   8.704   0.365   1.755 -0.2822  0.6695 -0.5705
  817MOL0     C12673   8.595   0.361   1.689  0.2049 -0.3185 -0.5009
  817MOL0     C12674   9.294   0.645   1.594 -0.7353 -0.8194 -0.3662
  817MOL0     C12675   9.388   0.645   1.491 -0.8965  0.5998  0.6006
  817MOL0     C12676   9.361   0.548   1.377 -0.0871  0.0667 -0.4828
  817MOL0     H12677   9.590   0.658   1.055  0.0189 -0.0910  0.8372
  817MOL0     H12678   9.731   0.688   0.879 -2.9980  1.0496 -1.0638
  817MOL0     H12679  10.056   0.762   0.718  0.6360 -0.2716 -0.3840
  817MOL0     H12680   9.993   0.682   0.865 -1.1939  0.3988 -0.2155
  817MOL0     H12681  10.201   0.907   0.833 -2.7325  0.0606 -1.2518
  817MOL0     H12682  10.150   0.852   0.993  1.7570  2.0837 -0.5162
  817MOL0     H12683  10.265   0.634   0.959  4.7392 -0.7983 -1.1475
  817MOL0     H12684  10.262   0.664   0.782 -0.3892  1.1657 -0.9151
  817MOL0     H12685  10.430   0.844   0.820 -0.4259  1.3284  0.1069
  817MOL0     H12686  10.436   0.781   0.986  2.0188 -1.3937 -0.9544
  817MOL0     H12687  10.502   0.620   0.739 -0.8411 -0.0766 -0.8901
  817MOL0     H12688  10.471   0.551   0.892 -1.1567  0.2182  0.2281
  817MOL0     H12689  10.689   0.752   0.821  1.3439 -1.0458 -1.2916
  817MOL0     H12690  10.663   0.701   0.989  0.7860 -2.4910  0.1120
  817MOL0     H12691  10.694   0.470   0.937  1.5047  0.6410 -0.1131
  817MOL0     H12692  10.831   0.574   0.940  0.3453  1.3415 -0.6000
  817MOL0     H12693  10.703   0.474   0.672  2.0181  0.4815 -1.3244
  817MOL0     H12694  10.836   0.583   0.684  3.4661 -1.6085 -0.6696
  817MOL0     H12695  11.039   0.474   0.861 -1.8515  0.8429 -0.4846
  817MOL0     H12696  11.169   0.262   0.956 -1.9942 -0.0681  0.2051
  817MOL0     H12697  11.268   0.259   0.813 -0.5070  0.2658  0.7896
  817MOL0     H12698  11.099   0.051   0.957  0.5543 -2.2602  0.4564
  817MOL0     H12699  11.173   0.009   0.798 -1.1135  0.3100  0.1212
  817MOL0     H12700  11.397   0.085   0.914  1.9032 -0.6461  2.3264
  817MOL0     H12701  11.304   0.102   1.068  0.4969 -1.0897  0.0558
  817MOL0     H12702  11.409  -0.102   1.068 -0.7238 -1.5400  0.5711
  817MOL0     H12703  11.239  -0.110   1.091  0.0383  2.4745  0.9923
  817MOL0     H12704  11.366  -0.322   1.148  1.7438 -3.4821  1.9569
  817MOL0     H12705  11.503  -0.474   1.254  0.8225 -2.3390  3.3900
  817MOL0     H12706  11.554  -0.619   1.175 -0.6375 -1.9448 -1.9053
  817MOL0     H12707  11.380  -0.603   1.230 -0.4398  2.0774  0.7121
  817MOL0     H12708  11.644  -0.927   1.074 -1.8686 -0.9932  0.6417
  817MOL0     H12709  11.728  -1.159   1.062  2.8102 -1.1053 -0.8225
  817MOL0     H12710  11.784  -1.482   0.758 -0.0176 -0.9369 -0.4468
  817MOL0     H12711  11.702  -1.353   0.676  0.9620 -0.6736 -1.2461
  817MOL0     H12712  11.940  -1.231   0.668 -0.6941  0.2247  1.2855
  817MOL0     H12713  12.012  -1.385   0.714  0.0791 -1.3959  0.4593
  817MOL0     H12714  12.048  -1.343   0.488  1.4273 -1.6753 -1.0908
  817MOL0     H12715  11.861  -1.314   0.476 -2.5906 -2.7486  2.6063
  817MOL0     H12716  11.939  -1.523   0.366 -0.7314  2.8018  0.3163
  817MOL0     H12717  11.821  -1.562   0.496  0.4726 -0.7330  2.3410
  817MOL0     H12718  12.127  -1.570   0.534  0.4600 -3.1417 -1.5080
  817MOL0     H12719  12.008  -1.607   0.652  0.0497  0.6395 -0.2593
  817MOL0     H12720  12.047  -1.755   0.374 -1.1285  0.0107  0.0665
  817MOL0     H12721  11.902  -1.754   0.476 -0.3856  5.0134  0.5128
  817MOL0     H12722  12.012  -1.835   0.659 -2.8949 -1.2532 -1.3597
  817MOL0     H12723  12.181  -1.841   0.580  0.9969 -1.6886 -4.3113
  817MOL0     H12724  11.932  -2.002   0.485 -0.1283  2.1128  0.0978
  817MOL0     H12725  12.067  -2.064   0.585 -0.0632  1.0546  0.6916
  817MOL0     H12726  11.740  -1.120   0.629  3.8057  0.8752  0.7910
  817MOL0     H12727  11.632  -0.905   0.650  0.8340  4.5500  2.1378
  817MOL0     H12728  11.468  -0.557   0.720 -2.0082 -0.2970  0.2398
  817MOL0     H12729  11.391  -0.329   0.717 -0.4826  0.7933  0.1840
  817MOL0     H12730   9.969   0.974   1.102  0.9142 -2.3695  1.6414
  817MOL0     H12731   9.837   0.919   1.286  1.6664 -2.9010  1.5540
  817MOL0     H12732   9.600   0.881   1.610  0.5265 -0.2181  1.0975
  817MOL0     H12733   9.413   0.886   1.787 -1.9494 -1.6320  1.3375
  817MOL0     H12734   8.986   0.781   1.793 -1.7995 -0.2861 -2.0868
  817MOL0     H12735   9.052   0.727   1.637  0.0861  0.6062 -0.8741
  817MOL0     H12736   9.032   0.570   1.902  2.9416 -0.5566 -0.4193
  817MOL0     H12737   9.129   0.512   1.766 -2.1832 -4.4556 -0.2408
  817MOL0     H12738   8.850   0.586   1.696  0.8520  2.0614  2.2581
  817MOL0     H12739   8.946   0.449   1.641  0.3095 -0.1373  0.6755
  817MOL0     H12740   8.784   0.482   1.906 -0.6466  1.3026 -1.3163
  817MOL0     H12741   8.889   0.346   1.880  0.1384 -0.3012 -1.8341
  817MOL0     H12742   8.497   0.358   1.647 -1.6508  0.7797  3.2989
  817MOL0     H12743   9.208   0.579   1.584 -1.0928 -0.0426 -3.1894
  817MOL0     H12744   9.304   0.462   1.413 -1.4796  1.4365  0.7195
  817MOL0     H12745   9.297   0.596   1.302  1.1051 -0.2674 -1.7645
  817MOL0     H12746   9.449   0.512   1.323 -0.2855 -0.1517 -0.6625
  818MOL0     O12747   1.297   4.343   7.736 -0.8605 -0.0598 -0.0997
  818MOL0     C12748   1.332   4.389   7.847  0.1467  0.2452  0.3541
  818MOL0     O12749   1.449   4.349   7.909  0.6369 -0.2294  0.2398
  818MOL0     C12750   1.522   4.232   7.880 -0.4174 -0.6009  1.1400
  818MOL0     C12751   1.463   4.107   7.861  0.5790  0.3199  0.5119
  818MOL0     C12752   1.542   3.995   7.826  0.3000 -0.9249  0.0676
  818MOL0     C12753   1.674   4.005   7.814 -0.8015 -0.4196  0.0200
  818MOL0     O12754   1.752   3.898   7.784  0.3533  0.1503 -0.6755
  818MOL0     C12755   1.886   3.906   7.741  0.2821 -0.7708  0.6145
  818MOL0     C12756   1.972   3.821   7.828 -0.1095  0.1594  0.2677
  818MOL0     C12757   2.122   3.854   7.803 -0.3277  0.1270 -0.2309
  818MOL0     C12758   2.210   3.751   7.865 -0.0339  0.9992 -0.1300
  818MOL0     C12759   2.353   3.754   7.815  0.0184 -0.2209  0.5673
  818MOL0     C12760   2.435   3.657   7.904 -0.3046 -0.5149 -0.3807
  818MOL0     C12761   2.579   3.638   7.848  0.2419 -0.7409 -0.4992
  818MOL0     C12762   2.664   3.545   7.947  0.1078  0.5179 -0.4235
  818MOL0     N12763   2.736   3.616   8.053  0.3390  0.0869 -0.3371
  818MOL0     C12764   2.680   3.678   8.167 -0.8914  0.1116  0.5717
  818MOL0     C12765   2.786   3.687   8.255  0.0563 -0.3840 -0.5051
  818MOL0     C12766   2.772   3.747   8.398  0.5835 -0.1685  0.2318
  818MOL0     C12767   2.626   3.755   8.456  0.0517 -0.5635 -0.8781
  818MOL0     C12768   2.625   3.818   8.599 -0.5162 -0.0016  0.1369
  818MOL0     C12769   2.690   3.721   8.702 -0.4091 -0.1174 -0.0465
  818MOL0     O12770   2.632   3.589   8.696  0.4031  0.0195 -0.4997
  818MOL0     C12771   2.697   3.481   8.759 -0.5322 -0.5299  0.2108
  818MOL0     C12772   2.629   3.368   8.800 -0.0013 -0.0337  0.5568
  818MOL0     C12773   2.687   3.250   8.848  0.4968  0.5783 -0.2853
  818MOL0     C12774   2.585   3.138   8.869  0.5225 -0.1200  1.0619
  818MOL0     C12775   2.820   3.246   8.893  0.5913 -0.4859 -0.3785
  818MOL0     C12776   2.890   3.131   8.953 -0.0939  0.4120  0.8483
  818MOL0     O12777   2.848   3.002   8.929  0.2342 -0.4859  0.0112
  818MOL0     C12778   2.887   2.907   9.017 -0.1567  0.0224  0.0477
  818MOL0     C12779   3.021   2.879   9.039  0.5160 -0.1948  0.9546
  818MOL0     C12780   3.059   2.793   9.142  0.2584  0.0009 -1.1760
  818MOL0     C12781   2.957   2.734   9.219  0.0484 -0.3767  0.2506
  818MOL0     O12782   2.985   2.624   9.296  0.1879 -0.3987 -0.4446
  818MOL0     C12783   3.111   2.621   9.368  0.7886  0.4856 -0.3488
  818MOL0     C12784   3.221   2.521   9.333  0.3511 -0.1188  0.5302
  818MOL0     C12785   3.357   2.589   9.362 -0.1565 -0.4055 -0.4906
  818MOL0     C12786   3.463   2.505   9.317 -0.3733  0.6103  0.8817
  818MOL0     C12787   3.590   2.570   9.351 -0.9769 -0.0980  0.4659
  818MOL0     C12788   3.706   2.467   9.300 -0.4698 -0.0503 -0.0215
  818MOL0     C12789   3.844   2.521   9.342  0.1955 -0.1791  0.7112
  818MOL0     C12790   3.968   2.441   9.294  0.1180  0.6136  0.1024
  818MOL0    Cl12791   4.108   2.511   9.373 -0.2697 -0.8153  0.1698
  818MOL0     C12792   2.822   2.758   9.193  0.2343 -0.2165 -0.4930
  818MOL0     C12793   2.783   2.853   9.094 -0.1181  0.1321 -0.0129
  818MOL0     O12794   2.968   3.165   9.042  0.6376  0.7124 -0.4439
  818MOL0     C12795   2.896   3.358   8.859 -0.9242  0.2087 -0.0443
  818MOL0     C12796   2.832   3.465   8.791  0.3479 -0.0475 -0.9967
  818MOL0     N12797   2.900   3.645   8.194 -0.0958  0.1129  0.1850
  818MOL0     N12798   2.872   3.599   8.080  0.2106  0.4981 -0.1233
  818MOL0     C12799   1.733   4.132   7.849 -0.1013 -0.4768 -0.2922
  818MOL0     C12800   1.659   4.244   7.885 -0.6864  0.3334 -0.0881
  818MOL0     C12801   1.256   4.504   7.901 -0.1418  0.4985  0.3135
  818MOL0     C12802   1.277   4.549   8.031 -0.2020 -0.5171 -0.5819
  818MOL0     C12803   1.214   4.658   8.088  0.0627  0.5695 -0.1092
  818MOL0     C12804   1.118   4.722   8.021  1.0380 -0.5207 -0.1225
  818MOL0     O12805   1.062   4.838   8.069  0.9356  0.4366  0.3017
  818MOL0     C12806   0.925   4.867   8.041  0.4403 -0.4267  0.3564
  818MOL0     C12807   0.829   4.813   8.150  0.2142 -0.3262  0.6741
  818MOL0     C12808   0.847   4.878   8.288 -0.0641  0.6941  0.0370
  818MOL0     C12809   0.824   5.031   8.276  0.3239  0.5344 -0.5037
  818MOL0     C12810   0.691   5.070   8.226 -1.0155  0.8223  0.1270
  818MOL0     C12811   0.590   5.102   8.165  0.5780  1.0520  0.1858
  818MOL0     C12812   1.095   4.679   7.891 -0.2008 -0.4357  0.2561
  818MOL0     C12813   1.153   4.571   7.830 -0.2042 -0.3596  0.1392
  818MOL0     C12814   1.114   4.547   7.689 -0.6839 -0.1271 -0.3084
  818MOL0     H12815   1.355   4.094   7.860  0.9152 -3.5965  0.0383
  818MOL0     H12816   1.520   3.894   7.795 -0.1979  0.1467 -3.4754
  818MOL0     H12817   1.928   4.007   7.744 -0.1670 -0.4355 -2.1090
  818MOL0     H12818   1.879   3.880   7.635 -1.0625 -0.6531  0.6524
  818MOL0     H12819   1.946   3.852   7.930  0.1731  1.9701 -0.1736
  818MOL0     H12820   1.954   3.714   7.816 -1.5580  0.0053  3.0848
  818MOL0     H12821   2.129   3.833   7.696  0.3521  1.4972 -0.4756
  818MOL0     H12822   2.145   3.960   7.820  1.2238 -0.3753  0.9862
  818MOL0     H12823   2.214   3.766   7.973 -0.2414  3.6040 -0.4275
  818MOL0     H12824   2.170   3.653   7.835  1.3470  0.5382 -0.5357
  818MOL0     H12825   2.399   3.852   7.829  0.0551  0.6339 -3.9651
  818MOL0     H12826   2.374   3.724   7.712  3.7642 -0.1301  1.1717
  818MOL0     H12827   2.446   3.691   8.007  1.7582  0.4045 -0.8477
  818MOL0     H12828   2.394   3.556   7.905  1.1105 -1.0936  0.4645
  818MOL0     H12829   2.624   3.738   7.838 -1.8170  0.1937 -0.9302
  818MOL0     H12830   2.572   3.595   7.748 -5.1947  1.1573 -1.2465
  818MOL0     H12831   2.599   3.470   7.993 -1.5944  1.6003 -0.9914
  818MOL0     H12832   2.745   3.495   7.893 -0.3663  0.4956 -1.1207
  818MOL0     H12833   2.576   3.685   8.198 -1.6876 -1.8197 -1.3692
  818MOL0     H12834   2.825   3.842   8.410  0.2879  0.4041 -2.4959
  818MOL0     H12835   2.826   3.681   8.467  0.7656 -0.8338 -0.5279
  818MOL0     H12836   2.557   3.812   8.393  0.0070 -0.1116 -0.4271
  818MOL0     H12837   2.585   3.654   8.458  0.9973 -1.0395 -3.0932
  818MOL0     H12838   2.667   3.918   8.612  1.0184 -0.8322  2.1271
  818MOL0     H12839   2.519   3.824   8.626 -0.8388  0.0421 -1.0667
  818MOL0     H12840   2.798   3.734   8.691 -0.6168  2.5739  0.3410
  818MOL0     H12841   2.667   3.768   8.799  0.3291 -0.1634  0.1595
  818MOL0     H12842   2.524   3.362   8.773 -0.6145  2.0054  2.1903
  818MOL0     H12843   2.623   3.066   8.943  0.5803 -0.9999  0.2033
  818MOL0     H12844   2.570   3.080   8.778  2.1841  1.1888 -0.0996
  818MOL0     H12845   2.489   3.181   8.897 -0.6440 -0.8291 -1.6043
  818MOL0     H12846   3.098   2.923   8.977  0.7448 -2.6631 -0.6615
  818MOL0     H12847   3.163   2.764   9.148  0.3510  0.6227  1.3009
  818MOL0     H12848   3.150   2.723   9.358  0.2822  1.0444  2.5386
  818MOL0     H12849   3.088   2.607   9.474  1.2339 -0.7444 -0.3994
  818MOL0     H12850   3.196   2.427   9.384  0.1432 -1.1227 -1.3365
  818MOL0     H12851   3.203   2.503   9.227  2.1511 -1.9690  0.4557
  818MOL0     H12852   3.369   2.608   9.469  2.1628  3.2299 -1.1965
  818MOL0     H12853   3.361   2.695   9.333 -0.5972 -0.1966  0.1888
  818MOL0     H12854   3.452   2.480   9.211 -1.1017 -0.4083  1.1736
  818MOL0     H12855   3.457   2.405   9.362 -1.3639  0.3093  0.1435
  818MOL0     H12856   3.594   2.660   9.289 -0.7552 -0.0750  0.5134
  818MOL0     H12857   3.598   2.584   9.459  2.0355  1.5568  0.1461
  818MOL0     H12858   3.698   2.458   9.191  2.7141 -0.9011 -0.2855
  818MOL0     H12859   3.692   2.370   9.348  2.1863 -1.1276 -1.2190
  818MOL0     H12860   3.848   2.517   9.451  1.3406  0.0738  0.6896
  818MOL0     H12861   3.849   2.628   9.320 -0.4247 -0.5573 -1.4662
  818MOL0     H12862   3.970   2.446   9.185  0.6856  0.8850  0.1191
  818MOL0     H12863   3.960   2.335   9.317 -1.5114  0.4122 -1.2233
  818MOL0     H12864   2.742   2.706   9.245 -1.6515  0.8995 -2.1050
  818MOL0     H12865   2.680   2.876   9.068 -0.1601  0.8674  0.7706
  818MOL0     H12866   3.003   3.364   8.879 -0.7692  2.6989 -1.2580
  818MOL0     H12867   2.893   3.550   8.762  0.0910  0.8576  0.9472
  818MOL0     H12868   1.839   4.145   7.868  0.1268 -0.9301 -1.1747
  818MOL0     H12869   1.707   4.336   7.918  1.7794 -0.5168 -1.0627
  818MOL0     H12870   1.337   4.498   8.106 -1.3413  2.4296  2.6063
  818MOL0     H12871   1.232   4.677   8.194  0.1507  2.1843 -0.3950
  818MOL0     H12872   0.919   4.975   8.027 -0.6764 -0.2633  1.8814
  818MOL0     H12873   0.873   4.825   7.954  1.6774 -1.0578 -0.1042
  818MOL0     H12874   0.853   4.706   8.158  2.0798  0.1555  2.3778
  818MOL0     H12875   0.727   4.818   8.109 -0.6860  0.4159  2.8858
  818MOL0     H12876   0.776   4.830   8.357 -1.7192  4.1384  0.9361
  818MOL0     H12877   0.944   4.847   8.329 -0.0198 -2.1916 -1.9829
  818MOL0     H12878   0.892   5.070   8.200  0.6520 -0.8053 -0.9307
  818MOL0     H12879   0.840   5.078   8.373 -1.8205 -0.1150  0.2131
  818MOL0     H12880   0.501   5.116   8.106 -0.3133 -0.9682  0.9765
  818MOL0     H12881   1.018   4.733   7.836  1.5566  1.9865 -0.0014
  818MOL0     H12882   1.073   4.446   7.678  0.5545 -0.5431 -1.3130
  818MOL0     H12883   1.031   4.611   7.658  1.6758  2.7947 -1.0855
  818MOL0     H12884   1.203   4.560   7.626  0.0981  2.9784  1.2177
  819MOL0     O12885   9.141   1.694   9.972  0.5857  0.4159 -0.5531
  819MOL0     C12886   9.185   1.806   9.999  0.1717  0.5685 -0.0968
  819MOL0     O12887   9.107   1.917  10.029 -0.4913  0.7463 -0.0457
  819MOL0     C12888   8.977   1.909  10.065  1.0555 -0.6223 -0.5988
  819MOL0     C12889   8.935   1.960  10.194 -0.5273  0.6628 -0.6931
  819MOL0     C12890   8.802   1.951  10.230  0.0506 -0.5061  0.6570
  819MOL0     C12891   8.706   1.914  10.139  0.0042  0.3579  1.2539
  819MOL0     O12892   8.575   1.923  10.176  0.1672  0.4686 -0.4754
  819MOL0     C12893   8.498   1.808  10.162  0.1806  0.1244  0.3422
  819MOL0     C12894   8.376   1.805  10.251 -0.6249 -0.6981 -0.5895
  819MOL0     C12895   8.273   1.894  10.199  0.1830  0.3708 -0.5627
  819MOL0     C12896   8.162   1.931  10.301 -0.0424  0.3487 -0.4582
  819MOL0     C12897   8.033   1.976  10.217  0.2558 -0.1051 -0.5774
  819MOL0     C12898   8.052   2.102  10.129  0.1332  0.0988 -0.5836
  819MOL0     C12899   7.934   2.123  10.034 -0.0241  0.0234  1.1816
  819MOL0     C12900   7.971   2.252   9.959 -0.9001  0.4718 -0.1457
  819MOL0     N12901   7.871   2.296   9.859 -0.1676  0.4719  0.8582
  819MOL0     C12902   7.872   2.258   9.726  0.6681 -0.2566  1.0624
  819MOL0     C12903   7.763   2.322   9.674 -0.7060  0.3399 -0.6078
  819MOL0     C12904   7.730   2.337   9.525  0.0068 -0.5232 -0.8012
  819MOL0     C12905   7.835   2.410   9.451  0.3703 -0.3280  0.1360
  819MOL0     C12906   7.954   2.323   9.403  0.1984 -0.0349  0.4069
  819MOL0     C12907   8.036   2.391   9.282 -0.2717 -0.7831  0.0283
  819MOL0     O12908   8.103   2.291   9.211  0.3547  0.6369  0.6839
  819MOL0     C12909   8.238   2.313   9.182  0.4546  0.1338 -0.0302
  819MOL0     C12910   8.303   2.435   9.164 -0.1683  0.9327  0.4600
  819MOL0     C12911   8.439   2.445   9.128 -0.1149 -0.1193  0.1208
  819MOL0     C12912   8.498   2.580   9.073  0.1757  0.2854 -0.3778
  819MOL0     C12913   8.523   2.328   9.118  0.2447  0.1766  0.3977
  819MOL0     C12914   8.665   2.337   9.086  0.2979 -0.2570  0.3525
  819MOL0     O12915   8.693   2.400   8.965 -0.2571 -0.3396  0.2390
  819MOL0     C12916   8.825   2.403   8.919 -0.2336 -0.3131 -0.5364
  819MOL0     C12917   8.863   2.282   8.857 -0.9529 -0.4311 -0.3661
  819MOL0     C12918   9.003   2.269   8.835 -1.0289 -0.5269  0.2143
  819MOL0     C12919   9.093   2.380   8.851 -0.1109 -0.5339 -1.1328
  819MOL0     O12920   9.223   2.383   8.827 -0.3235 -0.0721  0.2615
  819MOL0     C12921   9.297   2.273   8.876  0.3267 -0.0583 -0.0993
  819MOL0     C12922   9.444   2.304   8.845 -0.5805  0.7647  0.4912
  819MOL0     C12923   9.491   2.279   8.699  0.5105  0.6781 -0.4738
  819MOL0     C12924   9.640   2.279   8.688 -0.4132  0.1237  0.6560
  819MOL0     C12925   9.693   2.317   8.554 -0.3380  0.9713  0.3982
  819MOL0     C12926   9.670   2.219   8.438  1.1114  0.3067  0.0738
  819MOL0     C12927   9.753   2.259   8.324  0.1568  0.4098 -0.8383
  819MOL0     C12928   9.765   2.150   8.216  0.2199  0.3378  0.4052
  819MOL0    Cl12929   9.612   2.094   8.126 -0.2995 -0.0420  0.1632
  819MOL0     C12930   9.042   2.502   8.899  0.1172 -0.0998 -0.0222
  819MOL0     C12931   8.903   2.514   8.939 -0.2177  0.2338  0.8262
  819MOL0     O12932   8.750   2.289   9.166 -0.6529  0.1215  0.3039
  819MOL0     C12933   8.451   2.208   9.148 -0.3123  1.1085 -0.2785
  819MOL0     C12934   8.312   2.195   9.170  0.7002 -0.3001  0.1964
  819MOL0     N12935   7.697   2.394   9.781 -0.7951  0.3495  0.1541
  819MOL0     N12936   7.765   2.383   9.884 -0.1870  0.2476  0.2747
  819MOL0     C12937   8.748   1.883  10.013 -1.0067 -0.1843  0.3072
  819MOL0     C12938   8.875   1.881   9.968  0.8916  0.4752 -0.2538
  819MOL0     C12939   9.332   1.829   9.983 -0.2170 -0.4220 -0.1846
  819MOL0     C12940   9.379   1.962  10.017 -0.2394  0.6027 -0.3782
  819MOL0     C12941   9.517   1.989  10.016  0.7219  0.3261 -0.2476
  819MOL0     C12942   9.599   1.892   9.952  0.2467 -0.3044 -0.2539
  819MOL0     O12943   9.731   1.926   9.926 -0.2323  0.7117  0.2543
  819MOL0     C12944   9.826   1.824   9.902  0.4730 -0.2206  0.8449
  819MOL0     C12945   9.852   1.721  10.020 -0.0159 -0.6885  0.0835
  819MOL0     C12946   9.952   1.615   9.988  0.2909  0.1429  0.4896
  819MOL0     C12947   9.975   1.532  10.109 -0.1889 -0.1963  0.5597
  819MOL0     C12948  10.089   1.439  10.090  0.1584  0.2788 -0.1993
  819MOL0     C12949  10.172   1.354  10.078 -0.3970  0.1307 -0.3350
  819MOL0     C12950   9.548   1.766   9.908  0.2984 -0.2274  0.3132
  819MOL0     C12951   9.421   1.732   9.930 -0.4482 -0.1186 -0.6201
  819MOL0     C12952   9.391   1.591   9.892  1.5399  1.0293  0.3209
  819MOL0     H12953   9.001   1.996  10.272  0.2194 -0.3436 -0.8402
  819MOL0     H12954   8.775   1.978  10.332  0.5621 -0.0352  0.6741
  819MOL0     H12955   8.553   1.713  10.173  0.1251  0.2257  1.5853
  819MOL0     H12956   8.463   1.812  10.058 -1.8899  0.2910  1.0066
  819MOL0     H12957   8.332   1.705  10.254 -0.4429 -0.8435 -2.1156
  819MOL0     H12958   8.412   1.845  10.347  0.3557  2.2817 -2.0586
  819MOL0     H12959   8.318   1.982  10.153  0.8359 -1.1421 -2.9655
  819MOL0     H12960   8.224   1.844  10.115 -0.6187  1.5376 -0.8043
  819MOL0     H12961   8.137   1.846  10.366  4.1865 -1.5826 -1.0440
  819MOL0     H12962   8.196   2.014  10.364 -1.9177 -1.0843  2.7496
  819MOL0     H12963   7.955   1.996  10.291 -0.6558  0.6353 -1.6990
  819MOL0     H12964   8.007   1.893  10.151 -2.0699  0.9692 -1.1011
  819MOL0     H12965   8.072   2.192  10.188  1.6300 -1.2035  1.0257
  819MOL0     H12966   8.132   2.083  10.056  0.1475  0.1708 -0.5862
  819MOL0     H12967   7.840   2.124  10.090 -0.3852  4.1163  0.7931
  819MOL0     H12968   7.924   2.042   9.960  0.8164  1.4914 -0.6303
  819MOL0     H12969   7.985   2.332  10.032  1.8053  1.5805 -1.7540
  819MOL0     H12970   8.069   2.238   9.912 -0.1648 -2.8730  1.9942
  819MOL0     H12971   7.941   2.205   9.661  0.6519  0.0641  0.7869
  819MOL0     H12972   7.635   2.391   9.515  0.4515 -0.0035 -2.5980
  819MOL0     H12973   7.716   2.235   9.489 -1.3429 -1.4051  1.9314
  819MOL0     H12974   7.804   2.464   9.361  3.8588  1.3224 -0.2450
  819MOL0     H12975   7.872   2.499   9.503 -1.1887  1.8263 -2.1992
  819MOL0     H12976   8.025   2.310   9.485  1.3468  2.4054 -0.1215
  819MOL0     H12977   7.908   2.227   9.378 -1.0860  0.5063  0.6020
  819MOL0     H12978   7.968   2.446   9.217  0.9770  2.2040  1.1092
  819MOL0     H12979   8.106   2.462   9.327  0.0775 -0.4023 -1.0939
  819MOL0     H12980   8.232   2.516   9.176 -0.9455  0.0730  2.0292
  819MOL0     H12981   8.427   2.658   9.103 -1.5216 -1.3025 -0.1382
  819MOL0     H12982   8.517   2.580   8.966  1.9435 -0.9615 -0.1028
  819MOL0     H12983   8.598   2.603   9.111  0.6152  1.5927 -2.1797
  819MOL0     H12984   8.793   2.200   8.849 -0.1350 -1.7377  3.6238
  819MOL0     H12985   9.039   2.172   8.801 -3.2538 -1.6004  0.7882
  819MOL0     H12986   9.272   2.253   8.981  1.2192 -0.2086  0.0869
  819MOL0     H12987   9.277   2.185   8.813 -1.0022 -0.2511  0.5456
  819MOL0     H12988   9.463   2.402   8.890 -3.0978  2.0573 -1.0649
  819MOL0     H12989   9.489   2.223   8.903 -0.4166 -2.0265 -3.1947
  819MOL0     H12990   9.452   2.363   8.641 -0.4632  0.7919  0.3219
  819MOL0     H12991   9.446   2.192   8.652 -0.3917 -0.4873  2.3884
  819MOL0     H12992   9.686   2.183   8.713  1.7900  1.4487  1.9710
  819MOL0     H12993   9.682   2.357   8.752  0.4703  0.9090 -0.8119
  819MOL0     H12994   9.656   2.414   8.518 -1.3705 -0.2312 -1.9551
  819MOL0     H12995   9.802   2.329   8.562 -0.2895  2.0383 -1.3249
  819MOL0     H12996   9.567   2.216   8.404  1.1613 -2.3161  0.0011
  819MOL0     H12997   9.693   2.120   8.478  0.5799  0.6121  1.1639
  819MOL0     H12998   9.850   2.278   8.371 -0.2583 -2.3256  1.3918
  819MOL0     H12999   9.723   2.355   8.281  0.3834  0.6231 -0.5315
  819MOL0     H13000   9.814   2.058   8.251 -0.9154  0.3841  2.2701
  819MOL0     H13001   9.825   2.201   8.140 -1.8591  0.6350 -1.1148
  819MOL0     H13002   9.098   2.594   8.913  0.6060 -0.3058 -0.5845
  819MOL0     H13003   8.865   2.607   8.980 -1.9987 -0.5102  0.9486
  819MOL0     H13004   8.506   2.115   9.149 -0.1629  1.1341  2.9476
  819MOL0     H13005   8.259   2.104   9.194 -2.3438  2.2119  4.3173
  819MOL0     H13006   8.671   1.852   9.943 -1.0077  1.0583 -0.2745
  819MOL0     H13007   8.887   1.860   9.862  0.0774  1.3120 -0.5300
  819MOL0     H13008   9.316   2.042  10.054  1.9130  2.2360 -0.0553
  819MOL0     H13009   9.558   2.076  10.065 -2.1868  1.6981 -0.0141
  819MOL0     H13010   9.792   1.759   9.820  0.8429  2.3066 -1.4552
  819MOL0     H13011   9.921   1.874   9.880 -0.3169  0.2772 -1.8859
  819MOL0     H13012   9.758   1.670  10.044  0.4014 -1.0889  0.9081
  819MOL0     H13013   9.883   1.774  10.111 -0.9112 -1.1777  0.6864
  819MOL0     H13014   9.919   1.550   9.906  4.4746 -1.7580  0.0326
  819MOL0     H13015  10.040   1.669   9.952 -0.3391  0.5673 -0.4698
  819MOL0     H13016   9.888   1.474  10.141 -1.3081  1.3525  0.4448
  819MOL0     H13017  10.007   1.592  10.196 -1.0530 -0.0106  0.7579
  819MOL0     H13018  10.245   1.278  10.063 -1.6208 -0.7731 -2.2344
  819MOL0     H13019   9.608   1.688   9.862  0.0825 -1.9011  2.6984
  819MOL0     H13020   9.366   1.525   9.975  1.8842 -1.9894 -1.8049
  819MOL0     H13021   9.303   1.598   9.827  1.1579  1.2405  0.8545
  819MOL0     H13022   9.460   1.532   9.831  1.2376  0.7433  0.2492
  820MOL0     O13023   0.706   2.852   4.349 -0.9327 -0.0628 -0.1091
  820MOL0     C13024   0.616   2.928   4.388 -0.1788  0.0677 -0.3133
  820MOL0     O13025   0.629   3.062   4.406 -0.0510 -0.6832 -0.0928
  820MOL0     C13026   0.747   3.132   4.368  0.1229  1.0051  1.1697
  820MOL0     C13027   0.797   3.222   4.455 -0.1351 -0.0911 -0.9060
  820MOL0     C13028   0.905   3.301   4.424  0.8891  0.5725 -0.6720
  820MOL0     C13029   0.972   3.297   4.305 -0.3142  0.2280 -0.4314
  820MOL0     O13030   1.084   3.376   4.299  0.6349 -0.2550 -0.3923
  820MOL0     C13031   1.197   3.337   4.215  0.3754  0.4903  0.5865
  820MOL0     C13032   1.315   3.429   4.245 -0.3739 -0.2845 -0.4876
  820MOL0     C13033   1.402   3.395   4.365  0.3240 -0.5106 -0.9442
  820MOL0     C13034   1.526   3.495   4.373 -0.3932  0.0526 -0.1013
  820MOL0     C13035   1.626   3.464   4.476  0.7115  0.9420 -0.2058
  820MOL0     C13036   1.575   3.473   4.621 -0.5292 -0.3317  0.1899
  820MOL0     C13037   1.687   3.440   4.715  0.0023  0.2303 -0.0307
  820MOL0     C13038   1.713   3.290   4.742 -0.5530 -0.1198 -0.6072
  820MOL0     N13039   1.841   3.255   4.805 -0.3024 -0.0782 -0.4654
  820MOL0     C13040   1.955   3.328   4.800 -0.9503 -0.0989  0.3275
  820MOL0     C13041   2.045   3.251   4.861  0.4413  0.1550  0.3390
  820MOL0     C13042   2.185   3.291   4.887  0.5163  0.5518  1.0687
  820MOL0     C13043   2.274   3.171   4.902 -0.9329 -0.4534 -0.4867
  820MOL0     C13044   2.416   3.220   4.907  0.2247 -0.3837  0.0010
  820MOL0     C13045   2.515   3.113   4.894  0.0471  0.5065  0.3479
  820MOL0     O13046   2.640   3.144   4.962  0.9072  0.1376 -0.2208
  820MOL0     C13047   2.754   3.071   4.950  0.2897  0.3006 -0.4990
  820MOL0     C13048   2.873   3.115   5.008  0.2523  0.6790  0.2237
  820MOL0     C13049   2.991   3.037   5.009 -0.2953 -0.8715  0.4814
  820MOL0     C13050   3.098   3.087   5.101  0.1569 -0.7671 -1.0670
  820MOL0     C13051   2.994   2.909   4.949  0.0845  0.7495  0.4103
  820MOL0     C13052   3.117   2.813   4.949 -0.2031  0.2077  0.5785
  820MOL0     O13053   3.223   2.868   5.004  0.1958  0.3213 -0.1539
  820MOL0     C13054   3.337   2.800   5.039  0.2226  0.3374 -1.4554
  820MOL0     C13055   3.445   2.883   5.064 -0.1526  0.6941 -0.3667
  820MOL0     C13056   3.560   2.833   5.107 -0.1106  0.7133 -0.0590
  820MOL0     C13057   3.587   2.696   5.117  0.2627  0.3314 -0.0534
  820MOL0     O13058   3.716   2.657   5.142  0.4342 -0.2945  0.3889
  820MOL0     C13059   3.742   2.520   5.163 -0.2131  0.3227 -0.3117
  820MOL0     C13060   3.870   2.520   5.244  0.4526  0.2616  0.3115
  820MOL0     C13061   3.988   2.550   5.153 -0.3892  0.0886  0.4701
  820MOL0     C13062   4.111   2.567   5.236  0.1351  0.5114 -0.2367
  820MOL0     C13063   4.233   2.574   5.141 -0.3041 -0.9153  0.6334
  820MOL0     C13064   4.347   2.648   5.214  0.5708  0.2637 -0.9947
  820MOL0     C13065   4.469   2.668   5.139  0.6945 -0.5565 -0.0175
  820MOL0     C13066   4.571   2.734   5.228  0.0331 -0.0715  0.1804
  820MOL0    Cl13067   4.733   2.717   5.164 -0.1834  0.1422  0.2042
  820MOL0     C13068   3.477   2.609   5.098 -0.2213 -0.4134  0.3327
  820MOL0     C13069   3.347   2.661   5.064 -0.1953  0.6092  0.5527
  820MOL0     O13070   3.111   2.707   4.891 -0.3381 -0.2939 -0.6069
  820MOL0     C13071   2.875   2.864   4.881 -0.1476 -1.3716  0.4662
  820MOL0     C13072   2.757   2.945   4.882 -0.0827  0.0691  0.1349
  820MOL0     N13073   1.989   3.126   4.883 -0.3094 -0.4983  0.5321
  820MOL0     N13074   1.864   3.133   4.864  0.1162  0.1958 -0.1386
  820MOL0     C13075   0.931   3.200   4.209  0.5927 -0.6502 -0.2441
  820MOL0     C13076   0.814   3.122   4.239  0.6993  0.2616  0.0785
  820MOL0     C13077   0.495   2.861   4.438 -1.2910  0.2939 -0.0737
  820MOL0     C13078   0.428   2.922   4.540  0.1121 -1.0170 -0.5827
  820MOL0     C13079   0.313   2.860   4.594  0.4042 -0.1490  0.6332
  820MOL0     C13080   0.268   2.736   4.551  0.2684 -0.4336  0.0462
  820MOL0     O13081   0.156   2.672   4.591 -1.1637  0.7957  0.2573
  820MOL0     C13082   0.107   2.720   4.718  0.8360  0.2537  0.5685
  820MOL0     C13083  -0.014   2.639   4.756  0.0550  0.6669 -0.4319
  820MOL0     C13084   0.022   2.492   4.791  0.3597 -0.1643  1.2668
  820MOL0     C13085  -0.094   2.429   4.861 -0.4130  0.5529 -0.4585
  820MOL0     C13086  -0.075   2.281   4.859  0.0200 -0.7349 -0.5253
  820MOL0     C13087  -0.071   2.155   4.858  0.0649 -0.9261  0.7173
  820MOL0     C13088   0.338   2.672   4.451 -0.5238  0.4962 -0.7542
  820MOL0     C13089   0.453   2.735   4.394 -0.5464  0.0737 -0.3190
  820MOL0     C13090   0.517   2.657   4.277 -0.4206  0.2543  0.0833
  820MOL0     H13091   0.756   3.235   4.555  3.8308  3.7616  0.5495
  820MOL0     H13092   0.927   3.376   4.499  1.3227  1.3225 -1.5222
  820MOL0     H13093   1.169   3.346   4.110  1.6260  0.3140  0.2178
  820MOL0     H13094   1.217   3.232   4.239 -2.0674  0.4537  2.8790
  820MOL0     H13095   1.380   3.423   4.158  0.7714 -1.9557  0.4152
  820MOL0     H13096   1.278   3.532   4.245  0.2650 -0.0465 -0.2161
  820MOL0     H13097   1.340   3.396   4.454 -0.0394  2.1802 -1.1582
  820MOL0     H13098   1.440   3.292   4.356  1.0459 -0.2395 -1.0798
  820MOL0     H13099   1.578   3.504   4.276  1.0801 -0.2307  0.6311
  820MOL0     H13100   1.488   3.595   4.393  0.4832  0.3530  0.1265
  820MOL0     H13101   1.710   3.534   4.473  1.4423  0.2647  2.1050
  820MOL0     H13102   1.655   3.359   4.462  0.7953  0.7997  0.9625
  820MOL0     H13103   1.541   3.575   4.643  1.8323  0.8503 -1.1912
  820MOL0     H13104   1.486   3.412   4.638 -0.3030 -1.1225 -1.3194
  820MOL0     H13105   1.663   3.485   4.812 -2.7926 -1.4634  0.1600
  820MOL0     H13106   1.779   3.488   4.681  1.0569  0.1578  2.5061
  820MOL0     H13107   1.635   3.252   4.808 -1.7374 -0.3558 -2.0928
  820MOL0     H13108   1.714   3.239   4.645  3.3897 -3.1726  0.7487
  820MOL0     H13109   1.979   3.431   4.777 -1.1624 -0.4477 -1.5746
  820MOL0     H13110   2.202   3.365   4.965 -1.3121 -0.5113  2.5370
  820MOL0     H13111   2.211   3.348   4.797 -0.4086  3.0604  2.3137
  820MOL0     H13112   2.249   3.118   4.995  2.8319 -1.1402  0.2906
  820MOL0     H13113   2.256   3.102   4.819  1.2289 -0.6107 -0.8957
  820MOL0     H13114   2.445   3.285   4.823  1.3970 -0.9885 -0.0860
  820MOL0     H13115   2.433   3.264   5.006  3.1641 -0.6651 -0.2787
  820MOL0     H13116   2.467   3.020   4.927  1.2053 -0.1000  0.3836
  820MOL0     H13117   2.534   3.105   4.787 -2.2256  0.9835 -0.1346
  820MOL0     H13118   2.858   3.212   5.055 -1.3333  2.1480 -3.0208
  820MOL0     H13119   3.125   3.005   5.168  1.3906  1.0148  0.7011
  820MOL0     H13120   3.068   3.165   5.171  1.1276 -1.7240  0.4463
  820MOL0     H13121   3.180   3.131   5.044  1.0408  0.9829  1.4170
  820MOL0     H13122   3.435   2.989   5.047  2.0401  0.7989 -1.3260
  820MOL0     H13123   3.639   2.905   5.123 -1.5629  3.3023 -3.2455
  820MOL0     H13124   3.656   2.489   5.223  0.6208 -1.2120  0.1389
  820MOL0     H13125   3.750   2.449   5.081  0.2045  0.4693 -0.4012
  820MOL0     H13126   3.866   2.594   5.325 -0.4632 -1.2089  1.6761
  820MOL0     H13127   3.876   2.426   5.299 -1.0674 -0.9523 -1.4833
  820MOL0     H13128   3.979   2.639   5.089  1.4327 -0.1022 -0.0947
  820MOL0     H13129   3.996   2.463   5.088 -2.9928 -0.0350  0.2094
  820MOL0     H13130   4.123   2.479   5.299  0.4769  2.1144  2.0891
  820MOL0     H13131   4.104   2.652   5.305 -1.1007  0.8083 -0.7087
  820MOL0     H13132   4.261   2.474   5.106  1.9857  0.1048 -0.6989
  820MOL0     H13133   4.211   2.630   5.050  0.6078 -1.5962 -0.0284
  820MOL0     H13134   4.371   2.582   5.298 -0.9596 -0.3916 -1.0330
  820MOL0     H13135   4.311   2.747   5.244  2.3532  0.5364  0.3789
  820MOL0     H13136   4.454   2.745   5.063  1.0369 -0.0564  0.4214
  820MOL0     H13137   4.492   2.570   5.094  0.6929 -0.1379 -0.9511
  820MOL0     H13138   4.578   2.695   5.330  1.7020 -1.2368 -0.3360
  820MOL0     H13139   4.546   2.840   5.227  2.0208  0.4358 -1.2725
  820MOL0     H13140   3.493   2.502   5.104  0.3966 -0.2727  1.7750
  820MOL0     H13141   3.268   2.586   5.056  2.2177 -2.0211 -0.3184
  820MOL0     H13142   2.879   2.773   4.821  0.9126 -1.5668  0.8057
  820MOL0     H13143   2.680   2.890   4.829  1.6868 -1.0514 -1.4046
  820MOL0     H13144   0.986   3.186   4.116  1.6656 -1.5249  0.4866
  820MOL0     H13145   0.776   3.053   4.165 -2.3993  2.7860 -0.9148
  820MOL0     H13146   0.450   3.022   4.577 -0.5170 -1.5137  1.2359
  820MOL0     H13147   0.251   2.911   4.666  0.7273  0.2547  0.6293
  820MOL0     H13148   0.181   2.705   4.797 -1.4779  1.0634  3.0532
  820MOL0     H13149   0.071   2.823   4.706  1.2079  0.6029  2.1431
  820MOL0     H13150  -0.076   2.644   4.666  1.3548  3.6472 -1.2690
  820MOL0     H13151  -0.072   2.685   4.836  1.5344  3.9645 -1.0858
  820MOL0     H13152   0.045   2.441   4.697 -0.8990  2.2781 -0.4538
  820MOL0     H13153   0.103   2.501   4.865  0.6040  2.7652  0.7437
  820MOL0     H13154  -0.186   2.467   4.815 -1.6544 -1.2274  0.3817
  820MOL0     H13155  -0.094   2.460   4.965 -2.7864 -1.2111  0.1818
  820MOL0     H13156  -0.062   2.049   4.857  1.3676 -0.8447  0.9316
  820MOL0     H13157   0.304   2.574   4.422  0.9940 -0.1712 -0.3920
  820MOL0     H13158   0.625   2.642   4.282 -0.4002 -1.6206 -2.9448
  820MOL0     H13159   0.483   2.553   4.267  1.7287 -0.5743  0.8975
  820MOL0     H13160   0.496   2.709   4.183  0.4272 -0.8621 -0.7477
  821MOL0     O13161   1.049  10.791   9.638  0.9750 -0.8026 -0.6332
  821MOL0     C13162   1.058  10.897   9.695 -0.2261 -0.1396  0.1695
  821MOL0     O13163   1.180  10.940   9.743 -0.7768  0.2978  0.0364
  821MOL0     C13164   1.308  10.900   9.692  0.5052 -0.0105  0.7590
  821MOL0     C13165   1.414  10.909   9.784  0.0478 -0.7453  0.1034
  821MOL0     C13166   1.540  10.874   9.748  0.6382  0.1675  0.0453
  821MOL0     C13167   1.570  10.836   9.620  0.0417  0.3625 -0.1344
  821MOL0     O13168   1.700  10.814   9.582  0.7083  0.1544 -0.2812
  821MOL0     C13169   1.754  10.697   9.638 -0.0887  0.7267 -0.3666
  821MOL0     C13170   1.883  10.661   9.585 -0.8663  0.7898  0.9950
  821MOL0     C13171   1.860  10.608   9.444 -0.5168  0.0853 -0.0937
  821MOL0     C13172   2.005  10.590   9.376  0.2430  1.0309  0.1760
  821MOL0     C13173   1.974  10.550   9.231 -0.2347 -0.0481 -0.3003
  821MOL0     C13174   2.093  10.543   9.135 -0.5249  0.9368  0.3340
  821MOL0     C13175   2.155  10.409   9.155  0.0345  0.7366  0.1195
  821MOL0     C13176   2.267  10.382   9.054  0.1051 -0.0048 -0.1301
  821MOL0     N13177   2.333  10.254   9.076  0.0713  0.3895 -0.1322
  821MOL0     C13178   2.409  10.237   9.200  0.1977  0.4533  0.7562
  821MOL0     C13179   2.450  10.110   9.196  0.6708 -0.2818  0.1728
  821MOL0     C13180   2.545  10.045   9.289 -0.4906 -1.0277  0.5179
  821MOL0     C13181   2.671  10.126   9.304  0.9202  1.1075  0.8312
  821MOL0     C13182   2.771  10.089   9.198 -0.4431  0.2153  1.0366
  821MOL0     C13183   2.904  10.167   9.207 -0.0014 -0.2956 -0.2865
  821MOL0     O13184   2.980  10.129   9.320  0.0119 -0.0122 -0.1912
  821MOL0     C13185   3.067  10.226   9.353 -0.4104 -0.0602  0.3621
  821MOL0     C13186   3.029  10.345   9.415  0.2640 -1.5069 -0.2135
  821MOL0     C13187   3.123  10.440   9.448 -0.9589  0.2018  0.4957
  821MOL0     C13188   3.072  10.561   9.523  1.1706  0.2959 -0.2469
  821MOL0     C13189   3.261  10.416   9.416  0.5586 -1.3112  0.9862
  821MOL0     C13190   3.367  10.498   9.477  1.0504  0.3155  0.0453
  821MOL0     O13191   3.457  10.431   9.559  0.0460  0.4674  0.5458
  821MOL0     C13192   3.560  10.496   9.616 -0.8923 -0.0942  0.2448
  821MOL0     C13193   3.642  10.587   9.549  0.3542  0.0863 -0.3801
  821MOL0     C13194   3.734  10.653   9.630 -0.3302 -0.5104 -0.5215
  821MOL0     C13195   3.759  10.631   9.769 -0.6776 -0.5547 -0.4517
  821MOL0     O13196   3.845  10.714   9.838  0.1723  0.1043  0.0280
  821MOL0     C13197   3.972  10.733   9.777 -0.4235  0.2367 -0.1814
  821MOL0     C13198   4.068  10.764   9.892  0.0457  0.0059  0.1450
  821MOL0     C13199   4.084  10.655   9.992 -0.0814  0.2618  0.2270
  821MOL0     C13200   4.178  10.546   9.934  0.2454  1.0496  0.8553
  821MOL0     C13201   4.240  10.458  10.046  0.2831 -0.3206 -0.7935
  821MOL0     C13202   4.371  10.385   9.995 -0.3507 -0.5560  0.0921
  821MOL0     C13203   4.495  10.474   9.993  0.1854  0.0365  0.0006
  821MOL0     C13204   4.618  10.398   9.949  0.7715 -0.0022 -0.1229
  821MOL0    Cl13205   4.738  10.367  10.089  0.4514 -0.8076  0.1406
  821MOL0     C13206   3.679  10.537   9.828 -0.1009 -0.3362 -0.9586
  821MOL0     C13207   3.591  10.464   9.754 -0.6452  0.8875  0.5448
  821MOL0     O13208   3.369  10.617   9.445 -0.2938 -0.5360 -0.0058
  821MOL0     C13209   3.296  10.299   9.341  1.4281 -0.4052  0.1174
  821MOL0     C13210   3.195  10.211   9.310  1.2676 -0.0292  0.0743
  821MOL0     N13211   2.385  10.051   9.090  0.5768  0.3260  0.5188
  821MOL0     N13212   2.314  10.135   9.021 -0.7162  0.6729  0.0421
  821MOL0     C13213   1.470  10.832   9.524  0.3950 -0.2339 -0.0442
  821MOL0     C13214   1.341  10.871   9.560 -0.1849 -0.1599  0.7309
  821MOL0     C13215   0.937  10.976   9.735 -0.3394  1.0709 -0.1499
  821MOL0     C13216   0.815  10.911   9.729  0.1175 -1.1165  0.9329
  821MOL0     C13217   0.687  10.969   9.768 -0.4056  1.0969  0.8712
  821MOL0     C13218   0.680  11.101   9.807 -0.3187  0.4572 -0.0624
  821MOL0     O13219   0.558  11.146   9.839  0.1035 -0.7588 -0.4247
  821MOL0     C13220   0.536  11.282   9.862  0.8225 -0.2180  0.1848
  821MOL0     C13221   0.400  11.332   9.839  0.4308 -0.4930 -0.6004
  821MOL0     C13222   0.296  11.263   9.940 -0.3259 -0.6867  1.0969
  821MOL0     C13223   0.143  11.292   9.918  0.2701  0.2835 -0.8954
  821MOL0     C13224   0.100  11.232   9.788 -0.6698 -0.6019 -0.1007
  821MOL0     C13225   0.069  11.178   9.684 -0.0423 -0.5065 -0.3800
  821MOL0     C13226   0.808  11.169   9.818  0.9110  0.1671  0.0317
  821MOL0     C13227   0.926  11.110   9.781  0.2758 -0.0511  0.3428
  821MOL0     C13228   1.051  11.199   9.798 -0.5946 -0.3324 -0.1681
  821MOL0     H13229   1.397  10.924   9.890  1.1326 -1.1215  0.3449
  821MOL0     H13230   1.618  10.874   9.824  0.3163 -1.6126  0.4084
  821MOL0     H13231   1.686  10.612   9.632  0.0025  0.6661 -0.5454
  821MOL0     H13232   1.780  10.709   9.744  0.8220  0.7019 -0.5856
  821MOL0     H13233   1.956  10.743   9.594 -0.9317  1.1211 -0.9726
  821MOL0     H13234   1.927  10.581   9.644 -2.4741 -1.1150 -0.2796
  821MOL0     H13235   1.813  10.509   9.441  0.5182 -0.4474  0.6809
  821MOL0     H13236   1.797  10.675   9.385 -0.1537 -1.0547 -1.8836
  821MOL0     H13237   2.072  10.677   9.371  0.6910  0.6363 -1.3025
  821MOL0     H13238   2.064  10.518   9.431  2.0441  2.6436  0.4671
  821MOL0     H13239   1.904  10.621   9.185 -1.0308  0.1806  1.1831
  821MOL0     H13240   1.920  10.455   9.234 -0.1661 -0.1573 -1.7164
  821MOL0     H13241   2.056  10.550   9.032  1.2673 -2.5707 -0.7182
  821MOL0     H13242   2.154  10.630   9.159 -1.0961  0.9502  1.8672
  821MOL0     H13243   2.082  10.328   9.157  4.9138 -4.3076  1.4168
  821MOL0     H13244   2.199  10.393   9.255 -0.0121  0.2230  0.0634
  821MOL0     H13245   2.225  10.380   8.953 -3.0802 -2.0644  1.0857
  821MOL0     H13246   2.340  10.461   9.071  0.6963 -0.7120  0.7184
  821MOL0     H13247   2.451  10.306   9.273  3.0007  1.9076 -2.0028
  821MOL0     H13248   2.568   9.942   9.259 -1.1411 -0.7840 -0.8721
  821MOL0     H13249   2.493  10.028   9.384 -1.3943 -2.0613 -0.1327
  821MOL0     H13250   2.655  10.230   9.333 -1.0959  1.0437  0.0862
  821MOL0     H13251   2.718  10.099   9.399  1.3640 -0.0444  0.3022
  821MOL0     H13252   2.799   9.984   9.207 -1.0540  0.1530  2.5589
  821MOL0     H13253   2.721  10.107   9.103  0.1002 -2.3088  0.2011
  821MOL0     H13254   2.966  10.124   9.128  1.6283 -0.3908  0.9907
  821MOL0     H13255   2.901  10.276   9.196  1.8798 -0.4258 -3.4662
  821MOL0     H13256   2.925  10.370   9.430  0.8831  0.1416  1.7618
  821MOL0     H13257   3.151  10.615   9.577  0.1147  3.2332 -1.4616
  821MOL0     H13258   2.991  10.538   9.593  1.2744  0.1184 -0.1828
  821MOL0     H13259   3.044  10.631   9.444 -0.4402  0.1909  0.1992
  821MOL0     H13260   3.626  10.615   9.446  1.4906  0.1646 -0.5477
  821MOL0     H13261   3.813  10.712   9.583  1.3972 -1.6529  0.8042
  821MOL0     H13262   4.008  10.641   9.729 -0.4156  0.5878 -0.8617
  821MOL0     H13263   3.979  10.818   9.708 -1.4333  0.2482 -0.2833
  821MOL0     H13264   4.164  10.795   9.850  0.0751  1.4318  1.1812
  821MOL0     H13265   4.043  10.846   9.961 -1.7359 -1.2175  1.0189
  821MOL0     H13266   3.985  10.616  10.018 -0.4679  0.1507 -1.2922
  821MOL0     H13267   4.131  10.701  10.079 -0.4792  0.1924  0.4821
  821MOL0     H13268   4.256  10.582   9.866  3.0393 -1.6949  2.3219
  821MOL0     H13269   4.120  10.474   9.875  1.5049  0.3508  0.4267
  821MOL0     H13270   4.273  10.515  10.133 -0.3024  1.6487 -1.8005
  821MOL0     H13271   4.163  10.388  10.083  1.9895 -0.7437  2.2538
  821MOL0     H13272   4.351  10.359   9.890  1.3421 -1.0484 -0.1389
  821MOL0     H13273   4.401  10.297  10.052  0.5027  0.0852  0.6463
  821MOL0     H13274   4.519  10.529  10.084  0.4669 -1.0268  0.5872
  821MOL0     H13275   4.472  10.551   9.919 -0.3394  1.2023  1.3292
  821MOL0     H13276   4.680  10.459   9.883  0.5771  0.8207  0.4476
  821MOL0     H13277   4.598  10.299   9.905 -1.6009 -0.3601  1.6103
  821MOL0     H13278   3.676  10.523   9.936  1.1134 -3.0730 -1.1978
  821MOL0     H13279   3.524  10.392   9.799 -0.4762 -0.3651 -1.1119
  821MOL0     H13280   3.397  10.282   9.306  1.7561  1.1523  0.2154
  821MOL0     H13281   3.217  10.120   9.256  0.4082  0.9339 -1.9765
  821MOL0     H13282   1.482  10.807   9.419 -1.5700  1.8678 -0.8545
  821MOL0     H13283   1.256  10.870   9.493 -1.7725 -0.3236  2.6432
  821MOL0     H13284   0.811  10.805   9.705 -0.3556 -0.5310 -1.9006
  821MOL0     H13285   0.599  10.908   9.754 -0.0927  0.9054 -0.4568
  821MOL0     H13286   0.562  11.305   9.966  0.6988  0.1282  0.1428
  821MOL0     H13287   0.593  11.335   9.785 -0.2304 -0.5156 -0.8195
  821MOL0     H13288   0.376  11.297   9.738  1.6289 -0.3601 -0.9373
  821MOL0     H13289   0.401  11.439   9.860 -0.2364 -0.4632 -0.6840
  821MOL0     H13290   0.307  11.154   9.932 -0.8338 -0.6458 -0.5914
  821MOL0     H13291   0.319  11.295  10.042  1.4142 -2.4040  1.3069
  821MOL0     H13292   0.109  11.396   9.910  0.9044  0.7011  1.2782
  821MOL0     H13293   0.082  11.270  10.005 -0.6499 -0.0762 -1.6232
  821MOL0     H13294   0.053  11.128   9.591  0.6209 -1.1406 -0.1567
  821MOL0     H13295   0.806  11.265   9.869 -1.5760 -0.7185  1.8060
  821MOL0     H13296   1.105  11.209   9.704 -2.4770 -2.5130 -1.5950
  821MOL0     H13297   1.019  11.300   9.827 -1.7412 -0.4643 -0.9133
  821MOL0     H13298   1.121  11.153   9.869 -0.5939 -0.4040 -0.2152
  822MOL0     O13299  10.871   9.602   7.481 -1.2066  0.0194  0.2249
  822MOL0     C13300  10.837   9.545   7.380 -0.0600 -0.2393  0.0740
  822MOL0     O13301  10.915   9.504   7.282  0.1392  0.2386  0.3453
  822MOL0     C13302  11.047   9.503   7.313 -0.0272 -0.6661  0.3226
  822MOL0     C13303  11.108   9.381   7.346  0.7627 -0.9024 -0.1364
  822MOL0     C13304  11.245   9.383   7.375 -0.6953  0.1064 -0.7870
  822MOL0     C13305  11.319   9.502   7.375 -0.4126  0.1642 -0.1702
  822MOL0     O13306  11.447   9.498   7.425 -0.1780 -0.6037  0.3096
  822MOL0     C13307  11.520   9.623   7.458 -0.3963  0.8320  0.2995
  822MOL0     C13308  11.656   9.596   7.518  0.0513  0.7891 -0.2348
  822MOL0     C13309  11.630   9.528   7.659 -0.2811 -0.3098 -0.1928
  822MOL0     C13310  11.758   9.464   7.716 -1.0312  0.0976  1.0593
  822MOL0     C13311  11.743   9.407   7.850 -0.3322  0.1908 -0.2673
  822MOL0     C13312  11.871   9.337   7.906 -0.1422  0.4476  0.2296
  822MOL0     C13313  11.863   9.317   8.061  0.7736  0.7547 -0.0093
  822MOL0     C13314  11.746   9.234   8.108  0.2442  0.1910 -0.6311
  822MOL0     N13315  11.718   9.272   8.252  0.2862  0.0519  0.1437
  822MOL0     C13316  11.750   9.199   8.365  0.6270  1.6009  0.9770
  822MOL0     C13317  11.719   9.266   8.470  0.1164 -0.6786 -0.0516
  822MOL0     C13318  11.736   9.236   8.618 -0.1972 -0.5023  0.0256
  822MOL0     C13319  11.688   9.097   8.659  0.8299 -0.2013 -0.3972
  822MOL0     C13320  11.719   9.081   8.807  0.0958 -0.2500 -0.1552
  822MOL0     C13321  11.870   9.067   8.846  0.2366  0.6078  0.1135
  822MOL0     O13322  11.927   8.977   8.752  0.9789  0.7414  0.5602
  822MOL0     C13323  12.061   8.951   8.760 -0.3148  0.9066  0.0623
  822MOL0     C13324  12.128   8.914   8.646 -0.7005  0.1683  0.0233
  822MOL0     C13325  12.269   8.887   8.640  0.1943 -0.2033 -0.7138
  822MOL0     C13326  12.318   8.858   8.505 -0.4332  0.3442  0.1655
  822MOL0     C13327  12.339   8.886   8.766 -0.0668  0.4191 -0.1093
  822MOL0     C13328  12.479   8.854   8.782  0.9166 -0.1449  0.6904
  822MOL0     O13329  12.518   8.821   8.908  0.4434  0.5540 -0.6626
  822MOL0     C13330  12.650   8.809   8.933  1.1469 -1.1463 -0.0441
  822MOL0     C13331  12.741   8.909   8.889 -0.2003 -0.5839  0.1078
  822MOL0     C13332  12.879   8.889   8.907  0.2726 -0.2384  0.2318
  822MOL0     C13333  12.922   8.768   8.982  0.0277 -0.2216  1.0330
  822MOL0     O13334  13.048   8.740   8.997 -0.6658  0.0533 -0.0217
  822MOL0     C13335  13.106   8.754   9.133 -0.2896  1.1643 -0.5484
  822MOL0     C13336  13.251   8.772   9.099  1.2505  0.4554  0.5675
  822MOL0     C13337  13.276   8.899   9.013  0.2200 -0.0199 -0.3829
  822MOL0     C13338  13.421   8.927   8.973 -0.4976  0.1111 -0.5889
  822MOL0     C13339  13.437   9.048   8.876 -0.3536 -0.5902 -0.7558
  822MOL0     C13340  13.371   9.175   8.931  0.2934  0.1618  0.3580
  822MOL0     C13341  13.411   9.308   8.850  0.4992 -0.2196 -0.7011
  822MOL0     C13342  13.375   9.432   8.927  0.6651  0.0678 -0.5546
  822MOL0    Cl13343  13.476   9.574   8.866  0.5242  0.5994 -0.3354
  822MOL0     C13344  12.828   8.680   9.038 -0.0195 -0.6710  0.0758
  822MOL0     C13345  12.688   8.707   9.013 -0.6643 -0.1257  0.2150
  822MOL0     O13346  12.554   8.870   8.683 -0.3849  0.5035 -0.3728
  822MOL0     C13347  12.268   8.915   8.881  0.3630 -1.0283  0.2589
  822MOL0     C13348  12.134   8.946   8.880  0.8754  0.3853 -0.3733
  822MOL0     N13349  11.667   9.388   8.423 -0.6307  0.5096  0.2917
  822MOL0     N13350  11.668   9.387   8.289 -1.4540  0.8656 -0.4592
  822MOL0     C13351  11.253   9.622   7.332  0.2763  0.0350 -0.3650
  822MOL0     C13352  11.119   9.616   7.291 -0.4857 -0.1331  0.4554
  822MOL0     C13353  10.694   9.544   7.354  0.2749  0.1856 -0.6080
  822MOL0     C13354  10.641   9.434   7.279  0.3346  1.1185 -0.6434
  822MOL0     C13355  10.499   9.426   7.257  0.1991 -0.3718 -0.5777
  822MOL0     C13356  10.414   9.520   7.306 -0.3188  0.1376  0.0044
  822MOL0     O13357  10.281   9.492   7.296  0.4109  0.1669 -0.0473
  822MOL0     C13358  10.190   9.511   7.403 -0.1472 -0.6737  0.3539
  822MOL0     C13359  10.043   9.469   7.364  0.3941  0.9443 -0.4762
  822MOL0     C13360  10.004   9.566   7.258  0.7153 -0.9183  0.0387
  822MOL0     C13361   9.861   9.543   7.207 -0.3956 -0.0856  0.2473
  822MOL0     C13362   9.762   9.647   7.248 -1.2966  0.9006 -0.1809
  822MOL0     C13363   9.690   9.735   7.289 -0.0831 -0.3425  0.3884
  822MOL0     C13364  10.471   9.637   7.359 -0.1727 -0.8174  0.0519
  822MOL0     C13365  10.603   9.646   7.386 -0.6321 -0.1192  0.0576
  822MOL0     C13366  10.643   9.764   7.467 -0.9612 -0.6819 -0.2830
  822MOL0     H13367  11.055   9.288   7.367 -0.2587  0.5446  5.3139
  822MOL0     H13368  11.302   9.292   7.396  1.8795  1.7143 -0.4214
  822MOL0     H13369  11.451   9.680   7.521 -0.2433  1.0403  0.2782
  822MOL0     H13370  11.529   9.679   7.364 -3.1126  0.3730 -0.3443
  822MOL0     H13371  11.714   9.520   7.463 -1.4691 -0.6524  0.0654
  822MOL0     H13372  11.709   9.691   7.516  0.9681  0.3109 -3.1188
  822MOL0     H13373  11.616   9.607   7.733  0.9196  0.0429 -0.3195
  822MOL0     H13374  11.555   9.448   7.654  1.1334 -1.6523 -0.7460
  822MOL0     H13375  11.784   9.382   7.647 -1.3177  1.7091 -1.0659
  822MOL0     H13376  11.846   9.530   7.709 -0.4024 -0.8612 -2.3493
  822MOL0     H13377  11.663   9.333   7.850 -0.1483 -0.0124  0.2855
  822MOL0     H13378  11.711   9.476   7.928  2.3131 -0.3436  1.4254
  822MOL0     H13379  11.890   9.242   7.853 -0.7235  0.5914 -0.2470
  822MOL0     H13380  11.953   9.406   7.882  1.0506 -0.9033  0.2456
  822MOL0     H13381  11.845   9.418   8.097  1.2718  0.4826  1.0476
  822MOL0     H13382  11.964   9.295   8.098  1.1987 -1.9090 -2.3492
  822MOL0     H13383  11.656   9.241   8.045  0.2044 -0.7468 -0.6965
  822MOL0     H13384  11.780   9.130   8.104  1.2471  0.2981  2.3837
  822MOL0     H13385  11.786   9.097   8.364  1.8338  1.9348  3.0843
  822MOL0     H13386  11.695   9.320   8.674  1.5478  0.9652 -0.7931
  822MOL0     H13387  11.843   9.241   8.641 -0.1485 -1.5181  0.0751
  822MOL0     H13388  11.578   9.095   8.652  0.7511 -0.3406  0.6898
  822MOL0     H13389  11.722   9.008   8.604 -2.1203 -1.9453  0.3595
  822MOL0     H13390  11.671   9.163   8.861 -1.3893 -0.3645 -1.2320
  822MOL0     H13391  11.666   8.991   8.843 -0.8916  0.4802  0.2698
  822MOL0     H13392  11.919   9.165   8.849 -0.5386  1.0026  0.5652
  822MOL0     H13393  11.880   9.026   8.947 -0.0276 -0.4435 -0.2796
  822MOL0     H13394  12.076   8.919   8.551  0.4188  3.0162 -0.5361
  822MOL0     H13395  12.242   8.807   8.447 -1.1173  3.6205 -2.1041
  822MOL0     H13396  12.408   8.796   8.515 -1.3052 -0.8365  0.9852
  822MOL0     H13397  12.346   8.950   8.452  0.6620  0.5378  1.0272
  822MOL0     H13398  12.699   8.987   8.826  1.9744  2.5523  2.3171
  822MOL0     H13399  12.961   8.953   8.876  2.4032 -1.2439  3.2487
  822MOL0     H13400  13.072   8.848   9.175 -1.8595 -0.0108  0.9349
  822MOL0     H13401  13.095   8.671   9.204  0.3210  0.9312 -0.7191
  822MOL0     H13402  13.304   8.768   9.195  1.6655 -0.1411  0.3155
  822MOL0     H13403  13.291   8.683   9.049 -2.1857 -0.9091 -0.0864
  822MOL0     H13404  13.245   8.981   9.079 -1.1338 -0.7954 -0.0179
  822MOL0     H13405  13.215   8.895   8.922 -1.9611 -2.3601  1.0488
  822MOL0     H13406  13.466   8.839   8.925  1.5716  0.5124  0.4883
  822MOL0     H13407  13.486   8.938   9.061  1.3181 -1.0402 -1.7178
  822MOL0     H13408  13.544   9.070   8.868  0.0631 -1.5774  1.2867
  822MOL0     H13409  13.403   9.023   8.776  0.2382 -0.1159 -1.0817
  822MOL0     H13410  13.405   9.198   9.032 -0.6172  0.0143  0.7062
  822MOL0     H13411  13.263   9.158   8.939  0.3522  0.6139  5.4376
  822MOL0     H13412  13.370   9.325   8.750  1.5508  4.1916 -0.5759
  822MOL0     H13413  13.520   9.309   8.840  0.6590  0.2599  0.8206
  822MOL0     H13414  13.388   9.413   9.034  0.2777  0.7436 -0.3787
  822MOL0     H13415  13.271   9.462   8.911  0.5525 -1.2582 -2.6987
  822MOL0     H13416  12.874   8.597   9.091 -0.0946 -2.1162 -2.0058
  822MOL0     H13417  12.625   8.629   9.052 -3.1421  2.3047  1.3817
  822MOL0     H13418  12.326   8.927   8.972 -1.0682  2.2431  0.9201
  822MOL0     H13419  12.083   8.971   8.973 -0.7248  1.1374 -1.3917
  822MOL0     H13420  11.306   9.716   7.315  1.1605 -0.6185 -1.2960
  822MOL0     H13421  11.074   9.704   7.247 -0.0370 -1.5409 -3.1381
  822MOL0     H13422  10.704   9.353   7.245  0.8181  0.9806  0.5342
  822MOL0     H13423  10.464   9.342   7.199  0.5388 -1.2883  0.4929
  822MOL0     H13424  10.215   9.445   7.487  0.5884 -1.4746 -0.4721
  822MOL0     H13425  10.190   9.616   7.432  2.0935 -0.2049 -1.1223
  822MOL0     H13426   9.970   9.471   7.445 -2.1182 -1.1333 -2.5018
  822MOL0     H13427  10.054   9.364   7.334 -2.6568  0.7588 -1.2571
  822MOL0     H13428  10.011   9.659   7.314 -2.5083 -1.9723  2.5367
  822MOL0     H13429  10.075   9.575   7.176  1.6859 -4.5219  0.2910
  822MOL0     H13430   9.815   9.446   7.232 -2.0717 -0.1437 -2.5970
  822MOL0     H13431   9.873   9.543   7.098  1.6851 -2.7758  0.3691
  822MOL0     H13432   9.622   9.813   7.319  0.3072  1.4289 -2.8911
  822MOL0     H13433  10.404   9.716   7.391 -0.2512 -0.7755 -0.2182
  822MOL0     H13434  10.560   9.833   7.487 -0.0537 -0.0220  1.4583
  822MOL0     H13435  10.673   9.740   7.570  1.5349 -2.0542 -1.2606
  822MOL0     H13436  10.719   9.827   7.420 -1.2646 -1.9306 -2.5684
  823MOL0     O13437   0.871   1.873   7.002  0.2184 -0.3776  0.6578
  823MOL0     C13438   0.803   1.915   6.907  0.3250  1.1868  0.1731
  823MOL0     O13439   0.838   1.908   6.785 -0.1691  0.8836  0.2049
  823MOL0     C13440   0.966   1.921   6.743  0.0933  0.6388  0.6021
  823MOL0     C13441   0.991   1.877   6.615 -0.7085 -0.7888  0.5692
  823MOL0     C13442   1.117   1.906   6.549  1.2307  0.1250 -0.6046
  823MOL0     C13443   1.210   1.985   6.613 -0.2148 -0.6791 -0.3805
  823MOL0     O13444   1.324   2.029   6.544 -0.2139 -0.1173  0.5861
  823MOL0     C13445   1.391   2.149   6.584 -0.3873 -1.0288  0.6859
  823MOL0     C13446   1.481   2.198   6.466  0.3800  0.4804  0.4241
  823MOL0     C13447   1.550   2.325   6.508 -0.0217 -0.4663  0.1299
  823MOL0     C13448   1.627   2.377   6.383  0.1277 -0.2527  0.6603
  823MOL0     C13449   1.695   2.517   6.405 -0.4796  0.1513 -0.3626
  823MOL0     C13450   1.827   2.510   6.487  0.0095 -0.1784  0.2549
  823MOL0     C13451   1.914   2.623   6.436  0.4734 -0.0150  0.6763
  823MOL0     C13452   2.045   2.628   6.503 -0.5771 -0.5738  0.5452
  823MOL0     N13453   2.145   2.535   6.452 -0.1427 -0.8843 -0.7198
  823MOL0     C13454   2.202   2.520   6.332  0.5586 -0.1875 -0.6607
  823MOL0     C13455   2.291   2.412   6.352 -0.1237  0.7284  0.7122
  823MOL0     C13456   2.362   2.332   6.243 -0.5745  0.9914  0.2350
  823MOL0     C13457   2.495   2.265   6.294 -0.6130  0.8155  1.1185
  823MOL0     C13458   2.569   2.201   6.171  0.0831  0.4805 -0.5670
  823MOL0     C13459   2.693   2.127   6.202 -0.3643  0.1161  0.3264
  823MOL0     O13460   2.789   2.215   6.265 -0.4266  0.3984 -0.0272
  823MOL0     C13461   2.912   2.165   6.303 -0.4784  0.3097 -0.2286
  823MOL0     C13462   3.006   2.260   6.327  0.1749  0.3141  0.0674
  823MOL0     C13463   3.129   2.221   6.378 -0.3042 -0.4648 -0.2156
  823MOL0     C13464   3.212   2.343   6.407  0.5069  0.8189  0.6128
  823MOL0     C13465   3.165   2.083   6.403  0.0755  0.3012  0.1377
  823MOL0     C13466   3.313   2.045   6.434 -0.0395  0.0005  0.2322
  823MOL0     O13467   3.330   1.951   6.533 -0.0135  0.0082 -0.8409
  823MOL0     C13468   3.432   1.962   6.621  0.9649  1.1592 -0.1443
  823MOL0     C13469   3.491   1.845   6.665  0.3249 -0.6492  0.1083
  823MOL0     C13470   3.584   1.838   6.768 -0.0399  0.4104  0.5252
  823MOL0     C13471   3.621   1.961   6.825  0.3957 -0.2870 -1.2975
  823MOL0     O13472   3.715   1.958   6.931 -0.1704 -0.3284 -0.2983
  823MOL0     C13473   3.719   1.852   7.025  0.7364  0.1846  0.9452
  823MOL0     C13474   3.740   1.896   7.168  0.0960 -0.1021  0.1033
  823MOL0     C13475   3.879   1.956   7.182  0.8501 -0.3797 -0.4157
  823MOL0     C13476   3.901   1.997   7.331  0.9182 -0.1292 -0.1652
  823MOL0     C13477   4.032   2.071   7.361  0.6445  0.3703  0.3862
  823MOL0     C13478   4.039   2.102   7.509 -0.2590 -0.3635  0.1818
  823MOL0     C13479   4.178   2.167   7.524 -0.0576  0.0494 -0.5516
  823MOL0     C13480   4.211   2.196   7.668  1.4057  0.2600 -0.2365
  823MOL0    Cl13481   4.123   2.345   7.725 -0.7376  0.1737 -0.1522
  823MOL0     C13482   3.561   2.081   6.781 -0.5415 -0.2723 -0.4510
  823MOL0     C13483   3.467   2.079   6.677 -1.0043 -0.8215 -0.5006
  823MOL0     O13484   3.405   2.102   6.378  0.1730  0.3262 -0.4749
  823MOL0     C13485   3.065   1.991   6.379 -0.5050  0.6457  0.3538
  823MOL0     C13486   2.949   2.024   6.306 -0.0271 -1.3106 -0.3181
  823MOL0     N13487   2.293   2.380   6.484  0.3636  0.7951 -0.5757
  823MOL0     N13488   2.208   2.456   6.542  0.0891  0.3410 -0.9630
  823MOL0     C13489   1.187   2.018   6.749 -0.8894  0.2242 -0.2327
  823MOL0     C13490   1.067   1.989   6.811 -0.1621  0.8866 -0.9289
  823MOL0     C13491   0.673   1.957   6.935  1.2157 -0.4175  0.0540
  823MOL0     C13492   0.617   2.049   6.845 -0.5753 -0.0218 -0.1427
  823MOL0     C13493   0.491   2.097   6.856  0.1218  0.8357  0.4677
  823MOL0     C13494   0.412   2.058   6.964  1.2472 -0.4904  0.1997
  823MOL0     O13495   0.290   2.115   6.993  0.0228  0.4649 -0.0516
  823MOL0     C13496   0.235   2.208   6.901  0.6473  0.2514 -0.4825
  823MOL0     C13497   0.287   2.344   6.926 -0.0890  0.1120  0.0206
  823MOL0     C13498   0.220   2.414   7.043  0.2063  0.4189  0.6097
  823MOL0     C13499   0.086   2.463   7.006 -0.0281 -0.5298 -0.0566
  823MOL0     C13500   0.018   2.543   7.111 -0.3321 -0.7396  0.0476
  823MOL0     C13501  -0.033   2.608   7.198 -0.8573 -0.1326 -0.7979
  823MOL0     C13502   0.463   1.973   7.053 -0.6408 -0.6360  0.0128
  823MOL0     C13503   0.599   1.914   7.046 -0.0787 -0.9412  0.3616
  823MOL0     C13504   0.649   1.822   7.153  0.0478  0.0400 -0.6556
  823MOL0     H13505   0.909   1.854   6.548 -0.2947 -0.7919  0.0540
  823MOL0     H13506   1.134   1.890   6.443 -2.1280  0.7610 -1.3316
  823MOL0     H13507   1.447   2.117   6.672 -2.1085 -0.0099  2.2352
  823MOL0     H13508   1.323   2.229   6.616 -1.1985 -2.1506  1.8726
  823MOL0     H13509   1.561   2.126   6.450  2.4490  2.3238  1.8055
  823MOL0     H13510   1.417   2.219   6.380 -0.1361 -2.4467 -0.0090
  823MOL0     H13511   1.479   2.400   6.546  0.0190 -0.5741  0.4248
  823MOL0     H13512   1.623   2.299   6.585 -1.1487  0.6988  1.6796
  823MOL0     H13513   1.710   2.309   6.363  1.1497  0.5671  1.9513
  823MOL0     H13514   1.562   2.377   6.295 -0.2110  1.1915  0.8914
  823MOL0     H13515   1.621   2.579   6.455 -2.1717 -1.0231 -1.3114
  823MOL0     H13516   1.715   2.549   6.302  1.6095 -1.6304 -0.5840
  823MOL0     H13517   1.798   2.532   6.591 -2.9709 -1.9126 -0.1142
  823MOL0     H13518   1.881   2.415   6.485 -1.2712 -0.9684  1.6446
  823MOL0     H13519   1.856   2.714   6.451  0.4327  0.6262 -2.6399
  823MOL0     H13520   1.933   2.626   6.329 -2.7259  0.9495  0.0234
  823MOL0     H13521   2.083   2.728   6.483  0.4006 -1.4210 -2.3425
  823MOL0     H13522   2.036   2.616   6.611  1.7081  1.1598  0.9872
  823MOL0     H13523   2.177   2.580   6.244 -0.9327 -1.5543 -1.2233
  823MOL0     H13524   2.382   2.402   6.161 -1.3589 -0.0786 -0.9017
  823MOL0     H13525   2.301   2.255   6.196 -0.2252  1.7680 -1.5872
  823MOL0     H13526   2.562   2.337   6.342  0.6425 -0.7049  1.7470
  823MOL0     H13527   2.491   2.188   6.372  4.5635 -1.5061 -0.4777
  823MOL0     H13528   2.509   2.152   6.093  0.4475  1.0502 -1.2215
  823MOL0     H13529   2.602   2.283   6.107 -1.2815  1.7220  0.2529
  823MOL0     H13530   2.669   2.052   6.278  0.0036  2.1644  2.5627
  823MOL0     H13531   2.729   2.074   6.113 -1.7450 -2.1536  1.0152
  823MOL0     H13532   2.977   2.363   6.311  2.3645  1.3129  1.9113
  823MOL0     H13533   3.163   2.421   6.466 -1.3600  0.6828 -0.6958
  823MOL0     H13534   3.240   2.394   6.315 -2.0029  1.4493  0.1340
  823MOL0     H13535   3.305   2.315   6.458  1.8243  1.2106 -1.4768
  823MOL0     H13536   3.465   1.752   6.615 -0.4336 -0.3643 -0.0385
  823MOL0     H13537   3.644   1.750   6.789  3.0439  0.7521 -4.8008
  823MOL0     H13538   3.627   1.792   7.025  0.4678  0.5897  0.9664
  823MOL0     H13539   3.803   1.791   6.991  0.9584  2.2551 -2.6784
  823MOL0     H13540   3.672   1.969   7.213  0.9252  0.1269  1.0275
  823MOL0     H13541   3.736   1.805   7.229  2.7905  1.8143  3.5296
  823MOL0     H13542   3.891   2.043   7.117 -0.2031  0.0648 -0.0402
  823MOL0     H13543   3.951   1.875   7.167 -0.0606 -1.2179 -0.4217
  823MOL0     H13544   3.906   1.911   7.398  1.1549 -0.3645 -0.4848
  823MOL0     H13545   3.812   2.052   7.363  0.7647 -0.5283  0.1041
  823MOL0     H13546   4.122   2.016   7.331  1.2625  1.4118  0.2776
  823MOL0     H13547   4.039   2.164   7.304  0.6703  1.9791  2.8848
  823MOL0     H13548   4.024   2.011   7.569 -0.5479 -3.2603 -3.9070
  823MOL0     H13549   3.961   2.178   7.524  0.9649  0.8117  0.8194
  823MOL0     H13550   4.184   2.261   7.469  0.6013 -0.7333 -1.9004
  823MOL0     H13551   4.254   2.101   7.481  1.0951  0.4335  0.8153
  823MOL0     H13552   4.320   2.207   7.672  1.6774 -1.6545 -1.2797
  823MOL0     H13553   4.187   2.111   7.732  3.3635 -1.0479 -1.1331
  823MOL0     H13554   3.588   2.172   6.835  0.4148  0.4346 -2.0209
  823MOL0     H13555   3.407   2.165   6.649  0.5741 -0.1655 -2.0214
  823MOL0     H13556   3.092   1.889   6.403 -2.9920 -0.5054 -1.3265
  823MOL0     H13557   2.879   1.948   6.275  2.1244 -3.2900 -0.5634
  823MOL0     H13558   1.258   2.075   6.808 -3.1371  2.9597  0.0641
  823MOL0     H13559   1.053   2.020   6.914 -1.1175  1.6787 -1.2750
  823MOL0     H13560   0.671   2.077   6.756  1.3648 -1.1202  0.6187
  823MOL0     H13561   0.462   2.163   6.774 -2.7024 -2.1823 -1.2109
  823MOL0     H13562   0.259   2.187   6.796  0.1675  3.4697 -1.3803
  823MOL0     H13563   0.127   2.209   6.916  0.5230 -1.7788 -0.9591
  823MOL0     H13564   0.272   2.403   6.836  1.2725  3.7798  1.9764
  823MOL0     H13565   0.395   2.338   6.942  0.3894 -0.0929 -2.7853
  823MOL0     H13566   0.206   2.340   7.122 -2.6418  0.5041  0.2789
  823MOL0     H13567   0.277   2.502   7.072 -2.7029  2.8403 -0.4372
  823MOL0     H13568   0.017   2.382   6.980 -0.6361  0.7101 -2.6366
  823MOL0     H13569   0.089   2.531   6.921 -3.0444 -2.0258 -1.5236
  823MOL0     H13570  -0.082   2.679   7.263 -0.2320 -0.3666 -0.0590
  823MOL0     H13571   0.406   1.937   7.138 -0.5978 -1.9835 -0.5143
  823MOL0     H13572   0.716   1.744   7.116  0.1090 -1.9829  3.1830
  823MOL0     H13573   0.697   1.865   7.241  0.1213 -2.2931  0.5136
  823MOL0     H13574   0.559   1.773   7.192  1.9144 -0.8837  2.9423
  824MOL0     O13575  11.039   5.411   3.003 -0.4358 -0.0771  0.1289
  824MOL0     C13576  10.984   5.419   2.893  0.0853  0.4477  0.5113
  824MOL0     O13577  11.038   5.459   2.772 -0.4454 -0.0448  0.6342
  824MOL0     C13578  11.165   5.504   2.775  0.5616  0.8937  0.2108
  824MOL0     C13579  11.202   5.632   2.808 -0.5206  0.0927 -0.1416
  824MOL0     C13580  11.333   5.680   2.782  0.2888 -0.0659 -0.4062
  824MOL0     C13581  11.433   5.598   2.728  0.6435  0.2419  0.0518
  824MOL0     O13582  11.563   5.632   2.712  0.2281  0.1920  0.4545
  824MOL0     C13583  11.626   5.663   2.837  0.2814 -1.1627 -0.3813
  824MOL0     C13584  11.775   5.649   2.805 -0.4295 -0.2524 -0.3050
  824MOL0     C13585  11.822   5.771   2.721 -0.1977  1.1691 -0.0917
  824MOL0     C13586  11.971   5.753   2.688 -0.5181  0.1694 -0.6181
  824MOL0     C13587  12.022   5.874   2.601  0.2243 -0.8187 -0.4754
  824MOL0     C13588  12.167   5.854   2.567 -0.3343  0.1471  0.1713
  824MOL0     C13589  12.219   5.968   2.492  0.2535 -0.3503 -0.7088
  824MOL0     C13590  12.367   5.945   2.448  0.0857  0.6341 -0.0776
  824MOL0     N13591  12.467   5.893   2.539  0.0853  0.1946  0.3117
  824MOL0     C13592  12.489   5.760   2.563  0.2014  0.0137  0.1884
  824MOL0     C13593  12.567   5.755   2.673 -0.3806 -0.6168 -0.2120
  824MOL0     C13594  12.625   5.628   2.724 -0.2215 -1.0683 -0.0654
  824MOL0     C13595  12.775   5.648   2.779 -1.5023 -0.6422  0.5965
  824MOL0     C13596  12.833   5.526   2.847 -0.2170  0.9451  0.8142
  824MOL0     C13597  12.836   5.397   2.766  0.7929  0.3138  0.6452
  824MOL0     O13598  12.919   5.426   2.654  0.3332 -0.4507 -0.3365
  824MOL0     C13599  13.041   5.361   2.638  0.2394 -0.2545 -0.2717
  824MOL0     C13600  13.055   5.222   2.663 -0.6364  0.4361  0.2793
  824MOL0     C13601  13.172   5.155   2.616  0.6761 -0.1980  2.3352
  824MOL0     C13602  13.177   5.008   2.636 -0.6627 -0.1331  0.6626
  824MOL0     C13603  13.269   5.225   2.543 -0.4299  0.5639 -0.7948
  824MOL0     C13604  13.392   5.161   2.474 -0.4074 -0.1456 -0.1435
  824MOL0     O13605  13.469   5.254   2.410 -0.1975 -0.1206  1.3621
  824MOL0     C13606  13.588   5.210   2.361  0.6248 -0.3969  0.5195
  824MOL0     C13607  13.704   5.247   2.421 -0.0839 -1.2842 -0.0512
  824MOL0     C13608  13.828   5.227   2.361 -0.3846  0.5824  0.3332
  824MOL0     C13609  13.847   5.163   2.236  0.0319  0.2992 -0.0973
  824MOL0     O13610  13.981   5.135   2.192  0.1645 -0.0852  0.3525
  824MOL0     C13611  13.994   5.099   2.052 -0.4449 -0.2599 -0.4580
  824MOL0     C13612  14.146   5.115   2.022  0.6660  0.3401  0.2571
  824MOL0     C13613  14.175   5.063   1.875 -0.3648 -0.1998 -1.0554
  824MOL0     C13614  14.328   5.069   1.853 -0.3951  0.2786  0.0473
  824MOL0     C13615  14.381   4.997   1.726  0.3178  0.3322  0.0749
  824MOL0     C13616  14.534   4.987   1.705  0.1161 -0.2227  0.1005
  824MOL0     C13617  14.556   4.880   1.598 -0.0527 -0.8193  0.3987
  824MOL0     C13618  14.560   4.739   1.654 -0.3506  0.1636 -0.2875
  824MOL0    Cl13619  14.725   4.702   1.729 -0.9041 -0.5029  0.3602
  824MOL0     C13620  13.725   5.120   2.176  0.2944 -0.1010  0.6955
  824MOL0     C13621  13.601   5.145   2.233  0.8870 -0.5483 -0.0324
  824MOL0     O13622  13.404   5.041   2.470  0.0180  1.1154  0.4840
  824MOL0     C13623  13.258   5.369   2.533 -0.0504  0.2617 -0.5115
  824MOL0     C13624  13.148   5.438   2.583  0.0548  0.4104  0.0661
  824MOL0     N13625  12.567   5.882   2.731 -0.1116  0.4724 -0.0845
  824MOL0     N13626  12.509   5.965   2.650  0.2466 -0.0117  0.4305
  824MOL0     C13627  11.398   5.471   2.692  0.0475  0.9730 -0.8438
  824MOL0     C13628  11.266   5.430   2.711 -0.5769  0.0485  0.9838
  824MOL0     C13629  10.838   5.373   2.895 -0.9954 -0.5005  0.3215
  824MOL0     C13630  10.779   5.360   3.017 -0.4068 -0.9857 -1.2478
  824MOL0     C13631  10.646   5.328   3.026 -0.2980 -0.3760  0.2258
  824MOL0     C13632  10.566   5.303   2.920  0.1191  0.0395 -0.7678
  824MOL0     O13633  10.448   5.254   2.964  0.1891  0.0019 -0.0081
  824MOL0     C13634  10.392   5.138   2.896  0.4102 -0.7083 -0.2920
  824MOL0     C13635  10.240   5.153   2.869  0.0968 -0.1984 -0.2946
  824MOL0     C13636  10.158   5.147   2.999 -0.2270  0.5202 -0.9821
  824MOL0     C13637  10.012   5.180   2.968  0.2819  0.0096 -0.3749
  824MOL0     C13638   9.921   5.083   2.917  0.2275  0.6706 -0.1562
  824MOL0     C13639   9.843   4.997   2.873  0.1465 -0.2299  0.5653
  824MOL0     C13640  10.621   5.318   2.798 -0.8816  0.3126  0.0409
  824MOL0     C13641  10.755   5.362   2.782  0.4992 -0.3721  0.0917
  824MOL0     C13642  10.803   5.386   2.645 -0.2904 -0.4629  0.0985
  824MOL0     H13643  11.125   5.693   2.854  1.5371  0.5992  2.8737
  824MOL0     H13644  11.355   5.782   2.810  1.8040  0.0448 -1.8604
  824MOL0     H13645  11.602   5.590   2.914 -0.3986  1.6859  2.3260
  824MOL0     H13646  11.598   5.760   2.880 -1.1690 -2.2509  1.2517
  824MOL0     H13647  11.824   5.645   2.903 -0.9941  2.2759  0.1387
  824MOL0     H13648  11.801   5.555   2.756  2.4775  0.8793 -1.1609
  824MOL0     H13649  11.761   5.767   2.630 -1.1779 -1.3652  0.6030
  824MOL0     H13650  11.798   5.863   2.775  0.5632  0.2358  1.9573
  824MOL0     H13651  12.018   5.750   2.787 -1.5128 -0.2652 -0.1488
  824MOL0     H13652  11.991   5.658   2.639  0.7791 -1.0769  2.0997
  824MOL0     H13653  12.004   5.969   2.652  0.2196 -0.9232 -0.2811
  824MOL0     H13654  11.967   5.881   2.506 -1.2715  0.7107  0.4385
  824MOL0     H13655  12.227   5.833   2.656  1.8237  0.5439 -1.1169
  824MOL0     H13656  12.190   5.761   2.514 -0.4672 -0.5219  1.2610
  824MOL0     H13657  12.206   6.056   2.555  0.5037 -0.4140 -0.5695
  824MOL0     H13658  12.162   5.985   2.400  1.4973  0.7993 -1.3022
  824MOL0     H13659  12.353   5.887   2.357 -0.5751 -0.2305  0.5625
  824MOL0     H13660  12.412   6.036   2.407 -1.4618  1.7025  0.4784
  824MOL0     H13661  12.448   5.676   2.508 -1.8005  0.3912  1.0311
  824MOL0     H13662  12.610   5.551   2.648  0.2798 -2.7229  1.4433
  824MOL0     H13663  12.566   5.595   2.810 -0.0749 -0.5472  0.2433
  824MOL0     H13664  12.849   5.690   2.711 -0.6950 -2.1308  0.5387
  824MOL0     H13665  12.768   5.721   2.861 -1.9191 -0.3456  0.3018
  824MOL0     H13666  12.936   5.555   2.873 -0.0269  1.4298 -0.4265
  824MOL0     H13667  12.780   5.501   2.940 -1.0665 -1.0150 -0.1474
  824MOL0     H13668  12.859   5.307   2.824 -3.8505 -1.8564 -0.4266
  824MOL0     H13669  12.735   5.391   2.724  1.3594 -0.5731 -0.6587
  824MOL0     H13670  12.979   5.162   2.711  0.3826 -0.3962  0.9124
  824MOL0     H13671  13.267   4.979   2.691  1.6906  1.3373 -2.1405
  824MOL0     H13672  13.182   4.963   2.536  1.6614  1.0492  0.1758
  824MOL0     H13673  13.088   4.974   2.690  0.4513 -2.1929  1.2967
  824MOL0     H13674  13.677   5.305   2.509  0.6573  0.2197 -0.7809
  824MOL0     H13675  13.921   5.256   2.410 -0.4133  1.1166  0.0842
  824MOL0     H13676  13.959   4.998   2.032 -2.9138  0.7986 -1.9938
  824MOL0     H13677  13.934   5.165   1.988 -1.6305  0.5415  1.3952
  824MOL0     H13678  14.169   5.221   2.032 -2.0225  0.9037  1.4840
  824MOL0     H13679  14.202   5.051   2.091  1.5404 -2.0549 -2.4895
  824MOL0     H13680  14.112   5.111   1.799  1.2271  1.2362 -1.5409
  824MOL0     H13681  14.148   4.957   1.868 -0.4933 -0.2440 -0.0271
  824MOL0     H13682  14.389   5.017   1.927  1.1983  0.1981 -1.2443
  824MOL0     H13683  14.358   5.174   1.841  2.4444 -0.5416 -1.0365
  824MOL0     H13684  14.356   4.892   1.743  3.4278 -0.5121  0.0607
  824MOL0     H13685  14.317   5.033   1.645  0.3902  0.1486 -0.0639
  824MOL0     H13686  14.588   4.952   1.794  0.8313 -1.6713 -0.8535
  824MOL0     H13687  14.579   5.080   1.668 -1.5683  0.2383 -0.9166
  824MOL0     H13688  14.639   4.911   1.534 -1.0493  1.6882  0.2395
  824MOL0     H13689  14.468   4.883   1.534 -1.7812 -1.7880  2.5689
  824MOL0     H13690  14.535   4.669   1.574 -1.4120 -1.1363  1.1282
  824MOL0     H13691  14.482   4.724   1.730  0.0938  1.2540  0.4066
  824MOL0     H13692  13.734   5.068   2.081 -1.9298  0.2446  0.2414
  824MOL0     H13693  13.511   5.121   2.177  0.4284  0.2027  0.3766
  824MOL0     H13694  13.328   5.427   2.473  0.3865 -0.2661 -0.5279
  824MOL0     H13695  13.136   5.544   2.567 -0.7040  0.5646  1.5420
  824MOL0     H13696  11.479   5.414   2.647 -0.2802  1.1841 -1.7274
  824MOL0     H13697  11.244   5.335   2.662  0.3830  0.1763  0.2826
  824MOL0     H13698  10.827   5.375   3.113 -2.3203 -0.4600 -0.3283
  824MOL0     H13699  10.606   5.312   3.125 -0.4518  0.3537  0.2899
  824MOL0     H13700  10.441   5.108   2.802  2.0634 -2.4901  1.0656
  824MOL0     H13701  10.398   5.049   2.958 -0.0756 -0.0329  0.7413
  824MOL0     H13702  10.214   5.075   2.796 -0.6726 -1.5805  1.3847
  824MOL0     H13703  10.225   5.247   2.815 -0.5116 -2.0958 -3.6917
  824MOL0     H13704  10.154   5.050   3.049  3.4492 -0.1111 -1.6382
  824MOL0     H13705  10.199   5.214   3.075  0.1610 -1.8289  1.0093
  824MOL0     H13706  10.009   5.267   2.902 -0.4436  0.0979 -0.2369
  824MOL0     H13707   9.968   5.208   3.064  1.1435 -0.7313  0.2587
  824MOL0     H13708   9.777   4.920   2.839  0.8137 -0.2279 -0.7881
  824MOL0     H13709  10.556   5.305   2.713 -0.8577  1.5855 -0.1875
  824MOL0     H13710  10.724   5.358   2.575 -0.9903 -1.6590  1.3052
  824MOL0     H13711  10.838   5.488   2.625  1.9861 -1.0675  0.6556
  824MOL0     H13712  10.883   5.316   2.619  0.4580 -1.1257  3.6687
  825MOL0     O13713   4.133   5.965   2.472  0.1434 -0.0590 -0.3065
  825MOL0     C13714   4.106   5.845   2.457  0.1391 -0.1962 -0.3106
  825MOL0     O13715   4.069   5.763   2.560 -0.6124  0.5230 -0.1205
  825MOL0     C13716   4.083   5.804   2.684 -0.2240  0.1499  0.0895
  825MOL0     C13717   4.210   5.833   2.742 -1.2899  0.1737 -0.0364
  825MOL0     C13718   4.222   5.862   2.879  0.7890  0.2324  0.4447
  825MOL0     C13719   4.104   5.882   2.951 -0.4459  0.0830 -0.7497
  825MOL0     O13720   4.103   5.918   3.083 -0.1118  0.8797 -0.3242
  825MOL0     C13721   4.219   5.962   3.149  0.6269  0.9905 -0.5399
  825MOL0     C13722   4.214   5.954   3.307 -0.3077  0.5006 -0.3025
  825MOL0     C13723   4.315   6.038   3.369  0.4020 -0.3622 -0.3500
  825MOL0     C13724   4.284   6.050   3.516  0.9329 -0.4530 -0.4413
  825MOL0     C13725   4.370   6.155   3.579 -0.2164 -0.0349 -0.1952
  825MOL0     C13726   4.282   6.273   3.648 -0.8959  0.0772 -0.0690
  825MOL0     C13727   4.389   6.372   3.696  0.1819 -0.1893  0.1154
  825MOL0     C13728   4.315   6.473   3.780  0.6343  0.6573 -0.7017
  825MOL0     N13729   4.390   6.580   3.815  0.0333 -0.7713 -0.1018
  825MOL0     C13730   4.428   6.607   3.943 -0.4577 -0.3065 -0.4003
  825MOL0     C13731   4.484   6.735   3.925 -0.1529 -0.0384  0.5758
  825MOL0     C13732   4.560   6.821   4.022  0.0105  0.7645 -0.0193
  825MOL0     C13733   4.678   6.892   3.961 -0.5881 -0.0226  0.2050
  825MOL0     C13734   4.739   6.980   4.072  0.6496 -0.5065  0.0676
  825MOL0     C13735   4.890   6.985   4.049 -0.5251  0.3828  0.5016
  825MOL0     O13736   4.914   7.035   3.913  0.1044 -0.6361  0.0447
  825MOL0     C13737   4.942   7.171   3.906  0.3164  0.2819  0.7549
  825MOL0     C13738   5.069   7.207   3.953  0.5524  0.4130  0.8454
  825MOL0     C13739   5.116   7.339   3.943  0.6691  0.6599  0.5751
  825MOL0     C13740   5.252   7.369   4.012  0.0576  0.5198  0.1755
  825MOL0     C13741   5.040   7.430   3.864  0.1149 -0.4707 -0.3695
  825MOL0     C13742   5.073   7.576   3.845  0.0219 -1.3354  0.4185
  825MOL0     O13743   5.200   7.611   3.800  0.3287  0.2935 -0.2968
  825MOL0     C13744   5.239   7.738   3.808 -0.5057  0.3706  1.1704
  825MOL0     C13745   5.333   7.771   3.906  0.9015  0.4132 -0.8425
  825MOL0     C13746   5.408   7.890   3.898  0.8191 -0.4111 -0.1218
  825MOL0     C13747   5.385   7.982   3.792  0.0073 -0.2953  0.7583
  825MOL0     O13748   5.450   8.100   3.774 -0.2155 -0.2319 -0.1380
  825MOL0     C13749   5.448   8.189   3.892 -0.0005 -0.7292 -0.2419
  825MOL0     C13750   5.307   8.239   3.936  0.4403  0.9321  0.4201
  825MOL0     C13751   5.212   8.280   3.825 -0.0362 -0.2699  0.0335
  825MOL0     C13752   5.269   8.387   3.732  0.2155  0.0517  0.1766
  825MOL0     C13753   5.316   8.523   3.795 -0.3916  0.0984  0.4254
  825MOL0     C13754   5.376   8.619   3.690  0.3494 -0.6754 -0.5554
  825MOL0     C13755   5.477   8.711   3.751 -0.1883 -0.3600  0.1821
  825MOL0     C13756   5.408   8.828   3.830 -0.1388 -0.2404 -0.1188
  825MOL0    Cl13757   5.375   8.763   4.000 -0.1180  0.1884 -0.3359
  825MOL0     C13758   5.285   7.950   3.699  0.0295 -0.3465 -0.3691
  825MOL0     C13759   5.222   7.828   3.707  0.0097  0.2751  0.1218
  825MOL0     O13760   4.987   7.657   3.892  1.0469  0.1647 -0.3502
  825MOL0     C13761   4.920   7.394   3.810  0.1766  0.3116  0.0010
  825MOL0     C13762   4.860   7.267   3.833  0.3595 -1.1907 -0.3518
  825MOL0     N13763   4.471   6.772   3.794 -0.3298 -0.3906 -0.3494
  825MOL0     N13764   4.420   6.676   3.728 -0.8510 -0.7845 -0.1552
  825MOL0     C13765   3.977   5.840   2.895 -0.0172  0.2481 -0.8364
  825MOL0     C13766   3.969   5.801   2.767  0.2823 -0.5645  0.0199
  825MOL0     C13767   4.101   5.778   2.326 -0.1337  0.0358  0.5355
  825MOL0     C13768   4.041   5.655   2.296  0.6799  0.1484 -0.7862
  825MOL0     C13769   4.061   5.583   2.181  0.1161 -1.2096  0.2779
  825MOL0     C13770   4.140   5.633   2.073 -0.1269 -0.6784  0.2515
  825MOL0     O13771   4.147   5.584   1.949 -0.5131 -0.1949  0.3301
  825MOL0     C13772   4.106   5.446   1.921  0.2667 -1.2325  1.0239
  825MOL0     C13773   4.189   5.326   1.990  0.3006 -0.2170 -0.1740
  825MOL0     C13774   4.154   5.192   1.913  0.4764  0.1267  0.1912
  825MOL0     C13775   4.013   5.134   1.950  0.4084 -0.4493  0.0888
  825MOL0     C13776   3.894   5.196   1.881  0.0157 -0.1996 -0.6056
  825MOL0     C13777   3.803   5.223   1.801 -0.9920 -0.7535  0.3060
  825MOL0     C13778   4.199   5.753   2.091 -0.4383  0.1042  0.1302
  825MOL0     C13779   4.178   5.827   2.219 -0.2522  0.5068  0.3313
  825MOL0     C13780   4.255   5.948   2.224 -0.6348 -0.8707 -0.2403
  825MOL0     H13781   4.299   5.825   2.681  0.8136  0.9971  2.6940
  825MOL0     H13782   4.324   5.879   2.912  0.6047  0.5538  0.8524
  825MOL0     H13783   4.234   6.068   3.122 -1.6224  0.9872 -2.0557
  825MOL0     H13784   4.313   5.913   3.123 -0.5679 -0.5042 -2.2849
  825MOL0     H13785   4.118   5.996   3.338  0.1133  1.4677 -0.2540
  825MOL0     H13786   4.210   5.849   3.338  0.5751 -0.4913 -3.2102
  825MOL0     H13787   4.415   5.997   3.352 -0.2303 -1.9655 -0.3685
  825MOL0     H13788   4.310   6.138   3.325 -0.5861 -0.2746 -0.0558
  825MOL0     H13789   4.180   6.074   3.540  1.3217  0.3288  0.5335
  825MOL0     H13790   4.289   5.955   3.571 -0.1108  0.0849  0.6290
  825MOL0     H13791   4.435   6.202   3.505  0.8661 -0.6327  0.3460
  825MOL0     H13792   4.431   6.111   3.658 -2.6411 -1.2667  1.1058
  825MOL0     H13793   4.209   6.314   3.577  1.3226 -1.0657 -3.2669
  825MOL0     H13794   4.229   6.233   3.735 -0.2906  1.8346  1.1625
  825MOL0     H13795   4.439   6.415   3.608 -1.5326  1.2560 -0.2243
  825MOL0     H13796   4.458   6.326   3.767  0.3397 -1.4641 -0.8328
  825MOL0     H13797   4.230   6.503   3.717  1.2258  0.5606 -1.5680
  825MOL0     H13798   4.275   6.444   3.878  0.6628 -1.2660 -1.2179
  825MOL0     H13799   4.411   6.558   4.038 -0.5657  0.9542  0.2548
  825MOL0     H13800   4.597   6.765   4.109  0.1099  1.1047  0.1608
  825MOL0     H13801   4.489   6.890   4.068 -0.9312  0.0554 -0.3792
  825MOL0     H13802   4.751   6.816   3.932 -0.3666 -0.6713  2.2979
  825MOL0     H13803   4.646   6.956   3.878 -0.7506  1.4158  1.3287
  825MOL0     H13804   4.695   7.080   4.074  2.5551  0.3773  2.7767
  825MOL0     H13805   4.720   6.929   4.166 -0.0639  2.7475  1.8326
  825MOL0     H13806   4.942   7.042   4.126  1.9861  0.7471 -1.3239
  825MOL0     H13807   4.933   6.885   4.056 -1.7816 -0.3103 -1.0495
  825MOL0     H13808   5.124   7.130   4.005 -0.6238 -0.6813  0.5206
  825MOL0     H13809   5.327   7.309   3.960 -0.0397  1.3602 -0.9966
  825MOL0     H13810   5.251   7.344   4.118  2.1009 -0.1223  0.0761
  825MOL0     H13811   5.282   7.474   3.999  0.3315  0.6071  1.4088
  825MOL0     H13812   5.341   7.707   3.993  1.1245  3.2977  1.4106
  825MOL0     H13813   5.466   7.918   3.985  0.7258  1.6932 -0.6833
  825MOL0     H13814   5.491   8.129   3.972 -1.7093 -0.7643  0.6895
  825MOL0     H13815   5.503   8.283   3.881 -0.3610 -0.3328  1.1425
  825MOL0     H13816   5.260   8.153   3.983  0.4111 -0.1949 -1.5472
  825MOL0     H13817   5.314   8.318   4.011  1.2465  0.1292  1.2280
  825MOL0     H13818   5.123   8.321   3.874  0.4558  1.9728 -0.7930
  825MOL0     H13819   5.191   8.194   3.761  0.9324 -0.6329  0.1890
  825MOL0     H13820   5.196   8.414   3.655  0.5963 -0.0689 -0.2268
  825MOL0     H13821   5.346   8.334   3.676 -0.8773 -2.2636  0.7259
  825MOL0     H13822   5.241   8.554   3.868 -1.5600  1.6947 -1.3714
  825MOL0     H13823   5.406   8.493   3.850  0.4363 -2.4225 -2.0435
  825MOL0     H13824   5.308   8.675   3.626 -0.7090 -3.2358 -1.7919
  825MOL0     H13825   5.430   8.559   3.615  0.5684  0.3705 -1.2547
  825MOL0     H13826   5.529   8.748   3.663  0.9439 -1.3205  0.4227
  825MOL0     H13827   5.555   8.656   3.805 -0.0210 -1.6123 -1.2600
  825MOL0     H13828   5.313   8.861   3.786 -1.0590 -0.8839  1.3342
  825MOL0     H13829   5.483   8.908   3.841  0.7788 -1.0663 -0.2049
  825MOL0     H13830   5.264   8.027   3.626 -2.1941 -0.8523 -0.3450
  825MOL0     H13831   5.162   7.802   3.620 -0.6029 -1.7076  1.0778
  825MOL0     H13832   4.862   7.472   3.761 -0.5057  0.5341  1.1151
  825MOL0     H13833   4.764   7.248   3.788  0.2725  0.6208 -1.0369
  825MOL0     H13834   3.886   5.837   2.955 -1.9704 -3.2986 -3.5708
  825MOL0     H13835   3.873   5.777   2.723 -1.0475  1.6182  1.5360
  825MOL0     H13836   3.981   5.602   2.369  0.6740 -3.1701 -2.9608
  825MOL0     H13837   4.010   5.488   2.181 -1.1065 -0.5815 -0.5751
  825MOL0     H13838   4.003   5.445   1.957  0.1840  2.3853  1.2148
  825MOL0     H13839   4.104   5.433   1.812  2.4186  0.0390  0.7896
  825MOL0     H13840   4.175   5.323   2.098 -1.7925 -0.4191 -0.4006
  825MOL0     H13841   4.295   5.348   1.974  0.3594 -0.0244  0.4529
  825MOL0     H13842   4.170   5.201   1.805 -0.4754  0.0457  0.0309
  825MOL0     H13843   4.230   5.119   1.941 -0.6647 -1.4667 -0.6918
  825MOL0     H13844   4.006   5.141   2.059  0.2408 -0.5425  0.0841
  825MOL0     H13845   4.010   5.030   1.915  0.4916 -0.8526  1.2633
  825MOL0     H13846   3.729   5.232   1.725 -0.2282 -2.9163 -0.7609
  825MOL0     H13847   4.245   5.801   2.005 -4.1164 -0.6262 -2.4569
  825MOL0     H13848   4.331   5.940   2.303 -0.2815 -0.1692 -0.5068
  825MOL0     H13849   4.302   5.967   2.127  0.3122 -1.6878  0.0300
  825MOL0     H13850   4.204   6.039   2.256  0.0237  0.7735 -3.4309
  826MOL0     O13851   4.104   0.534   7.239  0.0293 -0.6262 -0.4970
  826MOL0     C13852   4.070   0.500   7.125  1.2038  0.1693 -0.0476
  826MOL0     O13853   4.125   0.402   7.052 -0.6327 -0.3085 -0.0839
  826MOL0     C13854   4.265   0.384   7.054 -0.0076 -0.0554  0.3176
  826MOL0     C13855   4.369   0.474   7.090  0.8141  0.2748 -0.2992
  826MOL0     C13856   4.503   0.432   7.079 -0.2201  0.4098 -0.3360
  826MOL0     C13857   4.535   0.299   7.049  0.6038  0.5330  0.5727
  826MOL0     O13858   4.669   0.285   7.054 -0.2528 -0.2848  0.0698
  826MOL0     C13859   4.742   0.180   6.982  0.7700  0.1942 -0.2531
  826MOL0     C13860   4.888   0.200   6.972 -0.1320 -0.1843  0.6616
  826MOL0     C13861   4.947   0.180   7.116  0.2230  0.4144  0.1201
  826MOL0     C13862   5.092   0.213   7.103 -0.3719 -0.1063 -0.0604
  826MOL0     C13863   5.165   0.247   7.237 -0.6819  0.2092  0.9929
  826MOL0     C13864   5.293   0.327   7.205  1.1800  0.9016 -1.3594
  826MOL0     C13865   5.317   0.421   7.320 -0.1578  0.5323  0.4742
  826MOL0     C13866   5.347   0.347   7.455 -0.4871 -0.4586  0.2684
  826MOL0     N13867   5.460   0.255   7.464  0.2161  0.3525  0.0664
  826MOL0     C13868   5.590   0.272   7.418 -0.0751 -0.2026 -0.1732
  826MOL0     C13869   5.660   0.156   7.432 -1.4991 -0.1159  0.0174
  826MOL0     C13870   5.803   0.122   7.385 -0.9660  0.2613 -0.0419
  826MOL0     C13871   5.916   0.137   7.490  0.2388  0.9337  0.7307
  826MOL0     C13872   5.909   0.256   7.583  0.2427 -0.3642 -0.4245
  826MOL0     C13873   6.047   0.283   7.645  0.4559  0.3765 -0.2188
  826MOL0     O13874   6.092   0.171   7.721  1.0190  0.3814  0.3194
  826MOL0     C13875   6.224   0.149   7.729 -0.2523 -0.3424  0.0481
  826MOL0     C13876   6.266   0.020   7.751 -0.4213  0.5812  0.4940
  826MOL0     C13877   6.397  -0.018   7.758 -0.3356  0.9154  0.1193
  826MOL0     C13878   6.425  -0.168   7.774 -0.7691 -0.4322 -0.1372
  826MOL0     C13879   6.500   0.083   7.744  0.2603 -0.3080  0.3518
  826MOL0     C13880   6.644   0.053   7.757 -0.3599 -1.1337 -0.6374
  826MOL0     O13881   6.682  -0.072   7.721  0.7539 -0.6273 -0.0287
  826MOL0     C13882   6.818  -0.091   7.723  0.0736 -0.2195  0.8366
  826MOL0     C13883   6.900  -0.095   7.602  0.5252 -0.8279  0.6734
  826MOL0     C13884   7.040  -0.090   7.613 -0.4605  0.1115 -0.1654
  826MOL0     C13885   7.097  -0.079   7.735 -1.1716 -0.3075 -0.0053
  826MOL0     O13886   7.232  -0.054   7.734  0.2419 -0.4834  0.2767
  826MOL0     C13887   7.312  -0.047   7.856  0.0151 -0.5919  0.1478
  826MOL0     C13888   7.459  -0.025   7.817  0.0688 -0.1371 -0.8546
  826MOL0     C13889   7.516  -0.164   7.783  1.1283  0.0282  0.2673
  826MOL0     C13890   7.665  -0.172   7.781 -0.6802 -0.3029 -0.1346
  826MOL0     C13891   7.728  -0.137   7.651  0.2711 -0.5697  0.4547
  826MOL0     C13892   7.877  -0.133   7.652 -0.7495 -0.4053  0.1173
  826MOL0     C13893   7.923   0.011   7.690 -0.2401 -0.2107 -0.1453
  826MOL0     C13894   8.085   0.021   7.708 -0.1522  0.0748  0.1808
  826MOL0    Cl13895   8.182  -0.024   7.557 -0.0795  0.0675  0.1641
  826MOL0     C13896   7.019  -0.091   7.850  0.5216  0.4588 -0.3064
  826MOL0     C13897   6.882  -0.091   7.849 -0.8088 -0.1857 -0.5600
  826MOL0     O13898   6.721   0.147   7.780 -0.5194  0.2219  0.2435
  826MOL0     C13899   6.462   0.213   7.720 -0.3959  0.6827  0.3864
  826MOL0     C13900   6.329   0.240   7.702  0.3043 -0.4543  0.2354
  826MOL0     N13901   5.571   0.066   7.490 -0.4837  0.3454  0.8041
  826MOL0     N13902   5.458   0.126   7.516  0.1658  0.7839 -0.1186
  826MOL0     C13903   4.441   0.213   6.999  0.2413  1.2708 -0.2040
  826MOL0     C13904   4.302   0.254   7.005 -0.1837  0.2256  0.0915
  826MOL0     C13905   3.965   0.575   7.056 -0.3689  0.6513  0.5686
  826MOL0     C13906   3.995   0.600   6.918  0.3517  0.2415  0.2736
  826MOL0     C13907   3.913   0.674   6.830 -0.3578 -0.4579  0.2268
  826MOL0     C13908   3.802   0.727   6.885  0.5687 -0.4613  0.0909
  826MOL0     O13909   3.711   0.787   6.801  0.2960 -0.3273  0.2108
  826MOL0     C13910   3.613   0.882   6.855  0.0004  0.2515 -0.2202
  826MOL0     C13911   3.527   0.917   6.734 -0.3240  0.4793 -0.1607
  826MOL0     C13912   3.399   0.823   6.703 -0.4394  0.2398 -0.6177
  826MOL0     C13913   3.443   0.680   6.697  0.4628  0.6407  0.2297
  826MOL0     C13914   3.329   0.594   6.662  0.0272  0.5775  0.2948
  826MOL0     C13915   3.225   0.525   6.637 -0.7324 -0.3143 -0.9059
  826MOL0     C13916   3.770   0.711   7.021 -0.0811  0.2659 -0.3692
  826MOL0     C13917   3.852   0.640   7.099 -0.8296 -0.3307  0.3764
  826MOL0     C13918   3.810   0.636   7.245  0.4262  0.5124 -0.5377
  826MOL0     H13919   4.342   0.574   7.124 -1.4406  0.6008 -2.6961
  826MOL0     H13920   4.588   0.499   7.092  1.0669 -0.7693 -2.2054
  826MOL0     H13921   4.702   0.184   6.880 -0.7568 -0.8606  0.2817
  826MOL0     H13922   4.728   0.088   7.039  2.5754  0.8843  1.3974
  826MOL0     H13923   4.926   0.127   6.901 -1.2383  0.1686 -0.3247
  826MOL0     H13924   4.917   0.300   6.939  3.8243 -0.8750  1.5155
  826MOL0     H13925   4.913   0.257   7.185  2.3092  0.9704  0.5888
  826MOL0     H13926   4.927   0.080   7.157 -0.2092  0.4633  0.0377
  826MOL0     H13927   5.137   0.124   7.057 -1.4407 -0.3240 -0.7536
  826MOL0     H13928   5.107   0.300   7.040 -2.9898 -1.5645 -3.0165
  826MOL0     H13929   5.204   0.162   7.294  0.9994 -0.0398 -0.4535
  826MOL0     H13930   5.086   0.301   7.290 -1.6986 -1.6147  1.4238
  826MOL0     H13931   5.378   0.259   7.191 -0.0789 -1.2421  0.5570
  826MOL0     H13932   5.274   0.378   7.111 -1.7089 -2.4852 -2.8711
  826MOL0     H13933   5.225   0.474   7.345 -0.3585  0.1658  0.5246
  826MOL0     H13934   5.407   0.481   7.300  0.6377 -1.4520 -2.7091
  826MOL0     H13935   5.360   0.426   7.530 -0.9646  2.3290 -2.3974
  826MOL0     H13936   5.258   0.291   7.485 -0.3537 -0.3157  0.9561
  826MOL0     H13937   5.636   0.355   7.366  1.3155 -1.5050 -1.0810
  826MOL0     H13938   5.821   0.193   7.304  1.5514  0.8338  0.9355
  826MOL0     H13939   5.817   0.024   7.338 -0.1640  1.4266 -2.3543
  826MOL0     H13940   5.919   0.044   7.547  0.1961 -1.5202 -2.9429
  826MOL0     H13941   6.009   0.126   7.433  0.6685 -0.9762  1.7410
  826MOL0     H13942   5.875   0.341   7.524 -1.5542  0.5100  1.7276
  826MOL0     H13943   5.834   0.229   7.658  1.7490 -0.6107  1.0545
  826MOL0     H13944   6.114   0.308   7.562  2.7123 -5.9961 -0.8787
  826MOL0     H13945   6.037   0.370   7.711 -1.5066 -0.8698  1.2355
  826MOL0     H13946   6.187  -0.054   7.751 -0.6416  0.8009 -0.6957
  826MOL0     H13947   6.505  -0.180   7.848 -0.0865 -0.1090 -0.8213
  826MOL0     H13948   6.455  -0.222   7.684  0.9156 -1.2761  0.8748
  826MOL0     H13949   6.336  -0.227   7.803 -0.1082 -1.6673 -0.5432
  826MOL0     H13950   6.847  -0.100   7.507  0.1924  2.6631  0.5473
  826MOL0     H13951   7.109  -0.104   7.530  2.8930 -0.7038  2.5271
  826MOL0     H13952   7.261   0.028   7.918  1.6340  1.1023 -0.4774
  826MOL0     H13953   7.300  -0.136   7.919 -0.0293  1.3865  3.1373
  826MOL0     H13954   7.476   0.040   7.731  2.0037  2.0507  1.0579
  826MOL0     H13955   7.516   0.017   7.900 -0.1987 -1.8929  0.2835
  826MOL0     H13956   7.477  -0.190   7.684 -0.6923 -0.7567  1.1460
  826MOL0     H13957   7.479  -0.244   7.847  2.2819 -0.3731  0.4706
  826MOL0     H13958   7.692  -0.271   7.820  1.7020 -0.1638 -1.2441
  826MOL0     H13959   7.705  -0.101   7.855  1.8652  0.5538 -2.1723
  826MOL0     H13960   7.682  -0.202   7.575 -1.3426  1.2540 -0.2128
  826MOL0     H13961   7.695  -0.035   7.629 -0.7493 -1.5089 -2.9700
  826MOL0     H13962   7.923  -0.155   7.556  0.8961  3.5662 -0.2047
  826MOL0     H13963   7.915  -0.199   7.730  0.3500 -0.1892 -0.2241
  826MOL0     H13964   7.873   0.030   7.785 -0.1715 -2.3329  0.3611
  826MOL0     H13965   7.896   0.080   7.609 -0.5800 -1.7298 -1.3908
  826MOL0     H13966   8.107  -0.047   7.790  1.5025 -0.2111 -0.4681
  826MOL0     H13967   8.103   0.122   7.745 -1.1479  2.0782 -4.0892
  826MOL0     H13968   7.067  -0.094   7.947  2.1143 -1.6273 -1.1031
  826MOL0     H13969   6.829  -0.087   7.943  2.7267 -2.5885  1.7575
  826MOL0     H13970   6.541   0.286   7.726  1.1370 -0.9662  1.5569
  826MOL0     H13971   6.306   0.344   7.682  4.9872  1.0140  1.3059
  826MOL0     H13972   4.471   0.115   6.963  2.7170  2.0206 -0.3137
  826MOL0     H13973   4.223   0.187   6.973  2.2329 -2.8233  0.1045
  826MOL0     H13974   4.075   0.553   6.862  0.7227  0.8900  0.2474
  826MOL0     H13975   3.935   0.678   6.724  1.4794  0.6730  0.6146
  826MOL0     H13976   3.552   0.844   6.937  3.0645 -3.0689  0.7724
  826MOL0     H13977   3.665   0.975   6.880 -1.1911  1.6869 -2.7115
  826MOL0     H13978   3.579   0.920   6.638 -0.8046 -2.3322 -0.6023
  826MOL0     H13979   3.484   1.015   6.757 -3.1177 -0.8696  0.8922
  826MOL0     H13980   3.321   0.828   6.780 -0.5140  1.0626 -0.7422
  826MOL0     H13981   3.352   0.864   6.613  0.2396  0.6035 -0.8074
  826MOL0     H13982   3.471   0.656   6.800 -0.2991 -1.6253 -0.0436
  826MOL0     H13983   3.513   0.665   6.614 -2.0919  0.6619 -2.0776
  826MOL0     H13984   3.137   0.469   6.613 -1.9208  1.9669 -2.2843
  826MOL0     H13985   3.673   0.741   7.058 -0.8506 -1.0057 -1.2568
  826MOL0     H13986   3.860   0.556   7.300  0.8565 -0.5172 -2.3722
  826MOL0     H13987   3.829   0.722   7.311 -1.6727  0.7050 -0.1199
  826MOL0     H13988   3.702   0.624   7.242  0.1209  2.8291 -1.4081
  827MOL0     O13989   4.311   9.173   8.874  0.6794  0.5149 -0.2843
  827MOL0     C13990   4.194   9.165   8.912  0.3408 -1.0767  0.3043
  827MOL0     O13991   4.116   9.273   8.957  0.3363  0.1549  0.1605
  827MOL0     C13992   4.151   9.401   8.936  0.5431 -0.1685  0.4577
  827MOL0     C13993   4.191   9.459   8.814 -0.9262  0.0678  0.4726
  827MOL0     C13994   4.234   9.596   8.802  0.2834  0.3883 -0.8050
  827MOL0     C13995   4.228   9.675   8.921 -0.3616  0.6263 -1.2147
  827MOL0     O13996   4.283   9.800   8.930  0.2108  0.3971  0.2545
  827MOL0     C13997   4.314   9.875   8.810  0.1696 -0.0503  0.0961
  827MOL0     C13998   4.295  10.031   8.831 -0.0494  0.0818  0.8274
  827MOL0     C13999   4.337  10.101   8.702  0.3142 -0.6921 -0.8410
  827MOL0     C14000   4.478  10.170   8.730 -0.8691 -0.3206  0.1904
  827MOL0     C14001   4.541  10.251   8.621 -0.5206  0.0449 -0.2263
  827MOL0     C14002   4.658  10.337   8.655 -0.2277  0.2035  0.2886
  827MOL0     C14003   4.757  10.258   8.742 -0.2654 -0.6022 -0.8972
  827MOL0     C14004   4.885  10.331   8.774 -0.2173  0.2839 -0.3587
  827MOL0     N14005   4.981  10.241   8.830  0.0128 -0.0443  0.4932
  827MOL0     C14006   5.055  10.153   8.751 -0.0498 -0.6534  0.3961
  827MOL0     C14007   5.114  10.079   8.834 -0.1526 -0.2024 -0.3670
  827MOL0     C14008   5.211   9.966   8.803 -0.0029 -1.1521  0.4498
  827MOL0     C14009   5.127   9.862   8.736 -0.2628 -0.1549  0.6203
  827MOL0     C14010   5.207   9.743   8.702 -0.3198  0.1168  0.5488
  827MOL0     C14011   5.129   9.616   8.654 -0.2967  0.3060  0.1193
  827MOL0     O14012   5.056   9.645   8.537  0.2452  0.8005  0.5467
  827MOL0     C14013   5.060   9.550   8.436 -0.5219 -0.7112 -0.5246
  827MOL0     C14014   5.126   9.426   8.434 -0.2539 -0.0037  0.7273
  827MOL0     C14015   5.125   9.338   8.325 -0.4621 -0.0658  1.4835
  827MOL0     C14016   5.192   9.201   8.331 -0.3330 -0.2515 -0.0870
  827MOL0     C14017   5.042   9.374   8.212  0.0626 -0.2067 -0.3707
  827MOL0     C14018   5.021   9.295   8.096 -0.2118  0.6415  0.2933
  827MOL0     O14019   4.994   9.165   8.116 -1.1127  0.1135 -0.5240
  827MOL0     C14020   4.963   9.091   8.012 -0.9699  0.0516  0.1251
  827MOL0     C14021   4.835   9.094   7.962  0.4799 -0.3708 -0.2307
  827MOL0     C14022   4.809   9.028   7.842  0.4439 -0.2483  0.7431
  827MOL0     C14023   4.914   8.957   7.766  0.5604  0.0224 -0.5704
  827MOL0     O14024   4.899   8.897   7.646 -0.4216 -0.5699 -0.0397
  827MOL0     C14025   4.762   8.887   7.587  0.3584  0.1643 -0.0484
  827MOL0     C14026   4.787   8.811   7.457 -0.1534  0.2439  0.2070
  827MOL0     C14027   4.661   8.771   7.385  0.3210 -0.2136 -0.0497
  827MOL0     C14028   4.686   8.699   7.245  0.4479  0.7427 -0.4480
  827MOL0     C14029   4.559   8.664   7.169 -0.2752  0.3738  0.4924
  827MOL0     C14030   4.475   8.565   7.239 -0.4478  0.0854  0.4194
  827MOL0     C14031   4.364   8.506   7.146 -0.4740  0.5154 -0.0852
  827MOL0     C14032   4.285   8.387   7.205 -0.0826 -0.4050  0.2426
  827MOL0    Cl14033   4.197   8.446   7.354  0.6008 -0.0065 -0.1868
  827MOL0     C14034   5.038   8.968   7.822 -0.8091 -0.6277  0.8367
  827MOL0     C14035   5.067   9.028   7.942 -0.2174  0.0938  0.2649
  827MOL0     O14036   5.030   9.343   7.980  0.1184  0.7271 -0.7574
  827MOL0     C14037   4.973   9.491   8.214  0.0032 -0.0766 -0.5474
  827MOL0     C14038   4.976   9.572   8.323  0.3227 -0.7412  0.0861
  827MOL0     N14039   5.076  10.113   8.962  0.1959 -0.4060  0.6453
  827MOL0     N14040   4.987  10.209   8.960 -0.9891 -0.5748  0.5436
  827MOL0     C14041   4.191   9.615   9.045  0.3637  0.3648 -0.1705
  827MOL0     C14042   4.144   9.482   9.045 -0.5487  0.3039  0.0181
  827MOL0     C14043   4.122   9.037   8.932  0.3468 -0.1440  0.9882
  827MOL0     C14044   3.981   9.043   8.970  0.1623  0.6399  0.3366
  827MOL0     C14045   3.900   8.929   8.956 -0.1516 -0.8815 -0.5139
  827MOL0     C14046   3.954   8.803   8.919 -0.0972  0.5468  0.0493
  827MOL0     O14047   3.880   8.693   8.887 -0.8129  0.7127 -0.0264
  827MOL0     C14048   3.735   8.691   8.888  0.8290 -0.5719 -0.6495
  827MOL0     C14049   3.672   8.644   9.014  0.7567  0.0168 -0.5150
  827MOL0     C14050   3.747   8.526   9.062  0.0582  0.1987 -0.0407
  827MOL0     C14051   3.679   8.441   9.173  0.0843  0.3314  0.6349
  827MOL0     C14052   3.688   8.521   9.297  0.6723  0.1370 -0.2191
  827MOL0     C14053   3.699   8.585   9.402 -0.1851 -0.7714  1.0907
  827MOL0     C14054   4.092   8.792   8.897 -0.5822  0.0944  0.8394
  827MOL0     C14055   4.175   8.910   8.894  1.0111 -0.4278  0.0883
  827MOL0     C14056   4.322   8.897   8.860 -0.1231  0.8208  0.5775
  827MOL0     H14057   4.198   9.393   8.729 -1.6977  0.5376  0.0344
  827MOL0     H14058   4.267   9.636   8.707 -0.0022  0.8434 -0.7124
  827MOL0     H14059   4.244   9.855   8.728 -1.3859  0.9584  1.1395
  827MOL0     H14060   4.419   9.857   8.785  0.6478 -0.1511  2.0505
  827MOL0     H14061   4.187  10.044   8.842 -0.3374 -0.6057 -0.8665
  827MOL0     H14062   4.359  10.063   8.914  1.0412  0.9225 -0.2974
  827MOL0     H14063   4.329  10.032   8.617 -2.2533 -2.4864  0.6722
  827MOL0     H14064   4.266  10.182   8.683  1.2707  0.3600 -0.0038
  827MOL0     H14065   4.465  10.243   8.811 -1.3241  2.8166 -2.5150
  827MOL0     H14066   4.540  10.086   8.764 -0.1021 -0.5534 -1.6727
  827MOL0     H14067   4.460  10.314   8.583 -2.4364 -0.7787  2.2487
  827MOL0     H14068   4.568  10.174   8.547 -1.4593  0.3434 -0.9029
  827MOL0     H14069   4.710  10.374   8.567 -1.1972  0.0566 -0.3570
  827MOL0     H14070   4.617  10.414   8.721 -6.1434 -3.2940  1.3922
  827MOL0     H14071   4.786  10.169   8.686 -2.0534 -2.7509  1.3425
  827MOL0     H14072   4.708  10.225   8.834  1.1067  0.4253  0.2586
  827MOL0     H14073   4.929  10.369   8.681 -1.9911  1.8138 -0.6347
  827MOL0     H14074   4.866  10.420   8.835 -2.6941  1.3402 -2.5153
  827MOL0     H14075   5.047  10.158   8.643 -0.2896  0.4400  0.4538
  827MOL0     H14076   5.250   9.925   8.896  1.4942  0.1944  0.4681
  827MOL0     H14077   5.292   9.994   8.735  0.1549 -1.6834  0.4175
  827MOL0     H14078   5.044   9.824   8.795  3.1630 -2.4507  4.4674
  827MOL0     H14079   5.093   9.896   8.637  2.0950  1.5992  0.3159
  827MOL0     H14080   5.282   9.773   8.628  0.5117 -1.5103  0.6829
  827MOL0     H14081   5.265   9.702   8.785 -1.5753 -1.0867  0.8578
  827MOL0     H14082   5.205   9.538   8.641 -1.5662 -0.7423 -1.3259
  827MOL0     H14083   5.060   9.584   8.732  0.3122  1.3431  1.1171
  827MOL0     H14084   5.184   9.394   8.520  1.5092  2.8836  0.7283
  827MOL0     H14085   5.252   9.191   8.240  0.0315  1.6797 -0.0974
  827MOL0     H14086   5.122   9.117   8.334 -0.1101 -0.4154  0.4870
  827MOL0     H14087   5.264   9.195   8.413 -0.8554 -0.0237  0.3916
  827MOL0     H14088   4.755   9.158   7.997  1.7381  0.7976  0.5972
  827MOL0     H14089   4.712   9.022   7.794  0.1397 -1.7026  1.4854
  827MOL0     H14090   4.694   8.824   7.646 -1.7209  1.8359 -0.5363
  827MOL0     H14091   4.720   8.987   7.577 -3.7651 -1.3606  0.1421
  827MOL0     H14092   4.851   8.871   7.392  0.8681 -1.4957 -0.4995
  827MOL0     H14093   4.844   8.717   7.465 -0.7707 -0.2109 -0.5904
  827MOL0     H14094   4.597   8.859   7.367 -0.0171 -0.4508 -0.0111
  827MOL0     H14095   4.609   8.703   7.453  0.3494 -0.2774 -0.0923
  827MOL0     H14096   4.743   8.609   7.271  0.1375  1.0185  1.3536
  827MOL0     H14097   4.747   8.759   7.178  0.8031 -0.6754 -1.4476
  827MOL0     H14098   4.502   8.755   7.149  2.1264  2.1497  1.2396
  827MOL0     H14099   4.590   8.619   7.074 -1.0073  1.4328 -0.2638
  827MOL0     H14100   4.426   8.619   7.320  0.0573  0.6482  0.3567
  827MOL0     H14101   4.540   8.488   7.282 -1.4326 -1.3686 -0.6047
  827MOL0     H14102   4.406   8.475   7.050 -0.9887  2.0651 -0.8388
  827MOL0     H14103   4.291   8.586   7.131 -0.2635  0.8506  0.6673
  827MOL0     H14104   4.353   8.311   7.245 -0.4198 -0.4745  0.6865
  827MOL0     H14105   4.220   8.342   7.130 -1.0314  0.2974  0.6224
  827MOL0     H14106   5.118   8.917   7.770  0.8083  0.7028  1.9183
  827MOL0     H14107   5.165   9.018   7.988 -0.9686  1.9183  2.4772
  827MOL0     H14108   4.913   9.525   8.130 -0.8916 -3.0214 -1.2026
  827MOL0     H14109   4.923   9.665   8.308  0.6091 -0.5386  0.3280
  827MOL0     H14110   4.184   9.673   9.136 -3.9772 -0.2858  0.1422
  827MOL0     H14111   4.115   9.432   9.137  0.1439 -0.2504 -0.0501
  827MOL0     H14112   3.931   9.132   9.008 -0.0131  1.2297 -1.1974
  827MOL0     H14113   3.795   8.929   8.984  0.2446  0.8191  1.1396
  827MOL0     H14114   3.700   8.794   8.872  0.2815 -0.2252  2.3422
  827MOL0     H14115   3.712   8.627   8.802 -0.4460  0.1571 -0.8774
  827MOL0     H14116   3.565   8.624   9.008  0.4055  1.5503  0.2178
  827MOL0     H14117   3.677   8.729   9.082 -1.9210  0.3308 -0.5935
  827MOL0     H14118   3.780   8.467   8.975  0.2795  2.6919 -1.7309
  827MOL0     H14119   3.842   8.569   9.095 -0.8724  2.7951 -0.5176
  827MOL0     H14120   3.728   8.347   9.198  1.7479  1.3420  1.3909
  827MOL0     H14121   3.579   8.419   9.135  0.4699 -1.9981  0.8063
  827MOL0     H14122   3.702   8.650   9.487 -0.7161  0.2515  0.3392
  827MOL0     H14123   4.142   8.697   8.878 -0.1261  0.3847  0.5460
  827MOL0     H14124   4.380   8.936   8.944 -1.1966 -2.0845  2.8223
  827MOL0     H14125   4.347   8.790   8.855 -1.8972  0.4477 -1.5606
  827MOL0     H14126   4.348   8.940   8.763  2.4750 -2.3253 -0.3192
  828MOL0     O14127   2.795   7.000   9.752 -0.5294 -0.1849 -0.2998
  828MOL0     C14128   2.808   6.880   9.738 -0.0315 -0.0210  0.1660
  828MOL0     O14129   2.925   6.811   9.734  0.0906  0.3437  0.0774
  828MOL0     C14130   3.043   6.886   9.733  0.5460  0.3088 -0.6379
  828MOL0     C14131   3.089   6.967   9.621 -0.5715  0.5631 -0.1366
  828MOL0     C14132   3.221   7.013   9.620 -0.3299  0.1039 -0.6575
  828MOL0     C14133   3.312   6.978   9.717  0.5261  0.4842 -0.4305
  828MOL0     O14134   3.451   6.994   9.703 -0.4597  0.0853 -0.0105
  828MOL0     C14135   3.504   7.094   9.614  0.0915 -0.2867  1.6055
  828MOL0     C14136   3.653   7.086   9.621 -0.5621  0.1710 -0.2587
  828MOL0     C14137   3.724   6.967   9.542  0.0490 -0.3914  0.3698
  828MOL0     C14138   3.834   6.890   9.618  0.5836 -0.1529 -0.5695
  828MOL0     C14139   3.937   6.830   9.528 -0.6002  0.4711 -0.2769
  828MOL0     C14140   4.068   6.808   9.603 -0.0605 -0.5845  0.1709
  828MOL0     C14141   4.155   6.719   9.512 -0.4446 -1.1135  0.5173
  828MOL0     C14142   4.245   6.800   9.406  0.9229  0.2526 -0.0968
  828MOL0     N14143   4.350   6.888   9.467  0.8295  0.4571  0.0939
  828MOL0     C14144   4.321   7.019   9.510  0.0435  0.3835 -1.0121
  828MOL0     C14145   4.440   7.057   9.559  1.5115  0.7344  0.3533
  828MOL0     C14146   4.477   7.191   9.604  0.4459 -0.6028  0.0059
  828MOL0     C14147   4.575   7.192   9.722  0.1714 -0.2742  0.5518
  828MOL0     C14148   4.584   7.326   9.781 -0.1601  0.6767 -0.0144
  828MOL0     C14149   4.674   7.419   9.690  0.3666 -0.0367  0.3340
  828MOL0     O14150   4.677   7.547   9.749  0.7496  0.2526  0.0397
  828MOL0     C14151   4.554   7.617   9.785 -0.9671 -0.1187  0.2142
  828MOL0     C14152   4.559   7.694   9.899  0.3321  0.3368 -0.5363
  828MOL0     C14153   4.452   7.762   9.948  0.1306  0.1862  0.2490
  828MOL0     C14154   4.454   7.835  10.081  0.4520 -0.2441  0.9778
  828MOL0     C14155   4.334   7.771   9.863  0.2372  0.1159 -1.1197
  828MOL0     C14156   4.212   7.853   9.889  0.0507 -0.1384  2.0922
  828MOL0     O14157   4.102   7.815   9.813  1.1175 -0.0498  0.5919
  828MOL0     C14158   3.974   7.870   9.831 -0.6388 -0.5485 -0.5118
  828MOL0     C14159   3.879   7.888   9.725  0.4052 -0.0383  0.6687
  828MOL0     C14160   3.745   7.927   9.740 -0.3776 -0.0438  0.1224
  828MOL0     C14161   3.702   7.965   9.867  0.4626 -0.2718  0.2054
  828MOL0     O14162   3.572   7.997   9.888 -0.2317  0.3396  0.1726
  828MOL0     C14163   3.528   8.040  10.022  0.1499  0.3861 -0.4185
  828MOL0     C14164   3.389   8.095  10.022  0.1500  0.1805  0.0593
  828MOL0     C14165   3.382   8.238   9.969  0.6826  0.0102  0.0006
  828MOL0     C14166   3.251   8.314   9.997 -0.3383  0.5744  0.0300
  828MOL0     C14167   3.231   8.440   9.920 -1.0212 -0.5609  0.3617
  828MOL0     C14168   3.110   8.514   9.955  0.7398 -0.1208  0.6634
  828MOL0     C14169   3.096   8.635   9.861  0.5444 -0.0783  0.4564
  828MOL0     C14170   2.955   8.686   9.845 -0.9303  0.4549 -0.1223
  828MOL0    Cl14171   2.975   8.826   9.730  0.1567 -0.2211  0.1063
  828MOL0     C14172   3.796   7.958   9.972  0.1865 -0.0566 -1.0036
  828MOL0     C14173   3.931   7.912   9.958 -0.3891 -0.1439  0.3687
  828MOL0     O14174   4.214   7.953   9.957  0.3572  0.6614  0.0587
  828MOL0     C14175   4.329   7.703   9.742 -1.2157  0.6747 -0.3509
  828MOL0     C14176   4.442   7.626   9.705 -0.3546  0.6120  0.0014
  828MOL0     N14177   4.533   6.961   9.528  0.2958  0.2262  0.4203
  828MOL0     N14178   4.479   6.856   9.482  0.1328 -0.7134  0.7373
  828MOL0     C14179   3.279   6.893   9.823  0.3172 -0.0812 -0.4503
  828MOL0     C14180   3.146   6.860   9.831 -0.2141  0.0358 -0.3348
  828MOL0     C14181   2.677   6.803   9.724  0.3032 -1.9219 -0.4145
  828MOL0     C14182   2.684   6.669   9.765  0.6257 -0.0996 -0.3832
  828MOL0     C14183   2.572   6.590   9.758 -0.6794  0.1866 -0.7977
  828MOL0     C14184   2.454   6.642   9.695  0.3540  0.0943  0.6982
  828MOL0     O14185   2.339   6.570   9.686  0.0586  0.2685 -0.6499
  828MOL0     C14186   2.338   6.430   9.710 -0.6307  0.4296  0.3578
  828MOL0     C14187   2.206   6.388   9.676 -0.3495  0.0291 -0.9015
  828MOL0     C14188   2.100   6.482   9.745 -0.0420 -0.3310  0.0080
  828MOL0     C14189   1.962   6.433   9.719 -0.3298 -0.0885  0.1576
  828MOL0     C14190   1.914   6.467   9.585 -0.5493 -0.0325  0.7626
  828MOL0     C14191   1.885   6.485   9.462 -0.6621 -0.2533  0.5136
  828MOL0     C14192   2.442   6.775   9.659  0.6114 -0.0529 -0.2894
  828MOL0     C14193   2.550   6.861   9.681  0.1116  1.3999  0.4732
  828MOL0     C14194   2.536   7.001   9.654 -0.3191 -0.2851  0.4052
  828MOL0     H14195   3.015   6.982   9.543 -0.0590  0.2227 -0.6946
  828MOL0     H14196   3.249   7.083   9.542 -1.0647  0.6578 -0.4418
  828MOL0     H14197   3.475   7.199   9.629 -0.1570 -0.4555  2.3606
  828MOL0     H14198   3.486   7.061   9.511  1.5494  2.7819  0.2363
  828MOL0     H14199   3.705   7.181   9.607 -3.4792  2.0485  0.7570
  828MOL0     H14200   3.674   7.069   9.727 -1.4052 -0.8764 -0.2409
  828MOL0     H14201   3.656   6.890   9.504 -0.8257  0.0875  0.9295
  828MOL0     H14202   3.758   7.025   9.455 -1.9955  2.2128  1.1804
  828MOL0     H14203   3.885   6.960   9.684  0.1115 -1.4723  1.2552
  828MOL0     H14204   3.793   6.812   9.683 -1.0279 -0.7763 -2.2449
  828MOL0     H14205   3.959   6.909   9.456 -1.2540  0.7813 -0.1500
  828MOL0     H14206   3.906   6.741   9.472 -0.6208  1.2015 -1.4504
  828MOL0     H14207   4.124   6.900   9.622 -1.6764  0.5559 -0.4194
  828MOL0     H14208   4.049   6.765   9.702  0.7190 -0.0563  0.5618
  828MOL0     H14209   4.092   6.642   9.467 -2.9653 -0.1967  2.2533
  828MOL0     H14210   4.218   6.659   9.577 -1.0454 -1.7352  0.5365
  828MOL0     H14211   4.302   6.732   9.342  1.9197 -1.2315  2.2049
  828MOL0     H14212   4.178   6.852   9.337  1.1509  2.3962  1.2140
  828MOL0     H14213   4.227   7.073   9.514  0.0080  0.2723  1.5549
  828MOL0     H14214   4.388   7.247   9.635  1.4868  0.5684  0.9866
  828MOL0     H14215   4.519   7.243   9.517 -0.2392 -1.3321 -0.7819
  828MOL0     H14216   4.525   7.131   9.797  1.6071 -1.3950  0.6478
  828MOL0     H14217   4.677   7.164   9.694 -0.8155  0.9247 -6.0068
  828MOL0     H14218   4.483   7.367   9.792 -0.4058 -0.1264  0.8719
  828MOL0     H14219   4.624   7.318   9.883  1.5710  2.7527 -0.4585
  828MOL0     H14220   4.776   7.381   9.690  1.2625  2.2258  0.3874
  828MOL0     H14221   4.626   7.425   9.592 -2.0255 -4.1825  0.9973
  828MOL0     H14222   4.638   7.692   9.973 -2.3408 -1.0579  2.5537
  828MOL0     H14223   4.383   7.797  10.155  2.0536 -2.1908  1.5913
  828MOL0     H14224   4.432   7.941  10.069 -1.3376 -0.7372 -0.7621
  828MOL0     H14225   4.550   7.831  10.134 -0.4883 -0.9961  2.7222
  828MOL0     H14226   3.909   7.860   9.625 -0.1938  1.5075  0.0108
  828MOL0     H14227   3.672   7.920   9.660 -1.9494  5.1063  0.7299
  828MOL0     H14228   3.528   7.949  10.083 -3.1624 -0.1512 -1.0195
  828MOL0     H14229   3.584   8.122  10.069  0.5983  0.1310 -0.5016
  828MOL0     H14230   3.324   8.027   9.966 -1.2875  0.0213  1.8361
  828MOL0     H14231   3.369   8.086  10.129 -2.0093 -1.1835 -0.4010
  828MOL0     H14232   3.393   8.238   9.861  0.4193  1.2934 -0.0398
  828MOL0     H14233   3.462   8.299  10.013  2.2558 -2.9183  1.5512
  828MOL0     H14234   3.249   8.336  10.104 -2.5380 -1.2525  0.4464
  828MOL0     H14235   3.166   8.247   9.978 -0.8414  1.2391 -0.1283
  828MOL0     H14236   3.318   8.505   9.934 -1.0482 -0.3518 -0.4188
  828MOL0     H14237   3.238   8.404   9.817 -0.4496  2.8516 -0.9037
  828MOL0     H14238   3.112   8.540  10.061  0.7530 -0.7908  0.8268
  828MOL0     H14239   3.029   8.442   9.938 -0.7376  1.2839  1.4551
  828MOL0     H14240   3.133   8.610   9.761  0.0240 -0.8741  0.4534
  828MOL0     H14241   3.160   8.716   9.898  1.5847 -1.7762  2.6349
  828MOL0     H14242   2.908   8.708   9.941 -1.6752 -1.5535  0.0198
  828MOL0     H14243   2.883   8.615   9.802 -0.1729 -0.2079 -0.3065
  828MOL0     H14244   3.776   8.002  10.070  1.1649  1.5743 -1.4913
  828MOL0     H14245   3.997   7.891  10.041  0.3823  1.6576  0.2541
  828MOL0     H14246   4.250   7.694   9.668  0.8370  1.1026 -2.7455
  828MOL0     H14247   4.445   7.582   9.606 -0.0980  0.9885 -0.1626
  828MOL0     H14248   3.342   6.874   9.910 -0.6008 -0.4938  0.1401
  828MOL0     H14249   3.113   6.797   9.913 -0.1761 -1.7057 -1.6147
  828MOL0     H14250   2.772   6.622   9.807 -1.0011 -0.6555  2.7511
  828MOL0     H14251   2.581   6.488   9.793  1.9250 -0.0317 -1.8705
  828MOL0     H14252   2.415   6.380   9.651 -1.1653 -1.6133  1.3185
  828MOL0     H14253   2.354   6.395   9.812  0.2864  2.0085  0.8050
  828MOL0     H14254   2.187   6.284   9.703  2.0135 -0.3911 -0.6999
  828MOL0     H14255   2.185   6.381   9.569 -0.1201 -2.3854 -0.8434
  828MOL0     H14256   2.117   6.490   9.853  0.4903 -0.8544 -0.0331
  828MOL0     H14257   2.105   6.582   9.702 -0.2858 -0.2728  0.1113
  828MOL0     H14258   1.909   6.487   9.797 -0.5969 -1.2556  0.8130
  828MOL0     H14259   1.954   6.324   9.724  0.4062 -0.3533 -2.6377
  828MOL0     H14260   1.865   6.510   9.360 -1.4050  1.3124  1.0044
  828MOL0     H14261   2.348   6.816   9.623  0.3211  0.4317  0.9534
  828MOL0     H14262   2.534   7.075   9.735  0.9332  2.0081 -1.5402
  828MOL0     H14263   2.615   7.027   9.583 -2.7495  1.7803 -1.7807
  828MOL0     H14264   2.447   7.027   9.595  0.9257  0.0808 -1.3647
  829MOL0     O14265   4.441   2.746  10.695  0.1795 -0.0873 -0.5617
  829MOL0     C14266   4.369   2.769  10.597 -0.6666  0.2180  0.0929
  829MOL0     O14267   4.421   2.820  10.483 -0.4608  0.1053 -0.3274
  829MOL0     C14268   4.539   2.885  10.501 -0.1980  1.3166 -0.2983
  829MOL0     C14269   4.654   2.817  10.462 -0.0748  0.4084 -0.0527
  829MOL0     C14270   4.781   2.878  10.455 -0.1374 -0.1100  0.2750
  829MOL0     C14271   4.803   3.014  10.490  0.0422  0.4241 -0.7543
  829MOL0     O14272   4.921   3.079  10.472 -0.2780 -0.3886  0.2299
  829MOL0     C14273   5.038   3.000  10.481  0.3685 -0.4635  0.2805
  829MOL0     C14274   5.159   3.081  10.439 -0.6730  0.5756 -0.1863
  829MOL0     C14275   5.289   3.002  10.470  0.6203  0.2612 -0.3113
  829MOL0     C14276   5.420   3.084  10.433 -0.8776 -0.0952 -0.8830
  829MOL0     C14277   5.542   3.001  10.468 -0.6464  0.0538 -0.1278
  829MOL0     C14278   5.672   3.082  10.427 -0.4191 -0.2175 -0.4876
  829MOL0     C14279   5.706   3.206  10.533 -0.6117  0.5927  1.1959
  829MOL0     C14280   5.827   3.295  10.489  0.0342 -0.0321 -0.3603
  829MOL0     N14281   5.952   3.217  10.485 -0.1903 -0.2803  0.2740
  829MOL0     C14282   6.006   3.140  10.383 -0.0003 -0.1106 -0.5033
  829MOL0     C14283   6.127   3.100  10.421  0.3150  0.1531 -1.3076
  829MOL0     C14284   6.225   3.009  10.349  1.0044 -0.0057  0.4008
  829MOL0     C14285   6.371   3.064  10.334  0.0743  0.7474 -0.4775
  829MOL0     C14286   6.464   2.963  10.261  0.0850 -0.3330  0.0153
  829MOL0     C14287   6.615   2.990  10.279  0.8590 -0.2829 -0.5202
  829MOL0     O14288   6.636   3.112  10.207 -0.2833 -0.4236 -0.7334
  829MOL0     C14289   6.766   3.175  10.219  0.2498  0.0301 -0.9123
  829MOL0     C14290   6.805   3.259  10.117  0.0704 -0.0209 -0.9115
  829MOL0     C14291   6.938   3.308  10.101 -0.7164  0.3414  0.2814
  829MOL0     C14292   6.979   3.383   9.974 -0.2150 -0.1960 -0.4800
  829MOL0     C14293   7.039   3.268  10.195  0.2286 -0.4940 -0.0473
  829MOL0     C14294   7.193   3.286  10.164  0.3296  0.8939 -1.1694
  829MOL0     O14295   7.238   3.196  10.069 -0.4640 -0.6185 -0.5711
  829MOL0     C14296   7.367   3.212  10.019  0.9906  0.0618 -1.1833
  829MOL0     C14297   7.389   3.202   9.880 -0.3702 -0.2201 -0.3409
  829MOL0     C14298   7.517   3.219   9.831  0.1358 -0.2524  0.5889
  829MOL0     C14299   7.623   3.232   9.914 -0.3358  0.6645 -0.9736
  829MOL0     O14300   7.755   3.239   9.881 -0.1998  0.4387  0.1454
  829MOL0     C14301   7.792   3.202   9.749 -0.0926 -0.3893 -0.4312
  829MOL0     C14302   7.807   3.329   9.658 -0.5071 -0.5035  0.2328
  829MOL0     C14303   7.917   3.333   9.553 -0.5110 -0.4235 -0.2789
  829MOL0     C14304   7.886   3.424   9.432  0.7180 -0.0204 -0.6194
  829MOL0     C14305   8.011   3.448   9.345  0.0999 -0.1693 -0.2519
  829MOL0     C14306   8.103   3.334   9.306 -0.1995  0.2915 -0.4021
  829MOL0     C14307   8.241   3.388   9.260 -0.4135  0.0886 -0.1201
  829MOL0     C14308   8.339   3.264   9.239 -0.7815 -0.8360  0.5672
  829MOL0    Cl14309   8.387   3.192   9.399  0.1724  0.5106  0.3684
  829MOL0     C14310   7.608   3.253  10.052  0.5475 -0.0796  0.7649
  829MOL0     C14311   7.480   3.228  10.107  1.4527  0.1502  0.2586
  829MOL0     O14312   7.257   3.379  10.215  0.2714 -0.5869 -0.4089
  829MOL0     C14313   7.000   3.193  10.303  0.1952  0.3708 -0.0326
  829MOL0     C14314   6.868   3.140  10.314  1.4468 -0.5188  0.1203
  829MOL0     N14315   6.149   3.153  10.554 -0.1360 -0.7754 -0.1919
  829MOL0     N14316   6.037   3.214  10.594 -0.6175 -0.5991  0.7156
  829MOL0     C14317   4.685   3.087  10.499  0.1777 -0.1884  0.4194
  829MOL0     C14318   4.557   3.021  10.522  1.0012 -0.0284 -0.4793
  829MOL0     C14319   4.226   2.723  10.593 -0.0301  0.2493  0.1141
  829MOL0     C14320   4.158   2.742  10.471  0.0817  0.2074 -0.0477
  829MOL0     C14321   4.041   2.681  10.446  0.1898  0.2156  0.2169
  829MOL0     C14322   3.968   2.617  10.550  1.1840 -0.8908 -0.4281
  829MOL0     O14323   3.837   2.565  10.539  0.0990 -0.3985 -0.4809
  829MOL0     C14324   3.789   2.544  10.406 -0.1863 -0.2871  1.0968
  829MOL0     C14325   3.656   2.463  10.423  0.5659  0.2384  0.2866
  829MOL0     C14326   3.559   2.556  10.501  0.0334 -0.0560 -1.2750
  829MOL0     C14327   3.411   2.500  10.487  0.1204 -0.2795  0.1129
  829MOL0     C14328   3.402   2.357  10.521  0.4267 -0.5284  0.1809
  829MOL0     C14329   3.397   2.244  10.562  0.4290 -0.3206  0.3469
  829MOL0     C14330   4.029   2.598  10.672 -1.2662 -0.4577 -0.4842
  829MOL0     C14331   4.161   2.652  10.702  1.3678 -0.3744 -0.3078
  829MOL0     C14332   4.215   2.640  10.848  0.0189  0.2920  1.2915
  829MOL0     H14333   4.644   2.712  10.438 -1.2929  0.5189 -0.1149
  829MOL0     H14334   4.866   2.815  10.431  1.1981  1.7552 -0.1848
  829MOL0     H14335   5.035   2.914  10.413  0.3623  1.7219 -2.7079
  829MOL0     H14336   5.046   2.961  10.582 -1.9153 -0.1576  0.6263
  829MOL0     H14337   5.155   3.116  10.336  2.1852  0.4503 -0.4197
  829MOL0     H14338   5.156   3.173  10.499  1.3193  0.6783 -0.1688
  829MOL0     H14339   5.281   2.972  10.574 -0.6620  3.1464  0.5275
  829MOL0     H14340   5.295   2.919  10.399 -2.3674  0.4348 -0.9261
  829MOL0     H14341   5.426   3.121  10.329  0.4626  0.2743 -0.7007
  829MOL0     H14342   5.409   3.175  10.493 -2.3529  0.2102 -1.5648
  829MOL0     H14343   5.523   2.908  10.413  2.1611 -2.0350  2.1218
  829MOL0     H14344   5.536   2.975  10.574 -0.8617 -0.3972 -0.2463
  829MOL0     H14345   5.753   3.008  10.423 -0.1862  0.0634 -1.3822
  829MOL0     H14346   5.668   3.123  10.325  1.6503 -0.7032 -0.8255
  829MOL0     H14347   5.726   3.165  10.632  1.6196 -0.6768  0.2860
  829MOL0     H14348   5.628   3.283  10.535 -1.1192  0.1283 -0.0734
  829MOL0     H14349   5.810   3.327  10.386 -1.3324  0.0966 -0.1165
  829MOL0     H14350   5.817   3.385  10.550 -2.6398  1.8810 -3.3538
  829MOL0     H14351   5.962   3.133  10.284 -0.2330  0.7026 -0.4631
  829MOL0     H14352   6.176   2.989  10.253 -0.0036  1.2311  0.6380
  829MOL0     H14353   6.220   2.922  10.416 -0.8548  1.3444  2.1609
  829MOL0     H14354   6.366   3.158  10.277 -1.2273 -1.1859 -3.8547
  829MOL0     H14355   6.398   3.067  10.440  0.0074 -1.6211 -0.3496
  829MOL0     H14356   6.453   2.860  10.297 -0.0361 -0.5038 -0.5091
  829MOL0     H14357   6.449   2.959  10.153  2.2416 -1.2498 -0.2875
  829MOL0     H14358   6.623   3.012  10.386 -4.2763  3.1109 -0.4369
  829MOL0     H14359   6.673   2.909  10.234  1.0262 -0.1322 -0.5752
  829MOL0     H14360   6.752   3.297  10.029  1.7485  2.1452 -1.0704
  829MOL0     H14361   6.888   3.415   9.922 -0.5575 -1.3918 -0.6495
  829MOL0     H14362   7.036   3.323   9.902 -0.6555 -1.4829  0.2161
  829MOL0     H14363   7.023   3.478  10.005 -0.9320  0.2620 -0.8230
  829MOL0     H14364   7.308   3.189   9.809 -2.1543  0.8139  1.4008
  829MOL0     H14365   7.527   3.220   9.723 -3.6885  3.2922  0.0051
  829MOL0     H14366   7.889   3.152   9.752  0.2926  0.3729  1.8228
  829MOL0     H14367   7.717   3.132   9.714 -1.5346  2.6542 -4.1374
  829MOL0     H14368   7.713   3.334   9.603  0.7655 -2.2132 -2.2565
  829MOL0     H14369   7.809   3.419   9.720 -0.4710 -1.3227  1.4607
  829MOL0     H14370   7.943   3.234   9.513 -0.2766  0.2308 -1.7908
  829MOL0     H14371   7.997   3.383   9.608 -1.4372 -0.1639  0.8753
  829MOL0     H14372   7.853   3.524   9.465 -0.7773  0.6489 -3.7660
  829MOL0     H14373   7.809   3.370   9.376  1.1968 -1.3486 -0.0252
  829MOL0     H14374   7.981   3.493   9.251  1.4533 -1.5679 -1.4023
  829MOL0     H14375   8.074   3.511   9.409  0.2704 -2.0488  1.5592
  829MOL0     H14376   8.051   3.285   9.223  1.1654  0.4805 -1.4032
  829MOL0     H14377   8.110   3.271   9.395 -0.5259  1.4134  0.4308
  829MOL0     H14378   8.271   3.460   9.336  0.3922  1.7307 -1.9230
  829MOL0     H14379   8.223   3.433   9.162  2.1897 -1.4321 -1.4331
  829MOL0     H14380   8.428   3.297   9.186 -1.2913 -3.6432 -2.3120
  829MOL0     H14381   8.289   3.198   9.167  3.4379  0.7230 -4.3747
  829MOL0     H14382   7.688   3.258  10.125  1.6473 -1.4203 -0.2869
  829MOL0     H14383   7.473   3.234  10.215  2.1132 -0.9823  0.3761
  829MOL0     H14384   7.089   3.167  10.359  0.8697  2.2564 -0.1679
  829MOL0     H14385   6.837   3.082  10.400 -0.8869  2.4947  1.5069
  829MOL0     H14386   4.678   3.193  10.521 -1.7714 -0.3914  0.9873
  829MOL0     H14387   4.466   3.080  10.535  0.9115  0.2115 -1.9427
  829MOL0     H14388   4.196   2.808  10.394 -0.8828  2.4065  1.2625
  829MOL0     H14389   3.989   2.699  10.352 -1.1211 -0.1686  0.8329
  829MOL0     H14390   3.765   2.642  10.362  1.4230  0.8701  2.6287
  829MOL0     H14391   3.860   2.479  10.355  1.5709  0.2701  2.6849
  829MOL0     H14392   3.673   2.375  10.485 -0.2107  0.5156  0.8976
  829MOL0     H14393   3.615   2.420  10.331 -0.5553  2.3703 -0.2757
  829MOL0     H14394   3.576   2.569  10.608 -0.3271  0.4825 -1.2784
  829MOL0     H14395   3.557   2.654  10.454 -0.6131  0.2952 -0.5445
  829MOL0     H14396   3.390   2.507  10.380  0.4682 -1.6121 -0.0626
  829MOL0     H14397   3.342   2.554  10.552 -0.0426 -0.6024  0.2085
  829MOL0     H14398   3.397   2.143  10.599  0.8100 -0.3224  0.3384
  829MOL0     H14399   3.969   2.550  10.749  0.9220 -2.1251  0.3060
  829MOL0     H14400   4.145   2.569  10.894  0.7833 -1.7324 -0.4997
  829MOL0     H14401   4.308   2.583  10.839  2.4473  4.1883 -2.1760
  829MOL0     H14402   4.231   2.738  10.894 -1.3051  1.7908 -1.2368
  830MOL0     O14403   5.333   3.006   2.709  0.2119  0.0537 -0.7707
  830MOL0     C14404   5.311   2.892   2.664  0.6793 -0.3648  0.1083
  830MOL0     O14405   5.405   2.814   2.601 -0.3377  0.5763  0.3357
  830MOL0     C14406   5.537   2.850   2.602  0.1559  0.4871 -0.1190
  830MOL0     C14407   5.571   2.969   2.542 -0.4519 -0.1232 -0.2473
  830MOL0     C14408   5.704   3.003   2.514 -0.5941  0.2843 -1.0237
  830MOL0     C14409   5.805   2.917   2.567  0.0496  0.3883 -0.3589
  830MOL0     O14410   5.943   2.935   2.558  0.5202  0.2141 -0.0052
  830MOL0     C14411   5.981   2.979   2.423 -1.2586 -0.4371 -0.4654
  830MOL0     C14412   5.978   2.853   2.322 -1.1513  0.1341  0.2976
  830MOL0     C14413   6.045   2.873   2.182 -1.3878  0.2407 -0.1613
  830MOL0     C14414   5.984   2.978   2.087 -0.3839 -0.9287 -0.3946
  830MOL0     C14415   6.017   2.950   1.939 -0.0146  0.4629 -0.4993
  830MOL0     C14416   5.950   3.046   1.839 -0.1974 -0.8237  0.1267
  830MOL0     C14417   5.980   3.194   1.868 -0.1681 -0.1025 -0.2247
  830MOL0     C14418   5.907   3.286   1.771  0.2422 -0.5381  0.5456
  830MOL0     N14419   5.940   3.268   1.624  0.0976  0.2230 -0.0908
  830MOL0     C14420   6.046   3.335   1.560 -0.3226 -0.7693 -0.5324
  830MOL0     C14421   5.999   3.327   1.435 -1.0325 -0.1897 -0.1604
  830MOL0     C14422   6.078   3.392   1.322  0.0015 -0.2387 -0.3732
  830MOL0     C14423   6.232   3.428   1.351 -0.4593  0.0072  0.1525
  830MOL0     C14424   6.299   3.483   1.230  0.6119 -0.6127 -0.9392
  830MOL0     C14425   6.444   3.511   1.256  0.0542 -0.4303 -0.3854
  830MOL0     O14426   6.516   3.378   1.242  0.8644  0.3976  1.1559
  830MOL0     C14427   6.643   3.372   1.189  0.4351 -0.2188  0.4313
  830MOL0     C14428   6.717   3.486   1.164  0.3806  0.0430 -0.8111
  830MOL0     C14429   6.840   3.477   1.105 -0.4162 -0.1481 -0.0461
  830MOL0     C14430   6.916   3.614   1.093  0.3774  0.8203 -0.7605
  830MOL0     C14431   6.897   3.349   1.070 -0.2972  0.0302 -0.1157
  830MOL0     C14432   7.036   3.333   1.019 -0.0341 -0.2286  0.3314
  830MOL0     O14433   7.100   3.216   1.043  0.2457 -0.2889  0.4430
  830MOL0     C14434   7.224   3.188   0.982  0.3448 -0.3275  0.3301
  830MOL0     C14435   7.337   3.194   1.057  0.3961 -0.1909  0.6417
  830MOL0     C14436   7.464   3.169   1.013  0.0832 -0.6875  0.3136
  830MOL0     C14437   7.479   3.129   0.875 -0.1414 -0.2936  0.2257
  830MOL0     O14438   7.606   3.082   0.818  1.0476  0.6957 -0.4760
  830MOL0     C14439   7.664   2.979   0.901 -0.2906 -0.3146  0.2995
  830MOL0     C14440   7.722   2.894   0.798 -0.0682  0.7265 -0.3097
  830MOL0     C14441   7.807   2.957   0.683 -1.2346  0.6460 -0.5926
  830MOL0     C14442   7.927   3.018   0.737 -0.2479  0.0406  0.4257
  830MOL0     C14443   8.015   3.059   0.613  0.5291 -0.1087 -0.2716
  830MOL0     C14444   8.139   3.132   0.671  0.1030  0.4913  0.6708
  830MOL0     C14445   8.238   3.171   0.567 -0.2731  0.7113  0.2016
  830MOL0     C14446   8.367   3.230   0.620  0.3742 -0.5913 -0.3185
  830MOL0    Cl14447   8.316   3.391   0.698 -0.0719  0.1950  0.0689
  830MOL0     C14448   7.367   3.126   0.793  0.3545 -0.8695  0.8748
  830MOL0     C14449   7.240   3.154   0.851 -0.8991  0.6836 -0.3037
  830MOL0     O14450   7.074   3.421   0.942 -0.0036  0.1203 -0.0583
  830MOL0     C14451   6.825   3.238   1.106  0.2280  0.2791  0.5051
  830MOL0     C14452   6.697   3.248   1.161 -0.1625 -0.2015  0.7945
  830MOL0     N14453   5.874   3.274   1.427  0.4186 -0.4239  0.1754
  830MOL0     N14454   5.834   3.241   1.543 -0.0070 -0.1278 -0.3863
  830MOL0     C14455   5.766   2.807   2.649 -0.6437 -0.2722  0.6247
  830MOL0     C14456   5.633   2.775   2.664  0.3176  1.1121  1.1965
  830MOL0     C14457   5.168   2.831   2.672  0.1599 -0.3526 -0.3703
  830MOL0     C14458   5.138   2.715   2.606  0.4852  0.2037  0.0476
  830MOL0     C14459   5.010   2.652   2.611  0.0600  1.5314 -0.0415
  830MOL0     C14460   4.900   2.721   2.664  0.1220 -1.0282 -0.2467
  830MOL0     O14461   4.776   2.672   2.670  0.6088  0.6992  0.0316
  830MOL0     C14462   4.750   2.538   2.622 -0.2016 -0.9076 -0.6697
  830MOL0     C14463   4.614   2.492   2.662 -0.1398 -0.5389  0.2994
  830MOL0     C14464   4.500   2.578   2.608  0.3717  0.3329 -0.4580
  830MOL0     C14465   4.367   2.499   2.615 -0.4858  0.0411 -0.7151
  830MOL0     C14466   4.260   2.573   2.554  0.3280 -0.0215 -0.3225
  830MOL0     C14467   4.180   2.632   2.492 -0.4284 -0.3970  0.2320
  830MOL0     C14468   4.928   2.839   2.729  0.4509 -0.8072  0.5285
  830MOL0     C14469   5.054   2.888   2.736 -0.7340  0.1794  0.3711
  830MOL0     C14470   5.070   3.016   2.818 -0.2700 -0.0888  0.1388
  830MOL0     H14471   5.508   3.043   2.494  1.6312  3.3667  1.9722
  830MOL0     H14472   5.740   3.095   2.468 -1.1935 -0.7286 -3.7311
  830MOL0     H14473   6.079   3.027   2.427 -2.1906  1.5100  2.9418
  830MOL0     H14474   5.916   3.062   2.392 -0.5226  0.8381  1.2426
  830MOL0     H14475   6.034   2.774   2.374 -1.8037 -0.6934 -0.2418
  830MOL0     H14476   5.872   2.826   2.315 -1.4416  0.5076  2.5292
  830MOL0     H14477   6.151   2.898   2.192 -1.1698 -0.0963 -1.4743
  830MOL0     H14478   6.044   2.777   2.129 -0.8217  0.5922 -0.8273
  830MOL0     H14479   5.877   2.970   2.110  0.2865 -1.3369  3.2982
  830MOL0     H14480   6.019   3.080   2.106 -1.9024 -0.1518 -1.5613
  830MOL0     H14481   6.001   2.846   1.907 -0.5556  0.1497  0.7183
  830MOL0     H14482   6.124   2.956   1.919  0.5825 -3.6303  0.4465
  830MOL0     H14483   5.966   3.012   1.736  0.8899  0.6562 -0.2232
  830MOL0     H14484   5.842   3.040   1.854 -0.6375  1.0842 -1.7528
  830MOL0     H14485   6.085   3.220   1.851  0.0709 -0.6572  0.3903
  830MOL0     H14486   5.953   3.229   1.968  1.0477  2.9156 -0.8396
  830MOL0     H14487   5.798   3.272   1.774  0.1366  0.2089  0.4631
  830MOL0     H14488   5.928   3.387   1.807  0.0624 -0.7983  1.4202
  830MOL0     H14489   6.143   3.376   1.585 -1.5487  3.2003 -1.5635
  830MOL0     H14490   6.025   3.481   1.288  0.3215 -0.2841 -0.9884
  830MOL0     H14491   6.064   3.325   1.237 -2.4267 -0.2000 -0.0721
  830MOL0     H14492   6.237   3.513   1.419 -2.6336  1.0572 -0.9081
  830MOL0     H14493   6.284   3.341   1.394 -0.5116  0.1267  0.4637
  830MOL0     H14494   6.284   3.407   1.153  0.2192 -1.7553  0.2224
  830MOL0     H14495   6.245   3.572   1.199  0.5543 -0.9284 -1.7756
  830MOL0     H14496   6.476   3.586   1.184  0.4220 -1.1595 -0.9884
  830MOL0     H14497   6.460   3.559   1.353  1.6993  0.1007 -0.8860
  830MOL0     H14498   6.672   3.581   1.190 -4.9779 -1.6273 -2.5249
  830MOL0     H14499   6.896   3.647   0.991 -1.2803  0.3676 -0.6177
  830MOL0     H14500   7.020   3.611   1.128  0.7384  1.8250 -1.7037
  830MOL0     H14501   6.865   3.689   1.155  0.0264 -1.6857  2.2411
  830MOL0     H14502   7.325   3.214   1.164  2.4505  0.6471  0.7620
  830MOL0     H14503   7.549   3.181   1.079  1.8977 -0.6366 -1.9047
  830MOL0     H14504   7.750   3.017   0.957  0.7652  0.7867 -1.9265
  830MOL0     H14505   7.600   2.925   0.971  0.5484  1.5353  2.6444
  830MOL0     H14506   7.770   2.805   0.839 -0.3499 -0.1773 -1.8888
  830MOL0     H14507   7.630   2.857   0.752 -1.1598  1.9774  0.7609
  830MOL0     H14508   7.731   3.021   0.636 -4.0090 -1.4914  0.6971
  830MOL0     H14509   7.836   2.881   0.611 -2.5218 -0.6277  0.1798
  830MOL0     H14510   7.986   2.959   0.807 -0.2835 -0.3924  0.0941
  830MOL0     H14511   7.891   3.103   0.796 -2.2390 -1.3639  1.3199
  830MOL0     H14512   8.032   2.969   0.554 -0.9073 -1.3818  1.1302
  830MOL0     H14513   7.950   3.121   0.551 -1.7670 -1.3298  0.7362
  830MOL0     H14514   8.188   3.065   0.743 -1.1717 -1.6569 -0.3393
  830MOL0     H14515   8.103   3.222   0.719 -0.6823  0.2854  0.4834
  830MOL0     H14516   8.184   3.233   0.495 -2.4341  1.0465  2.0089
  830MOL0     H14517   8.265   3.087   0.502 -0.2659  2.2087 -1.8462
  830MOL0     H14518   8.427   3.246   0.530 -2.1301  1.3245 -1.7829
  830MOL0     H14519   8.415   3.156   0.684  0.3841 -1.6993 -1.5725
  830MOL0     H14520   7.386   3.093   0.691  2.5387  1.1813  0.5523
  830MOL0     H14521   7.153   3.140   0.787 -0.1504  0.4007 -1.2766
  830MOL0     H14522   6.865   3.140   1.084  2.2481  1.1180  0.2560
  830MOL0     H14523   6.635   3.158   1.162  0.6146 -0.7669 -0.0883
  830MOL0     H14524   5.851   2.752   2.688  1.7397  1.1494 -2.1895
  830MOL0     H14525   5.602   2.686   2.718  0.6016 -1.6247 -2.7471
  830MOL0     H14526   5.220   2.667   2.552  0.4355 -0.1194  0.2558
  830MOL0     H14527   5.003   2.552   2.569 -0.0159  2.6941 -3.0953
  830MOL0     H14528   4.755   2.546   2.513 -2.7682  1.2115 -0.7485
  830MOL0     H14529   4.822   2.464   2.656  1.3999  1.2749  1.0271
  830MOL0     H14530   4.619   2.496   2.771  0.2794 -0.2730  0.2704
  830MOL0     H14531   4.608   2.388   2.628 -2.9382 -0.4826  0.4181
  830MOL0     H14532   4.490   2.666   2.672 -1.1998 -1.5698  2.1276
  830MOL0     H14533   4.521   2.607   2.505  1.4156  0.2241 -0.2928
  830MOL0     H14534   4.331   2.473   2.715 -1.2571 -1.5588 -1.3640
  830MOL0     H14535   4.373   2.408   2.554 -1.8318 -0.0173 -0.8088
  830MOL0     H14536   4.116   2.681   2.421 -2.0744  0.1196  1.9946
  830MOL0     H14537   4.842   2.892   2.767  0.8408  0.3350 -0.1238
  830MOL0     H14538   4.985   3.026   2.886 -1.6430 -2.6300 -1.0996
  830MOL0     H14539   5.157   3.011   2.885 -0.3678 -1.2086  0.1899
  830MOL0     H14540   5.083   3.105   2.756  5.2762  0.1543  1.1357
  831MOL0     O14541   5.624   3.988  10.730  0.4844 -0.1388  0.4795
  831MOL0     C14542   5.601   3.965  10.849 -0.5088 -0.9379  0.1613
  831MOL0     O14543   5.669   4.011  10.953 -0.2623  0.4809 -0.6684
  831MOL0     C14544   5.780   4.091  10.946  0.0674 -0.9543  0.5564
  831MOL0     C14545   5.903   4.038  10.981  0.1449 -0.0044  0.6355
  831MOL0     C14546   6.023   4.112  10.985 -0.1936 -0.5279 -0.0491
  831MOL0     C14547   6.019   4.245  10.942 -0.0902  0.3174  0.2858
  831MOL0     O14548   6.126   4.343  10.953 -0.1309  0.7637  0.2462
  831MOL0     C14549   6.245   4.305  11.033  0.0314 -0.5129  0.3380
  831MOL0     C14550   6.300   4.434  11.102  0.3310 -0.5291  0.2649
  831MOL0     C14551   6.445   4.408  11.148 -0.9244  0.4110 -0.3415
  831MOL0     C14552   6.540   4.401  11.028 -0.1849  0.6331 -0.4122
  831MOL0     C14553   6.694   4.429  11.065  0.8250 -0.3688  0.7536
  831MOL0     C14554   6.765   4.306  11.115 -0.1008 -0.0823 -0.4356
  831MOL0     C14555   6.899   4.334  11.170  0.4373 -0.0789  0.1467
  831MOL0     C14556   6.994   4.377  11.057 -0.0342 -0.5707 -0.2086
  831MOL0     N14557   7.135   4.372  11.098  0.4397  0.1084 -0.7834
  831MOL0     C14558   7.197   4.468  11.171 -0.3748  0.7595 -0.2614
  831MOL0     C14559   7.323   4.421  11.185 -0.3454  0.4264  0.1896
  831MOL0     C14560   7.429   4.478  11.276 -0.1761 -0.8742 -0.8314
  831MOL0     C14561   7.388   4.599  11.367 -0.7515  0.7781 -0.0453
  831MOL0     C14562   7.308   4.559  11.489  0.0778 -0.5813  0.3833
  831MOL0     C14563   7.278   4.694  11.576  0.6544  0.4447 -0.2148
  831MOL0     O14564   7.196   4.661  11.694 -0.1079 -0.1530 -0.3270
  831MOL0     C14565   7.062   4.647  11.672  0.4163 -1.4143 -0.2644
  831MOL0     C14566   6.987   4.655  11.555 -0.7246 -0.4001 -0.0170
  831MOL0     C14567   6.846   4.648  11.558 -0.0304 -1.0241 -0.0697
  831MOL0     C14568   6.773   4.639  11.426 -0.1421 -0.5261  0.2898
  831MOL0     C14569   6.777   4.627  11.679  0.2900  0.1329  0.5436
  831MOL0     C14570   6.626   4.605  11.702 -1.0435  0.6996  0.8872
  831MOL0     O14571   6.593   4.595  11.830  0.2521  0.0894  0.3344
  831MOL0     C14572   6.468   4.618  11.873  0.4054  1.2197  0.6580
  831MOL0     C14573   6.397   4.731  11.821 -0.1415  0.0616 -0.0410
  831MOL0     C14574   6.274   4.761  11.879 -0.1240  0.5015  1.0466
  831MOL0     C14575   6.218   4.682  11.980  0.5159  0.7733 -0.5005
  831MOL0     O14576   6.105   4.738  12.033  0.6003  0.4345 -0.1127
  831MOL0     C14577   5.990   4.648  12.045  0.5894  0.7358  0.3512
  831MOL0     C14578   5.944   4.584  11.912 -0.5889  0.1549 -0.5145
  831MOL0     C14579   5.829   4.664  11.835 -0.7134  0.3275  0.3102
  831MOL0     C14580   5.884   4.800  11.800  0.4438 -0.0533 -0.7019
  831MOL0     C14581   5.799   4.870  11.693  0.7897  0.1764 -0.1268
  831MOL0     C14582   5.844   5.011  11.671 -0.3545 -0.3700 -0.0002
  831MOL0     C14583   5.755   5.103  11.595  0.0057 -0.3384 -0.1180
  831MOL0     C14584   5.798   5.247  11.606 -0.3095  0.5035 -0.0400
  831MOL0    Cl14585   5.783   5.298  11.780 -0.1846  0.2168  0.4326
  831MOL0     C14586   6.287   4.568  12.026 -0.4564  0.5778  0.3318
  831MOL0     C14587   6.409   4.535  11.971 -0.5765 -0.0695  0.2907
  831MOL0     O14588   6.545   4.580  11.606 -0.0807 -0.1619 -0.1990
  831MOL0     C14589   6.857   4.616  11.791 -0.8367  0.3309  0.4146
  831MOL0     C14590   6.993   4.635  11.786  0.3869  0.3283  0.6535
  831MOL0     N14591   7.332   4.292  11.125  0.0656 -1.2629  0.3134
  831MOL0     N14592   7.214   4.265  11.067 -0.7823  0.8919 -1.2853
  831MOL0     C14593   5.900   4.308  10.916  0.5866  1.1561 -0.3378
  831MOL0     C14594   5.782   4.230  10.916 -0.4325  0.5695  0.1019
  831MOL0     C14595   5.492   3.874  10.901 -0.6307 -0.6221 -0.1022
  831MOL0     C14596   5.523   3.773  10.990  0.0803 -0.8051 -0.0287
  831MOL0     C14597   5.436   3.666  11.013 -0.7928  0.4242 -0.7274
  831MOL0     C14598   5.304   3.668  10.964  0.3382  0.3370 -0.0894
  831MOL0     O14599   5.209   3.570  10.983  0.3402  0.4940  0.0415
  831MOL0     C14600   5.244   3.425  10.969 -0.1480 -0.3286  0.1119
  831MOL0     C14601   5.117   3.346  10.987 -0.2724  0.0409  0.3873
  831MOL0     C14602   5.136   3.198  11.019  0.5753  0.4294 -0.1942
  831MOL0     C14603   5.159   3.106  10.894 -0.1250 -0.4932  0.0871
  831MOL0     C14604   5.304   3.106  10.855 -0.2863  0.2165 -0.6243
  831MOL0     C14605   5.413   3.143  10.829 -0.9542  0.3815  0.0918
  831MOL0     C14606   5.266   3.780  10.891 -0.7698 -0.4377 -1.0298
  831MOL0     C14607   5.361   3.876  10.852  0.4466 -0.8382 -0.5117
  831MOL0     C14608   5.296   3.979  10.767 -0.2652 -0.3621  0.0675
  831MOL0     H14609   5.906   3.934  11.012 -0.3141 -0.4393 -0.7131
  831MOL0     H14610   6.121   4.069  11.004  0.3165  0.8827  0.6079
  831MOL0     H14611   6.323   4.268  10.966 -0.4694 -0.7922 -0.0977
  831MOL0     H14612   6.226   4.225  11.105  2.5017  0.7331  2.5310
  831MOL0     H14613   6.295   4.507  11.021 -0.3134  0.6192  1.3020
  831MOL0     H14614   6.239   4.467  11.187  0.3612 -0.5542  0.2963
  831MOL0     H14615   6.473   4.487  11.218  3.1214 -2.5297  1.8258
  831MOL0     H14616   6.465   4.312  11.198 -0.3487 -1.5125 -3.9330
  831MOL0     H14617   6.535   4.301  10.986  0.9664  2.0273 -4.2924
  831MOL0     H14618   6.510   4.476  10.954 -1.8223  1.5748  1.1224
  831MOL0     H14619   6.699   4.501  11.146  0.9025  0.7986 -0.2546
  831MOL0     H14620   6.752   4.472  10.983  0.6183  0.5958  1.1070
  831MOL0     H14621   6.711   4.255  11.194  0.6297 -0.4483 -0.1643
  831MOL0     H14622   6.774   4.235  11.032  0.2456  1.0216 -1.3700
  831MOL0     H14623   6.935   4.242  11.218 -2.8840 -1.8296 -0.3673
  831MOL0     H14624   6.884   4.411  11.246 -0.2864  0.7838 -0.8354
  831MOL0     H14625   6.991   4.316  10.967  2.2701  0.0023 -0.7341
  831MOL0     H14626   6.968   4.478  11.027  2.4298 -0.0002 -0.5977
  831MOL0     H14627   7.152   4.557  11.215 -1.6368 -0.2057  0.4555
  831MOL0     H14628   7.504   4.518  11.207 -0.2321 -0.9771 -0.9528
  831MOL0     H14629   7.473   4.402  11.340  1.2223  0.7568  0.2210
  831MOL0     H14630   7.479   4.651  11.399  2.2124 -2.0938 -2.9610
  831MOL0     H14631   7.321   4.662  11.307 -2.2234 -1.2186 -0.6047
  831MOL0     H14632   7.212   4.515  11.461  0.4744  0.0863 -2.2763
  831MOL0     H14633   7.371   4.493  11.549  0.4225 -0.3217  0.3090
  831MOL0     H14634   7.371   4.740  11.610  2.3969 -2.7636 -0.2822
  831MOL0     H14635   7.219   4.766  11.518  0.2849  0.1982 -0.1518
  831MOL0     H14636   7.034   4.672  11.459 -2.0618 -1.9929 -1.0139
  831MOL0     H14637   6.741   4.535  11.414  2.2596 -1.2619 -0.1457
  831MOL0     H14638   6.836   4.665  11.340 -0.7873 -2.2065 -0.7578
  831MOL0     H14639   6.690   4.709  11.439  1.2963  1.3556 -0.2805
  831MOL0     H14640   6.451   4.796  11.753  0.2949 -0.2526  0.0065
  831MOL0     H14641   6.227   4.852  11.845  0.2271  0.9892  1.8440
  831MOL0     H14642   6.015   4.563  12.110  0.0746 -0.7399 -1.3204
  831MOL0     H14643   5.905   4.700  12.090  0.4392  1.0754 -0.3186
  831MOL0     H14644   6.031   4.575  11.846  1.4949  0.0578  2.1034
  831MOL0     H14645   5.900   4.487  11.934 -1.0671  0.1499 -1.4283
  831MOL0     H14646   5.733   4.685  11.884  0.8030  1.3911  3.0822
  831MOL0     H14647   5.816   4.608  11.742  1.0837 -1.3878  1.0053
  831MOL0     H14648   5.986   4.788  11.762  1.1763 -1.9791  1.5659
  831MOL0     H14649   5.888   4.863  11.889 -2.4311  1.2772 -1.3983
  831MOL0     H14650   5.777   4.803  11.609 -2.2625 -1.3543  1.7215
  831MOL0     H14651   5.704   4.886  11.745  0.2010 -0.7133 -0.9039
  831MOL0     H14652   5.939   5.008  11.617 -0.8038  1.6870 -1.0019
  831MOL0     H14653   5.871   5.054  11.767  2.6073  1.0702 -1.3508
  831MOL0     H14654   5.655   5.094  11.640  0.8349  0.1725  1.9577
  831MOL0     H14655   5.752   5.073  11.490  0.1248  1.2633 -0.6140
  831MOL0     H14656   5.723   5.301  11.547 -1.9645  0.7881  2.1646
  831MOL0     H14657   5.895   5.268  11.561 -0.1847  3.1393  1.2275
  831MOL0     H14658   6.256   4.505  12.109 -1.1770  1.8112  1.0270
  831MOL0     H14659   6.461   4.442  11.990  1.0637  0.5518 -0.8700
  831MOL0     H14660   6.824   4.597  11.892 -0.1268  2.0942  1.0280
  831MOL0     H14661   7.036   4.637  11.886 -0.9868  2.2895  1.2506
  831MOL0     H14662   5.893   4.414  10.897 -0.8143  1.0263 -0.6220
  831MOL0     H14663   5.685   4.275  10.899 -1.5720 -1.4767  0.9526
  831MOL0     H14664   5.615   3.774  11.047 -1.3883  0.1690  2.5081
  831MOL0     H14665   5.462   3.580  11.073  1.3621  1.1008 -0.6284
  831MOL0     H14666   5.295   3.404  10.874  2.0733  1.1219  0.8861
  831MOL0     H14667   5.314   3.396  11.048 -0.5699 -0.2974  0.4997
  831MOL0     H14668   5.056   3.360  10.897 -3.6132  0.3205  2.5307
  831MOL0     H14669   5.064   3.398  11.068 -1.3779  0.5238 -0.6044
  831MOL0     H14670   5.219   3.193  11.091 -1.3784  1.4335  2.3002
  831MOL0     H14671   5.048   3.165  11.075  1.1434 -0.4258  0.2317
  831MOL0     H14672   5.096   3.135  10.810  3.5766  2.4167 -2.0077
  831MOL0     H14673   5.140   2.999  10.908 -0.5229 -0.6650 -1.5090
  831MOL0     H14674   5.497   3.210  10.832 -1.6143  1.2894 -0.9088
  831MOL0     H14675   5.163   3.773  10.856 -0.7248  1.6314 -1.6950
  831MOL0     H14676   5.355   4.064  10.734 -0.7248 -0.3450 -0.7579
  831MOL0     H14677   5.246   3.925  10.685 -1.7394 -1.9897  1.9374
  831MOL0     H14678   5.219   4.025  10.830 -1.1227 -1.4068 -0.1802
  832MOL0     O14679   6.050  10.094   6.586  0.4989 -0.1711  0.2486
  832MOL0     C14680   6.005  10.102   6.472  0.0676  0.3750 -1.1056
  832MOL0     O14681   6.077  10.097   6.357 -0.5826  0.3540  0.2039
  832MOL0     C14682   6.209  10.065   6.369  0.2002  0.4248 -0.3403
  832MOL0     C14683   6.301  10.168   6.339  0.1981 -0.5721 -0.3784
  832MOL0     C14684   6.438  10.157   6.365 -0.9733  0.0248  0.4511
  832MOL0     C14685   6.482  10.033   6.422 -0.1808 -0.2073  0.4517
  832MOL0     O14686   6.613   9.993   6.456  0.1439  0.6187 -0.3409
  832MOL0     C14687   6.689  10.093   6.522 -0.3033 -0.2412  0.3340
  832MOL0     C14688   6.829  10.056   6.486  1.0455 -0.0509 -0.0237
  832MOL0     C14689   6.867   9.905   6.521  0.2868  0.4365 -0.3231
  832MOL0     C14690   6.896   9.875   6.671 -0.1493  0.5560  0.5658
  832MOL0     C14691   6.997   9.758   6.683 -0.1804  0.7898 -0.5565
  832MOL0     C14692   7.074   9.744   6.825  1.2413  0.3378 -0.5278
  832MOL0     C14693   7.152   9.617   6.852 -0.3368  0.0302 -0.0997
  832MOL0     C14694   7.283   9.613   6.765 -0.5616  0.4279  0.2236
  832MOL0     N14695   7.397   9.704   6.804  0.0800 -0.6371 -0.4107
  832MOL0     C14696   7.472   9.670   6.915  0.1774 -0.2785 -0.4631
  832MOL0     C14697   7.593   9.739   6.895  0.7581  0.5381  0.8408
  832MOL0     C14698   7.711   9.699   6.977  0.4116 -0.4933 -0.0238
  832MOL0     C14699   7.833   9.774   6.924 -1.0047  0.8913 -0.1905
  832MOL0     C14700   7.962   9.723   6.995  0.0489 -0.0661  0.6997
  832MOL0     C14701   8.084   9.817   6.991  0.7720  0.7507  0.3732
  832MOL0     O14702   8.128   9.811   6.853 -0.6696 -0.1742  0.0918
  832MOL0     C14703   8.184   9.923   6.793  0.1194  0.4113  0.0360
  832MOL0     C14704   8.279  10.000   6.857  0.7721 -0.4829  0.5005
  832MOL0     C14705   8.333  10.111   6.797  0.4657 -0.0476  0.1824
  832MOL0     C14706   8.434  10.183   6.881  0.3221  0.2766  0.2445
  832MOL0     C14707   8.302  10.135   6.661 -0.7519 -0.1607  1.3620
  832MOL0     C14708   8.366  10.250   6.587  1.0143 -0.1603 -0.3247
  832MOL0     O14709   8.322  10.273   6.460  1.2576  0.8032 -0.4835
  832MOL0     C14710   8.377  10.374   6.376 -0.6055  0.7348 -0.2506
  832MOL0     C14711   8.288  10.437   6.290 -0.6588 -0.6505  0.7929
  832MOL0     C14712   8.333  10.543   6.207  0.4280 -0.7988  0.3969
  832MOL0     C14713   8.466  10.579   6.209  0.4252  0.1452  1.3473
  832MOL0     O14714   8.505  10.671   6.111 -0.5543 -0.5549  0.2961
  832MOL0     C14715   8.609  10.615   6.022  0.1508 -0.1672 -0.0032
  832MOL0     C14716   8.608  10.674   5.877  0.2799  0.1455  0.2830
  832MOL0     C14717   8.483  10.625   5.803 -0.5881  0.2966 -0.6310
  832MOL0     C14718   8.464  10.722   5.689  0.9189 -0.1521  0.2194
  832MOL0     C14719   8.322  10.694   5.633 -0.0825  0.0501  0.3756
  832MOL0     C14720   8.271  10.802   5.533  0.9500  0.0405  0.3362
  832MOL0     C14721   8.124  10.768   5.485  0.4940  0.2430  0.7477
  832MOL0     C14722   8.070  10.863   5.373  0.3275 -0.4772  0.2892
  832MOL0    Cl14723   7.892  10.840   5.337 -0.2475 -0.3569  0.2513
  832MOL0     C14724   8.559  10.517   6.290  0.4413  0.7761  0.0794
  832MOL0     C14725   8.514  10.412   6.372  0.4502 -1.0300  0.7939
  832MOL0     O14726   8.461  10.305   6.634  0.0199 -1.2484  0.1729
  832MOL0     C14727   8.219  10.050   6.590  0.9738  0.1833 -0.3023
  832MOL0     C14728   8.147   9.950   6.660  0.0759  0.6553  0.1004
  832MOL0     N14729   7.582   9.813   6.777 -1.3477  0.5248  0.0141
  832MOL0     N14730   7.470   9.784   6.722  0.6275 -0.0120 -0.1578
  832MOL0     C14731   6.393   9.934   6.448  0.4876  0.9345 -0.4973
  832MOL0     C14732   6.260   9.952   6.420 -0.0971  0.3008 -0.0782
  832MOL0     C14733   5.863  10.132   6.457  0.0299  0.0861 -0.5738
  832MOL0     C14734   5.829  10.215   6.348 -0.0869  0.3544 -0.0293
  832MOL0     C14735   5.699  10.237   6.315 -0.6063 -0.1362  0.7628
  832MOL0     C14736   5.598  10.189   6.397 -0.2283 -0.3596  0.2454
  832MOL0     O14737   5.466  10.196   6.374  0.9531  0.1684  0.8189
  832MOL0     C14738   5.400  10.276   6.261  0.3823  0.0700 -0.8758
  832MOL0     C14739   5.365  10.408   6.318 -0.2653  0.1656 -0.2214
  832MOL0     C14740   5.236  10.399   6.392  0.2327 -1.0894  1.2344
  832MOL0     C14741   5.213  10.532   6.477  0.8592 -0.2135  0.4042
  832MOL0     C14742   5.077  10.527   6.531 -0.3404  0.2680  0.5299
  832MOL0     C14743   4.969  10.529   6.582 -0.3275  0.8554 -0.2704
  832MOL0     C14744   5.631  10.109   6.508 -0.4520 -0.0491 -0.5390
  832MOL0     C14745   5.762  10.076   6.547 -0.5943 -1.0591  0.1665
  832MOL0     C14746   5.793   9.987   6.657  0.3829  0.2339 -0.7312
  832MOL0     H14747   6.262  10.264   6.308  1.6739  1.0065  2.2491
  832MOL0     H14748   6.495  10.247   6.344 -0.4994 -0.9490 -2.9540
  832MOL0     H14749   6.673  10.083   6.630 -0.4669 -1.1122  0.2316
  832MOL0     H14750   6.660  10.192   6.483 -2.2136 -0.8357  0.1357
  832MOL0     H14751   6.841  10.071   6.378  2.1050  0.4322  0.1479
  832MOL0     H14752   6.898  10.128   6.530 -0.6248  1.3861  0.3527
  832MOL0     H14753   6.789   9.834   6.490 -0.3112  0.4170  1.1648
  832MOL0     H14754   6.951   9.875   6.457 -1.3940 -3.0558 -1.1621
  832MOL0     H14755   6.941   9.959   6.726  1.1150  0.1282  0.2029
  832MOL0     H14756   6.802   9.846   6.718 -1.8320 -2.0166 -3.8162
  832MOL0     H14757   7.070   9.774   6.604  2.0115  0.2521  1.2394
  832MOL0     H14758   6.944   9.663   6.668  0.7144  0.2766 -0.5660
  832MOL0     H14759   7.143   9.827   6.844  1.5576 -0.4771  2.4333
  832MOL0     H14760   6.998   9.741   6.904  1.3453 -3.1237 -0.4240
  832MOL0     H14761   7.089   9.529   6.833 -0.2518  0.2464 -1.4859
  832MOL0     H14762   7.167   9.617   6.960 -1.6825  1.8326  0.1212
  832MOL0     H14763   7.305   9.505   6.760 -1.9350  0.1260  0.3141
  832MOL0     H14764   7.261   9.643   6.663  1.7817 -0.1045 -0.5066
  832MOL0     H14765   7.453   9.599   6.994 -2.4889  2.4537  1.5709
  832MOL0     H14766   7.740   9.594   6.969  1.5686 -0.3304  1.5263
  832MOL0     H14767   7.699   9.733   7.080  4.8533  1.6383  0.0545
  832MOL0     H14768   7.853   9.768   6.816 -0.6455  1.9820 -0.1986
  832MOL0     H14769   7.810   9.879   6.945 -2.1751  0.5141  0.4821
  832MOL0     H14770   7.945   9.707   7.102 -2.0141 -1.1629  0.2679
  832MOL0     H14771   7.992   9.622   6.967 -1.7122 -0.5044  0.2447
  832MOL0     H14772   8.066   9.921   7.023  1.4543  0.9874 -0.0004
  832MOL0     H14773   8.154   9.774   7.063  1.9621  0.2170 -1.0651
  832MOL0     H14774   8.317   9.957   6.949 -2.2350  0.2556  2.2091
  832MOL0     H14775   8.534  10.166   6.841 -0.4886 -2.9982 -0.6188
  832MOL0     H14776   8.444  10.125   6.973  0.3056  2.6554  1.8546
  832MOL0     H14777   8.396  10.284   6.898  0.7957  0.6481 -0.8389
  832MOL0     H14778   8.184  10.408   6.284 -1.4388  1.7906  1.4523
  832MOL0     H14779   8.260  10.595   6.146  0.2403  0.0315  1.3049
  832MOL0     H14780   8.707  10.642   6.063 -0.6222 -0.5691  2.2269
  832MOL0     H14781   8.596  10.507   6.020 -0.7799 -0.0621 -0.1856
  832MOL0     H14782   8.606  10.783   5.885  1.2735  0.1813  0.1873
  832MOL0     H14783   8.708  10.657   5.836  0.4074  0.6191  0.3964
  832MOL0     H14784   8.406  10.625   5.880  1.2660  2.0860  1.3581
  832MOL0     H14785   8.514  10.528   5.762 -0.7342  0.8875 -2.2223
  832MOL0     H14786   8.538  10.708   5.610 -0.4300  0.6289 -1.2426
  832MOL0     H14787   8.459  10.828   5.718 -1.7032  0.7324 -2.9414
  832MOL0     H14788   8.330  10.599   5.581 -2.3627  0.4071 -0.7441
  832MOL0     H14789   8.248  10.696   5.714  0.6849 -0.5318  1.1158
  832MOL0     H14790   8.336  10.831   5.451 -0.0256  1.9824  0.1789
  832MOL0     H14791   8.266  10.897   5.588  2.9577  0.9120 -0.8821
  832MOL0     H14792   8.055  10.774   5.570  1.3605  2.4053  1.3647
  832MOL0     H14793   8.118  10.662   5.458 -1.3964  0.5910 -0.4243
  832MOL0     H14794   8.128  10.844   5.282 -0.3876 -0.5166 -0.1711
  832MOL0     H14795   8.078  10.966   5.409 -2.6477 -0.6370  1.7747
  832MOL0     H14796   8.663  10.547   6.291 -0.1853  3.2347 -0.7767
  832MOL0     H14797   8.590  10.361   6.432  0.8573 -1.8610 -0.4046
  832MOL0     H14798   8.205  10.059   6.483 -1.5575 -1.2188 -0.1842
  832MOL0     H14799   8.090   9.870   6.615  1.9244 -2.6987  3.2059
  832MOL0     H14800   6.428   9.838   6.483 -1.7919 -0.2978 -1.3541
  832MOL0     H14801   6.197   9.867   6.444  0.9347 -0.8775 -1.3943
  832MOL0     H14802   5.906  10.266   6.290 -1.7897  1.2192 -1.6167
  832MOL0     H14803   5.685  10.307   6.234 -0.3661 -0.0203  0.8206
  832MOL0     H14804   5.477  10.293   6.185  1.1318  0.3889 -0.0525
  832MOL0     H14805   5.313  10.232   6.211 -0.6525  0.7750  0.2331
  832MOL0     H14806   5.338  10.478   6.238  0.9763 -0.9800 -1.7075
  832MOL0     H14807   5.451  10.448   6.374  0.2684  0.6032 -1.3286
  832MOL0     H14808   5.148  10.368   6.335  0.0813  0.1831  0.7701
  832MOL0     H14809   5.248  10.323   6.470  0.2589 -1.1226  1.1980
  832MOL0     H14810   5.212  10.617   6.409 -3.2519  0.2658  0.8257
  832MOL0     H14811   5.280  10.545   6.562 -0.9139 -0.7248  1.9359
  832MOL0     H14812   4.875  10.504   6.629  1.8927 -0.2141  4.2018
  832MOL0     H14813   5.550  10.078   6.573  0.2989  1.1127  1.0137
  832MOL0     H14814   5.696   9.966   6.703  0.1271  1.2277 -0.7941
  832MOL0     H14815   5.849   9.898   6.627 -1.2978 -0.1348 -3.0841
  832MOL0     H14816   5.849  10.027   6.742  1.0051 -0.5744 -0.7444
  833MOL0     O14817  11.345   3.155   7.639  0.0915  1.0353 -0.0389
  833MOL0     C14818  11.347   3.116   7.753  0.7029  0.0303  0.5421
  833MOL0     O14819  11.302   2.995   7.792  0.0233  0.2954  0.4147
  833MOL0     C14820  11.333   2.875   7.728 -0.2588  0.0955  0.1209
  833MOL0     C14821  11.272   2.759   7.780  0.8463  0.0036 -0.3864
  833MOL0     C14822  11.297   2.629   7.729  0.5475 -0.1759 -0.8882
  833MOL0     C14823  11.382   2.626   7.613 -0.1791 -0.6709 -0.0807
  833MOL0     O14824  11.399   2.507   7.544 -0.1385 -0.3612 -0.1328
  833MOL0     C14825  11.536   2.472   7.526 -0.2420  0.8722 -0.8761
  833MOL0     C14826  11.523   2.340   7.452 -0.1591 -0.1660  0.0007
  833MOL0     C14827  11.672   2.284   7.430 -0.6821 -0.1569 -0.2434
  833MOL0     C14828  11.686   2.132   7.401  0.6527 -0.1052 -0.6158
  833MOL0     C14829  11.828   2.068   7.414  1.3466 -0.2884  0.8547
  833MOL0     C14830  11.896   2.081   7.552 -0.0436 -0.1980 -0.2923
  833MOL0     C14831  12.023   2.009   7.578 -0.1393  0.0727  0.7119
  833MOL0     C14832  12.153   2.061   7.505  0.3279 -1.3804 -0.2849
  833MOL0     N14833  12.204   2.181   7.577  0.2823 -0.0194  1.3333
  833MOL0     C14834  12.205   2.191   7.714  0.6529 -0.0668  0.7806
  833MOL0     C14835  12.284   2.303   7.732  0.1527 -0.2730 -0.4300
  833MOL0     C14836  12.325   2.350   7.868  0.0944 -0.6754  0.2733
  833MOL0     C14837  12.477   2.337   7.887  0.2094 -0.2510 -0.0544
  833MOL0     C14838  12.548   2.226   7.819 -0.8258  0.9047 -0.0801
  833MOL0     C14839  12.700   2.240   7.833  0.1208  0.5763  0.1635
  833MOL0     O14840  12.743   2.236   7.970 -0.1461 -1.2951  0.3041
  833MOL0     C14841  12.803   2.120   8.004 -0.5280  0.9758 -0.2487
  833MOL0     C14842  12.739   2.011   8.061 -0.0266  0.7469  0.9691
  833MOL0     C14843  12.805   1.895   8.107  1.0058  0.5818 -0.5963
  833MOL0     C14844  12.714   1.805   8.185  0.6310  1.3862 -0.4327
  833MOL0     C14845  12.943   1.880   8.076 -0.2110  0.3065 -0.1691
  833MOL0     C14846  13.024   1.755   8.098 -0.7438  0.2505 -0.3651
  833MOL0     O14847  13.157   1.773   8.086 -0.1400 -0.8924 -0.2899
  833MOL0     C14848  13.243   1.665   8.097 -0.0016  0.8241 -0.1584
  833MOL0     C14849  13.226   1.557   8.184  0.9376  0.3553  0.6724
  833MOL0     C14850  13.329   1.461   8.179  0.1076  0.1335  0.3381
  833MOL0     C14851  13.439   1.466   8.097 -0.0059  0.7798 -0.5390
  833MOL0     O14852  13.533   1.364   8.120  0.0463 -0.3974 -0.2850
  833MOL0     C14853  13.675   1.379   8.084 -0.4177 -0.4727 -0.3895
  833MOL0     C14854  13.742   1.243   8.075  0.3365 -0.5209  0.6633
  833MOL0     C14855  13.891   1.268   8.034  0.1382 -0.1562 -0.4627
  833MOL0     C14856  13.948   1.126   8.015 -0.5284 -0.6800  0.1075
  833MOL0     C14857  14.088   1.124   7.958 -0.3098  0.4208  0.3153
  833MOL0     C14858  14.185   1.066   8.065 -0.5267 -0.1889  0.1886
  833MOL0     C14859  14.318   1.018   8.006  0.6678 -0.2114 -0.0889
  833MOL0     C14860  14.417   0.969   8.125  0.5896  0.6105  0.4324
  833MOL0    Cl14861  14.495   1.110   8.207 -0.2151 -0.0509 -0.1598
  833MOL0     C14862  13.439   1.573   8.004 -0.0445 -1.0132  0.1743
  833MOL0     C14863  13.344   1.676   8.005  0.0868 -0.1769  0.0568
  833MOL0     O14864  12.969   1.649   8.116  0.9542 -0.2814  0.4405
  833MOL0     C14865  13.017   1.988   8.024  0.0415 -0.9450 -0.0570
  833MOL0     C14866  12.943   2.106   7.988  0.3974  0.2771  0.1995
  833MOL0     N14867  12.323   2.359   7.612  0.1822 -0.2808  0.3354
  833MOL0     N14868  12.285   2.280   7.519 -0.5225  0.2547 -0.3927
  833MOL0     C14869  11.445   2.738   7.562  0.9674 -0.9570 -0.4199
  833MOL0     C14870  11.423   2.867   7.621  0.9455  0.4037 -0.9143
  833MOL0     C14871  11.352   3.216   7.860 -0.2592 -0.5276  0.9295
  833MOL0     C14872  11.273   3.199   7.976  0.8545 -0.6342  0.7986
  833MOL0     C14873  11.270   3.286   8.087 -0.0757 -0.1704  0.2975
  833MOL0     C14874  11.355   3.401   8.088 -0.4054 -0.2023 -1.1796
  833MOL0     O14875  11.344   3.484   8.197 -0.1915 -0.1667  0.3810
  833MOL0     C14876  11.434   3.598   8.212 -0.3849 -0.3541 -0.0307
  833MOL0     C14877  11.570   3.547   8.260 -0.0537  0.4388  0.6845
  833MOL0     C14878  11.663   3.670   8.270  0.3537  0.7616  1.1518
  833MOL0     C14879  11.789   3.641   8.351  0.0250  0.2637  0.0794
  833MOL0     C14880  11.876   3.545   8.285 -0.2311 -0.0286 -0.9138
  833MOL0     C14881  11.948   3.463   8.232 -0.1693  1.1480  0.3633
  833MOL0     C14882  11.437   3.415   7.970 -1.1420 -0.7377 -0.2793
  833MOL0     C14883  11.438   3.328   7.858 -0.3278 -0.3421 -0.3120
  833MOL0     C14884  11.539   3.345   7.751 -0.3648 -0.3622  0.5469
  833MOL0     H14885  11.208   2.777   7.866  2.1321  0.8746  0.4364
  833MOL0     H14886  11.248   2.540   7.768 -1.9661  1.6191  0.2985
  833MOL0     H14887  11.599   2.464   7.615  1.3450  0.1829 -2.0045
  833MOL0     H14888  11.587   2.539   7.456  0.1852 -0.7223 -2.1554
  833MOL0     H14889  11.462   2.267   7.506 -2.8292  1.7195 -0.3206
  833MOL0     H14890  11.462   2.360   7.363  0.8651  1.1372 -0.4445
  833MOL0     H14891  11.727   2.342   7.355  0.9683 -0.5199  0.6482
  833MOL0     H14892  11.732   2.308   7.519 -0.1011 -2.7667  0.1508
  833MOL0     H14893  11.623   2.081   7.475 -1.3588  0.3354 -1.9401
  833MOL0     H14894  11.640   2.106   7.305  0.8102  0.2788 -0.7980
  833MOL0     H14895  11.894   2.115   7.340  0.1928 -0.7040 -0.4673
  833MOL0     H14896  11.822   1.964   7.381 -0.6261 -0.1950  0.7974
  833MOL0     H14897  11.917   2.187   7.572 -1.8385  1.4992 -5.7212
  833MOL0     H14898  11.840   2.034   7.633  0.7738 -0.3036  0.2272
  833MOL0     H14899  12.026   1.916   7.521  3.6408  0.7790 -0.4859
  833MOL0     H14900  12.041   1.987   7.684 -1.7611  1.1267  1.2590
  833MOL0     H14901  12.217   1.974   7.520  0.1190 -1.1637  2.2665
  833MOL0     H14902  12.131   2.068   7.398 -0.0718  0.2209 -0.1248
  833MOL0     H14903  12.154   2.119   7.777 -0.7790 -0.5205 -0.7929
  833MOL0     H14904  12.277   2.289   7.946 -2.4917  0.0572 -0.6225
  833MOL0     H14905  12.281   2.450   7.879 -2.0402 -1.5507  0.3337
  833MOL0     H14906  12.520   2.429   7.846 -2.0861  0.6461 -0.6047
  833MOL0     H14907  12.503   2.342   7.993 -4.5073  2.8179  1.2355
  833MOL0     H14908  12.520   2.136   7.875 -3.6733  0.6119 -1.7761
  833MOL0     H14909  12.529   2.213   7.713 -3.1638 -2.5930  0.6077
  833MOL0     H14910  12.750   2.162   7.775 -1.3899 -0.3515  0.0619
  833MOL0     H14911  12.734   2.334   7.788  1.7879 -0.0788 -0.0063
  833MOL0     H14912  12.631   2.016   8.075 -0.0960 -0.7136  1.1760
  833MOL0     H14913  12.665   1.765   8.096  1.4148  2.3995 -1.3581
  833MOL0     H14914  12.637   1.843   8.253  1.5967 -2.6248  3.2508
  833MOL0     H14915  12.767   1.731   8.244  2.1226  2.9403  0.2677
  833MOL0     H14916  13.155   1.549   8.266 -0.5777 -0.7154 -0.6866
  833MOL0     H14917  13.317   1.373   8.241  1.0071 -0.7760 -0.7292
  833MOL0     H14918  13.675   1.428   7.987 -3.9138  1.9716  0.6305
  833MOL0     H14919  13.732   1.449   8.146  1.1103 -1.3847 -0.7080
  833MOL0     H14920  13.737   1.199   8.174  0.7500 -0.3601  0.7581
  833MOL0     H14921  13.688   1.178   8.005 -0.7287  0.3810  0.6201
  833MOL0     H14922  13.943   1.325   8.111 -1.5666 -0.3304  0.8970
  833MOL0     H14923  13.900   1.336   7.949 -0.0620  1.3411  0.6673
  833MOL0     H14924  13.876   1.077   7.949 -2.5509 -3.3170  3.8802
  833MOL0     H14925  13.940   1.061   8.103  0.1210 -3.3088 -1.6489
  833MOL0     H14926  14.090   1.060   7.870  0.4901  3.0893 -1.7493
  833MOL0     H14927  14.114   1.222   7.917  0.2675  0.2333  0.2276
  833MOL0     H14928  14.139   0.983   8.119 -1.8946  0.9683  0.8628
  833MOL0     H14929  14.208   1.137   8.145 -2.6708 -0.6033  1.2274
  833MOL0     H14930  14.376   1.093   7.951  0.6526 -0.0864  0.0652
  833MOL0     H14931  14.286   0.945   7.931 -0.1218  0.2377 -0.1989
  833MOL0     H14932  14.493   0.908   8.076  0.4333 -0.7602  1.8062
  833MOL0     H14933  14.382   0.903   8.205  1.1692 -1.2399 -0.7737
  833MOL0     H14934  13.517   1.597   7.933  1.3386 -1.5067  1.4805
  833MOL0     H14935  13.354   1.764   7.942  1.5287 -0.4566 -0.1393
  833MOL0     H14936  13.121   1.977   7.996  0.0129 -0.4237 -0.3777
  833MOL0     H14937  12.986   2.191   7.937 -1.5370  0.5089 -1.1553
  833MOL0     H14938  11.500   2.718   7.470  2.5165  1.2810 -0.0708
  833MOL0     H14939  11.473   2.955   7.581  0.2020  2.1400  1.7507
  833MOL0     H14940  11.193   3.126   7.967 -0.2744  0.6390  0.1276
  833MOL0     H14941  11.204   3.264   8.170  2.0375 -1.7715  1.6571
  833MOL0     H14942  11.447   3.659   8.122 -0.4736  0.9064  0.7858
  833MOL0     H14943  11.381   3.661   8.284 -1.9438 -0.1804 -1.2932
  833MOL0     H14944  11.605   3.471   8.190 -1.8251 -1.0772  1.3643
  833MOL0     H14945  11.560   3.511   8.362 -2.4571  3.7365  1.7877
  833MOL0     H14946  11.697   3.694   8.169  1.7119 -1.8402  0.9025
  833MOL0     H14947  11.618   3.762   8.309  0.4709  1.8517 -1.1272
  833MOL0     H14948  11.764   3.595   8.447 -0.7011 -0.9987 -0.6918
  833MOL0     H14949  11.837   3.737   8.373 -0.6738  0.8164 -0.7372
  833MOL0     H14950  11.988   3.395   8.159 -1.9307 -1.5710  1.7377
  833MOL0     H14951  11.500   3.503   7.965 -1.9921 -0.0272  0.9549
  833MOL0     H14952  11.499   3.403   7.668  0.3051 -2.2939 -1.2225
  833MOL0     H14953  11.637   3.382   7.784  0.7269 -1.2259 -1.5011
  833MOL0     H14954  11.560   3.247   7.708 -0.7910  0.5319 -1.8382
  834MOL0     O14955   7.098  10.107   9.888  0.3885 -0.8375  0.1637
  834MOL0     C14956   7.089  10.154   9.773  0.5615 -0.0973  0.1661
  834MOL0     O14957   7.179  10.137   9.677  0.1324  0.1424 -0.4447
  834MOL0     C14958   7.298  10.080   9.722 -0.2910 -0.5953  0.0012
  834MOL0     C14959   7.339   9.955   9.685 -0.3179 -0.7545  0.0274
  834MOL0     C14960   7.466   9.918   9.732 -1.0917  0.5960 -0.3813
  834MOL0     C14961   7.553   9.995   9.815 -0.5678  0.6381  0.0470
  834MOL0     O14962   7.664   9.921   9.855 -0.6149 -0.3654  0.6784
  834MOL0     C14963   7.753   9.990   9.946 -0.1759 -0.8319  0.0793
  834MOL0     C14964   7.871   9.904   9.988 -0.3049 -1.3830 -0.3101
  834MOL0     C14965   7.946   9.956  10.111 -0.4503 -0.3667  0.4205
  834MOL0     C14966   7.885   9.906  10.237 -0.2418  0.2518  0.5359
  834MOL0     C14967   7.959   9.782  10.305  0.3683 -0.7817 -0.1871
  834MOL0     C14968   7.874   9.718  10.415 -0.6414 -0.5085  0.4977
  834MOL0     C14969   7.942   9.598  10.486 -0.5066  0.7040 -0.0871
  834MOL0     C14970   8.068   9.617  10.570 -0.1347  0.1151 -0.8329
  834MOL0     N14971   8.180   9.599  10.476 -0.1414  0.3098  0.6656
  834MOL0     C14972   8.208   9.479  10.415  0.0092 -0.3423 -0.1931
  834MOL0     C14973   8.334   9.493  10.367 -0.2920  1.2998  0.8666
  834MOL0     C14974   8.413   9.383  10.295 -0.1283  0.1835  0.2026
  834MOL0     C14975   8.521   9.438  10.196 -0.1061 -0.3771  0.4826
  834MOL0     C14976   8.576   9.319  10.108 -0.2624 -0.2054 -0.0755
  834MOL0     C14977   8.709   9.341  10.041 -0.2736 -0.6937 -0.2160
  834MOL0     O14978   8.709   9.449   9.949  0.0392  0.0205  0.1378
  834MOL0     C14979   8.817   9.478   9.873 -0.8342 -1.6959 -0.6420
  834MOL0     C14980   8.817   9.593   9.801  0.2378 -0.3690  0.5673
  834MOL0     C14981   8.922   9.623   9.712 -0.5685  0.4327 -0.4791
  834MOL0     C14982   8.904   9.742   9.624 -0.9757  0.5314  0.4820
  834MOL0     C14983   9.038   9.539   9.714  0.3880 -0.1969  0.2983
  834MOL0     C14984   9.152   9.573   9.631 -0.2363 -0.0195  0.1183
  834MOL0     O14985   9.268   9.552   9.700 -0.2154 -0.9431  0.0161
  834MOL0     C14986   9.380   9.586   9.625 -0.0769  0.2360  0.0537
  834MOL0     C14987   9.452   9.485   9.562  0.1667 -0.6626 -0.4067
  834MOL0     C14988   9.552   9.516   9.464 -0.2601 -0.9988 -0.7244
  834MOL0     C14989   9.587   9.655   9.444 -0.1829 -0.4671  0.1854
  834MOL0     O14990   9.682   9.692   9.352  0.0303 -0.6368 -0.3308
  834MOL0     C14991   9.699   9.621   9.234 -0.1475  0.0506 -0.0208
  834MOL0     C14992   9.772   9.710   9.132 -0.3539  0.2044 -0.4803
  834MOL0     C14993   9.669   9.779   9.040 -0.2659  0.0730 -0.3292
  834MOL0     C14994   9.738   9.893   8.966 -0.0220 -0.3371  0.0418
  834MOL0     C14995   9.639   9.952   8.853  0.0890  0.7350  0.5289
  834MOL0     C14996   9.635   9.868   8.720  0.0606 -0.0899 -0.2100
  834MOL0     C14997   9.772   9.863   8.642  0.3229  0.3950  0.8252
  834MOL0     C14998   9.765   9.808   8.504  0.8785  1.0101  0.0671
  834MOL0    Cl14999   9.661   9.658   8.490  0.4275 -0.2802 -0.0995
  834MOL0     C15000   9.524   9.749   9.520  0.5771  0.3660 -0.4814
  834MOL0     C15001   9.417   9.719   9.601  0.1000 -0.1634 -0.6540
  834MOL0     O15002   9.136   9.624   9.518 -0.2226 -0.5294 -0.0323
  834MOL0     C15003   9.040   9.432   9.792  0.2621  0.7020  0.1324
  834MOL0     C15004   8.931   9.392   9.871 -0.1257  0.0471  0.3232
  834MOL0     N15005   8.390   9.619  10.400  0.0401 -0.4468  0.2025
  834MOL0     N15006   8.292   9.681  10.464 -1.0590  0.9661  0.2793
  834MOL0     C15007   7.510  10.122   9.856  0.2130 -0.0321 -0.1514
  834MOL0     C15008   7.383  10.157   9.804 -0.3337 -0.6646  0.2732
  834MOL0     C15009   6.964  10.224   9.732 -0.8423  0.5181  0.0372
  834MOL0     C15010   6.951  10.241   9.587 -0.4320 -0.5542  0.1139
  834MOL0     C15011   6.844  10.316   9.532  0.6297 -0.0927 -0.5705
  834MOL0     C15012   6.750  10.366   9.613  0.6782 -0.6098  1.0265
  834MOL0     O15013   6.644  10.435   9.568  0.4074  0.8980  0.5314
  834MOL0     C15014   6.657  10.513   9.444 -0.6891 -0.4087 -0.1638
  834MOL0     C15015   6.556  10.619   9.433 -0.4073  0.7936 -0.7098
  834MOL0     C15016   6.596  10.709   9.326 -0.4696 -0.5072  0.4554
  834MOL0     C15017   6.522  10.847   9.335 -0.7279  1.1092  0.4861
  834MOL0     C15018   6.384  10.828   9.304 -0.0805 -0.7122  1.3085
  834MOL0     C15019   6.260  10.832   9.290  0.4629 -0.1742 -0.6754
  834MOL0     C15020   6.754  10.337   9.750  0.3265 -0.8607 -0.6239
  834MOL0     C15021   6.854  10.266   9.810 -1.0456 -0.0408  0.7310
  834MOL0     C15022   6.847  10.235   9.959  0.0378 -0.9772  0.0339
  834MOL0     H15023   7.275   9.898   9.618 -1.4326  1.1424 -0.6019
  834MOL0     H15024   7.499   9.821   9.697 -0.6490  0.9646 -0.9989
  834MOL0     H15025   7.686  10.009  10.031 -2.3860  0.5405 -1.8388
  834MOL0     H15026   7.799  10.082   9.908 -0.1502 -0.1072  1.7904
  834MOL0     H15027   7.848   9.799  10.007 -2.0789 -0.8898  0.5096
  834MOL0     H15028   7.939   9.913   9.902 -0.8582  0.7282 -0.5955
  834MOL0     H15029   8.052   9.930  10.104  0.2604  2.6605 -2.8917
  834MOL0     H15030   7.958  10.065  10.112 -0.0386 -0.3991 -0.3835
  834MOL0     H15031   7.885   9.986  10.311  4.1059  0.5034  0.4768
  834MOL0     H15032   7.783   9.872  10.212 -0.1682  2.4816 -3.8729
  834MOL0     H15033   8.047   9.820  10.360 -0.4595 -2.7218  2.7214
  834MOL0     H15034   7.996   9.715  10.228  2.1380 -0.8179  0.6217
  834MOL0     H15035   7.862   9.796  10.491 -2.2690  0.9705 -1.2019
  834MOL0     H15036   7.779   9.685  10.373  0.8587 -1.9734 -1.9979
  834MOL0     H15037   7.960   9.510  10.423  0.1698 -1.2586  2.6856
  834MOL0     H15038   7.870   9.563  10.560 -0.2966 -2.1062 -1.0937
  834MOL0     H15039   8.069   9.714  10.619 -0.8824 -0.2732 -0.0240
  834MOL0     H15040   8.069   9.545  10.652 -0.0420  1.5240  0.4290
  834MOL0     H15041   8.147   9.389  10.415  2.1304 -1.8804 -2.4317
  834MOL0     H15042   8.345   9.320  10.237 -0.3769 -0.1307  0.8201
  834MOL0     H15043   8.460   9.328  10.377  0.2564  2.0670  1.3211
  834MOL0     H15044   8.478   9.515  10.131  2.5364  1.3937  0.6877
  834MOL0     H15045   8.592   9.496  10.255 -1.3538  3.0269 -1.0832
  834MOL0     H15046   8.586   9.234  10.176  0.4353 -1.9220 -2.1832
  834MOL0     H15047   8.499   9.299  10.032 -0.8517 -0.3745  0.5573
  834MOL0     H15048   8.787   9.353  10.117  1.1982 -1.4631 -1.5538
  834MOL0     H15049   8.724   9.252   9.979  1.6781  0.7359 -1.9306
  834MOL0     H15050   8.727   9.653   9.804 -0.1900 -1.0262  1.1289
  834MOL0     H15051   8.988   9.809   9.643 -1.3099  1.2468 -0.4679
  834MOL0     H15052   8.816   9.800   9.653 -1.1199  1.1144 -1.0186
  834MOL0     H15053   8.898   9.720   9.517 -1.1766  0.2216  0.5549
  834MOL0     H15054   9.419   9.382   9.575 -0.4874 -0.6392 -1.7244
  834MOL0     H15055   9.599   9.432   9.414 -1.0607 -1.2529 -1.0649
  834MOL0     H15056   9.774   9.546   9.261  1.7848  1.6640 -0.6279
  834MOL0     H15057   9.610   9.567   9.202 -1.1667  0.4407  1.9960
  834MOL0     H15058   9.831   9.789   9.178  0.4200  0.4792 -1.9033
  834MOL0     H15059   9.833   9.653   9.062  1.3686  2.2217 -0.7120
  834MOL0     H15060   9.591   9.824   9.103 -0.0929 -1.2446  0.8590
  834MOL0     H15061   9.619   9.713   8.969 -1.5044  2.2947 -1.6468
  834MOL0     H15062   9.828   9.848   8.925  0.1049 -0.6944  0.7049
  834MOL0     H15063   9.766   9.974   9.034 -0.2500  1.0537 -1.4594
  834MOL0     H15064   9.533   9.947   8.882 -0.1797 -3.9270 -0.4188
  834MOL0     H15065   9.659  10.059   8.845  1.0122  0.4292 -4.1006
  834MOL0     H15066   9.558   9.906   8.653  0.3137 -0.0944 -0.5061
  834MOL0     H15067   9.603   9.767   8.745 -0.1757 -0.1497 -0.7360
  834MOL0     H15068   9.850   9.804   8.691 -0.2350 -2.6551 -1.6613
  834MOL0     H15069   9.815   9.962   8.623 -2.0047  1.2277 -0.5283
  834MOL0     H15070   9.865   9.785   8.465  1.0585  0.7130  0.6840
  834MOL0     H15071   9.727   9.883   8.434 -0.4536  0.4087  0.1164
  834MOL0     H15072   9.548   9.854   9.507 -2.2522  1.0420 -0.9801
  834MOL0     H15073   9.363   9.798   9.652 -0.6913  0.0810 -1.8161
  834MOL0     H15074   9.130   9.372   9.796  0.1167  0.4212 -0.7564
  834MOL0     H15075   8.944   9.299   9.926 -2.0208 -1.7309 -2.0400
  834MOL0     H15076   7.569  10.188   9.919 -0.7317 -0.3489  1.1215
  834MOL0     H15077   7.350  10.259   9.820  1.5669 -0.0860  0.8566
  834MOL0     H15078   7.028  10.210   9.517 -1.5488 -0.3549 -1.2566
  834MOL0     H15079   6.840  10.331   9.424 -1.5088 -1.8131 -0.8143
  834MOL0     H15080   6.755  10.557   9.423 -1.2719  0.3159 -1.4617
  834MOL0     H15081   6.639  10.440   9.365 -1.9104 -1.9135  1.4066
  834MOL0     H15082   6.548  10.667   9.531  1.9518  1.0406 -0.5614
  834MOL0     H15083   6.461  10.571   9.408  0.2214 -0.1399 -1.3577
  834MOL0     H15084   6.700  10.742   9.325 -0.9018  0.9642 -1.1699
  834MOL0     H15085   6.562  10.666   9.231  0.2305  0.4287 -0.2418
  834MOL0     H15086   6.566  10.920   9.266 -0.2605  1.7184  1.4007
  834MOL0     H15087   6.529  10.889   9.435  1.6724  1.6008  0.1657
  834MOL0     H15088   6.155  10.842   9.274  0.5049 -1.1763 -1.6952
  834MOL0     H15089   6.666  10.364   9.808  1.3269 -1.1728  1.1277
  834MOL0     H15090   6.935  10.288   9.997  0.5614 -1.7741 -0.0294
  834MOL0     H15091   6.761  10.280  10.009 -0.8805 -0.2533 -2.0611
  834MOL0     H15092   6.848  10.131   9.993 -3.4094 -0.8869  0.7616
  835MOL0     O15093   3.550   2.020   5.774 -0.3795  0.2657 -0.2767
  835MOL0     C15094   3.495   1.914   5.788 -0.2624 -0.2846 -0.7664
  835MOL0     O15095   3.541   1.816   5.872  0.6312  0.1031 -0.2771
  835MOL0     C15096   3.667   1.820   5.913  0.4693  0.4084 -0.9171
  835MOL0     C15097   3.691   1.860   6.050 -0.3291  0.0132 -0.4555
  835MOL0     C15098   3.820   1.875   6.100  0.1006 -0.3960 -0.2604
  835MOL0     C15099   3.924   1.848   6.007 -0.0712  0.2352  0.3770
  835MOL0     O15100   4.054   1.844   6.044  0.5266 -0.0721 -0.3351
  835MOL0     C15101   4.078   1.874   6.181 -0.5779 -0.3208 -0.0485
  835MOL0     C15102   4.221   1.843   6.207  0.3619  0.2006 -0.9638
  835MOL0     C15103   4.248   1.877   6.355  0.3971 -0.1972  0.4045
  835MOL0     C15104   4.394   1.852   6.387  0.6023  0.0530  0.3947
  835MOL0     C15105   4.429   1.875   6.528 -0.2228  0.4859  0.2568
  835MOL0     C15106   4.585   1.885   6.544  0.1092 -0.3356  0.0153
  835MOL0     C15107   4.626   1.862   6.690  0.0529 -0.4006 -0.2596
  835MOL0     C15108   4.767   1.924   6.713  0.8341  0.2087 -0.0170
  835MOL0     N15109   4.802   1.935   6.851  0.6674  0.3122 -0.0118
  835MOL0     C15110   4.779   2.045   6.928  0.1441 -0.3795 -0.5386
  835MOL0     C15111   4.828   2.016   7.053  0.8083  0.1961  0.2554
  835MOL0     C15112   4.803   2.100   7.176  0.3293 -0.0559 -0.1977
  835MOL0     C15113   4.653   2.127   7.203 -0.3007  0.2356 -0.0950
  835MOL0     C15114   4.572   1.994   7.204  0.2986 -0.3784 -0.2456
  835MOL0     C15115   4.434   2.016   7.277  1.3764  0.2667  0.4262
  835MOL0     O15116   4.346   2.090   7.190 -0.1161 -0.4050  0.6391
  835MOL0     C15117   4.280   2.034   7.085 -0.1913  0.1002  0.0104
  835MOL0     C15118   4.201   2.119   7.003  0.8626 -0.3374 -0.2488
  835MOL0     C15119   4.125   2.076   6.899  0.0654 -0.9735 -0.0695
  835MOL0     C15120   4.037   2.184   6.832  0.5553 -0.1747  0.1904
  835MOL0     C15121   4.132   1.942   6.866  0.1828  0.0624 -0.3247
  835MOL0     C15122   4.062   1.871   6.756  0.3956  0.5397 -0.0160
  835MOL0     O15123   4.007   1.748   6.778  0.0599  1.5705  0.6892
  835MOL0     C15124   3.924   1.683   6.691 -0.0196  0.0396  0.1067
  835MOL0     C15125   3.907   1.545   6.710 -0.3018  0.8790  0.1861
  835MOL0     C15126   3.821   1.466   6.629  0.0205  0.1748 -0.6035
  835MOL0     C15127   3.759   1.523   6.516  0.1480 -0.3666 -0.2119
  835MOL0     O15128   3.669   1.442   6.441 -0.2005 -0.1472 -0.1719
  835MOL0     C15129   3.627   1.496   6.320 -0.2927  0.4769 -0.7016
  835MOL0     C15130   3.479   1.534   6.324 -0.4390  0.6279  0.6513
  835MOL0     C15131   3.440   1.659   6.243 -1.0055 -0.0574  0.4136
  835MOL0     C15132   3.292   1.658   6.207 -0.0146  0.2949  0.2387
  835MOL0     C15133   3.252   1.775   6.125  0.3930 -0.6611  0.7772
  835MOL0     C15134   3.104   1.769   6.100 -1.3013  0.0195  0.7085
  835MOL0     C15135   3.063   1.895   6.011  0.4812 -0.0932  1.2665
  835MOL0     C15136   2.919   1.878   5.983  0.6814 -0.0680 -1.0177
  835MOL0    Cl15137   2.844   1.999   5.882  0.0970 -0.7110  0.1987
  835MOL0     C15138   3.779   1.665   6.496  0.0812 -0.6677  0.3960
  835MOL0     C15139   3.857   1.736   6.581  0.3254 -0.6001  0.2251
  835MOL0     O15140   4.065   1.934   6.647  0.3758  0.9306 -1.0815
  835MOL0     C15141   4.214   1.850   6.938 -0.4067  0.0155 -0.7592
  835MOL0     C15142   4.288   1.895   7.049 -0.0313 -0.9507  0.3733
  835MOL0     N15143   4.863   1.886   7.043 -0.0029  0.8039 -0.2499
  835MOL0     N15144   4.846   1.833   6.922 -0.4407 -1.3845 -0.1263
  835MOL0     C15145   3.898   1.803   5.873 -0.4495 -0.0339  0.5894
  835MOL0     C15146   3.765   1.788   5.824  0.4288 -0.1515 -1.3151
  835MOL0     C15147   3.352   1.905   5.736 -0.2733  0.8946 -0.1431
  835MOL0     C15148   3.279   2.022   5.727  0.0765 -0.3636  0.1522
  835MOL0     C15149   3.147   2.026   5.679 -0.0574  0.3538  1.1761
  835MOL0     C15150   3.084   1.910   5.646 -0.5937  0.5102 -0.7320
  835MOL0     O15151   2.963   1.936   5.596 -0.9882 -0.1206  0.0797
  835MOL0     C15152   2.893   1.818   5.539 -0.4202 -0.3684  1.0572
  835MOL0     C15153   2.756   1.855   5.488  0.0861  0.9531  0.9895
  835MOL0     C15154   2.678   1.922   5.612  0.5845  0.0234  0.7395
  835MOL0     C15155   2.524   1.938   5.588 -0.1270  0.3973  0.1543
  835MOL0     C15156   2.485   1.989   5.452 -0.0810 -0.4922  0.4656
  835MOL0     C15157   2.451   2.052   5.347  0.0414  0.5974 -0.2357
  835MOL0     C15158   3.154   1.785   5.664  0.4403 -0.0734 -0.1705
  835MOL0     C15159   3.283   1.782   5.711 -0.7995 -0.4300 -0.4139
  835MOL0     C15160   3.349   1.642   5.731  0.0908 -0.3564 -0.2571
  835MOL0     H15161   3.615   1.901   6.116  1.4360  2.0496  0.4190
  835MOL0     H15162   3.832   1.904   6.203 -1.2402  0.6000 -0.3690
  835MOL0     H15163   4.019   1.816   6.252  1.1301 -1.3715  0.5717
  835MOL0     H15164   4.048   1.978   6.198 -1.7307 -0.0646 -2.9706
  835MOL0     H15165   4.231   1.737   6.182 -1.8431 -0.2996  0.0647
  835MOL0     H15166   4.282   1.911   6.146  3.2380 -0.0231  1.4393
  835MOL0     H15167   4.226   1.983   6.370  1.6829  0.9044 -4.0440
  835MOL0     H15168   4.179   1.827   6.423 -2.4486  3.4127  0.5082
  835MOL0     H15169   4.411   1.749   6.357  1.6431  0.5389 -0.7617
  835MOL0     H15170   4.458   1.907   6.317  1.1754 -4.1168 -2.7351
  835MOL0     H15171   4.391   1.788   6.582 -0.5139 -0.9605 -2.1340
  835MOL0     H15172   4.392   1.971   6.567 -1.1091 -0.1906  1.1318
  835MOL0     H15173   4.633   1.804   6.488 -1.3861 -0.4591 -1.1429
  835MOL0     H15174   4.623   1.978   6.501 -0.9267 -1.3402 -3.3200
  835MOL0     H15175   4.627   1.757   6.722  0.7427  0.1054  1.5541
  835MOL0     H15176   4.557   1.905   6.763  1.5324  0.0594  0.9292
  835MOL0     H15177   4.839   1.851   6.674  0.7657 -1.4074  2.6504
  835MOL0     H15178   4.769   2.025   6.671 -1.6466 -0.2518 -1.3949
  835MOL0     H15179   4.748   2.145   6.900 -0.0386 -1.1830 -3.5513
  835MOL0     H15180   4.850   2.198   7.158  1.5297 -0.7455 -0.9392
  835MOL0     H15181   4.842   2.051   7.265 -1.9075 -1.5399  0.0400
  835MOL0     H15182   4.645   2.180   7.298  0.8071 -0.3889  0.3682
  835MOL0     H15183   4.608   2.191   7.127 -3.2295 -4.0780 -2.4744
  835MOL0     H15184   4.562   1.948   7.106  0.3265 -2.4449  0.6611
  835MOL0     H15185   4.627   1.919   7.262  1.0147  0.5922  0.3677
  835MOL0     H15186   4.384   1.921   7.302  0.4283  0.8568  0.8174
  835MOL0     H15187   4.440   2.080   7.365  2.6690  0.0488  0.5226
  835MOL0     H15188   4.199   2.225   7.023 -1.4139  0.0554 -2.1148
  835MOL0     H15189   3.990   2.245   6.910 -0.5403 -0.3435 -0.3158
  835MOL0     H15190   3.962   2.135   6.769 -1.1786  1.2494  1.0524
  835MOL0     H15191   4.086   2.256   6.765 -0.8804  1.4880  0.8224
  835MOL0     H15192   3.960   1.510   6.798 -2.1606 -0.0105  1.0158
  835MOL0     H15193   3.817   1.361   6.656 -1.1979  0.8074  2.0187
  835MOL0     H15194   3.695   1.569   6.273  0.7907  0.7955  1.2435
  835MOL0     H15195   3.640   1.412   6.251  0.7307  0.1348 -0.1162
  835MOL0     H15196   3.430   1.453   6.269  2.6259  0.7014 -2.5359
  835MOL0     H15197   3.448   1.537   6.429  2.7670 -0.1766  1.7299
  835MOL0     H15198   3.502   1.655   6.153  0.1242 -0.4193  1.1933
  835MOL0     H15199   3.469   1.752   6.292  0.3574  1.8192 -3.5006
  835MOL0     H15200   3.233   1.651   6.299 -0.1588 -2.1240  0.0152
  835MOL0     H15201   3.279   1.562   6.156  0.0059  0.5461 -0.2399
  835MOL0     H15202   3.286   1.863   6.181  0.8150 -0.1116 -0.3237
  835MOL0     H15203   3.311   1.773   6.033 -0.5898 -1.9163  0.1416
  835MOL0     H15204   3.054   1.756   6.196 -0.8256  1.0263  1.1018
  835MOL0     H15205   3.069   1.680   6.047 -0.7450  0.1878  0.0459
  835MOL0     H15206   3.117   1.899   5.917  0.6058 -1.4198  1.2640
  835MOL0     H15207   3.091   1.987   6.063  0.3936 -0.7732  2.5915
  835MOL0     H15208   2.861   1.862   6.075  0.5972 -0.3804 -1.1248
  835MOL0     H15209   2.902   1.786   5.926 -1.1482 -0.1770 -0.3602
  835MOL0     H15210   3.732   1.718   6.414  1.4048 -0.8987 -0.5541
  835MOL0     H15211   3.867   1.843   6.567 -1.3060 -0.3480  0.7631
  835MOL0     H15212   4.205   1.742   6.927  0.4703 -0.5729  2.9657
  835MOL0     H15213   4.356   1.835   7.110  0.5985  0.3154  0.9614
  835MOL0     H15214   3.976   1.762   5.810  0.5522 -2.6672  3.3170
  835MOL0     H15215   3.748   1.758   5.721 -1.0588  0.9035 -1.4036
  835MOL0     H15216   3.330   2.117   5.741  2.8814 -1.3183 -2.3306
  835MOL0     H15217   3.098   2.122   5.666 -1.5393 -0.5758 -0.5602
  835MOL0     H15218   2.959   1.773   5.464  1.9105  0.6124  2.4231
  835MOL0     H15219   2.874   1.748   5.621 -0.2723  0.8964  2.1999
  835MOL0     H15220   2.697   1.768   5.455  0.7712  0.7720  0.2161
  835MOL0     H15221   2.757   1.927   5.406  0.2383 -0.4226 -0.2455
  835MOL0     H15222   2.691   1.858   5.700 -1.9325 -1.3965  0.1953
  835MOL0     H15223   2.721   2.021   5.629  0.3665  0.1892  0.3505
  835MOL0     H15224   2.491   2.002   5.670  0.6980  1.6991 -0.4879
  835MOL0     H15225   2.478   1.840   5.591 -2.2399  1.3632  2.0304
  835MOL0     H15226   2.428   2.101   5.255 -1.2420 -0.7266 -0.6567
  835MOL0     H15227   3.104   1.697   5.623 -0.1970  0.1104  0.1994
  835MOL0     H15228   3.321   1.574   5.650 -3.2983 -2.1535  2.1245
  835MOL0     H15229   3.457   1.632   5.722 -0.1116 -1.9220 -1.2197
  835MOL0     H15230   3.311   1.597   5.823 -1.5899  1.9542  0.2917
  836MOL0     O15231   8.500  10.767   5.103 -0.4638 -0.3565 -0.7123
  836MOL0     C15232   8.435  10.841   5.035  0.2929  0.4835  0.4663
  836MOL0     O15233   8.483  10.951   4.974  0.2601  0.6702  0.2461
  836MOL0     C15234   8.605  11.002   4.994  0.6873  0.0758  0.6174
  836MOL0     C15235   8.608  11.139   5.018  0.5800 -0.6058  0.2864
  836MOL0     C15236   8.732  11.205   5.037  0.4433  0.2098 -0.4246
  836MOL0     C15237   8.853  11.136   5.031  0.3807  0.0710  0.1696
  836MOL0     O15238   8.981  11.189   5.055  0.2796  0.1217 -0.4102
  836MOL0     C15239   8.992  11.331   5.060  0.5221 -0.2254  0.2604
  836MOL0     C15240   9.134  11.385   5.053  0.4354  0.4238 -0.7323
  836MOL0     C15241   9.215  11.368   4.919  0.2239 -0.7696 -0.9987
  836MOL0     C15242   9.360  11.424   4.926  0.6298  0.3227  0.7637
  836MOL0     C15243   9.377  11.576   4.922  0.5965 -0.3393 -0.2481
  836MOL0     C15244   9.525  11.600   4.906  0.6276 -0.3960  0.1040
  836MOL0     C15245   9.567  11.743   4.874  0.1560 -0.2725  0.6844
  836MOL0     C15246   9.719  11.762   4.886 -0.2150 -0.1944  0.8155
  836MOL0     N15247   9.737  11.903   4.884 -0.6469  0.9272  0.1840
  836MOL0     C15248   9.764  11.981   4.993  0.4468  0.4261 -0.3636
  836MOL0     C15249   9.759  12.112   4.958 -0.5248  1.2600 -0.3692
  836MOL0     C15250   9.762  12.230   5.053 -0.5388  1.6588 -0.5228
  836MOL0     C15251   9.883  12.316   5.024 -0.9194  0.3813 -0.0110
  836MOL0     C15252  10.015  12.266   5.085 -0.0685  0.4582 -0.1258
  836MOL0     C15253  10.115  12.368   5.133  0.4090 -0.5936 -0.5167
  836MOL0     O15254  10.142  12.464   5.035 -0.0249  0.2097  0.3800
  836MOL0     C15255  10.273  12.498   5.009 -0.0437 -0.4155  0.2567
  836MOL0     C15256  10.337  12.418   4.918 -0.0049  0.1195 -0.1027
  836MOL0     C15257  10.473  12.437   4.877 -0.6434  0.3166  0.0925
  836MOL0     C15258  10.543  12.320   4.802  0.5885 -0.9397 -0.2365
  836MOL0     C15259  10.531  12.551   4.930  0.1730 -0.1562 -0.1090
  836MOL0     C15260  10.674  12.586   4.888  0.2623 -0.1776  0.6814
  836MOL0     O15261  10.723  12.532   4.774 -0.2104 -0.1889 -0.4361
  836MOL0     C15262  10.836  12.577   4.723 -0.6644  0.0480 -0.1682
  836MOL0     C15263  10.832  12.700   4.647 -0.0183  0.2303 -0.0714
  836MOL0     C15264  10.956  12.729   4.583  0.2664  0.1500  0.0511
  836MOL0     C15265  11.071  12.651   4.600 -0.9741  0.2778 -0.4212
  836MOL0     O15266  11.186  12.690   4.545 -0.1027 -0.3742 -0.4844
  836MOL0     C15267  11.200  12.722   4.401 -0.2639  0.5643  0.1237
  836MOL0     C15268  11.353  12.752   4.372 -0.5064  0.1312 -0.1628
  836MOL0     C15269  11.369  12.790   4.217 -0.6601 -0.2399  0.0168
  836MOL0     C15270  11.520  12.766   4.162  0.7850 -0.9511 -0.2959
  836MOL0     C15271  11.523  12.807   4.015  0.3207  0.5641 -0.7686
  836MOL0     C15272  11.671  12.816   3.972 -0.1269  0.0995  0.0392
  836MOL0     C15273  11.686  12.868   3.839  0.1755  0.4839 -0.7256
  836MOL0     C15274  11.832  12.833   3.788 -0.0452 -0.8527 -0.5090
  836MOL0    Cl15275  11.955  12.888   3.918  0.2557 -0.0256  0.0022
  836MOL0     C15276  11.065  12.527   4.672  0.1266 -0.3892 -0.0244
  836MOL0     C15277  10.949  12.495   4.733 -0.2508 -0.0007 -0.1337
  836MOL0     O15278  10.734  12.669   4.957  0.4521  0.4875 -0.3063
  836MOL0     C15279  10.468  12.636   5.023  0.1844  1.1978 -1.0960
  836MOL0     C15280  10.342  12.599   5.073 -0.6239  0.1933 -1.0620
  836MOL0     N15281   9.707  12.111   4.830 -1.1945 -0.6431 -0.0561
  836MOL0     N15282   9.699  11.991   4.787 -0.0154 -0.5850  0.3880
  836MOL0     C15283   8.844  10.996   5.015 -0.2228 -0.8413  1.0135
  836MOL0     C15284   8.724  10.937   4.999 -0.5550  0.3468  0.2853
  836MOL0     C15285   8.286  10.813   5.012  1.2697 -0.2780  0.5373
  836MOL0     C15286   8.202  10.902   4.944 -0.6661 -0.3423  0.2987
  836MOL0     C15287   8.068  10.891   4.942 -0.0701 -0.1619  0.3984
  836MOL0     C15288   8.000  10.792   5.009 -0.0940  0.2091  0.7795
  836MOL0     O15289   7.865  10.754   4.986 -0.1493  0.0009  0.3069
  836MOL0     C15290   7.775  10.858   5.017  1.0206 -0.4491  0.4609
  836MOL0     C15291   7.683  10.874   4.891 -0.3317  0.9325 -0.3370
  836MOL0     C15292   7.612  10.747   4.857 -0.4771 -0.4729 -0.6483
  836MOL0     C15293   7.509  10.774   4.747  0.0830 -0.0592 -0.0742
  836MOL0     C15294   7.394  10.858   4.796 -0.3198  1.2570  0.1060
  836MOL0     C15295   7.293  10.922   4.817  0.3640 -0.3668 -0.1026
  836MOL0     C15296   8.080  10.696   5.078 -0.4124  0.2188  0.3546
  836MOL0     C15297   8.220  10.705   5.072  0.5017 -0.2423  0.3020
  836MOL0     C15298   8.297  10.593   5.136  0.8214 -0.2713  0.4194
  836MOL0     H15299   8.518  11.199   5.015  0.9106 -0.1118 -1.7720
  836MOL0     H15300   8.742  11.314   5.039  3.9553 -0.0185  1.0102
  836MOL0     H15301   8.944  11.368   5.151 -0.3338  0.6445 -0.5178
  836MOL0     H15302   8.934  11.374   4.978 -3.9899  2.0464  4.1905
  836MOL0     H15303   9.119  11.489   5.083 -1.8282  0.0435 -0.3285
  836MOL0     H15304   9.185  11.330   5.133 -0.6891  1.7089  0.9263
  836MOL0     H15305   9.213  11.262   4.890 -0.5617 -0.9252 -0.4172
  836MOL0     H15306   9.160  11.429   4.848  3.3995  3.0747 -0.5062
  836MOL0     H15307   9.420  11.385   5.009 -0.4216 -0.3359  1.2291
  836MOL0     H15308   9.409  11.395   4.832 -1.3452  0.7365 -0.4525
  836MOL0     H15309   9.345  11.633   5.009  4.1696  2.5420 -0.5624
  836MOL0     H15310   9.320  11.620   4.839  1.7965  4.5536  1.1649
  836MOL0     H15311   9.570  11.582   5.004  3.1542 -1.3090 -1.1286
  836MOL0     H15312   9.574  11.535   4.832  0.6012  0.1767 -0.4195
  836MOL0     H15313   9.519  11.802   4.953 -2.3473 -0.8273 -0.3252
  836MOL0     H15314   9.535  11.775   4.774  1.2002  2.2417  1.0730
  836MOL0     H15315   9.756  11.718   4.979 -2.9265  0.5083  2.3458
  836MOL0     H15316   9.762  11.722   4.794 -0.9608 -0.1416  0.4432
  836MOL0     H15317   9.778  11.940   5.093  1.6465  0.6711 -0.4223
  836MOL0     H15318   9.768  12.189   5.154 -2.1423 -0.2244 -1.1285
  836MOL0     H15319   9.666  12.280   5.041 -3.4589 -2.7620  1.6461
  836MOL0     H15320   9.886  12.342   4.918 -1.7909  0.2935 -0.0702
  836MOL0     H15321   9.862  12.401   5.091  1.2298  1.0207 -0.0860
  836MOL0     H15322  10.010  12.197   5.170  2.1149 -1.1126 -1.1466
  836MOL0     H15323  10.056  12.199   5.009  0.9652 -0.1756  0.9401
  836MOL0     H15324  10.067  12.409   5.221 -0.7645  1.6230 -2.0997
  836MOL0     H15325  10.212  12.323   5.154 -0.5518 -2.6288 -0.1344
  836MOL0     H15326  10.281  12.337   4.872  0.8822 -2.3268  2.8073
  836MOL0     H15327  10.639  12.291   4.844  1.0975  0.3627 -0.4603
  836MOL0     H15328  10.560  12.347   4.697 -1.8639 -2.1933 -1.0273
  836MOL0     H15329  10.476  12.234   4.797 -0.4791 -0.1860  0.4530
  836MOL0     H15330  10.750  12.770   4.648  0.2439  0.5400  0.1734
  836MOL0     H15331  10.960  12.828   4.540  0.7562 -0.4735 -1.3920
  836MOL0     H15332  11.162  12.643   4.337  0.9914  1.4723 -1.8505
  836MOL0     H15333  11.142  12.810   4.373 -2.0882  0.5719  3.4431
  836MOL0     H15334  11.394  12.830   4.437 -2.4994 -0.4435  1.9443
  836MOL0     H15335  11.414  12.663   4.393  0.8336  1.0176 -0.1971
  836MOL0     H15336  11.346  12.897   4.221 -0.9054 -0.2698 -0.5544
  836MOL0     H15337  11.305  12.727   4.154  3.5551 -1.6544 -3.3626
  836MOL0     H15338  11.534  12.658   4.173 -0.7628 -1.1566 -0.2012
  836MOL0     H15339  11.594  12.821   4.221 -0.3534  0.3276 -0.0027
  836MOL0     H15340  11.465  12.728   3.967 -1.0788 -0.2758  2.0571
  836MOL0     H15341  11.472  12.904   4.016  2.0514  1.7365  4.5018
  836MOL0     H15342  11.713  12.715   3.977 -2.0399 -0.6895  2.3919
  836MOL0     H15343  11.727  12.886   4.036  0.2984 -0.1441 -0.0638
  836MOL0     H15344  11.643  12.968   3.828  1.7712  1.6567  2.4960
  836MOL0     H15345  11.627  12.797   3.780  0.5076  0.1814 -0.6955
  836MOL0     H15346  11.856  12.882   3.694  3.2303 -1.1818  0.0286
  836MOL0     H15347  11.842  12.725   3.772 -1.0093 -1.0287 -0.0077
  836MOL0     H15348  11.152  12.462   4.671 -1.1048 -2.1861  1.8248
  836MOL0     H15349  10.944  12.413   4.803  0.1226  0.1202  0.0393
  836MOL0     H15350  10.517  12.717   5.076  3.3120 -0.0762 -1.7623
  836MOL0     H15351  10.294  12.654   5.153 -1.5130 -0.7962 -0.8813
  836MOL0     H15352   8.935  10.937   5.021  1.1865  1.2566  1.3394
  836MOL0     H15353   8.725  10.833   4.970  0.9343  0.9863 -2.2557
  836MOL0     H15354   8.255  10.982   4.893 -1.2146 -1.1827 -1.6583
  836MOL0     H15355   8.016  10.971   4.891 -0.7049  0.5067  2.0346
  836MOL0     H15356   7.705  10.832   5.096 -1.6811 -1.7168 -2.1761
  836MOL0     H15357   7.821  10.956   5.034  1.3794 -0.9258  2.5649
  836MOL0     H15358   7.753  10.901   4.811  1.8625 -2.1344  0.3635
  836MOL0     H15359   7.608  10.953   4.904 -0.1797  1.1601 -0.8146
  836MOL0     H15360   7.682  10.673   4.819 -2.7803 -2.8118 -0.6066
  836MOL0     H15361   7.562  10.703   4.944  2.3969 -2.8900 -0.0994
  836MOL0     H15362   7.476  10.675   4.713  0.5367  0.2779 -1.5804
  836MOL0     H15363   7.557  10.828   4.665 -1.8722  3.5979  0.9357
  836MOL0     H15364   7.208  10.979   4.848 -0.0921 -1.2105  0.2481
  836MOL0     H15365   8.040  10.610   5.131  3.1405 -2.4353 -0.8678
  836MOL0     H15366   8.339  10.614   5.234  0.4867  0.9848  0.3155
  836MOL0     H15367   8.230  10.506   5.143 -1.5662  1.4020 -0.0976
  836MOL0     H15368   8.381  10.573   5.069 -1.2258  0.3321 -2.5476
  837MOL0     O15369  10.797   0.574   7.287 -0.0065 -0.4966 -0.0003
  837MOL0     C15370  10.757   0.499   7.200 -0.1086 -1.0280  0.5483
  837MOL0     O15371  10.842   0.413   7.121  0.3011  0.3560 -0.2539
  837MOL0     C15372  10.978   0.428   7.145 -0.0485 -0.3802  0.6780
  837MOL0     C15373  11.058   0.499   7.050  0.6501 -0.6238 -0.7864
  837MOL0     C15374  11.195   0.493   7.062  0.3078  0.5940 -0.0175
  837MOL0     C15375  11.252   0.419   7.165 -0.6604  0.0032  0.0871
  837MOL0     O15376  11.391   0.400   7.172  0.1274  0.5405 -0.4758
  837MOL0     C15377  11.469   0.523   7.162  0.1483  0.1725  0.4465
  837MOL0     C15378  11.606   0.495   7.224  0.1978  0.1697 -0.5287
  837MOL0     C15379  11.604   0.550   7.365 -0.2509  1.2023 -0.6287
  837MOL0     C15380  11.717   0.483   7.446 -0.3262 -0.2103 -0.5701
  837MOL0     C15381  11.725   0.546   7.580 -0.1927  0.1993 -0.0239
  837MOL0     C15382  11.792   0.461   7.691  0.5556 -0.3993 -0.1569
  837MOL0     C15383  11.946   0.462   7.668  0.7788 -0.1093 -0.2684
  837MOL0     C15384  12.005   0.403   7.793 -0.4761 -0.1133  0.3777
  837MOL0     N15385  12.152   0.381   7.768  0.4556 -0.4253  0.0523
  837MOL0     C15386  12.258   0.427   7.843  0.3009 -0.2015 -0.7387
  837MOL0     C15387  12.359   0.358   7.775 -0.2523 -1.0708  0.6523
  837MOL0     C15388  12.506   0.377   7.811  0.6416  0.1158  0.3315
  837MOL0     C15389  12.535   0.280   7.924 -0.0389 -0.9688 -0.3972
  837MOL0     C15390  12.518   0.132   7.882 -0.2513  0.3599  0.1814
  837MOL0     C15391  12.623   0.043   7.952 -0.6916  0.8976 -0.1439
  837MOL0     O15392  12.739   0.056   7.869  0.2610  0.4618  0.1773
  837MOL0     C15393  12.849  -0.036   7.888  0.1086  0.0614 -1.1930
  837MOL0     C15394  12.860  -0.116   8.005 -0.6214 -0.2600  0.5932
  837MOL0     C15395  12.979  -0.191   8.029  0.3648  0.1510 -0.1411
  837MOL0     C15396  12.994  -0.246   8.161 -0.9929  1.0686  0.1149
  837MOL0     C15397  13.085  -0.197   7.933  0.0983  0.9089 -0.3801
  837MOL0     C15398  13.210  -0.263   7.945  0.0443  0.0398  0.2302
  837MOL0     O15399  13.262  -0.322   7.832  0.1999  0.2453 -0.0028
  837MOL0     C15400  13.375  -0.401   7.848  0.7379  0.8173 -0.5204
  837MOL0     C15401  13.371  -0.532   7.799  0.3955  0.2378  0.1100
  837MOL0     C15402  13.477  -0.620   7.803 -0.6267 -0.9480 -0.7820
  837MOL0     C15403  13.603  -0.568   7.842 -0.4627  0.2803  0.5314
  837MOL0     O15404  13.719  -0.639   7.856  0.7147  0.5957  0.5154
  837MOL0     C15405  13.752  -0.757   7.767 -1.4808  0.4592  0.7637
  837MOL0     C15406  13.909  -0.763   7.770 -0.3185  0.2828 -0.1035
  837MOL0     C15407  13.987  -0.890   7.732  0.5663 -0.4630 -0.7241
  837MOL0     C15408  13.982  -0.993   7.841 -0.0182 -0.5950  0.5594
  837MOL0     C15409  14.016  -1.140   7.785  0.2085  0.2591 -0.0439
  837MOL0     C15410  14.158  -1.144   7.722  0.7842  1.0785  0.5467
  837MOL0     C15411  14.191  -1.296   7.688  0.5051  0.4842  0.1483
  837MOL0     C15412  14.314  -1.308   7.612  0.5166 -0.0339  1.0507
  837MOL0    Cl15413  14.450  -1.258   7.704  0.4932  0.0249  0.4260
  837MOL0     C15414  13.605  -0.436   7.879 -0.6095 -0.5085 -0.5924
  837MOL0     C15415  13.498  -0.347   7.880  1.5565 -0.3925 -0.9966
  837MOL0     O15416  13.258  -0.266   8.056 -0.6650  0.0067  0.4694
  837MOL0     C15417  13.067  -0.119   7.815 -0.2519  0.1111 -0.1417
  837MOL0     C15418  12.946  -0.050   7.790 -0.3840  0.2313  0.9499
  837MOL0     N15419  12.305   0.271   7.683  0.6595  0.5027 -0.5554
  837MOL0     N15420  12.183   0.281   7.673  0.4631  0.0567 -0.4189
  837MOL0     C15421  11.179   0.352   7.259 -0.0965  0.4076  0.5637
  837MOL0     C15422  11.042   0.361   7.248  0.4658  0.4522  0.0335
  837MOL0     C15423  10.607   0.475   7.190 -0.1114 -0.8664 -0.0772
  837MOL0     C15424  10.566   0.348   7.135 -0.4043 -0.0437 -1.7423
  837MOL0     C15425  10.427   0.323   7.127  0.2123 -0.5774  0.1379
  837MOL0     C15426  10.336   0.416   7.177 -0.1720  0.3613 -0.3402
  837MOL0     O15427  10.206   0.375   7.172 -0.4232  0.1868  0.6245
  837MOL0     C15428  10.109   0.432   7.265 -0.3364  0.8119  0.1203
  837MOL0     C15429   9.969   0.417   7.190 -0.3259 -0.2814 -0.2213
  837MOL0     C15430   9.930   0.549   7.124  0.0642 -0.2274 -0.7253
  837MOL0     C15431   9.789   0.522   7.064  0.2153  0.1026 -0.9285
  837MOL0     C15432   9.747   0.633   6.984  0.7150  0.5933  0.0686
  837MOL0     C15433   9.713   0.735   6.922  0.4019  0.6459  0.4728
  837MOL0     C15434  10.380   0.531   7.233  0.5836  0.0065  0.0040
  837MOL0     C15435  10.509   0.567   7.242  0.8134 -0.7275 -0.1783
  837MOL0     C15436  10.537   0.707   7.290 -0.2783  0.0865  0.7238
  837MOL0     H15437  11.005   0.547   6.969 -0.6202 -2.8370 -1.3354
  837MOL0     H15438  11.247   0.542   6.980 -3.3863  1.3531 -2.1100
  837MOL0     H15439  11.441   0.616   7.211  2.4747 -0.6847  3.7550
  837MOL0     H15440  11.481   0.539   7.055 -2.4771 -3.8208 -0.6804
  837MOL0     H15441  11.623   0.388   7.240  0.4587  0.2951  0.0864
  837MOL0     H15442  11.688   0.533   7.162  1.9773 -0.6224  1.2166
  837MOL0     H15443  11.618   0.659   7.365  2.3218  0.9914  1.6000
  837MOL0     H15444  11.511   0.527   7.417 -0.3217 -0.8522 -1.5934
  837MOL0     H15445  11.698   0.375   7.448 -2.2618  0.1195  0.4296
  837MOL0     H15446  11.816   0.496   7.401 -0.3884 -1.4870 -1.1301
  837MOL0     H15447  11.626   0.572   7.620 -0.4031  0.2120 -0.5447
  837MOL0     H15448  11.764   0.648   7.578 -0.3119  0.3066  1.6790
  837MOL0     H15449  11.757   0.506   7.785  1.5147 -0.5875  0.3030
  837MOL0     H15450  11.748   0.361   7.686 -1.2188  0.2831  0.7574
  837MOL0     H15451  11.975   0.566   7.651 -0.3551  0.0656 -1.2452
  837MOL0     H15452  11.963   0.400   7.579 -0.9734  0.4323 -1.0267
  837MOL0     H15453  11.989   0.459   7.885 -1.5139  0.2508 -0.0208
  837MOL0     H15454  11.967   0.301   7.805  0.6848 -0.4302  1.5746
  837MOL0     H15455  12.256   0.494   7.928  0.5482  1.0251 -1.6667
  837MOL0     H15456  12.540   0.477   7.839 -1.1486  0.7361  0.4192
  837MOL0     H15457  12.557   0.362   7.716 -0.8765 -2.7280 -0.1318
  837MOL0     H15458  12.634   0.306   7.964 -1.2364  1.3363  1.2929
  837MOL0     H15459  12.476   0.300   8.013  1.2109 -0.7352  0.4122
  837MOL0     H15460  12.420   0.093   7.913 -0.8948  1.3185 -0.6001
  837MOL0     H15461  12.531   0.124   7.774 -2.2940 -2.6364  0.0115
  837MOL0     H15462  12.653   0.064   8.055  3.2308  0.0756 -0.9295
  837MOL0     H15463  12.590  -0.061   7.955  0.7155  0.4488  0.5613
  837MOL0     H15464  12.777  -0.114   8.075  0.2484  1.1612  1.6359
  837MOL0     H15465  13.032  -0.348   8.155 -1.7418  0.7146  1.1701
  837MOL0     H15466  12.893  -0.271   8.195 -1.4291  3.3234  0.7054
  837MOL0     H15467  13.050  -0.180   8.228 -1.2553  0.3823  1.0207
  837MOL0     H15468  13.285  -0.567   7.742  0.0356  2.0286 -0.5134
  837MOL0     H15469  13.470  -0.721   7.764  1.7816 -1.3629 -0.3024
  837MOL0     H15470  13.721  -0.850   7.814  0.6113 -0.6974 -0.0210
  837MOL0     H15471  13.719  -0.746   7.664  0.9043  0.5560 -0.0436
  837MOL0     H15472  13.952  -0.695   7.696  3.1994 -0.5327  1.0344
  837MOL0     H15473  13.940  -0.741   7.872 -2.0664 -1.4410  0.8794
  837MOL0     H15474  14.093  -0.866   7.717  0.4299  2.4430  1.9458
  837MOL0     H15475  13.945  -0.932   7.640 -0.1179  0.2988 -0.7616
  837MOL0     H15476  13.880  -1.003   7.880  0.2425 -1.0217  1.1482
  837MOL0     H15477  14.049  -0.950   7.916 -1.3402 -0.6719  1.8206
  837MOL0     H15478  14.019  -1.206   7.872 -0.4326 -0.9707 -0.9310
  837MOL0     H15479  13.937  -1.177   7.719  1.0880 -3.0820  0.6058
  837MOL0     H15480  14.236  -1.097   7.783  1.2503  1.7732 -0.5490
  837MOL0     H15481  14.150  -1.097   7.624 -0.8425  0.9386  0.5828
  837MOL0     H15482  14.109  -1.342   7.634  2.4237 -1.5751 -1.2167
  837MOL0     H15483  14.197  -1.357   7.779  1.3133  0.1005 -0.1456
  837MOL0     H15484  14.317  -1.241   7.526 -1.7111 -1.9218 -0.6529
  837MOL0     H15485  14.316  -1.405   7.561 -2.1892  1.2625 -1.8566
  837MOL0     H15486  13.701  -0.394   7.907 -0.8585 -0.4645  0.2150
  837MOL0     H15487  13.509  -0.243   7.908  1.7156 -0.8303  0.6633
  837MOL0     H15488  13.140  -0.130   7.735 -1.6167 -4.5100 -1.0797
  837MOL0     H15489  12.932   0.008   7.700  2.5368  2.9534  2.0646
  837MOL0     H15490  11.229   0.297   7.338 -1.7864 -1.4170  0.4339
  837MOL0     H15491  10.983   0.304   7.319  2.9554  0.8068  2.5580
  837MOL0     H15492  10.636   0.273   7.100  1.6904 -0.2485  2.2833
  837MOL0     H15493  10.375   0.233   7.098 -0.6925  0.1809 -0.6237
  837MOL0     H15494  10.110   0.369   7.354 -0.4858 -0.0563 -0.4762
  837MOL0     H15495  10.133   0.532   7.301 -1.4818  0.9889  0.4353
  837MOL0     H15496   9.888   0.388   7.258  1.2804 -4.0776  0.3001
  837MOL0     H15497   9.977   0.339   7.114 -1.5798 -1.0269  0.3732
  837MOL0     H15498   9.951   0.638   7.184  1.6748 -1.5482  0.7934
  837MOL0     H15499  10.002   0.563   7.043 -0.5742  2.0508 -0.9627
  837MOL0     H15500   9.715   0.515   7.143  0.8378 -0.4792 -0.3852
  837MOL0     H15501   9.784   0.432   7.002 -2.2798  1.2391 -2.5167
  837MOL0     H15502   9.697   0.819   6.857 -1.0353  0.1130  0.1117
  837MOL0     H15503  10.316   0.615   7.259  0.0076  0.2305 -1.9771
  837MOL0     H15504  10.568   0.708   7.395 -1.3929  0.1834  1.0651
  837MOL0     H15505  10.619   0.754   7.236 -1.0424  1.7674  0.9545
  837MOL0     H15506  10.446   0.767   7.283  0.2046  0.6225 -3.3793
  838MOL0     O15507   2.436   4.236   5.474 -0.2027  1.3024  0.1634
  838MOL0     C15508   2.408   4.350   5.442  0.7668  0.2528  0.2724
  838MOL0     O15509   2.500   4.449   5.412  0.0736 -0.0430  0.5409
  838MOL0     C15510   2.628   4.409   5.393 -0.3412 -0.4324  0.3490
  838MOL0     C15511   2.675   4.349   5.279  0.3547 -0.0650 -0.6024
  838MOL0     C15512   2.809   4.305   5.267 -0.2521  0.8890  0.1944
  838MOL0     C15513   2.902   4.325   5.370  0.4332  0.3852 -0.6208
  838MOL0     O15514   3.026   4.273   5.369  0.9761 -0.1618  0.5434
  838MOL0     C15515   3.085   4.199   5.268  0.2801 -0.1824  0.9082
  838MOL0     C15516   3.198   4.134   5.341 -0.2097 -0.2375 -0.3185
  838MOL0     C15517   3.327   4.111   5.265 -0.5531 -0.0954 -0.0923
  838MOL0     C15518   3.404   3.997   5.320 -0.4784  0.2071 -0.0985
  838MOL0     C15519   3.530   3.960   5.245  0.3522 -0.1063 -0.4318
  838MOL0     C15520   3.665   4.030   5.289 -0.0975  0.0394  0.3638
  838MOL0     C15521   3.780   3.992   5.191  0.5625 -0.4543  0.6091
  838MOL0     C15522   3.765   4.048   5.042  0.1987 -0.1376  0.1954
  838MOL0     N15523   3.872   3.986   4.959  0.5858  0.4839  0.2229
  838MOL0     C15524   3.932   4.059   4.855  1.2670  0.2731 -0.3109
  838MOL0     C15525   4.025   3.980   4.809 -0.3098 -0.0401 -0.0762
  838MOL0     C15526   4.107   3.987   4.681 -0.5583  0.4820 -0.1731
  838MOL0     C15527   4.268   3.992   4.698 -0.3520  0.6981  0.0802
  838MOL0     C15528   4.306   4.136   4.736 -0.3662 -0.2307  0.3253
  838MOL0     C15529   4.457   4.158   4.774  0.1232 -0.1849  0.5145
  838MOL0     O15530   4.537   4.061   4.711 -0.0290  0.1386 -0.2181
  838MOL0     C15531   4.678   4.079   4.727  0.2760  0.7135 -0.1003
  838MOL0     C15532   4.759   4.185   4.783  0.3761  0.6083 -0.2631
  838MOL0     C15533   4.898   4.184   4.795  1.0406  0.4535 -0.2843
  838MOL0     C15534   4.959   4.303   4.856 -0.2693 -0.0790 -0.1815
  838MOL0     C15535   4.975   4.070   4.756  0.2430 -0.4005 -0.2421
  838MOL0     C15536   5.119   4.045   4.790 -0.7240 -0.5344  0.3312
  838MOL0     O15537   5.166   3.920   4.755  0.4277  0.0764  0.3036
  838MOL0     C15538   5.283   3.863   4.793 -0.2663 -0.9343  0.0689
  838MOL0     C15539   5.356   3.803   4.685  0.1745 -0.7261  0.0699
  838MOL0     C15540   5.473   3.732   4.713 -0.6784 -0.8013  0.0602
  838MOL0     C15541   5.528   3.736   4.839 -0.7784  0.2324  0.3693
  838MOL0     O15542   5.652   3.680   4.846  0.2583 -1.0392 -0.2289
  838MOL0     C15543   5.668   3.598   4.965 -0.4431 -0.2095  0.5393
  838MOL0     C15544   5.808   3.527   4.951 -0.5731 -0.5882  0.5565
  838MOL0     C15545   5.922   3.626   4.968 -0.5535  0.1004  1.1560
  838MOL0     C15546   6.063   3.552   4.978 -0.1985  0.2367 -0.2920
  838MOL0     C15547   6.183   3.651   4.981 -0.0914  0.4421  0.1762
  838MOL0     C15548   6.315   3.591   5.000 -0.2793  0.4890 -0.7725
  838MOL0     C15549   6.421   3.707   4.996  0.6583  0.1829 -0.1496
  838MOL0     C15550   6.565   3.650   5.003 -0.4498  0.4179  0.3940
  838MOL0    Cl15551   6.675   3.759   4.914  0.0841 -0.1068  0.1276
  838MOL0     C15552   5.474   3.816   4.940 -0.7431 -0.1692 -1.1471
  838MOL0     C15553   5.350   3.877   4.917 -0.3598 -0.1832 -1.4247
  838MOL0     O15554   5.189   4.136   4.830  0.0792 -0.6369 -0.1987
  838MOL0     C15555   4.896   3.964   4.704 -0.4554 -0.2565 -0.4281
  838MOL0     C15556   4.753   3.969   4.691 -0.2836  0.1052  0.1928
  838MOL0     N15557   4.019   3.856   4.876  0.6048 -0.6211 -0.3387
  838MOL0     N15558   3.931   3.866   4.973 -0.0030 -0.1521  0.9889
  838MOL0     C15559   2.853   4.396   5.481 -0.1813 -0.1660  0.0480
  838MOL0     C15560   2.717   4.432   5.496  0.2422  0.2135 -0.5587
  838MOL0     C15561   2.261   4.391   5.430  0.1612 -0.1507 -0.1454
  838MOL0     C15562   2.169   4.287   5.421  0.0485 -0.0688  0.2859
  838MOL0     C15563   2.035   4.323   5.396 -0.8265  0.2059 -0.6764
  838MOL0     C15564   1.985   4.454   5.389 -0.0986  0.4706 -0.6126
  838MOL0     O15565   1.850   4.473   5.367 -0.1539  0.1518 -0.4888
  838MOL0     C15566   1.777   4.583   5.417 -0.4580 -0.1978 -0.6137
  838MOL0     C15567   1.743   4.576   5.570 -0.1698 -0.0199 -0.1386
  838MOL0     C15568   1.865   4.630   5.653 -0.6110 -0.6091 -0.5689
  838MOL0     C15569   1.819   4.689   5.794 -0.9322  0.2967  0.2211
  838MOL0     C15570   1.758   4.584   5.878  0.4464 -0.2641 -0.4144
  838MOL0     C15571   1.705   4.495   5.942 -0.4240 -0.4951 -0.1431
  838MOL0     C15572   2.082   4.554   5.399 -0.1791  0.6275  0.5405
  838MOL0     C15573   2.220   4.526   5.415 -0.1179  0.2354  0.4590
  838MOL0     C15574   2.307   4.641   5.444  0.2798 -0.3595  0.6965
  838MOL0     H15575   2.620   4.317   5.190  2.6110 -1.2353 -1.6667
  838MOL0     H15576   2.827   4.256   5.172 -1.3754 -0.9517  0.8844
  838MOL0     H15577   3.105   4.273   5.189  0.3687 -1.2214 -0.0699
  838MOL0     H15578   3.024   4.114   5.234  0.8081 -0.1970 -0.0419
  838MOL0     H15579   3.228   4.194   5.427  0.0554 -0.1876 -0.4451
  838MOL0     H15580   3.162   4.042   5.387  1.9615 -0.6808  0.6133
  838MOL0     H15581   3.287   4.072   5.171 -0.0533 -1.5071  0.2570
  838MOL0     H15582   3.384   4.203   5.251 -0.1526  0.0703  2.1792
  838MOL0     H15583   3.442   4.011   5.422 -0.2830  0.7209 -0.2387
  838MOL0     H15584   3.336   3.911   5.321 -2.1180  1.4496  0.9090
  838MOL0     H15585   3.503   3.991   5.144 -1.4053 -0.1168  0.0029
  838MOL0     H15586   3.547   3.853   5.258 -4.6631 -1.0542  0.4095
  838MOL0     H15587   3.646   4.138   5.285 -0.5719 -0.0383  0.5003
  838MOL0     H15588   3.696   4.010   5.392  1.7487  0.2400 -0.1147
  838MOL0     H15589   3.785   3.882   5.197  0.3566 -0.5019 -0.0855
  838MOL0     H15590   3.872   4.037   5.230 -0.7083  0.1130  3.1375
  838MOL0     H15591   3.668   4.031   4.995  0.5536  2.7839 -1.8818
  838MOL0     H15592   3.779   4.156   5.046  4.6709 -0.5328  0.8987
  838MOL0     H15593   3.900   4.151   4.808 -0.5110  1.1323  2.3468
  838MOL0     H15594   4.074   4.062   4.609  0.1157  1.5633  0.6091
  838MOL0     H15595   4.091   3.895   4.625  0.3251  0.1985  0.0187
  838MOL0     H15596   4.304   3.922   4.773  4.1673 -0.8486 -3.1012
  838MOL0     H15597   4.314   3.964   4.602 -0.3415 -1.8048  0.7418
  838MOL0     H15598   4.286   4.203   4.652 -1.1174  0.4461  1.0316
  838MOL0     H15599   4.255   4.178   4.824 -1.3714  3.0633 -1.6486
  838MOL0     H15600   4.478   4.262   4.747 -0.9427 -0.3291 -0.9537
  838MOL0     H15601   4.479   4.146   4.881  4.3564 -2.1231 -0.3598
  838MOL0     H15602   4.700   4.270   4.817 -1.4763 -0.9267  0.5407
  838MOL0     H15603   5.013   4.353   4.776  1.2131 -2.4545 -0.7485
  838MOL0     H15604   5.022   4.277   4.942  0.3700  0.2572 -0.5457
  838MOL0     H15605   4.882   4.368   4.900  0.8332  1.2786 -0.1886
  838MOL0     H15606   5.318   3.803   4.583  3.0941 -0.1492 -1.1196
  838MOL0     H15607   5.508   3.682   4.624 -0.6363  1.2604 -1.1511
  838MOL0     H15608   5.656   3.660   5.054  4.1980  5.6093 -2.1617
  838MOL0     H15609   5.594   3.518   4.965 -1.2792  0.4887 -1.9305
  838MOL0     H15610   5.826   3.455   5.031 -1.8358  0.1184  1.5007
  838MOL0     H15611   5.814   3.477   4.853  2.2826  2.2820 -0.8992
  838MOL0     H15612   5.915   3.689   5.057 -2.7186  1.4028  0.1532
  838MOL0     H15613   5.929   3.679   4.872  0.0686 -0.6611  0.7626
  838MOL0     H15614   6.070   3.491   4.887 -2.6274  1.4361 -1.3911
  838MOL0     H15615   6.064   3.487   5.065  0.4179  1.3247  0.5379
  838MOL0     H15616   6.173   3.712   4.891  0.3780  0.6072  0.2300
  838MOL0     H15617   6.174   3.718   5.067 -0.0797  1.0829 -0.3101
  838MOL0     H15618   6.338   3.518   4.921 -1.4374 -0.8501  0.0737
  838MOL0     H15619   6.327   3.548   5.100  2.7627 -0.0994 -1.2973
  838MOL0     H15620   6.403   3.777   5.078  1.7731  0.9077 -0.5003
  838MOL0     H15621   6.407   3.758   4.900  0.8793 -0.6107 -0.6144
  838MOL0     H15622   6.563   3.551   4.957  0.3138  1.5355 -2.2672
  838MOL0     H15623   6.608   3.636   5.102  1.3480 -0.3706 -0.4537
  838MOL0     H15624   5.527   3.824   5.034  0.9443 -2.1826 -1.8427
  838MOL0     H15625   5.303   3.940   4.991 -0.7618  1.3246 -2.9194
  838MOL0     H15626   4.941   3.879   4.654 -0.1002  0.4411 -1.3138
  838MOL0     H15627   4.713   3.886   4.633 -0.4908  0.8271 -0.7073
  838MOL0     H15628   2.926   4.403   5.561  2.4905 -0.0601 -2.2470
  838MOL0     H15629   2.682   4.477   5.588  2.3998  1.1312 -0.1089
  838MOL0     H15630   2.204   4.184   5.419  1.7372  0.4893 -0.6430
  838MOL0     H15631   1.968   4.241   5.373  0.9840 -1.6356  0.3076
  838MOL0     H15632   1.823   4.677   5.384 -0.9317 -0.3671 -1.8332
  838MOL0     H15633   1.679   4.571   5.369 -1.9211 -1.5313  2.4559
  838MOL0     H15634   1.725   4.471   5.597  0.0285  0.0842  0.4184
  838MOL0     H15635   1.649   4.632   5.573 -1.1625 -1.5575 -1.1430
  838MOL0     H15636   1.943   4.554   5.660  2.0378  1.8978 -1.2232
  838MOL0     H15637   1.913   4.711   5.599 -2.1007  0.6298 -0.1223
  838MOL0     H15638   1.758   4.777   5.771  1.0494  1.2092 -1.9592
  838MOL0     H15639   1.913   4.718   5.842 -1.4128 -1.9918  2.8458
  838MOL0     H15640   1.658   4.414   5.996  0.4717  0.8885  2.9241
  838MOL0     H15641   2.044   4.655   5.405 -2.5052 -0.2727  3.4943
  838MOL0     H15642   2.255   4.737   5.437  0.1830 -0.2323  2.7472
  838MOL0     H15643   2.349   4.633   5.544 -0.3137 -1.4868  0.8644
  838MOL0     H15644   2.388   4.650   5.370 -0.4228 -0.8417 -0.1538
  839MOL0     O15645  10.319   2.672   9.272  0.0030 -0.4100 -0.0273
  839MOL0     C15646  10.365   2.699   9.384  0.4312  0.2861  0.2865
  839MOL0     O15647  10.492   2.660   9.423 -0.6931 -0.3953 -0.5989
  839MOL0     C15648  10.564   2.602   9.330 -0.8185  1.8725 -0.2364
  839MOL0     C15649  10.623   2.655   9.216  0.6269 -0.3140  0.8913
  839MOL0     C15650  10.703   2.581   9.131  0.2565  0.8201 -0.2278
  839MOL0     C15651  10.741   2.447   9.173 -0.5187 -0.7126  0.2003
  839MOL0     O15652  10.816   2.356   9.102  0.1243 -0.1687 -0.6779
  839MOL0     C15653  10.869   2.399   8.981 -0.3320  0.2202  0.6656
  839MOL0     C15654  10.975   2.296   8.941 -0.8830 -0.3500 -0.1255
  839MOL0     C15655  11.104   2.347   9.011 -0.9240  0.9390 -0.0531
  839MOL0     C15656  11.219   2.267   8.944 -0.0906 -1.0557  0.4535
  839MOL0     C15657  11.352   2.294   9.007 -0.0985  0.2011  0.3374
  839MOL0     C15658  11.444   2.168   8.990 -0.0562 -0.0793 -0.1864
  839MOL0     C15659  11.582   2.202   9.019 -1.1000  0.7540 -0.2495
  839MOL0     C15660  11.647   2.306   8.929 -0.1348  0.6812 -0.6169
  839MOL0     N15661  11.792   2.324   8.947 -0.1122  0.6636  0.4549
  839MOL0     C15662  11.875   2.287   8.842  0.2213 -0.4371 -0.7184
  839MOL0     C15663  11.998   2.270   8.910  0.7209  0.1359  0.3531
  839MOL0     C15664  12.125   2.236   8.827  0.1746  0.3278  0.0187
  839MOL0     C15665  12.170   2.088   8.834 -0.2153 -0.0559 -0.1269
  839MOL0     C15666  12.203   2.021   8.971  0.2432 -0.4125  0.9231
  839MOL0     C15667  12.332   2.075   9.037 -0.5368  0.0718 -0.0647
  839MOL0     O15668  12.443   2.058   8.952  0.1419 -0.6984 -0.0091
  839MOL0     C15669  12.569   2.081   8.990 -0.4584 -0.0436 -0.4444
  839MOL0     C15670  12.668   2.060   8.894  0.1419  0.4360  0.9910
  839MOL0     C15671  12.805   2.084   8.918  0.3863  0.2195 -0.3735
  839MOL0     C15672  12.899   2.067   8.797  0.2132 -0.5923 -0.5301
  839MOL0     C15673  12.843   2.131   9.049  0.0960  0.3935 -0.1754
  839MOL0     C15674  12.985   2.151   9.090  0.1780 -0.6870 -0.4795
  839MOL0     O15675  13.086   2.137   9.003  0.5578 -0.1289  0.0409
  839MOL0     C15676  13.227   2.171   9.028  0.5745  0.9234  0.5941
  839MOL0     C15677  13.303   2.192   8.916  0.4126 -0.5755 -0.2473
  839MOL0     C15678  13.439   2.226   8.928 -0.4787 -0.2356  0.8828
  839MOL0     C15679  13.503   2.212   9.053  0.2709 -0.8813  0.0240
  839MOL0     O15680  13.640   2.223   9.049 -0.0403 -0.0954  0.4832
  839MOL0     C15681  13.722   2.170   9.153  0.2899  0.0984 -0.6015
  839MOL0     C15682  13.855   2.129   9.098 -0.1715  0.1748  0.7822
  839MOL0     C15683  13.845   2.007   8.999 -0.5153 -0.8429 -0.5484
  839MOL0     C15684  13.986   1.946   8.977 -1.1462  0.7268 -0.0524
  839MOL0     C15685  13.963   1.819   8.890 -0.7024  0.5691  0.7224
  839MOL0     C15686  14.100   1.754   8.870  0.2002 -0.5904  0.9794
  839MOL0     C15687  14.116   1.704   8.725 -0.7578 -0.0709  0.2794
  839MOL0     C15688  14.259   1.682   8.690 -0.6793  0.0968  0.3696
  839MOL0    Cl15689  14.332   1.847   8.677  0.1275 -0.0920 -0.1875
  839MOL0     C15690  13.424   2.190   9.169  0.2007 -0.1752 -0.0345
  839MOL0     C15691  13.288   2.163   9.153 -0.2471 -0.2777 -0.7405
  839MOL0     O15692  13.003   2.169   9.213 -0.5572 -0.8601 -0.2585
  839MOL0     C15693  12.746   2.158   9.138 -0.1517 -0.5418  0.2824
  839MOL0     C15694  12.611   2.127   9.113  0.1179 -0.4041 -0.0485
  839MOL0     N15695  11.993   2.315   9.039  0.1467  0.1492 -0.0101
  839MOL0     N15696  11.862   2.340   9.062 -0.7862  0.2869 -0.1750
  839MOL0     C15697  10.686   2.397   9.289 -0.0025  0.6782  0.0036
  839MOL0     C15698  10.598   2.471   9.374 -0.2488 -0.0962 -0.5899
  839MOL0     C15699  10.277   2.774   9.472 -0.0254 -0.4585 -0.6203
  839MOL0     C15700  10.141   2.800   9.437  0.8501 -0.2294 -0.0659
  839MOL0     C15701  10.060   2.878   9.518  0.1584  0.2916  0.1700
  839MOL0     C15702  10.107   2.936   9.636  0.5539  0.4336 -0.3133
  839MOL0     O15703  10.017   2.999   9.721  0.0305  0.0696  0.1043
  839MOL0     C15704  10.033   2.994   9.864 -0.1874  0.5657  0.3152
  839MOL0     C15705   9.895   2.991   9.935  1.4036 -0.0771  1.2228
  839MOL0     C15706   9.824   2.853   9.902 -0.6974  0.3886 -0.4669
  839MOL0     C15707   9.693   2.819   9.977 -0.1239  0.4557  0.3568
  839MOL0     C15708   9.596   2.926   9.966  0.1177  0.1142 -0.0607
  839MOL0     C15709   9.506   2.998   9.933  0.3528 -0.2373 -0.6581
  839MOL0     C15710  10.236   2.912   9.674  0.4589  0.8993 -0.2649
  839MOL0     C15711  10.324   2.842   9.591  0.5702  0.1843 -0.2109
  839MOL0     C15712  10.470   2.838   9.633 -0.8412  0.4759  0.8723
  839MOL0     H15713  10.582   2.756   9.213 -2.5316 -1.4587  2.0106
  839MOL0     H15714  10.742   2.633   9.045 -1.8442  3.4300  0.2595
  839MOL0     H15715  10.920   2.495   8.991  0.8531 -0.2466 -0.6039
  839MOL0     H15716  10.796   2.407   8.899  0.2832  1.3556  0.2010
  839MOL0     H15717  10.950   2.197   8.979 -0.0359 -0.3302  0.5158
  839MOL0     H15718  10.989   2.306   8.833  1.9055  3.9965  0.3999
  839MOL0     H15719  11.123   2.452   8.990 -1.2151  0.3882 -3.6624
  839MOL0     H15720  11.103   2.325   9.118  0.1909 -2.8398 -0.6504
  839MOL0     H15721  11.198   2.160   8.954 -0.5574 -0.8330  2.2130
  839MOL0     H15722  11.219   2.289   8.837 -2.2184 -2.6037  0.0636
  839MOL0     H15723  11.334   2.313   9.113  0.2572 -1.9791  0.8470
  839MOL0     H15724  11.390   2.384   8.958 -3.6167  1.0620 -1.0625
  839MOL0     H15725  11.409   2.080   9.044 -0.8718  1.2874  1.6097
  839MOL0     H15726  11.439   2.132   8.887  0.7547 -0.6490 -0.0311
  839MOL0     H15727  11.640   2.110   9.010 -0.3498  1.2004 -0.1093
  839MOL0     H15728  11.597   2.242   9.120 -1.6108  0.1161  0.0814
  839MOL0     H15729  11.625   2.276   8.826  4.0528 -0.5819 -1.3057
  839MOL0     H15730  11.593   2.399   8.951 -0.4723  0.2171  0.6334
  839MOL0     H15731  11.844   2.280   8.738 -0.2927  0.3955 -0.6333
  839MOL0     H15732  12.207   2.298   8.864 -0.8848  1.6838  0.1521
  839MOL0     H15733  12.109   2.265   8.723  0.8412  0.6070 -0.0065
  839MOL0     H15734  12.092   2.021   8.795 -0.1133 -1.2997  1.6844
  839MOL0     H15735  12.259   2.073   8.772  0.2644  0.8898  0.3045
  839MOL0     H15736  12.123   2.041   9.043 -1.7429 -1.4553 -0.8865
  839MOL0     H15737  12.194   1.913   8.960 -0.7241 -0.2565  0.1377
  839MOL0     H15738  12.333   2.181   9.066 -0.0352  0.1056 -0.1931
  839MOL0     H15739  12.346   2.030   9.136 -2.5728  3.1872  1.8275
  839MOL0     H15740  12.641   2.043   8.791 -1.7074 -0.9697  1.6504
  839MOL0     H15741  12.829   2.070   8.713 -1.5331  2.1603  0.8762
  839MOL0     H15742  12.969   1.983   8.793  2.5853  1.3168 -1.0188
  839MOL0     H15743  12.951   2.162   8.805 -3.0135  1.6768 -3.4306
  839MOL0     H15744  13.251   2.200   8.821 -1.7056  2.0393  0.9723
  839MOL0     H15745  13.504   2.238   8.842  2.6415 -3.2029  2.5797
  839MOL0     H15746  13.735   2.250   9.227 -0.7392 -0.2941  0.0189
  839MOL0     H15747  13.677   2.091   9.213 -1.0181  1.3711  0.1797
  839MOL0     H15748  13.895   2.216   9.045  3.9478 -2.4265 -0.8904
  839MOL0     H15749  13.919   2.107   9.184  0.8477  0.0123 -0.0072
  839MOL0     H15750  13.794   2.050   8.912 -1.1875 -0.3410  0.0798
  839MOL0     H15751  13.789   1.924   9.043 -0.1753 -1.6517 -1.6052
  839MOL0     H15752  14.043   1.921   9.067 -2.4454 -0.8524  0.3549
  839MOL0     H15753  14.046   2.013   8.913 -2.5135 -0.7304 -3.0536
  839MOL0     H15754  13.901   1.742   8.938  1.1251 -2.3522 -1.2729
  839MOL0     H15755  13.929   1.849   8.790 -0.3238  0.3510  0.5278
  839MOL0     H15756  14.113   1.664   8.931 -2.6209 -1.6743  0.1479
  839MOL0     H15757  14.182   1.821   8.899  2.1806 -2.7100  0.5821
  839MOL0     H15758  14.083   1.777   8.650  0.6190 -1.7543 -2.1201
  839MOL0     H15759  14.057   1.615   8.701 -0.4724  0.4344 -2.6848
  839MOL0     H15760  14.270   1.633   8.593  2.0573 -1.9105  1.5452
  839MOL0     H15761  14.306   1.622   8.769  2.5647  0.1944 -1.2865
  839MOL0     H15762  13.470   2.186   9.267 -2.5041  0.7771  1.4110
  839MOL0     H15763  13.240   2.129   9.244  2.2062 -0.9530  0.3790
  839MOL0     H15764  12.773   2.184   9.240  0.3630 -1.1962  0.3208
  839MOL0     H15765  12.542   2.163   9.188  1.5679  0.9270  0.7272
  839MOL0     H15766  10.708   2.293   9.309  2.1094  0.9797 -0.4850
  839MOL0     H15767  10.556   2.418   9.458 -0.8423  1.7409  0.3194
  839MOL0     H15768  10.105   2.754   9.346 -1.5006  1.0053  0.1790
  839MOL0     H15769   9.953   2.889   9.506  0.2349 -0.6170 -1.6566
  839MOL0     H15770  10.104   2.923   9.907  0.0412  0.5242 -0.1233
  839MOL0     H15771  10.075   3.093   9.886  0.8274  0.2040  0.0282
  839MOL0     H15772   9.836   3.070   9.887  1.9491 -0.7719 -0.6763
  839MOL0     H15773   9.917   3.002  10.042 -0.6980 -2.0826  1.9341
  839MOL0     H15774   9.819   2.848   9.793  0.0388 -3.2385 -0.4620
  839MOL0     H15775   9.896   2.775   9.927 -3.0561 -2.2892 -1.5880
  839MOL0     H15776   9.706   2.793  10.082 -1.9101 -1.1316  0.2245
  839MOL0     H15777   9.657   2.725   9.935 -0.3400  1.3092 -1.5043
  839MOL0     H15778   9.427   3.066   9.909  0.2436 -0.5706 -1.2535
  839MOL0     H15779  10.264   2.956   9.769  0.9896 -1.2847  0.6466
  839MOL0     H15780  10.538   2.845   9.548 -1.3115  0.0901  0.4596
  839MOL0     H15781  10.486   2.925   9.698  3.5146  0.0445  0.7009
  839MOL0     H15782  10.490   2.744   9.685 -2.2120 -2.9355 -4.0549
  840MOL0     O15783   8.031   3.935   3.989 -0.8039 -0.0869 -0.4423
  840MOL0     C15784   7.992   4.007   4.083  1.1777 -0.1445  0.0689
  840MOL0     O15785   7.962   3.963   4.211  0.2703  0.5052 -0.3703
  840MOL0     C15786   8.001   3.831   4.244  0.3964 -0.5021 -0.0235
  840MOL0     C15787   8.132   3.781   4.235 -0.8351  0.0796  0.1209
  840MOL0     C15788   8.157   3.648   4.262  0.5096 -0.1625  0.6285
  840MOL0     C15789   8.047   3.567   4.307 -0.2940  0.6418 -0.3768
  840MOL0     O15790   8.079   3.440   4.345  0.2077  0.4014 -0.0932
  840MOL0     C15791   8.045   3.405   4.482  0.3441  0.4362 -0.0134
  840MOL0     C15792   8.179   3.366   4.548  0.1309  0.3591 -1.2181
  840MOL0     C15793   8.265   3.492   4.554 -0.0857 -0.0525 -0.5430
  840MOL0     C15794   8.378   3.482   4.657  0.0274 -0.3815 -0.3368
  840MOL0     C15795   8.481   3.600   4.675  0.5397 -0.0313 -0.6939
  840MOL0     C15796   8.420   3.734   4.737 -0.3624 -0.4414 -0.6133
  840MOL0     C15797   8.532   3.832   4.764  0.0604 -0.7718 -0.9671
  840MOL0     C15798   8.487   3.977   4.793  1.3427 -1.0249 -0.2039
  840MOL0     N15799   8.602   4.050   4.834 -0.3208 -0.3126  0.4050
  840MOL0     C15800   8.656   4.061   4.958 -0.3601  0.7078 -0.2372
  840MOL0     C15801   8.763   4.144   4.943 -0.0282  0.1202 -0.9306
  840MOL0     C15802   8.850   4.196   5.055  0.3540 -0.2371 -0.7368
  840MOL0     C15803   8.757   4.295   5.132 -0.1646 -0.3692  0.0194
  840MOL0     C15804   8.820   4.387   5.240 -0.2042  0.4536 -0.0737
  840MOL0     C15805   8.915   4.326   5.338 -0.2364  0.6843  0.4323
  840MOL0     O15806   8.873   4.200   5.387  0.1763  0.5243 -0.6628
  840MOL0     C15807   8.978   4.126   5.448  0.1293 -0.4676  0.5199
  840MOL0     C15808   8.927   4.030   5.534 -0.3508  0.4484  0.6854
  840MOL0     C15809   9.008   3.932   5.597  0.7035 -0.6659 -0.0728
  840MOL0     C15810   8.945   3.835   5.690 -0.4096  0.1025 -0.3979
  840MOL0     C15811   9.149   3.957   5.598 -0.2216  0.3279 -0.6880
  840MOL0     C15812   9.239   3.874   5.681  0.1211  0.5032  0.1140
  840MOL0     O15813   9.362   3.927   5.698  0.7585  0.5280  0.2340
  840MOL0     C15814   9.475   3.844   5.720  0.3910 -0.1313  0.1194
  840MOL0     C15815   9.480   3.719   5.793  0.1130 -0.0545  0.6318
  840MOL0     C15816   9.601   3.644   5.788  0.2123  0.9332  0.2827
  840MOL0     C15817   9.723   3.694   5.738 -0.0896  0.0871 -0.0953
  840MOL0     O15818   9.844   3.624   5.766 -0.2283 -0.0448 -0.4695
  840MOL0     C15819   9.939   3.699   5.833 -0.7780  0.3818 -0.1353
  840MOL0     C15820  10.036   3.618   5.918 -0.2870  0.0712 -0.1215
  840MOL0     C15821  10.083   3.687   6.044 -0.8509  1.3824 -0.2241
  840MOL0     C15822  10.205   3.611   6.099 -0.2736  0.2407  0.1258
  840MOL0     C15823  10.264   3.666   6.227 -0.8213  0.3501  0.5536
  840MOL0     C15824  10.307   3.814   6.215 -0.6829  0.5172  0.4999
  840MOL0     C15825  10.388   3.872   6.332  0.0384 -0.3000 -0.0024
  840MOL0     C15826  10.308   3.909   6.448  0.8001 -0.2175  0.2439
  840MOL0    Cl15827  10.232   3.772   6.526 -0.1424  0.5509 -0.0302
  840MOL0     C15828   9.716   3.819   5.669  0.0619 -0.1563 -0.1804
  840MOL0     C15829   9.596   3.888   5.654 -0.0185  0.1686  0.2292
  840MOL0     O15830   9.206   3.761   5.718 -0.3866 -1.0100 -0.7726
  840MOL0     C15831   9.196   4.062   5.521 -0.3361 -0.1481  0.6269
  840MOL0     C15832   9.119   4.151   5.439 -0.6727  0.4195  0.0950
  840MOL0     N15833   8.771   4.181   4.809  0.4515  0.1900 -0.1756
  840MOL0     N15834   8.679   4.116   4.746  0.6823  0.2921 -0.0719
  840MOL0     C15835   7.921   3.620   4.310  1.3361  0.1101 -0.5599
  840MOL0     C15836   7.889   3.751   4.279 -0.0732  0.9521  0.4082
  840MOL0     C15837   8.001   4.150   4.066 -0.1019 -0.0541 -0.7039
  840MOL0     C15838   8.021   4.239   4.167  0.6947  0.6457  0.0744
  840MOL0     C15839   8.053   4.366   4.145  0.1140 -0.1201 -0.2478
  840MOL0     C15840   8.063   4.415   4.018 -0.3137 -0.2241  0.0521
  840MOL0     O15841   8.106   4.546   4.012 -0.1383 -0.2344 -0.6194
  840MOL0     C15842   8.107   4.626   3.886 -0.5030  0.0055  0.3218
  840MOL0     C15843   8.241   4.609   3.823  0.9005 -0.7369 -1.1019
  840MOL0     C15844   8.350   4.656   3.928  0.1593  1.1156  0.3987
  840MOL0     C15845   8.492   4.651   3.877 -0.4861 -0.3752  0.2148
  840MOL0     C15846   8.587   4.719   3.961  0.6546 -0.2062 -0.4264
  840MOL0     C15847   8.666   4.775   4.034 -0.7059  0.3450  0.1467
  840MOL0     C15848   8.026   4.342   3.913  0.3668  0.1596 -0.2917
  840MOL0     C15849   7.989   4.209   3.938  0.2977  0.0611  1.2598
  840MOL0     C15850   7.924   4.140   3.820  0.1485 -0.2292 -0.1658
  840MOL0     H15851   8.213   3.843   4.198 -1.4009  0.5646 -0.3292
  840MOL0     H15852   8.257   3.606   4.255  0.8017  0.6947 -0.7280
  840MOL0     H15853   7.974   3.322   4.478 -1.7684  2.1452  0.1550
  840MOL0     H15854   8.001   3.487   4.539  0.5894  1.6746 -1.5428
  840MOL0     H15855   8.158   3.341   4.652  1.0773  2.2648 -0.5294
  840MOL0     H15856   8.217   3.278   4.494 -2.2813 -1.6888  0.2146
  840MOL0     H15857   8.320   3.497   4.460  0.7463 -1.5196 -0.1670
  840MOL0     H15858   8.197   3.576   4.573 -1.8170 -1.8578  1.8916
  840MOL0     H15859   8.341   3.465   4.759 -3.6490  1.4744 -1.1940
  840MOL0     H15860   8.434   3.391   4.635 -1.7858 -1.4210 -0.7497
  840MOL0     H15861   8.544   3.622   4.589  0.3321  2.3078 -0.3172
  840MOL0     H15862   8.553   3.566   4.750  1.6596 -2.2432 -2.6434
  840MOL0     H15863   8.342   3.772   4.670 -1.1063  1.2494  1.1172
  840MOL0     H15864   8.366   3.710   4.829 -2.6011  0.2434 -1.6731
  840MOL0     H15865   8.605   3.826   4.683  0.4324  1.4557 -0.8486
  840MOL0     H15866   8.576   3.788   4.855  2.6174  0.0903 -1.7049
  840MOL0     H15867   8.450   4.027   4.703  2.4534  0.8407  0.3061
  840MOL0     H15868   8.406   3.975   4.866  1.9100 -2.2030  0.4141
  840MOL0     H15869   8.620   4.026   5.054 -3.5766  1.4893 -1.0415
  840MOL0     H15870   8.947   4.235   5.021  0.6793 -1.6766 -1.5628
  840MOL0     H15871   8.884   4.112   5.116  2.2956  1.2075  0.2903
  840MOL0     H15872   8.699   4.352   5.059 -3.5349 -2.3799  0.9285
  840MOL0     H15873   8.683   4.237   5.189  0.0031 -1.2229 -0.6154
  840MOL0     H15874   8.863   4.466   5.177 -2.9385 -0.0777 -2.8838
  840MOL0     H15875   8.733   4.424   5.295 -0.2503 -0.3719  0.4145
  840MOL0     H15876   9.009   4.327   5.282 -1.4526 -4.0955 -2.2985
  840MOL0     H15877   8.920   4.396   5.421 -3.9165  2.3302 -0.5200
  840MOL0     H15878   8.821   4.011   5.547 -0.0713  0.1518  2.9860
  840MOL0     H15879   8.838   3.851   5.704 -0.2699  3.6063 -2.3348
  840MOL0     H15880   8.974   3.847   5.795 -0.3478  0.2434 -0.4309
  840MOL0     H15881   8.957   3.730   5.661  1.5533 -0.4929  2.1560
  840MOL0     H15882   9.394   3.676   5.842 -0.2066  2.1834  2.1985
  840MOL0     H15883   9.606   3.549   5.839 -1.3816 -0.2703 -1.6664
  840MOL0     H15884   9.999   3.759   5.764  0.0199  1.1309  1.1514
  840MOL0     H15885   9.887   3.774   5.893 -1.5093  0.4013 -0.7828
  840MOL0     H15886   9.984   3.525   5.943  0.3780 -0.3262 -0.1723
  840MOL0     H15887  10.124   3.587   5.861 -0.6085  0.0472 -0.6038
  840MOL0     H15888  10.002   3.684   6.118  0.7865  1.6741  1.6933
  840MOL0     H15889  10.118   3.787   6.017  3.9684 -0.4729 -1.9936
  840MOL0     H15890  10.286   3.614   6.025 -0.0061  1.2528  0.4468
  840MOL0     H15891  10.181   3.505   6.118  2.5066 -0.8370 -1.7263
  840MOL0     H15892  10.195   3.660   6.311  0.3562 -1.4074  1.4540
  840MOL0     H15893  10.348   3.606   6.265 -2.0373 -0.4670  2.0258
  840MOL0     H15894  10.217   3.876   6.206 -0.6742  1.0498  3.3016
  840MOL0     H15895  10.372   3.830   6.128 -1.7111 -0.6277 -0.5145
  840MOL0     H15896  10.443   3.962   6.302  1.0175 -1.2525 -1.1815
  840MOL0     H15897  10.466   3.799   6.354  3.2656  2.5616 -0.9899
  840MOL0     H15898  10.220   3.962   6.410  0.6229  0.2558  1.2681
  840MOL0     H15899  10.369   3.965   6.520 -0.6429 -1.4545  2.5803
  840MOL0     H15900   9.803   3.857   5.616 -0.0245  0.9113  0.4223
  840MOL0     H15901   9.595   3.989   5.614  4.8766  0.6736  0.6919
  840MOL0     H15902   9.297   4.096   5.504 -0.8655  0.1236 -2.5003
  840MOL0     H15903   9.159   4.234   5.382  0.2086 -0.3824 -0.4737
  840MOL0     H15904   7.838   3.558   4.342 -0.3124  1.7371 -1.5478
  840MOL0     H15905   7.786   3.785   4.278 -0.5542 -0.2754 -2.8012
  840MOL0     H15906   8.021   4.215   4.273  1.0549 -0.3402 -0.1332
  840MOL0     H15907   8.068   4.429   4.232 -0.0024  1.4829 -1.3275
  840MOL0     H15908   8.029   4.590   3.818  0.8491 -1.3947 -0.5413
  840MOL0     H15909   8.088   4.731   3.910 -2.8909 -0.1047 -0.8136
  840MOL0     H15910   8.233   4.663   3.728 -4.5650  0.6314 -0.1915
  840MOL0     H15911   8.244   4.502   3.798 -1.1703 -0.5250 -2.5763
  840MOL0     H15912   8.319   4.760   3.943 -2.3581  0.2847  1.5172
  840MOL0     H15913   8.345   4.607   4.025 -1.4422  0.0828 -0.1653
  840MOL0     H15914   8.496   4.691   3.775 -0.1214 -1.0378 -0.0341
  840MOL0     H15915   8.526   4.548   3.868 -1.5940 -0.6095 -2.0875
  840MOL0     H15916   8.731   4.828   4.101  0.8145  1.2616 -1.9394
  840MOL0     H15917   8.001   4.391   3.820 -2.0550  0.1037  0.2571
  840MOL0     H15918   7.864   4.051   3.842  0.4366 -0.9607 -2.1038
  840MOL0     H15919   7.857   4.207   3.765  0.7802 -0.1306 -0.8285
  840MOL0     H15920   8.000   4.113   3.746 -0.7591 -0.4856 -1.0319
  841MOL0     O15921   0.626   1.121   0.533 -0.3895 -0.1177 -0.1737
  841MOL0     C15922   0.558   1.149   0.433  0.6344  0.5098 -0.1148
  841MOL0     O15923   0.451   1.075   0.392 -0.4989  0.6193 -1.4078
  841MOL0     C15924   0.391   0.979   0.469 -0.1270  0.2357  0.8723
  841MOL0     C15925   0.430   0.923   0.593 -0.4893  0.4239 -0.1951
  841MOL0     C15926   0.350   0.818   0.652 -0.0287 -0.6233  0.5172
  841MOL0     C15927   0.230   0.774   0.592 -0.4111 -0.1195  0.3875
  841MOL0     O15928   0.155   0.680   0.650 -0.0371  0.0011  0.0166
  841MOL0     C15929   0.080   0.745   0.759  1.0025  0.4477  0.1048
  841MOL0     C15930   0.013   0.641   0.851 -0.2925 -0.6458  0.9183
  841MOL0     C15931   0.109   0.577   0.947  0.0862  0.5062 -0.3924
  841MOL0     C15932   0.028   0.496   1.050 -0.1768  0.1473 -0.6873
  841MOL0     C15933   0.124   0.424   1.143 -0.9429 -0.0401  0.2188
  841MOL0     C15934   0.183   0.289   1.081 -0.5184 -0.5948  0.1062
  841MOL0     C15935   0.264   0.198   1.181 -0.7911 -0.4061  0.2795
  841MOL0     C15936   0.391   0.281   1.230 -0.1236 -0.5108  0.6679
  841MOL0     N15937   0.477   0.222   1.323  0.0587 -0.1629 -0.1332
  841MOL0     C15938   0.607   0.185   1.303 -0.0675 -0.2962 -0.1898
  841MOL0     C15939   0.637   0.145   1.429  0.4102  0.2641 -0.1392
  841MOL0     C15940   0.764   0.082   1.480 -0.0281  0.1673  0.4492
  841MOL0     C15941   0.879   0.123   1.392  0.0650  0.0122  0.1045
  841MOL0     C15942   1.019   0.059   1.422  0.6439  0.0059  0.8126
  841MOL0     C15943   1.128   0.091   1.317  0.0814 -0.3201 -0.0805
  841MOL0     O15944   1.157   0.234   1.325  0.5045  1.1645  0.8977
  841MOL0     C15945   1.262   0.274   1.243 -0.0994 -0.0953  0.0429
  841MOL0     C15946   1.310   0.202   1.132  0.5765  0.2460  0.2868
  841MOL0     C15947   1.397   0.260   1.034 -0.0643 -0.5250  0.0109
  841MOL0     C15948   1.449   0.167   0.924  0.3262  0.0463  0.1726
  841MOL0     C15949   1.452   0.389   1.058  1.2556 -1.2122  0.3199
  841MOL0     C15950   1.533   0.468   0.967 -0.0652 -0.7282  0.4879
  841MOL0     O15951   1.628   0.539   1.031  0.6670 -0.6107  0.8591
  841MOL0     C15952   1.713   0.626   0.969 -1.1531  0.3711  0.1378
  841MOL0     C15953   1.849   0.654   1.016  0.0107  0.1151  0.0524
  841MOL0     C15954   1.934   0.746   0.951  0.1470  0.2246  0.2593
  841MOL0     C15955   1.894   0.811   0.836 -0.7873  0.0379 -0.2635
  841MOL0     O15956   1.985   0.901   0.785  0.1857  0.0516 -0.1804
  841MOL0     C15957   2.054   0.851   0.674  0.3489  0.5516  0.2172
  841MOL0     C15958   2.149   0.961   0.620  1.2222 -0.3986 -0.1209
  841MOL0     C15959   2.265   1.005   0.708 -0.1261  0.1711  0.3082
  841MOL0     C15960   2.346   0.894   0.764 -0.0177 -0.1512 -0.5664
  841MOL0     C15961   2.424   0.936   0.889  0.4131  0.0327  0.1291
  841MOL0     C15962   2.537   1.038   0.860  1.1511 -0.5525 -0.9823
  841MOL0     C15963   2.558   1.146   0.966 -0.3799 -0.5757  0.6655
  841MOL0     C15964   2.707   1.163   1.008  0.2293  1.0521 -0.1277
  841MOL0    Cl15965   2.805   1.211   0.879  0.0271  0.0759  0.0325
  841MOL0     C15966   1.763   0.797   0.793 -0.4182  0.7295  0.5320
  841MOL0     C15967   1.678   0.705   0.852 -0.1829 -0.1900 -0.4322
  841MOL0     O15968   1.526   0.455   0.845 -0.1908  0.0661 -0.6416
  841MOL0     C15969   1.414   0.453   1.181  0.2078 -0.4751  0.9264
  841MOL0     C15970   1.324   0.399   1.272  0.3720  0.1843 -0.2398
  841MOL0     N15971   0.534   0.152   1.520  0.5999  0.2160 -0.0243
  841MOL0     N15972   0.432   0.194   1.449  0.1865  0.2435  0.0856
  841MOL0     C15973   0.191   0.828   0.472 -0.0528  1.0103 -0.7205
  841MOL0     C15974   0.272   0.926   0.402  0.4848  0.5058 -0.4953
  841MOL0     C15975   0.597   1.259   0.345  0.6874 -0.0492 -0.1326
  841MOL0     C15976   0.532   1.285   0.219  0.4085 -0.2140 -0.4408
  841MOL0     C15977   0.588   1.380   0.131  0.1629  0.2663 -0.2472
  841MOL0     C15978   0.706   1.448   0.152 -0.4330  0.1950  0.1657
  841MOL0     O15979   0.770   1.539   0.068  0.1515 -0.5639 -0.4180
  841MOL0     C15980   0.863   1.481  -0.021 -0.2340 -0.3343  0.4074
  841MOL0     C15981   0.938   1.589  -0.099  0.2829 -0.0411  0.5025
  841MOL0     C15982   1.002   1.532  -0.229 -0.8208 -0.0858 -0.5816
  841MOL0     C15983   1.091   1.627  -0.310 -0.3757  1.0582  0.4931
  841MOL0     C15984   1.196   1.693  -0.231 -0.2086 -0.3785  0.0826
  841MOL0     C15985   1.285   1.755  -0.172  0.1684 -0.2561 -0.1366
  841MOL0     C15986   0.774   1.424   0.278 -0.0377  0.3897  0.4034
  841MOL0     C15987   0.724   1.332   0.369 -0.0699  0.0187  1.0489
  841MOL0     C15988   0.817   1.311   0.487  0.0103 -0.6650 -0.2328
  841MOL0     H15989   0.526   0.954   0.635  0.1699  0.9051 -1.9442
  841MOL0     H15990   0.390   0.778   0.745  1.4752  1.6400  0.9607
  841MOL0     H15991   0.008   0.812   0.712  1.7583  1.4270  0.3139
  841MOL0     H15992   0.139   0.808   0.826  0.3129 -0.0629  1.2140
  841MOL0     H15993  -0.078   0.682   0.896 -2.8913 -2.9770 -1.7142
  841MOL0     H15994  -0.033   0.564   0.788  1.0947  0.0219 -1.0070
  841MOL0     H15995   0.176   0.503   0.903  2.9835  0.5779  3.3567
  841MOL0     H15996   0.171   0.651   1.000  2.2378 -0.2559 -1.7366
  841MOL0     H15997  -0.022   0.563   1.120  1.7782 -0.4969  1.4399
  841MOL0     H15998  -0.040   0.419   1.013 -0.4473 -0.0360  0.1667
  841MOL0     H15999   0.071   0.392   1.233 -1.6421  1.9142  0.5554
  841MOL0     H16000   0.210   0.488   1.169 -0.0976 -2.0352  2.8127
  841MOL0     H16001   0.096   0.236   1.040 -2.5701  2.2438  0.5530
  841MOL0     H16002   0.243   0.324   0.996 -2.1313  2.2965  0.0382
  841MOL0     H16003   0.303   0.114   1.123  1.8398  1.0528 -0.2697
  841MOL0     H16004   0.199   0.169   1.263 -0.5938  0.2995  0.6954
  841MOL0     H16005   0.446   0.314   1.141 -0.8409  1.6032  0.9566
  841MOL0     H16006   0.354   0.371   1.281 -1.7578 -1.4537  1.2102
  841MOL0     H16007   0.673   0.185   1.217  1.5353  1.7811  0.9198
  841MOL0     H16008   0.746  -0.025   1.484 -1.1022  0.3252  0.0473
  841MOL0     H16009   0.774   0.125   1.581  2.1110  1.1151 -0.0924
  841MOL0     H16010   0.851   0.104   1.288 -0.0353  0.7515 -0.0086
  841MOL0     H16011   0.883   0.231   1.411  0.7910 -0.1841  1.1537
  841MOL0     H16012   1.060   0.100   1.515  0.2441  2.0822  0.1391
  841MOL0     H16013   1.001  -0.049   1.416 -1.3937  0.2924  0.8821
  841MOL0     H16014   1.217   0.034   1.349 -0.7499 -2.4775 -1.3681
  841MOL0     H16015   1.083   0.058   1.223 -0.6916 -3.4777  1.2706
  841MOL0     H16016   1.268   0.105   1.105  0.2427  0.3192  0.5476
  841MOL0     H16017   1.458   0.066   0.964  0.2190  0.3026  0.8617
  841MOL0     H16018   1.542   0.194   0.872 -0.1989 -1.6700 -1.7957
  841MOL0     H16019   1.369   0.154   0.850  2.2435  2.0245 -2.4399
  841MOL0     H16020   1.891   0.597   1.098 -0.8191 -1.1993 -0.3986
  841MOL0     H16021   2.025   0.773   1.002  1.0967 -1.2754 -0.5921
  841MOL0     H16022   2.110   0.759   0.687  2.7687  2.0406  0.8913
  841MOL0     H16023   1.982   0.830   0.594 -0.6288  1.1249  0.9084
  841MOL0     H16024   2.191   0.926   0.525 -0.4078  1.4874 -1.6122
  841MOL0     H16025   2.065   1.029   0.605 -1.6862 -2.6899  3.8174
  841MOL0     H16026   2.225   1.078   0.779 -1.0138  1.3135 -1.3216
  841MOL0     H16027   2.332   1.063   0.645 -1.2466  0.7967 -0.3363
  841MOL0     H16028   2.420   0.852   0.695  0.6904 -0.8464  0.5843
  841MOL0     H16029   2.285   0.805   0.781  0.6910 -0.2901  1.6450
  841MOL0     H16030   2.353   0.985   0.957 -1.0189 -0.8546 -0.6727
  841MOL0     H16031   2.463   0.847   0.940  0.5175 -0.6002 -1.0186
  841MOL0     H16032   2.527   1.091   0.764  0.3418  0.8030 -0.1782
  841MOL0     H16033   2.626   0.975   0.853  1.5119 -0.0636 -0.9201
  841MOL0     H16034   2.489   1.124   1.047 -2.5647  0.0132 -0.9501
  841MOL0     H16035   2.530   1.244   0.928  2.1254 -0.2022 -0.4648
  841MOL0     H16036   2.733   1.075   1.066 -2.7228 -0.4008 -0.7850
  841MOL0     H16037   2.702   1.244   1.082 -0.2112  0.7515  0.1747
  841MOL0     H16038   1.735   0.855   0.706 -2.2952  1.5043  1.6127
  841MOL0     H16039   1.571   0.702   0.833 -0.5485 -0.7863  1.4821
  841MOL0     H16040   1.454   0.551   1.204  3.2591 -1.6523  0.9699
  841MOL0     H16041   1.287   0.463   1.351  0.9155  0.5376 -0.2641
  841MOL0     H16042   0.097   0.789   0.435  0.9093 -2.8830  0.4544
  841MOL0     H16043   0.245   0.964   0.305 -0.0178 -0.2847 -0.6729
  841MOL0     H16044   0.436   1.237   0.204 -0.3089  0.5401  1.4212
  841MOL0     H16045   0.526   1.390   0.042 -0.4464  1.0957  0.2605
  841MOL0     H16046   0.939   1.430   0.039  2.5871  0.5922 -2.1388
  841MOL0     H16047   0.820   1.403  -0.086 -1.7729  2.0422 -1.6109
  841MOL0     H16048   1.002   1.644  -0.029  0.1498 -0.6026  1.0707
  841MOL0     H16049   0.862   1.658  -0.137 -0.2785 -1.7067 -1.5452
  841MOL0     H16050   1.062   1.442  -0.209  0.1617 -0.0446 -2.9840
  841MOL0     H16051   0.929   1.497  -0.302  0.4350 -0.5184 -1.6741
  841MOL0     H16052   1.021   1.692  -0.363 -4.6672 -3.9178 -0.8916
  841MOL0     H16053   1.127   1.571  -0.396  0.2431  2.8686 -0.4669
  841MOL0     H16054   1.358   1.810  -0.117 -3.2412  2.0836  2.4755
  841MOL0     H16055   0.873   1.464   0.298  1.4135 -4.3115  4.9799
  841MOL0     H16056   0.903   1.378   0.496 -0.7935  0.0824  4.2539
  841MOL0     H16057   0.756   1.337   0.574 -0.4014  0.8885 -0.9647
  841MOL0     H16058   0.864   1.212   0.493  0.7059 -0.2879  0.8469
  842MOL0     O16059   5.452   3.765   6.854  0.1147  0.0099  0.1499
  842MOL0     C16060   5.350   3.826   6.870 -0.1140 -1.1237 -0.9714
  842MOL0     O16061   5.307   3.861   7.001 -0.3625 -0.7219  0.3673
  842MOL0     C16062   5.397   3.856   7.105  0.1948  0.0142 -0.1167
  842MOL0     C16063   5.531   3.900   7.098 -0.0854 -0.2845  1.0368
  842MOL0     C16064   5.616   3.917   7.206  0.3869  0.9100 -0.7005
  842MOL0     C16065   5.564   3.884   7.337 -0.5836  0.3587  0.3104
  842MOL0     O16066   5.632   3.893   7.457 -0.0009 -0.3766 -0.5238
  842MOL0     C16067   5.768   3.936   7.450  0.3998 -0.4250 -0.2797
  842MOL0     C16068   5.826   3.963   7.590  0.6076  0.6077  0.1096
  842MOL0     C16069   5.820   3.847   7.695 -0.2742  0.3193  0.4611
  842MOL0     C16070   5.921   3.868   7.806 -0.0364 -0.2212  0.2654
  842MOL0     C16071   5.870   3.980   7.896 -0.2882  0.5807 -0.2996
  842MOL0     C16072   5.963   4.014   8.005 -0.3591  1.0746  0.5091
  842MOL0     C16073   5.961   3.921   8.126  0.0216 -0.9642 -0.0083
  842MOL0     C16074   6.064   3.969   8.232 -0.0001 -0.6385 -0.1594
  842MOL0     N16075   6.203   3.965   8.192 -0.6127  0.3122  0.2877
  842MOL0     C16076   6.284   4.072   8.154  0.5793  0.1641  0.3473
  842MOL0     C16077   6.402   4.018   8.119 -0.2759 -0.4327 -0.4526
  842MOL0     C16078   6.525   4.106   8.074  0.0360  0.6105 -0.0232
  842MOL0     C16079   6.667   4.042   8.082 -0.4572 -0.8316  0.0244
  842MOL0     C16080   6.722   4.056   8.222 -0.3355 -0.2688 -0.0878
  842MOL0     C16081   6.872   4.038   8.217 -0.6527 -0.3191  0.0020
  842MOL0     O16082   6.902   3.915   8.147 -0.1741 -0.2217 -0.3757
  842MOL0     C16083   7.029   3.873   8.130 -0.1855 -0.8087 -0.1585
  842MOL0     C16084   7.142   3.917   8.199  0.1055  0.3266 -0.4388
  842MOL0     C16085   7.272   3.862   8.180 -0.0678 -0.6139  0.8076
  842MOL0     C16086   7.380   3.940   8.257 -0.1129  0.9652 -0.4191
  842MOL0     C16087   7.291   3.769   8.081  0.4824  0.1345  0.5752
  842MOL0     C16088   7.416   3.700   8.043 -0.6154 -0.9393 -0.5680
  842MOL0     O16089   7.413   3.603   7.945  0.4432  0.2517  0.4780
  842MOL0     C16090   7.502   3.502   7.950 -0.5384 -0.7547 -0.3673
  842MOL0     C16091   7.628   3.516   7.892 -1.5364  0.3298  0.2179
  842MOL0     C16092   7.707   3.404   7.889  0.0548  0.0269  0.1358
  842MOL0     C16093   7.669   3.270   7.932  0.2718 -0.9101  0.0614
  842MOL0     O16094   7.756   3.164   7.913 -0.3252 -0.2715  0.2158
  842MOL0     C16095   7.707   3.024   7.937  0.2976 -0.9227  0.2893
  842MOL0     C16096   7.823   2.934   7.895  0.3874 -0.0839 -0.2125
  842MOL0     C16097   7.940   2.958   7.996 -0.6998  0.6450  0.1699
  842MOL0     C16098   8.059   2.867   7.950  0.1114  0.0911  0.1835
  842MOL0     C16099   8.176   2.875   8.047 -0.8696  0.5188 -0.8760
  842MOL0     C16100   8.305   2.795   7.992  0.0690 -0.2192  1.0924
  842MOL0     C16101   8.428   2.808   8.084  0.7575  0.4376  0.0966
  842MOL0     C16102   8.544   2.722   8.036  0.3276  0.3374 -0.3217
  842MOL0    Cl16103   8.641   2.822   7.930  0.4697  0.2972  0.0415
  842MOL0     C16104   7.541   3.261   7.982  0.0732  0.3854  0.9255
  842MOL0     C16105   7.459   3.378   7.998 -0.3316  0.4104 -0.5881
  842MOL0     O16106   7.517   3.716   8.109 -0.1293  0.3406 -0.5873
  842MOL0     C16107   7.181   3.713   8.012  0.1372 -0.2416 -0.0593
  842MOL0     C16108   7.051   3.769   8.041 -0.1987  0.1629 -0.2558
  842MOL0     N16109   6.393   3.877   8.132  0.1570  0.2574  0.6023
  842MOL0     N16110   6.273   3.844   8.180 -0.9120 -0.0057 -0.4654
  842MOL0     C16111   5.431   3.846   7.343 -0.0241 -0.2220  0.0687
  842MOL0     C16112   5.346   3.832   7.228 -0.2821  0.4789 -0.3595
  842MOL0     C16113   5.269   3.859   6.754  0.0679  1.3376  1.9164
  842MOL0     C16114   5.138   3.900   6.778 -0.5394 -0.7955 -0.4520
  842MOL0     C16115   5.058   3.945   6.671  0.4202 -0.6475 -0.2587
  842MOL0     C16116   5.097   3.941   6.543  0.3833  0.1111  0.4903
  842MOL0     O16117   5.015   3.957   6.434  0.7230 -0.3789 -0.3108
  842MOL0     C16118   5.072   4.063   6.352 -0.0830  0.1784 -0.6813
  842MOL0     C16119   4.986   4.186   6.343  0.2591  0.0849 -0.4731
  842MOL0     C16120   4.870   4.167   6.235  0.5955  0.8164 -0.1114
  842MOL0     C16121   4.871   4.281   6.125  0.0836 -0.6729 -0.4094
  842MOL0     C16122   4.838   4.406   6.192  0.9778 -0.1915  0.4546
  842MOL0     C16123   4.821   4.514   6.235  0.9863  0.0510  0.4953
  842MOL0     C16124   5.230   3.899   6.516  0.5046 -0.1916 -1.0205
  842MOL0     C16125   5.312   3.846   6.617 -0.0612 -0.3100  0.1095
  842MOL0     C16126   5.444   3.779   6.572 -0.3051 -0.0880 -0.3462
  842MOL0     H16127   5.577   3.920   7.002  0.4706  1.0823  1.5697
  842MOL0     H16128   5.716   3.958   7.192  0.4634  0.0439 -3.0228
  842MOL0     H16129   5.785   4.029   7.395 -0.6692 -0.0900 -0.0611
  842MOL0     H16130   5.826   3.857   7.401 -0.0821 -0.7244 -0.3675
  842MOL0     H16131   5.927   3.999   7.569  0.3839  0.0998 -2.0827
  842MOL0     H16132   5.775   4.047   7.638 -0.2164 -0.1724  0.6288
  842MOL0     H16133   5.718   3.826   7.728 -1.2480 -0.9531 -2.9500
  842MOL0     H16134   5.855   3.749   7.660 -1.8790 -1.5462  3.5771
  842MOL0     H16135   5.924   3.772   7.858 -1.0990 -0.9999 -1.0425
  842MOL0     H16136   6.025   3.880   7.773  0.6707 -2.1257  1.6489
  842MOL0     H16137   5.771   3.952   7.934 -1.5602  1.1064 -2.9852
  842MOL0     H16138   5.852   4.069   7.835  2.7133  2.1390  0.8964
  842MOL0     H16139   6.063   4.005   7.964 -1.0536 -0.7753 -0.9087
  842MOL0     H16140   5.937   4.117   8.031  0.4063  1.5795 -0.6806
  842MOL0     H16141   5.989   3.822   8.088  0.0013 -0.4865 -1.3153
  842MOL0     H16142   5.861   3.919   8.170  0.6336 -0.1437  1.4659
  842MOL0     H16143   6.027   4.067   8.262  1.0894 -0.5320  0.8956
  842MOL0     H16144   6.047   3.909   8.321 -0.6604  0.7047  0.6552
  842MOL0     H16145   6.257   4.177   8.156 -0.5055 -0.1018  0.3945
  842MOL0     H16146   6.524   4.206   8.118  0.9305  0.9899 -0.8225
  842MOL0     H16147   6.509   4.125   7.967 -1.6834 -0.5058 -0.0201
  842MOL0     H16148   6.670   3.937   8.051 -3.3080 -0.1575 -3.1949
  842MOL0     H16149   6.735   4.103   8.021 -2.0408  0.1648 -0.8167
  842MOL0     H16150   6.703   4.154   8.265 -0.2841  1.4229 -3.5799
  842MOL0     H16151   6.680   3.976   8.284  0.1559  0.3583  1.0693
  842MOL0     H16152   6.908   4.122   8.157 -1.6628 -0.1669 -0.4030
  842MOL0     H16153   6.914   4.048   8.318  0.7157 -0.8908 -0.4838
  842MOL0     H16154   7.122   3.993   8.274  1.9623  0.9633 -0.5397
  842MOL0     H16155   7.474   3.950   8.202  3.3149 -1.4016  4.2712
  842MOL0     H16156   7.399   3.894   8.355 -0.8337  3.7252  1.1067
  842MOL0     H16157   7.354   4.044   8.277  4.1046  1.7320  2.2661
  842MOL0     H16158   7.659   3.613   7.855 -3.4586  0.0507 -2.4471
  842MOL0     H16159   7.811   3.421   7.863  0.8143 -1.0951  2.1641
  842MOL0     H16160   7.692   3.018   8.045 -1.6643  1.0934  0.1866
  842MOL0     H16161   7.615   2.985   7.895 -1.2769  0.3738  2.3323
  842MOL0     H16162   7.790   2.830   7.897  2.5472 -0.8051  0.7639
  842MOL0     H16163   7.857   2.966   7.796  1.3393 -1.4786 -0.3617
  842MOL0     H16164   7.913   2.940   8.100  0.6104  2.0258  0.7955
  842MOL0     H16165   7.977   3.062   7.992 -1.2462  0.8945  1.2567
  842MOL0     H16166   8.092   2.891   7.849  1.0068 -0.5731  0.3053
  842MOL0     H16167   8.020   2.765   7.951  0.2703  0.0256 -0.3113
  842MOL0     H16168   8.204   2.980   8.060 -0.4357  0.1242  2.0141
  842MOL0     H16169   8.149   2.842   8.148  0.9535  0.6721 -0.2950
  842MOL0     H16170   8.324   2.817   7.887  1.0007 -1.0090  1.0847
  842MOL0     H16171   8.267   2.692   7.986 -0.4169  0.0193 -0.1577
  842MOL0     H16172   8.390   2.771   8.180  0.6115 -1.5161 -0.6745
  842MOL0     H16173   8.450   2.915   8.089  0.1993  0.4988  1.5320
  842MOL0     H16174   8.503   2.639   7.979  1.3640 -0.2750 -0.2011
  842MOL0     H16175   8.611   2.696   8.119 -0.2953 -2.0701 -0.4923
  842MOL0     H16176   7.498   3.165   8.006  2.1108 -0.0126  3.4575
  842MOL0     H16177   7.360   3.363   8.039 -0.1975 -3.5895 -1.3195
  842MOL0     H16178   7.192   3.638   7.934 -0.7249  1.1250 -1.5633
  842MOL0     H16179   6.968   3.729   7.983  0.0247 -0.0772 -0.4092
  842MOL0     H16180   5.386   3.819   7.438 -0.1318  2.0304  0.7042
  842MOL0     H16181   5.242   3.804   7.225 -0.2295 -0.0002  1.1911
  842MOL0     H16182   5.085   3.896   6.873 -0.2675 -0.2887 -0.2749
  842MOL0     H16183   4.968   4.000   6.694  0.1716 -1.4604  0.7646
  842MOL0     H16184   5.175   4.094   6.372  0.7488 -0.7937 -3.0807
  842MOL0     H16185   5.072   4.024   6.249  0.7902  3.6460 -2.1419
  842MOL0     H16186   5.050   4.273   6.327 -1.2353  1.1635 -0.8234
  842MOL0     H16187   4.939   4.191   6.442  3.1895 -6.9148  1.8496
  842MOL0     H16188   4.897   4.079   6.175  0.9972  1.7370 -1.3354
  842MOL0     H16189   4.778   4.155   6.293  1.5188 -0.3849  1.1365
  842MOL0     H16190   4.798   4.259   6.046  1.1497  1.2366 -2.0062
  842MOL0     H16191   4.966   4.282   6.071 -0.0556 -0.3560 -0.6495
  842MOL0     H16192   4.801   4.616   6.262  0.4033  0.6687 -1.9924
  842MOL0     H16193   5.267   3.879   6.416 -0.4867 -1.3722 -1.1778
  842MOL0     H16194   5.450   3.676   6.607  1.8213  0.1509  0.1490
  842MOL0     H16195   5.446   3.776   6.463  0.1663 -0.6172 -0.3270
  842MOL0     H16196   5.532   3.833   6.609  0.3009 -1.1049 -0.2474
  843MOL0     O16197   6.212   4.856   8.242 -0.8412 -0.7869 -0.5230
  843MOL0     C16198   6.314   4.811   8.293 -0.3623 -0.1182  0.0795
  843MOL0     O16199   6.430   4.774   8.221  0.2489 -0.8664 -0.0645
  843MOL0     C16200   6.473   4.874   8.128 -0.3702  0.0569  0.0904
  843MOL0     C16201   6.580   4.959   8.160  0.5623  0.7304 -0.1291
  843MOL0     C16202   6.629   5.057   8.075  0.7316 -0.3740  0.3801
  843MOL0     C16203   6.556   5.077   7.954 -0.6319 -0.5856 -0.5361
  843MOL0     O16204   6.580   5.179   7.863 -0.0467 -0.3683 -0.2395
  843MOL0     C16205   6.682   5.274   7.895  0.7339  0.9581  0.2260
  843MOL0     C16206   6.673   5.378   7.787  0.0094 -1.0802 -0.1111
  843MOL0     C16207   6.764   5.491   7.819 -0.0378 -0.0708 -0.9913
  843MOL0     C16208   6.715   5.584   7.928 -0.0213 -0.4402 -0.4048
  843MOL0     C16209   6.787   5.716   7.932 -0.6669 -0.0286 -0.0153
  843MOL0     C16210   6.713   5.810   8.025 -0.3037 -0.9953  0.1612
  843MOL0     C16211   6.701   5.770   8.170 -0.3538  0.3928  0.2079
  843MOL0     C16212   6.632   5.877   8.248 -0.2477 -0.9891  0.0627
  843MOL0     N16213   6.627   5.834   8.393 -0.0708  0.1703  0.1839
  843MOL0     C16214   6.701   5.885   8.499  0.3916  0.0072 -1.2292
  843MOL0     C16215   6.638   5.844   8.615  0.3826  0.1208  0.1150
  843MOL0     C16216   6.684   5.886   8.749 -0.3682  0.0677 -0.6245
  843MOL0     C16217   6.594   5.816   8.857 -0.2124  0.5823 -0.0996
  843MOL0     C16218   6.615   5.867   9.003  0.0500  0.4812 -0.3209
  843MOL0     C16219   6.513   5.806   9.096 -0.5419 -0.1462  0.3462
  843MOL0     O16220   6.548   5.666   9.109 -0.1892 -0.5369  0.4000
  843MOL0     C16221   6.445   5.591   9.157 -0.2174  0.8464 -0.0316
  843MOL0     C16222   6.467   5.453   9.157 -0.6428 -0.1932  0.4186
  843MOL0     C16223   6.383   5.358   9.208 -1.1356 -0.4972 -1.1690
  843MOL0     C16224   6.430   5.211   9.200  1.0486 -0.1190  0.6601
  843MOL0     C16225   6.261   5.403   9.261  0.1689  0.4794 -0.1738
  843MOL0     C16226   6.176   5.304   9.328 -0.1395 -0.6530  0.5560
  843MOL0     O16227   6.120   5.202   9.256 -0.6843  0.0523  0.0016
  843MOL0     C16228   6.042   5.113   9.331  0.4193 -0.5176  0.9061
  843MOL0     C16229   5.906   5.140   9.328  0.4728  0.9832  1.0772
  843MOL0     C16230   5.822   5.062   9.412 -0.4169 -0.5701  0.5325
  843MOL0     C16231   5.882   4.965   9.487  1.0432  0.0332  0.6477
  843MOL0     O16232   5.804   4.912   9.584 -1.2954  0.6399 -0.3993
  843MOL0     C16233   5.718   4.808   9.534  0.0543  0.5298 -0.5039
  843MOL0     C16234   5.656   4.726   9.643  0.0446  0.1370 -0.8559
  843MOL0     C16235   5.531   4.788   9.704  0.4568  0.2143  0.5917
  843MOL0     C16236   5.487   4.729   9.834 -0.2379  0.0467  0.5026
  843MOL0     C16237   5.382   4.789   9.907  0.3800 -0.7527 -0.1801
  843MOL0     C16238   5.242   4.791   9.833 -0.0705  0.2284  0.0520
  843MOL0     C16239   5.115   4.807   9.929 -0.5575 -0.2440 -0.8123
  843MOL0     C16240   4.993   4.720   9.890 -0.0114 -0.8388 -0.5589
  843MOL0    Cl16241   4.952   4.760   9.718  0.2600  0.0199 -0.3412
  843MOL0     C16242   6.013   4.930   9.476  0.1339  0.1304  0.0738
  843MOL0     C16243   6.097   4.997   9.388 -0.0994 -0.0964 -0.1782
  843MOL0     O16244   6.166   5.323   9.455 -0.2258 -0.5017  0.6662
  843MOL0     C16245   6.227   5.535   9.257  0.6359  0.6148  1.1289
  843MOL0     C16246   6.319   5.626   9.219  0.3535  0.3016  0.9786
  843MOL0     N16247   6.531   5.760   8.580 -0.2372  0.5353  1.4180
  843MOL0     N16248   6.519   5.760   8.448 -0.4689  0.3825  0.3060
  843MOL0     C16249   6.452   4.983   7.924 -0.5351  0.9601 -0.0468
  843MOL0     C16250   6.411   4.880   8.011 -0.0999 -0.8801  1.4119
  843MOL0     C16251   6.308   4.784   8.442  0.0517  0.7543 -0.6349
  843MOL0     C16252   6.420   4.823   8.513  0.4776  0.4010 -0.6767
  843MOL0     C16253   6.417   4.822   8.650  0.0441 -0.2420  0.6801
  843MOL0     C16254   6.303   4.780   8.723  0.2972 -0.6275  0.4286
  843MOL0     O16255   6.289   4.795   8.857  0.0906  0.3982 -0.1047
  843MOL0     C16256   6.246   4.930   8.890  0.5987 -0.1558  0.2435
  843MOL0     C16257   6.136   4.928   8.993  0.5398  0.3433 -0.0802
  843MOL0     C16258   6.013   4.833   8.969  0.8867  0.5345  0.0213
  843MOL0     C16259   5.921   4.827   9.087 -0.4328 -0.2545  0.0014
  843MOL0     C16260   5.816   4.725   9.075  0.0773 -0.6119  0.2884
  843MOL0     C16261   5.726   4.645   9.091 -0.2147  0.1155  0.2700
  843MOL0     C16262   6.190   4.740   8.652 -0.3668 -0.0402 -0.2064
  843MOL0     C16263   6.194   4.746   8.512  1.5237  0.1239 -0.9782
  843MOL0     C16264   6.078   4.676   8.441 -0.9794  0.0063 -0.3405
  843MOL0     H16265   6.637   4.943   8.251  0.2779 -2.3709 -0.4040
  843MOL0     H16266   6.723   5.108   8.090  0.9627 -0.0604 -1.8435
  843MOL0     H16267   6.780   5.225   7.896 -0.2390 -1.4922 -3.2340
  843MOL0     H16268   6.644   5.314   7.989 -1.6898 -0.1034 -0.1976
  843MOL0     H16269   6.696   5.330   7.691 -0.7565  1.7149 -1.7988
  843MOL0     H16270   6.578   5.432   7.780 -0.0573 -1.2491 -0.5417
  843MOL0     H16271   6.865   5.455   7.840 -0.7376 -1.5230  0.0867
  843MOL0     H16272   6.765   5.554   7.730 -1.4824 -0.7510 -1.5182
  843MOL0     H16273   6.611   5.611   7.909  0.9245  2.5854 -2.0013
  843MOL0     H16274   6.711   5.527   8.021 -1.3458  0.0658 -0.1277
  843MOL0     H16275   6.793   5.775   7.840  0.3874  1.5922  1.0131
  843MOL0     H16276   6.893   5.700   7.957 -0.3549  1.6620 -0.0959
  843MOL0     H16277   6.762   5.908   8.019  1.1691 -1.7898 -2.0651
  843MOL0     H16278   6.609   5.826   7.998 -0.0954  0.0275 -0.0610
  843MOL0     H16279   6.805   5.763   8.204 -1.0661  2.0454  3.0745
  843MOL0     H16280   6.639   5.681   8.177  0.9112 -0.4735  0.7444
  843MOL0     H16281   6.690   5.968   8.233  0.3207 -1.6050 -1.6419
  843MOL0     H16282   6.529   5.893   8.214 -0.4274  2.7110  1.8052
  843MOL0     H16283   6.797   5.938   8.493 -0.1152  1.3485  1.3023
  843MOL0     H16284   6.676   5.994   8.761  0.6305 -0.0577  1.9439
  843MOL0     H16285   6.783   5.845   8.769 -0.4038 -0.8776 -2.2297
  843MOL0     H16286   6.486   5.824   8.839 -1.4191 -2.3395  4.2559
  843MOL0     H16287   6.616   5.709   8.854  0.6758  0.7331 -3.7944
  843MOL0     H16288   6.714   5.850   9.047  0.2707  0.1683 -0.9194
  843MOL0     H16289   6.614   5.976   9.010  1.8259  0.4964  0.2625
  843MOL0     H16290   6.522   5.866   9.187 -3.5983 -1.7997  1.9178
  843MOL0     H16291   6.414   5.829   9.054 -0.9247 -0.0539  1.2812
  843MOL0     H16292   6.558   5.420   9.108 -0.0139  0.9405  0.7960
  843MOL0     H16293   6.456   5.181   9.099 -1.5176 -1.5620  0.3313
  843MOL0     H16294   6.346   5.143   9.216  1.4308 -0.9902 -0.8977
  843MOL0     H16295   6.506   5.190   9.276 -0.0020  0.5226  1.9354
  843MOL0     H16296   5.874   5.221   9.263  1.0245 -0.2241 -0.7598
  843MOL0     H16297   5.714   5.068   9.417 -0.4165  0.5053 -0.4194
  843MOL0     H16298   5.633   4.852   9.482 -2.5038 -1.4198  1.7171
  843MOL0     H16299   5.770   4.743   9.464  0.5760  0.7093 -0.2915
  843MOL0     H16300   5.615   4.632   9.605 -0.5164  0.3324 -0.7409
  843MOL0     H16301   5.734   4.704   9.717 -1.5926  0.7979  1.1832
  843MOL0     H16302   5.443   4.781   9.639  0.8279  1.4108 -0.0792
  843MOL0     H16303   5.548   4.895   9.721  0.1086  0.3765 -0.0459
  843MOL0     H16304   5.569   4.718   9.905 -0.7886 -0.2703  1.0985
  843MOL0     H16305   5.461   4.625   9.809  3.2569 -1.2961  1.7247
  843MOL0     H16306   5.362   4.732   9.998 -0.6103  1.0751  0.7978
  843MOL0     H16307   5.414   4.889   9.939 -0.7992 -0.2694 -0.4485
  843MOL0     H16308   5.238   4.698   9.775 -0.3698 -0.6184  1.3996
  843MOL0     H16309   5.254   4.880   9.771  2.7822 -0.9110 -1.1809
  843MOL0     H16310   5.089   4.912   9.917  0.0385  0.2204  1.4437
  843MOL0     H16311   5.135   4.792  10.036 -2.6830  1.3737 -0.0966
  843MOL0     H16312   4.918   4.750   9.963  0.3010 -1.2279 -0.0682
  843MOL0     H16313   5.019   4.615   9.908  0.3246 -0.5908  0.4330
  843MOL0     H16314   6.059   4.865   9.550 -1.2355 -1.2740 -0.2834
  843MOL0     H16315   6.200   4.963   9.396 -0.3468 -0.6240  1.1185
  843MOL0     H16316   6.130   5.566   9.295 -0.7435 -0.3107 -1.3961
  843MOL0     H16317   6.292   5.731   9.218  0.2632  0.3993 -2.9032
  843MOL0     H16318   6.407   4.998   7.826  0.5201 -0.2687 -0.7479
  843MOL0     H16319   6.341   4.804   7.979 -0.2323 -0.0801 -0.3448
  843MOL0     H16320   6.512   4.862   8.469  1.3620 -0.6517  0.1820
  843MOL0     H16321   6.508   4.860   8.696  2.0008 -0.3612 -2.7967
  843MOL0     H16322   6.322   4.989   8.942 -1.9646  1.1906  2.7272
  843MOL0     H16323   6.208   4.980   8.801 -0.5821 -1.3967  0.0033
  843MOL0     H16324   6.090   5.026   9.007 -3.5457 -0.8757 -2.9264
  843MOL0     H16325   6.189   4.897   9.084 -0.8709 -1.1269  0.2883
  843MOL0     H16326   5.953   4.882   8.892 -1.2146  0.8081  1.7447
  843MOL0     H16327   6.037   4.733   8.932  0.3418  1.6586 -3.8245
  843MOL0     H16328   5.866   4.920   9.100  1.0463  0.5437  0.7509
  843MOL0     H16329   5.981   4.801   9.175  3.0166  2.2520 -1.3858
  843MOL0     H16330   5.666   4.557   9.082  1.5893 -1.0925 -0.5475
  843MOL0     H16331   6.100   4.707   8.703 -0.5749  1.5587  0.5291
  843MOL0     H16332   6.049   4.588   8.499  1.4327 -1.0144 -0.5727
  843MOL0     H16333   5.992   4.741   8.419 -0.7078  0.0448 -1.3411
  843MOL0     H16334   6.108   4.625   8.349 -1.1038 -1.0959  0.2112
  844MOL0     O16335   3.231   7.106   6.651 -0.3011 -0.1720  1.1679
  844MOL0     C16336   3.204   7.177   6.555 -0.2213 -0.4054  0.7822
  844MOL0     O16337   3.291   7.267   6.498  0.3843  0.5702  0.6513
  844MOL0     C16338   3.411   7.283   6.552  0.5328  0.1062 -0.2535
  844MOL0     C16339   3.412   7.338   6.680  0.3559  0.4274 -0.3290
  844MOL0     C16340   3.532   7.338   6.749  0.9035 -0.1375  0.3211
  844MOL0     C16341   3.647   7.279   6.698  0.2968 -0.0553 -1.1265
  844MOL0     O16342   3.758   7.286   6.778 -0.1616 -0.9068  0.1212
  844MOL0     C16343   3.867   7.201   6.768  0.3846  0.4709 -0.9180
  844MOL0     C16344   3.981   7.248   6.859 -0.9165 -0.7222 -0.1582
  844MOL0     C16345   4.122   7.209   6.794  0.2340 -0.7638  0.1825
  844MOL0     C16346   4.232   7.297   6.831  0.1484 -0.6645 -0.1583
  844MOL0     C16347   4.363   7.224   6.796  0.0023  0.0780  0.5766
  844MOL0     C16348   4.477   7.308   6.868  0.0526 -0.5834  0.1255
  844MOL0     C16349   4.615   7.241   6.862 -1.1574 -0.3027 -0.4743
  844MOL0     C16350   4.650   7.162   6.991  0.0930  0.6438 -0.4730
  844MOL0     N16351   4.775   7.083   6.998  0.3544  0.4732 -0.0969
  844MOL0     C16352   4.897   7.137   6.976 -0.0237  0.1312 -0.5960
  844MOL0     C16353   4.983   7.038   6.998 -0.6443 -0.8523 -0.5875
  844MOL0     C16354   5.138   7.055   6.986 -0.9024  0.1548 -0.2969
  844MOL0     C16355   5.189   7.135   7.105 -0.0646  0.4371  0.4974
  844MOL0     C16356   5.156   7.078   7.244 -0.0269  0.5965  0.7341
  844MOL0     C16357   5.227   7.140   7.358 -0.0749 -0.1923 -0.7358
  844MOL0     O16358   5.369   7.146   7.329 -0.0170 -0.2614 -0.1316
  844MOL0     C16359   5.454   7.195   7.427  0.2620  0.0589  0.7737
  844MOL0     C16360   5.584   7.145   7.424 -1.1397  0.5071  0.3550
  844MOL0     C16361   5.670   7.176   7.530  0.1306  0.4472 -0.0263
  844MOL0     C16362   5.813   7.121   7.531 -0.1501  0.1982 -0.8475
  844MOL0     C16363   5.621   7.249   7.645 -0.4940 -0.2241  0.6176
  844MOL0     C16364   5.689   7.283   7.767  0.3567 -0.2277  0.3516
  844MOL0     O16365   5.637   7.378   7.854  0.7732  0.1475  0.4886
  844MOL0     C16366   5.720   7.414   7.951 -1.3589 -0.5867  0.2422
  844MOL0     C16367   5.791   7.532   7.942 -0.4732 -0.0634  0.2106
  844MOL0     C16368   5.883   7.551   8.046  0.5725 -1.0721 -0.4210
  844MOL0     C16369   5.895   7.467   8.156  0.0707  0.1432  0.1236
  844MOL0     O16370   5.989   7.487   8.257 -0.7120  1.0221 -0.2943
  844MOL0     C16371   6.118   7.534   8.227  0.2845  0.2083 -0.2139
  844MOL0     C16372   6.214   7.469   8.332 -0.0520 -0.2890 -0.3273
  844MOL0     C16373   6.232   7.320   8.303  0.0580  0.0561  0.0588
  844MOL0     C16374   6.352   7.259   8.386 -0.6995  0.3730  0.7372
  844MOL0     C16375   6.375   7.115   8.373  0.5752  0.3881 -0.1114
  844MOL0     C16376   6.492   7.083   8.463 -0.8515  0.3900 -0.4269
  844MOL0     C16377   6.524   6.931   8.447 -0.5516  0.9082 -0.7480
  844MOL0     C16378   6.588   6.874   8.571 -0.8036 -0.6557  0.7196
  844MOL0    Cl16379   6.643   6.706   8.544 -0.5743  0.6302  0.1792
  844MOL0     C16380   5.817   7.354   8.162 -0.0368 -0.5355  0.7071
  844MOL0     C16381   5.726   7.329   8.062 -0.2521 -0.5057  0.0710
  844MOL0     O16382   5.772   7.206   7.798 -0.6813  0.7045  0.8122
  844MOL0     C16383   5.491   7.305   7.630  0.5892 -0.3217  0.4964
  844MOL0     C16384   5.410   7.276   7.524 -0.1701 -0.9321  1.2495
  844MOL0     N16385   4.922   6.924   7.039 -0.5264 -0.6424  0.4771
  844MOL0     N16386   4.790   6.948   7.034 -0.0089 -0.1308 -0.0814
  844MOL0     C16387   3.644   7.220   6.572  0.1750 -0.8141  0.4065
  844MOL0     C16388   3.523   7.224   6.497  0.5907  0.3514  0.1049
  844MOL0     C16389   3.075   7.169   6.488  0.9276  0.5088 -1.0250
  844MOL0     C16390   3.061   7.234   6.362  0.3113  0.7843 -0.3205
  844MOL0     C16391   2.951   7.236   6.285  0.0617  1.0580  0.8003
  844MOL0     C16392   2.838   7.155   6.328 -0.4418 -0.2065  0.4002
  844MOL0     O16393   2.735   7.144   6.239  0.3657 -0.1294 -0.9966
  844MOL0     C16394   2.622   7.065   6.294 -0.1226 -0.3076  1.0381
  844MOL0     C16395   2.523   7.036   6.180  0.4485  0.2900  0.1158
  844MOL0     C16396   2.405   6.960   6.228 -0.7188 -0.4335  0.0825
  844MOL0     C16397   2.303   6.941   6.126  1.3331  0.0749 -0.5487
  844MOL0     C16398   2.190   6.874   6.178  0.2208  0.4324  0.0300
  844MOL0     C16399   2.084   6.819   6.214  0.5061 -0.0952  1.0357
  844MOL0     C16400   2.851   7.089   6.448 -0.2042 -0.3406 -0.4547
  844MOL0     C16401   2.964   7.103   6.538  0.5400  0.4946  0.4580
  844MOL0     C16402   2.952   7.031   6.674 -0.4383  0.7589 -0.1107
  844MOL0     H16403   3.319   7.379   6.718 -0.4419 -0.8827 -0.7787
  844MOL0     H16404   3.529   7.375   6.851 -1.5203 -2.3853  1.2163
  844MOL0     H16405   3.916   7.205   6.670 -0.8686 -0.3478 -1.5991
  844MOL0     H16406   3.835   7.098   6.786 -2.8660  1.7459  1.4546
  844MOL0     H16407   3.982   7.357   6.867 -1.5392 -0.5382 -2.0548
  844MOL0     H16408   3.965   7.212   6.961  1.8224  4.1808  2.3654
  844MOL0     H16409   4.138   7.102   6.814 -2.6962 -1.2767  0.2357
  844MOL0     H16410   4.122   7.224   6.685 -2.2869 -1.0198  0.0692
  844MOL0     H16411   4.225   7.388   6.771  0.3574 -1.6268 -1.7005
  844MOL0     H16412   4.225   7.324   6.936 -0.9716  3.3344 -1.0990
  844MOL0     H16413   4.383   7.217   6.688 -1.5388 -3.6286  0.3967
  844MOL0     H16414   4.376   7.128   6.845 -1.4789  0.3690  1.5900
  844MOL0     H16415   4.490   7.400   6.811 -0.9857 -1.2678 -1.2757
  844MOL0     H16416   4.457   7.327   6.973  2.8220 -0.2010  0.6636
  844MOL0     H16417   4.699   7.311   6.852 -1.3343 -0.2664 -1.9053
  844MOL0     H16418   4.624   7.181   6.771 -1.6561  1.4657 -1.7321
  844MOL0     H16419   4.651   7.228   7.078  0.2285 -0.2424  0.2154
  844MOL0     H16420   4.563   7.095   6.994  1.5212 -1.4103 -1.8255
  844MOL0     H16421   4.921   7.242   6.957  0.1496  0.3074  0.4961
  844MOL0     H16422   5.165   7.089   6.885  2.2097  0.1802  0.4390
  844MOL0     H16423   5.179   6.954   6.996  1.7100  1.1172 -0.5676
  844MOL0     H16424   5.294   7.164   7.090  0.6815 -2.6248 -1.1060
  844MOL0     H16425   5.132   7.228   7.097 -1.0786 -0.0460  1.7408
  844MOL0     H16426   5.048   7.081   7.260 -0.3584 -1.4456 -0.8067
  844MOL0     H16427   5.181   6.972   7.240  0.1694  0.5282  2.8007
  844MOL0     H16428   5.191   7.242   7.366  0.9608  0.1239  0.1077
  844MOL0     H16429   5.202   7.079   7.445 -1.5484 -0.9658 -1.6603
  844MOL0     H16430   5.610   7.082   7.341  2.0482  0.9386  0.8893
  844MOL0     H16431   5.826   7.030   7.589  2.6227  2.4207  2.4117
  844MOL0     H16432   5.886   7.190   7.574 -0.4259  1.6430 -2.5822
  844MOL0     H16433   5.838   7.103   7.426  1.8983  0.4284 -0.4257
  844MOL0     H16434   5.781   7.597   7.856  0.2090  1.8130  1.4711
  844MOL0     H16435   5.942   7.642   8.049 -0.0808 -0.6468 -0.1191
  844MOL0     H16436   6.143   7.502   8.125  0.1619 -0.3385 -0.0803
  844MOL0     H16437   6.135   7.641   8.234  3.5415 -0.3070  1.7108
  844MOL0     H16438   6.307   7.527   8.329 -0.5986  0.6345 -3.1607
  844MOL0     H16439   6.166   7.478   8.430  1.0712 -1.8418  0.3982
  844MOL0     H16440   6.253   7.302   8.197 -1.1672 -0.7254 -0.0691
  844MOL0     H16441   6.143   7.261   8.326 -1.7806  3.0844  1.3450
  844MOL0     H16442   6.327   7.275   8.492 -1.4586 -2.1340  1.0012
  844MOL0     H16443   6.441   7.314   8.355 -1.0637 -1.3878 -4.2440
  844MOL0     H16444   6.285   7.065   8.411  0.4975  1.2240  0.8261
  844MOL0     H16445   6.398   7.083   8.271  0.3284  1.7218 -0.6163
  844MOL0     H16446   6.464   7.096   8.568  1.2351  3.5350 -0.1109
  844MOL0     H16447   6.586   7.138   8.448 -1.3005  0.7239 -2.2415
  844MOL0     H16448   6.582   6.909   8.356 -0.8150  0.2595 -0.7639
  844MOL0     H16449   6.430   6.875   8.435  0.2150 -0.9362  1.1816
  844MOL0     H16450   6.515   6.884   8.651 -0.8890 -1.7061  0.7853
  844MOL0     H16451   6.668   6.939   8.608 -0.6391 -0.5537  0.1943
  844MOL0     H16452   5.822   7.295   8.253  3.0041 -0.7655  0.4834
  844MOL0     H16453   5.653   7.251   8.050 -0.4491 -0.1163 -1.4429
  844MOL0     H16454   5.440   7.341   7.719  0.3462 -1.6982  0.9434
  844MOL0     H16455   5.312   7.323   7.521  0.2720 -0.0199  0.0175
  844MOL0     H16456   3.732   7.179   6.523  1.7891  0.1042  2.4068
  844MOL0     H16457   3.515   7.183   6.397  2.7891 -0.6572  0.2760
  844MOL0     H16458   3.129   7.284   6.294 -3.9103 -0.1683 -6.0719
  844MOL0     H16459   2.959   7.298   6.197 -0.3074  0.5998  0.4419
  844MOL0     H16460   2.650   6.967   6.334  2.6030  0.7284  1.9165
  844MOL0     H16461   2.572   7.117   6.376  2.6556 -0.9941  3.3293
  844MOL0     H16462   2.561   6.983   6.092  2.8946  0.8799  0.7424
  844MOL0     H16463   2.489   7.136   6.153  0.5345  0.1020 -0.7039
  844MOL0     H16464   2.438   6.864   6.270  0.1561 -0.7216 -1.1807
  844MOL0     H16465   2.374   7.010   6.320  3.1111 -0.1358  1.4195
  844MOL0     H16466   2.343   6.870   6.053 -0.7772 -2.1824  0.3486
  844MOL0     H16467   2.268   7.035   6.083 -1.1525  0.4549  2.0274
  844MOL0     H16468   1.989   6.771   6.228 -0.8179  1.7732 -0.8281
  844MOL0     H16469   2.776   7.019   6.482  0.0333 -0.4429 -0.1380
  844MOL0     H16470   3.006   6.938   6.657  1.0653  2.0850 -3.5001
  844MOL0     H16471   2.981   7.086   6.764  1.3090  0.0396 -0.2008
  844MOL0     H16472   2.849   6.998   6.693 -0.8936  2.2531  0.1316
  845MOL0     O16473  10.371   4.597   9.536  0.2538  0.9032  0.1385
  845MOL0     C16474  10.432   4.676   9.599 -0.2429 -0.2386  0.0691
  845MOL0     O16475  10.571   4.673   9.623 -0.5035 -0.1348 -0.2925
  845MOL0     C16476  10.643   4.572   9.565 -0.2892  0.1397  0.3358
  845MOL0     C16477  10.609   4.435   9.565 -0.2015  0.7086  1.1767
  845MOL0     C16478  10.688   4.337   9.492 -0.0872 -0.2306  0.8485
  845MOL0     C16479  10.804   4.383   9.429 -0.2578  0.3238  0.1137
  845MOL0     O16480  10.867   4.297   9.341 -0.5356 -0.1732  0.2868
  845MOL0     C16481  10.786   4.213   9.254 -0.1749  0.7590 -0.6321
  845MOL0     C16482  10.868   4.147   9.140 -0.4131 -0.7397 -0.0778
  845MOL0     C16483  11.017   4.166   9.168  0.1488  0.0006  0.0335
  845MOL0     C16484  11.085   4.080   9.059  0.5981 -0.2317  0.1833
  845MOL0     C16485  11.234   4.106   9.071 -0.1546 -0.1387  0.0278
  845MOL0     C16486  11.303   3.984   9.128  0.4396 -0.8159 -1.0124
  845MOL0     C16487  11.460   4.000   9.119  0.5321 -0.3328  0.6307
  845MOL0     C16488  11.528   3.872   9.150 -0.7720 -0.2506  0.7637
  845MOL0     N16489  11.667   3.904   9.163 -0.2858  0.0924 -0.2642
  845MOL0     C16490  11.757   3.931   9.054 -0.1522  0.6117 -0.6288
  845MOL0     C16491  11.878   3.952   9.117  0.3370  1.0060  0.6978
  845MOL0     C16492  12.008   3.987   9.044 -0.7317 -0.8535  0.0436
  845MOL0     C16493  11.994   4.127   8.980  0.2641  0.4270  0.2011
  845MOL0     C16494  12.035   4.234   9.085 -0.1683 -0.2354  0.5785
  845MOL0     C16495  12.016   4.374   9.043 -1.0346  1.0092 -0.0951
  845MOL0     O16496  11.898   4.400   8.957  0.1252 -0.4137  0.3868
  845MOL0     C16497  11.882   4.524   8.903 -0.1233 -0.1880 -0.9780
  845MOL0     C16498  11.971   4.624   8.899 -0.3347 -0.5009 -0.3632
  845MOL0     C16499  11.945   4.752   8.847 -0.8622  0.3250 -0.2122
  845MOL0     C16500  12.040   4.861   8.894 -0.0600 -0.1475  0.9503
  845MOL0     C16501  11.824   4.781   8.775  0.3960 -1.1288 -0.0823
  845MOL0     C16502  11.793   4.911   8.714  0.0475 -0.2241 -0.0372
  845MOL0     O16503  11.670   4.917   8.658 -0.4815  0.2297  0.2708
  845MOL0     C16504  11.623   5.019   8.578  0.0834 -0.3344 -0.0269
  845MOL0     C16505  11.699   5.116   8.510 -0.0498  0.1929 -0.7996
  845MOL0     C16506  11.633   5.211   8.425  0.0967 -0.0158 -0.4083
  845MOL0     C16507  11.491   5.222   8.419  0.1068  0.3653 -0.0044
  845MOL0     O16508  11.426   5.318   8.343 -0.0948  0.4217 -0.3200
  845MOL0     C16509  11.494   5.422   8.281 -0.3496 -0.3438 -0.2254
  845MOL0     C16510  11.560   5.395   8.152  0.3774  0.5972 -0.1696
  845MOL0     C16511  11.708   5.443   8.134 -0.0371  0.6426 -0.5783
  845MOL0     C16512  11.769   5.395   7.998  0.1151  0.3026 -0.1629
  845MOL0     C16513  11.888   5.488   7.960  0.1937 -0.3651  0.0653
  845MOL0     C16514  11.923   5.445   7.815 -0.0394  0.7945  0.3335
  845MOL0     C16515  12.058   5.501   7.771 -0.5282  0.4710  1.0983
  845MOL0     C16516  12.181   5.476   7.860 -0.9311  0.6128 -0.6424
  845MOL0    Cl16517  12.213   5.297   7.870 -0.0001  0.2812 -0.0793
  845MOL0     C16518  11.413   5.126   8.491  0.2602  0.3442  0.5556
  845MOL0     C16519  11.482   5.035   8.568  1.0874 -0.4402 -0.1958
  845MOL0     O16520  11.874   5.005   8.719  0.1795  0.6904  0.8229
  845MOL0     C16521  11.739   4.674   8.751  0.1116  0.4456 -0.4910
  845MOL0     C16522  11.768   4.554   8.829  0.0413  0.0071  0.3974
  845MOL0     N16523  11.865   3.927   9.251 -0.0602  0.0041  0.4953
  845MOL0     N16524  11.739   3.900   9.280  0.3483  0.3657 -0.2166
  845MOL0     C16525  10.853   4.513   9.446  0.3797 -0.0370  0.8717
  845MOL0     C16526  10.770   4.610   9.511  0.5525  0.0329  0.0454
  845MOL0     C16527  10.351   4.786   9.661  0.4530  0.3154 -0.9971
  845MOL0     C16528  10.229   4.814   9.592 -0.0200  0.1943  0.2119
  845MOL0     C16529  10.140   4.909   9.641  0.1738  0.9791 -0.4752
  845MOL0     C16530  10.176   4.991   9.749  0.4078 -0.2978  0.7810
  845MOL0     O16531  10.074   5.081   9.783 -0.2828 -0.3926 -0.1227
  845MOL0     C16532  10.089   5.147   9.913  0.5875 -0.0258  0.1042
  845MOL0     C16533   9.958   5.224   9.945 -0.6755  0.5139  0.8374
  845MOL0     C16534   9.909   5.314   9.815  0.4733  0.4476 -0.3371
  845MOL0     C16535  10.002   5.422   9.755 -0.5795 -0.6146 -1.1971
  845MOL0     C16536  10.030   5.545   9.838  0.8722 -0.3993  0.2237
  845MOL0     C16537  10.048   5.641   9.905 -0.7194 -0.6199 -0.3937
  845MOL0     C16538  10.298   4.977   9.803  0.3818 -0.6353  0.6584
  845MOL0     C16539  10.390   4.876   9.765 -0.8519  0.7696  0.0184
  845MOL0     C16540  10.521   4.869   9.835 -0.5958  0.6250 -0.3536
  845MOL0     H16541  10.514   4.398   9.603 -0.8168 -1.7111 -2.2386
  845MOL0     H16542  10.668   4.235   9.462  2.5554  0.1268 -2.9586
  845MOL0     H16543  10.706   4.274   9.212  0.7814  2.3082 -0.2795
  845MOL0     H16544  10.747   4.123   9.302  0.5485 -1.0843 -3.2851
  845MOL0     H16545  10.846   4.041   9.126  0.4672 -1.3640  2.6288
  845MOL0     H16546  10.845   4.200   9.047 -2.8811  1.2385  1.5298
  845MOL0     H16547  11.054   4.266   9.146 -0.1132 -0.1771 -1.2729
  845MOL0     H16548  11.043   4.136   9.271  0.7856  0.7084  0.0884
  845MOL0     H16549  11.071   3.972   9.051  0.9858 -0.1419 -2.4191
  845MOL0     H16550  11.055   4.111   8.959  2.5951  0.6809 -0.1661
  845MOL0     H16551  11.256   4.187   9.142  1.4744 -1.9076  1.6588
  845MOL0     H16552  11.281   4.143   8.979  1.0112  0.0770  0.6905
  845MOL0     H16553  11.275   3.970   9.233  2.2824  0.1989 -0.3361
  845MOL0     H16554  11.275   3.893   9.074  1.1045 -1.4619 -0.2946
  845MOL0     H16555  11.487   4.087   9.180 -1.1713  0.9320 -0.3426
  845MOL0     H16556  11.481   4.034   9.018  1.9109 -2.3966  0.1564
  845MOL0     H16557  11.491   3.837   9.246 -2.7129 -1.1942 -0.2608
  845MOL0     H16558  11.520   3.791   9.076 -0.3092  0.5517 -0.1993
  845MOL0     H16559  11.736   3.928   8.947 -0.2948 -2.4084 -0.5778
  845MOL0     H16560  12.034   3.913   8.968 -1.6571 -1.3648  0.2029
  845MOL0     H16561  12.092   3.982   9.114 -1.2371  0.7208  0.8196
  845MOL0     H16562  12.054   4.129   8.888 -0.8491  1.3507 -0.5311
  845MOL0     H16563  11.896   4.147   8.936  0.5724  0.0868 -0.6584
  845MOL0     H16564  11.969   4.209   9.169 -2.9150  0.9003 -1.0828
  845MOL0     H16565  12.141   4.219   9.107  0.6175  0.9488 -1.9246
  845MOL0     H16566  12.020   4.440   9.130 -1.3846 -1.1612  1.6491
  845MOL0     H16567  12.100   4.384   8.974 -1.9780  0.1955 -1.4075
  845MOL0     H16568  12.065   4.615   8.953 -1.3025 -0.9663  1.3245
  845MOL0     H16569  11.978   4.946   8.922 -2.6678 -1.6198 -0.0448
  845MOL0     H16570  12.118   4.882   8.821  1.5917 -1.3799  2.2684
  845MOL0     H16571  12.092   4.843   8.989  1.5426 -0.7861 -0.0162
  845MOL0     H16572  11.807   5.105   8.510  0.0312  0.5968  1.1876
  845MOL0     H16573  11.688   5.282   8.365 -0.3004  0.8799  0.2621
  845MOL0     H16574  11.424   5.506   8.272 -0.2163 -0.3619 -1.7054
  845MOL0     H16575  11.569   5.459   8.352 -1.7819 -0.7886  1.6032
  845MOL0     H16576  11.561   5.286   8.151  1.0414  0.5995 -0.2192
  845MOL0     H16577  11.492   5.426   8.072 -1.2588 -0.7069  0.6426
  845MOL0     H16578  11.761   5.408   8.223  0.9619  2.3238 -0.4718
  845MOL0     H16579  11.696   5.551   8.129 -1.2066  0.7231  2.1669
  845MOL0     H16580  11.700   5.401   7.914  2.4834 -0.7126 -2.3369
  845MOL0     H16581  11.790   5.288   8.009  3.8932  1.1438  2.8841
  845MOL0     H16582  11.844   5.588   7.956 -0.7857 -0.8192 -2.2428
  845MOL0     H16583  11.972   5.475   8.029  1.2880 -1.1701 -1.3412
  845MOL0     H16584  11.843   5.473   7.745  0.2062  2.5785  0.7239
  845MOL0     H16585  11.938   5.337   7.804  0.8920  0.9014  0.4221
  845MOL0     H16586  12.052   5.609   7.753 -1.6249  0.1224 -0.8558
  845MOL0     H16587  12.087   5.449   7.679 -0.3289 -0.1966  1.5305
  845MOL0     H16588  12.158   5.522   7.956 -2.2617  1.3573 -1.2939
  845MOL0     H16589  12.271   5.528   7.824  0.1512  0.8609  2.1735
  845MOL0     H16590  11.308   5.127   8.467  0.5371 -0.7514 -0.8324
  845MOL0     H16591  11.428   4.956   8.620  1.9634 -0.7193  0.3023
  845MOL0     H16592  11.644   4.680   8.698 -0.3682  2.4193  0.4896
  845MOL0     H16593  11.700   4.470   8.815 -1.4902  1.1289  0.9574
  845MOL0     H16594  10.953   4.528   9.408 -0.1430 -1.0824 -0.9984
  845MOL0     H16595  10.787   4.717   9.517  5.4819 -0.4144 -1.3445
  845MOL0     H16596  10.183   4.759   9.510  0.0649  0.0866  0.2375
  845MOL0     H16597  10.037   4.911   9.609 -0.6375 -3.1074  1.1379
  845MOL0     H16598  10.118   5.078   9.993 -2.7542 -1.1385  0.4955
  845MOL0     H16599  10.165   5.225   9.926 -1.0715  1.2362  3.2664
  845MOL0     H16600   9.981   5.290  10.029  1.2502 -0.3406  1.0237
  845MOL0     H16601   9.880   5.153   9.972  0.5681 -1.0161  0.5243
  845MOL0     H16602   9.900   5.246   9.731  1.0947  1.1767 -1.0173
  845MOL0     H16603   9.810   5.353   9.840  0.0437 -1.2048  0.6467
  845MOL0     H16604   9.954   5.454   9.662  0.8834  1.6720 -1.2260
  845MOL0     H16605  10.103   5.385   9.733  0.9906  2.7283 -0.2454
  845MOL0     H16606  10.070   5.729   9.962  1.4790 -2.0518  1.1321
  845MOL0     H16607  10.323   5.044   9.884  0.4483 -1.3314  1.2233
  845MOL0     H16608  10.527   4.929   9.926  2.5970  3.0080 -1.9466
  845MOL0     H16609  10.548   4.767   9.865 -1.6872  0.7828  1.3036
  845MOL0     H16610  10.595   4.911   9.767  0.5585 -0.8636 -0.0786
  846MOL0     O16611  11.191  10.354   6.502 -0.4496  0.2922 -1.0385
  846MOL0     C16612  11.226  10.285   6.405 -0.2881  0.4004  0.7190
  846MOL0     O16613  11.146  10.235   6.307 -0.0001  0.1881 -0.4943
  846MOL0     C16614  11.019  10.278   6.297  0.5385  0.1761  0.6899
  846MOL0     C16615  10.930  10.309   6.403 -0.2549  0.2470  0.4398
  846MOL0     C16616  10.792  10.323   6.384 -0.1593 -0.3318  0.0671
  846MOL0     C16617  10.736  10.306   6.257 -0.5145  0.8153  0.0109
  846MOL0     O16618  10.599  10.330   6.249 -0.7877  0.3423  0.2372
  846MOL0     C16619  10.524  10.293   6.129 -0.3524  0.3307 -0.1952
  846MOL0     C16620  10.373  10.304   6.142  0.3793 -0.9981 -0.2461
  846MOL0     C16621  10.283  10.217   6.056 -0.1688  0.6887  0.3768
  846MOL0     C16622  10.148  10.275   6.013  0.4724  0.0465  0.2568
  846MOL0     C16623  10.151  10.328   5.865  0.1952 -0.3957 -0.1528
  846MOL0     C16624  10.029  10.419   5.849  0.0768 -0.1097  0.1965
  846MOL0     C16625   9.998  10.445   5.698  0.3050  0.5386 -0.2550
  846MOL0     C16626   9.879  10.538   5.690  0.3838 -0.3496 -0.1924
  846MOL0     N16627   9.814  10.548   5.561  0.5746  0.1093 -0.3135
  846MOL0     C16628   9.755  10.457   5.471 -0.1923  0.2312 -0.0311
  846MOL0     C16629   9.724  10.532   5.363  0.2373  0.5571 -0.9083
  846MOL0     C16630   9.663  10.473   5.241  0.4587 -0.2394  0.2042
  846MOL0     C16631   9.698  10.542   5.108  0.9983  0.6990  0.3028
  846MOL0     C16632   9.824  10.476   5.038  0.0631  1.3623  0.2827
  846MOL0     C16633   9.850  10.531   4.900  0.3613  0.3729 -0.7756
  846MOL0     O16634   9.744  10.509   4.814 -0.2841  0.3892  0.0305
  846MOL0     C16635   9.764  10.507   4.674 -0.3128 -0.1398  0.0745
  846MOL0     C16636   9.663  10.449   4.602 -0.0014  0.0645 -0.9430
  846MOL0     C16637   9.662  10.437   4.462 -1.3170 -0.7321  0.0959
  846MOL0     C16638   9.544  10.376   4.399 -0.6601  0.3034  0.5892
  846MOL0     C16639   9.779  10.483   4.390  0.1157 -0.2344  0.7170
  846MOL0     C16640   9.799  10.480   4.237  0.8598 -0.1094  0.8016
  846MOL0     O16641   9.928  10.523   4.192  0.4291  0.3029 -0.4383
  846MOL0     C16642   9.971  10.488   4.071  0.1635  0.4802  0.0842
  846MOL0     C16643  10.064  10.386   4.061 -0.7807  1.1460  0.4894
  846MOL0     C16644  10.128  10.336   3.948  0.7093  0.0592  0.3708
  846MOL0     C16645  10.082  10.398   3.832 -0.3279 -0.6178  0.7468
  846MOL0     O16646  10.147  10.354   3.720  0.4443 -0.8123  0.7134
  846MOL0     C16647  10.237  10.450   3.668  0.7293 -0.2460  0.3045
  846MOL0     C16648  10.314  10.395   3.544 -0.7925 -0.4627 -0.1201
  846MOL0     C16649  10.421  10.294   3.592 -0.3588  0.2395 -1.3565
  846MOL0     C16650  10.495  10.231   3.478  0.3672  0.1504 -0.6289
  846MOL0     C16651  10.602  10.327   3.422  0.0237  0.0018 -0.6029
  846MOL0     C16652  10.626  10.287   3.271 -0.0766 -0.7741 -0.3717
  846MOL0     C16653  10.693  10.387   3.180  0.1550  0.0061  0.3511
  846MOL0     C16654  10.709  10.347   3.034 -0.4631  0.3572  0.2154
  846MOL0    Cl16655  10.776  10.179   3.017  0.7198 -0.2390 -0.3608
  846MOL0     C16656   9.987  10.507   3.836 -0.4374  0.5197 -0.0966
  846MOL0     C16657   9.940  10.558   3.954 -0.1833 -0.4438 -0.3974
  846MOL0     O16658   9.704  10.441   4.167  0.0889  0.1862 -0.0766
  846MOL0     C16659   9.887  10.527   4.476 -0.1764 -0.4956  0.4382
  846MOL0     C16660   9.872  10.546   4.613 -0.0593 -0.0983 -0.6897
  846MOL0     N16661   9.773  10.667   5.384 -0.4782 -0.8568 -0.6672
  846MOL0     N16662   9.823  10.668   5.499 -0.6155 -0.0947  0.0975
  846MOL0     C16663  10.819  10.282   6.145  0.4983 -0.9115  0.2238
  846MOL0     C16664  10.959  10.273   6.170  0.3602 -0.1970  0.2673
  846MOL0     C16665  11.365  10.214   6.409 -0.6281  0.4286 -0.7689
  846MOL0     C16666  11.434  10.193   6.290 -0.0835  0.2496 -0.2204
  846MOL0     C16667  11.565  10.155   6.270  0.1210  0.0243  0.3913
  846MOL0     C16668  11.632  10.109   6.384 -0.5965  0.2666 -1.1132
  846MOL0     O16669  11.757  10.056   6.373 -0.4953  0.1754 -0.4673
  846MOL0     C16670  11.840  10.034   6.489  0.1037 -0.1683 -0.8686
  846MOL0     C16671  11.963   9.948   6.466 -0.3296  0.3181  0.1369
  846MOL0     C16672  12.060   9.999   6.363  0.3451 -1.3003  0.1265
  846MOL0     C16673  12.103  10.143   6.392 -0.0119  0.5325 -0.1650
  846MOL0     C16674  12.207  10.184   6.291 -0.0941 -0.2678 -0.7729
  846MOL0     C16675  12.272  10.215   6.200 -0.5905  0.4063  0.7036
  846MOL0     C16676  11.565  10.119   6.503 -0.6467  0.9544  0.0432
  846MOL0     C16677  11.443  10.180   6.519  0.8559  0.2952  0.4439
  846MOL0     C16678  11.402  10.200   6.659 -0.0915  0.6846 -0.3975
  846MOL0     H16679  10.962  10.329   6.505 -2.6061 -4.5258  2.4003
  846MOL0     H16680  10.728  10.343   6.469  2.1953  2.7611  1.2851
  846MOL0     H16681  10.552  10.194   6.092  2.3065  1.6627 -2.0293
  846MOL0     H16682  10.551  10.364   6.051 -0.5078 -0.1920 -0.7260
  846MOL0     H16683  10.347  10.296   6.248  2.7731  0.3911  0.5306
  846MOL0     H16684  10.345  10.407   6.115 -0.1281 -1.6756 -2.5720
  846MOL0     H16685  10.341  10.174   5.974 -2.1602  0.1592 -0.8406
  846MOL0     H16686  10.270  10.131   6.123 -0.5495  1.6243  1.5407
  846MOL0     H16687  10.075  10.194   6.019 -0.6270  1.0511  0.7778
  846MOL0     H16688  10.117  10.349   6.087  3.2994  2.6839 -0.9589
  846MOL0     H16689  10.143  10.244   5.796  0.2834 -0.4057 -0.1518
  846MOL0     H16690  10.246  10.373   5.834  2.5689 -4.2756  0.8632
  846MOL0     H16691   9.947  10.371   5.904  0.9889  0.0663  1.7912
  846MOL0     H16692  10.043  10.513   5.903  1.1841  0.0732 -0.3928
  846MOL0     H16693   9.970  10.350   5.652  0.2415  0.7034 -0.5575
  846MOL0     H16694  10.085  10.480   5.641 -0.0343 -1.9140 -2.4749
  846MOL0     H16695   9.796  10.500   5.751 -1.5704  0.0726 -2.4453
  846MOL0     H16696   9.915  10.637   5.720  1.6934 -0.5267 -1.1056
  846MOL0     H16697   9.744  10.355   5.506  0.2213  1.0594  2.8007
  846MOL0     H16698   9.555  10.471   5.263  0.3167  0.2073 -0.4133
  846MOL0     H16699   9.696  10.369   5.238 -2.5252 -1.2812 -0.5973
  846MOL0     H16700   9.611  10.528   5.043 -0.6649  0.8746  2.3940
  846MOL0     H16701   9.712  10.651   5.113  1.7825  0.6439 -0.5066
  846MOL0     H16702   9.912  10.503   5.099 -0.8468  0.7138  1.9589
  846MOL0     H16703   9.821  10.367   5.037  4.3665  0.9022  3.7993
  846MOL0     H16704   9.867  10.638   4.907 -0.2135  0.3863  0.7152
  846MOL0     H16705   9.943  10.480   4.871 -0.1425  0.5788 -2.9520
  846MOL0     H16706   9.572  10.422   4.654  0.1033  1.7997  0.2417
  846MOL0     H16707   9.501  10.424   4.311  0.1786  2.9893  1.5590
  846MOL0     H16708   9.466  10.363   4.475  1.5358 -0.0856  2.9082
  846MOL0     H16709   9.579  10.276   4.370 -2.0986 -0.4643  1.3504
  846MOL0     H16710  10.102  10.334   4.149 -0.1695 -3.1457 -2.0248
  846MOL0     H16711  10.200  10.255   3.943 -0.8661 -1.3451 -0.4586
  846MOL0     H16712  10.176  10.532   3.630  1.8155 -0.2715 -1.6362
  846MOL0     H16713  10.301  10.492   3.746 -0.1408 -1.8585  1.9556
  846MOL0     H16714  10.245  10.354   3.471  0.6386  0.0790 -1.8409
  846MOL0     H16715  10.364  10.481   3.498 -2.8818  0.5013 -0.6777
  846MOL0     H16716  10.359  10.222   3.647  0.0865  0.6400 -0.2912
  846MOL0     H16717  10.502  10.338   3.652  0.8417  0.6351 -3.1895
  846MOL0     H16718  10.415  10.214   3.405 -4.0544  0.2172  3.6694
  846MOL0     H16719  10.536  10.135   3.512 -1.9630 -0.8004 -0.2593
  846MOL0     H16720  10.582  10.434   3.428  0.5830  0.0295  1.4684
  846MOL0     H16721  10.695  10.311   3.477 -0.8120 -1.8552  0.3943
  846MOL0     H16722  10.529  10.262   3.227 -0.2745  0.5143 -0.7372
  846MOL0     H16723  10.674  10.189   3.269 -1.3003 -1.4008 -0.1459
  846MOL0     H16724  10.795  10.401   3.218  0.2502 -2.4328  1.1818
  846MOL0     H16725  10.631  10.477   3.180  0.8082  0.4755 -0.6766
  846MOL0     H16726  10.770  10.422   2.983 -3.7273  1.7913 -1.9049
  846MOL0     H16727  10.607  10.340   2.996  0.0553 -1.1906 -0.9938
  846MOL0     H16728   9.965  10.564   3.746  2.5418 -0.6195 -1.7058
  846MOL0     H16729   9.882  10.650   3.957  2.1620  1.2710 -2.9747
  846MOL0     H16730   9.988  10.533   4.438 -0.6344 -1.3932 -0.9558
  846MOL0     H16731   9.956  10.582   4.673 -0.2429  1.3984 -1.3087
  846MOL0     H16732  10.785  10.263   6.043  1.5036 -0.3271 -0.2415
  846MOL0     H16733  11.011  10.253   6.077 -0.2551 -1.1942  0.1125
  846MOL0     H16734  11.374  10.212   6.202  0.4950  0.7288 -0.5193
  846MOL0     H16735  11.612  10.156   6.172 -3.7568 -0.3233 -1.6964
  846MOL0     H16736  11.878  10.130   6.527 -3.2402  0.1094  2.3036
  846MOL0     H16737  11.781   9.993   6.571 -0.4214 -0.1925 -1.2563
  846MOL0     H16738  11.932   9.846   6.444  1.6774 -0.2971 -0.1109
  846MOL0     H16739  12.019   9.940   6.559 -0.7060  2.8002  0.6374
  846MOL0     H16740  12.149   9.936   6.360 -1.0062 -3.3008 -2.3280
  846MOL0     H16741  12.006   9.987   6.269 -1.6134 -2.2949  1.3080
  846MOL0     H16742  12.137  10.146   6.496 -3.3212 -1.7781  1.1813
  846MOL0     H16743  12.012  10.201   6.375 -4.0148 -4.9202 -0.3033
  846MOL0     H16744  12.356  10.218   6.133 -0.5689  2.0810  0.7593
  846MOL0     H16745  11.616  10.099   6.597  1.2155  0.1395 -1.0794
  846MOL0     H16746  11.461  10.284   6.697  3.1387 -1.5286 -0.1288
  846MOL0     H16747  11.294  10.207   6.673  0.0458  1.1055  0.5424
  846MOL0     H16748  11.432  10.122   6.730 -2.7592  0.8308  1.0317
  847MOL0     O16749   3.747   9.241   2.012 -0.2848 -0.6073 -0.4037
  847MOL0     C16750   3.760   9.353   1.965 -0.4524  0.1535  0.3481
  847MOL0     O16751   3.880   9.402   1.910  0.2203 -0.3909  0.3498
  847MOL0     C16752   3.993   9.323   1.890  1.0680 -0.7015 -0.1513
  847MOL0     C16753   4.005   9.183   1.899  0.2622  0.0964  0.0933
  847MOL0     C16754   4.114   9.107   1.878 -0.7141  0.5535  1.1625
  847MOL0     C16755   4.223   9.170   1.819  0.9255 -0.2761 -0.7448
  847MOL0     O16756   4.330   9.093   1.802 -0.2579 -1.1267  0.3934
  847MOL0     C16757   4.387   9.047   1.922 -0.0088 -0.0551 -0.4397
  847MOL0     C16758   4.538   9.024   1.907 -0.9155  1.5649 -0.1861
  847MOL0     C16759   4.601   9.159   1.915 -0.8665 -0.7831  0.1808
  847MOL0     C16760   4.753   9.130   1.921 -0.0795  0.0110  0.2161
  847MOL0     C16761   4.849   9.238   1.865  1.3093  0.3496 -0.1833
  847MOL0     C16762   4.993   9.198   1.890  0.0326 -1.0532  0.0340
  847MOL0     C16763   5.070   9.328   1.913  0.6355  0.2144  0.3584
  847MOL0     C16764   5.223   9.309   1.933 -0.3812  0.3750 -0.1418
  847MOL0     N16765   5.290   9.430   1.981  0.6922 -0.1897 -0.4076
  847MOL0     C16766   5.282   9.560   1.940  0.1484 -0.1207  0.0598
  847MOL0     C16767   5.371   9.633   2.006  0.4272 -0.1386  0.0315
  847MOL0     C16768   5.392   9.771   1.979  0.7311  0.7014 -0.9091
  847MOL0     C16769   5.525   9.839   2.026 -0.2247 -0.1547  0.3517
  847MOL0     C16770   5.528   9.877   2.180 -0.5582  0.9882  0.2737
  847MOL0     C16771   5.657   9.949   2.217 -0.3022 -0.1828  0.7944
  847MOL0     O16772   5.784   9.872   2.189  0.6474 -0.3685  0.3981
  847MOL0     C16773   5.907   9.913   2.246  0.6732  0.4692  0.4177
  847MOL0     C16774   5.939  10.039   2.295  0.2467 -0.4008 -0.3440
  847MOL0     C16775   6.067  10.082   2.339  0.5538  0.1019 -0.0848
  847MOL0     C16776   6.079  10.214   2.390  0.6664  0.1228 -0.6272
  847MOL0     C16777   6.168   9.990   2.334  0.1325  0.2157  0.2125
  847MOL0     C16778   6.314  10.026   2.365  1.0477 -0.3772  0.8027
  847MOL0     O16779   6.391   9.933   2.415 -0.4893  0.6915 -0.8268
  847MOL0     C16780   6.517   9.948   2.468 -0.9849 -0.1895  0.1834
  847MOL0     C16781   6.565  10.068   2.527 -0.4363  0.6229  0.2808
  847MOL0     C16782   6.684  10.073   2.592  0.3139  0.0337  0.5443
  847MOL0     C16783   6.768   9.969   2.587  0.4085 -0.1344  0.0589
  847MOL0     O16784   6.879  10.000   2.652  0.3515 -0.2015  0.1456
  847MOL0     C16785   7.004   9.921   2.633  0.2721 -0.0115  0.3982
  847MOL0     C16786   7.082   9.966   2.516 -0.8871 -0.4832 -0.4418
  847MOL0     C16787   7.180  10.074   2.553 -0.0916 -0.2182  0.4967
  847MOL0     C16788   7.122  10.209   2.569 -0.3127  0.0561  0.5873
  847MOL0     C16789   7.225  10.302   2.637  1.0060  0.7394  0.3600
  847MOL0     C16790   7.361  10.301   2.569  0.5506  0.2101  0.5572
  847MOL0     C16791   7.440  10.424   2.601 -0.7184 -0.5353 -0.5827
  847MOL0     C16792   7.588  10.403   2.598 -0.2433 -0.3944 -0.0263
  847MOL0    Cl16793   7.695  10.553   2.634 -0.3856 -0.4130  0.6078
  847MOL0     C16794   6.728   9.852   2.535  0.4134  0.4583  0.4890
  847MOL0     C16795   6.600   9.834   2.476  0.3954 -0.3316 -0.2538
  847MOL0     O16796   6.351  10.140   2.329 -0.5468 -0.0777  0.8656
  847MOL0     C16797   6.147   9.856   2.287 -0.8740  0.5614  0.3258
  847MOL0     C16798   6.018   9.825   2.242 -0.3290 -0.1066 -0.6480
  847MOL0     N16799   5.441   9.540   2.079  0.0586  0.2249 -0.2900
  847MOL0     N16800   5.398   9.422   2.063  1.2152  0.0011 -0.2881
  847MOL0     C16801   4.210   9.309   1.797  0.0229  0.2718 -0.2935
  847MOL0     C16802   4.105   9.386   1.833 -0.5126 -0.0341  0.0937
  847MOL0     C16803   3.653   9.446   1.960  0.1314  0.5859  0.0843
  847MOL0     C16804   3.676   9.584   1.946 -1.0071  0.2538 -0.2087
  847MOL0     C16805   3.576   9.677   1.952  0.2717  0.4705  0.0891
  847MOL0     C16806   3.448   9.642   1.991  0.4840  0.1588 -0.1713
  847MOL0     O16807   3.345   9.728   2.005 -0.6603  0.0816  0.0193
  847MOL0     C16808   3.357   9.870   1.997 -0.0300 -0.0920 -0.0535
  847MOL0     C16809   3.342   9.910   1.849 -0.8997  0.5458 -0.0446
  847MOL0     C16810   3.363  10.059   1.820 -0.0402  0.5834 -0.2376
  847MOL0     C16811   3.243  10.147   1.865 -0.3800  0.7001 -0.3271
  847MOL0     C16812   3.225  10.181   2.005  0.0222 -0.6689  0.5123
  847MOL0     C16813   3.201  10.232   2.114 -0.4533 -0.1775  0.2363
  847MOL0     C16814   3.420   9.508   2.025  0.3542 -0.7271 -0.2308
  847MOL0     C16815   3.522   9.410   2.004 -0.0766 -0.9226 -0.0166
  847MOL0     C16816   3.471   9.267   2.027 -0.5446 -0.5865  1.3404
  847MOL0     H16817   3.923   9.124   1.939  0.2024  0.4193  0.4519
  847MOL0     H16818   4.117   9.002   1.907 -0.2686  0.3894  0.5419
  847MOL0     H16819   4.338   8.952   1.945  0.8675 -0.0603  1.6518
  847MOL0     H16820   4.366   9.120   2.000 -1.5321 -2.6220  1.7348
  847MOL0     H16821   4.571   8.951   1.981 -1.5235 -1.8858 -3.0158
  847MOL0     H16822   4.569   8.994   1.806  0.2432  2.5347 -0.1397
  847MOL0     H16823   4.564   9.223   1.834  0.1048 -0.4625 -0.0217
  847MOL0     H16824   4.566   9.213   2.004  0.7584  0.0263  0.3611
  847MOL0     H16825   4.775   9.104   2.024  1.8586 -0.5256 -0.3009
  847MOL0     H16826   4.776   9.048   1.852 -2.2190 -0.6865  0.2458
  847MOL0     H16827   4.819   9.334   1.907 -1.1578  1.7390 -4.5071
  847MOL0     H16828   4.831   9.249   1.758  1.7646  1.0135 -0.1901
  847MOL0     H16829   5.008   9.141   1.983  0.0752 -0.6720  0.2635
  847MOL0     H16830   5.027   9.136   1.807 -0.4226  0.9796 -1.7556
  847MOL0     H16831   5.032   9.370   2.006  1.5908 -6.3339  4.4014
  847MOL0     H16832   5.050   9.401   1.834  2.8932  0.7378  0.2091
  847MOL0     H16833   5.249   9.227   2.000 -0.7728 -0.0615 -0.5186
  847MOL0     H16834   5.266   9.284   1.836 -1.8263  0.3211 -0.7984
  847MOL0     H16835   5.215   9.601   1.865  0.3260  1.1060  0.5553
  847MOL0     H16836   5.304   9.830   2.006  0.3581 -0.3496  0.2502
  847MOL0     H16837   5.399   9.773   1.870 -1.8559 -0.9345 -1.1936
  847MOL0     H16838   5.611   9.772   2.019 -0.7197 -0.9338  1.5651
  847MOL0     H16839   5.545   9.929   1.966 -2.6841 -0.3096 -0.8191
  847MOL0     H16840   5.442   9.938   2.209 -2.8986 -1.1467 -1.6646
  847MOL0     H16841   5.517   9.784   2.237  1.5895  0.4107 -0.1666
  847MOL0     H16842   5.663  10.042   2.160 -1.4157 -0.4662  0.1848
  847MOL0     H16843   5.650   9.970   2.324 -1.6162  0.4312  0.6139
  847MOL0     H16844   5.862  10.115   2.291  3.0199  2.9778  2.7162
  847MOL0     H16845   6.168  10.226   2.453  2.3550 -2.4858 -2.3482
  847MOL0     H16846   5.996  10.233   2.459  2.1512 -1.3793  1.7135
  847MOL0     H16847   6.079  10.280   2.303  0.9741 -1.6655 -2.0283
  847MOL0     H16848   6.511  10.162   2.525  1.2435  1.6684 -2.9888
  847MOL0     H16849   6.717  10.165   2.640  0.0223 -0.2624  1.3440
  847MOL0     H16850   7.073   9.926   2.718 -0.3514  2.1190  0.8277
  847MOL0     H16851   6.988   9.814   2.618 -2.0316  0.5148 -1.5716
  847MOL0     H16852   7.154   9.888   2.492  1.4644  1.6578 -0.8396
  847MOL0     H16853   7.012   9.979   2.432  2.5211 -0.4574 -3.5147
  847MOL0     H16854   7.260  10.071   2.478  0.1833  0.5973  0.7565
  847MOL0     H16855   7.227  10.040   2.645  0.0899  2.0345  1.2967
  847MOL0     H16856   7.028  10.221   2.623  0.1357  1.4900  1.0863
  847MOL0     H16857   7.104  10.251   2.470  2.3439  0.2411  0.1002
  847MOL0     H16858   7.180  10.402   2.640  1.1558  0.7944  2.3596
  847MOL0     H16859   7.224  10.278   2.744 -0.4965  1.3531  0.5164
  847MOL0     H16860   7.359  10.296   2.460  1.3766 -0.2935  0.5612
  847MOL0     H16861   7.415  10.214   2.607 -1.0414 -0.7441  0.7226
  847MOL0     H16862   7.418  10.458   2.702  5.2580 -0.5752  1.0470
  847MOL0     H16863   7.408  10.510   2.541 -2.0243 -1.0487 -0.6612
  847MOL0     H16864   7.620  10.374   2.497 -0.0001  0.0759 -0.0846
  847MOL0     H16865   7.616  10.325   2.669 -1.2700 -0.9036 -0.1586
  847MOL0     H16866   6.799   9.771   2.543 -0.1223 -0.8275 -4.4460
  847MOL0     H16867   6.563   9.746   2.424 -1.1893  1.0537 -1.6270
  847MOL0     H16868   6.234   9.790   2.289 -0.7210  0.7145 -0.5565
  847MOL0     H16869   5.993   9.724   2.209 -1.5493 -0.6403  1.6565
  847MOL0     H16870   4.287   9.357   1.736  0.3952 -1.5711 -1.3501
  847MOL0     H16871   4.101   9.491   1.805 -0.9925 -0.3932 -1.2716
  847MOL0     H16872   3.775   9.618   1.918 -0.3583  1.3036  2.8920
  847MOL0     H16873   3.598   9.781   1.929 -0.6833  0.8340  0.7382
  847MOL0     H16874   3.279   9.919   2.056 -0.1288  0.9591 -1.0136
  847MOL0     H16875   3.448   9.903   2.048  0.6837 -1.9455 -0.0468
  847MOL0     H16876   3.249   9.868   1.809 -0.8508  0.5749 -0.1905
  847MOL0     H16877   3.428   9.864   1.800  0.4771  0.4583  2.2982
  847MOL0     H16878   3.448  10.096   1.879 -1.0311  0.1850  1.5345
  847MOL0     H16879   3.384  10.057   1.713  0.8426 -0.4990 -0.0622
  847MOL0     H16880   3.159  10.097   1.817  0.5916 -2.0392  0.6043
  847MOL0     H16881   3.267  10.234   1.804 -1.3480 -0.0663 -1.8473
  847MOL0     H16882   3.186  10.264   2.215  1.1563 -0.2974  0.5331
  847MOL0     H16883   3.326   9.468   2.063 -0.3534 -1.8481 -2.9712
  847MOL0     H16884   3.488   9.213   1.933  0.8991  1.6389  0.2330
  847MOL0     H16885   3.524   9.221   2.111  0.1420 -2.9980 -0.3239
  847MOL0     H16886   3.362   9.272   2.036 -0.9630 -3.0937 -1.0493
  848MOL0     O16887   4.652   9.314  10.875  0.3022  0.2299 -0.1637
  848MOL0     C16888   4.571   9.367  10.952  1.1711  0.0494 -0.0974
  848MOL0     O16889   4.596   9.412  11.073  0.6011  0.3696  0.7233
  848MOL0     C16890   4.725   9.453  11.098 -0.4186 -0.1760 -0.4843
  848MOL0     C16891   4.785   9.428  11.224 -0.1296  0.1477  1.0215
  848MOL0     C16892   4.910   9.487  11.253 -0.4295  0.3915 -0.1092
  848MOL0     C16893   4.977   9.578  11.170 -0.2354 -0.8194  1.3534
  848MOL0     O16894   5.100   9.619  11.201  0.0249  0.1007  0.4405
  848MOL0     C16895   5.198   9.626  11.094  0.5519  0.1335 -0.6100
  848MOL0     C16896   5.225   9.773  11.070 -0.0532  0.0739 -0.8860
  848MOL0     C16897   5.351   9.782  10.980 -0.4038  0.5632  0.1415
  848MOL0     C16898   5.373   9.929  10.969  0.2884 -0.7326  0.0773
  848MOL0     C16899   5.485   9.986  10.874  0.3397  0.8659  0.0412
  848MOL0     C16900   5.622   9.928  10.898 -0.1355  0.4134  0.0084
  848MOL0     C16901   5.721   9.978  10.794  0.0155  0.9066  0.5437
  848MOL0     C16902   5.867   9.963  10.843  0.3935 -0.7773  0.3285
  848MOL0     N16903   5.959   9.973  10.734  0.2774 -0.1758 -0.4232
  848MOL0     C16904   5.975  10.087  10.671  0.2808 -0.1317 -0.1989
  848MOL0     C16905   6.093  10.067  10.599  0.3950  1.0512  0.3732
  848MOL0     C16906   6.148  10.167  10.507  0.1278  0.2556  0.3674
  848MOL0     C16907   6.292  10.132  10.457  0.6062 -0.2870  0.6909
  848MOL0     C16908   6.349  10.262  10.381  0.1863  0.1411 -0.5544
  848MOL0     C16909   6.292  10.278  10.241 -0.6062 -0.3256  0.0569
  848MOL0     O16910   6.352  10.177  10.156 -0.7499  0.0172 -0.5358
  848MOL0     C16911   6.365  10.206  10.023  0.6334  0.1596  0.1806
  848MOL0     C16912   6.439  10.120   9.946 -0.4705 -0.0195 -0.4415
  848MOL0     C16913   6.451  10.127   9.808 -0.0474 -0.0651  0.2541
  848MOL0     C16914   6.529  10.025   9.738 -0.4500  0.0660 -1.0381
  848MOL0     C16915   6.375  10.219   9.746 -0.5361 -0.2684  0.5301
  848MOL0     C16916   6.371  10.239   9.599 -0.1375 -0.5093 -0.0502
  848MOL0     O16917   6.347  10.373   9.563 -0.1130  0.3484  0.1877
  848MOL0     C16918   6.215  10.400   9.518 -1.2931 -0.0120 -0.5293
  848MOL0     C16919   6.183  10.539   9.512  0.3195  0.1717  0.3831
  848MOL0     C16920   6.056  10.576   9.471 -0.5047  0.2142 -0.3088
  848MOL0     C16921   5.960  10.488   9.440 -0.6984 -0.9947 -0.8309
  848MOL0     O16922   5.838  10.545   9.411  1.2194  1.0906 -0.2579
  848MOL0     C16923   5.716  10.473   9.449  0.4502  0.2583 -0.3021
  848MOL0     C16924   5.610  10.575   9.426 -0.1722  0.5100  0.2547
  848MOL0     C16925   5.470  10.526   9.440  0.2519  0.0746  0.6044
  848MOL0     C16926   5.445  10.476   9.580 -0.0553  0.5638 -0.0902
  848MOL0     C16927   5.299  10.473   9.609 -0.0714  0.3498 -0.3535
  848MOL0     C16928   5.275  10.372   9.724 -0.0273  0.7333 -0.5244
  848MOL0     C16929   5.122  10.359   9.756  0.5939 -0.6282  0.0552
  848MOL0     C16930   5.101  10.287   9.894  0.0101  0.9646 -1.3105
  848MOL0    Cl16931   5.132  10.395  10.027 -0.1340  0.0102  0.0451
  848MOL0     C16932   5.991  10.353   9.445  1.0076 -0.0996  0.1150
  848MOL0     C16933   6.113  10.306   9.488  0.8560 -0.0701  0.1161
  848MOL0     O16934   6.391  10.149   9.521  0.3119 -0.4810  0.6448
  848MOL0     C16935   6.312  10.319   9.819  0.5155  0.4667  0.0247
  848MOL0     C16936   6.308  10.308   9.959  0.3929  0.2887  0.3367
  848MOL0     N16937   6.132   9.937  10.622 -0.5063  0.0928  0.1168
  848MOL0     N16938   6.053   9.881  10.707  0.1266 -0.2665 -0.1171
  848MOL0     C16939   4.914   9.612  11.047  0.3724 -0.2183  0.1312
  848MOL0     C16940   4.792   9.549  11.008 -0.8083 -0.5379 -0.5291
  848MOL0     C16941   4.427   9.358  10.916  0.2342  0.0040 -0.0758
  848MOL0     C16942   4.341   9.394  11.019 -0.0980 -0.5089 -0.3325
  848MOL0     C16943   4.202   9.377  11.006 -0.8296 -0.5670 -0.7037
  848MOL0     C16944   4.156   9.318  10.894 -0.3149  0.5128  0.7152
  848MOL0     O16945   4.021   9.300  10.878  0.1541 -0.8922  0.7281
  848MOL0     C16946   3.921   9.393  10.933  0.4881  0.0452  0.1448
  848MOL0     C16947   3.801   9.418  10.834  0.0171 -0.4339 -0.3705
  848MOL0     C16948   3.852   9.497  10.727 -0.4159 -0.2031  0.3193
  848MOL0     C16949   3.751   9.534  10.627  0.2613 -0.4124 -0.7304
  848MOL0     C16950   3.694   9.421  10.555  0.2323  1.1030  0.3036
  848MOL0     C16951   3.639   9.334  10.485  0.0027 -0.5186  0.0676
  848MOL0     C16952   4.239   9.286  10.786 -0.1590 -0.9166 -1.0562
  848MOL0     C16953   4.372   9.311  10.793  0.1484  0.6431  0.5764
  848MOL0     C16954   4.464   9.279  10.678  0.3106  0.3250 -0.8063
  848MOL0     H16955   4.734   9.361  11.292 -1.6516 -0.7068 -0.8751
  848MOL0     H16956   4.954   9.461  11.349 -1.9095 -3.5190 -0.3099
  848MOL0     H16957   5.177   9.569  11.003 -1.5263  0.1030 -0.1661
  848MOL0     H16958   5.288   9.583  11.140  0.1137 -3.4940 -2.7249
  848MOL0     H16959   5.137   9.821  11.026 -1.8027 -2.0700  0.0909
  848MOL0     H16960   5.239   9.825  11.165  1.1627  2.0854 -2.0944
  848MOL0     H16961   5.439   9.736  11.025  1.4810  2.5569 -1.2888
  848MOL0     H16962   5.337   9.736  10.881 -0.4098  0.3481  0.2415
  848MOL0     H16963   5.281   9.972  10.929  0.6433  0.2321  0.2946
  848MOL0     H16964   5.382   9.974  11.067  0.3694 -0.2303 -0.1608
  848MOL0     H16965   5.482  10.095  10.870  2.0104  0.9500  0.3530
  848MOL0     H16966   5.464   9.962  10.769  1.4031 -0.7803  0.1780
  848MOL0     H16967   5.662   9.948  10.998  1.1054  0.0367 -0.3973
  848MOL0     H16968   5.605   9.821  10.885 -0.4728  0.6960 -2.1142
  848MOL0     H16969   5.695  10.081  10.767 -0.7530  0.9009  1.2211
  848MOL0     H16970   5.710   9.916  10.705  1.1555  0.1434  0.9081
  848MOL0     H16971   5.891  10.032  10.925  1.7907 -0.5137 -0.2719
  848MOL0     H16972   5.879   9.857  10.868  2.7605 -1.6051 -3.4061
  848MOL0     H16973   5.914  10.177  10.670  2.1228  1.2124 -3.2659
  848MOL0     H16974   6.156  10.267  10.551 -1.7261 -0.3796  2.2858
  848MOL0     H16975   6.085  10.162  10.418  1.2238  4.6104 -0.8975
  848MOL0     H16976   6.355  10.096  10.539  0.4594 -0.6412  0.6513
  848MOL0     H16977   6.282  10.055  10.380  1.9025  2.5188 -2.5823
  848MOL0     H16978   6.330  10.350  10.442 -0.2687 -1.0072  1.0259
  848MOL0     H16979   6.458  10.258  10.375  0.3804 -1.8321  2.2611
  848MOL0     H16980   6.183  10.284  10.235 -0.6556  1.1696  1.5952
  848MOL0     H16981   6.313  10.382  10.214 -2.3562  0.4065  1.2999
  848MOL0     H16982   6.492  10.045  10.004 -1.7900  0.9954  2.2120
  848MOL0     H16983   6.563  10.050   9.637 -0.2318 -0.1331 -1.0153
  848MOL0     H16984   6.467   9.936   9.736  0.7175 -0.9110  1.3765
  848MOL0     H16985   6.627  10.007   9.784  0.0882 -1.8782 -2.7753
  848MOL0     H16986   6.260  10.612   9.532  0.4365  0.4547 -1.0269
  848MOL0     H16987   6.026  10.678   9.450 -2.5569 -0.0012  1.3050
  848MOL0     H16988   5.702  10.385   9.386  1.6784 -0.4621  0.4010
  848MOL0     H16989   5.730  10.437   9.551  0.1346  2.4168  0.5558
  848MOL0     H16990   5.622  10.644   9.510 -0.3298  1.6537 -0.6377
  848MOL0     H16991   5.623  10.631   9.333  1.8089  0.2614  0.3370
  848MOL0     H16992   5.456  10.453   9.359  1.5229  0.3829  0.0924
  848MOL0     H16993   5.402  10.610   9.424  1.8466  0.8822 -2.5792
  848MOL0     H16994   5.493  10.539   9.655  0.6217 -1.1304  0.9709
  848MOL0     H16995   5.491  10.378   9.592  0.1588  0.5529 -0.9157
  848MOL0     H16996   5.264  10.573   9.637  0.7910 -0.1896  3.1484
  848MOL0     H16997   5.243  10.438   9.522 -2.5925 -0.2249  1.3944
  848MOL0     H16998   5.323  10.421   9.810  0.8078 -0.7096 -0.1434
  848MOL0     H16999   5.324  10.276   9.706 -0.8973 -0.0933  1.2326
  848MOL0     H17000   5.073  10.302   9.677  0.2342  1.6517 -1.4926
  848MOL0     H17001   5.068  10.454   9.743 -0.3982 -1.2501 -0.4788
  848MOL0     H17002   5.177  10.209   9.903 -0.7301  0.5001  1.8554
  848MOL0     H17003   4.997  10.258   9.913  1.3459 -1.7112  3.4341
  848MOL0     H17004   5.925  10.280   9.400  2.6952 -2.0822  0.6833
  848MOL0     H17005   6.132  10.199   9.489  2.3864  0.0695 -2.4824
  848MOL0     H17006   6.260  10.407   9.783 -2.4337 -0.1257  2.4366
  848MOL0     H17007   6.242  10.371  10.017  0.6993 -2.3877  3.9309
  848MOL0     H17008   4.952   9.673  10.966 -2.6670 -1.8264 -2.7398
  848MOL0     H17009   4.744   9.584  10.917  1.3726 -0.9994 -1.9528
  848MOL0     H17010   4.367   9.435  11.116 -3.2509 -0.7778  0.7559
  848MOL0     H17011   4.139   9.402  11.091  0.0487 -1.6404  0.2977
  848MOL0     H17012   3.874   9.337  11.014 -0.8199 -0.8668 -1.1695
  848MOL0     H17013   3.969   9.482  10.972  0.4877 -0.5421  1.5258
  848MOL0     H17014   3.721   9.475  10.881  0.6906 -0.9458  1.4917
  848MOL0     H17015   3.761   9.327  10.790  0.0036  0.3981 -2.1741
  848MOL0     H17016   3.901   9.589  10.759  0.0783 -0.4714  0.3479
  848MOL0     H17017   3.936   9.445  10.680  0.6556  1.0788  0.7716
  848MOL0     H17018   3.790   9.609  10.558 -0.6665  0.5240 -0.2480
  848MOL0     H17019   3.669   9.592  10.667  1.2034  0.4303  0.0224
  848MOL0     H17020   3.582   9.256  10.437 -0.9532  0.8421 -1.1321
  848MOL0     H17021   4.205   9.241  10.693  0.1654 -0.6014 -1.3278
  848MOL0     H17022   4.509   9.184  10.711 -0.1726  0.4225  0.1838
  848MOL0     H17023   4.397   9.255  10.595  0.1122 -0.6510 -0.3800
  848MOL0     H17024   4.545   9.350  10.660  1.5906 -1.3725 -2.0931
  849MOL0     O17025   9.814   4.703   1.390 -0.4992 -0.4661 -0.2335
  849MOL0     C17026   9.825   4.645   1.278 -0.0358 -0.2470  0.1131
  849MOL0     O17027   9.886   4.688   1.164 -0.9305 -0.4107 -0.3236
  849MOL0     C17028   9.945   4.816   1.166  0.4867 -0.1826 -0.3243
  849MOL0     C17029  10.079   4.843   1.142 -0.1826  0.1433  0.1625
  849MOL0     C17030  10.137   4.962   1.146  0.5240 -0.4877  0.0701
  849MOL0     C17031  10.059   5.076   1.167 -0.2863 -1.0688  0.1385
  849MOL0     O17032  10.106   5.211   1.159 -0.8014  0.7462 -0.1400
  849MOL0     C17033  10.241   5.223   1.113  0.5096  1.0942 -0.0911
  849MOL0     C17034  10.261   5.366   1.060  0.5247  0.8780 -0.1262
  849MOL0     C17035  10.384   5.388   0.970  0.7741 -0.1140  0.1057
  849MOL0     C17036  10.395   5.537   0.920 -0.2140  0.6688  0.2470
  849MOL0     C17037  10.536   5.567   0.875  0.4795 -0.4396 -0.7967
  849MOL0     C17038  10.553   5.692   0.793  0.3123 -0.3344 -0.9353
  849MOL0     C17039  10.694   5.706   0.736  0.0039  0.9271 -0.2703
  849MOL0     C17040  10.693   5.809   0.632  0.9725  0.0385  0.1790
  849MOL0     N17041  10.832   5.853   0.595 -0.2692  0.0990 -0.3718
  849MOL0     C17042  10.896   5.940   0.681  0.0899 -0.0183  0.4513
  849MOL0     C17043  11.015   5.948   0.630  0.2558 -0.7093  0.3354
  849MOL0     C17044  11.124   6.022   0.690 -0.6925  0.1158  0.0353
  849MOL0     C17045  11.240   6.036   0.594 -0.2329  1.4587 -0.3313
  849MOL0     C17046  11.346   6.118   0.655  0.5764 -0.7680  0.1108
  849MOL0     C17047  11.404   6.060   0.787  0.1492 -0.0291 -0.2549
  849MOL0     O17048  11.464   5.933   0.756  0.8996 -0.6381 -0.1348
  849MOL0     C17049  11.580   5.927   0.692 -0.5547  1.2723 -0.5228
  849MOL0     C17050  11.598   5.833   0.589 -0.0756  0.4018 -0.0534
  849MOL0     C17051  11.714   5.821   0.517  0.1457  0.6645 -0.3564
  849MOL0     C17052  11.715   5.714   0.411  0.2964 -0.1710  0.4657
  849MOL0     C17053  11.823   5.905   0.545 -0.4922  0.4630  0.3832
  849MOL0     C17054  11.950   5.886   0.485  0.6927  0.0746  0.1081
  849MOL0     O17055  12.028   5.774   0.505 -0.0593 -0.6948  1.0364
  849MOL0     C17056  12.154   5.776   0.450  0.3588  0.4335 -0.1072
  849MOL0     C17057  12.172   5.786   0.314 -0.6172  0.1737  0.1189
  849MOL0     C17058  12.299   5.786   0.258  0.3633  0.2701  0.6959
  849MOL0     C17059  12.412   5.765   0.344 -0.9670  0.2748  0.3190
  849MOL0     O17060  12.542   5.772   0.297 -0.1082 -0.3125  0.2756
  849MOL0     C17061  12.567   5.696   0.175 -0.2570  0.2636  0.2090
  849MOL0     C17062  12.695   5.621   0.171 -0.1690 -0.0052  0.1538
  849MOL0     C17063  12.710   5.547   0.039 -0.3970 -0.1577  1.1564
  849MOL0     C17064  12.848   5.483   0.026  0.4682 -0.5076 -0.5353
  849MOL0     C17065  12.973   5.581   0.029 -0.6610  0.2342 -0.6941
  849MOL0     C17066  13.095   5.510  -0.021 -0.7452  0.0549 -0.6950
  849MOL0     C17067  13.232   5.586  -0.017  0.0447  0.0366 -1.2365
  849MOL0     C17068  13.300   5.581   0.124 -0.3071 -0.6728  0.2718
  849MOL0    Cl17069  13.443   5.691   0.134 -0.0037 -0.4484  0.4837
  849MOL0     C17070  12.394   5.768   0.481 -0.7492 -0.1770 -0.1327
  849MOL0     C17071  12.267   5.777   0.536  0.2617 -0.2193 -0.3185
  849MOL0     O17072  11.983   5.991   0.425 -0.1029 -0.0699 -0.4212
  849MOL0     C17073  11.803   6.000   0.655 -0.2532 -0.0011 -0.5982
  849MOL0     C17074  11.681   6.013   0.719  0.7552 -0.1745 -0.3398
  849MOL0     N17075  11.008   5.880   0.509 -0.2949 -0.1756  0.7453
  849MOL0     N17076  10.900   5.816   0.489 -0.5601  0.2758 -0.0099
  849MOL0     C17077   9.914   5.061   1.181 -0.7789  0.5152  0.8165
  849MOL0     C17078   9.862   4.930   1.171 -0.1688 -0.5149 -0.2428
  849MOL0     C17079   9.748   4.514   1.249 -0.6683  0.7625 -1.0784
  849MOL0     C17080   9.781   4.436   1.129 -0.6722 -0.4846 -0.0666
  849MOL0     C17081   9.705   4.330   1.089 -0.3141  0.3677 -0.1415
  849MOL0     C17082   9.601   4.280   1.167  0.0446  0.3504  0.2045
  849MOL0     O17083   9.533   4.166   1.136  0.2434 -0.3565  0.4437
  849MOL0     C17084   9.578   4.078   1.030 -0.7278 -0.2313  0.5366
  849MOL0     C17085   9.703   4.000   1.057  0.1966  0.2074 -0.1429
  849MOL0     C17086   9.708   3.963   1.206 -0.5205  0.5190 -0.3237
  849MOL0     C17087   9.816   3.861   1.226  0.0656  0.1555 -1.1052
  849MOL0     C17088   9.793   3.799   1.361 -1.0093  0.4018  0.1143
  849MOL0     C17089   9.774   3.762   1.475  0.3206  0.3761 -0.5026
  849MOL0     C17090   9.573   4.348   1.278  0.9572  0.1314 -0.1170
  849MOL0     C17091   9.638   4.459   1.327 -0.1965  0.0982 -0.2681
  849MOL0     C17092   9.591   4.516   1.458 -0.2844 -0.3901  0.5258
  849MOL0     H17093  10.132   4.754   1.107 -0.2899 -0.3666  1.2400
  849MOL0     H17094  10.244   4.967   1.125  0.2813  0.0444 -1.1165
  849MOL0     H17095  10.250   5.154   1.028  1.2911 -4.2498  3.7529
  849MOL0     H17096  10.305   5.198   1.198 -0.8337 -1.7976  0.2105
  849MOL0     H17097  10.171   5.373   0.998 -0.9486  0.1820  1.8384
  849MOL0     H17098  10.252   5.443   1.138  1.3845  0.6252  0.2365
  849MOL0     H17099  10.471   5.374   1.035  2.0715 -1.4660 -1.8177
  849MOL0     H17100  10.391   5.322   0.883  1.8358  2.2103 -1.6936
  849MOL0     H17101  10.336   5.536   0.828 -0.4110 -0.4706  0.3634
  849MOL0     H17102  10.356   5.605   0.996  0.4376  1.4585 -0.1126
  849MOL0     H17103  10.568   5.484   0.812 -1.7940 -2.1842  0.1565
  849MOL0     H17104  10.594   5.577   0.967  0.3926 -3.6891 -0.2625
  849MOL0     H17105  10.484   5.688   0.709  0.7133 -0.8841 -1.2478
  849MOL0     H17106  10.521   5.777   0.854  1.9314 -0.3986  0.0690
  849MOL0     H17107  10.728   5.609   0.699 -1.9825 -0.0386  0.2693
  849MOL0     H17108  10.762   5.737   0.816 -0.9759  1.6553  0.3191
  849MOL0     H17109  10.642   5.760   0.548  0.9329 -0.6565  0.5969
  849MOL0     H17110  10.622   5.886   0.664 -3.4051 -3.1768 -0.8191
  849MOL0     H17111  10.853   5.982   0.771 -1.0557 -1.3951  0.5729
  849MOL0     H17112  11.157   5.955   0.770 -0.5008 -1.0032 -0.9582
  849MOL0     H17113  11.084   6.121   0.711  3.3356  2.2096 -1.1761
  849MOL0     H17114  11.292   5.943   0.569  1.4067  2.0960  0.5538
  849MOL0     H17115  11.205   6.088   0.504 -1.7036 -0.5468 -0.9737
  849MOL0     H17116  11.422   6.130   0.577 -0.5818 -2.2115 -1.3135
  849MOL0     H17117  11.306   6.217   0.681  2.3632  0.5256 -1.7872
  849MOL0     H17118  11.480   6.133   0.815 -0.2272  0.6369 -0.9266
  849MOL0     H17119  11.342   6.054   0.877  0.0016 -1.7139 -0.4373
  849MOL0     H17120  11.514   5.770   0.559  0.3706 -2.8675  4.5887
  849MOL0     H17121  11.617   5.671   0.388  1.2179 -1.5469 -1.1340
  849MOL0     H17122  11.788   5.635   0.432  1.0757  0.3233 -0.3053
  849MOL0     H17123  11.751   5.766   0.321  0.0743  1.6331  1.3850
  849MOL0     H17124  12.092   5.797   0.242  2.3027  3.0436 -3.1348
  849MOL0     H17125  12.312   5.800   0.151 -2.8092 -2.1466 -0.1889
  849MOL0     H17126  12.489   5.623   0.151 -3.0594  3.5095 -1.4329
  849MOL0     H17127  12.562   5.766   0.092 -0.4537 -0.1031 -0.0914
  849MOL0     H17128  12.768   5.703   0.174 -0.2882  0.0779  1.8587
  849MOL0     H17129  12.706   5.552   0.256 -0.8667  1.6880  1.6884
  849MOL0     H17130  12.685   5.616  -0.042  0.3251  0.2062  1.2354
  849MOL0     H17131  12.637   5.467   0.025 -0.2739  0.1452 -1.6318
  849MOL0     H17132  12.844   5.438  -0.074  2.0173 -1.3592 -0.2408
  849MOL0     H17133  12.871   5.409   0.102  1.7057  0.3042 -0.0833
  849MOL0     H17134  12.952   5.669  -0.033  0.5770  2.1165  1.3876
  849MOL0     H17135  12.987   5.620   0.131  0.7685  1.6290 -1.3875
  849MOL0     H17136  13.076   5.506  -0.129 -3.1499  0.1423 -0.3370
  849MOL0     H17137  13.104   5.409   0.020  1.6413 -0.7414 -2.9176
  849MOL0     H17138  13.216   5.691  -0.042 -0.4752  0.2599 -0.0489
  849MOL0     H17139  13.294   5.543  -0.096  0.7677 -1.7269  0.2172
  849MOL0     H17140  13.342   5.480   0.134  0.7450 -0.5561 -2.1938
  849MOL0     H17141  13.226   5.603   0.201 -1.5329  0.8379 -1.2617
  849MOL0     H17142  12.474   5.769   0.554 -1.5716 -0.7899  0.8027
  849MOL0     H17143  12.268   5.783   0.644  0.6249  2.6177 -0.4148
  849MOL0     H17144  11.889   6.057   0.686 -0.4176  0.6044 -1.2269
  849MOL0     H17145  11.669   6.084   0.800 -0.4391  1.0842 -1.5602
  849MOL0     H17146   9.841   5.142   1.187 -0.7904  0.5686  0.0300
  849MOL0     H17147   9.755   4.913   1.173  0.0326 -1.7873  0.5982
  849MOL0     H17148   9.871   4.461   1.075 -1.8776 -0.3207 -2.0936
  849MOL0     H17149   9.753   4.293   0.999 -2.3079 -0.2650 -1.0102
  849MOL0     H17150   9.498   4.005   1.013 -0.1855 -1.1782  1.8387
  849MOL0     H17151   9.594   4.137   0.940 -1.9339  1.1637  1.1975
  849MOL0     H17152   9.791   4.054   1.020  0.2779  0.6728  0.6933
  849MOL0     H17153   9.698   3.908   1.000  2.4217  0.3721 -0.6775
  849MOL0     H17154   9.724   4.051   1.269 -2.4465  1.9135 -1.6695
  849MOL0     H17155   9.606   3.928   1.226 -0.6629  1.1174  0.0377
  849MOL0     H17156   9.911   3.914   1.228 -0.4852  1.2045  1.6592
  849MOL0     H17157   9.821   3.784   1.149 -2.8089 -1.4092  0.0926
  849MOL0     H17158   9.754   3.742   1.579  1.0272 -0.4509 -0.5094
  849MOL0     H17159   9.487   4.320   1.337  0.1760  1.1001 -0.7570
  849MOL0     H17160   9.532   4.443   1.514 -0.2807 -1.5161 -0.8849
  849MOL0     H17161   9.677   4.531   1.525 -2.2231  0.5764  2.9662
  849MOL0     H17162   9.529   4.605   1.445  0.3977 -0.2599 -2.4127
  850MOL0     O17163   1.568   2.952   1.836 -0.2902  0.0075 -0.7428
  850MOL0     C17164   1.570   2.943   1.714 -0.3524 -0.0441  0.6057
  850MOL0     O17165   1.675   2.922   1.634 -0.2778  0.3992 -0.4899
  850MOL0     C17166   1.804   2.932   1.677  0.0872 -0.2046 -0.0960
  850MOL0     C17167   1.847   3.044   1.739 -0.4319  0.4161  0.0132
  850MOL0     C17168   1.982   3.044   1.784 -0.5993 -0.3744 -0.1293
  850MOL0     C17169   2.069   2.934   1.765  0.3306  0.5579  0.2852
  850MOL0     O17170   2.199   2.947   1.806  0.1916 -0.0896 -0.0817
  850MOL0     C17171   2.254   2.823   1.857  0.2377  0.5539 -0.2825
  850MOL0     C17172   2.383   2.870   1.925 -0.0095 -0.6011  0.6031
  850MOL0     C17173   2.482   2.934   1.829  0.3815  0.4018  0.0621
  850MOL0     C17174   2.555   2.824   1.752 -0.9909 -0.7529 -0.2881
  850MOL0     C17175   2.679   2.883   1.678  0.7379  0.2206 -0.1607
  850MOL0     C17176   2.778   2.775   1.629 -0.2908  0.2411 -0.4433
  850MOL0     C17177   2.917   2.839   1.580  0.8245  0.2613  1.0324
  850MOL0     C17178   2.954   2.799   1.445  0.3775  0.0303  0.3888
  850MOL0     N17179   3.092   2.847   1.413 -0.0402  0.2004  0.1390
  850MOL0     C17180   3.124   2.913   1.300  0.3536 -0.8335  0.9284
  850MOL0     C17181   3.256   2.923   1.306 -0.5030  0.8374  0.2035
  850MOL0     C17182   3.349   2.995   1.214 -0.4175 -0.0837  0.2711
  850MOL0     C17183   3.384   2.908   1.095  0.1892  1.2086 -1.3755
  850MOL0     C17184   3.460   2.975   0.988 -0.0749  0.7552  0.7096
  850MOL0     C17185   3.601   3.011   1.010 -0.0228  0.2295 -0.1079
  850MOL0     O17186   3.618   3.128   1.090  0.7929  0.2116 -0.0647
  850MOL0     C17187   3.673   3.231   1.016  0.3843 -0.1829  0.3147
  850MOL0     C17188   3.644   3.250   0.870  0.0388 -0.0478  0.2427
  850MOL0     C17189   3.693   3.361   0.805  0.5370  0.2669  1.1192
  850MOL0     C17190   3.659   3.378   0.660  0.3776  0.6325 -0.1379
  850MOL0     C17191   3.781   3.451   0.869 -0.0887 -0.1842 -0.6435
  850MOL0     C17192   3.842   3.575   0.813  0.5273  0.8332  1.3701
  850MOL0     O17193   3.950   3.630   0.876  0.1415  0.2769  0.3374
  850MOL0     C17194   3.984   3.764   0.848 -0.2887 -0.4956 -0.0175
  850MOL0     C17195   4.117   3.785   0.837 -0.6523  0.0332 -0.1029
  850MOL0     C17196   4.168   3.905   0.793 -0.9701  0.4354 -0.9681
  850MOL0     C17197   4.088   4.010   0.766  0.3034 -0.0957  0.1670
  850MOL0     O17198   4.139   4.125   0.706 -0.8120 -0.5599 -0.6576
  850MOL0     C17199   4.191   4.225   0.796  0.4059  0.6176  0.4167
  850MOL0     C17200   4.088   4.326   0.827 -0.9095 -0.0202 -0.6294
  850MOL0     C17201   4.026   4.390   0.713 -1.0113 -0.0339  0.6362
  850MOL0     C17202   3.949   4.517   0.746  0.6257 -0.4025 -0.2362
  850MOL0     C17203   3.900   4.594   0.617  0.4368  0.1223  0.2364
  850MOL0     C17204   3.797   4.500   0.530 -0.4080 -0.6350 -0.6322
  850MOL0     C17205   3.715   4.590   0.440  0.7333  0.3490  0.6150
  850MOL0     C17206   3.774   4.590   0.299 -0.6783 -0.0157 -0.5387
  850MOL0    Cl17207   3.761   4.418   0.247  0.0384 -0.1430  0.1021
  850MOL0     C17208   3.950   3.996   0.791 -0.6354  0.3385 -0.3146
  850MOL0     C17209   3.900   3.871   0.833 -0.4662  0.2383 -0.1207
  850MOL0     O17210   3.781   3.621   0.713 -0.3115  0.4623 -0.6773
  850MOL0     C17211   3.805   3.433   1.005 -0.3109  0.1301 -0.0989
  850MOL0     C17212   3.743   3.325   1.076 -0.3345  0.9761  0.5105
  850MOL0     N17213   3.299   2.848   1.420 -0.7221 -0.0522 -0.0147
  850MOL0     N17214   3.194   2.808   1.480 -0.3679  0.5828 -0.2704
  850MOL0     C17215   2.013   2.819   1.704  0.3955  0.5328 -0.1122
  850MOL0     C17216   1.883   2.814   1.656 -0.1589  0.1913  0.5932
  850MOL0     C17217   1.440   2.922   1.648 -0.3372 -0.0543 -0.1116
  850MOL0     C17218   1.339   2.849   1.713  0.3352 -0.6780  0.4177
  850MOL0     C17219   1.221   2.827   1.640  0.3674  0.4822  0.1440
  850MOL0     C17220   1.200   2.874   1.514  0.3870  0.4071 -0.2667
  850MOL0     O17221   1.088   2.835   1.455 -0.0659 -0.5058  0.5608
  850MOL0     C17222   1.079   2.878   1.319  0.7517  0.3641  0.5473
  850MOL0     C17223   0.953   2.812   1.255  0.0834  0.4903 -0.1853
  850MOL0     C17224   0.828   2.845   1.337  0.4470  0.6715  0.0497
  850MOL0     C17225   0.694   2.815   1.267 -0.2286  0.2027  0.2818
  850MOL0     C17226   0.669   2.881   1.138  0.4275 -0.3394 -0.8001
  850MOL0     C17227   0.659   2.911   1.019 -0.0084  0.6019  0.2854
  850MOL0     C17228   1.299   2.949   1.460 -0.6603 -0.2655  0.3481
  850MOL0     C17229   1.420   2.973   1.517  0.1831 -0.0677 -0.5633
  850MOL0     C17230   1.517   3.070   1.442  0.5288  0.6054  0.7621
  850MOL0     H17231   1.778   3.127   1.750 -3.9157 -2.0769 -1.4793
  850MOL0     H17232   2.018   3.128   1.842 -1.9569  0.9753 -1.1337
  850MOL0     H17233   2.274   2.748   1.780  1.3674  0.4329  0.1135
  850MOL0     H17234   2.181   2.775   1.922 -0.9177  1.8376 -0.5895
  850MOL0     H17235   2.354   2.947   1.997 -1.6269 -1.4627  0.9249
  850MOL0     H17236   2.421   2.788   1.986  0.1010  0.1474  1.5659
  850MOL0     H17237   2.429   3.011   1.770 -0.7748  0.7451  1.4870
  850MOL0     H17238   2.554   2.994   1.885  1.7338  0.5155 -1.7061
  850MOL0     H17239   2.593   2.746   1.818  0.8853 -3.1182 -3.8505
  850MOL0     H17240   2.496   2.763   1.683 -1.2305 -1.4671  0.5325
  850MOL0     H17241   2.734   2.947   1.747 -0.9525 -0.3836  1.8401
  850MOL0     H17242   2.652   2.948   1.594 -0.7404  0.7831  0.7146
  850MOL0     H17243   2.796   2.705   1.710  0.9798  0.7634 -0.2396
  850MOL0     H17244   2.734   2.730   1.539  2.8435  0.2401 -2.1101
  850MOL0     H17245   2.990   2.793   1.647  1.0780 -2.0261 -0.6659
  850MOL0     H17246   2.933   2.946   1.593  2.2391  0.5214 -2.0219
  850MOL0     H17247   2.935   2.691   1.438 -0.1013  0.0495  1.2977
  850MOL0     H17248   2.888   2.844   1.371  0.4979 -0.2751  0.0893
  850MOL0     H17249   3.053   2.930   1.220  0.7553 -3.2051 -0.0029
  850MOL0     H17250   3.438   3.016   1.273 -1.3874 -1.7086  2.4493
  850MOL0     H17251   3.310   3.091   1.177  1.7933  0.2369 -1.4436
  850MOL0     H17252   3.442   2.825   1.137  1.4434  3.1143  0.9148
  850MOL0     H17253   3.287   2.879   1.052 -0.1829 -1.5959  1.0305
  850MOL0     H17254   3.469   2.900   0.909  0.4325 -1.3788  2.7102
  850MOL0     H17255   3.409   3.065   0.950  2.8945  0.3182 -5.7551
  850MOL0     H17256   3.652   2.930   1.064 -0.8471  0.9917  1.8993
  850MOL0     H17257   3.650   3.013   0.913  0.2589 -0.9397 -0.0024
  850MOL0     H17258   3.579   3.179   0.819  1.9017 -2.3405  0.9065
  850MOL0     H17259   3.594   3.300   0.620 -0.7762  1.3563  0.2612
  850MOL0     H17260   3.745   3.376   0.593  1.0337  2.4365  0.5855
  850MOL0     H17261   3.609   3.475   0.655  0.4520  0.6239 -1.2965
  850MOL0     H17262   4.180   3.697   0.844 -1.9462 -0.7822  2.3748
  850MOL0     H17263   4.275   3.913   0.783 -0.6184 -0.5787  1.3259
  850MOL0     H17264   4.219   4.176   0.890 -2.4372  0.8183  1.4810
  850MOL0     H17265   4.286   4.266   0.759  0.0540  1.5745  0.5477
  850MOL0     H17266   4.012   4.272   0.885 -0.3619 -1.0297 -0.8283
  850MOL0     H17267   4.128   4.406   0.890 -1.1411 -0.3995  0.0036
  850MOL0     H17268   3.961   4.320   0.660  1.1530 -1.6381 -0.0234
  850MOL0     H17269   4.110   4.428   0.654  0.7626  0.1711  3.1632
  850MOL0     H17270   4.013   4.593   0.792  1.3403 -1.7396  1.0410
  850MOL0     H17271   3.869   4.499   0.817  1.1536  2.7572  1.3362
  850MOL0     H17272   3.861   4.689   0.655  1.4823  1.1649 -1.1911
  850MOL0     H17273   3.982   4.621   0.550  1.2543 -0.1194  1.1294
  850MOL0     H17274   3.739   4.442   0.603 -0.0046 -0.4180 -0.1320
  850MOL0     H17275   3.874   4.439   0.482  1.0613  1.6106 -1.3139
  850MOL0     H17276   3.703   4.689   0.486  1.3424  1.0377 -0.6468
  850MOL0     H17277   3.615   4.546   0.437  0.5281  0.7215 -3.2403
  850MOL0     H17278   3.879   4.620   0.302 -0.3405 -1.2398  0.4120
  850MOL0     H17279   3.721   4.649   0.223  0.5508  0.1507 -1.2948
  850MOL0     H17280   3.885   4.079   0.766 -1.9412 -1.2060 -2.2652
  850MOL0     H17281   3.797   3.838   0.842 -0.4534  0.2290 -0.0032
  850MOL0     H17282   3.852   3.512   1.062  1.4512 -0.7490 -0.2603
  850MOL0     H17283   3.761   3.331   1.183  0.2004  4.3663  0.3343
  850MOL0     H17284   2.077   2.733   1.693  0.0967  0.3848 -0.7503
  850MOL0     H17285   1.848   2.722   1.611  1.6083 -0.2693  0.0956
  850MOL0     H17286   1.358   2.807   1.811 -2.4710  2.5887  2.5512
  850MOL0     H17287   1.147   2.765   1.690 -2.7627  0.9771 -3.4503
  850MOL0     H17288   1.066   2.987   1.320  0.5329  0.3409  1.4275
  850MOL0     H17289   1.164   2.845   1.259 -0.7105 -1.8864 -0.4359
  850MOL0     H17290   0.956   2.705   1.232 -0.3743  0.4733 -0.1704
  850MOL0     H17291   0.939   2.867   1.161 -2.3604  2.0621  1.0079
  850MOL0     H17292   0.828   2.783   1.427  0.7290 -1.7283 -1.5261
  850MOL0     H17293   0.825   2.951   1.365 -0.4805  0.2255  1.8018
  850MOL0     H17294   0.614   2.832   1.340 -0.6564  0.4228 -0.2306
  850MOL0     H17295   0.682   2.707   1.255 -2.2428 -0.0045  3.0569
  850MOL0     H17296   0.651   2.947   0.919  2.6446  1.9894  0.4777
  850MOL0     H17297   1.281   2.991   1.362 -1.4842 -1.3701  0.0063
  850MOL0     H17298   1.462   3.141   1.380 -2.6476 -0.7042  1.8541
  850MOL0     H17299   1.557   3.133   1.521 -2.3840  2.8854  0.5909
  850MOL0     H17300   1.595   3.013   1.390  0.4357  0.1997  1.0576
  851MOL0     O17301   2.965   9.067  10.691 -0.2708  0.0845 -0.3411
  851MOL0     C17302   2.939   9.077  10.807  1.6362 -0.7596 -0.7878
  851MOL0     O17303   3.027   9.114  10.904  0.5261  0.5770 -0.9284
  851MOL0     C17304   3.162   9.105  10.874  0.0497  0.3654 -0.5840
  851MOL0     C17305   3.222   8.997  10.812  0.0994  0.0367  0.2536
  851MOL0     C17306   3.360   8.992  10.779  0.3661  0.3818 -0.1156
  851MOL0     C17307   3.437   9.100  10.799 -0.1618  0.7188 -0.1029
  851MOL0     O17308   3.576   9.108  10.786  0.5693  0.0335  0.6934
  851MOL0     C17309   3.647   8.996  10.741 -0.6476 -0.1479 -0.3923
  851MOL0     C17310   3.782   9.052  10.705  0.1428 -0.1967  0.9173
  851MOL0     C17311   3.883   8.946  10.681  0.5880 -0.4191 -0.5753
  851MOL0     C17312   4.019   9.006  10.626  0.5026  0.5326  0.8569
  851MOL0     C17313   4.136   8.898  10.617 -0.5016 -0.5700  0.6385
  851MOL0     C17314   4.194   8.854  10.749  1.0511 -0.4869 -0.4036
  851MOL0     C17315   4.333   8.784  10.732  0.5462  0.4298  0.3982
  851MOL0     C17316   4.458   8.865  10.684  0.5281 -0.0527 -0.5041
  851MOL0     N17317   4.590   8.787  10.699  0.5361 -0.1089  0.3894
  851MOL0     C17318   4.692   8.827  10.781  0.4109  0.0688 -1.3210
  851MOL0     C17319   4.800   8.760  10.743 -0.6647 -0.2817 -0.1653
  851MOL0     C17320   4.927   8.735  10.825  0.3481 -0.2786  1.2733
  851MOL0     C17321   5.031   8.655  10.750  0.2878 -0.3222 -0.6075
  851MOL0     C17322   5.103   8.720  10.634 -0.0236  0.6596 -0.6266
  851MOL0     C17323   5.197   8.834  10.663 -0.7036  0.1271 -0.0613
  851MOL0     O17324   5.275   8.817  10.784 -0.4882  0.0941  0.2065
  851MOL0     C17325   5.366   8.718  10.803  1.2630  0.6177  0.1367
  851MOL0     C17326   5.387   8.692  10.935 -0.0969  0.0302 -0.7997
  851MOL0     C17327   5.471   8.590  10.977  0.0641  0.5748 -0.5474
  851MOL0     C17328   5.496   8.577  11.129  0.3351  1.0435  0.1684
  851MOL0     C17329   5.536   8.520  10.879  0.0452 -1.2102  0.2206
  851MOL0     C17330   5.639   8.415  10.902  0.3331  0.2211  0.1185
  851MOL0     O17331   5.737   8.397  10.813  0.0497 -0.4357  0.4919
  851MOL0     C17332   5.847   8.318  10.828  0.7409 -0.4210  0.5850
  851MOL0     C17333   5.912   8.294  10.947 -0.4904  0.2158  0.3412
  851MOL0     C17334   6.040   8.225  10.959  0.7942  0.6042  0.6059
  851MOL0     C17335   6.105   8.181  10.846 -0.1523 -0.0424  0.4883
  851MOL0     O17336   6.226   8.103  10.844  0.3582  0.2472 -0.6470
  851MOL0     C17337   6.253   8.027  10.966  0.1672 -0.3069 -0.1170
  851MOL0     C17338   6.376   7.942  10.954  0.6750 -0.2279  0.2581
  851MOL0     C17339   6.501   8.031  10.932 -0.9434  0.8196  0.0432
  851MOL0     C17340   6.593   8.007  11.058 -0.3108 -0.7971 -0.7158
  851MOL0     C17341   6.716   8.096  11.065 -0.5192 -0.4530 -0.0156
  851MOL0     C17342   6.810   8.065  11.177  0.6185  0.1950  0.2258
  851MOL0     C17343   6.892   8.180  11.224 -0.6118 -0.6205 -0.0252
  851MOL0     C17344   6.970   8.128  11.346  0.2076  0.3441  0.1099
  851MOL0    Cl17345   7.067   8.254  11.412  0.3492 -0.2681 -0.4241
  851MOL0     C17346   6.032   8.200  10.731  0.8099  0.0328  0.0560
  851MOL0     C17347   5.912   8.269  10.713 -0.2458  0.1618 -0.1923
  851MOL0     O17348   5.613   8.346  10.996 -0.4345  0.3648 -0.1468
  851MOL0     C17349   5.512   8.549  10.750 -0.5236 -0.1784  0.5802
  851MOL0     C17350   5.435   8.649  10.707  0.4540 -0.1569  0.3286
  851MOL0     N17351   4.777   8.690  10.629 -0.9258 -0.1475  0.0686
  851MOL0     N17352   4.650   8.708  10.600 -0.2947  0.3119 -0.1825
  851MOL0     C17353   3.386   9.213  10.852  1.0920  0.2745 -0.1422
  851MOL0     C17354   3.249   9.215  10.901  0.6100  0.0152  0.4341
  851MOL0     C17355   2.797   9.087  10.855 -0.0025  0.0935  0.0144
  851MOL0     C17356   2.773   9.181  10.962 -0.2187  0.6636  0.2683
  851MOL0     C17357   2.640   9.212  11.001 -0.8832 -0.5941  0.3156
  851MOL0     C17358   2.524   9.161  10.939 -0.5869  0.9223  0.0576
  851MOL0     O17359   2.413   9.210  11.003 -0.8567  0.0539  0.8202
  851MOL0     C17360   2.279   9.152  10.990 -0.0748 -0.2761  0.2580
  851MOL0     C17361   2.250   9.049  11.100  0.0390 -0.0122  1.2738
  851MOL0     C17362   2.107   8.997  11.091  0.7541 -0.5206  0.9960
  851MOL0     C17363   2.107   8.872  11.009 -0.0208  0.5558 -0.7827
  851MOL0     C17364   1.977   8.807  11.001 -0.2470  0.4699 -0.3028
  851MOL0     C17365   1.868   8.753  10.993 -0.1741  0.0744  0.7423
  851MOL0     C17366   2.549   9.059  10.837 -0.6477 -0.0233 -0.2486
  851MOL0     C17367   2.675   9.024  10.799 -0.6372  0.2447 -0.0085
  851MOL0     C17368   2.681   8.914  10.695  0.8050  0.2401 -0.7633
  851MOL0     H17369   3.169   8.904  10.795 -0.5779  0.0828  1.9579
  851MOL0     H17370   3.411   8.905  10.740 -0.1895  0.4617 -1.0344
  851MOL0     H17371   3.605   8.941  10.656  1.4728  0.9197 -2.2507
  851MOL0     H17372   3.643   8.919  10.818 -1.8212 -3.5394 -3.5543
  851MOL0     H17373   3.769   9.120  10.621 -1.5750 -0.5367  0.8749
  851MOL0     H17374   3.819   9.110  10.791 -0.1839 -1.2962  1.8308
  851MOL0     H17375   3.886   8.900  10.780 -2.1898 -1.9349 -1.0867
  851MOL0     H17376   3.844   8.880  10.603 -2.4644  4.8745 -4.1959
  851MOL0     H17377   4.008   9.039  10.522  0.3115 -0.4256  0.5628
  851MOL0     H17378   4.053   9.084  10.695 -1.6230  0.9482  1.5037
  851MOL0     H17379   4.216   8.948  10.560 -0.8123  0.3740  1.0140
  851MOL0     H17380   4.099   8.807  10.569 -2.6314  0.7360 -0.3309
  851MOL0     H17381   4.212   8.945  10.808 -1.6567  0.0968 -0.3455
  851MOL0     H17382   4.128   8.790  10.808  1.1166 -0.9869 -0.8658
  851MOL0     H17383   4.319   8.696  10.668 -2.7631  0.2674  1.1734
  851MOL0     H17384   4.358   8.747  10.831  0.2429  2.7832  1.4163
  851MOL0     H17385   4.448   8.889  10.578 -0.3438 -2.5064 -1.0410
  851MOL0     H17386   4.463   8.953  10.748  2.5985 -1.0561  0.8476
  851MOL0     H17387   4.681   8.895  10.865 -1.9042 -1.3022 -0.4150
  851MOL0     H17388   4.904   8.678  10.916  0.5926  0.1092  1.5826
  851MOL0     H17389   4.980   8.829  10.846  0.7251 -0.3969  0.8584
  851MOL0     H17390   5.108   8.622  10.821 -0.4200  1.0207  0.8603
  851MOL0     H17391   4.972   8.570  10.713 -2.3992  2.0261 -2.1106
  851MOL0     H17392   5.172   8.650  10.587 -0.3058  0.9577 -1.5182
  851MOL0     H17393   5.033   8.749  10.555  2.0024  1.7208 -2.1441
  851MOL0     H17394   5.267   8.842  10.579 -0.1350 -2.5937  0.0818
  851MOL0     H17395   5.148   8.932  10.664  0.3497  0.6595  0.4197
  851MOL0     H17396   5.336   8.754  11.009 -0.5274 -0.7597 -0.4185
  851MOL0     H17397   5.429   8.645  11.182 -0.5209 -2.0796  3.4810
  851MOL0     H17398   5.598   8.604  11.160 -0.1125  2.9437  0.1169
  851MOL0     H17399   5.471   8.480  11.172  1.0147  1.1953  0.9326
  851MOL0     H17400   5.877   8.334  11.041 -0.1850  0.2436  0.4431
  851MOL0     H17401   6.081   8.195  11.055 -2.4225 -1.0942  1.6272
  851MOL0     H17402   6.271   8.078  11.062 -0.7619 -2.7236  1.4247
  851MOL0     H17403   6.176   7.950  10.977  2.2694 -2.5700 -0.3862
  851MOL0     H17404   6.391   7.885  11.046  0.7186  0.1646  0.4958
  851MOL0     H17405   6.363   7.870  10.872  1.7024  0.0581 -0.1815
  851MOL0     H17406   6.480   8.138  10.928 -0.3553  0.9042 -3.3315
  851MOL0     H17407   6.558   7.999  10.845 -1.8092  1.9842 -0.9774
  851MOL0     H17408   6.626   7.903  11.071 -0.0061 -0.7128 -0.8079
  851MOL0     H17409   6.530   8.033  11.143  0.2441 -0.5708 -0.3701
  851MOL0     H17410   6.776   8.091  10.973  0.0140  1.3902  0.1930
  851MOL0     H17411   6.686   8.200  11.080 -2.2112 -0.9050 -0.1355
  851MOL0     H17412   6.871   7.978  11.150 -1.2657 -1.3256  0.7002
  851MOL0     H17413   6.749   8.034  11.262  0.8405  1.3445  0.8294
  851MOL0     H17414   6.829   8.263  11.257 -0.3527 -2.2311  5.5128
  851MOL0     H17415   6.964   8.206  11.146 -0.3132  0.4883  0.5920
  851MOL0     H17416   7.043   8.053  11.314  1.1803  1.0966  0.5218
  851MOL0     H17417   6.899   8.085  11.416 -1.4224 -0.9987 -2.2157
  851MOL0     H17418   6.079   8.169  10.638 -0.2449  2.2167 -1.2752
  851MOL0     H17419   5.877   8.289  10.612  0.8550 -0.8198 -0.7885
  851MOL0     H17420   5.576   8.506  10.673 -0.1154  1.2976  0.0540
  851MOL0     H17421   5.426   8.664  10.600 -1.3356 -2.4923  0.0753
  851MOL0     H17422   3.450   9.300  10.866  0.3529  0.9964 -1.0873
  851MOL0     H17423   3.200   9.302  10.943 -4.7391 -2.0020 -0.7586
  851MOL0     H17424   2.859   9.216  11.019  0.0018  0.7245 -0.0973
  851MOL0     H17425   2.636   9.268  11.095 -1.6768  0.6366 -0.4174
  851MOL0     H17426   2.204   9.232  10.980 -0.5900 -1.0146 -2.7956
  851MOL0     H17427   2.288   9.099  10.895 -1.0144 -2.8553  1.5244
  851MOL0     H17428   2.254   9.097  11.199  0.2583 -1.3472  1.9353
  851MOL0     H17429   2.320   8.967  11.089  2.1984  2.0138 -1.2241
  851MOL0     H17430   2.055   8.981  11.186  0.3446 -2.5990  0.4614
  851MOL0     H17431   2.041   9.066  11.037  1.8680 -0.5471 -0.4760
  851MOL0     H17432   2.185   8.805  11.044 -0.0133  1.0519  0.1817
  851MOL0     H17433   2.136   8.906  10.909 -2.5940  2.0882 -1.1025
  851MOL0     H17434   1.770   8.713  11.007  0.7035 -2.8842 -0.5669
  851MOL0     H17435   2.453   9.029  10.794 -0.7593  0.1212 -0.1020
  851MOL0     H17436   2.665   8.947  10.593  0.4599 -0.1108 -0.8295
  851MOL0     H17437   2.777   8.862  10.702 -0.7871 -2.7305  1.7632
  851MOL0     H17438   2.612   8.833  10.723  0.3719  1.0265  0.5498
  852MOL0     O17439   4.741   3.264   6.445 -0.8258 -0.0724  0.4181
  852MOL0     C17440   4.671   3.319   6.358  0.1516  0.0924  0.1624
  852MOL0     O17441   4.698   3.315   6.220 -0.0570 -0.0088 -0.3548
  852MOL0     C17442   4.794   3.227   6.185  0.1882 -0.0721  0.1349
  852MOL0     C17443   4.933   3.259   6.199  0.0533 -0.6856  0.0225
  852MOL0     C17444   5.023   3.172   6.139  0.5981 -0.3269 -0.1878
  852MOL0     C17445   4.983   3.057   6.069  0.0159  0.7890 -0.2191
  852MOL0     O17446   5.075   2.968   6.019  0.4230  0.8681 -0.3061
  852MOL0     C17447   5.130   2.875   6.125  0.5550  0.1947  0.1752
  852MOL0     C17448   5.205   2.756   6.057  0.2523 -0.7019 -0.3243
  852MOL0     C17449   5.320   2.807   5.970  0.3131  0.2803  0.1998
  852MOL0     C17450   5.411   2.914   6.037 -0.3724 -0.1302  0.3656
  852MOL0     C17451   5.513   2.986   5.937  0.5735 -0.4143  0.3305
  852MOL0     C17452   5.635   3.041   6.005  0.7667  1.5049  0.1617
  852MOL0     C17453   5.723   2.923   6.059 -0.0931 -0.1668 -0.5204
  852MOL0     C17454   5.864   2.969   6.111 -0.9075  0.1405 -0.5684
  852MOL0     N17455   5.939   3.033   6.005  0.3755  0.4420 -0.1964
  852MOL0     C17456   6.011   2.963   5.914  0.0833 -0.0166  0.6077
  852MOL0     C17457   6.098   3.052   5.863 -0.0598  0.0142 -0.3217
  852MOL0     C17458   6.209   3.034   5.762  0.1041 -0.1130  0.7486
  852MOL0     C17459   6.334   3.121   5.794  0.2985 -0.0205 -0.4650
  852MOL0     C17460   6.450   3.079   5.705 -0.3797 -0.8987  0.2197
  852MOL0     C17461   6.579   3.167   5.727  0.9548  0.5047 -0.2406
  852MOL0     O17462   6.658   3.132   5.615 -0.3077  0.8087 -0.7128
  852MOL0     C17463   6.784   3.191   5.603  0.3284  0.7430 -0.8662
  852MOL0     C17464   6.856   3.146   5.503 -0.7313 -0.2116 -0.5419
  852MOL0     C17465   6.988   3.192   5.466  0.6772  1.1660  1.1161
  852MOL0     C17466   7.036   3.132   5.339 -1.0475 -0.5080 -0.2800
  852MOL0     C17467   7.051   3.274   5.552 -0.3239 -0.2255  0.6752
  852MOL0     C17468   7.196   3.325   5.539 -0.7693  0.6620  0.6344
  852MOL0     O17469   7.240   3.404   5.633  0.1525  0.1270 -0.3499
  852MOL0     C17470   7.358   3.461   5.612 -0.2734 -0.6211 -0.8949
  852MOL0     C17471   7.363   3.558   5.515 -0.1144 -0.5443  0.3931
  852MOL0     C17472   7.484   3.625   5.493  0.2554 -0.3836 -0.8392
  852MOL0     C17473   7.608   3.576   5.562 -0.3161 -0.7793 -0.5433
  852MOL0     O17474   7.721   3.647   5.553  0.3692 -0.2009  0.1813
  852MOL0     C17475   7.774   3.660   5.425 -0.5809 -0.3891  0.7698
  852MOL0     C17476   7.894   3.568   5.404  0.9725  0.4212  0.0689
  852MOL0     C17477   7.997   3.604   5.300 -0.4010 -0.0572  0.3842
  852MOL0     C17478   8.119   3.503   5.296  0.0757  0.4268 -0.3876
  852MOL0     C17479   8.193   3.507   5.170 -0.3423  0.1455  0.3148
  852MOL0     C17480   8.297   3.621   5.175  0.8284  0.3212 -0.8360
  852MOL0     C17481   8.412   3.620   5.260  0.0681  0.5104  0.2275
  852MOL0     C17482   8.529   3.705   5.223  0.1583 -0.8843  0.7207
  852MOL0    Cl17483   8.486   3.870   5.183 -0.1598  0.2764  0.6084
  852MOL0     C17484   7.586   3.486   5.665 -0.7708  0.6249  0.0863
  852MOL0     C17485   7.462   3.422   5.693  0.2189 -1.0753 -0.1482
  852MOL0     O17486   7.258   3.279   5.438  0.0388 -0.8091  0.2974
  852MOL0     C17487   6.979   3.323   5.661  0.0546 -0.5391 -0.5397
  852MOL0     C17488   6.847   3.285   5.688 -0.6786  0.1847  0.7295
  852MOL0     N17489   6.059   3.177   5.906 -0.2802 -0.4160 -0.6223
  852MOL0     N17490   5.964   3.164   5.995  0.1270 -0.4237  0.0039
  852MOL0     C17491   4.845   3.028   6.061 -0.8963  0.3018  0.1908
  852MOL0     C17492   4.751   3.116   6.118 -0.0134 -0.4920 -0.9445
  852MOL0     C17493   4.551   3.400   6.393 -0.8239 -0.1124 -0.5797
  852MOL0     C17494   4.558   3.465   6.517 -0.6702 -0.0079 -0.0683
  852MOL0     C17495   4.465   3.556   6.550  0.1022 -0.6121 -0.3860
  852MOL0     C17496   4.349   3.577   6.479  0.5728 -0.7673  0.1384
  852MOL0     O17497   4.272   3.674   6.540  0.3002  0.0734  0.2715
  852MOL0     C17498   4.153   3.703   6.460 -1.1261  0.4282 -0.6489
  852MOL0     C17499   4.087   3.829   6.526 -0.2699  0.3804 -0.3759
  852MOL0     C17500   4.038   3.791   6.673  0.5963 -0.2494  0.7776
  852MOL0     C17501   3.970   3.917   6.739  0.3097  0.1558  0.0802
  852MOL0     C17502   3.898   3.878   6.868 -0.6810 -0.2808  0.5206
  852MOL0     C17503   3.855   3.840   6.977  0.0410 -0.2788  0.6373
  852MOL0     C17504   4.334   3.508   6.353  0.2647  0.5231  0.0229
  852MOL0     C17505   4.436   3.427   6.309  0.0651 -0.0877 -0.6865
  852MOL0     C17506   4.412   3.365   6.172 -0.5221  0.1629  0.5126
  852MOL0     H17507   4.976   3.348   6.244 -0.7715  0.1541 -0.7981
  852MOL0     H17508   5.130   3.193   6.136  0.5138  0.0328 -0.5659
  852MOL0     H17509   5.045   2.834   6.180  0.7592  0.3738  0.6275
  852MOL0     H17510   5.189   2.940   6.190  0.7181 -0.3958  0.6279
  852MOL0     H17511   5.249   2.706   6.144 -0.4234 -1.8170 -0.5981
  852MOL0     H17512   5.135   2.692   6.002 -0.6492  0.4352 -0.5364
  852MOL0     H17513   5.387   2.725   5.942  1.2023  1.2712 -0.6557
  852MOL0     H17514   5.274   2.862   5.887  1.0383  0.0286 -0.3801
  852MOL0     H17515   5.353   2.989   6.091  0.8826  1.4660 -0.4367
  852MOL0     H17516   5.466   2.860   6.115  1.1001 -1.8742 -1.7715
  852MOL0     H17517   5.468   3.063   5.873  1.5566 -1.5292 -1.8239
  852MOL0     H17518   5.574   2.918   5.876  5.1618  2.6758  0.9849
  852MOL0     H17519   5.687   3.102   5.931  0.4983 -0.0275 -1.3744
  852MOL0     H17520   5.596   3.105   6.084  1.0491  0.1537  1.4516
  852MOL0     H17521   5.739   2.862   5.969  1.2570 -1.0595  0.2904
  852MOL0     H17522   5.677   2.848   6.124 -1.0552 -0.1515 -1.1663
  852MOL0     H17523   5.847   3.044   6.190  0.4902 -1.3794  1.2886
  852MOL0     H17524   5.922   2.891   6.162 -1.4565 -1.6963 -2.6223
  852MOL0     H17525   6.011   2.855   5.903 -0.0191 -0.0314  0.7421
  852MOL0     H17526   6.169   3.044   5.661  1.8078 -2.3106 -0.2223
  852MOL0     H17527   6.230   2.927   5.770 -0.0616 -0.0860  1.5904
  852MOL0     H17528   6.294   3.223   5.790  1.3472  0.3724 -1.1554
  852MOL0     H17529   6.359   3.098   5.898  0.9622  4.2408  0.5303
  852MOL0     H17530   6.477   2.975   5.727 -0.5471 -1.8107 -3.4043
  852MOL0     H17531   6.431   3.078   5.598  0.3693 -0.4298  0.0781
  852MOL0     H17532   6.563   3.275   5.731  1.5727  0.9312 -4.5289
  852MOL0     H17533   6.628   3.137   5.820  0.7391 -1.9263 -0.8234
  852MOL0     H17534   6.799   3.076   5.443 -0.8468 -1.3337  0.8226
  852MOL0     H17535   7.111   3.057   5.363  0.1280  0.3726 -1.0776
  852MOL0     H17536   7.082   3.202   5.268  1.5536  0.1036  1.8504
  852MOL0     H17537   6.954   3.081   5.287 -0.4425 -0.7576 -1.0025
  852MOL0     H17538   7.273   3.588   5.463  1.1920  0.7985 -1.2193
  852MOL0     H17539   7.487   3.703   5.418  2.9186 -0.1134 -0.5188
  852MOL0     H17540   7.699   3.642   5.347 -1.6216  1.6663  1.2080
  852MOL0     H17541   7.805   3.764   5.409 -0.6690 -0.0362  2.6627
  852MOL0     H17542   7.951   3.574   5.497 -0.1707 -0.5068  0.8708
  852MOL0     H17543   7.852   3.468   5.383  0.4556  0.8593 -1.0717
  852MOL0     H17544   8.039   3.703   5.318 -0.4613  0.3301 -1.4249
  852MOL0     H17545   7.948   3.622   5.204  2.2112  0.7095 -0.9071
  852MOL0     H17546   8.088   3.399   5.310 -0.8496  0.8536  1.0247
  852MOL0     H17547   8.193   3.519   5.375 -1.8877  0.5617  1.5322
  852MOL0     H17548   8.257   3.420   5.158  4.2583  3.1736  0.4746
  852MOL0     H17549   8.116   3.515   5.093  1.3617  2.4147 -1.2867
  852MOL0     H17550   8.247   3.715   5.199 -1.6656 -0.8298 -1.2191
  852MOL0     H17551   8.331   3.638   5.072  0.0711  2.1451 -0.8273
  852MOL0     H17552   8.442   3.516   5.279 -1.0567  0.5219  2.5108
  852MOL0     H17553   8.378   3.658   5.357  0.0163 -1.3849  0.9858
  852MOL0     H17554   8.575   3.661   5.134  3.5184 -0.6930  2.2329
  852MOL0     H17555   8.607   3.695   5.299  0.2405  0.2037  0.7944
  852MOL0     H17556   7.666   3.450   5.728  1.5578  2.0311 -1.9065
  852MOL0     H17557   7.448   3.337   5.759  0.5374 -1.0861 -0.0940
  852MOL0     H17558   7.027   3.394   5.727  1.3842 -2.9953  1.3026
  852MOL0     H17559   6.792   3.330   5.771  0.6773  2.0617  0.6629
  852MOL0     H17560   4.799   2.943   6.011 -2.5414  1.0606  0.3520
  852MOL0     H17561   4.643   3.110   6.114 -0.0530 -3.8982  1.2514
  852MOL0     H17562   4.649   3.445   6.572 -0.6417  0.7191  0.1678
  852MOL0     H17563   4.486   3.610   6.642  0.2639  0.2919 -0.9333
  852MOL0     H17564   4.176   3.713   6.354  1.2891 -2.0894 -0.4527
  852MOL0     H17565   4.085   3.617   6.463 -0.4604 -0.1931 -2.3343
  852MOL0     H17566   3.996   3.849   6.469  0.5206 -1.2021 -2.3116
  852MOL0     H17567   4.156   3.913   6.527  1.0272 -0.6619  0.7134
  852MOL0     H17568   3.965   3.709   6.666 -1.8841  1.8184  0.8029
  852MOL0     H17569   4.113   3.744   6.738  2.1616  0.5056 -0.4134
  852MOL0     H17570   3.918   3.974   6.661  3.0210 -0.7756 -2.6132
  852MOL0     H17571   4.040   3.988   6.785  0.1890 -0.0870  0.6452
  852MOL0     H17572   3.806   3.817   7.070  1.2570  0.6704  1.5436
  852MOL0     H17573   4.245   3.523   6.293 -0.8925 -2.4173  0.8425
  852MOL0     H17574   4.468   3.419   6.095  0.9392 -2.5634 -0.5222
  852MOL0     H17575   4.441   3.259   6.175 -0.5885  0.1518  0.7532
  852MOL0     H17576   4.307   3.380   6.148 -0.1089 -1.2526 -2.8005
  853MOL0     O17577   2.777   0.386  10.318  0.0246 -0.2750 -0.9989
  853MOL0     C17578   2.676   0.462  10.336 -0.2712 -0.0059 -0.0597
  853MOL0     O17579   2.681   0.581  10.387 -0.5872 -0.6742 -0.0686
  853MOL0     C17580   2.797   0.606  10.459  0.1885 -0.8142 -0.0053
  853MOL0     C17581   2.901   0.686  10.400  0.0791  0.5621  0.3939
  853MOL0     C17582   3.015   0.718  10.478  0.6303  0.4031  1.1203
  853MOL0     C17583   3.020   0.665  10.606  0.0460  0.1831 -1.0907
  853MOL0     O17584   3.137   0.697  10.665 -0.1502 -0.5007  0.2333
  853MOL0     C17585   3.213   0.587  10.723  0.6294  0.4459 -0.9079
  853MOL0     C17586   3.261   0.614  10.865  0.6878  0.4973  0.6139
  853MOL0     C17587   3.327   0.485  10.923  0.5991  0.1195 -0.2608
  853MOL0     C17588   3.388   0.495  11.060 -0.0662 -0.2240 -0.0465
  853MOL0     C17589   3.447   0.363  11.105  0.7697  0.5777  0.3162
  853MOL0     C17590   3.530   0.392  11.238  0.3200  0.5145 -0.3415
  853MOL0     C17591   3.630   0.279  11.290  0.6886 -1.3052  0.3067
  853MOL0     C17592   3.559   0.146  11.322  1.0256  0.3675 -0.9684
  853MOL0     N17593   3.656   0.039  11.345 -0.2563 -0.0843  0.0651
  853MOL0     C17594   3.713  -0.018  11.236  0.6967  0.8708  0.7273
  853MOL0     C17595   3.827  -0.070  11.273 -0.3213 -1.0258 -0.5120
  853MOL0     C17596   3.936  -0.138  11.190  0.8873  0.1111 -0.2023
  853MOL0     C17597   3.979  -0.274  11.246  0.0283  1.0808  0.5326
  853MOL0     C17598   4.085  -0.268  11.349 -0.9103 -0.9436 -0.2340
  853MOL0     C17599   4.227  -0.257  11.287 -0.0127  0.0165  1.0914
  853MOL0     O17600   4.324  -0.220  11.383  0.3341 -0.4741  0.7215
  853MOL0     C17601   4.449  -0.182  11.333 -0.4258  0.1738  0.0894
  853MOL0     C17602   4.493  -0.203  11.201  0.4629  0.5433 -0.0470
  853MOL0     C17603   4.630  -0.180  11.165 -0.1648 -0.0314  0.0957
  853MOL0     C17604   4.664  -0.219  11.024  0.6067  0.2893  0.1619
  853MOL0     C17605   4.726  -0.126  11.256  0.9456 -0.2595 -0.1095
  853MOL0     C17606   4.863  -0.077  11.218  0.3283 -0.1023 -0.5275
  853MOL0     O17607   4.922  -0.008  11.316 -0.3464  0.9195 -1.2004
  853MOL0     C17608   5.035   0.062  11.280  0.6137  0.4178 -0.0200
  853MOL0     C17609   5.035   0.144  11.166 -0.0100  0.0557  0.6539
  853MOL0     C17610   5.154   0.204  11.127 -0.2888  0.8936 -0.5459
  853MOL0     C17611   5.271   0.189  11.205  0.1553  0.3434 -0.9840
  853MOL0     O17612   5.382   0.242  11.151  0.6791  0.1803  0.3062
  853MOL0     C17613   5.512   0.203  11.190 -0.8443 -0.1779  0.1080
  853MOL0     C17614   5.594   0.318  11.131 -0.8624 -0.1965  0.4360
  853MOL0     C17615   5.633   0.403  11.255  0.9169  0.4350 -0.9612
  853MOL0     C17616   5.682   0.543  11.220 -0.3771 -0.2294  0.3270
  853MOL0     C17617   5.715   0.619  11.348 -0.6432 -0.2876  0.1166
  853MOL0     C17618   5.807   0.733  11.301 -0.0195 -0.1605  0.1736
  853MOL0     C17619   5.866   0.812  11.424 -0.3093 -0.1350 -0.3188
  853MOL0     C17620   5.981   0.908  11.384 -1.1669  0.7215 -0.6716
  853MOL0    Cl17621   5.938   1.039  11.271 -0.2319  0.7202 -0.4559
  853MOL0     C17622   5.265   0.117  11.327 -0.1068  0.3511 -0.8937
  853MOL0     C17623   5.148   0.053  11.364  1.2088 -0.2367  0.2655
  853MOL0     O17624   4.915  -0.112  11.116 -0.3490 -0.0330 -0.4839
  853MOL0     C17625   4.680  -0.101  11.386 -0.3943  0.1638  0.2436
  853MOL0     C17626   4.539  -0.120  11.419 -0.4517  0.8603 -0.2865
  853MOL0     N17627   3.840  -0.048  11.411 -0.3475  0.3659 -0.1503
  853MOL0     N17628   3.739   0.022  11.447  0.5201  0.5681  0.4367
  853MOL0     C17629   2.923   0.583  10.666 -0.0416  0.5294  0.6545
  853MOL0     C17630   2.811   0.567  10.592  0.0461 -1.1205  0.3297
  853MOL0     C17631   2.544   0.409  10.290 -0.1273  0.1613  0.0564
  853MOL0     C17632   2.452   0.503  10.267  0.7362  0.1042 -0.0820
  853MOL0     C17633   2.327   0.467  10.215 -0.5237 -0.7695 -0.9911
  853MOL0     C17634   2.293   0.333  10.188  0.1077 -0.6523 -0.2643
  853MOL0     O17635   2.160   0.320  10.146 -0.1130 -0.7658  0.1194
  853MOL0     C17636   2.120   0.190  10.125 -0.5344  0.2975  0.5770
  853MOL0     C17637   1.993   0.180  10.045 -0.6953 -0.3173 -0.9658
  853MOL0     C17638   1.883   0.248  10.126  0.6272  0.3810  0.7818
  853MOL0     C17639   1.753   0.250  10.041  0.0924 -0.1622 -0.1428
  853MOL0     C17640   1.744   0.377   9.967  0.3099  0.0772 -0.2185
  853MOL0     C17641   1.703   0.464   9.892 -0.7951 -0.3643 -0.2873
  853MOL0     C17642   2.387   0.237  10.226 -0.1298  0.1393 -0.0475
  853MOL0     C17643   2.509   0.276  10.283  0.2956 -0.3994 -0.9460
  853MOL0     C17644   2.607   0.162  10.310  0.4762  0.1928  0.0361
  853MOL0     H17645   2.887   0.716  10.297 -0.9117 -0.8985  0.0841
  853MOL0     H17646   3.085   0.790  10.438  0.7951  0.3750  1.3571
  853MOL0     H17647   3.294   0.557  10.656  2.3916 -2.3057  2.1531
  853MOL0     H17648   3.138   0.508  10.733 -1.0287  2.0896  0.2787
  853MOL0     H17649   3.328   0.700  10.864 -0.6408  1.6181 -1.5923
  853MOL0     H17650   3.168   0.633  10.920  0.4352  0.1043  0.3286
  853MOL0     H17651   3.260   0.399  10.925  1.3911 -0.5246 -0.7987
  853MOL0     H17652   3.404   0.447  10.856 -0.4403  0.0587 -1.4617
  853MOL0     H17653   3.469   0.568  11.063 -0.1082 -0.1879  0.2875
  853MOL0     H17654   3.321   0.531  11.138  0.5497  0.0555  0.3580
  853MOL0     H17655   3.508   0.302  11.038  1.5753  0.1680  1.3827
  853MOL0     H17656   3.362   0.300  11.134  1.3986 -1.1071 -1.3343
  853MOL0     H17657   3.589   0.481  11.217  1.9882  0.0701  2.0623
  853MOL0     H17658   3.453   0.412  11.314  1.4172  1.5066  0.5539
  853MOL0     H17659   3.676   0.309  11.384 -0.3902 -1.5715  0.9288
  853MOL0     H17660   3.716   0.275  11.222  0.5329 -0.9036  0.0840
  853MOL0     H17661   3.480   0.160  11.396  0.6807  0.0786 -1.2718
  853MOL0     H17662   3.501   0.120  11.232 -0.6735 -0.5416  0.3388
  853MOL0     H17663   3.669  -0.016  11.137 -3.6708  0.6494  2.4641
  853MOL0     H17664   4.019  -0.067  11.184  1.8952 -0.9220  0.9034
  853MOL0     H17665   3.903  -0.146  11.086 -0.2529  0.4381  0.1190
  853MOL0     H17666   3.895  -0.335  11.281  1.4717 -1.0407  0.5039
  853MOL0     H17667   4.019  -0.341  11.169  0.8395  1.7581  0.3533
  853MOL0     H17668   4.045  -0.191  11.416 -2.5432  0.9570 -3.1810
  853MOL0     H17669   4.086  -0.363  11.404  0.1262 -2.3083 -2.4810
  853MOL0     H17670   4.253  -0.357  11.251  2.2976  1.2687 -0.9849
  853MOL0     H17671   4.226  -0.190  11.200 -2.0002  1.1456  1.9207
  853MOL0     H17672   4.432  -0.237  11.118  1.8988  1.7716 -1.6923
  853MOL0     H17673   4.750  -0.286  11.017 -0.0609 -0.5877  0.1872
  853MOL0     H17674   4.690  -0.132  10.963  0.0035  0.4293  0.0980
  853MOL0     H17675   4.579  -0.269  10.977 -0.0852 -0.2474  1.8968
  853MOL0     H17676   4.951   0.153  11.097  0.9288  1.7702 -0.3328
  853MOL0     H17677   5.147   0.261  11.034 -0.1889  1.3185 -0.2984
  853MOL0     H17678   5.520   0.194  11.299 -1.2415  1.2817  0.2778
  853MOL0     H17679   5.546   0.108  11.150  0.8921  1.3593 -2.3646
  853MOL0     H17680   5.685   0.281  11.083 -1.4141  0.8648 -1.5584
  853MOL0     H17681   5.544   0.378  11.054  2.8170 -0.7777 -2.7015
  853MOL0     H17682   5.710   0.351  11.312 -0.2029 -0.4061 -0.1526
  853MOL0     H17683   5.551   0.421  11.326  2.2143 -1.5680  1.1909
  853MOL0     H17684   5.603   0.590  11.160 -2.4137  0.7486  3.5675
  853MOL0     H17685   5.766   0.522  11.153 -1.5192 -1.5818 -0.7497
  853MOL0     H17686   5.629   0.655  11.404 -2.0070 -2.1113 -0.7210
  853MOL0     H17687   5.777   0.549  11.405 -1.2270 -0.0009  1.1139
  853MOL0     H17688   5.744   0.808  11.252 -0.3337  0.3102  1.2774
  853MOL0     H17689   5.885   0.698  11.232  0.2090  2.5650 -1.1180
  853MOL0     H17690   5.896   0.749  11.508 -0.3903  0.7486  0.3954
  853MOL0     H17691   5.787   0.878  11.461  2.2725  2.7360  0.4552
  853MOL0     H17692   6.066   0.852  11.344 -0.1905  1.5104  0.2579
  853MOL0     H17693   6.027   0.954  11.472  2.5649 -2.4592 -0.7069
  853MOL0     H17694   5.346   0.093  11.395  0.6135 -0.2429 -1.9216
  853MOL0     H17695   5.146  -0.001  11.459  1.8671  0.8124  0.8967
  853MOL0     H17696   4.740  -0.070  11.471  0.5007  0.8545 -0.6056
  853MOL0     H17697   4.499  -0.132  11.519 -1.1809  0.4612 -0.6221
  853MOL0     H17698   2.918   0.529  10.760  2.1473  0.3401  0.7131
  853MOL0     H17699   2.730   0.516  10.643 -1.3328 -1.8411 -2.3587
  853MOL0     H17700   2.470   0.606  10.296 -1.4325 -0.1654  2.6187
  853MOL0     H17701   2.257   0.545  10.185  0.5001  0.0710 -1.2494
  853MOL0     H17702   2.191   0.127  10.069 -0.1239 -2.3131  3.7533
  853MOL0     H17703   2.110   0.135  10.219 -0.0276  0.4096  0.7028
  853MOL0     H17704   1.961   0.076  10.029  0.1065 -0.9188  1.0391
  853MOL0     H17705   2.016   0.218   9.945 -1.6968 -0.3882 -1.2299
  853MOL0     H17706   1.856   0.197  10.218  0.7855 -1.8392 -0.3356
  853MOL0     H17707   1.909   0.351  10.154 -0.0126  0.2280  1.9707
  853MOL0     H17708   1.665   0.251  10.106 -0.4450 -0.2720 -0.8639
  853MOL0     H17709   1.754   0.166   9.972 -0.3145  0.2396 -0.6457
  853MOL0     H17710   1.700   0.549   9.828  0.4713 -0.3158 -0.3217
  853MOL0     H17711   2.359   0.135  10.204 -0.2926  0.6582 -2.6897
  853MOL0     H17712   2.703   0.170  10.259 -0.0287  2.0480 -0.7333
  853MOL0     H17713   2.627   0.153  10.417 -0.9239  3.1391  0.6636
  853MOL0     H17714   2.558   0.069  10.280  0.0468  1.0716 -2.1371
  854MOL0     O17715  10.914   3.146  10.979  0.0963 -0.0241 -0.9402
  854MOL0     C17716  10.905   3.126  10.862 -0.4922 -0.6638  0.1888
  854MOL0     O17717  11.007   3.095  10.778 -0.0412  0.0829  1.1187
  854MOL0     C17718  11.138   3.082  10.816  0.7964 -0.1497  0.4918
  854MOL0     C17719  11.188   3.079  10.952  0.7324  0.0247 -0.0383
  854MOL0     C17720  11.322   3.062  10.977 -0.8762  0.4219  1.0123
  854MOL0     C17721  11.410   3.044  10.871  0.3889 -0.2782  0.0751
  854MOL0     O17722  11.540   3.046  10.911 -0.6271 -0.4761  0.2464
  854MOL0     C17723  11.633   3.056  10.803  0.4873 -1.0334 -0.5275
  854MOL0     C17724  11.764   3.013  10.855  0.6656 -0.2896  0.6105
  854MOL0     C17725  11.769   2.860  10.882 -0.3596 -0.8905 -0.2321
  854MOL0     C17726  11.907   2.814  10.928  0.4134 -1.1168  0.0358
  854MOL0     C17727  11.905   2.662  10.935 -0.5056 -0.0628 -0.1287
  854MOL0     C17728  12.040   2.595  10.980  0.9525 -0.1673  0.2061
  854MOL0     C17729  12.012   2.453  11.024  0.4751 -0.0025 -0.3083
  854MOL0     C17730  12.144   2.398  11.082  0.0961  0.4985  0.6960
  854MOL0     N17731  12.188   2.452  11.208  0.1228 -1.1469  0.1610
  854MOL0     C17732  12.288   2.389  11.270 -0.5991 -0.4108 -0.3845
  854MOL0     C17733  12.306   2.456  11.394  0.7117 -0.6937 -0.4381
  854MOL0     C17734  12.415   2.446  11.496 -0.0754  0.5956 -0.2456
  854MOL0     C17735  12.559   2.425  11.440  0.3566 -0.5034  0.4379
  854MOL0     C17736  12.609   2.555  11.375 -0.1083  0.1413 -0.6994
  854MOL0     C17737  12.764   2.566  11.374  0.0883  0.3016 -0.7978
  854MOL0     O17738  12.801   2.581  11.513 -0.6972  0.3489 -0.4917
  854MOL0     C17739  12.935   2.553  11.550 -0.3700 -0.5648  0.5472
  854MOL0     C17740  13.043   2.538  11.459  0.6740 -0.5752 -0.2243
  854MOL0     C17741  13.177   2.523  11.502  0.1120 -0.1300 -0.7950
  854MOL0     C17742  13.286   2.536  11.395 -0.0470  0.4499  0.0956
  854MOL0     C17743  13.200   2.489  11.638  0.1268 -0.9134  0.3920
  854MOL0     C17744  13.331   2.453  11.697 -0.9559 -0.9993 -0.6071
  854MOL0     O17745  13.333   2.469  11.835 -0.8014 -0.0810  0.2419
  854MOL0     C17746  13.431   2.396  11.909  1.1329  0.0673 -0.4959
  854MOL0     C17747  13.567   2.419  11.901  0.8445 -0.8959 -0.4927
  854MOL0     C17748  13.648   2.349  11.993 -0.5605 -0.1885  1.2637
  854MOL0     C17749  13.597   2.255  12.093  0.0525 -0.1318  0.4195
  854MOL0     O17750  13.680   2.187  12.180  0.6544 -0.1758 -0.6164
  854MOL0     C17751  13.639   2.059  12.228 -0.1467 -0.7463  0.0159
  854MOL0     C17752  13.713   2.036  12.368  0.0451  1.0714 -1.0083
  854MOL0     C17753  13.866   2.022  12.358  0.7589  0.0554  0.0895
  854MOL0     C17754  13.937   2.056  12.489 -0.7582  0.2653 -0.0870
  854MOL0     C17755  14.093   2.044  12.486  1.1768 -0.3315  0.0229
  854MOL0     C17756  14.149   2.005  12.621 -0.3422  0.2796 -0.6161
  854MOL0     C17757  14.298   2.036  12.630  0.2673 -0.3144 -0.4605
  854MOL0     C17758  14.349   2.010  12.765 -0.6097  0.1266  0.7529
  854MOL0    Cl17759  14.517   2.040  12.772 -0.5287 -0.4923 -0.2393
  854MOL0     C17760  13.459   2.236  12.097 -0.2012 -0.9221  0.3157
  854MOL0     C17761  13.379   2.302  12.000  0.3093 -0.5351  0.4303
  854MOL0     O17762  13.419   2.418  11.621  0.4596 -0.8287  0.9085
  854MOL0     C17763  13.091   2.506  11.727  0.0898 -0.3489  0.4336
  854MOL0     C17764  12.962   2.548  11.684 -0.8015  0.0824  0.3702
  854MOL0     N17765  12.207   2.552  11.406  0.1635  0.6837 -0.2195
  854MOL0     N17766  12.136   2.549  11.291 -0.4501  0.2069 -0.4947
  854MOL0     C17767  11.365   3.036  10.742  0.3240 -0.1962 -0.3485
  854MOL0     C17768  11.228   3.053  10.709  0.0516  0.3232  0.4420
  854MOL0     C17769  10.769   3.126  10.799 -0.1716  1.3507 -0.2551
  854MOL0     C17770  10.758   3.187  10.674  0.4670  0.3227 -0.1720
  854MOL0     C17771  10.631   3.185  10.598 -0.7745 -0.9251 -0.5091
  854MOL0     C17772  10.520   3.129  10.658  0.4822 -0.3389  0.3295
  854MOL0     O17773  10.411   3.117  10.569 -0.2218 -0.1100  0.5063
  854MOL0     C17774  10.289   3.041  10.612  0.3305 -0.7344 -0.1660
  854MOL0     C17775  10.178   3.039  10.505  0.6302  0.1470  1.1132
  854MOL0     C17776  10.120   3.175  10.457  0.2283 -0.0611  0.8636
  854MOL0     C17777  10.035   3.166  10.329 -0.9942  0.5956 -0.6159
  854MOL0     C17778   9.910   3.092  10.355 -0.6419 -0.5958  1.3054
  854MOL0     C17779   9.803   3.046  10.389 -0.1136  0.6420  1.3387
  854MOL0     C17780  10.532   3.061  10.783  1.0277 -0.6239  1.1304
  854MOL0     C17781  10.653   3.066  10.856 -0.9256 -0.1388  0.0419
  854MOL0     C17782  10.662   2.997  10.989 -0.1655 -0.4968 -0.4931
  854MOL0     H17783  11.120   3.088  11.035 -0.2451  0.9394 -0.9192
  854MOL0     H17784  11.346   3.059  11.083  0.5829 -3.0982  0.7303
  854MOL0     H17785  11.646   3.162  10.778 -0.2289 -0.0095  2.8863
  854MOL0     H17786  11.609   2.991  10.718 -2.4871  0.6707 -1.1688
  854MOL0     H17787  11.847   3.046  10.791  1.2361 -1.8657  0.5076
  854MOL0     H17788  11.772   3.059  10.954 -2.6787 -2.7235  2.1933
  854MOL0     H17789  11.690   2.836  10.954 -1.9809  2.6899 -0.5600
  854MOL0     H17790  11.739   2.807  10.792 -0.1228  0.9599 -1.4646
  854MOL0     H17791  11.985   2.837  10.854 -1.2748 -1.3031 -1.9060
  854MOL0     H17792  11.944   2.846  11.026 -0.4719  0.7193 -0.1878
  854MOL0     H17793  11.880   2.624  10.835  1.0226  3.5477 -2.0470
  854MOL0     H17794  11.821   2.644  11.003  1.2098 -3.3878  1.3532
  854MOL0     H17795  12.099   2.604  10.888 -1.1038 -0.5872 -1.2359
  854MOL0     H17796  12.086   2.656  11.058  0.0767  0.5468  0.1759
  854MOL0     H17797  11.973   2.398  10.938 -0.1586 -0.5800  0.3313
  854MOL0     H17798  11.933   2.446  11.099 -0.4485  1.5354 -1.0946
  854MOL0     H17799  12.130   2.290  11.089  2.1930  0.2153  1.2997
  854MOL0     H17800  12.226   2.411  11.011 -1.2863  2.4342 -0.6616
  854MOL0     H17801  12.349   2.307  11.237  1.6515  0.6941  0.7772
  854MOL0     H17802  12.382   2.369  11.566  1.1645  1.4914  1.3719
  854MOL0     H17803  12.421   2.534  11.560 -1.4998 -0.0098  0.7732
  854MOL0     H17804  12.634   2.397  11.514  0.8850  0.9399  0.4792
  854MOL0     H17805  12.562   2.341  11.370  1.8925 -1.0889  1.1689
  854MOL0     H17806  12.574   2.534  11.274  0.7891 -3.8972 -0.3159
  854MOL0     H17807  12.570   2.646  11.422 -0.6656 -0.8310  0.8037
  854MOL0     H17808  12.797   2.479  11.315  1.0951 -1.2221  1.8237
  854MOL0     H17809  12.801   2.650  11.314  3.1128  0.8432  1.5566
  854MOL0     H17810  13.023   2.574  11.358 -1.6532  3.2036  1.3786
  854MOL0     H17811  13.250   2.569  11.297 -2.5595 -2.0756  0.0357
  854MOL0     H17812  13.332   2.438  11.379  0.3501  0.7729 -0.7685
  854MOL0     H17813  13.359   2.606  11.435  0.7306 -0.0409 -0.4379
  854MOL0     H17814  13.601   2.503  11.842 -1.3635  1.0491  0.8216
  854MOL0     H17815  13.753   2.374  11.985 -0.6907 -0.1447 -0.6928
  854MOL0     H17816  13.532   2.057  12.250 -0.5605  1.0621 -1.6306
  854MOL0     H17817  13.662   1.985  12.150  1.5370 -1.4892  1.1408
  854MOL0     H17818  13.671   2.103  12.443 -0.9251 -2.1983  1.6044
  854MOL0     H17819  13.678   1.938  12.401 -0.3536  1.7459  0.6280
  854MOL0     H17820  13.903   2.087  12.278  0.9853 -0.6348 -0.3678
  854MOL0     H17821  13.894   1.918  12.338 -0.2865 -0.2712  0.2647
  854MOL0     H17822  13.901   1.987  12.566  0.9604  0.5435  1.0098
  854MOL0     H17823  13.895   2.150  12.526 -1.7712  0.0200 -0.5819
  854MOL0     H17824  14.123   1.957  12.427 -1.6092 -2.1290  1.0396
  854MOL0     H17825  14.134   2.137  12.448  1.4463 -0.3549  0.2536
  854MOL0     H17826  14.128   1.899  12.638  0.1103 -0.0595 -2.0935
  854MOL0     H17827  14.112   2.071  12.700  3.3771  0.9755  0.7548
  854MOL0     H17828  14.312   2.143  12.614  1.1881 -0.8227 -3.6705
  854MOL0     H17829  14.342   1.967  12.558 -1.2044 -1.2025 -0.5629
  854MOL0     H17830  14.332   1.909  12.805 -3.2644  0.1690 -0.0543
  854MOL0     H17831  14.301   2.073  12.841 -2.0694 -0.6763  0.5306
  854MOL0     H17832  13.415   2.170  12.170  1.9747 -2.0592  0.7059
  854MOL0     H17833  13.271   2.286  11.999  0.1925 -0.3216  3.2362
  854MOL0     H17834  13.101   2.500  11.835 -0.4250 -1.3978  0.4381
  854MOL0     H17835  12.878   2.571  11.748 -2.0136  2.4246 -1.8732
  854MOL0     H17836  11.431   3.013  10.659  0.2576 -0.2533 -0.3857
  854MOL0     H17837  11.202   3.057  10.604  0.8615 -0.0516  0.2160
  854MOL0     H17838  10.848   3.224  10.627  1.4329  0.5192  1.7382
  854MOL0     H17839  10.630   3.235  10.502  1.8280  1.0322  0.3694
  854MOL0     H17840  10.309   2.936  10.635 -1.2126 -0.7897  1.1292
  854MOL0     H17841  10.248   3.098  10.696 -3.3070 -2.1956 -0.7348
  854MOL0     H17842  10.096   2.986  10.554  0.9396 -1.1041  0.3299
  854MOL0     H17843  10.208   2.972  10.424 -1.4374 -0.3443  0.7046
  854MOL0     H17844  10.075   3.223  10.544 -2.4331  1.1793 -1.0715
  854MOL0     H17845  10.205   3.238  10.427  1.8637 -3.2578 -1.9124
  854MOL0     H17846  10.093   3.120  10.248 -1.2033  1.0066 -1.0076
  854MOL0     H17847  10.006   3.266  10.293 -0.7507  1.8331  2.3084
  854MOL0     H17848   9.706   3.004  10.410 -0.4236  0.2016 -0.7219
  854MOL0     H17849  10.437   3.015  10.811 -1.7504  2.1467 -2.6700
  854MOL0     H17850  10.562   2.957  11.012 -1.3501  2.4043 -0.1969
  854MOL0     H17851  10.741   2.922  10.981  1.4398  1.1637 -0.6851
  854MOL0     H17852  10.693   3.069  11.065  0.8350 -0.2747 -1.1051
  855MOL0     O17853   0.054  10.884   6.485  0.0701 -0.2782 -0.1080
  855MOL0     C17854  -0.018  10.949   6.410 -0.0574 -0.1641  0.7722
  855MOL0     O17855   0.026  11.053   6.327 -0.0254 -0.7005  0.0913
  855MOL0     C17856   0.152  11.103   6.329  0.5199 -0.1083  0.4928
  855MOL0     C17857   0.203  11.140   6.208 -0.8606  0.1098 -0.1735
  855MOL0     C17858   0.336  11.197   6.201 -0.2107 -1.3659 -0.5184
  855MOL0     C17859   0.409  11.225   6.314  0.1196 -0.4045  0.3472
  855MOL0     O17860   0.530  11.283   6.302 -0.2124 -0.1531  0.3700
  855MOL0     C17861   0.623  11.291   6.415 -0.2617  0.5168 -0.4437
  855MOL0     C17862   0.688  11.155   6.438 -0.6798  0.3116 -0.1901
  855MOL0     C17863   0.788  11.117   6.328 -0.1019  0.4550 -0.4184
  855MOL0     C17864   0.928  11.186   6.348 -0.5073  0.4003 -0.2678
  855MOL0     C17865   1.042  11.124   6.265 -0.6431  0.7673 -0.6111
  855MOL0     C17866   1.161  11.226   6.274  0.4324  0.1844 -0.2374
  855MOL0     C17867   1.295  11.188   6.206  0.2148 -0.8126  0.0601
  855MOL0     C17868   1.383  11.104   6.296  0.2795 -0.0631  0.5402
  855MOL0     N17869   1.504  11.059   6.218  0.1318 -0.2600  0.0476
  855MOL0     C17870   1.623  11.123   6.227  0.3394  0.5963  0.0113
  855MOL0     C17871   1.698  11.063   6.141 -0.5340 -0.2748 -0.0325
  855MOL0     C17872   1.828  11.122   6.105 -0.3002  0.2832  0.3862
  855MOL0     C17873   1.933  11.113   6.209 -0.4304 -0.7475  0.8411
  855MOL0     C17874   1.985  10.973   6.247  0.5618 -0.2091 -0.1767
  855MOL0     C17875   2.097  10.984   6.356  0.2571  0.3178  0.9640
  855MOL0     O17876   2.167  10.859   6.360 -0.4539  0.3209  0.4545
  855MOL0     C17877   2.295  10.862   6.411  0.1940  0.0031 -0.9322
  855MOL0     C17878   2.342  10.957   6.502 -0.4168  0.1963  0.5249
  855MOL0     C17879   2.477  10.949   6.555 -0.0997  0.3059  1.0936
  855MOL0     C17880   2.515  11.053   6.657  0.2830 -0.3771  0.0861
  855MOL0     C17881   2.559  10.840   6.522  0.6074  1.1115  0.9494
  855MOL0     C17882   2.694  10.809   6.565  0.7291 -0.3440 -0.8361
  855MOL0     O17883   2.737  10.676   6.568 -0.4069 -0.1416  0.2948
  855MOL0     C17884   2.866  10.656   6.606 -0.0330  0.9229 -0.1253
  855MOL0     C17885   2.898  10.672   6.742  0.2718 -0.0677  0.0876
  855MOL0     C17886   3.030  10.658   6.773 -0.5248 -0.1286  0.6687
  855MOL0     C17887   3.135  10.629   6.679 -0.7603 -0.5650 -0.2620
  855MOL0     O17888   3.260  10.618   6.719 -0.0711 -0.3571 -0.0566
  855MOL0     C17889   3.323  10.740   6.692  1.1810 -0.7107 -0.6484
  855MOL0     C17890   3.476  10.749   6.740 -0.7240 -0.3045  0.9303
  855MOL0     C17891   3.560  10.627   6.683  0.0492  0.7660 -0.2301
  855MOL0     C17892   3.708  10.656   6.707 -0.1211  0.0866  0.1624
  855MOL0     C17893   3.792  10.541   6.644 -0.3623 -0.1942  0.3862
  855MOL0     C17894   3.949  10.549   6.667  0.2665 -0.4431  0.3953
  855MOL0     C17895   4.002  10.674   6.602 -0.0232 -0.4232 -0.9798
  855MOL0     C17896   4.153  10.647   6.572 -0.8100 -0.6313  0.3759
  855MOL0    Cl17897   4.251  10.682   6.722  0.5919 -0.2684  0.0002
  855MOL0     C17898   3.094  10.609   6.548 -1.1679 -0.5403  0.4962
  855MOL0     C17899   2.964  10.623   6.507  0.8139 -0.0552 -0.1926
  855MOL0     O17900   2.761  10.903   6.611  0.3300 -0.4899 -0.1261
  855MOL0     C17901   2.509  10.744   6.427  0.1807 -0.0022 -0.0769
  855MOL0     C17902   2.381  10.762   6.372 -0.5661 -0.3361  0.7519
  855MOL0     N17903   1.629  10.953   6.085 -0.2686  0.1405  0.2097
  855MOL0     N17904   1.506  10.958   6.133  0.6338 -0.7546  0.2928
  855MOL0     C17905   0.352  11.199   6.440 -0.3502 -1.1262 -0.0450
  855MOL0     C17906   0.228  11.131   6.447 -0.0137 -0.3542 -0.9545
  855MOL0     C17907  -0.148  10.889   6.380 -0.5851  0.0071 -0.8814
  855MOL0     C17908  -0.237  10.968   6.300  0.6256  0.1466  0.5268
  855MOL0     C17909  -0.375  10.939   6.283 -0.8948  0.1751 -0.2796
  855MOL0     C17910  -0.430  10.826   6.345  1.3457 -0.0458 -0.0068
  855MOL0     O17911  -0.561  10.791   6.299 -0.4571 -0.2361 -0.6792
  855MOL0     C17912  -0.609  10.665   6.339 -0.0712 -0.7849 -0.7269
  855MOL0     C17913  -0.760  10.658   6.305  0.4530 -0.8299  0.1765
  855MOL0     C17914  -0.841  10.780   6.359  1.1889  0.5605 -0.6475
  855MOL0     C17915  -0.981  10.798   6.309  0.3288  0.0587 -0.0724
  855MOL0     C17916  -1.074  10.686   6.322  0.3792  0.4612 -0.3277
  855MOL0     C17917  -1.147  10.595   6.353 -0.2844  0.2484 -0.7539
  855MOL0     C17918  -0.344  10.744   6.424 -0.5656  0.4366 -1.0130
  855MOL0     C17919  -0.206  10.774   6.451  0.0394  0.3651  0.6851
  855MOL0     C17920  -0.128  10.687   6.551  0.3955  0.9738 -1.2194
  855MOL0     H17921   0.139  11.123   6.122 -0.8665  2.1997 -0.6247
  855MOL0     H17922   0.385  11.227   6.109 -2.1109 -2.6337 -2.0215
  855MOL0     H17923   0.589  11.340   6.507  2.4892  4.7588 -1.4126
  855MOL0     H17924   0.702  11.359   6.381  1.1128 -0.0640  1.4209
  855MOL0     H17925   0.734  11.156   6.537 -0.3414 -0.7065 -0.3245
  855MOL0     H17926   0.610  11.078   6.433 -1.5771  1.1499  0.4681
  855MOL0     H17927   0.796  11.009   6.309 -1.2207  0.3965 -0.6126
  855MOL0     H17928   0.747  11.160   6.236 -0.2842  2.6832  0.6556
  855MOL0     H17929   0.921  11.294   6.333  0.4166  1.0952  3.2780
  855MOL0     H17930   0.948  11.185   6.456  0.1349  1.6492 -0.3456
  855MOL0     H17931   1.009  11.109   6.162 -2.7544 -0.9474  0.2311
  855MOL0     H17932   1.079  11.029   6.305  3.1823  2.3424  0.0064
  855MOL0     H17933   1.134  11.318   6.222 -0.9334 -1.1031 -1.9050
  855MOL0     H17934   1.183  11.268   6.373 -1.1844  3.5359 -1.1451
  855MOL0     H17935   1.340  11.283   6.174 -1.5193  0.1098  0.2768
  855MOL0     H17936   1.278  11.123   6.120 -0.7844  0.1036 -0.4576
  855MOL0     H17937   1.416  11.153   6.388  0.6542 -0.9121  0.8622
  855MOL0     H17938   1.330  11.011   6.319  0.0935 -0.0852  0.0364
  855MOL0     H17939   1.654  11.212   6.280  3.0904  0.6954 -1.5540
  855MOL0     H17940   1.802  11.225   6.077  2.6765  0.6600 -1.4600
  855MOL0     H17941   1.860  11.073   6.013  2.1280 -1.2829  1.9448
  855MOL0     H17942   2.009  11.177   6.163 -1.7929  0.7130  0.5060
  855MOL0     H17943   1.889  11.161   6.297  0.5815 -0.7554  1.3607
  855MOL0     H17944   1.903  10.910   6.282 -0.2134  0.5430 -0.5960
  855MOL0     H17945   2.013  10.921   6.155 -1.2461 -1.5407 -0.0311
  855MOL0     H17946   2.168  11.064   6.330  2.9001 -1.5549  2.0231
  855MOL0     H17947   2.057  11.000   6.456  3.2277  0.4016  2.2541
  855MOL0     H17948   2.275  11.035   6.536 -0.4435  1.5395 -2.3364
  855MOL0     H17949   2.592  11.014   6.724  0.1251 -0.7662  0.0383
  855MOL0     H17950   2.430  11.097   6.709  1.4484  2.7477 -0.4010
  855MOL0     H17951   2.553  11.142   6.604 -0.5263  0.9558  1.6421
  855MOL0     H17952   2.826  10.703   6.818  0.5260  1.6471 -0.3270
  855MOL0     H17953   3.058  10.684   6.875  0.6952 -1.1982  0.6281
  855MOL0     H17954   3.320  10.764   6.585  0.6758  0.2510 -0.4239
  855MOL0     H17955   3.271  10.812   6.756  3.1202 -1.2411  1.6817
  855MOL0     H17956   3.513  10.842   6.696 -2.8830  1.3564  2.4198
  855MOL0     H17957   3.480  10.754   6.849  0.9229 -0.0116  0.8845
  855MOL0     H17958   3.527  10.616   6.580 -1.7108  0.5334  0.3293
  855MOL0     H17959   3.536  10.527   6.720 -0.2918  0.9076 -0.0650
  855MOL0     H17960   3.735  10.659   6.813  0.3687  1.4706  0.0215
  855MOL0     H17961   3.743  10.751   6.668 -0.8719  0.8715  1.3409
  855MOL0     H17962   3.755  10.444   6.679 -2.5363  0.0699 -1.0137
  855MOL0     H17963   3.784  10.540   6.535  0.0020 -2.5129  0.3198
  855MOL0     H17964   3.996  10.453   6.643 -0.7508 -0.3501 -2.2878
  855MOL0     H17965   3.984  10.552   6.771 -1.0378 -2.1846  0.9493
  855MOL0     H17966   4.005  10.758   6.673  1.3562  1.3075 -2.9657
  855MOL0     H17967   3.950  10.700   6.509 -0.3121 -0.6865 -0.8940
  855MOL0     H17968   4.188  10.707   6.488  0.6177 -0.9230  0.7227
  855MOL0     H17969   4.169  10.542   6.544 -0.3602 -0.6008  0.5114
  855MOL0     H17970   3.173  10.576   6.481 -1.2898 -1.8702  0.9908
  855MOL0     H17971   2.943  10.617   6.401 -0.9648  0.7203  0.0730
  855MOL0     H17972   2.573  10.659   6.407 -0.1644 -0.4024  0.5102
  855MOL0     H17973   2.345  10.687   6.302  1.9020 -0.4383 -0.5131
  855MOL0     H17974   0.402  11.234   6.530  2.3035 -2.7784 -0.7446
  855MOL0     H17975   0.179  11.098   6.538  1.5895  0.7615  0.3593
  855MOL0     H17976  -0.210  11.064   6.257 -1.2531 -0.3433 -1.9223
  855MOL0     H17977  -0.435  11.007   6.224  0.4758  2.6979  1.0489
  855MOL0     H17978  -0.543  10.598   6.282  2.4479  1.7525 -1.0103
  855MOL0     H17979  -0.592  10.656   6.447  1.5089 -0.0503 -0.8869
  855MOL0     H17980  -0.808  10.567   6.343  0.1368 -1.0219 -0.6687
  855MOL0     H17981  -0.756  10.654   6.196 -0.4478 -0.4993  0.1268
  855MOL0     H17982  -0.854  10.771   6.467 -1.4255  0.5082 -0.8940
  855MOL0     H17983  -0.797  10.878   6.341 -1.3525  1.9927  0.3110
  855MOL0     H17984  -0.982  10.830   6.204  0.7126  1.5190  0.3430
  855MOL0     H17985  -1.014  10.878   6.375  1.4301  1.1298 -0.7683
  855MOL0     H17986  -1.215  10.515   6.373 -0.0250 -0.2544 -1.7758
  855MOL0     H17987  -0.375  10.651   6.471  3.3743  0.1485  1.5213
  855MOL0     H17988  -0.103  10.732   6.647 -0.1707 -1.4522  0.1453
  855MOL0     H17989  -0.186  10.595   6.555 -1.1946  1.9800  0.2603
  855MOL0     H17990  -0.032  10.659   6.506  0.4216 -1.7291  0.3644
  856MOL0     O17991   7.517   5.139   0.247 -0.4634 -0.1065  0.1246
  856MOL0     C17992   7.496   5.034   0.306 -0.5900  0.3318  0.7109
  856MOL0     O17993   7.587   4.927   0.297  0.4695 -0.5212 -0.1203
  856MOL0     C17994   7.710   4.923   0.240  0.0663 -0.6737  0.2322
  856MOL0     C17995   7.793   4.813   0.277  0.7892  0.9301 -0.6966
  856MOL0     C17996   7.913   4.786   0.220  0.2996 -0.3004  0.5289
  856MOL0     C17997   7.971   4.878   0.135  0.3189 -0.0734  1.0504
  856MOL0     O17998   8.096   4.856   0.081 -0.3264  0.0387  0.6713
  856MOL0     C17999   8.198   4.870   0.178  0.3863  0.0775 -0.6741
  856MOL0     C18000   8.330   4.877   0.112 -0.4626  0.1488 -0.1586
  856MOL0     C18001   8.441   4.879   0.224 -0.0198  0.2992 -0.1364
  856MOL0     C18002   8.577   4.913   0.172 -0.5226 -0.1524  0.3097
  856MOL0     C18003   8.683   4.917   0.283  0.0931 -0.5276  0.8316
  856MOL0     C18004   8.711   4.778   0.333 -0.0459  0.6145 -0.0893
  856MOL0     C18005   8.802   4.781   0.439  0.7931  0.5153  0.0690
  856MOL0     C18006   8.948   4.814   0.398  0.0513  0.5332  0.5105
  856MOL0     N18007   9.054   4.760   0.486 -0.1250 -0.2485 -0.4257
  856MOL0     C18008   9.062   4.628   0.517  0.2490  1.5780  0.1500
  856MOL0     C18009   9.131   4.616   0.631  0.5697 -0.2216  0.2041
  856MOL0     C18010   9.183   4.488   0.694  0.6009  0.4994 -0.4846
  856MOL0     C18011   9.302   4.428   0.616  0.0966  0.5077  0.3049
  856MOL0     C18012   9.438   4.502   0.618  0.0570 -1.0541  0.9198
  856MOL0     C18013   9.508   4.502   0.751 -0.9322 -0.0966 -0.3404
  856MOL0     O18014   9.650   4.536   0.728 -0.0102  0.1205  0.1443
  856MOL0     C18015   9.738   4.434   0.740  1.2414  0.0629  0.3668
  856MOL0     C18016   9.711   4.301   0.685 -0.4464 -1.0374 -0.6637
  856MOL0     C18017   9.803   4.196   0.703  0.7926  0.2811  0.1911
  856MOL0     C18018   9.753   4.060   0.642 -0.0007  0.0161  0.0741
  856MOL0     C18019   9.929   4.220   0.763  0.1194  0.1817  0.6541
  856MOL0     C18020  10.044   4.119   0.776  0.0383 -0.3259  0.2394
  856MOL0     O18021  10.165   4.180   0.785 -0.5046 -0.9115 -0.8170
  856MOL0     C18022  10.285   4.106   0.772 -0.0732 -0.5037 -0.5982
  856MOL0     C18023  10.363   4.106   0.650 -0.1905 -1.0122 -0.6988
  856MOL0     C18024  10.480   4.036   0.655 -0.0131  0.1936 -0.9358
  856MOL0     C18025  10.517   3.956   0.764  0.1888 -0.0393 -0.3553
  856MOL0     O18026  10.634   3.896   0.735 -0.0249  0.5769 -0.6925
  856MOL0     C18027  10.710   3.840   0.843  0.2296 -0.8324 -0.1408
  856MOL0     C18028  10.821   3.759   0.776  0.4007 -0.6640 -0.0041
  856MOL0     C18029  10.926   3.844   0.709  0.3500 -0.5174 -0.1406
  856MOL0     C18030  11.009   3.932   0.810  0.5563  0.3686 -0.1653
  856MOL0     C18031  11.141   3.994   0.757  0.5178 -0.3809  0.1522
  856MOL0     C18032  11.222   4.062   0.869  0.2486  1.2475  0.6747
  856MOL0     C18033  11.327   4.155   0.813 -0.1716  0.3712  0.6138
  856MOL0     C18034  11.440   4.086   0.739 -0.3636 -0.9386  1.1182
  856MOL0    Cl18035  11.552   4.195   0.664 -0.3613 -0.4399  0.0385
  856MOL0     C18036  10.441   3.958   0.881  0.3901 -0.3622 -0.4919
  856MOL0     C18037  10.324   4.037   0.883 -0.3122  0.4783  0.3296
  856MOL0     O18038  10.031   3.999   0.770  0.9407 -0.3715 -0.3084
  856MOL0     C18039   9.950   4.352   0.807  0.4176  0.3638 -0.0591
  856MOL0     C18040   9.865   4.458   0.785 -0.3138  0.7272  0.7972
  856MOL0     N18041   9.172   4.749   0.671 -0.1037  0.5804  0.0812
  856MOL0     N18042   9.118   4.826   0.588  0.6166 -0.8953  0.0378
  856MOL0     C18043   7.898   4.982   0.080 -0.7551  0.0609 -0.6394
  856MOL0     C18044   7.769   5.005   0.142 -0.7870 -0.3266 -0.0174
  856MOL0     C18045   7.364   5.005   0.367  0.5475  0.2649  0.6217
  856MOL0     C18046   7.364   4.895   0.458  0.6073  1.1697  0.0807
  856MOL0     C18047   7.248   4.856   0.523 -0.0947  0.0310 -0.1246
  856MOL0     C18048   7.131   4.936   0.502  0.1442  0.1702  0.0446
  856MOL0     O18049   7.017   4.895   0.564  0.0561 -0.2555 -0.1935
  856MOL0     C18050   6.877   4.929   0.525 -0.7353  0.3451 -0.1680
  856MOL0     C18051   6.826   5.044   0.612  0.6518  0.2800 -0.1995
  856MOL0     C18052   6.680   5.064   0.571 -0.4219 -0.4975 -0.8469
  856MOL0     C18053   6.612   5.179   0.646  0.3080 -0.0831 -0.3275
  856MOL0     C18054   6.541   5.129   0.764  1.5093 -0.1935  0.9304
  856MOL0     C18055   6.499   5.076   0.863  0.0554 -0.4606 -1.3262
  856MOL0     C18056   7.140   5.057   0.436 -0.1137 -1.1655  0.0074
  856MOL0     C18057   7.252   5.096   0.353 -0.2658  0.4881 -0.0468
  856MOL0     C18058   7.244   5.213   0.259  0.6558 -0.2846  0.6210
  856MOL0     H18059   7.751   4.736   0.341 -2.4249  1.2937 -2.1944
  856MOL0     H18060   7.973   4.701   0.253  4.1707  1.9882  0.0973
  856MOL0     H18061   8.199   4.778   0.238  1.5412  0.0092 -0.7918
  856MOL0     H18062   8.178   4.949   0.251  1.5784  1.7912 -2.1347
  856MOL0     H18063   8.341   4.794   0.043 -3.0469  2.5141 -3.7427
  856MOL0     H18064   8.339   4.964   0.046  0.5512 -0.3896 -0.7411
  856MOL0     H18065   8.413   4.940   0.311  2.6537  0.9614  0.3445
  856MOL0     H18066   8.444   4.779   0.267  3.4790  0.8419  1.2726
  856MOL0     H18067   8.606   4.840   0.096  1.1806  2.3704 -1.6663
  856MOL0     H18068   8.566   5.008   0.119 -4.4854  0.9806  2.7379
  856MOL0     H18069   8.642   4.980   0.362  0.2265  1.6402 -0.7232
  856MOL0     H18070   8.769   4.975   0.247  2.1867 -2.9108  1.6956
  856MOL0     H18071   8.614   4.740   0.367 -0.0284  0.4416 -0.2386
  856MOL0     H18072   8.745   4.711   0.254  2.4160  1.2348  0.3582
  856MOL0     H18073   8.817   4.684   0.487  0.3946  0.0994 -0.6441
  856MOL0     H18074   8.781   4.861   0.511 -1.1700  2.1746 -2.2155
  856MOL0     H18075   8.957   4.773   0.297 -2.7219 -0.2112  0.4835
  856MOL0     H18076   8.957   4.922   0.391 -3.0064  0.8813  0.8669
  856MOL0     H18077   9.011   4.548   0.464  2.3148 -0.1067  0.5736
  856MOL0     H18078   9.106   4.411   0.706  0.5946  0.5403 -0.2413
  856MOL0     H18079   9.209   4.510   0.798  0.8128  0.4961 -0.5363
  856MOL0     H18080   9.317   4.324   0.647 -1.2490 -0.7198 -2.7324
  856MOL0     H18081   9.260   4.408   0.517  0.1360  0.4564  0.2986
  856MOL0     H18082   9.507   4.452   0.550  0.6565  0.2549  0.5276
  856MOL0     H18083   9.410   4.603   0.585  0.8669 -1.3602 -0.7976
  856MOL0     H18084   9.461   4.578   0.815  0.0731 -0.4903  0.9113
  856MOL0     H18085   9.502   4.405   0.802  0.1757 -0.4541 -0.8662
  856MOL0     H18086   9.615   4.276   0.641 -0.0954 -1.0688 -1.4291
  856MOL0     H18087   9.831   4.004   0.589  0.6136 -0.7849  1.7545
  856MOL0     H18088   9.670   4.088   0.577 -0.1210 -0.6329 -0.0538
  856MOL0     H18089   9.718   3.999   0.725  1.9264 -2.2011 -0.6443
  856MOL0     H18090  10.322   4.168   0.570 -1.7896 -1.4612 -0.2707
  856MOL0     H18091  10.538   4.039   0.563 -0.0417  3.0483 -0.9274
  856MOL0     H18092  10.753   3.912   0.913 -0.3186  0.6171 -1.2500
  856MOL0     H18093  10.646   3.773   0.901 -2.4938  1.9026  0.2504
  856MOL0     H18094  10.869   3.692   0.849  0.9455  0.3697  0.6204
  856MOL0     H18095  10.780   3.697   0.696  0.0280  0.0027 -0.3333
  856MOL0     H18096  10.885   3.911   0.632  2.3032  1.4373  0.4115
  856MOL0     H18097  10.993   3.784   0.647 -0.3930  0.3668 -1.8737
  856MOL0     H18098  11.046   3.860   0.883 -1.6009  0.6265  1.2373
  856MOL0     H18099  10.947   4.003   0.864 -1.6031 -1.9516  0.5860
  856MOL0     H18100  11.199   3.910   0.718  0.8081 -0.1575  0.0982
  856MOL0     H18101  11.111   4.065   0.680 -0.9092 -0.5426  0.5315
  856MOL0     H18102  11.285   3.993   0.926  1.8090  1.0491 -1.1648
  856MOL0     H18103  11.155   4.123   0.929 -0.3136  0.8462  0.4560
  856MOL0     H18104  11.378   4.203   0.897 -0.5159 -0.3970  1.2760
  856MOL0     H18105  11.273   4.226   0.751 -0.3856  1.3846  1.9280
  856MOL0     H18106  11.396   4.015   0.668 -1.5913 -0.1348  1.0512
  856MOL0     H18107  11.499   4.021   0.804 -0.3477 -0.7223  1.3177
  856MOL0     H18108  10.448   3.884   0.960 -1.3509  0.5492  0.5628
  856MOL0     H18109  10.270   4.036   0.977 -0.3332  2.6385  0.4010
  856MOL0     H18110  10.043   4.372   0.859 -0.2538  0.2075  1.2401
  856MOL0     H18111   9.895   4.556   0.822  1.1190  0.7955 -0.4672
  856MOL0     H18112   7.939   5.043   0.000  0.5157 -0.3233 -0.3162
  856MOL0     H18113   7.700   5.084   0.112 -2.9906 -1.8269  0.8151
  856MOL0     H18114   7.452   4.834   0.470 -1.5010 -2.1767 -0.1137
  856MOL0     H18115   7.249   4.766   0.583  0.6566 -0.3122 -0.6440
  856MOL0     H18116   6.865   4.940   0.417 -0.2466  0.2669 -0.2328
  856MOL0     H18117   6.810   4.844   0.542  1.7497 -1.9159 -1.0398
  856MOL0     H18118   6.881   5.137   0.596  2.9891 -1.1530 -0.9831
  856MOL0     H18119   6.832   5.014   0.717  0.9759  0.3707 -0.1907
  856MOL0     H18120   6.682   5.084   0.464  3.3567  0.0376 -0.8211
  856MOL0     H18121   6.627   4.969   0.579  0.4342 -0.8477  3.8762
  856MOL0     H18122   6.536   5.209   0.574  0.2085  0.1456 -0.1270
  856MOL0     H18123   6.680   5.263   0.665  0.9366 -0.6379 -0.0684
  856MOL0     H18124   6.470   5.019   0.950  0.9920 -1.8723 -1.9072
  856MOL0     H18125   7.051   5.119   0.436  1.8933  1.9312 -0.3488
  856MOL0     H18126   7.294   5.192   0.163  0.3726  1.6236  0.0121
  856MOL0     H18127   7.142   5.243   0.232  0.8074 -1.0774 -0.9474
  856MOL0     H18128   7.287   5.303   0.305  0.8450  0.5674 -1.1240
  857MOL0     O18129  10.401   6.858  10.140  0.4663  0.0797  0.6965
  857MOL0     C18130  10.356   6.853  10.023 -0.2515 -0.4194  0.8338
  857MOL0     O18131  10.428   6.853   9.908  0.0130 -0.0091 -0.0566
  857MOL0     C18132  10.563   6.818   9.915 -0.4344  0.2878 -1.1599
  857MOL0     C18133  10.623   6.735  10.016 -0.3815  0.3965  0.5515
  857MOL0     C18134  10.756   6.704   9.990  0.8491  0.0682  0.5725
  857MOL0     C18135  10.831   6.747   9.874  0.4673  0.6129 -1.0540
  857MOL0     O18136  10.960   6.709   9.848  0.0982  0.5811 -0.2523
  857MOL0     C18137  11.040   6.706   9.970 -1.3131 -0.3322  0.2615
  857MOL0     C18138  11.178   6.696   9.931 -0.5371  0.8206 -0.6937
  857MOL0     C18139  11.233   6.825   9.868 -0.5886 -0.2490  0.4670
  857MOL0     C18140  11.385   6.791   9.853  0.3224 -0.5629  0.9784
  857MOL0     C18141  11.484   6.898   9.808  0.3581  0.7528  0.2914
  857MOL0     C18142  11.618   6.870   9.857  0.4761  0.0726  0.6772
  857MOL0     C18143  11.714   6.980   9.800  0.1500  0.6488  0.5096
  857MOL0     C18144  11.854   6.936   9.802  0.4308 -0.1171  0.9961
  857MOL0     N18145  11.953   7.048   9.823  0.5040  0.3524  0.0505
  857MOL0     C18146  12.032   7.115   9.732 -1.2333 -0.1786  0.3736
  857MOL0     C18147  12.093   7.217   9.800  0.1857 -0.2863  0.2056
  857MOL0     C18148  12.183   7.321   9.752 -0.0154 -0.2127 -0.1455
  857MOL0     C18149  12.314   7.336   9.842  0.3026 -0.0669  0.4614
  857MOL0     C18150  12.413   7.426   9.773 -0.2000  1.2016  0.4040
  857MOL0     C18151  12.543   7.426   9.854 -0.1771 -0.3672 -0.3747
  857MOL0     O18152  12.523   7.473   9.991 -0.3801  0.0501 -0.4918
  857MOL0     C18153  12.639   7.490  10.062  0.3890 -0.2427 -0.4824
  857MOL0     C18154  12.622   7.537  10.197  0.4607  0.3845  0.6418
  857MOL0     C18155  12.729   7.552  10.293  0.1892  0.2486 -0.0025
  857MOL0     C18156  12.694   7.606  10.428 -1.1562  0.2205  0.7724
  857MOL0     C18157  12.858   7.509  10.246  0.7547  0.6769  0.2075
  857MOL0     C18158  12.979   7.500  10.339  0.4615 -0.9216 -0.6904
  857MOL0     O18159  13.097   7.462  10.281  0.0472  0.3716  0.2781
  857MOL0     C18160  13.224   7.473  10.340 -0.0209  0.4539  0.8425
  857MOL0     C18161  13.262   7.518  10.470  0.5813  0.5036  0.2529
  857MOL0     C18162  13.394   7.509  10.507  0.1236 -0.1761  0.0031
  857MOL0     C18163  13.487   7.462  10.425 -0.9043  0.3536  0.0803
  857MOL0     O18164  13.623   7.453  10.449 -0.1282 -1.0605 -0.4799
  857MOL0     C18165  13.666   7.495  10.581  0.6593  0.5199  0.1283
  857MOL0     C18166  13.815   7.478  10.587 -0.5600 -0.8437  0.2530
  857MOL0     C18167  13.890   7.571  10.488 -0.6050 -0.3479  0.3138
  857MOL0     C18168  14.041   7.540  10.489 -0.0614 -0.1857  0.6615
  857MOL0     C18169  14.118   7.616  10.386 -0.3995 -0.4698 -1.0283
  857MOL0     C18170  14.263   7.568  10.379 -0.4132 -0.1589  0.5682
  857MOL0     C18171  14.314   7.606  10.242  0.0744 -1.3473 -0.4780
  857MOL0     C18172  14.469   7.654  10.248 -0.1497 -0.0059  0.3427
  857MOL0    Cl18173  14.548   7.681  10.090 -0.4101  0.5690  0.6002
  857MOL0     C18174  13.450   7.424  10.296 -0.6919 -0.4066 -1.1157
  857MOL0     C18175  13.324   7.428  10.252 -1.1042 -0.1423  0.1517
  857MOL0     O18176  12.968   7.535  10.459 -0.3099 -0.0979 -1.3434
  857MOL0     C18177  12.881   7.477  10.105 -0.5181  0.4579 -1.0109
  857MOL0     C18178  12.772   7.458  10.021  0.2604 -0.1757  0.7070
  857MOL0     N18179  12.057   7.205   9.934  0.3822 -1.4986 -0.1054
  857MOL0     N18180  11.972   7.110   9.944 -0.2806  0.6264 -0.1033
  857MOL0     C18181  10.768   6.832   9.779 -0.4381 -0.6656 -0.2018
  857MOL0     C18182  10.630   6.856   9.798 -0.6713 -0.5277 -0.2079
  857MOL0     C18183  10.207   6.855  10.001 -0.5864  0.5776 -0.1193
  857MOL0     C18184  10.154   6.792   9.892  0.5527 -0.2780 -0.1591
  857MOL0     C18185  10.019   6.784   9.861 -0.2225  0.5173 -0.1009
  857MOL0     C18186   9.931   6.850   9.947  0.3889  0.0179  0.1229
  857MOL0     O18187   9.789   6.849   9.938 -0.6983 -0.1939  0.5637
  857MOL0     C18188   9.713   6.788   9.828  0.8355  0.3528 -0.5129
  857MOL0     C18189   9.692   6.867   9.695 -0.3599  0.1660 -0.9094
  857MOL0     C18190   9.604   6.807   9.583 -0.3554  0.4504  0.7599
  857MOL0     C18191   9.551   6.897   9.476  0.0079  0.2254  1.4244
  857MOL0     C18192   9.642   6.902   9.361 -0.3304 -0.7688 -0.2497
  857MOL0     C18193   9.702   6.910   9.252  0.8946  0.4698  0.2955
  857MOL0     C18194   9.983   6.916  10.059  0.5214 -0.2623  0.0399
  857MOL0     C18195  10.125   6.927  10.083  0.1493 -0.7328 -0.5911
  857MOL0     C18196  10.166   7.020  10.194 -0.1064 -0.4170  0.2715
  857MOL0     H18197  10.570   6.688  10.099  2.4294 -0.2113  2.1267
  857MOL0     H18198  10.807   6.640  10.061 -0.9669 -0.4897  1.4290
  857MOL0     H18199  11.007   6.629  10.040 -1.8109 -0.3638  0.0021
  857MOL0     H18200  11.025   6.801  10.021  2.6381 -0.1658  1.4362
  857MOL0     H18201  11.244   6.672  10.015  0.6466  0.9766 -1.5483
  857MOL0     H18202  11.177   6.604   9.873 -0.3821 -2.0634  3.4390
  857MOL0     H18203  11.199   6.837   9.764  2.6472  1.2853 -0.5488
  857MOL0     H18204  11.205   6.912   9.928 -0.8647  1.5375 -2.0941
  857MOL0     H18205  11.411   6.766   9.956  0.4744  0.0981  1.1025
  857MOL0     H18206  11.398   6.702   9.790  0.7222  2.6665 -4.1108
  857MOL0     H18207  11.453   6.999   9.839 -0.4619  0.7871 -0.5978
  857MOL0     H18208  11.477   6.906   9.699  1.6489  1.0997  0.2125
  857MOL0     H18209  11.626   6.875   9.966  2.5482 -0.5298  0.6118
  857MOL0     H18210  11.629   6.769   9.816  0.1781  0.9889 -1.8477
  857MOL0     H18211  11.703   7.066   9.867  0.1934 -1.7167  3.7418
  857MOL0     H18212  11.684   6.995   9.696 -2.9107  2.6942  1.5474
  857MOL0     H18213  11.864   6.862   9.882  0.9341 -0.1012  0.9503
  857MOL0     H18214  11.886   6.883   9.712  0.6915  2.3768 -0.4756
  857MOL0     H18215  12.039   7.110   9.624  0.4671  1.5451  0.3375
  857MOL0     H18216  12.137   7.420   9.752  2.5526  1.0934  0.7846
  857MOL0     H18217  12.216   7.290   9.653 -0.1334 -2.9972  0.6039
  857MOL0     H18218  12.291   7.373   9.942  2.6521 -0.1592  1.1037
  857MOL0     H18219  12.361   7.239   9.859  0.1747  0.1710  2.4780
  857MOL0     H18220  12.438   7.391   9.672  0.7095  0.0989  0.9835
  857MOL0     H18221  12.366   7.523   9.759  0.7922  1.3194 -3.0404
  857MOL0     H18222  12.580   7.323   9.849 -0.1804 -0.3089 -3.2214
  857MOL0     H18223  12.616   7.483   9.797 -0.8020  2.4927  1.4620
  857MOL0     H18224  12.523   7.570  10.226  0.2625  1.3060 -0.9525
  857MOL0     H18225  12.588   7.632  10.433 -1.8241 -2.2782  1.2962
  857MOL0     H18226  12.742   7.702  10.448 -2.1698  0.5375  1.7953
  857MOL0     H18227  12.720   7.530  10.503  0.3378  0.2416  0.3084
  857MOL0     H18228  13.185   7.551  10.539 -2.1095 -1.4644 -1.5868
  857MOL0     H18229  13.419   7.546  10.606 -1.1351  0.0491  0.2527
  857MOL0     H18230  13.640   7.595  10.616 -0.0894  0.3145  0.1926
  857MOL0     H18231  13.624   7.425  10.655 -0.4728  0.8240 -0.2105
  857MOL0     H18232  13.849   7.497  10.690  0.1287  0.7510 -0.2385
  857MOL0     H18233  13.844   7.376  10.560  1.0431 -1.9103  5.0019
  857MOL0     H18234  13.873   7.676  10.514  1.3921 -0.3591  1.9432
  857MOL0     H18235  13.862   7.558  10.383  1.5026  3.4135 -0.8644
  857MOL0     H18236  14.055   7.434  10.470  1.2961 -0.7389  3.9897
  857MOL0     H18237  14.083   7.563  10.588 -0.9687 -1.1023  1.2714
  857MOL0     H18238  14.077   7.604  10.286  0.7411  1.9453 -1.8573
  857MOL0     H18239  14.112   7.720  10.419  0.6905 -1.0530  1.2428
  857MOL0     H18240  14.273   7.459  10.387  0.4503  0.0210  2.4213
  857MOL0     H18241  14.333   7.603  10.455  1.0711 -0.9785 -0.3686
  857MOL0     H18242  14.254   7.687  10.199 -1.0379 -1.0745  1.4585
  857MOL0     H18243  14.310   7.520  10.175  0.3219 -1.7639  0.0290
  857MOL0     H18244  14.526   7.578  10.303  1.5576  0.2738 -0.9414
  857MOL0     H18245  14.470   7.749  10.302 -1.6501  0.0863  0.2284
  857MOL0     H18246  13.534   7.396  10.234  0.4765 -0.2083  0.3339
  857MOL0     H18247  13.296   7.387  10.155 -3.5910  1.6441 -0.0030
  857MOL0     H18248  12.978   7.439  10.074  0.8128  2.1114  0.9160
  857MOL0     H18249  12.774   7.415   9.922 -0.6108  0.2186  0.5129
  857MOL0     H18250  10.819   6.871   9.692 -1.2423 -0.6802 -0.6921
  857MOL0     H18251  10.584   6.908   9.715 -2.9186 -0.0805  1.2236
  857MOL0     H18252  10.216   6.757   9.810 -1.4233 -0.0274 -1.8543
  857MOL0     H18253   9.984   6.723   9.778  0.0651  0.1282  0.0625
  857MOL0     H18254   9.750   6.687   9.810 -2.5752 -0.8880 -1.4152
  857MOL0     H18255   9.610   6.787   9.865  1.0700  1.3959  0.1977
  857MOL0     H18256   9.795   6.871   9.659  0.7194 -1.8461  1.6064
  857MOL0     H18257   9.649   6.964   9.722  0.5519  0.6392 -1.1016
  857MOL0     H18258   9.666   6.733   9.531 -1.0019  0.8198 -0.5796
  857MOL0     H18259   9.518   6.754   9.627 -0.8792  0.4962 -0.1953
  857MOL0     H18260   9.536   6.994   9.523  0.8231  1.4127 -0.6513
  857MOL0     H18261   9.452   6.865   9.443 -0.9382  4.5821 -0.6508
  857MOL0     H18262   9.765   6.928   9.167  1.5089  1.5224  0.9408
  857MOL0     H18263   9.917   6.967  10.128  2.3726  1.9811  0.2789
  857MOL0     H18264  10.261   7.073  10.182 -1.4551  2.0275 -0.2582
  857MOL0     H18265  10.094   7.102  10.193  1.2764  0.8284 -0.4451
  857MOL0     H18266  10.177   6.964  10.288 -2.2776 -1.2229  0.0882
  858MOL0     O18267   9.333   2.260   5.751  1.1088  0.0303 -0.3845
  858MOL0     C18268   9.238   2.247   5.673 -0.4738 -0.4736 -0.0101
  858MOL0     O18269   9.185   2.131   5.631 -0.0146  0.1385  0.0928
  858MOL0     C18270   9.263   2.017   5.655  0.4955 -0.5336  0.4817
  858MOL0     C18271   9.249   1.951   5.779 -0.3047 -0.1372  0.2339
  858MOL0     C18272   9.324   1.837   5.805  0.1441  0.1243 -0.7282
  858MOL0     C18273   9.420   1.796   5.708  0.5557  0.6481  0.8898
  858MOL0     O18274   9.519   1.705   5.733 -0.5929  0.3320  0.7211
  858MOL0     C18275   9.531   1.654   5.864 -0.9218  0.3227  1.1299
  858MOL0     C18276   9.640   1.542   5.854 -0.3785 -0.3910 -0.9697
  858MOL0     C18277   9.585   1.419   5.779 -0.0986  0.2051  0.2466
  858MOL0     C18278   9.679   1.302   5.749 -0.7170 -0.5246 -0.6000
  858MOL0     C18279   9.733   1.213   5.877  0.0579 -0.8480 -0.1199
  858MOL0     C18280   9.815   1.080   5.844 -0.7821 -0.1536  0.3940
  858MOL0     C18281   9.855   0.994   5.957 -0.0882 -0.0105 -0.0064
  858MOL0     C18282   9.951   0.878   5.917  0.0776  0.9036 -0.0999
  858MOL0     N18283  10.075   0.932   5.864 -0.6557  0.7419  0.1282
  858MOL0     C18284  10.105   0.950   5.727  0.5721 -0.4068  0.2486
  858MOL0     C18285  10.226   1.005   5.720 -0.1680  0.7361 -0.1001
  858MOL0     C18286  10.296   1.059   5.598 -0.5795  0.2869 -0.4664
  858MOL0     C18287  10.440   1.005   5.582 -0.6749 -0.7900  0.4737
  858MOL0     C18288  10.457   0.849   5.586  0.2724  0.3376 -0.0581
  858MOL0     C18289  10.402   0.783   5.461  0.3683 -0.8575 -0.5107
  858MOL0     O18290  10.454   0.826   5.331 -0.1189  0.2596  0.6323
  858MOL0     C18291  10.586   0.818   5.303 -1.1203  0.0136  1.2096
  858MOL0     C18292  10.671   0.718   5.352  0.0928 -1.4436  0.4382
  858MOL0     C18293  10.808   0.701   5.309  1.2414 -0.0428 -0.1742
  858MOL0     C18294  10.895   0.594   5.372  0.3758 -0.2922  0.2967
  858MOL0     C18295  10.858   0.787   5.210 -0.3982 -0.5878  0.2166
  858MOL0     C18296  11.001   0.789   5.156  0.1219 -0.6808  0.1880
  858MOL0     O18297  11.031   0.876   5.048 -0.1254  0.0414  1.1220
  858MOL0     C18298  11.156   0.872   5.001 -0.4267  0.0858 -0.1052
  858MOL0     C18299  11.272   0.923   5.069 -1.2511  0.9041 -0.0310
  858MOL0     C18300  11.389   0.941   4.997  0.2029  0.0922  0.1421
  858MOL0     C18301  11.397   0.908   4.865  0.2811  0.3678  0.2512
  858MOL0     O18302  11.498   0.948   4.785  0.0129 -0.2343  0.9516
  858MOL0     C18303  11.630   0.976   4.840  0.3926 -0.1804 -0.0436
  858MOL0     C18304  11.735   1.002   4.739  0.0240 -0.0665 -0.0128
  858MOL0     C18305  11.727   1.131   4.655  0.0322  0.4250  0.3631
  858MOL0     C18306  11.815   1.130   4.529 -0.6976  0.5541 -0.2078
  858MOL0     C18307  11.961   1.161   4.565 -0.4047  1.0413 -0.4315
  858MOL0     C18308  12.045   1.120   4.441 -1.1733  0.5528  0.4471
  858MOL0     C18309  12.203   1.132   4.457  0.8186 -0.3480  0.0524
  858MOL0     C18310  12.244   1.276   4.450  0.5685 -0.0787  0.2145
  858MOL0    Cl18311  12.210   1.343   4.291  0.1519  0.0270 -0.0558
  858MOL0     C18312  11.290   0.844   4.801  0.2701 -0.1335  0.0347
  858MOL0     C18313  11.166   0.824   4.868 -0.7625 -0.4717  0.5828
  858MOL0     O18314  11.091   0.717   5.209  0.7857  0.0706  0.2551
  858MOL0     C18315  10.769   0.884   5.153 -0.4840 -0.6292 -0.0459
  858MOL0     C18316  10.638   0.895   5.197  0.7703  1.0131 -0.7982
  858MOL0     N18317  10.267   1.008   5.856 -0.5400  0.5685 -0.0232
  858MOL0     N18318  10.183   0.965   5.934 -0.7360 -0.0156 -0.2881
  858MOL0     C18319   9.423   1.849   5.586  0.4634  0.4047 -0.5057
  858MOL0     C18320   9.351   1.961   5.554  0.3071 -0.3539 -1.2069
  858MOL0     C18321   9.167   2.372   5.637 -0.8386  0.2819  0.2257
  858MOL0     C18322   9.025   2.364   5.635 -0.2156  0.0909 -0.5632
  858MOL0     C18323   8.949   2.462   5.594 -0.4136 -0.5202 -0.1364
  858MOL0     C18324   9.007   2.585   5.560  0.0764 -0.6699  0.3575
  858MOL0     O18325   8.941   2.703   5.521  0.8335  0.2578 -0.0521
  858MOL0     C18326   8.800   2.722   5.557  0.7329 -0.2430 -0.4461
  858MOL0     C18327   8.749   2.865   5.534  1.1035 -0.2075 -0.3082
  858MOL0     C18328   8.743   2.898   5.374  0.2880  0.3446  0.5779
  858MOL0     C18329   8.762   3.046   5.339  0.1645  0.1952  0.1298
  858MOL0     C18330   8.806   3.075   5.198  0.3098 -0.0235 -0.0394
  858MOL0     C18331   8.828   3.074   5.078  0.2788 -1.0523  0.3666
  858MOL0     C18332   9.145   2.593   5.545 -1.1395  0.1204  0.0172
  858MOL0     C18333   9.228   2.486   5.583 -0.3193  0.3507  0.5336
  858MOL0     C18334   9.371   2.491   5.535  0.1823  0.1467  0.0284
  858MOL0     H18335   9.180   1.990   5.854  1.2180  0.8256  1.1929
  858MOL0     H18336   9.320   1.794   5.905 -0.7946  1.4553 -0.1621
  858MOL0     H18337   9.435   1.616   5.900 -1.6713  0.9768 -0.0960
  858MOL0     H18338   9.552   1.733   5.937  0.2292  0.4866  0.6501
  858MOL0     H18339   9.731   1.586   5.813 -0.4677  1.0990  0.3279
  858MOL0     H18340   9.665   1.525   5.959 -0.2840  2.7450 -0.3818
  858MOL0     H18341   9.496   1.397   5.838 -2.2096  1.2922 -2.3211
  858MOL0     H18342   9.548   1.450   5.680  0.4662  3.3898  0.9067
  858MOL0     H18343   9.627   1.247   5.670 -2.2654  0.4154 -0.2694
  858MOL0     H18344   9.770   1.348   5.710 -0.1218 -0.5952  0.6397
  858MOL0     H18345   9.641   1.191   5.933 -1.0363  3.7211  0.3349
  858MOL0     H18346   9.789   1.283   5.938 -2.9924  1.0014  0.8030
  858MOL0     H18347   9.762   1.012   5.778 -1.1266 -1.7497  2.2287
  858MOL0     H18348   9.903   1.114   5.789 -1.8794  0.6522 -0.9231
  858MOL0     H18349   9.768   0.956   6.011  0.2085  0.7391  1.0509
  858MOL0     H18350   9.908   1.050   6.035 -0.5661  1.7440 -0.8774
  858MOL0     H18351   9.964   0.804   5.997  0.9857  0.2749 -0.8103
  858MOL0     H18352   9.904   0.821   5.836 -0.8840  1.9125 -0.2849
  858MOL0     H18353  10.027   0.931   5.654  1.5917  2.3005 -1.7214
  858MOL0     H18354  10.293   1.168   5.593 -0.4115  0.2509 -2.1230
  858MOL0     H18355  10.246   1.029   5.505 -0.3103 -3.0061  0.3194
  858MOL0     H18356  10.486   1.041   5.489 -1.3605 -0.5156  0.2316
  858MOL0     H18357  10.489   1.048   5.670 -1.3574  1.1250 -0.0308
  858MOL0     H18358  10.564   0.826   5.585 -0.0404 -1.1898 -2.0120
  858MOL0     H18359  10.414   0.810   5.679  2.6901  0.4733  1.2230
  858MOL0     H18360  10.413   0.675   5.473  3.0502 -0.6651 -0.6045
  858MOL0     H18361  10.295   0.807   5.456  0.2104 -1.1904  0.8564
  858MOL0     H18362  10.645   0.653   5.435  1.5131 -0.9116  1.3415
  858MOL0     H18363  10.829   0.546   5.445  0.4802  0.5199  0.9385
  858MOL0     H18364  10.982   0.629   5.427 -1.0959  1.7507  1.4757
  858MOL0     H18365  10.924   0.526   5.292 -0.2017  2.4486 -2.4438
  858MOL0     H18366  11.262   0.955   5.172 -2.2142 -1.1807  0.5721
  858MOL0     H18367  11.476   0.995   5.035 -0.4524  2.2092 -1.1855
  858MOL0     H18368  11.627   1.065   4.904 -2.0607  0.3648 -0.7998
  858MOL0     H18369  11.668   0.894   4.901  2.8364  1.0604  0.2250
  858MOL0     H18370  11.824   1.013   4.801 -0.4378  1.1839  0.4537
  858MOL0     H18371  11.733   0.909   4.682 -3.6941 -0.2544  0.1665
  858MOL0     H18372  11.741   1.220   4.717  0.5963  4.0674 -4.4105
  858MOL0     H18373  11.623   1.152   4.628  0.0327 -0.8620 -0.7075
  858MOL0     H18374  11.778   1.205   4.460 -0.3618  1.1236  0.2190
  858MOL0     H18375  11.811   1.030   4.484  1.5578  0.0674  0.5249
  858MOL0     H18376  11.983   1.263   4.599  1.8950  0.7187 -0.7329
  858MOL0     H18377  11.988   1.099   4.651 -0.2110  0.6349 -0.7740
  858MOL0     H18378  12.003   1.180   4.360 -3.5880 -2.7972 -1.0182
  858MOL0     H18379  12.037   1.012   4.425  0.7786  0.6203 -1.5399
  858MOL0     H18380  12.248   1.064   4.384  1.3573 -0.6164  0.6218
  858MOL0     H18381  12.248   1.097   4.551  2.0055  0.9204 -0.0115
  858MOL0     H18382  12.350   1.291   4.468  0.1153  2.4874  1.1419
  858MOL0     H18383  12.195   1.328   4.532 -0.2795 -0.7261  0.1405
  858MOL0     H18384  11.303   0.832   4.694  1.7525 -2.8998  0.4448
  858MOL0     H18385  11.088   0.774   4.811 -2.8488  2.0586  0.9845
  858MOL0     H18386  10.786   0.953   5.071 -2.1470 -2.0928 -1.7367
  858MOL0     H18387  10.572   0.968   5.152 -0.2976  0.0720 -0.7964
  858MOL0     H18388   9.491   1.811   5.510  0.4678  0.3662 -0.4824
  858MOL0     H18389   9.350   2.015   5.460  0.8096  0.0615 -0.9791
  858MOL0     H18390   8.977   2.274   5.673 -0.9662  0.9713  0.6825
  858MOL0     H18391   8.842   2.445   5.604 -0.6752  1.4427  0.8611
  858MOL0     H18392   8.731   2.653   5.508 -0.2408  1.8331 -2.1772
  858MOL0     H18393   8.794   2.693   5.662 -2.3137  0.5806 -0.3127
  858MOL0     H18394   8.821   2.934   5.579  0.1939  2.4092 -2.5776
  858MOL0     H18395   8.657   2.882   5.591  1.0627 -3.1172  0.6860
  858MOL0     H18396   8.822   2.833   5.336 -0.8048  0.3750 -1.9523
  858MOL0     H18397   8.651   2.852   5.335  0.8643 -1.0983  0.8638
  858MOL0     H18398   8.840   3.074   5.410 -0.1865 -2.2642  1.5946
  858MOL0     H18399   8.669   3.097   5.366  0.1839 -0.7109  2.0287
  858MOL0     H18400   8.847   3.071   4.973 -0.7706 -2.1751  0.1856
  858MOL0     H18401   9.188   2.683   5.504 -2.7356  1.0435  0.3061
  858MOL0     H18402   9.423   2.582   5.566  0.8316  0.3992 -1.7044
  858MOL0     H18403   9.433   2.412   5.578 -0.9636 -0.0533  1.3889
  858MOL0     H18404   9.368   2.490   5.425 -0.6333 -1.1026  0.0411
  859MOL0     O18405   8.381   1.053   9.579 -0.3060  0.0873 -0.4051
  859MOL0     C18406   8.281   1.000   9.548  0.0836  0.1482  0.4319
  859MOL0     O18407   8.258   0.869   9.529 -0.1388 -0.6337 -0.5499
  859MOL0     C18408   8.363   0.793   9.561  0.3178 -0.1363 -0.1352
  859MOL0     C18409   8.485   0.807   9.490  0.3859 -0.0462 -0.3692
  859MOL0     C18410   8.591   0.717   9.513  0.5146  0.0837  0.0585
  859MOL0     C18411   8.577   0.618   9.617 -0.4867 -0.3935  0.9667
  859MOL0     O18412   8.666   0.516   9.634  0.2438  0.7655  0.1668
  859MOL0     C18413   8.766   0.489   9.539 -0.9959 -0.0198  0.2924
  859MOL0     C18414   8.844   0.355   9.572 -0.4289 -0.9614  0.0495
  859MOL0     C18415   8.992   0.383   9.541 -0.1607 -0.4040  0.7865
  859MOL0     C18416   9.073   0.251   9.508 -0.1687  1.0200  0.4164
  859MOL0     C18417   9.089   0.167   9.636 -0.3016  0.2282  0.3794
  859MOL0     C18418   9.158   0.026   9.612  0.6047 -0.0512 -0.7573
  859MOL0     C18419   9.303   0.042   9.542  0.9730 -1.4250 -0.3567
  859MOL0     C18420   9.368  -0.089   9.529  1.1234  0.1065 -0.4222
  859MOL0     N18421   9.500  -0.074   9.475 -0.0228  0.3563 -0.8079
  859MOL0     C18422   9.524  -0.060   9.340 -0.5763 -0.0053  0.0197
  859MOL0     C18423   9.660  -0.045   9.336 -0.4910 -0.5277 -0.6054
  859MOL0     C18424   9.738  -0.026   9.210  0.1399 -0.3325  0.0686
  859MOL0     C18425   9.873  -0.107   9.219  0.6587 -0.1963  0.1054
  859MOL0     C18426   9.981  -0.041   9.132 -0.2300 -0.1737 -0.1073
  859MOL0     C18427  10.111  -0.113   9.137  0.1075 -0.6073  0.3325
  859MOL0     O18428  10.208  -0.036   9.064 -0.8103  0.4578  0.2477
  859MOL0     C18429  10.340  -0.054   9.103 -0.4509  0.8890  0.1535
  859MOL0     C18430  10.379  -0.165   9.177 -0.3121  0.1416 -0.6233
  859MOL0     C18431  10.518  -0.166   9.223  0.0839 -0.2888 -0.2139
  859MOL0     C18432  10.555  -0.272   9.319  0.0178  0.0160 -0.6991
  859MOL0     C18433  10.614  -0.079   9.163 -0.5914 -0.1940  0.6433
  859MOL0     C18434  10.758  -0.093   9.178  0.0525  0.4303  0.0728
  859MOL0     O18435  10.791  -0.138   9.301  0.1526  1.3834  0.4747
  859MOL0     C18436  10.925  -0.181   9.323  1.3300 -0.1632  0.3867
  859MOL0     C18437  11.037  -0.114   9.276 -1.1678  0.6131 -0.7152
  859MOL0     C18438  11.165  -0.170   9.308  0.7594  0.0936  0.0548
  859MOL0     C18439  11.175  -0.282   9.387  0.4588 -0.5079 -0.6174
  859MOL0     O18440  11.299  -0.331   9.404 -0.5527 -0.2643 -0.4085
  859MOL0     C18441  11.318  -0.469   9.377 -0.6014 -0.1725  0.1393
  859MOL0     C18442  11.459  -0.517   9.358 -0.1150  0.6247  0.1388
  859MOL0     C18443  11.472  -0.675   9.324  1.1704  0.0218  0.0327
  859MOL0     C18444  11.616  -0.719   9.304 -1.0425 -0.4978 -0.9326
  859MOL0     C18445  11.633  -0.852   9.235  0.2216 -0.4681  0.4738
  859MOL0     C18446  11.586  -0.974   9.321  0.0628 -0.4457 -0.8555
  859MOL0     C18447  11.682  -1.012   9.431  0.2438  0.0559  0.6534
  859MOL0     C18448  11.649  -1.132   9.507 -0.4504  0.0064  0.6253
  859MOL0    Cl18449  11.470  -1.118   9.578  0.1728  0.5017 -0.0896
  859MOL0     C18450  11.056  -0.337   9.448 -0.7742 -0.1663  0.2437
  859MOL0     C18451  10.938  -0.291   9.412  0.3358 -0.3283  1.3214
  859MOL0     O18452  10.832  -0.076   9.082 -0.6306 -0.6681  0.0286
  859MOL0     C18453  10.562   0.029   9.087  0.0027  0.7916  0.3538
  859MOL0     C18454  10.430   0.040   9.060 -0.4186  0.8001  0.2847
  859MOL0     N18455   9.710  -0.054   9.465  0.2291  0.3880  0.2536
  859MOL0     N18456   9.611  -0.062   9.547  0.5254 -0.1840 -0.5785
  859MOL0     C18457   8.460   0.617   9.689 -0.2814 -0.7385  0.3413
  859MOL0     C18458   8.352   0.690   9.652 -0.0005 -0.2505  0.1369
  859MOL0     C18459   8.165   1.093   9.546 -0.6430  0.3348 -0.0818
  859MOL0     C18460   8.167   1.207   9.629  0.6108 -0.5294 -0.8051
  859MOL0     C18461   8.048   1.285   9.648 -0.6220 -0.9245 -0.3125
  859MOL0     C18462   7.934   1.259   9.577  0.3450  0.5905 -0.8038
  859MOL0     O18463   7.814   1.330   9.585  0.5234  0.1661 -0.4297
  859MOL0     C18464   7.798   1.449   9.656 -0.5918  0.5088 -0.2164
  859MOL0     C18465   7.858   1.581   9.592 -0.2638 -0.4968  0.3749
  859MOL0     C18466   7.844   1.588   9.440 -0.3219 -0.1665 -0.2234
  859MOL0     C18467   7.973   1.646   9.366  0.2163  0.3013 -0.0045
  859MOL0     C18468   8.089   1.556   9.396  0.7485 -0.3499  0.7109
  859MOL0     C18469   8.186   1.489   9.406  0.0066  0.2716 -1.1908
  859MOL0     C18470   7.930   1.150   9.491 -0.9563 -0.0760 -0.1933
  859MOL0     C18471   8.043   1.068   9.472 -0.1182  1.0554 -0.3514
  859MOL0     C18472   8.033   0.953   9.360 -0.4607  0.1602 -0.2576
  859MOL0     H18473   8.490   0.889   9.420 -1.6262  3.7951  3.5217
  859MOL0     H18474   8.684   0.728   9.459  1.2007  3.6162  1.6581
  859MOL0     H18475   8.833   0.575   9.547 -0.0419 -0.7946  0.8136
  859MOL0     H18476   8.730   0.477   9.436 -1.5935  0.7051  0.4060
  859MOL0     H18477   8.840   0.336   9.680  1.9826 -0.2640  0.3048
  859MOL0     H18478   8.814   0.274   9.505  0.4166 -0.6950 -0.6533
  859MOL0     H18479   8.986   0.449   9.455 -1.9041 -0.0670  1.1105
  859MOL0     H18480   9.037   0.440   9.622 -1.7828  1.9487  0.1372
  859MOL0     H18481   9.020   0.176   9.447 -1.1212  0.8466  1.4241
  859MOL0     H18482   9.167   0.274   9.458  0.1362 -1.4235 -0.2595
  859MOL0     H18483   8.984   0.159   9.667 -1.7912  1.5274 -3.7153
  859MOL0     H18484   9.131   0.215   9.725 -1.4938  0.5859  0.7713
  859MOL0     H18485   9.164  -0.010   9.715 -0.5451 -0.2110 -0.7383
  859MOL0     H18486   9.087  -0.036   9.557  1.9243 -2.1317 -0.2538
  859MOL0     H18487   9.359   0.115   9.601  0.1675 -1.8629  0.9987
  859MOL0     H18488   9.292   0.078   9.440 -1.1957  0.3023  0.4054
  859MOL0     H18489   9.387  -0.130   9.629 -0.4086 -0.3281 -0.2784
  859MOL0     H18490   9.307  -0.168   9.484  3.0012 -2.9150  1.9416
  859MOL0     H18491   9.454  -0.072   9.258 -0.2873  5.1822 -1.3279
  859MOL0     H18492   9.767   0.078   9.194  1.5845 -0.8145 -0.6541
  859MOL0     H18493   9.688  -0.062   9.120  0.2797 -0.8578  0.1969
  859MOL0     H18494   9.907  -0.102   9.323  0.2697 -3.2440  0.4736
  859MOL0     H18495   9.862  -0.213   9.194 -2.5066  0.2880 -1.1087
  859MOL0     H18496   9.951  -0.047   9.027  4.1101 -0.8249 -1.5327
  859MOL0     H18497   9.996   0.065   9.155  2.0679 -0.7934  1.6610
  859MOL0     H18498  10.139  -0.114   9.243 -1.0925 -0.9194  0.6624
  859MOL0     H18499  10.104  -0.213   9.095  3.0743 -1.1277  0.8156
  859MOL0     H18500  10.310  -0.236   9.221  1.1303 -1.9619 -1.5948
  859MOL0     H18501  10.593  -0.237   9.415  2.3015  0.9138 -1.8700
  859MOL0     H18502  10.614  -0.354   9.276 -0.4515 -0.6854 -0.0346
  859MOL0     H18503  10.459  -0.315   9.349 -0.6863  2.3883  0.6949
  859MOL0     H18504  11.019  -0.029   9.211 -0.7845 -1.1320 -3.2764
  859MOL0     H18505  11.247  -0.131   9.248  0.2208  0.4301 -0.4754
  859MOL0     H18506  11.265  -0.534   9.448 -1.7983  1.0352  0.3777
  859MOL0     H18507  11.268  -0.483   9.282  1.4753 -0.1293 -1.0235
  859MOL0     H18508  11.495  -0.454   9.276  0.8570  1.4367  1.1569
  859MOL0     H18509  11.515  -0.490   9.448 -2.0186 -0.6991  1.7849
  859MOL0     H18510  11.425  -0.682   9.226 -0.7711 -0.7965  0.9808
  859MOL0     H18511  11.416  -0.734   9.396  0.9583 -0.9698 -0.9165
  859MOL0     H18512  11.670  -0.715   9.399 -0.5179 -0.6061 -1.2277
  859MOL0     H18513  11.661  -0.635   9.250 -2.2098  1.3082  0.7357
  859MOL0     H18514  11.562  -0.843   9.153 -1.0857 -1.1671  1.4817
  859MOL0     H18515  11.737  -0.868   9.204 -0.3448 -3.7523 -0.0335
  859MOL0     H18516  11.573  -1.065   9.260  1.0876  0.0652 -1.8889
  859MOL0     H18517  11.489  -0.957   9.367  0.0605 -0.3831 -0.8826
  859MOL0     H18518  11.707  -0.931   9.500  0.5390  0.1767  0.4079
  859MOL0     H18519  11.777  -1.032   9.381  1.1500  1.3578  1.7942
  859MOL0     H18520  11.711  -1.141   9.596  0.5116  0.6776  0.0396
  859MOL0     H18521  11.660  -1.219   9.442  1.3998  1.4563 -1.1661
  859MOL0     H18522  11.057  -0.409   9.530 -1.8935  0.6086  0.9606
  859MOL0     H18523  10.847  -0.333   9.454  0.1242  1.2246  2.5019
  859MOL0     H18524  10.636   0.096   9.044  1.7758 -1.5346 -0.4390
  859MOL0     H18525  10.392   0.116   8.993 -3.1146 -1.4349 -0.9415
  859MOL0     H18526   8.446   0.549   9.773 -1.7963 -1.1199 -0.1802
  859MOL0     H18527   8.263   0.687   9.714  0.8738 -1.9323  1.4075
  859MOL0     H18528   8.245   1.226   9.701 -1.6538  1.9621  1.1998
  859MOL0     H18529   8.036   1.357   9.728 -0.8342 -1.5145  0.1881
  859MOL0     H18530   7.692   1.476   9.657 -0.1729  2.4859  2.4462
  859MOL0     H18531   7.834   1.435   9.759 -4.3560 -0.9891  1.1182
  859MOL0     H18532   7.965   1.575   9.615 -0.4011  1.0279  1.5838
  859MOL0     H18533   7.811   1.673   9.629 -1.6399 -0.3527 -1.6033
  859MOL0     H18534   7.814   1.491   9.399  0.8793  1.1135 -4.7127
  859MOL0     H18535   7.761   1.654   9.411  0.3735  1.1956  0.7429
  859MOL0     H18536   8.001   1.745   9.404  1.4424 -0.5346  1.3850
  859MOL0     H18537   7.959   1.640   9.258 -2.0781  2.0417  0.1252
  859MOL0     H18538   8.276   1.431   9.398  0.7758  1.3324 -0.4936
  859MOL0     H18539   7.850   1.114   9.428 -2.1061 -2.9500  2.6005
  859MOL0     H18540   7.992   0.861   9.403  2.1935 -2.4945 -2.9154
  859MOL0     H18541   7.971   0.993   9.280 -1.9934 -0.4822  0.5758
  859MOL0     H18542   8.132   0.923   9.325 -0.2056 -1.4561  1.6725
  860MOL0     O18543   3.834   9.028   2.764 -0.1754 -0.1411 -0.1521
  860MOL0     C18544   3.772   9.117   2.712  0.3211  0.2609  0.4054
  860MOL0     O18545   3.819   9.203   2.631  0.3395  0.3305  0.0598
  860MOL0     C18546   3.956   9.248   2.631  0.4352 -0.3807 -1.0191
  860MOL0     C18547   4.063   9.160   2.641  1.0676  0.3254  0.0753
  860MOL0     C18548   4.194   9.213   2.617  0.3905 -0.3558 -0.6941
  860MOL0     C18549   4.222   9.345   2.597 -0.4564 -0.2381  0.9021
  860MOL0     O18550   4.350   9.380   2.572 -0.2463 -0.0118 -0.7590
  860MOL0     C18551   4.380   9.511   2.627  0.6175  0.1498  0.6852
  860MOL0     C18552   4.537   9.537   2.648  0.6037 -0.0282 -0.6988
  860MOL0     C18553   4.630   9.520   2.527 -0.4128 -0.4792 -0.9929
  860MOL0     C18554   4.735   9.423   2.563 -0.1688 -0.2360 -0.0570
  860MOL0     C18555   4.824   9.393   2.445  0.9029  0.0174  0.5140
  860MOL0     C18556   4.896   9.517   2.389 -0.0858  0.0983  0.5572
  860MOL0     C18557   5.013   9.485   2.300  0.6965 -0.7504  0.5398
  860MOL0     C18558   5.114   9.605   2.289  0.0762  0.2298 -0.0319
  860MOL0     N18559   5.063   9.720   2.222  0.0095 -0.5408 -0.1553
  860MOL0     C18560   4.991   9.822   2.284  0.1458 -0.2303 -0.0684
  860MOL0     C18561   4.971   9.919   2.187  0.6714  0.3324  0.8033
  860MOL0     C18562   4.917  10.057   2.210 -0.2141  0.2055 -0.3560
  860MOL0     C18563   4.810  10.090   2.104 -0.2112  0.5684 -0.2694
  860MOL0     C18564   4.666  10.140   2.163 -0.5960 -0.4067 -0.2562
  860MOL0     C18565   4.578  10.192   2.050  0.3608 -0.2095 -0.2290
  860MOL0     O18566   4.466  10.256   2.104 -0.3651  0.4011  0.4383
  860MOL0     C18567   4.359  10.272   2.024  0.2989 -0.0416 -0.1406
  860MOL0     C18568   4.236  10.284   2.090  0.2455  0.7694  0.0326
  860MOL0     C18569   4.115  10.302   2.022 -0.0498  0.4977 -0.2563
  860MOL0     C18570   3.997  10.290   2.109  0.3064 -0.2242 -0.9510
  860MOL0     C18571   4.112  10.315   1.883 -0.1539  0.0549  0.1464
  860MOL0     C18572   3.998  10.333   1.801 -0.6750  0.4398 -0.8728
  860MOL0     O18573   3.995  10.282   1.674  0.5554  0.4675 -0.5680
  860MOL0     C18574   3.883  10.290   1.592  0.1083  0.0209 -0.0791
  860MOL0     C18575   3.884  10.319   1.459  0.2946  0.4860  0.8643
  860MOL0     C18576   3.773  10.332   1.370  0.2106 -0.3295 -0.3841
  860MOL0     C18577   3.650  10.315   1.426  0.2774  0.6795 -0.2342
  860MOL0     O18578   3.541  10.297   1.349  0.5805 -0.6767  0.2119
  860MOL0     C18579   3.540  10.321   1.212  0.4037  0.6182  1.0853
  860MOL0     C18580   3.395  10.331   1.162 -0.2093  0.6259 -0.4467
  860MOL0     C18581   3.335  10.191   1.120  0.6727 -0.0853 -0.5814
  860MOL0     C18582   3.187  10.186   1.078 -0.4374  0.2631 -0.1989
  860MOL0     C18583   3.080  10.250   1.179 -0.3292 -0.5704 -0.1433
  860MOL0     C18584   2.939  10.244   1.134  0.1499  0.4507  0.1115
  860MOL0     C18585   2.898  10.321   1.003 -0.6531 -0.1265  0.1876
  860MOL0     C18586   2.748  10.335   0.969 -0.6130 -0.3528 -0.9344
  860MOL0    Cl18587   2.658  10.398   1.116  0.0099 -0.5047 -0.4165
  860MOL0     C18588   3.641  10.285   1.563 -0.0215  0.5656 -0.1745
  860MOL0     C18589   3.754  10.268   1.645 -0.3119  0.0366 -0.4425
  860MOL0     O18590   3.903  10.402   1.849  0.1948 -0.3119 -0.4023
  860MOL0     C18591   4.237  10.306   1.818 -0.9290 -0.3306  0.3648
  860MOL0     C18592   4.358  10.283   1.891  0.4738  0.1755  0.1607
  860MOL0     N18593   5.001   9.857   2.063 -0.0902  0.0118 -0.3985
  860MOL0     N18594   5.057   9.739   2.083 -0.2447 -0.3491 -0.2486
  860MOL0     C18595   4.113   9.433   2.596  0.1726  0.0734 -0.1928
  860MOL0     C18596   3.982   9.386   2.615  0.2499 -0.1382  0.1955
  860MOL0     C18597   3.628   9.127   2.738  0.2141 -0.3543  0.1669
  860MOL0     C18598   3.564   9.244   2.702  0.2137 -0.6783  0.6293
  860MOL0     C18599   3.424   9.254   2.730 -0.9951 -0.5094 -0.7432
  860MOL0     C18600   3.356   9.158   2.807  0.5660 -0.1147 -0.5426
  860MOL0     O18601   3.225   9.178   2.850 -0.1606 -0.0743 -1.0608
  860MOL0     C18602   3.153   9.288   2.797 -0.1970 -0.7252 -0.4815
  860MOL0     C18603   3.007   9.295   2.853 -1.1339 -0.3470  1.0271
  860MOL0     C18604   2.901   9.184   2.818  0.3816  0.5448  0.5328
  860MOL0     C18605   2.767   9.218   2.881 -0.5747  0.5494 -0.3379
  860MOL0     C18606   2.668   9.111   2.868  0.5050 -0.7599 -0.0227
  860MOL0     C18607   2.580   9.032   2.849 -0.6101  0.2324 -0.2115
  860MOL0     C18608   3.423   9.050   2.848  0.6940 -0.6032 -0.9888
  860MOL0     C18609   3.556   9.027   2.802  0.2741  0.6532  0.2609
  860MOL0     C18610   3.608   8.891   2.838  0.6189  0.0549  0.6765
  860MOL0     H18611   4.056   9.053   2.659  1.7002  0.5510  1.9064
  860MOL0     H18612   4.282   9.150   2.626  0.9316  0.4723  0.0651
  860MOL0     H18613   4.330   9.517   2.724  0.9087 -1.8613  1.0117
  860MOL0     H18614   4.340   9.583   2.554  0.2341 -1.2452 -0.5372
  860MOL0     H18615   4.555   9.636   2.690  0.6227 -0.1663 -0.3821
  860MOL0     H18616   4.566   9.463   2.722  1.6296  1.6732  0.6598
  860MOL0     H18617   4.583   9.496   2.431  1.5060 -2.6740 -1.4579
  860MOL0     H18618   4.673   9.620   2.517  0.2020 -0.9151 -2.9364
  860MOL0     H18619   4.800   9.467   2.640 -0.4270 -0.0796  0.0749
  860MOL0     H18620   4.680   9.339   2.606 -2.1296  1.4372  0.8728
  860MOL0     H18621   4.769   9.348   2.361  0.2597  3.6799 -1.2227
  860MOL0     H18622   4.897   9.320   2.480  1.5283  0.3578 -0.0593
  860MOL0     H18623   4.824   9.583   2.340  0.1174  1.2618  1.7833
  860MOL0     H18624   4.936   9.570   2.476  3.3096  0.1129 -0.8366
  860MOL0     H18625   4.977   9.477   2.197 -0.2033 -0.3395  0.8083
  860MOL0     H18626   5.063   9.390   2.323  0.0648 -1.5003 -1.0196
  860MOL0     H18627   5.140   9.632   2.391  0.5062  0.4859 -0.2080
  860MOL0     H18628   5.203   9.577   2.230 -0.6377  2.7024 -2.4936
  860MOL0     H18629   4.966   9.827   2.390  0.8729 -0.0707  0.1032
  860MOL0     H18630   4.993  10.135   2.222 -1.2318  0.9092  2.2722
  860MOL0     H18631   4.873  10.053   2.311 -0.0454  2.0043 -0.1735
  860MOL0     H18632   4.853  10.164   2.036  1.4003 -0.0747  0.0222
  860MOL0     H18633   4.795  10.000   2.044  1.1276 -1.1315  1.8105
  860MOL0     H18634   4.625  10.053   2.215  4.5568 -2.0115  1.8788
  860MOL0     H18635   4.704  10.212   2.237  0.6081 -0.0369 -1.2037
  860MOL0     H18636   4.635  10.263   1.990 -1.8577  2.3599  0.4956
  860MOL0     H18637   4.536  10.111   1.990 -1.0339 -0.3880  0.9489
  860MOL0     H18638   4.235  10.275   2.198  0.7609  2.2117  0.1756
  860MOL0     H18639   3.996  10.214   2.187 -2.7735  0.1041 -0.5238
  860MOL0     H18640   3.908  10.264   2.051 -1.9958  4.2307  0.0959
  860MOL0     H18641   3.977  10.389   2.152  0.2882 -0.9941  0.8657
  860MOL0     H18642   3.984  10.339   1.419 -1.1884  0.7185 -3.1713
  860MOL0     H18643   3.785  10.360   1.266  1.0185  0.0729 -0.1829
  860MOL0     H18644   3.582  10.420   1.193  0.3460  1.0201  2.9045
  860MOL0     H18645   3.594  10.251   1.147 -1.2930  1.0217 -0.8769
  860MOL0     H18646   3.334  10.356   1.250 -2.4615  3.7282 -2.6560
  860MOL0     H18647   3.394  10.417   1.093  0.6000  1.1730  0.2112
  860MOL0     H18648   3.348  10.128   1.209 -0.2190 -0.5831 -0.7933
  860MOL0     H18649   3.403  10.160   1.040 -0.0178  0.4545 -1.3960
  860MOL0     H18650   3.161  10.084   1.049  0.9656 -0.1609 -0.0340
  860MOL0     H18651   3.176  10.240   0.984  2.4948 -0.5047 -1.0847
  860MOL0     H18652   3.083  10.195   1.273  0.4133 -0.1560  0.0825
  860MOL0     H18653   3.100  10.356   1.198 -1.5991 -0.3413 -0.0339
  860MOL0     H18654   2.882  10.277   1.221 -4.1158  1.5386 -2.7287
  860MOL0     H18655   2.923  10.140   1.102 -3.4440  1.4704 -2.0412
  860MOL0     H18656   2.941  10.285   0.909  0.6802  2.7718 -0.4396
  860MOL0     H18657   2.929  10.426   1.014  1.4868 -0.6116 -0.7354
  860MOL0     H18658   2.715  10.231   0.957  0.7211 -0.9872  0.5204
  860MOL0     H18659   2.720  10.416   0.901 -3.3675  1.4228  2.0501
  860MOL0     H18660   3.543  10.272   1.609 -0.3560 -0.0855 -1.0500
  860MOL0     H18661   3.740  10.238   1.748 -1.6958  2.1090  0.0329
  860MOL0     H18662   4.230  10.310   1.710  1.1730  0.1026  0.1990
  860MOL0     H18663   4.451  10.289   1.837 -0.7106  1.7774 -1.8680
  860MOL0     H18664   4.117   9.540   2.578 -1.4303  0.7541  2.7778
  860MOL0     H18665   3.904   9.461   2.620  0.1600 -0.3213  2.4835
  860MOL0     H18666   3.613   9.331   2.660  1.7730  0.6499  4.7210
  860MOL0     H18667   3.380   9.348   2.699  0.8428  0.9482  0.7857
  860MOL0     H18668   3.201   9.382   2.825 -3.6013  1.6796 -1.9654
  860MOL0     H18669   3.150   9.282   2.688 -4.4686  3.0272 -0.8787
  860MOL0     H18670   2.966   9.384   2.804  0.6764  1.2475  2.2398
  860MOL0     H18671   3.005   9.308   2.962 -2.6898 -0.0830  0.9956
  860MOL0     H18672   2.890   9.180   2.709  0.3187 -2.1175  0.5575
  860MOL0     H18673   2.939   9.087   2.852 -0.0125  0.7028  1.4423
  860MOL0     H18674   2.729   9.312   2.838 -2.2331  0.2099  0.2904
  860MOL0     H18675   2.785   9.236   2.987 -0.1778  0.4904 -0.3942
  860MOL0     H18676   2.505   8.957   2.830  0.6605 -1.4142  1.0130
  860MOL0     H18677   3.361   8.976   2.898 -0.4151  1.8647  1.5405
  860MOL0     H18678   3.523   8.822   2.841 -0.7007  1.5961  0.2541
  860MOL0     H18679   3.678   8.848   2.765  1.1187  0.9937  0.5846
  860MOL0     H18680   3.644   8.885   2.941 -0.0752  1.4154  1.0240
  861MOL0     O18681   1.855   5.961   2.166 -0.0633  0.2634 -0.9002
  861MOL0     C18682   1.857   6.007   2.046  0.3581 -0.5575 -0.4216
  861MOL0     O18683   1.962   5.973   1.959  0.7306 -0.3613  0.5646
  861MOL0     C18684   2.086   5.942   2.008  0.0315  0.0956  0.3737
  861MOL0     C18685   2.158   5.857   1.922  0.0529  0.7429  0.1339
  861MOL0     C18686   2.287   5.819   1.963  0.7217 -0.8532 -0.4458
  861MOL0     C18687   2.360   5.878   2.067  0.4898 -0.2929 -0.4636
  861MOL0     O18688   2.493   5.887   2.057 -0.0211 -0.1847 -0.0024
  861MOL0     C18689   2.556   5.806   2.157 -0.3298 -0.0583  0.0268
  861MOL0     C18690   2.708   5.776   2.122 -0.2845 -0.1010  0.1965
  861MOL0     C18691   2.772   5.698   2.236 -0.0626  0.2543  0.2665
  861MOL0     C18692   2.881   5.762   2.331  0.0645  0.4253 -0.4125
  861MOL0     C18693   3.002   5.796   2.250 -0.1885 -0.1193 -0.4217
  861MOL0     C18694   3.128   5.805   2.341  0.2119 -0.2174  0.3055
  861MOL0     C18695   3.253   5.798   2.253 -0.4817 -0.2615 -0.2319
  861MOL0     C18696   3.384   5.796   2.339 -0.7410 -0.3219  0.4217
  861MOL0     N18697   3.398   5.688   2.429 -0.8686 -0.5368 -0.4114
  861MOL0     C18698   3.397   5.702   2.568 -0.7457 -0.2706 -0.6335
  861MOL0     C18699   3.357   5.581   2.621 -0.0655  0.8938  0.3170
  861MOL0     C18700   3.356   5.534   2.763  0.1102 -0.6432  0.0753
  861MOL0     C18701   3.478   5.569   2.843 -0.3224  0.4418 -0.2603
  861MOL0     C18702   3.620   5.506   2.815  0.0814 -0.1376 -0.3193
  861MOL0     C18703   3.660   5.505   2.666  0.1789  1.0201 -0.4213
  861MOL0     O18704   3.683   5.635   2.616  0.5137 -0.2862  0.3878
  861MOL0     C18705   3.708   5.668   2.484  0.0476 -0.1315 -0.2885
  861MOL0     C18706   3.743   5.803   2.466  0.1090  0.7042  0.0133
  861MOL0     C18707   3.761   5.858   2.336  1.0922 -0.2724  0.1944
  861MOL0     C18708   3.812   6.006   2.341  1.0119 -0.3917  0.0615
  861MOL0     C18709   3.745   5.779   2.220  0.8928  0.0363 -0.5315
  861MOL0     C18710   3.771   5.826   2.081 -0.1092  0.4344 -0.1894
  861MOL0     O18711   3.871   5.914   2.067 -0.2995  0.3476  0.4716
  861MOL0     C18712   3.876   5.977   1.943  0.4015  0.3169  0.3564
  861MOL0     C18713   3.993   5.993   1.865  0.0202 -0.1199 -0.5969
  861MOL0     C18714   3.988   6.058   1.741  1.3910 -0.9787 -0.1778
  861MOL0     C18715   3.871   6.110   1.690 -0.6973 -0.2295 -0.2804
  861MOL0     O18716   3.876   6.194   1.585 -0.2898 -0.3422 -0.0963
  861MOL0     C18717   3.780   6.187   1.483  0.3262  0.0552 -0.1864
  861MOL0     C18718   3.789   6.308   1.395 -0.3551  0.1746 -0.0941
  861MOL0     C18719   3.735   6.436   1.457 -0.1323 -0.3921  0.2168
  861MOL0     C18720   3.591   6.442   1.485  0.4069  0.4255  0.0990
  861MOL0     C18721   3.536   6.572   1.538  0.0572 -0.4406  0.2107
  861MOL0     C18722   3.380   6.587   1.563  0.3613 -0.1016 -0.2287
  861MOL0     C18723   3.307   6.588   1.432 -0.8338 -0.4211 -0.4782
  861MOL0     C18724   3.160   6.577   1.446 -0.1959  0.9245 -0.6921
  861MOL0    Cl18725   3.096   6.738   1.519  0.3446  0.3951  0.2659
  861MOL0     C18726   3.758   6.076   1.758  0.4395  0.6393  0.3070
  861MOL0     C18727   3.757   6.019   1.879 -0.7770  0.8934 -0.6813
  861MOL0     O18728   3.706   5.773   1.993 -0.3323  0.2674  0.1900
  861MOL0     C18729   3.706   5.645   2.248  0.2477  0.0460 -0.5602
  861MOL0     C18730   3.685   5.589   2.374 -0.8852  0.7063  0.4776
  861MOL0     N18731   3.339   5.497   2.513  0.9250  0.6779  0.1444
  861MOL0     N18732   3.345   5.560   2.401 -0.3216 -0.4270 -0.3492
  861MOL0     C18733   2.279   5.966   2.146 -0.5034  0.0862 -0.2099
  861MOL0     C18734   2.142   5.996   2.120  0.0871 -0.0339  0.4709
  861MOL0     C18735   1.734   6.084   1.991 -0.0592  0.1195  0.3301
  861MOL0     C18736   1.705   6.079   1.850 -0.1504  0.2138 -0.4761
  861MOL0     C18737   1.588   6.150   1.801 -1.1634  0.8513 -0.2208
  861MOL0     C18738   1.512   6.231   1.890  0.7776  0.5893  0.4512
  861MOL0     O18739   1.402   6.302   1.857 -0.4315  0.4591  0.5678
  861MOL0     C18740   1.332   6.273   1.739 -1.1181 -0.6586  0.1591
  861MOL0     C18741   1.207   6.362   1.729  0.0160  0.4257 -0.8723
  861MOL0     C18742   1.167   6.374   1.583 -0.3640  0.2608  0.4828
  861MOL0     C18743   1.054   6.479   1.559 -0.7553  0.1328  0.6566
  861MOL0     C18744   0.926   6.418   1.597 -0.9907 -0.5688  1.3289
  861MOL0     C18745   0.828   6.372   1.653 -0.2598  0.1464 -0.0263
  861MOL0     C18746   1.542   6.229   2.023  0.2991 -0.3416  0.3123
  861MOL0     C18747   1.653   6.172   2.073 -0.7576  0.0254 -0.2613
  861MOL0     C18748   1.681   6.197   2.230  0.3534  0.5113  0.1219
  861MOL0     H18749   2.105   5.802   1.845  2.1340 -1.0728 -0.1070
  861MOL0     H18750   2.343   5.761   1.890 -1.2594 -0.7197 -2.1601
  861MOL0     H18751   2.508   5.707   2.163 -0.2061 -0.1427 -0.3436
  861MOL0     H18752   2.540   5.852   2.255 -0.8896  0.7392 -0.4219
  861MOL0     H18753   2.711   5.725   2.026 -1.3991  1.8184 -0.9247
  861MOL0     H18754   2.752   5.873   2.095  0.1751 -0.2773  0.3005
  861MOL0     H18755   2.691   5.664   2.303  0.2374 -0.8390  0.1041
  861MOL0     H18756   2.810   5.604   2.195 -1.5434  0.8479 -2.7529
  861MOL0     H18757   2.831   5.844   2.383  1.4124  0.3911  1.0239
  861MOL0     H18758   2.909   5.690   2.408  1.4623  1.2301 -0.1298
  861MOL0     H18759   2.974   5.884   2.190  2.0455  0.3024 -0.9367
  861MOL0     H18760   3.027   5.713   2.182  5.4894  0.7215  0.1647
  861MOL0     H18761   3.124   5.899   2.397  0.9171 -0.5337  0.9064
  861MOL0     H18762   3.118   5.727   2.417  0.0959 -1.5421 -1.0213
  861MOL0     H18763   3.249   5.890   2.194 -1.3007 -0.5414 -0.6150
  861MOL0     H18764   3.240   5.707   2.194  1.4232  0.1816 -1.4497
  861MOL0     H18765   3.463   5.783   2.265  0.2105  0.9805  1.1614
  861MOL0     H18766   3.404   5.887   2.397 -0.9219  2.5496 -3.6215
  861MOL0     H18767   3.399   5.798   2.618 -2.4476  0.2035 -1.3803
  861MOL0     H18768   3.334   5.427   2.764 -0.1767 -0.6174  2.5240
  861MOL0     H18769   3.277   5.588   2.816  0.3413 -1.3410  1.1504
  861MOL0     H18770   3.485   5.678   2.852  1.5462  0.2235  1.6381
  861MOL0     H18771   3.454   5.530   2.942  2.6513 -0.4861  0.2147
  861MOL0     H18772   3.701   5.554   2.871 -0.5214  0.7396 -0.1818
  861MOL0     H18773   3.611   5.402   2.847 -3.6043 -0.4998 -2.0294
  861MOL0     H18774   3.757   5.454   2.661 -0.8626 -0.9966 -1.0559
  861MOL0     H18775   3.581   5.449   2.615  0.8889  1.1433 -1.6850
  861MOL0     H18776   3.759   5.863   2.554 -0.1176  2.8143 -1.3226
  861MOL0     H18777   3.820   6.039   2.446 -1.0123 -0.6014  0.3195
  861MOL0     H18778   3.731   6.070   2.307  1.8166  0.6848  0.1013
  861MOL0     H18779   3.909   6.025   2.295  0.2043  0.9171 -1.1555
  861MOL0     H18780   4.085   5.960   1.912 -0.5451  0.7267  1.2019
  861MOL0     H18781   4.081   6.070   1.686  0.5172  0.6716 -1.4150
  861MOL0     H18782   3.780   6.095   1.423 -0.3987  0.3552 -0.6722
  861MOL0     H18783   3.678   6.191   1.522 -0.5210 -1.0962 -2.1351
  861MOL0     H18784   3.894   6.329   1.372  0.0709 -1.1921  0.4435
  861MOL0     H18785   3.743   6.294   1.297  2.2629  0.3518 -1.4446
  861MOL0     H18786   3.766   6.512   1.384  1.2346 -1.5839 -0.4881
  861MOL0     H18787   3.779   6.459   1.554 -0.8202  0.4022  0.3553
  861MOL0     H18788   3.569   6.365   1.560  0.4015 -0.0315 -0.3614
  861MOL0     H18789   3.533   6.425   1.393  0.6589 -1.6526  0.2623
  861MOL0     H18790   3.586   6.609   1.628  0.3280  1.7236 -0.7565
  861MOL0     H18791   3.551   6.637   1.451  0.6080 -1.0731 -0.1762
  861MOL0     H18792   3.363   6.680   1.618 -1.0509  0.4536 -1.5046
  861MOL0     H18793   3.346   6.510   1.632 -0.2489  1.6943  1.5614
  861MOL0     H18794   3.348   6.505   1.373  1.3080 -0.2553  0.6835
  861MOL0     H18795   3.332   6.681   1.380  1.9839 -0.5547  0.4800
  861MOL0     H18796   3.123   6.489   1.498 -1.1933  0.2050 -2.5336
  861MOL0     H18797   3.124   6.566   1.343 -2.3501  3.9349 -0.3957
  861MOL0     H18798   3.659   6.109   1.728  0.4112  0.4883  0.2288
  861MOL0     H18799   3.660   5.996   1.923  1.0914 -3.3117  1.8837
  861MOL0     H18800   3.668   5.582   2.168  3.3733 -0.1767 -2.0186
  861MOL0     H18801   3.648   5.488   2.375  1.0495 -0.0769 -0.7799
  861MOL0     H18802   2.309   6.017   2.237 -2.2036  1.8767 -0.5781
  861MOL0     H18803   2.091   6.056   2.195 -0.7735  1.6980 -1.4115
  861MOL0     H18804   1.760   6.024   1.776 -2.3705 -0.1303 -1.9848
  861MOL0     H18805   1.585   6.144   1.693 -2.0571  0.5938 -0.1919
  861MOL0     H18806   1.403   6.299   1.660 -0.9696  2.0274  1.0683
  861MOL0     H18807   1.310   6.166   1.730  0.2026 -0.9315  0.0008
  861MOL0     H18808   1.229   6.461   1.770 -4.9499  1.7744 -0.7982
  861MOL0     H18809   1.131   6.318   1.794  0.4265  0.6280 -0.2490
  861MOL0     H18810   1.258   6.405   1.532  0.4779 -1.3161  0.9643
  861MOL0     H18811   1.130   6.277   1.551  0.7452  0.1443 -0.4854
  861MOL0     H18812   1.046   6.492   1.450  0.1455 -0.2094  0.5417
  861MOL0     H18813   1.070   6.574   1.611 -1.0802  2.6231 -3.3336
  861MOL0     H18814   0.738   6.347   1.707 -0.4309  0.2242 -0.2704
  861MOL0     H18815   1.473   6.281   2.089 -2.2175  1.6234 -3.4757
  861MOL0     H18816   1.599   6.246   2.284  0.6208 -0.4867  1.5172
  861MOL0     H18817   1.677   6.099   2.279 -1.1361  0.2261 -0.5331
  861MOL0     H18818   1.778   6.235   2.264  0.5205 -1.7939  2.5697
  862MOL0     O18819   6.196   2.066   3.672  0.4206 -0.0668 -0.0218
  862MOL0     C18820   6.144   2.176   3.662  0.5369  0.2638 -0.2330
  862MOL0     O18821   6.010   2.191   3.643  0.2411  0.2938  0.7398
  862MOL0     C18822   5.941   2.070   3.609 -0.7612 -0.0656 -0.2018
  862MOL0     C18823   5.973   1.992   3.499  0.6950 -0.0829 -0.6714
  862MOL0     C18824   5.901   1.874   3.482 -0.0991  0.2042  0.6327
  862MOL0     C18825   5.795   1.837   3.572 -0.4368 -0.2071 -0.4817
  862MOL0     O18826   5.728   1.716   3.543  0.5412 -0.3837 -0.0494
  862MOL0     C18827   5.588   1.717   3.532 -0.6012  0.0450  0.1413
  862MOL0     C18828   5.540   1.578   3.483 -0.4643  0.5771 -0.2378
  862MOL0     C18829   5.605   1.456   3.548  0.1010 -0.0447 -0.9099
  862MOL0     C18830   5.529   1.411   3.680 -0.6610 -0.1342 -0.2794
  862MOL0     C18831   5.627   1.362   3.789  0.3015  0.9404 -0.7377
  862MOL0     C18832   5.690   1.224   3.757 -0.2353 -0.3935  0.9867
  862MOL0     C18833   5.803   1.169   3.853 -0.6445 -0.5896 -0.1046
  862MOL0     C18834   5.935   1.244   3.827 -0.0731 -0.2072 -0.1125
  862MOL0     N18835   6.042   1.185   3.901  0.1397  0.2116 -0.7889
  862MOL0     C18836   6.100   1.070   3.878 -0.3656  0.5531  0.6694
  862MOL0     C18837   6.210   1.066   3.954 -0.4679  0.1608 -0.3283
  862MOL0     C18838   6.293   0.941   3.964  1.1183  0.9134  0.5944
  862MOL0     C18839   6.231   0.837   4.047  0.3182 -0.4485 -0.0492
  862MOL0     C18840   6.326   0.719   4.087  0.4530  0.3237 -0.0108
  862MOL0     C18841   6.361   0.626   3.967  0.5603 -0.1497  0.4112
  862MOL0     O18842   6.460   0.529   4.004 -0.3562  0.2020 -0.1330
  862MOL0     C18843   6.435   0.459   4.123 -0.0796 -0.8380 -0.7392
  862MOL0     C18844   6.540   0.442   4.211 -0.6737 -0.2083 -0.3042
  862MOL0     C18845   6.525   0.373   4.330 -0.3981 -0.3000 -0.0826
  862MOL0     C18846   6.645   0.356   4.420 -0.1810  0.9737 -0.5701
  862MOL0     C18847   6.400   0.323   4.369 -0.4349  0.4774  0.0896
  862MOL0     C18848   6.363   0.273   4.502 -0.2192  0.5174 -0.6078
  862MOL0     O18849   6.249   0.208   4.514  0.5338 -0.9761 -0.1900
  862MOL0     C18850   6.193   0.178   4.639  0.9136 -0.5127  0.9768
  862MOL0     C18851   6.262   0.106   4.738  0.3543 -0.0558  0.5125
  862MOL0     C18852   6.207   0.100   4.868  0.4077  0.6457 -0.5380
  862MOL0     C18853   6.072   0.159   4.895  0.0797  1.7387  0.1048
  862MOL0     O18854   5.999   0.151   5.010 -0.1075  0.1095 -0.3827
  862MOL0     C18855   6.021   0.031   5.088  0.5626  0.4593 -0.5703
  862MOL0     C18856   5.947  -0.092   5.031 -0.6428  0.5621  0.2707
  862MOL0     C18857   5.806  -0.069   5.022 -0.1535  0.0731 -0.5941
  862MOL0     C18858   5.736  -0.200   5.005 -0.3158 -1.1002 -0.4442
  862MOL0     C18859   5.580  -0.174   5.013  0.0664  0.5933 -0.0797
  862MOL0     C18860   5.519  -0.317   5.008  0.6808 -0.2216 -0.7493
  862MOL0     C18861   5.374  -0.317   5.052  0.0657 -0.4229  0.0720
  862MOL0     C18862   5.299  -0.211   4.975  0.3109 -0.0408  0.6239
  862MOL0    Cl18863   5.117  -0.219   4.991 -0.1591  0.2799 -0.1737
  862MOL0     C18864   6.004   0.212   4.792 -0.2469  0.1392 -0.5423
  862MOL0     C18865   6.062   0.226   4.670 -0.1986 -0.6967 -0.0464
  862MOL0     O18866   6.438   0.302   4.599  0.3884  0.8383 -0.3526
  862MOL0     C18867   6.298   0.323   4.278 -0.1437  0.0049  0.7781
  862MOL0     C18868   6.316   0.391   4.153  0.0898 -0.0395  0.3157
  862MOL0     N18869   6.196   1.173   4.041 -0.5852  0.4332  1.5011
  862MOL0     N18870   6.098   1.243   4.014  0.1372 -0.6135  0.7103
  862MOL0     C18871   5.755   1.931   3.667 -0.5824  0.4621 -0.2083
  862MOL0     C18872   5.828   2.046   3.687 -0.5940 -0.4414  0.5238
  862MOL0     C18873   6.225   2.301   3.670 -0.2790 -0.8359 -0.5265
  862MOL0     C18874   6.164   2.425   3.631 -0.8079  0.6754 -0.1233
  862MOL0     C18875   6.235   2.548   3.637 -0.2813 -0.0034 -0.4218
  862MOL0     C18876   6.372   2.560   3.672  0.3712  0.7134  0.4390
  862MOL0     O18877   6.450   2.677   3.678 -0.0634  0.1326  0.0355
  862MOL0     C18878   6.390   2.791   3.622  0.2385 -0.7652  0.5275
  862MOL0     C18879   6.487   2.910   3.641  0.1991 -1.1672  0.2944
  862MOL0     C18880   6.630   2.891   3.578  0.0900  0.0252 -0.5334
  862MOL0     C18881   6.723   2.999   3.631 -0.3486  0.0523  0.4884
  862MOL0     C18882   6.838   3.018   3.545  0.0949  0.0065 -0.4100
  862MOL0     C18883   6.938   3.015   3.492 -0.5117 -0.5857 -0.1206
  862MOL0     C18884   6.429   2.441   3.697 -0.1123 -0.0088 -0.0001
  862MOL0     C18885   6.365   2.310   3.693  0.5551  0.2679 -0.1065
  862MOL0     C18886   6.443   2.194   3.729 -0.4029 -0.4702 -0.0208
  862MOL0     H18887   6.057   2.020   3.437 -1.7123  2.7003 -2.9879
  862MOL0     H18888   5.930   1.816   3.395  3.3060  0.9385  1.1214
  862MOL0     H18889   5.555   1.796   3.463  1.9361  2.6888  1.7170
  862MOL0     H18890   5.537   1.752   3.623 -0.5178  1.1182 -0.2101
  862MOL0     H18891   5.431   1.567   3.485 -0.5049 -0.2496 -3.3481
  862MOL0     H18892   5.583   1.572   3.383  0.7674  1.5320  0.2048
  862MOL0     H18893   5.597   1.368   3.484 -0.7741  0.3873 -1.4099
  862MOL0     H18894   5.711   1.468   3.570  0.5812 -1.5699 -2.2503
  862MOL0     H18895   5.478   1.498   3.722  0.4738  0.5351 -0.2433
  862MOL0     H18896   5.461   1.331   3.650  2.1766 -2.0023 -2.1894
  862MOL0     H18897   5.580   1.340   3.886  0.9190 -1.6386 -0.9804
  862MOL0     H18898   5.696   1.443   3.815 -2.0727  1.6181  5.0749
  862MOL0     H18899   5.607   1.156   3.776 -0.9565  0.2137  0.0981
  862MOL0     H18900   5.722   1.220   3.652  0.4159 -2.3360  1.2069
  862MOL0     H18901   5.830   1.065   3.829 -1.7872 -0.7189 -0.9169
  862MOL0     H18902   5.767   1.177   3.956 -0.6220 -1.6405 -0.0024
  862MOL0     H18903   5.949   1.259   3.720  0.0296  0.6909  0.0203
  862MOL0     H18904   5.920   1.346   3.864 -1.1605 -1.6678  3.9580
  862MOL0     H18905   6.078   0.997   3.801 -0.8691 -0.3949  1.6832
  862MOL0     H18906   6.387   0.955   4.019  0.5822  1.8547  1.2929
  862MOL0     H18907   6.309   0.901   3.863 -0.4051 -0.3587  0.8188
  862MOL0     H18908   6.204   0.895   4.136 -0.0769  1.9222 -1.6237
  862MOL0     H18909   6.134   0.806   4.007  0.5292 -1.6902  0.3374
  862MOL0     H18910   6.418   0.765   4.123  0.1587  0.1852  0.9444
  862MOL0     H18911   6.283   0.668   4.174  0.4262  0.5004  0.0783
  862MOL0     H18912   6.276   0.580   3.917  0.6609  0.7218 -0.6030
  862MOL0     H18913   6.405   0.688   3.888 -1.1496  3.7749  2.2639
  862MOL0     H18914   6.633   0.494   4.191 -0.1171 -0.8011  0.6893
  862MOL0     H18915   6.646   0.413   4.513  1.1439 -2.3905  1.6806
  862MOL0     H18916   6.733   0.384   4.361 -1.2510  2.2657 -1.6159
  862MOL0     H18917   6.648   0.252   4.453  0.5977  1.7697  2.0982
  862MOL0     H18918   6.366   0.081   4.722  1.6471  3.4425  2.3319
  862MOL0     H18919   6.268   0.059   4.948  2.2433  0.7009 -1.8278
  862MOL0     H18920   6.128   0.005   5.086  0.4583 -0.1806  0.7878
  862MOL0     H18921   6.005   0.039   5.196  2.5726  1.2037 -0.2758
  862MOL0     H18922   5.992  -0.126   4.937  0.2933 -0.4141  1.0434
  862MOL0     H18923   5.962  -0.169   5.108  0.4765  0.9635  0.4844
  862MOL0     H18924   5.788  -0.011   4.931 -0.4275  1.9717  0.6292
  862MOL0     H18925   5.771  -0.021   5.113  1.3899  2.0910 -0.9952
  862MOL0     H18926   5.766  -0.273   5.081  2.3805 -1.7321 -1.9772
  862MOL0     H18927   5.764  -0.235   4.905  3.2951 -0.5114  0.2401
  862MOL0     H18928   5.552  -0.128   5.108  1.1997 -0.5747  0.8706
  862MOL0     H18929   5.548  -0.117   4.925  0.0409  0.8100  0.0709
  862MOL0     H18930   5.561  -0.385   5.083 -1.5153 -0.1917  0.6162
  862MOL0     H18931   5.550  -0.352   4.909  4.6809 -0.4935  0.4098
  862MOL0     H18932   5.361  -0.299   5.159 -3.3491  4.1217 -0.7938
  862MOL0     H18933   5.328  -0.407   5.011 -1.6771  1.7852 -3.3221
  862MOL0     H18934   5.315  -0.217   4.867  1.8177 -0.4292  0.8510
  862MOL0     H18935   5.327  -0.111   5.010 -0.3712 -0.1498  1.5106
  862MOL0     H18936   5.906   0.258   4.803 -1.4193 -1.6949 -2.5102
  862MOL0     H18937   6.008   0.276   4.590  0.1651  2.2370  1.3944
  862MOL0     H18938   6.200   0.281   4.299  0.2717 -0.2472  2.3531
  862MOL0     H18939   6.240   0.402   4.077  3.3573  0.6318 -3.1177
  862MOL0     H18940   5.673   1.921   3.737  0.8494 -2.2576  1.2506
  862MOL0     H18941   5.822   2.109   3.775 -1.2845  1.9199 -1.1273
  862MOL0     H18942   6.066   2.415   3.586 -0.8512  1.1951 -0.1419
  862MOL0     H18943   6.176   2.634   3.607 -1.6236 -1.1623 -1.1962
  862MOL0     H18944   6.364   2.764   3.520 -0.5198  0.2345  0.4462
  862MOL0     H18945   6.297   2.816   3.673 -0.4295  1.1737 -1.4737
  862MOL0     H18946   6.499   2.917   3.750  1.9085  2.0091  0.0473
  862MOL0     H18947   6.448   2.999   3.591  1.3487 -2.3233 -2.8818
  862MOL0     H18948   6.674   2.803   3.627 -2.3120  0.4099  2.5901
  862MOL0     H18949   6.635   2.895   3.469  0.1112  0.5893 -0.5114
  862MOL0     H18950   6.754   2.970   3.732  3.0997 -0.9251 -0.6846
  862MOL0     H18951   6.669   3.093   3.616  1.9006  1.3549  0.0507
  862MOL0     H18952   7.036   3.031   3.451 -0.9784 -1.4311 -1.6418
  862MOL0     H18953   6.534   2.442   3.724 -0.2231  1.5263  0.4303
  862MOL0     H18954   6.421   2.127   3.646 -0.6321  1.8239 -1.9369
  862MOL0     H18955   6.549   2.220   3.722  0.8074 -4.8272 -0.5993
  862MOL0     H18956   6.411   2.153   3.825  0.8642  0.5848  0.8937
  863MOL0     O18957   5.808   1.752   2.853 -0.4408 -0.2172  0.0905
  863MOL0     C18958   5.725   1.824   2.807 -0.5866 -0.4649  0.2796
  863MOL0     O18959   5.754   1.943   2.748  0.6424 -0.4903  0.9209
  863MOL0     C18960   5.881   1.969   2.703  0.1024 -0.6414  0.1381
  863MOL0     C18961   5.926   2.100   2.718  0.0211  0.4780 -0.0539
  863MOL0     C18962   6.055   2.145   2.675  0.4839 -0.0953 -1.8941
  863MOL0     C18963   6.133   2.053   2.602 -0.1509  0.0226  0.1190
  863MOL0     O18964   6.266   2.087   2.590 -0.0061  0.5614 -0.3611
  863MOL0     C18965   6.359   1.999   2.530 -0.1325 -0.0143 -0.7825
  863MOL0     C18966   6.491   2.055   2.555 -0.0635  0.3630 -0.9071
  863MOL0     C18967   6.601   2.017   2.450 -0.2962  0.0845 -0.4016
  863MOL0     C18968   6.740   2.088   2.463 -0.0463 -0.2133  0.6364
  863MOL0     C18969   6.832   2.001   2.366  0.9971 -0.4260 -1.2342
  863MOL0     C18970   6.989   2.036   2.389 -0.3423 -0.3694  0.4172
  863MOL0     C18971   7.027   2.188   2.402  0.7910 -0.7327  1.1282
  863MOL0     C18972   7.172   2.233   2.409 -0.5432  0.1940 -0.6386
  863MOL0     N18973   7.182   2.377   2.402 -0.6338  0.2600  0.1997
  863MOL0     C18974   7.295   2.445   2.364 -0.9281  0.2721 -0.0936
  863MOL0     C18975   7.258   2.576   2.351 -0.5344 -0.2967  0.4201
  863MOL0     C18976   7.353   2.688   2.311 -0.2944 -0.1370  0.9840
  863MOL0     C18977   7.290   2.819   2.349  0.1576 -0.1309  0.1350
  863MOL0     C18978   7.375   2.934   2.299 -0.0337  0.6438  0.1660
  863MOL0     C18979   7.500   2.946   2.384  0.7555  0.3307  0.8860
  863MOL0     O18980   7.463   2.959   2.521  0.1565  0.3454  0.2663
  863MOL0     C18981   7.562   3.001   2.607  0.2009 -0.0815  0.8782
  863MOL0     C18982   7.544   2.984   2.743 -0.8263 -0.3548  0.9238
  863MOL0     C18983   7.632   3.017   2.845 -0.0451  0.7941  0.1316
  863MOL0     C18984   7.595   2.991   2.992  0.3831 -0.4990  0.4576
  863MOL0     C18985   7.759   3.069   2.809  0.3188 -0.3016  0.2321
  863MOL0     C18986   7.877   3.085   2.903 -0.3713 -0.2289 -0.4907
  863MOL0     O18987   7.990   3.109   2.835 -0.8560 -0.0460 -0.7977
  863MOL0     C18988   8.102   3.178   2.892  0.2263  0.2109  0.4267
  863MOL0     C18989   8.226   3.177   2.836 -0.6488 -0.5581  0.0811
  863MOL0     C18990   8.330   3.268   2.879  0.0665  0.2279 -0.2651
  863MOL0     C18991   8.301   3.365   2.972 -0.6622 -0.3784 -0.4862
  863MOL0     O18992   8.409   3.446   3.015  0.0764  0.2611  0.6939
  863MOL0     C18993   8.372   3.558   3.094  0.2915 -0.9287 -0.1307
  863MOL0     C18994   8.496   3.651   3.114  0.3254  0.7759 -0.1697
  863MOL0     C18995   8.613   3.590   3.208  0.3584 -0.1517 -0.5317
  863MOL0     C18996   8.721   3.698   3.248 -0.0273  0.1164 -0.1455
  863MOL0     C18997   8.849   3.647   3.312  0.5135 -0.3950 -0.0621
  863MOL0     C18998   8.941   3.764   3.345  0.0007 -0.4807 -0.3217
  863MOL0     C18999   9.070   3.718   3.404  0.5848 -0.1746  0.0650
  863MOL0     C19000   9.164   3.832   3.433 -0.1106  0.3517  0.1038
  863MOL0    Cl19001   9.182   3.946   3.290 -0.1313  0.6000 -0.1513
  863MOL0     C19002   8.177   3.368   3.027 -0.4760 -0.1061  0.7377
  863MOL0     C19003   8.081   3.278   2.984  0.6548  0.0204  0.3148
  863MOL0     O19004   7.860   3.063   3.020 -0.4786  0.3078 -0.4724
  863MOL0     C19005   7.780   3.090   2.672  0.4579 -0.7294 -0.3785
  863MOL0     C19006   7.683   3.071   2.576 -1.0336  0.3323  0.0735
  863MOL0     N19007   7.121   2.588   2.374 -0.7456 -0.0618 -0.2296
  863MOL0     N19008   7.080   2.468   2.408  0.4049 -0.0670  0.5040
  863MOL0     C19009   6.079   1.928   2.567 -0.3864  0.1685 -0.2575
  863MOL0     C19010   5.952   1.885   2.616  0.0367  0.7642  1.0479
  863MOL0     C19011   5.576   1.801   2.804 -0.3995  0.3105 -0.1435
  863MOL0     C19012   5.491   1.904   2.861  0.8623  0.0074 -0.8686
  863MOL0     C19013   5.352   1.887   2.847  0.4271  0.8034 -0.1767
  863MOL0     C19014   5.294   1.766   2.818 -0.3132  0.5451  0.2259
  863MOL0     O19015   5.158   1.753   2.804 -0.0735  0.2603  0.4659
  863MOL0     C19016   5.098   1.617   2.820 -0.6452  0.7180 -0.8339
  863MOL0     C19017   4.946   1.625   2.813  0.3651 -0.1400 -0.0441
  863MOL0     C19018   4.901   1.736   2.907  0.2202  0.0085 -0.3245
  863MOL0     C19019   4.750   1.732   2.943  0.2996 -0.0266 -0.5523
  863MOL0     C19020   4.703   1.640   3.059 -0.1643  0.0122  0.1021
  863MOL0     C19021   4.684   1.575   3.162 -0.8027 -0.2939  0.6027
  863MOL0     C19022   5.382   1.661   2.767 -0.3485 -0.9904 -0.4034
  863MOL0     C19023   5.523   1.674   2.768  0.0492  0.2616 -0.0099
  863MOL0     C19024   5.609   1.580   2.697 -0.7797  0.1069  0.6730
  863MOL0     H19025   5.855   2.162   2.773 -2.4110 -1.5802 -0.6881
  863MOL0     H19026   6.092   2.244   2.696 -1.3912  0.6795 -2.0209
  863MOL0     H19027   6.344   2.008   2.422 -4.2621  0.3159 -0.3391
  863MOL0     H19028   6.348   1.893   2.558 -2.4015  0.4624  0.3740
  863MOL0     H19029   6.487   2.165   2.556 -1.1647  0.5592  4.7794
  863MOL0     H19030   6.530   2.028   2.654 -0.6392  2.2790 -0.0995
  863MOL0     H19031   6.615   1.909   2.460  0.3630  0.0162 -1.8609
  863MOL0     H19032   6.555   2.040   2.353 -1.0226  1.0177  0.1399
  863MOL0     H19033   6.731   2.187   2.419 -2.6509  0.0738  1.6116
  863MOL0     H19034   6.774   2.094   2.567 -1.1209  3.0474  0.9260
  863MOL0     H19035   6.804   2.030   2.265  0.5099 -0.9127 -1.2404
  863MOL0     H19036   6.823   1.892   2.374  2.1456 -0.4361  0.8571
  863MOL0     H19037   7.026   1.981   2.476  2.9955  1.0862  0.0705
  863MOL0     H19038   7.037   1.994   2.301 -2.2785  0.6562 -1.2192
  863MOL0     H19039   6.971   2.243   2.479 -0.5005  0.5108 -0.6090
  863MOL0     H19040   6.982   2.235   2.314  3.0929 -0.2825  0.1391
  863MOL0     H19041   7.219   2.198   2.501  2.2550  3.8413 -0.4759
  863MOL0     H19042   7.233   2.198   2.325  0.0722 -0.6623  0.1494
  863MOL0     H19043   7.386   2.392   2.338 -0.2165  0.4185  1.8995
  863MOL0     H19044   7.383   2.677   2.206  1.1434 -0.7727  1.4452
  863MOL0     H19045   7.449   2.681   2.362  0.4107  2.7187  0.2256
  863MOL0     H19046   7.195   2.840   2.300 -0.6063 -0.1712  1.5663
  863MOL0     H19047   7.271   2.826   2.456 -1.4660 -0.0986 -0.1414
  863MOL0     H19048   7.393   2.918   2.192  0.1360  3.7720 -0.3717
  863MOL0     H19049   7.317   3.026   2.298 -0.1903  0.5413 -0.4732
  863MOL0     H19050   7.563   2.858   2.365  2.0220  1.6675 -1.7168
  863MOL0     H19051   7.542   3.045   2.364 -2.3915  2.2564  2.9821
  863MOL0     H19052   7.448   2.934   2.749 -1.6747 -0.2020 -5.0664
  863MOL0     H19053   7.656   2.908   3.029  2.6488  0.7897 -0.1880
  863MOL0     H19054   7.490   2.965   3.007 -0.1744  2.5266  2.9925
  863MOL0     H19055   7.615   3.081   3.051 -2.0750  0.6289 -0.2961
  863MOL0     H19056   8.244   3.115   2.749 -2.5605 -0.3384 -0.5287
  863MOL0     H19057   8.433   3.251   2.849  0.9523  1.4475  1.7992
  863MOL0     H19058   8.301   3.618   3.037 -0.4730 -0.3026  1.4357
  863MOL0     H19059   8.331   3.529   3.191  1.0247 -0.2060  0.4061
  863MOL0     H19060   8.528   3.671   3.011  0.4153  0.8835 -0.1209
  863MOL0     H19061   8.459   3.736   3.171 -2.0458 -0.8577  0.9000
  863MOL0     H19062   8.673   3.510   3.162  1.2888  0.4188 -0.3381
  863MOL0     H19063   8.576   3.544   3.300  0.8071  0.1157 -0.2143
  863MOL0     H19064   8.665   3.772   3.306 -0.0588 -1.6574  2.2342
  863MOL0     H19065   8.755   3.753   3.160  1.3996 -0.5280 -0.0406
  863MOL0     H19066   8.816   3.581   3.393 -0.1276  0.5366  0.4550
  863MOL0     H19067   8.907   3.577   3.251  0.9459 -2.3054  2.3534
  863MOL0     H19068   8.897   3.839   3.411 -0.9511 -0.1693 -1.2632
  863MOL0     H19069   8.960   3.807   3.246  1.2236  1.4709  0.7154
  863MOL0     H19070   9.123   3.652   3.335 -1.4272 -1.7298 -0.0824
  863MOL0     H19071   9.057   3.656   3.493  1.3715  2.2260  1.9387
  863MOL0     H19072   9.261   3.791   3.464  0.1193  1.0612  0.3444
  863MOL0     H19073   9.129   3.873   3.528 -0.1491 -0.6319  0.5317
  863MOL0     H19074   8.137   3.442   3.096 -0.4319  0.3321  0.2999
  863MOL0     H19075   7.980   3.294   3.022 -0.0177  0.5219 -1.5584
  863MOL0     H19076   7.874   3.127   2.632  0.7949 -2.7966 -1.6789
  863MOL0     H19077   7.693   3.095   2.471 -1.9679 -2.8907 -0.8672
  863MOL0     H19078   6.132   1.871   2.491  0.1652  0.0527  0.2054
  863MOL0     H19079   5.918   1.788   2.581  1.3661  1.2359 -1.7900
  863MOL0     H19080   5.542   1.991   2.899  0.1995  1.4165 -3.0572
  863MOL0     H19081   5.286   1.971   2.867  0.1902  1.7723 -4.1858
  863MOL0     H19082   5.138   1.539   2.755  0.6818  0.3519  0.3895
  863MOL0     H19083   5.133   1.584   2.918  0.1108 -0.8445 -1.6030
  863MOL0     H19084   4.913   1.530   2.854 -0.3020  0.2553  0.3518
  863MOL0     H19085   4.917   1.647   2.709  1.7138  0.0773 -0.3961
  863MOL0     H19086   4.966   1.744   2.995  1.0415  0.0210 -0.9234
  863MOL0     H19087   4.917   1.830   2.853  0.1896 -1.3100 -2.7872
  863MOL0     H19088   4.692   1.703   2.856 -2.1445 -2.2415  1.6472
  863MOL0     H19089   4.720   1.834   2.967 -0.6282 -0.4071 -0.0574
  863MOL0     H19090   4.653   1.531   3.255  1.0463  4.7928  4.0530
  863MOL0     H19091   5.354   1.565   2.726  2.5480 -2.4331  0.6861
  863MOL0     H19092   5.688   1.547   2.765  0.5033  0.4784 -0.5953
  863MOL0     H19093   5.551   1.501   2.649 -0.9770  1.1505 -0.8655
  863MOL0     H19094   5.658   1.627   2.611 -2.1620 -1.0774 -0.8198
  864MOL0     O19095   8.759   8.031   5.845  0.5198  0.7444 -0.4300
  864MOL0     C19096   8.706   7.938   5.906  0.4039 -0.5135  0.4477
  864MOL0     O19097   8.762   7.872   6.012 -0.0291 -0.4417 -0.7619
  864MOL0     C19098   8.865   7.919   6.090  0.6335  0.2453 -0.1988
  864MOL0     C19099   8.836   8.004   6.196  0.1145  0.5694  0.1945
  864MOL0     C19100   8.934   8.034   6.294  0.1346  0.1902  0.9784
  864MOL0     C19101   9.064   7.994   6.269 -0.0512  0.2535 -0.7454
  864MOL0     O19102   9.154   8.028   6.365 -0.4047 -0.3765 -0.5699
  864MOL0     C19103   9.293   8.042   6.324 -1.0282  0.2421  0.1299
  864MOL0     C19104   9.378   8.089   6.444 -0.1789 -0.0269 -0.7407
  864MOL0     C19105   9.532   8.073   6.448  0.5673 -0.8088  0.3175
  864MOL0     C19106   9.598   8.189   6.528 -0.0924 -0.4109  0.0619
  864MOL0     C19107   9.753   8.164   6.534 -0.5698 -0.3048 -0.7448
  864MOL0     C19108   9.828   8.290   6.586 -0.0649 -0.9122 -0.8373
  864MOL0     C19109   9.979   8.265   6.575  0.9149 -0.1706  0.4429
  864MOL0     C19110  10.060   8.392   6.609 -0.3957 -0.8202 -0.9782
  864MOL0     N19111  10.191   8.356   6.670  0.1106 -0.5981 -0.7792
  864MOL0     C19112  10.283   8.264   6.626 -0.3853  0.0718  0.1369
  864MOL0     C19113  10.371   8.271   6.728 -1.0369  0.6815  0.5542
  864MOL0     C19114  10.492   8.186   6.735 -0.2494  1.0168 -0.5210
  864MOL0     C19115  10.619   8.255   6.684  0.6477 -0.6464  0.7450
  864MOL0     C19116  10.628   8.254   6.525  0.0226 -0.2718 -0.6520
  864MOL0     C19117  10.755   8.304   6.477  0.8121  0.0893 -0.3018
  864MOL0     O19118  10.861   8.212   6.526 -0.2727  0.0713 -0.6115
  864MOL0     C19119  10.979   8.203   6.451  0.4921  0.3838 -0.0674
  864MOL0     C19120  11.000   8.250   6.321  0.6599  0.4601 -0.5975
  864MOL0     C19121  11.126   8.255   6.253 -0.4658 -0.0557 -0.7653
  864MOL0     C19122  11.135   8.302   6.109  0.3876 -0.3457 -1.2009
  864MOL0     C19123  11.238   8.204   6.331 -0.6934  0.5270 -0.3446
  864MOL0     C19124  11.373   8.211   6.284  0.1398 -0.0053 -0.1454
  864MOL0     O19125  11.455   8.120   6.342 -0.1177 -0.4162 -0.3213
  864MOL0     C19126  11.594   8.134   6.344 -0.8013  0.2282  0.2771
  864MOL0     C19127  11.666   8.023   6.387  0.1985  0.3103 -0.7506
  864MOL0     C19128  11.804   8.013   6.374 -0.0490 -0.2400 -0.3724
  864MOL0     C19129  11.876   8.135   6.328 -1.0263  0.4052  0.1459
  864MOL0     O19130  12.007   8.143   6.296  0.1227 -0.4238 -0.2055
  864MOL0     C19131  12.098   8.036   6.322  0.7392 -0.1086  0.0728
  864MOL0     C19132  12.181   8.050   6.449  0.3550 -0.8650 -0.3613
  864MOL0     C19133  12.262   7.927   6.479 -0.2391  0.1564  0.5305
  864MOL0     C19134  12.352   7.939   6.608  0.7011 -0.7477 -0.0264
  864MOL0     C19135  12.392   7.799   6.655  0.3042 -0.2985  0.7684
  864MOL0     C19136  12.471   7.704   6.563 -0.5178  0.4932  0.1479
  864MOL0     C19137  12.455   7.554   6.582 -1.0428 -0.3266 -0.1972
  864MOL0     C19138  12.555   7.461   6.520 -0.0432  0.4322 -0.0858
  864MOL0    Cl19139  12.708   7.446   6.614  0.1697 -0.3152 -0.3681
  864MOL0     C19140  11.803   8.247   6.300  0.1995 -0.5246  0.5990
  864MOL0     C19141  11.665   8.250   6.304 -0.0630 -0.2486 -0.6991
  864MOL0     O19142  11.406   8.291   6.197 -0.4249  0.2402  0.0709
  864MOL0     C19143  11.213   8.161   6.460 -0.1789  1.0900  0.4938
  864MOL0     C19144  11.083   8.155   6.521  0.1210  0.6035 -0.2750
  864MOL0     N19145  10.334   8.364   6.819  0.9245 -0.5500 -0.1802
  864MOL0     N19146  10.215   8.423   6.787  0.2617  0.4206  0.3963
  864MOL0     C19147   9.091   7.916   6.162 -0.9898 -0.1696 -0.3906
  864MOL0     C19148   8.997   7.872   6.074  0.1463 -0.9830  0.3157
  864MOL0     C19149   8.571   7.893   5.844 -0.3413 -0.0601  0.0221
  864MOL0     C19150   8.536   7.930   5.710  0.1504 -0.4381 -0.6386
  864MOL0     C19151   8.412   7.898   5.658  0.2868 -0.2308  0.8261
  864MOL0     C19152   8.325   7.814   5.723  0.5503 -0.4186 -0.0633
  864MOL0     O19153   8.204   7.799   5.658  0.4848  0.9537 -0.4231
  864MOL0     C19154   8.124   7.684   5.690  0.0648 -0.2694 -0.2244
  864MOL0     C19155   7.986   7.698   5.616  0.7721 -0.2202 -0.4520
  864MOL0     C19156   7.878   7.608   5.682  0.2796 -0.2955  0.2299
  864MOL0     C19157   7.746   7.593   5.595 -0.1547 -0.2216  0.0132
  864MOL0     C19158   7.695   7.727   5.564  0.1401  0.8009 -0.8244
  864MOL0     C19159   7.659   7.844   5.545 -0.4846 -0.1664 -0.2569
  864MOL0     C19160   8.363   7.761   5.847 -0.2448  0.5186 -0.9289
  864MOL0     C19161   8.475   7.806   5.913  0.3679 -0.3556 -0.2173
  864MOL0     C19162   8.495   7.756   6.056  0.4961  0.1330  0.0367
  864MOL0     H19163   8.736   8.037   6.222  0.4426  0.0134  2.4101
  864MOL0     H19164   8.899   8.061   6.393 -0.6827 -0.6521  0.9358
  864MOL0     H19165   9.306   8.121   6.249  1.9332  1.1843  1.5102
  864MOL0     H19166   9.330   7.946   6.286 -0.0835  1.8362 -3.3783
  864MOL0     H19167   9.354   8.194   6.460 -2.6278 -0.6756  0.4211
  864MOL0     H19168   9.337   8.043   6.535 -0.8724  0.2756 -0.8940
  864MOL0     H19169   9.561   7.981   6.499 -2.0063 -3.1712 -2.0839
  864MOL0     H19170   9.567   8.065   6.344 -0.5388  0.5459 -0.1990
  864MOL0     H19171   9.575   8.288   6.486  2.2692  0.4558  0.6108
  864MOL0     H19172   9.560   8.193   6.631  1.7286  2.9356  0.7621
  864MOL0     H19173   9.794   8.140   6.435 -3.4226  1.5489 -2.5226
  864MOL0     H19174   9.772   8.083   6.606 -0.6813  0.0489 -0.3168
  864MOL0     H19175   9.802   8.376   6.523  0.9820  1.3132  1.5484
  864MOL0     H19176   9.782   8.318   6.681 -1.6425 -0.0412 -1.8104
  864MOL0     H19177  10.000   8.240   6.470  2.0809  0.9152  0.3913
  864MOL0     H19178  10.002   8.173   6.631  1.2822  0.3536  1.1701
  864MOL0     H19179  10.080   8.452   6.520  4.0589 -2.8118 -1.6031
  864MOL0     H19180  10.016   8.456   6.685  0.2610  0.0046 -1.2805
  864MOL0     H19181  10.283   8.203   6.536 -1.3237  4.1627 -2.9813
  864MOL0     H19182  10.484   8.086   6.692  4.8553  1.1811 -2.5411
  864MOL0     H19183  10.511   8.166   6.840  2.9865 -1.1994 -1.3984
  864MOL0     H19184  10.642   8.355   6.721  3.7584 -2.0413  3.1181
  864MOL0     H19185  10.693   8.193   6.736  1.0449 -2.6812 -2.0096
  864MOL0     H19186  10.617   8.157   6.475  2.6514 -0.5234 -0.9009
  864MOL0     H19187  10.539   8.308   6.491 -1.1283 -0.5244  1.7422
  864MOL0     H19188  10.754   8.321   6.369 -0.5766  0.3933 -0.2622
  864MOL0     H19189  10.773   8.400   6.526 -1.1792 -0.5770  1.8837
  864MOL0     H19190  10.911   8.288   6.272  0.7923  4.6019  1.9200
  864MOL0     H19191  11.203   8.233   6.058  2.4623  1.6147 -1.2413
  864MOL0     H19192  11.160   8.409   6.104  0.5033 -0.4053 -2.0121
  864MOL0     H19193  11.036   8.301   6.062 -1.0004  0.0216  1.4830
  864MOL0     H19194  11.615   7.929   6.406  0.9029 -0.7993 -3.7650
  864MOL0     H19195  11.857   7.921   6.395  0.1945 -0.0812 -0.2756
  864MOL0     H19196  12.044   7.941   6.318  1.5165 -0.5549  0.1923
  864MOL0     H19197  12.177   8.039   6.246  0.3332  2.9445 -0.3459
  864MOL0     H19198  12.243   8.139   6.435 -0.3324 -0.0000  1.7502
  864MOL0     H19199  12.117   8.077   6.534  0.8723 -0.5971 -0.0533
  864MOL0     H19200  12.322   7.905   6.390  0.6700 -3.0666  1.7703
  864MOL0     H19201  12.196   7.842   6.500 -0.9091  0.9235  1.6180
  864MOL0     H19202  12.286   7.981   6.684  1.9404 -1.9696  1.8038
  864MOL0     H19203  12.442   8.000   6.592  0.8950 -1.1712 -0.6176
  864MOL0     H19204  12.446   7.800   6.750 -0.8540 -5.2869  1.7926
  864MOL0     H19205  12.292   7.760   6.675 -1.2007  1.7184 -2.1154
  864MOL0     H19206  12.578   7.719   6.581 -0.0093 -0.3678 -1.8216
  864MOL0     H19207  12.448   7.736   6.461  2.0527  1.4114 -0.2269
  864MOL0     H19208  12.358   7.524   6.542  0.0091 -3.8176 -0.5030
  864MOL0     H19209  12.455   7.540   6.691 -0.7336  2.6279  0.2669
  864MOL0     H19210  12.566   7.489   6.414  0.0718 -0.9477 -0.4611
  864MOL0     H19211  12.500   7.367   6.522 -0.5076  0.6751 -0.8855
  864MOL0     H19212  11.854   8.334   6.257 -1.8742  0.6446  0.3805
  864MOL0     H19213  11.623   8.346   6.274  3.1475  2.3359  2.1688
  864MOL0     H19214  11.298   8.150   6.527  1.2786  1.8224 -1.1662
  864MOL0     H19215  11.063   8.118   6.621  2.3096 -2.4584 -0.8167
  864MOL0     H19216   9.196   7.890   6.155  0.0354  2.3387  2.9293
  864MOL0     H19217   9.031   7.801   5.999  2.2833  0.8567 -0.5837
  864MOL0     H19218   8.588   7.999   5.643 -0.1619  0.8684  0.4328
  864MOL0     H19219   8.371   7.927   5.561 -0.0946 -4.4999 -0.4977
  864MOL0     H19220   8.165   7.587   5.658  0.0672 -0.3222 -0.0606
  864MOL0     H19221   8.103   7.675   5.797 -2.0588 -2.9400 -0.7486
  864MOL0     H19222   8.000   7.662   5.514 -0.7281 -0.9088 -0.4358
  864MOL0     H19223   7.952   7.802   5.608  0.8954 -0.3432 -3.4630
  864MOL0     H19224   7.926   7.515   5.714 -0.7265  0.2671  3.7513
  864MOL0     H19225   7.856   7.664   5.773 -0.2016  1.7525 -1.0717
  864MOL0     H19226   7.669   7.531   5.640  0.7176 -1.6863 -0.4636
  864MOL0     H19227   7.766   7.534   5.505  2.4165  0.7737 -0.1794
  864MOL0     H19228   7.625   7.943   5.523  1.2093 -0.0170 -2.5249
  864MOL0     H19229   8.294   7.698   5.903 -1.6767  1.7896 -1.2055
  864MOL0     H19230   8.584   7.696   6.078 -0.2730  0.2199  4.3580
  864MOL0     H19231   8.512   7.844   6.119  0.3597 -2.4804  4.0765
  864MOL0     H19232   8.404   7.704   6.086 -0.0921  1.1173  0.0080
  865MOL0     O19233   5.722   4.246   8.447  0.1001 -0.2655 -0.6449
  865MOL0     C19234   5.601   4.247   8.490  0.2298 -0.7433 -0.1115
  865MOL0     O19235   5.534   4.369   8.530 -0.6807  0.4007 -1.3263
  865MOL0     C19236   5.603   4.492   8.545 -0.3472  0.2414 -0.1550
  865MOL0     C19237   5.559   4.607   8.489  0.2743 -0.1925 -0.9423
  865MOL0     C19238   5.623   4.732   8.511 -0.2394 -0.7441  0.8453
  865MOL0     C19239   5.730   4.748   8.602  0.1802 -0.5321  0.3804
  865MOL0     O19240   5.807   4.855   8.613 -0.0800  0.0321  0.0785
  865MOL0     C19241   5.771   4.984   8.547  0.3126  1.3067 -0.0346
  865MOL0     C19242   5.852   5.102   8.600  0.5686 -0.6339  0.0457
  865MOL0     C19243   6.003   5.078   8.611 -0.1255  0.2140 -0.2138
  865MOL0     C19244   6.075   5.087   8.472 -0.3593 -0.6359  0.3375
  865MOL0     C19245   6.147   5.219   8.466  0.5594 -0.3753  0.0275
  865MOL0     C19246   6.249   5.216   8.350 -0.2139 -0.7544 -1.2176
  865MOL0     C19247   6.311   5.360   8.330  0.1026  0.0493 -0.7742
  865MOL0     C19248   6.450   5.356   8.267  0.2362 -0.1656 -0.1426
  865MOL0     N19249   6.544   5.320   8.376 -0.2124  0.0168 -0.2626
  865MOL0     C19250   6.586   5.394   8.483  0.2373  0.7036 -0.6323
  865MOL0     C19251   6.636   5.301   8.574 -0.2380 -0.2434  0.2152
  865MOL0     C19252   6.670   5.326   8.715  0.4106 -0.0041  0.4037
  865MOL0     C19253   6.553   5.287   8.816 -0.0392 -0.3696  0.4726
  865MOL0     C19254   6.406   5.331   8.788  0.5431 -0.7686 -0.7200
  865MOL0     C19255   6.378   5.479   8.814 -0.5258  0.4264  0.2149
  865MOL0     O19256   6.252   5.513   8.757  0.2109  0.3446  0.0208
  865MOL0     C19257   6.128   5.464   8.814 -0.7336  0.1201  0.0141
  865MOL0     C19258   6.016   5.494   8.748 -0.3690 -1.0184  0.7507
  865MOL0     C19259   5.885   5.438   8.779  0.3054  0.1810  0.0604
  865MOL0     C19260   5.772   5.464   8.680 -0.3156 -0.5132  0.1508
  865MOL0     C19261   5.874   5.363   8.899 -0.0292 -0.8880 -0.8690
  865MOL0     C19262   5.743   5.299   8.937 -0.0140 -0.3306 -0.9989
  865MOL0     O19263   5.758   5.201   9.037  0.8790  0.4995  0.3813
  865MOL0     C19264   5.651   5.116   9.058  0.5212 -0.2920  0.3264
  865MOL0     C19265   5.589   5.138   9.181  0.1558 -1.2991  0.0328
  865MOL0     C19266   5.495   5.051   9.232 -0.1409  0.8731  0.2797
  865MOL0     C19267   5.455   4.941   9.157  0.0628  0.4388 -0.2221
  865MOL0     O19268   5.358   4.857   9.217 -1.0894 -0.4064 -0.7007
  865MOL0     C19269   5.371   4.718   9.181  0.0493 -0.6788  0.8779
  865MOL0     C19270   5.243   4.662   9.124  0.0458  0.2993 -1.1947
  865MOL0     C19271   5.124   4.703   9.215 -0.7625 -0.4306  0.3277
  865MOL0     C19272   4.990   4.657   9.166  0.7639  0.8799 -0.1501
  865MOL0     C19273   4.944   4.502   9.173 -0.4376 -0.4577 -0.3238
  865MOL0     C19274   5.011   4.435   9.290  0.1383  0.5815  0.9154
  865MOL0     C19275   4.957   4.493   9.417 -0.1423 -0.0162  1.1143
  865MOL0     C19276   5.004   4.409   9.535 -0.7399 -0.2224 -0.1045
  865MOL0    Cl19277   5.185   4.400   9.537 -0.2850  0.4006 -0.3115
  865MOL0     C19278   5.521   4.921   9.035  0.1217  0.8826  0.0865
  865MOL0     C19279   5.629   5.005   8.985  0.3167  0.7079  0.3078
  865MOL0     O19280   5.636   5.337   8.890 -0.3020 -0.5859 -0.0613
  865MOL0     C19281   5.994   5.346   8.980  0.6763 -0.6181 -1.0954
  865MOL0     C19282   6.120   5.401   8.936 -0.0025  0.2140  0.3010
  865MOL0     N19283   6.648   5.185   8.507 -0.0117  0.0409 -0.3301
  865MOL0     N19284   6.595   5.194   8.384  0.0454  0.2506 -0.2713
  865MOL0     C19285   5.770   4.625   8.659  0.8009  0.2354 -0.8760
  865MOL0     C19286   5.711   4.504   8.631  0.7543  0.2710  0.5317
  865MOL0     C19287   5.521   4.128   8.527 -0.3742  0.7226 -0.0795
  865MOL0     C19288   5.385   4.135   8.523  1.0605  0.0449 -0.2711
  865MOL0     C19289   5.308   4.035   8.569  0.3678 -0.3545  0.7700
  865MOL0     C19290   5.360   3.914   8.600  0.1541 -0.2977 -0.1546
  865MOL0     O19291   5.266   3.819   8.635 -0.1681 -0.4816 -0.5566
  865MOL0     C19292   5.298   3.681   8.628  0.1228 -0.4899 -0.4722
  865MOL0     C19293   5.372   3.625   8.765  0.1191  0.3515  0.3748
  865MOL0     C19294   5.264   3.584   8.870 -0.2416  1.3567  0.1924
  865MOL0     C19295   5.211   3.442   8.841 -0.4247  0.2705 -0.2277
  865MOL0     C19296   5.155   3.382   8.961 -0.2999 -0.5705 -0.6911
  865MOL0     C19297   5.116   3.338   9.069  0.1237 -0.5495  0.2779
  865MOL0     C19298   5.497   3.887   8.584 -0.2811  0.1315 -0.1856
  865MOL0     C19299   5.579   3.997   8.546  0.1457 -0.6727 -0.0838
  865MOL0     C19300   5.729   3.974   8.559  0.5212 -0.6602 -0.4415
  865MOL0     H19301   5.461   4.615   8.442  0.4824 -2.1144 -1.8184
  865MOL0     H19302   5.596   4.821   8.455  1.4952 -0.1780  0.8225
  865MOL0     H19303   5.662   4.992   8.546  0.3157  1.3821  0.1993
  865MOL0     H19304   5.793   4.957   8.443 -1.8582 -1.4394  0.1095
  865MOL0     H19305   5.832   5.197   8.549  0.0063 -0.9239 -0.2721
  865MOL0     H19306   5.823   5.118   8.705 -0.7008  0.0716 -0.3968
  865MOL0     H19307   6.042   5.150   8.684 -4.2422  1.6294  0.8833
  865MOL0     H19308   6.016   4.972   8.635  2.9500  0.3889 -0.6889
  865MOL0     H19309   6.148   5.006   8.475  0.9128  0.4366 -0.2953
  865MOL0     H19310   6.006   5.067   8.389  0.1869 -0.4686 -0.1693
  865MOL0     H19311   6.203   5.227   8.560  1.6786 -2.8355 -0.3423
  865MOL0     H19312   6.073   5.298   8.456 -2.0992 -2.7431 -0.3402
  865MOL0     H19313   6.328   5.145   8.371 -1.6484 -2.2164 -0.5603
  865MOL0     H19314   6.199   5.193   8.255 -0.2829  1.3088 -1.7325
  865MOL0     H19315   6.321   5.417   8.423 -0.4178  0.1949 -0.7989
  865MOL0     H19316   6.249   5.424   8.266 -2.9161 -1.7630  0.1378
  865MOL0     H19317   6.457   5.278   8.190 -2.7193 -0.8774  0.1652
  865MOL0     H19318   6.473   5.455   8.228  0.3174 -1.3366 -3.3529
  865MOL0     H19319   6.566   5.500   8.491 -1.3770  0.5855 -2.4615
  865MOL0     H19320   6.696   5.432   8.718  0.4008  0.0440 -0.9010
  865MOL0     H19321   6.754   5.260   8.740 -0.9362 -2.7716 -1.8008
  865MOL0     H19322   6.538   5.179   8.809 -2.6016 -0.1390  1.2852
  865MOL0     H19323   6.580   5.303   8.921 -2.0311  1.7689  0.7321
  865MOL0     H19324   6.369   5.301   8.689  0.1323 -0.2642 -0.7184
  865MOL0     H19325   6.352   5.274   8.865  1.5289  3.2499  3.3445
  865MOL0     H19326   6.377   5.505   8.920  1.8215  1.1473  0.1239
  865MOL0     H19327   6.456   5.536   8.762 -2.8851  1.5674 -2.3303
  865MOL0     H19328   6.030   5.534   8.648  0.5556 -2.3533  0.3190
  865MOL0     H19329   5.720   5.373   8.648  0.6539 -1.1151  0.2571
  865MOL0     H19330   5.816   5.511   8.592  0.3705  1.6589  1.5968
  865MOL0     H19331   5.707   5.536   8.730  3.3570  1.4046  2.6231
  865MOL0     H19332   5.614   5.228   9.237  0.1832 -1.4536  0.2707
  865MOL0     H19333   5.436   5.062   9.323 -1.3869  1.9202 -0.6161
  865MOL0     H19334   5.457   4.703   9.115  0.2159 -0.5185  1.0566
  865MOL0     H19335   5.392   4.655   9.269 -0.7414 -1.5364  0.4735
  865MOL0     H19336   5.222   4.703   9.025 -2.1838 -1.9351 -1.7404
  865MOL0     H19337   5.243   4.553   9.123 -1.5012  0.2317  0.7611
  865MOL0     H19338   5.115   4.811   9.229 -2.2170 -0.6368  1.1222
  865MOL0     H19339   5.157   4.668   9.313  1.2131 -1.1729 -0.5366
  865MOL0     H19340   4.976   4.705   9.069  0.3540  3.1806  0.9744
  865MOL0     H19341   4.926   4.714   9.235 -0.1818  0.4521 -0.6532
  865MOL0     H19342   4.835   4.493   9.180 -0.7713  2.1590 -1.0271
  865MOL0     H19343   4.978   4.459   9.078 -1.6557  2.4390 -2.1961
  865MOL0     H19344   5.117   4.450   9.270 -0.2275 -0.4934 -2.4949
  865MOL0     H19345   5.001   4.326   9.290  1.3688  0.4533  1.8629
  865MOL0     H19346   4.850   4.476   9.409  0.2721 -2.2359 -0.8908
  865MOL0     H19347   4.975   4.601   9.420  0.0660  0.0185 -0.4872
  865MOL0     H19348   4.979   4.304   9.516  1.4356 -0.9331  0.6372
  865MOL0     H19349   4.971   4.436   9.636 -0.1556 -0.2968  0.1093
  865MOL0     H19350   5.493   4.839   8.970  2.8517 -0.8891  0.9997
  865MOL0     H19351   5.682   4.982   8.893  1.3171 -1.7933  1.4129
  865MOL0     H19352   5.990   5.292   9.074 -2.1322  0.1468 -0.7066
  865MOL0     H19353   6.209   5.365   8.988 -0.2622 -0.3027  0.3845
  865MOL0     H19354   5.847   4.613   8.734 -1.1229 -1.2138  1.0029
  865MOL0     H19355   5.741   4.413   8.683  0.8048  0.3307  0.6056
  865MOL0     H19356   5.332   4.223   8.488  0.1400 -1.5148 -3.1241
  865MOL0     H19357   5.204   4.065   8.582  0.9394  2.2437 -0.0995
  865MOL0     H19358   5.206   3.623   8.615  0.8059 -1.5836 -0.5391
  865MOL0     H19359   5.353   3.670   8.534  1.3027 -0.9351  0.2454
  865MOL0     H19360   5.432   3.707   8.804 -1.4691  0.8228  1.9374
  865MOL0     H19361   5.429   3.534   8.743 -1.8581 -1.5188  2.3859
  865MOL0     H19362   5.317   3.588   8.966 -1.1880  1.7023  0.7158
  865MOL0     H19363   5.189   3.663   8.878  1.2469  3.0090 -1.2039
  865MOL0     H19364   5.296   3.382   8.808  1.3632  1.8261  1.3274
  865MOL0     H19365   5.132   3.449   8.765 -1.9300  0.0363  1.2585
  865MOL0     H19366   5.084   3.287   9.158 -2.6447  1.5609  0.6546
  865MOL0     H19367   5.542   3.794   8.619  1.7463  0.6425 -1.3015
  865MOL0     H19368   5.743   3.877   8.608 -0.2037 -1.4516 -1.7137
  865MOL0     H19369   5.794   3.979   8.471  1.1748  1.2714  0.1055
  865MOL0     H19370   5.779   4.047   8.623 -1.8151 -0.0894  0.8559
  866MOL0     O19371   2.362   6.149   0.969  0.8065 -0.1104  0.3760
  866MOL0     C19372   2.421   6.235   1.030  0.2181  0.3823 -0.2700
  866MOL0     O19373   2.557   6.244   1.051 -0.1358  0.7181  0.6200
  866MOL0     C19374   2.652   6.160   0.991 -0.7872  1.0376  0.5647
  866MOL0     C19375   2.782   6.196   1.011 -0.3141 -0.9792  1.3838
  866MOL0     C19376   2.886   6.111   0.974  0.4088  0.0264 -0.6835
  866MOL0     C19377   2.867   5.987   0.917  0.9523 -0.3182  0.5891
  866MOL0     O19378   2.958   5.896   0.864  0.4554  0.0639 -0.0216
  866MOL0     C19379   3.096   5.939   0.856  1.0154 -0.6455 -0.1908
  866MOL0     C19380   3.156   5.861   0.738  0.8570  0.8177  0.3674
  866MOL0     C19381   3.302   5.891   0.709 -0.7866  0.3736 -0.8133
  866MOL0     C19382   3.378   5.776   0.641  0.5122  0.0811  0.9220
  866MOL0     C19383   3.519   5.819   0.580  0.0009  0.5834 -0.5260
  866MOL0     C19384   3.621   5.854   0.684  0.5476 -0.6782  0.6092
  866MOL0     C19385   3.760   5.891   0.616  0.1830  0.0527  0.3302
  866MOL0     C19386   3.849   5.969   0.702 -0.3184  0.1270  0.3573
  866MOL0     N19387   3.975   6.006   0.628  0.3691 -0.1030 -0.9246
  866MOL0     C19388   4.100   5.946   0.634 -0.2656  0.0742  0.2081
  866MOL0     C19389   4.178   6.006   0.540 -0.2595  0.4982  0.0016
  866MOL0     C19390   4.319   5.989   0.499  0.1786  0.3544 -0.7573
  866MOL0     C19391   4.409   5.937   0.618  0.6805  0.6382  0.6267
  866MOL0     C19392   4.428   6.031   0.743 -0.0748  0.2523 -0.6876
  866MOL0     C19393   4.483   5.951   0.877  0.0940 -0.0412  0.4926
  866MOL0     O19394   4.402   5.841   0.920  0.5140  0.1028  0.5077
  866MOL0     C19395   4.438   5.760   1.022  0.3001 -0.1624  0.5449
  866MOL0     C19396   4.333   5.675   1.051 -0.3273 -0.5897  0.7925
  866MOL0     C19397   4.340   5.579   1.145 -0.5759  0.2327  0.4868
  866MOL0     C19398   4.214   5.485   1.149  0.2440 -0.1308 -0.4268
  866MOL0     C19399   4.456   5.568   1.221  1.4275  0.2967  0.6188
  866MOL0     C19400   4.469   5.470   1.334 -0.5531 -0.4443 -0.0244
  866MOL0     O19401   4.556   5.506   1.427  0.2039  0.2371  0.1471
  866MOL0     C19402   4.566   5.436   1.541 -0.3101  0.7210 -0.9013
  866MOL0     C19403   4.692   5.396   1.583 -0.4282  0.5067  0.4750
  866MOL0     C19404   4.716   5.325   1.703  0.2719  0.1746 -1.2005
  866MOL0     C19405   4.607   5.292   1.777  1.1372  0.2459  0.1235
  866MOL0     O19406   4.640   5.240   1.900 -0.3682  0.1639 -0.4989
  866MOL0     C19407   4.551   5.154   1.970 -0.3435  0.2158  1.0455
  866MOL0     C19408   4.561   5.011   1.905 -0.1055 -0.1380 -0.7739
  866MOL0     C19409   4.451   4.913   1.941  0.5880  0.0838 -0.3973
  866MOL0     C19410   4.501   4.771   1.988 -0.3575  0.4458  0.0216
  866MOL0     C19411   4.384   4.694   2.048  0.7781  0.5398  0.1212
  866MOL0     C19412   4.378   4.706   2.195 -0.0740 -0.0906 -0.2801
  866MOL0     C19413   4.255   4.637   2.250 -0.9973 -0.4328 -0.3397
  866MOL0     C19414   4.264   4.655   2.401 -0.8805 -0.3175  0.0680
  866MOL0    Cl19415   4.104   4.612   2.458  0.5928 -0.1363  0.3859
  866MOL0     C19416   4.472   5.320   1.742 -0.1248  0.2667  0.6421
  866MOL0     C19417   4.455   5.392   1.619 -0.2998 -0.0565 -0.0738
  866MOL0     O19418   4.409   5.368   1.323 -0.2280  0.1554  0.3650
  866MOL0     C19419   4.570   5.652   1.191  0.0107  0.2688  0.5333
  866MOL0     C19420   4.553   5.760   1.097 -0.0930  0.4988  0.6264
  866MOL0     N19421   4.101   6.105   0.472 -0.7386 -0.4714  0.5302
  866MOL0     N19422   3.988   6.096   0.531 -0.4349 -0.3008 -0.1325
  866MOL0     C19423   2.732   5.954   0.900  1.0031  0.3868  0.1370
  866MOL0     C19424   2.624   6.033   0.931  0.0703 -0.0457  0.6743
  866MOL0     C19425   2.336   6.359   1.062 -0.4604  0.3005  0.0466
  866MOL0     C19426   2.397   6.478   1.094 -0.1005 -0.3569 -0.0392
  866MOL0     C19427   2.329   6.596   1.133  0.1984 -0.2093  0.1912
  866MOL0     C19428   2.193   6.600   1.156  0.6911 -0.2183 -0.4735
  866MOL0     O19429   2.127   6.717   1.198  0.4051  0.9874  0.9472
  866MOL0     C19430   2.184   6.779   1.310 -0.1165  0.0231 -0.4795
  866MOL0     C19431   2.079   6.828   1.414 -0.2569  0.2216 -0.1189
  866MOL0     C19432   1.945   6.885   1.354 -0.0587  0.3140 -0.0481
  866MOL0     C19433   1.847   6.925   1.465  0.1656 -0.0458  0.0431
  866MOL0     C19434   1.712   6.952   1.415  0.1611 -0.5454  0.1505
  866MOL0     C19435   1.605   6.968   1.362  0.0964 -0.8200  0.5040
  866MOL0     C19436   2.130   6.477   1.137 -0.1191 -0.3924  0.5155
  866MOL0     C19437   2.199   6.360   1.102  0.3117 -0.3495  0.3059
  866MOL0     C19438   2.113   6.238   1.109  0.4362  0.4054  0.1553
  866MOL0     H19439   2.801   6.294   1.052  0.1719 -0.7078  0.5260
  866MOL0     H19440   2.989   6.142   0.990  1.4194 -1.7370 -3.1499
  866MOL0     H19441   3.146   5.911   0.949  3.2696 -0.3222 -1.2231
  866MOL0     H19442   3.105   6.046   0.837  1.2595 -0.3307  1.5745
  866MOL0     H19443   3.138   5.754   0.750  1.1093  0.6829 -0.3680
  866MOL0     H19444   3.089   5.901   0.661  1.3866 -0.3727 -0.7471
  866MOL0     H19445   3.305   5.984   0.651  1.6516  4.2889  4.7510
  866MOL0     H19446   3.360   5.927   0.795  1.6294  0.7866 -2.5077
  866MOL0     H19447   3.394   5.696   0.714  2.4073  0.7217  1.2534
  866MOL0     H19448   3.327   5.743   0.550 -0.6222  2.9589  0.4082
  866MOL0     H19449   3.502   5.903   0.512 -1.3827 -1.8474 -3.4481
  866MOL0     H19450   3.555   5.731   0.526  0.8177 -1.3597  2.9048
  866MOL0     H19451   3.568   5.934   0.736 -0.8102 -1.2118  0.0678
  866MOL0     H19452   3.636   5.774   0.758  3.6447  2.1082  3.3313
  866MOL0     H19453   3.734   5.951   0.528 -1.7151 -0.7872  0.2646
  866MOL0     H19454   3.810   5.800   0.581 -1.6913 -1.3818  1.2619
  866MOL0     H19455   3.797   6.060   0.735  1.2559  0.3401  2.4287
  866MOL0     H19456   3.886   5.911   0.787  0.0367  2.1219  1.6157
  866MOL0     H19457   4.132   5.862   0.695 -0.6776 -2.4350 -2.7787
  866MOL0     H19458   4.351   6.091   0.478  1.2604  0.1177 -0.3658
  866MOL0     H19459   4.342   5.932   0.409  2.8426  1.4076 -0.8610
  866MOL0     H19460   4.373   5.837   0.643  3.3911 -0.3666  0.8396
  866MOL0     H19461   4.504   5.917   0.567 -0.9418  1.2818 -2.9169
  866MOL0     H19462   4.501   6.107   0.715  1.4494 -0.7782  0.3525
  866MOL0     H19463   4.335   6.086   0.761 -0.0464 -0.4830  2.2327
  866MOL0     H19464   4.582   5.915   0.850 -1.1037 -2.4190 -1.0493
  866MOL0     H19465   4.494   6.017   0.964 -0.0428 -3.8234  3.6374
  866MOL0     H19466   4.251   5.686   0.981  1.0513  2.0432 -0.5552
  866MOL0     H19467   4.175   5.505   1.249 -1.2150  3.1617 -1.5226
  866MOL0     H19468   4.243   5.380   1.139 -0.4485 -0.4787  0.8851
  866MOL0     H19469   4.136   5.503   1.074  1.2690  2.6331 -0.9429
  866MOL0     H19470   4.783   5.416   1.528 -2.2506  2.7484 -2.0563
  866MOL0     H19471   4.813   5.287   1.734  0.0035 -0.8954 -1.6245
  866MOL0     H19472   4.574   5.146   2.077 -0.0001 -2.5583  0.8207
  866MOL0     H19473   4.447   5.186   1.965  0.1658  1.7643 -2.4830
  866MOL0     H19474   4.564   5.018   1.796 -2.0007  0.8068 -0.7950
  866MOL0     H19475   4.657   4.968   1.933 -0.8065 -3.0431 -2.3750
  866MOL0     H19476   4.389   4.889   1.854 -1.1961  0.4008  0.7308
  866MOL0     H19477   4.389   4.958   2.019 -0.3127 -0.0682 -1.0014
  866MOL0     H19478   4.580   4.789   2.061 -0.9805 -0.3069  0.9117
  866MOL0     H19479   4.550   4.707   1.914  1.2267 -1.7916  2.7949
  866MOL0     H19480   4.294   4.736   2.003 -0.7521 -0.2301  2.2935
  866MOL0     H19481   4.387   4.590   2.014 -0.9689  1.2605 -2.5249
  866MOL0     H19482   4.386   4.813   2.216 -0.2911 -0.6543  3.1531
  866MOL0     H19483   4.469   4.655   2.228 -0.8753  0.2451  2.6815
  866MOL0     H19484   4.264   4.531   2.228  0.1847 -0.2608 -0.7248
  866MOL0     H19485   4.167   4.682   2.203  0.1952  1.0275 -1.2718
  866MOL0     H19486   4.288   4.759   2.423  0.8052 -0.5812 -0.4146
  866MOL0     H19487   4.341   4.591   2.444 -0.0038 -0.1875 -1.2293
  866MOL0     H19488   4.382   5.300   1.799  0.4394  1.8116  2.1752
  866MOL0     H19489   4.349   5.406   1.596 -1.3150  0.3524  4.0637
  866MOL0     H19490   4.659   5.639   1.252 -0.4304 -2.0059  0.7974
  866MOL0     H19491   4.634   5.825   1.067  1.0806 -0.8900  0.7051
  866MOL0     H19492   2.725   5.853   0.859  0.5318  0.2658  0.5083
  866MOL0     H19493   2.524   5.991   0.922  0.8191 -2.0752  1.2894
  866MOL0     H19494   2.505   6.486   1.084  0.0029  0.8403  1.5571
  866MOL0     H19495   2.384   6.687   1.153  0.2854 -0.4867  1.2775
  866MOL0     H19496   2.253   6.710   1.361  3.1201  2.2389 -1.5317
  866MOL0     H19497   2.244   6.866   1.283  0.8866 -0.6779 -0.6060
  866MOL0     H19498   2.131   6.896   1.482  0.8652 -1.0752  0.3702
  866MOL0     H19499   2.052   6.742   1.474  4.3643 -1.3340  0.1802
  866MOL0     H19500   1.972   6.956   1.276  0.3285 -0.4490 -0.6209
  866MOL0     H19501   1.902   6.795   1.308  2.1953 -0.2149 -1.2445
  866MOL0     H19502   1.883   7.021   1.504 -1.9652  1.3949 -1.3456
  866MOL0     H19503   1.843   6.852   1.547 -1.8710 -0.2203 -0.1645
  866MOL0     H19504   1.508   7.001   1.332  0.1068  1.0688  2.3670
  866MOL0     H19505   2.022   6.474   1.148 -0.3919  1.0575 -1.2505
  866MOL0     H19506   2.049   6.236   1.198 -0.1638 -3.0309 -0.2061
  866MOL0     H19507   2.043   6.229   1.026 -0.8741  0.4248  1.2224
  866MOL0     H19508   2.175   6.148   1.108  2.2742  1.6250  0.2963
  867MOL0     O19509   7.946   8.268   7.082  0.0048 -0.0099 -0.0509
  867MOL0     C19510   7.888   8.297   6.976  0.4950 -0.2649  0.0370
  867MOL0     O19511   7.893   8.420   6.921 -0.0078 -0.0151 -0.4759
  867MOL0     C19512   7.970   8.514   6.989 -0.1170 -1.4311  0.2579
  867MOL0     C19513   7.911   8.625   7.049  0.4630 -0.3429  0.2840
  867MOL0     C19514   7.985   8.718   7.114 -0.3111 -0.2124  0.1840
  867MOL0     C19515   8.120   8.708   7.128 -0.2503 -0.8452 -0.3157
  867MOL0     O19516   8.200   8.794   7.204 -0.1984 -0.0395 -0.1706
  867MOL0     C19517   8.147   8.915   7.243  0.8815  0.0024  0.1419
  867MOL0     C19518   8.264   8.986   7.310  0.3657 -0.5228  0.0301
  867MOL0     C19519   8.382   9.002   7.218 -0.9596  0.4584 -0.0016
  867MOL0     C19520   8.490   9.094   7.280 -0.4440 -0.5594  0.4289
  867MOL0     C19521   8.619   9.102   7.195  0.2589  1.1584 -0.1833
  867MOL0     C19522   8.706   9.217   7.226  0.5552  0.0047 -0.8394
  867MOL0     C19523   8.853   9.174   7.223 -1.5109 -0.3227  0.0848
  867MOL0     C19524   8.906   9.216   7.081  0.1117  0.8167 -0.7459
  867MOL0     N19525   9.031   9.148   7.056 -0.3275 -0.5498 -0.2770
  867MOL0     C19526   9.154   9.171   7.115 -0.1850  0.2184  0.4848
  867MOL0     C19527   9.236   9.091   7.045 -0.4548  0.3284  0.9620
  867MOL0     C19528   9.376   9.057   7.080  0.5520 -0.1427 -0.2968
  867MOL0     C19529   9.383   8.910   7.141 -0.2017  0.7172 -0.1572
  867MOL0     C19530   9.522   8.854   7.153  0.5012 -0.2834 -0.1280
  867MOL0     C19531   9.570   8.807   7.008  0.2931  0.2491 -0.2197
  867MOL0     O19532   9.707   8.761   7.027  0.5122  0.0249  0.6112
  867MOL0     C19533   9.805   8.770   6.929 -0.0570 -0.6154  0.0196
  867MOL0     C19534   9.772   8.758   6.798  0.7128  0.7992  0.0794
  867MOL0     C19535   9.873   8.750   6.704  0.5055 -0.0645 -0.1348
  867MOL0     C19536   9.822   8.708   6.566 -0.0163  0.8088 -0.0070
  867MOL0     C19537  10.012   8.764   6.740  0.1647 -0.5179  0.2310
  867MOL0     C19538  10.125   8.740   6.649 -0.2862 -0.3143 -0.6990
  867MOL0     O19539  10.254   8.728   6.704  0.4674 -0.0625 -0.2378
  867MOL0     C19540  10.360   8.730   6.620 -1.0943  0.0480  0.2974
  867MOL0     C19541  10.451   8.634   6.645 -0.0526 -0.5240 -0.1312
  867MOL0     C19542  10.573   8.639   6.579 -0.3549 -0.2555  0.3639
  867MOL0     C19543  10.599   8.732   6.476 -0.2391 -0.3813 -0.7073
  867MOL0     O19544  10.726   8.735   6.429  0.0549 -0.1469  0.1110
  867MOL0     C19545  10.734   8.779   6.286 -0.2226  0.8641 -0.7622
  867MOL0     C19546  10.855   8.707   6.235  0.7588  0.5535  1.0999
  867MOL0     C19547  10.993   8.751   6.296  0.5624 -0.2262  0.2860
  867MOL0     C19548  11.106   8.684   6.212 -0.1513  0.2210  0.6737
  867MOL0     C19549  11.239   8.730   6.264 -0.5468 -0.5607 -0.7740
  867MOL0     C19550  11.362   8.673   6.192 -0.2707  0.3073 -1.0669
  867MOL0     C19551  11.490   8.703   6.277 -0.5711 -0.4734 -0.0635
  867MOL0     C19552  11.619   8.660   6.203  0.1334  0.3153 -0.7834
  867MOL0    Cl19553  11.612   8.734   6.031 -0.3423  0.6121 -0.0634
  867MOL0     C19554  10.501   8.836   6.453 -0.1272  0.1898  0.8594
  867MOL0     C19555  10.392   8.841   6.539 -0.0463 -0.4889 -0.1314
  867MOL0     O19556  10.102   8.736   6.525  0.3905  0.3875  0.7147
  867MOL0     C19557  10.038   8.801   6.878 -0.2192 -0.5474  0.9247
  867MOL0     C19558   9.938   8.796   6.968 -0.7741 -0.3371  0.2416
  867MOL0     N19559   9.163   9.029   6.947 -0.7659  0.1663  0.3152
  867MOL0     N19560   9.041   9.054   6.956  0.2262  0.1985  0.5906
  867MOL0     C19561   8.179   8.593   7.083  0.0507 -0.2976 -0.3464
  867MOL0     C19562   8.106   8.499   7.007  0.4098 -0.8625 -0.0266
  867MOL0     C19563   7.782   8.206   6.926  0.2651 -0.5259  0.0101
  867MOL0     C19564   7.715   8.226   6.810 -0.0538  0.5511  0.6253
  867MOL0     C19565   7.620   8.140   6.750  0.0774 -0.1865  0.1272
  867MOL0     C19566   7.582   8.028   6.819 -0.3115  0.1458 -0.2423
  867MOL0     O19567   7.503   7.931   6.768  0.3265 -0.5067 -0.3731
  867MOL0     C19568   7.410   7.951   6.658 -0.0957 -0.0780  1.0891
  867MOL0     C19569   7.298   8.051   6.681 -0.1096 -1.3030  0.1450
  867MOL0     C19570   7.214   8.024   6.807 -0.5146  0.0002  0.0923
  867MOL0     C19571   7.166   7.879   6.822  0.8396  0.4784 -0.3543
  867MOL0     C19572   7.083   7.842   6.706 -0.0212 -0.8943  0.0179
  867MOL0     C19573   6.996   7.833   6.629  0.2437 -0.1995 -0.0967
  867MOL0     C19574   7.638   8.000   6.945  0.6388  0.4616 -0.1341
  867MOL0     C19575   7.726   8.095   7.002  0.2004 -0.2182 -0.1506
  867MOL0     C19576   7.752   8.071   7.148 -0.3380  0.2558 -0.1354
  867MOL0     H19577   7.804   8.636   7.041  0.4688 -0.7594 -0.5845
  867MOL0     H19578   7.927   8.801   7.154 -0.4239  0.3999 -1.2094
  867MOL0     H19579   8.056   8.916   7.304 -1.6356  0.7710 -3.3397
  867MOL0     H19580   8.111   8.967   7.154  0.4127 -2.7884 -1.4227
  867MOL0     H19581   8.229   9.084   7.345  3.5649  1.3845 -1.6573
  867MOL0     H19582   8.284   8.926   7.399 -1.7797 -0.3401  0.6956
  867MOL0     H19583   8.429   8.910   7.183 -0.1587  0.9335 -0.2189
  867MOL0     H19584   8.343   9.057   7.131 -0.6755  1.0616  0.2422
  867MOL0     H19585   8.439   9.191   7.279  1.1841  0.3660  1.3504
  867MOL0     H19586   8.513   9.064   7.382 -0.1449  0.4797  0.6776
  867MOL0     H19587   8.607   9.112   7.086 -1.2133  2.9814  0.0813
  867MOL0     H19588   8.676   9.011   7.209  1.6806  2.1371  0.5911
  867MOL0     H19589   8.688   9.307   7.168  1.5413  1.5561  1.1318
  867MOL0     H19590   8.687   9.245   7.330  0.0971 -3.4241  0.1234
  867MOL0     H19591   8.869   9.069   7.251 -1.7370 -0.4920 -0.4118
  867MOL0     H19592   8.910   9.223   7.302 -0.8134  1.9926 -1.7568
  867MOL0     H19593   8.839   9.184   7.001 -0.5510  0.3997 -0.0348
  867MOL0     H19594   8.909   9.324   7.067 -3.9000  1.2956  0.7130
  867MOL0     H19595   9.187   9.232   7.199  0.9223 -1.1274  1.0748
  867MOL0     H19596   9.428   9.120   7.153  3.3788 -1.2085 -1.2396
  867MOL0     H19597   9.432   9.066   6.986 -1.7560  1.4386 -1.6301
  867MOL0     H19598   9.354   8.917   7.246  0.3829  0.1286  0.0514
  867MOL0     H19599   9.319   8.845   7.080  1.9532 -0.1480 -1.6500
  867MOL0     H19600   9.591   8.928   7.194 -0.2858  1.1868 -1.3876
  867MOL0     H19601   9.525   8.775   7.229  0.0270  2.0547  2.4561
  867MOL0     H19602   9.504   8.727   6.972 -2.6461  1.0859  2.8356
  867MOL0     H19603   9.553   8.898   6.951  1.1559  1.5302  1.4900
  867MOL0     H19604   9.671   8.740   6.763  1.0184 -0.9363 -0.0346
  867MOL0     H19605   9.835   8.791   6.496  0.0975  0.6737 -0.1454
  867MOL0     H19606   9.722   8.665   6.569  0.1110  0.5322  0.4519
  867MOL0     H19607   9.889   8.625   6.541  1.7320  1.3098  2.5823
  867MOL0     H19608  10.435   8.553   6.716  0.5524  0.1922  0.8540
  867MOL0     H19609  10.643   8.560   6.602  0.4051  0.3270  0.0615
  867MOL0     H19610  10.644   8.736   6.241  0.8135 -2.3327 -0.0572
  867MOL0     H19611  10.744   8.887   6.280 -0.6204  0.9630  0.1203
  867MOL0     H19612  10.843   8.599   6.243  1.2615  0.5521  1.9595
  867MOL0     H19613  10.866   8.732   6.129  4.9924  0.6934  1.3879
  867MOL0     H19614  11.001   8.713   6.398 -0.7156 -1.0722  0.0875
  867MOL0     H19615  10.998   8.860   6.285 -1.1375 -0.1304  0.3177
  867MOL0     H19616  11.092   8.698   6.104  1.3005  0.3473  0.4831
  867MOL0     H19617  11.110   8.580   6.244 -2.7203 -0.0205  0.4660
  867MOL0     H19618  11.240   8.840   6.258  0.1413 -0.4861  0.4260
  867MOL0     H19619  11.245   8.710   6.371  2.9660  0.2263 -0.7030
  867MOL0     H19620  11.361   8.707   6.088  2.2079 -0.7576 -1.5002
  867MOL0     H19621  11.343   8.566   6.189 -2.4276  0.6423 -0.7087
  867MOL0     H19622  11.481   8.663   6.378  0.3405 -0.5890 -0.0163
  867MOL0     H19623  11.504   8.810   6.289 -0.4701 -0.6817  1.9578
  867MOL0     H19624  11.621   8.551   6.195 -0.2805  0.2028  0.4144
  867MOL0     H19625  11.707   8.697   6.257 -1.2199  0.1049  1.6981
  867MOL0     H19626  10.520   8.914   6.380 -3.3771  0.5674  0.2607
  867MOL0     H19627  10.313   8.916   6.541 -2.7435 -3.1336  0.4436
  867MOL0     H19628  10.143   8.805   6.902 -0.0083 -0.3121 -0.0004
  867MOL0     H19629   9.969   8.807   7.072  1.1010  1.4469 -0.4510
  867MOL0     H19630   8.286   8.585   7.103  0.4769  2.6252 -1.0338
  867MOL0     H19631   8.159   8.414   6.964 -2.2465 -1.8833 -1.5232
  867MOL0     H19632   7.738   8.316   6.754 -0.9797  0.4053 -0.0231
  867MOL0     H19633   7.579   8.163   6.652 -2.6888  0.5973  1.3551
  867MOL0     H19634   7.459   7.968   6.561 -1.7561  0.2011  0.2557
  867MOL0     H19635   7.358   7.856   6.643  1.1430 -0.4351 -1.8126
  867MOL0     H19636   7.224   8.053   6.600 -1.7678  1.3818  1.6084
  867MOL0     H19637   7.348   8.148   6.683 -0.9929 -0.7160 -2.1155
  867MOL0     H19638   7.273   8.049   6.896  1.3326 -0.7700 -0.8719
  867MOL0     H19639   7.128   8.091   6.803 -2.1798 -2.0702 -1.0516
  867MOL0     H19640   7.107   7.868   6.913  1.6785 -1.6771 -0.0209
  867MOL0     H19641   7.243   7.802   6.831  1.7425  1.4551  0.6007
  867MOL0     H19642   6.922   7.828   6.551 -0.7134 -2.2776  0.8707
  867MOL0     H19643   7.601   7.914   7.001  2.1622 -2.7785 -3.6278
  867MOL0     H19644   7.673   8.013   7.197  0.8014  1.1018  2.9780
  867MOL0     H19645   7.839   8.005   7.162  0.0431  0.5669 -0.9955
  867MOL0     H19646   7.757   8.167   7.200 -2.8766  1.2086 -1.4869
  868MOL0     O19647   9.173   0.010  10.202  0.1518 -0.2083 -0.6164
  868MOL0     C19648   9.070   0.078  10.199  0.2263 -0.1685 -0.1860
  868MOL0     O19649   9.044   0.192  10.263 -0.6767 -0.7209 -0.0144
  868MOL0     C19650   9.124   0.230  10.373 -0.8416  0.8825 -0.5935
  868MOL0     C19651   9.060   0.286  10.479  0.8909  1.3887 -0.9352
  868MOL0     C19652   9.134   0.346  10.588  0.9764  0.7141 -0.1246
  868MOL0     C19653   9.275   0.352  10.582  0.5904  0.6236 -0.6567
  868MOL0     O19654   9.357   0.419  10.675 -0.3207  0.5390 -0.2996
  868MOL0     C19655   9.299   0.484  10.792 -0.4118 -0.9057  0.3333
  868MOL0     C19656   9.415   0.552  10.858 -0.7882 -0.3429 -0.1417
  868MOL0     C19657   9.534   0.455  10.880  0.1037  0.0810 -0.2049
  868MOL0     C19658   9.656   0.508  10.949 -0.7422  0.2382 -0.6820
  868MOL0     C19659   9.778   0.415  10.963 -0.4263 -0.8752  0.1584
  868MOL0     C19660   9.841   0.382  10.824  0.1030  0.4407  0.2761
  868MOL0     C19661   9.901   0.502  10.755 -0.2870 -0.2015  0.3295
  868MOL0     C19662  10.021   0.573  10.826 -0.6042  0.1890  0.4678
  868MOL0     N19663  10.128   0.486  10.874  0.5928 -0.3525  0.1992
  868MOL0     C19664  10.230   0.422  10.803  0.0340  1.0923 -0.4913
  868MOL0     C19665  10.309   0.368  10.899 -0.1778 -0.1643 -0.4047
  868MOL0     C19666  10.435   0.284  10.893 -0.2108 -0.0146  0.8002
  868MOL0     C19667  10.571   0.360  10.893  0.0208  0.4918 -0.5030
  868MOL0     C19668  10.696   0.262  10.896  0.5499 -0.1641 -0.3371
  868MOL0     C19669  10.832   0.326  10.873  0.0484  0.4333  0.7318
  868MOL0     O19670  10.933   0.231  10.896 -0.4413  0.0417  0.0579
  868MOL0     C19671  11.064   0.278  10.904  0.2291 -0.5274  0.0857
  868MOL0     C19672  11.153   0.170  10.906 -0.0858  0.0610  0.6132
  868MOL0     C19673  11.285   0.188  10.910 -0.3023 -0.1845 -0.5563
  868MOL0     C19674  11.369   0.065  10.905  0.3640  0.0630  0.0860
  868MOL0     C19675  11.339   0.322  10.907 -0.8953 -0.0943 -1.2756
  868MOL0     C19676  11.487   0.350  10.905 -0.0841  0.0104  0.1214
  868MOL0     O19677  11.528   0.477  10.870  0.1272 -0.1949  0.0446
  868MOL0     C19678  11.665   0.479  10.826 -0.9735 -1.1871  0.0354
  868MOL0     C19679  11.753   0.528  10.918 -0.2236 -0.7233 -0.0524
  868MOL0     C19680  11.889   0.539  10.887 -0.6709  0.6354  0.7506
  868MOL0     C19681  11.941   0.490  10.762 -0.4520  0.9680  0.0049
  868MOL0     O19682  12.075   0.508  10.741 -0.6402  0.0582 -0.3532
  868MOL0     C19683  12.147   0.475  10.627 -0.7807 -0.3712 -0.6263
  868MOL0     C19684  12.235   0.358  10.647  0.2657 -0.0298  1.3007
  868MOL0     C19685  12.369   0.383  10.728  0.4866 -0.2821  0.2689
  868MOL0     C19686  12.349   0.366  10.879 -0.1658  0.4093 -0.1406
  868MOL0     C19687  12.482   0.384  10.959 -0.2134 -0.4216  1.1555
  868MOL0     C19688  12.593   0.284  10.935  0.5027 -0.1924 -0.1283
  868MOL0     C19689  12.714   0.316  11.032 -0.1263 -0.0900  0.1097
  868MOL0     C19690  12.801   0.190  11.057  0.4386  0.2612 -0.6592
  868MOL0    Cl19691  12.859   0.101  10.908  0.1708  0.3285 -0.5367
  868MOL0     C19692  11.851   0.430  10.668 -0.2931 -0.0991  0.4822
  868MOL0     C19693  11.715   0.429  10.700 -0.4405 -1.2512  0.1363
  868MOL0     O19694  11.560   0.261  10.937 -0.1101  0.5519 -0.4532
  868MOL0     C19695  11.252   0.432  10.904 -0.3314 -0.2760  0.6941
  868MOL0     C19696  11.108   0.407  10.897  0.0492 -0.3132  0.3152
  868MOL0     N19697  10.256   0.406  11.024 -0.4167  0.5417  0.5491
  868MOL0     N19698  10.145   0.469  11.005  0.1173  0.0067  0.5990
  868MOL0     C19699   9.340   0.292  10.474  0.3097 -0.0275  0.6424
  868MOL0     C19700   9.264   0.240  10.366 -0.1803  0.0962 -0.7139
  868MOL0     C19701   8.973   0.018  10.110 -0.3882  0.0140  0.5093
  868MOL0     C19702   9.013  -0.072  10.003  0.4818 -0.4613 -0.3149
  868MOL0     C19703   8.923  -0.128   9.915 -0.1221 -1.2243  0.1514
  868MOL0     C19704   8.790  -0.122   9.942  0.4093 -0.0174  0.6098
  868MOL0     O19705   8.711  -0.181   9.847 -0.9488  0.2172  0.6431
  868MOL0     C19706   8.570  -0.194   9.859  0.2018  0.3133  0.8708
  868MOL0     C19707   8.533  -0.294   9.749 -0.5770 -0.3310 -0.5608
  868MOL0     C19708   8.573  -0.236   9.610 -0.3786 -0.9625  0.0876
  868MOL0     C19709   8.706  -0.290   9.549  0.4437 -0.9775  0.1440
  868MOL0     C19710   8.706  -0.428   9.530 -0.7516  0.2512 -0.7682
  868MOL0     C19711   8.716  -0.550   9.500 -1.3435  0.7261 -1.0295
  868MOL0     C19712   8.740  -0.039  10.047 -0.6272  0.2704 -1.6073
  868MOL0     C19713   8.829   0.031  10.128  0.1049 -0.3197  1.4831
  868MOL0     C19714   8.762   0.106  10.241  1.2150 -1.1440  0.4993
  868MOL0     H19715   8.953   0.273  10.479  1.1931 -1.9875  0.4081
  868MOL0     H19716   9.088   0.383  10.679  0.8927  3.4446 -1.1831
  868MOL0     H19717   9.241   0.414  10.852 -1.4689  1.3710  2.0930
  868MOL0     H19718   9.233   0.559  10.748 -0.9028 -1.5321 -0.0057
  868MOL0     H19719   9.443   0.644  10.805  0.8138  1.1673  3.0357
  868MOL0     H19720   9.385   0.591  10.955 -2.0150 -1.8473  0.1225
  868MOL0     H19721   9.488   0.379  10.943  0.6212  1.2302  1.6541
  868MOL0     H19722   9.565   0.397  10.793 -2.9523 -1.5167 -0.3446
  868MOL0     H19723   9.684   0.605  10.908 -1.2705  0.3397 -0.8108
  868MOL0     H19724   9.614   0.535  11.046  0.4768 -2.5725  0.7498
  868MOL0     H19725   9.750   0.322  11.013 -0.4873  0.3298  2.5130
  868MOL0     H19726   9.847   0.468  11.030 -0.7501 -0.0844 -0.1145
  868MOL0     H19727   9.922   0.309  10.836  1.2963  1.6197 -0.3321
  868MOL0     H19728   9.763   0.337  10.762 -0.1745  1.9058 -0.4724
  868MOL0     H19729   9.835   0.586  10.733  3.1333  3.0649  1.5390
  868MOL0     H19730   9.943   0.466  10.661 -1.8045 -2.4240  0.4236
  868MOL0     H19731  10.064   0.645  10.756  2.1526  2.0417  3.7202
  868MOL0     H19732   9.966   0.623  10.907 -2.9255 -1.7245  0.1648
  868MOL0     H19733  10.253   0.422  10.697 -1.9216  1.7227 -0.9649
  868MOL0     H19734  10.431   0.208  10.814 -1.0833 -1.6173  2.3137
  868MOL0     H19735  10.439   0.218  10.980 -1.4349 -3.9142 -1.8138
  868MOL0     H19736  10.585   0.434  10.814  2.0178  2.1206  1.2425
  868MOL0     H19737  10.571   0.411  10.989  1.7944 -0.5259  0.0950
  868MOL0     H19738  10.704   0.211  10.992  3.1920 -0.7388 -0.7678
  868MOL0     H19739  10.700   0.194  10.810 -0.3973 -0.2414 -0.3284
  868MOL0     H19740  10.850   0.365  10.773  0.7070 -0.7301  0.3777
  868MOL0     H19741  10.833   0.409  10.944 -1.2257  0.3638  0.8491
  868MOL0     H19742  11.123   0.066  10.893  3.2993 -0.8036 -1.3365
  868MOL0     H19743  11.454   0.086  10.840 -0.3215  0.1740 -0.7818
  868MOL0     H19744  11.320  -0.029  10.877 -1.5555 -0.1040  3.4076
  868MOL0     H19745  11.395   0.055  11.011  0.4905  3.1657  0.4472
  868MOL0     H19746  11.712   0.565  11.012  0.5681  1.6673 -0.5875
  868MOL0     H19747  11.953   0.588  10.959 -0.6558  3.9743 -1.3099
  868MOL0     H19748  12.080   0.465  10.541 -0.5754  2.9295 -1.2985
  868MOL0     H19749  12.220   0.555  10.612 -0.8494 -0.1551  0.1662
  868MOL0     H19750  12.185   0.276  10.699 -0.3897  0.1053  0.8884
  868MOL0     H19751  12.263   0.325  10.547  2.5067  0.3140  1.7429
  868MOL0     H19752  12.397   0.487  10.710  0.8346 -0.6806 -1.8323
  868MOL0     H19753  12.446   0.317  10.687  0.0862 -0.3995 -0.3090
  868MOL0     H19754  12.306   0.266  10.895 -0.0728  0.1204 -1.5024
  868MOL0     H19755  12.269   0.435  10.906  1.2538  2.5712 -1.1620
  868MOL0     H19756  12.516   0.483  10.928 -3.7182  0.7478  0.6686
  868MOL0     H19757  12.449   0.383  11.064 -2.0090 -0.3055  0.6225
  868MOL0     H19758  12.634   0.289  10.834 -2.0933 -2.4444 -1.4203
  868MOL0     H19759  12.557   0.183  10.954  1.0595 -0.0876  1.6940
  868MOL0     H19760  12.685   0.358  11.129 -2.0849  1.3485 -1.0326
  868MOL0     H19761  12.776   0.393  10.986  0.3015 -0.5570 -0.0990
  868MOL0     H19762  12.744   0.129  11.128 -0.8708  2.4689  0.3285
  868MOL0     H19763  12.887   0.219  11.119  2.0348 -1.7294 -1.8417
  868MOL0     H19764  11.881   0.406  10.567 -3.9861 -1.4130 -0.4542
  868MOL0     H19765  11.647   0.398  10.622 -1.6088  4.1052 -1.3204
  868MOL0     H19766  11.289   0.534  10.908 -1.8558  0.4540 -1.6132
  868MOL0     H19767  11.038   0.488  10.879 -0.2029 -0.9744 -1.9803
  868MOL0     H19768   9.448   0.302  10.466  0.0086  2.8038 -4.1690
  868MOL0     H19769   9.312   0.200  10.278 -1.2441 -3.2697  0.0748
  868MOL0     H19770   9.120  -0.089  10.002  0.3591 -1.2429 -0.7267
  868MOL0     H19771   8.953  -0.183   9.826 -3.6283  0.2232 -2.1766
  868MOL0     H19772   8.540  -0.247   9.949  1.4226  3.0823  3.0398
  868MOL0     H19773   8.517  -0.100   9.846  0.8452  0.5564 -0.2175
  868MOL0     H19774   8.428  -0.322   9.766 -0.7927 -0.5299 -2.1497
  868MOL0     H19775   8.575  -0.394   9.759  0.2263 -0.2510 -2.7556
  868MOL0     H19776   8.493  -0.251   9.537  0.6113 -0.7182 -1.0783
  868MOL0     H19777   8.582  -0.127   9.608 -1.5918 -0.8011  1.5917
  868MOL0     H19778   8.784  -0.257   9.617  0.5849  0.3557 -0.6434
  868MOL0     H19779   8.721  -0.230   9.459  0.4003 -0.5375  0.4292
  868MOL0     H19780   8.716  -0.656   9.487  1.0768  0.2766  1.6949
  868MOL0     H19781   8.632  -0.045  10.058 -0.7128  2.3667 -0.7399
  868MOL0     H19782   8.782   0.213  10.240 -2.5490 -0.2973  0.7397
  868MOL0     H19783   8.656   0.085  10.226  0.9667  0.5743 -0.3543
  868MOL0     H19784   8.791   0.087  10.345  1.6505  0.1808  0.6414
  869MOL0     O19785   3.235   9.985   8.217 -0.6422  0.0632  0.6119
  869MOL0     C19786   3.352   9.949   8.199 -0.6074  0.1432 -0.9726
  869MOL0     O19787   3.405   9.823   8.242  0.4129 -0.0326 -0.2702
  869MOL0     C19788   3.302   9.734   8.284 -0.3080 -0.4819 -0.3373
  869MOL0     C19789   3.305   9.692   8.413 -0.3948 -0.4671 -0.2397
  869MOL0     C19790   3.223   9.597   8.464  0.7033  0.2613 -0.0337
  869MOL0     C19791   3.124   9.535   8.379 -0.3453 -0.1596  0.6046
  869MOL0     O19792   3.046   9.436   8.433  0.3952 -0.6126  0.3878
  869MOL0     C19793   2.992   9.333   8.346  0.5504 -0.2635  0.1231
  869MOL0     C19794   3.016   9.196   8.403  0.4647 -0.0986  0.4269
  869MOL0     C19795   3.143   9.140   8.348  0.2548 -0.5811  0.0210
  869MOL0     C19796   3.199   9.035   8.446  0.5510  0.7774  0.3949
  869MOL0     C19797   3.345   9.001   8.420 -0.1103  1.1572 -0.0759
  869MOL0     C19798   3.374   8.884   8.518 -0.2288  0.0884  0.6225
  869MOL0     C19799   3.507   8.811   8.502  0.3686 -0.1753  0.7960
  869MOL0     C19800   3.532   8.718   8.620 -0.8671  0.6178  0.3259
  869MOL0     N19801   3.452   8.595   8.621 -0.2560  0.2241 -0.3081
  869MOL0     C19802   3.484   8.484   8.550 -0.5035  0.3939  0.5595
  869MOL0     C19803   3.385   8.394   8.581 -1.0968 -0.1162 -0.1264
  869MOL0     C19804   3.368   8.254   8.547  1.2718  0.0695 -0.2072
  869MOL0     C19805   3.469   8.164   8.626  0.3787  0.0159  0.5313
  869MOL0     C19806   3.431   8.019   8.616  0.5528 -0.3737 -0.3317
  869MOL0     C19807   3.538   7.927   8.687 -0.4675  1.0005  0.8080
  869MOL0     O19808   3.650   7.928   8.594 -0.0421  0.4089 -0.2380
  869MOL0     C19809   3.770   7.870   8.644  0.1706  0.1250 -0.7474
  869MOL0     C19810   3.780   7.785   8.748  0.3497  0.4189  0.8480
  869MOL0     C19811   3.900   7.717   8.786  0.2511 -0.1123  0.9317
  869MOL0     C19812   3.891   7.605   8.879  0.4159  0.0389 -0.3850
  869MOL0     C19813   4.018   7.750   8.712  0.0520  0.3047 -0.0488
  869MOL0     C19814   4.155   7.701   8.749  0.4844 -0.7140  0.4716
  869MOL0     O19815   4.245   7.683   8.646 -0.0708  0.1920  0.0463
  869MOL0     C19816   4.366   7.627   8.679  0.0485 -0.1887 -0.6058
  869MOL0     C19817   4.486   7.695   8.700 -0.4378 -0.2378  0.2795
  869MOL0     C19818   4.605   7.629   8.736 -0.6676 -0.2097 -0.1756
  869MOL0     C19819   4.607   7.494   8.771 -0.1687  0.0858  0.3861
  869MOL0     O19820   4.721   7.432   8.815  0.7684  0.1781 -0.3700
  869MOL0     C19821   4.713   7.293   8.807  0.0332  0.0344 -0.4910
  869MOL0     C19822   4.864   7.240   8.809  0.8626  0.3157  0.0801
  869MOL0     C19823   4.876   7.088   8.832 -0.7253  0.1665  1.0426
  869MOL0     C19824   5.015   7.021   8.850  0.2392 -0.6109 -0.8246
  869MOL0     C19825   4.995   6.873   8.892 -0.6723  0.7737 -0.6502
  869MOL0     C19826   4.907   6.790   8.800  0.6178  0.2652  0.5243
  869MOL0     C19827   4.920   6.644   8.829  0.4171 -0.1450  0.0322
  869MOL0     C19828   4.842   6.549   8.737  0.0551  0.1123 -0.2393
  869MOL0    Cl19829   4.854   6.560   8.559  0.8076  0.1674  0.0217
  869MOL0     C19830   4.481   7.432   8.775 -0.6428  0.3572  0.2591
  869MOL0     C19831   4.365   7.494   8.728 -0.0250 -0.4568  0.4767
  869MOL0     O19832   4.175   7.679   8.864 -0.2341 -0.2416 -0.5536
  869MOL0     C19833   4.010   7.841   8.606 -0.2337  0.2933  0.5271
  869MOL0     C19834   3.881   7.899   8.568 -0.3959 -0.6313  0.7610
  869MOL0     N19835   3.311   8.445   8.674 -0.1610 -0.5595  0.5740
  869MOL0     N19836   3.341   8.574   8.689  0.4328  0.5739  0.1825
  869MOL0     C19837   3.126   9.570   8.246  0.1078 -0.2573  0.6734
  869MOL0     C19838   3.211   9.675   8.197 -0.4375  0.4691  0.2938
  869MOL0     C19839   3.437  10.054   8.136  0.0300  0.6983  0.3756
  869MOL0     C19840   3.573  10.065   8.178  0.0214  0.1574  0.5196
  869MOL0     C19841   3.643  10.179   8.143 -0.3411 -0.2998  0.0203
  869MOL0     C19842   3.599  10.264   8.044  0.4819 -0.9808  0.2252
  869MOL0     O19843   3.684  10.366   8.000 -0.2930  0.2324  0.0719
  869MOL0     C19844   3.637  10.500   8.023 -0.2107  0.1373 -0.4539
  869MOL0     C19845   3.629  10.532   8.178  0.7532 -1.2728  0.2056
  869MOL0     C19846   3.621  10.679   8.210  0.4339  0.2650 -0.3288
  869MOL0     C19847   3.471  10.735   8.238  0.2621  1.0071  0.0190
  869MOL0     C19848   3.390  10.746   8.116  0.2607  0.5154  0.1263
  869MOL0     C19849   3.307  10.770   8.030 -0.7314 -0.0176 -0.1614
  869MOL0     C19850   3.472  10.237   7.984 -0.2558 -0.9945 -0.5112
  869MOL0     C19851   3.388  10.138   8.032  0.0685 -0.0435 -0.6026
  869MOL0     C19852   3.253  10.121   7.974 -0.1143 -0.2623 -0.9214
  869MOL0     H19853   3.373   9.735   8.487 -1.2613  0.2566  0.1510
  869MOL0     H19854   3.227   9.591   8.572 -0.5724 -0.2754  0.0042
  869MOL0     H19855   3.026   9.338   8.242  1.6749  2.6408  0.5151
  869MOL0     H19856   2.885   9.357   8.340  1.1338  2.5740 -0.5342
  869MOL0     H19857   3.025   9.193   8.512  0.8952 -0.9898  0.3811
  869MOL0     H19858   2.941   9.126   8.367 -0.5161  0.0049  2.1459
  869MOL0     H19859   3.131   9.085   8.255 -0.0587  0.3800 -0.5220
  869MOL0     H19860   3.211   9.226   8.337  0.0666 -0.1754  1.8010
  869MOL0     H19861   3.184   9.066   8.550  0.9607  1.9975  0.1026
  869MOL0     H19862   3.133   8.950   8.427 -0.9467  1.0394  3.7773
  869MOL0     H19863   3.412   9.086   8.435  0.6422  0.7173 -0.8840
  869MOL0     H19864   3.353   8.964   8.318 -0.3260 -0.3623  0.4323
  869MOL0     H19865   3.368   8.933   8.616  4.4750  2.1069  0.1614
  869MOL0     H19866   3.301   8.803   8.510  2.8121 -2.8598  0.4632
  869MOL0     H19867   3.595   8.876   8.497  3.1123 -3.6098 -0.1010
  869MOL0     H19868   3.509   8.751   8.411  0.2234  0.1834  0.5559
  869MOL0     H19869   3.638   8.697   8.609 -0.4596  2.3916  0.5440
  869MOL0     H19870   3.518   8.770   8.715 -1.7322 -1.3468  1.3375
  869MOL0     H19871   3.563   8.459   8.480 -0.0195 -0.8748  1.5282
  869MOL0     H19872   3.397   8.233   8.443 -1.6284  0.5190 -1.1834
  869MOL0     H19873   3.260   8.237   8.552  1.1897  0.0506 -1.5660
  869MOL0     H19874   3.563   8.184   8.574  0.9637  1.5905  2.1201
  869MOL0     H19875   3.476   8.200   8.729 -2.6963 -2.2143  1.6881
  869MOL0     H19876   3.339   8.020   8.675  0.3558 -1.9477 -0.5661
  869MOL0     H19877   3.402   7.991   8.514  0.1830 -2.0287  0.1907
  869MOL0     H19878   3.565   7.977   8.780 -0.3113  3.4562 -0.4888
  869MOL0     H19879   3.517   7.821   8.709  0.7157  0.4780 -0.4029
  869MOL0     H19880   3.683   7.766   8.793 -0.6017 -1.6423 -1.7855
  869MOL0     H19881   3.952   7.518   8.851 -0.5142 -0.3356 -1.3257
  869MOL0     H19882   3.785   7.577   8.873  0.3226  0.6513 -2.2151
  869MOL0     H19883   3.914   7.633   8.982 -0.5777 -0.2271 -0.0830
  869MOL0     H19884   4.494   7.803   8.687  0.7192 -0.3752 -0.3274
  869MOL0     H19885   4.691   7.695   8.751 -1.0497 -0.2085  2.4635
  869MOL0     H19886   4.655   7.240   8.883  1.5831  0.6234  1.1755
  869MOL0     H19887   4.673   7.266   8.708  0.6220  1.4548 -1.1509
  869MOL0     H19888   4.900   7.256   8.707 -0.0418  1.8858 -0.0241
  869MOL0     H19889   4.931   7.301   8.871  0.8923  0.8071 -0.4224
  869MOL0     H19890   4.812   7.040   8.758  2.5638 -1.7289 -0.8364
  869MOL0     H19891   4.821   7.076   8.926  0.1221  0.0534  1.5382
  869MOL0     H19892   5.069   7.071   8.931 -2.3512 -0.4908  0.9585
  869MOL0     H19893   5.069   7.020   8.755 -0.0279  2.4890 -1.1025
  869MOL0     H19894   5.092   6.823   8.895 -0.3384  1.1646 -2.8991
  869MOL0     H19895   4.947   6.872   8.990 -0.0625 -0.6145 -0.3441
  869MOL0     H19896   4.938   6.809   8.697  1.5149  2.2982  1.1253
  869MOL0     H19897   4.803   6.822   8.810  0.1270 -0.9072 -0.5721
  869MOL0     H19898   4.886   6.619   8.931 -0.0477  0.2329 -0.0231
  869MOL0     H19899   5.023   6.609   8.825  0.9814  1.5460 -1.4656
  869MOL0     H19900   4.737   6.569   8.761 -0.5315 -2.6287 -0.1574
  869MOL0     H19901   4.863   6.447   8.772 -1.8587 -0.8637 -1.7215
  869MOL0     H19902   4.464   7.335   8.821 -1.2145 -0.1668 -1.0124
  869MOL0     H19903   4.266   7.450   8.732 -0.0173 -0.5820 -0.5111
  869MOL0     H19904   4.103   7.866   8.556  1.9092 -1.3466  3.4078
  869MOL0     H19905   3.868   7.972   8.488  1.1763  0.2898  1.2999
  869MOL0     H19906   3.057   9.521   8.178  2.9974 -1.8115 -1.3561
  869MOL0     H19907   3.208   9.697   8.090  1.2599  1.0348  0.3242
  869MOL0     H19908   3.612  10.001   8.257  0.8239 -0.8924 -0.6732
  869MOL0     H19909   3.738  10.191   8.194 -0.6023 -0.6780  0.6016
  869MOL0     H19910   3.707  10.571   7.978  1.0530  0.1127  1.3645
  869MOL0     H19911   3.542  10.534   7.981  0.0440 -0.1353 -1.2840
  869MOL0     H19912   3.720  10.498   8.229  0.2954 -2.5586  0.1855
  869MOL0     H19913   3.538  10.489   8.221 -0.5272  0.8541 -0.2256
  869MOL0     H19914   3.681  10.703   8.298  1.7333  2.8659 -1.7753
  869MOL0     H19915   3.675  10.733   8.132  0.6781 -0.0161 -0.3553
  869MOL0     H19916   3.473  10.836   8.278 -1.8954  1.1303 -0.0494
  869MOL0     H19917   3.430  10.672   8.318  0.7547  0.8794  0.1774
  869MOL0     H19918   3.254  10.799   7.942  0.7239 -0.4759 -1.2386
  869MOL0     H19919   3.440  10.304   7.906  1.6895  0.8297  0.1611
  869MOL0     H19920   3.183  10.153   8.051 -0.4307 -2.9291 -0.0246
  869MOL0     H19921   3.237  10.175   7.880 -0.4519  1.3896  0.0279
  869MOL0     H19922   3.242  10.013   7.963  0.9863 -0.2324 -2.6049
  870MOL0     O19923   1.242   5.308  10.818 -0.1649 -0.4420  0.3814
  870MOL0     C19924   1.207   5.372  10.914 -0.0791 -0.2416 -0.7561
  870MOL0     O19925   1.291   5.431  11.009  0.5453  0.7318  0.3877
  870MOL0     C19926   1.416   5.396  11.002 -0.8384  0.0066 -1.2423
  870MOL0     C19927   1.506   5.455  10.912  0.7429  0.3203  0.4590
  870MOL0     C19928   1.642   5.423  10.914  0.1272  0.6110 -1.0255
  870MOL0     C19929   1.692   5.338  11.012  0.4657  0.1595 -0.3475
  870MOL0     O19930   1.826   5.323  11.024 -0.1581 -0.2091 -0.2626
  870MOL0     C19931   1.879   5.202  11.073  0.3891  0.5545  0.1447
  870MOL0     C19932   2.031   5.198  11.084  0.3515 -0.2582 -0.1721
  870MOL0     C19933   2.083   5.326  11.168 -0.6821 -0.0949  0.9559
  870MOL0     C19934   2.221   5.387  11.112  0.3919  0.6185 -0.4929
  870MOL0     C19935   2.284   5.493  11.208  0.3019  0.3683  0.3112
  870MOL0     C19936   2.425   5.537  11.156  0.9325 -0.5248 -0.5087
  870MOL0     C19937   2.521   5.430  11.185  0.2058 -0.1807 -0.6334
  870MOL0     C19938   2.565   5.356  11.058  0.0087 -0.6639  0.6664
  870MOL0     N19939   2.649   5.241  11.089 -0.1931  0.3167 -0.3868
  870MOL0     C19940   2.780   5.234  11.119 -0.1680 -0.0946  0.2675
  870MOL0     C19941   2.816   5.105  11.102 -0.0183  0.4301 -1.0067
  870MOL0     C19942   2.950   5.052  11.125 -0.2944  0.8691  0.2099
  870MOL0     C19943   3.052   5.120  11.037 -0.0380  0.2418 -0.0352
  870MOL0     C19944   3.028   5.074  10.894  0.4514  0.4567  0.3880
  870MOL0     C19945   3.112   5.161  10.801  0.1164  0.4720  0.8716
  870MOL0     O19946   3.253   5.117  10.808  1.3638  0.1969  0.1295
  870MOL0     C19947   3.299   5.051  10.701 -0.8694  0.8788 -0.6025
  870MOL0     C19948   3.318   5.120  10.584  0.8383 -0.2149 -0.6368
  870MOL0     C19949   3.381   5.069  10.473 -0.5707  0.6088  0.0839
  870MOL0     C19950   3.392   5.163  10.359  0.3447 -0.3554 -0.7364
  870MOL0     C19951   3.435   4.933  10.463  0.4046 -1.0113 -0.0488
  870MOL0     C19952   3.503   4.872  10.340  0.8283  0.3740 -0.5435
  870MOL0     O19953   3.564   4.746  10.362  0.5289 -0.7317  0.4211
  870MOL0     C19954   3.645   4.688  10.267 -0.0117 -0.6435  0.9177
  870MOL0     C19955   3.734   4.771  10.195 -0.0843  0.8958 -0.1493
  870MOL0     C19956   3.822   4.715  10.096  0.9659 -0.3826 -0.5842
  870MOL0     C19957   3.845   4.579  10.096  0.7237 -0.7008 -0.4813
  870MOL0     O19958   3.933   4.529  10.006  0.4507 -0.8650 -0.6874
  870MOL0     C19959   3.973   4.391  10.026 -0.3942  0.2322  0.1550
  870MOL0     C19960   4.096   4.365   9.926 -0.2912 -0.1245 -0.2273
  870MOL0     C19961   4.214   4.446   9.985 -0.5796 -0.4076  0.0492
  870MOL0     C19962   4.342   4.416   9.908  0.5639 -0.5143 -0.2673
  870MOL0     C19963   4.465   4.473   9.970  0.9994 -0.1522  0.8773
  870MOL0     C19964   4.589   4.407   9.913  0.7508  0.6474 -0.1707
  870MOL0     C19965   4.733   4.454   9.940 -0.2482 -0.3193 -0.1435
  870MOL0     C19966   4.784   4.404  10.074 -0.1700 -0.2227 -0.0767
  870MOL0    Cl19967   4.889   4.256  10.080 -0.0915  0.1071  0.1756
  870MOL0     C19968   3.768   4.505  10.190  0.0246  0.4225 -0.1666
  870MOL0     C19969   3.669   4.555  10.280 -0.2807 -0.5859  0.5042
  870MOL0     O19970   3.478   4.922  10.230  0.5283 -0.1085  0.5507
  870MOL0     C19971   3.424   4.866  10.587  0.8853 -0.0917  0.4938
  870MOL0     C19972   3.361   4.925  10.696  0.0197 -0.6309 -0.1030
  870MOL0     N19973   2.701   5.040  11.072 -0.0277 -0.0160  0.3318
  870MOL0     N19974   2.602   5.120  11.069 -0.1266  0.1208  0.1736
  870MOL0     C19975   1.596   5.264  11.091 -0.3903  0.1836  0.7751
  870MOL0     C19976   1.468   5.296  11.084 -0.6477 -0.6096 -0.4834
  870MOL0     C19977   1.059   5.384  10.922  0.2158 -0.2164  0.4475
  870MOL0     C19978   0.977   5.370  10.801  0.4174  0.1319  0.4518
  870MOL0     C19979   0.836   5.382  10.798  0.3114  0.1012 -0.5833
  870MOL0     C19980   0.763   5.408  10.919 -0.1612 -0.1969 -0.0845
  870MOL0     O19981   0.630   5.426  10.891 -0.9960  0.0459 -0.5928
  870MOL0     C19982   0.544   5.399  10.998  0.1000  0.0707 -0.5275
  870MOL0     C19983   0.468   5.262  10.997 -0.4605 -0.1908  0.0283
  870MOL0     C19984   0.570   5.147  11.018 -0.1942 -0.0592  0.5943
  870MOL0     C19985   0.621   5.092  10.881  0.6843  0.4760 -0.4467
  870MOL0     C19986   0.711   4.976  10.893 -0.3353 -0.6499 -0.5721
  870MOL0     C19987   0.771   4.881  10.939 -1.2394 -0.3743  0.4532
  870MOL0     C19988   0.837   5.420  11.041  0.5115  0.6977 -0.8304
  870MOL0     C19989   0.982   5.404  11.044 -0.2042 -0.7825  0.2656
  870MOL0     C19990   1.046   5.403  11.184 -0.6525  0.3320  0.8956
  870MOL0     H19991   1.459   5.526  10.846 -2.0811 -0.4175  1.5287
  870MOL0     H19992   1.721   5.460  10.849  0.2314  2.6081  0.1667
  870MOL0     H19993   1.852   5.123  11.003  2.2115 -0.4206  0.4852
  870MOL0     H19994   1.834   5.178  11.170  2.5636  0.7668  1.2658
  870MOL0     H19995   2.059   5.102  11.126 -1.6263  0.2189  2.4799
  870MOL0     H19996   2.068   5.205  10.981  0.9943 -2.2360 -0.1146
  870MOL0     H19997   2.009   5.405  11.186  1.3040  2.5792 -1.6094
  870MOL0     H19998   2.097   5.290  11.270 -1.6701 -1.2124  0.7216
  870MOL0     H19999   2.286   5.299  11.109 -1.3053 -0.9555  3.2156
  870MOL0     H20000   2.211   5.417  11.007 -0.3851 -0.9992 -0.9223
  870MOL0     H20001   2.286   5.469  11.314  0.4692  1.7174  0.6270
  870MOL0     H20002   2.219   5.580  11.205 -1.4778 -0.8915  0.3971
  870MOL0     H20003   2.408   5.569  11.053  0.7072  0.6877 -0.1153
  870MOL0     H20004   2.450   5.634  11.200  2.6176  0.2420 -2.9703
  870MOL0     H20005   2.481   5.352  11.251 -1.0239 -1.6254 -2.9506
  870MOL0     H20006   2.604   5.478  11.239 -2.0485  0.0142  3.0328
  870MOL0     H20007   2.489   5.326  10.986  0.9266  1.6943 -1.4146
  870MOL0     H20008   2.638   5.414  11.000  0.6809 -0.0956  2.0316
  870MOL0     H20009   2.836   5.326  11.132 -0.1719  0.1406 -1.2322
  870MOL0     H20010   2.952   4.944  11.104 -1.5716  1.2070 -1.9603
  870MOL0     H20011   2.973   5.058  11.231 -0.0339  0.0217  0.2089
  870MOL0     H20012   3.036   5.228  11.047  0.6451  0.3844 -0.3910
  870MOL0     H20013   3.156   5.093  11.059 -0.3167 -1.9663 -1.1258
  870MOL0     H20014   3.058   4.972  10.869  3.2108  1.5918 -1.4002
  870MOL0     H20015   2.922   5.083  10.867  0.3091 -0.0287  0.7879
  870MOL0     H20016   3.082   5.155  10.695  1.9234 -1.1908  0.3999
  870MOL0     H20017   3.109   5.268  10.824 -0.9835  0.1279  2.4619
  870MOL0     H20018   3.269   5.215  10.565  0.2079 -0.7250 -1.6641
  870MOL0     H20019   3.495   5.180  10.324  0.8794  2.2619  1.7058
  870MOL0     H20020   3.347   5.260  10.382 -0.3219 -0.9184  0.4118
  870MOL0     H20021   3.326   5.116  10.286 -0.8429 -0.5157  0.4072
  870MOL0     H20022   3.730   4.879  10.210  0.6335  1.1641 -1.6399
  870MOL0     H20023   3.882   4.786  10.039  1.0808 -1.4315 -1.8115
  870MOL0     H20024   4.004   4.358  10.125 -1.4537 -0.2954  0.3323
  870MOL0     H20025   3.888   4.328   9.997 -0.9991  1.2663 -0.3551
  870MOL0     H20026   4.111   4.258   9.907 -2.0893 -0.5433  0.4686
  870MOL0     H20027   4.075   4.402   9.825  2.2406  4.5222  0.6622
  870MOL0     H20028   4.240   4.419  10.088  1.3468  0.9092 -0.0448
  870MOL0     H20029   4.192   4.553   9.977 -0.1390 -0.3126  0.1042
  870MOL0     H20030   4.334   4.443   9.803 -0.8925 -1.5099 -0.4420
  870MOL0     H20031   4.349   4.307   9.917 -0.7220 -0.6856 -1.1634
  870MOL0     H20032   4.454   4.579   9.947 -2.2008 -0.5468  0.0756
  870MOL0     H20033   4.470   4.471  10.080 -0.5852  3.4925  1.1594
  870MOL0     H20034   4.579   4.419   9.805  1.7649 -2.8468 -0.7873
  870MOL0     H20035   4.592   4.298   9.925 -1.3172  0.5718  0.1139
  870MOL0     H20036   4.738   4.563   9.929 -0.0233 -0.3029  0.1286
  870MOL0     H20037   4.803   4.421   9.863 -0.0611 -3.2188  1.1541
  870MOL0     H20038   4.702   4.393  10.146  0.2992  1.0875  0.7020
  870MOL0     H20039   4.844   4.483  10.121  0.2321 -1.1580  1.0265
  870MOL0     H20040   3.779   4.398  10.203 -3.1544  0.2603  2.2521
  870MOL0     H20041   3.620   4.494  10.355  1.0622 -2.3910 -0.0048
  870MOL0     H20042   3.466   4.767  10.600  1.1828  0.0952  1.0025
  870MOL0     H20043   3.348   4.872  10.790 -2.3927  0.6312  0.3654
  870MOL0     H20044   1.626   5.194  11.169  2.3860  0.7720  0.3203
  870MOL0     H20045   1.405   5.247  11.157  3.0350 -0.5431  3.0761
  870MOL0     H20046   1.020   5.366  10.702 -2.6881 -3.8875 -0.9892
  870MOL0     H20047   0.781   5.374  10.705  0.6260  1.7037 -0.9236
  870MOL0     H20048   0.582   5.428  11.097  2.8872 -1.3407 -1.0663
  870MOL0     H20049   0.464   5.472  10.982 -0.4399  0.7418  3.9380
  870MOL0     H20050   0.415   5.249  10.903  0.7933  2.8033 -1.2204
  870MOL0     H20051   0.403   5.261  11.085  0.1226 -1.2301  0.4623
  870MOL0     H20052   0.660   5.172  11.075  0.5329 -2.0157  0.3949
  870MOL0     H20053   0.518   5.070  11.077 -3.3931  1.6295  0.2379
  870MOL0     H20054   0.666   5.170  10.818 -1.0166 -0.7720 -3.3833
  870MOL0     H20055   0.535   5.058  10.823 -1.2778  2.8310  0.8855
  870MOL0     H20056   0.837   4.804  10.973 -2.9840 -2.0711  0.1038
  870MOL0     H20057   0.786   5.431  11.137  0.0858 -1.7873 -0.7010
  870MOL0     H20058   1.097   5.309  11.206 -0.6620  0.0179 -0.3567
  870MOL0     H20059   1.120   5.483  11.194  0.4436 -0.1231 -2.4380
  870MOL0     H20060   0.968   5.414  11.260 -2.0812 -2.4382 -0.0415
  871MOL0     O20061   4.181   3.265   6.523 -0.7859  0.2836 -0.4032
  871MOL0     C20062   4.108   3.217   6.444 -0.0438 -0.4986  0.3323
  871MOL0     O20063   3.983   3.251   6.433  0.3219 -0.1025 -0.3511
  871MOL0     C20064   3.913   3.347   6.502  0.1594 -0.0483  0.5989
  871MOL0     C20065   3.820   3.413   6.425 -0.6228 -0.2761 -0.3721
  871MOL0     C20066   3.729   3.500   6.488 -0.1145  0.7094  0.1596
  871MOL0     C20067   3.726   3.507   6.630  0.4616  0.1528  0.0274
  871MOL0     O20068   3.619   3.566   6.693 -0.0375 -0.4618  0.1411
  871MOL0     C20069   3.586   3.697   6.629 -0.8195  0.8018 -0.2642
  871MOL0     C20070   3.502   3.795   6.717  0.0426 -0.2310  0.1546
  871MOL0     C20071   3.492   3.760   6.866  0.0354  0.1552  0.1805
  871MOL0     C20072   3.436   3.874   6.941 -0.0647  0.5373  0.4683
  871MOL0     C20073   3.446   3.862   7.094 -0.3398  0.4695 -0.9638
  871MOL0     C20074   3.393   3.996   7.154  1.7510  0.1297  0.1159
  871MOL0     C20075   3.491   4.116   7.144 -0.1605 -0.0703  0.0400
  871MOL0     C20076   3.623   4.103   7.225  0.1766  0.7491  1.2762
  871MOL0     N20077   3.699   4.223   7.230  0.6761 -0.2090  0.1732
  871MOL0     C20078   3.749   4.302   7.125 -0.9565  0.2991 -0.6224
  871MOL0     C20079   3.820   4.391   7.184 -1.0359 -0.1433 -0.8044
  871MOL0     C20080   3.892   4.498   7.108  0.0197  0.8081 -0.1269
  871MOL0     C20081   4.045   4.500   7.125  0.8472 -0.1158  0.4296
  871MOL0     C20082   4.108   4.365   7.103  0.2683 -1.1563 -0.1988
  871MOL0     C20083   4.120   4.323   6.952  0.1070 -0.5965 -0.6009
  871MOL0     O20084   4.207   4.403   6.874  0.1745 -0.2450  0.2202
  871MOL0     C20085   4.340   4.416   6.893  0.0275  0.3240  0.4904
  871MOL0     C20086   4.395   4.534   6.856 -0.1250 -0.6016  0.4271
  871MOL0     C20087   4.534   4.549   6.851 -0.3002 -0.4388 -0.3514
  871MOL0     C20088   4.593   4.685   6.804  0.9084  0.0670  0.4776
  871MOL0     C20089   4.617   4.439   6.903 -0.9947 -0.5550  0.1325
  871MOL0     C20090   4.764   4.429   6.887 -1.2399  0.6629 -0.5523
  871MOL0     O20091   4.817   4.301   6.874 -0.2071  0.3204 -0.5285
  871MOL0     C20092   4.948   4.284   6.828  0.2626  0.2582 -0.4405
  871MOL0     C20093   5.046   4.222   6.906  0.4211 -0.0671 -0.0051
  871MOL0     C20094   5.182   4.220   6.864  0.3528 -0.7616  0.1023
  871MOL0     C20095   5.221   4.255   6.733 -0.0820  0.0318 -0.7388
  871MOL0     O20096   5.354   4.244   6.694  0.3628 -0.7303 -0.2212
  871MOL0     C20097   5.401   4.261   6.557  0.6069 -0.3377 -0.3809
  871MOL0     C20098   5.512   4.165   6.517  0.7905  0.7318  0.6074
  871MOL0     C20099   5.629   4.167   6.616 -0.3309  0.2155  0.5431
  871MOL0     C20100   5.735   4.064   6.577  0.4971  0.6122  0.3284
  871MOL0     C20101   5.837   4.069   6.688 -0.5221  0.0873 -0.5276
  871MOL0     C20102   5.810   3.983   6.814  0.3446 -0.1949 -0.4122
  871MOL0     C20103   5.914   4.009   6.918 -0.1784 -0.4882 -0.4107
  871MOL0     C20104   6.009   3.893   6.953 -0.1632  0.7555  0.3626
  871MOL0    Cl20105   5.933   3.761   7.035  0.2884 -0.0137 -0.3709
  871MOL0     C20106   5.120   4.313   6.653 -0.6726  0.6911  0.4262
  871MOL0     C20107   4.983   4.324   6.699 -0.2391 -0.2029 -0.3932
  871MOL0     O20108   4.827   4.530   6.875  0.1401 -0.4744  0.1913
  871MOL0     C20109   4.552   4.321   6.948  0.5580  0.3755 -0.6064
  871MOL0     C20110   4.416   4.314   6.947 -0.2944  0.5758 -0.1853
  871MOL0     N20111   3.813   4.377   7.325 -0.2561  0.7374  0.6133
  871MOL0     N20112   3.738   4.280   7.350  0.0394  0.7124  0.2800
  871MOL0     C20113   3.823   3.455   6.701 -0.2297 -0.2037 -0.4605
  871MOL0     C20114   3.915   3.366   6.644 -0.0858 -0.2246  0.1094
  871MOL0     C20115   4.175   3.136   6.344 -0.1428  0.7625 -1.1159
  871MOL0     C20116   4.298   3.083   6.378 -0.6516  0.5970 -0.3030
  871MOL0     C20117   4.379   3.011   6.284 -0.0572  0.5020 -0.1622
  871MOL0     C20118   4.326   3.003   6.157 -0.4756 -0.2319 -0.1152
  871MOL0     O20119   4.421   2.963   6.069 -0.7865  0.4512 -0.8357
  871MOL0     C20120   4.412   3.010   5.934  0.5864  0.8305  0.0266
  871MOL0     C20121   4.513   2.943   5.833 -0.2243 -0.3936 -0.2272
  871MOL0     C20122   4.438   2.835   5.752 -0.2498 -0.2569 -1.5829
  871MOL0     C20123   4.506   2.800   5.625  0.1587 -0.0401  0.4357
  871MOL0     C20124   4.656   2.790   5.639 -0.6321 -0.6700 -0.2352
  871MOL0     C20125   4.776   2.793   5.644  0.0248  0.3601  0.4909
  871MOL0     C20126   4.199   3.047   6.120  0.3571 -0.4653  0.2708
  871MOL0     C20127   4.124   3.121   6.220 -0.1410  0.0710  1.0791
  871MOL0     C20128   4.010   3.189   6.154  0.1147  0.2304  0.5364
  871MOL0     H20129   3.811   3.401   6.318 -0.7672  0.0401 -0.3978
  871MOL0     H20130   3.646   3.535   6.428  0.5809  2.2023  0.0318
  871MOL0     H20131   3.536   3.686   6.532  0.4730  0.5194 -0.9235
  871MOL0     H20132   3.685   3.744   6.623  0.0277 -0.7739  0.8982
  871MOL0     H20133   3.554   3.890   6.706  1.3589 -0.6595  2.1217
  871MOL0     H20134   3.399   3.788   6.681  0.7052 -1.1850 -1.6610
  871MOL0     H20135   3.430   3.671   6.882  3.4323 -2.5732 -0.5272
  871MOL0     H20136   3.589   3.745   6.914  0.0049  0.1047  0.2270
  871MOL0     H20137   3.487   3.967   6.912 -0.0941  0.5692  0.5187
  871MOL0     H20138   3.331   3.892   6.916 -0.5327  1.3518  2.8375
  871MOL0     H20139   3.550   3.844   7.120  0.0185 -1.8788 -3.5673
  871MOL0     H20140   3.382   3.778   7.122 -0.4404  1.1279  0.9050
  871MOL0     H20141   3.305   4.031   7.100  0.5000 -1.3654  1.1066
  871MOL0     H20142   3.365   3.999   7.260 -3.3376  2.0016 -0.9890
  871MOL0     H20143   3.435   4.205   7.173 -2.2967 -0.9785 -1.0634
  871MOL0     H20144   3.523   4.128   7.040 -0.2501 -3.0018 -0.4266
  871MOL0     H20145   3.600   4.079   7.329 -3.4548  1.7250  0.8306
  871MOL0     H20146   3.686   4.032   7.170  1.3697  2.0268  0.9265
  871MOL0     H20147   3.738   4.288   7.018  0.2850  3.6411 -1.2916
  871MOL0     H20148   3.849   4.596   7.131 -0.3927  0.7097 -0.4704
  871MOL0     H20149   3.865   4.494   7.002 -0.6701 -1.1483  0.0887
  871MOL0     H20150   4.096   4.577   7.067  0.6110  0.1489  0.5687
  871MOL0     H20151   4.058   4.527   7.230  3.0709 -0.1225  0.1943
  871MOL0     H20152   4.207   4.365   7.147  0.8868  0.2342 -1.4932
  871MOL0     H20153   4.059   4.283   7.155  1.5481 -1.8041  0.0101
  871MOL0     H20154   4.151   4.218   6.953  1.1280 -0.3112  0.9392
  871MOL0     H20155   4.018   4.326   6.914 -0.5561 -1.9176  0.9359
  871MOL0     H20156   4.332   4.620   6.833  2.2561  1.3480  0.7098
  871MOL0     H20157   4.651   4.734   6.883  0.6018  0.2990  0.5627
  871MOL0     H20158   4.512   4.754   6.777 -0.1036 -0.5402  1.8384
  871MOL0     H20159   4.643   4.670   6.708 -0.3589 -2.1944  0.1035
  871MOL0     H20160   5.017   4.188   7.005  1.7503 -1.6666 -0.1128
  871MOL0     H20161   5.251   4.183   6.939 -0.6097  0.1581  1.4965
  871MOL0     H20162   5.317   4.247   6.489  1.2373 -0.7401 -1.0851
  871MOL0     H20163   5.430   4.366   6.550 -4.3756  1.5102  1.4945
  871MOL0     H20164   5.475   4.062   6.524 -0.0031  1.0229  0.7978
  871MOL0     H20165   5.549   4.159   6.415  2.9544 -2.9869  1.4371
  871MOL0     H20166   5.610   4.134   6.719 -2.4857 -2.0408 -0.4813
  871MOL0     H20167   5.680   4.264   6.613 -3.3459  1.9373 -3.0409
  871MOL0     H20168   5.778   4.093   6.481  1.3581 -2.3157 -0.2714
  871MOL0     H20169   5.686   3.967   6.572 -2.1760  1.8908 -0.3271
  871MOL0     H20170   5.924   4.029   6.635 -0.3164  1.2839 -1.1397
  871MOL0     H20171   5.867   4.168   6.722  3.6359 -1.7403  1.8775
  871MOL0     H20172   5.803   3.875   6.804 -1.0925 -0.3428  1.5958
  871MOL0     H20173   5.708   4.006   6.847 -0.3189 -2.2050 -0.9610
  871MOL0     H20174   5.870   4.061   7.003 -2.8317  2.0375 -3.1148
  871MOL0     H20175   5.982   4.082   6.875 -1.1578 -0.8950 -2.8356
  871MOL0     H20176   6.081   3.936   7.024 -0.1679  0.2364  0.6814
  871MOL0     H20177   6.069   3.862   6.867 -2.4194  0.2766 -1.1058
  871MOL0     H20178   5.147   4.361   6.559 -0.5923  0.3059  0.2519
  871MOL0     H20179   4.905   4.368   6.637 -0.8553  1.2645  1.3277
  871MOL0     H20180   4.603   4.232   6.982 -1.2155  0.7290  3.6167
  871MOL0     H20181   4.366   4.226   6.985  1.6169  0.3316  1.9296
  871MOL0     H20182   3.830   3.472   6.808  1.3886 -1.2050 -0.3744
  871MOL0     H20183   3.997   3.320   6.698  0.4226  1.5228  0.9127
  871MOL0     H20184   4.323   3.090   6.483  0.1773  0.6399 -0.4961
  871MOL0     H20185   4.475   2.971   6.316 -0.5993  1.3157  2.8277
  871MOL0     H20186   4.308   2.996   5.901 -0.0953  2.7663  1.2025
  871MOL0     H20187   4.434   3.117   5.926  2.2957  0.4980  0.0121
  871MOL0     H20188   4.592   2.888   5.884 -1.8018 -1.6353  1.0062
  871MOL0     H20189   4.535   3.011   5.751 -2.8167 -0.1605 -0.8346
  871MOL0     H20190   4.429   2.741   5.808 -1.2544 -0.6838 -2.4206
  871MOL0     H20191   4.336   2.867   5.730 -1.3220 -3.2416 -1.4265
  871MOL0     H20192   4.485   2.880   5.552  2.0603 -0.2104 -0.3497
  871MOL0     H20193   4.460   2.707   5.590 -0.6198  0.2132  0.7693
  871MOL0     H20194   4.882   2.778   5.643  0.1934  1.4571  0.1560
  871MOL0     H20195   4.161   3.036   6.019  1.8277 -2.7501 -0.1250
  871MOL0     H20196   4.023   3.204   6.046  1.3748  0.3209  0.6791
  871MOL0     H20197   3.925   3.122   6.164 -0.3108  0.4017 -1.5043
  871MOL0     H20198   3.985   3.284   6.201 -1.6998  0.1159 -0.1410
  872MOL0     O20199  10.502   5.474   6.345  0.2923  0.3576 -0.0588
  872MOL0     C20200  10.421   5.435   6.258 -0.1537 -0.0129 -0.7928
  872MOL0     O20201  10.447   5.359   6.150  0.0866 -0.2596 -0.2405
  872MOL0     C20202  10.575   5.329   6.122 -1.1480 -0.2591  0.3804
  872MOL0     C20203  10.598   5.199   6.084  0.0681 -0.2480 -0.6387
  872MOL0     C20204  10.726   5.160   6.042  0.4631 -1.0190 -0.2972
  872MOL0     C20205  10.832   5.247   6.037 -0.3410  0.6958 -0.7020
  872MOL0     O20206  10.940   5.184   5.977 -0.3211 -0.2263  0.1229
  872MOL0     C20207  11.072   5.231   6.009 -0.6785  0.0182 -0.7509
  872MOL0     C20208  11.182   5.143   5.940 -0.7898 -1.1404  0.0060
  872MOL0     C20209  11.333   5.205   5.944 -0.1087 -0.0108  0.4486
  872MOL0     C20210  11.427   5.090   5.895  0.1082  0.3968 -0.4839
  872MOL0     C20211  11.579   5.111   5.914  0.7670  0.3132  0.0045
  872MOL0     C20212  11.636   5.091   6.056 -0.7352  0.4782  0.1123
  872MOL0     C20213  11.785   5.125   6.055 -0.3281 -0.3313  0.2146
  872MOL0     C20214  11.879   5.021   5.996  1.1018 -0.0543  0.1359
  872MOL0     N20215  12.004   5.085   5.970 -0.1128 -0.4845 -0.0435
  872MOL0     C20216  12.055   5.083   5.839 -0.5021 -0.5552  0.3499
  872MOL0     C20217  12.147   5.184   5.830  0.4900  0.0144 -0.2774
  872MOL0     C20218  12.212   5.219   5.704  0.3863 -0.5070 -0.0605
  872MOL0     C20219  12.336   5.133   5.691  0.2714  0.8670  0.0965
  872MOL0     C20220  12.401   5.171   5.556  0.1859 -0.5985  0.1351
  872MOL0     C20221  12.526   5.095   5.532 -0.6276  0.4555 -0.6111
  872MOL0     O20222  12.617   5.163   5.616 -0.5595 -0.4670  0.3600
  872MOL0     C20223  12.747   5.124   5.599  0.2138  0.4037 -0.7153
  872MOL0     C20224  12.846   5.214   5.638  0.7746 -0.6527 -1.0230
  872MOL0     C20225  12.984   5.184   5.641 -0.2668 -0.0959  0.2461
  872MOL0     C20226  13.074   5.291   5.699  0.8325  0.9024 -0.1313
  872MOL0     C20227  13.029   5.056   5.606 -0.9998 -0.5570 -0.5499
  872MOL0     C20228  13.170   5.013   5.598  0.5676 -0.5680  0.0944
  872MOL0     O20229  13.260   5.116   5.607  0.4347 -0.1895 -0.5456
  872MOL0     C20230  13.395   5.098   5.597  0.3784  0.2638  0.5517
  872MOL0     C20231  13.468   4.999   5.666  0.1985 -0.4261 -0.4885
  872MOL0     C20232  13.610   4.981   5.646 -0.5312  0.3733  0.4838
  872MOL0     C20233  13.679   5.068   5.563  0.5391  0.0841 -0.6377
  872MOL0     O20234  13.810   5.036   5.536  0.4223  0.1103  0.0415
  872MOL0     C20235  13.887   5.137   5.472 -0.0609  0.1279  0.2992
  872MOL0     C20236  14.034   5.099   5.484  0.1150 -0.0052  0.7080
  872MOL0     C20237  14.072   4.988   5.379 -0.2961  0.5262 -0.1204
  872MOL0     C20238  14.210   4.940   5.418 -0.0779  0.2796  1.1684
  872MOL0     C20239  14.268   4.811   5.344 -0.1111  0.0992 -0.0873
  872MOL0     C20240  14.402   4.770   5.394 -0.4092  0.3275  0.0348
  872MOL0     C20241  14.477   4.664   5.306  0.1268 -0.3470  0.0871
  872MOL0     C20242  14.593   4.599   5.389 -0.1170 -0.6650  0.6081
  872MOL0    Cl20243  14.669   4.474   5.285  0.1443  0.2132 -0.4903
  872MOL0     C20244  13.610   5.177   5.509 -0.6037  0.4391 -0.0197
  872MOL0     C20245  13.471   5.187   5.519 -0.6966 -0.0391 -0.4023
  872MOL0     O20246  13.198   4.897   5.574  0.1366  0.1565 -0.4025
  872MOL0     C20247  12.928   4.959   5.559  0.5198  0.8859 -0.2746
  872MOL0     C20248  12.793   4.997   5.552  1.0727  0.0362  1.0966
  872MOL0     N20249  12.158   5.235   5.960 -0.4625  0.4354 -0.3745
  872MOL0     N20250  12.069   5.185   6.039 -0.7250  0.1788  0.6713
  872MOL0     C20251  10.815   5.376   6.075  0.0419 -1.1406  0.2126
  872MOL0     C20252  10.685   5.424   6.113  0.1116 -0.3298  0.1118
  872MOL0     C20253  10.278   5.476   6.280  0.2004 -0.1972 -0.1276
  872MOL0     C20254  10.238   5.502   6.412  0.1081 -1.0605  0.7161
  872MOL0     C20255  10.117   5.556   6.450  1.3222  0.2780  0.1371
  872MOL0     C20256  10.016   5.567   6.351  0.2473  0.2297 -0.0228
  872MOL0     O20257   9.889   5.614   6.394 -0.3042 -0.3457  0.0244
  872MOL0     C20258   9.783   5.629   6.293 -0.0514  0.2338 -0.3718
  872MOL0     C20259   9.802   5.769   6.227 -0.2171  0.2801 -0.1209
  872MOL0     C20260   9.778   5.882   6.332 -0.6630 -0.0129  0.3587
  872MOL0     C20261   9.665   5.968   6.303  0.7473 -0.2166  1.0695
  872MOL0     C20262   9.544   5.891   6.294  0.5238 -0.8009 -0.5123
  872MOL0     C20263   9.435   5.833   6.293 -0.4107  0.3418  0.1005
  872MOL0     C20264  10.049   5.544   6.221  0.7544 -0.5283  0.0591
  872MOL0     C20265  10.173   5.493   6.183 -0.0601 -1.1997 -0.7762
  872MOL0     C20266  10.209   5.482   6.037  0.5578 -0.6481  0.3922
  872MOL0     H20267  10.527   5.120   6.104 -0.8516  0.7969  0.3685
  872MOL0     H20268  10.734   5.055   6.017 -1.0789 -0.7567 -2.1018
  872MOL0     H20269  11.096   5.234   6.116 -1.9995  1.4412 -0.4514
  872MOL0     H20270  11.077   5.332   5.968  0.9368  0.0579 -0.5163
  872MOL0     H20271  11.174   5.050   5.996 -0.3912 -0.4372  1.2623
  872MOL0     H20272  11.166   5.116   5.835  3.9937 -1.5577 -0.8407
  872MOL0     H20273  11.342   5.289   5.875  2.8320  0.5632  1.4067
  872MOL0     H20274  11.358   5.243   6.044  1.0311  0.1792  0.0986
  872MOL0     H20275  11.395   4.992   5.931  0.6436  1.5861  3.7558
  872MOL0     H20276  11.418   5.080   5.786 -0.8190 -0.3763 -0.3486
  872MOL0     H20277  11.593   5.215   5.881 -2.3296  0.4191 -1.2769
  872MOL0     H20278  11.626   5.041   5.845 -1.6637 -1.5296  0.0862
  872MOL0     H20279  11.580   5.154   6.127  1.8378  2.2251  0.7241
  872MOL0     H20280  11.622   4.985   6.079 -3.2888  0.7450  0.0853
  872MOL0     H20281  11.802   5.148   6.160 -0.9490 -0.8092  0.4225
  872MOL0     H20282  11.806   5.219   6.001  1.0435  1.4096  3.5002
  872MOL0     H20283  11.901   4.940   6.067  0.3376 -1.0227 -0.6867
  872MOL0     H20284  11.841   4.970   5.907 -0.2910  1.0538  0.0688
  872MOL0     H20285  12.025   5.014   5.761  0.8220 -2.0982  1.1256
  872MOL0     H20286  12.237   5.326   5.707 -1.9123  0.3010 -3.4529
  872MOL0     H20287  12.150   5.197   5.617  0.0058 -0.1779  0.1197
  872MOL0     H20288  12.408   5.154   5.771  2.9877 -0.0477 -1.9411
  872MOL0     H20289  12.305   5.028   5.681  2.4575  0.2107 -0.5264
  872MOL0     H20290  12.323   5.128   5.493 -0.2687  0.4978 -0.0654
  872MOL0     H20291  12.412   5.275   5.527  1.2962 -0.7650 -0.0701
  872MOL0     H20292  12.532   4.991   5.566 -0.1140 -0.2666 -2.7785
  872MOL0     H20293  12.546   5.098   5.425  1.3891 -0.3711 -0.2866
  872MOL0     H20294  12.828   5.317   5.668  0.0702 -0.2815 -2.5919
  872MOL0     H20295  13.132   5.245   5.779 -0.7486 -2.2166 -0.6227
  872MOL0     H20296  13.009   5.375   5.727 -1.9475 -1.5990  1.5652
  872MOL0     H20297  13.146   5.326   5.625  1.7401 -0.5989  0.0142
  872MOL0     H20298  13.428   4.921   5.731 -0.2978 -0.7670 -1.1864
  872MOL0     H20299  13.650   4.897   5.702 -3.4260 -0.6806  1.1623
  872MOL0     H20300  13.859   5.148   5.367  2.7607 -1.6655 -0.7413
  872MOL0     H20301  13.864   5.228   5.529 -4.1628 -1.6738  1.8985
  872MOL0     H20302  14.090   5.189   5.456 -0.8592  0.0517 -1.2507
  872MOL0     H20303  14.057   5.067   5.586 -2.2366 -1.2407  0.9192
  872MOL0     H20304  14.090   5.037   5.283  0.1730  0.5830 -0.0040
  872MOL0     H20305  14.001   4.904   5.374 -1.9856  1.9535 -2.9433
  872MOL0     H20306  14.219   4.911   5.523 -0.5007 -1.4333  0.7698
  872MOL0     H20307  14.286   5.019   5.414  1.4930 -1.0952  2.4830
  872MOL0     H20308  14.204   4.727   5.370  1.2740 -0.9938 -0.0849
  872MOL0     H20309  14.258   4.813   5.235  0.3408  0.0720 -0.1337
  872MOL0     H20310  14.396   4.742   5.500  1.0146 -0.7333 -0.1409
  872MOL0     H20311  14.462   4.860   5.379  0.6051 -0.4889 -0.9853
  872MOL0     H20312  14.514   4.719   5.219  1.0159 -2.6324 -1.0434
  872MOL0     H20313  14.410   4.585   5.272 -0.1011 -0.2922  0.4054
  872MOL0     H20314  14.552   4.546   5.475 -2.7837 -0.4976 -0.4732
  872MOL0     H20315  14.663   4.679   5.416 -1.8123  1.0278  0.1825
  872MOL0     H20316  13.658   5.250   5.445  0.4559  1.1776  1.5510
  872MOL0     H20317  13.422   5.268   5.466  0.5734  0.5896 -0.6626
  872MOL0     H20318  12.944   4.859   5.520 -0.8348 -0.2962  1.9657
  872MOL0     H20319  12.716   4.925   5.525  0.0227  1.8752 -1.0817
  872MOL0     H20320  10.892   5.451   6.063  1.1367 -2.2841 -0.1641
  872MOL0     H20321  10.675   5.529   6.137 -0.2516 -0.3723  0.1395
  872MOL0     H20322  10.314   5.507   6.490  2.1253  1.2781 -1.2178
  872MOL0     H20323  10.093   5.559   6.555 -0.7934 -4.0051 -0.0005
  872MOL0     H20324   9.785   5.546   6.222 -0.7464  1.3251 -1.7251
  872MOL0     H20325   9.681   5.637   6.331 -0.9618  2.4966 -2.9222
  872MOL0     H20326   9.738   5.785   6.140  0.4883  0.1378 -0.6742
  872MOL0     H20327   9.903   5.788   6.191 -0.6482 -2.1067 -2.9358
  872MOL0     H20328   9.757   5.835   6.428  2.8346  1.6588  2.1351
  872MOL0     H20329   9.864   5.943   6.361 -0.8692  0.9794 -0.9883
  872MOL0     H20330   9.686   6.022   6.211 -0.6724 -0.1253  0.7732
  872MOL0     H20331   9.645   6.037   6.385  0.2804  1.1549 -0.1543
  872MOL0     H20332   9.346   5.775   6.308 -0.2713  0.2907  0.7720
  872MOL0     H20333   9.973   5.566   6.147 -0.3705  0.6574  1.5234
  872MOL0     H20334  10.266   5.389   6.024  2.4996  0.6626 -1.1139
  872MOL0     H20335  10.108   5.477   5.995 -0.6041 -0.0597  2.9601
  872MOL0     H20336  10.261   5.572   6.004 -1.5382  0.3615 -0.3230
  873MOL0     O20337   2.300   5.985   5.355 -0.0844 -0.3647  0.1211
  873MOL0     C20338   2.236   6.085   5.318 -0.6022  0.3049 -0.5352
  873MOL0     O20339   2.271   6.174   5.218 -0.4154 -0.1005 -0.2612
  873MOL0     C20340   2.387   6.156   5.150 -0.2563 -0.3098 -0.1447
  873MOL0     C20341   2.505   6.163   5.217 -0.2924  0.0399 -0.4086
  873MOL0     C20342   2.628   6.138   5.151  1.2973  0.2240  0.4481
  873MOL0     C20343   2.631   6.108   5.016  0.5802  0.3853  0.3957
  873MOL0     O20344   2.740   6.096   4.938  0.5332  0.4091  0.3524
  873MOL0     C20345   2.870   6.091   4.995  0.6971  0.1615 -0.2029
  873MOL0     C20346   2.897   5.960   5.069 -1.1918  1.1041  0.4077
  873MOL0     C20347   3.026   5.952   5.156  0.5367 -0.3942 -0.3243
  873MOL0     C20348   3.159   5.983   5.082 -0.4517  0.2884  0.5852
  873MOL0     C20349   3.271   6.006   5.183  0.3619  0.0271 -0.4624
  873MOL0     C20350   3.394   6.039   5.089  0.2859  0.2332  0.0627
  873MOL0     C20351   3.524   6.028   5.158  0.3904 -0.5698  1.6635
  873MOL0     C20352   3.582   5.887   5.146 -0.7757  0.5001  0.4812
  873MOL0     N20353   3.723   5.893   5.189 -0.0305  0.5120  0.2484
  873MOL0     C20354   3.775   5.869   5.311 -0.1863  0.0043 -0.6675
  873MOL0     C20355   3.907   5.880   5.297  0.1947  0.0308 -0.1819
  873MOL0     C20356   4.007   5.874   5.405 -0.1536  0.8983 -0.5716
  873MOL0     C20357   4.074   6.005   5.408  0.4054 -0.4387  0.4920
  873MOL0     C20358   4.194   5.994   5.509  0.0900 -0.4554  0.0567
  873MOL0     C20359   4.266   6.127   5.532  0.0338  0.1515  0.4897
  873MOL0     O20360   4.397   6.113   5.599  0.9917 -1.3064  0.3157
  873MOL0     C20361   4.488   6.033   5.539  0.7476 -0.4519  0.6023
  873MOL0     C20362   4.501   6.014   5.399  0.0326 -0.8793  0.5683
  873MOL0     C20363   4.598   5.928   5.342  0.3412 -0.1197 -0.0086
  873MOL0     C20364   4.605   5.921   5.191  0.1023 -0.1712  0.0239
  873MOL0     C20365   4.679   5.850   5.432  1.1440 -0.4560  0.5294
  873MOL0     C20366   4.785   5.753   5.390  0.0400 -0.4721  0.3050
  873MOL0     O20367   4.876   5.728   5.485  0.3082 -0.0342 -0.0592
  873MOL0     C20368   4.973   5.638   5.459  0.3518  0.1659 -0.2881
  873MOL0     C20369   5.062   5.672   5.353 -0.7430  0.5471 -0.0317
  873MOL0     C20370   5.162   5.578   5.314  0.5541 -0.1753  0.2622
  873MOL0     C20371   5.162   5.454   5.370 -0.7259  0.5365 -0.4865
  873MOL0     O20372   5.260   5.372   5.322  0.3295 -0.0993  0.0543
  873MOL0     C20373   5.299   5.263   5.412 -0.5147  0.7083 -0.0898
  873MOL0     C20374   5.440   5.205   5.352  0.6405 -0.4316 -0.5047
  873MOL0     C20375   5.490   5.082   5.421 -0.0860  0.1413  0.4785
  873MOL0     C20376   5.631   5.043   5.367 -0.2317  0.9053 -0.7921
  873MOL0     C20377   5.696   4.911   5.421  0.7079  0.2860 -0.4902
  873MOL0     C20378   5.703   4.918   5.575 -0.2863  0.5465 -0.4391
  873MOL0     C20379   5.772   4.793   5.633  0.8565 -0.3838 -0.1344
  873MOL0     C20380   5.822   4.824   5.781  0.1602 -0.5856 -0.8341
  873MOL0    Cl20381   5.851   4.676   5.873 -0.0175 -0.0148 -0.3034
  873MOL0     C20382   5.068   5.417   5.469  0.0730  0.5040  0.2735
  873MOL0     C20383   4.980   5.509   5.514  0.3239  0.3314 -1.0766
  873MOL0     O20384   4.773   5.684   5.288 -0.8976 -0.2112 -0.0337
  873MOL0     C20385   4.650   5.860   5.573  0.3218  0.3951  0.6266
  873MOL0     C20386   4.559   5.950   5.627 -0.9560  0.1933  0.5856
  873MOL0     N20387   3.937   5.928   5.170  0.4403 -0.4928  0.4403
  873MOL0     N20388   3.830   5.935   5.107  0.8109  0.5107 -0.4943
  873MOL0     C20389   2.508   6.102   4.951  0.1387 -0.8636 -0.2582
  873MOL0     C20390   2.384   6.115   5.016 -0.3531 -0.1921 -0.2135
  873MOL0     C20391   2.108   6.119   5.378  0.1961 -0.0445  0.8143
  873MOL0     C20392   2.037   6.231   5.337  0.1673 -0.0687  0.2654
  873MOL0     C20393   1.918   6.268   5.386  0.2359  0.2372 -0.4654
  873MOL0     C20394   1.851   6.189   5.481  0.2779  0.3631 -0.1325
  873MOL0     O20395   1.730   6.234   5.534 -0.8334 -0.1744  0.0653
  873MOL0     C20396   1.660   6.145   5.624  0.2075  0.3666  0.9724
  873MOL0     C20397   1.529   6.213   5.660 -0.3658  0.3173  0.0178
  873MOL0     C20398   1.453   6.179   5.789 -0.8691  0.1528  1.1849
  873MOL0     C20399   1.361   6.061   5.762  0.9863  0.2340 -0.2760
  873MOL0     C20400   1.254   6.051   5.858  0.2196  0.4634  0.2619
  873MOL0     C20401   1.148   6.032   5.914 -0.0342 -0.6773 -0.0653
  873MOL0     C20402   1.911   6.071   5.521 -0.1895  0.7765  0.7624
  873MOL0     C20403   2.041   6.033   5.471  0.2515  0.2045  0.0758
  873MOL0     C20404   2.099   5.900   5.516  0.6732  0.6799 -0.0571
  873MOL0     H20405   2.512   6.187   5.322  0.3358  0.9072 -0.6344
  873MOL0     H20406   2.725   6.135   5.199  0.7814 -0.1029  1.4964
  873MOL0     H20407   2.882   6.177   5.062  2.3078 -1.2448  1.4120
  873MOL0     H20408   2.943   6.108   4.915 -0.7995  0.8846 -1.4584
  873MOL0     H20409   2.808   5.928   5.124 -1.4927  1.0117 -0.1220
  873MOL0     H20410   2.912   5.883   4.993 -1.8777 -0.4918  1.8233
  873MOL0     H20411   3.026   6.015   5.245  3.1412 -0.6351 -0.0747
  873MOL0     H20412   3.026   5.852   5.199 -2.4014 -0.1518  0.4217
  873MOL0     H20413   3.179   5.914   4.999 -0.8693 -0.5141  1.1407
  873MOL0     H20414   3.150   6.081   5.034  1.8033 -0.1646 -0.8824
  873MOL0     H20415   3.289   5.912   5.237 -0.7315  0.5484  0.8872
  873MOL0     H20416   3.248   6.085   5.255 -0.6016 -0.2586 -0.4446
  873MOL0     H20417   3.406   5.965   5.009  0.2835  0.1933  0.0995
  873MOL0     H20418   3.382   6.137   5.043 -0.9547  0.1960  0.2855
  873MOL0     H20419   3.507   6.058   5.262  1.6390 -0.8110  1.9615
  873MOL0     H20420   3.589   6.104   5.116  2.8676 -2.0544  2.5588
  873MOL0     H20421   3.522   5.820   5.208  1.1087 -0.1479  1.6940
  873MOL0     H20422   3.599   5.848   5.045  1.6100  0.1406  0.9594
  873MOL0     H20423   3.720   5.840   5.401 -2.5189  3.2347 -0.8658
  873MOL0     H20424   4.079   5.800   5.368 -1.2880 -0.2041 -0.6695
  873MOL0     H20425   3.967   5.847   5.504  0.7328 -0.0085 -0.4398
  873MOL0     H20426   4.102   6.027   5.304  0.4379 -3.1466 -0.1449
  873MOL0     H20427   3.999   6.080   5.436  0.0372 -0.4694 -0.3847
  873MOL0     H20428   4.152   5.953   5.601 -1.1621 -1.0891 -0.7626
  873MOL0     H20429   4.268   5.920   5.475 -0.0164 -1.0553  1.0873
  873MOL0     H20430   4.294   6.165   5.433  3.2358  1.0417  1.6237
  873MOL0     H20431   4.194   6.184   5.592  0.7801 -0.4147  1.9608
  873MOL0     H20432   4.452   6.079   5.327  1.1625  0.0517  0.6131
  873MOL0     H20433   4.528   5.985   5.148 -3.6552 -2.0934  3.2022
  873MOL0     H20434   4.577   5.820   5.160  2.2226 -0.6313 -0.5759
  873MOL0     H20435   4.699   5.948   5.142 -0.7925 -0.0332 -1.6785
  873MOL0     H20436   5.057   5.770   5.305  2.3872  0.6392 -0.4119
  873MOL0     H20437   5.244   5.609   5.249 -0.2140  2.9725  0.6358
  873MOL0     H20438   5.300   5.303   5.513 -0.6278  1.2148 -0.2847
  873MOL0     H20439   5.220   5.189   5.401  0.9418 -1.1114  1.1536
  873MOL0     H20440   5.432   5.187   5.244 -1.1253 -0.1746 -0.4473
  873MOL0     H20441   5.512   5.282   5.380 -0.0640 -0.8193  2.8069
  873MOL0     H20442   5.420   4.998   5.410 -0.5112  0.2936  1.7914
  873MOL0     H20443   5.489   5.101   5.529 -2.2623 -2.3741  1.0101
  873MOL0     H20444   5.681   5.139   5.381 -2.8594  2.3244 -0.4045
  873MOL0     H20445   5.616   5.022   5.261 -2.0879  0.2623 -0.4409
  873MOL0     H20446   5.629   4.830   5.390  2.9288 -1.8105 -0.1150
  873MOL0     H20447   5.794   4.882   5.381  1.8366 -1.0761  2.9418
  873MOL0     H20448   5.603   4.923   5.619 -0.1823  0.4946 -0.1888
  873MOL0     H20449   5.747   5.009   5.617 -0.3566 -1.4376  4.7885
  873MOL0     H20450   5.857   4.765   5.571  1.5462  0.6323  0.3207
  873MOL0     H20451   5.703   4.708   5.628 -0.2248  0.5046 -0.7970
  873MOL0     H20452   5.745   4.884   5.830 -0.6751  1.9194 -4.7281
  873MOL0     H20453   5.910   4.889   5.772 -0.2656  0.1921  0.3850
  873MOL0     H20454   5.052   5.317   5.506 -1.4318  0.3127 -0.8187
  873MOL0     H20455   4.902   5.477   5.582 -0.8460 -1.1674 -3.0145
  873MOL0     H20456   4.704   5.791   5.638  0.2975  0.5670  0.8310
  873MOL0     H20457   4.553   5.974   5.733  2.1257  2.4999  0.3712
  873MOL0     H20458   2.513   6.086   4.844 -0.4948  2.7304 -0.9516
  873MOL0     H20459   2.286   6.102   4.970 -0.7796  0.1018  0.5809
  873MOL0     H20460   2.089   6.292   5.263  1.0135 -3.9030 -2.6466
  873MOL0     H20461   1.861   6.357   5.362 -0.2195  1.0560  3.1022
  873MOL0     H20462   1.635   6.054   5.568 -0.2827  1.3335 -0.4311
  873MOL0     H20463   1.716   6.120   5.715  0.7093  0.3233  0.6606
  873MOL0     H20464   1.452   6.197   5.583 -0.4168  1.6825 -0.2536
  873MOL0     H20465   1.561   6.318   5.665  2.7397 -0.5050 -0.8732
  873MOL0     H20466   1.518   6.153   5.873  3.8538  2.9748 -1.1751
  873MOL0     H20467   1.402   6.269   5.824  2.4264  3.2883 -1.3262
  873MOL0     H20468   1.417   5.968   5.758 -0.9975 -1.0223 -0.5382
  873MOL0     H20469   1.311   6.064   5.664  1.0381  0.2859 -0.3004
  873MOL0     H20470   1.063   6.014   5.976  1.7778 -1.4652  2.3500
  873MOL0     H20471   1.876   6.012   5.605  2.6730 -1.1045  0.7662
  873MOL0     H20472   2.029   5.859   5.588 -0.0918  3.4146  0.8893
  873MOL0     H20473   2.104   5.842   5.424 -1.8522  0.6969 -0.2772
  873MOL0     H20474   2.193   5.896   5.572  0.4993 -2.0850  0.1571
  874MOL0     O20475   0.730   7.040   4.735 -0.8918  0.5769  0.2327
  874MOL0     C20476   0.816   7.051   4.827 -0.1755  0.0034  0.0108
  874MOL0     O20477   0.933   7.120   4.808 -0.6962 -0.4983 -0.5184
  874MOL0     C20478   0.960   7.172   4.688 -0.0572  0.2359  0.0379
  874MOL0     C20479   1.051   7.097   4.607 -0.3121 -0.0256  0.1005
  874MOL0     C20480   1.090   7.157   4.485 -0.1727 -0.7145  0.0764
  874MOL0     C20481   1.038   7.276   4.440  0.9632  0.4994 -0.7378
  874MOL0     O20482   1.086   7.315   4.320  0.0836  0.8402  0.3473
  874MOL0     C20483   1.022   7.425   4.246 -0.3736 -0.2620  0.5863
  874MOL0     C20484   1.075   7.407   4.110  0.6605  0.5992  0.7211
  874MOL0     C20485   1.231   7.416   4.088 -0.2421 -0.2875  0.0900
  874MOL0     C20486   1.301   7.283   4.104 -0.3256  0.1760 -0.5968
  874MOL0     C20487   1.446   7.290   4.061 -0.0926  0.5384  0.2835
  874MOL0     C20488   1.512   7.154   4.042  0.1834 -0.6524 -0.3513
  874MOL0     C20489   1.659   7.172   4.012 -0.8592  0.4940  0.3287
  874MOL0     C20490   1.749   7.043   3.986 -0.3986 -0.1972 -0.7159
  874MOL0     N20491   1.890   7.065   3.935  0.2533 -0.5537 -0.3980
  874MOL0     C20492   1.935   7.167   3.849 -0.1772  0.4992 -0.3410
  874MOL0     C20493   2.067   7.138   3.833  0.0310 -0.5759  0.9712
  874MOL0     C20494   2.156   7.213   3.732 -0.1876  0.0131 -0.3286
  874MOL0     C20495   2.239   7.124   3.633  0.2388  0.1701 -0.0452
  874MOL0     C20496   2.362   7.045   3.695 -0.5075 -0.2441  0.4070
  874MOL0     C20497   2.480   7.132   3.732 -0.7246  0.7971 -0.0461
  874MOL0     O20498   2.590   7.052   3.779 -0.3530 -0.4962 -0.1931
  874MOL0     C20499   2.714   7.104   3.783  0.3141  0.8531 -0.6964
  874MOL0     C20500   2.744   7.240   3.790  0.5692 -0.6959 -0.5444
  874MOL0     C20501   2.879   7.293   3.805 -0.6194  0.7060  0.5313
  874MOL0     C20502   2.905   7.442   3.779  0.3619  0.7331  0.4397
  874MOL0     C20503   2.976   7.194   3.838 -0.7219 -0.3510  0.0333
  874MOL0     C20504   3.114   7.232   3.889  0.3184 -0.0354 -0.3369
  874MOL0     O20505   3.118   7.345   3.973  0.1229  0.5211 -0.3625
  874MOL0     C20506   3.240   7.390   4.025  0.1268  0.0590 -0.3745
  874MOL0     C20507   3.352   7.312   4.060  0.5096  0.5960 -0.4964
  874MOL0     C20508   3.467   7.366   4.120  0.3324 -0.1911  0.5448
  874MOL0     C20509   3.474   7.498   4.157 -0.7524  0.4089  0.0487
  874MOL0     O20510   3.595   7.539   4.205 -0.3152 -0.2702  0.1116
  874MOL0     C20511   3.599   7.665   4.277  0.0777  0.1267  0.1524
  874MOL0     C20512   3.735   7.669   4.347  0.0467  0.1824 -0.2684
  874MOL0     C20513   3.724   7.769   4.469  0.1210 -0.1407  0.2499
  874MOL0     C20514   3.715   7.911   4.434  0.4400  0.1207  0.1092
  874MOL0     C20515   3.726   7.996   4.557 -0.4305 -0.1523  0.1926
  874MOL0     C20516   3.864   8.022   4.612  0.1587 -0.0856  0.7217
  874MOL0     C20517   3.847   8.111   4.732 -0.7661  0.0443 -0.5904
  874MOL0     C20518   3.978   8.151   4.801 -0.1674 -0.1725 -1.2066
  874MOL0    Cl20519   4.094   8.222   4.689  0.1425 -0.0626  0.0984
  874MOL0     C20520   3.366   7.575   4.112  0.6474 -0.2961  0.9584
  874MOL0     C20521   3.245   7.525   4.059 -0.5957  0.4239 -0.3471
  874MOL0     O20522   3.217   7.175   3.842 -0.1282  0.3115  0.3520
  874MOL0     C20523   2.950   7.054   3.839  0.4969 -0.1083 -0.4212
  874MOL0     C20524   2.824   7.012   3.795  0.3824 -0.2523 -0.2156
  874MOL0     N20525   2.102   7.023   3.905 -0.3792  0.4016 -0.1813
  874MOL0     N20526   1.991   6.985   3.970  0.0078  0.2301 -0.1494
  874MOL0     C20527   0.947   7.342   4.520  0.4461  0.4758  1.1584
  874MOL0     C20528   0.899   7.289   4.636 -0.9828 -0.8274 -0.0446
  874MOL0     C20529   0.801   6.973   4.950 -0.1841  0.3186 -0.5453
  874MOL0     C20530   0.900   6.992   5.052  0.7991  0.8061 -0.2949
  874MOL0     C20531   0.872   6.945   5.180  0.3247 -0.5539 -0.3803
  874MOL0     C20532   0.753   6.873   5.218 -0.4528  0.2900 -0.5419
  874MOL0     O20533   0.719   6.805   5.334  0.1554 -0.0194 -0.3035
  874MOL0     C20534   0.791   6.838   5.452  0.0316 -0.2875  1.1055
  874MOL0     C20535   0.780   6.985   5.504  0.7788  0.0848  0.0139
  874MOL0     C20536   0.625   7.018   5.515 -0.3860  0.2583 -0.0496
  874MOL0     C20537   0.605   7.167   5.561 -0.7329  0.3275 -0.9638
  874MOL0     C20538   0.638   7.190   5.706 -0.7991  0.0115  0.7678
  874MOL0     C20539   0.666   7.227   5.817 -0.3297 -0.5403  0.4279
  874MOL0     C20540   0.667   6.852   5.105 -0.2564  0.6541 -0.2949
  874MOL0     C20541   0.687   6.898   4.975 -0.0794 -0.1241  0.6918
  874MOL0     C20542   0.570   6.872   4.881  0.0160  0.2744 -0.6089
  874MOL0     H20543   1.089   7.004   4.648 -0.9248  0.4977  1.9551
  874MOL0     H20544   1.171   7.111   4.429 -0.5746 -1.6374  0.2291
  874MOL0     H20545   1.046   7.522   4.290 -1.7193  0.3268  0.0719
  874MOL0     H20546   0.914   7.414   4.235 -0.6982  2.0378  1.0320
  874MOL0     H20547   1.040   7.309   4.077  0.2419 -0.0060  2.8054
  874MOL0     H20548   1.033   7.483   4.043  0.7580  0.8297  0.9205
  874MOL0     H20549   1.266   7.448   3.989  0.8966 -0.6532  0.3603
  874MOL0     H20550   1.273   7.495   4.150 -1.2621 -0.0496  0.5042
  874MOL0     H20551   1.294   7.248   4.207 -0.0275  1.5314 -0.0862
  874MOL0     H20552   1.254   7.201   4.049 -0.4615 -0.7127  0.8211
  874MOL0     H20553   1.503   7.354   4.129  2.8221 -3.0733  1.5361
  874MOL0     H20554   1.446   7.326   3.958  1.4842  1.9188  0.7323
  874MOL0     H20555   1.485   7.093   4.128  3.8085 -0.5877  0.9853
  874MOL0     H20556   1.460   7.105   3.958  1.3487 -0.1560 -1.3915
  874MOL0     H20557   1.705   7.217   4.101  1.0108 -2.2609  0.8960
  874MOL0     H20558   1.674   7.241   3.929  1.6715  0.0704  0.3534
  874MOL0     H20559   1.739   6.995   4.083 -0.9748  2.6430  0.7341
  874MOL0     H20560   1.707   6.981   3.906  0.0319 -0.6343 -0.6054
  874MOL0     H20561   1.884   7.254   3.807  1.5205  0.5416 -2.5500
  874MOL0     H20562   2.229   7.273   3.787  0.2838  2.4801 -3.3097
  874MOL0     H20563   2.091   7.281   3.676  1.3884  0.5039 -1.6647
  874MOL0     H20564   2.163   7.055   3.595 -1.6398  2.3480 -0.4322
  874MOL0     H20565   2.284   7.179   3.550 -4.1124  0.8886 -2.2076
  874MOL0     H20566   2.331   6.978   3.776 -1.7880  0.9076  0.9070
  874MOL0     H20567   2.376   6.971   3.615  0.1039 -0.8309  1.0514
  874MOL0     H20568   2.520   7.177   3.641  1.7425 -0.8387  0.1410
  874MOL0     H20569   2.460   7.208   3.808  0.9228  0.7964  0.4331
  874MOL0     H20570   2.663   7.312   3.794 -1.8994 -3.2157 -1.3099
  874MOL0     H20571   2.883   7.504   3.866  1.8212  0.4120  1.0729
  874MOL0     H20572   2.841   7.465   3.694  0.4802 -1.7129 -0.3835
  874MOL0     H20573   3.006   7.460   3.741  0.6243 -1.0944  0.2072
  874MOL0     H20574   3.351   7.206   4.041  0.0525  0.6650 -0.8777
  874MOL0     H20575   3.549   7.295   4.137 -1.3104 -2.2725  0.2182
  874MOL0     H20576   3.589   7.753   4.213 -3.7469  0.5239  1.0592
  874MOL0     H20577   3.520   7.673   4.352 -1.4474  0.0468 -1.3899
  874MOL0     H20578   3.758   7.572   4.392 -2.9409  0.1131  1.3403
  874MOL0     H20579   3.809   7.698   4.271 -1.6069 -2.3233 -3.0705
  874MOL0     H20580   3.816   7.756   4.527  0.9131  0.8456 -0.7454
  874MOL0     H20581   3.643   7.735   4.533  1.1673 -4.5235 -0.4578
  874MOL0     H20582   3.627   7.932   4.373  1.2335 -0.2514 -1.2124
  874MOL0     H20583   3.792   7.945   4.363  0.3187 -2.4491 -1.3741
  874MOL0     H20584   3.694   8.098   4.533  2.2101  0.1129 -2.9295
  874MOL0     H20585   3.665   7.956   4.639 -2.2197  1.7180 -0.1363
  874MOL0     H20586   3.931   8.071   4.539  1.3502 -0.6212  1.4285
  874MOL0     H20587   3.906   7.928   4.647 -0.4354 -1.1642 -1.2910
  874MOL0     H20588   3.779   8.063   4.803 -1.8820  2.1196 -0.1534
  874MOL0     H20589   3.794   8.200   4.696  1.2189  1.3084 -0.5648
  874MOL0     H20590   4.019   8.071   4.864 -1.6975  0.1092  0.2068
  874MOL0     H20591   3.953   8.228   4.874 -3.0758 -2.2315  0.1572
  874MOL0     H20592   3.362   7.683   4.121 -2.5962  0.0544 -2.2358
  874MOL0     H20593   3.164   7.595   4.040 -0.6279  0.1119 -1.4653
  874MOL0     H20594   3.036   6.988   3.841  1.7216  1.4057  1.8698
  874MOL0     H20595   2.805   6.909   3.767  1.0914 -0.0551 -1.5226
  874MOL0     H20596   0.925   7.443   4.487  0.3748  0.0011 -0.3131
  874MOL0     H20597   0.829   7.341   4.701  0.3749  1.8042 -0.5902
  874MOL0     H20598   0.994   7.040   5.030  1.7652 -1.1372 -0.5892
  874MOL0     H20599   0.953   6.955   5.252  1.3841 -0.8475 -1.5040
  874MOL0     H20600   0.761   6.773   5.535 -4.1508 -0.0697 -0.0322
  874MOL0     H20601   0.897   6.821   5.435 -0.1804 -0.0944 -0.5070
  874MOL0     H20602   0.829   7.046   5.427  0.3160 -1.9073 -1.9817
  874MOL0     H20603   0.821   6.997   5.604 -1.1955  0.4714  0.8277
  874MOL0     H20604   0.597   7.002   5.410 -1.3821  1.4322  0.0173
  874MOL0     H20605   0.559   6.958   5.578 -1.7558  1.6083 -0.1343
  874MOL0     H20606   0.498   7.185   5.544 -0.3463 -0.1796 -4.7975
  874MOL0     H20607   0.660   7.225   5.487  0.1762 -1.7233 -1.9622
  874MOL0     H20608   0.695   7.253   5.917  1.8791 -0.4310 -0.1795
  874MOL0     H20609   0.577   6.793   5.118 -0.0668  0.2954 -0.5903
  874MOL0     H20610   0.607   6.837   4.785  2.3318 -0.3258  0.4343
  874MOL0     H20611   0.493   6.806   4.922 -2.6271  1.5179 -3.2349
  874MOL0     H20612   0.517   6.963   4.852  0.2256 -0.1508 -2.4501
  875MOL0     O20613   5.793   0.936   5.143  0.4357 -0.3671  0.3149
  875MOL0     C20614   5.839   1.046   5.164 -0.3536 -0.4225  0.3884
  875MOL0     O20615   5.969   1.086   5.164  0.0904 -0.0784 -0.2214
  875MOL0     C20616   6.068   0.986   5.157  0.5573 -0.2004  0.3655
  875MOL0     C20617   6.066   0.879   5.243  0.2330  0.0481  1.1113
  875MOL0     C20618   6.169   0.783   5.243 -0.0658  0.9442 -0.4412
  875MOL0     C20619   6.283   0.789   5.160 -0.1736 -0.4036  0.3964
  875MOL0     O20620   6.387   0.695   5.163 -0.4961 -0.3008 -0.2932
  875MOL0     C20621   6.520   0.740   5.184  0.6877 -1.1452  0.3002
  875MOL0     C20622   6.553   0.759   5.327  0.4220  0.3764 -0.6125
  875MOL0     C20623   6.490   0.647   5.426 -0.0365  0.6288  0.2032
  875MOL0     C20624   6.532   0.511   5.380 -0.0235 -0.3345  0.5918
  875MOL0     C20625   6.483   0.402   5.479 -0.7787  0.2564  0.2098
  875MOL0     C20626   6.332   0.393   5.515 -0.1047 -0.1704  0.9815
  875MOL0     C20627   6.229   0.416   5.403  0.3236 -0.2650  0.2148
  875MOL0     C20628   6.175   0.293   5.341 -1.0783  0.3631 -0.2970
  875MOL0     N20629   6.287   0.234   5.262 -0.1764  0.0280 -0.4390
  875MOL0     C20630   6.332   0.272   5.136 -0.2509 -0.3753 -1.2310
  875MOL0     C20631   6.421   0.178   5.105 -0.1570  0.7494 -0.7478
  875MOL0     C20632   6.504   0.180   4.979 -0.2070 -0.2376 -0.2023
  875MOL0     C20633   6.635   0.253   5.015  0.7119  0.6615 -0.4272
  875MOL0     C20634   6.708   0.315   4.890  0.5258 -0.2446 -0.1249
  875MOL0     C20635   6.845   0.372   4.925 -1.5138  0.3425 -0.1320
  875MOL0     O20636   6.854   0.483   5.009 -0.1074  0.3553 -0.5707
  875MOL0     C20637   6.975   0.537   5.045  0.4322 -0.6241 -0.5781
  875MOL0     C20638   6.977   0.642   5.134  0.4168  0.3280  0.2384
  875MOL0     C20639   7.093   0.700   5.184  0.1168  0.2191 -0.0016
  875MOL0     C20640   7.080   0.828   5.264 -0.0504  0.8196  0.0952
  875MOL0     C20641   7.219   0.640   5.151 -0.0819  0.4861  0.0178
  875MOL0     C20642   7.349   0.679   5.209  1.2212 -0.4339  0.1304
  875MOL0     O20643   7.460   0.613   5.164 -0.3913  0.5969  0.2822
  875MOL0     C20644   7.588   0.661   5.181  0.1382 -0.1395 -0.1448
  875MOL0     C20645   7.684   0.589   5.107  0.4428 -0.1927  0.7131
  875MOL0     C20646   7.821   0.621   5.110 -0.4313 -0.8989 -0.5876
  875MOL0     C20647   7.864   0.723   5.196  0.5084  0.1714 -0.5056
  875MOL0     O20648   7.996   0.763   5.190  0.0396  0.3326 -0.0314
  875MOL0     C20649   8.097   0.688   5.124 -0.0655  0.1471  0.5877
  875MOL0     C20650   8.109   0.752   4.990 -1.0498  0.0891  0.1497
  875MOL0     C20651   8.185   0.667   4.888 -0.1653  0.3549 -0.8212
  875MOL0     C20652   8.198   0.730   4.750 -0.3819  0.4143 -0.4982
  875MOL0     C20653   8.286   0.654   4.653 -0.4173  0.7272  0.7197
  875MOL0     C20654   8.354   0.741   4.547 -0.4389 -0.3598 -0.6042
  875MOL0     C20655   8.417   0.653   4.441 -0.6836 -0.2088 -0.0848
  875MOL0     C20656   8.563   0.618   4.484  0.0950  0.2307  0.0744
  875MOL0    Cl20657   8.666   0.581   4.337 -0.5904  0.3256  0.1495
  875MOL0     C20658   7.767   0.800   5.263  0.7830  0.1809 -0.7494
  875MOL0     C20659   7.632   0.766   5.261  0.5743  0.3930  0.3180
  875MOL0     O20660   7.347   0.773   5.285  0.3150 -0.0450  0.4742
  875MOL0     C20661   7.218   0.537   5.060 -0.5844  0.7965  0.1760
  875MOL0     C20662   7.098   0.491   5.009  0.2256  0.6368  0.1732
  875MOL0     N20663   6.419   0.073   5.200 -0.6957 -0.0337  0.1051
  875MOL0     N20664   6.339   0.109   5.287  0.4301 -0.1260  0.1026
  875MOL0     C20665   6.281   0.899   5.067 -0.4157 -0.0445 -0.6253
  875MOL0     C20666   6.178   0.996   5.069  0.3941  0.7738  0.6045
  875MOL0     C20667   5.749   1.154   5.225 -0.6000  0.2375 -0.4043
  875MOL0     C20668   5.808   1.269   5.284 -0.0659  0.1375  0.5989
  875MOL0     C20669   5.737   1.351   5.351  0.6220 -0.0638  0.6096
  875MOL0     C20670   5.598   1.355   5.359 -0.3995  0.1516 -0.3299
  875MOL0     O20671   5.544   1.454   5.439 -0.3516 -0.1424  0.1485
  875MOL0     C20672   5.402   1.469   5.427 -0.1671 -0.0013  0.5560
  875MOL0     C20673   5.318   1.393   5.529  0.7087  0.6387 -0.9420
  875MOL0     C20674   5.343   1.433   5.679 -0.0693 -0.5804 -0.9876
  875MOL0     C20675   5.246   1.546   5.736  0.0436  0.1076  0.0619
  875MOL0     C20676   5.123   1.492   5.781 -0.1676  0.2562 -0.3280
  875MOL0     C20677   5.016   1.441   5.809  0.5019 -0.1317 -0.6821
  875MOL0     C20678   5.538   1.240   5.310  0.1056 -0.8143 -0.0501
  875MOL0     C20679   5.610   1.144   5.246 -1.4166  0.1734 -0.5667
  875MOL0     C20680   5.525   1.023   5.194  0.9725  0.2436  0.8012
  875MOL0     H20681   5.986   0.868   5.315 -0.6292 -0.2046  0.1412
  875MOL0     H20682   6.164   0.707   5.320  1.1200  2.8372  1.6063
  875MOL0     H20683   6.543   0.839   5.143 -1.0178  0.7428  3.5115
  875MOL0     H20684   6.595   0.666   5.152  3.9878 -0.1683  4.7653
  875MOL0     H20685   6.660   0.777   5.343  0.8859 -1.8962 -0.8684
  875MOL0     H20686   6.504   0.856   5.341  1.1238  0.9113 -1.6617
  875MOL0     H20687   6.537   0.656   5.525  0.5762  0.3819 -0.0631
  875MOL0     H20688   6.381   0.656   5.429 -0.0974 -0.2235  2.5747
  875MOL0     H20689   6.503   0.486   5.277 -0.4690 -1.3164  0.9407
  875MOL0     H20690   6.641   0.507   5.386 -0.0887 -2.5607  1.3989
  875MOL0     H20691   6.541   0.415   5.571  0.8352  2.2549 -0.9972
  875MOL0     H20692   6.510   0.311   5.425 -2.7448  0.8941 -1.9977
  875MOL0     H20693   6.323   0.291   5.553  2.7448 -0.8942 -0.0514
  875MOL0     H20694   6.311   0.462   5.598  1.2077  0.1669  1.0410
  875MOL0     H20695   6.270   0.486   5.331 -0.7779  0.4634  0.2815
  875MOL0     H20696   6.139   0.463   5.443  0.0903 -0.6318  0.1342
  875MOL0     H20697   6.144   0.232   5.427 -2.1443  5.0063  3.0079
  875MOL0     H20698   6.095   0.322   5.273 -1.2051 -1.1419 -0.8043
  875MOL0     H20699   6.288   0.353   5.079 -3.3440 -3.2484 -3.3495
  875MOL0     H20700   6.458   0.247   4.906 -0.0267  1.6679  1.3517
  875MOL0     H20701   6.514   0.079   4.939 -1.8923 -0.0690 -1.1492
  875MOL0     H20702   6.616   0.335   5.085 -1.5541 -1.7050  2.0040
  875MOL0     H20703   6.695   0.177   5.067 -0.0191  0.3890  0.0401
  875MOL0     H20704   6.710   0.247   4.804 -2.0143 -2.0254  1.1119
  875MOL0     H20705   6.649   0.399   4.853  3.1810  0.8821 -2.1799
  875MOL0     H20706   6.901   0.288   4.968 -2.2282 -1.5554 -2.6509
  875MOL0     H20707   6.892   0.395   4.830  0.5411 -3.9757 -0.3922
  875MOL0     H20708   6.874   0.669   5.155 -0.1655 -1.2684 -0.4242
  875MOL0     H20709   6.975   0.859   5.262 -0.5901 -0.9138 -1.0822
  875MOL0     H20710   7.139   0.905   5.213 -2.5223  2.9433  0.2626
  875MOL0     H20711   7.116   0.803   5.364 -3.5866 -3.0172  0.6977
  875MOL0     H20712   7.641   0.506   5.052  0.0998  0.2018  0.3760
  875MOL0     H20713   7.873   0.558   5.039 -0.4472 -0.8364 -0.6547
  875MOL0     H20714   8.191   0.704   5.176 -0.1966  0.5368  0.7103
  875MOL0     H20715   8.061   0.585   5.117 -1.3138  0.6593 -1.5121
  875MOL0     H20716   8.009   0.765   4.947 -1.4193  1.3275  1.2957
  875MOL0     H20717   8.163   0.847   4.999 -0.1667  0.2003 -4.3671
  875MOL0     H20718   8.130   0.574   4.876 -0.2376  0.6901 -3.6286
  875MOL0     H20719   8.280   0.631   4.929 -0.1604  0.2655 -0.9135
  875MOL0     H20720   8.236   0.831   4.766  2.6582 -0.4262 -1.6573
  875MOL0     H20721   8.096   0.734   4.710  0.6053  0.6594 -3.2515
  875MOL0     H20722   8.362   0.601   4.710 -0.2407  0.8371  0.5888
  875MOL0     H20723   8.222   0.573   4.619 -1.2489  1.2657  0.9745
  875MOL0     H20724   8.428   0.808   4.592 -2.7965  0.2652  2.7244
  875MOL0     H20725   8.279   0.802   4.496 -1.7093 -0.9073  0.5531
  875MOL0     H20726   8.422   0.718   4.353 -2.5398  1.0252  0.6580
  875MOL0     H20727   8.363   0.559   4.426 -2.9004  0.9534  0.1995
  875MOL0     H20728   8.555   0.529   4.547  0.7665  0.0260 -0.1188
  875MOL0     H20729   8.610   0.692   4.550  0.1648 -1.0871  1.5600
  875MOL0     H20730   7.790   0.880   5.333  0.8177  1.3722 -2.0708
  875MOL0     H20731   7.568   0.825   5.325  1.8723  3.0560 -0.6957
  875MOL0     H20732   7.310   0.487   5.033 -0.1973  0.7761  1.4276
  875MOL0     H20733   7.091   0.413   4.934  2.6258  1.7647 -1.3295
  875MOL0     H20734   6.363   0.917   4.999  1.0066  2.9397  1.6225
  875MOL0     H20735   6.184   1.078   4.998  2.0885 -0.0124 -0.2173
  875MOL0     H20736   5.915   1.286   5.281  0.1795 -1.2683  0.7715
  875MOL0     H20737   5.790   1.436   5.394  1.7269 -0.5283  0.2083
  875MOL0     H20738   5.378   1.576   5.431  0.1780  0.1133 -0.1277
  875MOL0     H20739   5.368   1.436   5.328 -1.3875 -0.3350  1.0741
  875MOL0     H20740   5.329   1.285   5.514 -0.2569  0.1694  1.4152
  875MOL0     H20741   5.213   1.416   5.511  0.3733  0.3078  0.4716
  875MOL0     H20742   5.357   1.345   5.743 -2.0140 -0.0037  0.3093
  875MOL0     H20743   5.442   1.478   5.678  0.6709 -2.0133  1.1182
  875MOL0     H20744   5.240   1.630   5.667 -1.4513  0.5643  0.7028
  875MOL0     H20745   5.299   1.593   5.820 -1.1430  1.2353  0.2121
  875MOL0     H20746   4.919   1.397   5.825 -0.2679  1.4700 -0.7410
  875MOL0     H20747   5.431   1.222   5.296  0.9177 -4.7044 -3.0344
  875MOL0     H20748   5.539   1.022   5.086 -1.4528 -0.7482  0.4384
  875MOL0     H20749   5.553   0.924   5.232 -2.3024 -1.2746 -0.3828
  875MOL0     H20750   5.419   1.038   5.218  1.1718  1.8803  0.7745
  876MOL0     O20751   8.051   9.409   5.663 -0.1864  0.0676 -0.1151
  876MOL0     C20752   7.964   9.321   5.643  0.3541  0.0871 -0.4901
  876MOL0     O20753   7.988   9.196   5.635 -0.1977  0.4870  0.9115
  876MOL0     C20754   8.109   9.149   5.678  0.9000  0.9031  0.5638
  876MOL0     C20755   8.230   9.159   5.611 -0.1899 -0.1875 -0.5431
  876MOL0     C20756   8.349   9.126   5.678  0.3019  0.0587  0.5317
  876MOL0     C20757   8.353   9.076   5.811  0.0768 -0.3722  0.9540
  876MOL0     O20758   8.467   9.030   5.871  0.4157  0.0498 -0.1460
  876MOL0     C20759   8.588   9.019   5.794 -0.4190 -1.1470  0.3819
  876MOL0     C20760   8.702   8.989   5.877 -0.2079 -0.5210 -0.4746
  876MOL0     C20761   8.715   8.847   5.931  0.1274 -0.1620  0.0356
  876MOL0     C20762   8.735   8.753   5.822 -0.8652 -0.4037 -0.3027
  876MOL0     C20763   8.732   8.605   5.865  0.2901  0.2834  0.3770
  876MOL0     C20764   8.852   8.552   5.931 -1.4850  0.1696  0.0571
  876MOL0     C20765   8.842   8.400   5.942  0.8857 -0.3575 -0.4820
  876MOL0     C20766   8.931   8.342   6.058  0.1506 -0.4232  0.3004
  876MOL0     N20767   9.072   8.322   6.016 -0.2309 -0.3955 -0.5530
  876MOL0     C20768   9.110   8.203   5.947 -0.5422 -0.4061  0.3339
  876MOL0     C20769   9.241   8.225   5.917  0.2251 -0.5462 -0.4631
  876MOL0     C20770   9.348   8.124   5.873  0.7872  0.4547 -0.1676
  876MOL0     C20771   9.465   8.198   5.793  0.0483 -0.4623 -0.9160
  876MOL0     C20772   9.570   8.105   5.736  0.2011  0.6423  0.4246
  876MOL0     C20773   9.681   8.166   5.668 -0.5279 -0.2600  0.8981
  876MOL0     O20774   9.752   8.067   5.598 -0.6554 -0.1238 -0.0723
  876MOL0     C20775   9.854   8.107   5.518  0.4885  0.5475  0.1625
  876MOL0     C20776   9.945   8.015   5.470 -0.3754  0.6412 -0.3988
  876MOL0     C20777  10.057   8.043   5.379 -0.9367 -0.2685  0.5476
  876MOL0     C20778  10.117   7.918   5.320 -0.1063 -0.4934  0.6318
  876MOL0     C20779  10.080   8.181   5.351 -0.7083  0.3297  0.1360
  876MOL0     C20780  10.193   8.218   5.264 -0.7453  0.1540 -0.6242
  876MOL0     O20781  10.300   8.133   5.258 -0.6714 -0.2355 -0.2913
  876MOL0     C20782  10.372   8.118   5.139 -0.2687 -0.5352 -0.3518
  876MOL0     C20783  10.501   8.075   5.152 -0.7508  0.7120 -0.0048
  876MOL0     C20784  10.589   8.070   5.041  0.7088  0.4389  0.2457
  876MOL0     C20785  10.540   8.099   4.910  0.6241 -0.0550 -0.2303
  876MOL0     O20786  10.629   8.084   4.813  0.2278  0.1414  0.1941
  876MOL0     C20787  10.585   8.085   4.672 -0.2571 -0.0160  0.5283
  876MOL0     C20788  10.680   8.004   4.594 -0.0697  0.8021  0.1106
  876MOL0     C20789  10.676   7.854   4.632  0.3366  0.6188 -0.4243
  876MOL0     C20790  10.766   7.759   4.553  0.5039 -0.1204 -0.0681
  876MOL0     C20791  10.701   7.623   4.560 -0.1782  0.7982 -0.3980
  876MOL0     C20792  10.749   7.504   4.472  0.2704  0.0361  0.5765
  876MOL0     C20793  10.893   7.457   4.503  0.0276 -0.5513 -0.2546
  876MOL0     C20794  10.991   7.558   4.444 -0.1273  0.1269  0.0901
  876MOL0    Cl20795  11.154   7.481   4.478 -0.2691  0.1034  0.3921
  876MOL0     C20796  10.402   8.134   4.897 -0.9502 -0.4784  0.0885
  876MOL0     C20797  10.319   8.141   5.015 -0.6304 -0.1672  0.1659
  876MOL0     O20798  10.175   8.316   5.193  0.1116 -0.1577  0.3250
  876MOL0     C20799   9.986   8.274   5.399 -1.3420 -0.1952 -0.5284
  876MOL0     C20800   9.888   8.243   5.489 -0.9667  0.1647 -0.5018
  876MOL0     N20801   9.280   8.354   5.952  0.2543 -0.2762  0.3197
  876MOL0     N20802   9.174   8.415   6.003  0.4365  1.0252  0.2494
  876MOL0     C20803   8.230   9.073   5.876 -0.3279  0.7746 -0.3019
  876MOL0     C20804   8.109   9.108   5.811  0.3254  0.0388 -0.8752
  876MOL0     C20805   7.826   9.369   5.599  0.1336 -0.0986  0.0644
  876MOL0     C20806   7.751   9.282   5.513  0.3475  0.0650  1.2752
  876MOL0     C20807   7.621   9.309   5.467 -0.4387 -0.2710  0.6153
  876MOL0     C20808   7.563   9.435   5.499 -0.1106 -1.2335  0.6526
  876MOL0     O20809   7.442   9.466   5.435  0.0659  0.8034 -0.2243
  876MOL0     C20810   7.378   9.596   5.467 -0.4934 -0.6015  1.0868
  876MOL0     C20811   7.243   9.607   5.404  0.3653 -0.3575  0.1488
  876MOL0     C20812   7.229   9.571   5.254 -0.7126 -0.1358 -0.4731
  876MOL0     C20813   7.256   9.678   5.156 -0.0358 -0.2760  0.1041
  876MOL0     C20814   7.392   9.706   5.150  0.0713  0.4504  0.6619
  876MOL0     C20815   7.511   9.720   5.139 -0.5765 -0.4175  0.5562
  876MOL0     C20816   7.637   9.529   5.582  0.6455 -1.0054  0.2007
  876MOL0     C20817   7.770   9.500   5.621 -0.1096  0.4223  0.0778
  876MOL0     C20818   7.849   9.609   5.691  0.2698 -0.5244 -0.1242
  876MOL0     H20819   8.226   9.196   5.509 -0.9530 -0.1823 -0.5202
  876MOL0     H20820   8.435   9.144   5.614 -1.1698  1.5394 -1.1087
  876MOL0     H20821   8.615   9.118   5.757 -2.3209  0.9913  4.1423
  876MOL0     H20822   8.573   8.941   5.719  4.0438 -0.8110 -1.1642
  876MOL0     H20823   8.791   9.022   5.823 -1.7701  1.6380 -1.9208
  876MOL0     H20824   8.695   9.056   5.964  3.0934 -0.8504  0.1871
  876MOL0     H20825   8.808   8.863   5.987 -0.8627 -1.9367  2.3784
  876MOL0     H20826   8.632   8.816   5.995  0.2538  2.1321  1.4389
  876MOL0     H20827   8.653   8.762   5.750 -2.4783 -1.0448  1.3515
  876MOL0     H20828   8.831   8.773   5.774 -0.2067 -1.8945  0.3343
  876MOL0     H20829   8.724   8.549   5.772  0.7747  0.6835  0.0854
  876MOL0     H20830   8.647   8.587   5.930 -0.3247  1.5948 -0.0349
  876MOL0     H20831   8.938   8.588   5.874 -0.2617 -3.7196 -0.8403
  876MOL0     H20832   8.859   8.588   6.034 -2.4687  1.8483 -0.4135
  876MOL0     H20833   8.878   8.356   5.848  0.4953  0.6017 -1.0997
  876MOL0     H20834   8.740   8.362   5.959  0.9850  0.3582  2.0597
  876MOL0     H20835   8.933   8.409   6.144  1.8707 -1.2569  0.9586
  876MOL0     H20836   8.896   8.246   6.096  1.9819 -2.3223 -2.4242
  876MOL0     H20837   9.063   8.106   5.953 -0.6252 -0.4163 -0.3455
  876MOL0     H20838   9.301   8.036   5.827 -0.4418  0.1027  1.6732
  876MOL0     H20839   9.385   8.098   5.972  1.0537  3.0937  0.4958
  876MOL0     H20840   9.431   8.268   5.717 -0.0772  2.0326  1.2840
  876MOL0     H20841   9.518   8.268   5.860 -0.4415 -1.7501  0.8919
  876MOL0     H20842   9.616   8.042   5.812 -0.2339 -2.4820 -1.7026
  876MOL0     H20843   9.519   8.040   5.664  0.9210  2.3664 -1.7762
  876MOL0     H20844   9.652   8.248   5.601 -0.3376 -0.0922  1.0185
  876MOL0     H20845   9.754   8.204   5.740 -0.5349 -1.2047  1.4062
  876MOL0     H20846   9.912   7.912   5.481 -0.1916  0.5873 -0.3498
  876MOL0     H20847  10.192   7.870   5.384  1.2289 -0.2543 -0.6949
  876MOL0     H20848  10.166   7.938   5.224  0.9889  0.4431  1.3629
  876MOL0     H20849  10.041   7.840   5.308  0.2356 -0.8450  0.7144
  876MOL0     H20850  10.542   8.026   5.240 -3.0120 -2.0253 -0.3246
  876MOL0     H20851  10.689   8.031   5.055  0.1289 -1.3339 -0.2151
  876MOL0     H20852  10.487   8.036   4.669  0.0825 -0.7650  1.1861
  876MOL0     H20853  10.588   8.189   4.640 -4.5054 -0.0737 -0.6722
  876MOL0     H20854  10.648   8.019   4.490  0.1085 -0.4146 -0.1360
  876MOL0     H20855  10.773   8.058   4.615 -0.2708  1.9706 -1.8002
  876MOL0     H20856  10.572   7.823   4.615  0.3822 -0.1455  0.5739
  876MOL0     H20857  10.698   7.831   4.737  1.0166 -0.6834 -0.8229
  876MOL0     H20858  10.862   7.761   4.604  0.3032  5.5670  0.7607
  876MOL0     H20859  10.788   7.791   4.451 -2.8607 -3.0628 -1.9556
  876MOL0     H20860  10.691   7.580   4.660 -0.7853  0.0675 -0.7617
  876MOL0     H20861  10.598   7.633   4.525 -0.3204 -1.9122 -0.9677
  876MOL0     H20862  10.748   7.544   4.370  0.1153  1.0552  0.9640
  876MOL0     H20863  10.678   7.421   4.479  0.6759 -0.3037  0.7575
  876MOL0     H20864  10.918   7.360   4.459  1.9756  0.2777 -1.0727
  876MOL0     H20865  10.903   7.440   4.610  2.3311  0.1923 -0.3109
  876MOL0     H20866  10.994   7.651   4.502  0.2630  0.1917 -0.0262
  876MOL0     H20867  10.972   7.582   4.339 -1.2845 -0.6432  0.1166
  876MOL0     H20868  10.359   8.172   4.804 -0.5448  0.0544  0.1161
  876MOL0     H20869  10.219   8.182   5.003 -0.9076 -0.9559 -0.2729
  876MOL0     H20870   9.999   8.378   5.370  1.8477  0.1261  1.5903
  876MOL0     H20871   9.836   8.319   5.547  1.2324 -0.5306  2.6749
  876MOL0     H20872   8.225   9.017   5.969  1.0426  0.6395 -0.2794
  876MOL0     H20873   8.015   9.117   5.865  0.6971  4.7472 -0.6787
  876MOL0     H20874   7.789   9.184   5.484  0.0239  1.0845 -3.3403
  876MOL0     H20875   7.561   9.245   5.404 -0.2263 -1.2680  1.4015
  876MOL0     H20876   7.369   9.610   5.575 -2.2386  1.3353  0.7494
  876MOL0     H20877   7.445   9.674   5.431  0.7446 -1.9409  0.3888
  876MOL0     H20878   7.220   9.712   5.424  2.4972 -0.0127  1.1486
  876MOL0     H20879   7.172   9.548   5.462  0.6130  1.5204  2.5300
  876MOL0     H20880   7.283   9.479   5.230  0.1676  0.6343 -1.5750
  876MOL0     H20881   7.125   9.541   5.240 -0.7481 -1.5047  2.1026
  876MOL0     H20882   7.205   9.769   5.188 -1.8103 -0.7399 -1.2710
  876MOL0     H20883   7.229   9.628   5.063 -0.1430 -1.6443  0.8525
  876MOL0     H20884   7.615   9.743   5.150 -1.2037  1.9490  2.1751
  876MOL0     H20885   7.590   9.623   5.605  2.6550 -0.1399  1.0054
  876MOL0     H20886   7.941   9.627   5.635  0.3529 -0.5216  0.0117
  876MOL0     H20887   7.787   9.699   5.696  2.0639  0.7016  1.2872
  876MOL0     H20888   7.875   9.588   5.796 -2.4563 -2.4676  0.2874
  877MOL0     O20889   9.265   7.044   8.599 -0.3489  0.2690 -0.2299
  877MOL0     C20890   9.302   7.126   8.511  0.5688 -0.7054 -0.5597
  877MOL0     O20891   9.424   7.126   8.456  0.4239  0.4066 -0.4742
  877MOL0     C20892   9.524   7.056   8.516 -0.2739 -0.0843 -0.1555
  877MOL0     C20893   9.624   7.128   8.574  0.3276  0.1679  0.5245
  877MOL0     C20894   9.730   7.054   8.624  0.9087  0.2565 -0.8478
  877MOL0     C20895   9.736   6.911   8.622 -0.4029  0.5795 -0.6223
  877MOL0     O20896   9.842   6.844   8.671 -0.4630 -0.0095 -0.5530
  877MOL0     C20897   9.827   6.760   8.782  1.6022  0.0962  0.6885
  877MOL0     C20898   9.866   6.832   8.912  0.7329 -0.6397  0.2561
  877MOL0     C20899  10.014   6.874   8.898 -0.0400  0.4702  0.5825
  877MOL0     C20900  10.056   6.919   9.039 -0.1535 -0.7417 -0.1026
  877MOL0     C20901  10.207   6.951   9.055  0.2690  0.1263 -0.4704
  877MOL0     C20902  10.279   6.819   9.048  0.3988 -0.0731 -0.7469
  877MOL0     C20903  10.429   6.809   9.047  0.3072  0.4031 -0.1931
  877MOL0     C20904  10.501   6.887   8.943 -0.2593  0.0690 -0.0143
  877MOL0     N20905  10.649   6.883   8.964  0.1471 -0.5580 -0.0279
  877MOL0     C20906  10.727   6.770   8.941  1.1663  0.4159 -0.0546
  877MOL0     C20907  10.852   6.797   8.989 -0.2052  0.1911 -0.0213
  877MOL0     C20908  10.962   6.693   8.981 -0.4074 -0.3072 -0.2755
  877MOL0     C20909  10.977   6.623   9.122  0.4065  0.2019  0.6703
  877MOL0     C20910  11.061   6.492   9.140 -0.4690 -0.4427  0.6715
  877MOL0     C20911  11.207   6.507   9.108 -0.0412 -0.1260 -0.2382
  877MOL0     O20912  11.241   6.561   8.976 -0.3117 -0.2838 -0.2196
  877MOL0     C20913  11.350   6.645   8.963  0.8366 -0.3997 -0.4106
  877MOL0     C20914  11.365   6.709   8.842 -0.4146 -0.0757 -0.1546
  877MOL0     C20915  11.482   6.780   8.810 -0.5377  0.3050 -0.2362
  877MOL0     C20916  11.493   6.837   8.679  0.7080 -0.4362  0.2028
  877MOL0     C20917  11.586   6.777   8.908  0.0849  0.2953 -0.7513
  877MOL0     C20918  11.716   6.843   8.877 -0.3118 -0.1579 -0.2735
  877MOL0     O20919  11.750   6.952   8.947 -0.0480  0.4154 -0.2286
  877MOL0     C20920  11.848   7.027   8.895 -0.2305  0.1369  0.9329
  877MOL0     C20921  11.821   7.121   8.794 -0.5665 -0.4389 -0.5535
  877MOL0     C20922  11.913   7.201   8.727  0.0207  0.3419 -0.5143
  877MOL0     C20923  12.042   7.193   8.771 -0.5371  0.5573  0.1524
  877MOL0     O20924  12.145   7.246   8.697 -0.2915  0.2499 -0.2194
  877MOL0     C20925  12.129   7.287   8.561 -0.9445  0.1820 -0.2801
  877MOL0     C20926  12.262   7.347   8.522  0.4839  0.3709  0.5790
  877MOL0     C20927  12.244   7.414   8.378 -0.6433 -0.3179  0.0953
  877MOL0     C20928  12.142   7.527   8.389 -0.1791 -0.5023  0.1677
  877MOL0     C20929  12.164   7.630   8.276 -0.8498 -0.6162  0.3550
  877MOL0     C20930  12.147   7.570   8.134 -0.1901  0.6383  1.1620
  877MOL0     C20931  12.133   7.669   8.021  0.4951  0.7568  0.2377
  877MOL0     C20932  12.282   7.713   7.975 -0.9821  0.0617 -0.1226
  877MOL0    Cl20933  12.381   7.591   7.881  0.0050 -0.3937 -0.1414
  877MOL0     C20934  12.078   7.110   8.878  0.4649  0.2292 -0.8459
  877MOL0     C20935  11.979   7.023   8.946  0.2359 -0.1393  0.4489
  877MOL0     O20936  11.783   6.790   8.788  0.5904  0.1702 -0.8790
  877MOL0     C20937  11.570   6.716   9.029  0.6075 -0.6538  0.1543
  877MOL0     C20938  11.452   6.646   9.059 -0.5824 -0.5495  0.8151
  877MOL0     N20939  10.846   6.912   9.052  0.1653 -0.0454  0.6160
  877MOL0     N20940  10.728   6.963   9.034  0.0130 -0.9944  0.1636
  877MOL0     C20941   9.628   6.846   8.564 -0.5771 -0.8064  0.1197
  877MOL0     C20942   9.524   6.917   8.518  1.1285 -1.0186  0.3088
  877MOL0     C20943   9.196   7.204   8.437 -0.2743 -0.3163 -0.7646
  877MOL0     C20944   9.229   7.267   8.309  0.1269 -0.0086 -0.0963
  877MOL0     C20945   9.143   7.353   8.242  0.0627 -0.2277  0.2915
  877MOL0     C20946   9.013   7.381   8.296  0.4236  0.0978  0.2766
  877MOL0     O20947   8.919   7.445   8.221  0.3577 -0.2624 -0.1699
  877MOL0     C20948   8.785   7.421   8.261  0.5450 -0.8364  0.0788
  877MOL0     C20949   8.698   7.446   8.136  0.6770  0.2975 -0.4855
  877MOL0     C20950   8.549   7.411   8.151 -0.0944 -0.3366 -0.4042
  877MOL0     C20951   8.470   7.504   8.245 -1.8531  0.0619  0.2076
  877MOL0     C20952   8.326   7.497   8.229 -0.3446 -0.1449  0.2992
  877MOL0     C20953   8.205   7.488   8.235 -0.7987  0.4725 -0.1505
  877MOL0     C20954   8.989   7.337   8.422  0.5647  0.2312  0.1523
  877MOL0     C20955   9.077   7.253   8.497  1.2801  0.0189  0.3247
  877MOL0     C20956   9.044   7.236   8.636  0.0918 -0.0409 -0.2777
  877MOL0     H20957   9.627   7.235   8.557  0.4708  0.2159  0.8439
  877MOL0     H20958   9.820   7.093   8.669 -0.1463 -3.4358  5.7218
  877MOL0     H20959   9.894   6.675   8.766  0.6875 -0.7907  1.3991
  877MOL0     H20960   9.721   6.736   8.796  0.9807  2.7631  1.2216
  877MOL0     H20961   9.796   6.915   8.926 -0.4646 -1.8658  2.0677
  877MOL0     H20962   9.855   6.761   8.995  1.0429 -0.2373  0.6397
  877MOL0     H20963  10.081   6.800   8.853  1.9942  0.5723  3.2005
  877MOL0     H20964  10.029   6.957   8.829 -1.0943  1.0050  0.9780
  877MOL0     H20965   9.996   7.009   9.055 -0.4960 -1.2452  1.5690
  877MOL0     H20966  10.036   6.850   9.121  3.2177 -0.2007  1.3254
  877MOL0     H20967  10.225   6.990   9.155  3.8312  0.5481 -1.1332
  877MOL0     H20968  10.242   7.026   8.983  4.7990 -0.3269  0.9782
  877MOL0     H20969  10.239   6.751   9.124 -1.8345  2.4157  0.4489
  877MOL0     H20970  10.262   6.778   8.948  0.6404  1.1751 -1.3121
  877MOL0     H20971  10.450   6.703   9.033 -0.2449 -0.0747  2.2528
  877MOL0     H20972  10.464   6.840   9.146 -0.9017 -0.8850  0.6749
  877MOL0     H20973  10.474   6.840   8.848 -0.2935 -0.2750  0.1640
  877MOL0     H20974  10.479   6.994   8.938  1.3037  0.3766 -1.4410
  877MOL0     H20975  10.691   6.684   8.886  0.0186  1.0808 -0.3854
  877MOL0     H20976  11.054   6.742   8.948 -1.8109  2.1193 -0.8692
  877MOL0     H20977  10.936   6.614   8.910 -0.0341  1.3388 -2.3576
  877MOL0     H20978  10.980   6.690   9.209  0.1883  0.2532  0.6379
  877MOL0     H20979  10.875   6.587   9.137 -0.4780  3.0169  2.1247
  877MOL0     H20980  11.053   6.440   9.235  2.4629 -1.7749  0.2965
  877MOL0     H20981  11.021   6.418   9.071 -3.2155 -0.4363  2.1200
  877MOL0     H20982  11.252   6.578   9.179 -3.2531  0.9335  0.9190
  877MOL0     H20983  11.253   6.408   9.118 -0.3484 -0.3410 -0.9207
  877MOL0     H20984  11.286   6.704   8.768  2.1062  1.2317 -3.1688
  877MOL0     H20985  11.550   6.930   8.680  2.6369 -1.5572  2.3385
  877MOL0     H20986  11.393   6.854   8.637  0.7329 -1.4173 -0.3042
  877MOL0     H20987  11.551   6.768   8.617 -1.9341 -2.2339 -0.4880
  877MOL0     H20988  11.720   7.127   8.754 -1.9351 -1.3743  2.4682
  877MOL0     H20989  11.893   7.268   8.644 -2.6345 -2.0516 -1.9918
  877MOL0     H20990  12.102   7.203   8.497 -0.5061  0.5279 -0.9445
  877MOL0     H20991  12.051   7.364   8.564 -2.3385 -1.2269  1.5645
  877MOL0     H20992  12.300   7.420   8.594 -1.3911 -0.4853  2.5348
  877MOL0     H20993  12.333   7.265   8.509 -2.1788 -1.9421 -0.4990
  877MOL0     H20994  12.201   7.341   8.309 -1.4537  2.9927 -3.2608
  877MOL0     H20995  12.337   7.455   8.339  0.5445 -1.5814  1.4896
  877MOL0     H20996  12.144   7.587   8.480 -4.4883  1.6482 -0.8573
  877MOL0     H20997  12.042   7.487   8.369 -0.3696  0.4513 -0.9395
  877MOL0     H20998  12.090   7.709   8.292  1.1353  2.2460 -2.9848
  877MOL0     H20999  12.260   7.681   8.288 -0.4533 -0.9581 -1.0953
  877MOL0     H21000  12.058   7.507   8.130  0.2573  0.0090  0.9214
  877MOL0     H21001  12.230   7.505   8.103 -0.0237  1.9256 -1.3479
  877MOL0     H21002  12.075   7.756   8.052 -2.0010 -0.9271  0.6464
  877MOL0     H21003  12.084   7.621   7.936  1.4221 -0.8177  0.5518
  877MOL0     H21004  12.335   7.733   8.068 -0.1163  0.0102 -0.5932
  877MOL0     H21005  12.280   7.796   7.904 -0.4994 -0.6139 -0.9626
  877MOL0     H21006  12.178   7.124   8.916 -0.8547  3.0638  2.0818
  877MOL0     H21007  12.005   6.965   9.034  0.5756  3.2942  2.8170
  877MOL0     H21008  11.645   6.722   9.107 -1.5025 -0.2570  2.2524
  877MOL0     H21009  11.461   6.579   9.144  2.2981 -1.9401 -0.4675
  877MOL0     H21010   9.636   6.738   8.556 -0.3661 -0.8920  1.3287
  877MOL0     H21011   9.440   6.868   8.471  0.8664  0.0759 -0.3870
  877MOL0     H21012   9.328   7.261   8.264 -0.2366  0.7464 -1.0253
  877MOL0     H21013   9.174   7.403   8.151 -1.0891  2.4098  1.2653
  877MOL0     H21014   8.765   7.318   8.292 -0.2257 -0.4575  0.9003
  877MOL0     H21015   8.761   7.488   8.345  0.4155 -1.1139  0.2656
  877MOL0     H21016   8.726   7.377   8.055 -0.5407  1.8852 -2.3388
  877MOL0     H21017   8.699   7.550   8.103  1.5999  0.3083 -0.4334
  877MOL0     H21018   8.500   7.414   8.053  0.5601  0.4025 -0.7113
  877MOL0     H21019   8.539   7.311   8.196 -1.6534  0.9202  2.2788
  877MOL0     H21020   8.508   7.606   8.230 -1.0205  0.1000  2.2721
  877MOL0     H21021   8.505   7.480   8.346 -1.6230  2.3316  0.7263
  877MOL0     H21022   8.099   7.474   8.230 -1.3111  3.1776  1.4248
  877MOL0     H21023   8.892   7.364   8.464 -0.5586 -1.8860 -0.8917
  877MOL0     H21024   8.954   7.288   8.669 -0.0455  0.8868 -2.0006
  877MOL0     H21025   9.035   7.132   8.670 -0.1628  0.4198  1.1380
  877MOL0     H21026   9.130   7.277   8.690  0.0851  2.5734 -2.0771
  878MOL0     O21027   2.060   1.080   0.341  0.0257  0.5367 -0.3775
  878MOL0     C21028   2.003   1.178   0.308  0.0958 -0.5882  0.4142
  878MOL0     O21029   2.023   1.305   0.350  0.2780 -0.1867  0.1390
  878MOL0     C21030   2.129   1.337   0.426 -0.5310  0.0410  0.3580
  878MOL0     C21031   2.104   1.407   0.539  0.0589 -0.8765 -0.7512
  878MOL0     C21032   2.205   1.455   0.627 -0.4617  0.6518 -0.4616
  878MOL0     C21033   2.340   1.424   0.605 -0.5146  0.0961  0.4672
  878MOL0     O21034   2.434   1.448   0.695  0.3523 -0.2654 -0.0685
  878MOL0     C21035   2.413   1.558   0.783 -0.1201 -0.2744  0.3499
  878MOL0     C21036   2.537   1.600   0.859  0.4795  0.5423 -0.1122
  878MOL0     C21037   2.672   1.582   0.798  0.1821 -0.1256 -0.1464
  878MOL0     C21038   2.796   1.618   0.889  0.0937 -0.1272 -0.6170
  878MOL0     C21039   2.928   1.570   0.832  0.4134  0.4287 -0.3553
  878MOL0     C21040   3.050   1.640   0.916  0.2067  0.8906 -0.4759
  878MOL0     C21041   3.186   1.631   0.831  0.3761  0.9306 -0.2313
  878MOL0     C21042   3.314   1.650   0.912 -0.0356  0.2724 -0.5889
  878MOL0     N21043   3.317   1.786   0.978 -0.2557 -0.2454 -0.9300
  878MOL0     C21044   3.379   1.819   1.097 -0.2293 -0.4294 -0.1899
  878MOL0     C21045   3.372   1.953   1.107  0.2642  0.7266 -0.0800
  878MOL0     C21046   3.431   2.032   1.219 -0.1627 -0.1068  0.3909
  878MOL0     C21047   3.558   2.096   1.175 -1.3298 -0.3885  0.2631
  878MOL0     C21048   3.625   2.166   1.297 -0.4151  0.7904  0.5265
  878MOL0     C21049   3.759   2.218   1.245 -1.0181 -0.1455 -0.5337
  878MOL0     O21050   3.847   2.109   1.219  0.1358  0.0867 -0.5549
  878MOL0     C21051   3.976   2.132   1.221 -0.3135  0.6507 -0.4213
  878MOL0     C21052   4.041   2.250   1.175 -0.3340  0.2260  0.1671
  878MOL0     C21053   4.178   2.264   1.188 -0.5476  0.3000  0.3171
  878MOL0     C21054   4.239   2.399   1.147  1.0185  0.1485 -0.4477
  878MOL0     C21055   4.250   2.159   1.243  0.3478 -0.0729 -0.8139
  878MOL0     C21056   4.393   2.165   1.276 -0.0184 -0.7153  0.6722
  878MOL0     O21057   4.445   2.078   1.365 -0.2498 -0.0260  0.2825
  878MOL0     C21058   4.584   2.080   1.377 -0.7149  0.3348 -0.2707
  878MOL0     C21059   4.665   2.008   1.286  0.2300 -0.6180 -0.6909
  878MOL0     C21060   4.804   1.995   1.298  0.1228  0.1849 -0.6129
  878MOL0     C21061   4.867   2.062   1.412  0.3356  0.1660 -0.6629
  878MOL0     O21062   5.000   2.084   1.442 -0.5367  0.4801  0.0320
  878MOL0     C21063   5.096   2.033   1.344  0.5464  0.2279 -0.3252
  878MOL0     C21064   5.245   2.065   1.360 -0.3428  0.2310 -0.0688
  878MOL0     C21065   5.287   2.057   1.506 -0.9425  0.8100  0.1573
  878MOL0     C21066   5.442   2.080   1.509  0.1684  0.4260 -0.5204
  878MOL0     C21067   5.490   2.110   1.651 -1.1444 -0.3197  0.2596
  878MOL0     C21068   5.638   2.144   1.666  1.2068  0.3385  0.1021
  878MOL0     C21069   5.668   2.154   1.814  0.4625 -0.1113  0.4893
  878MOL0     C21070   5.803   2.217   1.851  0.4268  0.3170  0.0980
  878MOL0    Cl21071   5.933   2.096   1.814  0.0865 -0.3838 -0.1002
  878MOL0     C21072   4.784   2.135   1.508 -0.8046  1.6386  0.5177
  878MOL0     C21073   4.643   2.131   1.495 -0.1630 -0.3195 -0.0125
  878MOL0     O21074   4.462   2.253   1.223 -0.7033 -0.4802 -0.0522
  878MOL0     C21075   4.191   2.040   1.280  0.9437  0.6122 -0.9140
  878MOL0     C21076   4.053   2.027   1.273 -0.0458  0.7641 -1.1360
  878MOL0     N21077   3.319   2.007   0.994  0.4988 -0.1521  0.6905
  878MOL0     N21078   3.296   1.913   0.907  0.3117 -0.0540  0.3560
  878MOL0     C21079   2.370   1.331   0.500  0.4020 -0.9042 -0.3721
  878MOL0     C21080   2.265   1.294   0.411 -0.6264  0.0724  0.0725
  878MOL0     C21081   1.888   1.155   0.222  0.7851  0.2254  0.4199
  878MOL0     C21082   1.776   1.238   0.241  0.0027  0.5203 -0.9998
  878MOL0     C21083   1.670   1.210   0.168  0.1815 -0.1336  0.1944
  878MOL0     C21084   1.665   1.107   0.070  0.9984 -0.1218 -0.4780
  878MOL0     O21085   1.542   1.086   0.007 -0.8724 -0.3766 -0.0632
  878MOL0     C21086   1.529   0.976  -0.088  0.2604 -0.2041 -0.5162
  878MOL0     C21087   1.386   0.984  -0.141 -0.3559  0.4753  0.6186
  878MOL0     C21088   1.369   1.122  -0.211  0.1666  0.0341  0.3722
  878MOL0     C21089   1.249   1.134  -0.308 -0.9098  0.5537  0.2676
  878MOL0     C21090   1.117   1.134  -0.246  0.3204  0.9647 -0.4620
  878MOL0     C21091   1.010   1.141  -0.198 -0.0598  0.0911 -0.4370
  878MOL0     C21092   1.775   1.029   0.050  0.0242  0.4966 -0.5920
  878MOL0     C21093   1.891   1.047   0.124 -1.2950 -0.7743  0.3016
  878MOL0     C21094   2.009   0.956   0.093  0.6145 -0.9770 -0.6106
  878MOL0     H21095   2.005   1.440   0.568 -0.2872 -1.0398 -1.7422
  878MOL0     H21096   2.168   1.526   0.701 -4.9762 -1.1178 -0.7366
  878MOL0     H21097   2.341   1.534   0.861  2.4041  1.6898  3.5712
  878MOL0     H21098   2.373   1.641   0.724 -1.8126 -0.2444  1.4860
  878MOL0     H21099   2.516   1.705   0.883  2.1976  1.1676 -1.1511
  878MOL0     H21100   2.538   1.533   0.945 -0.3253 -1.1969 -1.3889
  878MOL0     H21101   2.682   1.476   0.774 -0.9149 -0.2995  0.1144
  878MOL0     H21102   2.671   1.635   0.702 -0.8282 -1.3102 -0.8258
  878MOL0     H21103   2.797   1.727   0.903 -1.4595 -0.1918  0.1562
  878MOL0     H21104   2.786   1.563   0.983  0.6277 -0.1055 -0.5425
  878MOL0     H21105   2.930   1.597   0.726  1.4367  2.0623  0.0388
  878MOL0     H21106   2.927   1.462   0.852 -3.4740  0.6155  1.3926
  878MOL0     H21107   3.026   1.747   0.917  0.1407  0.8768 -0.5177
  878MOL0     H21108   3.056   1.603   1.018  2.6892 -2.3462 -1.6212
  878MOL0     H21109   3.180   1.706   0.751 -1.2733  1.4282  0.3126
  878MOL0     H21110   3.192   1.532   0.786 -1.8581  0.6513 -0.0459
  878MOL0     H21111   3.316   1.572   0.989 -0.4660 -0.3633 -1.2073
  878MOL0     H21112   3.397   1.652   0.840 -0.7521 -2.4249 -1.6318
  878MOL0     H21113   3.420   1.752   1.172 -0.1678  0.9905  1.0979
  878MOL0     H21114   3.446   1.982   1.315 -2.6769 -0.9608  0.4152
  878MOL0     H21115   3.371   2.120   1.247  1.8572  1.5077 -0.1289
  878MOL0     H21116   3.623   2.020   1.131 -1.9423 -1.4762  1.1953
  878MOL0     H21117   3.541   2.169   1.096  2.4535  1.4803  0.9453
  878MOL0     H21118   3.566   2.255   1.322  0.3672  1.4622  0.0676
  878MOL0     H21119   3.633   2.115   1.394 -0.3462 -1.0467 -0.4026
  878MOL0     H21120   3.743   2.276   1.154  1.3230 -1.9205 -2.2168
  878MOL0     H21121   3.792   2.275   1.332 -0.7678 -1.5935  0.3608
  878MOL0     H21122   3.977   2.328   1.135 -2.0703 -2.7533 -3.4227
  878MOL0     H21123   4.293   2.449   1.228 -0.2989  1.0733 -0.1191
  878MOL0     H21124   4.164   2.471   1.114  1.3279  1.3317  1.3501
  878MOL0     H21125   4.295   2.387   1.053  0.7682 -1.1213 -0.4492
  878MOL0     H21126   4.610   1.951   1.211  1.5310 -2.6270 -0.2127
  878MOL0     H21127   4.864   1.934   1.231  3.0361 -0.4414  2.2930
  878MOL0     H21128   5.078   1.926   1.332 -0.8973  0.5913 -1.6813
  878MOL0     H21129   5.080   2.061   1.240  2.8122 -3.1199 -1.7434
  878MOL0     H21130   5.301   1.989   1.306 -0.1593  0.1795  0.1929
  878MOL0     H21131   5.265   2.167   1.326 -1.5212  0.9362  1.2397
  878MOL0     H21132   5.272   1.960   1.554  0.3471  1.2588  1.5416
  878MOL0     H21133   5.237   2.134   1.565  0.4695  1.2015  0.8944
  878MOL0     H21134   5.476   2.146   1.428 -0.0780  0.8883 -0.2520
  878MOL0     H21135   5.484   1.980   1.494 -1.1432 -0.9648  3.7544
  878MOL0     H21136   5.431   2.195   1.686 -0.9944  0.1444 -0.5926
  878MOL0     H21137   5.467   2.026   1.717  0.2065  0.7475  2.1633
  878MOL0     H21138   5.647   2.240   1.616  2.4717  1.6183  2.6048
  878MOL0     H21139   5.705   2.073   1.616  2.7173  1.8134 -0.0339
  878MOL0     H21140   5.655   2.064   1.875 -0.3593 -1.5996 -1.7158
  878MOL0     H21141   5.597   2.228   1.851  0.0185 -0.3128  0.0518
  878MOL0     H21142   5.800   2.243   1.957 -2.5504  2.8254 -0.4541
  878MOL0     H21143   5.828   2.300   1.784 -0.1270 -0.4980 -1.1523
  878MOL0     H21144   4.835   2.171   1.597  0.9707 -2.8838  1.6054
  878MOL0     H21145   4.577   2.179   1.567 -2.7493 -1.8914 -1.2161
  878MOL0     H21146   4.252   1.960   1.319 -2.2074 -1.7711 -0.4607
  878MOL0     H21147   4.003   1.934   1.299  0.9510  0.4733 -0.1746
  878MOL0     H21148   2.467   1.283   0.502  0.2664 -1.1499  0.5760
  878MOL0     H21149   2.298   1.218   0.340 -0.3533 -0.3163  0.6090
  878MOL0     H21150   1.769   1.315   0.317  0.1421 -1.2724  0.9245
  878MOL0     H21151   1.579   1.267   0.182 -1.3941 -2.2806 -0.6434
  878MOL0     H21152   1.597   0.990  -0.172 -1.8536 -0.9606 -2.4646
  878MOL0     H21153   1.548   0.877  -0.045  1.2681  0.5527  0.8712
  878MOL0     H21154   1.321   0.986  -0.053 -0.1459  1.2643  0.7577
  878MOL0     H21155   1.346   0.898  -0.196 -2.1458 -0.2407  2.8884
  878MOL0     H21156   1.350   1.196  -0.133 -2.1064 -3.5053  3.5139
  878MOL0     H21157   1.462   1.142  -0.265  2.1105 -4.3818  1.6101
  878MOL0     H21158   1.261   1.061  -0.389 -1.9740 -1.0482  1.4972
  878MOL0     H21159   1.255   1.235  -0.349 -0.6013 -0.1418 -1.4886
  878MOL0     H21160   0.911   1.143  -0.159 -0.6532  1.8199 -1.8868
  878MOL0     H21161   1.769   0.947  -0.022 -3.7466  0.6066 -0.5884
  878MOL0     H21162   2.002   0.870   0.159  0.3643  0.1338  0.8479
  878MOL0     H21163   1.996   0.903  -0.002 -0.0259 -0.8756 -0.5820
  878MOL0     H21164   2.108   1.003   0.102 -0.3172  1.0299 -0.4428
  879MOL0     O21165   2.306   9.486  10.380 -0.3103 -0.3880  0.8296
  879MOL0     C21166   2.255   9.467  10.486 -0.4866  0.7074  0.1702
  879MOL0     O21167   2.324   9.484  10.600 -0.2660  0.0338 -1.1508
  879MOL0     C21168   2.464   9.507  10.593 -0.6647  0.3494  0.4933
  879MOL0     C21169   2.525   9.628  10.573 -0.7378 -0.4593 -0.3703
  879MOL0     C21170   2.655   9.640  10.574 -0.6463 -0.4269  0.2482
  879MOL0     C21171   2.746   9.529  10.603  0.6011 -0.5441 -0.0726
  879MOL0     O21172   2.882   9.545  10.605  0.0751 -0.1927 -0.5177
  879MOL0     C21173   2.970   9.432  10.593  0.6827  0.7982  0.6279
  879MOL0     C21174   3.112   9.476  10.599 -0.5250 -0.0746  0.2795
  879MOL0     C21175   3.137   9.547  10.724  0.2641 -0.2760  0.6805
  879MOL0     C21176   3.286   9.563  10.743  0.5957 -0.2723  0.1009
  879MOL0     C21177   3.328   9.646  10.870  0.2118  0.4252  0.3963
  879MOL0     C21178   3.309   9.581  11.004 -0.6967  0.5893  0.1886
  879MOL0     C21179   3.368   9.677  11.118  0.1912 -0.1109 -0.0504
  879MOL0     C21180   3.265   9.695  11.220 -0.2187 -0.1389 -0.7873
  879MOL0     N21181   3.322   9.748  11.347 -0.2048 -0.5050  0.5723
  879MOL0     C21182   3.370   9.674  11.445 -0.1019 -0.2438 -0.4831
  879MOL0     C21183   3.411   9.762  11.538  0.2921 -0.1393 -0.3437
  879MOL0     C21184   3.457   9.714  11.672  0.0283  0.1972 -0.0892
  879MOL0     C21185   3.493   9.829  11.759 -0.7821 -0.1136 -0.5567
  879MOL0     C21186   3.537   9.784  11.904 -0.0851 -1.2689  0.1406
  879MOL0     C21187   3.539   9.895  12.002  0.4548  0.3941  0.6879
  879MOL0     O21188   3.648   9.983  11.985  0.0551 -0.1975  0.3394
  879MOL0     C21189   3.767   9.955  12.050 -0.1527  0.8199 -1.0457
  879MOL0     C21190   3.849  10.064  12.050 -0.0184 -0.6964 -0.6834
  879MOL0     C21191   3.963  10.071  12.123 -0.5712  0.2287 -0.6664
  879MOL0     C21192   4.033  10.205  12.106  0.0318 -0.7265  0.3211
  879MOL0     C21193   4.011   9.958  12.198  0.1611  0.0103  0.3411
  879MOL0     C21194   4.145   9.931  12.264 -0.9298 -0.0506 -0.5249
  879MOL0     O21195   4.178   9.800  12.311  0.5861  0.5528 -0.2821
  879MOL0     C21196   4.298   9.798  12.376 -0.8309 -1.1175 -0.5285
  879MOL0     C21197   4.401   9.714  12.329 -0.0024 -1.2474 -0.0811
  879MOL0     C21198   4.520   9.708  12.406  0.3835  0.8630 -0.6600
  879MOL0     C21199   4.536   9.778  12.528 -0.8165  0.1249  0.5556
  879MOL0     O21200   4.644   9.772  12.615 -0.1572  0.6908  0.5065
  879MOL0     C21201   4.778   9.777  12.552  0.2843 -0.5752 -0.2333
  879MOL0     C21202   4.817   9.922  12.558  0.2731 -0.3827 -0.7961
  879MOL0     C21203   4.875   9.965  12.694 -0.5443 -0.2579 -0.1484
  879MOL0     C21204   4.955  10.094  12.676 -0.4878  0.5013  0.3332
  879MOL0     C21205   5.061  10.110  12.792  0.6588  0.2697 -0.0722
  879MOL0     C21206   5.141  10.235  12.777  1.6168 -0.1019  0.0032
  879MOL0     C21207   5.265  10.242  12.862  0.3631  0.1310 -0.0108
  879MOL0     C21208   5.327  10.386  12.847  0.8945 -0.0086 -0.0427
  879MOL0    Cl21209   5.475  10.394  12.951  0.2981 -0.0509 -0.4460
  879MOL0     C21210   4.429   9.851  12.578  0.2449  0.9385  0.7027
  879MOL0     C21211   4.314   9.863  12.502 -0.0808  0.0648 -0.1998
  879MOL0     O21212   4.218  10.030  12.278  0.6216  0.5191  0.2992
  879MOL0     C21213   3.920   9.841  12.187 -0.0191 -0.5462 -0.1890
  879MOL0     C21214   3.804   9.838  12.123  1.0536  0.7631 -0.1787
  879MOL0     N21215   3.395   9.894  11.496  0.0774  0.7304 -0.4057
  879MOL0     N21216   3.339   9.880  11.383  0.3730  0.2961  0.7881
  879MOL0     C21217   2.686   9.403  10.605  0.7348  0.7944  0.8445
  879MOL0     C21218   2.546   9.391  10.615  0.2595 -0.2884  0.4168
  879MOL0     C21219   2.114   9.430  10.492  0.1023 -0.6975 -0.6744
  879MOL0     C21220   2.068   9.378  10.621 -0.5255 -0.0132  1.0411
  879MOL0     C21221   1.943   9.316  10.626 -0.1698 -0.1984 -0.8938
  879MOL0     C21222   1.860   9.315  10.516  0.4669 -0.1443  0.3040
  879MOL0     O21223   1.731   9.276  10.551 -0.2530 -0.2256 -0.3485
  879MOL0     C21224   1.612   9.318  10.480 -0.0572 -0.7264  0.3779
  879MOL0     C21225   1.486   9.280  10.560  0.3786  0.1093  0.2996
  879MOL0     C21226   1.464   9.137  10.604  0.3960 -0.2316 -1.0691
  879MOL0     C21227   1.501   9.028  10.496 -0.0245 -0.2008 -0.4738
  879MOL0     C21228   1.407   9.050  10.380  0.1112 -0.6656 -0.7403
  879MOL0     C21229   1.337   9.087  10.288 -0.1936 -0.9891  0.4228
  879MOL0     C21230   1.903   9.362  10.394  0.7603 -0.4779 -0.7305
  879MOL0     C21231   2.034   9.415  10.378  0.2402  0.2168  0.6175
  879MOL0     C21232   2.074   9.465  10.236  0.3923 -0.6058  0.2276
  879MOL0     H21233   2.461   9.711  10.545  0.9391  0.7577 -0.7122
  879MOL0     H21234   2.694   9.740  10.559  2.3212 -1.2755  1.6696
  879MOL0     H21235   2.959   9.372  10.503 -0.0950  0.0602  1.2047
  879MOL0     H21236   2.957   9.360  10.674  0.2615  1.9239  1.5999
  879MOL0     H21237   3.184   9.394  10.601  1.2722  1.4063 -0.7966
  879MOL0     H21238   3.134   9.532  10.507 -0.7752 -0.9842 -0.3512
  879MOL0     H21239   3.093   9.647  10.724  0.2447 -0.2665 -0.4421
  879MOL0     H21240   3.102   9.480  10.802  1.9136 -1.4433  0.4808
  879MOL0     H21241   3.328   9.462  10.756 -0.0554 -0.5558  0.0263
  879MOL0     H21242   3.340   9.610  10.660  1.5109 -0.0787  0.7833
  879MOL0     H21243   3.276   9.742  10.870  0.5565  0.6541 -1.8557
  879MOL0     H21244   3.436   9.664  10.861 -0.0593  3.0784  1.4551
  879MOL0     H21245   3.201   9.567  11.010 -1.2660  4.0603  0.1966
  879MOL0     H21246   3.353   9.481  11.008 -1.3362  0.3267  0.9805
  879MOL0     H21247   3.396   9.778  11.085 -1.5877 -0.0869 -1.6908
  879MOL0     H21248   3.452   9.630  11.170 -0.2008  0.3638  1.0417
  879MOL0     H21249   3.196   9.770  11.181 -1.8708 -0.3769  1.5048
  879MOL0     H21250   3.227   9.593  11.231  0.5396 -0.3334  0.1252
  879MOL0     H21251   3.380   9.567  11.456  1.2461 -0.3059 -1.9161
  879MOL0     H21252   3.546   9.653  11.658 -0.4756 -0.4489 -0.5133
  879MOL0     H21253   3.387   9.644  11.718  1.5032 -1.6399 -0.5141
  879MOL0     H21254   3.576   9.874  11.704  0.0742 -0.2734  0.5660
  879MOL0     H21255   3.409   9.897  11.775 -0.2413  0.4061  0.1284
  879MOL0     H21256   3.464   9.710  11.938  1.0728 -2.5494 -0.0625
  879MOL0     H21257   3.637   9.739  11.898 -0.0623 -1.3943  1.2793
  879MOL0     H21258   3.446   9.952  12.009  0.0958  0.0181 -0.8046
  879MOL0     H21259   3.546   9.859  12.106 -0.6276  0.2276  0.7161
  879MOL0     H21260   3.825  10.156  11.998 -0.8566  0.6804  1.9869
  879MOL0     H21261   4.132  10.198  12.060 -1.2847 -2.0540 -2.5275
  879MOL0     H21262   4.055  10.252  12.203 -1.2073 -1.0230  0.7621
  879MOL0     H21263   3.977  10.281  12.052  1.1245 -0.8730 -1.0672
  879MOL0     H21264   4.376   9.663  12.236 -1.7773  0.9035 -0.8727
  879MOL0     H21265   4.599   9.641  12.373  1.0850  0.8822  0.8969
  879MOL0     H21266   4.854   9.718  12.604  2.1557  2.2019  0.4261
  879MOL0     H21267   4.771   9.735  12.451  1.5779  0.2802 -0.7029
  879MOL0     H21268   4.890   9.930  12.477  1.9355 -2.2860  0.4168
  879MOL0     H21269   4.724   9.971  12.526 -0.2054  0.4610  1.7309
  879MOL0     H21270   4.943   9.890  12.733  0.8085  0.7550 -0.4820
  879MOL0     H21271   4.798   9.973  12.772  1.7000 -0.1474  2.1817
  879MOL0     H21272   4.881  10.174  12.667 -1.8621  0.0321  4.9160
  879MOL0     H21273   5.016  10.083  12.585  1.1559 -2.9554  1.6491
  879MOL0     H21274   5.025  10.120  12.895 -1.2668  2.5894 -0.8767
  879MOL0     H21275   5.125  10.021  12.793 -1.8702 -1.7305 -1.3545
  879MOL0     H21276   5.077  10.323  12.789  0.8554 -0.4845 -1.1604
  879MOL0     H21277   5.169  10.213  12.674  0.9228 -1.3236  0.0486
  879MOL0     H21278   5.337  10.166  12.831 -0.7691 -0.9075 -0.1592
  879MOL0     H21279   5.230  10.221  12.963 -3.8598 -2.0187 -1.6948
  879MOL0     H21280   5.247  10.453  12.879  1.2432  0.2737  0.2367
  879MOL0     H21281   5.355  10.390  12.741  1.3538 -0.5709  0.0484
  879MOL0     H21282   4.446   9.892  12.677 -1.3697 -0.0777  1.4558
  879MOL0     H21283   4.233   9.917  12.550  0.8008  0.2878  1.0785
  879MOL0     H21284   3.945   9.746  12.234 -1.9697 -1.5701 -1.1085
  879MOL0     H21285   3.748   9.745  12.130  2.0644  0.1492 -0.0053
  879MOL0     H21286   2.740   9.310  10.614  0.8402  0.6949 -0.6135
  879MOL0     H21287   2.500   9.297  10.644 -1.6032 -0.0670 -1.5697
  879MOL0     H21288   2.130   9.386  10.710 -1.1067 -1.6913  1.6284
  879MOL0     H21289   1.903   9.282  10.721 -0.0958  2.1593  0.0440
  879MOL0     H21290   1.611   9.427  10.477  0.4169 -0.7515 -1.5481
  879MOL0     H21291   1.612   9.278  10.379 -2.3854  2.3199 -0.9942
  879MOL0     H21292   1.411   9.313  10.487  1.8698  2.0085 -0.4637
  879MOL0     H21293   1.462   9.347  10.643 -1.3246  1.5457 -1.2591
  879MOL0     H21294   1.537   9.130  10.685 -0.8133  0.9043  0.1689
  879MOL0     H21295   1.367   9.134  10.656  1.6236  3.1368  1.9030
  879MOL0     H21296   1.493   8.923  10.528 -0.4980  0.3928  1.4368
  879MOL0     H21297   1.602   9.059  10.468 -0.5637  1.0479 -1.1163
  879MOL0     H21298   1.271   9.114  10.209  0.1295  0.9740  0.7685
  879MOL0     H21299   1.833   9.350  10.311 -1.1608 -0.0416  0.7573
  879MOL0     H21300   2.146   9.405  10.180  3.1567  2.7473 -0.1095
  879MOL0     H21301   1.988   9.480  10.170  0.9103 -3.2896 -1.1914
  879MOL0     H21302   2.113   9.567  10.242  0.2913 -0.5312 -0.3345
  880MOL0     O21303   1.205   9.537   6.724 -0.0730  0.4274  0.4309
  880MOL0     C21304   1.224   9.646   6.670  0.2260  0.3007  0.5079
  880MOL0     O21305   1.304   9.663   6.558  0.0993 -0.1913 -0.2758
  880MOL0     C21306   1.395   9.568   6.521  0.6441  0.6466  0.8675
  880MOL0     C21307   1.464   9.475   6.607 -0.5536  0.2170  0.6452
  880MOL0     C21308   1.575   9.405   6.565 -0.6239 -0.5762  0.6504
  880MOL0     C21309   1.607   9.410   6.434  0.7708  1.1221  0.6946
  880MOL0     O21310   1.708   9.329   6.381 -0.5049 -0.1683 -0.5600
  880MOL0     C21311   1.822   9.284   6.472  0.7584 -0.3229 -0.2774
  880MOL0     C21312   1.958   9.302   6.400  0.3374  0.0013 -0.3826
  880MOL0     C21313   1.976   9.227   6.262  0.8907  0.2797  0.6010
  880MOL0     C21314   2.099   9.262   6.179 -0.0366 -0.4708  0.9428
  880MOL0     C21315   2.103   9.176   6.045 -0.0167  0.0689  0.1607
  880MOL0     C21316   2.217   9.206   5.948  0.0323 -0.4857 -0.6706
  880MOL0     C21317   2.185   9.150   5.808 -0.5344 -0.0643  0.1872
  880MOL0     C21318   2.214   8.998   5.791  0.5012  0.6613  0.2722
  880MOL0     N21319   2.357   8.959   5.807  0.2843 -1.0311 -0.8548
  880MOL0     C21320   2.415   8.893   5.911 -0.1263  0.6603 -0.3729
  880MOL0     C21321   2.538   8.860   5.865  0.8712  0.4016  0.0094
  880MOL0     C21322   2.642   8.794   5.946  0.9022  0.9859 -0.5884
  880MOL0     C21323   2.730   8.901   6.018 -0.5706  0.4256 -0.2960
  880MOL0     C21324   2.834   8.842   6.122 -0.8029  0.2238 -0.4779
  880MOL0     C21325   2.939   8.747   6.066  0.1782  0.2300  1.0751
  880MOL0     O21326   2.997   8.662   6.165 -0.0848 -0.3903  0.3612
  880MOL0     C21327   3.101   8.582   6.124 -1.2066 -0.8183  0.5062
  880MOL0     C21328   3.213   8.570   6.215 -0.7217  0.5396  0.1998
  880MOL0     C21329   3.333   8.496   6.192  0.6207 -0.0274  0.4314
  880MOL0     C21330   3.428   8.491   6.304 -0.7241 -0.3257 -0.1173
  880MOL0     C21331   3.345   8.443   6.058  0.1229 -1.0334 -0.0434
  880MOL0     C21332   3.467   8.378   6.012 -0.3062  0.3057 -0.6017
  880MOL0     O21333   3.450   8.272   5.936  0.5172 -0.3432 -1.3230
  880MOL0     C21334   3.549   8.206   5.861 -0.1568 -0.6830 -0.2272
  880MOL0     C21335   3.508   8.153   5.739 -0.6322 -0.3136 -0.1086
  880MOL0     C21336   3.605   8.086   5.660 -0.3878 -0.1269 -0.8600
  880MOL0     C21337   3.743   8.075   5.697  0.4512 -0.3572 -0.1059
  880MOL0     O21338   3.847   8.013   5.615  0.1149 -0.2959  0.4150
  880MOL0     C21339   3.813   7.891   5.549 -1.0802 -0.1189  0.1529
  880MOL0     C21340   3.940   7.819   5.503  0.2139 -1.2334  1.1182
  880MOL0     C21341   4.050   7.799   5.610 -0.5086  0.5894 -0.5924
  880MOL0     C21342   4.187   7.776   5.541  0.2502 -0.1533 -0.4900
  880MOL0     C21343   4.296   7.786   5.654 -0.6044  0.4557 -0.1030
  880MOL0     C21344   4.434   7.764   5.584 -0.1198  0.3835  0.2692
  880MOL0     C21345   4.539   7.750   5.695  1.0323 -0.3456 -0.3279
  880MOL0     C21346   4.681   7.738   5.639  0.0842 -0.9354  0.2540
  880MOL0    Cl21347   4.801   7.743   5.781 -0.2220  0.3647 -0.1015
  880MOL0     C21348   3.777   8.128   5.819 -0.4422  0.1162 -0.1094
  880MOL0     C21349   3.679   8.189   5.904  0.6110  0.1225  0.4099
  880MOL0     O21350   3.576   8.431   6.036 -0.5547  0.1452  0.0563
  880MOL0     C21351   3.231   8.452   5.972 -0.1412 -0.2802  0.2346
  880MOL0     C21352   3.116   8.521   6.006  0.1823 -0.1402 -0.6466
  880MOL0     N21353   2.549   8.881   5.725 -0.6083 -0.3933 -0.0665
  880MOL0     N21354   2.447   8.955   5.696  0.2421 -0.1577 -0.6852
  880MOL0     C21355   1.534   9.482   6.341 -0.0782 -0.0844 -0.1232
  880MOL0     C21356   1.425   9.565   6.387  0.2392 -0.5707  0.2109
  880MOL0     C21357   1.142   9.768   6.713 -0.1295  0.1028  0.2787
  880MOL0     C21358   1.087   9.765   6.840 -0.1169  0.2513  0.7390
  880MOL0     C21359   1.002   9.861   6.892 -0.6534 -0.1708  0.2714
  880MOL0     C21360   0.969   9.971   6.817  0.9213  0.6680  0.1563
  880MOL0     O21361   0.876  10.064   6.864  0.1371 -0.3282 -0.0226
  880MOL0     C21362   0.794  10.029   6.982 -0.2696 -0.2501  0.4308
  880MOL0     C21363   0.666  10.113   6.983 -0.3292 -0.1960 -0.1906
  880MOL0     C21364   0.567  10.063   6.869 -0.0879 -0.2640 -0.4565
  880MOL0     C21365   0.430  10.127   6.874 -0.2668  0.2694 -0.0009
  880MOL0     C21366   0.443  10.264   6.836 -0.2631 -0.5297  0.4824
  880MOL0     C21367   0.438  10.388   6.811 -0.3350  0.3558  1.0014
  880MOL0     C21368   1.012   9.972   6.685 -0.4991  0.4030 -0.1674
  880MOL0     C21369   1.100   9.872   6.631  0.0140 -0.3926  0.2591
  880MOL0     C21370   1.110   9.868   6.483 -0.3333 -0.1454 -0.0460
  880MOL0     H21371   1.451   9.475   6.714  3.1509  0.3160  1.2205
  880MOL0     H21372   1.628   9.335   6.628 -1.8167 -3.6963 -1.5788
  880MOL0     H21373   1.812   9.181   6.508 -2.1069  0.3513  1.1170
  880MOL0     H21374   1.825   9.343   6.564  0.5474  2.5374 -1.9988
  880MOL0     H21375   1.967   9.409   6.380  3.5495 -0.2422 -0.8341
  880MOL0     H21376   2.033   9.276   6.475 -0.6130  1.0442  0.9757
  880MOL0     H21377   1.983   9.120   6.286 -0.5699 -0.0171 -0.1202
  880MOL0     H21378   1.888   9.246   6.199  1.2710  2.3244  0.6247
  880MOL0     H21379   2.088   9.368   6.152  2.4923 -0.5813 -0.8398
  880MOL0     H21380   2.195   9.262   6.232 -0.2949 -1.3474  1.4289
  880MOL0     H21381   2.008   9.193   5.993  0.2099 -1.4072 -0.7862
  880MOL0     H21382   2.109   9.068   6.064 -2.5777 -0.3124 -0.7988
  880MOL0     H21383   2.236   9.313   5.942  1.3682 -0.6384  0.3695
  880MOL0     H21384   2.309   9.157   5.979  0.3033  0.5784  0.2502
  880MOL0     H21385   2.227   9.217   5.732 -0.4241  0.3675  0.6251
  880MOL0     H21386   2.080   9.166   5.786 -0.8120 -3.6426 -1.7796
  880MOL0     H21387   2.156   8.938   5.862  0.8465  0.3437  0.2898
  880MOL0     H21388   2.203   8.969   5.687  1.6113 -0.4778  0.4519
  880MOL0     H21389   2.384   8.871   6.013  1.6013 -2.2903 -0.3735
  880MOL0     H21390   2.695   8.716   5.890 -0.6775 -1.2969  0.8884
  880MOL0     H21391   2.582   8.741   6.021 -0.0302 -0.1044 -2.0287
  880MOL0     H21392   2.779   8.960   5.940 -0.4444  0.8888  0.1213
  880MOL0     H21393   2.661   8.971   6.067  1.1531  1.7315  0.3783
  880MOL0     H21394   2.888   8.928   6.162 -1.4787 -0.0420  1.0499
  880MOL0     H21395   2.781   8.790   6.202  0.3565 -3.1853 -1.7676
  880MOL0     H21396   2.885   8.678   6.000  2.2998 -1.0541  0.5786
  880MOL0     H21397   3.012   8.802   6.007 -0.5434  0.2520  0.1689
  880MOL0     H21398   3.194   8.624   6.308 -0.1697  0.4520  0.3662
  880MOL0     H21399   3.514   8.423   6.296  1.0530  1.9488 -2.0703
  880MOL0     H21400   3.375   8.452   6.390 -1.2194 -0.1550 -0.3436
  880MOL0     H21401   3.472   8.586   6.335 -0.9067 -1.9518  6.4639
  880MOL0     H21402   3.403   8.156   5.712 -0.9219 -1.2592  0.8753
  880MOL0     H21403   3.577   8.039   5.566  1.0208  1.1238 -1.9534
  880MOL0     H21404   3.765   7.822   5.619  2.8111 -0.8684  2.3039
  880MOL0     H21405   3.746   7.912   5.465  0.7846  2.4305 -0.8372
  880MOL0     H21406   3.926   7.719   5.461  0.0267 -1.2697  1.2688
  880MOL0     H21407   3.977   7.879   5.419 -0.3416  1.0210  2.4235
  880MOL0     H21408   4.029   7.714   5.676  2.8553 -1.2317 -1.6323
  880MOL0     H21409   4.047   7.892   5.668 -5.1091  1.3584 -1.7269
  880MOL0     H21410   4.195   7.844   5.455 -3.2892  1.7961  0.5303
  880MOL0     H21411   4.188   7.680   5.489  1.6324 -0.9238  0.9057
  880MOL0     H21412   4.277   7.880   5.707 -1.7851 -0.0141  0.3475
  880MOL0     H21413   4.288   7.706   5.729  0.7834 -0.0039 -0.4196
  880MOL0     H21414   4.460   7.849   5.521  1.6104 -1.1201 -1.1675
  880MOL0     H21415   4.439   7.681   5.513 -0.8533 -0.1397  0.8171
  880MOL0     H21416   4.526   7.663   5.760  0.9863  0.6383  1.0279
  880MOL0     H21417   4.538   7.844   5.752 -0.1970 -1.5990  1.8636
  880MOL0     H21418   4.700   7.825   5.574  0.4747  0.1780  1.8026
  880MOL0     H21419   4.694   7.655   5.570 -0.9155  0.4214 -1.6669
  880MOL0     H21420   3.873   8.100   5.860 -0.4865  1.9133  1.3467
  880MOL0     H21421   3.698   8.211   6.009  3.6044 -0.8039  0.1620
  880MOL0     H21422   3.234   8.400   5.876  2.1924 -1.7726  1.0428
  880MOL0     H21423   3.030   8.535   5.941 -0.5817  0.1862  0.4130
  880MOL0     H21424   1.569   9.467   6.239 -1.2973 -2.0243 -0.3076
  880MOL0     H21425   1.385   9.629   6.310  3.1488  0.3436 -0.6828
  880MOL0     H21426   1.101   9.672   6.896  0.5052 -0.8994 -1.2204
  880MOL0     H21427   0.958   9.840   6.989 -1.8174  1.0664  0.0469
  880MOL0     H21428   0.771   9.922   6.984 -0.4593 -0.2728  4.4632
  880MOL0     H21429   0.855  10.062   7.066 -1.7415  0.1742  1.3700
  880MOL0     H21430   0.696  10.217   6.966  2.3135 -0.8573  0.0946
  880MOL0     H21431   0.617  10.102   7.080 -2.1908 -1.3522 -1.2123
  880MOL0     H21432   0.615  10.076   6.771  1.0385 -0.3925  0.0572
  880MOL0     H21433   0.552   9.958   6.897 -3.0267  0.6531  1.9290
  880MOL0     H21434   0.398  10.113   6.978  3.6588  0.1340  1.3423
  880MOL0     H21435   0.355  10.082   6.809  2.2113 -0.5269 -2.4579
  880MOL0     H21436   0.423  10.489   6.779 -1.8771 -0.4189 -0.9261
  880MOL0     H21437   0.960  10.041   6.620  1.5131  1.2654 -0.9226
  880MOL0     H21438   1.054   9.941   6.424 -1.2638 -0.2535  0.6799
  880MOL0     H21439   1.214   9.892   6.457 -0.3938 -1.3240 -1.4932
  880MOL0     H21440   1.098   9.769   6.438  1.3437 -0.8071  0.8586
  881MOL0     O21441   0.920   1.218   5.356 -0.5038 -0.1229  0.6314
  881MOL0     C21442   0.881   1.269   5.456 -0.3626  0.1121 -0.0292
  881MOL0     O21443   0.794   1.373   5.456  0.1561 -0.5107 -0.3515
  881MOL0     C21444   0.766   1.438   5.340 -0.2869  0.3922  0.7769
  881MOL0     C21445   0.648   1.418   5.267  0.0828 -0.6193  0.1458
  881MOL0     C21446   0.618   1.498   5.150  1.1714  0.9349 -0.0832
  881MOL0     C21447   0.715   1.592   5.103 -0.5806 -0.2344 -1.0674
  881MOL0     O21448   0.702   1.681   4.998 -0.2264 -0.0500 -0.5910
  881MOL0     C21449   0.609   1.641   4.895 -0.0209 -0.4315  0.9222
  881MOL0     C21450   0.601   1.757   4.786  0.0943 -0.7598 -1.1303
  881MOL0     C21451   0.728   1.831   4.747 -0.8278  0.4607  0.7301
  881MOL0     C21452   0.696   1.949   4.647 -0.0279  0.3167 -0.6831
  881MOL0     C21453   0.823   1.997   4.595 -0.2999 -0.3245 -0.4016
  881MOL0     C21454   0.793   2.113   4.501 -0.2782 -0.7917 -0.2997
  881MOL0     C21455   0.920   2.166   4.439  0.4249  0.1894 -0.8556
  881MOL0     C21456   0.968   2.075   4.326 -0.0533  0.0532  0.0748
  881MOL0     N21457   1.041   2.155   4.229  0.0783  0.0826 -0.4420
  881MOL0     C21458   1.162   2.212   4.243 -0.4647 -0.6304 -0.6435
  881MOL0     C21459   1.199   2.264   4.125  0.0435  0.6171 -0.5937
  881MOL0     C21460   1.306   2.352   4.087  0.0529  0.2759  0.1043
  881MOL0     C21461   1.401   2.281   3.986  0.3166  0.6413  0.3362
  881MOL0     C21462   1.511   2.196   4.047 -0.1957  0.0632 -0.2470
  881MOL0     C21463   1.615   2.283   4.119  0.4955  0.9692 -0.9273
  881MOL0     O21464   1.732   2.204   4.151  0.4286  0.6496  0.0719
  881MOL0     C21465   1.822   2.260   4.230 -0.1171  0.3456 -0.1264
  881MOL0     C21466   1.817   2.390   4.275 -0.5054  0.4711 -0.0244
  881MOL0     C21467   1.918   2.440   4.354 -0.2678  1.2272  0.3879
  881MOL0     C21468   1.918   2.588   4.380 -0.9485  0.0155  0.5626
  881MOL0     C21469   2.035   2.363   4.394  1.0354  0.5865  0.1726
  881MOL0     C21470   2.142   2.403   4.485 -0.2762  0.4512  0.3265
  881MOL0     O21471   2.265   2.350   4.450 -0.7970  0.7506 -0.7206
  881MOL0     C21472   2.381   2.389   4.524 -0.0144 -0.0382 -0.3171
  881MOL0     C21473   2.485   2.298   4.536  0.2997 -0.1782 -0.1091
  881MOL0     C21474   2.607   2.342   4.592  0.6090  0.2612 -0.7168
  881MOL0     C21475   2.628   2.486   4.629 -0.3713 -0.0886 -0.3308
  881MOL0     O21476   2.738   2.541   4.694 -0.5509  0.1245  0.5849
  881MOL0     C21477   2.855   2.463   4.690 -0.4385 -0.5969  0.2573
  881MOL0     C21478   2.865   2.379   4.820  0.7205  0.9004 -0.7311
  881MOL0     C21479   2.967   2.265   4.812  0.3592 -0.2072  0.6719
  881MOL0     C21480   3.094   2.303   4.743  0.5044 -0.0811 -0.3162
  881MOL0     C21481   3.190   2.189   4.730 -0.3933  0.0670  0.1321
  881MOL0     C21482   3.251   2.153   4.869 -0.8826 -0.3296 -0.5737
  881MOL0     C21483   3.401   2.096   4.857 -1.3112 -0.0674 -0.6663
  881MOL0     C21484   3.492   2.163   4.959 -0.6568  0.9632 -0.4374
  881MOL0    Cl21485   3.507   2.337   4.936  0.2028  0.0618  0.3443
  881MOL0     C21486   2.524   2.567   4.594  0.3001 -0.0534  0.0239
  881MOL0     C21487   2.399   2.526   4.549 -0.1367  0.2723 -0.2510
  881MOL0     O21488   2.114   2.454   4.587 -0.3499 -0.4630 -0.2325
  881MOL0     C21489   2.037   2.237   4.342 -0.3694  0.4663 -0.6386
  881MOL0     C21490   1.938   2.179   4.261  0.4865 -0.3347 -0.3670
  881MOL0     N21491   1.096   2.236   4.038  0.1624 -0.6356  0.5674
  881MOL0     N21492   1.007   2.164   4.099  0.1142  0.0792  0.8970
  881MOL0     C21493   0.831   1.610   5.181 -0.2144 -0.4261  0.0545
  881MOL0     C21494   0.858   1.537   5.295  0.6120  0.0760  0.1745
  881MOL0     C21495   0.915   1.213   5.598 -0.0573 -0.2817  0.7966
  881MOL0     C21496   0.959   1.087   5.601  0.5920 -1.2485 -0.1380
  881MOL0     C21497   0.984   1.023   5.722  0.1329 -0.2146 -0.0803
  881MOL0     C21498   0.955   1.085   5.845  0.4493  0.2505 -0.4586
  881MOL0     O21499   0.975   1.013   5.963  0.1046 -0.6712 -0.2729
  881MOL0     C21500   0.943   1.065   6.095  0.8510 -0.1959  0.0976
  881MOL0     C21501   0.794   1.079   6.125  0.1020  0.0450  0.1864
  881MOL0     C21502   0.774   1.084   6.280 -0.4487  0.2376 -0.2850
  881MOL0     C21503   0.630   1.146   6.299 -0.1234 -0.5231 -0.1260
  881MOL0     C21504   0.598   1.142   6.444  0.5698 -0.0789  1.1346
  881MOL0     C21505   0.557   1.154   6.559  0.1047  0.7354 -0.2560
  881MOL0     C21506   0.931   1.217   5.836  0.0879 -0.5466 -0.7867
  881MOL0     C21507   0.906   1.290   5.715 -0.8274  0.0722  1.0905
  881MOL0     C21508   0.883   1.440   5.715  0.3012 -0.0469 -0.5719
  881MOL0     H21509   0.583   1.342   5.307  0.7384 -2.7045 -2.5031
  881MOL0     H21510   0.525   1.473   5.101  1.7428 -0.1961 -0.6182
  881MOL0     H21511   0.506   1.639   4.933 -0.1776 -0.3670  0.5068
  881MOL0     H21512   0.642   1.550   4.843 -1.0388 -0.7044  0.7257
  881MOL0     H21513   0.545   1.710   4.704  0.6899 -1.7257 -0.9997
  881MOL0     H21514   0.531   1.828   4.833  0.4537 -0.3346 -1.2356
  881MOL0     H21515   0.788   1.871   4.829 -1.3858  2.9052  0.0053
  881MOL0     H21516   0.796   1.760   4.700  0.1404  0.1489  2.5248
  881MOL0     H21517   0.650   1.901   4.561  2.1537 -1.3906 -1.0088
  881MOL0     H21518   0.635   2.030   4.686  0.8680  0.6475  0.0681
  881MOL0     H21519   0.869   1.916   4.539  0.2247 -0.0054 -0.4317
  881MOL0     H21520   0.879   2.031   4.683 -0.1763  1.2951 -1.0606
  881MOL0     H21521   0.717   2.078   4.431  0.3804 -0.4078 -1.2237
  881MOL0     H21522   0.738   2.193   4.551 -0.7103  0.9030 -3.2568
  881MOL0     H21523   0.999   2.182   4.513  2.0979 -0.3184 -2.4350
  881MOL0     H21524   0.894   2.264   4.398 -3.1664 -0.7795 -1.1711
  881MOL0     H21525   1.034   1.996   4.365 -1.4220 -2.2880 -2.0314
  881MOL0     H21526   0.892   2.013   4.278 -1.1464  0.7036  0.9119
  881MOL0     H21527   1.219   2.223   4.335 -0.1927  3.5284 -1.1247
  881MOL0     H21528   1.348   2.370   4.186 -3.4137  3.8609  1.1553
  881MOL0     H21529   1.268   2.440   4.035  0.5484 -0.9057 -2.4314
  881MOL0     H21530   1.356   2.211   3.914  3.1204 -1.7854  0.7617
  881MOL0     H21531   1.449   2.363   3.931  1.9846  0.4244  1.4153
  881MOL0     H21532   1.467   2.124   4.117 -0.9127  2.5059  1.9943
  881MOL0     H21533   1.552   2.133   3.968 -0.2028 -2.7796  1.8577
  881MOL0     H21534   1.652   2.371   4.064  0.5035  0.1799 -2.2290
  881MOL0     H21535   1.570   2.321   4.211  0.5058 -5.1630  2.0989
  881MOL0     H21536   1.737   2.461   4.260 -0.2998  1.1737  1.9107
  881MOL0     H21537   2.006   2.614   4.438  2.1042 -2.0058 -2.7016
  881MOL0     H21538   1.822   2.613   4.426 -0.6069  0.3004  1.1202
  881MOL0     H21539   1.926   2.640   4.284  0.4928 -0.1500  0.5819
  881MOL0     H21540   2.473   2.195   4.503 -1.9770  0.5323 -1.7479
  881MOL0     H21541   2.687   2.275   4.622  1.6245  1.6367 -0.1889
  881MOL0     H21542   2.858   2.409   4.595  0.8113  0.7493 -0.5124
  881MOL0     H21543   2.935   2.537   4.678 -0.6240 -0.3161  0.7151
  881MOL0     H21544   2.880   2.454   4.898  0.1907  0.0519  0.2111
  881MOL0     H21545   2.764   2.340   4.836  2.0553 -2.3963  0.3619
  881MOL0     H21546   2.919   2.192   4.745  2.0295  0.2636 -1.1430
  881MOL0     H21547   2.983   2.216   4.908 -1.6865  0.8094  1.5915
  881MOL0     H21548   3.145   2.387   4.791  0.4889 -0.2524 -0.0002
  881MOL0     H21549   3.087   2.335   4.638  1.1405 -1.6343 -0.8585
  881MOL0     H21550   3.145   2.108   4.671  2.1156 -1.0446 -0.3633
  881MOL0     H21551   3.262   2.227   4.657 -2.4852  0.8797 -1.6319
  881MOL0     H21552   3.190   2.076   4.917 -1.1511 -1.9734 -3.3375
  881MOL0     H21553   3.257   2.254   4.912  1.6705  0.7468 -3.0836
  881MOL0     H21554   3.442   2.113   4.757  1.2423  3.7681  0.7785
  881MOL0     H21555   3.391   1.990   4.878 -0.7546 -0.0924 -0.5206
  881MOL0     H21556   3.592   2.118   4.951  0.0021  1.5692  2.7867
  881MOL0     H21557   3.453   2.130   5.056 -0.5010  0.9931 -0.3629
  881MOL0     H21558   2.544   2.674   4.592  1.8306 -0.3301 -2.2074
  881MOL0     H21559   2.321   2.599   4.528  0.6452  1.3762  0.5827
  881MOL0     H21560   2.119   2.171   4.368 -2.4848 -0.9028  3.4652
  881MOL0     H21561   1.952   2.076   4.229  0.8128 -0.6695  0.8250
  881MOL0     H21562   0.901   1.690   5.156  0.3526 -0.8093  0.3792
  881MOL0     H21563   0.931   1.559   5.372 -0.9656  3.9293  0.7639
  881MOL0     H21564   0.980   1.018   5.520  0.1621 -0.4244 -0.9749
  881MOL0     H21565   1.027   0.923   5.731 -0.6048 -0.5594 -0.3364
  881MOL0     H21566   1.000   1.003   6.166 -1.7021 -0.6498  1.8901
  881MOL0     H21567   0.977   1.167   6.118 -2.7455  1.3346 -0.7294
  881MOL0     H21568   0.741   0.996   6.079 -2.3906  3.1049 -3.0798
  881MOL0     H21569   0.747   1.165   6.076 -2.7838 -3.5547 -4.1831
  881MOL0     H21570   0.769   0.980   6.315 -2.9963  0.6918  0.9041
  881MOL0     H21571   0.858   1.137   6.326  0.6589 -1.8446  0.2384
  881MOL0     H21572   0.550   1.092   6.247 -2.3310  1.3810  1.1119
  881MOL0     H21573   0.629   1.252   6.272 -2.0650 -0.3807  0.3582
  881MOL0     H21574   0.515   1.161   6.657  1.7388 -0.8968  0.6199
  881MOL0     H21575   0.944   1.273   5.928  1.2588  0.3637 -1.4665
  881MOL0     H21576   0.781   1.475   5.696  0.0276 -1.3451 -1.6515
  881MOL0     H21577   0.898   1.475   5.818 -1.9475 -1.2149  0.2205
  881MOL0     H21578   0.955   1.497   5.656  1.9863 -0.3116  1.1306
  882MOL0     O21579   7.742   1.496  11.251  0.4129 -0.2530  0.2106
  882MOL0     C21580   7.705   1.616  11.243  0.5257  0.5625 -0.9885
  882MOL0     O21581   7.768   1.718  11.296 -0.2406  0.3486 -0.1207
  882MOL0     C21582   7.883   1.683  11.367  0.0401  0.3644  0.6520
  882MOL0     C21583   8.006   1.736  11.323 -0.4770  0.0743  0.5859
  882MOL0     C21584   8.133   1.710  11.376 -0.0866 -0.1344  0.4580
  882MOL0     C21585   8.132   1.628  11.489 -0.8851  0.0993  0.2438
  882MOL0     O21586   8.240   1.598  11.566 -0.8976 -0.6752  0.9657
  882MOL0     C21587   8.369   1.620  11.505 -0.1966  0.7501 -0.1740
  882MOL0     C21588   8.485   1.556  11.583  1.0700 -0.3049  0.6507
  882MOL0     C21589   8.624   1.584  11.522 -0.2425  0.1321  0.0226
  882MOL0     C21590   8.750   1.520  11.591  0.0005  0.6243 -0.6442
  882MOL0     C21591   8.872   1.580  11.515  0.3501 -0.2840 -0.1410
  882MOL0     C21592   9.013   1.538  11.578  0.0897  0.0758  0.3464
  882MOL0     C21593   9.052   1.631  11.692  0.5038 -0.3362  0.0404
  882MOL0     C21594   9.144   1.746  11.659 -0.0098  0.1419  0.3402
  882MOL0     N21595   9.183   1.823  11.772 -0.0296 -0.1196  0.0683
  882MOL0     C21596   9.095   1.910  11.839  0.1585 -0.2679 -0.6501
  882MOL0     C21597   9.164   1.936  11.955  0.4674 -0.5900  0.3012
  882MOL0     C21598   9.124   2.025  12.070  0.4735  0.6881 -0.4164
  882MOL0     C21599   9.226   2.135  12.075 -0.1456 -1.0955 -0.7778
  882MOL0     C21600   9.336   2.111  12.172 -0.1077  0.6445 -0.2240
  882MOL0     C21601   9.428   2.235  12.200  0.1418  0.1520  0.3322
  882MOL0     O21602   9.511   2.270  12.087  0.3401  0.0767 -0.3279
  882MOL0     C21603   9.631   2.202  12.056 -0.7002  0.0222 -0.3492
  882MOL0     C21604   9.699   2.238  11.937 -0.3453 -0.2897 -1.2668
  882MOL0     C21605   9.827   2.189  11.916  0.0363  0.5146  0.5892
  882MOL0     C21606   9.892   2.223  11.794 -0.7477 -0.7170 -0.0599
  882MOL0     C21607   9.893   2.105  12.009 -0.5179  0.5414 -0.7366
  882MOL0     C21608  10.026   2.033  11.992 -0.4395 -0.5526  1.5490
  882MOL0     O21609  10.057   1.942  12.089  0.5042  0.1728  0.0115
  882MOL0     C21610  10.170   1.867  12.079  0.3579  0.6864 -0.3528
  882MOL0     C21611  10.302   1.923  12.062  1.0613 -0.6483 -0.2117
  882MOL0     C21612  10.410   1.832  12.048 -0.1896 -0.8941 -0.5577
  882MOL0     C21613  10.395   1.698  12.072  0.1940  0.0048  0.6421
  882MOL0     O21614  10.500   1.613  12.078  0.3741 -0.4998 -0.6130
  882MOL0     C21615  10.636   1.651  12.104  0.6844 -0.5094  0.0630
  882MOL0     C21616  10.689   1.530  12.180 -0.9149  0.2091  0.8288
  882MOL0     C21617  10.843   1.541  12.207  0.6134 -0.6019 -0.9582
  882MOL0     C21618  10.918   1.468  12.082 -0.9604  0.0365 -0.9243
  882MOL0     C21619  10.912   1.543  11.949 -0.5586  0.6933  0.3581
  882MOL0     C21620  10.998   1.484  11.836  0.1828  0.1974  0.5574
  882MOL0     C21621  10.941   1.352  11.776  0.4584  0.8316 -0.5081
  882MOL0     C21622  11.022   1.307  11.661 -1.1370 -0.2256 -0.0624
  882MOL0    Cl21623  10.976   1.155  11.580 -0.1576 -0.4303  0.1625
  882MOL0     C21624  10.264   1.645  12.082 -0.3177  0.0664  1.0254
  882MOL0     C21625  10.151   1.730  12.084  0.0836 -0.0430  0.5471
  882MOL0     O21626  10.093   2.048  11.892 -0.2466  0.0319  0.7754
  882MOL0     C21627   9.813   2.067  12.120 -1.0200 -0.7784 -0.1083
  882MOL0     C21628   9.689   2.114  12.138 -0.1165  0.3045 -0.7546
  882MOL0     N21629   9.285   1.884  11.942 -0.3254  0.0957 -0.6453
  882MOL0     N21630   9.296   1.811  11.840 -0.3701  0.8661  0.2429
  882MOL0     C21631   8.012   1.570  11.532  0.0060  0.2947 -0.0188
  882MOL0     C21632   7.893   1.592  11.473  1.2024  0.5044 -0.3185
  882MOL0     C21633   7.579   1.656  11.170  0.7460  0.2262  0.4529
  882MOL0     C21634   7.514   1.769  11.208 -0.0773 -0.5841  0.0529
  882MOL0     C21635   7.393   1.802  11.150  0.5507 -0.1535 -0.2433
  882MOL0     C21636   7.333   1.727  11.043  0.5677  0.5871 -1.0608
  882MOL0     O21637   7.209   1.733  10.987 -0.2022  0.1293 -0.0587
  882MOL0     C21638   7.109   1.807  11.063 -0.0299 -0.5849  0.0556
  882MOL0     C21639   6.967   1.774  11.020  0.1866  0.4748  0.1686
  882MOL0     C21640   6.949   1.846  10.884 -0.1826 -0.3871 -0.6005
  882MOL0     C21641   6.813   1.844  10.813  0.1452  0.2108  0.1643
  882MOL0     C21642   6.703   1.864  10.912 -1.2689  0.5386 -0.8340
  882MOL0     C21643   6.617   1.902  10.986 -0.0028  0.3377 -0.6421
  882MOL0     C21644   7.407   1.615  11.005  0.9903  0.4777 -0.3015
  882MOL0     C21645   7.531   1.571  11.064  1.3459  0.3906  0.5468
  882MOL0     C21646   7.600   1.454  10.999 -0.2054  0.4151  0.0300
  882MOL0     H21647   8.009   1.806  11.240 -1.5564 -0.8550 -0.2641
  882MOL0     H21648   8.221   1.760  11.337 -1.5197  1.5210 -0.8602
  882MOL0     H21649   8.384   1.728  11.501 -4.9943  1.6173 -3.9723
  882MOL0     H21650   8.372   1.600  11.398  0.7977  0.1296 -0.0415
  882MOL0     H21651   8.477   1.585  11.688 -0.0583  1.7922  0.0395
  882MOL0     H21652   8.464   1.448  11.575 -0.2690 -0.0561  0.5049
  882MOL0     H21653   8.620   1.539  11.422  0.0121  0.5290 -0.1700
  882MOL0     H21654   8.633   1.692  11.514  1.0906  0.1419  1.3428
  882MOL0     H21655   8.745   1.544  11.698  1.4309 -1.7204  0.0342
  882MOL0     H21656   8.740   1.411  11.587 -0.5149  0.5796  1.1103
  882MOL0     H21657   8.868   1.688  11.494 -0.5025 -0.1203  0.8277
  882MOL0     H21658   8.869   1.530  11.417  1.3542  3.0122 -2.0197
  882MOL0     H21659   9.010   1.435  11.614 -0.9274  0.5640  1.7471
  882MOL0     H21660   9.098   1.535  11.509 -0.4705 -2.9562 -0.3632
  882MOL0     H21661   9.091   1.554  11.760  1.9435 -0.6081 -1.0585
  882MOL0     H21662   8.960   1.667  11.740 -0.2110 -0.1378 -1.4157
  882MOL0     H21663   9.243   1.720  11.620  0.6253  1.9591  0.6447
  882MOL0     H21664   9.099   1.808  11.582  0.4420  1.9589  1.4709
  882MOL0     H21665   8.992   1.938  11.821  0.1366  0.2721  0.3044
  882MOL0     H21666   9.126   1.969  12.164 -1.7286  1.1353 -0.0532
  882MOL0     H21667   9.023   2.062  12.053  0.1613 -0.7374 -2.0217
  882MOL0     H21668   9.272   2.152  11.977  3.5020  0.1885  0.9980
  882MOL0     H21669   9.184   2.232  12.104  0.6477 -1.1103  0.5165
  882MOL0     H21670   9.293   2.080  12.267  0.3659 -0.2728 -0.2991
  882MOL0     H21671   9.395   2.027  12.134 -0.3118  0.0003  0.8384
  882MOL0     H21672   9.377   2.330  12.221 -0.3468  0.2956 -1.3582
  882MOL0     H21673   9.490   2.223  12.289 -0.3028  1.9562  0.9314
  882MOL0     H21674   9.652   2.308  11.868  1.0197  1.9161 -0.0785
  882MOL0     H21675   9.899   2.141  11.721  1.6797  0.0941 -0.8554
  882MOL0     H21676   9.996   2.251  11.813 -0.8901 -0.8344  0.9593
  882MOL0     H21677   9.850   2.311  11.746  2.5642  0.8217 -0.4101
  882MOL0     H21678  10.317   2.030  12.057 -0.3197 -0.4562 -0.7927
  882MOL0     H21679  10.497   1.895  12.033 -1.0592  0.3363 -0.5948
  882MOL0     H21680  10.685   1.670  12.008  3.6534  1.6959  1.8388
  882MOL0     H21681  10.641   1.742  12.166  1.8489 -1.6386  1.6943
  882MOL0     H21682  10.635   1.513  12.274 -0.6136  2.4542  1.4639
  882MOL0     H21683  10.670   1.441  12.120  4.4186 -0.4031 -0.4961
  882MOL0     H21684  10.876   1.489  12.298 -1.0891  0.1629  0.1301
  882MOL0     H21685  10.893   1.638  12.207  0.9862 -0.7666  0.7714
  882MOL0     H21686  10.876   1.367  12.077 -0.1839 -0.6130  2.9184
  882MOL0     H21687  11.023   1.470  12.113 -0.6030  2.2180 -2.0789
  882MOL0     H21688  10.808   1.555  11.919 -1.4048 -0.4896  2.5384
  882MOL0     H21689  10.949   1.646  11.961 -1.9238  1.5982 -2.4522
  882MOL0     H21690  11.102   1.470  11.864  0.4116 -0.7560 -0.6680
  882MOL0     H21691  11.004   1.558  11.755  0.6095  1.4328  1.6734
  882MOL0     H21692  10.840   1.374  11.741  0.0310  0.1360  0.2786
  882MOL0     H21693  10.944   1.278  11.856  1.0095 -1.2343 -2.3450
  882MOL0     H21694  11.130   1.307  11.680 -0.5085  1.6193 -3.0460
  882MOL0     H21695  11.026   1.391  11.592  0.3410  2.8187  3.4239
  882MOL0     H21696  10.256   1.537  12.087  1.1768 -0.1798 -0.8571
  882MOL0     H21697  10.054   1.683  12.090 -0.3083  0.5994 -0.5624
  882MOL0     H21698   9.855   2.002  12.196 -1.7499 -1.2756 -0.1082
  882MOL0     H21699   9.653   2.086  12.237 -1.6946  4.3609 -0.0017
  882MOL0     H21700   8.015   1.498  11.614  0.4385 -0.0629 -0.3445
  882MOL0     H21701   7.804   1.537  11.502 -0.0229  2.1037 -0.8737
  882MOL0     H21702   7.555   1.832  11.286 -0.8866 -0.0249  0.0428
  882MOL0     H21703   7.334   1.884  11.189  2.7941  0.0332  3.2350
  882MOL0     H21704   7.116   1.798  11.172 -1.7120  1.4622  0.3982
  882MOL0     H21705   7.134   1.907  11.027 -1.1304 -0.1434  0.4613
  882MOL0     H21706   6.895   1.805  11.096  0.9514  4.0077 -0.3661
  882MOL0     H21707   6.961   1.665  11.010  0.6881  0.5549 -1.2349
  882MOL0     H21708   6.965   1.951  10.909  0.1315 -0.9443  1.8861
  882MOL0     H21709   7.031   1.814  10.820  1.0305  1.0005  0.2113
  882MOL0     H21710   6.804   1.754  10.752  2.0208 -0.8600  1.3683
  882MOL0     H21711   6.821   1.928  10.743 -1.9315 -0.7338 -1.3203
  882MOL0     H21712   6.563   1.935  11.072  1.8739 -3.1043  2.1184
  882MOL0     H21713   7.359   1.554  10.929  0.6166  1.7579 -1.1224
  882MOL0     H21714   7.705   1.483  10.994 -0.1246 -0.0409 -1.2161
  882MOL0     H21715   7.582   1.361  11.055 -2.5783  0.4476 -0.5631
  882MOL0     H21716   7.565   1.441  10.896  0.1990  1.3582 -0.2340
  883MOL0     O21717   9.956   1.412   4.354 -0.4736  0.8769  0.1661
  883MOL0     C21718   9.841   1.377   4.378  0.0134  0.0260 -0.1922
  883MOL0     O21719   9.782   1.387   4.501 -0.1781 -0.3827  0.1225
  883MOL0     C21720   9.841   1.456   4.601  0.1675  0.0024 -0.0945
  883MOL0     C21721   9.962   1.407   4.660 -0.3855  0.7888  0.1325
  883MOL0     C21722  10.036   1.479   4.754  0.4332  0.5441  0.0964
  883MOL0     C21723   9.987   1.609   4.803  0.4905  0.2552 -0.8784
  883MOL0     O21724  10.067   1.681   4.885  0.7109 -0.7752  0.2137
  883MOL0     C21725  10.011   1.778   4.973 -0.4300 -0.9525 -0.2616
  883MOL0     C21726  10.122   1.832   5.068 -0.6688 -0.0150 -0.5978
  883MOL0     C21727  10.229   1.907   4.984 -0.3252 -0.8804 -0.5631
  883MOL0     C21728  10.334   1.975   5.079 -0.7749 -0.4220 -0.1301
  883MOL0     C21729  10.417   2.078   5.003 -0.4637 -1.1761  0.1928
  883MOL0     C21730  10.338   2.215   4.980 -0.0288  1.0244 -0.1926
  883MOL0     C21731  10.432   2.308   4.897  0.7853 -0.2854  0.1713
  883MOL0     C21732  10.362   2.432   4.841  0.3288 -0.2714 -0.8822
  883MOL0     N21733  10.451   2.529   4.770  0.0176  0.2335  0.7029
  883MOL0     C21734  10.517   2.517   4.654 -0.4851  1.0345  0.7015
  883MOL0     C21735  10.631   2.594   4.657  0.7039  0.4874  0.1089
  883MOL0     C21736  10.736   2.594   4.553  0.0977  0.3807  0.5713
  883MOL0     C21737  10.691   2.691   4.445 -0.3335  0.2098  0.0541
  883MOL0     C21738  10.764   2.652   4.314 -0.1993  0.2313  0.0346
  883MOL0     C21739  10.920   2.670   4.320  0.0844  0.8960  1.3348
  883MOL0     O21740  10.950   2.796   4.380  0.1110 -0.1176  1.1810
  883MOL0     C21741  11.078   2.844   4.401 -0.2370 -0.7048 -0.4341
  883MOL0     C21742  11.091   2.965   4.472  0.0331  0.0309 -0.0215
  883MOL0     C21743  11.212   3.026   4.492  0.7051  0.2903  0.0620
  883MOL0     C21744  11.207   3.159   4.564  0.1725  0.4331 -0.6012
  883MOL0     C21745  11.325   2.972   4.424  0.2196  0.3709  0.6261
  883MOL0     C21746  11.446   3.047   4.397 -0.4401  0.2907  0.8721
  883MOL0     O21747  11.500   3.097   4.503  0.2965 -0.5930  0.5805
  883MOL0     C21748  11.601   3.186   4.498 -0.2925  0.4201 -0.5396
  883MOL0     C21749  11.723   3.181   4.415  0.1068  0.3349 -0.4560
  883MOL0     C21750  11.818   3.277   4.437  0.1747  0.1995  0.0498
  883MOL0     C21751  11.803   3.376   4.531  0.7007 -0.1681  0.4779
  883MOL0     O21752  11.905   3.465   4.545  0.0528  0.0313  0.0944
  883MOL0     C21753  11.892   3.566   4.640  0.3175  0.4854  0.2864
  883MOL0     C21754  12.017   3.651   4.643 -0.3395  0.1026 -0.0270
  883MOL0     C21755  12.131   3.571   4.708 -0.4770 -1.0838  0.3803
  883MOL0     C21756  12.106   3.554   4.853 -0.2021  0.1055 -0.8225
  883MOL0     C21757  12.228   3.496   4.924  0.7726  0.0580  0.3023
  883MOL0     C21758  12.216   3.491   5.072  0.0759  0.1740  0.0647
  883MOL0     C21759  12.357   3.473   5.134 -0.1804  0.3086  1.0765
  883MOL0     C21760  12.449   3.595   5.170  1.2943  0.4465 -0.4561
  883MOL0    Cl21761  12.392   3.658   5.322 -0.3064 -0.0704 -0.2643
  883MOL0     C21762  11.680   3.388   4.604 -0.3704  0.5636  0.2364
  883MOL0     C21763  11.580   3.289   4.593 -0.4325 -0.7352  0.4590
  883MOL0     O21764  11.480   3.063   4.280  0.1793  0.7885  0.3310
  883MOL0     C21765  11.317   2.840   4.358 -0.4023  0.0531  0.0237
  883MOL0     C21766  11.195   2.780   4.354 -0.1234  0.1331 -0.0565
  883MOL0     N21767  10.639   2.639   4.785 -0.9490 -0.1008 -0.3395
  883MOL0     N21768  10.533   2.609   4.844 -0.3602  0.3745  0.5479
  883MOL0     C21769   9.862   1.651   4.750 -0.8492  0.5939  0.0821
  883MOL0     C21770   9.795   1.578   4.653 -0.4031  0.8290 -0.4637
  883MOL0     C21771   9.772   1.298   4.274 -0.5510 -0.0637 -0.3491
  883MOL0     C21772   9.665   1.217   4.313 -0.0711 -0.0825 -1.0416
  883MOL0     C21773   9.587   1.150   4.218 -0.4664 -0.0272  0.1035
  883MOL0     C21774   9.618   1.157   4.086 -0.4234 -0.4863 -0.4092
  883MOL0     O21775   9.554   1.085   3.993 -1.0380 -0.9836 -0.0875
  883MOL0     C21776   9.432   1.031   4.023  0.8187  0.2701  0.6155
  883MOL0     C21777   9.353   1.001   3.893 -0.4925 -0.0709 -0.4992
  883MOL0     C21778   9.201   1.010   3.930  1.0013 -0.8347  0.0993
  883MOL0     C21779   9.107   0.996   3.806 -0.1107 -0.7912 -0.3536
  883MOL0     C21780   8.966   1.022   3.853  0.6607  0.3707  0.2602
  883MOL0     C21781   8.856   1.059   3.879  0.4614 -0.1382  0.4571
  883MOL0     C21782   9.725   1.234   4.045  0.0324 -0.3079 -0.2205
  883MOL0     C21783   9.805   1.305   4.138  0.0011 -0.6560 -0.2021
  883MOL0     C21784   9.891   1.417   4.085  0.1398  0.1004  0.5896
  883MOL0     H21785  10.004   1.318   4.614 -0.4907  0.3465  0.8668
  883MOL0     H21786  10.128   1.427   4.781  1.4512  0.5991 -2.9034
  883MOL0     H21787   9.926   1.733   5.025 -2.0044 -0.7701 -2.5122
  883MOL0     H21788   9.979   1.864   4.912  2.6091  1.3226  1.1193
  883MOL0     H21789  10.076   1.892   5.147  0.2560  0.3952 -0.3598
  883MOL0     H21790  10.162   1.739   5.110 -1.2185 -0.0682 -0.1862
  883MOL0     H21791  10.285   1.848   4.911  1.1124  0.0219 -0.2478
  883MOL0     H21792  10.169   1.980   4.930 -1.7285 -1.7705 -0.2471
  883MOL0     H21793  10.284   2.037   5.154 -0.4871  1.6803 -1.5930
  883MOL0     H21794  10.399   1.897   5.120  0.3072  0.1528 -0.6764
  883MOL0     H21795  10.454   2.031   4.911  1.0751 -0.9705  0.6838
  883MOL0     H21796  10.510   2.105   5.054 -0.9595  2.8142 -0.6733
  883MOL0     H21797  10.247   2.197   4.922 -0.1269  0.5473  0.1059
  883MOL0     H21798  10.321   2.276   5.070  1.6668 -1.3871  1.9213
  883MOL0     H21799  10.464   2.252   4.808  0.2655  1.0503 -0.8955
  883MOL0     H21800  10.519   2.338   4.956  0.9928 -2.7115  1.2076
  883MOL0     H21801  10.274   2.413   4.778 -1.1645  0.2741  0.9332
  883MOL0     H21802  10.335   2.476   4.938  1.8967 -3.4809  1.1491
  883MOL0     H21803  10.503   2.447   4.572  0.7849  0.7136  0.7295
  883MOL0     H21804  10.752   2.494   4.511  0.7908  1.0016 -0.7300
  883MOL0     H21805  10.835   2.605   4.599  0.9844  0.6499 -1.2975
  883MOL0     H21806  10.582   2.692   4.433 -0.1857 -0.1741 -1.4300
  883MOL0     H21807  10.714   2.796   4.465 -1.0551  0.4444 -0.2877
  883MOL0     H21808  10.739   2.548   4.292  1.6287  0.1941 -2.4135
  883MOL0     H21809  10.717   2.708   4.233 -0.5012 -1.8583 -1.3316
  883MOL0     H21810  10.964   2.589   4.378  0.7646 -0.0943 -0.4633
  883MOL0     H21811  10.960   2.653   4.219 -2.2948 -0.4460  0.5273
  883MOL0     H21812  10.996   2.997   4.515  1.0215 -0.0530  2.3492
  883MOL0     H21813  11.110   3.165   4.613 -1.3897 -1.1541 -3.2060
  883MOL0     H21814  11.222   3.246   4.500 -1.7894  2.4387  1.4977
  883MOL0     H21815  11.283   3.159   4.642  0.8481 -1.2863 -1.2051
  883MOL0     H21816  11.731   3.099   4.345 -2.6822  0.3990 -0.9602
  883MOL0     H21817  11.910   3.282   4.381 -0.5517  1.1057 -1.1204
  883MOL0     H21818  11.815   3.634   4.603 -0.1265  1.8900  3.4439
  883MOL0     H21819  11.863   3.538   4.742 -0.9439 -0.0080 -0.1995
  883MOL0     H21820  12.037   3.697   4.546 -1.1220  0.6919  0.0803
  883MOL0     H21821  11.991   3.737   4.705 -3.7110  1.6830 -3.2427
  883MOL0     H21822  12.226   3.625   4.702 -0.8213 -0.3997  0.9229
  883MOL0     H21823  12.139   3.472   4.660 -1.6374 -2.3534  2.6269
  883MOL0     H21824  12.031   3.475   4.857  0.6371 -0.6578  0.3894
  883MOL0     H21825  12.065   3.647   4.894 -1.1894 -0.2830 -0.9154
  883MOL0     H21826  12.254   3.393   4.899  3.2145 -0.0707  2.7931
  883MOL0     H21827  12.302   3.566   4.884 -0.0981  0.1540 -1.2279
  883MOL0     H21828  12.146   3.413   5.101  0.9654 -0.1635  1.3806
  883MOL0     H21829  12.176   3.587   5.107  1.0908  0.2320  1.1413
  883MOL0     H21830  12.414   3.411   5.064 -1.1128  0.6647 -0.0449
  883MOL0     H21831  12.340   3.412   5.223 -2.2645  0.6119  0.9458
  883MOL0     H21832  12.449   3.675   5.096  0.4872 -1.2353 -2.3493
  883MOL0     H21833  12.552   3.559   5.175  1.3376  0.4736 -1.0926
  883MOL0     H21834  11.670   3.470   4.675 -2.4226 -1.4995  2.5317
  883MOL0     H21835  11.490   3.300   4.653 -1.3561 -2.0657 -0.5983
  883MOL0     H21836  11.407   2.801   4.312  1.0898  2.5782  0.5742
  883MOL0     H21837  11.194   2.675   4.325  2.1431 -0.8745  3.0305
  883MOL0     H21838   9.829   1.749   4.783 -1.3990  1.5358 -2.9962
  883MOL0     H21839   9.692   1.610   4.642 -2.2582 -2.4246  4.3787
  883MOL0     H21840   9.647   1.201   4.419  1.5110 -1.0070 -0.8750
  883MOL0     H21841   9.508   1.093   4.266 -0.8576  0.0395 -0.4485
  883MOL0     H21842   9.425   0.940   4.083 -1.0556  0.3519  0.5854
  883MOL0     H21843   9.369   1.094   4.087 -0.6767 -1.5084  0.9916
  883MOL0     H21844   9.384   0.903   3.856  0.9846 -1.3888  3.6242
  883MOL0     H21845   9.377   1.074   3.815 -0.2449 -0.0124 -0.3696
  883MOL0     H21846   9.166   0.930   3.994 -0.0172 -1.5723 -1.3205
  883MOL0     H21847   9.188   1.111   3.971 -0.4930  0.0381 -2.2929
  883MOL0     H21848   9.120   0.892   3.776 -0.0637 -1.6663  2.3932
  883MOL0     H21849   9.123   1.060   3.719  2.3108 -1.0745 -0.1723
  883MOL0     H21850   8.752   1.085   3.884  0.4667  0.4949 -1.7479
  883MOL0     H21851   9.747   1.235   3.939 -0.7474  1.4755 -0.4138
  883MOL0     H21852   9.990   1.403   4.127 -0.6294  0.2251  2.5275
  883MOL0     H21853   9.896   1.424   3.976  0.4324  1.2163  0.6684
  883MOL0     H21854   9.862   1.518   4.114 -0.7864  0.9037 -2.6507
  884MOL0     O21855   2.496   3.623   0.146 -0.1326  0.3078  0.8451
  884MOL0     C21856   2.467   3.504   0.114 -0.8654  0.5026  0.0482
  884MOL0     O21857   2.557   3.410   0.089 -0.3724 -0.2291  0.2455
  884MOL0     C21858   2.694   3.443   0.085 -0.6478 -0.8336 -0.2298
  884MOL0     C21859   2.762   3.417  -0.032  0.4807  1.3971 -0.9187
  884MOL0     C21860   2.908   3.422  -0.029  1.1242 -0.5789  0.7141
  884MOL0     C21861   2.982   3.477   0.073  0.8152  0.4800 -0.3466
  884MOL0     O21862   3.119   3.481   0.059  0.8914 -0.6609 -0.4555
  884MOL0     C21863   3.196   3.551   0.160  0.2668 -0.5714  0.0677
  884MOL0     C21864   3.338   3.547   0.098 -0.1768 -0.0806  0.3752
  884MOL0     C21865   3.439   3.624   0.186  0.0934 -0.5843  1.4543
  884MOL0     C21866   3.582   3.569   0.173 -0.4621 -0.4912 -0.4342
  884MOL0     C21867   3.670   3.621   0.292 -0.6781  0.0728 -0.0609
  884MOL0     C21868   3.676   3.775   0.296  0.3359  0.3656 -0.2738
  884MOL0     C21869   3.736   3.835   0.429 -0.1515 -0.2386  0.1312
  884MOL0     C21870   3.881   3.783   0.467  0.7981 -0.3643 -0.2142
  884MOL0     N21871   3.983   3.824   0.369  0.9546  0.4406 -0.8281
  884MOL0     C21872   4.042   3.944   0.373 -0.0517  0.5558 -0.0958
  884MOL0     C21873   4.144   3.937   0.289 -0.4641  0.2416 -0.2022
  884MOL0     C21874   4.258   4.033   0.250  0.4681 -0.8216 -0.6835
  884MOL0     C21875   4.363   4.014   0.352 -0.7373  0.7988 -0.4190
  884MOL0     C21876   4.474   4.123   0.332  0.5420  0.4726 -1.5581
  884MOL0     C21877   4.427   4.254   0.405 -0.5693  0.0025  0.0188
  884MOL0     O21878   4.456   4.257   0.545 -0.4182  0.1932 -0.0847
  884MOL0     C21879   4.572   4.226   0.599 -0.1277 -0.0803 -0.6265
  884MOL0     C21880   4.694   4.284   0.568 -0.0802 -0.5791  0.0868
  884MOL0     C21881   4.820   4.235   0.608  0.2847 -0.3704  0.5813
  884MOL0     C21882   4.930   4.328   0.567  0.1882 -0.1390 -0.0739
  884MOL0     C21883   4.825   4.113   0.686  0.4377 -0.7238  0.3244
  884MOL0     C21884   4.950   4.058   0.745  0.5136  0.2307 -0.3015
  884MOL0     O21885   5.057   4.087   0.680  0.9501  0.1139 -0.4219
  884MOL0     C21886   5.186   4.081   0.731  0.7332 -0.3677  0.6260
  884MOL0     C21887   5.286   4.090   0.638  0.2668  0.0819  1.6567
  884MOL0     C21888   5.420   4.066   0.674  0.5822  0.1115  0.1918
  884MOL0     C21889   5.452   4.048   0.806  0.5243 -0.2364  0.0810
  884MOL0     O21890   5.579   4.052   0.853  0.2106 -0.2211  0.1380
  884MOL0     C21891   5.692   4.104   0.768 -0.1844  0.0345 -0.4442
  884MOL0     C21892   5.815   4.160   0.852  0.3258  0.1633  0.1421
  884MOL0     C21893   5.941   4.192   0.771 -0.1548 -0.0845 -0.7686
  884MOL0     C21894   6.041   4.256   0.859 -0.3878  0.5713 -0.4217
  884MOL0     C21895   6.192   4.218   0.830 -0.0950 -0.7334 -0.1736
  884MOL0     C21896   6.228   4.065   0.847 -0.5302 -0.0562  0.0748
  884MOL0     C21897   6.360   4.033   0.920 -0.5835  0.1982 -0.1616
  884MOL0     C21898   6.486   4.041   0.824  0.6236 -0.8408 -0.2019
  884MOL0    Cl21899   6.625   4.033   0.927  0.2274 -0.2175  0.3751
  884MOL0     C21900   5.354   4.044   0.902 -0.4241  0.4765 -0.4335
  884MOL0     C21901   5.219   4.055   0.869  1.2523  0.6329  0.1551
  884MOL0     O21902   4.940   3.984   0.843 -0.4478  0.3329 -0.4012
  884MOL0     C21903   4.702   4.055   0.721  0.5011 -0.2072  0.0191
  884MOL0     C21904   4.577   4.110   0.678  0.3373  0.3180 -0.0746
  884MOL0     N21905   4.138   3.813   0.220  0.8359 -0.4809 -0.2037
  884MOL0     N21906   4.045   3.748   0.271 -0.4216  0.6224  0.0144
  884MOL0     C21907   2.903   3.513   0.187 -0.3872  0.1380 -0.0480
  884MOL0     C21908   2.760   3.495   0.197 -0.2109 -0.8829 -0.7804
  884MOL0     C21909   2.324   3.472   0.085 -0.3465  0.0513  0.1660
  884MOL0     C21910   2.282   3.346   0.124  0.6057  1.0880  0.4075
  884MOL0     C21911   2.149   3.300   0.095 -0.0902 -0.0124 -0.3844
  884MOL0     C21912   2.053   3.387   0.041  0.0050 -0.0755 -0.4444
  884MOL0     O21913   1.916   3.374   0.046 -0.1427 -0.5761  0.5628
  884MOL0     C21914   1.867   3.248   0.073 -0.2994 -0.0049  0.4129
  884MOL0     C21915   1.716   3.250   0.106 -0.1149 -0.5463 -0.2688
  884MOL0     C21916   1.640   3.304  -0.014  0.0882  0.4352  0.8652
  884MOL0     C21917   1.489   3.287  -0.021 -0.3322 -0.0424  1.1477
  884MOL0     C21918   1.425   3.404   0.051  0.0981  0.1362 -0.3181
  884MOL0     C21919   1.383   3.501   0.109  0.3344 -0.3103  0.0263
  884MOL0     C21920   2.093   3.514   0.011 -0.2694 -0.5311 -0.0335
  884MOL0     C21921   2.225   3.559   0.033 -0.8063  1.0195 -0.2701
  884MOL0     C21922   2.254   3.694  -0.021 -0.3744 -0.2356  0.2302
  884MOL0     H21923   2.710   3.380  -0.120 -0.5145 -2.8077  1.1916
  884MOL0     H21924   2.953   3.385  -0.121  0.1910 -0.8362  0.3444
  884MOL0     H21925   3.187   3.494   0.253  2.4603 -2.1667 -0.6271
  884MOL0     H21926   3.155   3.653   0.162  0.0440 -0.6459 -0.3792
  884MOL0     H21927   3.371   3.445   0.079  3.4265  1.4781 -3.4788
  884MOL0     H21928   3.328   3.590  -0.002  0.1942 -0.0876  0.3337
  884MOL0     H21929   3.429   3.731   0.169 -4.5138 -1.0238 -0.0287
  884MOL0     H21930   3.408   3.600   0.289 -1.1618 -1.3833  0.9262
  884MOL0     H21931   3.569   3.461   0.164 -3.5547 -0.0491 -2.5608
  884MOL0     H21932   3.630   3.601   0.080 -0.4695 -1.9609 -0.9746
  884MOL0     H21933   3.768   3.581   0.267 -0.6454 -0.0730  0.2895
  884MOL0     H21934   3.640   3.586   0.391  4.3708 -0.6830  1.4873
  884MOL0     H21935   3.732   3.828   0.219 -0.5947  0.4392 -0.9259
  884MOL0     H21936   3.574   3.813   0.286  0.3234  0.3686 -0.1361
  884MOL0     H21937   3.669   3.816   0.513 -0.9983 -0.0750 -0.4996
  884MOL0     H21938   3.735   3.944   0.414 -1.8061  0.1344  2.3909
  884MOL0     H21939   3.921   3.814   0.564 -1.8809 -0.2822  0.9602
  884MOL0     H21940   3.870   3.674   0.460 -0.6172 -0.4811  2.4974
  884MOL0     H21941   4.014   4.028   0.436  0.8178 -0.0637  1.1477
  884MOL0     H21942   4.229   4.138   0.239 -0.2681 -0.9119  0.1791
  884MOL0     H21943   4.287   4.002   0.150 -3.6263  1.2753 -2.7935
  884MOL0     H21944   4.333   4.008   0.457  2.1162 -2.4541  0.4232
  884MOL0     H21945   4.406   3.915   0.333 -1.3576  0.2366  1.0004
  884MOL0     H21946   4.569   4.078   0.364  0.4502 -0.7408 -2.8848
  884MOL0     H21947   4.497   4.136   0.226 -1.1518 -2.0640 -2.3350
  884MOL0     H21948   4.489   4.334   0.363 -0.2312  0.4662  1.3401
  884MOL0     H21949   4.321   4.275   0.388 -0.4474 -0.0714 -0.8492
  884MOL0     H21950   4.703   4.368   0.500  0.9873  0.3842  1.3738
  884MOL0     H21951   4.894   4.430   0.550 -2.1246 -0.6667  1.2236
  884MOL0     H21952   4.978   4.302   0.472  0.5932  1.4824 -0.3385
  884MOL0     H21953   5.012   4.325   0.640  1.5934 -2.1529 -1.5979
  884MOL0     H21954   5.253   4.097   0.535  2.4598 -0.1739  0.8940
  884MOL0     H21955   5.497   4.077   0.598  0.6398  0.4548  0.2969
  884MOL0     H21956   5.730   4.029   0.699 -1.3818 -0.1974 -0.8833
  884MOL0     H21957   5.660   4.187   0.703  1.8619  1.5203  0.3596
  884MOL0     H21958   5.777   4.248   0.903 -3.3162 -0.8152 -0.6241
  884MOL0     H21959   5.856   4.093   0.928  3.2929  1.7030  0.0460
  884MOL0     H21960   5.920   4.255   0.684 -1.5472 -0.5040 -0.7557
  884MOL0     H21961   5.982   4.098   0.734  2.9852  1.9435 -2.9695
  884MOL0     H21962   6.031   4.237   0.967  0.4727  2.1145 -0.0356
  884MOL0     H21963   6.019   4.362   0.846 -1.3551  0.2764 -1.3564
  884MOL0     H21964   6.236   4.266   0.742  1.7010 -0.2738  0.9339
  884MOL0     H21965   6.254   4.267   0.906  2.9943 -2.7463 -1.2135
  884MOL0     H21966   6.229   4.005   0.756  2.4893 -0.7513  0.4616
  884MOL0     H21967   6.151   4.023   0.913  0.9615  1.0439  2.6651
  884MOL0     H21968   6.356   3.929   0.954 -0.2052 -0.3478 -1.7124
  884MOL0     H21969   6.396   4.088   1.007  1.1979 -3.0987  1.3795
  884MOL0     H21970   6.491   4.136   0.771 -2.8886 -1.8949 -2.8475
  884MOL0     H21971   6.499   3.970   0.741  2.9386  0.7880 -1.3395
  884MOL0     H21972   5.404   4.024   0.996 -1.8313  0.6191  0.3736
  884MOL0     H21973   5.136   4.038   0.938 -1.6112  1.0387 -2.9607
  884MOL0     H21974   4.705   3.974   0.794  2.1920 -0.6312 -0.4716
  884MOL0     H21975   4.488   4.071   0.726  0.0148  2.1313  0.9077
  884MOL0     H21976   2.947   3.561   0.274 -0.8513  1.0649 -0.3260
  884MOL0     H21977   2.703   3.520   0.286  1.6334 -1.1622  0.5532
  884MOL0     H21978   2.348   3.271   0.166 -0.5706 -0.1503  0.1199
  884MOL0     H21979   2.115   3.204   0.130 -0.3104  0.7533  1.6852
  884MOL0     H21980   1.888   3.186  -0.015 -0.0640 -0.0022  0.4651
  884MOL0     H21981   1.911   3.200   0.161 -1.5494  1.0637  1.6538
  884MOL0     H21982   1.709   3.316   0.194  1.5114 -0.7943  0.0731
  884MOL0     H21983   1.693   3.149   0.141 -0.3588 -0.4238 -0.0675
  884MOL0     H21984   1.665   3.407  -0.040  0.2574 -0.0518 -1.0480
  884MOL0     H21985   1.667   3.240  -0.098 -1.9846 -0.4483  0.8094
  884MOL0     H21986   1.453   3.199   0.034  1.3713 -2.0955 -0.8287
  884MOL0     H21987   1.459   3.282  -0.126  1.5846  0.4910  0.5288
  884MOL0     H21988   1.343   3.584   0.164  0.2068 -1.7530  2.2625
  884MOL0     H21989   2.019   3.588  -0.019 -0.1359  1.2445  3.5537
  884MOL0     H21990   2.289   3.692  -0.124  1.4799  2.1879  0.7225
  884MOL0     H21991   2.159   3.746  -0.008 -1.7564 -2.9287  1.9293
  884MOL0     H21992   2.333   3.744   0.036 -1.2977 -0.3451  1.6558
  885MOL0     O21993   6.307   7.734   3.335  0.4394  0.1790  0.5103
  885MOL0     C21994   6.316   7.851   3.305  0.5354  0.2070  0.4308
  885MOL0     O21995   6.416   7.933   3.340  0.4904  0.1084  0.1368
  885MOL0     C21996   6.544   7.882   3.350  0.3615 -1.2690  0.4401
  885MOL0     C21997   6.613   7.910   3.466  0.6488 -0.0778 -0.8454
  885MOL0     C21998   6.740   7.859   3.488 -0.3154  0.7357  0.2385
  885MOL0     C21999   6.802   7.786   3.387 -0.0381  1.1452 -0.0246
  885MOL0     O22000   6.933   7.758   3.409  0.2325 -0.2168 -0.6084
  885MOL0     C22001   7.021   7.783   3.298 -0.0628  0.1549 -0.2134
  885MOL0     C22002   7.159   7.794   3.354  0.8436 -0.4188  0.5127
  885MOL0     C22003   7.266   7.759   3.256 -0.0331  0.0611  1.2254
  885MOL0     C22004   7.410   7.805   3.303 -0.4323 -0.0209 -0.3534
  885MOL0     C22005   7.514   7.775   3.191  0.2066  0.5553  0.6821
  885MOL0     C22006   7.647   7.844   3.191 -0.7116  0.1762 -0.5283
  885MOL0     C22007   7.760   7.735   3.177 -0.3669  0.2167  0.1494
  885MOL0     C22008   7.882   7.813   3.137  0.2871  0.9202  0.9068
  885MOL0     N22009   8.004   7.728   3.137 -0.0177  0.4002  0.5234
  885MOL0     C22010   8.046   7.662   3.253  0.1163 -1.0031  0.5394
  885MOL0     C22011   8.171   7.601   3.220  0.2218 -0.4619  0.3724
  885MOL0     C22012   8.280   7.534   3.313 -0.3725  0.3690 -0.1178
  885MOL0     C22013   8.411   7.627   3.288 -0.3236  0.1933 -0.5629
  885MOL0     C22014   8.532   7.561   3.358  0.2864  0.1876  0.8112
  885MOL0     C22015   8.658   7.638   3.340  0.2236  0.2975  0.0740
  885MOL0     O22016   8.650   7.768   3.393 -0.2539 -0.1918  0.1243
  885MOL0     C22017   8.769   7.842   3.388  0.6762  0.2268 -0.8458
  885MOL0     C22018   8.769   7.967   3.443 -0.0384 -0.2528 -0.5881
  885MOL0     C22019   8.881   8.057   3.432 -0.1827 -0.6076 -0.7985
  885MOL0     C22020   8.864   8.186   3.512  0.1490  0.2800  0.3294
  885MOL0     C22021   8.997   8.018   3.370  0.5356 -0.0867  0.3625
  885MOL0     C22022   9.121   8.101   3.364  1.0919  0.2544 -0.0766
  885MOL0     O22023   9.221   8.051   3.300  0.1411  0.3123  0.8896
  885MOL0     C22024   9.328   8.118   3.270 -0.2908 -0.5138 -0.5589
  885MOL0     C22025   9.344   8.255   3.264  0.8044  0.0203  0.4215
  885MOL0     C22026   9.467   8.318   3.262 -0.3501 -0.2496  0.6902
  885MOL0     C22027   9.586   8.242   3.256 -0.1135  0.5141  0.0222
  885MOL0     O22028   9.711   8.297   3.241 -0.0828  0.1622  0.2002
  885MOL0     C22029   9.723   8.400   3.140  0.4193  0.1274  0.3046
  885MOL0     C22030   9.855   8.386   3.063  0.9321  0.2728  0.1743
  885MOL0     C22031   9.971   8.457   3.130  0.5086 -1.0037  0.4066
  885MOL0     C22032  10.103   8.430   3.053 -0.0892 -0.5163 -1.3737
  885MOL0     C22033  10.196   8.548   3.073 -0.0309  0.6085 -0.1846
  885MOL0     C22034  10.315   8.520   2.979  0.6443  0.6602 -0.1796
  885MOL0     C22035  10.427   8.616   3.016 -0.1968 -0.4569  0.4467
  885MOL0     C22036  10.552   8.611   2.928 -0.5905  0.2139 -0.3136
  885MOL0    Cl22037  10.666   8.745   2.963 -0.3437 -0.1664  0.1031
  885MOL0     C22038   9.577   8.104   3.273  0.2254  0.2023  0.4153
  885MOL0     C22039   9.448   8.049   3.281  0.0711  0.2844  0.2946
  885MOL0     O22040   9.123   8.205   3.425 -0.3521 -0.6902  0.3938
  885MOL0     C22041   9.000   7.887   3.312  0.3056 -0.5958  0.1452
  885MOL0     C22042   8.886   7.808   3.310 -0.1893  0.1997 -0.1631
  885MOL0     N22043   8.178   7.614   3.082 -0.4039 -0.6795  0.1770
  885MOL0     N22044   8.085   7.690   3.034 -0.2877  0.0142  0.5627
  885MOL0     C22045   6.738   7.747   3.268 -0.2513  0.4619  0.2087
  885MOL0     C22046   6.605   7.797   3.254 -0.1983 -0.0698 -0.3177
  885MOL0     C22047   6.191   7.912   3.237  0.4185  1.0103 -0.8036
  885MOL0     C22048   6.115   7.840   3.146  0.1154  0.2062  0.0301
  885MOL0     C22049   6.005   7.887   3.073 -0.2670  0.6906  0.3716
  885MOL0     C22050   5.955   8.017   3.088 -0.1195  0.4817  0.4552
  885MOL0     O22051   5.856   8.068   3.003 -0.4832 -0.0126  0.7463
  885MOL0     C22052   5.864   8.209   2.983  0.1013 -0.1518 -0.1709
  885MOL0     C22053   5.762   8.240   2.876 -0.4233  0.0530 -0.3065
  885MOL0     C22054   5.763   8.391   2.829  0.3502  0.5290  0.0241
  885MOL0     C22055   5.632   8.432   2.756 -0.2656 -0.6655 -0.0713
  885MOL0     C22056   5.645   8.583   2.735  0.5545  0.3320  0.1719
  885MOL0     C22057   5.665   8.701   2.729 -0.1403 -0.4886  0.1498
  885MOL0     C22058   6.025   8.085   3.197  0.3958  0.4526 -1.0268
  885MOL0     C22059   6.127   8.033   3.283 -0.0190  0.3777 -0.4791
  885MOL0     C22060   6.176   8.118   3.396  0.1481  0.5220 -0.5003
  885MOL0     H22061   6.574   7.969   3.549  0.0358 -2.0161  0.3035
  885MOL0     H22062   6.787   7.874   3.584  0.6900 -1.0015  0.0663
  885MOL0     H22063   6.988   7.870   3.239 -0.5915 -0.4348 -0.7997
  885MOL0     H22064   7.014   7.702   3.226  0.8464  0.0717 -0.2138
  885MOL0     H22065   7.174   7.895   3.392  3.4688  0.9642 -3.5462
  885MOL0     H22066   7.165   7.716   3.431  1.1486  0.0745  0.9987
  885MOL0     H22067   7.265   7.652   3.233 -1.7941 -0.1051  1.9228
  885MOL0     H22068   7.240   7.812   3.164 -0.3772 -2.5942 -0.3260
  885MOL0     H22069   7.397   7.913   3.311  2.5038  0.5549 -2.0189
  885MOL0     H22070   7.451   7.762   3.395  1.9450 -0.8881 -1.7313
  885MOL0     H22071   7.458   7.790   3.098  2.6028 -0.1055 -0.9528
  885MOL0     H22072   7.536   7.668   3.192  1.7270  0.6731 -3.1878
  885MOL0     H22073   7.638   7.915   3.108  2.1433  1.8920  0.5174
  885MOL0     H22074   7.655   7.895   3.287  2.2406  1.4669 -1.3737
  885MOL0     H22075   7.738   7.666   3.095  1.4665  0.4827 -0.6187
  885MOL0     H22076   7.789   7.678   3.266  4.3331  0.3042 -1.0903
  885MOL0     H22077   7.850   7.847   3.038 -1.5174 -1.4277  0.5877
  885MOL0     H22078   7.891   7.897   3.205 -1.6774  2.1128 -0.2179
  885MOL0     H22079   8.003   7.690   3.349  0.3369  4.0085 -0.5806
  885MOL0     H22080   8.289   7.431   3.277 -0.1800  0.7373 -1.1514
  885MOL0     H22081   8.266   7.536   3.421  4.0599 -1.0364  0.6537
  885MOL0     H22082   8.437   7.625   3.182 -2.7810  1.4809 -1.2688
  885MOL0     H22083   8.394   7.730   3.320  1.5853 -0.4963  3.2979
  885MOL0     H22084   8.503   7.559   3.463 -2.3202  0.3523  0.1668
  885MOL0     H22085   8.548   7.456   3.331  3.5514  0.3271  1.8106
  885MOL0     H22086   8.747   7.593   3.385  1.9031  1.9966 -1.3545
  885MOL0     H22087   8.679   7.635   3.233  1.1771  0.2743  0.2571
  885MOL0     H22088   8.677   8.003   3.488  1.2835 -0.6129  2.7102
  885MOL0     H22089   8.946   8.196   3.584  0.7132 -3.9086  0.5555
  885MOL0     H22090   8.772   8.201   3.569  0.6551  2.1907  0.7104
  885MOL0     H22091   8.876   8.269   3.442  1.4466  0.1800  0.4078
  885MOL0     H22092   9.260   8.323   3.275  2.0277  1.1524  6.9882
  885MOL0     H22093   9.471   8.425   3.248  0.6065 -0.3602 -0.0208
  885MOL0     H22094   9.644   8.397   3.064  0.3722 -0.8475  0.3904
  885MOL0     H22095   9.709   8.498   3.188  0.1767  0.5381 -0.5766
  885MOL0     H22096   9.881   8.280   3.061 -0.3727 -0.0594 -0.1653
  885MOL0     H22097   9.840   8.419   2.959 -0.7584 -1.6665 -0.2675
  885MOL0     H22098   9.984   8.433   3.236 -1.0394  2.3569  1.4833
  885MOL0     H22099   9.960   8.565   3.143 -0.3626 -1.3063  2.7344
  885MOL0     H22100  10.078   8.422   2.947 -0.1873  0.6771 -1.4532
  885MOL0     H22101  10.151   8.337   3.086  3.8360  0.6475 -3.2249
  885MOL0     H22102  10.156   8.642   3.034  1.4329 -0.0189 -3.5791
  885MOL0     H22103  10.223   8.556   3.179 -0.7159 -1.7872  0.2544
  885MOL0     H22104  10.287   8.538   2.874 -0.2481 -1.6227 -0.3903
  885MOL0     H22105  10.348   8.416   2.988 -0.1695  0.5538  2.3218
  885MOL0     H22106  10.459   8.579   3.113  1.2126 -0.2322  0.0945
  885MOL0     H22107  10.383   8.716   3.025  1.0491  0.0834  0.6372
  885MOL0     H22108  10.521   8.628   2.825  1.1894  2.0577 -0.6021
  885MOL0     H22109  10.601   8.513   2.927 -3.6778 -1.5826  2.5044
  885MOL0     H22110   9.667   8.044   3.260 -0.4099 -0.3333 -2.0635
  885MOL0     H22111   9.437   7.945   3.309 -1.3429 -0.8712 -3.7608
  885MOL0     H22112   9.097   7.852   3.277 -0.3594 -1.0359 -1.2879
  885MOL0     H22113   8.909   7.711   3.265  0.0881  1.0505 -1.9341
  885MOL0     H22114   6.786   7.687   3.191 -1.1041 -1.3014  0.9896
  885MOL0     H22115   6.554   7.750   3.170 -1.8190 -1.3632  1.3130
  885MOL0     H22116   6.140   7.734   3.139 -3.1806 -0.6499 -1.3152
  885MOL0     H22117   5.973   7.815   2.999  1.2856  1.9580 -1.6272
  885MOL0     H22118   5.846   8.271   3.072 -1.3778  2.2948 -2.0423
  885MOL0     H22119   5.962   8.238   2.946 -0.2019  1.5477  0.2759
  885MOL0     H22120   5.663   8.225   2.920  0.0657  0.1335  0.8572
  885MOL0     H22121   5.770   8.173   2.790  0.5189  0.3033 -0.4263
  885MOL0     H22122   5.776   8.459   2.914 -0.3171  2.1456 -1.1226
  885MOL0     H22123   5.846   8.385   2.758  1.8170  1.4466  1.5647
  885MOL0     H22124   5.551   8.387   2.812 -0.5632  2.1758  2.0391
  885MOL0     H22125   5.608   8.393   2.657 -0.7145  3.6320 -1.8833
  885MOL0     H22126   5.695   8.804   2.724  0.6556 -0.5541  2.3461
  885MOL0     H22127   5.983   8.181   3.229  0.1742 -0.0337  0.2030
  885MOL0     H22128   6.088   8.144   3.456  0.8840  3.6702 -0.6107
  885MOL0     H22129   6.253   8.067   3.453 -0.5113 -1.5312 -1.3474
  885MOL0     H22130   6.213   8.210   3.349 -0.0102  0.8081 -0.0748
  886MOL0     O22131   5.497  10.061   2.543  0.6187  0.7725 -0.3525
  886MOL0     C22132   5.486  10.166   2.592  0.3661 -0.4477  0.9009
  886MOL0     O22133   5.587  10.241   2.633  0.1087 -0.3675  0.3718
  886MOL0     C22134   5.712  10.201   2.673 -0.1687  0.4483  0.7377
  886MOL0     C22135   5.770  10.070   2.671 -0.5759  0.1470  1.0796
  886MOL0     C22136   5.907  10.054   2.711  0.1642  0.4419  0.0025
  886MOL0     C22137   5.980  10.156   2.767  0.1608  0.3041  0.3793
  886MOL0     O22138   6.111  10.114   2.804 -0.6134 -0.0108  0.3806
  886MOL0     C22139   6.208  10.217   2.833  0.4823 -0.1354  0.2768
  886MOL0     C22140   6.342  10.165   2.891  0.6630  0.7737 -0.1190
  886MOL0     C22141   6.330  10.118   3.038  0.2251 -0.4841  0.7803
  886MOL0     C22142   6.208  10.027   3.075  0.0180  0.4698  0.0440
  886MOL0     C22143   6.201   9.996   3.228 -0.2459  0.2539  0.3310
  886MOL0     C22144   6.094   9.889   3.263  0.0422 -0.0680  0.4239
  886MOL0     C22145   6.099   9.858   3.412  0.1895  0.4238  0.3051
  886MOL0     C22146   6.021   9.954   3.506 -0.2627  0.4160  0.0732
  886MOL0     N22147   5.880   9.953   3.481 -0.3687  0.7186 -0.2108
  886MOL0     C22148   5.813  10.067   3.505 -0.5011  0.0785  0.5767
  886MOL0     C22149   5.684  10.036   3.466  0.3689  0.1227  1.1456
  886MOL0     C22150   5.580  10.131   3.426  0.2423  0.7931  0.4528
  886MOL0     C22151   5.586  10.169   3.278  0.0754 -0.0227 -0.4914
  886MOL0     C22152   5.531  10.060   3.181  0.0330  0.8106  0.6971
  886MOL0     C22153   5.383  10.029   3.185 -0.6177 -0.4298  0.3340
  886MOL0     O22154   5.297  10.145   3.162  0.0834  0.6056 -0.4034
  886MOL0     C22155   5.157  10.125   3.155 -0.6957  0.0817 -0.6489
  886MOL0     C22156   5.096  10.251   3.113 -0.1537  0.1633 -0.4033
  886MOL0     C22157   4.956  10.250   3.091 -1.3783 -0.1894  0.2460
  886MOL0     C22158   4.912  10.379   3.034 -0.4034  0.7457 -0.5897
  886MOL0     C22159   4.874  10.137   3.117  0.1231  0.0704 -0.3752
  886MOL0     C22160   4.726  10.137   3.089 -0.9298  0.1502 -0.0669
  886MOL0     O22161   4.675  10.233   3.008 -0.5078 -0.7668  0.0841
  886MOL0     C22162   4.545  10.270   3.018 -0.8064 -0.1501 -0.3538
  886MOL0     C22163   4.508  10.364   3.120  0.1518  0.3444  0.6755
  886MOL0     C22164   4.369  10.380   3.146 -0.4763  0.4380 -0.6398
  886MOL0     C22165   4.273  10.328   3.067  0.9014  0.0375  0.2591
  886MOL0     O22166   4.142  10.362   3.092 -0.0243  0.4109 -1.2620
  886MOL0     C22167   4.046  10.250   3.115 -0.3625  0.2530  0.2313
  886MOL0     C22168   4.028  10.223   3.262  0.2819  0.3284  0.2698
  886MOL0     C22169   3.992  10.339   3.347 -0.2824 -0.8131  0.0803
  886MOL0     C22170   3.979  10.304   3.502  0.0964  0.0506 -0.2098
  886MOL0     C22171   3.941  10.429   3.580 -0.4554 -0.2284 -1.2923
  886MOL0     C22172   4.022  10.561   3.559 -0.3114 -0.1537  0.1738
  886MOL0     C22173   3.983  10.669   3.658 -0.6232  0.5323  0.0262
  886MOL0     C22174   4.058  10.794   3.632 -0.0626 -0.3495 -0.4417
  886MOL0    Cl22175   4.010  10.860   3.474 -0.1574 -0.0239 -0.4542
  886MOL0     C22176   4.310  10.243   2.958  0.1720 -0.1418  0.2714
  886MOL0     C22177   4.444  10.219   2.930 -0.0993  0.2723 -0.5089
  886MOL0     O22178   4.662  10.055   3.155  0.6469 -0.1058 -0.3658
  886MOL0     C22179   4.938  10.026   3.173  1.0138 -0.3911 -0.5525
  886MOL0     C22180   5.074  10.014   3.185 -0.2724 -0.7243 -0.9115
  886MOL0     N22181   5.678   9.902   3.444  0.2469 -0.0101 -0.2469
  886MOL0     N22182   5.790   9.856   3.459 -0.1889 -0.6681 -0.2164
  886MOL0     C22183   5.924  10.285   2.777  0.1533  0.7042  0.3020
  886MOL0     C22184   5.794  10.300   2.728  1.0945 -0.6301 -0.5830
  886MOL0     C22185   5.356  10.232   2.595  0.5003 -0.2518  0.4681
  886MOL0     C22186   5.342  10.363   2.641  0.3056  0.7014 -0.1742
  886MOL0     C22187   5.224  10.419   2.665 -0.6656  0.4381 -0.8496
  886MOL0     C22188   5.101  10.361   2.633  0.6575  0.3610 -0.1957
  886MOL0     O22189   4.977  10.422   2.645 -0.2048  0.1440 -0.4674
  886MOL0     C22190   4.970  10.565   2.671  0.6226  0.0124  0.2116
  886MOL0     C22191   4.829  10.618   2.707 -0.2952  0.0555 -0.3907
  886MOL0     C22192   4.728  10.606   2.588 -0.9754 -0.1899 -0.2148
  886MOL0     C22193   4.584  10.664   2.611  0.4643  0.0505 -0.6331
  886MOL0     C22194   4.514  10.603   2.733  0.1465  0.9196  0.1631
  886MOL0     C22195   4.459  10.565   2.830 -0.4895  0.6588  0.7737
  886MOL0     C22196   5.110  10.230   2.585 -0.4205 -0.4418  0.3948
  886MOL0     C22197   5.235  10.164   2.566  0.3690  0.5382 -1.2280
  886MOL0     C22198   5.232  10.035   2.494  0.0913  0.9410  0.4459
  886MOL0     H22199   5.714   9.990   2.623  1.9760  1.0041 -4.0463
  886MOL0     H22200   5.956   9.964   2.677 -0.7932  0.1023 -0.5172
  886MOL0     H22201   6.183  10.291   2.910  1.3990 -1.8332  2.3036
  886MOL0     H22202   6.242  10.254   2.736  1.6479  1.1563  1.1399
  886MOL0     H22203   6.375  10.079   2.832 -1.6246 -0.7969  0.7684
  886MOL0     H22204   6.414  10.247   2.878 -0.8193  2.2132  0.3741
  886MOL0     H22205   6.418  10.056   3.059 -1.1926 -3.0094 -0.3169
  886MOL0     H22206   6.328  10.203   3.107  1.0774  0.2626 -0.0853
  886MOL0     H22207   6.112  10.072   3.048 -0.1849 -0.4721 -0.8770
  886MOL0     H22208   6.224   9.932   3.022  0.4283  0.5973 -0.0624
  886MOL0     H22209   6.178  10.080   3.295 -0.2807  0.5972 -0.1111
  886MOL0     H22210   6.298   9.950   3.249 -0.7585 -1.1081 -0.1971
  886MOL0     H22211   5.992   9.923   3.242 -1.8520 -2.9862  3.8149
  886MOL0     H22212   6.109   9.801   3.199  1.5716  1.4878 -1.4815
  886MOL0     H22213   6.204   9.873   3.438 -0.1348  2.6388  0.5303
  886MOL0     H22214   6.086   9.751   3.432  0.7660  0.4232  0.7020
  886MOL0     H22215   6.025   9.917   3.609 -1.5719  1.0247  0.3586
  886MOL0     H22216   6.061  10.054   3.494  0.8346 -0.3344 -4.0194
  886MOL0     H22217   5.842  10.170   3.521 -0.7227  0.1131  0.7771
  886MOL0     H22218   5.597  10.226   3.479 -1.1107  1.4441 -0.2301
  886MOL0     H22219   5.480  10.096   3.453  0.5677 -1.1175 -0.7000
  886MOL0     H22220   5.534  10.265   3.277 -0.3866 -0.1378  2.2924
  886MOL0     H22221   5.687  10.195   3.246  1.5683 -1.0341  2.8993
  886MOL0     H22222   5.563  10.080   3.078  4.8167  0.1216  1.7901
  886MOL0     H22223   5.585   9.965   3.194 -1.2489  0.0060  0.3517
  886MOL0     H22224   5.359   9.951   3.112 -1.1307 -0.4104  0.4763
  886MOL0     H22225   5.351   9.987   3.281 -1.0186 -0.6775  0.0951
  886MOL0     H22226   5.158  10.340   3.107  2.4291 -1.2662  2.2682
  886MOL0     H22227   4.994  10.451   3.024  2.0316 -0.7765  4.5123
  886MOL0     H22228   4.837  10.426   3.098  0.1584  0.1974  0.5037
  886MOL0     H22229   4.872  10.358   2.935 -0.8999  0.0807 -0.2574
  886MOL0     H22230   4.579  10.409   3.188 -0.0480  1.2144  0.3356
  886MOL0     H22231   4.330  10.444   3.224 -0.4170  1.8892 -1.7562
  886MOL0     H22232   3.946  10.279   3.081 -1.5497 -0.4469  2.8232
  886MOL0     H22233   4.070  10.152   3.074  0.6546 -0.9413  3.3777
  886MOL0     H22234   3.962  10.137   3.276 -0.0465  0.3422 -1.0727
  886MOL0     H22235   4.124  10.183   3.298  1.0029  0.5541 -1.3213
  886MOL0     H22236   3.890  10.368   3.319  0.0797 -2.2877 -3.1658
  886MOL0     H22237   4.067  10.414   3.324 -0.5762 -1.1457 -2.1957
  886MOL0     H22238   4.077  10.267   3.535 -0.4184 -0.3658  0.9160
  886MOL0     H22239   3.901  10.229   3.519  1.4428 -1.5999 -1.1162
  886MOL0     H22240   3.840  10.456   3.548  0.2539  3.4237 -0.9368
  886MOL0     H22241   3.935  10.402   3.686  2.0110  0.8426 -0.8142
  886MOL0     H22242   4.010  10.604   3.459  0.4136 -0.4458 -0.0459
  886MOL0     H22243   4.128  10.537   3.561 -0.2651  0.1033  0.8872
  886MOL0     H22244   4.021  10.629   3.753 -3.3059 -0.1903  0.8653
  886MOL0     H22245   3.877  10.694   3.665 -1.2480 -2.2204  2.0876
  886MOL0     H22246   4.167  10.780   3.635  0.0752  0.5685 -0.7900
  886MOL0     H22247   4.040  10.857   3.719 -0.9595 -1.8726  0.5117
  886MOL0     H22248   4.226  10.201   2.903  1.0788 -2.0501  0.2851
  886MOL0     H22249   4.461  10.152   2.847 -4.8004 -0.2149 -1.3410
  886MOL0     H22250   4.883   9.938   3.204  1.5729 -0.0593  1.5193
  886MOL0     H22251   5.118   9.921   3.218 -0.5200  0.3591  3.0450
  886MOL0     H22252   5.979  10.375   2.804 -0.9166  0.8720  2.1095
  886MOL0     H22253   5.758  10.403   2.725 -0.5709 -1.0181  2.1305
  886MOL0     H22254   5.435  10.411   2.667  0.6894 -0.9855  1.9377
  886MOL0     H22255   5.238  10.523   2.692  1.7620  0.3325 -1.4730
  886MOL0     H22256   5.035  10.585   2.757  3.2822 -0.8554 -1.4734
  886MOL0     H22257   5.009  10.626   2.588  0.0891 -1.6512 -1.3276
  886MOL0     H22258   4.845  10.722   2.737  0.6063 -0.0262 -0.5423
  886MOL0     H22259   4.787  10.559   2.789  2.3643  0.7494  1.6010
  886MOL0     H22260   4.767  10.675   2.513 -0.7354  0.8256  0.8168
  886MOL0     H22261   4.730  10.503   2.551  2.0691 -0.9827  1.8041
  886MOL0     H22262   4.523  10.652   2.521  1.4336  0.9783 -1.4371
  886MOL0     H22263   4.594  10.771   2.631  0.4296 -0.4987  3.0009
  886MOL0     H22264   4.416  10.521   2.918  0.5237  0.5762  1.2466
  886MOL0     H22265   5.016  10.188   2.549 -1.4813  1.5478  0.6839
  886MOL0     H22266   5.128  10.002   2.489  0.3823  0.0971 -0.1243
  886MOL0     H22267   5.271  10.042   2.392  2.3014 -4.5362  0.6054
  886MOL0     H22268   5.279   9.948   2.539 -1.2384 -0.3740 -0.6276
  887MOL0     O22269   1.415  10.950   9.180 -0.2814 -0.7410 -0.0883
  887MOL0     C22270   1.390  11.053   9.238 -0.3721  0.2491 -0.3163
  887MOL0     O22271   1.487  11.142   9.284  0.9449  0.4885 -0.6254
  887MOL0     C22272   1.625  11.128   9.294 -0.1898  1.5263  0.1735
  887MOL0     C22273   1.672  11.101   9.420  0.1499  0.0325  0.6960
  887MOL0     C22274   1.806  11.064   9.438  0.1738 -1.0525 -0.2949
  887MOL0     C22275   1.894  11.063   9.331 -0.1803  0.1642  0.2378
  887MOL0     O22276   2.018  11.012   9.337  0.3556 -0.3385  0.2033
  887MOL0     C22277   2.094  11.028   9.461 -0.2684  0.0150  0.1491
  887MOL0     C22278   2.242  11.011   9.428  0.7209 -0.2393  0.0245
  887MOL0     C22279   2.299  11.100   9.317  0.6877  0.0736  1.1522
  887MOL0     C22280   2.454  11.085   9.317 -0.1076 -0.2708  0.1014
  887MOL0     C22281   2.524  11.195   9.231  0.1792 -0.5786 -0.4113
  887MOL0     C22282   2.513  11.169   9.087  0.0124  0.3178  0.6064
  887MOL0     C22283   2.566  11.286   8.992 -0.4599 -0.4704 -0.1284
  887MOL0     C22284   2.717  11.269   8.972  0.2703  0.6088  0.2730
  887MOL0     N22285   2.765  11.383   8.886 -0.1202 -0.0368 -0.5774
  887MOL0     C22286   2.761  11.520   8.922 -0.0873  0.1105  0.5166
  887MOL0     C22287   2.810  11.576   8.819 -0.2664  0.7367 -0.2717
  887MOL0     C22288   2.824  11.725   8.795  0.8143 -0.0955  0.1240
  887MOL0     C22289   2.706  11.791   8.724 -0.1547  0.6018 -0.6562
  887MOL0     C22290   2.599  11.848   8.813  1.0043  0.4239 -0.2530
  887MOL0     C22291   2.473  11.884   8.738  0.5131  0.5181  0.5289
  887MOL0     O22292   2.363  11.914   8.825  0.2051  0.0324  0.2328
  887MOL0     C22293   2.252  11.965   8.766 -0.5233 -0.1980  0.6471
  887MOL0     C22294   2.237  12.099   8.736  0.5374  0.3416 -0.2344
  887MOL0     C22295   2.112  12.158   8.704 -0.8799 -0.0615 -0.9302
  887MOL0     C22296   2.123  12.302   8.680 -0.2849  0.3243 -0.1001
  887MOL0     C22297   1.992  12.083   8.702  1.1840 -0.5397  0.3101
  887MOL0     C22298   1.851  12.128   8.665 -0.2877 -0.5976  0.7663
  887MOL0     O22299   1.747  12.036   8.700 -0.0852 -0.1361  0.1364
  887MOL0     C22300   1.618  12.081   8.675  0.2451  0.1757 -0.6453
  887MOL0     C22301   1.521  12.083   8.776  0.2132 -0.5919  0.3685
  887MOL0     C22302   1.382  12.106   8.760  0.0428  0.0835  0.1607
  887MOL0     C22303   1.340  12.134   8.624 -0.4041 -0.3043  0.2737
  887MOL0     O22304   1.218  12.186   8.604 -0.0909  0.1384 -0.2527
  887MOL0     C22305   1.171  12.216   8.472  0.4442  0.5022  0.1100
  887MOL0     C22306   1.025  12.265   8.474 -0.3729  0.0355 -1.0805
  887MOL0     C22307   1.006  12.377   8.569 -0.0995  0.8818 -0.1138
  887MOL0     C22308   1.061  12.510   8.504 -0.0620  0.5870  0.6127
  887MOL0     C22309   1.073  12.619   8.608  1.1076  0.2591 -0.1530
  887MOL0     C22310   1.128  12.754   8.565 -0.3135  0.3674  0.6584
  887MOL0     C22311   1.045  12.830   8.463 -0.0728  0.2279  0.8930
  887MOL0     C22312   1.129  12.939   8.385  0.8616  0.5107  0.5661
  887MOL0    Cl22313   1.032  13.028   8.270 -0.1098  0.0146 -0.2319
  887MOL0     C22314   1.429  12.127   8.515 -0.4196  0.0214 -0.0862
  887MOL0     C22315   1.569  12.107   8.546  0.0854 -0.5868  0.3709
  887MOL0     O22316   1.840  12.224   8.589  0.1568  0.2489 -0.4464
  887MOL0     C22317   2.004  11.938   8.723 -0.4759 -0.8792  0.2235
  887MOL0     C22318   2.133  11.892   8.762 -0.4733 -0.3007 -0.2581
  887MOL0     N22319   2.860  11.486   8.726 -1.1864  1.1817 -0.3873
  887MOL0     N22320   2.828  11.366   8.772  0.3780 -0.6732 -0.3079
  887MOL0     C22321   1.836  11.091   9.205  0.3271  0.0605  0.6624
  887MOL0     C22322   1.706  11.123   9.184  0.6668  0.6789 -0.4405
  887MOL0     C22323   1.247  11.093   9.263 -0.5453  0.0473  0.6772
  887MOL0     C22324   1.234  11.194   9.368 -0.1371  0.3189 -0.1368
  887MOL0     C22325   1.105  11.241   9.413  0.8108 -0.2828 -0.3177
  887MOL0     C22326   0.991  11.196   9.350 -0.5898  0.8292  0.6139
  887MOL0     O22327   0.868  11.227   9.404  0.3170 -0.3774  0.3538
  887MOL0     C22328   0.773  11.123   9.420 -0.1898  0.5647 -0.6196
  887MOL0     C22329   0.651  11.148   9.333  0.3715 -0.3249  0.3551
  887MOL0     C22330   0.608  11.292   9.341 -0.0912 -0.3668  0.2103
  887MOL0     C22331   0.481  11.324   9.255  0.2070 -0.2094 -0.5777
  887MOL0     C22332   0.361  11.258   9.313  0.6461  0.5518  0.6637
  887MOL0     C22333   0.256  11.218   9.356  0.8570  0.1673  0.1719
  887MOL0     C22334   1.006  11.110   9.239 -0.3599 -0.3537 -0.4675
  887MOL0     C22335   1.128  11.057   9.197 -0.4589 -0.3990  0.0768
  887MOL0     C22336   1.121  10.976   9.077 -0.2513  0.6803  0.6898
  887MOL0     H22337   1.607  11.103   9.507 -1.4418  1.9282 -0.4549
  887MOL0     H22338   1.833  11.052   9.542 -2.1330  0.6924  0.5990
  887MOL0     H22339   2.048  10.959   9.532 -2.0316  0.4707 -0.5024
  887MOL0     H22340   2.084  11.127   9.507 -4.8214 -1.6349  3.4668
  887MOL0     H22341   2.302  11.029   9.517  1.6494  0.0555 -0.6492
  887MOL0     H22342   2.256  10.905   9.406 -0.4770 -0.4420  0.1475
  887MOL0     H22343   2.255  11.070   9.221  1.2749 -1.4933  1.3466
  887MOL0     H22344   2.270  11.205   9.330 -0.9319 -0.2109  0.1702
  887MOL0     H22345   2.495  11.099   9.418 -0.3650  0.3638  0.1217
  887MOL0     H22346   2.474  10.986   9.275 -0.4444  0.4527 -1.8578
  887MOL0     H22347   2.628  11.201   9.262 -0.0277 -0.9434  0.3779
  887MOL0     H22348   2.473  11.290   9.252 -1.0165 -1.0797 -0.9408
  887MOL0     H22349   2.551  11.070   9.061 -0.4619  0.1428  0.5657
  887MOL0     H22350   2.410  11.160   9.054  0.8350  0.5996 -2.2963
  887MOL0     H22351   2.546  11.385   9.035 -0.2400  0.0258 -1.1330
  887MOL0     H22352   2.510  11.278   8.898  2.3096 -1.0701 -1.8546
  887MOL0     H22353   2.766  11.271   9.069  2.3122 -1.3094 -0.6238
  887MOL0     H22354   2.722  11.172   8.921  2.0402  0.8924 -0.1461
  887MOL0     H22355   2.718  11.576   9.005 -0.7627 -0.1344  0.3376
  887MOL0     H22356   2.902  11.735   8.719 -1.2517  2.2537 -1.8888
  887MOL0     H22357   2.849  11.779   8.886 -0.3051  1.3562 -0.3833
  887MOL0     H22358   2.739  11.882   8.672  1.6887 -1.9807 -4.4822
  887MOL0     H22359   2.668  11.728   8.643 -0.2954 -0.7169  0.4091
  887MOL0     H22360   2.571  11.770   8.885 -2.4087  0.3401 -1.4549
  887MOL0     H22361   2.632  11.930   8.876 -0.6956 -1.5479  3.5335
  887MOL0     H22362   2.491  11.975   8.680  3.3561 -0.9990 -1.2026
  887MOL0     H22363   2.452  11.800   8.671 -1.0275 -0.3400  2.0077
  887MOL0     H22364   2.333  12.149   8.750  0.8268 -0.7087  2.0681
  887MOL0     H22365   2.223  12.311   8.636 -0.7578 -1.6346 -1.7205
  887MOL0     H22366   2.112  12.363   8.770 -0.2110  0.1912  0.0001
  887MOL0     H22367   2.045  12.332   8.609 -1.1882 -0.5633  0.4945
  887MOL0     H22368   1.555  12.051   8.874 -0.4916 -0.9906  0.4930
  887MOL0     H22369   1.308  12.113   8.839 -0.8352  1.7371 -0.7389
  887MOL0     H22370   1.230  12.297   8.428  1.2245 -0.9781 -1.7143
  887MOL0     H22371   1.171  12.131   8.404 -1.0532  1.5293 -1.2660
  887MOL0     H22372   1.006  12.298   8.371  0.1238  0.5006 -1.0256
  887MOL0     H22373   0.955  12.191   8.514  2.0008 -1.7207  0.0675
  887MOL0     H22374   1.051  12.362   8.668 -0.1813  3.5631  0.3955
  887MOL0     H22375   0.897  12.388   8.572 -0.4738 -1.8339 -0.6835
  887MOL0     H22376   0.992  12.548   8.428  0.2686  1.4889  0.7474
  887MOL0     H22377   1.159  12.492   8.458 -0.8101 -2.0360 -0.0508
  887MOL0     H22378   0.980  12.642   8.660  0.2732  0.0011 -1.4763
  887MOL0     H22379   1.144  12.588   8.685 -0.3156  2.5943  2.2471
  887MOL0     H22380   1.231  12.741   8.531 -0.5389 -1.4181  0.5370
  887MOL0     H22381   1.130  12.813   8.657 -1.4506 -0.4784  1.2600
  887MOL0     H22382   0.967  12.875   8.526 -1.1026 -0.7555  0.3590
  887MOL0     H22383   1.008  12.753   8.394  0.0381  0.8313  0.1407
  887MOL0     H22384   1.218  12.899   8.335  0.9917 -0.3999  1.4993
  887MOL0     H22385   1.160  13.010   8.463  2.7714  0.1882  0.1463
  887MOL0     H22386   1.390  12.145   8.416 -1.2986 -0.8632  0.0839
  887MOL0     H22387   1.643  12.090   8.469  0.3291 -2.3612  0.9663
  887MOL0     H22388   1.922  11.868   8.713 -1.4038  0.4885 -2.8224
  887MOL0     H22389   2.143  11.791   8.799  1.9300  0.3203  1.0254
  887MOL0     H22390   1.898  11.086   9.116 -1.8737 -0.1746 -0.9355
  887MOL0     H22391   1.673  11.134   9.081 -0.6059 -0.6058 -0.1909
  887MOL0     H22392   1.316  11.236   9.425  0.4415 -0.9483  0.0172
  887MOL0     H22393   1.100  11.315   9.492  0.1981 -1.5927  0.8927
  887MOL0     H22394   0.823  11.026   9.410  1.0883  0.9441  1.4173
  887MOL0     H22395   0.743  11.121   9.526 -1.0569  3.9608 -0.6920
  887MOL0     H22396   0.572  11.074   9.347  0.0746 -0.1420 -0.3299
  887MOL0     H22397   0.703  11.130   9.238  1.7179  0.9842  0.8133
  887MOL0     H22398   0.593  11.328   9.444 -2.8570  0.7212 -0.4735
  887MOL0     H22399   0.691  11.349   9.299  0.0125 -1.3498 -0.9823
  887MOL0     H22400   0.489  11.286   9.153 -2.0498 -0.4781 -0.7044
  887MOL0     H22401   0.458  11.430   9.249  0.9792 -0.0579 -1.0377
  887MOL0     H22402   0.155  11.193   9.382  1.0326 -3.5567 -2.0641
  887MOL0     H22403   0.917  11.094   9.178  0.4158  2.5826 -2.5995
  887MOL0     H22404   1.023  10.955   9.034 -0.3873  0.0212  1.2977
  887MOL0     H22405   1.167  11.017   8.986 -1.7371  0.2980 -0.2659
  887MOL0     H22406   1.165  10.880   9.106 -0.5451  0.5728  0.7804
  888MOL0     O22407   7.646   3.400   4.165  0.2737 -0.8630 -0.2289
  888MOL0     C22408   7.749   3.346   4.125 -0.4267 -0.3675 -0.1664
  888MOL0     O22409   7.806   3.378   4.009 -0.4526 -0.6558 -0.3345
  888MOL0     C22410   7.763   3.489   3.940  0.0608 -0.4276 -0.2734
  888MOL0     C22411   7.640   3.501   3.881  0.5844 -0.2527 -0.0253
  888MOL0     C22412   7.609   3.607   3.796 -0.6958  0.2050 -0.6396
  888MOL0     C22413   7.703   3.706   3.768 -0.7831  1.2012  1.0420
  888MOL0     O22414   7.673   3.803   3.670  0.5297 -0.1077  0.9149
  888MOL0     C22415   7.779   3.843   3.589 -0.2390 -0.1159  0.3559
  888MOL0     C22416   7.750   3.947   3.470  1.2191  0.4645  0.4185
  888MOL0     C22417   7.635   3.894   3.383  0.9701  0.4008  0.3015
  888MOL0     C22418   7.581   3.998   3.283 -0.4130  0.7569  0.4164
  888MOL0     C22419   7.445   3.965   3.211 -0.0452  0.2138  0.2045
  888MOL0     C22420   7.456   3.839   3.113 -0.1350 -0.1894 -0.1262
  888MOL0     C22421   7.529   3.875   2.983 -0.2202  0.7699 -0.9329
  888MOL0     C22422   7.441   3.955   2.888 -0.7942  0.3556  0.8643
  888MOL0     N22423   7.504   3.986   2.761  0.0383 -0.5256 -0.0082
  888MOL0     C22424   7.615   4.070   2.745  0.0227 -0.5014 -0.0193
  888MOL0     C22425   7.635   4.081   2.617  0.4812  0.1785 -0.1016
  888MOL0     C22426   7.744   4.163   2.553 -0.1154 -0.3689  0.2603
  888MOL0     C22427   7.714   4.314   2.544 -0.9203 -0.3328  0.0218
  888MOL0     C22428   7.819   4.380   2.453 -0.1980  0.1013 -0.0262
  888MOL0     C22429   7.756   4.486   2.372  1.6938  0.0335 -0.9995
  888MOL0     O22430   7.689   4.588   2.446 -0.4530  0.6269 -0.2295
  888MOL0     C22431   7.757   4.690   2.506  0.0554 -0.6863  0.2159
  888MOL0     C22432   7.698   4.775   2.602 -0.6689  0.2668 -0.1022
  888MOL0     C22433   7.761   4.892   2.650  0.2616 -0.6075 -0.1020
  888MOL0     C22434   7.686   4.967   2.763 -0.0958 -0.5566  0.1052
  888MOL0     C22435   7.892   4.935   2.610 -0.3133  0.7497 -0.6630
  888MOL0     C22436   7.984   5.037   2.665  0.0576 -0.5388 -0.3673
  888MOL0     O22437   8.071   5.089   2.580 -0.3578 -0.0824  0.3022
  888MOL0     C22438   8.135   5.206   2.609  0.2825  0.4030 -0.4742
  888MOL0     C22439   8.084   5.311   2.696  0.5761  0.1254 -0.4913
  888MOL0     C22440   8.163   5.424   2.721 -0.2588 -0.4443 -0.1818
  888MOL0     C22441   8.288   5.438   2.660  0.3499  0.7260  0.7115
  888MOL0     O22442   8.361   5.551   2.688 -0.1790  0.7908  0.1853
  888MOL0     C22443   8.493   5.524   2.747 -1.1086 -0.3286 -0.1069
  888MOL0     C22444   8.482   5.572   2.888  0.1145  0.9617  0.1987
  888MOL0     C22445   8.620   5.598   2.944  1.2947 -1.1306  0.5088
  888MOL0     C22446   8.618   5.691   3.071 -0.3719 -0.5418  0.4340
  888MOL0     C22447   8.742   5.713   3.151  0.5535  0.0167  0.5294
  888MOL0     C22448   8.745   5.800   3.278 -0.4388 -0.1326 -0.7474
  888MOL0     C22449   8.882   5.798   3.347  0.2821 -0.7855 -0.3270
  888MOL0     C22450   8.892   5.879   3.476  0.6299 -0.2308  0.7466
  888MOL0    Cl22451   9.057   5.854   3.536  0.1526  0.2089  0.0373
  888MOL0     C22452   8.334   5.339   2.571  0.3520 -1.3147 -0.0085
  888MOL0     C22453   8.257   5.226   2.548  0.2507  0.4881 -0.0822
  888MOL0     O22454   7.983   5.057   2.786  0.8607 -0.7641 -0.5719
  888MOL0     C22455   7.959   4.839   2.530 -0.0018  0.2397 -0.4702
  888MOL0     C22456   7.893   4.717   2.482 -0.0569 -0.6776  1.1581
  888MOL0     N22457   7.533   4.009   2.553 -0.6784 -1.2858 -0.2814
  888MOL0     N22458   7.457   3.958   2.640  0.2790  0.2612  0.5699
  888MOL0     C22459   7.821   3.707   3.838 -0.2322  0.0378 -0.1188
  888MOL0     C22460   7.853   3.598   3.922  0.3484  0.6249 -0.4881
  888MOL0     C22461   7.802   3.222   4.188 -0.0228 -0.1136 -0.2880
  888MOL0     C22462   7.940   3.193   4.177  0.3366 -0.3136  0.6896
  888MOL0     C22463   7.990   3.084   4.247 -0.5835  0.0857  0.0608
  888MOL0     C22464   7.909   2.988   4.304 -0.1056  0.1992 -0.1850
  888MOL0     O22465   7.969   2.883   4.370  0.0235  0.1615 -0.3727
  888MOL0     C22466   7.916   2.860   4.502 -0.5152  0.9519  0.0432
  888MOL0     C22467   7.926   2.985   4.586  0.1659  0.2387  0.2151
  888MOL0     C22468   7.895   2.958   4.739  0.0431  0.5600  0.1415
  888MOL0     C22469   7.754   2.897   4.763  0.6588 -0.5412  0.3381
  888MOL0     C22470   7.651   2.988   4.696 -0.0979 -0.8308 -0.3870
  888MOL0     C22471   7.560   3.047   4.655  0.8073 -0.0668  0.4072
  888MOL0     C22472   7.767   3.013   4.291 -0.8923  1.0607 -0.8147
  888MOL0     C22473   7.718   3.130   4.246 -0.2125 -0.1065 -0.4018
  888MOL0     C22474   7.567   3.127   4.238  0.1606 -0.0797 -0.1046
  888MOL0     H22475   7.575   3.414   3.884  1.3515 -0.8443 -0.0983
  888MOL0     H22476   7.508   3.615   3.756 -0.7188 -0.7247 -0.7928
  888MOL0     H22477   7.844   3.760   3.560  3.5789  2.7568 -0.1633
  888MOL0     H22478   7.848   3.901   3.651 -0.6193 -0.5333  1.1918
  888MOL0     H22479   7.725   4.048   3.504  1.4724  0.4160  0.7496
  888MOL0     H22480   7.845   3.967   3.420  1.3914 -1.4299 -0.1037
  888MOL0     H22481   7.659   3.800   3.333  0.4495 -0.1865  1.1122
  888MOL0     H22482   7.551   3.869   3.449  0.9622  1.4249  0.6906
  888MOL0     H22483   7.552   4.088   3.338  2.6488  0.8572  2.0880
  888MOL0     H22484   7.661   4.033   3.216  0.8346 -0.0107  1.4401
  888MOL0     H22485   7.417   4.052   3.151 -3.7554 -0.4204  0.7446
  888MOL0     H22486   7.375   3.938   3.291  0.2422 -1.2754 -0.0172
  888MOL0     H22487   7.516   3.758   3.156  0.1763 -0.5892 -1.2803
  888MOL0     H22488   7.352   3.811   3.093 -0.0853 -0.0442 -0.5963
  888MOL0     H22489   7.562   3.782   2.935 -4.3619 -0.1474 -2.4093
  888MOL0     H22490   7.617   3.933   3.013 -0.9108  0.4172  2.0091
  888MOL0     H22491   7.358   3.886   2.870  0.3047 -1.1976  1.5304
  888MOL0     H22492   7.408   4.051   2.928  1.0232  1.5678 -0.3580
  888MOL0     H22493   7.675   4.119   2.821 -1.4502  1.3754  0.0180
  888MOL0     H22494   7.762   4.124   2.452  1.9763 -1.1052  0.8615
  888MOL0     H22495   7.841   4.162   2.604 -0.5426  1.3561  1.2007
  888MOL0     H22496   7.610   4.334   2.516 -0.3224  1.9742 -0.8032
  888MOL0     H22497   7.729   4.355   2.645 -0.6399 -0.2813 -0.0429
  888MOL0     H22498   7.905   4.418   2.509 -1.1839  1.2208  0.7818
  888MOL0     H22499   7.854   4.308   2.378  1.5122 -0.4157  1.1983
  888MOL0     H22500   7.824   4.526   2.296 -1.0769  0.8862 -3.2241
  888MOL0     H22501   7.675   4.445   2.312  0.7659  0.0984  0.1616
  888MOL0     H22502   7.592   4.768   2.622 -0.4970 -2.2868  0.2354
  888MOL0     H22503   7.733   4.931   2.855 -0.6151 -0.9392  0.2304
  888MOL0     H22504   7.580   4.938   2.769 -1.0757  2.2091 -1.7562
  888MOL0     H22505   7.689   5.076   2.753  0.2088 -0.5331  0.4349
  888MOL0     H22506   7.989   5.292   2.745  1.6683  0.2564  1.7870
  888MOL0     H22507   8.135   5.494   2.799  0.2931 -0.3244 -0.0855
  888MOL0     H22508   8.523   5.419   2.751  0.6038  0.1604  1.5610
  888MOL0     H22509   8.568   5.589   2.700 -1.4775  0.3292  0.1973
  888MOL0     H22510   8.421   5.663   2.890  0.8365  1.4405  0.8059
  888MOL0     H22511   8.431   5.493   2.944  0.0511 -0.0373 -1.1945
  888MOL0     H22512   8.669   5.660   2.869 -0.9490  0.9773  0.6707
  888MOL0     H22513   8.677   5.506   2.957 -0.3396 -2.1810  0.4200
  888MOL0     H22514   8.549   5.639   3.138  0.2696  0.0719  1.5904
  888MOL0     H22515   8.568   5.786   3.048 -2.3167 -2.2095 -2.9998
  888MOL0     H22516   8.773   5.612   3.181 -0.2873  0.5847  3.5920
  888MOL0     H22517   8.809   5.749   3.072 -2.9708 -0.9563 -3.3202
  888MOL0     H22518   8.662   5.778   3.345 -2.1357 -1.3214 -3.1105
  888MOL0     H22519   8.731   5.908   3.262  1.7228  0.4677  0.8809
  888MOL0     H22520   8.953   5.841   3.275  0.3765  0.2674  0.3702
  888MOL0     H22521   8.910   5.696   3.374  0.0400 -1.6532 -3.0870
  888MOL0     H22522   8.814   5.845   3.544 -0.1225  0.3790  0.2033
  888MOL0     H22523   8.874   5.984   3.451 -0.2811 -0.5904 -0.1828
  888MOL0     H22524   8.433   5.346   2.527  0.4727  2.4298  0.5824
  888MOL0     H22525   8.296   5.148   2.484 -2.5923  0.5124 -2.0307
  888MOL0     H22526   8.063   4.858   2.505 -0.1865 -0.4881 -1.8898
  888MOL0     H22527   7.944   4.651   2.412 -1.7763 -2.4509  1.5034
  888MOL0     H22528   7.892   3.789   3.834  0.3117 -0.4392 -0.3117
  888MOL0     H22529   7.943   3.596   3.984 -1.2527 -3.4460  2.1215
  888MOL0     H22530   8.003   3.271   4.136 -0.1404  0.0274  0.6000
  888MOL0     H22531   8.094   3.066   4.271  0.0374  1.8545 -1.1196
  888MOL0     H22532   7.816   2.815   4.499 -0.2224  0.2186  0.7532
  888MOL0     H22533   7.984   2.791   4.553  1.5585  0.7480 -2.7507
  888MOL0     H22534   7.854   3.056   4.545  1.6345  1.3688 -0.5219
  888MOL0     H22535   8.028   3.022   4.569  0.5632 -1.0010 -0.2357
  888MOL0     H22536   7.973   2.894   4.781 -1.0066 -0.6238  0.3523
  888MOL0     H22537   7.899   3.055   4.790 -0.9330  0.5385  0.2758
  888MOL0     H22538   7.719   2.889   4.866 -2.1752 -2.9307 -0.6893
  888MOL0     H22539   7.745   2.799   4.716 -2.6916 -0.7834  1.2696
  888MOL0     H22540   7.466   3.083   4.617  0.7718 -2.4364 -2.0303
  888MOL0     H22541   7.699   2.941   4.334  0.0783  1.7456  2.0704
  888MOL0     H22542   7.523   3.155   4.142  1.6795  0.5151 -0.6618
  888MOL0     H22543   7.521   3.033   4.271 -2.1394  1.9559  2.9870
  888MOL0     H22544   7.529   3.204   4.305 -1.9417 -1.6402  0.6100
  889MOL0     O22545   5.222   1.603   8.667 -0.4877 -0.3947  0.2761
  889MOL0     C22546   5.195   1.670   8.764  0.1028  0.0807  0.0779
  889MOL0     O22547   5.262   1.774   8.815 -0.0384 -0.3170 -0.5320
  889MOL0     C22548   5.374   1.815   8.748 -0.3218  0.4993 -0.1235
  889MOL0     C22549   5.505   1.777   8.778  0.3989 -0.0933 -0.4743
  889MOL0     C22550   5.616   1.818   8.706 -0.1904 -0.6184  1.0938
  889MOL0     C22551   5.593   1.906   8.598 -0.0395 -1.0001  0.0730
  889MOL0     O22552   5.706   1.955   8.534 -0.6370 -0.2720  0.1588
  889MOL0     C22553   5.692   2.063   8.441  1.1953  0.0438 -0.7007
  889MOL0     C22554   5.822   2.105   8.379  0.0739  0.7145  0.4475
  889MOL0     C22555   5.924   2.142   8.493  0.1701  0.4080 -0.4326
  889MOL0     C22556   6.059   2.211   8.460  0.9848 -0.4282 -1.3857
  889MOL0     C22557   6.148   2.197   8.580  0.5412 -0.2089  0.6366
  889MOL0     C22558   6.284   2.261   8.552 -0.6896  0.2259 -0.2006
  889MOL0     C22559   6.352   2.294   8.693  0.3711 -0.3897 -0.1645
  889MOL0     C22560   6.492   2.348   8.679  0.3801 -0.1538 -0.0279
  889MOL0     N22561   6.509   2.435   8.561  0.2936  0.4182 -0.4771
  889MOL0     C22562   6.460   2.563   8.547  0.2862 -0.4347 -0.3992
  889MOL0     C22563   6.491   2.601   8.421  0.6290  0.3201 -0.6790
  889MOL0     C22564   6.478   2.742   8.374  1.6040 -0.1685  0.5438
  889MOL0     C22565   6.564   2.842   8.442  0.5288  0.0194  0.7274
  889MOL0     C22566   6.548   2.973   8.363  0.5306 -0.0467 -0.4876
  889MOL0     C22567   6.608   3.097   8.432 -0.1223 -0.6707  0.7959
  889MOL0     O22568   6.723   3.054   8.506  0.5684 -0.0950  0.3545
  889MOL0     C22569   6.783   3.152   8.577 -0.4431 -0.5692  0.2614
  889MOL0     C22570   6.742   3.283   8.596  0.3844 -0.0183  0.2484
  889MOL0     C22571   6.803   3.378   8.679 -0.0463 -0.0662 -0.0397
  889MOL0     C22572   6.725   3.503   8.713 -0.2158 -0.3829  0.2363
  889MOL0     C22573   6.920   3.337   8.751 -0.4401  0.0189 -0.3601
  889MOL0     C22574   7.000   3.428   8.834  0.7598 -0.1721  0.2588
  889MOL0     O22575   7.093   3.371   8.914 -0.1909  0.7011  0.0030
  889MOL0     C22576   7.157   3.435   9.017  0.3533  0.2444  1.0747
  889MOL0     C22577   7.103   3.451   9.139  0.0869  0.2659  0.0183
  889MOL0     C22578   7.180   3.502   9.242 -0.2503 -0.1001  0.2565
  889MOL0     C22579   7.312   3.545   9.224 -0.1349  0.1502 -1.0572
  889MOL0     O22580   7.383   3.577   9.343  0.1129 -0.1683 -0.1257
  889MOL0     C22581   7.529   3.587   9.339  0.8613 -0.2685  0.5477
  889MOL0     C22582   7.570   3.667   9.459  0.6230 -0.8360 -0.5131
  889MOL0     C22583   7.506   3.617   9.589 -0.1794 -0.4078  0.0142
  889MOL0     C22584   7.575   3.685   9.707 -0.3418  0.3475 -0.4509
  889MOL0     C22585   7.523   3.635   9.845 -0.3030 -0.5034 -0.3703
  889MOL0     C22586   7.380   3.615   9.860 -0.0328  0.5524  0.3050
  889MOL0     C22587   7.305   3.748   9.866  0.7295 -0.2182 -0.0796
  889MOL0     C22588   7.169   3.728   9.932 -0.3011  0.4323  1.0108
  889MOL0    Cl22589   7.079   3.891   9.942  0.5387 -0.0124 -0.3557
  889MOL0     C22590   7.358   3.545   9.089 -0.4132 -0.6932 -0.0989
  889MOL0     C22591   7.288   3.485   8.988  0.4261  0.9070 -0.1318
  889MOL0     O22592   6.981   3.551   8.823 -0.4807 -0.3210  0.2533
  889MOL0     C22593   6.961   3.208   8.729 -0.3220 -0.0256  1.2695
  889MOL0     C22594   6.895   3.113   8.644 -0.0072  0.7088  0.4513
  889MOL0     N22595   6.559   2.501   8.360 -0.0395  0.7169 -0.1486
  889MOL0     N22596   6.580   2.401   8.450 -0.7362  0.1594  0.0124
  889MOL0     C22597   5.462   1.947   8.565 -0.0324  0.3124  0.1555
  889MOL0     C22598   5.352   1.909   8.636  0.3305  0.0672 -0.0264
  889MOL0     C22599   5.067   1.637   8.825 -0.4404 -0.9223  0.6507
  889MOL0     C22600   4.982   1.748   8.848 -0.5944 -0.0410  0.1442
  889MOL0     C22601   4.855   1.728   8.889 -0.0900  0.9745  0.2242
  889MOL0     C22602   4.801   1.605   8.930  0.1836  0.1197  0.8755
  889MOL0     O22603   4.674   1.617   8.983  0.4114 -0.3197 -0.2000
  889MOL0     C22604   4.595   1.496   8.984  0.2628 -0.4777 -0.1923
  889MOL0     C22605   4.545   1.444   8.852 -0.1078  0.5788 -1.1781
  889MOL0     C22606   4.475   1.310   8.871 -0.0862 -0.0890 -0.6222
  889MOL0     C22607   4.419   1.270   8.731 -0.5726  0.0253  0.1785
  889MOL0     C22608   4.270   1.247   8.745 -1.0269  0.0261 -0.1249
  889MOL0     C22609   4.156   1.208   8.765  0.2752  0.5149  0.0131
  889MOL0     C22610   4.880   1.490   8.900  0.3331  0.0002 -0.1018
  889MOL0     C22611   5.016   1.506   8.850  0.1975  0.0387  0.5915
  889MOL0     C22612   5.102   1.391   8.849  0.5908  0.2154 -0.0378
  889MOL0     H22613   5.510   1.723   8.872  3.3734  0.0953 -0.4235
  889MOL0     H22614   5.718   1.783   8.718  0.7936  2.0736  1.4288
  889MOL0     H22615   5.655   2.150   8.496 -1.2954 -1.3700  0.0131
  889MOL0     H22616   5.625   2.044   8.356  1.4240  1.5621 -1.2506
  889MOL0     H22617   5.858   2.013   8.332 -1.7944  0.3532 -0.3528
  889MOL0     H22618   5.810   2.184   8.304  1.7313  0.0684 -0.5750
  889MOL0     H22619   5.873   2.207   8.564 -2.0203 -1.0261 -0.6017
  889MOL0     H22620   5.942   2.043   8.536 -0.6243  1.0421  1.4646
  889MOL0     H22621   6.101   2.170   8.368  0.3683 -0.4242 -1.6741
  889MOL0     H22622   6.024   2.310   8.429 -1.4537 -0.4065  1.0992
  889MOL0     H22623   6.159   2.094   8.614  0.2779 -1.0214 -1.5547
  889MOL0     H22624   6.099   2.255   8.658 -0.1700 -1.2160  0.9475
  889MOL0     H22625   6.352   2.193   8.499  0.0234  1.1486 -0.5097
  889MOL0     H22626   6.260   2.349   8.492 -2.1907  0.3971  0.6066
  889MOL0     H22627   6.363   2.195   8.737  0.3811 -0.8563 -1.1789
  889MOL0     H22628   6.291   2.354   8.761  3.1824  0.6301  1.6635
  889MOL0     H22629   6.517   2.415   8.762 -0.9189  1.9505 -1.2478
  889MOL0     H22630   6.567   2.269   8.670  0.1029 -0.3808 -0.3198
  889MOL0     H22631   6.418   2.635   8.616 -1.7255  0.7395 -2.6848
  889MOL0     H22632   6.377   2.779   8.389  1.0994 -1.2052 -0.2112
  889MOL0     H22633   6.490   2.743   8.265 -1.4219  0.2845  0.1363
  889MOL0     H22634   6.515   2.852   8.540  0.6709  1.6083  0.6683
  889MOL0     H22635   6.662   2.799   8.461 -1.1842 -3.6848  2.1745
  889MOL0     H22636   6.614   2.961   8.277  1.8361  2.0856  0.1186
  889MOL0     H22637   6.442   2.988   8.338 -0.4680 -0.2464  3.0793
  889MOL0     H22638   6.637   3.176   8.363 -2.4727  0.2914  0.8133
  889MOL0     H22639   6.535   3.148   8.495 -0.6319  2.4306 -2.0043
  889MOL0     H22640   6.656   3.323   8.543  0.6450  1.1728  0.6876
  889MOL0     H22641   6.619   3.496   8.688 -0.5752  2.1149  0.8565
  889MOL0     H22642   6.779   3.583   8.662 -0.0368  0.6204  1.9259
  889MOL0     H22643   6.720   3.528   8.820 -1.3464  0.9425 -0.1094
  889MOL0     H22644   6.999   3.426   9.156 -0.2016  2.2571  1.5727
  889MOL0     H22645   7.144   3.507   9.344 -0.3486  4.5931  0.1975
  889MOL0     H22646   7.573   3.487   9.341 -1.1016 -1.2482 -0.9797
  889MOL0     H22647   7.567   3.623   9.243 -0.5904  0.3338  0.1656
  889MOL0     H22648   7.679   3.660   9.460  0.5685 -2.0905 -1.1098
  889MOL0     H22649   7.542   3.771   9.443  2.0346 -0.5587 -1.2487
  889MOL0     H22650   7.513   3.509   9.604  3.9260 -0.2907  0.0861
  889MOL0     H22651   7.398   3.635   9.593 -0.3455 -1.5794  2.7859
  889MOL0     H22652   7.563   3.794   9.704 -1.0246  0.2631 -1.0726
  889MOL0     H22653   7.681   3.664   9.687 -0.3302  1.8997 -2.3057
  889MOL0     H22654   7.572   3.541   9.873  2.2594  1.2941  1.7892
  889MOL0     H22655   7.556   3.705   9.923 -1.0077  1.0549 -1.4275
  889MOL0     H22656   7.363   3.555   9.950 -1.1853 -1.9990 -1.4967
  889MOL0     H22657   7.340   3.552   9.780  0.0772 -1.5445  1.8060
  889MOL0     H22658   7.283   3.781   9.764  0.6502 -0.6507 -0.2068
  889MOL0     H22659   7.356   3.825   9.924 -1.4685  2.0976 -1.0533
  889MOL0     H22660   7.179   3.671  10.025 -3.4143  0.7997  1.6978
  889MOL0     H22661   7.103   3.669   9.868 -1.4164  1.6535  1.0120
  889MOL0     H22662   7.447   3.595   9.051 -1.2021 -0.9693 -2.5341
  889MOL0     H22663   7.317   3.484   8.883 -2.2027  1.0829 -0.9424
  889MOL0     H22664   7.046   3.171   8.785  0.2234  0.3066  0.6776
  889MOL0     H22665   6.921   3.009   8.632  0.5062  0.5960  2.2319
  889MOL0     H22666   5.455   2.024   8.488  1.6433  0.5370  0.1856
  889MOL0     H22667   5.250   1.938   8.614 -0.7938 -3.6445 -0.4125
  889MOL0     H22668   5.021   1.842   8.810  0.9682 -1.2035 -1.2628
  889MOL0     H22669   4.791   1.815   8.882  2.4180  2.8837 -0.5540
  889MOL0     H22670   4.652   1.420   9.038 -1.7039 -0.8359  1.5228
  889MOL0     H22671   4.502   1.511   9.040  0.9503 -0.0605  0.8638
  889MOL0     H22672   4.632   1.437   8.786  1.3381  1.9964  0.4477
  889MOL0     H22673   4.466   1.506   8.810  0.6874  0.9393 -2.1894
  889MOL0     H22674   4.534   1.230   8.916  0.6485 -0.5563 -2.3500
  889MOL0     H22675   4.398   1.335   8.945  1.2166  1.6515  0.2175
  889MOL0     H22676   4.477   1.184   8.698  0.8576  0.9929  0.0693
  889MOL0     H22677   4.438   1.350   8.659  0.3746 -0.0003  0.3864
  889MOL0     H22678   4.053   1.184   8.747  0.3614  0.7832 -0.8395
  889MOL0     H22679   4.850   1.392   8.935 -0.0008  0.2685  0.3665
  889MOL0     H22680   5.045   1.304   8.882 -0.3299  0.7422 -0.1842
  889MOL0     H22681   5.131   1.362   8.748  0.2357 -1.1681  0.2419
  889MOL0     H22682   5.194   1.401   8.908  1.2806 -1.8238 -0.6860
  890MOL0     O22683   4.446  11.150   0.741  0.3239 -0.4028  0.2573
  890MOL0     C22684   4.396  11.254   0.784 -0.2064  0.5561  0.6134
  890MOL0     O22685   4.458  11.350   0.857  0.6082  0.7094 -0.5416
  890MOL0     C22686   4.591  11.323   0.895 -0.6457  0.4567 -0.3169
  890MOL0     C22687   4.623  11.304   1.025  0.6373  0.7740  0.8929
  890MOL0     C22688   4.752  11.267   1.061 -0.5882 -0.8277  0.8372
  890MOL0     C22689   4.859  11.261   0.968  0.3016  0.7566  0.5453
  890MOL0     O22690   4.982  11.230   1.011  0.4426  1.0363  0.5416
  890MOL0     C22691   5.092  11.239   0.924 -0.3256 -0.3729 -0.3121
  890MOL0     C22692   5.212  11.196   1.012 -0.9547 -0.6633  0.4903
  890MOL0     C22693   5.329  11.170   0.915  0.7073 -0.7629  0.8840
  890MOL0     C22694   5.454  11.130   0.980  0.4947 -0.1970 -0.2010
  890MOL0     C22695   5.566  11.110   0.876 -0.0375  0.5841 -0.6432
  890MOL0     C22696   5.688  11.061   0.956 -0.0790  0.2815 -0.8300
  890MOL0     C22697   5.808  11.048   0.862 -0.3114  1.0090 -0.0493
  890MOL0     C22698   5.914  11.163   0.904  0.5627  0.3090  0.0265
  890MOL0     N22699   6.011  11.115   0.997  0.2814 -0.4312  0.4807
  890MOL0     C22700   6.123  11.034   0.968 -0.3179  0.4108  0.5365
  890MOL0     C22701   6.179  11.019   1.091  0.2355 -0.2252  0.8149
  890MOL0     C22702   6.311  10.946   1.133  0.3005  0.4395  0.9126
  890MOL0     C22703   6.301  10.787   1.134 -0.1629  0.1915 -0.0245
  890MOL0     C22704   6.166  10.736   1.178 -0.6125  0.5376  0.4611
  890MOL0     C22705   6.050  10.716   1.066  0.2841 -0.8795 -0.5084
  890MOL0     O22706   5.932  10.659   1.126 -0.4290 -0.4120  0.4443
  890MOL0     C22707   5.837  10.742   1.177  0.1852 -0.1320 -0.2988
  890MOL0     C22708   5.704  10.703   1.181  0.5835  0.0614  0.6034
  890MOL0     C22709   5.594  10.782   1.223 -0.8921 -0.8609 -0.4642
  890MOL0     C22710   5.465  10.729   1.214  0.5059 -0.1678 -0.2448
  890MOL0     C22711   5.626  10.911   1.280  0.1276  0.1117  0.4141
  890MOL0     C22712   5.534  11.011   1.341  0.3981 -0.0217  0.2562
  890MOL0     O22713   5.398  10.991   1.321 -0.2023  0.2770 -0.0117
  890MOL0     C22714   5.308  11.070   1.390 -0.1379 -0.6789 -0.4105
  890MOL0     C22715   5.285  11.210   1.364 -0.8002 -0.3876  0.0358
  890MOL0     C22716   5.219  11.287   1.458  1.1874 -0.1220 -0.4902
  890MOL0     C22717   5.149  11.222   1.556  0.3264 -0.4087 -0.1722
  890MOL0     O22718   5.052  11.294   1.624 -0.0919  0.1193  1.0221
  890MOL0     C22719   4.932  11.327   1.552  0.1097 -0.4253  0.7397
  890MOL0     C22720   4.816  11.276   1.635  0.7694  0.8701  0.2479
  890MOL0     C22721   4.706  11.229   1.552  0.7468 -0.9453  0.3589
  890MOL0     C22722   4.584  11.212   1.646  0.1059 -0.0967  0.1444
  890MOL0     C22723   4.478  11.143   1.551  0.1071  1.1437 -0.7043
  890MOL0     C22724   4.396  11.235   1.452 -0.2835  0.7821 -0.4952
  890MOL0     C22725   4.286  11.153   1.379 -0.2678 -0.0138  0.4444
  890MOL0     C22726   4.187  11.226   1.283  0.1470 -0.3022  0.7954
  890MOL0    Cl22727   4.266  11.302   1.147  0.4689  0.0983 -0.0388
  890MOL0     C22728   5.159  11.085   1.586  0.0521 -0.5765  1.4701
  890MOL0     C22729   5.241  11.012   1.499 -0.0274 -0.2020 -0.0630
  890MOL0     O22730   5.576  11.101   1.416 -1.0689  0.1932  0.1485
  890MOL0     C22731   5.761  10.949   1.280  0.4741  0.2054  0.2959
  890MOL0     C22732   5.859  10.874   1.223 -0.3535  0.2375  0.1151
  890MOL0     N22733   6.116  11.107   1.180  0.4384  0.5729  1.0690
  890MOL0     N22734   6.007  11.150   1.127  0.0165 -0.2452 -0.1102
  890MOL0     C22735   4.826  11.280   0.835  0.0124 -0.3997 -0.0202
  890MOL0     C22736   4.692  11.307   0.798  0.4114  0.2466  0.8432
  890MOL0     C22737   4.248  11.278   0.735  0.0913 -0.0915 -0.2001
  890MOL0     C22738   4.177  11.169   0.669 -0.7896  0.1271  0.4560
  890MOL0     C22739   4.050  11.171   0.614 -0.4363 -1.3391  0.5518
  890MOL0     C22740   3.981  11.299   0.647  0.5870 -0.2715  0.1538
  890MOL0     O22741   3.856  11.334   0.597 -0.0383  0.1408  0.1450
  890MOL0     C22742   3.762  11.229   0.574  0.0422  0.2077  0.3668
  890MOL0     C22743   3.635  11.306   0.589  0.6439  0.3729  0.2586
  890MOL0     C22744   3.600  11.389   0.459 -0.7520 -0.2844  0.2205
  890MOL0     C22745   3.480  11.478   0.478 -0.0757  0.0068  0.1081
  890MOL0     C22746   3.351  11.395   0.497 -0.6406  0.3307  0.4761
  890MOL0     C22747   3.265  11.316   0.517 -0.3846  0.0540 -0.1689
  890MOL0     C22748   4.041  11.402   0.717 -0.5681  0.7457 -0.1887
  890MOL0     C22749   4.173  11.395   0.754 -0.1804 -0.2133 -0.3762
  890MOL0     C22750   4.222  11.508   0.829 -0.1345 -0.2539  0.3672
  890MOL0     H22751   4.536  11.291   1.088  0.1063 -1.4685 -0.1788
  890MOL0     H22752   4.767  11.245   1.166 -0.0230 -0.7606  0.7763
  890MOL0     H22753   5.117  11.337   0.883  0.7871 -0.2743  0.5592
  890MOL0     H22754   5.075  11.167   0.843 -2.6581  0.3337 -0.5165
  890MOL0     H22755   5.244  11.276   1.080  2.8513 -0.7276 -0.9884
  890MOL0     H22756   5.181  11.111   1.073 -2.0182  0.3310  1.3718
  890MOL0     H22757   5.287  11.091   0.851 -1.9115  0.1791  1.3203
  890MOL0     H22758   5.345  11.258   0.851 -0.0869 -1.5256 -0.4296
  890MOL0     H22759   5.490  11.200   1.056  0.2601  0.2000 -0.4500
  890MOL0     H22760   5.442  11.032   1.026  3.2360 -0.3901  0.2514
  890MOL0     H22761   5.582  11.208   0.829  0.2293  1.6727  1.5928
  890MOL0     H22762   5.546  11.041   0.794  0.6767 -1.8974  1.1510
  890MOL0     H22763   5.720  11.119   1.043  1.1718 -1.5962  0.0241
  890MOL0     H22764   5.669  10.958   0.987 -3.0137  0.1658 -2.6405
  890MOL0     H22765   5.762  11.063   0.764 -1.1970 -1.7736 -0.1297
  890MOL0     H22766   5.853  10.949   0.871  1.7129  1.9247  0.4435
  890MOL0     H22767   5.966  11.190   0.811 -1.6918 -0.1176 -1.4498
  890MOL0     H22768   5.877  11.257   0.944  3.7944  0.8862  1.9827
  890MOL0     H22769   6.163  11.005   0.871  3.4853  1.2589  1.6695
  890MOL0     H22770   6.314  10.970   1.239 -1.6960  0.6445  0.9695
  890MOL0     H22771   6.401  10.987   1.087  0.4296  2.2685  2.6522
  890MOL0     H22772   6.313  10.734   1.039 -0.0961 -0.5860  0.4082
  890MOL0     H22773   6.382  10.761   1.201 -1.1947  2.1391  2.1392
  890MOL0     H22774   6.199  10.638   1.214  3.3502  1.3404 -0.5584
  890MOL0     H22775   6.133  10.789   1.268  1.6767  0.1250  1.6025
  890MOL0     H22776   6.014  10.810   1.022 -0.1222 -0.6689  0.2420
  890MOL0     H22777   6.094  10.654   0.988 -0.6065 -2.1832 -0.0017
  890MOL0     H22778   5.693  10.603   1.141  2.4593 -0.6442  1.7123
  890MOL0     H22779   5.397  10.781   1.147 -1.0738 -1.2533  0.4519
  890MOL0     H22780   5.409  10.737   1.308 -0.9033  0.5653 -1.1125
  890MOL0     H22781   5.473  10.626   1.178 -0.2638  0.0590 -1.0876
  890MOL0     H22782   5.311  11.249   1.266 -1.3035 -3.3032 -1.3787
  890MOL0     H22783   5.197  11.393   1.446  1.4101  0.2237  1.6201
  890MOL0     H22784   4.915  11.435   1.544  1.0232 -0.3755 -0.7975
  890MOL0     H22785   4.930  11.275   1.457 -0.2202 -0.1681  0.6028
  890MOL0     H22786   4.841  11.193   1.701 -1.3214 -3.9180 -4.2723
  890MOL0     H22787   4.783  11.360   1.696 -0.2123  1.5152 -1.1052
  890MOL0     H22788   4.739  11.137   1.502  2.0720  0.1876 -0.9701
  890MOL0     H22789   4.680  11.304   1.477 -0.6697 -0.1855  1.5669
  890MOL0     H22790   4.557  11.312   1.683  1.1251  1.0854 -2.0860
  890MOL0     H22791   4.597  11.150   1.735  1.2671 -0.3479 -0.1841
  890MOL0     H22792   4.522  11.056   1.502  2.6665  3.6078 -3.1077
  890MOL0     H22793   4.402  11.096   1.615 -1.2047 -1.0150 -3.6162
  890MOL0     H22794   4.463  11.280   1.378 -2.0956  1.6494 -1.6817
  890MOL0     H22795   4.358  11.311   1.521  2.9468  0.9987  1.2376
  890MOL0     H22796   4.234  11.096   1.457 -0.1799 -1.4529 -0.5013
  890MOL0     H22797   4.336  11.075   1.320  2.2345  3.1194 -1.9083
  890MOL0     H22798   4.134  11.306   1.335 -1.3524 -2.0818  2.1411
  890MOL0     H22799   4.115  11.155   1.242 -0.1400  0.9723 -1.0399
  890MOL0     H22800   5.106  11.047   1.673 -0.0011 -0.4580  1.4897
  890MOL0     H22801   5.264  10.906   1.502  0.5330 -0.2842 -3.1514
  890MOL0     H22802   5.788  11.051   1.307 -1.8477  1.5327 -1.8855
  890MOL0     H22803   5.960  10.913   1.233 -0.3874  0.5703 -0.7693
  890MOL0     H22804   4.903  11.267   0.760 -1.0737 -4.9640 -0.6737
  890MOL0     H22805   4.681  11.312   0.690 -1.3443 -0.1058  0.9839
  890MOL0     H22806   4.230  11.077   0.646 -1.3130 -0.0261 -0.1769
  890MOL0     H22807   4.015  11.092   0.549 -0.5299 -0.0548 -1.0084
  890MOL0     H22808   3.785  11.195   0.473  1.9192  1.4681  0.3326
  890MOL0     H22809   3.770  11.152   0.652  0.6611 -1.5356 -1.3359
  890MOL0     H22810   3.632  11.371   0.677  0.8924 -1.4596  1.6903
  890MOL0     H22811   3.560  11.227   0.600  0.7389  0.3750  0.9951
  890MOL0     H22812   3.686  11.446   0.421  0.9983 -3.6772 -1.4189
  890MOL0     H22813   3.578  11.319   0.379 -0.0551 -1.5088  1.0584
  890MOL0     H22814   3.482  11.536   0.385  2.0344 -0.0874  0.0236
  890MOL0     H22815   3.490  11.544   0.564 -1.4349  1.8869 -1.1161
  890MOL0     H22816   3.177  11.254   0.514 -0.3947  0.0091  0.9271
  890MOL0     H22817   3.972  11.483   0.738 -0.5422  0.5516  0.6932
  890MOL0     H22818   4.330  11.526   0.818 -0.2660 -0.0619 -0.6552
  890MOL0     H22819   4.176  11.597   0.787  1.3120  0.1095 -0.5359
  890MOL0     H22820   4.198  11.497   0.935 -0.4643  3.4989  0.8128
  891MOL0     O22821   0.402   0.418   4.509  0.6607 -0.3624 -0.3425
  891MOL0     C22822   0.340   0.494   4.436 -0.7802 -0.2929 -0.9692
  891MOL0     O22823   0.377   0.622   4.409 -0.8563 -0.6448 -0.0821
  891MOL0     C22824   0.493   0.669   4.466  0.1711  0.5325 -0.8135
  891MOL0     C22825   0.600   0.698   4.383 -0.4183  0.4786 -0.0584
  891MOL0     C22826   0.715   0.749   4.434 -0.5350  0.3571 -0.0724
  891MOL0     C22827   0.726   0.776   4.570 -0.0346  0.6558  0.0262
  891MOL0     O22828   0.832   0.831   4.638  0.1200  0.3887 -0.0347
  891MOL0     C22829   0.953   0.772   4.605 -0.7185 -0.5697 -0.3072
  891MOL0     C22830   1.075   0.848   4.671  0.3717 -0.0013  1.3166
  891MOL0     C22831   1.073   0.992   4.634 -0.4309 -0.3359  0.4971
  891MOL0     C22832   1.206   1.058   4.673 -0.6674 -0.7546  0.2870
  891MOL0     C22833   1.232   1.196   4.603  0.5822 -0.1753 -0.1388
  891MOL0     C22834   1.359   1.255   4.668 -0.0793 -0.3535  0.6889
  891MOL0     C22835   1.405   1.388   4.600 -0.0452  0.0009 -0.4595
  891MOL0     C22836   1.543   1.420   4.634 -0.9318 -0.2586 -0.4167
  891MOL0     N22837   1.554   1.452   4.772  0.3281 -0.0328 -0.5190
  891MOL0     C22838   1.565   1.364   4.879 -0.0680  0.5973  0.6669
  891MOL0     C22839   1.583   1.439   4.986  0.4440  0.1867  0.7310
  891MOL0     C22840   1.585   1.376   5.121 -0.2953 -0.9952 -0.1054
  891MOL0     C22841   1.718   1.309   5.145 -0.4684 -0.9367  0.1573
  891MOL0     C22842   1.832   1.409   5.143 -0.8291 -0.4610  0.3457
  891MOL0     C22843   1.950   1.352   5.228  1.6171  0.3954 -0.7623
  891MOL0     O22844   2.010   1.244   5.147  0.1842  0.0060 -0.2241
  891MOL0     C22845   2.138   1.218   5.174 -0.3619 -0.5068 -0.0108
  891MOL0     C22846   2.198   1.233   5.295 -0.0806  0.4862 -0.6401
  891MOL0     C22847   2.336   1.205   5.305 -0.5812  0.6780  0.7348
  891MOL0     C22848   2.396   1.206   5.449  0.3221  0.0996  0.5071
  891MOL0     C22849   2.411   1.157   5.195 -0.3417  0.2734 -0.5007
  891MOL0     C22850   2.557   1.125   5.195  0.0335  0.2248 -0.1275
  891MOL0     O22851   2.590   1.054   5.086 -0.0652  0.2379  0.0012
  891MOL0     C22852   2.720   1.008   5.079  0.4464 -1.0639 -0.3648
  891MOL0     C22853   2.828   1.088   5.054 -0.0599  0.8305  0.5564
  891MOL0     C22854   2.960   1.040   5.032 -0.0390 -1.5380  0.7132
  891MOL0     C22855   2.980   0.899   5.049 -0.1674 -0.4998 -0.8267
  891MOL0     O22856   3.101   0.829   5.037  0.3551  0.7446 -0.2577
  891MOL0     C22857   3.217   0.909   5.028  0.2239 -0.4515 -0.8058
  891MOL0     C22858   3.344   0.826   5.029 -0.6604  0.5768 -0.4329
  891MOL0     C22859   3.474   0.907   5.034  0.4258  1.2198 -0.2014
  891MOL0     C22860   3.588   0.801   5.024  1.2747 -0.6395 -0.1016
  891MOL0     C22861   3.726   0.859   5.048 -0.1318  1.0286  0.3065
  891MOL0     C22862   3.825   0.745   5.084 -0.7107  0.2268 -0.3239
  891MOL0     C22863   3.963   0.807   5.117 -0.1703 -0.0602 -1.1277
  891MOL0     C22864   4.058   0.693   5.164 -0.0540  0.6917 -1.0456
  891MOL0    Cl22865   4.218   0.748   5.196 -0.2013 -0.3207  0.1141
  891MOL0     C22866   2.870   0.817   5.098  0.0228 -0.7071  0.3659
  891MOL0     C22867   2.740   0.874   5.112 -0.4504  0.3138 -0.5573
  891MOL0     O22868   2.631   1.133   5.295  0.6869  0.0758  0.2760
  891MOL0     C22869   2.338   1.149   5.073 -0.7493 -0.4625 -0.1949
  891MOL0     C22870   2.216   1.182   5.066  0.4931 -0.0039  0.0227
  891MOL0     N22871   1.583   1.572   4.951  0.0439 -0.6296 -0.0572
  891MOL0     N22872   1.558   1.579   4.822  0.0360  0.4640 -0.1949
  891MOL0     C22873   0.616   0.768   4.650  0.2399 -0.7117 -0.1358
  891MOL0     C22874   0.497   0.708   4.603  0.8362 -0.1705  0.3019
  891MOL0     C22875   0.223   0.444   4.365 -0.3471  0.1926 -0.7761
  891MOL0     C22876   0.185   0.498   4.238  0.8389 -0.0273  0.7653
  891MOL0     C22877   0.059   0.463   4.185 -0.3167 -0.2435  0.3694
  891MOL0     C22878  -0.036   0.382   4.251 -0.9981 -0.1003  0.2140
  891MOL0     O22879  -0.168   0.360   4.205  0.2974 -0.1613 -0.1674
  891MOL0     C22880  -0.268   0.375   4.310  0.2837 -0.8767 -0.1955
  891MOL0     C22881  -0.342   0.248   4.309 -0.4109 -0.3358 -0.6694
  891MOL0     C22882  -0.463   0.249   4.404  0.1575 -0.4472  0.3844
  891MOL0     C22883  -0.530   0.108   4.380 -0.6015  0.4081 -0.3735
  891MOL0     C22884  -0.655   0.089   4.455 -0.8041  0.8493 -0.1469
  891MOL0     C22885  -0.753   0.071   4.524  0.9367  0.3750  0.1641
  891MOL0     C22886   0.010   0.331   4.376 -0.0592 -0.4919  0.1558
  891MOL0     C22887   0.135   0.358   4.432 -0.2111  0.1768 -0.0088
  891MOL0     C22888   0.167   0.292   4.568 -0.4556  0.0140  0.2714
  891MOL0     H22889   0.612   0.682   4.276 -0.3285  1.8098 -0.2708
  891MOL0     H22890   0.790   0.768   4.357 -0.2568 -0.5457 -0.0383
  891MOL0     H22891   0.979   0.787   4.500  0.3449  0.9737  0.1468
  891MOL0     H22892   0.957   0.666   4.634  0.4829 -0.2313  0.8393
  891MOL0     H22893   1.073   0.840   4.780  1.1555  1.4729  1.4586
  891MOL0     H22894   1.171   0.816   4.632  0.3546  0.6130  0.7511
  891MOL0     H22895   1.061   0.991   4.525  1.5094 -0.9270  0.2381
  891MOL0     H22896   0.988   1.046   4.676  0.3299  3.8837 -2.6443
  891MOL0     H22897   1.210   1.078   4.780 -0.9456 -1.0605  0.3524
  891MOL0     H22898   1.288   0.995   4.636  0.9840  1.4082  0.0398
  891MOL0     H22899   1.152   1.268   4.622  1.1519 -0.3089  3.5670
  891MOL0     H22900   1.237   1.186   4.494  0.7991 -3.4413  0.0723
  891MOL0     H22901   1.343   1.264   4.776 -2.0576 -1.8222  0.5737
  891MOL0     H22902   1.439   1.184   4.648 -0.7276 -0.8937 -0.0442
  891MOL0     H22903   1.348   1.473   4.640  1.4738  0.5013  0.7229
  891MOL0     H22904   1.398   1.391   4.491  2.5151 -1.0412 -0.7228
  891MOL0     H22905   1.611   1.337   4.612  0.7216  0.4547  1.6585
  891MOL0     H22906   1.564   1.516   4.586  0.3409 -0.6330 -0.6671
  891MOL0     H22907   1.563   1.256   4.870  1.3564  0.7396 -3.7591
  891MOL0     H22908   1.515   1.293   5.132  0.4723 -1.5379  0.7810
  891MOL0     H22909   1.576   1.450   5.201  3.5767 -0.9106  0.4537
  891MOL0     H22910   1.715   1.256   5.240 -1.4711 -1.7972 -0.3377
  891MOL0     H22911   1.734   1.238   5.063 -0.6025  0.6919 -1.3354
  891MOL0     H22912   1.853   1.428   5.037 -0.3908 -0.3033  0.4611
  891MOL0     H22913   1.802   1.501   5.194 -1.9300  0.6103 -2.0739
  891MOL0     H22914   2.016   1.439   5.241  0.0035  1.8300 -1.7435
  891MOL0     H22915   1.918   1.315   5.326 -0.3375  1.6739 -0.8676
  891MOL0     H22916   2.136   1.270   5.376  0.1778 -1.6220  0.5837
  891MOL0     H22917   2.477   1.280   5.444  0.2428  0.1099 -2.6403
  891MOL0     H22918   2.432   1.103   5.462 -1.1844 -0.7771 -1.5591
  891MOL0     H22919   2.321   1.227   5.524  0.3737  2.1924  0.0190
  891MOL0     H22920   2.810   1.194   5.042  0.6680  1.2072  2.3494
  891MOL0     H22921   3.035   1.111   4.999 -2.6785  1.1127  0.0969
  891MOL0     H22922   3.211   0.973   4.939 -0.4817 -0.7909 -1.0061
  891MOL0     H22923   3.216   0.970   5.119 -2.6074 -2.1245  0.4035
  891MOL0     H22924   3.345   0.759   5.115 -0.3836  3.1581  1.7356
  891MOL0     H22925   3.351   0.759   4.943 -0.0527  1.8510 -1.4236
  891MOL0     H22926   3.481   0.962   5.128  0.2625  2.1830 -0.7423
  891MOL0     H22927   3.474   0.975   4.948 -1.0758  0.5489 -0.7679
  891MOL0     H22928   3.578   0.753   4.927 -4.5783  2.8590 -1.7403
  891MOL0     H22929   3.578   0.724   5.101 -0.2127 -2.1377 -1.7094
  891MOL0     H22930   3.757   0.918   4.961  2.9221 -2.3135 -1.1170
  891MOL0     H22931   3.724   0.924   5.136  0.4038  1.5546 -0.0619
  891MOL0     H22932   3.840   0.678   4.999 -2.0748  1.5194 -1.6461
  891MOL0     H22933   3.791   0.686   5.170  1.0104  0.2847  0.4434
  891MOL0     H22934   3.946   0.891   5.184  0.5053 -0.4418 -0.4610
  891MOL0     H22935   3.999   0.849   5.023  1.4566  2.1992  0.4192
  891MOL0     H22936   4.060   0.612   5.090  0.1425 -0.3990  0.1133
  891MOL0     H22937   4.010   0.648   5.251  2.3113  0.1594  0.0820
  891MOL0     H22938   2.889   0.714   5.128 -1.2520 -1.1356 -0.2135
  891MOL0     H22939   2.666   0.808   5.156 -0.1838  0.8061  0.6909
  891MOL0     H22940   2.390   1.129   4.980  0.9709 -0.3409  0.6931
  891MOL0     H22941   2.161   1.178   4.972 -3.1293  1.9429  1.8336
  891MOL0     H22942   0.620   0.805   4.752 -1.3431 -2.4421  0.6125
  891MOL0     H22943   0.407   0.695   4.663  0.8772  1.4166  0.7622
  891MOL0     H22944   0.255   0.570   4.198 -0.7997  0.9756 -0.3913
  891MOL0     H22945   0.041   0.504   4.087  1.0700  0.0351  0.2093
  891MOL0     H22946  -0.223   0.386   4.409  3.1432  1.7973 -1.6050
  891MOL0     H22947  -0.329   0.463   4.289  1.1059  1.1191  4.5617
  891MOL0     H22948  -0.271   0.166   4.320 -1.7082 -1.2916  1.1048
  891MOL0     H22949  -0.385   0.239   4.209  0.3784  1.0110 -1.1604
  891MOL0     H22950  -0.427   0.266   4.506 -0.4866  0.0432  0.5319
  891MOL0     H22951  -0.524   0.334   4.370  0.2856  0.0811  1.4340
  891MOL0     H22952  -0.462   0.026   4.404 -0.2079  1.2309  1.5365
  891MOL0     H22953  -0.565   0.108   4.276 -0.1077  2.8522 -0.6111
  891MOL0     H22954  -0.842   0.049   4.579 -0.5774 -1.5314 -2.8041
  891MOL0     H22955  -0.056   0.259   4.422  2.0946 -3.2644 -0.8248
  891MOL0     H22956   0.094   0.217   4.600  1.3204 -1.2378  1.5420
  891MOL0     H22957   0.255   0.233   4.545  0.3113  0.8008  1.1071
  891MOL0     H22958   0.173   0.360   4.654  1.9715  0.3532 -0.1208
  892MOL0     O22959   3.129   6.929   8.231  0.5335  0.4742 -0.0691
  892MOL0     C22960   3.120   6.915   8.352  0.6110  0.3881  0.3061
  892MOL0     O22961   3.212   6.855   8.426 -0.1195  0.5767 -0.5141
  892MOL0     C22962   3.332   6.822   8.366 -0.7329 -0.5671  0.2306
  892MOL0     C22963   3.428   6.921   8.347 -0.0446  0.1571  0.2105
  892MOL0     C22964   3.542   6.886   8.279 -0.0512 -0.0687  0.5737
  892MOL0     C22965   3.575   6.752   8.249 -0.5607  0.6778  0.7292
  892MOL0     O22966   3.681   6.720   8.172  0.1765 -0.2962  0.7676
  892MOL0     C22967   3.774   6.816   8.118 -0.0697 -0.7071 -0.5427
  892MOL0     C22968   3.879   6.866   8.226  0.6574  0.2471 -0.1841
  892MOL0     C22969   4.014   6.802   8.197  0.5023  0.0412 -0.7907
  892MOL0     C22970   4.114   6.845   8.304 -0.3574 -0.2264  0.0649
  892MOL0     C22971   4.242   6.755   8.302  0.1925 -0.5984  0.3693
  892MOL0     C22972   4.307   6.740   8.164 -0.0999 -0.5264  0.1510
  892MOL0     C22973   4.424   6.645   8.187  0.0115 -0.0989  0.2797
  892MOL0     C22974   4.540   6.684   8.275 -0.0460 -0.3331 -0.4675
  892MOL0     N22975   4.659   6.599   8.258 -0.1499 -1.2726  0.2074
  892MOL0     C22976   4.678   6.469   8.304 -0.6558  0.3796  0.1043
  892MOL0     C22977   4.792   6.421   8.248 -0.2138 -0.9335  0.0650
  892MOL0     C22978   4.853   6.287   8.268  0.3603  0.3324 -0.2589
  892MOL0     C22979   4.801   6.199   8.150  0.4754 -0.0915 -0.1892
  892MOL0     C22980   4.858   6.059   8.150  0.3515  0.0947  0.1811
  892MOL0     C22981   4.788   5.958   8.048  0.4759  0.9247 -0.3535
  892MOL0     O22982   4.798   6.019   7.914 -0.0977 -0.1569 -0.1238
  892MOL0     C22983   4.913   5.997   7.852  0.1181 -0.0413  0.3096
  892MOL0     C22984   4.980   6.113   7.808 -0.3845 -0.3696 -0.3072
  892MOL0     C22985   5.098   6.101   7.733 -0.1668 -0.6538  0.6453
  892MOL0     C22986   5.158   6.220   7.671  0.6638  0.3231 -0.6194
  892MOL0     C22987   5.153   5.967   7.710 -0.1973 -0.4340  0.6385
  892MOL0     C22988   5.277   5.940   7.638 -0.2819  0.1438  0.6292
  892MOL0     O22989   5.301   5.812   7.612 -0.6044 -0.8609 -0.1841
  892MOL0     C22990   5.404   5.784   7.518 -0.0711 -0.4166 -0.2788
  892MOL0     C22991   5.485   5.673   7.540 -0.1780  0.1413 -0.4120
  892MOL0     C22992   5.560   5.618   7.438 -0.4466 -0.4898 -0.6293
  892MOL0     C22993   5.564   5.680   7.314  1.5146 -0.1671  0.9695
  892MOL0     O22994   5.642   5.624   7.212  0.4041  0.3367 -0.5194
  892MOL0     C22995   5.740   5.705   7.147  0.3405  0.4461 -0.5659
  892MOL0     C22996   5.856   5.614   7.118  0.6760 -0.6982  0.3955
  892MOL0     C22997   5.932   5.584   7.253 -0.3927  0.1701 -0.1253
  892MOL0     C22998   6.050   5.687   7.277  0.7615  0.2315 -0.1325
  892MOL0     C22999   6.124   5.671   7.417  1.5608 -0.2291  1.1814
  892MOL0     C23000   6.267   5.735   7.416  0.7021 -0.4088  0.3092
  892MOL0     C23001   6.323   5.768   7.556 -0.5080 -0.0554 -0.6901
  892MOL0     C23002   6.475   5.773   7.565  0.6868 -0.7366  0.4024
  892MOL0    Cl23003   6.518   5.932   7.481 -0.0555  0.0698 -0.1354
  892MOL0     C23004   5.487   5.800   7.292  0.1231 -0.8980 -0.6506
  892MOL0     C23005   5.411   5.849   7.395  0.3902 -0.8667 -0.0147
  892MOL0     O23006   5.354   6.037   7.616 -0.4186 -0.1664  0.2659
  892MOL0     C23007   5.079   5.855   7.756  1.0773  0.9714  1.3277
  892MOL0     C23008   4.962   5.874   7.825  0.7885  0.3131 -0.6547
  892MOL0     N23009   4.833   6.525   8.162  0.5474 -1.1689 -0.2292
  892MOL0     N23010   4.757   6.628   8.170 -0.4775 -0.6848  0.1854
  892MOL0     C23011   3.491   6.650   8.288 -0.6331  0.1438 -0.2953
  892MOL0     C23012   3.363   6.689   8.340 -0.2396 -0.0036  0.6767
  892MOL0     C23013   2.990   6.956   8.411  0.1461 -0.3573  0.0373
  892MOL0     C23014   2.887   7.012   8.326 -1.2468 -0.6846 -0.5143
  892MOL0     C23015   2.757   7.034   8.373 -0.6385  0.0006  0.6829
  892MOL0     C23016   2.730   7.009   8.503  0.4996 -0.0392  0.8845
  892MOL0     O23017   2.605   7.052   8.545  0.2933 -0.3380  0.0651
  892MOL0     C23018   2.574   7.064   8.682 -0.2063  0.2534  0.4017
  892MOL0     C23019   2.419   7.079   8.695 -0.0766 -0.1908  0.5806
  892MOL0     C23020   2.377   7.228   8.670 -0.1794 -0.0004  0.1568
  892MOL0     C23021   2.407   7.323   8.784  0.6495 -0.1926  0.0708
  892MOL0     C23022   2.327   7.444   8.777 -0.1437  0.1063 -0.8329
  892MOL0     C23023   2.267   7.547   8.759  0.4935  0.5420 -0.2464
  892MOL0     C23024   2.822   6.940   8.587  0.5342 -0.9814 -0.4902
  892MOL0     C23025   2.954   6.924   8.546  0.5399  0.4287 -0.1190
  892MOL0     C23026   3.045   6.857   8.649  0.6653 -0.4579  0.2406
  892MOL0     H23027   3.422   7.028   8.366  0.6885  0.4092 -0.8340
  892MOL0     H23028   3.618   6.960   8.262 -1.8237  2.1398  1.7241
  892MOL0     H23029   3.721   6.899   8.072 -0.4582 -2.2481 -3.0600
  892MOL0     H23030   3.817   6.769   8.029 -0.7328  0.0044 -1.2592
  892MOL0     H23031   3.890   6.974   8.221  1.7512  0.3024  1.8627
  892MOL0     H23032   3.834   6.840   8.322  2.7642  3.0181  1.7210
  892MOL0     H23033   4.001   6.694   8.189 -3.8838  0.1739  1.5909
  892MOL0     H23034   4.048   6.833   8.097 -1.4849  0.9435 -1.2376
  892MOL0     H23035   4.133   6.952   8.289  0.6003 -0.6255 -2.0571
  892MOL0     H23036   4.063   6.834   8.400 -0.3720 -3.2607 -0.1914
  892MOL0     H23037   4.220   6.654   8.337  1.7798 -0.5356  1.6208
  892MOL0     H23038   4.311   6.806   8.370 -1.1662  1.9841 -0.0414
  892MOL0     H23039   4.229   6.706   8.095 -1.0589  0.9044  0.4841
  892MOL0     H23040   4.335   6.839   8.125 -0.6237 -0.5033 -0.1773
  892MOL0     H23041   4.465   6.649   8.086 -1.2562 -1.2457 -0.3015
  892MOL0     H23042   4.379   6.547   8.205  1.4810 -1.1706 -1.6304
  892MOL0     H23043   4.564   6.791   8.269  0.0040 -0.1577  1.9156
  892MOL0     H23044   4.502   6.679   8.378  0.4839  1.0112 -0.1783
  892MOL0     H23045   4.631   6.413   8.384  2.8271 -3.3919 -0.1820
  892MOL0     H23046   4.841   6.249   8.370  4.8963 -1.0917 -0.0574
  892MOL0     H23047   4.961   6.294   8.257  0.5680 -0.3069  1.1409
  892MOL0     H23048   4.692   6.190   8.155  0.2000 -0.5229 -3.9422
  892MOL0     H23049   4.831   6.248   8.057 -0.2349  0.9891  0.1357
  892MOL0     H23050   4.965   6.065   8.126  0.5160  0.6165  1.0008
  892MOL0     H23051   4.853   6.023   8.254 -0.8365 -1.1517 -0.2810
  892MOL0     H23052   4.838   5.861   8.059  0.9764  1.2992  0.8323
  892MOL0     H23053   4.684   5.941   8.078  1.0775 -1.9276  0.5030
  892MOL0     H23054   4.932   6.210   7.807  0.3165  0.0351 -3.6498
  892MOL0     H23055   5.100   6.313   7.670  0.8200  0.4215 -0.5137
  892MOL0     H23056   5.164   6.187   7.567 -0.7698 -3.7161  0.3928
  892MOL0     H23057   5.252   6.244   7.722 -0.0784 -1.1962  1.6142
  892MOL0     H23058   5.482   5.624   7.637  0.6729 -1.3682 -1.1231
  892MOL0     H23059   5.614   5.524   7.444 -0.2882 -0.4190 -0.9517
  892MOL0     H23060   5.703   5.748   7.053 -1.0179 -0.9901 -0.7328
  892MOL0     H23061   5.758   5.798   7.202 -2.3806  0.4761  0.4154
  892MOL0     H23062   5.825   5.516   7.080  1.4193 -0.9943  0.5373
  892MOL0     H23063   5.912   5.670   7.042  0.4567 -0.4909  0.3847
  892MOL0     H23064   5.978   5.485   7.246  0.3074  0.5177 -0.5042
  892MOL0     H23065   5.873   5.585   7.345 -2.0877  0.1286 -1.1655
  892MOL0     H23066   6.012   5.789   7.262 -2.1836 -0.4745  1.7201
  892MOL0     H23067   6.115   5.677   7.190 -2.5818  0.8026 -2.9220
  892MOL0     H23068   6.067   5.715   7.499 -1.1534 -0.6327 -0.3757
  892MOL0     H23069   6.126   5.563   7.435  0.4258  0.1094  3.9317
  892MOL0     H23070   6.266   5.826   7.356  0.0495 -2.0312 -2.3018
  892MOL0     H23071   6.338   5.671   7.362  1.5795  1.2499 -0.6024
  892MOL0     H23072   6.288   5.693   7.626 -1.4533  0.9409 -0.0553
  892MOL0     H23073   6.278   5.861   7.593  1.9814  0.6661  0.7786
  892MOL0     H23074   6.515   5.698   7.497 -2.8572 -0.8987 -1.7296
  892MOL0     H23075   6.511   5.779   7.669 -0.0706 -3.1473  0.8761
  892MOL0     H23076   5.496   5.835   7.190  0.1505 -0.3757 -0.4759
  892MOL0     H23077   5.354   5.940   7.379 -0.5745 -0.6585  3.7121
  892MOL0     H23078   5.118   5.755   7.737  0.1917  0.9379 -0.6270
  892MOL0     H23079   4.903   5.786   7.849 -0.8385  1.3402 -0.7019
  892MOL0     H23080   3.515   6.548   8.263  1.2705  0.5601 -0.3833
  892MOL0     H23081   3.285   6.616   8.359 -2.4121  1.7591 -0.9278
  892MOL0     H23082   2.928   7.041   8.229 -1.0572 -2.1031 -0.8833
  892MOL0     H23083   2.671   7.081   8.325 -1.0205 -0.8816  0.4893
  892MOL0     H23084   2.604   6.975   8.737  1.2406  0.8024  0.5521
  892MOL0     H23085   2.628   7.153   8.716 -1.1055  1.5909 -1.4191
  892MOL0     H23086   2.396   7.047   8.796  1.0796 -0.2821  0.8271
  892MOL0     H23087   2.366   7.006   8.633 -0.2828 -1.3124  2.0367
  892MOL0     H23088   2.410   7.263   8.572  0.1470  0.8675  0.5623
  892MOL0     H23089   2.268   7.233   8.662 -0.0668  2.2295 -0.7448
  892MOL0     H23090   2.512   7.351   8.779  1.0298 -1.6728 -1.0987
  892MOL0     H23091   2.381   7.279   8.880 -1.3513 -0.4669 -0.5466
  892MOL0     H23092   2.205   7.634   8.755  0.7034  0.6952 -4.3390
  892MOL0     H23093   2.802   6.908   8.689 -0.7473  0.3157 -0.2936
  892MOL0     H23094   3.132   6.921   8.667 -0.8104  1.1330  2.0497
  892MOL0     H23095   2.985   6.855   8.741 -2.3113 -2.1392 -1.5801
  892MOL0     H23096   3.078   6.756   8.623  0.6384 -0.2479 -0.6129
  893MOL0     O23097   6.235   7.339   0.886 -0.1070  0.6588  0.0562
  893MOL0     C23098   6.170   7.368   0.788 -0.2869  1.0827  0.5867
  893MOL0     O23099   6.222   7.399   0.666  0.0253 -0.3029 -0.4805
  893MOL0     C23100   6.356   7.414   0.645 -0.8694 -0.5195  0.4318
  893MOL0     C23101   6.402   7.550   0.625 -0.1009 -0.0207 -0.1520
  893MOL0     C23102   6.534   7.562   0.583 -0.3873 -1.0672  0.7449
  893MOL0     C23103   6.621   7.456   0.551  0.4031  0.2334 -0.9110
  893MOL0     O23104   6.751   7.485   0.514 -0.4261  0.1387 -0.2421
  893MOL0     C23105   6.824   7.384   0.440 -0.5234 -0.1392 -0.0168
  893MOL0     C23106   6.978   7.427   0.412  0.7495 -0.1677  0.2232
  893MOL0     C23107   7.065   7.432   0.540  1.1838 -0.9017 -0.0425
  893MOL0     C23108   7.006   7.510   0.662 -0.1135  0.3369 -0.6830
  893MOL0     C23109   7.103   7.513   0.779 -0.2748 -0.4109 -0.2064
  893MOL0     C23110   7.232   7.605   0.766  0.5338 -0.6789  0.0049
  893MOL0     C23111   7.195   7.754   0.744 -0.4231  0.0766  0.0375
  893MOL0     C23112   7.322   7.857   0.751  0.0703  0.5531 -0.2758
  893MOL0     N23113   7.449   7.786   0.722  0.0433 -0.7022  0.2523
  893MOL0     C23114   7.522   7.778   0.609 -0.4512  0.5997  0.1278
  893MOL0     C23115   7.637   7.715   0.648 -0.1847  0.4495  0.4211
  893MOL0     C23116   7.740   7.680   0.544 -0.3041  0.3241 -0.3937
  893MOL0     C23117   7.817   7.812   0.491  0.5817  0.4408  0.5286
  893MOL0     C23118   7.905   7.796   0.363  0.9718 -0.9044 -0.7520
  893MOL0     C23119   8.058   7.778   0.390  0.2974 -0.1101  0.5757
  893MOL0     O23120   8.085   7.661   0.469 -0.5881 -0.5879 -0.5528
  893MOL0     C23121   8.138   7.549   0.407  0.2196  0.5729  0.1318
  893MOL0     C23122   8.212   7.455   0.476  0.1461 -0.3364 -0.3012
  893MOL0     C23123   8.265   7.335   0.421  0.1266 -0.4201  0.3241
  893MOL0     C23124   8.362   7.254   0.505 -0.3125 -0.4529  0.6995
  893MOL0     C23125   8.216   7.314   0.292 -0.5158  0.6037 -0.2847
  893MOL0     C23126   8.266   7.187   0.228 -0.3331 -0.7689  0.4210
  893MOL0     O23127   8.405   7.173   0.227  0.2124  0.0946  0.9577
  893MOL0     C23128   8.463   7.057   0.190  0.3117 -0.3912  0.2395
  893MOL0     C23129   8.573   7.049   0.102  0.7005  0.2407  0.0783
  893MOL0     C23130   8.626   6.930   0.068  0.3257 -0.0388 -0.0414
  893MOL0     C23131   8.579   6.812   0.129  0.0411 -0.0740  0.0381
  893MOL0     O23132   8.640   6.698   0.099 -0.0903  0.6283 -0.0124
  893MOL0     C23133   8.767   6.684   0.164  0.0471  0.5245  0.0408
  893MOL0     C23134   8.848   6.623   0.055 -0.3977  0.2052  0.6462
  893MOL0     C23135   8.980   6.697   0.043 -0.4138 -0.1561  0.0223
  893MOL0     C23136   9.063   6.697   0.180 -0.0969  0.4429 -0.2682
  893MOL0     C23137   9.195   6.754   0.147 -0.1756 -0.1436  0.8268
  893MOL0     C23138   9.297   6.742   0.261 -0.1780  0.4293  0.2228
  893MOL0     C23139   9.442   6.767   0.228  1.2788 -0.5090  0.1925
  893MOL0     C23140   9.520   6.822   0.342 -0.1259  0.3024 -0.0112
  893MOL0    Cl23141   9.692   6.809   0.292  0.2012 -0.2291 -0.2517
  893MOL0     C23142   8.480   6.816   0.221  0.0585  0.5477  0.7319
  893MOL0     C23143   8.421   6.939   0.249  0.3519  0.9231  0.8242
  893MOL0     O23144   8.189   7.118   0.164  0.4440 -0.2877 -0.6374
  893MOL0     C23145   8.124   7.390   0.226 -0.6295 -0.1932 -0.3451
  893MOL0     C23146   8.090   7.511   0.283  0.3499 -0.5554  0.8831
  893MOL0     N23147   7.631   7.679   0.781 -0.3402 -0.7448 -0.6844
  893MOL0     N23148   7.512   7.725   0.821 -0.2641  0.2980  0.1495
  893MOL0     C23149   6.568   7.323   0.566 -0.7145  0.8983 -0.1949
  893MOL0     C23150   6.437   7.306   0.616 -0.0773  0.3414  0.0590
  893MOL0     C23151   6.019   7.350   0.805 -0.7219 -0.8843 -0.5064
  893MOL0     C23152   5.966   7.292   0.927 -0.5097  0.3157 -0.8613
  893MOL0     C23153   5.828   7.266   0.942 -0.3367  0.0583  0.7385
  893MOL0     C23154   5.744   7.306   0.839  0.2114  0.0525 -0.4510
  893MOL0     O23155   5.608   7.274   0.844 -0.0281 -0.1343 -0.7210
  893MOL0     C23156   5.530   7.337   0.947 -0.0856 -0.4078  0.3338
  893MOL0     C23157   5.403   7.379   0.877  0.7945  0.4625  0.0331
  893MOL0     C23158   5.293   7.429   0.976 -0.4589  0.2897 -0.4633
  893MOL0     C23159   5.181   7.504   0.908  1.0141  0.7652  0.6911
  893MOL0     C23160   5.103   7.416   0.810 -0.5571 -0.3214  0.1406
  893MOL0     C23161   5.049   7.345   0.732  0.7465 -0.5338  0.1418
  893MOL0     C23162   5.796   7.357   0.718  0.3421 -0.7952  0.1188
  893MOL0     C23163   5.931   7.382   0.702 -0.1450 -0.7809  0.0426
  893MOL0     C23164   5.963   7.449   0.570 -0.5497  0.9694  0.4265
  893MOL0     H23165   6.340   7.638   0.639 -3.1004 -1.4740 -2.9724
  893MOL0     H23166   6.576   7.662   0.576  0.3876 -1.4546 -0.4901
  893MOL0     H23167   6.782   7.376   0.339 -1.5145 -0.1196  0.3853
  893MOL0     H23168   6.822   7.293   0.499  0.1414  1.1304  2.0862
  893MOL0     H23169   7.025   7.358   0.342  0.7442  0.1811 -0.1301
  893MOL0     H23170   6.980   7.525   0.363  0.4889 -0.2505  0.0436
  893MOL0     H23171   7.086   7.332   0.580 -1.0036 -1.4140 -0.0316
  893MOL0     H23172   7.158   7.479   0.507  0.1449 -0.2183 -2.1973
  893MOL0     H23173   6.974   7.610   0.634 -4.1448 -0.2093  1.2882
  893MOL0     H23174   6.919   7.454   0.697  0.3843  0.0865  0.1754
  893MOL0     H23175   7.131   7.415   0.817 -0.7226 -0.2818  0.4762
  893MOL0     H23176   7.051   7.550   0.868  0.1454 -1.7830  0.6392
  893MOL0     H23177   7.290   7.597   0.859 -0.0952  4.1279  1.0534
  893MOL0     H23178   7.293   7.579   0.679  0.7051  0.1675 -0.1386
  893MOL0     H23179   7.128   7.778   0.828  1.6777 -1.4482  2.3057
  893MOL0     H23180   7.143   7.764   0.648  1.3977 -0.4566 -1.0451
  893MOL0     H23181   7.304   7.947   0.691 -0.4867  0.5062 -0.1840
  893MOL0     H23182   7.342   7.901   0.849 -0.3512  1.1631 -0.4586
  893MOL0     H23183   7.487   7.811   0.511  0.4492  1.3592  0.0468
  893MOL0     H23184   7.681   7.633   0.464 -0.0966 -1.0428  0.2256
  893MOL0     H23185   7.810   7.606   0.583 -0.8024  1.5467  3.1867
  893MOL0     H23186   7.737   7.885   0.478  1.3730  1.1937 -0.2407
  893MOL0     H23187   7.881   7.850   0.572 -1.3104 -0.1297  2.3849
  893MOL0     H23188   7.875   7.709   0.303 -0.0903 -1.2637  0.2630
  893MOL0     H23189   7.899   7.889   0.306 -0.3884  0.3053  1.2528
  893MOL0     H23190   8.104   7.786   0.292 -1.7538  2.0126 -0.2941
  893MOL0     H23191   8.089   7.868   0.444 -1.3860  1.9664 -1.6877
  893MOL0     H23192   8.233   7.484   0.579 -0.8319  0.5326 -0.3274
  893MOL0     H23193   8.462   7.288   0.478 -0.4255 -0.9350 -0.3584
  893MOL0     H23194   8.351   7.148   0.482 -3.2550  0.5782 -4.1468
  893MOL0     H23195   8.348   7.280   0.611 -1.2246 -1.3707  0.8195
  893MOL0     H23196   8.611   7.142   0.062 -0.4019  0.5248 -0.3285
  893MOL0     H23197   8.706   6.928  -0.005  0.2508  1.8014 -0.2280
  893MOL0     H23198   8.803   6.786   0.184 -1.0855  0.8600  0.4259
  893MOL0     H23199   8.761   6.646   0.266 -1.1428  0.4444 -0.0486
  893MOL0     H23200   8.867   6.515   0.064  3.5094  0.8529  1.8337
  893MOL0     H23201   8.806   6.637  -0.045  2.4173  2.3903 -0.3361
  893MOL0     H23202   8.943   6.797   0.017 -2.4462 -0.7278  0.4817
  893MOL0     H23203   9.036   6.647  -0.037 -0.9347  1.0118 -1.1248
  893MOL0     H23204   9.069   6.600   0.230 -1.1401 -0.2379 -1.4038
  893MOL0     H23205   9.033   6.773   0.252  0.3531  0.6273 -0.2746
  893MOL0     H23206   9.237   6.709   0.056  1.9144 -0.4082  1.8581
  893MOL0     H23207   9.189   6.861   0.124  2.5321 -0.0924 -0.1004
  893MOL0     H23208   9.293   6.644   0.308  2.3453  1.1296  2.1321
  893MOL0     H23209   9.261   6.811   0.338 -2.9319 -0.3672 -0.2735
  893MOL0     H23210   9.445   6.832   0.140  0.5294 -2.3501 -1.2599
  893MOL0     H23211   9.483   6.667   0.213  3.0996  0.3404 -0.8786
  893MOL0     H23212   9.508   6.768   0.436  2.4221 -1.0467 -0.3724
  893MOL0     H23213   9.486   6.926   0.352  0.2575  0.5076 -0.7634
  893MOL0     H23214   8.460   6.723   0.271 -1.0111  2.0796  3.3528
  893MOL0     H23215   8.330   6.950   0.307 -0.8296 -1.1830 -0.5295
  893MOL0     H23216   8.095   7.354   0.128  3.0810 -2.3873 -0.8204
  893MOL0     H23217   8.018   7.571   0.229  0.4894  1.7198  3.0656
  893MOL0     H23218   6.626   7.235   0.541  0.4695  0.4855  3.3159
  893MOL0     H23219   6.397   7.206   0.630 -0.8938  0.4814 -1.1503
  893MOL0     H23220   6.028   7.269   1.013 -2.6100 -0.3203  0.5554
  893MOL0     H23221   5.783   7.212   1.025 -1.1620 -0.1529  0.1723
  893MOL0     H23222   5.524   7.262   1.027 -0.3587 -0.7903 -0.0416
  893MOL0     H23223   5.584   7.422   0.990  1.8200 -2.6963  2.8256
  893MOL0     H23224   5.355   7.288   0.840  0.7261  0.1426  0.8975
  893MOL0     H23225   5.419   7.436   0.785  0.5559 -1.4705 -1.2716
  893MOL0     H23226   5.257   7.344   1.034  2.8216  0.7268  2.5517
  893MOL0     H23227   5.347   7.497   1.042 -3.2222  2.1078  0.0784
  893MOL0     H23228   5.236   7.580   0.851  0.1011 -0.3874 -1.9239
  893MOL0     H23229   5.120   7.539   0.991 -1.1662 -0.6941 -0.2208
  893MOL0     H23230   4.993   7.270   0.679 -0.2301 -0.2171  0.7059
  893MOL0     H23231   5.729   7.386   0.638  0.4075 -3.8308 -1.1961
  893MOL0     H23232   6.010   7.385   0.494  1.7469  0.1397  2.4106
  893MOL0     H23233   5.871   7.477   0.517  0.8229  0.0380 -2.7518
  893MOL0     H23234   6.029   7.536   0.578  0.5951  0.2753 -0.8818
  894MOL0     O23235   5.951  10.213   0.191  0.6576  0.1599  0.1448
  894MOL0     C23236   5.882  10.304   0.239  0.2232 -0.0269  0.0337
  894MOL0     O23237   5.924  10.434   0.262 -0.2829  0.0026  0.0508
  894MOL0     C23238   6.062  10.463   0.285  1.1485 -0.2185  0.0192
  894MOL0     C23239   6.104  10.589   0.235  0.6573 -0.3070 -0.7775
  894MOL0     C23240   6.237  10.627   0.224 -0.6914  0.3721  0.4779
  894MOL0     C23241   6.331  10.520   0.266 -0.9236 -0.2949 -0.2520
  894MOL0     O23242   6.470  10.518   0.265 -0.0400 -0.4074 -0.1327
  894MOL0     C23243   6.536  10.644   0.271 -0.0001 -0.4990  0.3866
  894MOL0     C23244   6.680  10.604   0.283  0.3169  0.6109 -0.4048
  894MOL0     C23245   6.725  10.521   0.160 -1.0938 -0.3559 -0.0345
  894MOL0     C23246   6.861  10.449   0.191  0.1245  0.0303  0.4628
  894MOL0     C23247   6.964  10.472   0.089 -0.2357 -0.2297  0.8622
  894MOL0     C23248   7.105  10.410   0.125 -0.0167  0.0142  0.3336
  894MOL0     C23249   7.209  10.400   0.012  0.2941  0.4153 -0.8244
  894MOL0     C23250   7.283  10.533   0.004 -0.3478  0.0980  0.2980
  894MOL0     N23251   7.402  10.518  -0.082 -0.3110  0.5445 -0.6175
  894MOL0     C23252   7.526  10.498  -0.031 -0.5164  0.0721 -0.7633
  894MOL0     C23253   7.612  10.551  -0.124 -0.0792 -0.4807 -0.7606
  894MOL0     C23254   7.756  10.559  -0.100 -0.1512 -0.1666 -0.7053
  894MOL0     C23255   7.806  10.699  -0.044  0.2735  0.2204  0.3382
  894MOL0     C23256   7.959  10.699  -0.051 -0.1498  0.3381  0.0916
  894MOL0     C23257   8.027  10.820   0.015 -1.0765 -0.2310 -0.3203
  894MOL0     O23258   8.167  10.811  -0.000 -0.1977  0.5290 -1.2862
  894MOL0     C23259   8.242  10.888   0.086  0.6892  0.7972 -0.0989
  894MOL0     C23260   8.382  10.870   0.086 -0.2151 -0.7097 -0.2021
  894MOL0     C23261   8.472  10.957   0.158 -0.5261  0.5728  0.4911
  894MOL0     C23262   8.621  10.923   0.144 -0.4078 -0.0279 -0.2009
  894MOL0     C23263   8.425  11.056   0.245  0.2935 -0.2374 -0.0830
  894MOL0     C23264   8.511  11.164   0.318  0.2675 -0.2528  0.7198
  894MOL0     O23265   8.454  11.227   0.426 -0.3013  0.1277 -0.0333
  894MOL0     C23266   8.534  11.303   0.510  0.3437 -0.4367 -0.0402
  894MOL0     C23267   8.477  11.423   0.554 -0.6049 -0.8865  1.1098
  894MOL0     C23268   8.542  11.511   0.634 -0.3052  0.2772 -0.4547
  894MOL0     C23269   8.674  11.481   0.682  0.1929  1.1718  0.0756
  894MOL0     O23270   8.731  11.568   0.780 -0.2085  0.8328 -0.0885
  894MOL0     C23271   8.868  11.551   0.814  0.8106  0.1325  0.7385
  894MOL0     C23272   8.963  11.577   0.692  0.2108 -0.1708 -0.3233
  894MOL0     C23273   9.096  11.518   0.713 -0.3312 -1.1815 -0.3062
  894MOL0     C23274   9.216  11.564   0.625  0.0044 -0.5760  0.4215
  894MOL0     C23275   9.359  11.531   0.684  0.3396  0.0708 -0.0870
  894MOL0     C23276   9.479  11.578   0.598  0.1991  0.0865  0.2140
  894MOL0     C23277   9.508  11.726   0.596  0.3604 -0.1372 -0.0861
  894MOL0     C23278   9.591  11.751   0.732 -0.5793  0.5482  0.2685
  894MOL0    Cl23279   9.647  11.913   0.712  0.1677 -0.1571  0.1572
  894MOL0     C23280   8.728  11.352   0.644  0.1081 -0.7795 -0.0815
  894MOL0     C23281   8.668  11.271   0.547  0.0404  0.2132 -0.8003
  894MOL0     O23282   8.625  11.186   0.272  0.0052  0.5952 -0.1070
  894MOL0     C23283   8.286  11.067   0.255  0.6968  0.3313 -0.9620
  894MOL0     C23284   8.196  10.988   0.179 -0.0632 -0.4437  0.3400
  894MOL0     N23285   7.532  10.586  -0.229  0.3359  0.5455 -0.4293
  894MOL0     N23286   7.409  10.581  -0.194  0.3076  0.5470  0.5542
  894MOL0     C23287   6.285  10.395   0.304 -0.1138  0.0941 -0.3234
  894MOL0     C23288   6.156  10.369   0.322 -0.0458 -0.2900  0.2634
  894MOL0     C23289   5.741  10.270   0.266 -0.5736 -1.0858  0.5676
  894MOL0     C23290   5.650  10.378   0.285 -0.0020  0.2413  0.5200
  894MOL0     C23291   5.513  10.344   0.298 -0.9623 -0.4099  0.4590
  894MOL0     C23292   5.459  10.213   0.286 -0.2043  0.3332 -0.1400
  894MOL0     O23293   5.322  10.207   0.290  0.2062 -0.5099  0.4146
  894MOL0     C23294   5.246  10.081   0.304  0.5293 -0.3941 -0.7397
  894MOL0     C23295   5.106  10.098   0.352 -0.2804 -0.8023  0.8668
  894MOL0     C23296   5.107  10.102   0.503 -0.3052 -0.0655 -0.8081
  894MOL0     C23297   4.968  10.138   0.564 -1.1499  0.8314  0.1416
  894MOL0     C23298   4.986  10.160   0.711 -0.2804 -1.3282  0.6731
  894MOL0     C23299   5.031  10.178   0.825 -0.2227 -0.4144 -0.0456
  894MOL0     C23300   5.546  10.106   0.270 -0.0389 -0.0480  0.4343
  894MOL0     C23301   5.689  10.138   0.267 -0.1239  0.3153  0.0548
  894MOL0     C23302   5.776  10.011   0.276 -0.0116 -0.5462  0.0466
  894MOL0     H23303   6.040  10.664   0.189  3.1221  2.0844 -0.5341
  894MOL0     H23304   6.277  10.717   0.178 -1.3033  0.2420 -0.3327
  894MOL0     H23305   6.503  10.692   0.363  1.0192 -0.8344  0.9461
  894MOL0     H23306   6.526  10.714   0.188  2.9937  1.6482  1.6638
  894MOL0     H23307   6.736  10.698   0.273 -0.1280  0.6224 -5.5069
  894MOL0     H23308   6.698  10.552   0.377  1.5142 -1.5929 -1.7705
  894MOL0     H23309   6.654  10.445   0.126  0.6639 -1.9516 -0.3265
  894MOL0     H23310   6.737  10.601   0.088 -0.2566 -0.9146 -0.5389
  894MOL0     H23311   6.904  10.472   0.289 -1.0465 -0.9170  1.2312
  894MOL0     H23312   6.843  10.342   0.187  0.2648 -0.0883  2.1360
  894MOL0     H23313   6.985  10.576   0.064  1.9215 -0.7907  0.1552
  894MOL0     H23314   6.919  10.424   0.002 -0.5235 -1.4931  1.6824
  894MOL0     H23315   7.148  10.465   0.209 -2.0879  1.4895  0.4890
  894MOL0     H23316   7.090  10.306   0.154 -0.2789  0.2434  1.0305
  894MOL0     H23317   7.174  10.378  -0.089  2.3900  0.7076 -1.6715
  894MOL0     H23318   7.273  10.318   0.046 -2.1589 -1.5826 -0.7154
  894MOL0     H23319   7.218  10.606  -0.045  0.8883 -0.8444 -3.0025
  894MOL0     H23320   7.310  10.558   0.107  2.3509 -0.0944 -0.2943
  894MOL0     H23321   7.562  10.464   0.065 -0.0045 -1.0021 -1.3122
  894MOL0     H23322   7.800  10.546  -0.199 -2.6494 -0.2966 -1.8800
  894MOL0     H23323   7.795  10.485  -0.029 -2.0694  0.5370  1.1737
  894MOL0     H23324   7.758  10.768  -0.114 -0.5522 -0.0216  0.6581
  894MOL0     H23325   7.769  10.705   0.058  1.5967  0.1469  0.8365
  894MOL0     H23326   8.001  10.613   0.002 -0.8139 -1.5702 -2.3113
  894MOL0     H23327   8.000  10.690  -0.152  5.3497  0.2868  1.9597
  894MOL0     H23328   7.990  10.902  -0.047 -0.8459 -0.0082 -0.1605
  894MOL0     H23329   8.002  10.815   0.121 -0.3929 -0.9841 -0.1860
  894MOL0     H23330   8.419  10.790   0.023  0.6524 -1.3897  1.1281
  894MOL0     H23331   8.644  10.822   0.109  2.6436  0.7776 -0.8868
  894MOL0     H23332   8.670  10.930   0.241  0.5799  1.3127 -0.7595
  894MOL0     H23333   8.677  10.991   0.078  0.5164 -0.8363 -0.2760
  894MOL0     H23334   8.385  11.463   0.513  1.2556  3.1679  0.3885
  894MOL0     H23335   8.496  11.601   0.674  1.3725  0.2017  1.8345
  894MOL0     H23336   8.896  11.610   0.902 -2.1224  3.8518 -0.5330
  894MOL0     H23337   8.867  11.443   0.832 -3.8168 -0.7853 -3.0434
  894MOL0     H23338   8.916  11.532   0.603  0.9089  2.8819 -2.3969
  894MOL0     H23339   8.961  11.684   0.670 -0.7488  0.3967  2.1824
  894MOL0     H23340   9.089  11.409   0.702 -2.2285 -1.3087  1.4405
  894MOL0     H23341   9.118  11.534   0.819 -1.5171 -3.2637  0.3146
  894MOL0     H23342   9.211  11.673   0.612 -0.3599 -0.9043 -3.0506
  894MOL0     H23343   9.207  11.505   0.533  0.7442  0.0639 -0.0818
  894MOL0     H23344   9.350  11.575   0.784  0.0416 -1.4372  0.5777
  894MOL0     H23345   9.377  11.424   0.695  0.3166  0.0733 -0.0199
  894MOL0     H23346   9.450  11.546   0.497  0.1062 -0.9937  0.5699
  894MOL0     H23347   9.571  11.529   0.629  0.3813 -0.2612 -0.8484
  894MOL0     H23348   9.412  11.778   0.583  0.0696 -0.7709 -0.4904
  894MOL0     H23349   9.577  11.756   0.517  1.4156 -1.9894  0.0705
  894MOL0     H23350   9.672  11.678   0.749 -0.0677  1.1013  0.2490
  894MOL0     H23351   9.529  11.748   0.822 -1.0848 -2.2141 -0.0792
  894MOL0     H23352   8.826  11.311   0.669  0.0786 -1.4257 -0.9599
  894MOL0     H23353   8.710  11.175   0.519  0.1851  0.1462 -0.3453
  894MOL0     H23354   8.235  11.142   0.315  3.9962  2.6886 -0.8686
  894MOL0     H23355   8.091  11.015   0.176  0.5959  2.4602 -0.7987
  894MOL0     H23356   6.354  10.317   0.332  0.7495  0.7239 -0.6599
  894MOL0     H23357   6.122  10.274   0.361 -0.3632  0.6977  2.5222
  894MOL0     H23358   5.686  10.481   0.287  0.4295  0.0843  2.5175
  894MOL0     H23359   5.446  10.427   0.316 -0.7970  0.5108 -2.6221
  894MOL0     H23360   5.240  10.018   0.215  0.3976  0.8216 -1.6111
  894MOL0     H23361   5.294  10.018   0.379  2.1170  1.1195 -0.3918
  894MOL0     H23362   5.041  10.024   0.305  2.4279 -1.5886 -1.9463
  894MOL0     H23363   5.078  10.199   0.322  0.5211 -0.6468  0.6335
  894MOL0     H23364   5.141  10.012   0.554  4.6176  0.2188 -3.0088
  894MOL0     H23365   5.185  10.173   0.534  1.9429 -2.2215 -1.2621
  894MOL0     H23366   4.899  10.057   0.540  0.1528  0.0370 -1.1484
  894MOL0     H23367   4.930  10.234   0.528  0.7853  1.9572  0.9553
  894MOL0     H23368   5.060  10.199   0.926  3.3281  3.0541 -1.5252
  894MOL0     H23369   5.520  10.001   0.261 -0.1250  0.1453 -2.0173
  894MOL0     H23370   5.718   9.918   0.278 -2.0418  0.5181 -2.5195
  894MOL0     H23371   5.835  10.012   0.184  1.5429  0.6508  1.0065
  894MOL0     H23372   5.847  10.012   0.358 -0.2023 -1.8331  0.2445
  895MOL0     O23373   8.567   7.693   8.900 -0.2016  0.5469  0.3131
  895MOL0     C23374   8.516   7.797   8.949  0.2998  0.6982  0.1879
  895MOL0     O23375   8.590   7.907   8.966  0.2325  0.0402 -0.3658
  895MOL0     C23376   8.726   7.908   8.945  0.2261  0.3768  0.3762
  895MOL0     C23377   8.770   7.957   8.821  0.5157  0.7991 -0.7079
  895MOL0     C23378   8.907   7.976   8.797 -0.6812  0.2803  0.7586
  895MOL0     C23379   9.000   7.946   8.894 -0.0695 -0.7171 -0.5597
  895MOL0     O23380   9.133   7.968   8.862 -0.5284 -0.5183 -0.5772
  895MOL0     C23381   9.192   8.083   8.929  0.4993 -0.0342  0.2337
  895MOL0     C23382   9.307   8.141   8.848 -0.2711 -0.1551  1.1053
  895MOL0     C23383   9.434   8.055   8.858  0.3761 -1.2537 -0.0178
  895MOL0     C23384   9.537   8.098   8.761 -0.1789  0.2359 -0.2066
  895MOL0     C23385   9.651   7.995   8.750 -0.6873  0.1007 -0.2990
  895MOL0     C23386   9.779   8.043   8.678  0.5568 -0.3527 -0.0497
  895MOL0     C23387   9.850   7.920   8.625 -0.5433 -0.1214  0.0856
  895MOL0     C23388  10.003   7.926   8.653 -0.1322 -0.0552  0.1950
  895MOL0     N23389  10.080   7.835   8.565  0.7211 -0.0409 -0.1264
  895MOL0     C23390  10.133   7.718   8.617 -0.1654  0.2446 -0.4671
  895MOL0     C23391  10.222   7.678   8.522 -0.4986  0.5660 -0.5018
  895MOL0     C23392  10.320   7.569   8.524 -0.1840  0.5555  0.6920
  895MOL0     C23393  10.470   7.596   8.499  1.0747  0.2059  0.1396
  895MOL0     C23394  10.541   7.462   8.475  0.5023 -0.8647 -0.0901
  895MOL0     C23395  10.693   7.479   8.450 -0.7810 -0.0041 -0.3201
  895MOL0     O23396  10.772   7.503   8.568  0.2569 -0.5403 -0.0192
  895MOL0     C23397  10.909   7.490   8.552  0.3877  0.0489  0.8185
  895MOL0     C23398  10.994   7.524   8.660 -0.6393 -0.1747  0.2998
  895MOL0     C23399  11.135   7.518   8.648 -0.4912  0.0023  0.0963
  895MOL0     C23400  11.217   7.545   8.767 -0.0721  0.0801  0.2791
  895MOL0     C23401  11.190   7.487   8.525  0.3485 -0.1319  1.0764
  895MOL0     C23402  11.334   7.497   8.494 -0.7219  0.1252 -0.0091
  895MOL0     O23403  11.426   7.450   8.585  0.8030 -0.7022 -0.7847
  895MOL0     C23404  11.557   7.503   8.593  0.3587 -0.2685  0.1398
  895MOL0     C23405  11.604   7.567   8.707  0.2650  0.6786  0.4811
  895MOL0     C23406  11.721   7.634   8.705 -0.1220  0.1953 -0.1283
  895MOL0     C23407  11.790   7.654   8.585 -0.1149  0.2242 -0.7670
  895MOL0     O23408  11.908   7.731   8.572 -0.1603 -0.4198  0.7113
  895MOL0     C23409  11.938   7.824   8.683 -0.1581  0.0096  0.0598
  895MOL0     C23410  12.057   7.916   8.658  1.0882  0.0728 -0.1540
  895MOL0     C23411  12.191   7.855   8.669 -0.0817  0.5328 -0.8742
  895MOL0     C23412  12.285   7.963   8.625 -0.0127  0.8166  0.1151
  895MOL0     C23413  12.431   7.909   8.604  0.0890  0.0178  0.6734
  895MOL0     C23414  12.508   7.891   8.731 -0.9379 -0.0885 -0.5177
  895MOL0     C23415  12.566   8.015   8.800  0.7224  0.1086  0.3674
  895MOL0     C23416  12.664   7.969   8.914 -0.3405 -0.3444 -0.3986
  895MOL0    Cl23417  12.825   7.901   8.868  0.4551  0.0484 -0.3763
  895MOL0     C23418  11.741   7.593   8.468  0.0659 -0.2810  0.1600
  895MOL0     C23419  11.625   7.516   8.471 -0.3260  1.3145  0.2311
  895MOL0     O23420  11.360   7.576   8.404 -0.0437 -0.0769  0.3773
  895MOL0     C23421  11.108   7.449   8.412 -0.3958 -0.5230  0.3652
  895MOL0     C23422  10.969   7.455   8.425 -0.5976 -0.1697  0.1059
  895MOL0     N23423  10.228   7.772   8.419 -0.1509  0.5060  0.3122
  895MOL0     N23424  10.139   7.859   8.446 -0.7558 -0.7090  1.2156
  895MOL0     C23425   8.959   7.900   9.020 -0.5790 -0.3289  0.4139
  895MOL0     C23426   8.824   7.879   9.048 -0.5908 -0.0039  0.1428
  895MOL0     C23427   8.373   7.786   9.011 -0.5350 -1.1746  0.1422
  895MOL0     C23428   8.339   7.880   9.115 -0.5033  0.6729 -0.3452
  895MOL0     C23429   8.214   7.872   9.179  0.3980  0.0797  0.4054
  895MOL0     C23430   8.115   7.788   9.129  0.5868  0.2872 -0.1746
  895MOL0     O23431   7.996   7.778   9.195  0.4067 -0.3084  0.5980
  895MOL0     C23432   7.985   7.822   9.329 -0.3390 -0.4725  0.0036
  895MOL0     C23433   7.831   7.792   9.379  0.3102 -1.1285  1.0475
  895MOL0     C23434   7.804   7.892   9.491 -0.2780  0.2538 -0.4247
  895MOL0     C23435   7.751   8.025   9.447  0.6126 -1.1801  0.5034
  895MOL0     C23436   7.790   8.131   9.543 -0.9689 -0.3242  0.3493
  895MOL0     C23437   7.818   8.222   9.624  0.3250  0.2340 -0.2201
  895MOL0     C23438   8.143   7.702   9.016 -1.0732 -0.2484  0.2946
  895MOL0     C23439   8.278   7.692   8.959  0.5483  0.1605  0.0339
  895MOL0     C23440   8.300   7.599   8.844  0.5461  0.5195 -0.3607
  895MOL0     H23441   8.692   7.984   8.750 -0.3650 -2.2656 -1.0767
  895MOL0     H23442   8.950   8.017   8.706 -2.4327 -2.8364 -1.6524
  895MOL0     H23443   9.235   8.054   9.026  1.2205  2.9472  0.9285
  895MOL0     H23444   9.121   8.165   8.948 -0.7053 -0.9825 -0.0698
  895MOL0     H23445   9.279   8.147   8.742 -0.8765  0.1642  1.2777
  895MOL0     H23446   9.326   8.241   8.888  0.7578  1.4879 -2.9492
  895MOL0     H23447   9.471   8.058   8.961  5.6378  2.6292 -1.5696
  895MOL0     H23448   9.403   7.953   8.838  0.8748 -1.4921  0.4022
  895MOL0     H23449   9.494   8.109   8.661 -2.3732 -1.9339  0.4206
  895MOL0     H23450   9.583   8.193   8.792  3.0824 -0.6243 -1.8840
  895MOL0     H23451   9.601   7.910   8.702 -2.9928  1.2349 -0.0167
  895MOL0     H23452   9.684   7.967   8.851  0.5593  0.6121 -0.5425
  895MOL0     H23453   9.752   8.097   8.586  1.0272  0.3073  0.1904
  895MOL0     H23454   9.855   8.102   8.730  1.1081 -1.7259  0.7328
  895MOL0     H23455   9.831   7.906   8.518 -1.1337 -3.2476  0.5056
  895MOL0     H23456   9.823   7.828   8.678  2.7938 -1.5208 -0.3570
  895MOL0     H23457  10.029   8.030   8.631  0.7107  0.4253  3.0323
  895MOL0     H23458  10.020   7.907   8.760  0.4782 -0.0698  0.1034
  895MOL0     H23459  10.122   7.678   8.718  0.1373  0.6711 -0.2620
  895MOL0     H23460  10.288   7.507   8.440  0.9701 -0.3208  0.8882
  895MOL0     H23461  10.315   7.509   8.615  0.0973 -2.0525 -0.9159
  895MOL0     H23462  10.480   7.673   8.422 -1.3504 -0.6910 -1.1903
  895MOL0     H23463  10.510   7.639   8.591  2.0663 -0.6945  0.1521
  895MOL0     H23464  10.524   7.396   8.561 -0.8738  0.9095  1.0513
  895MOL0     H23465  10.498   7.411   8.389  0.2580  0.9072 -1.0473
  895MOL0     H23466  10.725   7.384   8.407 -0.8893  0.0926 -0.6113
  895MOL0     H23467  10.719   7.554   8.376  0.3651 -2.1634 -2.2185
  895MOL0     H23468  10.938   7.551   8.749 -0.3839  0.1195  0.3723
  895MOL0     H23469  11.278   7.455   8.775  1.7829  1.1640 -0.6894
  895MOL0     H23470  11.158   7.549   8.859 -3.3973 -0.2644 -1.6831
  895MOL0     H23471  11.276   7.635   8.744  0.3699  0.3939  2.4769
  895MOL0     H23472  11.546   7.582   8.797  0.5182  3.6731  0.2607
  895MOL0     H23473  11.747   7.696   8.789 -1.0601 -1.4961  1.4863
  895MOL0     H23474  11.851   7.885   8.707 -0.1503  0.8211 -1.7595
  895MOL0     H23475  11.967   7.761   8.767  0.0676 -0.4098 -0.3258
  895MOL0     H23476  12.052   7.957   8.557  0.2471  0.1668 -0.0850
  895MOL0     H23477  12.055   7.995   8.734 -1.4683 -1.4781  1.5271
  895MOL0     H23478  12.199   7.776   8.594 -0.4484  0.9565 -1.3595
  895MOL0     H23479  12.224   7.833   8.771  0.3427  0.1277 -1.0945
  895MOL0     H23480  12.293   8.025   8.715  2.1188 -3.5758  3.3149
  895MOL0     H23481  12.247   8.018   8.539 -0.9102  1.1068  0.6756
  895MOL0     H23482  12.416   7.813   8.554 -0.2675  0.5829 -0.3358
  895MOL0     H23483  12.494   7.971   8.540 -0.5801  0.1545  0.1257
  895MOL0     H23484  12.584   7.821   8.695  1.1992  1.4899  0.7220
  895MOL0     H23485  12.444   7.843   8.806  2.1806  1.1509  3.2605
  895MOL0     H23486  12.481   8.074   8.836  1.1350  1.4055 -0.7219
  895MOL0     H23487  12.624   8.073   8.727  0.9317  0.0402  0.4785
  895MOL0     H23488  12.614   7.901   8.983 -0.3220 -0.3698 -0.4103
  895MOL0     H23489  12.686   8.055   8.978 -1.6354 -0.6685  0.5223
  895MOL0     H23490  11.790   7.596   8.371 -1.2540  0.7354 -0.5015
  895MOL0     H23491  11.586   7.456   8.389  0.1238  0.0016  0.9489
  895MOL0     H23492  11.149   7.431   8.313  1.4137 -1.2615  1.1975
  895MOL0     H23493  10.917   7.436   8.331  2.3832  1.8268 -2.1187
  895MOL0     H23494   9.037   7.882   9.093 -0.4294 -1.3708  0.0153
  895MOL0     H23495   8.796   7.845   9.147  0.1891  1.1781  0.8056
  895MOL0     H23496   8.408   7.955   9.151 -0.4803  0.5263 -0.0852
  895MOL0     H23497   8.196   7.938   9.263  0.2898  0.9166 -0.2549
  895MOL0     H23498   8.041   7.757   9.396 -0.2838 -0.4305 -0.0016
  895MOL0     H23499   8.016   7.927   9.339 -0.6237 -0.3893  0.0395
  895MOL0     H23500   7.833   7.687   9.413  0.7880 -1.0386  1.3103
  895MOL0     H23501   7.762   7.811   9.297 -0.5292 -0.3598  1.9077
  895MOL0     H23502   7.725   7.850   9.553 -1.7209  3.6138  0.2456
  895MOL0     H23503   7.897   7.905   9.546  1.5212  3.0769 -3.6835
  895MOL0     H23504   7.642   8.018   9.440  0.7096 -1.4131 -1.1417
  895MOL0     H23505   7.795   8.050   9.350 -1.2304  0.6962  0.0822
  895MOL0     H23506   7.825   8.287   9.709 -0.0210 -0.3450  0.2612
  895MOL0     H23507   8.060   7.638   8.988  0.1630 -2.4301  1.3232
  895MOL0     H23508   8.345   7.646   8.756 -1.4494  1.2222 -1.0633
  895MOL0     H23509   8.358   7.513   8.878  0.4167  2.1046  4.7361
  895MOL0     H23510   8.205   7.564   8.803  0.2345  2.0205 -0.9827
  896MOL0     O23511   5.280   2.042   8.262  0.0415  0.1139 -0.4616
  896MOL0     C23512   5.256   1.921   8.261 -0.4210 -0.2322 -0.2538
  896MOL0     O23513   5.347   1.822   8.240 -0.3001 -0.2624  0.1230
  896MOL0     C23514   5.473   1.839   8.191 -0.0371 -0.0748  0.4677
  896MOL0     C23515   5.567   1.793   8.282  0.2561 -0.6180  1.2710
  896MOL0     C23516   5.702   1.784   8.239  0.0489  0.1378 -0.5702
  896MOL0     C23517   5.742   1.826   8.110 -0.5062 -0.3933  0.0094
  896MOL0     O23518   5.861   1.818   8.044 -0.6108  0.4670 -0.3806
  896MOL0     C23519   5.980   1.771   8.114 -0.9170 -0.0212 -0.2217
  896MOL0     C23520   6.097   1.758   8.016  0.5206 -0.1559 -0.4787
  896MOL0     C23521   6.121   1.896   7.970 -0.8636  0.4049 -0.6804
  896MOL0     C23522   6.240   1.903   7.879 -0.2257  0.2474  0.3206
  896MOL0     C23523   6.379   1.895   7.946  0.6529  0.8175 -0.0313
  896MOL0     C23524   6.497   1.950   7.866  0.2122 -0.4022  0.6070
  896MOL0     C23525   6.627   1.947   7.948 -0.6024 -0.4182  0.1265
  896MOL0     C23526   6.749   1.959   7.849  0.1708  0.0885  0.2540
  896MOL0     N23527   6.869   1.921   7.912  0.6293 -0.6894 -0.5090
  896MOL0     C23528   6.990   1.961   7.864  0.8078 -0.4432 -0.3879
  896MOL0     C23529   7.079   1.889   7.929  0.5926 -0.4088 -0.0663
  896MOL0     C23530   7.227   1.887   7.891  0.2315 -0.2948 -0.4564
  896MOL0     C23531   7.312   1.777   7.952 -0.4208 -0.1242 -0.6899
  896MOL0     C23532   7.460   1.818   7.939  0.4618 -0.6096 -0.1105
  896MOL0     C23533   7.553   1.709   7.995 -0.1067 -0.2661  0.0813
  896MOL0     O23534   7.690   1.755   7.963 -0.0437  0.2339  0.1551
  896MOL0     C23535   7.798   1.697   8.032 -0.0838  0.0332  0.1658
  896MOL0     C23536   7.784   1.604   8.147 -0.2820 -0.9055  0.3270
  896MOL0     C23537   7.895   1.530   8.189  0.1337  0.2385 -0.3047
  896MOL0     C23538   7.876   1.430   8.301  0.2720  1.2002 -0.4710
  896MOL0     C23539   8.025   1.561   8.133  0.2974  0.5911 -1.2310
  896MOL0     C23540   8.153   1.492   8.176  0.4635 -0.5359 -0.0507
  896MOL0     O23541   8.269   1.561   8.179  0.7926 -0.3085  0.3801
  896MOL0     C23542   8.384   1.526   8.245  0.5012  0.0990  0.1089
  896MOL0     C23543   8.407   1.440   8.352  0.8728 -0.1718 -0.3805
  896MOL0     C23544   8.530   1.426   8.417 -0.0904 -0.5297  0.1029
  896MOL0     C23545   8.639   1.490   8.358  0.0230 -1.2101 -0.1896
  896MOL0     O23546   8.766   1.477   8.392 -0.9615 -0.7195 -0.3997
  896MOL0     C23547   8.795   1.425   8.519 -0.1387 -0.6091  0.0255
  896MOL0     C23548   8.943   1.431   8.560 -0.5189  0.2466 -0.3330
  896MOL0     C23549   9.023   1.336   8.468 -0.5736  0.3143 -0.5497
  896MOL0     C23550   9.168   1.376   8.490  0.7248  0.6896  0.1309
  896MOL0     C23551   9.267   1.313   8.386 -0.4622 -0.7145  1.5231
  896MOL0     C23552   9.292   1.164   8.404  0.3423 -0.5104  0.3870
  896MOL0     C23553   9.363   1.092   8.284 -0.7482 -0.5367  0.4919
  896MOL0     C23554   9.374   0.944   8.297 -0.0393 -0.1382  0.0742
  896MOL0    Cl23555   9.410   0.871   8.146 -0.0127 -0.3011  0.6158
  896MOL0     C23556   8.622   1.558   8.239  0.4809  0.8713 -0.0476
  896MOL0     C23557   8.491   1.573   8.182 -0.2880 -0.8046 -0.0005
  896MOL0     O23558   8.155   1.370   8.204  0.2911  0.1054  0.4908
  896MOL0     C23559   8.034   1.670   8.043 -0.2001  0.5143  0.1874
  896MOL0     C23560   7.925   1.740   7.996  0.1944 -0.2402  0.0773
  896MOL0     N23561   7.019   1.818   8.034 -0.1298 -0.3280  1.4873
  896MOL0     N23562   6.887   1.837   8.019 -1.0890  0.1792  0.4606
  896MOL0     C23563   5.641   1.883   8.027  0.0332 -0.2736  0.0325
  896MOL0     C23564   5.510   1.876   8.061  0.0389 -0.2519  0.0412
  896MOL0     C23565   5.121   1.884   8.294  0.0147 -0.2107 -1.5034
  896MOL0     C23566   5.106   1.787   8.395  1.7462  0.9465 -0.1345
  896MOL0     C23567   4.983   1.759   8.450 -0.5127  0.2762 -0.6253
  896MOL0     C23568   4.873   1.840   8.401 -0.0073  0.6645 -0.1461
  896MOL0     O23569   4.742   1.834   8.461  0.2264 -0.0142  0.7776
  896MOL0     C23570   4.717   1.744   8.563 -0.2834 -0.1288  0.0273
  896MOL0     C23571   4.563   1.742   8.593  0.0834  0.0940  0.2247
  896MOL0     C23572   4.472   1.703   8.465  0.1248 -1.0952  0.0950
  896MOL0     C23573   4.323   1.713   8.474  0.4184 -0.5136 -0.7848
  896MOL0     C23574   4.261   1.670   8.349 -0.3723  0.7310  0.2604
  896MOL0     C23575   4.191   1.622   8.256  0.0627 -0.3378 -0.2887
  896MOL0     C23576   4.882   1.924   8.289  0.6953  0.6604 -0.1778
  896MOL0     C23577   5.010   1.955   8.235 -0.8636  0.6171 -0.8478
  896MOL0     C23578   5.014   2.031   8.108 -0.8068  0.8135 -0.3319
  896MOL0     H23579   5.529   1.752   8.375 -1.0287  0.1172  1.0934
  896MOL0     H23580   5.779   1.746   8.305  0.4737  1.5279 -0.2216
  896MOL0     H23581   5.965   1.679   8.172 -1.1510  0.6997  0.8960
  896MOL0     H23582   6.016   1.843   8.188  0.6097 -1.2295  0.2465
  896MOL0     H23583   6.182   1.709   8.065 -0.6670 -0.2254  1.6223
  896MOL0     H23584   6.070   1.696   7.930 -0.0969 -1.2810  0.5057
  896MOL0     H23585   6.038   1.939   7.913  1.6175  1.6233 -3.6574
  896MOL0     H23586   6.147   1.969   8.047  0.6480  0.4329 -1.1936
  896MOL0     H23587   6.233   1.827   7.800 -1.1345  1.2109 -0.5495
  896MOL0     H23588   6.225   1.994   7.821  1.8352  0.1956 -0.3911
  896MOL0     H23589   6.403   1.790   7.965 -1.5618 -0.6439 -4.1300
  896MOL0     H23590   6.382   1.948   8.042  0.8551 -2.3669  1.8711
  896MOL0     H23591   6.521   1.901   7.770 -2.6656  0.9184 -0.9117
  896MOL0     H23592   6.483   2.058   7.859  2.5509  0.0861  2.2185
  896MOL0     H23593   6.624   1.861   8.015 -1.9074  0.3070  1.0388
  896MOL0     H23594   6.629   2.039   8.008 -0.2724  0.3038 -0.9511
  896MOL0     H23595   6.732   1.888   7.767  0.2472 -0.4264  0.6795
  896MOL0     H23596   6.763   2.058   7.805 -1.3494 -0.0577 -0.6422
  896MOL0     H23597   7.010   2.028   7.781  1.1612  2.3942  1.8703
  896MOL0     H23598   7.274   1.984   7.907 -0.5797 -0.2649  2.0930
  896MOL0     H23599   7.222   1.876   7.782 -2.1895  1.0769 -0.5652
  896MOL0     H23600   7.286   1.772   8.058  1.1197 -2.7142 -0.3508
  896MOL0     H23601   7.286   1.687   7.895  0.0364 -1.4520  1.1073
  896MOL0     H23602   7.480   1.816   7.832  0.6362 -1.0497 -0.0720
  896MOL0     H23603   7.488   1.911   7.989  1.9646 -0.9323 -0.2979
  896MOL0     H23604   7.538   1.707   8.104 -1.1235 -2.2113 -0.0437
  896MOL0     H23605   7.532   1.612   7.949 -1.2886  0.1343 -0.2452
  896MOL0     H23606   7.687   1.578   8.188 -0.7153  1.4405  0.9272
  896MOL0     H23607   7.870   1.331   8.254 -1.4219  1.3718 -0.6661
  896MOL0     H23608   7.780   1.450   8.349 -1.6117 -2.6752 -2.1424
  896MOL0     H23609   7.953   1.433   8.378 -0.0788 -1.1287  0.0408
  896MOL0     H23610   8.325   1.400   8.410 -0.7865  2.0760 -1.0128
  896MOL0     H23611   8.533   1.377   8.514 -0.6599  0.0786  0.4370
  896MOL0     H23612   8.742   1.472   8.602 -1.2447 -2.2222  0.2620
  896MOL0     H23613   8.777   1.317   8.519  1.3481 -0.9300  2.2025
  896MOL0     H23614   8.987   1.531   8.558 -1.6999  0.8126  0.6307
  896MOL0     H23615   8.953   1.383   8.658 -0.1788  1.0992  0.0530
  896MOL0     H23616   9.000   1.352   8.362 -0.1726  0.6825 -0.5811
  896MOL0     H23617   9.008   1.230   8.492 -0.5065  0.4154 -0.0584
  896MOL0     H23618   9.204   1.340   8.588  1.9261 -2.4220 -1.3142
  896MOL0     H23619   9.186   1.484   8.489  0.5754  0.7257 -1.9799
  896MOL0     H23620   9.222   1.316   8.286 -1.0046  1.6749  1.7812
  896MOL0     H23621   9.362   1.367   8.372 -0.4662 -0.6456  1.7597
  896MOL0     H23622   9.191   1.122   8.404  0.2278 -0.3951 -2.2930
  896MOL0     H23623   9.347   1.141   8.496  2.8831 -1.8476 -1.3501
  896MOL0     H23624   9.466   1.129   8.274 -1.3771  1.2403  0.2654
  896MOL0     H23625   9.316   1.122   8.190  3.3433  1.0057 -1.3013
  896MOL0     H23626   9.275   0.904   8.320 -0.4167  0.7879  0.1131
  896MOL0     H23627   9.451   0.925   8.372  1.2722  2.6933 -0.4167
  896MOL0     H23628   8.704   1.594   8.178  0.9242 -0.4315 -0.2398
  896MOL0     H23629   8.486   1.629   8.090  1.3548  0.5362  0.6910
  896MOL0     H23630   8.136   1.696   8.019 -0.1657 -1.6810 -2.4931
  896MOL0     H23631   7.937   1.829   7.935 -0.2171  0.3931  0.8939
  896MOL0     H23632   5.668   1.934   7.935 -2.1438 -1.1371 -1.1707
  896MOL0     H23633   5.438   1.922   7.994 -1.1955 -0.7651  0.9676
  896MOL0     H23634   5.189   1.721   8.417 -0.7607 -2.3192  0.2151
  896MOL0     H23635   4.979   1.691   8.534 -1.4859  1.2322  0.1257
  896MOL0     H23636   4.742   1.644   8.528 -2.0657  0.0035 -1.8559
  896MOL0     H23637   4.781   1.782   8.643  0.4062  0.5752 -0.8367
  896MOL0     H23638   4.535   1.847   8.610  2.8107  1.2853 -1.9741
  896MOL0     H23639   4.542   1.677   8.678  0.0377  1.5679  1.3884
  896MOL0     H23640   4.517   1.758   8.382  2.1630  0.0614  1.8595
  896MOL0     H23641   4.481   1.597   8.439 -3.1994 -1.4512 -0.0879
  896MOL0     H23642   4.289   1.816   8.490 -1.1815 -1.2848  1.2154
  896MOL0     H23643   4.301   1.642   8.554  1.3665  1.9881  1.8801
  896MOL0     H23644   4.140   1.596   8.166 -1.8008 -1.9245  1.1468
  896MOL0     H23645   4.797   1.979   8.250 -0.5423 -0.4493  0.8509
  896MOL0     H23646   4.922   2.017   8.051  0.3532  0.0619 -2.0747
  896MOL0     H23647   5.030   2.137   8.132  0.8161  0.3083  1.0917
  896MOL0     H23648   5.103   1.996   8.055 -0.4262  2.1310 -0.6058
  897MOL0     O23649  10.035   1.535   2.238 -0.2202  0.0053 -0.1668
  897MOL0     C23650   9.930   1.505   2.183 -0.4662 -0.8263  0.0463
  897MOL0     O23651   9.916   1.406   2.087 -0.0123  1.0987 -0.0410
  897MOL0     C23652  10.025   1.372   2.008  0.1046 -0.2635  1.5788
  897MOL0     C23653  10.053   1.233   1.989 -0.1043  0.1220  0.0173
  897MOL0     C23654  10.155   1.187   1.902  0.9154  0.3391 -0.5128
  897MOL0     C23655  10.232   1.281   1.829 -0.2710  0.4877 -0.4180
  897MOL0     O23656  10.330   1.244   1.738 -0.5888  0.3267  0.1231
  897MOL0     C23657  10.423   1.153   1.794  0.5218  0.9502 -0.1939
  897MOL0     C23658  10.533   1.106   1.704  0.2735 -0.7533 -0.1519
  897MOL0     C23659  10.479   1.048   1.571 -0.5821  0.3622  0.3058
  897MOL0     C23660  10.593   0.979   1.499 -0.1041  0.3184 -0.2254
  897MOL0     C23661  10.550   0.942   1.354  0.4208  0.5941  0.1458
  897MOL0     C23662  10.565   1.067   1.269 -0.5036 -0.2416  0.3903
  897MOL0     C23663  10.553   1.032   1.118 -0.5354  0.2720 -0.1088
  897MOL0     C23664  10.574   1.153   1.024  0.3573  0.2015 -0.1685
  897MOL0     N23665  10.718   1.189   1.009 -0.1243 -0.2075  0.8827
  897MOL0     C23666  10.788   1.143   0.904 -0.9717  0.0237  0.4658
  897MOL0     C23667  10.913   1.192   0.929  0.8618  0.6844  0.4373
  897MOL0     C23668  11.034   1.179   0.846 -0.2530 -0.4673 -0.4593
  897MOL0     C23669  11.124   1.060   0.877 -0.2081 -0.1001 -0.6597
  897MOL0     C23670  11.193   1.075   1.015 -0.2093 -0.2706 -0.1799
  897MOL0     C23671  11.319   0.995   1.039  0.0202  0.1070  0.0017
  897MOL0     O23672  11.421   1.021   0.945  0.6828  0.1953 -0.3439
  897MOL0     C23673  11.548   1.026   0.993  0.3792  0.3443  0.0543
  897MOL0     C23674  11.594   0.920   1.075  0.5569  0.4130  0.9548
  897MOL0     C23675  11.722   0.920   1.118  0.4981 -0.2250 -0.9836
  897MOL0     C23676  11.769   0.808   1.206  0.1219  0.7500  0.2498
  897MOL0     C23677  11.814   1.021   1.082 -0.3072 -0.0376  0.2942
  897MOL0     C23678  11.950   1.025   1.140  0.8216 -0.1995  0.1928
  897MOL0     O23679  11.956   1.080   1.266  0.0449 -0.7258 -0.3547
  897MOL0     C23680  12.072   1.053   1.350  0.4003 -1.0973  0.5170
  897MOL0     C23681  12.165   0.943   1.341 -1.0866 -0.3252 -0.3162
  897MOL0     C23682  12.273   0.943   1.430  0.1285  0.1248  1.0131
  897MOL0     C23683  12.297   1.041   1.526 -0.1541 -0.0264  0.7396
  897MOL0     O23684  12.398   1.028   1.616 -0.3271 -0.3394 -0.9009
  897MOL0     C23685  12.518   1.109   1.600 -0.7451  0.1958  0.9022
  897MOL0     C23686  12.604   1.076   1.729 -0.5770  0.2746  0.7116
  897MOL0     C23687  12.750   1.119   1.692 -0.4688  0.6638  0.1321
  897MOL0     C23688  12.838   1.130   1.816 -0.3635  0.2007 -0.2792
  897MOL0     C23689  12.974   1.173   1.769 -0.0203  0.2995 -0.2428
  897MOL0     C23690  13.061   1.192   1.882 -0.0932 -0.3331 -0.7295
  897MOL0     C23691  13.208   1.221   1.859 -0.2985 -0.5337  0.3120
  897MOL0     C23692  13.255   1.290   1.984 -1.0935 -0.0200 -0.1345
  897MOL0    Cl23693  13.280   1.170   2.113 -0.4803 -0.1403 -0.2381
  897MOL0     C23694  12.201   1.140   1.537 -0.1213 -0.3612  0.0982
  897MOL0     C23695  12.089   1.145   1.450 -0.0485 -0.4187 -0.4244
  897MOL0     O23696  12.043   0.996   1.071 -0.6683 -0.0363 -0.0846
  897MOL0     C23697  11.774   1.119   0.987 -0.3160 -0.7286  0.4756
  897MOL0     C23698  11.643   1.116   0.947 -0.4446 -0.2141 -0.0997
  897MOL0     N23699  10.913   1.273   1.034  0.3143 -0.1632 -0.0641
  897MOL0     N23700  10.800   1.268   1.086 -0.3260  0.0028  0.2476
  897MOL0     C23701  10.202   1.418   1.845  0.7096  0.2062 -0.2915
  897MOL0     C23702  10.096   1.463   1.933 -0.2366 -0.1255  0.7716
  897MOL0     C23703   9.805   1.540   2.245 -0.0736 -0.9109  0.3784
  897MOL0     C23704   9.681   1.550   2.176 -0.3049  0.4705  0.5101
  897MOL0     C23705   9.552   1.571   2.227  0.0548  0.3259  0.2704
  897MOL0     C23706   9.545   1.600   2.365 -0.0476  0.2805  0.2152
  897MOL0     O23707   9.433   1.657   2.426  0.4359 -0.2041 -0.5207
  897MOL0     C23708   9.320   1.675   2.350  0.0822  0.1163  0.5631
  897MOL0     C23709   9.343   1.815   2.282  0.8256 -0.4164 -0.3079
  897MOL0     C23710   9.200   1.861   2.237 -0.2086  0.3110 -0.2840
  897MOL0     C23711   9.109   1.761   2.168 -1.0192  0.7710  0.5923
  897MOL0     C23712   9.159   1.675   2.062  0.6214 -0.2319  0.7645
  897MOL0     C23713   9.189   1.610   1.968 -0.3635  0.2924 -0.6420
  897MOL0     C23714   9.654   1.595   2.446 -0.4954 -0.2752 -0.0664
  897MOL0     C23715   9.791   1.577   2.389 -0.1059 -0.1993  0.0965
  897MOL0     C23716   9.900   1.591   2.493  0.4268 -0.4754  1.0514
  897MOL0     H23717   9.987   1.161   2.037  0.7920 -0.0095  1.0936
  897MOL0     H23718  10.174   1.080   1.903 -0.2769  0.0886  1.5026
  897MOL0     H23719  10.376   1.065   1.839  2.5849 -0.5806 -0.9295
  897MOL0     H23720  10.470   1.201   1.880 -1.2801  1.1936  0.7107
  897MOL0     H23721  10.601   1.188   1.680 -0.1244  0.0668  1.3410
  897MOL0     H23722  10.589   1.029   1.758 -2.3466 -2.5765  0.1562
  897MOL0     H23723  10.401   0.977   1.599 -0.8469  1.3998  2.3721
  897MOL0     H23724  10.436   1.128   1.510  1.9332  0.4990 -1.4523
  897MOL0     H23725  10.676   1.049   1.488  0.2008  0.2389  1.4307
  897MOL0     H23726  10.634   0.899   1.561  0.1045 -0.2281 -1.0447
  897MOL0     H23727  10.451   0.896   1.346  1.0822 -0.8582 -0.0848
  897MOL0     H23728  10.623   0.868   1.321  0.9088  0.4871  1.4083
  897MOL0     H23729  10.484   1.134   1.299 -1.4740 -1.8950  1.5791
  897MOL0     H23730  10.662   1.118   1.279  1.2545 -3.3410  0.2122
  897MOL0     H23731  10.453   0.990   1.103 -0.4268 -0.6199  1.4536
  897MOL0     H23732  10.629   0.959   1.086  1.0101  1.1607  1.3491
  897MOL0     H23733  10.527   1.136   0.927 -2.4047 -1.0088  1.2801
  897MOL0     H23734  10.524   1.238   1.071 -2.2944 -0.3587 -1.7887
  897MOL0     H23735  10.756   1.083   0.820  0.7602  1.4603 -1.3181
  897MOL0     H23736  11.093   1.270   0.855  0.6562 -0.9664 -1.2251
  897MOL0     H23737  11.004   1.169   0.741  1.7918 -2.9218 -0.9104
  897MOL0     H23738  11.063   0.969   0.883 -0.6079  0.2329  0.7243
  897MOL0     H23739  11.199   1.045   0.799  1.0288  0.6570  0.3458
  897MOL0     H23740  11.221   1.179   1.035 -1.8359 -0.2115  2.2083
  897MOL0     H23741  11.127   1.061   1.101 -1.0762  2.0167 -0.4070
  897MOL0     H23742  11.343   1.010   1.145  0.6369  1.5917 -0.3217
  897MOL0     H23743  11.299   0.889   1.025  0.4336  0.0413 -0.1172
  897MOL0     H23744  11.526   0.838   1.094  2.6552 -1.7277 -0.1909
  897MOL0     H23745  11.687   0.759   1.260 -0.6013  0.5452 -1.0043
  897MOL0     H23746  11.829   0.856   1.284  1.0972  0.1352 -0.1104
  897MOL0     H23747  11.817   0.726   1.152 -0.6189 -0.6587  1.6455
  897MOL0     H23748  12.144   0.854   1.283  0.6003 -2.1344  1.6798
  897MOL0     H23749  12.346   0.864   1.440  1.0787  0.9747  0.9478
  897MOL0     H23750  12.562   1.071   1.507 -0.4232 -0.3552  1.2724
  897MOL0     H23751  12.501   1.216   1.588 -0.2086  0.1134 -0.9318
  897MOL0     H23752  12.564   1.143   1.806 -1.4483  0.1442  0.3844
  897MOL0     H23753  12.604   0.972   1.763 -2.2178 -0.0466 -0.1612
  897MOL0     H23754  12.752   1.208   1.630  0.0067 -0.0661 -0.9328
  897MOL0     H23755  12.783   1.037   1.627 -1.1315 -0.3335  1.0068
  897MOL0     H23756  12.843   1.034   1.868 -0.4542 -1.1353 -2.5832
  897MOL0     H23757  12.793   1.199   1.888 -0.6228 -0.8434  0.5863
  897MOL0     H23758  13.005   1.086   1.710  1.6954  2.6052 -3.0133
  897MOL0     H23759  12.988   1.245   1.688 -2.3401 -1.4334 -2.3848
  897MOL0     H23760  13.058   1.103   1.946  0.7508  0.2082  0.0973
  897MOL0     H23761  13.010   1.273   1.936  0.2740 -0.5141 -0.0937
  897MOL0     H23762  13.222   1.294   1.778 -1.1922  1.5740  1.9552
  897MOL0     H23763  13.248   1.128   1.819 -0.8726 -0.9633  0.7220
  897MOL0     H23764  13.187   1.365   2.024 -0.8404 -0.8233  1.8924
  897MOL0     H23765  13.355   1.334   1.970  0.2570 -1.0311  4.4926
  897MOL0     H23766  12.202   1.225   1.604 -1.0840  0.2560 -0.6559
  897MOL0     H23767  12.015   1.223   1.462  1.6879  1.1563  0.3217
  897MOL0     H23768  11.840   1.199   0.953 -2.3369  0.8106  0.0182
  897MOL0     H23769  11.597   1.187   0.880  0.2485  0.4808  0.1493
  897MOL0     H23770  10.246   1.494   1.781  2.2012 -0.7436 -0.4561
  897MOL0     H23771  10.062   1.566   1.939 -0.2980 -0.0577 -0.5408
  897MOL0     H23772   9.692   1.531   2.069  0.1511 -3.5850  1.1106
  897MOL0     H23773   9.475   1.588   2.153  0.7201 -0.1318 -0.5413
  897MOL0     H23774   9.308   1.594   2.278  2.8143 -2.8742  3.1532
  897MOL0     H23775   9.236   1.663   2.420  1.2431 -1.1539  1.8067
  897MOL0     H23776   9.406   1.803   2.193 -1.0402 -1.0891 -1.5898
  897MOL0     H23777   9.390   1.886   2.351 -0.5172  0.3981 -0.2024
  897MOL0     H23778   9.155   1.911   2.323 -1.5022 -1.1164 -0.1042
  897MOL0     H23779   9.220   1.939   2.163  0.5096 -0.0224 -0.4494
  897MOL0     H23780   9.015   1.810   2.143 -2.0094 -0.4319  1.8474
  897MOL0     H23781   9.070   1.690   2.241  0.1877  0.0350  0.5583
  897MOL0     H23782   9.218   1.551   1.883  1.3048 -0.8644  0.6881
  897MOL0     H23783   9.639   1.635   2.546  0.0526 -1.7774  0.6501
  897MOL0     H23784   9.877   1.617   2.596 -0.4829  2.7073  0.1520
  897MOL0     H23785   9.944   1.491   2.495 -0.7225 -1.3105 -3.4654
  897MOL0     H23786   9.965   1.674   2.465 -1.7058  0.5516 -1.2494
  898MOL0     O23787   5.885   0.348   5.540  0.0249  0.4222 -0.1808
  898MOL0     C23788   5.895   0.246   5.611  0.4868  0.3494  0.3989
  898MOL0     O23789   5.824   0.131   5.593  0.0471  0.0890  0.3404
  898MOL0     C23790   5.697   0.133   5.547 -0.4197 -0.3055  1.0992
  898MOL0     C23791   5.595   0.219   5.597 -0.9002  0.6673  0.6955
  898MOL0     C23792   5.467   0.217   5.542 -0.2948  0.3050 -0.1991
  898MOL0     C23793   5.444   0.128   5.441  0.3222  0.3122  1.1707
  898MOL0     O23794   5.322   0.113   5.384 -0.8866 -0.3209  0.3152
  898MOL0     C23795   5.202   0.154   5.447 -0.4578 -0.1780 -0.4787
  898MOL0     C23796   5.075   0.105   5.375 -0.2776  0.5991 -0.0395
  898MOL0     C23797   5.085  -0.055   5.360 -0.0019 -0.4987 -0.3159
  898MOL0     C23798   4.954  -0.135   5.333 -0.5420 -0.8934  0.1817
  898MOL0     C23799   4.989  -0.283   5.330  0.6021  0.4216  0.6260
  898MOL0     C23800   5.013  -0.342   5.469 -1.0716 -0.1299  0.2929
  898MOL0     C23801   4.990  -0.497   5.473  0.7291 -0.0215  0.0763
  898MOL0     C23802   5.075  -0.566   5.370  0.3598  0.6235  0.7544
  898MOL0     N23803   5.098  -0.704   5.403  0.0922  0.2116  0.2714
  898MOL0     C23804   5.208  -0.765   5.452  0.1691  0.1401  0.3681
  898MOL0     C23805   5.180  -0.896   5.470  0.5813 -0.0463 -0.6427
  898MOL0     C23806   5.277  -1.004   5.515  0.5290  0.5128  0.3006
  898MOL0     C23807   5.388  -1.043   5.417  0.4543 -0.0413  0.4529
  898MOL0     C23808   5.469  -1.157   5.474 -0.2961  1.4403  0.4999
  898MOL0     C23809   5.554  -1.125   5.598  0.4788  0.2043  0.3330
  898MOL0     O23810   5.608  -0.991   5.587 -0.6979 -0.4802  0.2008
  898MOL0     C23811   5.735  -0.956   5.626  0.0470 -0.0796  0.2397
  898MOL0     C23812   5.758  -0.830   5.680  0.0600 -0.5656  0.1051
  898MOL0     C23813   5.886  -0.779   5.683 -0.3453 -0.3208 -0.8601
  898MOL0     C23814   5.914  -0.638   5.739  0.4070 -0.7604  0.6527
  898MOL0     C23815   5.999  -0.858   5.662 -0.1700  0.3032 -1.0073
  898MOL0     C23816   6.145  -0.821   5.664  0.5599 -0.5145  0.4378
  898MOL0     O23817   6.177  -0.703   5.588 -0.5685  0.0009 -0.1146
  898MOL0     C23818   6.309  -0.675   5.564  0.1479  0.0209  0.2493
  898MOL0     C23819   6.368  -0.673   5.434 -0.6280  0.1007 -0.0919
  898MOL0     C23820   6.504  -0.641   5.421 -0.6739  0.6032  0.0990
  898MOL0     C23821   6.581  -0.601   5.530  0.1519 -1.1044  0.3210
  898MOL0     O23822   6.715  -0.560   5.506  0.0527 -0.0486 -0.5312
  898MOL0     C23823   6.799  -0.501   5.610  0.1817  0.0016  0.0371
  898MOL0     C23824   6.927  -0.485   5.537 -0.5530  0.2564 -0.0083
  898MOL0     C23825   7.021  -0.407   5.631  0.1187  0.2517  0.0077
  898MOL0     C23826   7.101  -0.501   5.731 -0.3455  0.2508  0.3770
  898MOL0     C23827   7.242  -0.540   5.681 -0.0216  0.6758 -0.5854
  898MOL0     C23828   7.313  -0.625   5.791  0.0453  0.1272 -0.5448
  898MOL0     C23829   7.434  -0.703   5.739 -0.6093 -0.3307 -0.2455
  898MOL0     C23830   7.539  -0.630   5.656  0.0053 -0.2790  0.4538
  898MOL0    Cl23831   7.582  -0.468   5.724  0.3687  0.2344 -0.2630
  898MOL0     C23832   6.519  -0.583   5.657  0.3562 -0.5383 -0.0456
  898MOL0     C23833   6.389  -0.626   5.670  0.0921 -0.6132 -0.4492
  898MOL0     O23834   6.217  -0.905   5.716  0.2737 -0.4837  0.2726
  898MOL0     C23835   5.978  -0.992   5.622  0.4773  0.0188 -1.1875
  898MOL0     C23836   5.844  -1.038   5.603  0.7754 -0.0932  0.2223
  898MOL0     N23837   5.050  -0.916   5.426 -1.0189 -0.5779  0.1151
  898MOL0     N23838   5.004  -0.801   5.388  0.5913 -0.2863  0.4431
  898MOL0     C23839   5.546   0.035   5.397 -0.2623  0.1839  0.1325
  898MOL0     C23840   5.672   0.034   5.441  0.2232 -0.0501 -0.1623
  898MOL0     C23841   5.993   0.243   5.714 -0.3092 -0.0737  0.3143
  898MOL0     C23842   6.061   0.122   5.734  0.5347 -0.3562 -0.2209
  898MOL0     C23843   6.157   0.107   5.835 -0.8354 -0.4165  0.1028
  898MOL0     C23844   6.173   0.212   5.919 -0.6379  0.1881  0.1342
  898MOL0     O23845   6.249   0.179   6.030 -0.5441  0.0087  0.1981
  898MOL0     C23846   6.389   0.156   6.004 -0.5749 -0.1176  0.7662
  898MOL0     C23847   6.455   0.254   5.913  0.7078  0.2549 -0.4573
  898MOL0     C23848   6.444   0.386   5.986  0.3912  0.4360  0.8124
  898MOL0     C23849   6.463   0.500   5.886  1.7337  0.0353  0.6416
  898MOL0     C23850   6.600   0.505   5.847  0.3529  0.1412  0.0297
  898MOL0     C23851   6.717   0.510   5.819 -0.4849  0.9645 -0.0480
  898MOL0     C23852   6.120   0.332   5.890 -0.3950 -0.4313  0.1162
  898MOL0     C23853   6.033   0.358   5.788  0.5612 -0.1040  0.1912
  898MOL0     C23854   5.973   0.495   5.768  0.4346  0.2218  0.5607
  898MOL0     H23855   5.612   0.281   5.684  0.5295 -2.7380  3.0323
  898MOL0     H23856   5.392   0.284   5.584 -1.0592 -1.1607  0.8893
  898MOL0     H23857   5.194   0.263   5.456 -3.1734 -0.3133 -0.2618
  898MOL0     H23858   5.204   0.118   5.551  0.0876 -2.3950 -1.2038
  898MOL0     H23859   4.982   0.124   5.430  0.3282 -1.3138  1.7461
  898MOL0     H23860   5.068   0.158   5.279  0.5751 -0.0060 -0.4446
  898MOL0     H23861   5.153  -0.085   5.280  3.3001 -0.6090  2.3196
  898MOL0     H23862   5.121  -0.098   5.454  1.6282 -1.8382 -1.4822
  898MOL0     H23863   4.870  -0.107   5.397 -0.9376  1.3373 -1.2322
  898MOL0     H23864   4.914  -0.105   5.237 -2.9611  1.4069  1.7764
  898MOL0     H23865   5.077  -0.295   5.265  0.5640 -1.0047  0.8107
  898MOL0     H23866   4.905  -0.346   5.299  2.8245 -3.9828  2.5789
  898MOL0     H23867   5.113  -0.320   5.509  0.6667 -0.9540 -3.1481
  898MOL0     H23868   4.940  -0.300   5.538  0.9881  1.0639  1.8647
  898MOL0     H23869   4.883  -0.518   5.459  0.1141  2.3956  0.7162
  898MOL0     H23870   5.024  -0.536   5.569  0.4123  0.2118  0.2880
  898MOL0     H23871   5.014  -0.572   5.279  0.2062  1.7087  0.7740
  898MOL0     H23872   5.173  -0.522   5.350  2.0750 -1.1444  4.3686
  898MOL0     H23873   5.298  -0.707   5.473  0.2484  0.0569  0.2587
  898MOL0     H23874   5.209  -1.076   5.562 -1.7330  1.4218 -1.4104
  898MOL0     H23875   5.336  -0.964   5.598  0.4955 -0.2507  0.7096
  898MOL0     H23876   5.343  -1.077   5.323 -0.2625 -2.4227  1.5816
  898MOL0     H23877   5.460  -0.962   5.399 -1.5518  2.1655  1.7703
  898MOL0     H23878   5.404  -1.239   5.506  4.1665 -2.3661  0.8366
  898MOL0     H23879   5.529  -1.202   5.394 -3.0291  2.4819 -2.3528
  898MOL0     H23880   5.497  -1.120   5.691  0.4181  0.2679  0.2922
  898MOL0     H23881   5.634  -1.199   5.610  0.1118 -0.2340  0.0812
  898MOL0     H23882   5.663  -0.778   5.693 -0.9301 -2.8018  2.7341
  898MOL0     H23883   6.017  -0.639   5.776  0.0817 -3.2251  1.6858
  898MOL0     H23884   5.846  -0.631   5.825 -0.6709 -0.3917 -0.1993
  898MOL0     H23885   5.887  -0.561   5.667 -2.8744 -0.7011  1.7612
  898MOL0     H23886   6.302  -0.691   5.349 -0.6594 -1.2154  0.1853
  898MOL0     H23887   6.537  -0.644   5.318 -0.4064  0.7468  0.1805
  898MOL0     H23888   6.754  -0.405   5.639  0.6509  0.3864 -0.4944
  898MOL0     H23889   6.804  -0.561   5.701 -1.8017 -1.5743 -0.8054
  898MOL0     H23890   6.965  -0.582   5.506 -0.5496  0.6275 -1.2273
  898MOL0     H23891   6.911  -0.420   5.450 -1.2203  0.8804  0.5584
  898MOL0     H23892   6.965  -0.339   5.696  0.8758 -0.9414  2.0075
  898MOL0     H23893   7.087  -0.340   5.574  2.3869 -1.0100  1.0114
  898MOL0     H23894   7.044  -0.593   5.746  0.8083 -0.8000 -1.2761
  898MOL0     H23895   7.106  -0.452   5.828 -1.6210  2.9904 -0.8154
  898MOL0     H23896   7.241  -0.592   5.584 -0.2288 -0.2988 -0.0743
  898MOL0     H23897   7.298  -0.446   5.686  2.0408 -0.5430  0.9692
  898MOL0     H23898   7.238  -0.692   5.835 -2.1009  1.6370 -1.7304
  898MOL0     H23899   7.339  -0.557   5.872  1.1033 -1.2452  0.3303
  898MOL0     H23900   7.394  -0.787   5.682 -0.1180 -1.3456  0.8791
  898MOL0     H23901   7.490  -0.738   5.826 -0.8129 -1.5695 -0.6026
  898MOL0     H23902   7.518  -0.609   5.550 -2.5692  3.4142  1.5176
  898MOL0     H23903   7.628  -0.694   5.649  0.2347  0.0590  0.2774
  898MOL0     H23904   6.579  -0.545   5.739  1.6421 -0.3334 -1.0372
  898MOL0     H23905   6.350  -0.619   5.771  2.1547  1.1660  0.2962
  898MOL0     H23906   6.057  -1.062   5.596  0.8886 -0.5538  1.3719
  898MOL0     H23907   5.826  -1.138   5.565  0.1120  0.5189 -1.1487
  898MOL0     H23908   5.525  -0.024   5.309  0.5646 -1.5491  1.0507
  898MOL0     H23909   5.739  -0.039   5.396  0.6102  0.1843  0.0282
  898MOL0     H23910   6.048   0.038   5.667  1.6563 -2.5517  2.1254
  898MOL0     H23911   6.211   0.013   5.841 -1.2786 -0.6509  0.5173
  898MOL0     H23912   6.443   0.170   6.098 -0.0463 -0.0852  0.4630
  898MOL0     H23913   6.425   0.060   5.966 -0.0695  1.0389 -1.9772
  898MOL0     H23914   6.405   0.246   5.816  0.0329 -0.9773 -0.0293
  898MOL0     H23915   6.558   0.218   5.900 -0.4500 -2.7445 -2.4584
  898MOL0     H23916   6.344   0.395   6.027  0.4559  0.2354  1.0185
  898MOL0     H23917   6.514   0.396   6.069  0.0964  1.2199  0.9693
  898MOL0     H23918   6.437   0.601   5.918  0.5452  0.7695 -2.3262
  898MOL0     H23919   6.406   0.473   5.797  2.9498  0.3888 -0.2714
  898MOL0     H23920   6.821   0.504   5.794 -0.5889 -0.2176 -0.2544
  898MOL0     H23921   6.136   0.411   5.963 -0.1241  3.6448 -3.8909
  898MOL0     H23922   5.867   0.482   5.748  0.5262  1.2578 -0.7384
  898MOL0     H23923   5.983   0.567   5.851 -2.7778  3.2864 -1.4029
  898MOL0     H23924   6.012   0.553   5.684  1.1029  0.7663  1.2248
  899MOL0     O23925   9.640   0.184   3.132 -0.0975  0.3840  0.2815
  899MOL0     C23926   9.616   0.150   3.016  0.0692 -0.2772  0.5820
  899MOL0     O23927   9.579   0.231   2.915 -0.4440  0.0333 -0.1376
  899MOL0     C23928   9.548   0.352   2.949 -0.6296 -0.5586 -0.2835
  899MOL0     C23929   9.415   0.384   2.979  0.4099  0.3504  0.8371
  899MOL0     C23930   9.376   0.513   3.011  0.3595  0.8821  0.2813
  899MOL0     C23931   9.476   0.611   3.009  0.3531 -0.7385 -0.0908
  899MOL0     O23932   9.449   0.746   3.021 -0.3602 -0.4699  0.0983
  899MOL0     C23933   9.321   0.785   2.971 -0.7065 -0.0717  0.6081
  899MOL0     C23934   9.320   0.940   2.959 -0.1816  0.1267 -0.1910
  899MOL0     C23935   9.410   0.998   2.856 -0.0844 -0.3974 -0.3317
  899MOL0     C23936   9.387   1.151   2.855 -0.2291  0.0483 -0.0783
  899MOL0     C23937   9.509   1.230   2.790 -0.3370 -0.0439 -0.2210
  899MOL0     C23938   9.627   1.239   2.882 -1.4885 -0.6985  0.4758
  899MOL0     C23939   9.745   1.322   2.834  0.8353 -0.1694 -0.1888
  899MOL0     C23940   9.868   1.333   2.924 -0.4775  0.2479 -0.4877
  899MOL0     N23941   9.976   1.419   2.853 -0.1055 -0.7262 -0.7662
  899MOL0     C23942  10.088   1.373   2.788  0.2749  0.3621 -1.0065
  899MOL0     C23943  10.150   1.484   2.746  0.0819  0.5238 -0.4996
  899MOL0     C23944  10.274   1.486   2.653 -0.3832  0.9599 -0.0735
  899MOL0     C23945  10.231   1.455   2.505  0.7505 -0.1124 -0.0373
  899MOL0     C23946  10.349   1.383   2.439 -0.9934  1.5235  0.4434
  899MOL0     C23947  10.340   1.386   2.284 -0.1124 -0.0914  0.8363
  899MOL0     O23948  10.452   1.295   2.252  0.0728  0.3178 -0.3068
  899MOL0     C23949  10.534   1.321   2.144  0.2645  0.2731 -0.1922
  899MOL0     C23950  10.500   1.409   2.042  0.7478 -0.4402  0.9430
  899MOL0     C23951  10.595   1.432   1.937  0.5067 -0.9209  0.2364
  899MOL0     C23952  10.546   1.532   1.824  0.1710  0.0007 -0.9443
  899MOL0     C23953  10.709   1.358   1.927  0.9158  0.0845  0.4465
  899MOL0     C23954  10.808   1.385   1.827 -0.6086 -0.3582 -0.3217
  899MOL0     O23955  10.777   1.393   1.688  0.5707  0.0551  0.1102
  899MOL0     C23956  10.868   1.426   1.596  0.1081 -0.0186 -0.1879
  899MOL0     C23957  10.951   1.537   1.605  0.0635 -0.3608  0.1072
  899MOL0     C23958  11.054   1.555   1.509 -0.1469 -0.6514 -0.6907
  899MOL0     C23959  11.075   1.475   1.404  0.8830  0.3024 -0.2361
  899MOL0     O23960  11.169   1.509   1.316  0.0056  0.3799 -1.0056
  899MOL0     C23961  11.139   1.496   1.177  0.8138 -0.5534  0.0331
  899MOL0     C23962  11.207   1.608   1.103  0.0614 -0.1761 -0.2543
  899MOL0     C23963  11.202   1.597   0.947  0.0578 -0.4367 -0.2278
  899MOL0     C23964  11.314   1.514   0.899  0.1059  0.0070 -0.3912
  899MOL0     C23965  11.313   1.519   0.738  0.0939  0.1561 -0.2197
  899MOL0     C23966  11.395   1.397   0.686 -0.7364 -0.4088 -0.3187
  899MOL0     C23967  11.415   1.410   0.538 -0.5607  0.4142 -0.6753
  899MOL0     C23968  11.499   1.301   0.478  0.5460 -0.4674 -0.2097
  899MOL0    Cl23969  11.453   1.128   0.539  0.0152  0.0104 -0.1892
  899MOL0     C23970  10.989   1.367   1.392  1.1665  0.5974 -0.2903
  899MOL0     C23971  10.888   1.339   1.490  0.6152 -0.0351 -0.0980
  899MOL0     O23972  10.923   1.396   1.872  0.5204  0.2821 -0.2899
  899MOL0     C23973  10.737   1.264   2.028 -0.3501  0.3966  0.0287
  899MOL0     C23974  10.649   1.253   2.137 -0.7594  0.1801  0.3078
  899MOL0     N23975  10.074   1.596   2.783  0.1408  0.6719  0.5670
  899MOL0     N23976   9.956   1.557   2.842 -0.2840 -0.0704  0.9082
  899MOL0     C23977   9.607   0.576   2.997  0.4475 -0.3984  0.0248
  899MOL0     C23978   9.647   0.450   2.953  0.4252 -0.0597 -0.5929
  899MOL0     C23979   9.627   0.007   2.990  0.3145 -0.6886  0.7474
  899MOL0     C23980   9.546  -0.040   2.883  0.4956 -0.1814 -0.0236
  899MOL0     C23981   9.540  -0.181   2.852  0.1301  0.1803 -0.2934
  899MOL0     C23982   9.627  -0.270   2.907 -0.2545  0.4073  0.7692
  899MOL0     O23983   9.633  -0.405   2.867 -0.3323 -0.3326  0.1219
  899MOL0     C23984   9.580  -0.448   2.742 -0.6507  0.2168 -0.1797
  899MOL0     C23985   9.662  -0.390   2.626  0.6688 -0.5662 -0.5850
  899MOL0     C23986   9.582  -0.423   2.505  0.0765  0.4457 -0.0495
  899MOL0     C23987   9.673  -0.367   2.394 -0.0687  0.2049 -0.3648
  899MOL0     C23988   9.628  -0.421   2.268 -0.2758 -0.4168  0.3552
  899MOL0     C23989   9.577  -0.450   2.160 -0.1248  1.2877 -1.1858
  899MOL0     C23990   9.715  -0.216   3.005 -1.0218 -0.2135 -0.2930
  899MOL0     C23991   9.708  -0.082   3.047 -0.2831 -0.1610  0.3455
  899MOL0     C23992   9.806  -0.051   3.160 -0.4584 -0.9156  0.0766
  899MOL0     H23993   9.346   0.301   2.981  3.6703 -2.6308  0.5592
  899MOL0     H23994   9.273   0.535   3.039  0.7748  2.7986  0.4454
  899MOL0     H23995   9.241   0.752   3.038 -2.5188 -2.6553 -2.5272
  899MOL0     H23996   9.312   0.739   2.872 -0.0722  2.8010 -0.8920
  899MOL0     H23997   9.218   0.972   2.937 -0.4025  0.0602  0.6958
  899MOL0     H23998   9.343   0.979   3.059 -1.0970 -2.0203  0.8999
  899MOL0     H23999   9.514   0.970   2.875  0.2659  0.3484 -1.0818
  899MOL0     H24000   9.379   0.951   2.762 -1.4221  1.3259 -0.7897
  899MOL0     H24001   9.293   1.155   2.798  0.2381 -1.5456 -1.0272
  899MOL0     H24002   9.357   1.202   2.947 -1.1323 -0.2358 -0.2009
  899MOL0     H24003   9.475   1.328   2.756 -1.0884 -0.6405 -1.2498
  899MOL0     H24004   9.548   1.178   2.702 -2.7204  3.8939 -4.0061
  899MOL0     H24005   9.599   1.286   2.977 -0.9434 -1.3266  0.9509
  899MOL0     H24006   9.660   1.136   2.896  2.3168  0.4499  1.0645
  899MOL0     H24007   9.708   1.424   2.818 -0.2455 -0.4277  0.5701
  899MOL0     H24008   9.781   1.280   2.739  1.3382  2.6798 -1.3734
  899MOL0     H24009   9.843   1.383   3.018 -1.4773  0.6538 -0.9596
  899MOL0     H24010   9.901   1.233   2.955 -1.4579  0.2163  0.4785
  899MOL0     H24011  10.126   1.274   2.765  1.7848  1.0386 -1.5810
  899MOL0     H24012  10.342   1.407   2.685  0.4367  1.2435 -1.0604
  899MOL0     H24013  10.329   1.580   2.660  1.7391 -0.2872  0.9004
  899MOL0     H24014  10.144   1.389   2.498 -1.2597  2.2377  1.3107
  899MOL0     H24015  10.210   1.553   2.462 -0.7980  0.2919  1.5226
  899MOL0     H24016  10.444   1.425   2.474 -1.5176  0.8323  2.9093
  899MOL0     H24017  10.348   1.276   2.458 -2.4065  1.4492  0.0868
  899MOL0     H24018  10.245   1.355   2.238  0.8783  0.7956 -2.0038
  899MOL0     H24019  10.361   1.487   2.249 -1.3958 -0.8213 -2.4244
  899MOL0     H24020  10.405   1.462   2.035  0.5854 -0.9891 -2.7318
  899MOL0     H24021  10.485   1.486   1.746  1.3679  1.9093 -3.1533
  899MOL0     H24022  10.630   1.572   1.766  1.0357 -1.4072 -0.7030
  899MOL0     H24023  10.493   1.620   1.862  1.0276 -0.0773  0.5523
  899MOL0     H24024  10.932   1.609   1.683  0.5827  0.2835 -0.3465
  899MOL0     H24025  11.114   1.645   1.505 -1.5691  0.4125  0.6734
  899MOL0     H24026  11.179   1.398   1.150  2.1757 -0.1622  0.5664
  899MOL0     H24027  11.030   1.500   1.163  0.7610  0.8870  0.7089
  899MOL0     H24028  11.159   1.705   1.118  4.0536  2.0507 -0.6935
  899MOL0     H24029  11.307   1.623   1.145 -0.5959  0.5688  1.0973
  899MOL0     H24030  11.221   1.702   0.921  0.9171 -0.5439 -0.0685
  899MOL0     H24031  11.103   1.573   0.909 -1.1555 -0.5315  2.7652
  899MOL0     H24032  11.294   1.411   0.930 -0.6027  0.2638  0.0252
  899MOL0     H24033  11.410   1.546   0.941  0.2462 -0.1159 -0.6184
  899MOL0     H24034  11.215   1.520   0.691 -0.0840  0.1170  0.1431
  899MOL0     H24035  11.362   1.607   0.695 -0.0132 -0.9290 -2.6980
  899MOL0     H24036  11.344   1.300   0.691  0.6076 -1.3633 -3.1188
  899MOL0     H24037  11.490   1.392   0.740 -0.0156 -0.5212 -1.5611
  899MOL0     H24038  11.466   1.506   0.523 -0.0679  0.4199  0.8336
  899MOL0     H24039  11.325   1.411   0.476 -1.0248  0.8663  0.0010
  899MOL0     H24040  11.606   1.309   0.496  0.4085  0.9404  0.1400
  899MOL0     H24041  11.476   1.299   0.371  1.0040 -1.3142 -0.2990
  899MOL0     H24042  10.991   1.289   1.316  0.3447 -0.1596  0.4374
  899MOL0     H24043  10.810   1.263   1.486 -1.2185  1.4437  2.9741
  899MOL0     H24044  10.833   1.214   2.034  0.0480  1.0779 -0.4831
  899MOL0     H24045  10.662   1.194   2.228  0.6248  0.8504  0.5742
  899MOL0     H24046   9.679   0.657   2.989  1.3330 -1.1478  0.2433
  899MOL0     H24047   9.752   0.423   2.950  0.5920  0.2111  1.4379
  899MOL0     H24048   9.478   0.022   2.826  0.5513 -0.6789 -0.6493
  899MOL0     H24049   9.467  -0.198   2.774  1.4314  2.1684 -2.0479
  899MOL0     H24050   9.581  -0.557   2.739 -1.4338  0.0861  2.2003
  899MOL0     H24051   9.473  -0.422   2.741 -0.7301 -0.0539  0.5415
  899MOL0     H24052   9.759  -0.438   2.619  0.8210 -0.7164  1.7052
  899MOL0     H24053   9.690  -0.285   2.639  0.9685 -0.9186  2.6977
  899MOL0     H24054   9.564  -0.530   2.489 -3.6557  0.7463  1.1893
  899MOL0     H24055   9.479  -0.387   2.496 -0.4381 -1.4627 -3.5835
  899MOL0     H24056   9.779  -0.391   2.410 -0.2097 -0.6582 -0.6592
  899MOL0     H24057   9.663  -0.258   2.384 -0.7825  0.5232  2.7925
  899MOL0     H24058   9.542  -0.488   2.066  1.7401 -3.8066 -0.1221
  899MOL0     H24059   9.780  -0.288   3.052  0.2720  0.2222 -1.3548
  899MOL0     H24060   9.850   0.049   3.146  0.1660 -0.9195  1.7838
  899MOL0     H24061   9.755  -0.067   3.255 -1.9094 -2.1235 -0.8551
  899MOL0     H24062   9.895  -0.114   3.150  1.6495  1.6799  1.2380
  900MOL0     O24063   5.936   3.131   8.367  0.3832 -0.7275  1.1229
  900MOL0     C24064   5.893   3.184   8.269  0.6542  0.2263  0.3578
  900MOL0     O24065   5.958   3.268   8.181 -0.5571 -0.1128 -0.2455
  900MOL0     C24066   6.099   3.292   8.179  0.9084  0.4841 -0.4254
  900MOL0     C24067   6.132   3.399   8.100  0.3109  0.0369  0.1492
  900MOL0     C24068   6.259   3.447   8.095  0.1434  0.4929  0.0529
  900MOL0     C24069   6.371   3.382   8.159 -0.7043  0.0597 -1.1531
  900MOL0     O24070   6.503   3.409   8.166  0.1375 -0.2629  0.3335
  900MOL0     C24071   6.523   3.552   8.163 -0.9874 -0.0116 -0.3078
  900MOL0     C24072   6.624   3.596   8.261 -0.4294  0.7391 -0.7615
  900MOL0     C24073   6.766   3.546   8.212  0.3052 -0.1648  0.0457
  900MOL0     C24074   6.868   3.542   8.322 -0.5554 -0.5760  0.0114
  900MOL0     C24075   6.993   3.465   8.278  0.5232  0.4589  0.7381
  900MOL0     C24076   7.107   3.474   8.377 -0.0982 -0.0378 -1.2498
  900MOL0     C24077   7.233   3.432   8.316 -0.0985  0.4720  0.4901
  900MOL0     C24078   7.334   3.398   8.426  0.0486 -0.7736 -0.0632
  900MOL0     N24079   7.383   3.517   8.508 -0.1881 -0.2738  0.6861
  900MOL0     C24080   7.453   3.623   8.459  0.5202  0.2718  0.4202
  900MOL0     C24081   7.488   3.699   8.565 -0.1168 -0.3348  0.2094
  900MOL0     C24082   7.560   3.836   8.584  0.6546  0.1217  0.2329
  900MOL0     C24083   7.684   3.838   8.489  0.2354  0.4366 -0.2712
  900MOL0     C24084   7.773   3.961   8.507 -0.4434 -0.3462  0.2562
  900MOL0     C24085   7.715   4.101   8.489  0.2193  0.1550 -0.4373
  900MOL0     O24086   7.657   4.138   8.362 -0.7445 -0.0500 -0.6758
  900MOL0     C24087   7.739   4.136   8.256 -0.0092 -0.5277 -0.0732
  900MOL0     C24088   7.788   4.262   8.221 -0.0436 -0.2769  0.4119
  900MOL0     C24089   7.877   4.273   8.114 -0.9788 -0.2357  0.1848
  900MOL0     C24090   7.943   4.406   8.113 -1.3848 -0.9483  0.4178
  900MOL0     C24091   7.918   4.156   8.037 -0.3655  0.1597  1.4003
  900MOL0     C24092   8.015   4.163   7.923  0.5595 -0.2903 -0.0934
  900MOL0     O24093   8.089   4.270   7.909  0.1544 -0.0706 -0.7734
  900MOL0     C24094   8.186   4.278   7.824  0.0469  0.3669 -1.2384
  900MOL0     C24095   8.196   4.361   7.717 -0.1226  0.6194 -0.1058
  900MOL0     C24096   8.312   4.372   7.639  0.6244 -0.8711 -0.3573
  900MOL0     C24097   8.419   4.289   7.667 -0.0078  0.4373 -0.2600
  900MOL0     O24098   8.526   4.302   7.583  0.3174 -0.0687 -0.5945
  900MOL0     C24099   8.658   4.248   7.626 -0.5665 -0.2873  0.5402
  900MOL0     C24100   8.770   4.310   7.533  0.1956  0.0806  0.3528
  900MOL0     C24101   8.790   4.458   7.559  0.0163 -0.8245  0.1245
  900MOL0     C24102   8.921   4.487   7.638  0.1805  0.1191 -0.0884
  900MOL0     C24103   9.041   4.469   7.554 -0.2919 -0.7681 -0.1945
  900MOL0     C24104   9.168   4.521   7.624 -0.2464  0.1456  0.2976
  900MOL0     C24105   9.170   4.675   7.647 -0.1813  0.3627 -0.5996
  900MOL0     C24106   9.294   4.716   7.724 -0.2490  0.0209  0.4850
  900MOL0    Cl24107   9.441   4.644   7.641  0.3263 -0.1083  0.5670
  900MOL0     C24108   8.412   4.197   7.772  0.5205 -0.7319 -0.3826
  900MOL0     C24109   8.304   4.189   7.854  0.3403  0.3240 -0.1452
  900MOL0     O24110   8.019   4.066   7.845  0.1666 -0.0128  0.7256
  900MOL0     C24111   7.854   4.033   8.069 -0.1927 -0.3201 -0.0229
  900MOL0     C24112   7.765   4.024   8.184  0.3062 -0.0191  0.6151
  900MOL0     N24113   7.418   3.644   8.678 -0.2819  0.0090  0.2598
  900MOL0     N24114   7.362   3.530   8.643 -0.0424 -0.9293  0.2299
  900MOL0     C24115   6.336   3.270   8.234  0.2271  0.6603  0.6797
  900MOL0     C24116   6.202   3.229   8.245  0.1032  0.5997  0.0212
  900MOL0     C24117   5.750   3.157   8.233  0.4600  0.2454  0.5148
  900MOL0     C24118   5.678   3.253   8.163  0.8751  0.4642  0.0236
  900MOL0     C24119   5.549   3.243   8.124 -0.3552 -0.1789  0.8300
  900MOL0     C24120   5.476   3.122   8.151 -0.5845  0.0220 -0.2681
  900MOL0     O24121   5.348   3.105   8.105 -0.1760  0.0264 -0.5245
  900MOL0     C24122   5.268   2.989   8.143 -0.9684 -0.2400 -0.1276
  900MOL0     C24123   5.298   2.865   8.060 -0.8213 -0.2252 -0.7860
  900MOL0     C24124   5.315   2.737   8.139 -0.1355  0.3654  0.2658
  900MOL0     C24125   5.373   2.629   8.050 -0.0643  0.6836  0.0467
  900MOL0     C24126   5.501   2.651   7.986 -0.2487  0.4646 -0.1394
  900MOL0     C24127   5.618   2.661   7.954  0.5942 -0.0367  0.1168
  900MOL0     C24128   5.551   3.021   8.216  0.4248 -0.0146 -0.3390
  900MOL0     C24129   5.681   3.031   8.247  0.7901 -0.1578 -0.4387
  900MOL0     C24130   5.735   2.898   8.290  0.2913  0.0051 -0.2096
  900MOL0     H24131   6.052   3.453   8.050 -0.1691 -1.9209 -1.3145
  900MOL0     H24132   6.278   3.537   8.038  1.7229 -0.9452 -1.8897
  900MOL0     H24133   6.439   3.615   8.194 -0.4245  1.7634 -2.1122
  900MOL0     H24134   6.550   3.586   8.062  0.4964 -2.7640 -0.9301
  900MOL0     H24135   6.626   3.705   8.276 -1.5534  0.3444  3.0897
  900MOL0     H24136   6.601   3.552   8.358  0.0300  0.1736 -0.9015
  900MOL0     H24137   6.750   3.444   8.177 -3.2089 -0.1580  1.2561
  900MOL0     H24138   6.803   3.602   8.126  1.7477 -3.4343 -1.6374
  900MOL0     H24139   6.904   3.641   8.351  3.1659 -1.4930 -0.9810
  900MOL0     H24140   6.821   3.497   8.411  1.7377 -2.8646  0.1925
  900MOL0     H24141   7.027   3.490   8.177  1.1669 -2.3170  0.1851
  900MOL0     H24142   6.975   3.358   8.270 -1.1082  0.7572 -0.1170
  900MOL0     H24143   7.119   3.577   8.413 -1.4357  0.5927 -2.5103
  900MOL0     H24144   7.086   3.407   8.461 -1.6541 -0.8943 -2.2892
  900MOL0     H24145   7.268   3.513   8.251  1.7998  0.9940  2.0513
  900MOL0     H24146   7.221   3.341   8.257 -2.9228  1.6119 -0.8515
  900MOL0     H24147   7.294   3.317   8.488  0.5947 -2.7850 -2.2064
  900MOL0     H24148   7.418   3.354   8.371  1.0809  1.5825 -0.4830
  900MOL0     H24149   7.488   3.651   8.360  1.2829 -0.5500  0.4406
  900MOL0     H24150   7.593   3.843   8.688 -0.5405  0.6917  0.5965
  900MOL0     H24151   7.496   3.916   8.546  0.2784 -0.2195  0.1386
  900MOL0     H24152   7.747   3.751   8.508  1.0460  0.6188 -1.8863
  900MOL0     H24153   7.658   3.828   8.383  1.8992  1.0787 -0.7679
  900MOL0     H24154   7.807   3.953   8.610  2.1126 -1.3148 -0.5837
  900MOL0     H24155   7.858   3.949   8.439 -0.9307  1.6244 -0.8022
  900MOL0     H24156   7.641   4.116   8.568  0.7412  2.8837 -0.3925
  900MOL0     H24157   7.795   4.172   8.512  0.3618  0.0943 -0.7509
  900MOL0     H24158   7.745   4.338   8.285  0.1151 -0.0961  0.3035
  900MOL0     H24159   7.950   4.443   8.010 -0.2268 -0.8491  0.5175
  900MOL0     H24160   8.047   4.388   8.141 -1.0105 -0.5164 -0.6609
  900MOL0     H24161   7.887   4.481   8.171 -0.2766  0.5940 -0.4265
  900MOL0     H24162   8.115   4.430   7.693 -1.2816 -0.8244 -0.5195
  900MOL0     H24163   8.316   4.434   7.551  0.1170 -2.4558 -1.5414
  900MOL0     H24164   8.685   4.274   7.729 -1.9416  0.9018  0.6303
  900MOL0     H24165   8.652   4.141   7.608 -0.6257 -0.4810  1.6151
  900MOL0     H24166   8.860   4.251   7.552 -1.3987 -1.7841  2.7131
  900MOL0     H24167   8.728   4.294   7.433  0.7335  0.5882  0.0347
  900MOL0     H24168   8.704   4.495   7.615 -0.9640 -1.7592 -0.6986
  900MOL0     H24169   8.796   4.514   7.465  0.9546  0.2225  0.7829
  900MOL0     H24170   8.919   4.429   7.730 -1.0940 -0.2560 -0.3397
  900MOL0     H24171   8.905   4.595   7.652  1.3359  0.1491  1.1505
  900MOL0     H24172   9.052   4.362   7.536  5.1723 -0.5704  0.3526
  900MOL0     H24173   9.025   4.528   7.463 -4.2002  0.6649  1.1815
  900MOL0     H24174   9.258   4.484   7.576 -0.5928 -0.8370  0.3678
  900MOL0     H24175   9.177   4.466   7.719  0.3087  0.3922  0.3917
  900MOL0     H24176   9.089   4.696   7.717 -2.6938 -5.7083 -1.0627
  900MOL0     H24177   9.162   4.746   7.564  0.8967  2.7136  1.1851
  900MOL0     H24178   9.278   4.685   7.828  0.6875  1.8780  1.2423
  900MOL0     H24179   9.310   4.824   7.732 -0.0209  0.1595 -1.4164
  900MOL0     H24180   8.494   4.133   7.804 -0.1437 -1.3415  0.1426
  900MOL0     H24181   8.306   4.126   7.943  2.2998 -0.9788 -1.0197
  900MOL0     H24182   7.882   3.938   8.025 -3.0794 -0.3601 -2.0830
  900MOL0     H24183   7.717   3.931   8.213 -1.6838  0.9989  0.7112
  900MOL0     H24184   6.409   3.207   8.282 -0.8262  0.8751  2.6620
  900MOL0     H24185   6.165   3.149   8.309 -0.0549 -0.4640 -1.3364
  900MOL0     H24186   5.730   3.348   8.155 -0.0629  0.9049 -1.2358
  900MOL0     H24187   5.503   3.334   8.086  2.0207  0.3599 -1.0015
  900MOL0     H24188   5.292   2.961   8.246 -0.2747 -4.0271 -1.1751
  900MOL0     H24189   5.164   3.021   8.130 -1.0717 -0.6329 -0.2797
  900MOL0     H24190   5.388   2.879   8.000 -0.0378 -1.7737 -0.0282
  900MOL0     H24191   5.212   2.849   7.993 -0.1265 -3.4819 -1.0326
  900MOL0     H24192   5.371   2.737   8.233 -0.9858 -0.3953  0.7876
  900MOL0     H24193   5.215   2.703   8.166 -0.7287 -0.4936 -2.6439
  900MOL0     H24194   5.305   2.591   7.974  0.4599  0.1180 -0.1422
  900MOL0     H24195   5.386   2.551   8.126 -0.1501  2.7331  2.3036
  900MOL0     H24196   5.718   2.665   7.916 -0.2117 -0.3765 -2.2527
  900MOL0     H24197   5.497   2.930   8.241  0.7689 -0.8904 -2.5927
  900MOL0     H24198   5.844   2.890   8.280  0.3927  1.1863 -0.1506
  900MOL0     H24199   5.700   2.860   8.386 -1.6602 -1.2361 -1.3651
  900MOL0     H24200   5.695   2.823   8.222 -0.6175  2.8557 -3.0472
  901MOL0     O24201   4.627   8.216   3.296  0.1742 -0.2530 -0.1394
  901MOL0     C24202   4.591   8.319   3.361  0.1701 -0.2933  0.3448
  901MOL0     O24203   4.673   8.384   3.441  0.0473 -0.2699 -0.3637
  901MOL0     C24204   4.812   8.357   3.440  0.6964 -0.2971  0.8254
  901MOL0     C24205   4.863   8.273   3.535 -0.8884  0.1892  0.8521
  901MOL0     C24206   5.000   8.224   3.526 -0.2529 -0.0560  0.6162
  901MOL0     C24207   5.082   8.280   3.427 -0.2140  0.0814  0.3594
  901MOL0     O24208   5.211   8.222   3.408 -0.0393  0.3337 -0.4627
  901MOL0     C24209   5.287   8.233   3.284 -0.6508  0.0697 -0.2687
  901MOL0     C24210   5.431   8.203   3.327  0.3146 -0.5551  0.0155
  901MOL0     C24211   5.511   8.337   3.378  0.9653 -0.0971  0.3418
  901MOL0     C24212   5.655   8.296   3.415 -0.2605 -1.1961  0.0813
  901MOL0     C24213   5.743   8.417   3.463 -0.1434  0.3792 -0.5545
  901MOL0     C24214   5.860   8.363   3.551  0.2664  0.1188  0.1349
  901MOL0     C24215   5.967   8.462   3.564 -0.4952  0.3841 -0.5253
  901MOL0     C24216   5.932   8.583   3.650  0.9282  0.3269 -0.6919
  901MOL0     N24217   5.903   8.544   3.788 -0.8492 -0.1149  0.0669
  901MOL0     C24218   5.782   8.514   3.841 -0.1875 -0.3126 -0.3697
  901MOL0     C24219   5.801   8.531   3.978  0.0014  0.2228  0.2826
  901MOL0     C24220   5.685   8.503   4.070  0.8394  0.4372 -0.1099
  901MOL0     C24221   5.735   8.445   4.204  0.4306 -0.0310 -0.6021
  901MOL0     C24222   5.605   8.420   4.293 -0.2800 -0.4945  0.0689
  901MOL0     C24223   5.650   8.328   4.415 -0.5453 -0.5943  0.0182
  901MOL0     O24224   5.548   8.342   4.512  0.0467 -0.2529  0.4019
  901MOL0     C24225   5.584   8.311   4.643 -0.3382  0.1848  0.7886
  901MOL0     C24226   5.688   8.220   4.681  0.3279 -0.8655  0.1562
  901MOL0     C24227   5.700   8.190   4.820 -0.5154 -0.0316 -0.6044
  901MOL0     C24228   5.807   8.083   4.840 -0.0521 -0.4341 -0.3847
  901MOL0     C24229   5.601   8.252   4.911  0.1088  0.5614 -0.4213
  901MOL0     C24230   5.575   8.201   5.045 -0.4689 -0.7509 -0.0977
  901MOL0     O24231   5.530   8.283   5.141  1.1051 -0.6796 -0.2649
  901MOL0     C24232   5.517   8.239   5.267 -0.2619  0.3648 -1.1075
  901MOL0     C24233   5.603   8.278   5.372  0.3663 -0.4380  0.6059
  901MOL0     C24234   5.585   8.225   5.498  1.1497  0.0260  0.7195
  901MOL0     C24235   5.470   8.151   5.530  0.5835  0.0940  0.5443
  901MOL0     O24236   5.447   8.111   5.657  0.7529  0.0049  0.3799
  901MOL0     C24237   5.450   7.969   5.683  0.1356 -0.0814  0.6475
  901MOL0     C24238   5.505   7.941   5.829  0.5595  0.3012 -0.0680
  901MOL0     C24239   5.643   7.992   5.862  0.2528 -0.4059  0.1356
  901MOL0     C24240   5.766   7.910   5.796  0.3376 -0.3024  0.3824
  901MOL0     C24241   5.802   7.998   5.672 -0.5635  0.5941  0.4294
  901MOL0     C24242   5.917   7.930   5.616  0.3410  0.0101  0.1172
  901MOL0     C24243   5.956   7.995   5.481 -0.3928  0.1713 -0.9362
  901MOL0     C24244   6.080   7.915   5.438 -0.7740 -0.3943  0.9205
  901MOL0    Cl24245   6.221   7.961   5.558  0.1951 -0.5239  1.0206
  901MOL0     C24246   5.386   8.104   5.430 -0.4593 -0.1996  0.1802
  901MOL0     C24247   5.411   8.145   5.296  1.1140  0.0607 -0.8269
  901MOL0     O24248   5.620   8.087   5.070  0.3439 -0.0533  0.3549
  901MOL0     C24249   5.517   8.348   4.865 -0.0628 -1.2927  0.8192
  901MOL0     C24250   5.512   8.382   4.734 -0.5672  0.2305 -0.5619
  901MOL0     N24251   5.933   8.572   4.011  0.1438  0.8665  0.0934
  901MOL0     N24252   5.989   8.571   3.896 -0.9823  0.5053  0.1637
  901MOL0     C24253   5.022   8.363   3.331  0.3684 -0.6551 -0.2258
  901MOL0     C24254   4.889   8.397   3.334 -0.2735  0.5957  0.2479
  901MOL0     C24255   4.456   8.363   3.329  1.8844  0.1102  0.4030
  901MOL0     C24256   4.440   8.492   3.279  0.7131 -0.6235 -0.2397
  901MOL0     C24257   4.310   8.548   3.265  0.1645 -0.1203  0.9887
  901MOL0     C24258   4.193   8.475   3.293 -0.2614  0.1100 -0.1599
  901MOL0     O24259   4.076   8.542   3.273 -0.4445 -0.4629  0.1657
  901MOL0     C24260   3.958   8.477   3.331 -0.5731  0.1046 -0.3378
  901MOL0     C24261   3.845   8.561   3.275 -0.7835 -0.3547 -0.0219
  901MOL0     C24262   3.809   8.521   3.131  0.5317 -0.7282  0.7740
  901MOL0     C24263   3.677   8.593   3.085 -1.1288  0.0503 -0.3003
  901MOL0     C24264   3.555   8.510   3.112  0.2367 -0.6139 -0.5504
  901MOL0     C24265   3.460   8.438   3.134 -0.9987 -0.4680  0.4077
  901MOL0     C24266   4.209   8.335   3.327 -0.3508 -0.1273  0.0462
  901MOL0     C24267   4.340   8.276   3.348 -0.1861 -0.9413  0.7427
  901MOL0     C24268   4.345   8.129   3.387  0.1438 -0.6199 -0.8540
  901MOL0     H24269   4.796   8.232   3.609 -4.2232 -1.4687 -2.7289
  901MOL0     H24270   5.045   8.155   3.596  1.9813 -0.1888 -0.8770
  901MOL0     H24271   5.274   8.322   3.222 -4.0430 -1.4563 -2.0307
  901MOL0     H24272   5.256   8.146   3.226 -3.5474  0.5088  0.4627
  901MOL0     H24273   5.436   8.130   3.408 -0.6040 -1.7402 -0.9618
  901MOL0     H24274   5.478   8.169   3.234 -1.1619 -3.5529  0.2566
  901MOL0     H24275   5.503   8.410   3.296  0.7680 -0.7577 -0.2415
  901MOL0     H24276   5.458   8.377   3.464 -0.9042  1.7307 -1.5348
  901MOL0     H24277   5.658   8.221   3.494 -2.8580 -0.3797  1.0688
  901MOL0     H24278   5.699   8.259   3.322  1.1236  1.5661 -0.4530
  901MOL0     H24279   5.690   8.495   3.517  1.1725 -0.5173  2.1948
  901MOL0     H24280   5.782   8.465   3.372 -0.4422 -0.4851 -1.1542
  901MOL0     H24281   5.815   8.318   3.641 -0.0564  2.8596  1.4457
  901MOL0     H24282   5.910   8.284   3.494  2.1256  0.3004  1.4212
  901MOL0     H24283   5.980   8.502   3.463 -0.9766  2.1027  0.0414
  901MOL0     H24284   6.054   8.413   3.607 -1.6368 -0.0261  1.4459
  901MOL0     H24285   6.006   8.664   3.644 -0.4118  1.7061  0.6657
  901MOL0     H24286   5.842   8.623   3.604  0.8205 -0.0462 -0.8072
  901MOL0     H24287   5.694   8.474   3.790 -0.1311 -2.3229  0.9889
  901MOL0     H24288   5.613   8.433   4.026  1.7495 -1.0644  0.7117
  901MOL0     H24289   5.632   8.595   4.098  0.6194  0.1491  0.4354
  901MOL0     H24290   5.806   8.365   4.183  2.3308  0.8941  1.8674
  901MOL0     H24291   5.795   8.523   4.252  1.5583 -0.1052 -1.8397
  901MOL0     H24292   5.568   8.516   4.330  2.5718 -0.1230  2.4024
  901MOL0     H24293   5.528   8.366   4.239  0.1023 -1.1538  0.1718
  901MOL0     H24294   5.656   8.223   4.384 -2.8734 -1.0354  0.8850
  901MOL0     H24295   5.741   8.358   4.468  0.4549 -1.4363 -1.1625
  901MOL0     H24296   5.758   8.177   4.609 -0.6934 -2.0106 -0.1901
  901MOL0     H24297   5.852   8.104   4.938  2.6160  2.0694 -1.9812
  901MOL0     H24298   5.888   8.095   4.768  0.3778 -1.0377 -0.0030
  901MOL0     H24299   5.762   7.984   4.829 -2.0799 -0.0208  2.7758
  901MOL0     H24300   5.686   8.344   5.351 -1.7939  2.4034  0.5113
  901MOL0     H24301   5.641   8.259   5.585  2.9858  0.2837 -0.5158
  901MOL0     H24302   5.350   7.926   5.684  0.5911 -1.3199 -1.2128
  901MOL0     H24303   5.512   7.921   5.606 -1.5674  0.5345 -1.1719
  901MOL0     H24304   5.442   7.992   5.902 -0.0950 -1.5276  0.6906
  901MOL0     H24305   5.500   7.833   5.846  1.8053  0.4963  1.8884
  901MOL0     H24306   5.659   7.987   5.970  0.4214  1.7986  0.2645
  901MOL0     H24307   5.647   8.100   5.843 -2.9198  0.2449  2.3551
  901MOL0     H24308   5.743   7.809   5.762 -0.1210 -0.0707 -0.0159
  901MOL0     H24309   5.843   7.911   5.874  0.9365  0.7190 -0.1918
  901MOL0     H24310   5.714   7.987   5.608 -1.0000  1.1813  0.9301
  901MOL0     H24311   5.818   8.104   5.691  0.7525  0.3120  1.0206
  901MOL0     H24312   5.884   7.828   5.596 -1.6535  1.2144 -3.5661
  901MOL0     H24313   6.003   7.932   5.684  0.4562  4.0968  0.1161
  901MOL0     H24314   5.983   8.100   5.495  1.3912 -0.4231  0.4569
  901MOL0     H24315   5.887   7.978   5.397  0.1276 -1.0605 -1.1318
  901MOL0     H24316   6.112   7.939   5.336  1.3766 -2.0234  1.1672
  901MOL0     H24317   6.068   7.807   5.445  1.7178 -0.8335 -0.5175
  901MOL0     H24318   5.294   8.053   5.455 -0.7089  0.0657 -0.1888
  901MOL0     H24319   5.341   8.104   5.223 -0.9736  0.8755  0.6250
  901MOL0     H24320   5.462   8.410   4.936 -2.4847  1.2536 -2.8786
  901MOL0     H24321   5.443   8.456   4.695 -0.3191  1.9839  2.1041
  901MOL0     H24322   5.073   8.402   3.244 -1.6768 -3.4263 -2.8664
  901MOL0     H24323   4.844   8.455   3.255 -2.1781 -0.2209  0.6804
  901MOL0     H24324   4.529   8.554   3.267 -0.0787  1.0347  1.7092
  901MOL0     H24325   4.294   8.650   3.232 -0.1769 -1.2349 -2.6970
  901MOL0     H24326   3.932   8.383   3.283 -4.9057  0.9944 -0.1469
  901MOL0     H24327   3.961   8.469   3.440  1.9680 -0.9352 -0.4287
  901MOL0     H24328   3.870   8.666   3.290 -1.1927  0.0063 -1.6444
  901MOL0     H24329   3.760   8.548   3.342 -0.7538  0.0623  0.0981
  901MOL0     H24330   3.888   8.543   3.057 -1.8490 -1.1287 -2.0721
  901MOL0     H24331   3.801   8.413   3.121  1.3291 -0.9928  2.6909
  901MOL0     H24332   3.682   8.600   2.976  0.1756  1.2676 -0.1890
  901MOL0     H24333   3.654   8.688   3.133  1.9518  2.7250 -3.5452
  901MOL0     H24334   3.386   8.364   3.158  1.3322 -2.1430  3.1190
  901MOL0     H24335   4.125   8.268   3.342 -0.6728 -0.3107 -2.2569
  901MOL0     H24336   4.245   8.099   3.420  0.0289  0.4077 -0.2070
  901MOL0     H24337   4.374   8.070   3.300  1.1647 -0.5475 -0.5663
  901MOL0     H24338   4.420   8.113   3.464 -1.5730  0.5782  1.1884
  902MOL0     O24339   5.532   2.910   4.617 -0.0652 -0.0166 -0.0301
  902MOL0     C24340   5.492   2.835   4.525 -1.5050 -0.2387  0.4239
  902MOL0     O24341   5.565   2.722   4.485  0.3639 -0.5500 -0.2696
  902MOL0     C24342   5.693   2.696   4.531  0.9226 -1.0502 -0.0419
  902MOL0     C24343   5.727   2.564   4.550  0.1764  1.0005 -0.1986
  902MOL0     C24344   5.861   2.526   4.574 -0.1683  0.2254 -0.2362
  902MOL0     C24345   5.959   2.623   4.582  0.2397 -0.8845  0.5946
  902MOL0     O24346   6.089   2.576   4.585 -0.0502 -0.2255  0.3249
  902MOL0     C24347   6.198   2.666   4.548  0.5021  0.2413 -1.3196
  902MOL0     C24348   6.329   2.583   4.535  0.3345  0.6472 -0.8578
  902MOL0     C24349   6.361   2.521   4.670  0.2228 -0.2170 -0.5366
  902MOL0     C24350   6.492   2.433   4.671 -0.3669  0.2041 -0.2007
  902MOL0     C24351   6.627   2.516   4.690 -1.2102 -0.2625  0.1506
  902MOL0     C24352   6.747   2.429   4.664 -0.0094 -0.4512 -0.0763
  902MOL0     C24353   6.782   2.412   4.516  0.1749  0.5590 -0.1424
  902MOL0     C24354   6.798   2.530   4.431 -0.3158  0.8057  0.5579
  902MOL0     N24355   6.888   2.491   4.320 -0.5625  0.7877 -0.1804
  902MOL0     C24356   6.853   2.410   4.214 -0.4334 -0.1887 -0.8613
  902MOL0     C24357   6.968   2.397   4.135 -0.5355  0.1854  0.2194
  902MOL0     C24358   6.983   2.297   4.021 -1.0049 -0.2231  0.0700
  902MOL0     C24359   7.133   2.266   3.999  0.3142  0.7787 -0.0322
  902MOL0     C24360   7.150   2.143   3.905 -0.2642  1.0617  0.2750
  902MOL0     C24361   7.294   2.109   3.891  0.4091 -0.3621  0.1753
  902MOL0     O24362   7.308   1.983   3.824  0.4575 -0.1899 -0.0229
  902MOL0     C24363   7.434   1.947   3.781 -0.4639  0.4229 -1.0051
  902MOL0     C24364   7.443   1.866   3.679 -0.5612  1.3079 -0.0914
  902MOL0     C24365   7.564   1.815   3.628 -0.0922  0.7764 -0.2572
  902MOL0     C24366   7.541   1.725   3.501 -0.4911 -0.6929 -0.6996
  902MOL0     C24367   7.688   1.857   3.687 -0.6223 -0.1892 -0.3246
  902MOL0     C24368   7.825   1.819   3.635 -0.1037  0.0715  0.1473
  902MOL0     O24369   7.927   1.900   3.675  0.7056 -0.1391  0.0647
  902MOL0     C24370   8.051   1.885   3.619 -1.3396 -0.8820 -0.6415
  902MOL0     C24371   8.068   1.874   3.481  0.3235 -0.0216 -0.1105
  902MOL0     C24372   8.197   1.857   3.437 -0.3365  0.4941 -0.3491
  902MOL0     C24373   8.305   1.861   3.525 -0.6602 -0.0720  0.1626
  902MOL0     O24374   8.426   1.845   3.468  0.5526 -0.1538  0.1261
  902MOL0     C24375   8.532   1.915   3.530  0.7385 -0.2618  0.4656
  902MOL0     C24376   8.671   1.871   3.477 -0.0404 -0.0828 -0.0610
  902MOL0     C24377   8.780   1.886   3.577 -1.4745 -0.3220 -0.0754
  902MOL0     C24378   8.810   2.038   3.593  0.3810  0.3551  0.8348
  902MOL0     C24379   8.946   2.073   3.646  0.0744  0.0211  0.1491
  902MOL0     C24380   9.053   2.087   3.539  1.3031  0.1852  0.6337
  902MOL0     C24381   9.185   2.141   3.590  0.6755  0.7773  0.0100
  902MOL0     C24382   9.298   2.048   3.603 -0.2273  0.8190  0.2063
  902MOL0    Cl24383   9.419   2.119   3.725 -0.0496  0.5439  0.0799
  902MOL0     C24384   8.287   1.869   3.665  0.5965  0.3973  0.3832
  902MOL0     C24385   8.158   1.884   3.708  0.5494 -0.4215 -0.3382
  902MOL0     O24386   7.840   1.722   3.559  0.1295  0.7080 -0.9855
  902MOL0     C24387   7.683   1.943   3.792  0.9466  0.3701 -0.0292
  902MOL0     C24388   7.559   1.988   3.841  0.1988  0.2162  0.3344
  902MOL0     N24389   7.065   2.477   4.184 -0.4879  0.3055  0.9646
  902MOL0     N24390   7.017   2.529   4.296  0.0412  0.2113  0.1377
  902MOL0     C24391   5.931   2.756   4.549  1.3242 -0.3232 -0.1575
  902MOL0     C24392   5.798   2.791   4.528 -0.2119 -0.4005  0.2255
  902MOL0     C24393   5.351   2.831   4.457  0.1632  0.2910 -0.6707
  902MOL0     C24394   5.335   2.774   4.329 -0.2293 -0.0679  0.3449
  902MOL0     C24395   5.218   2.780   4.258 -0.3666 -0.4987 -0.8175
  902MOL0     C24396   5.099   2.833   4.309 -0.5153  0.3884 -0.0861
  902MOL0     O24397   4.980   2.827   4.242  0.1652 -0.2841 -0.4275
  902MOL0     C24398   4.980   2.823   4.096  0.6169 -0.6892  0.1287
  902MOL0     C24399   4.839   2.860   4.049  0.5687 -1.0662  0.2179
  902MOL0     C24400   4.799   3.005   4.084 -1.1524  0.6669 -0.3680
  902MOL0     C24401   4.862   3.105   3.993  0.0057 -0.1512  0.3005
  902MOL0     C24402   4.776   3.122   3.873 -0.5479  0.2811 -0.2797
  902MOL0     C24403   4.712   3.143   3.776  0.2680 -0.0178  0.7555
  902MOL0     C24404   5.111   2.891   4.437 -0.1980  0.7469 -0.2456
  902MOL0     C24405   5.234   2.890   4.505  0.8473 -0.1116  0.3676
  902MOL0     C24406   5.223   2.944   4.659 -0.0603  0.0738  0.0655
  902MOL0     H24407   5.647   2.491   4.542 -0.2113  1.3128  0.6499
  902MOL0     H24408   5.887   2.420   4.571  1.4539  0.6103 -1.3731
  902MOL0     H24409   6.214   2.741   4.625  1.7268 -3.0805  1.9620
  902MOL0     H24410   6.170   2.709   4.451 -3.0684  1.1655 -0.0506
  902MOL0     H24411   6.314   2.503   4.462  2.2482  0.2515 -0.8709
  902MOL0     H24412   6.409   2.650   4.501  0.0319  0.6258 -1.6372
  902MOL0     H24413   6.366   2.600   4.746  2.5457 -0.1235 -0.7337
  902MOL0     H24414   6.280   2.450   4.690 -1.6671  1.9483 -0.0932
  902MOL0     H24415   6.493   2.361   4.754  3.2299  1.7712  1.3022
  902MOL0     H24416   6.494   2.386   4.572 -1.2473  0.6159 -0.4222
  902MOL0     H24417   6.635   2.546   4.795 -0.3808  0.7961 -0.1953
  902MOL0     H24418   6.635   2.605   4.628 -0.2490 -2.4058 -2.9977
  902MOL0     H24419   6.839   2.468   4.708  0.4167  0.2203 -1.5022
  902MOL0     H24420   6.733   2.327   4.703 -2.6745 -0.8153 -1.7462
  902MOL0     H24421   6.715   2.350   4.457  0.5898  0.7492 -0.8332
  902MOL0     H24422   6.877   2.357   4.520 -0.6980 -0.9368  1.2172
  902MOL0     H24423   6.699   2.564   4.398 -0.3475 -0.3868 -0.6566
  902MOL0     H24424   6.841   2.611   4.491  1.0256 -0.8854  1.9991
  902MOL0     H24425   6.757   2.369   4.186  0.6594 -2.1282 -2.0103
  902MOL0     H24426   6.937   2.330   3.928  0.4830 -4.9657 -2.7259
  902MOL0     H24427   6.933   2.202   4.043 -0.0999 -0.6298  0.4230
  902MOL0     H24428   7.187   2.352   3.959 -0.0818 -0.0239 -2.4637
  902MOL0     H24429   7.182   2.234   4.092 -0.5967 -2.3513 -0.5154
  902MOL0     H24430   7.100   2.058   3.953 -1.0633  0.8987 -0.8239
  902MOL0     H24431   7.103   2.147   3.807 -0.8353 -3.1313  0.1780
  902MOL0     H24432   7.337   2.186   3.825 -1.0611 -0.9597 -1.5526
  902MOL0     H24433   7.337   2.117   3.992 -0.3200 -1.0266  0.5447
  902MOL0     H24434   7.355   1.827   3.628  0.3964  0.7821 -1.3963
  902MOL0     H24435   7.485   1.776   3.422 -0.8772  0.2991  0.1935
  902MOL0     H24436   7.486   1.638   3.536  2.6579 -3.6914 -2.5509
  902MOL0     H24437   7.637   1.690   3.461  1.7547  2.2268  1.6439
  902MOL0     H24438   7.988   1.883   3.409  0.9113 -1.5753 -1.0052
  902MOL0     H24439   8.212   1.848   3.330 -1.8513  1.1777 -0.6426
  902MOL0     H24440   8.521   2.024   3.539  2.0846 -0.2164  2.2016
  902MOL0     H24441   8.528   1.879   3.634 -0.8328  0.4327  0.6767
  902MOL0     H24442   8.653   1.772   3.434 -5.4379 -0.0136  1.2540
  902MOL0     H24443   8.700   1.929   3.389  0.6036 -0.4469 -0.0951
  902MOL0     H24444   8.860   1.831   3.527 -0.9739  2.0737 -2.1097
  902MOL0     H24445   8.760   1.842   3.675 -1.8699  1.8154  0.8395
  902MOL0     H24446   8.736   2.068   3.667  0.4556 -1.4730  1.7093
  902MOL0     H24447   8.786   2.093   3.501  2.8711  2.4278  1.3111
  902MOL0     H24448   8.928   2.170   3.695 -1.6130 -0.4038  0.4198
  902MOL0     H24449   8.969   1.999   3.723 -1.1026  2.0166  2.5535
  902MOL0     H24450   9.015   2.156   3.464  0.5744 -0.9795 -0.0983
  902MOL0     H24451   9.072   1.990   3.492 -0.6255  0.1176 -0.0865
  902MOL0     H24452   9.172   2.182   3.691 -1.1306  0.3510 -0.0204
  902MOL0     H24453   9.207   2.222   3.520  0.0238 -1.3731 -2.8761
  902MOL0     H24454   9.338   2.009   3.509 -2.6768  2.6856 -1.7309
  902MOL0     H24455   9.257   1.955   3.645  2.3316 -0.5460 -0.1339
  902MOL0     H24456   8.367   1.852   3.736  0.0362 -2.5397  0.4446
  902MOL0     H24457   8.141   1.883   3.816 -1.3139  0.3056 -0.5869
  902MOL0     H24458   7.770   1.977   3.846  0.6376 -1.1599  1.5440
  902MOL0     H24459   7.552   2.046   3.933 -1.3509 -1.6427  1.4573
  902MOL0     H24460   6.014   2.825   4.555  1.7177 -0.5363 -2.3536
  902MOL0     H24461   5.776   2.894   4.501  0.1974 -0.5291 -0.6012
  902MOL0     H24462   5.415   2.737   4.265  1.1842  0.9024  1.4759
  902MOL0     H24463   5.210   2.725   4.165 -0.8791  0.0919 -1.1280
  902MOL0     H24464   5.048   2.896   4.052  0.6610 -0.3960  0.6750
  902MOL0     H24465   5.000   2.719   4.068 -2.4201 -1.4467  0.4268
  902MOL0     H24466   4.768   2.799   4.107 -2.2290  2.5926  1.0025
  902MOL0     H24467   4.828   2.845   3.941 -1.6584 -3.2762  0.6415
  902MOL0     H24468   4.690   3.016   4.090 -1.3008 -1.1064  0.7092
  902MOL0     H24469   4.835   3.013   4.187  2.5203  0.8280 -1.5199
  902MOL0     H24470   4.968   3.078   3.980  0.1438 -0.6616  2.1982
  902MOL0     H24471   4.865   3.205   4.037 -3.7414  1.0908 -1.8344
  902MOL0     H24472   4.646   3.170   3.695  1.7475 -1.4068 -0.9975
  902MOL0     H24473   5.018   2.912   4.489  0.7389 -0.1673  1.9169
  902MOL0     H24474   5.320   2.960   4.708  0.0506 -1.4480  0.3937
  902MOL0     H24475   5.170   3.039   4.671  0.0391  0.3559 -1.5508
  902MOL0     H24476   5.173   2.860   4.707 -0.7715  0.0626 -0.6755
  903MOL0     O24477   0.144   8.347   3.163 -0.7070  0.2612  0.6848
  903MOL0     C24478   0.034   8.387   3.203  0.8423  0.2470  0.5192
  903MOL0     O24479  -0.083   8.372   3.134  0.5470  0.3329  0.0764
  903MOL0     C24480  -0.081   8.365   2.997  1.2292  0.7004  0.3646
  903MOL0     C24481   0.016   8.433   2.915 -0.4771  0.5896  0.2859
  903MOL0     C24482   0.002   8.440   2.776 -0.5644  0.0908  1.0019
  903MOL0     C24483  -0.101   8.370   2.711  0.0470 -1.0650 -0.2733
  903MOL0     O24484  -0.117   8.372   2.572 -0.0663 -0.5882  0.0457
  903MOL0     C24485  -0.057   8.247   2.521  0.3088  0.2313 -0.0833
  903MOL0     C24486  -0.029   8.263   2.375  0.4148 -0.0994 -1.0275
  903MOL0     C24487   0.114   8.320   2.349  0.4442  1.0946  0.6014
  903MOL0     C24488   0.135   8.356   2.209  0.3832  1.0192  0.4710
  903MOL0     C24489   0.277   8.363   2.174  0.1295  0.0939  0.2160
  903MOL0     C24490   0.354   8.227   2.177 -0.0479 -0.7030 -0.4617
  903MOL0     C24491   0.499   8.253   2.132 -0.1507  0.1176 -0.0929
  903MOL0     C24492   0.575   8.132   2.080  0.0262 -0.8001 -0.0042
  903MOL0     N24493   0.722   8.163   2.087  0.1868  0.3504  0.7508
  903MOL0     C24494   0.776   8.277   2.030 -0.4370  0.5827 -0.0555
  903MOL0     C24495   0.905   8.264   2.060 -0.3928  0.0060 -0.2895
  903MOL0     C24496   1.014   8.353   2.016 -1.1832 -0.0433 -1.2290
  903MOL0     C24497   1.140   8.282   1.960  0.4454  0.4733 -0.4799
  903MOL0     C24498   1.244   8.379   1.914  0.4769  0.2657 -0.2421
  903MOL0     C24499   1.374   8.312   1.881 -0.0279  0.6532  0.2542
  903MOL0     O24500   1.464   8.412   1.865 -0.2758  0.2998  0.2928
  903MOL0     C24501   1.578   8.384   1.789  0.3178 -0.3110 -0.1366
  903MOL0     C24502   1.653   8.505   1.761  0.5887  0.9619  0.1880
  903MOL0     C24503   1.789   8.499   1.715  1.0137  0.7003 -0.2725
  903MOL0     C24504   1.857   8.631   1.699  1.2229  0.2217  0.0863
  903MOL0     C24505   1.846   8.365   1.707 -0.4487  0.1020 -0.2363
  903MOL0     C24506   1.995   8.345   1.680 -0.4228  1.0120 -0.7471
  903MOL0     O24507   2.068   8.438   1.617 -0.2006  0.0999  0.1424
  903MOL0     C24508   2.208   8.447   1.637 -0.3904 -0.2208 -0.3258
  903MOL0     C24509   2.288   8.334   1.608 -1.1652 -0.2242  0.0469
  903MOL0     C24510   2.431   8.346   1.627  0.3053  0.0188 -0.2966
  903MOL0     C24511   2.495   8.468   1.668 -0.8100  0.1465  0.2017
  903MOL0     O24512   2.635   8.486   1.665  0.0978  0.4253 -0.6806
  903MOL0     C24513   2.721   8.405   1.585  0.1257  0.0238 -0.4542
  903MOL0     C24514   2.810   8.310   1.663  0.3615 -0.3608 -0.2213
  903MOL0     C24515   2.953   8.364   1.648  0.0031  0.1249  1.6474
  903MOL0     C24516   2.997   8.481   1.739 -0.0781  0.0987  0.1547
  903MOL0     C24517   3.138   8.533   1.721  0.0570 -0.0903 -0.1626
  903MOL0     C24518   3.132   8.679   1.770 -0.4429 -0.0501  0.3194
  903MOL0     C24519   3.270   8.745   1.776 -0.1494  0.5356 -0.3596
  903MOL0     C24520   3.269   8.858   1.885 -0.3260  0.4987  0.6145
  903MOL0    Cl24521   3.395   8.973   1.857 -0.6882  0.1442 -0.3736
  903MOL0     C24522   2.409   8.570   1.703 -0.2860  0.0743  0.0077
  903MOL0     C24523   2.267   8.561   1.688 -0.4801 -0.5825 -0.4797
  903MOL0     O24524   2.043   8.236   1.728  0.1474  0.1164 -0.1349
  903MOL0     C24525   1.768   8.241   1.733  0.4159  0.9021 -0.2139
  903MOL0     C24526   1.635   8.260   1.766 -0.6570 -0.0286  0.2323
  903MOL0     N24527   0.925   8.154   2.138 -0.0293 -0.0748 -0.2124
  903MOL0     N24528   0.814   8.094   2.154 -0.0910  0.2613 -0.0518
  903MOL0     C24529  -0.201   8.302   2.792  0.3778  1.0637 -0.0648
  903MOL0     C24530  -0.189   8.310   2.932 -0.3577  0.5097  0.3180
  903MOL0     C24531   0.030   8.464   3.328 -0.0648 -0.7386  0.6649
  903MOL0     C24532  -0.070   8.564   3.337 -0.6838  0.4150 -0.1840
  903MOL0     C24533  -0.085   8.632   3.457  0.6090 -0.7640 -0.0685
  903MOL0     C24534  -0.006   8.606   3.564 -0.5722  0.6123  0.4680
  903MOL0     O24535  -0.032   8.678   3.676 -0.8845  0.8615 -0.2599
  903MOL0     C24536  -0.066   8.610   3.800 -0.5087 -0.4740 -0.2707
  903MOL0     C24537  -0.220   8.601   3.812 -0.8293  0.7365 -0.2259
  903MOL0     C24538  -0.301   8.735   3.785  0.3534 -0.5842  0.2129
  903MOL0     C24539  -0.451   8.719   3.785 -0.9767  0.3541 -0.6502
  903MOL0     C24540  -0.510   8.684   3.913 -0.6981 -0.7387  0.6863
  903MOL0     C24541  -0.548   8.676   4.024 -0.4120 -0.1289  0.0522
  903MOL0     C24542   0.090   8.509   3.559  0.4258 -0.7878  0.2955
  903MOL0     C24543   0.105   8.435   3.440 -0.2981  0.3768  0.5129
  903MOL0     C24544   0.197   8.312   3.438 -0.8817  0.7119 -0.0233
  903MOL0     H24545   0.086   8.495   2.969 -0.9308  1.4041 -0.0506
  903MOL0     H24546   0.065   8.504   2.716 -1.2365 -0.0818  0.0902
  903MOL0     H24547  -0.121   8.160   2.537  3.7246 -2.0594  2.7208
  903MOL0     H24548   0.033   8.224   2.578 -0.4379  0.3321  1.1559
  903MOL0     H24549  -0.030   8.167   2.322  1.7940  0.3703 -1.9546
  903MOL0     H24550  -0.111   8.321   2.333 -0.5240 -1.2284 -0.8270
  903MOL0     H24551   0.127   8.412   2.407  1.4934  1.9493 -0.9226
  903MOL0     H24552   0.180   8.240   2.382 -1.3641 -0.5660  0.4167
  903MOL0     H24553   0.095   8.280   2.142  1.4337  0.6077  0.3012
  903MOL0     H24554   0.079   8.447   2.187 -1.1163 -0.2265 -1.1379
  903MOL0     H24555   0.326   8.424   2.251 -0.0188 -1.9602  2.0493
  903MOL0     H24556   0.290   8.400   2.072  1.3485 -0.7823  0.0205
  903MOL0     H24557   0.352   8.177   2.274  4.3745  0.7963  0.6471
  903MOL0     H24558   0.310   8.156   2.106  1.0897 -0.3952 -1.5060
  903MOL0     H24559   0.556   8.304   2.211  0.8854  0.9150 -1.3161
  903MOL0     H24560   0.499   8.325   2.049 -3.2079 -0.1314 -0.4042
  903MOL0     H24561   0.545   8.046   2.140 -2.1105  1.2668  2.0876
  903MOL0     H24562   0.546   8.095   1.981 -0.8507 -0.1556 -0.0081
  903MOL0     H24563   0.719   8.337   1.960  1.6818 -0.0760 -2.4937
  903MOL0     H24564   1.052   8.418   2.095  0.2535 -0.9478 -1.1356
  903MOL0     H24565   0.974   8.416   1.936 -0.0423  0.9773 -1.0138
  903MOL0     H24566   1.179   8.218   2.039 -0.3429  2.6518  1.8158
  903MOL0     H24567   1.115   8.213   1.879  0.1995 -1.1128  0.9037
  903MOL0     H24568   1.213   8.431   1.823  2.5148  0.8459 -0.6369
  903MOL0     H24569   1.262   8.451   1.994 -1.9980 -0.2049  0.8383
  903MOL0     H24570   1.410   8.256   1.969  3.0933  0.9447 -0.7021
  903MOL0     H24571   1.365   8.239   1.800 -0.9864  0.5442  0.4425
  903MOL0     H24572   1.611   8.602   1.785  2.5717  1.8402  0.3244
  903MOL0     H24573   1.843   8.674   1.600 -1.6878  1.3761  0.9109
  903MOL0     H24574   1.966   8.633   1.705  1.2624  2.3273 -0.5650
  903MOL0     H24575   1.808   8.711   1.755 -1.3352 -0.3357 -1.2345
  903MOL0     H24576   2.260   8.248   1.549 -3.3632  0.2058  0.3609
  903MOL0     H24577   2.482   8.257   1.592  0.0837 -0.2454  0.0382
  903MOL0     H24578   2.668   8.341   1.513 -0.3493 -0.4471  0.2917
  903MOL0     H24579   2.792   8.468   1.531  0.8861  0.3929  0.9523
  903MOL0     H24580   2.785   8.301   1.769 -0.2336  0.1939 -0.3071
  903MOL0     H24581   2.788   8.211   1.623 -1.4783  0.9639 -2.8123
  903MOL0     H24582   2.978   8.389   1.545 -2.7433  1.3056  1.2066
  903MOL0     H24583   3.018   8.277   1.664 -0.2407  0.0070  2.0025
  903MOL0     H24584   2.980   8.464   1.845  0.3696 -0.7469  0.0972
  903MOL0     H24585   2.931   8.565   1.713 -0.7169  0.4921  2.8107
  903MOL0     H24586   3.206   8.477   1.785 -1.8315 -2.1163  0.2162
  903MOL0     H24587   3.177   8.525   1.620  0.9524  1.3894  0.0340
  903MOL0     H24588   3.074   8.676   1.862 -2.8855 -1.2459 -1.1574
  903MOL0     H24589   3.065   8.744   1.713 -1.7395 -0.3756  1.4361
  903MOL0     H24590   3.288   8.778   1.673  0.6223 -0.4748 -0.5700
  903MOL0     H24591   3.343   8.666   1.797 -1.1267  0.4102  3.1535
  903MOL0     H24592   3.274   8.803   1.980 -4.0888  0.6242  1.0302
  903MOL0     H24593   3.172   8.908   1.882 -0.4556  0.2188 -1.5488
  903MOL0     H24594   2.465   8.653   1.746 -0.4265  0.6188 -0.8494
  903MOL0     H24595   2.213   8.649   1.722  0.0437 -1.1420  1.9796
  903MOL0     H24596   1.811   8.142   1.742 -3.3797 -0.8907  0.1679
  903MOL0     H24597   1.580   8.173   1.800 -2.3124  0.3334 -1.3201
  903MOL0     H24598  -0.284   8.243   2.754  0.1721  1.6365 -0.5080
  903MOL0     H24599  -0.260   8.259   2.996  0.1373  1.3186  1.5590
  903MOL0     H24600  -0.119   8.586   3.242  0.0327 -1.9424 -1.1506
  903MOL0     H24601  -0.160   8.710   3.460  0.6723 -0.6190 -1.4198
  903MOL0     H24602  -0.020   8.511   3.801  2.8065  0.9478  0.3031
  903MOL0     H24603  -0.034   8.670   3.885  0.2726 -0.3944 -0.6110
  903MOL0     H24604  -0.244   8.551   3.906  1.5926 -0.9172 -0.3853
  903MOL0     H24605  -0.245   8.521   3.742  2.4459 -3.8988  3.2338
  903MOL0     H24606  -0.264   8.805   3.861 -0.7009  1.5293 -1.1398
  903MOL0     H24607  -0.261   8.780   3.694 -1.9421  1.2602  0.0339
  903MOL0     H24608  -0.478   8.657   3.699  1.0247 -0.7886 -0.5004
  903MOL0     H24609  -0.489   8.820   3.764  0.8789  1.1765 -0.2901
  903MOL0     H24610  -0.583   8.670   4.125 -1.7282 -1.2581 -0.4423
  903MOL0     H24611   0.155   8.506   3.645  1.7074 -0.1368 -0.6128
  903MOL0     H24612   0.136   8.235   3.390  2.1180 -1.3002 -0.9080
  903MOL0     H24613   0.287   8.306   3.377 -1.4714 -2.9609 -0.7717
  903MOL0     H24614   0.218   8.278   3.540 -1.8354 -1.4058 -0.4732
  904MOL0     O24615   8.587   3.338   2.155  0.4365  0.1372 -0.3609
  904MOL0     C24616   8.618   3.456   2.179  0.1517  0.5977 -0.1781
  904MOL0     O24617   8.542   3.562   2.146 -0.1452  0.2785 -0.0920
  904MOL0     C24618   8.419   3.529   2.086  0.6224 -0.9979  0.8339
  904MOL0     C24619   8.305   3.524   2.162 -0.0570  0.5721 -0.2862
  904MOL0     C24620   8.182   3.490   2.112  0.0126 -0.6443  0.3273
  904MOL0     C24621   8.169   3.464   1.978  0.3527 -0.0075 -0.4750
  904MOL0     O24622   8.051   3.469   1.911 -0.6864  0.4524  0.7873
  904MOL0     C24623   7.953   3.569   1.951 -0.0569 -0.6070 -0.4297
  904MOL0     C24624   7.872   3.620   1.832  0.0969 -0.4071  0.2435
  904MOL0     C24625   7.743   3.699   1.865  1.0152  0.3885  0.3301
  904MOL0     C24626   7.635   3.600   1.914  1.0124  0.3981 -0.7542
  904MOL0     C24627   7.500   3.650   1.847  0.4201 -0.3775 -0.2209
  904MOL0     C24628   7.466   3.786   1.890  0.5748  0.3214  0.3519
  904MOL0     C24629   7.452   3.806   2.046 -0.0903  0.1566  1.0410
  904MOL0     C24630   7.405   3.949   2.089  0.1580  0.1973  1.0676
  904MOL0     N24631   7.497   4.056   2.047  0.0581 -0.6027  0.4955
  904MOL0     C24632   7.491   4.138   1.934  0.2103  0.9289 -1.4404
  904MOL0     C24633   7.586   4.222   1.954 -0.0295 -0.1991 -0.2923
  904MOL0     C24634   7.623   4.329   1.854  0.1351  0.1692 -0.2449
  904MOL0     C24635   7.651   4.458   1.927  0.1337  0.2170  0.6054
  904MOL0     C24636   7.725   4.558   1.838  0.0791 -0.1434  0.7371
  904MOL0     C24637   7.755   4.687   1.912  0.2927 -0.1523  0.4229
  904MOL0     O24638   7.849   4.670   2.018 -0.8210  0.0104 -0.8147
  904MOL0     C24639   7.973   4.722   1.999  0.6842  0.4755 -0.0566
  904MOL0     C24640   8.021   4.787   2.118 -0.0091 -0.4934  1.0727
  904MOL0     C24641   8.147   4.853   2.113 -0.5194  0.4583  0.1345
  904MOL0     C24642   8.187   4.928   2.233 -0.1371 -0.0237  0.3144
  904MOL0     C24643   8.224   4.851   1.997  0.1690  0.2205 -0.0565
  904MOL0     C24644   8.364   4.897   2.002  0.4891  0.2344 -0.7035
  904MOL0     O24645   8.459   4.833   2.081 -0.0115  0.7538 -0.0382
  904MOL0     C24646   8.589   4.874   2.068  0.6081  0.4101  0.6561
  904MOL0     C24647   8.636   4.970   2.158  0.9671  0.3629 -0.1453
  904MOL0     C24648   8.770   5.010   2.166 -0.2155 -0.2645 -0.0372
  904MOL0     C24649   8.857   4.951   2.081  0.6413 -0.5239  0.7331
  904MOL0     O24650   8.982   4.989   2.086 -0.7387  0.2155  0.4901
  904MOL0     C24651   9.069   5.004   1.968 -1.0301 -0.8966  1.0212
  904MOL0     C24652   9.053   5.137   1.894 -0.7194 -0.0582 -0.1250
  904MOL0     C24653   9.076   5.253   1.998  0.5857  0.2510 -0.1526
  904MOL0     C24654   9.026   5.395   1.944 -0.5015 -0.2154  0.2422
  904MOL0     C24655   8.878   5.397   1.908 -0.5884 -0.7733  0.1651
  904MOL0     C24656   8.782   5.382   2.032 -0.0298  0.5116 -0.2061
  904MOL0     C24657   8.633   5.381   1.984 -0.8840 -0.7276 -0.4964
  904MOL0     C24658   8.530   5.407   2.094 -1.1833  0.2778  0.2653
  904MOL0    Cl24659   8.552   5.344   2.255 -0.4682  0.3289 -0.0508
  904MOL0     C24660   8.814   4.845   1.997 -0.1550 -0.2955  0.1628
  904MOL0     C24661   8.677   4.805   1.985 -0.5043  0.1090 -0.5812
  904MOL0     O24662   8.380   4.990   1.924 -0.0767 -0.5334 -0.0715
  904MOL0     C24663   8.180   4.780   1.881 -0.7660  0.8579 -0.7800
  904MOL0     C24664   8.048   4.723   1.880  0.5861 -0.0147  0.3323
  904MOL0     N24665   7.661   4.195   2.064  0.1273 -0.2759 -0.1575
  904MOL0     N24666   7.607   4.093   2.116 -0.9660  0.4856  0.1241
  904MOL0     C24667   8.278   3.442   1.902 -0.0314 -0.8521  0.1851
  904MOL0     C24668   8.404   3.482   1.953 -0.2435  0.4706 -0.1682
  904MOL0     C24669   8.750   3.477   2.257  0.3791  0.0236  0.7397
  904MOL0     C24670   8.767   3.613   2.311 -0.6539  0.3748  0.3609
  904MOL0     C24671   8.888   3.652   2.370 -0.2668  0.4837 -0.7060
  904MOL0     C24672   8.992   3.559   2.395  0.6895 -0.6782  0.8748
  904MOL0     O24673   9.118   3.575   2.448  0.1227  0.2334 -0.2613
  904MOL0     C24674   9.144   3.703   2.519 -0.4388  0.6265 -0.3236
  904MOL0     C24675   9.057   3.708   2.651  0.1527 -0.2987 -0.4869
  904MOL0     C24676   9.138   3.653   2.771  1.2761 -0.1597  0.5961
  904MOL0     C24677   9.070   3.659   2.904  0.2309  0.3020 -0.4310
  904MOL0     C24678   8.938   3.595   2.912  0.1001 -0.8759 -0.3555
  904MOL0     C24679   8.841   3.532   2.931  0.3312 -0.2512 -0.6459
  904MOL0     C24680   8.962   3.426   2.354 -0.3191  0.9676  0.3250
  904MOL0     C24681   8.850   3.381   2.281  0.5961  0.2850 -0.4518
  904MOL0     C24682   8.852   3.236   2.243  0.6056 -0.1351  0.1697
  904MOL0     H24683   8.323   3.543   2.267 -0.7807 -0.9381  0.1277
  904MOL0     H24684   8.094   3.509   2.172 -0.4199  0.3899 -0.5940
  904MOL0     H24685   7.991   3.660   1.998  0.3713 -1.3511  0.7024
  904MOL0     H24686   7.883   3.521   2.021  2.0134 -0.4988  1.8227
  904MOL0     H24687   7.942   3.672   1.767  1.5752 -1.8642  0.5866
  904MOL0     H24688   7.828   3.539   1.774 -1.9063 -0.0661  1.2108
  904MOL0     H24689   7.765   3.780   1.935 -1.5755  0.5640  1.0401
  904MOL0     H24690   7.707   3.740   1.770  1.4229 -1.8488 -0.8483
  904MOL0     H24691   7.647   3.494   1.888  2.3339  0.2137  0.5231
  904MOL0     H24692   7.630   3.614   2.022  0.5515  4.4788 -1.1389
  904MOL0     H24693   7.415   3.582   1.863  0.2128  0.3518  2.1174
  904MOL0     H24694   7.512   3.649   1.738 -0.5920 -3.3914 -0.4070
  904MOL0     H24695   7.526   3.870   1.856 -0.5484  1.2453  0.5885
  904MOL0     H24696   7.371   3.815   1.844  0.6254 -0.6981 -0.4344
  904MOL0     H24697   7.551   3.805   2.092  1.1141 -2.1786 -1.3029
  904MOL0     H24698   7.386   3.730   2.087 -2.3729  1.3528 -0.2402
  904MOL0     H24699   7.308   3.978   2.046  1.5872  2.1967 -1.1238
  904MOL0     H24700   7.382   3.949   2.196 -1.0888  0.8625  0.8215
  904MOL0     H24701   7.417   4.132   1.856 -0.1759  0.6727 -1.0565
  904MOL0     H24702   7.552   4.334   1.771  0.3433  0.8247 -0.3908
  904MOL0     H24703   7.714   4.308   1.797  0.2927  3.2184 -1.2939
  904MOL0     H24704   7.555   4.502   1.953 -0.1687  0.8819 -1.4903
  904MOL0     H24705   7.717   4.443   2.013  0.9697  1.3190  0.1860
  904MOL0     H24706   7.812   4.514   1.789 -0.5340 -1.2718  0.6209
  904MOL0     H24707   7.648   4.585   1.765  1.2782  3.7386  0.7039
  904MOL0     H24708   7.796   4.756   1.838  0.3714 -0.7532 -0.1022
  904MOL0     H24709   7.665   4.733   1.955 -0.6484 -4.4014  3.7270
  904MOL0     H24710   7.965   4.789   2.211 -1.2309  1.4577  0.3678
  904MOL0     H24711   8.101   4.939   2.299  1.0360  1.0919  1.7420
  904MOL0     H24712   8.229   5.028   2.214 -1.2962  0.4122 -0.0673
  904MOL0     H24713   8.264   4.873   2.287  0.4250 -4.2253 -4.1219
  904MOL0     H24714   8.569   5.015   2.231  1.6314  0.0309  0.6756
  904MOL0     H24715   8.802   5.078   2.244 -0.7383  0.1080 -0.1402
  904MOL0     H24716   9.174   4.997   1.999 -0.8440  0.3385  0.7300
  904MOL0     H24717   9.056   4.922   1.896  0.7879  0.4781 -0.9948
  904MOL0     H24718   9.133   5.143   1.821  0.7206  5.9700  1.4106
  904MOL0     H24719   8.951   5.134   1.854 -0.1493 -1.6589 -1.5528
  904MOL0     H24720   9.184   5.259   2.016  0.6504  2.5180 -0.9637
  904MOL0     H24721   9.022   5.235   2.091 -2.9155  1.7000 -1.7107
  904MOL0     H24722   9.095   5.421   1.863 -0.4313 -1.3742 -0.0754
  904MOL0     H24723   9.045   5.467   2.024  0.9235  0.1699 -0.3986
  904MOL0     H24724   8.873   5.497   1.864  0.6887  0.7392  3.1751
  904MOL0     H24725   8.861   5.313   1.839  1.0199 -1.5424  0.6481
  904MOL0     H24726   8.799   5.463   2.104  1.8828  1.5877 -1.7777
  904MOL0     H24727   8.803   5.285   2.078  0.7392 -0.2071 -1.9857
  904MOL0     H24728   8.601   5.290   1.934 -2.1698  0.4775 -1.9728
  904MOL0     H24729   8.614   5.457   1.908 -0.9209 -1.8092 -1.5971
  904MOL0     H24730   8.428   5.384   2.060 -0.6097 -2.8119  0.3618
  904MOL0     H24731   8.531   5.516   2.103 -1.2849  0.1744  1.7936
  904MOL0     H24732   8.889   4.808   1.928 -1.5868  0.3255 -1.8107
  904MOL0     H24733   8.646   4.725   1.918  2.3430 -2.6726  1.1720
  904MOL0     H24734   8.249   4.784   1.797 -0.4436  1.4969 -0.4881
  904MOL0     H24735   8.018   4.671   1.790 -2.1103  1.3323  0.3309
  904MOL0     H24736   8.263   3.392   1.807  0.9162 -1.0276  0.1144
  904MOL0     H24737   8.489   3.475   1.886 -2.6317  0.3059 -3.4158
  904MOL0     H24738   8.692   3.689   2.290 -0.5565  0.0063 -1.4720
  904MOL0     H24739   8.899   3.753   2.407 -1.6125  0.4512 -0.1483
  904MOL0     H24740   9.250   3.705   2.547  0.3880 -2.3423 -2.7259
  904MOL0     H24741   9.122   3.791   2.458 -0.0345 -0.2757 -1.8188
  904MOL0     H24742   8.961   3.655   2.640 -0.5299  0.7581  0.2263
  904MOL0     H24743   9.031   3.812   2.674  1.6304  0.1005 -0.5731
  904MOL0     H24744   9.153   3.549   2.740 -1.1752  0.2972 -2.6057
  904MOL0     H24745   9.234   3.704   2.782 -0.7511  4.0384  0.4559
  904MOL0     H24746   9.040   3.761   2.928 -0.4521  0.1734 -0.7378
  904MOL0     H24747   9.134   3.621   2.985  3.1611  1.1697 -2.1936
  904MOL0     H24748   8.749   3.480   2.948  1.0648 -0.7294  2.7074
  904MOL0     H24749   9.047   3.358   2.359  0.1697  1.6216  1.1428
  904MOL0     H24750   8.757   3.189   2.272  1.4504 -1.2218  1.2430
  904MOL0     H24751   8.875   3.235   2.136  2.2485 -0.1791  0.5004
  904MOL0     H24752   8.927   3.180   2.299 -1.0133 -1.4951  1.0970
  905MOL0     O24753   8.283   5.819   3.995 -0.9484 -0.4552 -0.1141
  905MOL0     C24754   8.286   5.826   3.873 -0.4727 -0.1386 -0.1721
  905MOL0     O24755   8.408   5.855   3.806 -0.1385  0.5589 -0.3860
  905MOL0     C24756   8.509   5.919   3.861 -0.0823 -0.5372  0.2131
  905MOL0     C24757   8.636   5.880   3.812 -0.2678  0.3222 -1.0580
  905MOL0     C24758   8.755   5.935   3.863  0.3300 -0.4465  0.2047
  905MOL0     C24759   8.757   6.041   3.953  0.2326 -1.4727 -0.4732
  905MOL0     O24760   8.871   6.096   4.007 -0.4590 -0.0291 -0.4049
  905MOL0     C24761   8.877   6.236   4.032 -0.4658 -0.5512  0.1700
  905MOL0     C24762   9.005   6.279   4.106 -0.1566 -0.0246 -0.4305
  905MOL0     C24763   9.131   6.289   4.026  0.7440  1.4236 -0.0575
  905MOL0     C24764   9.249   6.337   4.103  0.5570 -0.7030 -0.1424
  905MOL0     C24765   9.383   6.333   4.032  0.1000 -0.5679  0.2206
  905MOL0     C24766   9.482   6.390   4.136  0.1666  0.4613  0.0864
  905MOL0     C24767   9.556   6.288   4.213 -0.0095 -0.5194 -0.9194
  905MOL0     C24768   9.688   6.358   4.263  0.5537  0.3994 -0.1400
  905MOL0     N24769   9.742   6.271   4.363 -0.5973 -0.8701  0.2826
  905MOL0     C24770   9.802   6.312   4.481 -0.8709  0.5404 -0.7719
  905MOL0     C24771   9.875   6.203   4.515 -0.2228  1.0109  0.2464
  905MOL0     C24772   9.968   6.206   4.629  0.2888  0.2050 -0.3353
  905MOL0     C24773  10.118   6.203   4.580  0.4206  0.8758  0.9355
  905MOL0     C24774  10.207   6.220   4.693 -0.1032 -0.0942  0.1940
  905MOL0     C24775  10.357   6.213   4.644 -0.4326  0.0069  0.3781
  905MOL0     O24776  10.424   6.184   4.759 -0.7072 -0.2277  0.2935
  905MOL0     C24777  10.559   6.218   4.750  0.6719  0.2334 -0.9981
  905MOL0     C24778  10.620   6.260   4.871  0.7373  0.1720  0.0978
  905MOL0     C24779  10.757   6.294   4.878 -0.3382  0.0784  0.4731
  905MOL0     C24780  10.795   6.342   5.016 -0.0428 -0.2579 -0.0256
  905MOL0     C24781  10.846   6.279   4.769  0.4019 -0.8057  0.8797
  905MOL0     C24782  11.000   6.302   4.769  0.0055  0.5648  0.7054
  905MOL0     O24783  11.060   6.281   4.644  0.9688  0.3182  0.1435
  905MOL0     C24784  11.200   6.292   4.637 -0.8308 -0.3071 -0.0668
  905MOL0     C24785  11.250   6.421   4.607 -1.1999 -0.0258  0.4085
  905MOL0     C24786  11.388   6.444   4.588  0.0801 -0.3587 -0.2379
  905MOL0     C24787  11.474   6.333   4.596 -0.3544  0.0663 -0.6419
  905MOL0     O24788  11.614   6.338   4.589  0.0170  0.5528  0.0372
  905MOL0     C24789  11.681   6.465   4.552  0.1302  0.3040  0.2823
  905MOL0     C24790  11.733   6.433   4.410  0.6717 -0.2178 -0.4659
  905MOL0     C24791  11.822   6.544   4.352  0.1642 -0.5302 -0.1447
  905MOL0     C24792  11.750   6.682   4.325  0.0116 -0.4870  0.1082
  905MOL0     C24793  11.862   6.775   4.263  0.1088 -0.4230 -0.5029
  905MOL0     C24794  11.943   6.849   4.370 -0.4881  0.2221  0.5768
  905MOL0     C24795  12.079   6.890   4.327  0.6487 -0.7541 -0.7439
  905MOL0     C24796  12.084   6.987   4.203 -0.1182 -0.4545  0.2817
  905MOL0    Cl24797  12.224   7.109   4.220 -0.1851 -0.3176 -0.1565
  905MOL0     C24798  11.424   6.208   4.627 -0.5456 -0.8795  0.4074
  905MOL0     C24799  11.288   6.181   4.635 -0.4114 -0.3058 -0.1902
  905MOL0     O24800  11.061   6.323   4.865 -0.3687  0.2267 -0.8536
  905MOL0     C24801  10.782   6.251   4.647  0.6268  1.4667  0.5153
  905MOL0     C24802  10.640   6.221   4.637 -0.2145 -1.1585  0.1234
  905MOL0     N24803   9.861   6.098   4.430  0.1768  0.1179 -0.2448
  905MOL0     N24804   9.787   6.148   4.334 -0.3119 -0.2171  0.1123
  905MOL0     C24805   8.625   6.093   3.986 -0.2306  0.5936  0.3824
  905MOL0     C24806   8.506   6.033   3.945  0.5365 -0.0198  0.3231
  905MOL0     C24807   8.160   5.807   3.799 -0.3834 -0.6586  0.8291
  905MOL0     C24808   8.151   5.857   3.668  0.1555 -0.5593 -0.0265
  905MOL0     C24809   8.041   5.838   3.578  0.8058 -1.4250  0.0644
  905MOL0     C24810   7.937   5.752   3.626  0.1560  0.2717  0.0052
  905MOL0     O24811   7.816   5.720   3.561  0.1734 -0.5911 -0.0206
  905MOL0     C24812   7.795   5.776   3.431  0.8346  0.3535 -0.0210
  905MOL0     C24813   7.691   5.684   3.371  0.0902  0.2060  0.6743
  905MOL0     C24814   7.612   5.753   3.263  0.1722 -0.1093 -0.2674
  905MOL0     C24815   7.689   5.750   3.133  0.0277 -0.3710  1.2503
  905MOL0     C24816   7.613   5.819   3.025  0.0499 -0.3477 -0.0270
  905MOL0     C24817   7.562   5.896   2.947  0.2273  0.6918  0.1175
  905MOL0     C24818   7.949   5.708   3.760  0.4343 -0.2183  0.5196
  905MOL0     C24819   8.050   5.732   3.848 -0.1705 -0.2695  0.1349
  905MOL0     C24820   8.063   5.660   3.974  0.2134  0.1300  0.1728
  905MOL0     H24821   8.644   5.804   3.736  0.0826 -0.5274 -0.1936
  905MOL0     H24822   8.852   5.896   3.837  0.6290 -0.5319  1.3946
  905MOL0     H24823   8.794   6.282   4.087  0.3475  0.7900  0.3208
  905MOL0     H24824   8.877   6.291   3.938 -0.1514 -1.9386 -0.6638
  905MOL0     H24825   8.990   6.379   4.147 -1.3278 -0.7608  1.0549
  905MOL0     H24826   9.016   6.212   4.192 -0.6888 -2.2545 -2.0166
  905MOL0     H24827   9.155   6.188   3.994 -1.7682  0.6385  0.2858
  905MOL0     H24828   9.112   6.352   3.938 -4.0799 -0.0183 -0.3499
  905MOL0     H24829   9.225   6.442   4.125  0.7815 -0.7651  0.4358
  905MOL0     H24830   9.249   6.272   4.191 -0.0231 -1.7870 -0.9168
  905MOL0     H24831   9.382   6.395   3.941 -0.2953  0.1253  0.6854
  905MOL0     H24832   9.412   6.232   4.003 -0.3192 -0.5172 -0.3940
  905MOL0     H24833   9.553   6.438   4.069 -1.9274  0.5617 -2.1867
  905MOL0     H24834   9.444   6.463   4.209  1.6355  0.5593  0.7986
  905MOL0     H24835   9.575   6.201   4.150 -1.1059  0.1672 -2.2555
  905MOL0     H24836   9.501   6.259   4.303  0.8899 -0.3204 -0.2871
  905MOL0     H24837   9.754   6.388   4.181 -1.5653  1.5453 -1.5071
  905MOL0     H24838   9.662   6.454   4.309 -1.2738 -0.6093  1.0830
  905MOL0     H24839   9.811   6.409   4.528 -0.3337 -0.1935  0.6803
  905MOL0     H24840   9.950   6.114   4.686  0.5454  0.5678  0.3478
  905MOL0     H24841   9.966   6.294   4.694  4.0160 -0.3127  0.7558
  905MOL0     H24842  10.124   6.108   4.527 -2.8135  1.4900 -0.7591
  905MOL0     H24843  10.125   6.288   4.511 -2.5828 -1.0313 -1.9632
  905MOL0     H24844  10.192   6.311   4.753 -0.3814 -0.3645  0.5408
  905MOL0     H24845  10.191   6.136   4.761  3.0557 -0.4361  0.6784
  905MOL0     H24846  10.370   6.136   4.568 -1.4504  0.2213 -0.0409
  905MOL0     H24847  10.382   6.313   4.607 -0.8052 -0.2124 -0.4916
  905MOL0     H24848  10.563   6.266   4.963 -1.2126 -2.7629 -0.7460
  905MOL0     H24849  10.835   6.444   5.014  2.6051 -1.2139 -2.5180
  905MOL0     H24850  10.870   6.273   5.053  2.1651  1.9186 -0.1787
  905MOL0     H24851  10.714   6.338   5.089  0.9799  2.1333  1.3650
  905MOL0     H24852  11.173   6.497   4.606  0.0603  1.3982  2.7138
  905MOL0     H24853  11.411   6.549   4.572  0.5961 -0.5955 -1.0776
  905MOL0     H24854  11.619   6.556   4.546  1.9240  1.5569 -0.2753
  905MOL0     H24855  11.770   6.490   4.610  1.4729 -1.6621 -0.8218
  905MOL0     H24856  11.791   6.340   4.418  0.3009 -0.4996 -0.9996
  905MOL0     H24857  11.641   6.425   4.351  0.5505 -2.3240 -0.0840
  905MOL0     H24858  11.871   6.520   4.258  2.8049 -0.2671  1.0694
  905MOL0     H24859  11.900   6.568   4.425 -1.1514  3.3984  0.2065
  905MOL0     H24860  11.697   6.726   4.410 -2.0472 -2.3934 -0.0956
  905MOL0     H24861  11.668   6.658   4.257 -1.2438 -0.0357  1.4266
  905MOL0     H24862  11.927   6.716   4.199 -1.2694 -2.0819 -0.4457
  905MOL0     H24863  11.809   6.849   4.203 -0.4159 -0.1823  0.2298
  905MOL0     H24864  11.945   6.779   4.454  1.6422  0.1770  0.5289
  905MOL0     H24865  11.893   6.942   4.400  1.7696  2.4589 -2.0663
  905MOL0     H24866  12.136   6.797   4.322  0.1834 -1.4655  3.5490
  905MOL0     H24867  12.127   6.951   4.403  0.4741 -1.5136 -0.0123
  905MOL0     H24868  11.988   7.031   4.173  1.1240  2.1258 -0.1734
  905MOL0     H24869  12.105   6.919   4.119 -0.4596 -2.1686  1.5215
  905MOL0     H24870  11.495   6.127   4.642  0.1136 -0.4158 -0.1535
  905MOL0     H24871  11.238   6.087   4.653  0.5661 -0.6142  1.0708
  905MOL0     H24872  10.842   6.252   4.557  0.5011 -1.1492  0.3168
  905MOL0     H24873  10.594   6.206   4.540 -1.6667  0.8280  0.4230
  905MOL0     H24874   8.608   6.172   4.059  0.1734  1.3264 -0.3007
  905MOL0     H24875   8.418   6.079   3.987  0.5613  0.9963 -0.7002
  905MOL0     H24876   8.232   5.914   3.625 -1.9585  1.0380 -2.1965
  905MOL0     H24877   8.038   5.878   3.477 -2.5481 -0.1033  0.5547
  905MOL0     H24878   7.761   5.879   3.445 -2.6611 -0.8829  1.6488
  905MOL0     H24879   7.886   5.769   3.370  1.2132  2.7941  0.1495
  905MOL0     H24880   7.617   5.672   3.451 -2.0869 -1.5154 -1.4500
  905MOL0     H24881   7.729   5.589   3.334 -1.7739 -2.9801  5.8548
  905MOL0     H24882   7.509   5.722   3.242  0.1414 -0.6896  0.7059
  905MOL0     H24883   7.591   5.859   3.283 -0.4164 -0.4560  1.0336
  905MOL0     H24884   7.709   5.644   3.112  2.5836  0.0675  1.2175
  905MOL0     H24885   7.784   5.802   3.142 -0.4565  0.3645  2.3185
  905MOL0     H24886   7.523   5.955   2.866  1.4085 -1.4852 -2.1702
  905MOL0     H24887   7.867   5.643   3.791 -0.9228  0.9511 -0.4588
  905MOL0     H24888   8.119   5.568   3.954 -0.9980 -1.3209  2.9465
  905MOL0     H24889   8.103   5.721   4.055  1.6501  0.1979 -0.5593
  905MOL0     H24890   7.964   5.617   3.995  0.8100 -0.8158  1.1531
  906MOL0     O24891   7.294   6.514   7.659  0.1184  0.1666 -0.2571
  906MOL0     C24892   7.254   6.399   7.652  1.2094 -0.2742 -0.2505
  906MOL0     O24893   7.339   6.289   7.652 -0.4992  0.3234  0.6771
  906MOL0     C24894   7.478   6.311   7.671  0.5773  0.4512  0.5716
  906MOL0     C24895   7.563   6.296   7.557  0.2287  0.3776  0.0851
  906MOL0     C24896   7.703   6.303   7.572  0.5139  0.0099  0.3718
  906MOL0     C24897   7.761   6.330   7.699  0.2616  0.1124 -0.4539
  906MOL0     O24898   7.891   6.343   7.732 -1.2526 -0.3694  0.0679
  906MOL0     C24899   7.960   6.445   7.647  0.2185  0.6329 -0.2051
  906MOL0     C24900   8.074   6.490   7.754 -0.4108  0.2250  0.1291
  906MOL0     C24901   8.162   6.604   7.696  0.3975 -0.2335  0.4277
  906MOL0     C24902   8.304   6.560   7.657 -0.5482 -0.4997  0.3179
  906MOL0     C24903   8.363   6.650   7.557  0.2619  0.3839 -0.1580
  906MOL0     C24904   8.519   6.648   7.545 -0.3880 -0.5177 -0.3136
  906MOL0     C24905   8.573   6.508   7.506 -0.5223 -0.4895 -0.8894
  906MOL0     C24906   8.722   6.514   7.480  0.1471  0.4076  0.7264
  906MOL0     N24907   8.801   6.518   7.604  0.3847 -0.4339 -0.4186
  906MOL0     C24908   8.885   6.618   7.642 -0.0948 -0.2548  0.1010
  906MOL0     C24909   8.947   6.570   7.747 -0.7974  0.5505 -1.4558
  906MOL0     C24910   9.055   6.634   7.831  0.7777 -0.0282 -0.3584
  906MOL0     C24911   9.209   6.625   7.791  0.1452 -0.1441 -1.1599
  906MOL0     C24912   9.229   6.501   7.712  0.4392 -0.8005 -0.1070
  906MOL0     C24913   9.371   6.492   7.647 -0.6027 -0.6213 -0.5726
  906MOL0     O24914   9.478   6.505   7.742 -0.0470  0.1699  0.3174
  906MOL0     C24915   9.602   6.464   7.692  0.4257  0.3732 -0.5255
  906MOL0     C24916   9.628   6.375   7.582 -0.1475 -0.3633 -1.1827
  906MOL0     C24917   9.751   6.329   7.548  0.1625  0.4496  0.2006
  906MOL0     C24918   9.751   6.240   7.423  0.3080 -0.1630 -0.8171
  906MOL0     C24919   9.868   6.361   7.618 -0.5560  0.6284 -0.9666
  906MOL0     C24920  10.007   6.304   7.588  0.6389  0.0567  0.7351
  906MOL0     O24921  10.107   6.357   7.666 -0.3477 -0.0670 -0.4940
  906MOL0     C24922  10.235   6.297   7.666  0.1787 -0.0422 -0.0553
  906MOL0     C24923  10.356   6.364   7.633 -0.3306 -0.3874  0.4615
  906MOL0     C24924  10.482   6.305   7.651 -0.9272  0.4660  0.1415
  906MOL0     C24925  10.486   6.169   7.692  0.4947  0.6999  0.1558
  906MOL0     O24926  10.613   6.108   7.705  0.5913 -0.1988  0.3991
  906MOL0     C24927  10.645   6.032   7.825  0.2352  0.4607  0.5062
  906MOL0     C24928  10.797   6.003   7.824 -0.2379 -0.0279 -0.0251
  906MOL0     C24929  10.837   5.923   7.694 -0.0311 -0.3578 -0.0137
  906MOL0     C24930  10.985   5.890   7.704 -0.8365  0.5390 -0.8361
  906MOL0     C24931  11.043   5.836   7.848 -0.2799  1.1972  0.0320
  906MOL0     C24932  11.198   5.818   7.858 -0.0246 -0.0436 -0.9938
  906MOL0     C24933  11.249   5.800   7.997 -0.2841 -0.3114 -0.4454
  906MOL0     C24934  11.401   5.782   7.986  0.0396 -0.1587 -0.5499
  906MOL0    Cl24935  11.469   5.783   8.153 -0.2499  0.2471 -0.0362
  906MOL0     C24936  10.367   6.106   7.731  0.5105  0.0331 -0.4479
  906MOL0     C24937  10.243   6.160   7.716 -0.4846 -0.2652  0.3285
  906MOL0     O24938  10.022   6.226   7.492  0.4177  0.0458 -0.0491
  906MOL0     C24939   9.849   6.451   7.725 -0.5967 -0.1379 -1.1769
  906MOL0     C24940   9.718   6.500   7.755  0.5156 -0.2494  0.8859
  906MOL0     N24941   8.918   6.435   7.765 -0.2904  0.4728 -0.2378
  906MOL0     N24942   8.828   6.401   7.674 -0.3676 -0.8460  0.2008
  906MOL0     C24943   7.674   6.331   7.807 -0.5553  0.9081 -0.4493
  906MOL0     C24944   7.534   6.325   7.795 -0.4631 -0.4430 -0.3317
  906MOL0     C24945   7.106   6.374   7.666 -0.4194  0.1404 -0.0858
  906MOL0     C24946   7.020   6.483   7.661 -1.0612 -0.1393 -0.1511
  906MOL0     C24947   6.877   6.460   7.668 -0.6316  1.0874 -0.4839
  906MOL0     C24948   6.827   6.333   7.704  0.8388  0.9259 -0.8024
  906MOL0     O24949   6.690   6.332   7.731 -0.1618  0.4559 -0.5490
  906MOL0     C24950   6.617   6.205   7.753 -0.6520  0.5349 -0.0296
  906MOL0     C24951   6.472   6.214   7.763  0.4703  0.5973 -0.9946
  906MOL0     C24952   6.394   6.285   7.651 -0.5648  0.2198 -0.0828
  906MOL0     C24953   6.268   6.214   7.597  0.0287 -0.1537  0.3496
  906MOL0     C24954   6.176   6.291   7.512 -0.7221  0.2413 -0.4469
  906MOL0     C24955   6.103   6.361   7.446 -1.4034 -0.1361 -0.5508
  906MOL0     C24956   6.916   6.223   7.727 -0.5171 -0.0401 -0.3360
  906MOL0     C24957   7.048   6.246   7.709  0.0153  0.6766  0.2337
  906MOL0     C24958   7.139   6.130   7.746  0.4327 -0.3198 -0.3019
  906MOL0     H24959   7.528   6.284   7.455  3.0878  1.2033 -1.0862
  906MOL0     H24960   7.768   6.286   7.486 -2.8462 -1.4154 -2.1287
  906MOL0     H24961   7.914   6.538   7.614  1.8217  0.5361 -2.9678
  906MOL0     H24962   8.008   6.399   7.560  0.5757 -0.2565  0.4428
  906MOL0     H24963   8.022   6.529   7.841 -0.9031  1.0146 -0.5121
  906MOL0     H24964   8.130   6.400   7.782  0.2388  1.4890  3.2767
  906MOL0     H24965   8.116   6.638   7.603  1.7832 -2.1916 -1.0557
  906MOL0     H24966   8.165   6.685   7.769 -4.7051  0.1820  0.5171
  906MOL0     H24967   8.367   6.581   7.744  1.3619  0.7065 -1.2732
  906MOL0     H24968   8.302   6.451   7.646  0.2558 -0.3741 -1.2998
  906MOL0     H24969   8.334   6.756   7.563 -1.7009  0.0320 -2.0306
  906MOL0     H24970   8.318   6.616   7.463  1.6222 -1.1648 -0.2841
  906MOL0     H24971   8.562   6.713   7.468 -0.1288 -0.0840  0.1867
  906MOL0     H24972   8.565   6.670   7.642 -1.1071 -0.3622 -0.0012
  906MOL0     H24973   8.515   6.469   7.421  2.3799 -0.0818 -3.2214
  906MOL0     H24974   8.560   6.446   7.595  3.5407  0.6403  0.6835
  906MOL0     H24975   8.752   6.420   7.432 -1.5495 -1.0959  2.4281
  906MOL0     H24976   8.740   6.604   7.420  0.0716  1.1837  1.8506
  906MOL0     H24977   8.897   6.714   7.593 -1.1778 -0.2143 -0.1050
  906MOL0     H24978   9.040   6.604   7.934  3.2328  0.9258  0.3520
  906MOL0     H24979   9.021   6.738   7.836 -2.5972 -1.0546  0.9229
  906MOL0     H24980   9.233   6.718   7.738 -1.4425  0.0252 -1.6537
  906MOL0     H24981   9.277   6.616   7.875  0.4074 -0.6885 -1.4229
  906MOL0     H24982   9.207   6.419   7.780 -0.1524  1.4933  2.6781
  906MOL0     H24983   9.162   6.493   7.626  3.3319 -0.4262 -2.5720
  906MOL0     H24984   9.364   6.392   7.605  0.5697 -1.0764  0.2886
  906MOL0     H24985   9.387   6.562   7.565  2.2383 -2.1290 -1.4152
  906MOL0     H24986   9.545   6.341   7.521 -0.2014 -0.7939 -0.8778
  906MOL0     H24987   9.649   6.223   7.387 -1.5610  2.2751  2.7764
  906MOL0     H24988   9.784   6.137   7.439  1.3610 -0.4086 -3.8049
  906MOL0     H24989   9.817   6.272   7.341  1.3398  1.5436  0.6099
  906MOL0     H24990  10.355   6.469   7.604  0.9690 -1.0431 -2.2887
  906MOL0     H24991  10.575   6.358   7.634 -0.4984 -0.8815 -2.1759
  906MOL0     H24992  10.624   6.081   7.921 -0.5694 -0.9110  1.0555
  906MOL0     H24993  10.606   5.930   7.831 -2.5150  1.4160  0.5145
  906MOL0     H24994  10.858   6.092   7.841  0.1452 -0.2220 -0.3673
  906MOL0     H24995  10.806   5.947   7.918  0.2247  0.0478 -0.0247
  906MOL0     H24996  10.824   5.978   7.601 -2.4085  0.2885  0.6233
  906MOL0     H24997  10.767   5.839   7.685  0.4167 -0.6069 -1.5025
  906MOL0     H24998  11.036   5.987   7.693 -1.1234  0.6366 -1.3186
  906MOL0     H24999  11.018   5.822   7.625  0.7014  0.8175 -0.4578
  906MOL0     H25000  11.018   5.901   7.933  0.5881  2.9284 -0.9794
  906MOL0     H25001  10.993   5.743   7.875 -0.6970  0.6681 -2.3624
  906MOL0     H25002  11.236   5.910   7.812 -0.3994 -0.9710 -3.2998
  906MOL0     H25003  11.219   5.728   7.800 -1.7174 -1.1083 -0.0100
  906MOL0     H25004  11.198   5.714   8.042 -1.5723  1.1875  1.1160
  906MOL0     H25005  11.231   5.876   8.074 -3.6705 -2.3657  1.0714
  906MOL0     H25006  11.437   5.868   7.930 -0.0762  0.0678 -0.2816
  906MOL0     H25007  11.436   5.693   7.933  4.0224  1.1567 -0.4433
  906MOL0     H25008  10.379   6.002   7.758  1.5454  0.1421 -0.4565
  906MOL0     H25009  10.159   6.096   7.744 -1.6997  2.1988  2.8580
  906MOL0     H25010   9.926   6.473   7.798  0.3591 -1.8531 -1.6220
  906MOL0     H25011   9.714   6.583   7.826  0.0791  2.0982 -1.6855
  906MOL0     H25012   7.715   6.342   7.907 -1.6814 -2.1754  0.4675
  906MOL0     H25013   7.470   6.328   7.883 -2.3655  4.5972 -1.5221
  906MOL0     H25014   7.051   6.582   7.631 -1.2903 -0.7414 -2.5439
  906MOL0     H25015   6.813   6.547   7.655  2.7270  4.0644  1.2532
  906MOL0     H25016   6.648   6.131   7.678  2.2028  0.9898  0.5846
  906MOL0     H25017   6.657   6.167   7.847  0.2342  3.8384  1.0808
  906MOL0     H25018   6.446   6.261   7.858  1.5104 -0.5604 -0.1083
  906MOL0     H25019   6.437   6.111   7.775  1.1401  0.4962  0.2639
  906MOL0     H25020   6.372   6.384   7.691  1.0547  0.3693  0.5325
  906MOL0     H25021   6.461   6.292   7.565  0.3591 -2.4610  0.3238
  906MOL0     H25022   6.210   6.178   7.682  1.1911 -0.4583  1.0357
  906MOL0     H25023   6.293   6.122   7.543  0.7837 -1.3227  2.5839
  906MOL0     H25024   6.037   6.428   7.394 -1.3508  0.4520  0.1199
  906MOL0     H25025   6.873   6.128   7.757 -3.8354  1.0524 -1.2961
  906MOL0     H25026   7.208   6.146   7.829 -0.8301 -0.1259  0.7330
  906MOL0     H25027   7.085   6.045   7.788  2.3595 -1.5432 -0.1772
  906MOL0     H25028   7.183   6.084   7.656 -1.8671 -1.4112 -0.9522
  907MOL0     O25029   1.322   6.765   0.379 -0.6156  0.5580 -0.1240
  907MOL0     C25030   1.247   6.866   0.380  0.4875  0.7512  1.2250
  907MOL0     O25031   1.284   6.999   0.409  0.1590  0.3049 -0.2209
  907MOL0     C25032   1.418   7.031   0.415  0.2527 -1.1460  0.1348
  907MOL0     C25033   1.484   7.098   0.312 -0.0214  0.3508 -0.1564
  907MOL0     C25034   1.612   7.154   0.327  0.7985 -0.4098  0.8149
  907MOL0     C25035   1.690   7.112   0.439  0.1784 -0.4209 -0.3536
  907MOL0     O25036   1.813   7.152   0.477 -0.3373 -0.8204 -0.3863
  907MOL0     C25037   1.801   7.282   0.555 -0.7241  0.3584  0.7388
  907MOL0     C25038   1.934   7.343   0.580 -0.2648 -0.2586  0.1238
  907MOL0     C25039   1.998   7.275   0.704 -0.7394  0.3066  1.6500
  907MOL0     C25040   2.133   7.336   0.746 -0.1497 -0.5573  0.6980
  907MOL0     C25041   2.244   7.304   0.638  0.6459  0.4017 -0.1753
  907MOL0     C25042   2.376   7.371   0.686 -0.1202 -0.1704 -0.0471
  907MOL0     C25043   2.488   7.347   0.581 -0.1288  0.1749  0.0600
  907MOL0     C25044   2.625   7.420   0.608 -0.1715 -0.8981 -0.5530
  907MOL0     N25045   2.709   7.349   0.710  0.0191 -0.0611 -0.2661
  907MOL0     C25046   2.736   7.406   0.836 -0.0011  0.1742  0.0043
  907MOL0     C25047   2.814   7.307   0.895  0.6094 -0.8531  0.4394
  907MOL0     C25048   2.868   7.310   1.032 -1.1236  0.1370  0.3257
  907MOL0     C25049   3.012   7.245   1.035 -0.5289  0.7691 -0.4980
  907MOL0     C25050   3.109   7.333   0.959 -0.0352 -0.4105  0.5947
  907MOL0     C25051   3.253   7.282   0.974  0.3925 -0.0971  0.4452
  907MOL0     O25052   3.312   7.331   1.095 -0.6628 -0.4464  0.5321
  907MOL0     C25053   3.454   7.328   1.097  0.0297 -0.7851 -0.1940
  907MOL0     C25054   3.508   7.428   1.182  1.1656  0.9697  0.5639
  907MOL0     C25055   3.647   7.447   1.201 -0.4842 -0.5155 -0.1959
  907MOL0     C25056   3.695   7.561   1.291 -0.6301  0.0639  0.1542
  907MOL0     C25057   3.735   7.358   1.128 -0.6009  0.8696  0.4313
  907MOL0     C25058   3.890   7.380   1.128  0.7641 -0.0811 -0.6543
  907MOL0     O25059   3.952   7.476   1.216  0.6530 -0.3160 -0.3080
  907MOL0     C25060   4.087   7.476   1.215 -1.1251 -0.3777 -0.2178
  907MOL0     C25061   4.172   7.387   1.268  0.2246  0.5439 -0.2645
  907MOL0     C25062   4.310   7.417   1.270  0.2823  0.0160 -0.1522
  907MOL0     C25063   4.364   7.527   1.210 -0.9494 -0.8034  0.2932
  907MOL0     O25064   4.504   7.536   1.220 -0.1308 -0.7676  0.1946
  907MOL0     C25065   4.560   7.668   1.206  0.2045 -0.0759 -0.6499
  907MOL0     C25066   4.683   7.659   1.284  0.3108 -0.7186  0.1994
  907MOL0     C25067   4.770   7.792   1.283 -0.4992 -0.1373 -0.3563
  907MOL0     C25068   4.885   7.798   1.177 -0.4635 -0.3532  0.0902
  907MOL0     C25069   4.960   7.928   1.162 -0.7417  0.4871 -0.6128
  907MOL0     C25070   5.042   7.949   1.283  0.3382  0.1171  0.0552
  907MOL0     C25071   5.127   8.070   1.266  0.1595 -0.1710  0.2232
  907MOL0     C25072   5.185   8.094   1.412  0.2025 -0.2034  0.6917
  907MOL0    Cl25073   5.287   8.238   1.412 -0.1429  0.0558 -0.1263
  907MOL0     C25074   4.280   7.625   1.157  0.0654 -0.0369  1.0120
  907MOL0     C25075   4.141   7.596   1.155 -0.3863 -0.1509 -0.7356
  907MOL0     O25076   3.953   7.307   1.052  0.2521 -0.8244 -0.0352
  907MOL0     C25077   3.672   7.257   1.046 -0.7253 -0.1936  0.0801
  907MOL0     C25078   3.536   7.243   1.031 -0.1156  0.6497  0.8941
  907MOL0     N25079   2.823   7.202   0.814 -0.3475  0.5326 -0.1861
  907MOL0     N25080   2.754   7.226   0.710 -0.4089 -0.4209 -0.2705
  907MOL0     C25081   1.632   7.029   0.538 -0.6698  0.8607  0.0819
  907MOL0     C25082   1.495   7.002   0.531  0.1078 -0.1050 -0.2347
  907MOL0     C25083   1.105   6.834   0.369  0.3027  1.0182  0.1699
  907MOL0     C25084   1.023   6.945   0.366  1.0349 -0.4066  0.3417
  907MOL0     C25085   0.881   6.934   0.363  0.0488  0.1247 -1.0234
  907MOL0     C25086   0.821   6.812   0.359 -0.2214  0.6260  0.0491
  907MOL0     O25087   0.689   6.811   0.348 -0.4419 -0.1777 -0.1431
  907MOL0     C25088   0.615   6.718   0.266 -0.2232  1.3167 -0.8017
  907MOL0     C25089   0.474   6.775   0.243 -0.4761 -0.1625  0.1381
  907MOL0     C25090   0.382   6.775   0.374 -0.6428 -0.7826  0.2629
  907MOL0     C25091   0.241   6.829   0.338  0.1668 -0.2513  0.1799
  907MOL0     C25092   0.156   6.805   0.459  0.1984 -0.2125  0.1074
  907MOL0     C25093   0.095   6.785   0.565 -0.5049 -1.0381 -0.6116
  907MOL0     C25094   0.903   6.697   0.353  0.4424 -0.2929  0.1355
  907MOL0     C25095   1.041   6.701   0.368 -0.3066  0.2386 -0.4109
  907MOL0     C25096   1.118   6.565   0.342  0.6279  0.2052  0.1848
  907MOL0     H25097   1.428   7.128   0.224 -0.7853  2.6630  1.0157
  907MOL0     H25098   1.656   7.215   0.249 -0.4649 -0.8621 -0.2820
  907MOL0     H25099   1.754   7.269   0.653 -0.7145  0.3293  0.7394
  907MOL0     H25100   1.744   7.350   0.491  0.2657  2.3020  1.8286
  907MOL0     H25101   1.997   7.329   0.492 -1.0958  1.5731 -0.8300
  907MOL0     H25102   1.917   7.449   0.602 -0.8761 -0.3309  0.0288
  907MOL0     H25103   1.936   7.280   0.794 -0.0988 -0.2867  2.1331
  907MOL0     H25104   2.014   7.170   0.675  1.0768  0.9969 -0.1145
  907MOL0     H25105   2.141   7.445   0.756  2.6660 -0.6142  0.0004
  907MOL0     H25106   2.158   7.291   0.842  3.3566 -0.2763  0.0264
  907MOL0     H25107   2.217   7.336   0.537  0.8840  1.5070  0.0951
  907MOL0     H25108   2.260   7.196   0.645 -2.7600 -0.1795  0.3343
  907MOL0     H25109   2.358   7.478   0.681  0.8923  0.0724  1.1079
  907MOL0     H25110   2.411   7.350   0.788  1.3514  0.6319 -0.3625
  907MOL0     H25111   2.447   7.373   0.483  0.9574 -0.3747 -0.5629
  907MOL0     H25112   2.508   7.240   0.580  1.4563  0.4264  1.0510
  907MOL0     H25113   2.671   7.421   0.508  1.8313  1.4367  0.2878
  907MOL0     H25114   2.615   7.529   0.617  0.9744 -0.6340 -2.0065
  907MOL0     H25115   2.722   7.504   0.879  2.9409  1.1484 -1.0366
  907MOL0     H25116   2.793   7.241   1.073 -0.5782 -2.3665 -2.5229
  907MOL0     H25117   2.873   7.405   1.086 -0.0275 -1.0811  2.5119
  907MOL0     H25118   3.029   7.236   1.143 -0.7016 -0.8863 -0.5744
  907MOL0     H25119   3.012   7.145   0.991  1.1241  0.8226 -0.7172
  907MOL0     H25120   3.080   7.324   0.854 -1.9785  1.7886  0.8421
  907MOL0     H25121   3.106   7.439   0.990 -0.7256  0.2597 -1.6099
  907MOL0     H25122   3.252   7.173   0.962 -0.3252  0.1792 -2.9529
  907MOL0     H25123   3.303   7.328   0.889 -0.5160  2.4022  1.1864
  907MOL0     H25124   3.440   7.486   1.243 -1.8593 -0.7369 -0.9706
  907MOL0     H25125   3.611   7.617   1.333  0.3499  1.6668  0.0377
  907MOL0     H25126   3.754   7.620   1.220 -0.0870 -2.9760 -2.1332
  907MOL0     H25127   3.751   7.526   1.378  2.6109  0.2510 -1.7079
  907MOL0     H25128   4.143   7.292   1.312  1.8526 -0.6871 -1.6972
  907MOL0     H25129   4.377   7.347   1.319  0.8695  0.5397 -0.1992
  907MOL0     H25130   4.575   7.692   1.100 -3.9836  3.1012 -0.7707
  907MOL0     H25131   4.494   7.744   1.248  2.7046  0.3453  2.9644
  907MOL0     H25132   4.651   7.649   1.388 -3.7132  1.7919 -0.5622
  907MOL0     H25133   4.752   7.579   1.255  1.2870 -0.0820  0.7190
  907MOL0     H25134   4.827   7.798   1.376  1.2472  3.1575 -1.4869
  907MOL0     H25135   4.709   7.882   1.270  1.6371  1.2188 -1.4171
  907MOL0     H25136   4.843   7.777   1.078 -3.5370 -0.5075  1.3172
  907MOL0     H25137   4.955   7.718   1.201 -2.6772 -1.9083  1.8181
  907MOL0     H25138   5.023   7.922   1.072  2.9507 -0.1969  1.7741
  907MOL0     H25139   4.891   8.011   1.144 -2.1777 -0.7162 -0.8404
  907MOL0     H25140   5.100   7.857   1.296 -0.3386 -0.4339 -0.6935
  907MOL0     H25141   4.969   7.959   1.364 -2.0260 -0.6091 -1.8281
  907MOL0     H25142   5.066   8.157   1.241  0.1920  0.6954  2.8020
  907MOL0     H25143   5.209   8.053   1.196 -0.1490 -0.3163 -0.1024
  907MOL0     H25144   5.241   8.006   1.445 -1.9878 -1.6530  0.6887
  907MOL0     H25145   5.100   8.098   1.480 -0.6046  0.8989 -0.3229
  907MOL0     H25146   4.321   7.710   1.103  1.1085  0.1191  2.0132
  907MOL0     H25147   4.075   7.674   1.120  0.4014  0.7501 -0.2608
  907MOL0     H25148   3.737   7.191   0.990  1.4578  1.4663  0.4784
  907MOL0     H25149   3.489   7.168   0.968  0.8268  0.3898  0.4851
  907MOL0     H25150   1.701   7.004   0.618  0.0078  0.8380 -0.4976
  907MOL0     H25151   1.437   6.974   0.618 -0.7744  1.6293 -0.2323
  907MOL0     H25152   1.051   7.049   0.357  2.4401 -0.8298 -0.6175
  907MOL0     H25153   0.805   7.011   0.372 -1.3654 -1.2429 -0.7709
  907MOL0     H25154   0.659   6.718   0.166 -2.3945  1.5687 -1.8079
  907MOL0     H25155   0.619   6.614   0.300  4.3678  0.6230 -2.7145
  907MOL0     H25156   0.421   6.715   0.169 -1.8140 -0.2330  1.1200
  907MOL0     H25157   0.472   6.874   0.194  1.0002 -0.1609  0.0317
  907MOL0     H25158   0.381   6.677   0.423 -1.5674 -1.4186 -0.9834
  907MOL0     H25159   0.425   6.849   0.442  1.1555 -0.1354 -1.4907
  907MOL0     H25160   0.186   6.775   0.260 -4.0569  0.4921  2.3214
  907MOL0     H25161   0.232   6.936   0.319 -2.1011 -0.4678 -0.2064
  907MOL0     H25162   0.045   6.742   0.650  0.0310 -0.5116 -0.0256
  907MOL0     H25163   0.859   6.600   0.337 -1.7066  0.0637  3.0203
  907MOL0     H25164   1.202   6.586   0.275 -1.2618  2.3168 -1.7154
  907MOL0     H25165   1.148   6.522   0.437  0.4935  0.2314  0.2392
  907MOL0     H25166   1.052   6.501   0.282 -0.3195  1.8230 -0.5635
  908MOL0     O25167   2.867   7.815   5.599 -0.2912  0.0615 -0.0940
  908MOL0     C25168   2.819   7.745   5.514  0.7506 -0.2971 -0.2325
  908MOL0     O25169   2.865   7.621   5.476 -0.1586  0.0683 -0.3824
  908MOL0     C25170   2.962   7.554   5.546  0.8624  0.6125  0.1043
  908MOL0     C25171   3.071   7.612   5.605  0.0954 -0.2415 -0.2964
  908MOL0     C25172   3.169   7.525   5.657 -0.2690 -0.3440  0.7454
  908MOL0     C25173   3.160   7.392   5.637 -0.1080  0.1477 -0.0696
  908MOL0     O25174   3.253   7.303   5.684  0.0317  0.4176 -0.2738
  908MOL0     C25175   3.364   7.349   5.765  0.6431  0.0525  1.0564
  908MOL0     C25176   3.429   7.233   5.842 -0.3822 -0.4137 -0.8476
  908MOL0     C25177   3.328   7.161   5.937 -0.5068  0.0110 -0.2848
  908MOL0     C25178   3.389   7.024   6.002 -0.1125 -0.3045  0.0136
  908MOL0     C25179   3.326   7.001   6.136  0.8759  0.0027  0.1245
  908MOL0     C25180   3.180   6.964   6.114 -0.1259 -0.2212  0.6045
  908MOL0     C25181   3.103   6.944   6.238  1.0776  0.1889 -0.3814
  908MOL0     C25182   3.089   6.795   6.279 -0.7793 -0.8315  0.5424
  908MOL0     N25183   3.203   6.741   6.362  0.0119  0.2629  0.2539
  908MOL0     C25184   3.237   6.800   6.482 -0.6240 -0.1727  0.0856
  908MOL0     C25185   3.333   6.723   6.537  0.6011 -0.2633 -0.9660
  908MOL0     C25186   3.394   6.746   6.676  0.2532 -0.4784  0.0855
  908MOL0     C25187   3.393   6.623   6.756 -0.7638 -0.4932 -0.8913
  908MOL0     C25188   3.456   6.641   6.901  0.0727  0.1854 -0.2273
  908MOL0     C25189   3.602   6.697   6.909  0.5874  0.6017 -0.2032
  908MOL0     O25190   3.695   6.593   6.914 -0.0178 -0.5140 -0.7573
  908MOL0     C25191   3.831   6.618   6.892 -0.1995  0.4408 -0.0064
  908MOL0     C25192   3.924   6.511   6.902  0.5235  0.1818  0.7042
  908MOL0     C25193   4.053   6.525   6.848  0.7796  0.1266  0.1815
  908MOL0     C25194   4.139   6.399   6.856 -0.8741  0.4739  0.1959
  908MOL0     C25195   4.105   6.659   6.824  0.4420  0.5198  0.1340
  908MOL0     C25196   4.247   6.685   6.795 -0.3921  0.1933 -0.3520
  908MOL0     O25197   4.313   6.583   6.728 -0.0856  0.8564 -0.0819
  908MOL0     C25198   4.442   6.595   6.702  0.2538  0.8637 -0.3651
  908MOL0     C25199   4.490   6.554   6.576 -0.4145  0.1020 -1.1539
  908MOL0     C25200   4.630   6.556   6.555 -0.2577  0.1540  0.6669
  908MOL0     C25201   4.719   6.591   6.659 -0.3588  0.0377 -0.2870
  908MOL0     O25202   4.862   6.580   6.653 -0.1888 -0.5186 -0.0681
  908MOL0     C25203   4.919   6.528   6.530 -0.4748  0.1091 -0.0422
  908MOL0     C25204   5.065   6.576   6.519  0.7222 -0.4261  0.4554
  908MOL0     C25205   5.161   6.535   6.629  0.8827  0.1981  0.3181
  908MOL0     C25206   5.297   6.587   6.599 -1.1354  0.3838  0.2080
  908MOL0     C25207   5.397   6.535   6.706  0.2882 -0.1514  0.4699
  908MOL0     C25208   5.547   6.550   6.666  0.7179  0.8021 -0.0633
  908MOL0     C25209   5.572   6.702   6.637 -0.1326  0.5100 -0.0787
  908MOL0     C25210   5.725   6.716   6.618  0.0766 -0.5553  0.2347
  908MOL0    Cl25211   5.786   6.633   6.468 -0.3359 -0.0193  0.0811
  908MOL0     C25212   4.668   6.629   6.783 -0.0953  0.5153 -0.6396
  908MOL0     C25213   4.533   6.631   6.806  0.6070 -0.3730 -0.5672
  908MOL0     O25214   4.299   6.794   6.797  0.3476 -0.1368 -0.5797
  908MOL0     C25215   4.010   6.762   6.840 -0.5140 -0.4366 -0.1697
  908MOL0     C25216   3.882   6.737   6.871 -0.2245 -1.0376  0.2513
  908MOL0     N25217   3.363   6.627   6.444  0.1699  0.3204  0.2024
  908MOL0     N25218   3.286   6.639   6.339  0.5561  0.5395 -0.9003
  908MOL0     C25219   3.047   7.331   5.589 -0.2269  0.0927  0.0686
  908MOL0     C25220   2.944   7.413   5.546  0.8793 -1.2255  0.4364
  908MOL0     C25221   2.714   7.793   5.427 -0.3257  0.5051 -0.0347
  908MOL0     C25222   2.634   7.700   5.357 -0.0422  0.0384  0.6321
  908MOL0     C25223   2.526   7.738   5.274 -0.6113 -0.5459 -0.1144
  908MOL0     C25224   2.504   7.871   5.248 -0.4636  0.0836 -0.7943
  908MOL0     O25225   2.401   7.900   5.171 -0.2586  0.1399  0.5065
  908MOL0     C25226   2.344   8.022   5.183 -0.0952  0.4289  0.6266
  908MOL0     C25227   2.220   8.032   5.102  0.7463  0.6815  0.1145
  908MOL0     C25228   2.120   7.909   5.135  0.6917 -0.2188  0.3284
  908MOL0     C25229   2.078   7.905   5.290 -0.2007  0.5697  0.6006
  908MOL0     C25230   2.003   7.781   5.323 -0.1905 -1.1345 -0.5100
  908MOL0     C25231   1.944   7.678   5.354 -0.0358 -0.1042  0.1791
  908MOL0     C25232   2.585   7.966   5.313 -0.0787  0.6963 -0.0557
  908MOL0     C25233   2.687   7.930   5.401 -0.2269  0.8654 -0.3016
  908MOL0     C25234   2.765   8.042   5.454  0.0708 -0.9258  0.0149
  908MOL0     H25235   3.084   7.715   5.637  2.5074 -1.4785  3.3278
  908MOL0     H25236   3.254   7.562   5.713  0.9289 -2.7843  0.6793
  908MOL0     H25237   3.330   7.421   5.841  0.3435  0.1129  0.8680
  908MOL0     H25238   3.439   7.383   5.693 -2.0090  1.9384 -1.0427
  908MOL0     H25239   3.465   7.164   5.765  0.0755  0.6722 -1.6484
  908MOL0     H25240   3.511   7.269   5.905 -0.1179  0.1954 -1.5203
  908MOL0     H25241   3.313   7.240   6.011 -1.4297  1.3429 -1.8101
  908MOL0     H25242   3.236   7.144   5.880 -0.6074 -2.2342  0.4817
  908MOL0     H25243   3.366   6.943   5.933 -3.2645 -0.6992  1.3586
  908MOL0     H25244   3.495   7.037   6.026 -0.8370  4.6979  1.6957
  908MOL0     H25245   3.344   7.086   6.203  1.8917 -0.5132  0.5181
  908MOL0     H25246   3.365   6.907   6.177 -1.4439 -0.9819  0.2319
  908MOL0     H25247   3.127   7.036   6.052  0.5284 -0.9046 -0.7925
  908MOL0     H25248   3.178   6.876   6.048  0.5514 -0.0637  0.3696
  908MOL0     H25249   3.002   6.978   6.213  0.2472 -0.9145  1.3167
  908MOL0     H25250   3.149   6.997   6.321 -1.0019 -1.2896  1.8607
  908MOL0     H25251   2.997   6.787   6.337 -0.2990 -1.6502  1.2191
  908MOL0     H25252   3.074   6.737   6.187  1.2210  1.5906 -1.4525
  908MOL0     H25253   3.186   6.878   6.538  0.5002  0.2347  0.5711
  908MOL0     H25254   3.340   6.815   6.742 -0.4445 -2.6392  1.8877
  908MOL0     H25255   3.495   6.783   6.654 -0.2545  0.4303 -0.7785
  908MOL0     H25256   3.287   6.606   6.778 -0.7528  0.1158 -0.3376
  908MOL0     H25257   3.435   6.536   6.704  1.4497  0.0689 -0.1637
  908MOL0     H25258   3.393   6.716   6.951  1.0714  0.9398 -0.0703
  908MOL0     H25259   3.446   6.543   6.948 -0.9273  0.6885  0.6455
  908MOL0     H25260   3.618   6.767   6.826  0.5839 -0.6208 -1.2635
  908MOL0     H25261   3.609   6.748   7.006 -0.6322  1.5143 -0.5728
  908MOL0     H25262   3.905   6.414   6.946  2.8188  0.0049  1.4588
  908MOL0     H25263   4.075   6.311   6.864 -0.5153  0.3479  2.2863
  908MOL0     H25264   4.211   6.400   6.938 -2.2538 -1.0902  1.5027
  908MOL0     H25265   4.194   6.375   6.764  1.1858 -0.2279  1.5390
  908MOL0     H25266   4.419   6.531   6.497  0.5337  1.7244 -2.5573
  908MOL0     H25267   4.655   6.537   6.451 -1.7558  2.2191 -0.1515
  908MOL0     H25268   4.901   6.420   6.532  0.1321  0.0080  0.5334
  908MOL0     H25269   4.872   6.562   6.438 -1.0888 -4.0615 -1.5024
  908MOL0     H25270   5.109   6.527   6.431 -0.4083  2.7855 -2.0863
  908MOL0     H25271   5.067   6.684   6.502  1.0637 -0.3823  0.7727
  908MOL0     H25272   5.164   6.426   6.628  0.8432  0.1686  1.9336
  908MOL0     H25273   5.126   6.582   6.721 -0.1381 -1.7255  0.9676
  908MOL0     H25274   5.308   6.696   6.590  3.0624  0.1810  0.5665
  908MOL0     H25275   5.333   6.542   6.506 -2.1841  0.9672 -0.4962
  908MOL0     H25276   5.390   6.582   6.805 -0.7577  1.4329 -0.3094
  908MOL0     H25277   5.370   6.433   6.734 -1.0873  0.1469  0.3423
  908MOL0     H25278   5.562   6.497   6.571 -2.9036  1.4144 -1.1680
  908MOL0     H25279   5.611   6.509   6.745  1.5084  0.8706 -0.6566
  908MOL0     H25280   5.544   6.764   6.722 -2.4802 -2.0787  1.2133
  908MOL0     H25281   5.507   6.741   6.559  0.0693 -1.4457 -1.3087
  908MOL0     H25282   5.767   6.673   6.709  1.6217 -0.9305 -0.6304
  908MOL0     H25283   5.746   6.823   6.613  2.6427 -1.0157 -0.1044
  908MOL0     H25284   4.736   6.651   6.865 -0.6774  0.9467 -0.2597
  908MOL0     H25285   4.498   6.662   6.903 -2.7032 -1.3098 -1.3242
  908MOL0     H25286   4.036   6.868   6.838 -0.5900 -0.4248 -0.7058
  908MOL0     H25287   3.819   6.825   6.867  1.6993  0.3690 -0.2607
  908MOL0     H25288   3.055   7.228   5.557 -0.5568  0.5172 -1.4847
  908MOL0     H25289   2.856   7.370   5.499 -1.4825  2.6159  0.8840
  908MOL0     H25290   2.650   7.595   5.378 -0.0668 -0.0473  0.2435
  908MOL0     H25291   2.458   7.660   5.243 -1.4162  0.6841 -1.5389
  908MOL0     H25292   2.324   8.038   5.289 -1.3415  3.3926  0.0218
  908MOL0     H25293   2.404   8.107   5.148 -1.3488  0.4621 -1.6349
  908MOL0     H25294   2.253   8.024   4.998  1.7875 -3.9771  0.5607
  908MOL0     H25295   2.173   8.130   5.116  2.6447  1.5500  0.7505
  908MOL0     H25296   2.028   7.922   5.077  1.0923  0.5661 -0.1461
  908MOL0     H25297   2.152   7.806   5.114 -1.6266 -1.0653  0.7188
  908MOL0     H25298   2.006   7.985   5.312  0.5489  0.9217  1.8678
  908MOL0     H25299   2.171   7.917   5.346  0.1198  2.1455 -0.1933
  908MOL0     H25300   1.895   7.586   5.379  1.1200 -0.3784  1.5948
  908MOL0     H25301   2.552   8.067   5.290 -0.9994 -0.2434 -3.4683
  908MOL0     H25302   2.741   8.139   5.410 -3.2952 -1.2658  0.8762
  908MOL0     H25303   2.765   8.047   5.563 -3.5561  2.1557  0.0698
  908MOL0     H25304   2.868   8.021   5.424 -0.3435 -1.2976 -1.1794
  909MOL0     O25305   0.106   0.134   6.260 -0.4486 -0.7316 -0.2892
  909MOL0     C25306   0.111   0.098   6.375 -0.0468  0.2753  0.2815
  909MOL0     O25307   0.223   0.110   6.457  0.3027 -0.2140  0.0566
  909MOL0     C25308   0.332   0.193   6.425  0.0713 -0.3785 -0.7927
  909MOL0     C25309   0.369   0.245   6.304 -0.0317  0.0906 -0.4602
  909MOL0     C25310   0.473   0.327   6.291  0.2428 -1.2133  0.1931
  909MOL0     C25311   0.546   0.366   6.406  0.7112 -0.9937 -0.4920
  909MOL0     O25312   0.640   0.463   6.402 -0.4099  0.3445  0.0329
  909MOL0     C25313   0.601   0.594   6.361  0.1577 -0.1539  1.3851
  909MOL0     C25314   0.714   0.699   6.388 -0.6700  0.2633 -0.1220
  909MOL0     C25315   0.859   0.675   6.372  0.1709 -0.3030  0.2692
  909MOL0     C25316   0.885   0.649   6.224 -0.0624  0.2997 -0.2324
  909MOL0     C25317   1.023   0.621   6.198 -0.4019 -0.2506 -0.4026
  909MOL0     C25318   1.041   0.558   6.060  0.9110  1.0391  0.4662
  909MOL0     C25319   1.185   0.522   6.027 -0.7841 -0.0210 -0.0183
  909MOL0     C25320   1.211   0.445   5.899 -0.4339 -0.7530 -1.2234
  909MOL0     N25321   1.196   0.520   5.768 -0.4081 -0.6159 -1.4630
  909MOL0     C25322   1.166   0.461   5.645  0.1224 -0.4904  0.3747
  909MOL0     C25323   1.159   0.570   5.556 -0.3498  0.7045  0.3254
  909MOL0     C25324   1.141   0.560   5.407 -0.1719  0.5364 -0.1278
  909MOL0     C25325   1.015   0.639   5.368 -0.3549  0.3960 -0.6785
  909MOL0     C25326   0.888   0.592   5.442 -0.7514  0.2240 -0.1998
  909MOL0     C25327   0.754   0.648   5.387 -0.8836 -0.0235  0.3059
  909MOL0     O25328   0.753   0.794   5.391 -0.6883  0.4095 -0.5492
  909MOL0     C25329   0.708   0.863   5.504  0.1954  0.3208 -0.0561
  909MOL0     C25330   0.652   0.991   5.473 -0.4569  0.2586  0.3063
  909MOL0     C25331   0.606   1.074   5.573 -0.1067  0.3618 -0.1472
  909MOL0     C25332   0.518   1.194   5.539  0.6962 -0.8156 -0.2491
  909MOL0     C25333   0.623   1.032   5.701  0.5555  0.3247 -0.0592
  909MOL0     C25334   0.588   1.111   5.819  0.0897 -0.4880  0.0264
  909MOL0     O25335   0.593   1.249   5.812  0.3046 -0.4430  0.6730
  909MOL0     C25336   0.545   1.321   5.920 -1.4653 -0.2140 -0.7238
  909MOL0     C25337   0.613   1.439   5.953  0.3102 -0.3159 -0.8685
  909MOL0     C25338   0.568   1.541   6.036 -0.1095  0.9656 -0.7378
  909MOL0     C25339   0.447   1.524   6.092 -0.1743  0.2787 -0.1498
  909MOL0     O25340   0.398   1.633   6.160 -0.2486  0.4178 -0.8465
  909MOL0     C25341   0.302   1.600   6.266  0.6135 -0.0159 -0.7964
  909MOL0     C25342   0.374   1.514   6.376 -0.1998 -0.4052  0.3560
  909MOL0     C25343   0.271   1.436   6.462 -1.1732 -0.7557 -0.5801
  909MOL0     C25344   0.212   1.546   6.556  0.6416 -0.2223  0.6707
  909MOL0     C25345   0.121   1.485   6.658  0.5589  0.2489 -0.0769
  909MOL0     C25346   0.208   1.418   6.779  0.6450  0.0812  0.4100
  909MOL0     C25347   0.116   1.372   6.895  0.2063 -0.4825  0.3590
  909MOL0     C25348   0.210   1.309   6.989  0.0749 -0.8992 -0.2207
  909MOL0    Cl25349   0.265   1.160   6.910 -0.0703 -0.2583  0.3170
  909MOL0     C25350   0.370   1.403   6.055 -0.1435 -0.5216  0.3692
  909MOL0     C25351   0.424   1.298   5.970  0.4111 -1.1043 -0.5415
  909MOL0     O25352   0.557   1.049   5.921  0.0244 -0.5675 -0.1007
  909MOL0     C25353   0.672   0.904   5.726 -0.1313  0.4939 -0.0696
  909MOL0     C25354   0.717   0.812   5.634 -0.5600  0.4838 -0.6308
  909MOL0     N25355   1.171   0.683   5.631 -0.3006 -0.1535 -0.2023
  909MOL0     N25356   1.188   0.653   5.751  0.7649 -0.4228  0.4424
  909MOL0     C25357   0.505   0.312   6.529 -0.5134 -0.2651 -0.2127
  909MOL0     C25358   0.403   0.222   6.542  0.3128  0.0434 -0.0556
  909MOL0     C25359   0.001   0.011   6.430 -1.0597  0.1811  0.5338
  909MOL0     C25360   0.031  -0.061   6.543  0.6414  0.0750 -0.3584
  909MOL0     C25361  -0.064  -0.144   6.607  0.2096  0.2750 -0.5807
  909MOL0     C25362  -0.199  -0.161   6.562 -0.5231 -0.5106 -0.3036
  909MOL0     O25363  -0.288  -0.253   6.614  0.2528  0.1212  0.0396
  909MOL0     C25364  -0.241  -0.327   6.732  0.4386  0.6623 -0.2072
  909MOL0     C25365  -0.357  -0.412   6.798  0.4400 -0.3140  0.3345
  909MOL0     C25366  -0.498  -0.350   6.787  0.3685  0.0132 -1.4469
  909MOL0     C25367  -0.591  -0.430   6.691 -1.7935  0.0923 -0.3866
  909MOL0     C25368  -0.727  -0.379   6.701  0.0442 -0.5578  0.2948
  909MOL0     C25369  -0.839  -0.335   6.714  0.4099 -0.0155  0.8172
  909MOL0     C25370  -0.219  -0.087   6.452 -0.4878 -0.0245  0.3716
  909MOL0     C25371  -0.127  -0.003   6.381 -0.0534  0.5912 -0.2198
  909MOL0     C25372  -0.174   0.065   6.258 -0.1781  0.5941 -0.1487
  909MOL0     H25373   0.325   0.213   6.210  3.0377 -2.4174 -1.2297
  909MOL0     H25374   0.501   0.369   6.195 -1.4960  1.5608  0.7890
  909MOL0     H25375   0.507   0.631   6.404  1.0403  1.7756  1.7881
  909MOL0     H25376   0.590   0.597   6.252  0.2729 -3.3242  1.1921
  909MOL0     H25377   0.689   0.788   6.329  0.3764  1.4547  1.1334
  909MOL0     H25378   0.705   0.721   6.495 -0.5733 -2.3363  0.4857
  909MOL0     H25379   0.903   0.768   6.409 -0.2461  0.6153 -1.4473
  909MOL0     H25380   0.902   0.590   6.426  1.1234 -0.8245 -1.2405
  909MOL0     H25381   0.817   0.571   6.190  0.5568  0.6328 -2.3796
  909MOL0     H25382   0.851   0.736   6.166  0.3044  0.0556 -0.8311
  909MOL0     H25383   1.069   0.553   6.270 -0.0135  1.7354  1.3364
  909MOL0     H25384   1.084   0.712   6.196 -0.8068  0.0678  0.6570
  909MOL0     H25385   0.983   0.466   6.052 -0.8894  2.2885 -3.1638
  909MOL0     H25386   1.001   0.621   5.980 -1.2542  0.2375  0.8577
  909MOL0     H25387   1.225   0.457   6.105 -0.1427  1.5511  1.0364
  909MOL0     H25388   1.248   0.612   6.023 -1.9492  1.1602  3.6468
  909MOL0     H25389   1.315   0.414   5.915 -1.3092 -2.8097  1.1605
  909MOL0     H25390   1.151   0.354   5.892  0.1405 -1.0971 -1.7404
  909MOL0     H25391   1.147   0.357   5.622 -0.4819 -0.7705  2.0267
  909MOL0     H25392   1.142   0.456   5.375  1.9200 -0.2404  2.1406
  909MOL0     H25393   1.222   0.618   5.362  1.0943 -0.6684  0.5262
  909MOL0     H25394   1.025   0.740   5.408  1.4479 -1.8268  5.7965
  909MOL0     H25395   0.998   0.639   5.260  1.1981  0.4691 -0.9462
  909MOL0     H25396   0.882   0.483   5.436 -3.1160  0.3151 -0.5203
  909MOL0     H25397   0.900   0.618   5.548  0.1994 -0.8674 -0.0183
  909MOL0     H25398   0.733   0.619   5.284  0.0177  1.0021 -0.1870
  909MOL0     H25399   0.676   0.606   5.451 -2.0962  0.6707 -0.6792
  909MOL0     H25400   0.657   1.028   5.371  2.3999  2.1354  1.0188
  909MOL0     H25401   0.490   1.205   5.434  1.5371  0.3945 -0.3648
  909MOL0     H25402   0.577   1.284   5.557 -0.8480 -0.2107  2.3596
  909MOL0     H25403   0.432   1.205   5.606  1.7243  0.2909  0.9401
  909MOL0     H25404   0.707   1.451   5.901 -0.5412 -1.2875 -2.7375
  909MOL0     H25405   0.610   1.639   6.056  0.5084  0.2727  1.7572
  909MOL0     H25406   0.251   1.686   6.312  2.0977 -0.5377  2.0695
  909MOL0     H25407   0.216   1.551   6.220  1.8230 -1.8367 -1.2017
  909MOL0     H25408   0.432   1.436   6.326 -1.2802 -0.1868 -1.3171
  909MOL0     H25409   0.434   1.582   6.437  1.2240  0.1813 -1.5864
  909MOL0     H25410   0.322   1.354   6.513 -0.5466  1.1635  2.1825
  909MOL0     H25411   0.189   1.390   6.407  1.1633 -1.8516 -3.3962
  909MOL0     H25412   0.151   1.615   6.497  0.9805 -0.5877 -0.1275
  909MOL0     H25413   0.298   1.593   6.606 -0.5605  2.3403  0.4838
  909MOL0     H25414   0.047   1.559   6.690  1.6406  1.7083 -0.8207
  909MOL0     H25415   0.064   1.411   6.603  0.3853 -2.5494  3.4795
  909MOL0     H25416   0.268   1.496   6.826  2.1998 -1.0993  0.4461
  909MOL0     H25417   0.274   1.342   6.736  0.0999 -0.7443  1.0102
  909MOL0     H25418   0.053   1.291   6.855  0.9149 -2.1494  2.4409
  909MOL0     H25419   0.058   1.455   6.936  1.8751  0.8972  0.0508
  909MOL0     H25420   0.167   1.301   7.089 -2.0128  1.7842 -0.8104
  909MOL0     H25421   0.297   1.373   7.006  1.0706 -2.3114  0.2613
  909MOL0     H25422   0.262   1.404   6.066 -0.2218 -0.2486 -0.3586
  909MOL0     H25423   0.353   1.223   5.935 -4.7553  2.3969  1.1818
  909MOL0     H25424   0.660   0.867   5.827 -1.3170  1.9901  0.3705
  909MOL0     H25425   0.759   0.719   5.670  1.4092  1.4579 -0.3060
  909MOL0     H25426   0.567   0.350   6.610  0.5284 -2.1756 -0.0647
  909MOL0     H25427   0.373   0.172   6.634  1.0338  2.7777  1.8107
  909MOL0     H25428   0.130  -0.072   6.586  0.7282  1.8977 -0.0045
  909MOL0     H25429  -0.022  -0.204   6.687 -0.1144 -0.7264 -1.1469
  909MOL0     H25430  -0.156  -0.390   6.706  1.3020  0.8997  1.8428
  909MOL0     H25431  -0.213  -0.259   6.813 -3.5491 -0.8178  2.7626
  909MOL0     H25432  -0.324  -0.430   6.901  0.6377 -1.4437  0.0800
  909MOL0     H25433  -0.367  -0.509   6.749  0.6216 -0.9488  1.5349
  909MOL0     H25434  -0.541  -0.356   6.887 -0.8472 -0.6797 -1.9861
  909MOL0     H25435  -0.506  -0.243   6.763 -1.1309 -0.0626 -1.3872
  909MOL0     H25436  -0.597  -0.535   6.723 -2.7629  0.1855 -0.2272
  909MOL0     H25437  -0.542  -0.411   6.595  1.7623  1.5242  1.5458
  909MOL0     H25438  -0.932  -0.282   6.714  0.1429 -0.3898 -1.3049
  909MOL0     H25439  -0.312  -0.102   6.397 -0.4755  0.5773  0.1786
  909MOL0     H25440  -0.127   0.159   6.227 -1.1316  1.1837  0.1502
  909MOL0     H25441  -0.161   0.009   6.165  0.6023  0.5292 -0.0051
  909MOL0     H25442  -0.282   0.080   6.272 -0.0879  2.0180 -0.8044
  910MOL0     O25443   6.149  10.809   4.181  0.4786 -0.6383 -0.2010
  910MOL0     C25444   6.093  10.907   4.132 -0.0712  0.9284 -0.2198
  910MOL0     O25445   6.155  11.019   4.085 -0.3331 -0.1632  0.0366
  910MOL0     C25446   6.295  11.030   4.074  0.2524  0.1443  0.0789
  910MOL0     C25447   6.357  11.014   3.946 -0.4715 -0.7737  0.5309
  910MOL0     C25448   6.493  11.022   3.930 -0.0632  0.6003  0.1574
  910MOL0     C25449   6.570  11.056   4.037 -0.1342 -0.7411 -0.6001
  910MOL0     O25450   6.706  11.070   4.049 -0.2905 -0.3232  0.6030
  910MOL0     C25451   6.794  11.061   3.938 -0.0036  0.9025 -0.3348
  910MOL0     C25452   6.945  11.099   3.970 -0.3610 -0.2393  0.4423
  910MOL0     C25453   6.963  11.236   4.034 -0.3459 -0.2596  0.5460
  910MOL0     C25454   7.111  11.253   4.084  0.0988 -0.6879  0.4469
  910MOL0     C25455   7.133  11.356   4.200  0.6463  0.1708 -0.2385
  910MOL0     C25456   7.075  11.495   4.153 -0.6492 -1.1061 -0.0318
  910MOL0     C25457   7.110  11.605   4.263 -0.4827  0.0505  0.8444
  910MOL0     C25458   7.044  11.576   4.400  0.3908  0.2263 -0.5084
  910MOL0     N25459   7.061  11.691   4.487 -0.0752 -0.5381 -0.4260
  910MOL0     C25460   7.175  11.770   4.480 -0.0929  0.3362  0.5607
  910MOL0     C25461   7.148  11.883   4.548  0.1523  0.5314  0.6411
  910MOL0     C25462   7.252  11.986   4.565  0.3376  0.4059 -0.6926
  910MOL0     C25463   7.320  11.981   4.701 -0.7386  1.1091  0.1285
  910MOL0     C25464   7.400  12.106   4.726  0.4610 -0.6019 -0.1160
  910MOL0     C25465   7.545  12.105   4.669 -0.1024  1.0506 -0.2692
  910MOL0     O25466   7.615  11.996   4.723 -0.5623 -0.1058 -0.4487
  910MOL0     C25467   7.738  11.965   4.669  0.0349  0.1835 -0.3667
  910MOL0     C25468   7.804  12.038   4.568  0.9531 -0.4809 -0.0078
  910MOL0     C25469   7.910  11.992   4.492  0.2965  0.0142 -0.4004
  910MOL0     C25470   7.981  12.092   4.403  0.0229 -1.0541  1.1403
  910MOL0     C25471   7.970  11.866   4.515  0.3800  0.6194 -0.3271
  910MOL0     C25472   8.083  11.805   4.442  0.8171 -0.7156  0.1450
  910MOL0     O25473   8.151  11.702   4.507 -0.2068 -0.0222 -0.9201
  910MOL0     C25474   8.271  11.664   4.457 -0.5896  0.0625 -0.6251
  910MOL0     C25475   8.394  11.689   4.526  0.7078 -1.0523  0.9053
  910MOL0     C25476   8.517  11.649   4.470 -0.5481 -0.1858 -0.7730
  910MOL0     C25477   8.518  11.577   4.352  0.3734 -0.5167 -1.2444
  910MOL0     O25478   8.650  11.552   4.311 -0.4718 -0.6833  0.1893
  910MOL0     C25479   8.672  11.511   4.172 -0.6771 -0.1912 -0.6466
  910MOL0     C25480   8.822  11.487   4.127 -0.4600 -0.1788 -0.2715
  910MOL0     C25481   8.899  11.387   4.198 -0.0697 -0.6603  0.1859
  910MOL0     C25482   9.035  11.354   4.136  0.0309 -1.1842  0.1298
  910MOL0     C25483   9.138  11.463   4.176 -0.1653  0.0986  0.1683
  910MOL0     C25484   9.281  11.418   4.127 -0.4673 -1.0244  0.3301
  910MOL0     C25485   9.285  11.411   3.971 -0.0174 -0.5637 -0.5715
  910MOL0     C25486   9.428  11.405   3.915 -0.2831 -1.2174  0.1153
  910MOL0    Cl25487   9.481  11.238   3.936  0.8541  0.1975  0.3538
  910MOL0     C25488   8.399  11.559   4.282  0.5073 -0.3087 -0.1905
  910MOL0     C25489   8.282  11.592   4.340  0.0663 -0.5049 -1.2189
  910MOL0     O25490   8.107  11.841   4.326 -0.0438 -0.6680  0.0074
  910MOL0     C25491   7.917  11.797   4.623  0.5340 -0.6261 -0.1865
  910MOL0     C25492   7.803  11.846   4.704  0.1919 -0.0657  0.6912
  910MOL0     N25493   7.021  11.868   4.597  0.8503 -0.5321 -0.5556
  910MOL0     N25494   6.968  11.756   4.565  0.4369 -0.3478 -0.1971
  910MOL0     C25495   6.510  11.077   4.156  0.3361 -0.0550  0.2684
  910MOL0     C25496   6.374  11.071   4.181 -0.3887 -0.5095  0.8255
  910MOL0     C25497   5.943  10.897   4.136  0.8709 -0.2157 -0.9219
  910MOL0     C25498   5.881  10.800   4.222  0.3893 -0.0280 -0.0049
  910MOL0     C25499   5.740  10.783   4.229 -0.2263  0.1489 -0.4145
  910MOL0     C25500   5.654  10.861   4.152 -0.1148  0.6294 -0.0081
  910MOL0     O25501   5.523  10.830   4.141 -0.4303 -0.1251  0.8051
  910MOL0     C25502   5.456  10.798   4.259  0.7204 -0.8949  0.2167
  910MOL0     C25503   5.326  10.881   4.280  0.1266  0.8461 -0.3316
  910MOL0     C25504   5.214  10.848   4.184  0.4160 -1.4742  0.1855
  910MOL0     C25505   5.096  10.941   4.182 -0.7710  0.5987  0.9470
  910MOL0     C25506   5.019  10.935   4.305  0.2407 -0.0720 -0.8554
  910MOL0     C25507   4.947  10.938   4.409  0.3243 -0.4636 -0.6393
  910MOL0     C25508   5.723  10.953   4.065  1.3658 -0.5157  0.0551
  910MOL0     C25509   5.858  10.976   4.056 -0.4316  0.0930  0.0343
  910MOL0     C25510   5.911  11.084   3.961  0.1090  0.1233  0.9806
  910MOL0     H25511   6.298  10.985   3.859  1.4537 -1.8347 -0.5026
  910MOL0     H25512   6.543  11.003   3.836  0.9272 -0.1841  0.8257
  910MOL0     H25513   6.752  11.116   3.853  0.5461  0.3501 -0.9828
  910MOL0     H25514   6.803  10.955   3.912  3.4437  0.6481  1.2812
  910MOL0     H25515   6.992  11.013   4.019  0.3917 -0.1499 -0.1034
  910MOL0     H25516   7.002  11.104   3.877 -1.0551 -2.3792 -0.1776
  910MOL0     H25517   6.943  11.315   3.961  1.9361 -1.1051 -1.1085
  910MOL0     H25518   6.899  11.231   4.123 -0.2811  1.9499  0.7487
  910MOL0     H25519   7.167  11.163   4.110  4.2067  1.1596 -1.0832
  910MOL0     H25520   7.174  11.286   4.000 -0.6588 -0.2303  0.0536
  910MOL0     H25521   7.236  11.360   4.234  0.7401  1.6439 -0.6214
  910MOL0     H25522   7.072  11.325   4.286  2.4108  2.1987  1.8871
  910MOL0     H25523   7.116  11.528   4.057  0.5009 -0.9040  0.5026
  910MOL0     H25524   6.967  11.494   4.135 -0.8170  0.2191  0.7028
  910MOL0     H25525   7.082  11.700   4.219 -1.8599 -1.1487 -1.0017
  910MOL0     H25526   7.218  11.601   4.277  0.0530  1.9613 -1.9836
  910MOL0     H25527   6.936  11.572   4.383  0.4068  0.7612 -0.7250
  910MOL0     H25528   7.077  11.488   4.456 -1.7859 -0.7683 -0.6877
  910MOL0     H25529   7.271  11.742   4.437 -1.2000 -2.8889 -0.0639
  910MOL0     H25530   7.202  12.083   4.557 -1.8814 -0.6009  0.3616
  910MOL0     H25531   7.333  11.976   4.492  0.8426 -0.4721 -0.0311
  910MOL0     H25532   7.252  11.944   4.778  1.4002 -0.1677  1.5466
  910MOL0     H25533   7.393  11.900   4.688 -0.4650  1.5034 -0.8684
  910MOL0     H25534   7.350  12.193   4.683  1.0043 -0.2184  0.0157
  910MOL0     H25535   7.413  12.121   4.834  2.1085  1.1010 -0.5050
  910MOL0     H25536   7.536  12.091   4.561 -2.9136 -1.0618  0.1015
  910MOL0     H25537   7.590  12.203   4.688  1.3463  0.9169 -2.6818
  910MOL0     H25538   7.764  12.135   4.540 -1.8127 -0.8036  2.3281
  910MOL0     H25539   7.964  12.069   4.298  3.5385  0.3948  0.0849
  910MOL0     H25540   8.088  12.094   4.427  0.0040  0.6266  1.2126
  910MOL0     H25541   7.950  12.196   4.413  3.4199  0.6058 -2.5837
  910MOL0     H25542   8.395  11.731   4.626  3.1875 -1.2089  1.0185
  910MOL0     H25543   8.609  11.687   4.514 -1.4102  0.4610  0.5665
  910MOL0     H25544   8.617  11.420   4.150 -0.8797 -0.6919  1.7193
  910MOL0     H25545   8.633  11.599   4.119 -0.3547  0.5877  0.3800
  910MOL0     H25546   8.820  11.470   4.018  1.5174  0.2355 -0.4088
  910MOL0     H25547   8.868  11.582   4.155  1.1724 -1.3632  1.3163
  910MOL0     H25548   8.843  11.293   4.199  0.8606 -1.3260 -1.9929
  910MOL0     H25549   8.925  11.421   4.298  1.4854 -2.6177  0.5224
  910MOL0     H25550   9.039  11.340   4.027  1.1759  1.1756 -0.2022
  910MOL0     H25551   9.066  11.260   4.182  2.8965  0.5206  2.0279
  910MOL0     H25552   9.119  11.562   4.133 -1.6272 -1.7994 -4.1922
  910MOL0     H25553   9.133  11.456   4.285 -0.8365 -3.4169  0.0618
  910MOL0     H25554   9.302  11.316   4.161  1.3266 -1.4333 -1.7990
  910MOL0     H25555   9.362  11.483   4.160 -1.3367  0.6323 -0.6356
  910MOL0     H25556   9.242  11.499   3.922  3.2135  1.4462 -0.1036
  910MOL0     H25557   9.236  11.316   3.949 -3.7656  1.2376 -0.6048
  910MOL0     H25558   9.489  11.478   3.969 -1.8266  0.3981 -0.2411
  910MOL0     H25559   9.436  11.426   3.808  0.5053 -0.8503  0.2354
  910MOL0     H25560   8.386  11.524   4.180 -0.4801 -1.2495  0.2337
  910MOL0     H25561   8.192  11.580   4.281 -3.3687  1.0208  3.1650
  910MOL0     H25562   7.950  11.697   4.650 -0.2166 -1.2056 -1.3699
  910MOL0     H25563   7.771  11.789   4.790 -0.7403  0.9804  1.0658
  910MOL0     H25564   6.573  11.096   4.243 -0.6989  2.4676  0.5618
  910MOL0     H25565   6.337  11.088   4.282  1.0841  0.5673  1.2075
  910MOL0     H25566   5.941  10.752   4.299  2.0529  2.5116  0.3913
  910MOL0     H25567   5.697  10.702   4.288  1.2003  0.3785  1.0025
  910MOL0     H25568   5.422  10.694   4.265  0.8988 -0.9610  0.0561
  910MOL0     H25569   5.515  10.818   4.349  0.7679 -0.9149  0.1899
  910MOL0     H25570   5.348  10.988   4.273  0.4889  0.6643 -3.6001
  910MOL0     H25571   5.291  10.857   4.381  0.1357 -0.8976 -0.7041
  910MOL0     H25572   5.264  10.857   4.087  0.6451  3.1394  0.5014
  910MOL0     H25573   5.175  10.748   4.203 -4.0751 -0.0186 -0.2283
  910MOL0     H25574   5.033  10.902   4.102  0.8996  2.0243 -1.1491
  910MOL0     H25575   5.132  11.039   4.150 -1.1327  0.2435 -0.5818
  910MOL0     H25576   4.898  10.949   4.504  4.5888  0.1997  1.7483
  910MOL0     H25577   5.660  10.996   3.987 -1.5617 -0.6735  2.1627
  910MOL0     H25578   5.953  11.167   4.017 -1.4365  0.5691  1.5126
  910MOL0     H25579   5.982  11.047   3.885  0.5754  1.9057  0.4955
  910MOL0     H25580   5.823  11.133   3.919 -0.0095  2.1461  3.3998
  911MOL0     O25581   9.666   0.166   0.084  0.0120  0.6132  0.8387
  911MOL0     C25582   9.667   0.146  -0.042  0.9449  0.9398 -0.4972
  911MOL0     O25583   9.770   0.182  -0.118 -0.4591 -0.3700 -0.3348
  911MOL0     C25584   9.899   0.185  -0.070  0.9575 -0.0195  0.3705
  911MOL0     C25585   9.937   0.249   0.047 -0.2208  0.7387 -0.3448
  911MOL0     C25586  10.070   0.242   0.087  0.2538  1.1436 -0.2164
  911MOL0     C25587  10.165   0.169   0.023  0.2337  0.4119 -0.0997
  911MOL0     O25588  10.297   0.147   0.062 -0.1937  0.2165 -0.2698
  911MOL0     C25589  10.334   0.207   0.192  0.1717  0.0365  0.0028
  911MOL0     C25590  10.477   0.168   0.216 -0.0164 -0.1955  0.1677
  911MOL0     C25591  10.492   0.018   0.221  0.6649 -0.6419  0.0350
  911MOL0     C25592  10.390  -0.060   0.317 -0.0472  0.1252 -0.1497
  911MOL0     C25593  10.441  -0.194   0.363  0.1276  0.9282  0.2566
  911MOL0     C25594  10.330  -0.274   0.432 -0.4072 -0.5742 -0.2337
  911MOL0     C25595  10.374  -0.420   0.460 -0.0338 -0.4076  0.6747
  911MOL0     C25596  10.418  -0.511   0.330  0.0869  0.1242  0.0422
  911MOL0     N25597  10.317  -0.520   0.228  0.8457  0.2397  0.1676
  911MOL0     C25598  10.203  -0.606   0.234  0.4485  0.6440  0.6609
  911MOL0     C25599  10.121  -0.565   0.134 -0.4858  0.0058 -0.6163
  911MOL0     C25600   9.992  -0.629   0.098  0.4956  0.4204  0.2961
  911MOL0     C25601   9.968  -0.603  -0.054  0.5765  0.0576 -0.5559
  911MOL0     C25602   9.829  -0.659  -0.101  0.2291 -0.4537  0.4297
  911MOL0     C25603   9.840  -0.807  -0.104  1.1812  0.0277  0.5668
  911MOL0     O25604   9.957  -0.860  -0.159 -0.0822  0.7411  0.1633
  911MOL0     C25605   9.959  -0.867  -0.300 -0.5400  0.0143  0.0305
  911MOL0     C25606   9.849  -0.881  -0.378  0.3196 -0.1556  0.2747
  911MOL0     C25607   9.875  -0.895  -0.516  0.6122  0.3252  0.4040
  911MOL0     C25608   9.747  -0.913  -0.599 -0.7496  0.2554 -0.0430
  911MOL0     C25609   9.999  -0.883  -0.575 -1.0612  0.2212  0.3067
  911MOL0     C25610  10.028  -0.890  -0.720 -0.0500  0.0307  0.4323
  911MOL0     O25611  10.138  -0.817  -0.756  0.0408 -0.0789 -0.6777
  911MOL0     C25612  10.184  -0.829  -0.889 -0.5646  0.6772 -0.2418
  911MOL0     C25613  10.223  -0.957  -0.938  0.8754  0.5579 -0.0556
  911MOL0     C25614  10.272  -0.969  -1.071  0.0107 -0.6644 -1.1102
  911MOL0     C25615  10.276  -0.860  -1.158  0.0155  0.1423 -0.7561
  911MOL0     O25616  10.327  -0.867  -1.286 -0.2546  0.3933  1.0866
  911MOL0     C25617  10.328  -0.995  -1.354  0.0100 -0.2731  0.1750
  911MOL0     C25618  10.407  -0.975  -1.482  0.3588  0.3686  0.1478
  911MOL0     C25619  10.473  -1.099  -1.544  0.7843  0.8746 -0.4768
  911MOL0     C25620  10.545  -1.049  -1.670  0.6691  0.2942 -0.5922
  911MOL0     C25621  10.648  -1.152  -1.732  0.2967  0.3864  0.3418
  911MOL0     C25622  10.744  -1.077  -1.821  0.6791 -0.0709  0.0006
  911MOL0     C25623  10.829  -1.170  -1.905 -0.0628  0.3204 -0.0199
  911MOL0     C25624  10.921  -1.099  -2.011 -0.7716 -0.3446 -0.3493
  911MOL0    Cl25625  11.073  -1.029  -1.946 -0.2865  0.2586  0.2607
  911MOL0     C25626  10.244  -0.735  -1.105 -0.2271 -0.2685 -0.6306
  911MOL0     C25627  10.195  -0.713  -0.971  0.4253 -1.1093  0.2603
  911MOL0     O25628   9.962  -0.971  -0.796 -0.4237 -0.3769 -0.2862
  911MOL0     C25629  10.112  -0.864  -0.494  1.1314 -0.1155 -0.2314
  911MOL0     C25630  10.092  -0.858  -0.357 -0.0572 -0.1895 -0.1938
  911MOL0     N25631  10.175  -0.444   0.087  0.9218  0.3442 -0.7944
  911MOL0     N25632  10.286  -0.418   0.143  0.2642 -0.0968 -0.5838
  911MOL0     C25633  10.139   0.133  -0.110 -0.3465 -0.3929 -0.0728
  911MOL0     C25634  10.002   0.137  -0.157 -0.3014  0.2474 -0.2724
  911MOL0     C25635   9.542   0.094  -0.115  0.3354  0.6055 -0.5420
  911MOL0     C25636   9.528   0.115  -0.257  0.1108 -0.5370 -0.4199
  911MOL0     C25637   9.420   0.066  -0.321  0.0100 -0.4648  0.7628
  911MOL0     C25638   9.316  -0.004  -0.261  0.4940  0.7399  1.2318
  911MOL0     O25639   9.216  -0.067  -0.332 -0.5229 -0.6435  0.0960
  911MOL0     C25640   9.255  -0.208  -0.341 -0.2353  0.6557 -0.6760
  911MOL0     C25641   9.195  -0.267  -0.477 -0.6345  0.2251 -0.3126
  911MOL0     C25642   9.172  -0.428  -0.476 -0.1061  0.3250  0.8792
  911MOL0     C25643   9.039  -0.493  -0.445  0.7914  0.1804 -0.4577
  911MOL0     C25644   8.936  -0.447  -0.530  0.3233  0.2580 -0.5468
  911MOL0     C25645   8.849  -0.405  -0.607  0.0386 -0.0435  0.2725
  911MOL0     C25646   9.311  -0.012  -0.122 -0.5102  0.7858 -0.3602
  911MOL0     C25647   9.430   0.031  -0.053  0.4710  0.2402 -0.6537
  911MOL0     C25648   9.428   0.004   0.094 -0.8954  0.2833 -0.2870
  911MOL0     H25649   9.857   0.298   0.103 -0.8343 -0.4715 -0.1251
  911MOL0     H25650  10.100   0.301   0.173  1.2698  2.4615 -1.4245
  911MOL0     H25651  10.285   0.161   0.278  3.1330 -0.0088  1.8020
  911MOL0     H25652  10.323   0.315   0.178  1.2305  0.0714 -0.7222
  911MOL0     H25653  10.537   0.208   0.134 -0.9440  0.7430 -0.0668
  911MOL0     H25654  10.521   0.207   0.308  2.6180  0.9224 -1.4404
  911MOL0     H25655  10.486  -0.027   0.122 -2.2983 -0.2293 -0.0620
  911MOL0     H25656  10.588   0.008   0.272 -1.7157 -2.5400  4.8390
  911MOL0     H25657  10.362   0.001   0.403  0.6555 -0.9266  0.8590
  911MOL0     H25658  10.293  -0.065   0.267 -0.6190  0.2372  0.9164
  911MOL0     H25659  10.519  -0.170   0.436  0.6234 -0.7358  0.3040
  911MOL0     H25660  10.472  -0.248   0.274 -0.3001  1.5444 -0.2751
  911MOL0     H25661  10.310  -0.215   0.522  1.4247  1.0054 -0.7950
  911MOL0     H25662  10.240  -0.273   0.369 -0.9057  2.7837  0.3367
  911MOL0     H25663  10.292  -0.469   0.514 -0.9350 -0.9969 -1.1440
  911MOL0     H25664  10.453  -0.433   0.535 -0.6162 -0.1328  1.3535
  911MOL0     H25665  10.511  -0.473   0.288 -0.8084  1.1867 -1.0644
  911MOL0     H25666  10.424  -0.614   0.368 -1.6649  0.9874  3.0539
  911MOL0     H25667  10.175  -0.686   0.301 -2.8519  0.9134 -0.2053
  911MOL0     H25668   9.907  -0.587   0.152  0.0079 -1.1920  0.8591
  911MOL0     H25669   9.980  -0.736   0.120 -0.3171  0.0844 -1.6638
  911MOL0     H25670   9.981  -0.496  -0.069  1.5710  0.4146  2.2129
  911MOL0     H25671  10.045  -0.665  -0.102  0.6344 -1.5630  1.4818
  911MOL0     H25672   9.745  -0.629  -0.038 -1.5808 -0.8568 -1.6522
  911MOL0     H25673   9.793  -0.627  -0.199 -3.3566 -0.9397  1.4533
  911MOL0     H25674   9.837  -0.837   0.002 -5.4880 -1.0247  0.4577
  911MOL0     H25675   9.748  -0.855  -0.137  1.0723  1.5237 -1.4336
  911MOL0     H25676   9.749  -0.889  -0.336  0.9550 -0.3901  1.8090
  911MOL0     H25677   9.722  -0.834  -0.670 -0.0348  1.9701  1.5304
  911MOL0     H25678   9.658  -0.931  -0.538 -0.4245 -4.0684 -0.5253
  911MOL0     H25679   9.753  -1.010  -0.650  1.3364 -0.2727  1.0924
  911MOL0     H25680  10.225  -1.043  -0.872  3.9821  0.8975  0.4283
  911MOL0     H25681  10.314  -1.063  -1.104  0.3218 -0.9768  0.0987
  911MOL0     H25682  10.376  -1.064  -1.284 -1.0630  1.0224  2.3096
  911MOL0     H25683  10.225  -1.028  -1.368  0.2252 -1.3976  1.0555
  911MOL0     H25684  10.338  -0.939  -1.559 -3.2061 -1.2396  2.3284
  911MOL0     H25685  10.483  -0.899  -1.462 -1.3812  1.7522  1.9373
  911MOL0     H25686  10.394  -1.173  -1.561  0.4856  0.4888  2.1901
  911MOL0     H25687  10.547  -1.144  -1.478  0.0290  0.2783 -0.0223
  911MOL0     H25688  10.605  -0.959  -1.654  2.3470 -0.7881 -0.4696
  911MOL0     H25689  10.471  -1.019  -1.744 -1.0899 -0.5793  0.7264
  911MOL0     H25690  10.701  -1.212  -1.657  1.2921  1.2453  0.3592
  911MOL0     H25691  10.592  -1.225  -1.791 -0.0066  0.3072  0.7246
  911MOL0     H25692  10.806  -1.008  -1.762 -1.6241  1.1426  1.1361
  911MOL0     H25693  10.696  -1.007  -1.889  1.4202  0.9946  0.5286
  911MOL0     H25694  10.766  -1.249  -1.948  1.4575 -0.9627  0.0286
  911MOL0     H25695  10.900  -1.226  -1.843  1.4639 -1.5454 -3.1972
  911MOL0     H25696  10.860  -1.023  -2.061  0.0581  0.8027  0.3510
  911MOL0     H25697  10.941  -1.180  -2.081 -1.0291  0.0040 -0.8295
  911MOL0     H25698  10.250  -0.640  -1.157 -0.5647  0.9813  1.4773
  911MOL0     H25699  10.169  -0.609  -0.951  0.6423 -0.9888 -0.0592
  911MOL0     H25700  10.218  -0.859  -0.514  1.8218  2.6244  3.2418
  911MOL0     H25701  10.163  -0.839  -0.277 -0.1258  2.3886 -0.6777
  911MOL0     H25702  10.217   0.088  -0.170 -2.0440  1.6356 -4.2222
  911MOL0     H25703   9.992   0.106  -0.261  1.7034  2.6196 -1.2815
  911MOL0     H25704   9.605   0.166  -0.313  1.2716 -0.7317  0.9339
  911MOL0     H25705   9.414   0.089  -0.427 -1.1609  0.5215  1.0144
  911MOL0     H25706   9.362  -0.227  -0.340  0.1107  2.1979 -2.3629
  911MOL0     H25707   9.194  -0.261  -0.267  0.4806  0.6631 -0.0698
  911MOL0     H25708   9.260  -0.238  -0.560 -1.0113  1.0935 -0.3099
  911MOL0     H25709   9.093  -0.228  -0.487 -0.6116 -0.0225 -1.8019
  911MOL0     H25710   9.190  -0.455  -0.580  0.6787  1.1742  0.7839
  911MOL0     H25711   9.242  -0.480  -0.410 -2.0833 -1.3800  1.7332
  911MOL0     H25712   9.018  -0.477  -0.339  1.1855 -2.6276  0.1384
  911MOL0     H25713   9.051  -0.601  -0.459  1.6154  0.6193 -4.5615
  911MOL0     H25714   8.771  -0.368  -0.671 -1.5917 -1.7500  1.1973
  911MOL0     H25715   9.232  -0.073  -0.080  1.6703 -2.9020 -1.2268
  911MOL0     H25716   9.507  -0.066   0.124 -1.8593 -0.1451  1.3861
  911MOL0     H25717   9.451   0.099   0.143  0.8875 -0.3658  0.1969
  911MOL0     H25718   9.331  -0.034   0.128 -1.1735  0.2945 -1.0546
  912MOL0     O25719   2.939   1.730   3.155 -0.7135  0.9095 -0.6611
  912MOL0     C25720   2.863   1.739   3.254  0.0627  0.7336 -0.4854
  912MOL0     O25721   2.871   1.825   3.355  1.4041 -0.0081 -0.2215
  912MOL0     C25722   2.988   1.898   3.380  0.2160 -0.0201  0.6256
  912MOL0     C25723   3.017   2.006   3.303  1.1368 -0.2242 -0.2026
  912MOL0     C25724   3.124   2.093   3.329  0.5650  0.1493  0.3161
  912MOL0     C25725   3.207   2.066   3.438 -0.8010 -0.1891  0.2351
  912MOL0     O25726   3.309   2.143   3.488  0.6786  0.3871 -0.5488
  912MOL0     C25727   3.317   2.279   3.445  0.0334  0.1257  0.4652
  912MOL0     C25728   3.443   2.334   3.500 -0.1801 -0.5296 -0.2897
  912MOL0     C25729   3.572   2.261   3.457 -0.2577 -0.0123 -0.1209
  912MOL0     C25730   3.598   2.283   3.308 -0.3649  0.3166  0.2352
  912MOL0     C25731   3.733   2.213   3.261 -0.1486 -0.0179 -0.2803
  912MOL0     C25732   3.724   2.059   3.260 -0.6784 -0.5186 -0.2421
  912MOL0     C25733   3.836   1.989   3.183 -0.2400 -0.9092 -1.1076
  912MOL0     C25734   3.981   2.015   3.232  0.1275  0.1460  0.1059
  912MOL0     N25735   4.081   1.955   3.144 -0.0535 -0.4847  0.2576
  912MOL0     C25736   4.150   2.014   3.033  0.2118  0.4658 -0.2264
  912MOL0     C25737   4.183   1.902   2.953 -0.5347  0.3065 -0.3309
  912MOL0     C25738   4.250   1.898   2.823 -0.5102 -0.0141  0.4581
  912MOL0     C25739   4.370   1.988   2.810 -0.3418  0.3051  0.0391
  912MOL0     C25740   4.427   1.962   2.665 -0.0339  0.2938  1.8091
  912MOL0     C25741   4.565   2.023   2.643  0.6248 -0.3633 -0.2962
  912MOL0     O25742   4.655   1.962   2.735  0.9028 -0.4562  0.1354
  912MOL0     C25743   4.790   1.988   2.707  0.3473 -0.0267 -0.1228
  912MOL0     C25744   4.861   2.089   2.770  0.4453 -0.6498  0.2570
  912MOL0     C25745   4.991   2.133   2.730  1.0248  0.3593 -0.4552
  912MOL0     C25746   5.053   2.244   2.819  0.1123 -1.0254  0.7248
  912MOL0     C25747   5.056   2.065   2.622  0.7303  0.2391  0.6704
  912MOL0     C25748   5.194   2.089   2.566  0.0659  0.1999 -0.9726
  912MOL0     O25749   5.232   2.010   2.459  0.0262  0.1477  0.3155
  912MOL0     C25750   5.362   2.012   2.408 -0.0134 -0.8345  0.4189
  912MOL0     C25751   5.371   2.049   2.272  0.0396  0.1759  0.9478
  912MOL0     C25752   5.498   2.061   2.215 -0.1617 -0.1952  0.1353
  912MOL0     C25753   5.611   2.027   2.282  0.3705 -0.3173  0.1742
  912MOL0     O25754   5.726   2.045   2.208  0.2933  0.9662  0.2041
  912MOL0     C25755   5.849   2.027   2.278 -0.5653  0.1742 -0.7301
  912MOL0     C25756   5.963   2.038   2.174 -0.2589  0.4004 -0.3637
  912MOL0     C25757   6.101   1.998   2.225 -1.0112 -0.1689  0.0064
  912MOL0     C25758   6.189   1.997   2.102  0.0882  0.6892  0.4029
  912MOL0     C25759   6.339   1.982   2.136 -0.6612  0.1374 -0.0304
  912MOL0     C25760   6.420   2.024   2.019  0.6553  0.1460  1.1641
  912MOL0     C25761   6.569   2.055   2.050  0.2510  0.2781 -0.4436
  912MOL0     C25762   6.644   2.109   1.932 -0.5998  0.3042  0.4944
  912MOL0    Cl25763   6.811   2.155   1.987  0.1102  0.2237 -0.1100
  912MOL0     C25764   5.597   1.988   2.418 -0.6308  0.2489 -0.4652
  912MOL0     C25765   5.478   1.980   2.478  1.2311  0.3862 -0.6981
  912MOL0     O25766   5.248   2.191   2.616 -0.2883  0.7817 -0.0568
  912MOL0     C25767   4.981   1.959   2.554  0.3575 -0.7325 -0.2382
  912MOL0     C25768   4.853   1.917   2.600  0.5701 -0.4394  0.1463
  912MOL0     N25769   4.135   1.790   3.017  0.0554 -0.2702  0.3937
  912MOL0     N25770   4.079   1.819   3.132  0.3455 -0.6893 -0.9546
  912MOL0     C25771   3.188   1.943   3.513  0.3410 -0.8076  0.2736
  912MOL0     C25772   3.075   1.859   3.482 -0.1085  0.4247  0.5341
  912MOL0     C25773   2.738   1.644   3.248  0.0829 -0.9678  0.1950
  912MOL0     C25774   2.696   1.613   3.121 -0.4583 -0.2291 -0.3404
  912MOL0     C25775   2.569   1.556   3.107 -0.4361  0.2566  0.1399
  912MOL0     C25776   2.494   1.516   3.220 -0.8839 -0.4725 -0.1420
  912MOL0     O25777   2.370   1.451   3.219 -0.0331  0.2847 -0.0015
  912MOL0     C25778   2.318   1.385   3.099  0.1914 -0.3350  0.1364
  912MOL0     C25779   2.239   1.484   2.995 -0.1815  0.2380  0.5352
  912MOL0     C25780   2.139   1.405   2.902 -0.2300  0.6341 -0.1451
  912MOL0     C25781   2.098   1.481   2.781 -0.9079  0.7202 -0.1277
  912MOL0     C25782   1.997   1.578   2.795  0.4734 -0.1413  0.2622
  912MOL0     C25783   1.906   1.647   2.821 -0.4617  0.2555  0.4127
  912MOL0     C25784   2.543   1.543   3.346  0.1290  0.1615  0.3677
  912MOL0     C25785   2.663   1.609   3.365 -0.7688  0.2974 -0.3147
  912MOL0     C25786   2.697   1.648   3.495  0.6613 -0.6111  0.0355
  912MOL0     H25787   2.947   2.040   3.227  0.0478  0.6014  1.1264
  912MOL0     H25788   3.147   2.179   3.267  1.5592 -1.3164 -1.4366
  912MOL0     H25789   3.237   2.341   3.486 -0.3903  0.1678 -0.4041
  912MOL0     H25790   3.310   2.291   3.336 -2.1968  0.6573  0.6068
  912MOL0     H25791   3.441   2.441   3.476  0.2708 -0.6179 -0.7339
  912MOL0     H25792   3.454   2.331   3.609  1.6015  0.2851 -0.4231
  912MOL0     H25793   3.652   2.304   3.517  0.3384 -1.0923 -0.1152
  912MOL0     H25794   3.575   2.153   3.472 -1.8124 -0.1869 -0.8467
  912MOL0     H25795   3.512   2.239   3.256 -1.2920  0.9339  1.1953
  912MOL0     H25796   3.609   2.389   3.281  1.3144  0.2025  0.3682
  912MOL0     H25797   3.808   2.231   3.338  0.9371  0.1887 -1.3604
  912MOL0     H25798   3.768   2.253   3.166 -0.0869 -0.7415 -0.5715
  912MOL0     H25799   3.744   2.027   3.363  0.4811 -0.3498 -0.4003
  912MOL0     H25800   3.627   2.019   3.232 -1.0484  1.0842 -1.3846
  912MOL0     H25801   3.838   2.025   3.079 -2.4806 -0.5048 -1.0640
  912MOL0     H25802   3.814   1.882   3.176 -1.3827 -0.6226 -2.4583
  912MOL0     H25803   4.002   2.122   3.237  1.6965 -0.1000 -0.6711
  912MOL0     H25804   4.010   1.990   3.335 -0.0434 -2.9277 -0.4979
  912MOL0     H25805   4.157   2.121   3.014 -0.1892  0.4840 -0.2789
  912MOL0     H25806   4.170   1.921   2.752  0.0715 -1.4399 -0.7004
  912MOL0     H25807   4.275   1.794   2.803 -2.0575 -0.3408  0.0439
  912MOL0     H25808   4.351   2.095   2.824  2.3256  1.2398 -2.4558
  912MOL0     H25809   4.445   1.948   2.879 -0.4612 -0.8598 -0.4831
  912MOL0     H25810   4.439   1.857   2.635 -1.2132  0.7466 -0.4774
  912MOL0     H25811   4.357   2.003   2.592 -0.0076 -0.5837  1.2698
  912MOL0     H25812   4.599   2.002   2.541  0.1910 -1.4088 -0.2362
  912MOL0     H25813   4.557   2.131   2.660 -2.9652 -0.3314 -1.4599
  912MOL0     H25814   4.808   2.135   2.853  0.4415 -1.1237  0.5243
  912MOL0     H25815   5.156   2.227   2.852  0.5282  0.0797  0.0265
  912MOL0     H25816   4.994   2.275   2.906  1.4187  1.2212  0.8895
  912MOL0     H25817   5.062   2.329   2.752  1.5982  0.5717  2.7901
  912MOL0     H25818   5.275   2.077   2.230 -1.0687 -0.0688  3.1968
  912MOL0     H25819   5.507   2.102   2.115 -0.0979  1.3127  0.7384
  912MOL0     H25820   5.857   2.092   2.366  1.8205  0.2950 -0.9718
  912MOL0     H25821   5.866   1.928   2.323 -0.4921 -0.0382 -1.2235
  912MOL0     H25822   5.935   1.977   2.087 -0.4723 -1.7429  1.1206
  912MOL0     H25823   5.963   2.141   2.139  0.1900  0.0963 -1.2968
  912MOL0     H25824   6.088   1.902   2.276  0.5008 -0.5816 -0.3399
  912MOL0     H25825   6.134   2.078   2.292 -0.1901 -0.4668 -0.0221
  912MOL0     H25826   6.176   2.096   2.059 -0.6124  0.8189  0.8932
  912MOL0     H25827   6.167   1.924   2.023  1.9014  0.8841 -0.3338
  912MOL0     H25828   6.353   2.039   2.228 -1.2909  0.5304 -0.1702
  912MOL0     H25829   6.360   1.877   2.159 -2.0062 -0.0236  0.5739
  912MOL0     H25830   6.381   2.116   1.975  3.3749  1.4336  1.2084
  912MOL0     H25831   6.401   1.945   1.947 -0.0751  2.3597 -1.2340
  912MOL0     H25832   6.627   1.966   2.078 -2.1083 -1.7546 -1.5777
  912MOL0     H25833   6.578   2.121   2.137 -2.3132 -2.7831  2.4462
  912MOL0     H25834   6.587   2.183   1.876 -1.2220  0.5372  1.4034
  912MOL0     H25835   6.650   2.032   1.855  2.5104 -0.4135  1.3049
  912MOL0     H25836   5.688   1.959   2.468 -0.3057 -0.0148 -1.1917
  912MOL0     H25837   5.468   1.958   2.584  0.4488 -1.0579 -1.0451
  912MOL0     H25838   5.028   1.906   2.472  0.9505 -0.2284 -0.2362
  912MOL0     H25839   4.802   1.828   2.564 -1.2021  1.4829 -2.4628
  912MOL0     H25840   3.262   1.927   3.591 -1.6563  0.4806  2.5554
  912MOL0     H25841   3.066   1.766   3.538  0.4965  0.6645  1.0385
  912MOL0     H25842   2.749   1.652   3.035 -1.3744  2.9012  0.3917
  912MOL0     H25843   2.533   1.541   3.005 -3.1162 -0.1590  1.0691
  912MOL0     H25844   2.395   1.337   3.039  0.9715  0.4357  0.4923
  912MOL0     H25845   2.257   1.298   3.125  0.6906 -1.4889 -2.2799
  912MOL0     H25846   2.320   1.534   2.941 -1.0288 -0.6992 -1.7020
  912MOL0     H25847   2.178   1.566   3.035 -1.9185  0.4719 -2.2973
  912MOL0     H25848   2.173   1.304   2.876  1.6776  0.2638  3.2757
  912MOL0     H25849   2.053   1.378   2.962 -1.5853  2.4596 -1.1439
  912MOL0     H25850   2.065   1.401   2.715  0.1276 -1.5755  1.9448
  912MOL0     H25851   2.184   1.530   2.734 -2.0013  0.7778 -2.1886
  912MOL0     H25852   1.823   1.713   2.835  1.3612  2.6124  0.7874
  912MOL0     H25853   2.480   1.515   3.429  1.0631 -2.1422  0.3770
  912MOL0     H25854   2.670   1.754   3.503  1.9975  0.2076 -4.0802
  912MOL0     H25855   2.640   1.582   3.561 -2.1342 -0.6751 -2.2653
  912MOL0     H25856   2.803   1.644   3.518  0.5564 -2.3806  0.2944
  913MOL0     O25857   0.392   7.589   4.381  0.3505 -0.2794 -0.8343
  913MOL0     C25858   0.450   7.497   4.430 -0.6359  0.8470 -0.7809
  913MOL0     O25859   0.586   7.473   4.416  0.3097  0.5079  0.2913
  913MOL0     C25860   0.656   7.560   4.338  0.2180 -0.9230  0.0125
  913MOL0     C25861   0.651   7.543   4.198  0.2259  0.5278 -0.4570
  913MOL0     C25862   0.743   7.598   4.116 -0.0147 -0.1593  0.5376
  913MOL0     C25863   0.831   7.699   4.162 -0.3515  0.6226 -0.8360
  913MOL0     O25864   0.917   7.746   4.063  1.1999 -0.0047 -0.6410
  913MOL0     C25865   1.013   7.844   4.101  0.2936  0.3270 -0.4297
  913MOL0     C25866   1.146   7.783   4.157  1.0013  0.5838 -0.5557
  913MOL0     C25867   1.280   7.865   4.141  0.1971 -0.5650 -0.1971
  913MOL0     C25868   1.384   7.803   4.222 -0.1274  0.3559 -0.2217
  913MOL0     C25869   1.516   7.878   4.237 -0.0147  0.6128  0.6314
  913MOL0     C25870   1.612   7.799   4.325  0.3530  0.4672 -0.9602
  913MOL0     C25871   1.746   7.881   4.344  1.0189 -0.9030  1.0016
  913MOL0     C25872   1.843   7.803   4.434 -0.1933 -0.0144  0.9420
  913MOL0     N25873   1.974   7.849   4.467 -0.3321 -0.3201  0.5199
  913MOL0     C25874   1.975   7.967   4.540  0.2690  0.0200  0.1071
  913MOL0     C25875   2.105   7.998   4.538  0.0546  0.1348 -0.5270
  913MOL0     C25876   2.167   8.130   4.596  0.1930  0.4485  0.0828
  913MOL0     C25877   2.206   8.117   4.740 -0.1796 -0.3358  0.0469
  913MOL0     C25878   2.260   8.248   4.797  0.2856 -0.5975 -0.3505
  913MOL0     C25879   2.151   8.344   4.834  0.7573  1.0623  0.0240
  913MOL0     O25880   2.082   8.290   4.958  0.4492  0.5891  0.1636
  913MOL0     C25881   1.948   8.309   4.968 -0.2279 -0.8147 -0.2872
  913MOL0     C25882   1.898   8.299   5.094  0.4129 -0.1706  0.5529
  913MOL0     C25883   1.765   8.321   5.116  0.9614  0.1519  0.0695
  913MOL0     C25884   1.720   8.279   5.256 -1.1108 -0.6539  0.4102
  913MOL0     C25885   1.672   8.347   5.016  0.0626 -0.7704  0.5668
  913MOL0     C25886   1.522   8.367   5.035 -0.2371  0.4075 -1.3717
  913MOL0     O25887   1.445   8.300   4.949 -0.4910 -0.5849 -0.7445
  913MOL0     C25888   1.308   8.309   4.951  0.7871  0.1283  0.3406
  913MOL0     C25889   1.240   8.208   4.883  0.0140 -0.0192 -0.0507
  913MOL0     C25890   1.105   8.205   4.876 -0.4115  1.1951 -0.3525
  913MOL0     C25891   1.027   8.304   4.933  0.2732 -0.3758  0.4635
  913MOL0     O25892   0.898   8.322   4.921  0.4395  0.4911 -0.3416
  913MOL0     C25893   0.817   8.251   4.824  0.3684  0.0010 -0.7934
  913MOL0     C25894   0.668   8.305   4.831  0.1309  0.3660 -0.2742
  913MOL0     C25895   0.649   8.389   4.709  0.5190 -0.1765 -0.2974
  913MOL0     C25896   0.521   8.471   4.723 -0.4581  0.0672 -0.0172
  913MOL0     C25897   0.523   8.589   4.623 -0.3960 -1.0544 -0.3519
  913MOL0     C25898   0.405   8.677   4.645  0.1953 -0.3169 -0.0825
  913MOL0     C25899   0.269   8.610   4.663 -0.3382  0.3085  0.3521
  913MOL0     C25900   0.148   8.687   4.614 -0.1205 -0.0674 -0.2039
  913MOL0    Cl25901   0.148   8.689   4.437  0.1631 -0.0963 -0.4994
  913MOL0     C25902   1.092   8.400   5.012 -0.5369 -0.1975  0.5927
  913MOL0     C25903   1.230   8.404   5.020  0.2467  0.6330  0.2161
  913MOL0     O25904   1.490   8.439   5.127 -0.4519 -0.1016  0.4672
  913MOL0     C25905   1.723   8.356   4.886 -0.2234  0.7841  0.7567
  913MOL0     C25906   1.860   8.343   4.865  0.5539 -0.4474 -0.2319
  913MOL0     N25907   2.182   7.906   4.470 -0.0100 -0.8425  0.1305
  913MOL0     N25908   2.103   7.815   4.425  0.9972  0.1741 -0.1760
  913MOL0     C25909   0.819   7.732   4.300 -0.9019  0.0205 -0.0870
  913MOL0     C25910   0.744   7.656   4.386 -0.0114 -0.1378  0.1293
  913MOL0     C25911   0.363   7.391   4.494  0.2079  0.0005 -0.3882
  913MOL0     C25912   0.223   7.391   4.465  0.4774  0.2924  0.2321
  913MOL0     C25913   0.135   7.307   4.529  0.6933  0.3625 -0.3646
  913MOL0     C25914   0.187   7.200   4.606  1.2420  0.7888 -0.8029
  913MOL0     O25915   0.088   7.106   4.646 -0.4657  0.0800  0.6863
  913MOL0     C25916   0.123   6.968   4.692 -0.8392 -0.5726  0.1002
  913MOL0     C25917   0.123   6.958   4.848  0.4139 -0.2190 -0.2708
  913MOL0     C25918   0.162   6.822   4.914  0.6590 -0.5633 -0.3221
  913MOL0     C25919   0.134   6.802   5.070  0.6512 -0.4919  0.2484
  913MOL0     C25920   0.202   6.899   5.159  0.4132  0.0984  0.3238
  913MOL0     C25921   0.241   6.967   5.254  0.9533  0.8866 -0.0902
  913MOL0     C25922   0.322   7.200   4.646  0.3014  0.9042  0.7916
  913MOL0     C25923   0.410   7.300   4.586 -0.9479  0.2208  0.1907
  913MOL0     C25924   0.551   7.291   4.632  0.7736  0.6061 -0.0688
  913MOL0     H25925   0.587   7.464   4.161  2.5944 -0.6897 -2.2250
  913MOL0     H25926   0.753   7.554   4.017  0.7570  1.4144 -0.1227
  913MOL0     H25927   0.980   7.916   4.176  0.6142  1.4813 -1.3766
  913MOL0     H25928   1.034   7.913   4.018 -2.0309  0.2292 -1.1782
  913MOL0     H25929   1.119   7.769   4.262 -0.3500  2.5721 -0.5889
  913MOL0     H25930   1.164   7.690   4.102 -0.0417  1.1319 -1.8865
  913MOL0     H25931   1.300   7.877   4.034 -1.9386 -2.0447 -0.8345
  913MOL0     H25932   1.259   7.959   4.193 -2.7512 -0.6772 -1.0108
  913MOL0     H25933   1.344   7.768   4.318  1.2512  0.7224  0.5125
  913MOL0     H25934   1.411   7.711   4.170  0.1678 -0.4895  1.3663
  913MOL0     H25935   1.485   7.975   4.278  2.5818  2.2947 -1.0899
  913MOL0     H25936   1.556   7.902   4.139  1.0321  0.5035  1.0258
  913MOL0     H25937   1.562   7.792   4.422  0.6365  0.5523 -0.8100
  913MOL0     H25938   1.618   7.698   4.282  1.2545 -1.0122  2.2886
  913MOL0     H25939   1.732   7.985   4.374  1.2702 -1.5164  3.4305
  913MOL0     H25940   1.785   7.884   4.242  0.6513  0.8429  0.8918
  913MOL0     H25941   1.796   7.787   4.532 -1.3638  4.7685  1.3875
  913MOL0     H25942   1.858   7.705   4.387  0.8861  0.7179 -0.3059
  913MOL0     H25943   1.896   7.999   4.607 -0.3991 -2.5259  0.6190
  913MOL0     H25944   2.100   8.213   4.575  0.0194 -0.1761 -2.1632
  913MOL0     H25945   2.254   8.148   4.532  0.5048 -0.9905  0.0657
  913MOL0     H25946   2.117   8.079   4.791 -1.9045 -0.6570 -3.0266
  913MOL0     H25947   2.284   8.040   4.741 -1.6212 -1.8528  0.7085
  913MOL0     H25948   2.323   8.236   4.886  0.2091  0.7344 -0.0938
  913MOL0     H25949   2.320   8.294   4.717  1.5979 -3.1908 -0.9754
  913MOL0     H25950   2.191   8.443   4.856  1.2353  1.4119 -2.1996
  913MOL0     H25951   2.088   8.357   4.745  0.6413  2.5942  0.3010
  913MOL0     H25952   1.972   8.263   5.166  2.2455  0.5394 -0.8977
  913MOL0     H25953   1.796   8.299   5.332  0.1585 -0.6282 -0.8238
  913MOL0     H25954   1.723   8.170   5.250  2.7571 -0.6861  0.3405
  913MOL0     H25955   1.621   8.317   5.282 -1.2635  0.6186 -1.8188
  913MOL0     H25956   1.296   8.129   4.834 -1.0466 -0.9493  0.1802
  913MOL0     H25957   1.056   8.122   4.825  0.1562  1.4292 -1.3186
  913MOL0     H25958   0.862   8.254   4.725 -0.5659 -1.3174 -1.2938
  913MOL0     H25959   0.805   8.145   4.851 -1.6909  0.8159  2.0381
  913MOL0     H25960   0.589   8.229   4.833 -0.9378  1.4506  2.4637
  913MOL0     H25961   0.638   8.370   4.913 -0.9808  2.0443 -1.9282
  913MOL0     H25962   0.643   8.329   4.618  0.2985 -1.8185  0.7487
  913MOL0     H25963   0.723   8.467   4.689  0.2423 -0.0847 -1.0014
  913MOL0     H25964   0.515   8.517   4.822 -0.9767  2.6295 -1.1660
  913MOL0     H25965   0.432   8.409   4.715 -0.0030 -0.3420 -2.6636
  913MOL0     H25966   0.617   8.640   4.644 -0.3511 -2.3558  3.4544
  913MOL0     H25967   0.518   8.558   4.519  0.2088  2.2099 -1.4794
  913MOL0     H25968   0.395   8.751   4.565 -3.0442 -0.2790  0.2347
  913MOL0     H25969   0.416   8.737   4.736 -2.1530 -0.8157  0.5937
  913MOL0     H25970   0.264   8.581   4.768  2.7777 -0.6321  0.3513
  913MOL0     H25971   0.286   8.513   4.615 -1.1605  1.0969 -1.6770
  913MOL0     H25972   0.171   8.792   4.633  3.7523 -0.4668 -1.7283
  913MOL0     H25973   0.060   8.668   4.677 -1.0287  3.7632 -0.0324
  913MOL0     H25974   1.031   8.472   5.066 -2.9662 -0.7407 -1.2297
  913MOL0     H25975   1.269   8.489   5.075  1.4670 -1.8594  3.4512
  913MOL0     H25976   1.660   8.371   4.799  0.0399  0.7018  0.5514
  913MOL0     H25977   1.892   8.352   4.762 -1.0934 -2.1809 -0.9599
  913MOL0     H25978   0.880   7.810   4.344 -1.7736  0.7427 -0.1343
  913MOL0     H25979   0.741   7.671   4.493 -0.3213 -1.2212  0.2868
  913MOL0     H25980   0.186   7.454   4.385 -0.7082  0.3835  0.8381
  913MOL0     H25981   0.028   7.319   4.517  0.2313 -1.7638  1.0888
  913MOL0     H25982   0.044   6.904   4.652 -2.1828  1.0021  0.0831
  913MOL0     H25983   0.221   6.932   4.660 -1.7619 -0.9846 -2.4385
  913MOL0     H25984   0.016   6.955   4.872 -0.4048 -2.8654 -3.6207
  913MOL0     H25985   0.156   7.048   4.901 -5.2621  3.1416 -1.5674
  913MOL0     H25986   0.106   6.742   4.864  1.1447 -0.2019 -1.4831
  913MOL0     H25987   0.270   6.811   4.904  0.9630  0.1086  1.6622
  913MOL0     H25988   0.157   6.708   5.120  1.0873 -0.4703  0.0923
  913MOL0     H25989   0.025   6.816   5.071  0.5907  0.4756 -3.5853
  913MOL0     H25990   0.267   7.023   5.342  2.0991 -1.9841  1.5590
  913MOL0     H25991   0.361   7.130   4.719  0.0718  1.3903  1.3883
  913MOL0     H25992   0.617   7.241   4.561  3.6813 -0.3388  2.9935
  913MOL0     H25993   0.609   7.381   4.655  0.6551  0.3916  1.1668
  913MOL0     H25994   0.555   7.229   4.723  1.5779  2.7737  1.4784
  914MOL0     O25995   1.681  10.489   3.362 -0.1630 -0.2554  0.0719
  914MOL0     C25996   1.587  10.570   3.378 -0.7271 -0.4307  0.4904
  914MOL0     O25997   1.571  10.690   3.303  0.3757  0.0989  0.0714
  914MOL0     C25998   1.668  10.709   3.203 -0.3571 -0.8887  0.2571
  914MOL0     C25999   1.789  10.770   3.230 -0.6170 -0.1021 -0.0035
  914MOL0     C26000   1.886  10.797   3.133  0.3381 -1.1678 -0.2619
  914MOL0     C26001   1.857  10.766   2.999  0.0744  0.5552 -0.3255
  914MOL0     O26002   1.964  10.793   2.915  0.3249  0.1538 -0.0919
  914MOL0     C26003   1.950  10.744   2.788  0.2361  0.0251  0.1407
  914MOL0     C26004   2.074  10.791   2.710 -0.3733 -0.1796  0.0434
  914MOL0     C26005   2.183  10.694   2.744 -0.5586  0.6017 -0.5940
  914MOL0     C26006   2.314  10.728   2.677  0.7935 -0.3630 -0.1565
  914MOL0     C26007   2.409  10.608   2.670 -0.3121  0.2188  0.0868
  914MOL0     C26008   2.556  10.648   2.627  0.1292 -0.2128 -0.0091
  914MOL0     C26009   2.641  10.660   2.753 -0.4783 -0.1420  0.2608
  914MOL0     C26010   2.788  10.684   2.737 -0.7774 -0.1410 -1.0059
  914MOL0     N26011   2.872  10.595   2.657 -0.4499 -0.4903 -1.1451
  914MOL0     C26012   2.926  10.483   2.711 -0.6783  0.3061  0.1525
  914MOL0     C26013   2.992  10.430   2.602 -0.1224  0.4548  0.3747
  914MOL0     C26014   3.059  10.286   2.606 -1.0282 -0.3781 -0.1579
  914MOL0     C26015   3.197  10.298   2.534  0.0244 -0.0772  0.0962
  914MOL0     C26016   3.278  10.167   2.524  0.5638  0.3844 -0.1165
  914MOL0     C26017   3.285  10.090   2.659 -0.5487  0.5026 -0.2726
  914MOL0     O26018   3.341   9.954   2.639  0.3072 -0.1525 -0.4718
  914MOL0     C26019   3.477   9.935   2.644  0.5799  0.1581 -0.4902
  914MOL0     C26020   3.514   9.808   2.648 -0.2567 -0.6068 -0.1296
  914MOL0     C26021   3.645   9.765   2.656 -0.5066  0.3854 -0.5795
  914MOL0     C26022   3.676   9.608   2.632  0.2731 -1.2450  0.0519
  914MOL0     C26023   3.739   9.863   2.697 -0.4775  0.0937  0.4587
  914MOL0     C26024   3.876   9.832   2.732  0.2422  0.3762  0.0718
  914MOL0     O26025   3.948   9.914   2.813 -0.5777 -0.0056  0.6757
  914MOL0     C26026   4.084   9.889   2.817  0.2457 -0.0255  0.6246
  914MOL0     C26027   4.166   9.959   2.723  0.3542  0.4552  0.0350
  914MOL0     C26028   4.302   9.948   2.730 -0.9393  0.4585  0.6578
  914MOL0     C26029   4.362   9.858   2.818 -0.3253 -1.0332  1.0222
  914MOL0     O26030   4.499   9.841   2.816 -0.3220 -0.4706  0.0431
  914MOL0     C26031   4.564   9.779   2.927 -0.0660  0.7339 -0.7003
  914MOL0     C26032   4.711   9.813   2.898  0.9797 -0.9852  0.0745
  914MOL0     C26033   4.788   9.764   3.018 -0.0427 -0.1713  0.7410
  914MOL0     C26034   4.788   9.608   3.045  0.3511 -0.4887 -0.3417
  914MOL0     C26035   4.911   9.549   3.104  0.1589 -0.0444 -0.4879
  914MOL0     C26036   4.901   9.393   3.127  0.6797  0.2515  0.7913
  914MOL0     C26037   4.803   9.353   3.236  0.4986 -0.0700 -0.2898
  914MOL0     C26038   4.835   9.214   3.288 -0.4743  1.2318 -0.3886
  914MOL0    Cl26039   4.831   9.086   3.173  0.5833 -0.0599 -0.1363
  914MOL0     C26040   4.280   9.786   2.900 -0.3045 -0.4089 -1.1233
  914MOL0     C26041   4.148   9.811   2.911  0.7675 -0.3887  0.8501
  914MOL0     O26042   3.926   9.738   2.660  0.8123 -0.4111  0.4529
  914MOL0     C26043   3.703   9.994   2.694 -0.4234 -0.7483  0.5181
  914MOL0     C26044   3.572  10.027   2.659 -0.3954 -0.0840 -0.0379
  914MOL0     N26045   2.984  10.515   2.493  0.1059 -0.1134 -1.1299
  914MOL0     N26046   2.909  10.614   2.529  0.5420 -0.1278 -0.0762
  914MOL0     C26047   1.735  10.713   2.964  0.5165 -0.3737 -0.6719
  914MOL0     C26048   1.642  10.684   3.066  0.4194 -0.0192  0.9305
  914MOL0     C26049   1.483  10.545   3.475  0.0982  0.2498 -0.5711
  914MOL0     C26050   1.354  10.591   3.457  1.1264 -0.1066 -0.3706
  914MOL0     C26051   1.251  10.554   3.540  1.1478 -0.3814 -0.4686
  914MOL0     C26052   1.271  10.470   3.645  0.1162  0.7228  0.1379
  914MOL0     O26053   1.155  10.406   3.690  0.1169 -0.5282  0.5684
  914MOL0     C26054   1.155  10.334   3.823  1.5742 -0.5215  0.2311
  914MOL0     C26055   1.026  10.267   3.845  0.2442  0.3220  0.4621
  914MOL0     C26056   0.899  10.356   3.840 -0.4739  0.7906 -0.1580
  914MOL0     C26057   0.913  10.470   3.934  0.5019  0.8329  0.7514
  914MOL0     C26058   0.774  10.520   3.964 -0.0194  0.0890 -0.1055
  914MOL0     C26059   0.672  10.549   4.017 -0.1402 -1.1693 -0.1206
  914MOL0     C26060   1.404  10.433   3.671  0.7228  0.5865  0.3726
  914MOL0     C26061   1.499  10.471   3.583  0.1355 -1.0079  1.0966
  914MOL0     C26062   1.638  10.456   3.638 -0.8203 -0.7211 -0.0712
  914MOL0     H26063   1.804  10.787   3.336  0.1648  0.7721 -0.2388
  914MOL0     H26064   1.981  10.837   3.165 -0.8046  0.4396  1.3077
  914MOL0     H26065   1.863  10.787   2.739 -0.1457 -2.4587 -1.5449
  914MOL0     H26066   1.940  10.635   2.785 -1.9494  0.1770  0.4349
  914MOL0     H26067   2.048  10.785   2.604  1.6706 -1.0343 -0.4548
  914MOL0     H26068   2.114  10.888   2.741 -0.4606 -0.3554  0.7160
  914MOL0     H26069   2.193  10.676   2.851  2.2746 -1.7146 -1.1191
  914MOL0     H26070   2.157  10.598   2.698  1.0232 -1.0422  1.7299
  914MOL0     H26071   2.297  10.765   2.575 -0.0301 -0.1076  0.0689
  914MOL0     H26072   2.359  10.812   2.731  0.9578 -0.0962 -0.6921
  914MOL0     H26073   2.369  10.543   2.591  1.8953  1.6164 -2.3180
  914MOL0     H26074   2.431  10.554   2.763  2.5894  0.8401 -0.1396
  914MOL0     H26075   2.598  10.569   2.564 -0.5444 -0.3643 -0.2792
  914MOL0     H26076   2.558  10.742   2.570  0.6392  1.2908  2.3432
  914MOL0     H26077   2.632  10.566   2.809 -1.9422  0.6021  1.3621
  914MOL0     H26078   2.590  10.741   2.806 -0.4353  2.9479 -3.9498
  914MOL0     H26079   2.794  10.781   2.686  0.8422  0.4744  0.2580
  914MOL0     H26080   2.829  10.702   2.837 -1.1080  2.5205 -1.2669
  914MOL0     H26081   2.905  10.443   2.810 -1.9278  3.3310  1.2142
  914MOL0     H26082   2.996  10.208   2.565  1.4990 -2.2038 -0.8466
  914MOL0     H26083   3.078  10.272   2.713 -4.4155  3.0406  1.1070
  914MOL0     H26084   3.164  10.342   2.440 -1.9459  1.3670  1.3768
  914MOL0     H26085   3.249  10.382   2.581 -2.1945  1.0630  0.6521
  914MOL0     H26086   3.231  10.103   2.449  1.6770 -1.2743  0.5671
  914MOL0     H26087   3.380  10.195   2.495 -0.3678  3.9923 -0.5045
  914MOL0     H26088   3.355  10.141   2.726  1.3609 -2.3380  0.1207
  914MOL0     H26089   3.183  10.077   2.697 -0.7913  3.2004  0.1477
  914MOL0     H26090   3.443   9.729   2.628  0.3121 -1.5732  1.4262
  914MOL0     H26091   3.730   9.595   2.538 -0.2499  0.0925 -0.4577
  914MOL0     H26092   3.583   9.551   2.620 -0.7521  0.4869 -0.6096
  914MOL0     H26093   3.735   9.548   2.701  2.1131 -3.7527 -3.3487
  914MOL0     H26094   4.112  10.016   2.648  2.1581 -2.2084 -3.5891
  914MOL0     H26095   4.362  10.010   2.665 -1.8419  0.4059 -0.2621
  914MOL0     H26096   4.539   9.825   3.023  1.6790  0.1484  0.0758
  914MOL0     H26097   4.556   9.670   2.928  1.2263  0.5882 -2.0824
  914MOL0     H26098   4.747   9.751   2.815  1.6249 -0.2317 -0.2218
  914MOL0     H26099   4.724   9.919   2.875  0.0002 -0.6058  1.1771
  914MOL0     H26100   4.749   9.816   3.106 -0.8896  0.1102  0.2098
  914MOL0     H26101   4.888   9.807   3.010  0.0512 -0.3148  1.1238
  914MOL0     H26102   4.777   9.561   2.947  1.8342 -0.4994 -0.5127
  914MOL0     H26103   4.704   9.594   3.114  0.6091  0.4859  0.1962
  914MOL0     H26104   4.999   9.565   3.041  0.7386 -1.6361 -0.1305
  914MOL0     H26105   4.939   9.589   3.202  2.4669 -1.4075 -0.5191
  914MOL0     H26106   4.995   9.345   3.156 -0.7460 -3.0909  0.3953
  914MOL0     H26107   4.879   9.335   3.036  1.2866 -2.6746  2.4018
  914MOL0     H26108   4.699   9.345   3.205 -0.5195  3.1839  1.8208
  914MOL0     H26109   4.805   9.429   3.315 -0.9764  0.8630 -1.1079
  914MOL0     H26110   4.765   9.190   3.368  0.6631  0.0835  0.2864
  914MOL0     H26111   4.936   9.209   3.329  0.4374  0.9844 -2.5276
  914MOL0     H26112   4.316   9.718   2.977  1.4834  0.4559 -1.1428
  914MOL0     H26113   4.084   9.769   2.988 -0.2233 -0.5387 -0.0160
  914MOL0     H26114   3.767  10.080   2.711  0.4473 -1.6248  1.8712
  914MOL0     H26115   3.556  10.134   2.663  1.4959  0.2394  0.0458
  914MOL0     H26116   1.713  10.686   2.861  2.8914  0.0241 -1.3329
  914MOL0     H26117   1.551  10.634   3.034  0.0961  1.1430 -0.0232
  914MOL0     H26118   1.321  10.657   3.378 -2.5707  0.2898  1.2966
  914MOL0     H26119   1.152  10.591   3.517  0.9786 -0.2307  0.4767
  914MOL0     H26120   1.235  10.262   3.805  2.3265  0.4923 -0.6195
  914MOL0     H26121   1.181  10.399   3.907 -1.4233  0.3600  0.6061
  914MOL0     H26122   1.040  10.229   3.946  0.3323  0.9964  0.7058
  914MOL0     H26123   1.003  10.193   3.768  2.2281  1.6091 -1.4911
  914MOL0     H26124   0.878  10.387   3.737 -1.4759 -0.9483 -0.5229
  914MOL0     H26125   0.811  10.295   3.865 -0.6015  1.0953  0.1302
  914MOL0     H26126   0.975  10.547   3.887  3.1325 -0.8515  1.2463
  914MOL0     H26127   0.958  10.437   4.028 -3.1702 -4.9851  0.9555
  914MOL0     H26128   0.589  10.599   4.063 -0.4191  0.3719 -2.1190
  914MOL0     H26129   1.422  10.360   3.750 -3.1034  0.6110  1.4787
  914MOL0     H26130   1.691  10.365   3.608 -0.6024  0.0036 -2.0387
  914MOL0     H26131   1.703  10.544   3.626 -0.8890 -0.6253  0.2687
  914MOL0     H26132   1.638  10.454   3.747 -0.8905  1.9678  0.0509
  915MOL0     O26133   5.834   0.812   8.983  0.2001 -0.0820 -0.1615
  915MOL0     C26134   5.815   0.694   8.958 -0.4651 -0.2017 -0.2186
  915MOL0     O26135   5.914   0.606   8.933  0.9362 -0.5410 -0.1013
  915MOL0     C26136   6.051   0.634   8.946 -0.1418 -0.9331 -0.7026
  915MOL0     C26137   6.112   0.741   9.022  0.6417  1.0173 -0.7752
  915MOL0     C26138   6.240   0.727   9.058 -0.2928 -0.2387 -0.3989
  915MOL0     C26139   6.332   0.649   8.994  1.0845 -0.1347  0.7831
  915MOL0     O26140   6.467   0.674   9.012  0.0016 -0.3149  0.0255
  915MOL0     C26141   6.558   0.624   8.909  0.3563 -0.0840 -0.0670
  915MOL0     C26142   6.693   0.687   8.923  0.0570  0.5706  0.9334
  915MOL0     C26143   6.774   0.649   8.796  0.4065 -0.6617 -0.0549
  915MOL0     C26144   6.911   0.720   8.800  0.2552 -0.2504 -0.2073
  915MOL0     C26145   7.011   0.633   8.870 -0.3050 -0.1121  0.7646
  915MOL0     C26146   7.148   0.696   8.844 -0.8314 -1.1357  0.6159
  915MOL0     C26147   7.265   0.625   8.900 -0.1839 -0.1285  0.0792
  915MOL0     C26148   7.332   0.515   8.813  0.2271  0.5810 -0.3313
  915MOL0     N26149   7.261   0.393   8.785  0.0119 -0.4291  0.3424
  915MOL0     C26150   7.244   0.293   8.869  0.6784 -0.5196  0.5286
  915MOL0     C26151   7.164   0.209   8.802 -0.1638  0.6695  0.3763
  915MOL0     C26152   7.084   0.090   8.855  0.3643 -0.9019  0.9433
  915MOL0     C26153   7.190  -0.012   8.892  0.2702 -0.3830  0.7855
  915MOL0     C26154   7.129  -0.122   8.971 -0.1870  0.6905  0.5662
  915MOL0     C26155   7.243  -0.220   8.986  0.2295  0.4006  0.5236
  915MOL0     O26156   7.342  -0.176   9.067 -0.4704 -0.6694 -0.4362
  915MOL0     C26157   7.462  -0.245   9.069  1.3851  0.5670  0.5697
  915MOL0     C26158   7.474  -0.381   9.091  0.1236  0.3196  0.5088
  915MOL0     C26159   7.597  -0.450   9.127  0.1819  0.1245 -1.3017
  915MOL0     C26160   7.596  -0.590   9.196 -0.2369 -0.0482  0.0349
  915MOL0     C26161   7.718  -0.371   9.110  0.4332 -0.1815  0.3524
  915MOL0     C26162   7.858  -0.414   9.126  0.2304 -1.3420  0.5760
  915MOL0     O26163   7.958  -0.343   9.065  0.0873  0.5378 -0.1464
  915MOL0     C26164   8.087  -0.373   9.099  0.2515  0.3603  0.6620
  915MOL0     C26165   8.151  -0.280   9.180 -0.2276  0.5080  0.2695
  915MOL0     C26166   8.286  -0.305   9.222  0.0526 -0.1212 -0.2421
  915MOL0     C26167   8.350  -0.424   9.187 -0.5755 -0.2090  0.5490
  915MOL0     O26168   8.479  -0.445   9.223  0.5652 -0.0495 -0.4555
  915MOL0     C26169   8.566  -0.441   9.105  0.0668 -0.3047  0.2384
  915MOL0     C26170   8.714  -0.449   9.140 -0.4322  0.4396 -0.2422
  915MOL0     C26171   8.803  -0.433   9.013 -0.8400 -0.3395 -1.1743
  915MOL0     C26172   8.777  -0.304   8.936 -0.2797  0.2203 -0.7049
  915MOL0     C26173   8.901  -0.278   8.849  0.2133  0.2902 -0.3113
  915MOL0     C26174   8.926  -0.391   8.747  0.8166 -0.4930  0.1981
  915MOL0     C26175   9.020  -0.339   8.638 -0.3951 -0.0778 -0.0630
  915MOL0     C26176   9.107  -0.450   8.569 -0.1506  0.3077 -0.7196
  915MOL0    Cl26177   9.191  -0.364   8.431 -0.2876  0.1981 -0.2149
  915MOL0     C26178   8.288  -0.517   9.103  0.8422  0.4262  0.0586
  915MOL0     C26179   8.158  -0.486   9.058 -0.2898 -0.1888  0.4101
  915MOL0     O26180   7.875  -0.500   9.218  0.5767 -0.3111 -0.3573
  915MOL0     C26181   7.702  -0.235   9.077  0.4904 -1.1401  0.1675
  915MOL0     C26182   7.576  -0.171   9.066 -0.1068  0.2157  0.4374
  915MOL0     N26183   7.137   0.261   8.671  0.7015  0.2474 -0.5021
  915MOL0     N26184   7.202   0.373   8.664 -0.8512  0.2708  0.8682
  915MOL0     C26185   6.275   0.549   8.911 -0.7481 -0.5998  0.3877
  915MOL0     C26186   6.137   0.547   8.883  0.2333 -0.2318 -0.2871
  915MOL0     C26187   5.675   0.644   8.958  0.6140 -0.3920 -0.2454
  915MOL0     C26188   5.666   0.510   8.986  0.7112 -0.6470  0.3102
  915MOL0     C26189   5.548   0.434   8.979 -0.4114  0.3052  0.2492
  915MOL0     C26190   5.430   0.498   8.954  0.2466 -0.4660 -0.2407
  915MOL0     O26191   5.300   0.447   8.938 -0.2550  0.8748  0.4268
  915MOL0     C26192   5.272   0.309   8.974 -0.0676  0.1553  0.3877
  915MOL0     C26193   5.121   0.305   8.990 -0.5719  0.7143  0.3719
  915MOL0     C26194   5.069   0.397   9.096  0.3086  0.3844 -0.6474
  915MOL0     C26195   4.914   0.420   9.090  0.3204  1.2609 -1.0131
  915MOL0     C26196   4.875   0.489   8.970 -1.5466 -0.2924  0.5748
  915MOL0     C26197   4.860   0.558   8.875  0.3990 -0.6865  0.2460
  915MOL0     C26198   5.433   0.641   8.932  0.4020 -0.1422 -0.5987
  915MOL0     C26199   5.555   0.715   8.936  0.7784 -0.0401 -0.3935
  915MOL0     C26200   5.548   0.864   8.919 -0.3503  0.3818 -0.0895
  915MOL0     H26201   6.056   0.824   9.064  1.6578  0.1380  2.6296
  915MOL0     H26202   6.282   0.793   9.133  1.6845 -1.4193 -0.3879
  915MOL0     H26203   6.525   0.627   8.805  1.0227 -1.4838 -0.3446
  915MOL0     H26204   6.581   0.517   8.919  1.9757 -0.0846 -2.7483
  915MOL0     H26205   6.682   0.796   8.925 -3.4092  0.5138 -2.6315
  915MOL0     H26206   6.747   0.657   9.013  0.7155  0.4628  0.5053
  915MOL0     H26207   6.798   0.543   8.785  0.9058 -0.5774  0.2160
  915MOL0     H26208   6.715   0.686   8.712  4.0056  1.5894 -1.8266
  915MOL0     H26209   6.944   0.723   8.696 -0.3488 -1.2712 -0.4427
  915MOL0     H26210   6.885   0.818   8.841  2.0643  0.7872 -1.4032
  915MOL0     H26211   7.018   0.525   8.849  0.7093  0.3383 -1.5281
  915MOL0     H26212   6.984   0.637   8.976 -0.4888  1.0123  0.6776
  915MOL0     H26213   7.159   0.707   8.736 -0.1047  0.2618  0.8103
  915MOL0     H26214   7.149   0.798   8.885 -1.0758 -0.8980  0.0457
  915MOL0     H26215   7.238   0.587   8.999 -1.1198 -1.4332 -0.6386
  915MOL0     H26216   7.338   0.701   8.926 -1.6629  0.3180  3.4942
  915MOL0     H26217   7.345   0.564   8.716  0.2106  0.9220 -0.1618
  915MOL0     H26218   7.426   0.492   8.863 -1.1834 -0.7362  1.9101
  915MOL0     H26219   7.282   0.274   8.969  0.8657  0.5626  0.6759
  915MOL0     H26220   7.024   0.044   8.776  1.4813 -0.3219 -0.3037
  915MOL0     H26221   7.023   0.130   8.936 -0.8876  2.0149 -1.2397
  915MOL0     H26222   7.226  -0.054   8.797 -1.5476  2.2232 -1.1784
  915MOL0     H26223   7.277   0.026   8.947  1.7953 -3.4158  0.7027
  915MOL0     H26224   7.095  -0.083   9.068 -1.3509  0.2867  0.3346
  915MOL0     H26225   7.054  -0.180   8.916  0.8714 -0.4217  0.2595
  915MOL0     H26226   7.198  -0.313   9.022 -1.1583  0.5188 -0.8041
  915MOL0     H26227   7.282  -0.236   8.885 -0.6108 -0.4288  0.3108
  915MOL0     H26228   7.382  -0.437   9.101 -0.3997  1.4790  2.9150
  915MOL0     H26229   7.495  -0.631   9.189 -1.2444  2.3253 -0.1493
  915MOL0     H26230   7.639  -0.588   9.297  3.2913 -0.3858 -1.3275
  915MOL0     H26231   7.663  -0.652   9.136 -2.9263 -0.9125 -2.2648
  915MOL0     H26232   8.104  -0.187   9.209 -0.2156  0.1599  1.4717
  915MOL0     H26233   8.346  -0.234   9.277  2.3575 -1.0690 -1.3861
  915MOL0     H26234   8.540  -0.525   9.040 -0.1945 -1.1164  1.3618
  915MOL0     H26235   8.555  -0.342   9.061  2.9204 -0.3926 -0.8734
  915MOL0     H26236   8.740  -0.365   9.206  0.4473 -1.4078  1.8603
  915MOL0     H26237   8.742  -0.547   9.178 -0.8208  0.9791  1.5592
  915MOL0     H26238   8.783  -0.521   8.952 -0.3691 -1.2740 -0.0098
  915MOL0     H26239   8.909  -0.447   9.037 -1.2699  0.0656  1.1013
  915MOL0     H26240   8.759  -0.225   9.010 -1.7242 -0.1091 -0.6932
  915MOL0     H26241   8.693  -0.323   8.869 -1.1912 -3.1907  1.1772
  915MOL0     H26242   8.888  -0.181   8.801 -0.3860 -1.1942 -3.3453
  915MOL0     H26243   8.987  -0.271   8.917 -0.0993 -0.4995  0.1822
  915MOL0     H26244   8.827  -0.414   8.707  0.1938  1.2473  0.6677
  915MOL0     H26245   8.961  -0.482   8.796  2.1989 -0.2126 -0.2208
  915MOL0     H26246   9.077  -0.250   8.669 -1.3854  0.2344  0.9152
  915MOL0     H26247   8.955  -0.300   8.560  0.1581 -0.2016 -0.5914
  915MOL0     H26248   9.048  -0.541   8.554  2.3258 -1.2806 -1.3750
  915MOL0     H26249   9.187  -0.470   8.641 -0.5702  1.8777  0.2359
  915MOL0     H26250   8.344  -0.601   9.064  2.4533  1.1688  0.6649
  915MOL0     H26251   8.096  -0.552   8.997 -0.5473  0.5737 -0.1729
  915MOL0     H26252   7.781  -0.161   9.071 -1.3020  1.0555  1.9664
  915MOL0     H26253   7.568  -0.065   9.044  0.7040  0.1272 -0.3766
  915MOL0     H26254   6.348   0.482   8.866  0.1144 -0.5351  1.6315
  915MOL0     H26255   6.093   0.476   8.814 -0.8595 -0.5691  0.7203
  915MOL0     H26256   5.754   0.449   9.001  0.9259 -0.1143  1.3151
  915MOL0     H26257   5.553   0.326   8.990  1.7310  0.3940  0.6133
  915MOL0     H26258   5.321   0.243   8.902 -0.1186 -0.2223  0.6941
  915MOL0     H26259   5.303   0.293   9.078 -0.7223  0.8263  0.6935
  915MOL0     H26260   5.085   0.202   8.997  2.7969 -0.4897  2.1252
  915MOL0     H26261   5.078   0.333   8.893 -2.5331 -2.2571  0.2434
  915MOL0     H26262   5.115   0.359   9.188  2.3110 -0.8390 -2.0593
  915MOL0     H26263   5.114   0.496   9.084  0.5792  0.3802  0.2882
  915MOL0     H26264   4.886   0.484   9.175 -0.2192  2.2555 -1.9204
  915MOL0     H26265   4.851   0.331   9.097 -0.6598  2.0412  0.9212
  915MOL0     H26266   4.837   0.606   8.782  0.7568 -0.2802  0.3620
  915MOL0     H26267   5.348   0.703   8.906 -0.4207 -1.1145 -0.3034
  915MOL0     H26268   5.564   0.914   9.015  2.3276 -2.0397  0.8433
  915MOL0     H26269   5.626   0.890   8.846 -0.1594  0.4892  0.1537
  915MOL0     H26270   5.451   0.904   8.888 -0.8892  1.4757  2.7229
  916MOL0     O26271   8.129   6.280   4.011  0.0195  0.4209  0.4887
  916MOL0     C26272   8.067   6.235   4.102 -0.2825  0.3511 -0.6563
  916MOL0     O26273   8.122   6.216   4.229  0.1486 -0.2014  0.4725
  916MOL0     C26274   8.250   6.271   4.248 -1.3107 -0.2918 -0.1053
  916MOL0     C26275   8.353   6.190   4.290  0.0560  0.3765 -0.7079
  916MOL0     C26276   8.479   6.237   4.316 -0.1595 -0.6484  0.9558
  916MOL0     C26277   8.518   6.367   4.284  0.0008 -0.6247 -0.6905
  916MOL0     O26278   8.648   6.416   4.315  0.8108  0.1821 -0.0364
  916MOL0     C26279   8.737   6.350   4.408  0.1073 -0.5195 -0.1227
  916MOL0     C26280   8.857   6.449   4.421  0.3711 -0.5459  0.1150
  916MOL0     C26281   8.984   6.391   4.482 -0.7310  0.9899  0.0712
  916MOL0     C26282   9.104   6.490   4.471 -0.2737 -0.0497  0.5040
  916MOL0     C26283   9.213   6.445   4.566  0.4394 -0.7661 -0.0157
  916MOL0     C26284   9.325   6.550   4.557 -1.0610 -0.2289 -0.8802
  916MOL0     C26285   9.464   6.493   4.606  0.1353 -0.8002 -0.5683
  916MOL0     C26286   9.442   6.438   4.752 -0.2321  0.1190 -0.1338
  916MOL0     N26287   9.573   6.422   4.812 -0.3540 -0.3602 -0.3279
  916MOL0     C26288   9.637   6.520   4.882  1.0650 -0.2503  0.1805
  916MOL0     C26289   9.747   6.465   4.917 -0.2660 -1.3351 -0.1193
  916MOL0     C26290   9.849   6.548   5.009  0.1348  0.1876  0.4589
  916MOL0     C26291   9.969   6.473   5.083 -0.3190  0.0496  0.4046
  916MOL0     C26292  10.080   6.425   4.986  0.4496 -0.8661  0.3230
  916MOL0     C26293  10.205   6.363   5.053  0.0605  0.3919  0.1903
  916MOL0     O26294  10.289   6.473   5.084  0.3257  0.4552 -0.4610
  916MOL0     C26295  10.359   6.459   5.199 -0.6349  0.4119  0.3234
  916MOL0     C26296  10.446   6.356   5.214 -0.0076 -0.5330 -0.8115
  916MOL0     C26297  10.517   6.339   5.338 -0.3280 -0.3288  0.2716
  916MOL0     C26298  10.611   6.217   5.356 -0.2909 -0.0365 -0.4507
  916MOL0     C26299  10.505   6.428   5.441  0.3931 -0.6742 -0.7841
  916MOL0     C26300  10.571   6.437   5.569  0.5234 -0.2448  0.1248
  916MOL0     O26301  10.645   6.337   5.615  0.6484 -0.4681 -0.1220
  916MOL0     C26302  10.669   6.331   5.749 -0.4506 -0.2480 -0.2509
  916MOL0     C26303  10.731   6.433   5.820 -0.0738 -0.2338  0.9642
  916MOL0     C26304  10.769   6.425   5.950 -0.2628  0.3883 -0.0061
  916MOL0     C26305  10.755   6.308   6.022  0.1897 -0.3618 -0.0132
  916MOL0     O26306  10.784   6.308   6.154 -0.8595 -0.9649  0.3738
  916MOL0     C26307  10.797   6.187   6.220  0.2084  1.1306 -0.3951
  916MOL0     C26308  10.837   6.221   6.360 -1.0658  0.0322 -0.3638
  916MOL0     C26309  10.980   6.272   6.368 -0.2807 -0.8792 -0.7817
  916MOL0     C26310  10.993   6.340   6.515  0.2670 -0.4986 -0.2076
  916MOL0     C26311  11.136   6.404   6.539 -0.4654 -0.4425  1.0252
  916MOL0     C26312  11.203   6.356   6.671 -0.6267 -1.0446 -0.0302
  916MOL0     C26313  11.346   6.425   6.680  0.6396 -0.3713  0.1101
  916MOL0     C26314  11.444   6.378   6.570  0.2030  0.6826  0.7738
  916MOL0    Cl26315  11.609   6.461   6.573 -0.1061  0.2915  0.3525
  916MOL0     C26316  10.688   6.208   5.955 -0.8593  0.6521 -0.8075
  916MOL0     C26317  10.657   6.215   5.819  0.0971  0.3072 -0.2021
  916MOL0     O26318  10.539   6.538   5.634 -0.0487 -0.3867  0.1636
  916MOL0     C26319  10.417   6.538   5.412 -0.3304  0.7556 -0.6479
  916MOL0     C26320  10.332   6.539   5.305  0.4232 -0.8662 -0.3715
  916MOL0     N26321   9.755   6.332   4.887  0.1324  0.0959 -0.6071
  916MOL0     N26322   9.645   6.307   4.833 -0.4538  0.7921  1.0281
  916MOL0     C26323   8.422   6.448   4.225 -0.1243  0.2733  1.3348
  916MOL0     C26324   8.287   6.403   4.210 -0.2329  0.4238  0.7179
  916MOL0     C26325   7.947   6.155   4.072  0.2235 -0.4828 -0.3089
  916MOL0     C26326   7.915   6.101   3.939 -0.2345 -0.8832  0.5388
  916MOL0     C26327   7.798   6.030   3.917  0.1632  0.0468 -0.0313
  916MOL0     C26328   7.705   6.022   4.021  0.4499 -0.7372  1.1358
  916MOL0     O26329   7.584   5.955   4.017  0.5335 -0.1221 -0.5010
  916MOL0     C26330   7.531   5.898   3.898  0.5154  0.0651  0.3361
  916MOL0     C26331   7.381   5.859   3.912  0.1532  1.2905  0.4129
  916MOL0     C26332   7.291   5.978   3.937 -0.0407 -0.3320  0.5274
  916MOL0     C26333   7.148   5.932   3.931  0.5028 -0.9109 -0.4060
  916MOL0     C26334   7.060   6.054   3.936 -0.8804  0.6472 -0.6744
  916MOL0     C26335   6.990   6.152   3.943  0.3234 -0.2665  0.5422
  916MOL0     C26336   7.721   6.094   4.137 -0.0288  0.5171 -0.1225
  916MOL0     C26337   7.843   6.159   4.160  0.9449 -1.3638  0.0650
  916MOL0     C26338   7.841   6.256   4.273  0.3236  0.3418  0.2933
  916MOL0     H26339   8.330   6.086   4.314 -0.1399  0.5998  0.1091
  916MOL0     H26340   8.545   6.160   4.355 -1.2244 -1.8939  0.3783
  916MOL0     H26341   8.759   6.257   4.355  3.0393  0.7040 -1.2386
  916MOL0     H26342   8.694   6.331   4.507  1.4515 -1.9868  0.2312
  916MOL0     H26343   8.875   6.491   4.321  1.4320 -0.6733  0.2356
  916MOL0     H26344   8.830   6.525   4.495  2.1338 -1.3944  1.7093
  916MOL0     H26345   8.978   6.370   4.589  1.6077 -3.4027 -0.4448
  916MOL0     H26346   9.012   6.297   4.434 -0.3754  1.3958 -0.5319
  916MOL0     H26347   9.144   6.494   4.369  0.4474 -3.1603  0.5617
  916MOL0     H26348   9.070   6.589   4.501 -0.7372  0.2990 -1.0951
  916MOL0     H26349   9.256   6.355   4.523  2.4898 -0.0794  0.4617
  916MOL0     H26350   9.174   6.410   4.662 -1.0457 -1.1195 -0.7125
  916MOL0     H26351   9.336   6.593   4.457  0.2417  1.8072  0.0777
  916MOL0     H26352   9.300   6.629   4.628  2.5515 -0.1887  0.5370
  916MOL0     H26353   9.546   6.566   4.599  0.9678 -1.8379 -2.4358
  916MOL0     H26354   9.487   6.405   4.546  0.2736  0.3867 -2.3297
  916MOL0     H26355   9.386   6.511   4.813  0.5470 -0.1825  0.9702
  916MOL0     H26356   9.384   6.346   4.758  0.6925 -0.6868 -2.5060
  916MOL0     H26357   9.609   6.620   4.910 -2.5893 -0.9047 -0.6732
  916MOL0     H26358   9.794   6.589   5.094  0.6943  0.8263  0.5283
  916MOL0     H26359   9.883   6.636   4.953 -4.0116  2.5469  1.3024
  916MOL0     H26360  10.026   6.535   5.153  3.0269 -2.7660  0.4324
  916MOL0     H26361   9.922   6.390   5.135 -4.0817  1.8468  0.2219
  916MOL0     H26362  10.031   6.360   4.913 -2.1071  1.8794 -0.6469
  916MOL0     H26363  10.114   6.508   4.922  0.1542 -0.8367  0.1970
  916MOL0     H26364  10.172   6.307   5.140  0.6322 -0.6738 -0.2602
  916MOL0     H26365  10.247   6.295   4.978  3.6425  1.8567  0.6815
  916MOL0     H26366  10.466   6.288   5.132  1.7573  1.7638 -2.4559
  916MOL0     H26367  10.704   6.243   5.407 -0.5477 -1.6402  0.9301
  916MOL0     H26368  10.634   6.162   5.264  0.7944 -0.5387  0.1074
  916MOL0     H26369  10.571   6.140   5.422  2.1530  1.4327  3.0240
  916MOL0     H26370  10.750   6.525   5.766 -0.5467 -0.3880  0.5282
  916MOL0     H26371  10.803   6.517   5.996  0.6061 -0.7618  1.7755
  916MOL0     H26372  10.696   6.147   6.230  0.8755 -0.3158  1.2954
  916MOL0     H26373  10.866   6.120   6.169 -0.5820  1.6721 -2.2489
  916MOL0     H26374  10.779   6.306   6.396 -1.5591  0.4863 -2.1262
  916MOL0     H26375  10.846   6.129   6.419  1.8290  0.6163  0.2679
  916MOL0     H26376  10.996   6.343   6.286  0.8364 -1.2746 -0.9281
  916MOL0     H26377  11.053   6.190   6.357 -0.8793 -1.9058  2.1381
  916MOL0     H26378  10.978   6.263   6.591  0.1926 -0.4130 -0.1361
  916MOL0     H26379  10.921   6.420   6.531  1.0623  0.5691 -1.7027
  916MOL0     H26380  11.206   6.375   6.460  0.6492 -1.2780  2.2726
  916MOL0     H26381  11.111   6.510   6.543 -1.3237 -0.5185 -1.2165
  916MOL0     H26382  11.223   6.249   6.669 -1.0939 -1.1202 -1.2237
  916MOL0     H26383  11.144   6.372   6.762 -1.6138 -3.1742 -0.2407
  916MOL0     H26384  11.396   6.395   6.772 -1.3714 -1.9365  0.7590
  916MOL0     H26385  11.342   6.535   6.673 -0.4110 -0.4035  0.1463
  916MOL0     H26386  11.409   6.406   6.471 -0.5908  5.3595  2.1493
  916MOL0     H26387  11.464   6.270   6.572  2.6537  1.0541  0.3340
  916MOL0     H26388  10.651   6.117   6.001  0.0582  1.3664  1.4601
  916MOL0     H26389  10.619   6.126   5.769  1.4693 -0.5842  0.2895
  916MOL0     H26390  10.398   6.618   5.482  0.6227  0.0300  0.4968
  916MOL0     H26391  10.249   6.609   5.303 -1.7028 -2.9314  3.7559
  916MOL0     H26392   8.446   6.546   4.186  1.5517 -0.2085  1.0932
  916MOL0     H26393   8.205   6.453   4.160 -2.8376 -2.2851  2.0140
  916MOL0     H26394   7.996   6.115   3.868  0.1453  0.9961  1.2744
  916MOL0     H26395   7.769   5.995   3.819 -0.5037 -1.4231  0.6667
  916MOL0     H26396   7.521   5.969   3.815 -4.7985 -0.5028  0.1174
  916MOL0     H26397   7.590   5.809   3.875  0.9906  0.0047  1.7209
  916MOL0     H26398   7.381   5.782   3.990  2.6774  1.6985  0.9033
  916MOL0     H26399   7.346   5.812   3.819  1.8657 -1.9433  1.2476
  916MOL0     H26400   7.315   6.025   4.033  0.6997  2.5892 -0.9475
  916MOL0     H26401   7.309   6.060   3.866  0.3621 -1.8748 -1.2216
  916MOL0     H26402   7.107   5.875   4.015 -3.7859  1.3744 -0.6518
  916MOL0     H26403   7.133   5.884   3.834 -0.5602  0.4832 -0.9652
  916MOL0     H26404   6.948   6.251   3.938  1.7568  0.3320 -0.2729
  916MOL0     H26405   7.640   6.095   4.208 -1.0522  3.8426 -1.1460
  916MOL0     H26406   7.738   6.289   4.291  0.3594  1.1038 -0.8047
  916MOL0     H26407   7.880   6.196   4.356  2.4990  0.2451 -0.7309
  916MOL0     H26408   7.900   6.348   4.262 -0.3508  1.3487  3.8456
  917MOL0     O26409   6.618   9.576   3.872  0.7669  0.5278 -0.1142
  917MOL0     C26410   6.534   9.621   3.958  0.2293  0.6212  0.0555
  917MOL0     O26411   6.567   9.655   4.085  1.0704 -0.1873 -1.0168
  917MOL0     C26412   6.697   9.657   4.128  0.5862 -0.0553 -0.1671
  917MOL0     C26413   6.751   9.787   4.150  0.6401  0.4475  0.5323
  917MOL0     C26414   6.872   9.811   4.198 -0.1831 -1.0019  0.0850
  917MOL0     C26415   6.955   9.702   4.220 -0.5259  0.0489  0.1586
  917MOL0     O26416   7.080   9.744   4.257  0.7134  0.3691  0.0750
  917MOL0     C26417   7.186   9.644   4.256  0.3854 -0.1232  0.5072
  917MOL0     C26418   7.318   9.712   4.290  0.3429 -0.1418  0.5881
  917MOL0     C26419   7.389   9.784   4.176  0.3559 -0.3002  0.7615
  917MOL0     C26420   7.432   9.692   4.053 -0.8660  0.2020  0.8615
  917MOL0     C26421   7.538   9.762   3.951  1.0223  1.1339  0.1057
  917MOL0     C26422   7.682   9.762   4.012  0.3627 -0.2867 -0.2670
  917MOL0     C26423   7.745   9.617   4.027 -0.4719  0.4876  0.3597
  917MOL0     C26424   7.788   9.571   4.183 -0.6153 -0.5185  0.7505
  917MOL0     N26425   7.909   9.635   4.241  0.6369 -1.2273  1.1031
  917MOL0     C26426   8.028   9.671   4.179 -0.5597 -0.7193  0.3698
  917MOL0     C26427   8.099   9.746   4.265 -0.6417  0.4512  0.4117
  917MOL0     C26428   8.226   9.811   4.230  0.1582 -0.0517 -0.5154
  917MOL0     C26429   8.342   9.727   4.274  0.4302  0.0487  0.1571
  917MOL0     C26430   8.372   9.594   4.194 -0.5961  0.2552 -0.8260
  917MOL0     C26431   8.514   9.536   4.218  0.4973  0.4894 -0.8084
  917MOL0     O26432   8.528   9.489   4.357  0.5263 -0.1115 -0.3700
  917MOL0     C26433   8.657   9.470   4.395 -0.0949  0.4758  0.0340
  917MOL0     C26434   8.695   9.517   4.519 -0.3074  0.7157 -0.0787
  917MOL0     C26435   8.829   9.517   4.565 -0.3955 -0.2298  0.1634
  917MOL0     C26436   8.858   9.598   4.692  0.1714 -0.0657 -0.2691
  917MOL0     C26437   8.919   9.441   4.485  1.1876 -0.0551 -0.3866
  917MOL0     C26438   9.054   9.400   4.539 -0.3477  0.6258  0.0849
  917MOL0     O26439   9.147   9.361   4.447 -0.7018 -0.1114 -0.4573
  917MOL0     C26440   9.280   9.361   4.470 -0.3561  0.0455 -0.5675
  917MOL0     C26441   9.347   9.455   4.558 -1.2789 -0.2874  0.6209
  917MOL0     C26442   9.488   9.440   4.585 -0.5957  0.1701  0.0448
  917MOL0     C26443   9.563   9.331   4.537  0.0731  0.2572 -0.2849
  917MOL0     O26444   9.694   9.303   4.571  0.0815  0.0221 -0.2199
  917MOL0     C26445   9.787   9.409   4.598 -0.6078  0.2857  1.1841
  917MOL0     C26446   9.915   9.390   4.505 -0.2845 -0.2578  0.4844
  917MOL0     C26447   9.992   9.258   4.525 -1.0206  0.0445  0.5382
  917MOL0     C26448  10.116   9.256   4.426 -0.6105 -0.7404 -0.1182
  917MOL0     C26449  10.205   9.139   4.464 -0.8057 -0.4444  0.0048
  917MOL0     C26450  10.332   9.111   4.380  0.4832 -0.2909 -0.1887
  917MOL0     C26451  10.412   8.979   4.420  0.2819 -0.4464 -0.4002
  917MOL0     C26452  10.543   8.967   4.333 -0.3175 -0.3810  0.2823
  917MOL0    Cl26453  10.631   8.802   4.343  0.2884 -0.1779 -0.0952
  917MOL0     C26454   9.500   9.250   4.438 -0.2681 -0.1306 -0.0185
  917MOL0     C26455   9.362   9.271   4.403 -0.1021 -0.4086 -0.0028
  917MOL0     O26456   9.064   9.376   4.659 -0.1969  0.0498  0.4707
  917MOL0     C26457   8.885   9.395   4.355  0.7186 -0.0804 -0.2752
  917MOL0     C26458   8.750   9.408   4.308  0.7945 -0.2711  0.7635
  917MOL0     N26459   8.035   9.727   4.384 -0.9897 -0.2551 -0.1641
  917MOL0     N26460   7.916   9.673   4.371  0.7174 -0.6425  0.1998
  917MOL0     C26461   6.909   9.569   4.202 -0.0385 -0.2568  1.0392
  917MOL0     C26462   6.775   9.545   4.158  0.4172  0.9979  0.0293
  917MOL0     C26463   6.394   9.615   3.912 -0.1922  0.0489  0.0037
  917MOL0     C26464   6.295   9.630   4.007 -0.3101 -0.8099 -0.0604
  917MOL0     C26465   6.163   9.639   3.967 -0.6981 -0.6953  0.4139
  917MOL0     C26466   6.127   9.652   3.829 -0.7626 -0.2649 -0.2440
  917MOL0     O26467   6.003   9.660   3.780  0.2589 -0.2414 -0.3013
  917MOL0     C26468   5.890   9.642   3.871 -0.3647  0.0016  0.1025
  917MOL0     C26469   5.762   9.664   3.789  0.3207 -0.1498 -0.5402
  917MOL0     C26470   5.642   9.721   3.876 -0.5667  0.2131 -0.2355
  917MOL0     C26471   5.576   9.620   3.974 -0.1859  0.8043 -0.1804
  917MOL0     C26472   5.453   9.668   4.035  0.5523 -0.6231  1.0785
  917MOL0     C26473   5.349   9.714   4.070  0.6859  0.9742 -0.0630
  917MOL0     C26474   6.225   9.648   3.736  0.4668  0.4603  0.1581
  917MOL0     C26475   6.357   9.628   3.770 -1.0724 -0.6216  0.5275
  917MOL0     C26476   6.448   9.592   3.652 -0.4784 -0.0506 -0.3104
  917MOL0     H26477   6.686   9.873   4.145  0.8421  0.7284  2.1164
  917MOL0     H26478   6.904   9.914   4.210 -1.3556 -0.4203 -1.4601
  917MOL0     H26479   7.198   9.599   4.157 -1.0435  2.0763 -0.7465
  917MOL0     H26480   7.177   9.563   4.329 -3.9356  0.0755  0.4046
  917MOL0     H26481   7.288   9.791   4.359 -3.3367  1.3508 -2.3558
  917MOL0     H26482   7.393   9.645   4.334 -0.8780 -1.7346  0.3246
  917MOL0     H26483   7.323   9.863   4.138  1.4889  0.5199  0.4362
  917MOL0     H26484   7.483   9.834   4.200  1.0787 -0.9145 -0.6783
  917MOL0     H26485   7.469   9.592   4.079 -0.9970 -1.0122 -2.9941
  917MOL0     H26486   7.340   9.678   3.996  0.6480  1.2869 -2.0816
  917MOL0     H26487   7.500   9.864   3.933  0.1284  0.6934 -0.5813
  917MOL0     H26488   7.535   9.716   3.852  0.4423 -0.4565  0.8397
  917MOL0     H26489   7.742   9.832   3.954  1.0158 -1.1000 -0.5898
  917MOL0     H26490   7.669   9.800   4.113 -1.7242 -1.4640 -0.0325
  917MOL0     H26491   7.832   9.598   3.964 -2.8102 -1.9920 -2.4295
  917MOL0     H26492   7.669   9.549   3.987 -0.0845  0.6295 -0.6432
  917MOL0     H26493   7.703   9.588   4.251 -2.5831 -2.4516 -1.0543
  917MOL0     H26494   7.808   9.464   4.175 -0.9131 -0.5105 -0.4017
  917MOL0     H26495   8.057   9.649   4.077 -2.1625  0.5301 -0.3931
  917MOL0     H26496   8.228   9.906   4.284 -0.0687  0.7469 -1.8480
  917MOL0     H26497   8.229   9.829   4.122 -1.2228  2.1420 -0.2408
  917MOL0     H26498   8.435   9.784   4.267 -0.4511  1.3179 -2.8244
  917MOL0     H26499   8.336   9.714   4.383 -0.0892 -0.7055  0.0452
  917MOL0     H26500   8.295   9.530   4.237  1.4132  0.0724  2.8757
  917MOL0     H26501   8.353   9.619   4.089 -1.2279  3.1498 -0.1140
  917MOL0     H26502   8.529   9.457   4.145  2.3726 -2.0146  2.0119
  917MOL0     H26503   8.591   9.609   4.192  0.3815 -0.1808 -3.1987
  917MOL0     H26504   8.625   9.569   4.583  0.4937  1.8543 -0.0919
  917MOL0     H26505   8.965   9.608   4.711  0.2074  1.1813 -1.0581
  917MOL0     H26506   8.808   9.558   4.781  1.3878  0.3553  0.6331
  917MOL0     H26507   8.821   9.700   4.678  0.9069  0.2392 -0.0446
  917MOL0     H26508   9.294   9.544   4.592 -0.5257  0.8207 -0.9693
  917MOL0     H26509   9.516   9.511   4.662 -0.0391 -0.9851  0.9389
  917MOL0     H26510   9.742   9.508   4.586 -2.1521 -0.4847  0.2476
  917MOL0     H26511   9.813   9.413   4.704 -0.2212  0.2272  1.0945
  917MOL0     H26512   9.887   9.406   4.401  0.4422  0.3949  0.3883
  917MOL0     H26513   9.989   9.463   4.538 -0.2174  0.0283 -0.2767
  917MOL0     H26514   9.944   9.162   4.511  1.2083 -1.1901  0.8613
  917MOL0     H26515  10.024   9.257   4.630 -0.8064 -0.7751  0.4694
  917MOL0     H26516  10.177   9.346   4.435  1.0416 -1.7791 -0.4584
  917MOL0     H26517  10.083   9.249   4.322  0.8852 -2.0759 -0.5453
  917MOL0     H26518  10.244   9.160   4.564  0.8046 -1.9180 -0.2642
  917MOL0     H26519  10.152   9.043   4.470  0.4289 -1.2626 -1.3006
  917MOL0     H26520  10.394   9.201   4.373 -1.1241  0.8459 -0.4759
  917MOL0     H26521  10.295   9.102   4.277 -2.4124  1.9929  0.4992
  917MOL0     H26522  10.343   8.896   4.400 -1.1628  0.7013 -0.2876
  917MOL0     H26523  10.426   8.979   4.528 -1.3038  0.2408 -0.1663
  917MOL0     H26524  10.612   9.041   4.377  0.1845 -2.3330  3.0677
  917MOL0     H26525  10.532   8.997   4.229 -2.5977 -2.5290 -0.1876
  917MOL0     H26526   9.560   9.176   4.386  3.3915  0.8525  2.4366
  917MOL0     H26527   9.309   9.206   4.334 -4.3578  1.8566  0.7826
  917MOL0     H26528   8.964   9.357   4.291  2.0701 -1.3238  1.9730
  917MOL0     H26529   8.733   9.361   4.212  0.5272 -0.1922  0.7696
  917MOL0     H26530   6.968   9.481   4.223 -2.5800 -2.9129 -1.9528
  917MOL0     H26531   6.740   9.445   4.135  0.1473  0.7462  1.4144
  917MOL0     H26532   6.320   9.623   4.113 -1.5515 -0.4653  0.2776
  917MOL0     H26533   6.081   9.631   4.038 -1.6155  1.7494 -0.2884
  917MOL0     H26534   5.878   9.546   3.923 -1.1394  1.2467  2.3692
  917MOL0     H26535   5.895   9.716   3.952  1.7890  1.7037 -1.4889
  917MOL0     H26536   5.743   9.563   3.752 -0.1873 -0.7055  1.1210
  917MOL0     H26537   5.789   9.733   3.709 -0.0203  1.8398  0.9641
  917MOL0     H26538   5.677   9.811   3.928  0.4590  0.5796 -1.4939
  917MOL0     H26539   5.565   9.748   3.804 -2.0012 -3.1434 -0.1604
  917MOL0     H26540   5.644   9.591   4.054 -1.5978  0.2464  0.8535
  917MOL0     H26541   5.567   9.526   3.919  0.6554  0.7750 -0.2840
  917MOL0     H26542   5.255   9.759   4.097 -0.1565  0.1297 -1.4404
  917MOL0     H26543   6.186   9.641   3.634 -2.5222  1.1406  1.1502
  917MOL0     H26544   6.473   9.486   3.659  0.1865  0.0629 -0.7906
  917MOL0     H26545   6.406   9.612   3.553  2.9239  0.0607 -1.8678
  917MOL0     H26546   6.541   9.650   3.648 -0.1657 -0.4111  1.2090
  918MOL0     O26547   2.204   8.139   1.345 -0.7614 -0.1751 -0.5927
  918MOL0     C26548   2.175   8.032   1.303 -0.3620  1.1967  0.0762
  918MOL0     O26549   2.266   7.932   1.286 -0.5880  0.7257 -0.2860
  918MOL0     C26550   2.403   7.963   1.292  0.3250  0.4630 -0.5229
  918MOL0     C26551   2.459   8.016   1.181  0.1213 -0.1651 -0.4122
  918MOL0     C26552   2.587   8.064   1.185 -1.0613 -0.7842 -0.5811
  918MOL0     C26553   2.661   8.079   1.302  0.5708  0.0430  0.2170
  918MOL0     O26554   2.779   8.141   1.316  0.2706  0.7505 -0.1988
  918MOL0     C26555   2.855   8.165   1.195  0.6948 -0.7822 -0.2815
  918MOL0     C26556   2.992   8.217   1.237  0.1529  0.1414 -0.4763
  918MOL0     C26557   3.062   8.231   1.111 -0.7763  0.6604  0.6197
  918MOL0     C26558   3.198   8.300   1.130 -0.0766  0.0768  0.5143
  918MOL0     C26559   3.301   8.220   1.215  0.7223  0.4145  0.0649
  918MOL0     C26560   3.438   8.289   1.218 -0.0991  1.1728 -0.1958
  918MOL0     C26561   3.555   8.191   1.247  0.2988  0.0240 -0.4026
  918MOL0     C26562   3.543   8.110   1.385  0.9836 -0.1168 -0.4888
  918MOL0     N26563   3.677   8.067   1.428  0.4976 -0.0580 -0.2347
  918MOL0     C26564   3.758   7.977   1.368  1.2249  1.1163  0.0398
  918MOL0     C26565   3.867   7.978   1.447  0.2748 -0.4611  0.8123
  918MOL0     C26566   3.972   7.882   1.407 -0.8303  0.2469 -0.6204
  918MOL0     C26567   4.096   7.878   1.495 -0.2517 -0.3730  0.2245
  918MOL0     C26568   4.197   7.783   1.440 -0.2992  0.8512 -0.0717
  918MOL0     C26569   4.321   7.773   1.530  0.7647  0.3295  0.2268
  918MOL0     O26570   4.383   7.902   1.552  0.6290  0.5940 -0.3680
  918MOL0     C26571   4.512   7.911   1.589 -0.2352  0.4658 -0.0263
  918MOL0     C26572   4.590   7.815   1.651  0.0179 -0.6339 -0.2461
  918MOL0     C26573   4.717   7.840   1.705 -0.1004 -0.4491 -0.1756
  918MOL0     C26574   4.778   7.754   1.801  0.1531  0.1010 -1.2152
  918MOL0     C26575   4.777   7.965   1.661  0.5864  0.9958  0.3958
  918MOL0     C26576   4.917   8.001   1.703  0.1899 -0.3516 -0.4612
  918MOL0     O26577   4.920   8.135   1.754  0.0568  0.0804  0.0825
  918MOL0     C26578   5.038   8.197   1.801  0.4675  0.1055  0.8880
  918MOL0     C26579   5.144   8.128   1.860 -0.1718  0.5697  0.7815
  918MOL0     C26580   5.252   8.189   1.926 -0.3979 -0.1599  1.6791
  918MOL0     C26581   5.266   8.332   1.914 -0.9942  0.4094 -0.4058
  918MOL0     O26582   5.379   8.386   1.967  0.6135 -0.2297  0.3833
  918MOL0     C26583   5.385   8.531   1.982 -0.2117  0.1836  0.5473
  918MOL0     C26584   5.512   8.558   2.057  0.8504 -0.5367 -0.6972
  918MOL0     C26585   5.643   8.527   1.985  0.3156  0.5059  0.1750
  918MOL0     C26586   5.756   8.598   2.046  0.3301 -0.1373 -0.3846
  918MOL0     C26587   5.891   8.569   1.981 -0.2679  0.0567  0.0633
  918MOL0     C26588   5.997   8.662   2.039  0.4555 -0.7484 -0.9344
  918MOL0     C26589   6.029   8.639   2.192  0.1783 -0.3134  0.6147
  918MOL0     C26590   6.109   8.743   2.267  0.0382  0.3278 -0.1249
  918MOL0    Cl26591   6.193   8.690   2.425 -0.0113  0.1337  0.5452
  918MOL0     C26592   5.161   8.404   1.845  0.0455 -0.7218  0.5929
  918MOL0     C26593   5.053   8.338   1.790 -0.1513  0.3216  0.8003
  918MOL0     O26594   5.017   7.918   1.695  0.0080 -0.3044 -0.1888
  918MOL0     C26595   4.698   8.059   1.595  0.0499  0.3295 -0.4285
  918MOL0     C26596   4.566   8.035   1.562 -0.0010  0.0932 -0.1784
  918MOL0     N26597   3.858   8.068   1.545 -0.3779  0.5377 -0.2265
  918MOL0     N26598   3.743   8.128   1.531  0.2571 -0.7568  0.0817
  918MOL0     C26599   2.602   8.027   1.426  1.2722  0.0271 -0.5045
  918MOL0     C26600   2.471   7.968   1.415  0.4813  0.1764  1.0513
  918MOL0     C26601   2.036   7.991   1.270 -0.8399 -0.3923  0.5469
  918MOL0     C26602   2.016   7.857   1.248  0.8353 -0.2983 -0.3214
  918MOL0     C26603   1.891   7.816   1.186  0.3201  0.3669 -0.6031
  918MOL0     C26604   1.794   7.913   1.154 -0.0149 -0.4381 -0.5863
  918MOL0     O26605   1.684   7.875   1.077  0.1599  0.4294 -0.0013
  918MOL0     C26606   1.563   7.948   1.062  0.4461  0.0382 -0.8793
  918MOL0     C26607   1.457   7.840   1.035  0.6374 -0.2861  0.6066
  918MOL0     C26608   1.336   7.839   1.121 -0.9355 -0.3421 -0.4988
  918MOL0     C26609   1.223   7.754   1.079  0.3476  0.3097 -0.3722
  918MOL0     C26610   1.130   7.730   1.188  0.4029  0.2873 -0.4395
  918MOL0     C26611   1.049   7.707   1.276  0.3293 -0.8475 -0.0182
  918MOL0     C26612   1.813   8.047   1.195  0.1078  0.3743 -0.1061
  918MOL0     C26613   1.933   8.085   1.250  0.1237 -0.5840  0.0266
  918MOL0     C26614   1.948   8.223   1.293 -0.3063 -0.3770  0.2499
  918MOL0     H26615   2.411   7.999   1.085  0.6395 -1.2642 -0.4912
  918MOL0     H26616   2.636   8.102   1.095 -2.1595  1.3569 -0.3442
  918MOL0     H26617   2.803   8.236   1.130  0.7333  0.3197  0.8507
  918MOL0     H26618   2.875   8.072   1.141 -0.8702  0.0780 -2.5307
  918MOL0     H26619   2.980   8.313   1.288  0.4769  0.2132 -0.5359
  918MOL0     H26620   3.046   8.142   1.295 -3.6602 -1.1361  1.7664
  918MOL0     H26621   3.085   8.135   1.065  0.8399  1.7022 -0.8304
  918MOL0     H26622   3.002   8.293   1.043 -0.4222 -0.5370 -0.8441
  918MOL0     H26623   3.250   8.307   1.034  0.3976 -4.9953  0.1266
  918MOL0     H26624   3.178   8.396   1.178  0.3776  0.4810 -0.0897
  918MOL0     H26625   3.309   8.119   1.176 -0.4059  0.0134  0.8155
  918MOL0     H26626   3.263   8.206   1.317 -0.4183 -3.2289 -0.7477
  918MOL0     H26627   3.447   8.319   1.113  1.5919 -2.6917 -1.3640
  918MOL0     H26628   3.447   8.367   1.294  4.4550  0.3117  0.4047
  918MOL0     H26629   3.648   8.247   1.261  0.0189 -0.1931  3.1077
  918MOL0     H26630   3.559   8.117   1.166  0.7273 -1.0291  0.5605
  918MOL0     H26631   3.512   8.187   1.456 -0.6209 -0.4161 -0.8408
  918MOL0     H26632   3.477   8.030   1.351  0.1665  1.4292 -2.7412
  918MOL0     H26633   3.729   7.917   1.282  2.2796 -0.4107  0.7052
  918MOL0     H26634   4.011   7.904   1.307  0.8018  0.8426  0.1164
  918MOL0     H26635   3.925   7.784   1.396 -1.5594  0.8027 -2.9245
  918MOL0     H26636   4.134   7.979   1.510  1.1442 -0.8340 -0.1198
  918MOL0     H26637   4.067   7.848   1.596  2.2655  3.0476  2.1925
  918MOL0     H26638   4.153   7.684   1.425 -1.0508  1.4179 -1.8741
  918MOL0     H26639   4.231   7.811   1.340 -1.2483 -1.3543 -1.0842
  918MOL0     H26640   4.295   7.721   1.623  5.4609 -0.9463  1.0672
  918MOL0     H26641   4.394   7.705   1.485  1.8646  0.8659  1.1604
  918MOL0     H26642   4.533   7.729   1.685 -0.2697 -0.9589 -1.4900
  918MOL0     H26643   4.720   7.665   1.826  0.2801  0.2775 -0.2340
  918MOL0     H26644   4.785   7.805   1.898  4.1919 -0.2795 -1.1505
  918MOL0     H26645   4.883   7.742   1.774  0.6412  0.9721  0.1988
  918MOL0     H26646   5.153   8.023   1.886  2.8902 -0.4332 -3.3060
  918MOL0     H26647   5.336   8.136   1.968  0.6414  1.5524  1.8573
  918MOL0     H26648   5.398   8.567   1.880 -2.5519  0.1347  0.1730
  918MOL0     H26649   5.298   8.576   2.032 -0.6931 -0.4586  0.3048
  918MOL0     H26650   5.505   8.665   2.077 -3.3049 -0.5265 -1.4273
  918MOL0     H26651   5.514   8.507   2.154  0.7041 -2.5054 -1.6749
  918MOL0     H26652   5.630   8.570   1.886 -2.2067  0.3059  0.3703
  918MOL0     H26653   5.667   8.420   1.983  1.2829  0.7234 -0.2529
  918MOL0     H26654   5.756   8.570   2.152 -0.3243  0.9421 -0.0847
  918MOL0     H26655   5.741   8.704   2.026 -0.0122 -0.4702 -2.0489
  918MOL0     H26656   5.925   8.466   1.986  0.0558  0.1198 -0.7160
  918MOL0     H26657   5.884   8.593   1.875  1.8657  0.9855  0.0807
  918MOL0     H26658   5.971   8.766   2.019 -2.5457 -1.1764  0.2406
  918MOL0     H26659   6.094   8.652   1.989  1.4580  2.7158  0.0938
  918MOL0     H26660   6.085   8.546   2.205 -0.0624 -0.4076  0.9862
  918MOL0     H26661   5.938   8.616   2.248  2.2369 -3.5793  2.9825
  918MOL0     H26662   6.038   8.819   2.301 -0.8049 -1.0442  1.3504
  918MOL0     H26663   6.187   8.772   2.196 -0.4433 -1.2324 -1.3475
  918MOL0     H26664   5.171   8.512   1.841  3.3670 -0.9548 -1.1326
  918MOL0     H26665   4.980   8.394   1.733  0.3912  2.3310  1.9768
  918MOL0     H26666   4.753   8.138   1.546 -1.2415  0.6732 -1.3573
  918MOL0     H26667   4.502   8.097   1.499  0.8869 -0.5434 -1.7689
  918MOL0     H26668   2.644   8.027   1.526 -2.8083  2.0672  1.4556
  918MOL0     H26669   2.406   7.940   1.498 -3.3394 -0.0383 -1.7694
  918MOL0     H26670   2.097   7.787   1.263  0.6811 -0.3092  0.5040
  918MOL0     H26671   1.886   7.710   1.164  1.0016  0.0323  0.7574
  918MOL0     H26672   1.544   8.002   1.155  2.5857  0.0093 -0.3845
  918MOL0     H26673   1.568   8.015   0.975  0.1559 -0.1821 -1.0652
  918MOL0     H26674   1.493   7.737   1.035  0.1480 -0.4869  1.9877
  918MOL0     H26675   1.429   7.864   0.933  0.2009  0.8009  0.9628
  918MOL0     H26676   1.371   7.803   1.218  4.0133  0.7643 -1.5915
  918MOL0     H26677   1.303   7.944   1.121  3.1681  1.1355 -0.0760
  918MOL0     H26678   1.253   7.653   1.049  2.4535  0.8473 -0.2172
  918MOL0     H26679   1.168   7.799   0.996 -0.1590  1.9265  0.7852
  918MOL0     H26680   0.991   7.686   1.363  0.5879  0.6781  0.5489
  918MOL0     H26681   1.732   8.116   1.173  1.3842  2.1713  0.5860
  918MOL0     H26682   1.871   8.292   1.255 -1.0736  0.2300  2.7323
  918MOL0     H26683   1.953   8.225   1.402  2.6248 -0.2490  0.1812
  918MOL0     H26684   2.043   8.264   1.258 -0.7826  1.2525  0.7304
  919MOL0     O26685   4.863   6.937   6.012  0.1080 -0.4747 -0.6745
  919MOL0     C26686   4.788   6.846   6.044 -0.0781 -0.1065 -0.7575
  919MOL0     O26687   4.835   6.721   6.083  0.1838 -0.1069 -0.3403
  919MOL0     C26688   4.972   6.696   6.070 -0.0510 -0.5890 -0.3899
  919MOL0     C26689   5.033   6.655   5.948  0.2991 -0.0133 -0.6223
  919MOL0     C26690   5.174   6.623   5.938 -0.0668 -0.6352  1.2347
  919MOL0     C26691   5.255   6.627   6.055 -0.4783  0.5876  0.3724
  919MOL0     O26692   5.381   6.582   6.083 -0.6259 -0.4559  0.1102
  919MOL0     C26693   5.453   6.524   5.977  0.7651 -0.7503  0.7475
  919MOL0     C26694   5.503   6.630   5.876 -0.8775 -0.3235 -0.3334
  919MOL0     C26695   5.586   6.559   5.769 -0.1294 -0.2958 -0.8247
  919MOL0     C26696   5.674   6.660   5.696  0.5447 -0.0308  0.1617
  919MOL0     C26697   5.715   6.586   5.557  0.3257 -0.1131 -0.2363
  919MOL0     C26698   5.809   6.682   5.475  0.3940  0.5952  0.4296
  919MOL0     C26699   5.867   6.607   5.356 -0.6021  0.2609  0.8055
  919MOL0     C26700   5.960   6.690   5.280  0.3864  0.8993  0.8650
  919MOL0     N26701   6.093   6.708   5.341  0.2860  0.1340 -0.8878
  919MOL0     C26702   6.198   6.624   5.320 -0.0087  0.2726  0.4386
  919MOL0     C26703   6.303   6.699   5.362 -0.4549 -0.0501  0.0615
  919MOL0     C26704   6.444   6.648   5.361  0.2365 -0.1223 -0.4777
  919MOL0     C26705   6.522   6.679   5.234  0.2774  0.2374  0.5084
  919MOL0     C26706   6.628   6.785   5.243 -0.4144  0.2144 -0.3672
  919MOL0     C26707   6.755   6.738   5.322  0.5921 -0.7989  0.4031
  919MOL0     O26708   6.735   6.720   5.460  0.1636  0.1702  0.0378
  919MOL0     C26709   6.836   6.662   5.535 -0.5965  0.1773  0.4035
  919MOL0     C26710   6.813   6.633   5.668 -0.0054 -0.7492 -0.1709
  919MOL0     C26711   6.910   6.584   5.760 -0.6039  0.4552  0.1919
  919MOL0     C26712   6.858   6.545   5.900  0.3382 -0.0273  0.2846
  919MOL0     C26713   7.043   6.562   5.715 -1.0524 -0.6272 -1.0861
  919MOL0     C26714   7.160   6.527   5.802  0.2703  0.4758 -0.6523
  919MOL0     O26715   7.279   6.570   5.756 -0.7053 -0.0173  0.6837
  919MOL0     C26716   7.385   6.527   5.831  0.0878  0.1921 -0.0390
  919MOL0     C26717   7.457   6.408   5.791  0.2216  0.1156 -0.1143
  919MOL0     C26718   7.562   6.357   5.869  0.2198 -0.5815  1.0812
  919MOL0     C26719   7.606   6.418   5.991  0.0442  0.4712  0.1581
  919MOL0     O26720   7.713   6.390   6.076  0.4530 -0.9409  0.2887
  919MOL0     C26721   7.829   6.322   6.022  0.4784  0.0002  0.0402
  919MOL0     C26722   7.901   6.427   5.937 -0.4194  0.1273  0.0654
  919MOL0     C26723   7.985   6.522   6.025 -1.0352 -0.0179 -0.3051
  919MOL0     C26724   8.107   6.444   6.084 -0.0137  0.4889  0.1920
  919MOL0     C26725   8.196   6.547   6.151  1.1702  0.3613 -0.4408
  919MOL0     C26726   8.325   6.474   6.192  0.5599  0.5154 -0.0865
  919MOL0     C26727   8.401   6.534   6.315 -0.1063 -0.0510  0.5164
  919MOL0     C26728   8.534   6.453   6.336 -0.9373 -0.4096  0.0291
  919MOL0    Cl26729   8.627   6.527   6.476  0.2128  0.7362 -0.5170
  919MOL0     C26730   7.536   6.536   6.024 -0.6541 -0.2923 -0.0250
  919MOL0     C26731   7.432   6.590   5.945 -0.8067  0.0193  0.1239
  919MOL0     O26732   7.137   6.465   5.910 -0.3220 -0.1544  0.3035
  919MOL0     C26733   7.069   6.581   5.578 -0.5594 -0.2673  0.6940
  919MOL0     C26734   6.965   6.626   5.492 -0.1797 -0.3451  0.4011
  919MOL0     N26735   6.254   6.821   5.423 -0.0264  0.0690 -0.2745
  919MOL0     N26736   6.133   6.825   5.403 -0.1402  0.6175  0.6205
  919MOL0     C26737   5.190   6.670   6.167  1.1202 -0.0452 -0.3870
  919MOL0     C26738   5.051   6.695   6.183 -0.5909  0.0628  0.4784
  919MOL0     C26739   4.641   6.874   6.059  0.7583  0.0880 -0.0867
  919MOL0     C26740   4.562   6.765   6.086  0.5075 -0.8360  0.3625
  919MOL0     C26741   4.418   6.776   6.093 -0.9378 -0.0528 -0.3470
  919MOL0     C26742   4.354   6.902   6.081  0.7098  0.9089 -0.4090
  919MOL0     O26743   4.217   6.911   6.111 -0.1537  0.1845  0.1770
  919MOL0     C26744   4.130   6.804   6.063 -0.4037 -0.1212  0.8836
  919MOL0     C26745   3.984   6.839   6.052 -0.7746  0.2421  0.6558
  919MOL0     C26746   3.953   6.956   5.956 -0.0712  0.6218  0.5886
  919MOL0     C26747   3.814   6.996   5.955  0.7183  0.4245 -0.1810
  919MOL0     C26748   3.795   7.125   5.892  0.3532  0.4479  0.2359
  919MOL0     C26749   3.775   7.230   5.834  0.0125 -0.3496 -0.2509
  919MOL0     C26750   4.436   7.011   6.058 -0.3616  0.1939  0.5259
  919MOL0     C26751   4.578   7.000   6.047  0.2635 -0.0595 -0.4700
  919MOL0     C26752   4.652   7.131   6.018 -0.0746  0.4995 -0.1233
  919MOL0     H26753   4.968   6.648   5.862 -1.3284  0.3523  0.5358
  919MOL0     H26754   5.198   6.591   5.837 -2.2541 -0.8105  0.7342
  919MOL0     H26755   5.389   6.462   5.913  2.7275  1.1609 -3.3939
  919MOL0     H26756   5.537   6.472   6.024 -0.4289 -3.4743  0.1031
  919MOL0     H26757   5.419   6.682   5.829  0.0072  0.3791 -1.1569
  919MOL0     H26758   5.563   6.711   5.919  1.0769 -1.8533 -0.0501
  919MOL0     H26759   5.654   6.484   5.811  2.3076  2.7578  1.2030
  919MOL0     H26760   5.511   6.513   5.704  0.4140 -1.6137 -0.5506
  919MOL0     H26761   5.609   6.745   5.672  2.0139  0.4725 -2.4350
  919MOL0     H26762   5.771   6.685   5.739  0.0043  3.6396 -0.4269
  919MOL0     H26763   5.628   6.566   5.493 -0.1529  1.5891 -0.1729
  919MOL0     H26764   5.765   6.492   5.582 -1.5601 -0.7777  1.3027
  919MOL0     H26765   5.744   6.764   5.445 -3.0209 -2.1045 -0.1093
  919MOL0     H26766   5.892   6.716   5.539  1.1942  1.1640 -0.8700
  919MOL0     H26767   5.793   6.575   5.281 -1.6186 -0.0352  1.8943
  919MOL0     H26768   5.922   6.518   5.388 -1.3725 -0.2947  0.6200
  919MOL0     H26769   5.969   6.637   5.185 -0.2827 -0.4640  1.5240
  919MOL0     H26770   5.921   6.791   5.266 -2.5636 -0.3228 -0.5112
  919MOL0     H26771   6.192   6.523   5.279 -0.9112 -0.0414  1.3090
  919MOL0     H26772   6.443   6.539   5.369  2.9526 -0.2004 -0.2016
  919MOL0     H26773   6.495   6.686   5.450  0.5481 -0.0849 -0.6707
  919MOL0     H26774   6.581   6.594   5.199 -0.0374 -0.3444  1.3724
  919MOL0     H26775   6.460   6.709   5.149  1.5700  0.2389 -0.4802
  919MOL0     H26776   6.664   6.827   5.149  1.9324 -2.1328 -0.6251
  919MOL0     H26777   6.588   6.863   5.309  1.2180  0.1139  0.8122
  919MOL0     H26778   6.798   6.655   5.265  2.2899 -0.0684  0.5794
  919MOL0     H26779   6.827   6.820   5.326 -2.3921  2.0118  0.2282
  919MOL0     H26780   6.722   6.678   5.706 -1.0715 -1.4324 -1.8174
  919MOL0     H26781   6.904   6.612   5.973 -2.2460  2.8004 -0.5038
  919MOL0     H26782   6.896   6.444   5.918  1.2738 -0.3939 -3.0400
  919MOL0     H26783   6.751   6.557   5.914  0.6721  4.0791  0.5834
  919MOL0     H26784   7.435   6.343   5.707  0.0226  0.6918 -0.5061
  919MOL0     H26785   7.616   6.267   5.845  1.6340 -0.1190  2.3953
  919MOL0     H26786   7.893   6.266   6.090  0.9401  0.2411 -0.1900
  919MOL0     H26787   7.812   6.243   5.948  4.8037 -2.2706  1.1428
  919MOL0     H26788   7.964   6.375   5.865 -3.3851 -1.0616 -1.8477
  919MOL0     H26789   7.835   6.488   5.875  0.3742  1.8202  0.8026
  919MOL0     H26790   7.924   6.555   6.110 -1.1028 -0.2896 -0.2475
  919MOL0     H26791   8.018   6.612   5.973  0.5428  0.6347  1.7252
  919MOL0     H26792   8.152   6.397   5.996 -3.5050 -0.7070 -1.1411
  919MOL0     H26793   8.084   6.368   6.159  0.7684  1.0853  1.0578
  919MOL0     H26794   8.212   6.629   6.080  0.0258  1.9166  1.0197
  919MOL0     H26795   8.150   6.597   6.237 -1.7148  1.1786 -2.3002
  919MOL0     H26796   8.375   6.471   6.095 -0.0546 -2.0135 -0.4036
  919MOL0     H26797   8.290   6.373   6.217 -1.4618  1.1412 -0.2306
  919MOL0     H26798   8.340   6.520   6.405  0.4704 -2.0419  0.6586
  919MOL0     H26799   8.432   6.638   6.310  1.1243 -0.2056  3.0678
  919MOL0     H26800   8.600   6.454   6.249  0.3156  1.4383  0.9263
  919MOL0     H26801   8.507   6.352   6.367  2.8828 -1.1958  1.3523
  919MOL0     H26802   7.566   6.598   6.108  0.3206  1.0699 -1.3279
  919MOL0     H26803   7.372   6.673   5.979 -0.1744  0.0359  1.2688
  919MOL0     H26804   7.165   6.580   5.526 -1.2660  1.3916 -0.7579
  919MOL0     H26805   6.997   6.647   5.391  2.1302 -3.0103  0.4430
  919MOL0     H26806   5.252   6.676   6.255  1.9138  2.0560 -1.0244
  919MOL0     H26807   5.014   6.719   6.282  0.6165  2.0876  0.4968
  919MOL0     H26808   4.603   6.666   6.106  2.0981 -0.0839  0.9866
  919MOL0     H26809   4.362   6.686   6.116  2.1119 -1.4879  2.1829
  919MOL0     H26810   4.163   6.786   5.960 -1.4993  0.8852  0.3345
  919MOL0     H26811   4.142   6.718   6.129  0.7876  0.6078  1.6648
  919MOL0     H26812   3.952   6.858   6.155  2.2773  1.2700  1.5293
  919MOL0     H26813   3.933   6.745   6.030  2.3887 -1.6491  0.7168
  919MOL0     H26814   4.023   7.038   5.976  0.6630  0.4231 -0.9936
  919MOL0     H26815   3.968   6.932   5.850 -0.0105  0.2475  0.6794
  919MOL0     H26816   3.775   6.992   6.057  3.2644 -0.7153  0.8347
  919MOL0     H26817   3.741   6.931   5.907 -0.8835  1.0638  1.2625
  919MOL0     H26818   3.760   7.323   5.783 -0.5606 -0.0679  0.4018
  919MOL0     H26819   4.394   7.111   6.056 -0.6086  0.1286  1.5170
  919MOL0     H26820   4.703   7.106   5.925  0.4466 -1.6883  0.7059
  919MOL0     H26821   4.575   7.209   6.016 -1.6991 -0.9886  0.9728
  919MOL0     H26822   4.727   7.149   6.095  1.3374 -3.5199 -0.3297
  920MOL0     O26823   4.328   5.104   0.418  0.6282  0.1810 -0.2559
  920MOL0     C26824   4.301   5.117   0.300 -0.8018 -0.0465 -0.5617
  920MOL0     O26825   4.356   5.219   0.221  0.1214 -0.5316  0.1071
  920MOL0     C26826   4.489   5.255   0.241  0.4630  0.2122 -0.5138
  920MOL0     C26827   4.502   5.395   0.269  0.2671 -0.3118 -0.1798
  920MOL0     C26828   4.632   5.448   0.278 -0.6476 -0.9732  0.2992
  920MOL0     C26829   4.742   5.364   0.248  0.1104 -0.3482  0.8292
  920MOL0     O26830   4.867   5.420   0.245  0.3348  0.1735 -0.3492
  920MOL0     C26831   4.926   5.412   0.116  0.7839  0.2591 -0.6820
  920MOL0     C26832   5.052   5.502   0.108  0.0481  0.2660 -0.1488
  920MOL0     C26833   5.042   5.637   0.169 -0.1420 -0.3732  0.2869
  920MOL0     C26834   5.166   5.726   0.141  0.2251  0.8015  0.0085
  920MOL0     C26835   5.297   5.665   0.202  1.1455 -0.2441 -0.3487
  920MOL0     C26836   5.427   5.731   0.150 -0.0744  0.2136 -0.3101
  920MOL0     C26837   5.553   5.699   0.233 -0.8261 -0.0672 -0.5409
  920MOL0     C26838   5.682   5.740   0.160  0.2568 -0.1653  0.1898
  920MOL0     N26839   5.804   5.713   0.233 -0.1076  0.0481  0.5883
  920MOL0     C26840   5.840   5.752   0.350 -0.4820 -0.3491  0.4085
  920MOL0     C26841   5.967   5.714   0.371  0.0132 -0.3974 -0.8285
  920MOL0     C26842   6.038   5.756   0.495  0.3964 -0.1119  0.5211
  920MOL0     C26843   6.169   5.691   0.519  0.3622 -0.3179 -0.0413
  920MOL0     C26844   6.282   5.720   0.421 -0.6122  1.0831  0.8067
  920MOL0     C26845   6.413   5.738   0.493  0.0442 -0.4507 -0.0720
  920MOL0     O26846   6.447   5.617   0.557 -0.0908 -0.2939  0.1759
  920MOL0     C26847   6.571   5.579   0.529  0.3210  0.4971  0.0320
  920MOL0     C26848   6.611   5.500   0.417 -0.3200  0.3846  0.1381
  920MOL0     C26849   6.738   5.447   0.408 -0.0153  0.4942  0.2823
  920MOL0     C26850   6.768   5.351   0.299 -0.1033  0.5339 -0.2595
  920MOL0     C26851   6.836   5.474   0.507 -1.0757  0.2497  0.1656
  920MOL0     C26852   6.968   5.409   0.509  0.3338 -0.3562 -0.3292
  920MOL0     O26853   7.032   5.395   0.639  0.2961 -0.2048 -0.3501
  920MOL0     C26854   7.165   5.355   0.641 -0.3699 -0.2065 -0.1057
  920MOL0     C26855   7.261   5.443   0.600 -0.7754 -0.4935  0.8188
  920MOL0     C26856   7.396   5.405   0.619  0.0675 -0.6941 -0.2199
  920MOL0     C26857   7.436   5.279   0.665 -0.4769 -0.5388 -0.3322
  920MOL0     O26858   7.567   5.245   0.679  0.3805  0.2153  0.2577
  920MOL0     C26859   7.629   5.233   0.551 -0.0624  0.1721  0.4602
  920MOL0     C26860   7.775   5.214   0.570  0.9317 -0.0904 -0.3068
  920MOL0     C26861   7.850   5.204   0.436 -0.2616  0.5722  0.2241
  920MOL0     C26862   8.002   5.211   0.461 -0.2223 -0.5676 -0.2957
  920MOL0     C26863   8.065   5.092   0.539  1.1200  0.2175 -0.1996
  920MOL0     C26864   8.206   5.128   0.578 -0.5347 -0.9258 -0.5758
  920MOL0     C26865   8.296   5.168   0.463 -0.0184  0.6376  0.8791
  920MOL0     C26866   8.443   5.168   0.500  0.1868 -0.2250  0.5670
  920MOL0    Cl26867   8.529   5.236   0.351  0.0849 -0.3253  0.0646
  920MOL0     C26868   7.339   5.196   0.712  0.1917  0.1661  0.5117
  920MOL0     C26869   7.204   5.239   0.706 -0.5151  0.3796 -0.3218
  920MOL0     O26870   7.026   5.394   0.401 -0.6274  0.2890  0.4478
  920MOL0     C26871   6.800   5.563   0.612 -0.1885 -0.1215  0.0028
  920MOL0     C26872   6.678   5.625   0.618  0.2533 -0.0656  0.8864
  920MOL0     N26873   6.010   5.646   0.257  1.2329 -0.2972 -0.3925
  920MOL0     N26874   5.910   5.637   0.179  0.0572 -0.1658 -0.3301
  920MOL0     C26875   4.715   5.231   0.208 -1.3266 -0.7522  0.1827
  920MOL0     C26876   4.592   5.174   0.200 -0.2191  0.2860 -0.6056
  920MOL0     C26877   4.200   5.037   0.239  0.3406  0.5658  0.2912
  920MOL0     C26878   4.220   5.005   0.107 -0.5812 -0.3142 -0.0463
  920MOL0     C26879   4.136   4.920   0.033 -0.3028 -0.0381  0.7145
  920MOL0     C26880   4.021   4.875   0.094  0.2919 -0.0778  0.2417
  920MOL0     O26881   3.930   4.800   0.025 -0.3674 -0.6076 -0.0924
  920MOL0     C26882   3.949   4.776  -0.116  0.2002 -1.0417  0.1051
  920MOL0     C26883   3.924   4.902  -0.209 -0.7652 -0.2707  0.1927
  920MOL0     C26884   3.917   4.866  -0.355 -0.0334  0.5795 -0.4006
  920MOL0     C26885   3.911   4.997  -0.442 -0.3964 -0.6843  0.5702
  920MOL0     C26886   3.792   5.082  -0.419 -0.3534 -0.7339  0.8620
  920MOL0     C26887   3.696   5.134  -0.380  0.1331 -0.9447  0.1903
  920MOL0     C26888   3.995   4.915   0.223 -0.4447 -0.2595 -0.6713
  920MOL0     C26889   4.083   4.997   0.301 -0.0552  0.2325 -0.2597
  920MOL0     C26890   4.054   5.024   0.447 -0.3010 -0.3983  0.0333
  920MOL0     H26891   4.410   5.446   0.293  1.5382  1.6473  0.7436
  920MOL0     H26892   4.646   5.555   0.288  1.2997 -0.9460 -1.8692
  920MOL0     H26893   4.859   5.443   0.036 -2.1220  1.3774  1.9704
  920MOL0     H26894   4.955   5.307   0.110 -1.4798 -0.4949  0.2446
  920MOL0     H26895   5.127   5.445   0.163  1.9026  2.7861  0.1301
  920MOL0     H26896   5.089   5.507   0.005 -0.3133  1.3652 -0.2357
  920MOL0     H26897   4.956   5.687   0.124  0.7657  0.3790 -0.6758
  920MOL0     H26898   5.020   5.640   0.276 -1.5009 -1.9793  0.0960
  920MOL0     H26899   5.174   5.741   0.033 -2.7287 -0.7439 -0.5149
  920MOL0     H26900   5.155   5.823   0.189  0.5639  0.2004  1.3644
  920MOL0     H26901   5.308   5.557   0.189 -2.1320 -0.4325 -2.8880
  920MOL0     H26902   5.282   5.683   0.309 -0.6530  1.6448 -0.8537
  920MOL0     H26903   5.443   5.703   0.046  2.0863 -2.1222  0.5427
  920MOL0     H26904   5.407   5.836   0.175  0.9064 -0.0295  1.7066
  920MOL0     H26905   5.555   5.590   0.243 -2.2976 -0.2532 -1.8266
  920MOL0     H26906   5.545   5.751   0.329 -0.5260 -2.0752  0.6320
  920MOL0     H26907   5.685   5.688   0.064 -1.9843  2.8746 -1.7289
  920MOL0     H26908   5.672   5.848   0.144  2.1732 -0.0708 -0.7490
  920MOL0     H26909   5.773   5.822   0.401 -1.0518 -0.1551 -0.5666
  920MOL0     H26910   5.978   5.733   0.584  0.6387  2.0828  1.3149
  920MOL0     H26911   6.040   5.865   0.498  0.7408 -0.0619 -0.9387
  920MOL0     H26912   6.202   5.721   0.619  0.4706 -0.5611 -0.0032
  920MOL0     H26913   6.157   5.582   0.525  0.5081 -0.3094  0.4228
  920MOL0     H26914   6.284   5.637   0.350 -3.0349  1.2613  0.4489
  920MOL0     H26915   6.263   5.805   0.355  3.8861  1.3481 -0.4754
  920MOL0     H26916   6.490   5.771   0.423 -0.9321 -1.7830 -1.8578
  920MOL0     H26917   6.401   5.813   0.572 -0.2515  0.0787 -0.6107
  920MOL0     H26918   6.541   5.498   0.334  0.2315  2.1566 -0.4306
  920MOL0     H26919   6.812   5.253   0.319  0.3085  0.4886 -1.2963
  920MOL0     H26920   6.837   5.392   0.224  0.0038 -1.3902 -1.2812
  920MOL0     H26921   6.675   5.330   0.245 -0.0609 -2.6843  0.6915
  920MOL0     H26922   7.244   5.546   0.569 -1.4102 -0.8870 -0.1606
  920MOL0     H26923   7.464   5.481   0.582 -0.3441 -0.7215 -1.0688
  920MOL0     H26924   7.599   5.138   0.505  1.6723 -1.5503  2.6675
  920MOL0     H26925   7.599   5.313   0.483 -4.0492 -0.3605  1.3442
  920MOL0     H26926   7.814   5.301   0.624  0.3459  1.0496 -1.6398
  920MOL0     H26927   7.798   5.136   0.642  0.1313 -1.6700 -1.6981
  920MOL0     H26928   7.824   5.293   0.378 -0.6423  0.1358 -0.2860
  920MOL0     H26929   7.819   5.113   0.384  0.5364  0.2923  0.2364
  920MOL0     H26930   8.024   5.310   0.504 -0.6207 -0.8675  0.6251
  920MOL0     H26931   8.055   5.216   0.366  0.2591 -0.8838 -0.0495
  920MOL0     H26932   8.007   5.077   0.631 -1.1097  1.8641 -1.2369
  920MOL0     H26933   8.045   5.008   0.472 -2.5994  0.5202  0.3070
  920MOL0     H26934   8.249   5.040   0.626 -0.5419 -1.3203 -1.2759
  920MOL0     H26935   8.196   5.208   0.652  0.4829 -2.3262  1.1465
  920MOL0     H26936   8.265   5.271   0.442  1.2270  1.1884  1.5663
  920MOL0     H26937   8.298   5.101   0.377  0.3866  4.2488 -2.1927
  920MOL0     H26938   8.486   5.072   0.531  0.2589 -0.5195 -0.4048
  920MOL0     H26939   8.447   5.249   0.573 -0.0868  0.6023 -0.3214
  920MOL0     H26940   7.368   5.101   0.755  0.6219 -0.1235 -0.4085
  920MOL0     H26941   7.129   5.173   0.749  1.9968 -2.1234  0.4576
  920MOL0     H26942   6.872   5.587   0.690 -0.8897  2.6289 -0.0982
  920MOL0     H26943   6.658   5.693   0.700 -1.7631  2.3505 -1.4272
  920MOL0     H26944   4.807   5.174   0.197 -0.2411  0.6419  1.5372
  920MOL0     H26945   4.568   5.072   0.171 -0.0422 -1.7013  4.9439
  920MOL0     H26946   4.310   5.049   0.065 -0.6406 -0.6890 -0.5852
  920MOL0     H26947   4.179   4.895  -0.063 -2.4769  1.8834 -0.8541
  920MOL0     H26948   4.037   4.720  -0.148 -1.6446 -3.2473 -1.4321
  920MOL0     H26949   3.872   4.701  -0.137 -1.5504  0.6453  0.1851
  920MOL0     H26950   4.007   4.973  -0.207 -0.4156 -0.5485 -2.0462
  920MOL0     H26951   3.834   4.948  -0.167 -1.9526 -0.4805 -2.0008
  920MOL0     H26952   3.994   4.794  -0.382  0.9691  0.6131  2.0969
  920MOL0     H26953   3.820   4.817  -0.367 -2.9921  4.9363  2.6370
  920MOL0     H26954   3.916   4.976  -0.550  1.6346  0.8814  0.2944
  920MOL0     H26955   4.000   5.057  -0.418  1.8453 -4.0798  1.4448
  920MOL0     H26956   3.606   5.182  -0.347  0.9992 -0.5645  2.1855
  920MOL0     H26957   3.903   4.875   0.264 -0.7230  1.9076  0.9960
  920MOL0     H26958   4.142   4.979   0.495  0.5843 -1.3113 -2.2915
  920MOL0     H26959   4.038   5.131   0.468 -0.4780 -0.5788  0.8641
  920MOL0     H26960   3.964   4.971   0.478 -0.9413  0.7946  0.2784
  921MOL0     O26961   4.189   8.435   8.472 -0.2418 -0.2352 -0.0496
  921MOL0     C26962   4.230   8.447   8.587  0.5649 -0.4464 -0.0691
  921MOL0     O26963   4.272   8.558   8.656  1.2279  0.0419 -0.1581
  921MOL0     C26964   4.241   8.674   8.590  0.7535 -0.0985 -1.1246
  921MOL0     C26965   4.344   8.737   8.519  0.1383 -0.1534  0.8032
  921MOL0     C26966   4.323   8.865   8.470  0.3075 -0.0594  0.2298
  921MOL0     C26967   4.195   8.929   8.476 -0.3155  0.6276  1.0608
  921MOL0     O26968   4.168   9.059   8.439  0.5252  0.6026 -0.6661
  921MOL0     C26969   4.276   9.150   8.468  1.0108 -0.0559 -0.4076
  921MOL0     C26970   4.225   9.294   8.436 -0.3953 -0.4518 -0.0636
  921MOL0     C26971   4.336   9.398   8.448 -0.3606 -0.2953  0.1289
  921MOL0     C26972   4.323   9.513   8.339  0.2582  0.0209  0.0931
  921MOL0     C26973   4.433   9.627   8.332 -0.2084 -0.3074 -0.0288
  921MOL0     C26974   4.452   9.716   8.456 -0.0706 -0.7034  0.2530
  921MOL0     C26975   4.515   9.855   8.428 -0.4458  0.3189  0.4615
  921MOL0     C26976   4.646   9.824   8.343 -0.2845 -0.1625 -0.5821
  921MOL0     N26977   4.737   9.940   8.342  0.1221  0.2078 -0.4920
  921MOL0     C26978   4.759  10.032   8.240 -0.6118 -0.1102  0.0492
  921MOL0     C26979   4.844  10.122   8.303  0.4504 -0.0442 -0.5807
  921MOL0     C26980   4.892  10.239   8.227  0.9398 -1.1787  0.0277
  921MOL0     C26981   5.002  10.200   8.124  0.6971 -0.2495 -0.6030
  921MOL0     C26982   5.061  10.318   8.038 -0.0594  1.1519  0.0554
  921MOL0     C26983   5.151  10.260   7.935 -0.1347  0.0716  0.0099
  921MOL0     O26984   5.258  10.180   7.989  1.0138  0.1836 -0.3227
  921MOL0     C26985   5.386  10.222   7.980 -0.0272  0.3129 -0.3120
  921MOL0     C26986   5.474  10.119   7.973 -0.7833  1.1332  0.2489
  921MOL0     C26987   5.608  10.152   7.982 -0.1030 -0.3178 -0.4067
  921MOL0     C26988   5.710  10.045   7.971 -0.0347  0.0416 -0.0336
  921MOL0     C26989   5.653  10.289   8.004  0.4344  0.0453 -0.4171
  921MOL0     C26990   5.789  10.342   7.991 -0.3259 -0.2266 -0.1087
  921MOL0     O26991   5.883  10.247   7.973  0.3290  0.3547  0.4638
  921MOL0     C26992   6.012  10.282   7.955 -1.2093 -0.1179  0.8857
  921MOL0     C26993   6.087  10.367   8.039  0.2236  0.6901  0.0995
  921MOL0     C26994   6.217  10.404   8.012 -0.1468  1.0644 -0.5255
  921MOL0     C26995   6.266  10.365   7.888  0.2904  0.1078 -0.0904
  921MOL0     O26996   6.384  10.409   7.836  0.7659 -0.2999  0.0376
  921MOL0     C26997   6.476  10.488   7.917  0.5331  0.4805 -0.1361
  921MOL0     C26998   6.577  10.530   7.811  0.7674  0.4398 -0.6754
  921MOL0     C26999   6.682  10.615   7.869 -0.9740  0.1326 -0.3557
  921MOL0     C27000   6.784  10.550   7.970 -0.2279  0.4042  0.1342
  921MOL0     C27001   6.845  10.653   8.054 -0.3036 -0.3512  0.5122
  921MOL0     C27002   6.966  10.715   7.985  0.0422  0.2687 -0.4776
  921MOL0     C27003   7.024  10.837   8.061  0.1488 -0.1170 -0.0845
  921MOL0     C27004   6.953  10.964   8.041 -0.0887 -0.4881 -0.4470
  921MOL0    Cl27005   7.040  11.090   8.124  0.1179 -0.1381 -0.3363
  921MOL0     C27006   6.199  10.278   7.804 -0.4847  0.1690 -0.4557
  921MOL0     C27007   6.067  10.239   7.835 -0.1068  1.0558  0.3398
  921MOL0     O27008   5.808  10.466   7.991 -0.1323 -0.1840 -0.2294
  921MOL0     C27009   5.555  10.381   8.028 -0.2495 -0.0477  0.0891
  921MOL0     C27010   5.422  10.348   8.018  0.0882  0.0306 -0.4319
  921MOL0     N27011   4.873  10.088   8.437  1.1004 -0.3995 -0.3146
  921MOL0     N27012   4.804   9.982   8.457  0.2026  0.6765  0.5583
  921MOL0     C27013   4.093   8.859   8.538  0.1961  0.0377 -1.0366
  921MOL0     C27014   4.118   8.742   8.608 -0.4535 -0.5596 -0.2233
  921MOL0     C27015   4.265   8.318   8.658 -0.7695 -0.1243  0.2269
  921MOL0     C27016   4.318   8.208   8.588 -0.2779  0.1749  0.3201
  921MOL0     C27017   4.345   8.086   8.649  0.0244 -0.8264 -0.1452
  921MOL0     C27018   4.344   8.076   8.790  0.6076 -0.2632 -0.5570
  921MOL0     O27019   4.381   7.955   8.845  0.6582 -0.3886  0.5321
  921MOL0     C27020   4.366   7.933   8.982 -0.7290  0.7142  0.1529
  921MOL0     C27021   4.461   7.826   9.031 -0.2216 -0.0270 -0.5972
  921MOL0     C27022   4.456   7.816   9.186  0.4960 -0.1298  0.2744
  921MOL0     C27023   4.537   7.712   9.263 -0.1412  0.7726 -0.5128
  921MOL0     C27024   4.674   7.731   9.244 -0.0790 -0.4578  0.4399
  921MOL0     C27025   4.795   7.749   9.251 -0.1740  1.3200  0.2307
  921MOL0     C27026   4.269   8.175   8.856  0.2443 -0.4329 -0.7463
  921MOL0     C27027   4.232   8.295   8.791  0.1089  0.0244 -0.4861
  921MOL0     C27028   4.155   8.396   8.865 -0.0730  0.6750  0.4730
  921MOL0     H27029   4.440   8.693   8.496 -0.8484 -1.1698 -1.7659
  921MOL0     H27030   4.394   8.921   8.411 -1.6677  1.3495 -0.9348
  921MOL0     H27031   4.358   9.119   8.402  0.9660 -0.5623 -0.2341
  921MOL0     H27032   4.312   9.153   8.572 -2.5216 -1.6693  1.0270
  921MOL0     H27033   4.179   9.290   8.337 -2.1050 -0.4514  0.6908
  921MOL0     H27034   4.145   9.324   8.504  1.8685  0.6116  2.2853
  921MOL0     H27035   4.346   9.440   8.549  0.8797 -1.5399  0.5560
  921MOL0     H27036   4.435   9.355   8.436  0.6363  1.2390  2.2187
  921MOL0     H27037   4.320   9.457   8.246 -1.9818 -3.1987  1.9078
  921MOL0     H27038   4.223   9.554   8.352 -0.1115 -0.6274 -0.6557
  921MOL0     H27039   4.408   9.687   8.244  2.5460 -1.0115 -1.4194
  921MOL0     H27040   4.533   9.587   8.309 -0.5966 -0.3415 -1.7549
  921MOL0     H27041   4.359   9.727   8.513 -1.2169 -3.0667 -1.0437
  921MOL0     H27042   4.510   9.654   8.526  0.1155 -1.9246 -0.9512
  921MOL0     H27043   4.554   9.900   8.520  0.3106  1.6557 -0.4783
  921MOL0     H27044   4.448   9.927   8.382  2.9647  1.9455 -2.3830
  921MOL0     H27045   4.696   9.739   8.391 -1.5926  1.0490  3.3083
  921MOL0     H27046   4.620   9.805   8.238  1.0286 -2.1884 -0.6169
  921MOL0     H27047   4.744  10.029   8.133 -0.2339  3.3682 -0.2042
  921MOL0     H27048   4.932  10.316   8.294 -2.0048 -1.3013  2.0713
  921MOL0     H27049   4.801  10.275   8.179 -0.3551 -2.1667  1.6472
  921MOL0     H27050   5.082  10.154   8.183  1.5060  3.7823  1.8138
  921MOL0     H27051   4.966  10.121   8.058  1.1323  1.5981 -3.2151
  921MOL0     H27052   4.984  10.373   7.983 -0.5898 -1.4114 -1.9325
  921MOL0     H27053   5.117  10.386   8.103 -0.2547  1.4942 -0.1302
  921MOL0     H27054   5.096  10.196   7.866  0.5501  0.4307 -0.8974
  921MOL0     H27055   5.192  10.340   7.872  1.6268 -0.9562 -0.2169
  921MOL0     H27056   5.436  10.020   7.952  1.4173  0.1105  0.8208
  921MOL0     H27057   5.663   9.946   7.962  2.9207 -1.7620  2.4491
  921MOL0     H27058   5.774  10.038   8.059 -1.0119 -0.6047  0.6484
  921MOL0     H27059   5.775  10.050   7.884 -1.1497 -0.4067 -0.9283
  921MOL0     H27060   6.047  10.400   8.134  0.0130 -1.9600  1.0256
  921MOL0     H27061   6.280  10.469   8.072  1.2351  0.3132 -1.0981
  921MOL0     H27062   6.436  10.580   7.961  1.8553  0.3217  1.4629
  921MOL0     H27063   6.518  10.425   7.995  2.1890 -1.8003 -2.6797
  921MOL0     H27064   6.620  10.444   7.759  0.0617  0.4133 -1.2317
  921MOL0     H27065   6.531  10.598   7.739  1.5505  2.1722  0.4105
  921MOL0     H27066   6.636  10.701   7.917  1.4769  0.8549  0.8555
  921MOL0     H27067   6.743  10.650   7.785  0.2934  0.7818  0.7910
  921MOL0     H27068   6.867  10.502   7.917 -2.1368 -2.7457 -0.2687
  921MOL0     H27069   6.738  10.475   8.035  0.2190  0.8771  1.0166
  921MOL0     H27070   6.781  10.736   8.087  1.9030  1.0879  1.3901
  921MOL0     H27071   6.865  10.597   8.146  1.1074  1.0020  1.0712
  921MOL0     H27072   6.936  10.752   7.887 -0.2269 -1.0113 -0.8910
  921MOL0     H27073   7.042  10.638   7.968  0.6994  0.9568 -0.6961
  921MOL0     H27074   7.132  10.846   8.043  0.3001 -0.3118  0.6703
  921MOL0     H27075   7.022  10.813   8.168 -1.3930 -0.5963 -0.1981
  921MOL0     H27076   6.861  10.949   8.098  1.5743 -2.1733  1.9943
  921MOL0     H27077   6.929  10.988   7.937 -0.2328 -0.9730 -0.5308
  921MOL0     H27078   6.257  10.247   7.718  1.5144  1.4180  0.3887
  921MOL0     H27079   5.999  10.177   7.776 -0.7149  0.7832  1.3112
  921MOL0     H27080   5.580  10.484   8.050  2.1760 -1.2082  3.7350
  921MOL0     H27081   5.352  10.428   8.041 -0.0602 -0.5875  1.4271
  921MOL0     H27082   3.992   8.896   8.547 -0.1588  0.0568 -4.0884
  921MOL0     H27083   4.031   8.703   8.660 -1.3714  2.9166  1.1509
  921MOL0     H27084   4.342   8.209   8.483  1.9614 -2.1975  0.7192
  921MOL0     H27085   4.389   8.010   8.585 -0.2520 -0.0215 -1.3166
  921MOL0     H27086   4.385   8.026   9.036  0.8533  0.9589 -0.7815
  921MOL0     H27087   4.268   7.890   9.007 -0.6609  1.3584  1.6727
  921MOL0     H27088   4.567   7.843   9.007  0.3976 -1.3944  1.0042
  921MOL0     H27089   4.441   7.729   8.985  2.5550 -2.5443  2.8962
  921MOL0     H27090   4.496   7.914   9.212  0.2291 -0.2366  1.1041
  921MOL0     H27091   4.353   7.805   9.222  1.3291 -0.1141  2.8557
  921MOL0     H27092   4.513   7.610   9.232  1.4658 -0.0251  0.7091
  921MOL0     H27093   4.523   7.726   9.371 -1.1599 -1.9903 -0.2095
  921MOL0     H27094   4.901   7.742   9.259 -0.4436 -3.0239  3.1370
  921MOL0     H27095   4.239   8.159   8.959  0.9363 -0.1355 -0.4929
  921MOL0     H27096   4.227   8.450   8.927 -0.4963  1.2084  0.5141
  921MOL0     H27097   4.095   8.467   8.807  1.1347 -0.7176 -2.6756
  921MOL0     H27098   4.094   8.343   8.940 -0.3162 -1.3255 -1.0679
  922MOL0     O27099   8.899   0.935   0.408  0.1569 -0.0662  0.0315
  922MOL0     C27100   8.925   0.847   0.324 -0.7594  0.5701  0.7467
  922MOL0     O27101   9.053   0.813   0.280  0.7566 -0.2838  0.3980
  922MOL0     C27102   9.134   0.901   0.223  0.5307 -1.1790  0.6168
  922MOL0     C27103   9.250   0.851   0.172 -0.6273 -0.2170  0.2661
  922MOL0     C27104   9.339   0.933   0.097 -0.7357 -0.6448 -0.5740
  922MOL0     C27105   9.313   1.067   0.073 -0.7714  0.6339 -0.1349
  922MOL0     O27106   9.377   1.144  -0.014 -0.7150  0.5017 -0.0913
  922MOL0     C27107   9.504   1.095  -0.070  0.4617 -1.1130  0.4208
  922MOL0     C27108   9.582   1.226  -0.104 -0.5214 -0.1392  0.0304
  922MOL0     C27109   9.735   1.198  -0.119  0.4861  0.0559  0.2216
  922MOL0     C27110   9.800   1.321  -0.173 -1.2501  0.0476 -0.1018
  922MOL0     C27111   9.952   1.313  -0.202  0.2193  0.5039 -0.3148
  922MOL0     C27112  10.011   1.446  -0.247  0.5560  1.0282  0.4757
  922MOL0     C27113  10.155   1.443  -0.296  0.1271 -0.3621  0.7003
  922MOL0     C27114  10.170   1.397  -0.447 -0.0746  0.0747 -0.7140
  922MOL0     N27115  10.303   1.418  -0.505 -0.4493  0.8660  0.5493
  922MOL0     C27116  10.364   1.532  -0.554  0.0449 -0.5037  0.3930
  922MOL0     C27117  10.490   1.491  -0.589  0.0398 -0.7168 -0.3314
  922MOL0     C27118  10.596   1.575  -0.652 -0.3030 -0.8641  0.0326
  922MOL0     C27119  10.589   1.551  -0.808 -0.7292 -1.2421 -0.4353
  922MOL0     C27120  10.682   1.658  -0.885  0.4781  1.2435  0.4500
  922MOL0     C27121  10.826   1.649  -0.840 -0.6899  0.2754  0.7997
  922MOL0     O27122  10.915   1.721  -0.926  0.0988  0.5382  0.0689
  922MOL0     C27123  11.051   1.723  -0.909 -0.4078  0.0928 -0.2963
  922MOL0     C27124  11.127   1.813  -0.977  0.1712 -0.0559  0.1268
  922MOL0     C27125  11.270   1.804  -0.989  1.2358  0.2882 -0.3901
  922MOL0     C27126  11.353   1.910  -1.064 -0.5367  1.3280 -0.4403
  922MOL0     C27127  11.333   1.695  -0.921 -0.4646 -1.3982  0.0812
  922MOL0     C27128  11.483   1.667  -0.938 -0.0342 -0.3229  0.4789
  922MOL0     O27129  11.568   1.770  -0.968  0.1455  0.7875  0.7913
  922MOL0     C27130  11.704   1.781  -0.939 -0.2491  0.6280  0.6354
  922MOL0     C27131  11.778   1.691  -0.859  1.4034 -0.7457 -1.0867
  922MOL0     C27132  11.912   1.718  -0.841 -0.2166  0.2052 -0.4594
  922MOL0     C27133  11.974   1.829  -0.896 -0.6004 -0.5228 -0.1009
  922MOL0     O27134  12.109   1.861  -0.864 -0.5335 -0.8344  0.7460
  922MOL0     C27135  12.199   1.747  -0.884 -0.5639 -0.4523  0.0420
  922MOL0     C27136  12.341   1.795  -0.842 -0.9266 -1.0277 -0.3429
  922MOL0     C27137  12.455   1.686  -0.843 -0.0381  0.4876 -0.7907
  922MOL0     C27138  12.594   1.748  -0.875 -0.3477 -1.1032  0.2450
  922MOL0     C27139  12.665   1.817  -0.756 -0.5565  0.1664  0.7671
  922MOL0     C27140  12.704   1.725  -0.641 -0.4857 -0.5153  1.1644
  922MOL0     C27141  12.833   1.778  -0.579  0.1223  0.7486  0.3367
  922MOL0     C27142  12.893   1.688  -0.464  0.5266 -1.2444 -0.1980
  922MOL0    Cl27143  12.934   1.530  -0.530 -0.4288 -0.2909 -0.0016
  922MOL0     C27144  11.899   1.924  -0.965 -0.2495  0.3342 -0.3968
  922MOL0     C27145  11.763   1.906  -0.987  0.0981 -1.0797  0.3281
  922MOL0     O27146  11.520   1.554  -0.908  0.0351  0.1427  0.4936
  922MOL0     C27147  11.253   1.605  -0.851 -0.6343  0.5571 -0.0547
  922MOL0     C27148  11.117   1.616  -0.840  0.1271 -0.6096  0.0212
  922MOL0     N27149  10.507   1.355  -0.567  0.5977  0.2019 -0.1180
  922MOL0     N27150  10.397   1.307  -0.511 -0.2841 -0.0438  0.0176
  922MOL0     C27151   9.210   1.119   0.141  0.5764 -0.3833 -0.3563
  922MOL0     C27152   9.109   1.043   0.213 -0.4640  0.0802 -0.7563
  922MOL0     C27153   8.806   0.763   0.279 -1.1034  0.5053  0.4116
  922MOL0     C27154   8.678   0.816   0.296 -0.0588  0.9970  0.4766
  922MOL0     C27155   8.569   0.744   0.247 -0.1247  0.4438  0.7564
  922MOL0     C27156   8.587   0.619   0.181 -0.0946 -0.1205  0.2256
  922MOL0     O27157   8.498   0.542   0.109  0.8799 -0.6312 -0.9304
  922MOL0     C27158   8.353   0.558   0.125 -0.0764 -0.2319  0.3913
  922MOL0     C27159   8.311   0.676   0.039 -0.4859  0.6187 -0.7241
  922MOL0     C27160   8.159   0.675   0.021 -0.2292 -0.0682  1.0041
  922MOL0     C27161   8.094   0.808  -0.030 -0.3177  1.0333 -0.4053
  922MOL0     C27162   8.128   0.853  -0.163  0.2028 -0.4392 -0.3342
  922MOL0     C27163   8.155   0.891  -0.279 -0.5264 -0.8366 -0.0005
  922MOL0     C27164   8.714   0.576   0.161  0.2028 -0.1499  0.8312
  922MOL0     C27165   8.816   0.634   0.222 -0.5616  0.1403 -0.7176
  922MOL0     C27166   8.938   0.547   0.223 -0.0439  0.2185  0.3227
  922MOL0     H27167   9.278   0.748   0.190 -0.1921  0.1651  1.9665
  922MOL0     H27168   9.431   0.900   0.050 -0.2426 -0.2077  0.0592
  922MOL0     H27169   9.473   1.040  -0.159 -0.1963  2.1865 -1.5507
  922MOL0     H27170   9.558   1.028  -0.003 -0.5135 -3.1621 -0.7525
  922MOL0     H27171   9.548   1.267  -0.200  1.5664 -1.1103 -1.2119
  922MOL0     H27172   9.566   1.297  -0.023  0.1166  0.5527 -0.4348
  922MOL0     H27173   9.790   1.177  -0.027  2.1183 -1.1147 -0.9745
  922MOL0     H27174   9.754   1.114  -0.187  1.7888  0.9707 -0.5698
  922MOL0     H27175   9.754   1.341  -0.270  0.3716 -1.7285 -1.3204
  922MOL0     H27176   9.783   1.411  -0.114  1.3666 -0.4278  1.5277
  922MOL0     H27177   9.986   1.247  -0.283  1.1026  0.3413  0.1809
  922MOL0     H27178  10.005   1.276  -0.114  0.2151 -0.3414 -0.6598
  922MOL0     H27179   9.940   1.478  -0.323 -0.8493  0.1821  1.3866
  922MOL0     H27180  10.010   1.514  -0.161 -0.5400  0.4839  0.9145
  922MOL0     H27181  10.220   1.376  -0.239 -0.7610 -2.4046 -0.5685
  922MOL0     H27182  10.188   1.546  -0.307 -0.8229  0.0521  1.5821
  922MOL0     H27183  10.145   1.292  -0.464  3.4462 -1.1171  0.5231
  922MOL0     H27184  10.095   1.457  -0.499  0.1275  2.4705  1.5371
  922MOL0     H27185  10.323   1.631  -0.570  0.6537 -0.3218 -0.0756
  922MOL0     H27186  10.694   1.556  -0.608  0.3596  0.0471 -0.9958
  922MOL0     H27187  10.573   1.681  -0.638  0.8428 -0.5337 -0.4605
  922MOL0     H27188  10.626   1.449  -0.825  1.2000 -0.6123 -0.2603
  922MOL0     H27189  10.489   1.564  -0.849 -0.9023  0.5281  0.4253
  922MOL0     H27190  10.683   1.633  -0.992  0.4698  0.1862  0.6855
  922MOL0     H27191  10.645   1.758  -0.863  0.0595  0.9061  1.3233
  922MOL0     H27192  10.838   1.684  -0.737  3.5799 -0.8075  0.8824
  922MOL0     H27193  10.853   1.543  -0.835  1.7415  0.8688  2.1222
  922MOL0     H27194  11.077   1.887  -1.039  0.8417  1.1364  0.9631
  922MOL0     H27195  11.417   1.864  -1.140 -0.5377  1.1770 -0.3494
  922MOL0     H27196  11.413   1.973  -0.998  0.9796 -3.1951  2.9956
  922MOL0     H27197  11.282   1.969  -1.123  1.3539  0.6590 -3.6519
  922MOL0     H27198  11.742   1.594  -0.826  0.0807  0.7156  2.1171
  922MOL0     H27199  11.963   1.656  -0.768  0.2444 -0.6138 -1.4578
  922MOL0     H27200  12.178   1.659  -0.823  0.9580 -1.6218 -1.0158
  922MOL0     H27201  12.198   1.719  -0.990  1.2373  1.0929 -0.4376
  922MOL0     H27202  12.371   1.877  -0.908 -3.7873 -0.5715 -1.1933
  922MOL0     H27203  12.342   1.843  -0.743  1.5497  1.6261 -1.5091
  922MOL0     H27204  12.429   1.613  -0.920  1.0350 -1.1432  0.3514
  922MOL0     H27205  12.453   1.630  -0.749 -0.2756  0.2735 -0.9225
  922MOL0     H27206  12.585   1.825  -0.953  0.9535 -0.1509  0.9988
  922MOL0     H27207  12.650   1.663  -0.914 -1.0453 -1.2448 -0.4768
  922MOL0     H27208  12.758   1.860  -0.794 -2.1904  1.9588 -1.4245
  922MOL0     H27209  12.605   1.901  -0.720  1.4308  0.2812  4.3892
  922MOL0     H27210  12.714   1.623  -0.678 -1.1506 -0.4274  0.7185
  922MOL0     H27211  12.628   1.737  -0.563 -1.5603 -1.3571  0.2746
  922MOL0     H27212  12.813   1.879  -0.540 -0.2470 -0.1587  2.5936
  922MOL0     H27213  12.911   1.783  -0.656 -2.5351 -0.4666 -2.6684
  922MOL0     H27214  12.822   1.670  -0.382  1.5261  1.6639  1.4774
  922MOL0     H27215  12.980   1.739  -0.422 -0.4666 -0.2960  0.7800
  922MOL0     H27216  11.947   2.007  -1.016 -1.6593 -0.4961 -3.3001
  922MOL0     H27217  11.705   1.976  -1.046  0.9133 -2.1651 -1.8758
  922MOL0     H27218  11.302   1.526  -0.795  2.9512  2.8059  0.3779
  922MOL0     H27219  11.062   1.536  -0.793 -0.5190 -0.5767 -0.6637
  922MOL0     H27220   9.179   1.223   0.128 -0.7160 -0.8724 -1.4582
  922MOL0     H27221   9.018   1.088   0.250  1.1186  2.3479  0.6413
  922MOL0     H27222   8.657   0.900   0.361  3.5302  1.4347  1.2882
  922MOL0     H27223   8.470   0.788   0.255  0.3892  2.5328 -2.4902
  922MOL0     H27224   8.292   0.470   0.100 -1.7911  0.2668  2.5357
  922MOL0     H27225   8.332   0.580   0.230  1.8421  0.9579  0.5692
  922MOL0     H27226   8.355   0.664  -0.061 -1.6729 -2.6824 -0.9675
  922MOL0     H27227   8.353   0.766   0.086 -1.9740  0.0393  1.8599
  922MOL0     H27228   8.131   0.591  -0.043  0.7820 -0.3685  0.9413
  922MOL0     H27229   8.116   0.658   0.120 -0.3240  3.1484  1.6239
  922MOL0     H27230   8.122   0.888   0.039  0.3310  2.2101 -1.9679
  922MOL0     H27231   7.987   0.787  -0.022  0.2523 -3.6125 -1.8569
  922MOL0     H27232   8.172   0.940  -0.373  0.0580  3.1422  1.9891
  922MOL0     H27233   8.731   0.486   0.102  0.8903 -0.4345  1.4489
  922MOL0     H27234   8.976   0.546   0.325 -1.1839 -1.4265  0.7651
  922MOL0     H27235   8.917   0.445   0.192 -2.0004  1.0621 -1.3723
  922MOL0     H27236   9.014   0.577   0.150  1.4862 -0.3473  1.6417
  923MOL0     O27237   1.559   2.107   0.745 -0.2977  0.3040  0.5642
  923MOL0     C27238   1.467   2.167   0.791  0.2524  0.2155 -0.7711
  923MOL0     O27239   1.470   2.295   0.828 -0.3892 -0.3023 -0.1759
  923MOL0     C27240   1.592   2.347   0.837 -0.6533  0.0484 -0.4714
  923MOL0     C27241   1.640   2.422   0.730  0.0256 -0.6985 -0.0917
  923MOL0     C27242   1.760   2.489   0.750  0.5037 -0.2946 -0.0425
  923MOL0     C27243   1.841   2.459   0.864 -0.0304 -0.8903 -0.0414
  923MOL0     O27244   1.959   2.532   0.866  0.8750 -0.2647  0.3181
  923MOL0     C27245   2.027   2.551   0.986 -0.6962  0.0306  0.3261
  923MOL0     C27246   2.130   2.434   1.007  0.3019 -0.3139  0.2445
  923MOL0     C27247   2.213   2.443   1.135  0.1102 -0.0687 -0.3990
  923MOL0     C27248   2.280   2.578   1.170  0.1898 -0.0532 -0.0535
  923MOL0     C27249   2.405   2.573   1.262 -0.3280  0.4432 -0.4462
  923MOL0     C27250   2.512   2.473   1.221 -0.0073 -0.7707 -0.5243
  923MOL0     C27251   2.639   2.482   1.302 -0.0720  0.1641  0.1828
  923MOL0     C27252   2.612   2.437   1.451  0.0790  0.1091 -0.0570
  923MOL0     N27253   2.736   2.413   1.528 -0.7287 -0.3256 -0.9778
  923MOL0     C27254   2.854   2.375   1.465  0.2217 -0.1894 -0.3433
  923MOL0     C27255   2.945   2.383   1.566  0.9400  0.5991 -0.1271
  923MOL0     C27256   3.092   2.351   1.548  0.5713  0.0456  0.0799
  923MOL0     C27257   3.168   2.482   1.522 -0.0574  0.5240  0.0341
  923MOL0     C27258   3.322   2.442   1.513  0.4885  0.2651  0.0908
  923MOL0     C27259   3.409   2.558   1.468 -0.8032  0.5752 -0.4842
  923MOL0     O27260   3.548   2.519   1.460  0.1337  0.0735 -0.5423
  923MOL0     C27261   3.645   2.598   1.404  0.8368  0.8959 -0.4517
  923MOL0     C27262   3.771   2.547   1.405  0.2380 -0.0644 -0.1041
  923MOL0     C27263   3.877   2.624   1.348 -0.5043 -0.3850  0.6151
  923MOL0     C27264   4.012   2.559   1.349 -1.1253 -0.4224 -0.8460
  923MOL0     C27265   3.851   2.759   1.302 -0.1337 -0.1627  0.1531
  923MOL0     C27266   3.951   2.859   1.253 -0.5801  0.1545  0.2286
  923MOL0     O27267   3.903   2.967   1.181 -0.8948  0.2992  0.0228
  923MOL0     C27268   3.984   3.076   1.149 -0.0318 -0.2742  0.2921
  923MOL0     C27269   3.977   3.129   1.023 -0.2575  0.7646  0.3689
  923MOL0     C27270   4.058   3.237   0.985  0.4260 -0.6035  0.0985
  923MOL0     C27271   4.146   3.295   1.074 -1.0073 -0.7767 -0.1780
  923MOL0     O27272   4.221   3.401   1.038  0.4806  0.5433  0.6913
  923MOL0     C27273   4.217   3.513   1.124  0.4748 -0.2196 -0.7183
  923MOL0     C27274   4.341   3.591   1.099 -0.3495  0.7425 -0.4250
  923MOL0     C27275   4.471   3.510   1.110 -0.4273  0.6102 -0.5889
  923MOL0     C27276   4.521   3.467   1.252  0.6155 -1.1229  0.3942
  923MOL0     C27277   4.630   3.351   1.256 -0.1514 -0.1668 -0.5099
  923MOL0     C27278   4.576   3.208   1.231 -0.0710 -0.8027 -0.7829
  923MOL0     C27279   4.660   3.113   1.325  0.0963 -0.8156 -0.1376
  923MOL0     C27280   4.595   2.967   1.342 -0.2472 -0.0502  0.3737
  923MOL0    Cl27281   4.434   2.985   1.414  0.1669 -0.3145  0.0502
  923MOL0     C27282   4.162   3.241   1.203  0.2626  0.2755  0.1117
  923MOL0     C27283   4.073   3.135   1.241 -0.1647  0.1087  0.3403
  923MOL0     O27284   4.072   2.836   1.278 -0.5246 -0.0053  0.3168
  923MOL0     C27285   3.719   2.800   1.306 -0.4366 -0.4869  0.0783
  923MOL0     C27286   3.617   2.728   1.357  0.0005  0.9550 -0.1810
  923MOL0     N27287   2.885   2.412   1.679 -0.0839 -0.1306 -0.1290
  923MOL0     N27288   2.764   2.441   1.661  0.5805  0.3412  0.2595
  923MOL0     C27289   1.800   2.372   0.961 -0.5429  0.4298  0.1759
  923MOL0     C27290   1.671   2.312   0.947 -0.0497 -0.0104 -0.3479
  923MOL0     C27291   1.338   2.091   0.801 -0.0253  0.1520  0.0884
  923MOL0     C27292   1.242   2.157   0.885 -0.4723 -0.3900 -0.0960
  923MOL0     C27293   1.116   2.097   0.906 -0.0385  0.7732 -0.0521
  923MOL0     C27294   1.076   1.980   0.841 -0.4987  0.3889  0.0063
  923MOL0     O27295   0.953   1.912   0.870 -0.5344 -0.0923 -0.2799
  923MOL0     C27296   0.837   1.956   0.939 -0.3169  0.0064 -0.0716
  923MOL0     C27297   0.757   2.042   0.841  0.3923  0.3207  0.0399
  923MOL0     C27298   0.658   2.119   0.933 -0.1988 -0.1315 -0.1563
  923MOL0     C27299   0.516   2.087   0.911  0.0265 -0.4384  0.4828
  923MOL0     C27300   0.479   2.125   0.775 -0.2279  0.8974  0.1661
  923MOL0     C27301   0.444   2.154   0.662  0.5326  0.3650 -0.1114
  923MOL0     C27302   1.173   1.924   0.759  0.9941  0.0427 -0.6221
  923MOL0     C27303   1.298   1.971   0.727 -0.4195 -0.0916  0.5707
  923MOL0     C27304   1.390   1.880   0.646 -0.6178  0.0429  0.3960
  923MOL0     H27305   1.591   2.448   0.637  2.9265 -1.8725 -2.1031
  923MOL0     H27306   1.790   2.570   0.685 -4.2962  1.7215 -0.1429
  923MOL0     H27307   1.954   2.562   1.066 -1.7109 -1.9005 -0.2559
  923MOL0     H27308   2.088   2.642   0.984 -3.4099  1.9998 -2.0795
  923MOL0     H27309   2.077   2.338   1.008 -1.5684  0.6797  0.8015
  923MOL0     H27310   2.188   2.426   0.915 -1.8753 -1.3720 -1.1073
  923MOL0     H27311   2.149   2.411   1.218 -1.6756 -0.4156 -1.8238
  923MOL0     H27312   2.290   2.366   1.128  1.3068  0.7367  2.4286
  923MOL0     H27313   2.316   2.607   1.071 -0.8985 -2.8727 -1.3615
  923MOL0     H27314   2.214   2.656   1.209 -0.2042 -0.7527  0.7136
  923MOL0     H27315   2.377   2.562   1.367  2.5550 -1.3040  0.2687
  923MOL0     H27316   2.451   2.672   1.256 -1.5569  1.1681  1.2163
  923MOL0     H27317   2.468   2.373   1.230  0.3303 -0.7635  2.0116
  923MOL0     H27318   2.544   2.497   1.119  1.6878  1.2287  0.3928
  923MOL0     H27319   2.682   2.582   1.298  1.1607 -0.3672 -0.6000
  923MOL0     H27320   2.718   2.421   1.257 -1.7632 -0.1033 -2.7067
  923MOL0     H27321   2.559   2.517   1.503 -2.5224 -0.9877 -0.8498
  923MOL0     H27322   2.549   2.349   1.461 -1.6050  1.3890  1.3455
  923MOL0     H27323   2.879   2.355   1.361 -1.7793  0.2722 -0.9476
  923MOL0     H27324   3.110   2.275   1.471  1.1095 -3.1989  3.1426
  923MOL0     H27325   3.120   2.305   1.643 -0.1442  0.2802  0.4101
  923MOL0     H27326   3.137   2.531   1.430 -0.0482  0.0949 -0.1999
  923MOL0     H27327   3.152   2.549   1.607 -1.7970  1.0013 -0.6136
  923MOL0     H27328   3.361   2.403   1.606 -0.4519 -1.4061 -0.1815
  923MOL0     H27329   3.325   2.351   1.452 -4.8720 -0.0889 -0.1066
  923MOL0     H27330   3.375   2.587   1.368  2.0647 -2.1533 -2.4209
  923MOL0     H27331   3.397   2.636   1.544  0.3226  0.0572  0.2485
  923MOL0     H27332   3.791   2.445   1.438  2.1640  0.3490  0.1122
  923MOL0     H27333   4.014   2.452   1.370  1.8370 -0.2220  0.4137
  923MOL0     H27334   4.063   2.607   1.434 -2.5403 -1.4610  0.6398
  923MOL0     H27335   4.071   2.578   1.259  3.1953 -0.3448  1.6545
  923MOL0     H27336   3.911   3.091   0.947  0.2400  2.6137 -1.0721
  923MOL0     H27337   4.050   3.286   0.889  1.6121  1.0897  0.8138
  923MOL0     H27338   4.134   3.582   1.103  0.7731  0.7129  0.9591
  923MOL0     H27339   4.216   3.487   1.230 -3.0298 -0.5634 -0.7085
  923MOL0     H27340   4.341   3.629   0.996  1.7999  0.7199 -0.4661
  923MOL0     H27341   4.349   3.673   1.172  2.4336 -1.4965  2.0172
  923MOL0     H27342   4.547   3.572   1.063 -0.2518  1.3028  0.5783
  923MOL0     H27343   4.473   3.419   1.049  0.0767 -1.0968  1.8044
  923MOL0     H27344   4.436   3.446   1.318  2.0164 -2.1083  1.9684
  923MOL0     H27345   4.567   3.559   1.288 -1.6772  0.2512  0.0059
  923MOL0     H27346   4.704   3.383   1.181  0.0102  1.8039  0.4201
  923MOL0     H27347   4.681   3.361   1.352 -1.9967 -2.5730  0.8331
  923MOL0     H27348   4.600   3.191   1.125 -0.2243  1.2325 -1.1753
  923MOL0     H27349   4.467   3.199   1.230 -0.4174  0.8217  3.2587
  923MOL0     H27350   4.659   3.149   1.429  0.6218 -0.1017 -0.3726
  923MOL0     H27351   4.766   3.117   1.298 -0.2618  1.9553 -1.5323
  923MOL0     H27352   4.658   2.901   1.403 -0.3874 -0.0157  0.5582
  923MOL0     H27353   4.585   2.913   1.248  1.6905 -2.6188  1.5161
  923MOL0     H27354   4.244   3.282   1.260 -0.2519  0.8949  0.4242
  923MOL0     H27355   4.088   3.098   1.341 -0.5906 -0.7015  0.1135
  923MOL0     H27356   3.703   2.898   1.261  4.9979 -0.2040 -1.9941
  923MOL0     H27357   3.512   2.756   1.359  0.0503  1.1085  1.1627
  923MOL0     H27358   1.855   2.357   1.053  0.9797  0.2618 -0.7428
  923MOL0     H27359   1.617   2.241   1.009 -1.3737 -0.5836 -2.0909
  923MOL0     H27360   1.252   2.250   0.940 -0.2057 -0.5826  0.1850
  923MOL0     H27361   1.061   2.145   0.986 -0.3895 -2.3180  1.7139
  923MOL0     H27362   0.770   1.876   0.971  0.1649  0.3304  1.8574
  923MOL0     H27363   0.862   1.996   1.037  4.2365 -2.8594  0.2381
  923MOL0     H27364   0.715   1.986   0.758  0.7622 -2.1517  1.4263
  923MOL0     H27365   0.820   2.122   0.800 -0.4844  2.9915  3.3659
  923MOL0     H27366   0.669   2.098   1.039  0.7342  0.1800 -0.1802
  923MOL0     H27367   0.670   2.228   0.924 -1.6756  0.1061  0.5731
  923MOL0     H27368   0.453   2.147   0.978  0.7410  1.3114 -0.3772
  923MOL0     H27369   0.483   1.985   0.933 -0.0950 -0.1054  1.9530
  923MOL0     H27370   0.393   2.179   0.571  2.3525 -0.0608 -1.3003
  923MOL0     H27371   1.145   1.825   0.722  0.6139  0.2490 -0.8984
  923MOL0     H27372   1.443   1.938   0.570 -4.0642 -0.0177 -2.2951
  923MOL0     H27373   1.464   1.837   0.714 -0.7863  0.0325  0.5736
  923MOL0     H27374   1.341   1.796   0.595  0.2606 -0.3920  0.2496
  924MOL0     O27375   5.720   0.176   8.539  0.3630 -0.5459  0.4765
  924MOL0     C27376   5.662   0.281   8.572 -0.4245  0.4478  0.2108
  924MOL0     O27377   5.713   0.405   8.573  0.0640 -0.3149 -0.3204
  924MOL0     C27378   5.837   0.422   8.524  0.5972  0.6882  0.8769
  924MOL0     C27379   5.879   0.364   8.402  0.8326 -0.2089  0.2790
  924MOL0     C27380   6.000   0.402   8.338  0.8341  0.3287  0.5922
  924MOL0     C27381   6.092   0.475   8.413  0.5317  0.0802 -0.3290
  924MOL0     O27382   6.223   0.490   8.378  0.2448  0.3417 -0.3033
  924MOL0     C27383   6.273   0.463   8.244 -0.0579  0.4719 -0.4165
  924MOL0     C27384   6.424   0.467   8.220  0.1146 -0.2774 -0.3864
  924MOL0     C27385   6.468   0.451   8.083 -0.5337  0.1505 -0.5347
  924MOL0     C27386   6.610   0.495   8.058  0.4788  0.2624 -0.0918
  924MOL0     C27387   6.715   0.428   8.143 -0.6899  0.4392 -0.1943
  924MOL0     C27388   6.700   0.272   8.132 -0.2880 -0.3839 -0.2617
  924MOL0     C27389   6.826   0.209   8.204 -0.3409  0.1590 -0.2389
  924MOL0     C27390   6.953   0.206   8.112 -0.0371  0.7825 -0.4565
  924MOL0     N27391   7.071   0.176   8.184 -0.4675  0.4744 -0.2489
  924MOL0     C27392   7.138   0.247   8.279 -1.0265 -0.1537 -0.0809
  924MOL0     C27393   7.259   0.183   8.295 -0.0027  0.2943  0.6820
  924MOL0     C27394   7.379   0.236   8.386  0.7769  0.6105  1.9549
  924MOL0     C27395   7.403   0.134   8.490  0.0936  1.0111  0.3752
  924MOL0     C27396   7.494   0.183   8.607  0.4149  0.7396  0.2565
  924MOL0     C27397   7.552   0.059   8.689  0.5053 -0.8126  0.0067
  924MOL0     O27398   7.634  -0.017   8.590 -0.1751 -0.6958  0.2681
  924MOL0     C27399   7.769   0.015   8.568  0.3792  0.8939 -0.4616
  924MOL0     C27400   7.843   0.115   8.635 -0.6795  0.6653 -0.2106
  924MOL0     C27401   7.984   0.131   8.613 -0.0433 -0.2809  0.0747
  924MOL0     C27402   8.048   0.237   8.710  0.4058 -0.6844 -0.7320
  924MOL0     C27403   8.051   0.053   8.520 -0.2888  0.2767 -0.0934
  924MOL0     C27404   8.200   0.083   8.497  0.9637 -0.5010  0.5925
  924MOL0     O27405   8.239   0.214   8.517  0.0910 -0.6526 -0.0635
  924MOL0     C27406   8.360   0.254   8.474 -0.4565  0.1028  0.5639
  924MOL0     C27407   8.460   0.250   8.568  0.6047 -0.2446  0.3481
  924MOL0     C27408   8.587   0.294   8.537  0.8834 -0.1686  0.4196
  924MOL0     C27409   8.613   0.353   8.410 -0.2829 -0.2586 -0.2017
  924MOL0     O27410   8.741   0.383   8.378  0.1163 -0.2152  0.6155
  924MOL0     C27411   8.824   0.454   8.467 -0.7968 -0.1157 -0.6778
  924MOL0     C27412   8.876   0.583   8.396 -0.4432 -0.4060  0.1331
  924MOL0     C27413   8.969   0.549   8.279  0.6075 -0.2629  0.9326
  924MOL0     C27414   9.025   0.670   8.215 -0.4429  0.1266 -0.4643
  924MOL0     C27415   9.098   0.654   8.084 -0.3886  0.4050 -0.5535
  924MOL0     C27416   9.229   0.576   8.102 -0.1483 -0.5309  0.3978
  924MOL0     C27417   9.308   0.578   7.974 -0.9025 -0.5281 -0.1954
  924MOL0     C27418   9.446   0.505   7.994  0.3421  0.2474  0.3758
  924MOL0    Cl27419   9.547   0.548   7.862 -0.2870 -0.0671 -0.3769
  924MOL0     C27420   8.511   0.358   8.313 -0.7218  0.1988 -0.6117
  924MOL0     C27421   8.383   0.313   8.345 -0.9804 -0.0637  0.1657
  924MOL0     O27422   8.262  -0.006   8.436  0.4460  0.0214  0.1760
  924MOL0     C27423   7.974  -0.039   8.447 -0.2757  0.6581 -0.3646
  924MOL0     C27424   7.841  -0.066   8.474 -0.3413  0.3323  0.1840
  924MOL0     N27425   7.258   0.064   8.217 -0.5301 -0.6408  0.1453
  924MOL0     N27426   7.151   0.069   8.154  0.1070  0.0926  0.3419
  924MOL0     C27427   6.060   0.516   8.542  0.0228 -0.4777  0.1907
  924MOL0     C27428   5.931   0.502   8.589  0.0053 -1.5426 -1.1555
  924MOL0     C27429   5.523   0.257   8.602  1.3620  0.1178 -0.0759
  924MOL0     C27430   5.436   0.368   8.581 -0.1064 -0.6110 -0.0652
  924MOL0     C27431   5.295   0.365   8.574  0.2877 -0.9412 -0.1269
  924MOL0     C27432   5.235   0.253   8.613  0.4212  0.5983 -0.1256
  924MOL0     O27433   5.095   0.268   8.615  0.6336  0.5442  0.6343
  924MOL0     C27434   5.023   0.159   8.680  0.0477 -0.5169  0.2512
  924MOL0     C27435   4.888   0.208   8.726 -0.4835  0.2831 -0.5102
  924MOL0     C27436   4.807   0.276   8.619  0.3429  0.2495  0.4543
  924MOL0     C27437   4.677   0.342   8.665 -0.3309 -0.1877 -0.1377
  924MOL0     C27438   4.573   0.245   8.712  0.3466  0.5508  0.2118
  924MOL0     C27439   4.477   0.170   8.736  0.5185  0.2988  0.0997
  924MOL0     C27440   5.312   0.140   8.662  0.9922 -0.7371  0.4189
  924MOL0     C27441   5.453   0.138   8.653 -0.0699 -0.8437  0.7443
  924MOL0     C27442   5.523   0.029   8.716 -0.1531  0.6866 -0.7206
  924MOL0     H27443   5.811   0.302   8.346 -1.6672  2.9588 -0.4897
  924MOL0     H27444   6.016   0.374   8.234 -2.2303  1.4663 -0.2870
  924MOL0     H27445   6.230   0.540   8.179  0.9112  0.0788 -1.5594
  924MOL0     H27446   6.237   0.366   8.208  0.6561  0.4241 -1.0220
  924MOL0     H27447   6.464   0.559   8.264  3.1212 -0.3952 -2.5648
  924MOL0     H27448   6.461   0.383   8.279  0.7531  0.1531 -0.1686
  924MOL0     H27449   6.456   0.347   8.051 -0.1094 -0.1827  0.3593
  924MOL0     H27450   6.397   0.506   8.020  0.1092  0.0964 -1.3227
  924MOL0     H27451   6.633   0.476   7.953 -1.2011  1.4355 -0.7179
  924MOL0     H27452   6.624   0.600   8.083 -0.9041  0.2930  0.6703
  924MOL0     H27453   6.696   0.460   8.246  0.9940  0.0107  0.2822
  924MOL0     H27454   6.815   0.458   8.113 -0.1122 -0.8322  0.3743
  924MOL0     H27455   6.607   0.238   8.178  0.4724  2.3112  3.7610
  924MOL0     H27456   6.702   0.241   8.027 -0.5767 -0.4408 -0.2524
  924MOL0     H27457   6.812   0.103   8.227 -4.1065 -0.1777 -3.1816
  924MOL0     H27458   6.848   0.258   8.300 -0.8951 -1.6277  0.8594
  924MOL0     H27459   6.928   0.121   8.047 -0.6307 -0.0468  0.8173
  924MOL0     H27460   6.974   0.298   8.056  4.0803  0.5680  0.4248
  924MOL0     H27461   7.103   0.342   8.317 -2.1968  0.0232 -1.5593
  924MOL0     H27462   7.354   0.329   8.437 -0.3969  0.9305  0.8684
  924MOL0     H27463   7.463   0.252   8.317 -1.0187  1.6301 -0.1452
  924MOL0     H27464   7.308   0.113   8.540  1.0774  0.2545  2.0172
  924MOL0     H27465   7.452   0.042   8.459  3.1676  2.6925 -0.1689
  924MOL0     H27466   7.571   0.253   8.573 -1.7556  3.3031  0.4010
  924MOL0     H27467   7.431   0.239   8.675 -1.5879  0.5472 -1.3553
  924MOL0     H27468   7.611   0.095   8.773  1.3430  0.8272 -1.2425
  924MOL0     H27469   7.476  -0.008   8.732  2.2736 -3.2256 -0.4056
  924MOL0     H27470   7.805   0.178   8.714  0.2022  1.1856 -0.1910
  924MOL0     H27471   8.074   0.329   8.655 -1.2276  0.5260  0.4188
  924MOL0     H27472   8.139   0.208   8.764  2.1997  1.6123 -2.2919
  924MOL0     H27473   7.976   0.275   8.783  0.7415  0.8649 -1.1583
  924MOL0     H27474   8.431   0.216   8.667 -0.0841  2.7655  1.3083
  924MOL0     H27475   8.672   0.272   8.601  2.1627  0.3804 -1.0431
  924MOL0     H27476   8.772   0.492   8.555  2.6342  2.3879  0.4789
  924MOL0     H27477   8.903   0.387   8.503 -0.1004 -0.0966 -2.1110
  924MOL0     H27478   8.791   0.639   8.357  0.0259 -1.9863 -3.5249
  924MOL0     H27479   8.940   0.636   8.467  3.0919 -3.7433 -0.2385
  924MOL0     H27480   8.920   0.494   8.198  3.0904  2.3266 -2.5742
  924MOL0     H27481   9.053   0.491   8.319  2.4960  0.9314 -1.0900
  924MOL0     H27482   9.094   0.715   8.287  0.3544 -0.6178 -0.7477
  924MOL0     H27483   8.943   0.740   8.193  2.0892  2.9984 -1.4294
  924MOL0     H27484   9.031   0.600   8.015  0.5771 -3.7828  1.4801
  924MOL0     H27485   9.120   0.757   8.054 -0.2978  0.4990 -0.1609
  924MOL0     H27486   9.198   0.473   8.123 -3.0867  0.6459  2.6856
  924MOL0     H27487   9.288   0.617   8.185  1.2197  2.3077 -1.7998
  924MOL0     H27488   9.326   0.684   7.956  0.5484 -0.9555 -1.3925
  924MOL0     H27489   9.255   0.546   7.884  0.0480  0.1560 -1.0103
  924MOL0     H27490   9.424   0.398   7.991 -0.9279  0.4139  2.2943
  924MOL0     H27491   9.494   0.526   8.090 -2.2658 -3.4529  2.7375
  924MOL0     H27492   8.528   0.397   8.214 -1.7534  1.0129 -0.4901
  924MOL0     H27493   8.309   0.317   8.265 -2.4084  0.3268  1.4534
  924MOL0     H27494   8.004  -0.094   8.358 -2.7469 -1.5050  0.0244
  924MOL0     H27495   7.774  -0.132   8.420  0.0803  0.1022 -0.0611
  924MOL0     H27496   6.133   0.575   8.598  0.6258  0.5121 -1.5379
  924MOL0     H27497   5.910   0.546   8.686  1.5173 -0.3787 -1.3090
  924MOL0     H27498   5.475   0.462   8.544  1.3635 -0.2016  2.3059
  924MOL0     H27499   5.231   0.449   8.550  1.5289  0.4985  1.3703
  924MOL0     H27500   5.016   0.079   8.606  1.9584  1.6357 -2.4647
  924MOL0     H27501   5.068   0.131   8.776  1.7217  0.5580 -0.1806
  924MOL0     H27502   4.907   0.268   8.815  2.0994 -3.0484  1.4627
  924MOL0     H27503   4.833   0.118   8.754 -3.0221  2.1286  0.8522
  924MOL0     H27504   4.864   0.352   8.565 -0.9866  1.5163  0.8004
  924MOL0     H27505   4.776   0.206   8.541 -2.5609  1.4548  0.4083
  924MOL0     H27506   4.624   0.390   8.582  1.5546  1.1442 -0.6471
  924MOL0     H27507   4.705   0.420   8.737 -0.1493  1.6982 -2.1336
  924MOL0     H27508   4.385   0.116   8.744  1.1978 -1.0114 -0.7158
  924MOL0     H27509   5.254   0.055   8.697 -0.6579  0.2647  0.2358
  924MOL0     H27510   5.447  -0.035   8.761 -1.5436  3.4582  1.2221
  924MOL0     H27511   5.584  -0.019   8.639  0.3576  1.7314 -0.9802
  924MOL0     H27512   5.580   0.054   8.806 -2.0573  0.3624  0.6497
  925MOL0     O27513   7.597   5.889  10.977 -0.5707  0.4147  0.0543
  925MOL0     C27514   7.551   6.005  10.970 -0.5117  0.2729  0.0473
  925MOL0     O27515   7.619   6.126  11.003 -0.1709  0.9034  0.3954
  925MOL0     C27516   7.739   6.115  11.055 -0.4277  0.3398 -0.9253
  925MOL0     C27517   7.760   6.149  11.189 -0.5929  0.0707 -0.2072
  925MOL0     C27518   7.882   6.138  11.258  0.3572  0.0835 -0.7706
  925MOL0     C27519   8.000   6.093  11.184  0.1666  0.7997 -0.5203
  925MOL0     O27520   8.130   6.085  11.222 -0.0407 -0.1435  0.0886
  925MOL0     C27521   8.173   6.149  11.345 -0.6534 -0.1782 -0.2200
  925MOL0     C27522   8.294   6.061  11.400 -0.3223 -0.5411  0.7197
  925MOL0     C27523   8.249   5.924  11.448  0.7321  0.6003 -0.8617
  925MOL0     C27524   8.368   5.851  11.498 -0.5100 -0.8635 -0.8333
  925MOL0     C27525   8.468   5.819  11.385  0.3444 -0.0883 -1.6325
  925MOL0     C27526   8.586   5.737  11.439  0.0804  0.4733  1.2734
  925MOL0     C27527   8.689   5.728  11.320  0.4697  0.0700  0.5942
  925MOL0     C27528   8.834   5.678  11.359 -0.0037  0.3239  0.1806
  925MOL0     N27529   8.912   5.656  11.237 -0.9904 -0.1396 -0.4429
  925MOL0     C27530   8.966   5.762  11.167  0.3122 -0.3325  0.0348
  925MOL0     C27531   9.009   5.696  11.053 -1.0050  0.1350 -0.9996
  925MOL0     C27532   9.074   5.754  10.933 -0.2151  0.2264  0.6487
  925MOL0     C27533   9.222   5.743  10.941 -0.1897 -0.7344  0.1800
  925MOL0     C27534   9.283   5.827  10.825  0.7125 -0.0538  0.0083
  925MOL0     C27535   9.427   5.807  10.788 -0.1289 -0.1238 -0.6850
  925MOL0     O27536   9.515   5.838  10.897  0.4171  1.0880  0.0640
  925MOL0     C27537   9.645   5.806  10.869  0.9646  0.2548  0.3643
  925MOL0     C27538   9.688   5.698  10.805 -0.0500 -0.2405  0.4370
  925MOL0     C27539   9.827   5.676  10.770 -0.3497 -0.1121 -0.4807
  925MOL0     C27540   9.869   5.557  10.690  0.2757 -0.6745 -1.0543
  925MOL0     C27541   9.919   5.767  10.825 -0.5542  0.0557  0.2461
  925MOL0     C27542  10.060   5.748  10.809  0.1559  0.1188  0.2336
  925MOL0     O27543  10.131   5.859  10.769 -0.6818 -0.5216 -0.1287
  925MOL0     C27544  10.270   5.857  10.795 -0.6502 -0.9277  0.2984
  925MOL0     C27545  10.351   5.764  10.732  1.0981 -0.2866  0.0975
  925MOL0     C27546  10.486   5.771  10.752 -0.8390  0.3624  0.8519
  925MOL0     C27547  10.552   5.870  10.821 -0.7870 -0.2120 -0.0742
  925MOL0     O27548  10.695   5.866  10.833 -0.1953  0.7203  0.6037
  925MOL0     C27549  10.746   5.953  10.928  0.4440 -0.0341  0.1184
  925MOL0     C27550  10.896   5.936  10.942 -0.7004 -0.5554  0.0291
  925MOL0     C27551  10.979   5.981  10.819 -0.1447 -0.1519  0.0821
  925MOL0     C27552  11.089   5.881  10.794 -1.1548 -0.3195 -0.6152
  925MOL0     C27553  11.208   5.939  10.728  0.1625  0.0870 -0.1588
  925MOL0     C27554  11.285   5.830  10.651 -0.9718  0.4131 -0.2489
  925MOL0     C27555  11.408   5.882  10.578 -0.3432 -0.4730 -0.0935
  925MOL0     C27556  11.475   5.770  10.500 -0.3508 -0.0271 -0.0831
  925MOL0    Cl27557  11.606   5.821  10.406  0.3390 -0.3078 -0.1204
  925MOL0     C27558  10.469   5.970  10.890 -0.2049 -0.3605 -0.5937
  925MOL0     C27559  10.327   5.954  10.862  0.5436 -0.6210 -0.0401
  925MOL0     O27560  10.110   5.636  10.836  0.8929 -0.9278  0.2336
  925MOL0     C27561   9.874   5.865  10.909 -0.9857 -0.3280 -0.3206
  925MOL0     C27562   9.736   5.892  10.926  0.6852  0.3589  0.2397
  925MOL0     N27563   8.986   5.563  11.063 -0.2057 -0.6890 -0.5384
  925MOL0     N27564   8.926   5.542  11.177  0.2165  0.5299 -0.2890
  925MOL0     C27565   7.978   6.062  11.053 -0.1542 -0.4883  0.2589
  925MOL0     C27566   7.852   6.072  10.986 -0.0182 -0.2778  0.1547
  925MOL0     C27567   7.416   6.019  10.906  0.6987 -0.5640 -0.1003
  925MOL0     C27568   7.334   5.903  10.907  0.6635 -0.2832 -0.1557
  925MOL0     C27569   7.206   5.910  10.845 -0.5012  0.8139 -0.9696
  925MOL0     C27570   7.155   6.031  10.796  0.0238 -0.3397 -0.2299
  925MOL0     O27571   7.029   6.026  10.744  0.4812  0.1417  0.1126
  925MOL0     C27572   7.012   6.115  10.624  0.2314  0.2544 -0.6174
  925MOL0     C27573   6.915   6.077  10.526  0.4657  0.4411  0.1111
  925MOL0     C27574   6.799   5.992  10.576  0.6959 -0.0670 -0.3586
  925MOL0     C27575   6.710   5.959  10.459 -0.6225  0.1328 -0.3555
  925MOL0     C27576   6.591   5.889  10.500 -0.4958 -0.3571 -0.0729
  925MOL0     C27577   6.498   5.821  10.527  0.0977 -0.4413 -0.6765
  925MOL0     C27578   7.238   6.145  10.803  0.9140 -0.4450 -0.9929
  925MOL0     C27579   7.366   6.142  10.857 -0.2130 -0.0463 -0.6664
  925MOL0     C27580   7.445   6.273  10.855  0.6966  0.0807 -0.3552
  925MOL0     H27581   7.674   6.193  11.238 -0.7046 -1.2326  0.8133
  925MOL0     H27582   7.890   6.164  11.363 -0.1240  1.8164 -1.1393
  925MOL0     H27583   8.093   6.171  11.417 -1.2155  2.9301 -1.6413
  925MOL0     H27584   8.218   6.245  11.320 -0.6287 -0.8359 -2.9702
  925MOL0     H27585   8.353   6.045  11.309  0.7815  1.5924  1.0096
  925MOL0     H27586   8.340   6.116  11.483 -0.6317  0.0062  0.5307
  925MOL0     H27587   8.176   5.938  11.529  1.5698  1.6109 -0.2555
  925MOL0     H27588   8.196   5.865  11.374 -1.1624  1.1705 -0.0295
  925MOL0     H27589   8.410   5.916  11.575 -0.9358 -0.2296 -1.1339
  925MOL0     H27590   8.343   5.758  11.551  0.3022  0.4803  2.1131
  925MOL0     H27591   8.504   5.911  11.337  0.0387  2.6177  2.7118
  925MOL0     H27592   8.418   5.748  11.320 -1.0985 -1.2345  0.6024
  925MOL0     H27593   8.637   5.786  11.522  1.6218  1.0255  0.0399
  925MOL0     H27594   8.555   5.637  11.470 -2.4644  0.5383 -0.7130
  925MOL0     H27595   8.701   5.825  11.271  1.0654 -0.8415 -1.1313
  925MOL0     H27596   8.640   5.661  11.249  0.6640 -1.1065  1.5329
  925MOL0     H27597   8.872   5.755  11.427  1.6847 -2.3808  2.5410
  925MOL0     H27598   8.823   5.587  11.419 -2.4589  0.3040 -0.1847
  925MOL0     H27599   8.969   5.868  11.188 -0.7571 -0.4672  0.9909
  925MOL0     H27600   9.032   5.855  10.924 -1.3301 -0.0513  2.2792
  925MOL0     H27601   9.043   5.694  10.848  0.1755 -1.3159  1.5628
  925MOL0     H27602   9.259   5.765  11.041 -1.6530 -0.1377  0.6154
  925MOL0     H27603   9.246   5.637  10.922  0.0110 -0.6367 -0.1271
  925MOL0     H27604   9.225   5.797  10.737  0.7992 -3.1831  0.8784
  925MOL0     H27605   9.264   5.933  10.842 -0.6106 -0.5713  2.2687
  925MOL0     H27606   9.424   5.698  10.772  0.1097 -0.2661  0.1838
  925MOL0     H27607   9.448   5.853  10.691  0.1568 -1.3566 -1.2402
  925MOL0     H27608   9.611   5.626  10.777 -1.5059  0.2987  2.7424
  925MOL0     H27609   9.786   5.528  10.625 -1.6983  1.9260  0.0819
  925MOL0     H27610   9.890   5.489  10.773  1.2986  1.6802  0.7417
  925MOL0     H27611   9.958   5.572  10.629  0.6610  1.6046 -0.0398
  925MOL0     H27612  10.307   5.696  10.660 -1.9684  0.3179  1.2033
  925MOL0     H27613  10.553   5.692  10.720 -0.3940  1.7068 -1.8485
  925MOL0     H27614  10.729   6.059  10.907  4.5951  0.2419 -3.1427
  925MOL0     H27615  10.721   5.932  11.032 -0.8505  3.1563  0.5732
  925MOL0     H27616  10.912   5.993  11.035 -2.5835 -1.3536  0.9062
  925MOL0     H27617  10.908   5.828  10.955 -0.2531 -0.4940  0.1261
  925MOL0     H27618  11.015   6.083  10.836 -0.9044  0.2492 -0.5912
  925MOL0     H27619  10.917   5.996  10.730 -0.6264  0.3799  0.5009
  925MOL0     H27620  11.040   5.801  10.736  1.6234 -1.4150 -1.6107
  925MOL0     H27621  11.126   5.841  10.889 -1.8784 -0.5401 -0.4208
  925MOL0     H27622  11.175   6.014  10.656  1.0097  2.2756  1.6267
  925MOL0     H27623  11.272   5.977  10.809 -2.3628 -1.1622  2.6272
  925MOL0     H27624  11.221   5.772  10.585 -3.2503  2.4723  0.0089
  925MOL0     H27625  11.320   5.754  10.721 -0.1927  1.1988  0.2406
  925MOL0     H27626  11.483   5.922  10.647  0.9820 -1.4961 -0.9006
  925MOL0     H27627  11.378   5.961  10.509  0.5812  0.5870  0.6726
  925MOL0     H27628  11.392   5.716  10.454  0.5507 -1.8932  0.4021
  925MOL0     H27629  11.517   5.693  10.565 -1.4292 -0.2526  0.3622
  925MOL0     H27630  10.497   6.056  10.949  1.7297 -1.2801 -0.1110
  925MOL0     H27631  10.263   6.030  10.907  0.1733 -1.1399  0.3124
  925MOL0     H27632   9.952   5.927  10.954  0.2283 -0.5858 -1.9770
  925MOL0     H27633   9.705   5.979  10.983 -0.4976 -0.9915  1.7506
  925MOL0     H27634   8.065   6.014  11.008  0.4451  0.3543  0.4863
  925MOL0     H27635   7.830   6.043  10.884  1.0216 -2.8277  0.5867
  925MOL0     H27636   7.354   5.804  10.947  2.4738  0.3103  0.4942
  925MOL0     H27637   7.143   5.822  10.842 -0.8276  0.6559  3.6381
  925MOL0     H27638   6.989   6.217  10.656 -0.7527  0.3700 -1.6461
  925MOL0     H27639   7.103   6.121  10.565  1.8200 -1.0579  1.5339
  925MOL0     H27640   6.973   6.025  10.449 -0.7315 -1.3304  0.3543
  925MOL0     H27641   6.880   6.170  10.481 -2.7809 -0.6597  0.1440
  925MOL0     H27642   6.840   5.895  10.606  1.1464 -0.5645 -2.3830
  925MOL0     H27643   6.754   6.052  10.655  3.5035  1.1006  0.4608
  925MOL0     H27644   6.769   5.901  10.388  0.2709  0.4819  0.0826
  925MOL0     H27645   6.681   6.058  10.422 -0.7606 -0.5695 -2.1926
  925MOL0     H27646   6.421   5.758  10.567  0.2351  1.3480  2.7314
  925MOL0     H27647   7.194   6.236  10.763  1.6536 -0.2904 -1.4783
  925MOL0     H27648   7.553   6.268  10.839  0.8866 -0.9499  1.1159
  925MOL0     H27649   7.404   6.334  10.773 -1.4592  1.6315  1.7343
  925MOL0     H27650   7.435   6.332  10.947  1.6298  0.7148 -0.6435
  926MOL0     O27651   5.484   9.181   8.800 -0.5236  0.1704 -0.1847
  926MOL0     C27652   5.393   9.140   8.736  0.6045 -0.0396 -0.2435
  926MOL0     O27653   5.405   9.073   8.616 -0.3631  1.0134 -0.5711
  926MOL0     C27654   5.529   9.020   8.596 -0.0942 -0.3717  0.4325
  926MOL0     C27655   5.584   8.919   8.677  0.1312  0.9420 -0.8941
  926MOL0     C27656   5.714   8.871   8.650  0.0250  0.2130  0.1927
  926MOL0     C27657   5.787   8.912   8.536  0.3538  0.3603 -0.3907
  926MOL0     O27658   5.911   8.868   8.520 -0.1397  0.2553 -0.1525
  926MOL0     C27659   5.957   8.834   8.383 -0.0604  0.1269  0.4003
  926MOL0     C27660   5.903   8.701   8.353  0.0114  0.0239 -0.2265
  926MOL0     C27661   5.930   8.603   8.468  0.1702  0.0382 -0.1031
  926MOL0     C27662   5.857   8.475   8.430 -0.3064  0.2078  0.2337
  926MOL0     C27663   5.851   8.374   8.547  0.2831 -0.2310 -0.7441
  926MOL0     C27664   5.963   8.264   8.534  0.0634 -0.1203  0.6533
  926MOL0     C27665   5.989   8.185   8.664 -0.4938 -0.8563  0.6200
  926MOL0     C27666   5.864   8.112   8.710 -0.2518 -0.2036  0.0713
  926MOL0     N27667   5.903   8.009   8.810 -0.8507  0.7010 -0.3679
  926MOL0     C27668   5.928   8.045   8.942  0.1833  0.9570  0.7112
  926MOL0     C27669   5.915   7.926   9.011  0.4517  0.3109  0.2350
  926MOL0     C27670   5.930   7.895   9.161  0.1361  0.5516  0.4802
  926MOL0     C27671   6.039   7.986   9.209 -0.2799 -0.3414 -0.0103
  926MOL0     C27672   6.075   7.976   9.359  0.7723  0.1246  0.3777
  926MOL0     C27673   6.160   7.860   9.393  0.0914  0.1550  0.4167
  926MOL0     O27674   6.129   7.844   9.527 -0.7007  0.3921  0.5158
  926MOL0     C27675   6.146   7.716   9.560  0.4327 -0.3306 -0.8077
  926MOL0     C27676   6.268   7.680   9.612 -0.0960  0.3997 -0.6343
  926MOL0     C27677   6.299   7.545   9.647  0.1208  0.2731 -0.5313
  926MOL0     C27678   6.450   7.509   9.686  0.2590 -0.7304 -0.0350
  926MOL0     C27679   6.201   7.451   9.625 -0.8141 -0.0529  0.2054
  926MOL0     C27680   6.213   7.302   9.650  0.3504  0.4189  0.4243
  926MOL0     O27681   6.132   7.218   9.575 -0.0173 -0.4318 -0.8950
  926MOL0     C27682   6.137   7.081   9.561 -0.0725  0.4150  0.8522
  926MOL0     C27683   6.211   6.998   9.647 -0.8236  0.7662 -0.4382
  926MOL0     C27684   6.208   6.858   9.632  0.1391  0.3550  1.1008
  926MOL0     C27685   6.131   6.796   9.537  0.9517 -0.2086  0.0968
  926MOL0     O27686   6.133   6.663   9.534  0.1984  1.0712  0.5445
  926MOL0     C27687   5.996   6.607   9.507 -0.3019  0.1188  0.0967
  926MOL0     C27688   5.977   6.464   9.581 -0.1624 -0.0263 -0.1014
  926MOL0     C27689   5.835   6.423   9.598  0.7478  0.5216  0.2354
  926MOL0     C27690   5.812   6.273   9.624 -0.3032 -0.4815 -0.9819
  926MOL0     C27691   5.673   6.231   9.661  1.1400  0.4435  0.3065
  926MOL0     C27692   5.576   6.278   9.556  0.3170  0.7068  0.8106
  926MOL0     C27693   5.424   6.260   9.590  0.3051 -0.3167 -1.0568
  926MOL0     C27694   5.342   6.316   9.476  1.0948  0.7036 -0.1076
  926MOL0    Cl27695   5.348   6.497   9.463 -0.5242 -0.1148 -0.3956
  926MOL0     C27696   6.055   6.879   9.445 -0.1603 -0.1832 -0.7790
  926MOL0     C27697   6.064   7.022   9.463 -0.2716 -0.3075 -0.0577
  926MOL0     O27698   6.300   7.258   9.725 -0.7207  0.7149  0.3417
  926MOL0     C27699   6.082   7.487   9.573 -0.7643  0.5482 -0.1613
  926MOL0     C27700   6.044   7.623   9.551  0.7629 -0.2401  0.2461
  926MOL0     N27701   5.886   7.824   8.923  0.0401 -0.5789  0.1689
  926MOL0     N27702   5.885   7.873   8.802  0.2669 -0.5691 -0.6813
  926MOL0     C27703   5.731   9.012   8.456 -0.1832 -0.2226  0.5398
  926MOL0     C27704   5.595   9.057   8.477 -0.7452  0.3932  0.4898
  926MOL0     C27705   5.254   9.164   8.788  0.4064 -0.3144 -0.3182
  926MOL0     C27706   5.163   9.071   8.756  0.9322 -0.0722 -0.1657
  926MOL0     C27707   5.021   9.090   8.791 -0.5511  0.3212  0.4045
  926MOL0     C27708   4.972   9.204   8.849 -0.3861  0.6412 -0.1132
  926MOL0     O27709   4.842   9.217   8.879  0.3390 -0.0353 -0.4440
  926MOL0     C27710   4.765   9.106   8.910  0.6815  1.1096  0.1136
  926MOL0     C27711   4.808   9.038   9.046 -0.9426 -0.9030 -0.0009
  926MOL0     C27712   4.706   8.949   9.109 -1.0795  0.1489  0.4169
  926MOL0     C27713   4.667   8.829   9.020 -0.6342 -0.4183 -0.7485
  926MOL0     C27714   4.561   8.758   9.091 -0.5539  0.4621  0.7079
  926MOL0     C27715   4.464   8.691   9.129 -0.4575 -0.1909 -0.0674
  926MOL0     C27716   5.066   9.297   8.889 -0.0934  0.0150 -0.6534
  926MOL0     C27717   5.201   9.283   8.862 -0.7223 -0.3637  0.1749
  926MOL0     C27718   5.297   9.392   8.897  0.3509 -0.2043  0.6024
  926MOL0     H27719   5.519   8.885   8.758  2.0841 -2.0156 -0.4284
  926MOL0     H27720   5.763   8.793   8.708  1.4466  1.3314  0.5406
  926MOL0     H27721   6.066   8.831   8.376  0.0617 -0.4926  2.1173
  926MOL0     H27722   5.924   8.903   8.304  0.0361 -1.2503 -0.8862
  926MOL0     H27723   5.796   8.716   8.339  0.3230  1.4860 -1.3875
  926MOL0     H27724   5.934   8.664   8.255 -1.2979  1.9111 -1.4276
  926MOL0     H27725   6.036   8.579   8.484  0.8917  2.6544 -0.5855
  926MOL0     H27726   5.894   8.636   8.566 -1.4319  0.2025 -0.7178
  926MOL0     H27727   5.752   8.493   8.404 -1.0721 -1.4985  1.8745
  926MOL0     H27728   5.905   8.438   8.339 -1.1660 -0.5822  0.0829
  926MOL0     H27729   5.753   8.324   8.547 -0.4123  1.0486 -1.8261
  926MOL0     H27730   5.863   8.419   8.646 -1.9738  0.2615 -0.6235
  926MOL0     H27731   5.952   8.199   8.447  0.0029  1.4484 -0.5711
  926MOL0     H27732   6.055   8.320   8.514 -1.1443  1.6579 -0.2390
  926MOL0     H27733   6.015   8.261   8.737 -1.9893 -0.4230  0.7376
  926MOL0     H27734   6.078   8.122   8.652 -0.6339 -0.6927 -1.9171
  926MOL0     H27735   5.788   8.174   8.759  0.1376 -2.7471  4.3738
  926MOL0     H27736   5.823   8.064   8.621  1.8629  0.5970 -1.4391
  926MOL0     H27737   5.934   8.146   8.980 -0.7524  0.7902  1.3405
  926MOL0     H27738   5.956   7.791   9.186  1.0867  0.8768  0.8825
  926MOL0     H27739   5.836   7.920   9.211  0.0359  2.6256 -0.6788
  926MOL0     H27740   6.118   7.959   9.139 -0.1160 -2.2353  0.8416
  926MOL0     H27741   6.004   8.087   9.183  1.0225 -0.0557 -0.7468
  926MOL0     H27742   6.128   8.066   9.390  1.2230 -0.1542  0.4368
  926MOL0     H27743   5.982   7.975   9.416 -1.9930  1.3926 -3.6583
  926MOL0     H27744   6.140   7.767   9.339  0.5572 -1.0824  2.2781
  926MOL0     H27745   6.264   7.880   9.365 -0.2770 -0.4716 -1.5834
  926MOL0     H27746   6.342   7.759   9.621  1.5032 -0.7081 -3.1847
  926MOL0     H27747   6.452   7.440   9.771 -3.5361  1.4877  2.1693
  926MOL0     H27748   6.492   7.603   9.723 -2.2586  0.4343  0.1050
  926MOL0     H27749   6.499   7.481   9.593  1.0598 -0.0557  0.1720
  926MOL0     H27750   6.263   7.039   9.733  1.9075 -2.2570 -0.4314
  926MOL0     H27751   6.266   6.794   9.698  0.4543  1.3669  1.8365
  926MOL0     H27752   5.921   6.675   9.548  0.5459 -0.3608  2.6109
  926MOL0     H27753   5.986   6.586   9.400  3.0031 -0.8853 -0.1148
  926MOL0     H27754   6.046   6.397   9.529 -1.2886  0.2789 -2.1018
  926MOL0     H27755   6.021   6.484   9.679  1.0105  1.4436 -0.8756
  926MOL0     H27756   5.775   6.443   9.508 -2.9035 -0.3455  2.2531
  926MOL0     H27757   5.780   6.484   9.670 -2.8879 -3.2988  1.0605
  926MOL0     H27758   5.876   6.238   9.706 -1.6593 -1.6587 -0.3737
  926MOL0     H27759   5.843   6.220   9.533 -1.4289 -2.5288 -0.2457
  926MOL0     H27760   5.663   6.125   9.683 -1.3069  0.0644 -2.1359
  926MOL0     H27761   5.648   6.279   9.756 -1.5797 -0.8738  0.3449
  926MOL0     H27762   5.603   6.228   9.463 -0.2676  0.3142  0.8522
  926MOL0     H27763   5.582   6.384   9.530  1.2023  0.4099 -0.3249
  926MOL0     H27764   5.398   6.313   9.682  1.4211 -1.5053 -0.0145
  926MOL0     H27765   5.411   6.153   9.609  2.2052 -0.0998  2.1001
  926MOL0     H27766   5.235   6.298   9.489  0.7044  2.1172 -1.1199
  926MOL0     H27767   5.358   6.258   9.385  0.6011  1.2406 -0.5448
  926MOL0     H27768   5.987   6.836   9.372 -2.3243  0.2324  0.9016
  926MOL0     H27769   5.994   7.078   9.402 -1.1321 -1.1739  0.1029
  926MOL0     H27770   6.005   7.415   9.549  0.8813 -1.0515 -0.8338
  926MOL0     H27771   5.947   7.646   9.508  1.7254  2.1122 -0.8237
  926MOL0     H27772   5.793   9.049   8.375 -2.8869  0.1726 -1.5000
  926MOL0     H27773   5.549   9.139   8.423 -1.0223  0.9504  1.5378
  926MOL0     H27774   5.192   8.981   8.703 -2.7916 -0.5055 -1.7669
  926MOL0     H27775   4.959   9.004   8.768  2.2925 -1.4906 -1.1387
  926MOL0     H27776   4.662   9.131   8.934 -0.2354 -2.7811  0.8812
  926MOL0     H27777   4.765   9.032   8.830  1.2511  0.9947  0.2147
  926MOL0     H27778   4.842   9.117   9.113  0.2871 -1.2644 -0.1812
  926MOL0     H27779   4.901   8.983   9.028  0.1609  0.3000  1.6813
  926MOL0     H27780   4.739   8.919   9.209  4.4954 -0.9639 -1.4256
  926MOL0     H27781   4.618   9.013   9.103 -2.8237 -2.2412 -1.1236
  926MOL0     H27782   4.753   8.765   9.003  0.7472  1.0548  0.3143
  926MOL0     H27783   4.646   8.854   8.916  1.2793 -0.1781 -1.1144
  926MOL0     H27784   4.380   8.624   9.139 -0.8454  0.2196 -0.5397
  926MOL0     H27785   5.029   9.391   8.928  1.2487  0.8585 -1.3469
  926MOL0     H27786   5.353   9.420   8.807 -0.2993 -0.7257  0.0185
  926MOL0     H27787   5.239   9.473   8.941  0.2327  0.4037 -0.6177
  926MOL0     H27788   5.367   9.364   8.977  2.5911  2.8228 -0.0971
  927MOL0     O27789   1.582  10.283   0.907  1.1170 -0.2554 -0.4433
  927MOL0     C27790   1.479  10.354   0.879  0.2229  1.1037  0.0399
  927MOL0     O27791   1.445  10.476   0.936 -0.3114 -0.4964  0.8575
  927MOL0     C27792   1.534  10.569   0.984 -0.0352 -0.2656 -0.4546
  927MOL0     C27793   1.675  10.566   0.989 -0.8645  0.1446  1.2159
  927MOL0     C27794   1.745  10.667   1.037 -0.5724  0.2994 -0.7188
  927MOL0     C27795   1.687  10.773   1.113 -0.3365 -0.2949  0.5932
  927MOL0     O27796   1.754  10.867   1.193  0.5245 -1.2110  0.2029
  927MOL0     C27797   1.895  10.882   1.196  0.5031 -0.3478  0.1995
  927MOL0     C27798   1.945  10.947   1.062 -0.6085  0.3483  0.8117
  927MOL0     C27799   2.060  11.053   1.073  0.1249  0.4163  0.9915
  927MOL0     C27800   2.191  10.981   1.072  0.1530  0.1514  0.4491
  927MOL0     C27801   2.296  11.084   1.110 -0.4151  0.0921 -0.4150
  927MOL0     C27802   2.438  11.031   1.097 -0.4024 -0.2920  0.4580
  927MOL0     C27803   2.546  11.133   1.142 -0.1948 -1.3343 -0.1397
  927MOL0     C27804   2.688  11.073   1.132  0.0293 -0.5243  0.3321
  927MOL0     N27805   2.719  11.022   1.001 -0.1247  0.2015  0.1992
  927MOL0     C27806   2.723  10.896   0.959 -0.1668  1.8662 -0.0492
  927MOL0     C27807   2.780  10.900   0.835  0.3190 -0.9434 -0.3093
  927MOL0     C27808   2.787  10.779   0.743 -0.5745  0.0777  1.3813
  927MOL0     C27809   2.914  10.710   0.706  0.4409 -0.2180  0.1437
  927MOL0     C27810   2.999  10.677   0.824 -0.4210  0.7029 -0.3860
  927MOL0     C27811   3.123  10.600   0.771 -0.2193 -0.3239 -0.4123
  927MOL0     O27812   3.231  10.655   0.846  0.4660 -0.1063 -0.0524
  927MOL0     C27813   3.352  10.595   0.857  0.2278 -0.4705  0.1375
  927MOL0     C27814   3.398  10.482   0.791  0.7437  0.3154 -0.3946
  927MOL0     C27815   3.539  10.439   0.797  0.1837 -0.2649  0.7518
  927MOL0     C27816   3.592  10.319   0.733  0.4230  0.5603 -0.3568
  927MOL0     C27817   3.621  10.508   0.890  0.6756  0.7499  0.1308
  927MOL0     C27818   3.770  10.487   0.914  0.1211 -0.1424 -0.0473
  927MOL0     O27819   3.814  10.503   1.044  1.0831  0.1203  0.3534
  927MOL0     C27820   3.947  10.482   1.058  0.2605 -0.1991  0.5209
  927MOL0     C27821   3.989  10.350   1.043 -0.3165  0.6120  0.5299
  927MOL0     C27822   4.124  10.316   1.042 -0.4534 -0.6501  0.3272
  927MOL0     C27823   4.220  10.408   1.093  0.1651 -0.5275  0.1751
  927MOL0     O27824   4.358  10.385   1.101 -0.4623 -0.6364 -0.2144
  927MOL0     C27825   4.405  10.256   1.077 -0.0031  0.8948 -0.1762
  927MOL0     C27826   4.547  10.261   1.104 -0.4237 -0.4437 -0.0299
  927MOL0     C27827   4.626  10.362   1.017 -0.0990 -0.1319 -0.4747
  927MOL0     C27828   4.769  10.359   1.070 -0.1687 -0.3121  0.2640
  927MOL0     C27829   4.866  10.453   1.004 -0.1572  0.4577  0.0013
  927MOL0     C27830   5.002  10.454   1.080  0.8364  1.0788 -0.0836
  927MOL0     C27831   5.100  10.522   0.994 -0.1943 -0.0911 -0.7484
  927MOL0     C27832   5.249  10.523   1.047  0.7031  0.1852 -0.4763
  927MOL0    Cl27833   5.321  10.362   1.033 -0.1588  0.0830 -0.2695
  927MOL0     C27834   4.176  10.543   1.119 -0.9454 -0.3178  0.0604
  927MOL0     C27835   4.041  10.577   1.097 -0.8533  0.3786 -0.5300
  927MOL0     O27836   3.838  10.475   0.811  1.0417 -0.0462  0.4057
  927MOL0     C27837   3.565  10.608   0.971 -0.8572 -0.2837 -0.3035
  927MOL0     C27838   3.430  10.651   0.953  0.0015  0.4447  0.6426
  927MOL0     N27839   2.829  11.025   0.804  0.5885 -0.0813 -0.6320
  927MOL0     N27840   2.791  11.092   0.910 -0.1803 -0.1028 -0.4534
  927MOL0     C27841   1.542  10.776   1.108  0.2480 -0.2156 -0.3041
  927MOL0     C27842   1.471  10.680   1.042  0.2554  0.9066  0.1007
  927MOL0     C27843   1.377  10.301   0.776 -0.1346  0.2096 -0.3236
  927MOL0     C27844   1.268  10.386   0.748  0.2907 -0.5444 -0.1368
  927MOL0     C27845   1.179  10.354   0.647  0.7502  1.0867  0.0793
  927MOL0     C27846   1.185  10.239   0.568  0.3967 -0.2116 -0.3472
  927MOL0     O27847   1.090  10.205   0.472 -0.2810  0.5157  0.4277
  927MOL0     C27848   0.962  10.260   0.486 -0.0479  0.9681 -0.9430
  927MOL0     C27849   0.875  10.215   0.605 -1.0786  0.4479  0.2879
  927MOL0     C27850   0.885  10.078   0.656  0.4086  0.3356  0.1840
  927MOL0     C27851   0.903  10.068   0.806  0.3486  0.1936 -0.4122
  927MOL0     C27852   0.939   9.937   0.850 -0.1067 -0.0068 -0.8693
  927MOL0     C27853   0.964   9.822   0.885 -0.1046 -0.2502  0.5641
  927MOL0     C27854   1.294  10.157   0.597 -0.9515 -0.4009 -0.7300
  927MOL0     C27855   1.392  10.181   0.698  0.9940  1.1917 -0.1743
  927MOL0     C27856   1.516  10.096   0.699 -0.0355  0.1368 -0.0602
  927MOL0     H27857   1.725  10.481   0.942 -1.0808  0.6242  0.0764
  927MOL0     H27858   1.853  10.665   1.024 -0.5635 -0.8297 -0.5884
  927MOL0     H27859   1.943  10.788   1.223  0.6387 -1.1283 -2.4658
  927MOL0     H27860   1.919  10.952   1.277  1.7296  0.5055 -0.8616
  927MOL0     H27861   1.989  10.877   0.992  0.9099  0.4611  1.6072
  927MOL0     H27862   1.859  10.986   1.007 -1.0929 -3.2573 -1.2983
  927MOL0     H27863   2.059  11.117   0.984  1.4859  2.3542  2.2805
  927MOL0     H27864   2.054  11.110   1.166  0.1870  1.7872  0.1827
  927MOL0     H27865   2.188  10.906   1.152  0.2498  1.0622  1.3293
  927MOL0     H27866   2.208  10.935   0.974 -0.0869 -0.0037  0.4809
  927MOL0     H27867   2.280  11.117   1.213  0.8114 -0.9574  0.1368
  927MOL0     H27868   2.287  11.169   1.042 -1.3489 -0.1269 -0.5852
  927MOL0     H27869   2.452  10.943   1.161  0.6056 -1.5425 -1.3937
  927MOL0     H27870   2.445  11.007   0.991 -1.9093  2.5632 -0.3985
  927MOL0     H27871   2.522  11.182   1.237 -0.0898  0.1414 -0.8417
  927MOL0     H27872   2.547  11.216   1.071  1.0932 -1.8777 -0.7844
  927MOL0     H27873   2.761  11.146   1.165  2.1890 -2.2077 -0.4962
  927MOL0     H27874   2.712  10.986   1.194  2.1102 -1.6842 -1.9272
  927MOL0     H27875   2.686  10.806   1.006  0.9805  2.0874  1.3142
  927MOL0     H27876   2.744  10.807   0.646 -0.6931  0.9388  1.6785
  927MOL0     H27877   2.721  10.705   0.791 -1.1220  0.1467  0.7507
  927MOL0     H27878   2.893  10.614   0.658  2.4094 -1.1838  1.1175
  927MOL0     H27879   2.954  10.782   0.634 -0.2190  1.4026  1.3504
  927MOL0     H27880   3.042  10.767   0.870  1.5556 -0.9297  1.1230
  927MOL0     H27881   2.955  10.619   0.906 -1.4182  2.9873  0.7966
  927MOL0     H27882   3.119  10.492   0.788  0.3442 -0.4330 -0.9411
  927MOL0     H27883   3.139  10.619   0.665 -0.3012  2.2464 -0.0490
  927MOL0     H27884   3.323  10.433   0.729 -1.6564  1.9886  1.0172
  927MOL0     H27885   3.523  10.262   0.671  2.5456 -2.1873 -0.3661
  927MOL0     H27886   3.635  10.246   0.802  0.1366 -0.5754 -1.3513
  927MOL0     H27887   3.674  10.340   0.664 -0.0444  1.0579 -0.7679
  927MOL0     H27888   3.910  10.280   1.016  0.2784  0.0400  0.2348
  927MOL0     H27889   4.147  10.216   1.006 -0.5316 -0.6184  0.1898
  927MOL0     H27890   4.358  10.184   1.145 -1.6400  1.2467 -0.8936
  927MOL0     H27891   4.387  10.220   0.975 -2.4787 -1.6410  1.0404
  927MOL0     H27892   4.555  10.292   1.209 -0.7685  0.3096 -0.2208
  927MOL0     H27893   4.592  10.162   1.092  0.7441  0.0340  0.2077
  927MOL0     H27894   4.591  10.465   1.033  4.1731  1.5046 -0.1753
  927MOL0     H27895   4.625  10.334   0.911 -1.6551 -1.7994 -0.0575
  927MOL0     H27896   4.801  10.255   1.058 -0.7888 -0.3825 -0.9373
  927MOL0     H27897   4.772  10.392   1.174 -0.2916 -0.1329  0.2121
  927MOL0     H27898   4.874  10.420   0.900 -2.7324 -1.9737  0.4662
  927MOL0     H27899   4.840  10.559   1.002  3.5034  1.4933 -0.2003
  927MOL0     H27900   5.044  10.354   1.084 -1.4088  0.1034  0.7095
  927MOL0     H27901   4.985  10.492   1.182  0.5281 -0.5798  0.5068
  927MOL0     H27902   5.063  10.625   0.986 -1.2453 -0.5221 -1.6507
  927MOL0     H27903   5.105  10.482   0.892  1.8851  0.2598 -0.8326
  927MOL0     H27904   5.254  10.555   1.152  3.4912 -1.0983 -0.1382
  927MOL0     H27905   5.306  10.595   0.988  0.5379  1.2548  0.6179
  927MOL0     H27906   4.253  10.615   1.141 -0.6906 -0.2231 -1.0716
  927MOL0     H27907   4.013  10.682   1.108  0.6976  0.6708  1.2120
  927MOL0     H27908   3.620  10.673   1.038 -0.8797  0.4717 -0.9992
  927MOL0     H27909   3.386  10.739   1.000 -1.9383 -2.0530  3.8829
  927MOL0     H27910   1.482  10.853   1.156  1.0289  0.6432 -0.6633
  927MOL0     H27911   1.363  10.666   1.042  0.2761 -0.0970 -2.9695
  927MOL0     H27912   1.262  10.482   0.800 -2.4334 -2.5168  3.7284
  927MOL0     H27913   1.112  10.439   0.637 -2.6249 -0.7231  4.1520
  927MOL0     H27914   0.956  10.369   0.481 -3.4559  0.8715 -1.2345
  927MOL0     H27915   0.908  10.229   0.396  1.9905 -1.3014 -1.5062
  927MOL0     H27916   0.772  10.245   0.583 -1.1202  0.7533  0.8758
  927MOL0     H27917   0.898  10.280   0.690 -2.8040  2.0501 -0.3996
  927MOL0     H27918   0.797  10.022   0.621 -2.0510  3.9387  0.0713
  927MOL0     H27919   0.965  10.024   0.603 -0.9265 -1.3235 -0.2461
  927MOL0     H27920   0.814  10.092   0.865  1.4908 -1.9561  2.3829
  927MOL0     H27921   0.983  10.138   0.830 -0.1277  0.7718 -0.4763
  927MOL0     H27922   0.976   9.731   0.940 -1.6923 -0.7516  0.1203
  927MOL0     H27923   1.316  10.076   0.529  0.2048  1.3006 -2.4829
  927MOL0     H27924   1.528  10.030   0.786  1.7593  3.1163  2.1430
  927MOL0     H27925   1.513  10.029   0.613  5.0984 -1.1337  0.4211
  927MOL0     H27926   1.608  10.154   0.688  0.3800 -0.2810  1.0079
  928MOL0     O27927  11.019   3.318   6.709 -0.3274 -0.0567  0.1493
  928MOL0     C27928  10.989   3.220   6.646  0.8166 -0.2504 -0.8991
  928MOL0     O27929  11.074   3.137   6.576  0.9932  0.3223  0.0316
  928MOL0     C27930  11.212   3.160   6.585  0.6001  0.7344 -0.8929
  928MOL0     C27931  11.272   3.159   6.711 -0.2124 -0.1199  0.7216
  928MOL0     C27932  11.408   3.173   6.717 -0.2645 -0.3853 -0.4564
  928MOL0     C27933  11.488   3.187   6.603 -0.1090  0.7049  0.2405
  928MOL0     O27934  11.626   3.194   6.622 -0.3614  0.5183  0.4655
  928MOL0     C27935  11.709   3.195   6.507 -1.0628  0.5930 -1.4290
  928MOL0     C27936  11.858   3.206   6.547  0.1654 -0.3375 -0.1463
  928MOL0     C27937  11.951   3.193   6.424 -0.5525 -0.5776  0.4372
  928MOL0     C27938  12.090   3.151   6.456 -0.2766 -0.4529  0.0561
  928MOL0     C27939  12.155   3.259   6.551 -0.5195 -0.2473  0.5208
  928MOL0     C27940  12.313   3.279   6.562  0.6807 -0.0600  0.0791
  928MOL0     C27941  12.353   3.404   6.649 -0.3577 -0.7467  0.0681
  928MOL0     C27942  12.498   3.394   6.692 -0.1025 -0.0897 -1.2132
  928MOL0     N27943  12.591   3.402   6.577 -0.4622  0.0483  0.2112
  928MOL0     C27944  12.618   3.304   6.491  0.4248  0.4530  0.0270
  928MOL0     C27945  12.734   3.339   6.438  0.6762 -0.0843  0.0475
  928MOL0     C27946  12.793   3.254   6.320 -0.2019  0.4196  0.6147
  928MOL0     C27947  12.933   3.312   6.285 -0.5423  0.3538 -0.1150
  928MOL0     C27948  13.011   3.214   6.196 -0.2745  0.1487  0.0317
  928MOL0     C27949  13.137   3.282   6.143  0.9016  0.0155  0.1185
  928MOL0     O27950  13.206   3.338   6.255  0.0694  0.0062  0.4175
  928MOL0     C27951  13.341   3.366   6.256 -0.4707  0.8548  0.8439
  928MOL0     C27952  13.396   3.396   6.380 -0.3527  0.7200  0.5395
  928MOL0     C27953  13.529   3.402   6.407  0.1713  0.0874  0.5498
  928MOL0     C27954  13.570   3.453   6.544 -0.2667 -0.4097  0.4411
  928MOL0     C27955  13.622   3.367   6.304 -0.4733  0.3907 -0.2442
  928MOL0     C27956  13.770   3.363   6.319 -0.7786 -0.4867 -0.2603
  928MOL0     O27957  13.846   3.338   6.209 -0.2920 -0.2531 -0.7935
  928MOL0     C27958  13.975   3.299   6.228 -0.7322  0.5982  0.2695
  928MOL0     C27959  14.016   3.168   6.192 -0.3817  0.8474  0.1280
  928MOL0     C27960  14.148   3.128   6.200  0.0388 -0.0578 -0.2093
  928MOL0     C27961  14.244   3.219   6.246 -0.0794 -0.0394  0.0295
  928MOL0     O27962  14.383   3.204   6.247  0.4400  0.1264 -0.3814
  928MOL0     C27963  14.438   3.097   6.321  0.1513 -0.4347 -0.1728
  928MOL0     C27964  14.584   3.075   6.287 -0.9036  0.2116 -0.0635
  928MOL0     C27965  14.656   3.004   6.391 -0.2236  0.4414  0.3232
  928MOL0     C27966  14.669   2.849   6.358  0.5096 -0.0904  0.0962
  928MOL0     C27967  14.795   2.797   6.425  0.0981  0.9671 -1.0498
  928MOL0     C27968  14.781   2.783   6.578 -0.2690  0.5612  0.1318
  928MOL0     C27969  14.882   2.698   6.651 -0.4675  0.0889 -0.4046
  928MOL0     C27970  14.890   2.555   6.614  0.4503 -0.3482 -0.5191
  928MOL0    Cl27971  14.753   2.478   6.681 -0.3501 -0.2706 -0.2325
  928MOL0     C27972  14.206   3.343   6.289  1.0921 -0.2254 -0.3122
  928MOL0     C27973  14.067   3.384   6.283 -0.2914  0.7562  1.0881
  928MOL0     O27974  13.814   3.363   6.434  0.1874  0.2325  0.1797
  928MOL0     C27975  13.568   3.335   6.178 -0.7710 -0.5339  0.0704
  928MOL0     C27976  13.428   3.345   6.150 -0.6430  0.2908 -0.1633
  928MOL0     N27977  12.771   3.465   6.463  0.0076  0.0174 -0.3124
  928MOL0     N27978  12.692   3.497   6.559 -0.3768 -0.1592  0.2041
  928MOL0     C27979  11.427   3.180   6.482  0.0985  0.7998  0.3445
  928MOL0     C27980  11.288   3.161   6.474 -0.8791  0.0842  0.7840
  928MOL0     C27981  10.843   3.176   6.635 -0.5942  0.0493 -0.2454
  928MOL0     C27982  10.810   3.073   6.548 -0.0599  0.3452  0.1260
  928MOL0     C27983  10.681   3.026   6.538 -0.0629  0.2192 -0.0596
  928MOL0     C27984  10.580   3.052   6.629  0.1352  0.7119  0.1054
  928MOL0     O27985  10.451   3.006   6.634 -0.0273  0.2968 -0.1652
  928MOL0     C27986  10.410   2.894   6.542 -0.4565 -0.3813 -0.0230
  928MOL0     C27987  10.269   2.929   6.492 -1.1251  0.0908 -0.5073
  928MOL0     C27988  10.266   3.065   6.426  0.0021  0.1743 -0.1066
  928MOL0     C27989  10.120   3.110   6.395 -0.3419  0.5057  0.2652
  928MOL0     C27990  10.050   3.011   6.321 -0.4728  0.7410  0.3448
  928MOL0     C27991   9.993   2.924   6.264 -0.0824 -0.3103  0.5727
  928MOL0     C27992  10.618   3.155   6.712  0.2504 -0.3349 -0.0494
  928MOL0     C27993  10.741   3.226   6.717  0.6332 -0.2725  0.5676
  928MOL0     C27994  10.750   3.336   6.814  0.5948  0.3700 -0.0537
  928MOL0     H27995  11.201   3.148   6.793 -1.4005  0.8833 -0.1236
  928MOL0     H27996  11.445   3.162   6.818 -0.6574 -3.1680 -0.5250
  928MOL0     H27997  11.686   3.275   6.436 -0.7766 -0.0853 -2.3028
  928MOL0     H27998  11.701   3.101   6.452  1.6663 -0.4974 -0.1431
  928MOL0     H27999  11.879   3.299   6.600 -0.3840 -0.6379  0.6129
  928MOL0     H28000  11.882   3.130   6.623  1.5273  0.9981  0.8221
  928MOL0     H28001  11.898   3.125   6.356 -0.3633  0.6165 -0.9706
  928MOL0     H28002  11.950   3.290   6.373  1.8631  0.2490  1.7976
  928MOL0     H28003  12.103   3.049   6.493  0.8935  0.4447  2.3174
  928MOL0     H28004  12.145   3.161   6.362  0.8742  2.2636  0.9275
  928MOL0     H28005  12.118   3.242   6.652 -1.8411  2.4151  0.5438
  928MOL0     H28006  12.120   3.356   6.515 -0.6814 -0.1318  0.9790
  928MOL0     H28007  12.366   3.195   6.608  1.5035  0.6797  0.4927
  928MOL0     H28008  12.359   3.280   6.462  0.4244 -2.1319 -0.1113
  928MOL0     H28009  12.280   3.419   6.729  0.1322 -1.5644  0.6851
  928MOL0     H28010  12.356   3.497   6.592 -1.2283 -1.1783 -0.6998
  928MOL0     H28011  12.528   3.477   6.757 -3.0103  0.9586 -1.0615
  928MOL0     H28012  12.508   3.303   6.751  3.4126  0.6842 -0.4207
  928MOL0     H28013  12.580   3.204   6.476 -0.4893  0.6985  0.6188
  928MOL0     H28014  12.739   3.270   6.226  1.7130 -0.1255 -0.6391
  928MOL0     H28015  12.796   3.146   6.337 -0.4248  0.6559  2.2827
  928MOL0     H28016  12.915   3.405   6.230 -2.3805 -0.5408 -1.1132
  928MOL0     H28017  12.981   3.326   6.382  1.6794 -2.1110 -0.7562
  928MOL0     H28018  13.049   3.128   6.253  1.1262 -0.6745 -2.0114
  928MOL0     H28019  12.953   3.175   6.111 -0.3527 -1.4682  0.7853
  928MOL0     H28020  13.202   3.212   6.089 -0.2800 -1.6305  0.7443
  928MOL0     H28021  13.103   3.361   6.076  1.3772  0.6761  0.6495
  928MOL0     H28022  13.331   3.415   6.465 -3.3933 -2.5257 -0.7607
  928MOL0     H28023  13.484   3.507   6.585 -0.1067 -0.3248  0.6643
  928MOL0     H28024  13.652   3.525   6.538 -0.2148 -0.5526 -0.9303
  928MOL0     H28025  13.598   3.365   6.602  0.3815 -0.9823 -0.7046
  928MOL0     H28026  13.953   3.095   6.142 -1.9917  2.5991 -0.5410
  928MOL0     H28027  14.171   3.031   6.156 -1.8092 -0.0860 -1.2312
  928MOL0     H28028  14.425   3.113   6.429 -2.9000 -2.6195 -0.0720
  928MOL0     H28029  14.375   3.009   6.303 -0.4625 -0.3787  1.4509
  928MOL0     H28030  14.587   3.029   6.188  0.2150  0.0469  0.0315
  928MOL0     H28031  14.633   3.172   6.275  1.9403 -1.3933 -2.8541
  928MOL0     H28032  14.609   3.022   6.488  3.0761 -1.9783  2.6067
  928MOL0     H28033  14.760   3.039   6.392 -0.4132  1.0185  0.0429
  928MOL0     H28034  14.681   2.840   6.250  5.3993  1.9521  0.2202
  928MOL0     H28035  14.579   2.791   6.381  1.2247 -1.8821 -1.4096
  928MOL0     H28036  14.806   2.699   6.378  0.1401 -0.0160  0.8857
  928MOL0     H28037  14.877   2.866   6.404  1.9399  0.1765  2.6753
  928MOL0     H28038  14.685   2.735   6.600 -1.2272  2.6158  0.6494
  928MOL0     H28039  14.779   2.884   6.622 -1.6213  0.4084  0.4677
  928MOL0     H28040  14.868   2.718   6.758  1.6023  3.0107 -0.5540
  928MOL0     H28041  14.979   2.736   6.619 -0.2691 -0.7830 -0.8752
  928MOL0     H28042  14.977   2.506   6.660  0.8122 -0.6471 -1.4960
  928MOL0     H28043  14.895   2.552   6.505 -1.3410  1.0666 -0.6837
  928MOL0     H28044  14.281   3.414   6.322  1.9924 -1.6332  0.7629
  928MOL0     H28045  14.045   3.484   6.319  0.1072  0.4058  2.3741
  928MOL0     H28046  13.643   3.303   6.106  0.0469 -0.4462  0.8630
  928MOL0     H28047  13.392   3.325   6.050  2.4608 -0.4260 -1.2441
  928MOL0     H28048  11.486   3.185   6.391 -0.8159 -0.8407 -0.3838
  928MOL0     H28049  11.245   3.168   6.374 -0.8314 -2.1983  0.5619
  928MOL0     H28050  10.886   3.029   6.485  2.6536  1.7501  2.2366
  928MOL0     H28051  10.657   2.945   6.470 -0.3494 -0.0573  0.3683
  928MOL0     H28052  10.476   2.863   6.460 -1.7566  0.3237 -1.3808
  928MOL0     H28053  10.397   2.802   6.599 -0.2947  0.4080  1.3369
  928MOL0     H28054  10.197   2.926   6.574 -0.6540  3.7627  0.1845
  928MOL0     H28055  10.242   2.846   6.425 -4.1444 -0.5996  1.3724
  928MOL0     H28056  10.310   3.145   6.486 -0.0385 -0.8322  1.3324
  928MOL0     H28057  10.318   3.063   6.330  3.7709  2.1902  1.6701
  928MOL0     H28058  10.118   3.205   6.342  1.7789  0.6429  0.3500
  928MOL0     H28059  10.069   3.126   6.491 -2.0890 -0.2576 -0.4810
  928MOL0     H28060   9.949   2.836   6.219  0.3554 -0.7327  0.9586
  928MOL0     H28061  10.533   3.192   6.769  1.3435  4.6990 -1.1628
  928MOL0     H28062  10.816   3.300   6.893 -0.1962 -4.7527 -1.3722
  928MOL0     H28063  10.795   3.424   6.766  0.6601  0.5150  0.2709
  928MOL0     H28064  10.651   3.371   6.845  0.2430  0.1925 -0.9371
  929MOL0     O28065   7.696   4.557  10.438 -0.5800 -0.2353  0.0706
  929MOL0     C28066   7.679   4.516  10.555 -0.3574  0.5556  0.0040
  929MOL0     O28067   7.774   4.542  10.657  0.5943  0.1950  0.1786
  929MOL0     C28068   7.910   4.546  10.637  0.6751 -1.1208  0.7393
  929MOL0     C28069   7.974   4.495  10.524 -0.5436  0.5530  0.3723
  929MOL0     C28070   8.110   4.523  10.499  0.2732  0.4859  0.2663
  929MOL0     C28071   8.191   4.572  10.605  1.1474 -0.4111  0.1964
  929MOL0     O28072   8.325   4.584  10.604  0.0880 -0.3710 -0.2776
  929MOL0     C28073   8.412   4.520  10.505  0.7159  0.1015 -0.0033
  929MOL0     C28074   8.557   4.508  10.542 -1.0367  0.2563  0.4234
  929MOL0     C28075   8.611   4.635  10.607  0.1226  0.3000 -0.9933
  929MOL0     C28076   8.763   4.646  10.625 -0.3061 -0.1090  0.3015
  929MOL0     C28077   8.837   4.657  10.495 -0.7625 -0.3635 -0.4026
  929MOL0     C28078   8.995   4.639  10.505 -0.0290 -0.1178 -0.9844
  929MOL0     C28079   9.067   4.731  10.605  0.0209 -1.1016 -0.4207
  929MOL0     C28080   9.013   4.875  10.620 -0.1704 -0.4830  0.0000
  929MOL0     N28081   9.117   4.949  10.699  0.9389 -0.0680  0.4389
  929MOL0     C28082   9.086   5.025  10.809  0.0535  0.6262  0.0114
  929MOL0     C28083   9.204   5.086  10.845  0.5482  0.0203  0.1762
  929MOL0     C28084   9.209   5.182  10.966 -0.1773 -0.1678  0.0945
  929MOL0     C28085   9.202   5.093  11.101  0.6264 -0.2414  0.0932
  929MOL0     C28086   9.342   5.045  11.136  0.6463  0.5527  0.1961
  929MOL0     C28087   9.339   4.923  11.220 -0.4693  0.1613 -0.1403
  929MOL0     O28088   9.446   4.904  11.312  0.0955  1.0264  0.6732
  929MOL0     C28089   9.563   4.843  11.268  0.4259 -0.0938  0.2444
  929MOL0     C28090   9.594   4.822  11.131  0.7356  0.6246  0.7167
  929MOL0     C28091   9.716   4.767  11.106  0.4326  0.6816  0.3650
  929MOL0     C28092   9.751   4.751  10.958  0.1881  0.8992  0.1115
  929MOL0     C28093   9.811   4.732  11.199  0.4998 -0.6980 -0.4394
  929MOL0     C28094   9.938   4.660  11.180 -0.0718 -0.0789  0.0999
  929MOL0     O28095   9.991   4.610  11.296  0.3948  0.2889  0.0517
  929MOL0     C28096  10.127   4.574  11.293  0.4523  0.4937 -0.3712
  929MOL0     C28097  10.168   4.446  11.253 -0.3422 -0.6983 -0.1801
  929MOL0     C28098  10.310   4.429  11.254  0.0804 -0.3692  0.0194
  929MOL0     C28099  10.402   4.520  11.301 -0.9363 -0.0617  0.3161
  929MOL0     O28100  10.536   4.501  11.282 -0.5656  0.0307  0.1247
  929MOL0     C28101  10.623   4.595  11.341  0.3058 -0.0956  0.3035
  929MOL0     C28102  10.766   4.546  11.324  0.0072 -0.7654 -0.2231
  929MOL0     C28103  10.869   4.648  11.365 -0.2298 -0.0772 -0.4716
  929MOL0     C28104  10.990   4.570  11.415  0.0614 -0.1894 -0.3292
  929MOL0     C28105  11.085   4.674  11.480  0.0260 -0.1597 -0.1675
  929MOL0     C28106  11.226   4.622  11.510  0.6549 -0.2994  0.6848
  929MOL0     C28107  11.321   4.704  11.594  0.6706  0.0878 -0.4672
  929MOL0     C28108  11.455   4.641  11.584  0.3079 -0.7864 -0.9132
  929MOL0    Cl28109  11.590   4.761  11.640 -0.0945 -0.2128 -0.0501
  929MOL0     C28110  10.347   4.641  11.353 -0.5192  0.6492 -0.8027
  929MOL0     C28111  10.209   4.666  11.347 -0.3385  0.0674  0.3996
  929MOL0     O28112   9.982   4.645  11.070 -0.1753 -0.1655  0.0713
  929MOL0     C28113   9.783   4.766  11.331  0.2256  0.2549 -1.0521
  929MOL0     C28114   9.663   4.822  11.366  0.7790 -0.2694  0.2789
  929MOL0     N28115   9.296   5.052  10.747  0.1143 -0.3591  0.0654
  929MOL0     N28116   9.242   4.978  10.652  0.5444 -0.6893 -0.2383
  929MOL0     C28117   8.127   4.609  10.724 -0.2650  0.9247 -0.3161
  929MOL0     C28118   7.988   4.603  10.742 -0.6256 -0.1350 -0.2266
  929MOL0     C28119   7.548   4.451  10.594  0.2729  0.0176  0.2553
  929MOL0     C28120   7.490   4.368  10.506  0.1830  0.4268 -0.1172
  929MOL0     C28121   7.377   4.297  10.536  0.5060 -0.0482  0.4143
  929MOL0     C28122   7.317   4.306  10.662  0.1590 -0.0992  0.2517
  929MOL0     O28123   7.195   4.248  10.685 -0.2747 -0.6158 -0.1557
  929MOL0     C28124   7.208   4.109  10.692  0.5024 -0.2476  0.2224
  929MOL0     C28125   7.073   4.038  10.667 -0.1097 -0.4482 -0.3105
  929MOL0     C28126   7.052   4.046  10.519 -0.6066  0.9977 -0.1229
  929MOL0     C28127   6.922   3.969  10.473 -0.2766 -0.2666  0.7188
  929MOL0     C28128   6.922   3.997  10.331  0.0997  0.7422  0.1180
  929MOL0     C28129   6.919   4.013  10.210 -0.6489  0.6213 -0.6128
  929MOL0     C28130   7.367   4.384  10.757 -0.8950 -0.3853  0.0439
  929MOL0     C28131   7.482   4.468  10.721  0.4764  0.3097 -0.6715
  929MOL0     C28132   7.532   4.569  10.825 -0.9837 -0.1209  0.2513
  929MOL0     H28133   7.935   4.442  10.438  2.4544 -2.4164  0.6171
  929MOL0     H28134   8.166   4.488  10.413  1.3744  1.3957  0.5962
  929MOL0     H28135   8.408   4.571  10.408 -0.7813  0.0611  0.0168
  929MOL0     H28136   8.380   4.416  10.489 -0.5096  0.3750  0.5574
  929MOL0     H28137   8.577   4.418  10.602  1.6439 -0.5598 -1.5246
  929MOL0     H28138   8.606   4.486  10.447 -0.6927  0.8586  0.4570
  929MOL0     H28139   8.570   4.721  10.553 -2.5041 -0.7985 -0.8999
  929MOL0     H28140   8.568   4.630  10.707  1.0475 -2.7038 -0.6586
  929MOL0     H28141   8.797   4.730  10.686  4.6595 -2.2321  0.9467
  929MOL0     H28142   8.802   4.555  10.672 -3.0450 -0.8516  1.3166
  929MOL0     H28143   8.823   4.752  10.442 -0.4490 -0.6153 -0.9397
  929MOL0     H28144   8.798   4.573  10.438  0.6632 -1.9854  0.9137
  929MOL0     H28145   9.017   4.538  10.540 -2.6236 -0.5661 -0.4551
  929MOL0     H28146   9.030   4.666  10.405  0.6275  1.2722 -0.4066
  929MOL0     H28147   9.172   4.734  10.572  0.3627  1.4235  0.7013
  929MOL0     H28148   9.051   4.687  10.704 -3.9126 -1.5565 -1.0895
  929MOL0     H28149   9.004   4.924  10.523  2.2540  1.8910  0.8796
  929MOL0     H28150   8.913   4.877  10.666  0.1344  0.2900  0.6367
  929MOL0     H28151   8.993   5.026  10.865  1.5014  1.1424  2.5320
  929MOL0     H28152   9.126   5.253  10.967  0.4644  0.5953 -0.1928
  929MOL0     H28153   9.296   5.248  10.957  0.6557 -1.3798 -1.4870
  929MOL0     H28154   9.165   5.152  11.186 -1.5685  1.7583 -2.0873
  929MOL0     H28155   9.136   5.008  11.080 -0.0990  0.2835  0.1840
  929MOL0     H28156   9.388   5.010  11.043  1.1328  0.8689  0.3129
  929MOL0     H28157   9.395   5.120  11.197  0.1066 -0.6955  2.3084
  929MOL0     H28158   9.247   4.913  11.278  0.8309 -0.3355  1.9473
  929MOL0     H28159   9.335   4.837  11.153  0.9554  1.6254 -2.1987
  929MOL0     H28160   9.519   4.845  11.056 -3.2554 -1.5799  3.5823
  929MOL0     H28161   9.842   4.808  10.939  2.8876 -3.2787 -0.8407
  929MOL0     H28162   9.671   4.788  10.894  1.9835  2.4755 -1.3384
  929MOL0     H28163   9.773   4.646  10.935 -1.7245  0.6883 -0.9137
  929MOL0     H28164  10.099   4.370  11.217 -1.8912  0.4889  0.1798
  929MOL0     H28165  10.353   4.333  11.228 -0.0392 -0.0673 -1.3418
  929MOL0     H28166  10.617   4.698  11.303 -0.2802  0.3664  1.5978
  929MOL0     H28167  10.607   4.607  11.448  0.4525 -0.4399  0.3641
  929MOL0     H28168  10.776   4.452  11.379 -1.9862 -0.7843  0.1959
  929MOL0     H28169  10.774   4.517  11.219 -1.6824 -0.5559 -0.4351
  929MOL0     H28170  10.828   4.708  11.446 -1.0041  1.3345 -1.8687
  929MOL0     H28171  10.888   4.716  11.281  1.5935  0.7281  0.5392
  929MOL0     H28172  11.037   4.522  11.329 -2.2204  0.1291 -1.8569
  929MOL0     H28173  10.977   4.491  11.489  3.0397  0.0235  0.5386
  929MOL0     H28174  11.092   4.759  11.411  0.7105 -0.1041 -0.0345
  929MOL0     H28175  11.048   4.709  11.578  1.4608  1.9464 -0.3115
  929MOL0     H28176  11.274   4.614  11.412 -1.0451  0.0224 -0.2173
  929MOL0     H28177  11.227   4.526  11.562  2.8551  0.2911  1.8487
  929MOL0     H28178  11.293   4.725  11.697  0.0803 -0.5400 -0.4886
  929MOL0     H28179  11.332   4.805  11.551 -0.5063 -0.5746 -2.4999
  929MOL0     H28180  11.462   4.627  11.476  0.7541 -1.8128 -0.7666
  929MOL0     H28181  11.476   4.552  11.643  0.6983  0.1706  0.4362
  929MOL0     H28182  10.403   4.715  11.409  0.4126 -1.8591  1.8446
  929MOL0     H28183  10.188   4.771  11.361  1.8434  0.4057  1.7014
  929MOL0     H28184   9.853   4.750  11.413 -1.3501 -0.6449  0.1656
  929MOL0     H28185   9.645   4.847  11.470  1.1461  1.3442 -0.0105
  929MOL0     H28186   8.190   4.660  10.796  0.7842  0.1061 -0.6329
  929MOL0     H28187   7.935   4.635  10.832 -0.5101  0.3508 -0.3295
  929MOL0     H28188   7.530   4.367  10.405  1.1497  1.0784  0.2393
  929MOL0     H28189   7.321   4.234  10.468  0.0783 -0.4546  1.1294
  929MOL0     H28190   7.277   4.079  10.613  1.1910  1.4914  0.1174
  929MOL0     H28191   7.242   4.083  10.793  1.3092  0.7533  0.2276
  929MOL0     H28192   6.986   4.091  10.708  1.0820  1.4260 -0.0856
  929MOL0     H28193   7.069   3.933  10.695 -0.4186 -0.3488  0.0428
  929MOL0     H28194   7.035   4.152  10.496 -2.2039  1.7768  3.8831
  929MOL0     H28195   7.142   4.008  10.470 -1.1501 -0.0752 -0.3361
  929MOL0     H28196   6.832   4.005  10.523 -1.8658 -1.9142 -0.8225
  929MOL0     H28197   6.932   3.861  10.486 -0.3669 -0.6844 -2.1413
  929MOL0     H28198   6.904   4.032  10.106 -1.1033  0.6011 -0.5522
  929MOL0     H28199   7.309   4.398  10.848 -0.6061  1.6541 -0.0283
  929MOL0     H28200   7.454   4.594  10.898 -1.4102 -1.9394  0.4836
  929MOL0     H28201   7.614   4.530  10.884  0.2923  0.3529 -1.1433
  929MOL0     H28202   7.566   4.659  10.773 -1.7964 -0.4875 -0.9572
  930MOL0     O28203  10.171   4.581   5.563 -0.1916  0.5261 -0.3331
  930MOL0     C28204  10.059   4.570   5.502 -0.0668  0.2096  0.6454
  930MOL0     O28205  10.038   4.488   5.396 -0.3126  0.4676  0.5751
  930MOL0     C28206  10.150   4.412   5.357 -0.1926 -0.5443 -0.9569
  930MOL0     C28207  10.209   4.427   5.239 -0.0808 -0.4071 -0.3380
  930MOL0     C28208  10.312   4.338   5.194 -0.1190  0.3646  0.0707
  930MOL0     C28209  10.364   4.241   5.280 -0.4787 -0.4955  0.9280
  930MOL0     O28210  10.484   4.184   5.252 -0.1969  0.1739  0.6849
  930MOL0     C28211  10.488   4.044   5.268 -0.6009  0.5218 -0.0616
  930MOL0     C28212  10.582   4.005   5.155 -0.2280 -0.1428  0.0581
  930MOL0     C28213  10.729   4.023   5.171  0.3171 -0.6316 -0.5721
  930MOL0     C28214  10.801   3.968   5.047 -0.3435  0.7697 -0.6945
  930MOL0     C28215  10.954   3.956   5.083 -0.1171  0.1524 -0.1507
  930MOL0     C28216  11.023   4.091   5.087 -0.1557  0.3472  0.5905
  930MOL0     C28217  11.175   4.089   5.087 -0.9538  0.0241  0.2042
  930MOL0     C28218  11.237   4.025   4.957 -0.3687  0.2053 -0.5669
  930MOL0     N28219  11.368   4.090   4.928 -0.2774 -0.0491  0.4397
  930MOL0     C28220  11.393   4.171   4.817  0.5016 -0.2544  0.2162
  930MOL0     C28221  11.522   4.198   4.827 -0.4452 -0.2897 -0.6581
  930MOL0     C28222  11.599   4.264   4.718 -0.0553 -0.2007  0.7268
  930MOL0     C28223  11.517   4.326   4.606 -0.0179 -0.1982 -0.1658
  930MOL0     C28224  11.494   4.231   4.487 -0.9392  0.2370 -0.4768
  930MOL0     C28225  11.420   4.302   4.372 -0.6941  0.7786  0.5060
  930MOL0     O28226  11.320   4.393   4.413 -0.1743  0.8506  0.3195
  930MOL0     C28227  11.209   4.337   4.470 -0.6306 -1.1291  0.0967
  930MOL0     C28228  11.180   4.194   4.483 -0.3682 -0.0366  0.5852
  930MOL0     C28229  11.070   4.145   4.549  0.6826 -0.0186  0.1336
  930MOL0     C28230  11.060   3.995   4.569  0.5604 -0.0448 -1.1505
  930MOL0     C28231  10.968   4.235   4.586 -0.0095  0.4557  0.2784
  930MOL0     C28232  10.839   4.196   4.642  0.5597 -0.5609  0.0794
  930MOL0     O28233  10.779   4.086   4.601  0.3383  0.3570  0.5092
  930MOL0     C28234  10.653   4.064   4.663 -0.4739 -0.0641  0.7112
  930MOL0     C28235  10.545   4.157   4.653 -1.2250  0.8408 -0.8407
  930MOL0     C28236  10.423   4.123   4.713 -0.4895 -0.4616 -0.6639
  930MOL0     C28237  10.399   4.004   4.777  0.0997 -0.6486  0.6395
  930MOL0     O28238  10.277   3.967   4.841 -0.1462 -0.1047  0.4652
  930MOL0     C28239  10.189   4.075   4.883  0.4321 -0.1177 -0.0213
  930MOL0     C28240  10.058   3.998   4.921 -0.8918 -0.5980  0.4234
  930MOL0     C28241   9.942   4.090   4.953 -0.4234 -1.1087  0.2343
  930MOL0     C28242   9.821   4.008   4.933  1.0407  0.1276 -0.5076
  930MOL0     C28243   9.700   4.089   4.961 -0.8209  0.3629 -0.2338
  930MOL0     C28244   9.575   3.998   4.980 -0.1945  0.7259 -0.0828
  930MOL0     C28245   9.450   4.078   5.007 -0.0714  0.0481 -0.0093
  930MOL0     C28246   9.334   3.987   5.045  0.4980  0.0130 -0.7055
  930MOL0    Cl28247   9.194   4.085   5.073  0.0624 -0.4575 -0.9716
  930MOL0     C28248  10.512   3.915   4.783  0.4364  0.1772  0.4325
  930MOL0     C28249  10.631   3.939   4.720 -0.1384 -0.4873  0.0233
  930MOL0     O28250  10.787   4.284   4.719  0.4433  0.4209 -0.4655
  930MOL0     C28251  10.987   4.372   4.560 -0.6777  0.5036 -0.2822
  930MOL0     C28252  11.106   4.421   4.506  0.5267  0.1916  0.3453
  930MOL0     N28253  11.576   4.144   4.940 -0.3124  0.6974 -0.5633
  930MOL0     N28254  11.480   4.081   5.002  0.1768  0.2092 -0.7166
  930MOL0     C28255  10.302   4.226   5.407 -0.0670  0.1438  0.1011
  930MOL0     C28256  10.194   4.309   5.440  0.1911 -0.6277 -0.3390
  930MOL0     C28257   9.939   4.640   5.550  0.1649 -0.5372  0.6709
  930MOL0     C28258   9.817   4.614   5.491  0.6229  0.0058  0.2892
  930MOL0     C28259   9.700   4.672   5.535  1.0352 -0.5369  0.1382
  930MOL0     C28260   9.698   4.781   5.620  0.2115 -0.7005  0.0896
  930MOL0     O28261   9.588   4.856   5.652  0.5215 -0.2774 -0.0343
  930MOL0     C28262   9.476   4.850   5.570  0.5869 -0.1212 -0.7682
  930MOL0     C28263   9.374   4.954   5.609  0.5312  1.2312 -0.0414
  930MOL0     C28264   9.298   4.915   5.733 -0.4294 -0.7692 -1.1563
  930MOL0     C28265   9.212   5.038   5.776 -0.3584 -0.1681 -0.4139
  930MOL0     C28266   9.131   5.005   5.884  0.5731  0.1741 -0.8771
  930MOL0     C28267   9.053   4.957   5.967  0.1511 -0.2780  0.7968
  930MOL0     C28268   9.818   4.815   5.667 -0.5079  0.0770  0.2522
  930MOL0     C28269   9.940   4.752   5.630 -0.1414 -0.3122 -0.0980
  930MOL0     C28270  10.073   4.814   5.691  0.2054  0.3236  0.8296
  930MOL0     H28271  10.180   4.509   5.174 -1.1678 -2.4517 -2.5314
  930MOL0     H28272  10.351   4.351   5.094 -0.4745  1.0999  0.0222
  930MOL0     H28273  10.394   3.991   5.250  0.3210 -1.3779  0.3872
  930MOL0     H28274  10.534   4.009   5.361  0.5208  1.2129 -0.3395
  930MOL0     H28275  10.554   3.901   5.135  2.3812 -0.6313 -1.4687
  930MOL0     H28276  10.556   4.058   5.063  1.6558  1.4762  0.3993
  930MOL0     H28277  10.771   4.124   5.175 -0.5136 -0.2360 -1.2667
  930MOL0     H28278  10.765   3.974   5.261  2.9987  1.0577 -0.6264
  930MOL0     H28279  10.759   3.869   5.025 -0.9877  1.2076 -1.4963
  930MOL0     H28280  10.788   4.034   4.961  4.0286  3.3502  0.3072
  930MOL0     H28281  10.988   3.900   4.995  2.8038  1.1525  0.2431
  930MOL0     H28282  10.983   3.903   5.174  1.6083  1.0863 -0.1125
  930MOL0     H28283  10.983   4.154   5.007  2.9506  2.7207  0.7088
  930MOL0     H28284  11.008   4.143   5.182  0.5886  0.2270  0.7823
  930MOL0     H28285  11.195   4.025   5.173 -3.2364  0.0559  0.8329
  930MOL0     H28286  11.218   4.188   5.105 -0.4974 -0.4530  1.9128
  930MOL0     H28287  11.240   3.918   4.980 -2.1006  0.2546  0.1051
  930MOL0     H28288  11.171   4.039   4.871  1.6627 -0.4246 -2.3151
  930MOL0     H28289  11.333   4.193   4.729 -0.8251  1.1422  1.4248
  930MOL0     H28290  11.666   4.202   4.658 -0.6894  2.5848 -3.2013
  930MOL0     H28291  11.650   4.342   4.776 -0.2072 -1.3220  2.4292
  930MOL0     H28292  11.420   4.358   4.643  0.1028  0.0330 -0.0461
  930MOL0     H28293  11.567   4.417   4.571  3.5056 -1.5389  0.9342
  930MOL0     H28294  11.591   4.194   4.453 -1.0281 -0.1116 -0.3596
  930MOL0     H28295  11.431   4.144   4.507 -0.5162 -0.1398 -0.7654
  930MOL0     H28296  11.488   4.369   4.319 -0.6030 -1.2591 -2.1389
  930MOL0     H28297  11.374   4.231   4.302 -0.0402  1.4662 -0.6512
  930MOL0     H28298  11.242   4.118   4.437 -2.5419 -1.5819 -0.0055
  930MOL0     H28299  11.131   3.939   4.508 -0.2691 -1.2043 -1.0769
  930MOL0     H28300  10.958   3.955   4.560  0.3101  0.3487 -0.2248
  930MOL0     H28301  11.080   3.977   4.675 -0.0745  1.3789 -0.7557
  930MOL0     H28302  10.560   4.257   4.614  0.8253  0.6394 -0.7248
  930MOL0     H28303  10.344   4.197   4.701  0.9577  0.8941 -2.5749
  930MOL0     H28304  10.239   4.125   4.967 -0.0683 -1.9615  1.4172
  930MOL0     H28305  10.177   4.141   4.796  1.1858 -0.5725 -0.4768
  930MOL0     H28306  10.037   3.919   4.848 -2.2974  0.7152 -0.6393
  930MOL0     H28307  10.076   3.962   5.022 -0.8289 -2.4194 -0.2000
  930MOL0     H28308   9.937   4.178   4.888 -3.2939  1.4701  3.5564
  930MOL0     H28309   9.934   4.132   5.053  3.4176  1.3155 -0.2694
  930MOL0     H28310   9.827   3.929   5.009 -2.1472  0.4061  0.1922
  930MOL0     H28311   9.799   3.966   4.835  0.0540 -1.6466  0.4201
  930MOL0     H28312   9.714   4.143   5.055  0.2488  0.4588 -0.4353
  930MOL0     H28313   9.686   4.155   4.875 -2.1467  0.8027  0.2991
  930MOL0     H28314   9.596   3.929   5.063  1.8453 -0.1722 -1.2581
  930MOL0     H28315   9.557   3.935   4.892  1.1731  1.4836 -0.9381
  930MOL0     H28316   9.433   4.141   4.919 -2.6231  3.2900  2.5061
  930MOL0     H28317   9.465   4.148   5.091  1.9665  0.9303 -1.0423
  930MOL0     H28318   9.353   3.937   5.140 -1.7158  1.7524  0.7543
  930MOL0     H28319   9.318   3.919   4.961  1.7262 -0.5972 -0.4679
  930MOL0     H28320  10.505   3.818   4.831  0.0821 -0.4970 -0.9400
  930MOL0     H28321  10.712   3.867   4.708  2.6079  1.4309  4.3696
  930MOL0     H28322  10.904   4.433   4.593 -3.0760 -3.4606  1.7952
  930MOL0     H28323  11.100   4.529   4.495 -2.1071  0.2168  1.3126
  930MOL0     H28324  10.344   4.154   5.476  1.5109  0.2716 -0.6705
  930MOL0     H28325  10.141   4.293   5.534 -0.4516  0.2655 -0.5355
  930MOL0     H28326   9.816   4.526   5.428 -0.4681 -0.7815  1.3631
  930MOL0     H28327   9.612   4.629   5.490  0.1754  2.6615 -1.6254
  930MOL0     H28328   9.507   4.873   5.467  1.0399 -1.1416 -0.8722
  930MOL0     H28329   9.436   4.748   5.567  1.0726 -0.4776  2.2396
  930MOL0     H28330   9.303   4.969   5.527  0.4772  2.3064  0.1983
  930MOL0     H28331   9.429   5.047   5.625  1.6539  0.3703  1.2745
  930MOL0     H28332   9.229   4.830   5.726 -1.6823  0.2008 -0.9589
  930MOL0     H28333   9.371   4.893   5.812  0.1811  0.7375 -1.2697
  930MOL0     H28334   9.156   5.066   5.686 -1.2370  1.2148  0.5361
  930MOL0     H28335   9.278   5.119   5.807 -0.5225  0.1667 -0.9310
  930MOL0     H28336   9.003   4.922   6.055  2.7644 -3.5846  1.1758
  930MOL0     H28337   9.838   4.901   5.730  3.2402 -0.9945  0.7731
  930MOL0     H28338  10.142   4.832   5.608 -1.1884 -0.3952 -0.5214
  930MOL0     H28339  10.051   4.911   5.737  0.0243  0.2009  1.0008
  930MOL0     H28340  10.107   4.745   5.769 -1.6195  0.9034  2.2061
  931MOL0     O28341  10.441  10.258   7.166  0.2827  0.4037 -0.4147
  931MOL0     C28342  10.434  10.138   7.132  0.5675  0.1969 -0.5955
  931MOL0     O28343  10.531  10.048   7.143 -0.2004 -0.6318  0.6461
  931MOL0     C28344  10.661  10.067   7.172  1.0056  0.6267  0.4734
  931MOL0     C28345  10.733  10.189   7.192 -0.2974 -0.1798  0.6393
  931MOL0     C28346  10.864  10.180   7.223 -0.5968  0.4909  0.3354
  931MOL0     C28347  10.926  10.054   7.244 -0.2095  0.6811 -0.3822
  931MOL0     O28348  11.062  10.040   7.268 -0.1887  0.1263  0.2062
  931MOL0     C28349  11.105   9.986   7.386 -0.7744  0.6557  0.1475
  931MOL0     C28350  11.249  10.020   7.419 -0.8285 -0.5146  0.3576
  931MOL0     C28351  11.259  10.169   7.458 -0.0774 -0.2984 -0.2764
  931MOL0     C28352  11.295  10.267   7.345 -0.9090  0.6867 -0.0797
  931MOL0     C28353  11.449  10.275   7.326 -1.0956  0.5138  0.8383
  931MOL0     C28354  11.497  10.341   7.201 -0.1018 -0.2016  0.2660
  931MOL0     C28355  11.657  10.332   7.177 -0.6022  0.5505  0.8866
  931MOL0     C28356  11.734  10.358   7.305 -1.2516 -0.2065 -0.0396
  931MOL0     N28357  11.879  10.331   7.292  0.1626  0.3731 -0.7735
  931MOL0     C28358  11.962  10.408   7.221 -0.5050  0.1810  0.7451
  931MOL0     C28359  12.083  10.346   7.228  0.1466  0.3354  0.1824
  931MOL0     C28360  12.222  10.390   7.169 -0.3347  0.5719  0.4618
  931MOL0     C28361  12.303  10.443   7.288  0.6179  0.4535 -0.5566
  931MOL0     C28362  12.451  10.474   7.252  0.4813  0.2163 -0.5995
  931MOL0     C28363  12.521  10.556   7.367  0.4124  0.3486  0.4962
  931MOL0     O28364  12.563  10.465   7.467  0.3677  0.4652  0.2386
  931MOL0     C28365  12.680  10.394   7.452  0.8625 -0.4704  0.1770
  931MOL0     C28366  12.717  10.308   7.551  0.3672  0.5701 -0.6259
  931MOL0     C28367  12.840  10.237   7.550  0.0335  0.4005  0.2617
  931MOL0     C28368  12.869  10.137   7.659 -0.2941 -0.3165 -0.1365
  931MOL0     C28369  12.930  10.257   7.442 -0.6815 -0.1020 -0.6284
  931MOL0     C28370  13.053  10.171   7.433 -0.5585  0.0868  0.1762
  931MOL0     O28371  13.115  10.177   7.315 -0.2721 -0.6581 -0.0381
  931MOL0     C28372  13.246  10.129   7.293  0.7490  0.5483  0.0160
  931MOL0     C28373  13.282  10.051   7.179 -0.2130 -0.1680  0.2406
  931MOL0     C28374  13.415   9.995   7.167  0.1940  0.5015  0.2405
  931MOL0     C28375  13.512  10.028   7.266 -0.2572  0.3475 -0.5626
  931MOL0     O28376  13.635   9.983   7.232  0.0355  0.7056  0.5821
  931MOL0     C28377  13.732  10.006   7.329  0.5363 -0.9345 -0.8959
  931MOL0     C28378  13.874  10.008   7.277  1.0881 -0.5381  0.0741
  931MOL0     C28379  13.942   9.876   7.288 -0.1123 -0.3671 -1.0219
  931MOL0     C28380  13.993   9.863   7.434  0.3553 -0.6850  0.1937
  931MOL0     C28381  14.066   9.741   7.481 -0.3411  0.0108 -0.0735
  931MOL0     C28382  13.978   9.617   7.508  0.0229 -0.5202 -0.2437
  931MOL0     C28383  13.865   9.635   7.613 -0.4787 -0.4011  0.0612
  931MOL0     C28384  13.824   9.500   7.670 -0.1741 -0.3916 -0.7506
  931MOL0    Cl28385  13.950   9.448   7.789 -0.2256 -0.2189 -0.0469
  931MOL0     C28386  13.474  10.109   7.372 -0.1948 -0.4828  0.2669
  931MOL0     C28387  13.346  10.157   7.381 -0.1838 -0.4859  0.3134
  931MOL0     O28388  13.108  10.105   7.528 -0.4277 -0.2245  0.0712
  931MOL0     C28389  12.895  10.350   7.340  0.2804 -0.1211  0.7413
  931MOL0     C28390  12.775  10.416   7.349  0.3548  0.4568  0.7772
  931MOL0     N28391  12.065  10.231   7.306  0.2293  0.7801 -0.0709
  931MOL0     N28392  11.941  10.234   7.360  0.0369 -0.4922  0.5117
  931MOL0     C28393  10.856   9.939   7.213 -0.7965 -0.6798  0.5356
  931MOL0     C28394  10.727   9.941   7.179  0.4376  0.0131  0.5312
  931MOL0     C28395  10.294  10.099   7.095 -0.2904  0.6114  0.1501
  931MOL0     C28396  10.189  10.192   7.102 -1.3470 -1.4028 -0.1761
  931MOL0     C28397  10.056  10.175   7.059 -0.8600  0.7371  1.0496
  931MOL0     C28398  10.025  10.050   7.001 -0.4669  0.8555 -0.5656
  931MOL0     O28399   9.898  10.023   6.951  0.2588 -0.2616 -0.0313
  931MOL0     C28400   9.834   9.922   7.025  0.7485  0.5151  0.0035
  931MOL0     C28401   9.676   9.933   7.000  1.6303 -0.3085 -0.3290
  931MOL0     C28402   9.606  10.051   7.071 -0.3493 -0.2428 -0.6112
  931MOL0     C28403   9.465  10.067   7.018 -0.2147 -0.0349 -0.0327
  931MOL0     C28404   9.383   9.946   7.037  0.0613 -0.4395 -0.0531
  931MOL0     C28405   9.302   9.860   7.053 -0.1161 -0.3884  0.9868
  931MOL0     C28406  10.117   9.942   7.008  0.4845  0.0410  0.5305
  931MOL0     C28407  10.249   9.966   7.061 -0.2038  0.3087  0.5502
  931MOL0     C28408  10.338   9.838   7.061 -0.9701  0.1092  0.1154
  931MOL0     H28409  10.673  10.279   7.186  2.5122  1.8688  1.5100
  931MOL0     H28410  10.923  10.270   7.238  0.4297  0.1712 -1.5226
  931MOL0     H28411  11.082   9.879   7.391 -0.0792  0.5519  1.6110
  931MOL0     H28412  11.034  10.023   7.461 -2.1442 -0.2915 -0.6311
  931MOL0     H28413  11.297   9.952   7.490 -0.2259 -2.9834 -2.2371
  931MOL0     H28414  11.307   9.996   7.330 -1.4330 -1.9458  0.3256
  931MOL0     H28415  11.168  10.205   7.506 -0.6455  0.1662 -1.6690
  931MOL0     H28416  11.341  10.175   7.531  1.8798  3.0647 -2.5179
  931MOL0     H28417  11.244  10.245   7.250  0.6140  2.8041 -1.4689
  931MOL0     H28418  11.260  10.366   7.375  1.9551  1.4246  1.1399
  931MOL0     H28419  11.497  10.176   7.327 -0.0696  0.9970  1.6165
  931MOL0     H28420  11.489  10.328   7.413  1.7537 -1.5334  0.9221
  931MOL0     H28421  11.446  10.299   7.115 -1.6472 -0.4443  1.2681
  931MOL0     H28422  11.473  10.448   7.200 -1.0811 -0.4203 -0.0629
  931MOL0     H28423  11.682  10.399   7.094 -1.4906  0.5620  0.6189
  931MOL0     H28424  11.680  10.230   7.146  0.9492  1.3188 -0.6719
  931MOL0     H28425  11.705  10.458   7.337 -1.1246  0.0633 -0.7401
  931MOL0     H28426  11.712  10.296   7.392  2.4316  0.4372  1.5288
  931MOL0     H28427  11.930  10.496   7.166 -1.6056  0.6005  2.0069
  931MOL0     H28428  12.202  10.471   7.099 -0.6190  0.3547  0.2897
  931MOL0     H28429  12.281  10.307   7.131  1.7513  1.7235  1.0553
  931MOL0     H28430  12.243  10.519   7.339 -0.4032 -0.0721 -0.9466
  931MOL0     H28431  12.301  10.363   7.363  0.6052 -0.5245 -1.5765
  931MOL0     H28432  12.504  10.380   7.236 -0.4597 -0.7614  1.6000
  931MOL0     H28433  12.454  10.535   7.161 -0.7428  1.1407 -0.0656
  931MOL0     H28434  12.598  10.618   7.318  1.5716  0.6059  2.5120
  931MOL0     H28435  12.444  10.616   7.416 -0.7100  0.2092 -1.0361
  931MOL0     H28436  12.655  10.292   7.638  1.8188 -0.5984  0.2570
  931MOL0     H28437  12.970  10.160   7.695 -0.5385  2.4457 -0.9963
  931MOL0     H28438  12.857  10.032   7.633  0.8473 -1.1027  2.2191
  931MOL0     H28439  12.810  10.157   7.749  0.0461 -2.1606  0.5415
  931MOL0     H28440  13.200  10.029   7.111 -1.4596  0.6104  1.4405
  931MOL0     H28441  13.447   9.943   7.077  0.8712 -1.2448  1.4355
  931MOL0     H28442  13.726  10.108   7.368  0.6708 -0.4091 -2.2025
  931MOL0     H28443  13.717   9.943   7.418 -0.7832  0.2496 -0.2355
  931MOL0     H28444  13.881  10.033   7.170  3.5198 -0.4053  0.1983
  931MOL0     H28445  13.930  10.086   7.329 -0.2916  0.5181  0.0381
  931MOL0     H28446  14.030   9.871   7.223 -0.4638  0.5832 -1.6024
  931MOL0     H28447  13.878   9.791   7.265 -0.3561 -0.0741 -1.4447
  931MOL0     H28448  13.906   9.882   7.498 -0.0973 -2.5428  0.1880
  931MOL0     H28449  14.062   9.948   7.436  0.1586 -0.4755 -1.1297
  931MOL0     H28450  14.147   9.710   7.415 -0.3941  0.4266 -0.3398
  931MOL0     H28451  14.116   9.771   7.574 -3.4510 -2.0879  2.5001
  931MOL0     H28452  14.038   9.530   7.539 -1.5325 -1.3905  0.4229
  931MOL0     H28453  13.922   9.588   7.419 -1.2307 -0.4697  0.5126
  931MOL0     H28454  13.781   9.687   7.566 -1.9013 -2.7851 -0.2034
  931MOL0     H28455  13.898   9.691   7.700  0.3815 -1.7163  0.6174
  931MOL0     H28456  13.803   9.433   7.586  2.8876 -0.9246 -1.1961
  931MOL0     H28457  13.736   9.517   7.733  1.0982  2.0135  0.5320
  931MOL0     H28458  13.545  10.133   7.450 -1.1037 -2.3868  1.7658
  931MOL0     H28459  13.321  10.216   7.469  0.0615 -0.6961  0.5265
  931MOL0     H28460  12.964  10.378   7.262  0.5078  2.0674  1.6374
  931MOL0     H28461  12.760  10.489   7.270  0.3721  0.9809  1.2540
  931MOL0     H28462  10.891   9.837   7.227 -1.1107 -0.5187  2.7638
  931MOL0     H28463  10.676   9.849   7.151  0.3702 -0.1558  1.2022
  931MOL0     H28464  10.203  10.295   7.133  0.8942 -0.8820 -2.5982
  931MOL0     H28465   9.978  10.251   7.061  1.4203  3.2161  0.8057
  931MOL0     H28466   9.870   9.822   7.000  0.6682  0.3686  0.4542
  931MOL0     H28467   9.846   9.921   7.134  1.4209 -3.5217  0.0592
  931MOL0     H28468   9.623   9.842   7.032  0.1525  0.3729 -0.7502
  931MOL0     H28469   9.662   9.935   6.891 -0.2377 -1.8076 -0.1699
  931MOL0     H28470   9.598  10.029   7.178  0.3319 -4.0931 -1.2311
  931MOL0     H28471   9.662  10.143   7.050 -0.0993  0.4637  2.5659
  931MOL0     H28472   9.466  10.086   6.910 -1.3492 -1.0998 -0.2559
  931MOL0     H28473   9.432  10.156   7.071  1.4777  0.2349  0.6454
  931MOL0     H28474   9.230   9.780   7.056  2.1459 -2.6423 -0.4366
  931MOL0     H28475  10.084   9.847   6.968 -2.6206  0.8268  1.0041
  931MOL0     H28476  10.373   9.805   6.962  1.7310 -0.1920  1.0889
  931MOL0     H28477  10.414   9.831   7.139  0.8099  0.4070 -1.5204
  931MOL0     H28478  10.268   9.763   7.100 -1.8634  1.5721  1.4262
  932MOL0     O28479   0.766   7.782   0.051  0.4248 -0.1422 -0.1402
  932MOL0     C28480   0.832   7.677   0.071  0.1596  0.4082  0.4316
  932MOL0     O28481   0.820   7.557  -0.003  0.2821  0.3943  0.3134
  932MOL0     C28482   0.711   7.550  -0.087 -0.0469  0.2784  0.0948
  932MOL0     C28483   0.583   7.553  -0.044  0.2742 -0.0240 -0.2832
  932MOL0     C28484   0.473   7.558  -0.131  0.6188 -0.7022 -0.0076
  932MOL0     C28485   0.488   7.539  -0.273  0.1559 -0.4282  0.5642
  932MOL0     O28486   0.387   7.544  -0.371  0.1307  0.5116 -0.6683
  932MOL0     C28487   0.256   7.497  -0.322  0.1897 -0.4750 -0.4581
  932MOL0     C28488   0.181   7.443  -0.434  0.4322 -0.5162  1.1046
  932MOL0     C28489   0.033   7.415  -0.400  0.1710  0.2490  0.1515
  932MOL0     C28490   0.016   7.297  -0.308  1.2165  0.4038 -0.7581
  932MOL0     C28491  -0.140   7.266  -0.289 -0.9458  0.9578  0.1892
  932MOL0     C28492  -0.223   7.241  -0.415  0.8629 -0.6874 -0.3721
  932MOL0     C28493  -0.359   7.202  -0.367  0.0232  0.0189 -0.3836
  932MOL0     C28494  -0.445   7.127  -0.467  0.1574 -0.5362  0.2091
  932MOL0     N28495  -0.391   6.995  -0.510 -0.0982 -0.3947 -0.0474
  932MOL0     C28496  -0.307   6.918  -0.433 -0.6331  0.3689  0.3589
  932MOL0     C28497  -0.232   6.841  -0.516  0.4381 -0.2902  0.6261
  932MOL0     C28498  -0.129   6.742  -0.478 -0.5337 -0.1796  0.6450
  932MOL0     C28499   0.008   6.809  -0.487 -1.0283  0.6033  0.2602
  932MOL0     C28500   0.117   6.714  -0.483 -0.8849  0.5286  0.2724
  932MOL0     C28501   0.246   6.765  -0.418  0.1889 -0.4067  0.5208
  932MOL0     O28502   0.311   6.656  -0.347  0.5901 -0.0995  0.1149
  932MOL0     C28503   0.434   6.675  -0.288 -0.4069  0.1421 -0.4816
  932MOL0     C28504   0.543   6.748  -0.350 -0.2694  0.0390  0.4228
  932MOL0     C28505   0.672   6.742  -0.298  0.5295 -0.0788 -0.0299
  932MOL0     C28506   0.780   6.817  -0.372 -0.2685  0.4354  0.0104
  932MOL0     C28507   0.688   6.662  -0.177 -0.5242  0.1086  0.0660
  932MOL0     C28508   0.822   6.650  -0.112  0.3820 -0.2170 -0.3322
  932MOL0     O28509   0.924   6.649  -0.192 -0.9665 -0.0468 -0.1000
  932MOL0     C28510   1.057   6.663  -0.141 -0.0149  1.3259  0.0763
  932MOL0     C28511   1.158   6.631  -0.234 -0.3243 -0.4463 -0.4699
  932MOL0     C28512   1.294   6.644  -0.196  0.1751  0.0539  0.2214
  932MOL0     C28513   1.339   6.706  -0.081  0.1724 -0.4900  0.7092
  932MOL0     O28514   1.471   6.728  -0.063 -0.2478 -0.8232 -0.1833
  932MOL0     C28515   1.511   6.758   0.071 -0.0559  0.1870 -0.4649
  932MOL0     C28516   1.664   6.726   0.089  0.1416  0.1765 -0.3407
  932MOL0     C28517   1.706   6.770   0.230 -0.5097 -0.2152  0.1593
  932MOL0     C28518   1.858   6.755   0.251  0.4650 -0.2364 -0.0075
  932MOL0     C28519   1.916   6.819   0.373  0.1386 -0.4374  0.3295
  932MOL0     C28520   2.068   6.785   0.381 -0.3047  0.4594 -0.1722
  932MOL0     C28521   2.130   6.814   0.517  0.5132 -1.4050 -0.1659
  932MOL0     C28522   2.204   6.944   0.526 -0.6521 -0.1557  0.4796
  932MOL0    Cl28523   2.278   6.938   0.689  0.0483 -0.4557 -0.0512
  932MOL0     C28524   1.239   6.752   0.006 -0.6748  0.2476 -0.4947
  932MOL0     C28525   1.095   6.724  -0.015  0.1090  0.6611  0.7246
  932MOL0     O28526   0.826   6.632   0.011 -0.4440 -0.1405  0.4072
  932MOL0     C28527   0.585   6.583  -0.124  0.5260  0.5587  0.1423
  932MOL0     C28528   0.458   6.589  -0.178  0.3600 -0.3423 -0.2279
  932MOL0     N28529  -0.269   6.877  -0.647  0.5926  0.3469 -0.8163
  932MOL0     N28530  -0.360   6.965  -0.638  0.7315 -0.2227  0.4988
  932MOL0     C28531   0.625   7.531  -0.320 -0.1505 -0.1055  0.3850
  932MOL0     C28532   0.729   7.553  -0.223  0.0833  0.0621 -0.2044
  932MOL0     C28533   0.931   7.674   0.180 -0.6394  0.1120  0.2462
  932MOL0     C28534   1.031   7.564   0.174 -0.4454 -0.4470  0.5876
  932MOL0     C28535   1.140   7.568   0.263  0.1181 -0.2017 -0.0406
  932MOL0     C28536   1.185   7.672   0.343  0.8390  0.8364  0.7149
  932MOL0     O28537   1.303   7.661   0.417  0.1537 -0.3877 -0.6791
  932MOL0     C28538   1.325   7.772   0.505 -0.4635 -0.4165  1.0646
  932MOL0     C28539   1.402   7.889   0.443 -1.2995 -0.7874  0.4368
  932MOL0     C28540   1.471   7.978   0.550 -0.8776 -0.1193  0.1727
  932MOL0     C28541   1.380   8.067   0.622 -0.8658  0.1533  0.2730
  932MOL0     C28542   1.306   8.152   0.530 -0.4205 -0.0351  0.1321
  932MOL0     C28543   1.262   8.224   0.439  0.3392 -0.1651  0.5793
  932MOL0     C28544   1.088   7.774   0.334 -0.6181 -0.0455 -0.5923
  932MOL0     C28545   0.970   7.779   0.262 -0.0175  0.3611 -1.0000
  932MOL0     C28546   0.883   7.903   0.271 -0.1671  0.5970  0.0563
  932MOL0     H28547   0.559   7.561   0.062  3.1735  0.3100  0.4227
  932MOL0     H28548   0.375   7.578  -0.089 -0.1099  0.2867 -2.0453
  932MOL0     H28549   0.201   7.577  -0.272  1.9589  2.0827 -2.3408
  932MOL0     H28550   0.273   7.411  -0.257 -2.0512  0.9195  2.1597
  932MOL0     H28551   0.181   7.517  -0.516 -2.0196 -1.3595  0.2817
  932MOL0     H28552   0.217   7.346  -0.467 -0.4303 -0.2484 -0.7440
  932MOL0     H28553  -0.021   7.503  -0.365  0.1131  0.1496  0.3155
  932MOL0     H28554  -0.015   7.388  -0.494 -0.3638 -0.7174  0.6743
  932MOL0     H28555   0.065   7.209  -0.352  1.7730 -0.1581  0.9025
  932MOL0     H28556   0.060   7.307  -0.209  0.4592 -3.9109  0.2280
  932MOL0     H28557  -0.183   7.357  -0.246  1.3655  1.7876  0.8634
  932MOL0     H28558  -0.148   7.183  -0.218 -0.6800 -0.5392 -1.4424
  932MOL0     H28559  -0.221   7.325  -0.484  0.5051 -1.5782 -1.5017
  932MOL0     H28560  -0.178   7.158  -0.471  0.0485  0.4613 -2.8619
  932MOL0     H28561  -0.409   7.292  -0.332  1.7143  0.8444  0.0185
  932MOL0     H28562  -0.354   7.143  -0.274  1.6688  1.1311  0.2767
  932MOL0     H28563  -0.550   7.115  -0.437  0.2215 -1.8784 -0.0401
  932MOL0     H28564  -0.444   7.187  -0.558 -1.2225  0.8160  1.0387
  932MOL0     H28565  -0.299   6.904  -0.325 -1.3316 -0.3479  0.3302
  932MOL0     H28566  -0.135   6.664  -0.554  2.3976 -0.8826  0.9962
  932MOL0     H28567  -0.145   6.700  -0.378  1.4979  0.4393  1.2798
  932MOL0     H28568   0.015   6.876  -0.573  2.6553  0.0403 -0.0371
  932MOL0     H28569   0.015   6.881  -0.405 -1.5464  1.6324 -0.5689
  932MOL0     H28570   0.080   6.624  -0.432 -1.3107 -0.3350 -1.4735
  932MOL0     H28571   0.130   6.675  -0.585 -0.4142 -0.9203  0.8528
  932MOL0     H28572   0.314   6.793  -0.499  3.0002  2.6652  3.6169
  932MOL0     H28573   0.223   6.843  -0.346 -0.7344 -1.2659  1.1816
  932MOL0     H28574   0.521   6.793  -0.446 -1.0917  1.8015  1.3929
  932MOL0     H28575   0.740   6.869  -0.460 -1.4685  0.6851  0.6754
  932MOL0     H28576   0.858   6.748  -0.405 -1.0984 -1.1728  1.2492
  932MOL0     H28577   0.824   6.899  -0.316 -1.0861  1.8308 -1.3150
  932MOL0     H28578   1.123   6.592  -0.329 -2.7633 -0.4559  0.3371
  932MOL0     H28579   1.364   6.606  -0.269 -0.2884  0.7424 -0.5883
  932MOL0     H28580   1.506   6.866   0.088  4.0088  0.6159 -0.9874
  932MOL0     H28581   1.465   6.696   0.149 -1.7845  1.6755 -0.2355
  932MOL0     H28582   1.682   6.620   0.071  1.5412 -0.2761  3.0085
  932MOL0     H28583   1.729   6.785   0.023  1.8618  2.0216  2.7564
  932MOL0     H28584   1.640   6.712   0.295 -0.7459 -0.7941 -0.5866
  932MOL0     H28585   1.681   6.876   0.237 -3.8507 -0.9587  2.0622
  932MOL0     H28586   1.917   6.786   0.164  0.3953  1.0734  0.3881
  932MOL0     H28587   1.857   6.646   0.266 -1.3452 -0.1109  1.1242
  932MOL0     H28588   1.900   6.927   0.366 -2.1407 -0.6988  0.9013
  932MOL0     H28589   1.868   6.784   0.465 -0.9180  2.3996  0.9571
  932MOL0     H28590   2.119   6.839   0.300 -1.0477  0.0249 -0.9397
  932MOL0     H28591   2.077   6.678   0.362 -1.0336  0.8184 -2.9237
  932MOL0     H28592   2.198   6.730   0.536  0.0428 -1.3736  1.9489
  932MOL0     H28593   2.053   6.810   0.594 -1.5507 -0.4041 -2.0948
  932MOL0     H28594   2.140   7.033   0.521 -0.9842 -0.1909  2.9148
  932MOL0     H28595   2.279   6.959   0.448 -1.7314  0.8181 -0.4027
  932MOL0     H28596   1.250   6.806   0.100 -1.3265  1.9160 -1.3278
  932MOL0     H28597   1.026   6.760   0.061 -1.6996 -0.0844 -0.4839
  932MOL0     H28598   0.586   6.518  -0.036  0.8753  1.2863  0.6834
  932MOL0     H28599   0.387   6.516  -0.143  1.8947 -1.4091  0.8038
  932MOL0     H28600   0.633   7.527  -0.428 -1.6920 -0.9996  0.2727
  932MOL0     H28601   0.824   7.563  -0.274 -0.4284 -0.1543 -1.2515
  932MOL0     H28602   1.020   7.479   0.108  1.5619  0.7151 -1.3830
  932MOL0     H28603   1.198   7.477   0.252  1.8699  0.8544  0.0935
  932MOL0     H28604   1.234   7.813   0.549 -0.9144 -0.7801  0.4992
  932MOL0     H28605   1.391   7.731   0.582  2.9062 -0.3949 -1.5498
  932MOL0     H28606   1.343   7.956   0.380 -3.6574 -3.3175 -0.2685
  932MOL0     H28607   1.477   7.843   0.378  0.0538 -2.1594  2.8368
  932MOL0     H28608   1.524   7.923   0.629 -0.1958  1.0307  0.5350
  932MOL0     H28609   1.548   8.044   0.509  0.2748 -3.1650 -3.1458
  932MOL0     H28610   1.433   8.130   0.694  0.5971 -2.2169  1.4185
  932MOL0     H28611   1.308   8.003   0.675 -1.2016 -0.1795 -0.5685
  932MOL0     H28612   1.240   8.293   0.360 -1.5378  0.9561  2.0123
  932MOL0     H28613   1.115   7.870   0.377 -2.2100  0.1726 -0.0033
  932MOL0     H28614   0.916   7.973   0.194  1.1946 -0.2351 -0.1400
  932MOL0     H28615   0.774   7.892   0.268 -0.1908  0.5486  0.8465
  932MOL0     H28616   0.906   7.941   0.371  1.6466 -0.1725 -0.0303
  933MOL0     O28617   1.591   6.838   5.927 -0.7657  0.5826 -0.4885
  933MOL0     C28618   1.489   6.781   5.887  0.6089  0.2964 -0.4819
  933MOL0     O28619   1.452   6.655   5.917  0.4388  0.1581  0.2730
  933MOL0     C28620   1.532   6.584   5.991  0.0933  0.3067  0.4344
  933MOL0     C28621   1.637   6.504   5.941 -0.6453 -0.0324 -0.0713
  933MOL0     C28622   1.707   6.420   6.036 -0.6611 -0.0450  0.5797
  933MOL0     C28623   1.695   6.433   6.166  0.3348 -0.1497 -0.9059
  933MOL0     O28624   1.786   6.365   6.251 -0.2779  0.7795  0.0513
  933MOL0     C28625   1.796   6.402   6.389  0.2404 -0.5686  0.1242
  933MOL0     C28626   1.928   6.363   6.457 -0.0094  0.6573 -0.1591
  933MOL0     C28627   2.045   6.401   6.368  0.4988  0.0416  0.1163
  933MOL0     C28628   2.170   6.334   6.438 -0.5089 -0.3083 -0.5283
  933MOL0     C28629   2.287   6.432   6.417  0.2360  0.6639  0.1040
  933MOL0     C28630   2.334   6.430   6.271 -1.2270 -0.9686  1.1734
  933MOL0     C28631   2.455   6.528   6.254 -0.3016 -0.7586 -0.1067
  933MOL0     C28632   2.531   6.504   6.132 -0.0358 -0.6092 -0.1233
  933MOL0     N28633   2.640   6.602   6.097 -0.8604 -1.0936 -0.3403
  933MOL0     C28634   2.631   6.696   5.997  0.4607 -0.0370  1.0959
  933MOL0     C28635   2.756   6.752   5.986 -0.1479  0.2115  0.1497
  933MOL0     C28636   2.803   6.854   5.901  0.7983  0.0181 -0.0527
  933MOL0     C28637   2.907   6.794   5.809 -0.3025 -0.2546  0.0522
  933MOL0     C28638   2.992   6.894   5.737 -0.3221 -0.5178  1.3063
  933MOL0     C28639   3.118   6.838   5.698  0.3001 -0.4104 -0.3761
  933MOL0     O28640   3.188   6.940   5.619 -0.4085 -0.1716 -0.1257
  933MOL0     C28641   3.318   6.911   5.589  0.1295 -0.1852  0.3354
  933MOL0     C28642   3.399   7.011   5.535 -0.0883  0.0004  0.0722
  933MOL0     C28643   3.534   6.989   5.518  0.1046  0.4464 -0.2167
  933MOL0     C28644   3.622   7.111   5.461  0.8957  0.4434  0.1557
  933MOL0     C28645   3.598   6.873   5.563 -0.4332  0.0458  0.0186
  933MOL0     C28646   3.747   6.846   5.571  0.9074  0.8619 -0.1051
  933MOL0     O28647   3.835   6.934   5.529 -0.6983 -0.1908  0.1558
  933MOL0     C28648   3.973   6.916   5.569 -0.1456  0.4556  0.7054
  933MOL0     C28649   4.044   6.792   5.557  0.0916 -0.2601 -1.0772
  933MOL0     C28650   4.185   6.781   5.581  0.2490  0.1394  0.1645
  933MOL0     C28651   4.261   6.895   5.620  0.4292 -0.0709 -0.5735
  933MOL0     O28652   4.394   6.894   5.627 -0.4241  0.2240  0.2092
  933MOL0     C28653   4.475   7.009   5.674 -0.2541 -0.0067  0.3180
  933MOL0     C28654   4.624   6.959   5.703  0.3807  0.5500  0.0134
  933MOL0     C28655   4.689   6.908   5.567 -0.1104 -0.7134 -0.3849
  933MOL0     C28656   4.827   6.844   5.597 -0.7023 -0.2340  0.9136
  933MOL0     C28657   4.947   6.940   5.617 -0.1427 -0.2642  0.7879
  933MOL0     C28658   5.068   6.842   5.618 -0.0876 -0.4617  1.1101
  933MOL0     C28659   5.194   6.925   5.619 -0.4015 -0.1143  0.1314
  933MOL0     C28660   5.310   6.833   5.613 -0.4582  0.6520 -0.0924
  933MOL0    Cl28661   5.335   6.769   5.441  0.0070 -0.2204  0.1354
  933MOL0     C28662   4.194   7.018   5.638  0.2691 -0.1958 -0.3439
  933MOL0     C28663   4.057   7.027   5.605 -0.3850 -0.0894 -0.5205
  933MOL0     O28664   3.784   6.748   5.638  0.5949 -0.3765 -0.4803
  933MOL0     C28665   3.519   6.772   5.614  0.9458 -0.1552  0.4834
  933MOL0     C28666   3.376   6.785   5.610 -0.5798  0.0813 -0.8476
  933MOL0     N28667   2.828   6.676   6.064  0.5143 -1.3015 -0.8693
  933MOL0     N28668   2.774   6.584   6.128 -0.9126 -0.1762 -0.4129
  933MOL0     C28669   1.594   6.525   6.215  0.3365 -0.5389 -0.2534
  933MOL0     C28670   1.512   6.593   6.131 -0.3487 -0.8166 -0.0278
  933MOL0     C28671   1.395   6.855   5.794  0.2270 -0.0310  0.5440
  933MOL0     C28672   1.294   6.782   5.725  0.5745  0.1111  0.7178
  933MOL0     C28673   1.194   6.842   5.646 -0.2504  0.4245 -1.4000
  933MOL0     C28674   1.200   6.978   5.613 -0.0299  0.4833  0.5895
  933MOL0     O28675   1.114   7.028   5.523  0.0186 -0.2613  0.1337
  933MOL0     C28676   1.135   7.162   5.467 -0.0390 -0.3497  0.9080
  933MOL0     C28677   1.254   7.165   5.384 -0.1208  0.0935  0.5815
  933MOL0     C28678   1.230   7.095   5.242  0.4712 -0.2144  0.2174
  933MOL0     C28679   1.233   6.942   5.259 -0.2746 -1.1550  0.5706
  933MOL0     C28680   1.235   6.892   5.127 -0.1658  0.0803  0.1555
  933MOL0     C28681   1.228   6.867   5.011  0.1614  0.4058  0.1657
  933MOL0     C28682   1.295   7.050   5.690 -0.4725 -1.1620  0.4061
  933MOL0     C28683   1.390   6.995   5.776 -0.3001  0.4777  0.1910
  933MOL0     C28684   1.457   7.096   5.851 -0.3683 -0.7287 -1.4630
  933MOL0     H28685   1.646   6.496   5.833  2.5990  0.1009  0.1054
  933MOL0     H28686   1.779   6.349   5.997 -2.6911 -1.3928 -0.8993
  933MOL0     H28687   1.709   6.367   6.445 -0.5924  1.9453  0.5625
  933MOL0     H28688   1.790   6.512   6.386  0.6468 -0.5429 -3.2646
  933MOL0     H28689   1.931   6.421   6.550  0.9642  1.2465 -0.5438
  933MOL0     H28690   1.924   6.255   6.471 -2.0964  0.7215  0.0813
  933MOL0     H28691   2.052   6.384   6.260  1.1379 -1.0758  0.3126
  933MOL0     H28692   2.053   6.510   6.373 -2.1684  0.2763  0.5290
  933MOL0     H28693   2.155   6.308   6.543 -0.6396  0.6509 -0.2994
  933MOL0     H28694   2.204   6.234   6.408  3.4014 -0.4935  3.4832
  933MOL0     H28695   2.378   6.407   6.473  1.1238  1.3353 -0.9847
  933MOL0     H28696   2.268   6.536   6.443  1.0682  1.5887 -2.6067
  933MOL0     H28697   2.368   6.329   6.249  2.2148 -0.1463  1.9401
  933MOL0     H28698   2.255   6.468   6.206  1.5713  2.0331 -0.7782
  933MOL0     H28699   2.520   6.515   6.342 -1.0869  1.2019  0.8237
  933MOL0     H28700   2.413   6.629   6.260  1.2541 -0.1444  1.1826
  933MOL0     H28701   2.576   6.404   6.141  2.0113  0.3264  0.6221
  933MOL0     H28702   2.471   6.498   6.042 -0.5907 -1.1895  0.2750
  933MOL0     H28703   2.541   6.713   5.939  2.2592  0.1787 -1.8192
  933MOL0     H28704   2.849   6.937   5.956  0.2082  1.1383 -1.1907
  933MOL0     H28705   2.725   6.893   5.835  1.5690 -1.0126 -1.6338
  933MOL0     H28706   2.972   6.724   5.863  1.4689  0.6004 -0.8869
  933MOL0     H28707   2.854   6.737   5.731 -0.5897  0.4720 -0.2879
  933MOL0     H28708   2.946   6.930   5.645  1.1898  1.4654  1.2571
  933MOL0     H28709   3.028   6.977   5.799 -1.5013  2.8231 -2.0889
  933MOL0     H28710   3.180   6.809   5.783 -0.0869 -1.5668 -0.4812
  933MOL0     H28711   3.088   6.746   5.647 -2.2376  0.2733 -0.2291
  933MOL0     H28712   3.348   7.102   5.506 -0.4581 -0.5145 -0.9467
  933MOL0     H28713   3.705   7.149   5.520  1.9618 -1.3565 -0.1172
  933MOL0     H28714   3.553   7.193   5.439  0.0538 -0.4050 -0.4448
  933MOL0     H28715   3.669   7.083   5.367  1.4142 -1.6416  0.9720
  933MOL0     H28716   3.991   6.705   5.518  1.1238 -1.8855  0.9315
  933MOL0     H28717   4.237   6.686   5.574 -0.6165 -0.6692  3.1565
  933MOL0     H28718   4.479   7.084   5.596  3.5049 -0.2779  0.0787
  933MOL0     H28719   4.445   7.053   5.770 -1.1905 -0.8606  0.4389
  933MOL0     H28720   4.682   7.045   5.737  2.7854  0.0371 -2.3891
  933MOL0     H28721   4.604   6.877   5.772 -2.1878 -0.8337 -2.1948
  933MOL0     H28722   4.685   6.986   5.490  0.5782 -0.1269  0.1558
  933MOL0     H28723   4.631   6.826   5.525 -1.5084 -0.0204  0.1515
  933MOL0     H28724   4.855   6.777   5.515 -0.0022 -1.1170  1.8514
  933MOL0     H28725   4.813   6.781   5.685 -1.8313  0.1925  1.0606
  933MOL0     H28726   4.947   7.014   5.537  1.0250  1.9063  2.6608
  933MOL0     H28727   4.934   6.991   5.713 -0.7297 -1.5328  1.4113
  933MOL0     H28728   5.065   6.789   5.522 -0.5185 -0.6217  1.2088
  933MOL0     H28729   5.058   6.775   5.704  0.6782 -1.4970  0.4196
  933MOL0     H28730   5.197   6.978   5.715  1.3427 -0.4106  0.2770
  933MOL0     H28731   5.186   6.978   5.524 -2.8958 -0.5022  0.0595
  933MOL0     H28732   5.302   6.754   5.688  2.9250  1.0319  0.8697
  933MOL0     H28733   5.400   6.884   5.649  0.7679 -2.7543  2.1256
  933MOL0     H28734   4.249   7.109   5.658  1.3429 -1.2439  1.8079
  933MOL0     H28735   4.015   7.127   5.609 -3.4411 -1.3068  0.3111
  933MOL0     H28736   3.561   6.686   5.664 -1.1580 -0.7042  1.4281
  933MOL0     H28737   3.312   6.701   5.638 -1.4287 -0.4064 -3.8549
  933MOL0     H28738   1.572   6.540   6.320  0.5569  0.2984 -0.3201
  933MOL0     H28739   1.436   6.659   6.173 -1.0011  0.3862 -2.8405
  933MOL0     H28740   1.285   6.675   5.744  2.1298 -0.0859  0.4780
  933MOL0     H28741   1.115   6.779   5.606  0.3166 -1.0351 -0.2920
  933MOL0     H28742   1.051   7.168   5.396 -1.3041 -0.4533  2.3475
  933MOL0     H28743   1.135   7.242   5.541  1.5171  0.7910 -0.2534
  933MOL0     H28744   1.346   7.122   5.426  1.2396  0.1506 -2.1415
  933MOL0     H28745   1.273   7.270   5.361 -0.7825 -0.3883 -2.5948
  933MOL0     H28746   1.138   7.131   5.195  1.3463 -1.2898 -2.4983
  933MOL0     H28747   1.312   7.125   5.176 -1.8189  2.7679 -1.5480
  933MOL0     H28748   1.151   6.899   5.317  1.6216 -2.3122  2.5767
  933MOL0     H28749   1.320   6.904   5.314  0.4078 -1.0689 -0.4328
  933MOL0     H28750   1.220   6.828   4.911 -1.3672  0.6242  0.1785
  933MOL0     H28751   1.306   7.158   5.684  1.7462 -1.3310  0.7022
  933MOL0     H28752   1.407   7.105   5.948  1.8053  1.5195 -0.4401
  933MOL0     H28753   1.559   7.063   5.874 -0.9718 -0.5451  1.9683
  933MOL0     H28754   1.463   7.200   5.818  1.8351 -0.5418 -0.6204
  934MOL0     O28755   2.664   7.319   2.264 -0.1678 -0.3413  0.1547
  934MOL0     C28756   2.579   7.250   2.212  1.0332 -0.4380 -0.9597
  934MOL0     O28757   2.591   7.171   2.105  0.3469  0.5619  0.0321
  934MOL0     C28758   2.713   7.134   2.052 -0.1819 -0.3929 -0.3487
  934MOL0     C28759   2.725   7.142   1.916  0.6861  0.5741  0.3417
  934MOL0     C28760   2.842   7.113   1.864  0.0389 -0.4188 -1.0410
  934MOL0     C28761   2.956   7.064   1.941 -0.6515  0.5805  0.0420
  934MOL0     O28762   3.071   7.026   1.870  0.0024 -0.3319  0.1786
  934MOL0     C28763   3.186   6.963   1.941 -0.0491 -0.3400  0.0872
  934MOL0     C28764   3.309   6.956   1.854 -0.0930  0.0013  0.1762
  934MOL0     C28765   3.435   6.904   1.913  0.3200 -0.0369  0.0970
  934MOL0     C28766   3.536   6.891   1.801  1.1464  0.1171  0.0373
  934MOL0     C28767   3.658   6.808   1.852  0.1436 -0.1040 -0.2367
  934MOL0     C28768   3.773   6.818   1.749  0.1233  0.3807  0.4545
  934MOL0     C28769   3.867   6.704   1.755  1.0227  0.0288  0.3434
  934MOL0     C28770   3.979   6.712   1.644  0.2912 -0.0126 -1.3674
  934MOL0     N28771   4.072   6.821   1.670 -0.1485  0.1148  0.6717
  934MOL0     C28772   4.160   6.826   1.774  0.6456 -0.8664  0.0395
  934MOL0     C28773   4.218   6.946   1.763 -0.2704 -0.6218  0.4879
  934MOL0     C28774   4.325   6.999   1.856 -0.2021  0.9106 -0.5327
  934MOL0     C28775   4.446   6.910   1.853  0.0862  0.1209  0.1628
  934MOL0     C28776   4.580   6.979   1.899 -0.2417  0.1217  0.8755
  934MOL0     C28777   4.583   6.998   2.047 -0.0315  0.2690  0.1682
  934MOL0     O28778   4.580   6.871   2.119 -0.1759  0.1686  0.1312
  934MOL0     C28779   4.705   6.816   2.129 -0.0782  0.4015 -0.4099
  934MOL0     C28780   4.801   6.860   2.223 -0.0329  0.6142  0.7649
  934MOL0     C28781   4.925   6.798   2.228  0.5875 -0.4796  0.1131
  934MOL0     C28782   5.007   6.829   2.351  0.0641 -0.6350  0.0692
  934MOL0     C28783   4.959   6.694   2.136  0.4889  0.3477 -0.0145
  934MOL0     C28784   5.095   6.643   2.128  0.4006  0.5190  0.3593
  934MOL0     O28785   5.197   6.715   2.180 -0.1389  0.1756 -0.3347
  934MOL0     C28786   5.329   6.684   2.158  0.6555  0.4984 -0.1581
  934MOL0     C28787   5.396   6.590   2.240 -0.4955  0.7076  0.6022
  934MOL0     C28788   5.528   6.560   2.219 -0.4949 -0.2435  0.5303
  934MOL0     C28789   5.601   6.630   2.120  0.1298  0.2992 -0.8387
  934MOL0     O28790   5.730   6.601   2.094 -0.8352  0.2505 -0.0498
  934MOL0     C28791   5.784   6.638   1.965  0.6420  0.2702 -0.0476
  934MOL0     C28792   5.936   6.603   1.961  0.4454 -0.5316  0.0578
  934MOL0     C28793   6.021   6.677   2.063 -0.0200 -0.2752 -0.5300
  934MOL0     C28794   6.168   6.641   2.036 -0.4181  0.4275  0.1160
  934MOL0     C28795   6.253   6.724   2.136 -1.2011  0.4976  0.2394
  934MOL0     C28796   6.403   6.723   2.086 -0.7202  0.1718  0.4498
  934MOL0     C28797   6.490   6.824   2.148  0.4382  0.1206  0.7488
  934MOL0     C28798   6.638   6.833   2.114  0.3829  0.1633 -0.5906
  934MOL0    Cl28799   6.720   6.673   2.151  0.1051  0.1466 -0.1644
  934MOL0     C28800   5.528   6.720   2.037 -0.6181 -0.4399 -0.2743
  934MOL0     C28801   5.398   6.754   2.056  1.4796 -0.3249  0.0293
  934MOL0     O28802   5.109   6.546   2.048 -0.1814  0.0568  0.0191
  934MOL0     C28803   4.853   6.650   2.049 -0.0920 -0.2516  0.7091
  934MOL0     C28804   4.726   6.708   2.051  0.3726 -0.2126  0.3188
  934MOL0     N28805   4.172   7.007   1.651  0.5728 -0.0102  0.0704
  934MOL0     N28806   4.078   6.942   1.599  0.2023  0.1628  0.0104
  934MOL0     C28807   2.936   7.041   2.075 -0.5050  0.1164 -0.0163
  934MOL0     C28808   2.815   7.072   2.127  0.9406 -0.5122 -0.7379
  934MOL0     C28809   2.448   7.247   2.281 -0.2765 -0.4072 -0.2476
  934MOL0     C28810   2.346   7.228   2.186  0.7244  0.4916 -0.2863
  934MOL0     C28811   2.212   7.207   2.230  0.1155  0.1090 -0.2633
  934MOL0     C28812   2.175   7.206   2.363  0.4842  0.0254 -0.1855
  934MOL0     O28813   2.050   7.199   2.416  0.2219  0.0204  0.3961
  934MOL0     C28814   1.947   7.174   2.320  0.6555  0.0930  0.6604
  934MOL0     C28815   1.827   7.128   2.401 -0.3091  0.2756  0.1857
  934MOL0     C28816   1.792   7.230   2.516  0.8597  0.4811  0.6391
  934MOL0     C28817   1.659   7.196   2.579 -0.0013  0.3171 -0.2385
  934MOL0     C28818   1.627   7.301   2.676 -0.4022  0.5043 -0.2286
  934MOL0     C28819   1.598   7.391   2.754 -0.2922  0.2473  0.3425
  934MOL0     C28820   2.281   7.223   2.456  0.8230  0.2022  0.4466
  934MOL0     C28821   2.417   7.244   2.422 -0.5772 -0.2264  0.0704
  934MOL0     C28822   2.531   7.246   2.517 -0.7312 -0.0554  0.4327
  934MOL0     H28823   2.642   7.180   1.857  2.0701 -0.7787 -2.7140
  934MOL0     H28824   2.848   7.101   1.756 -0.7506 -1.0752 -1.0225
  934MOL0     H28825   3.161   6.862   1.974  1.0328 -0.5206  0.4023
  934MOL0     H28826   3.215   7.018   2.032 -0.0918  0.3114 -0.2861
  934MOL0     H28827   3.274   6.895   1.769  1.3885 -1.3285  0.4650
  934MOL0     H28828   3.325   7.057   1.815 -1.7187 -0.7538 -2.7719
  934MOL0     H28829   3.468   6.977   1.987 -0.7979 -1.6440  2.2933
  934MOL0     H28830   3.414   6.805   1.955 -3.2456 -0.3514 -1.9959
  934MOL0     H28831   3.480   6.839   1.723  2.0394 -0.4919 -0.2166
  934MOL0     H28832   3.565   6.986   1.755 -2.6139  1.3995 -0.0351
  934MOL0     H28833   3.623   6.705   1.859 -2.8922  0.6655 -1.8546
  934MOL0     H28834   3.697   6.837   1.949  0.2498 -1.4748  0.1416
  934MOL0     H28835   3.728   6.810   1.650  2.1072 -0.5423 -0.4419
  934MOL0     H28836   3.828   6.912   1.747  1.8517 -0.5749  0.8566
  934MOL0     H28837   3.820   6.605   1.751 -1.5984  1.0413  2.6208
  934MOL0     H28838   3.918   6.718   1.851 -0.0320 -0.1179  0.9472
  934MOL0     H28839   4.022   6.612   1.640 -0.0975 -0.3560  1.0578
  934MOL0     H28840   3.929   6.728   1.548  0.7333  1.1073 -1.4281
  934MOL0     H28841   4.182   6.756   1.854 -0.9916 -1.8199 -0.3214
  934MOL0     H28842   4.285   7.005   1.958 -1.0352  0.1422 -0.7977
  934MOL0     H28843   4.355   7.102   1.837  1.3078  0.3993 -1.0797
  934MOL0     H28844   4.424   6.825   1.919  0.5438  0.6610  1.0431
  934MOL0     H28845   4.448   6.856   1.758 -3.9434  0.5019 -0.2985
  934MOL0     H28846   4.659   6.909   1.871 -1.0087 -1.0703  1.5570
  934MOL0     H28847   4.580   7.077   1.851  0.1456  0.0169  0.6666
  934MOL0     H28848   4.672   7.049   2.083 -0.5943  1.2217  0.2345
  934MOL0     H28849   4.503   7.065   2.082  0.4784  0.6528  0.6161
  934MOL0     H28850   4.775   6.937   2.295 -0.0914 -0.9819  2.5132
  934MOL0     H28851   4.962   6.900   2.420 -0.8916 -1.3398  0.1905
  934MOL0     H28852   5.088   6.897   2.322  0.1646 -1.3259 -1.3779
  934MOL0     H28853   5.048   6.746   2.409 -0.5834 -0.8938  0.1566
  934MOL0     H28854   5.343   6.547   2.325 -0.9578 -3.1524 -1.4629
  934MOL0     H28855   5.582   6.491   2.283  0.5506  0.5125  0.5039
  934MOL0     H28856   5.730   6.573   1.896 -0.4107 -0.8505  1.7213
  934MOL0     H28857   5.779   6.746   1.947  1.0594 -0.0297 -2.1909
  934MOL0     H28858   5.944   6.494   1.962 -0.5199 -0.7100 -2.6261
  934MOL0     H28859   5.984   6.629   1.866 -1.0924  0.9703 -0.3613
  934MOL0     H28860   5.995   6.650   2.165  0.4094  0.8555 -0.1115
  934MOL0     H28861   6.000   6.783   2.051  1.0384  0.1837  1.3534
  934MOL0     H28862   6.186   6.657   1.929 -0.8495  0.8358  0.0995
  934MOL0     H28863   6.189   6.535   2.054  3.9017  0.9490 -0.8122
  934MOL0     H28864   6.218   6.827   2.129 -0.0092  0.8050 -1.9035
  934MOL0     H28865   6.243   6.693   2.241 -0.7134  1.2463  0.5138
  934MOL0     H28866   6.396   6.741   1.978  2.7056 -0.5299  0.0118
  934MOL0     H28867   6.443   6.623   2.103 -0.1412  0.5127  1.1171
  934MOL0     H28868   6.486   6.808   2.257 -1.1340 -0.4509  0.6384
  934MOL0     H28869   6.451   6.924   2.130 -0.9190  0.1179  3.1611
  934MOL0     H28870   6.695   6.914   2.161 -0.2385  0.1329  0.2385
  934MOL0     H28871   6.649   6.852   2.006  0.2000  1.1260 -0.4520
  934MOL0     H28872   5.575   6.772   1.954  0.3093 -0.9845 -0.1033
  934MOL0     H28873   5.348   6.824   1.989  2.5907 -0.6025 -1.1290
  934MOL0     H28874   4.867   6.566   1.982  0.1624 -1.2434  1.9476
  934MOL0     H28875   4.640   6.660   2.005  1.0918 -1.0273 -0.2085
  934MOL0     H28876   3.008   7.005   2.148 -0.4788 -1.0209 -0.5815
  934MOL0     H28877   2.804   7.057   2.234  0.6005  2.4434 -0.2671
  934MOL0     H28878   2.364   7.224   2.079 -0.4364 -1.1379 -0.4671
  934MOL0     H28879   2.134   7.193   2.156 -1.2883  2.3527  0.6822
  934MOL0     H28880   1.925   7.259   2.255 -0.3222 -2.0689 -2.0644
  934MOL0     H28881   1.968   7.093   2.249 -0.1194  0.0952  0.4167
  934MOL0     H28882   1.850   7.037   2.457 -0.0221  1.3991  1.9765
  934MOL0     H28883   1.740   7.109   2.338 -2.3189  0.4366  2.7165
  934MOL0     H28884   1.864   7.233   2.598  0.2917  0.5593  1.1377
  934MOL0     H28885   1.803   7.325   2.462  3.5986  1.3186  2.4136
  934MOL0     H28886   1.672   7.099   2.628 -1.2680  0.8097  1.1590
  934MOL0     H28887   1.578   7.196   2.506 -0.6846  1.6860  0.4755
  934MOL0     H28888   1.572   7.472   2.819  0.2017  1.5355 -1.0103
  934MOL0     H28889   2.254   7.239   2.560  0.1546  1.4772  0.0896
  934MOL0     H28890   2.581   7.149   2.515  0.2643  0.4373 -1.5515
  934MOL0     H28891   2.613   7.314   2.493  1.2159 -0.9522  3.9048
  934MOL0     H28892   2.501   7.276   2.617 -0.1855  2.5106 -0.1146
  935MOL0     O28893   5.978   0.287  10.036  0.5071 -0.3350  0.0575
  935MOL0     C28894   5.913   0.179  10.045  1.3299  0.4713  0.4711
  935MOL0     O28895   5.957   0.065  10.099 -0.5460  0.1879  0.4904
  935MOL0     C28896   6.085   0.060  10.127 -0.3513 -0.9995 -0.5764
  935MOL0     C28897   6.136   0.105  10.246  0.0949  0.4886 -0.3812
  935MOL0     C28898   6.268   0.098  10.292  0.3759 -0.1508  0.3831
  935MOL0     C28899   6.354   0.008  10.222 -0.4260  0.2505 -0.0919
  935MOL0     O28900   6.482  -0.024  10.277  0.8593  0.5814  0.5461
  935MOL0     C28901   6.585  -0.082  10.199 -0.4977  0.0212 -0.1201
  935MOL0     C28902   6.720  -0.020  10.230 -0.8691 -0.5160 -0.6528
  935MOL0     C28903   6.764  -0.065  10.375  0.0286 -0.3273  0.6780
  935MOL0     C28904   6.836   0.051  10.448 -0.0983 -0.4414 -0.1727
  935MOL0     C28905   6.741   0.130  10.542  0.3722 -0.1683  0.3109
  935MOL0     C28906   6.801   0.244  10.630 -0.1412  0.0455  0.0327
  935MOL0     C28907   6.728   0.275  10.764 -0.1581 -0.1819 -0.8735
  935MOL0     C28908   6.788   0.388  10.854  0.8939  0.1845 -0.3797
  935MOL0     N28909   6.913   0.350  10.926 -1.6342 -0.2289 -0.4169
  935MOL0     C28910   6.976   0.231  10.929 -1.2232 -0.1919  0.2217
  935MOL0     C28911   7.077   0.243  11.019 -0.0733 -0.8020  0.1971
  935MOL0     C28912   7.167   0.129  11.069  0.4092 -0.1871 -0.1092
  935MOL0     C28913   7.295   0.198  11.141  0.5706  0.5537 -0.2127
  935MOL0     C28914   7.387   0.086  11.196  0.2408  0.5147  0.2979
  935MOL0     C28915   7.492   0.149  11.289 -0.2104  0.1871 -0.1849
  935MOL0     O28916   7.584   0.057  11.347 -0.0428 -0.6401  0.0230
  935MOL0     C28917   7.708   0.043  11.294  0.3612  0.2549  0.8823
  935MOL0     C28918   7.746   0.070  11.161  0.0321  0.4387 -0.3235
  935MOL0     C28919   7.880   0.068  11.130 -0.6012  0.4415  0.5491
  935MOL0     C28920   7.907   0.104  10.987 -0.3419  0.1273 -0.7491
  935MOL0     C28921   7.984   0.064  11.231 -0.3723 -0.0135  0.0161
  935MOL0     C28922   8.133   0.049  11.207 -0.3551  0.5869 -0.4187
  935MOL0     O28923   8.204  -0.045  11.278 -0.0879  0.3695  0.0821
  935MOL0     C28924   8.334  -0.086  11.242  1.2477 -0.7498 -0.2834
  935MOL0     C28925   8.412  -0.138  11.345  0.2182  0.0435 -0.3860
  935MOL0     C28926   8.539  -0.188  11.323 -0.9607 -0.4778 -0.0871
  935MOL0     C28927   8.594  -0.183  11.192  0.5009 -0.7477  0.1976
  935MOL0     O28928   8.721  -0.203  11.167 -0.9197  0.0200  0.2076
  935MOL0     C28929   8.818  -0.174  11.273  0.0186  0.4727  0.1335
  935MOL0     C28930   8.928  -0.085  11.220 -0.9618  0.1742  0.2136
  935MOL0     C28931   8.882   0.062  11.225  0.7555 -0.8430  0.2223
  935MOL0     C28932   8.972   0.163  11.160 -0.5692 -0.2666 -0.1873
  935MOL0     C28933   8.904   0.301  11.176 -0.3436 -0.5820 -0.2915
  935MOL0     C28934   8.930   0.403  11.068  0.5843  0.4082  0.6541
  935MOL0     C28935   9.072   0.446  11.069 -0.1696 -0.6835 -0.7759
  935MOL0     C28936   9.112   0.521  11.207 -0.7118 -0.1152  0.2414
  935MOL0    Cl28937   9.294   0.557  11.212 -0.1178 -0.2468 -0.4759
  935MOL0     C28938   8.513  -0.143  11.084  0.0020 -0.2846 -0.5606
  935MOL0     C28939   8.384  -0.099  11.112 -0.1966  0.1562 -0.1034
  935MOL0     O28940   8.179   0.119  11.119 -0.2765  0.6670 -0.5216
  935MOL0     C28941   7.944   0.032  11.363  1.1675 -1.5962  0.3474
  935MOL0     C28942   7.803   0.013  11.388  0.0168  1.1407 -1.4536
  935MOL0     N28943   7.071   0.368  11.074 -1.3840  0.3323 -1.3851
  935MOL0     N28944   6.984   0.431  11.014 -0.5260  0.2891 -0.5868
  935MOL0     C28945   6.297  -0.050  10.101  0.2040 -1.2765 -0.3454
  935MOL0     C28946   6.168  -0.024  10.053 -0.7139  0.1287  0.3067
  935MOL0     C28947   5.779   0.175   9.998 -0.2828 -0.1103 -0.1621
  935MOL0     C28948   5.696   0.065  10.032 -0.2016  0.6849  0.3289
  935MOL0     C28949   5.574   0.043   9.974  0.8272  0.7088  0.3137
  935MOL0     C28950   5.515   0.140   9.890  1.1138  0.5164  0.9677
  935MOL0     O28951   5.388   0.136   9.834  0.2452 -0.2301  1.5696
  935MOL0     C28952   5.295   0.046   9.892 -0.4767  0.0773  0.1741
  935MOL0     C28953   5.159   0.082   9.822  0.8888  0.5828  0.3309
  935MOL0     C28954   5.049  -0.033   9.833 -0.8695 -0.4652  0.2543
  935MOL0     C28955   4.912   0.010   9.785 -0.1294 -0.5372  0.1706
  935MOL0     C28956   4.803  -0.069   9.838  0.4201  0.2991 -0.1012
  935MOL0     C28957   4.705  -0.131   9.878  0.1537  0.1471 -0.0177
  935MOL0     C28958   5.589   0.254   9.864 -0.0443 -0.0396  0.3277
  935MOL0     C28959   5.719   0.276   9.921 -0.6881 -0.0731  0.6061
  935MOL0     C28960   5.785   0.402   9.874 -1.0439 -0.2624 -0.4473
  935MOL0     H28961   6.061   0.163  10.299 -1.7613 -1.0583 -1.2075
  935MOL0     H28962   6.293   0.154  10.382 -2.4661  1.6267  0.1942
  935MOL0     H28963   6.555  -0.076  10.094  2.4739 -0.9987 -1.1175
  935MOL0     H28964   6.588  -0.189  10.223  1.9821 -0.2388 -1.2614
  935MOL0     H28965   6.794  -0.045  10.154 -1.7104 -1.2991 -1.2387
  935MOL0     H28966   6.696   0.086  10.223  0.0757 -0.2115  0.3533
  935MOL0     H28967   6.674  -0.096  10.429 -0.1771  1.7523  1.6395
  935MOL0     H28968   6.833  -0.150  10.368 -3.1026 -2.9464 -1.0344
  935MOL0     H28969   6.915   0.003  10.507  0.9168 -0.3426 -1.4059
  935MOL0     H28970   6.897   0.121  10.390  0.6275 -2.3787 -1.8665
  935MOL0     H28971   6.698   0.064  10.617 -1.1725  0.0263 -0.3555
  935MOL0     H28972   6.653   0.165  10.486  0.6550 -0.8694 -0.5975
  935MOL0     H28973   6.898   0.200  10.652 -0.8736 -1.3085  0.6976
  935MOL0     H28974   6.817   0.335  10.572  0.3130 -0.9792 -1.5255
  935MOL0     H28975   6.721   0.176  10.809 -0.2493  0.3470  0.3132
  935MOL0     H28976   6.626   0.311  10.749 -1.2898 -1.5735  2.5993
  935MOL0     H28977   6.801   0.471  10.784 -1.8778  0.7558 -0.3426
  935MOL0     H28978   6.713   0.413  10.930  0.6790  0.4535 -0.6763
  935MOL0     H28979   6.946   0.140  10.878 -0.4843 -0.7034  0.6787
  935MOL0     H28980   7.199   0.064  10.987 -0.6244  1.5306 -1.9553
  935MOL0     H28981   7.105   0.068  11.134 -1.3621 -2.3404 -3.5457
  935MOL0     H28982   7.353   0.251  11.064  0.1566 -1.5600 -2.0959
  935MOL0     H28983   7.258   0.258  11.224  0.6508 -2.6441  2.3079
  935MOL0     H28984   7.330   0.016  11.258 -0.1521 -0.3967 -1.0425
  935MOL0     H28985   7.431   0.029  11.114 -0.5388  0.4012 -0.0560
  935MOL0     H28986   7.532   0.244  11.252  0.0744 -0.2345 -0.9763
  935MOL0     H28987   7.432   0.165  11.379 -1.2045 -3.5491 -0.0239
  935MOL0     H28988   7.666   0.079  11.088  1.6538 -0.8116 -2.3906
  935MOL0     H28989   8.008   0.073  10.955  0.0496  0.3310  0.2705
  935MOL0     H28990   7.890   0.212  10.981  0.0341  0.2841  0.6400
  935MOL0     H28991   7.836   0.057  10.918  0.3146 -1.6793 -0.2689
  935MOL0     H28992   8.376  -0.120  11.446  3.6526 -0.7352  1.1191
  935MOL0     H28993   8.605  -0.222  11.403  0.9266  3.6682  0.3921
  935MOL0     H28994   8.775  -0.115  11.354  0.0495  0.8032 -0.0909
  935MOL0     H28995   8.866  -0.267  11.305  0.2025  0.0812 -1.2025
  935MOL0     H28996   9.019  -0.098  11.279 -0.8416  0.4276  0.0873
  935MOL0     H28997   8.954  -0.110  11.117  3.5342  0.4639  1.0460
  935MOL0     H28998   8.866   0.092  11.328  0.0512  0.0822 -0.1490
  935MOL0     H28999   8.787   0.063  11.170  1.2240 -1.4232 -0.6270
  935MOL0     H29000   8.992   0.135  11.056  0.4258  0.0608 -0.0974
  935MOL0     H29001   9.063   0.147  11.218 -0.8572 -1.5983 -0.0547
  935MOL0     H29002   8.795   0.296  11.185 -0.6378  2.4192 -0.9284
  935MOL0     H29003   8.931   0.347  11.271  1.5588 -0.6649 -0.7527
  935MOL0     H29004   8.872   0.495  11.081 -0.0298  0.5341 -2.1758
  935MOL0     H29005   8.905   0.359  10.971 -1.9697 -1.6212  2.0996
  935MOL0     H29006   9.092   0.523  10.994  1.7371 -1.8071 -1.4938
  935MOL0     H29007   9.144   0.365  11.052  0.3703 -0.5952  0.8956
  935MOL0     H29008   9.073   0.467  11.294 -1.7932 -0.0927 -0.2103
  935MOL0     H29009   9.062   0.618  11.214 -2.3577 -0.8145 -0.9437
  935MOL0     H29010   8.553  -0.139  10.983 -1.7226 -0.1565 -1.2701
  935MOL0     H29011   8.320  -0.071  11.030  1.9322 -2.2887 -2.8511
  935MOL0     H29012   8.021   0.034  11.440  1.5191 -0.3531 -0.0107
  935MOL0     H29013   7.778  -0.019  11.489 -0.6606 -3.2633 -2.7975
  935MOL0     H29014   6.355  -0.126  10.050  0.4895 -1.7739  0.6803
  935MOL0     H29015   6.138  -0.072   9.960  0.9484 -0.1479 -0.1117
  935MOL0     H29016   5.721  -0.010  10.106 -2.7387 -2.3358 -1.5985
  935MOL0     H29017   5.520  -0.046  10.004  1.4408  0.6542  1.2993
  935MOL0     H29018   5.298  -0.061   9.868 -0.1691  0.9393 -4.7109
  935MOL0     H29019   5.288   0.064  10.000  0.6695  2.9250 -0.1489
  935MOL0     H29020   5.181   0.109   9.719 -3.3394  0.1763 -0.8629
  935MOL0     H29021   5.112   0.176   9.853 -0.4421  0.1318 -0.2377
  935MOL0     H29022   5.079  -0.122   9.778  1.7728  1.2854 -1.3694
  935MOL0     H29023   5.050  -0.058   9.940  0.9680 -0.5914  0.2402
  935MOL0     H29024   4.901   0.018   9.677 -2.3471  1.4525  0.4637
  935MOL0     H29025   4.889   0.115   9.808 -0.6568  0.2534 -3.4335
  935MOL0     H29026   4.625  -0.191   9.916  0.4148  0.0697  0.4189
  935MOL0     H29027   5.543   0.325   9.797  0.4938 -0.0357 -0.0389
  935MOL0     H29028   5.871   0.375   9.812 -0.5895 -0.0088  0.0649
  935MOL0     H29029   5.720   0.457   9.805  1.2013  0.2523 -2.2454
  935MOL0     H29030   5.808   0.462   9.962  0.8411 -3.5816  1.5145
  936MOL0     O29031   0.095   8.801   4.895 -0.4766  0.3580  0.1731
  936MOL0     C29032   0.057   8.857   4.997 -0.3006  0.6943 -0.6561
  936MOL0     O29033   0.149   8.891   5.095  0.2391 -0.2132 -0.6468
  936MOL0     C29034   0.285   8.885   5.066  0.3636  0.2258 -0.4272
  936MOL0     C29035   0.366   8.790   5.125 -0.2396  0.4373  0.3034
  936MOL0     C29036   0.498   8.778   5.089 -0.2703  0.6278  0.8187
  936MOL0     C29037   0.557   8.862   4.996 -0.1480 -0.8074 -0.0846
  936MOL0     O29038   0.691   8.842   4.969 -0.7461  0.6344  0.1329
  936MOL0     C29039   0.763   8.963   4.949 -0.3192 -0.7172 -1.0386
  936MOL0     C29040   0.913   8.948   4.930  0.1111  0.0371 -0.1536
  936MOL0     C29041   0.989   8.883   5.050  0.2572  0.1170 -0.0855
  936MOL0     C29042   1.135   8.861   5.011  0.2916 -0.2028 -0.1846
  936MOL0     C29043   1.216   8.789   5.128 -0.5970 -0.8256  0.4272
  936MOL0     C29044   1.372   8.779   5.095  0.9060 -0.6756 -0.0950
  936MOL0     C29045   1.451   8.801   5.225 -0.0988 -1.1742 -1.0187
  936MOL0     C29046   1.461   8.948   5.265 -0.3722  0.0262  0.3499
  936MOL0     N29047   1.567   8.977   5.356 -0.1315  0.1199 -0.0348
  936MOL0     C29048   1.698   8.966   5.319  0.3170  0.9273 -0.6488
  936MOL0     C29049   1.764   8.993   5.423 -0.2438 -0.3708  0.0165
  936MOL0     C29050   1.918   8.992   5.439 -0.3256  0.6273  0.7385
  936MOL0     C29051   1.986   9.008   5.306 -0.1050 -0.6249  0.9886
  936MOL0     C29052   2.133   9.051   5.311 -0.3754 -0.4839  1.0076
  936MOL0     C29053   2.224   8.940   5.378 -0.1662 -0.9839  0.5858
  936MOL0     O29054   2.210   8.820   5.304  0.6279  0.0263 -0.7455
  936MOL0     C29055   2.295   8.721   5.335  0.3285  0.2978 -1.1516
  936MOL0     C29056   2.257   8.591   5.301 -0.0664 -0.2307  0.4247
  936MOL0     C29057   2.350   8.488   5.334  0.2398  0.3805 -0.3111
  936MOL0     C29058   2.320   8.347   5.294  0.2490  0.0098  0.2269
  936MOL0     C29059   2.475   8.510   5.398  0.1670 -0.4556 -0.1033
  936MOL0     C29060   2.578   8.408   5.426 -0.0674 -0.0597 -0.6299
  936MOL0     O29061   2.624   8.402   5.552  0.8757 -0.1314 -0.4870
  936MOL0     C29062   2.741   8.352   5.599  0.3505 -0.1154  0.7875
  936MOL0     C29063   2.752   8.315   5.733 -0.5251  0.1085 -0.0911
  936MOL0     C29064   2.872   8.271   5.795  0.2411 -0.0996 -0.1430
  936MOL0     C29065   2.987   8.266   5.720 -0.7024 -0.7285  0.7555
  936MOL0     O29066   3.101   8.202   5.765  0.1843  0.6079  0.0886
  936MOL0     C29067   3.089   8.057   5.764 -0.5631  0.4030 -0.5379
  936MOL0     C29068   3.052   8.001   5.901 -0.2957  0.5262  0.3860
  936MOL0     C29069   3.079   7.849   5.909  0.1692 -0.1039  0.1308
  936MOL0     C29070   3.005   7.787   6.031  0.6532  0.0817 -0.4723
  936MOL0     C29071   2.995   7.640   6.026 -0.7075 -0.8062 -1.1863
  936MOL0     C29072   3.132   7.572   6.049  0.9617  0.4961  0.4260
  936MOL0     C29073   3.174   7.598   6.196 -0.9418  0.0020  0.4351
  936MOL0     C29074   3.314   7.543   6.225  0.3613 -0.3227  0.4820
  936MOL0    Cl29075   3.437   7.655   6.165  0.4195  0.0308 -0.5382
  936MOL0     C29076   2.989   8.313   5.584 -0.4584 -0.4034 -0.5129
  936MOL0     C29077   2.865   8.361   5.527  0.0124 -0.1582  0.5486
  936MOL0     O29078   2.615   8.335   5.334  0.0671 -0.2551 -0.1567
  936MOL0     C29079   2.508   8.633   5.423  0.6472  0.0789 -1.2213
  936MOL0     C29080   2.418   8.739   5.398 -0.0558  0.2243  0.2946
  936MOL0     N29081   1.681   9.033   5.521 -0.5736 -0.1959  0.2096
  936MOL0     N29082   1.567   9.016   5.483  0.4036 -0.4272  0.4632
  936MOL0     C29083   0.478   8.967   4.940  0.5896  0.3941 -0.3412
  936MOL0     C29084   0.344   8.968   4.973 -0.8275 -0.5061 -0.2889
  936MOL0     C29085  -0.084   8.893   5.006  0.2229 -0.6577 -0.1304
  936MOL0     C29086  -0.123   8.961   5.118  0.3762  1.3949  0.0306
  936MOL0     C29087  -0.259   8.966   5.156 -0.0860 -0.0034  0.3169
  936MOL0     C29088  -0.363   8.927   5.078  0.4977 -0.6876 -0.3870
  936MOL0     O29089  -0.499   8.940   5.122 -0.5092 -0.2416 -0.6739
  936MOL0     C29090  -0.597   8.952   5.031  0.9840  0.5928  0.5283
  936MOL0     C29091  -0.656   8.813   4.987 -0.7068 -0.8251 -0.2766
  936MOL0     C29092  -0.673   8.718   5.108  0.7965  0.2126  0.5295
  936MOL0     C29093  -0.805   8.737   5.193 -0.6106  1.9384 -0.5725
  936MOL0     C29094  -0.838   8.874   5.244  0.2070 -0.1019  0.9542
  936MOL0     C29095  -0.865   8.984   5.273  0.2615 -0.6712 -0.8757
  936MOL0     C29096  -0.325   8.866   4.957  0.2299 -0.1823 -0.0869
  936MOL0     C29097  -0.188   8.851   4.920  0.4763 -0.3190 -0.4529
  936MOL0     C29098  -0.169   8.799   4.789 -0.3737 -0.3515  0.9172
  936MOL0     H29099   0.321   8.718   5.192  0.1624 -2.2483 -2.0964
  936MOL0     H29100   0.563   8.709   5.142  1.5490  1.4524 -0.2431
  936MOL0     H29101   0.737   9.039   5.023  0.7818 -0.9468 -0.3977
  936MOL0     H29102   0.721   9.003   4.856 -1.0701 -0.9744 -0.8211
  936MOL0     H29103   0.924   8.877   4.848  2.4134  0.3298 -0.1579
  936MOL0     H29104   0.959   9.044   4.908 -0.3526  0.7767  1.8476
  936MOL0     H29105   0.992   8.941   5.142  3.1875  1.0139 -0.6413
  936MOL0     H29106   0.952   8.782   5.070 -1.2621  0.7324  0.3340
  936MOL0     H29107   1.146   8.804   4.918  1.9013  0.6050 -0.5259
  936MOL0     H29108   1.181   8.959   4.992  1.0520 -0.1149  1.9151
  936MOL0     H29109   1.183   8.688   5.153 -1.1663 -0.7975 -0.1727
  936MOL0     H29110   1.205   8.849   5.219  1.5219 -2.2990  1.7413
  936MOL0     H29111   1.389   8.677   5.060  2.2352 -0.4763 -0.0815
  936MOL0     H29112   1.407   8.854   5.024  2.7102 -2.0702 -0.7646
  936MOL0     H29113   1.551   8.756   5.216 -0.2953 -1.7000 -0.6327
  936MOL0     H29114   1.407   8.745   5.308 -0.5553  2.0855  1.1141
  936MOL0     H29115   1.485   9.018   5.185  2.4974 -1.4788 -0.2361
  936MOL0     H29116   1.370   8.986   5.313 -1.2652 -0.2558 -1.0382
  936MOL0     H29117   1.745   8.936   5.225 -0.2111 -0.5179 -0.4654
  936MOL0     H29118   1.946   8.903   5.497 -0.1911  0.8527  1.0255
  936MOL0     H29119   1.959   9.064   5.511  1.3028  0.3756  0.1108
  936MOL0     H29120   1.965   8.915   5.252 -5.0176  1.0076 -0.4093
  936MOL0     H29121   1.938   9.092   5.255  3.8003  0.7072 -0.8783
  936MOL0     H29122   2.172   9.057   5.210  0.0207  0.5707  1.2180
  936MOL0     H29123   2.135   9.146   5.364 -0.3567 -0.3528  0.7688
  936MOL0     H29124   2.330   8.969   5.376 -1.0203  2.4847 -0.6437
  936MOL0     H29125   2.195   8.926   5.483 -2.0743  2.3129  0.6112
  936MOL0     H29126   2.156   8.587   5.261 -0.7043  4.6257  0.9833
  936MOL0     H29127   2.318   8.276   5.377  1.0677  0.6235  0.7807
  936MOL0     H29128   2.385   8.297   5.221 -0.3507 -0.9112  0.3011
  936MOL0     H29129   2.218   8.346   5.254  0.8782  0.3506 -1.5057
  936MOL0     H29130   2.659   8.314   5.789  0.1357  0.4222  1.0484
  936MOL0     H29131   2.864   8.244   5.900  1.0971  0.7367  0.1519
  936MOL0     H29132   3.024   8.021   5.683 -0.0766 -0.3405 -0.6083
  936MOL0     H29133   3.191   8.019   5.754 -0.2955  0.9476  0.0206
  936MOL0     H29134   3.112   8.043   5.983  0.2497 -1.2251  0.9334
  936MOL0     H29135   2.944   8.010   5.916 -0.4491  0.9583 -0.8966
  936MOL0     H29136   3.186   7.826   5.910 -0.0234 -1.0871 -0.3963
  936MOL0     H29137   3.037   7.802   5.819 -2.1819  3.1371 -0.6657
  936MOL0     H29138   2.902   7.823   6.040  1.7443  3.0207  1.8556
  936MOL0     H29139   3.053   7.820   6.123  0.1057 -0.2200 -0.0715
  936MOL0     H29140   2.941   7.606   6.115  2.8466  1.7490  2.2841
  936MOL0     H29141   2.947   7.617   5.930 -3.2177  1.0852 -0.4997
  936MOL0     H29142   3.206   7.623   5.986 -1.0729  1.9032 -0.9568
  936MOL0     H29143   3.131   7.468   6.015  2.0645  0.4179  0.5981
  936MOL0     H29144   3.103   7.548   6.262  2.1356 -2.8010  1.9121
  936MOL0     H29145   3.188   7.704   6.220 -0.7979  0.5893 -1.9702
  936MOL0     H29146   3.321   7.447   6.173  2.0130 -0.5055  0.9647
  936MOL0     H29147   3.331   7.513   6.328  2.1409 -0.3713  0.2096
  936MOL0     H29148   3.082   8.308   5.527 -1.1898  1.7105 -2.0470
  936MOL0     H29149   2.861   8.397   5.425 -2.6414 -1.0151  0.2716
  936MOL0     H29150   2.606   8.647   5.467  0.5192 -3.7607  0.6542
  936MOL0     H29151   2.450   8.838   5.428 -1.7312  1.5719 -2.0170
  936MOL0     H29152   0.510   9.045   4.872  0.0112  0.7379 -0.2233
  936MOL0     H29153   0.289   9.050   4.927  0.9504  0.3432 -0.9756
  936MOL0     H29154  -0.037   9.005   5.170  0.2107 -0.3110  1.8749
  936MOL0     H29155  -0.282   9.007   5.254 -2.2252 -0.7345  0.1742
  936MOL0     H29156  -0.681   9.009   5.074 -0.3097 -2.3096  2.1446
  936MOL0     H29157  -0.565   9.006   4.941 -2.0320 -0.3559 -1.2473
  936MOL0     H29158  -0.587   8.764   4.918 -1.0323 -0.6236 -0.7508
  936MOL0     H29159  -0.755   8.819   4.941  0.1691 -0.0204 -2.1453
  936MOL0     H29160  -0.683   8.620   5.060  0.1264 -0.5695  2.1910
  936MOL0     H29161  -0.577   8.718   5.161  1.8780 -2.9697 -1.1597
  936MOL0     H29162  -0.800   8.665   5.274 -1.1264  1.1734 -1.2125
  936MOL0     H29163  -0.888   8.710   5.127 -1.5918 -0.2789  1.4321
  936MOL0     H29164  -0.881   9.080   5.318 -2.7831 -1.5049  0.0454
  936MOL0     H29165  -0.388   8.817   4.883  1.6997  0.4707 -1.8555
  936MOL0     H29166  -0.263   8.785   4.736  0.7079 -1.5406 -0.8098
  936MOL0     H29167  -0.104   8.853   4.720 -2.6866  0.1275 -0.9967
  936MOL0     H29168  -0.127   8.699   4.807 -2.2817 -1.1641  1.0429
  937MOL0     O29169   4.771   3.335   9.664  0.4697 -0.6773  0.0580
  937MOL0     C29170   4.703   3.254   9.600 -0.2579 -0.2919 -0.1426
  937MOL0     O29171   4.752   3.157   9.511  0.1903  0.6910 -0.2619
  937MOL0     C29172   4.881   3.147   9.465 -0.5511  0.5199 -0.2794
  937MOL0     C29173   4.914   3.027   9.398  0.2271 -0.0888 -1.5754
  937MOL0     C29174   5.047   3.013   9.353  0.3000 -0.2293  0.1330
  937MOL0     C29175   5.145   3.116   9.361  0.4424 -0.8379 -0.1276
  937MOL0     O29176   5.257   3.093   9.292 -0.5822  0.0880  0.4933
  937MOL0     C29177   5.372   3.179   9.320  0.6968 -0.2951 -0.6720
  937MOL0     C29178   5.480   3.118   9.232 -0.7607  0.8899 -0.2263
  937MOL0     C29179   5.620   3.202   9.244  0.1145 -0.4795  0.7135
  937MOL0     C29180   5.742   3.124   9.199 -0.1968  0.1629  0.2927
  937MOL0     C29181   5.868   3.209   9.227  0.0756  0.8307 -0.7953
  937MOL0     C29182   5.995   3.136   9.173  0.5631 -0.4770 -0.2415
  937MOL0     C29183   6.126   3.218   9.182  0.5959 -0.7609 -0.8686
  937MOL0     C29184   6.123   3.331   9.079 -0.0835  0.4380  0.7273
  937MOL0     N29185   6.233   3.434   9.099  0.0771  0.2348  0.1898
  937MOL0     C29186   6.361   3.401   9.064 -0.8623  1.3189 -0.2047
  937MOL0     C29187   6.428   3.512   9.097  0.1487  0.2410 -0.0540
  937MOL0     C29188   6.579   3.510   9.113 -0.5011  0.3680  0.1741
  937MOL0     C29189   6.646   3.647   9.085 -0.9372  0.2968  0.2008
  937MOL0     C29190   6.796   3.640   9.107 -0.1995 -0.5489  0.7204
  937MOL0     C29191   6.853   3.787   9.092 -0.6511  0.3982  0.2059
  937MOL0     O29192   6.831   3.853   9.208  0.6569  0.3026 -1.0489
  937MOL0     C29193   6.933   3.912   9.280  0.0890 -0.1955 -0.5974
  937MOL0     C29194   7.064   3.953   9.236 -0.1251  0.3870  0.4464
  937MOL0     C29195   7.165   4.005   9.322  0.8147  0.5846  0.3674
  937MOL0     C29196   7.286   4.049   9.253 -0.3530 -0.4469 -0.0757
  937MOL0     C29197   7.134   4.017   9.460  0.0205  0.2033 -0.4634
  937MOL0     C29198   7.236   4.062   9.556 -0.7670 -0.6047  0.5006
  937MOL0     O29199   7.363   4.036   9.517 -0.0330 -0.6507  0.4735
  937MOL0     C29200   7.471   4.063   9.589  0.4909  0.4608 -0.0092
  937MOL0     C29201   7.594   4.074   9.525 -0.2555  0.3531 -0.0304
  937MOL0     C29202   7.709   4.119   9.595 -0.7277  0.0069  0.0657
  937MOL0     C29203   7.707   4.151   9.728 -0.3560  0.4246 -0.3101
  937MOL0     O29204   7.811   4.204   9.805 -0.3574  0.1195  0.4097
  937MOL0     C29205   7.948   4.202   9.768 -0.2687 -0.2658 -0.1168
  937MOL0     C29206   8.004   4.341   9.812  0.1267  0.7415  0.0629
  937MOL0     C29207   8.141   4.391   9.742  0.5607  0.1212 -0.6995
  937MOL0     C29208   8.262   4.323   9.811  0.2135  0.5519 -0.9171
  937MOL0     C29209   8.392   4.399   9.789 -0.7017  0.2419  0.0692
  937MOL0     C29210   8.492   4.326   9.702  0.3555 -0.0826 -0.0320
  937MOL0     C29211   8.592   4.405   9.631  0.3678 -0.3546 -0.1324
  937MOL0     C29212   8.675   4.487   9.732 -0.0930 -0.4953  0.1474
  937MOL0    Cl29213   8.738   4.394   9.869  0.0347  0.1086 -0.3183
  937MOL0     C29214   7.586   4.124   9.789  0.0197 -0.5450 -1.2481
  937MOL0     C29215   7.468   4.091   9.724 -0.0483 -0.2861 -0.2918
  937MOL0     O29216   7.194   4.134   9.649 -0.7921 -0.3571  0.3663
  937MOL0     C29217   7.003   3.988   9.508 -0.8084  0.0630 -0.6601
  937MOL0     C29218   6.906   3.936   9.416  0.9319 -0.2317  0.4202
  937MOL0     N29219   6.344   3.608   9.146 -0.4441 -0.4690 -0.2336
  937MOL0     N29220   6.231   3.560   9.141  0.5630  0.1068 -0.0431
  937MOL0     C29221   5.100   3.235   9.420  0.4876 -0.2033 -0.0400
  937MOL0     C29222   4.973   3.252   9.478  0.8896  0.3845 -0.1461
  937MOL0     C29223   4.559   3.256   9.618  0.6962  0.2165 -0.3747
  937MOL0     C29224   4.507   3.343   9.716  0.0308  0.0862 -0.5287
  937MOL0     C29225   4.373   3.353   9.748 -0.0746 -0.4447  0.8833
  937MOL0     C29226   4.279   3.266   9.690 -0.4080  0.4256 -0.3212
  937MOL0     O29227   4.148   3.285   9.724 -0.2464  0.0088 -0.5267
  937MOL0     C29228   4.040   3.212   9.659  0.5379 -0.8719  0.5832
  937MOL0     C29229   4.030   3.067   9.723  0.5523 -0.0404  0.4093
  937MOL0     C29230   3.919   2.980   9.654 -0.2930 -0.1844  0.5119
  937MOL0     C29231   3.942   2.941   9.502  0.4279  0.2825 -0.6077
  937MOL0     C29232   4.069   2.870   9.492  0.2197  0.1190  0.2983
  937MOL0     C29233   4.165   2.793   9.494 -0.7440 -0.5554  0.3353
  937MOL0     C29234   4.326   3.188   9.584  0.3589  0.0321 -0.2984
  937MOL0     C29235   4.460   3.178   9.540 -0.2813 -0.4854 -0.4559
  937MOL0     C29236   4.497   3.081   9.432 -1.3789 -0.0872  0.4948
  937MOL0     H29237   4.849   2.941   9.387 -0.2239 -0.3951  2.2686
  937MOL0     H29238   5.079   2.923   9.301  0.5054  1.9225 -3.9279
  937MOL0     H29239   5.386   3.177   9.429 -3.7217 -2.0374  0.0671
  937MOL0     H29240   5.353   3.280   9.283  0.6751  0.3003  0.9080
  937MOL0     H29241   5.493   3.012   9.253 -0.6813  1.0127  0.3813
  937MOL0     H29242   5.443   3.127   9.130  0.9672  0.7119 -0.9094
  937MOL0     H29243   5.609   3.292   9.182 -1.0367 -0.8365  0.3619
  937MOL0     H29244   5.621   3.243   9.345  2.5856  0.6987  0.2967
  937MOL0     H29245   5.735   3.028   9.250 -2.2484  0.5202  0.7624
  937MOL0     H29246   5.738   3.096   9.093 -1.1513  0.3399  0.2699
  937MOL0     H29247   5.868   3.219   9.336  1.8303 -0.0008 -0.6871
  937MOL0     H29248   5.864   3.309   9.184 -0.8161  0.6048 -1.2577
  937MOL0     H29249   6.004   3.038   9.221 -3.8845 -1.8693 -1.7604
  937MOL0     H29250   5.981   3.113   9.067  2.3403 -3.1246 -0.0129
  937MOL0     H29251   6.214   3.158   9.155  0.4894 -0.5186 -1.7877
  937MOL0     H29252   6.144   3.254   9.284  1.4898 -1.0285 -0.9157
  937MOL0     H29253   6.134   3.307   8.973  0.9930 -1.7774  1.2808
  937MOL0     H29254   6.034   3.394   9.086  0.4770  1.1831  1.2747
  937MOL0     H29255   6.404   3.302   9.052  0.1247  1.6994  0.1068
  937MOL0     H29256   6.622   3.434   9.046  1.0566  0.2152  1.2860
  937MOL0     H29257   6.606   3.479   9.215  1.1329  0.0636 -0.3232
  937MOL0     H29258   6.628   3.650   8.977 -2.1511 -1.0855  0.3295
  937MOL0     H29259   6.602   3.734   9.135  0.2783  2.6089 -2.4470
  937MOL0     H29260   6.806   3.607   9.211 -1.0630 -1.7807  0.4374
  937MOL0     H29261   6.852   3.576   9.038 -1.1362 -0.4806 -0.1276
  937MOL0     H29262   6.961   3.775   9.077 -0.2511  0.3233  2.7278
  937MOL0     H29263   6.814   3.850   9.011  1.4631  0.8065 -0.5470
  937MOL0     H29264   7.097   3.923   9.137 -0.0074  2.4006 -0.1759
  937MOL0     H29265   7.303   4.149   9.294 -0.5349 -1.0115  1.4402
  937MOL0     H29266   7.290   4.042   9.144  0.3840  0.2909 -0.1033
  937MOL0     H29267   7.373   3.994   9.291  0.2955  0.8521  0.3834
  937MOL0     H29268   7.599   4.060   9.417  1.0438  0.4327 -0.0019
  937MOL0     H29269   7.803   4.120   9.541  0.1853 -1.9041  1.4910
  937MOL0     H29270   7.997   4.116   9.814  0.7501 -0.4371 -1.4802
  937MOL0     H29271   7.967   4.186   9.662  1.5207 -1.8792  0.4009
  937MOL0     H29272   7.928   4.413   9.781  0.7814 -0.3433 -4.8442
  937MOL0     H29273   8.015   4.329   9.920 -1.4919 -1.5724  0.0683
  937MOL0     H29274   8.145   4.501   9.741  2.0000  0.1015 -2.2739
  937MOL0     H29275   8.134   4.353   9.640 -2.5032 -1.9779  0.1602
  937MOL0     H29276   8.280   4.222   9.771 -1.3249  0.5154 -1.5777
  937MOL0     H29277   8.249   4.323   9.919  0.6739  0.9562 -0.8568
  937MOL0     H29278   8.380   4.500   9.749 -2.8227 -0.3037 -0.8107
  937MOL0     H29279   8.440   4.410   9.887 -0.8157 -2.0518  0.4392
  937MOL0     H29280   8.430   4.271   9.630 -0.2304  0.2469  0.2131
  937MOL0     H29281   8.533   4.250   9.769  2.4454 -0.1722 -1.3060
  937MOL0     H29282   8.535   4.473   9.566 -0.8613 -0.7292  0.5115
  937MOL0     H29283   8.664   4.352   9.569  2.6053  2.3198 -0.0023
  937MOL0     H29284   8.604   4.565   9.762 -0.8526  0.4786 -3.6128
  937MOL0     H29285   8.754   4.545   9.682 -1.3366  0.9462 -0.2227
  937MOL0     H29286   7.572   4.143   9.895 -0.6351 -0.6615 -1.3076
  937MOL0     H29287   7.375   4.090   9.779  0.5079  1.6984  0.7990
  937MOL0     H29288   6.976   4.004   9.612  0.9488 -3.0372  0.4047
  937MOL0     H29289   6.808   3.907   9.452  1.2023 -1.9049 -0.0925
  937MOL0     H29290   5.149   3.330   9.404  2.1007 -0.6599  1.7922
  937MOL0     H29291   4.953   3.347   9.526 -1.1493 -0.8962  1.7533
  937MOL0     H29292   4.564   3.422   9.764 -1.6441 -0.2218  2.2286
  937MOL0     H29293   4.338   3.427   9.820  2.5356  1.5738  0.2358
  937MOL0     H29294   3.941   3.250   9.687  0.1926 -1.5004  0.2527
  937MOL0     H29295   4.055   3.222   9.551  0.3094  1.4732  0.7157
  937MOL0     H29296   4.003   3.082   9.828  3.6839 -1.9263  1.6056
  937MOL0     H29297   4.123   3.010   9.721 -0.8859 -2.6994 -4.0473
  937MOL0     H29298   3.929   2.884   9.706  0.5746  0.6890  2.0308
  937MOL0     H29299   3.819   3.024   9.659 -0.0026  0.6113 -0.2780
  937MOL0     H29300   3.921   3.028   9.439 -1.3393  0.4557  0.1682
  937MOL0     H29301   3.865   2.869   9.475 -0.0912  0.5307  0.1924
  937MOL0     H29302   4.255   2.736   9.508  0.2032  0.6614 -0.5916
  937MOL0     H29303   4.260   3.124   9.527  1.2017  0.9703 -2.4183
  937MOL0     H29304   4.558   3.135   9.358  2.0001 -2.5607  1.2308
  937MOL0     H29305   4.559   3.000   9.470  2.3246  1.5458 -1.5040
  937MOL0     H29306   4.411   3.040   9.380 -0.8453 -0.7417  0.1115
  938MOL0     O29307   0.631   2.329   2.498 -0.4290 -0.2486  0.5552
  938MOL0     C29308   0.619   2.438   2.442 -0.4401 -0.8603  0.1552
  938MOL0     O29309   0.717   2.502   2.376  0.8413 -0.0184  0.1058
  938MOL0     C29310   0.830   2.434   2.334 -0.6534 -0.2325  0.2787
  938MOL0     C29311   0.941   2.518   2.316  0.4588 -0.8500 -0.9482
  938MOL0     C29312   1.071   2.460   2.286  0.7227  0.3955  1.2994
  938MOL0     C29313   1.085   2.322   2.271 -0.0206 -0.4991  0.4385
  938MOL0     O29314   1.214   2.274   2.245 -0.4048  0.1311 -0.0499
  938MOL0     C29315   1.230   2.132   2.232  0.4808  0.3968  0.1514
  938MOL0     C29316   1.374   2.116   2.200  0.7070  0.2677  0.2509
  938MOL0     C29317   1.428   2.178   2.068  0.5520 -0.2967  0.3557
  938MOL0     C29318   1.585   2.152   2.051  0.3280 -0.3330 -0.8764
  938MOL0     C29319   1.656   2.147   1.911  0.5518  0.6352  0.4167
  938MOL0     C29320   1.762   2.254   1.886 -0.2478 -0.2594 -0.3078
  938MOL0     C29321   1.900   2.205   1.936 -0.0110 -0.3704  0.0012
  938MOL0     C29322   1.926   2.212   2.086  0.2483  0.7117  0.1455
  938MOL0     N29323   2.060   2.159   2.120 -0.1564 -0.0100 -0.9563
  938MOL0     C29324   2.179   2.216   2.106  0.6062  0.7626  0.2574
  938MOL0     C29325   2.259   2.115   2.135 -0.1441  0.1776 -0.3412
  938MOL0     C29326   2.410   2.130   2.106  0.0708  0.4954  0.1014
  938MOL0     C29327   2.482   2.024   2.182  0.5051  0.2927  0.0711
  938MOL0     C29328   2.639   2.040   2.174 -0.2735 -0.6090 -0.5741
  938MOL0     C29329   2.713   1.952   2.277  0.0693 -0.3819 -0.0987
  938MOL0     O29330   2.843   2.004   2.308  0.2443  0.7494 -0.3191
  938MOL0     C29331   2.941   1.925   2.371  0.2078 -0.2212 -0.2377
  938MOL0     C29332   3.075   1.974   2.379  0.4756  0.4485  0.4241
  938MOL0     C29333   3.182   1.920   2.451  0.8743 -1.9029 -0.5043
  938MOL0     C29334   3.304   1.998   2.460 -0.0413 -0.4553 -0.4817
  938MOL0     C29335   3.156   1.788   2.509  0.3292  0.0335  0.1037
  938MOL0     C29336   3.261   1.710   2.569 -0.3924  0.1994  0.5814
  938MOL0     O29337   3.250   1.564   2.572  0.9625 -1.0073 -0.3798
  938MOL0     C29338   3.359   1.497   2.610 -0.0620  0.2736 -0.1300
  938MOL0     C29339   3.364   1.417   2.720  0.2850  0.4002 -0.2482
  938MOL0     C29340   3.468   1.325   2.739 -0.5907 -0.1955 -0.0458
  938MOL0     C29341   3.585   1.331   2.664  1.2877  0.4648  0.1723
  938MOL0     O29342   3.692   1.247   2.685 -0.4895 -0.4878  0.6651
  938MOL0     C29343   3.746   1.234   2.818 -0.2891 -0.0804 -0.4895
  938MOL0     C29344   3.875   1.141   2.810  0.5908 -0.0405  0.3546
  938MOL0     C29345   3.955   1.166   2.936 -0.5251  1.1606 -0.4513
  938MOL0     C29346   4.098   1.102   2.924 -0.1050 -0.0961  0.5324
  938MOL0     C29347   4.178   1.118   3.051 -0.4887 -0.2113 -0.0281
  938MOL0     C29348   4.166   0.989   3.139 -0.0117 -0.5586 -0.2690
  938MOL0     C29349   4.245   1.001   3.267  0.2152  0.3392  0.4704
  938MOL0     C29350   4.238   0.864   3.337  1.3582 -0.4078  0.1997
  938MOL0    Cl29351   4.323   0.730   3.233 -0.5448 -0.5606  0.4539
  938MOL0     C29352   3.580   1.408   2.548  0.2113  0.1252 -0.5355
  938MOL0     C29353   3.475   1.498   2.528  0.0528 -0.1400 -0.2525
  938MOL0     O29354   3.358   1.773   2.617  1.0214  0.2392  1.5079
  938MOL0     C29355   3.026   1.732   2.501  0.0115 -0.2765  0.0554
  938MOL0     C29356   2.924   1.804   2.437  0.2423 -0.3416  1.1177
  938MOL0     N29357   2.196   1.996   2.159  0.2381  0.8874  0.3722
  938MOL0     N29358   2.069   2.027   2.150 -0.3325 -0.3312  0.4372
  938MOL0     C29359   0.972   2.241   2.282 -0.3674 -0.7556  0.6380
  938MOL0     C29360   0.844   2.294   2.304 -0.3644 -0.3320  0.4388
  938MOL0     C29361   0.487   2.509   2.447 -0.3312 -0.0195  0.0587
  938MOL0     C29362   0.492   2.653   2.464 -0.1582 -0.0554 -0.3802
  938MOL0     C29363   0.377   2.734   2.459 -0.4554  0.4088  1.0340
  938MOL0     C29364   0.252   2.677   2.439 -0.2982 -0.4999  0.0646
  938MOL0     O29365   0.133   2.755   2.426 -0.2514 -0.1577  0.3771
  938MOL0     C29366   0.088   2.830   2.533  0.1698 -0.2515  0.1351
  938MOL0     C29367  -0.056   2.875   2.499  1.0325  0.5063 -0.6436
  938MOL0     C29368  -0.090   2.978   2.609 -0.8098  0.5317  1.0736
  938MOL0     C29369  -0.241   3.015   2.589 -0.3059 -0.2058 -0.5697
  938MOL0     C29370  -0.283   3.111   2.690 -0.0366 -0.1393  0.8439
  938MOL0     C29371  -0.328   3.199   2.757 -0.7142  0.0820 -0.6015
  938MOL0     C29372   0.249   2.536   2.420 -0.1942  0.1215 -0.4904
  938MOL0     C29373   0.359   2.456   2.429 -1.0592  0.4199  1.0903
  938MOL0     C29374   0.336   2.304   2.435  0.6564  0.5286 -0.4243
  938MOL0     H29375   0.928   2.625   2.318  1.1878 -0.7182 -2.1269
  938MOL0     H29376   1.152   2.531   2.272  0.3253  1.3195  3.2631
  938MOL0     H29377   1.164   2.094   2.153  1.8720  1.6267 -1.6858
  938MOL0     H29378   1.203   2.083   2.326 -2.2815  1.0279 -0.2104
  938MOL0     H29379   1.430   2.153   2.287  0.1611 -1.8572  1.5903
  938MOL0     H29380   1.383   2.007   2.197 -0.7557  0.1493 -2.8227
  938MOL0     H29381   1.380   2.133   1.981  3.7093  1.6114 -2.6207
  938MOL0     H29382   1.405   2.285   2.067 -2.5216 -0.8081  2.0655
  938MOL0     H29383   1.618   2.235   2.114 -2.2725  0.9909 -1.1145
  938MOL0     H29384   1.596   2.056   2.100 -0.7449  0.2879  0.6437
  938MOL0     H29385   1.581   2.154   1.832  2.7646 -0.6058 -1.9223
  938MOL0     H29386   1.702   2.048   1.905  1.1143  0.9882 -2.2513
  938MOL0     H29387   1.773   2.283   1.781  1.9130  0.7112  0.1340
  938MOL0     H29388   1.726   2.343   1.938  1.4152  0.1361  0.2221
  938MOL0     H29389   1.967   2.268   1.878  1.5221 -0.7374  1.3255
  938MOL0     H29390   1.907   2.100   1.903 -2.2444 -0.8834  0.9701
  938MOL0     H29391   1.917   2.311   2.131  1.8447  1.0707 -0.2444
  938MOL0     H29392   1.860   2.142   2.138  0.2487  0.1527 -0.5901
  938MOL0     H29393   2.201   2.310   2.057  0.4079  0.0791 -1.1926
  938MOL0     H29394   2.437   2.231   2.136 -0.2684  1.3450 -2.2742
  938MOL0     H29395   2.430   2.116   1.999 -3.8976  2.5918 -1.0976
  938MOL0     H29396   2.448   2.043   2.284 -0.7047  1.7028 -0.5570
  938MOL0     H29397   2.455   1.927   2.138 -0.1119 -0.6166  2.3278
  938MOL0     H29398   2.667   2.004   2.074 -0.7056  0.4822 -1.1103
  938MOL0     H29399   2.661   2.147   2.184 -1.1013 -0.2891 -1.8379
  938MOL0     H29400   2.643   1.949   2.361 -2.4140 -3.7895 -2.0323
  938MOL0     H29401   2.726   1.852   2.233  1.4269  0.6087 -2.1116
  938MOL0     H29402   3.085   2.074   2.339  0.1484  1.7589  3.3754
  938MOL0     H29403   3.292   2.095   2.412  0.0653 -0.5102 -0.6201
  938MOL0     H29404   3.387   1.940   2.418 -1.1565 -1.4814 -1.3484
  938MOL0     H29405   3.333   2.023   2.562  0.9031  3.2220 -1.5295
  938MOL0     H29406   3.274   1.405   2.779  0.1972  0.2653 -0.4073
  938MOL0     H29407   3.457   1.244   2.811 -1.5050 -1.8346 -1.9373
  938MOL0     H29408   3.770   1.336   2.850 -4.3257  0.8936 -0.0838
  938MOL0     H29409   3.675   1.203   2.894  0.2580 -3.7797 -1.3038
  938MOL0     H29410   3.827   1.043   2.801  0.2874  0.1796 -0.5410
  938MOL0     H29411   3.937   1.174   2.726  4.1113  0.5358  2.9681
  938MOL0     H29412   3.897   1.122   3.018 -1.2996 -0.7971 -1.9804
  938MOL0     H29413   3.973   1.273   2.955  1.6026  0.7102  0.2750
  938MOL0     H29414   4.143   1.161   2.844  1.2120  0.0789  1.3734
  938MOL0     H29415   4.100   0.996   2.898  0.6878 -0.0672  0.4442
  938MOL0     H29416   4.286   1.124   3.036 -0.2616 -0.7712  1.2389
  938MOL0     H29417   4.141   1.211   3.095 -1.3086  0.8135 -2.6850
  938MOL0     H29418   4.184   0.897   3.082  0.1780 -0.1168 -0.9331
  938MOL0     H29419   4.062   0.988   3.173 -0.1596  4.4458  0.2231
  938MOL0     H29420   4.204   1.087   3.321 -0.4605 -0.9636  2.0841
  938MOL0     H29421   4.348   1.028   3.240  0.0883 -1.3527 -2.0280
  938MOL0     H29422   4.135   0.842   3.366  1.7793 -0.9227  1.3633
  938MOL0     H29423   4.296   0.864   3.429 -1.5195 -1.6663  2.1626
  938MOL0     H29424   3.665   1.394   2.482  0.0229 -2.2130 -0.3830
  938MOL0     H29425   3.457   1.563   2.444  0.7451  1.5418  0.8559
  938MOL0     H29426   3.009   1.631   2.537  0.2441 -0.9606 -1.6547
  938MOL0     H29427   2.824   1.762   2.433 -0.0347  0.1996  2.0060
  938MOL0     H29428   0.983   2.136   2.256 -0.1356  0.2214 -4.1352
  938MOL0     H29429   0.770   2.216   2.293 -1.1622 -0.2899  4.0777
  938MOL0     H29430   0.589   2.700   2.477 -0.3117  0.1151  0.1940
  938MOL0     H29431   0.392   2.839   2.480  1.0899  0.4347 -0.0190
  938MOL0     H29432   0.105   2.778   2.628 -1.9988 -1.2316  0.0547
  938MOL0     H29433   0.150   2.920   2.537  1.8521 -1.3987  3.0639
  938MOL0     H29434  -0.127   2.791   2.496 -2.0289  2.9275 -0.8115
  938MOL0     H29435  -0.069   2.915   2.398  0.4594 -1.2681 -1.3289
  938MOL0     H29436  -0.073   2.938   2.710  0.3922 -2.0450 -0.0636
  938MOL0     H29437  -0.022   3.063   2.593  0.9883 -0.8254  1.1847
  938MOL0     H29438  -0.301   2.924   2.594 -0.2033 -0.2047  0.8436
  938MOL0     H29439  -0.257   3.038   2.483 -0.3353 -3.5240 -1.3992
  938MOL0     H29440  -0.364   3.281   2.816 -1.9105 -0.7791 -0.0839
  938MOL0     H29441   0.155   2.498   2.381 -0.3022  0.7040 -0.8051
  938MOL0     H29442   0.405   2.247   2.372  1.1506  0.3793  0.2372
  938MOL0     H29443   0.352   2.273   2.539  1.8622 -0.0946 -0.7762
  938MOL0     H29444   0.239   2.267   2.402  0.5005  0.8195 -0.2998
  939MOL0     O29445   5.357   7.943   2.410  0.0560  0.1097 -0.0145
  939MOL0     C29446   5.290   8.022   2.345 -0.8603  0.1155 -0.3629
  939MOL0     O29447   5.342   8.126   2.265  0.0731  0.8275 -0.3449
  939MOL0     C29448   5.478   8.160   2.292  0.2338  0.2996 -0.6913
  939MOL0     C29449   5.564   8.192   2.184 -0.2405 -0.2070 -0.0018
  939MOL0     C29450   5.686   8.250   2.211  0.3707  0.2371  0.3089
  939MOL0     C29451   5.737   8.271   2.339  0.6491 -0.0060  0.0924
  939MOL0     O29452   5.860   8.323   2.369  1.0978 -0.0838 -0.5256
  939MOL0     C29453   5.974   8.250   2.322 -0.3577 -0.5602 -0.1045
  939MOL0     C29454   6.005   8.146   2.417 -0.4201 -0.4045 -0.6205
  939MOL0     C29455   6.032   8.195   2.567 -0.0558 -0.5484  0.4489
  939MOL0     C29456   6.166   8.170   2.623  0.3999 -0.0367 -0.1764
  939MOL0     C29457   6.184   8.016   2.659 -0.1431 -0.4671  0.2349
  939MOL0     C29458   6.330   7.974   2.660 -0.2741 -0.4378 -0.0710
  939MOL0     C29459   6.342   7.819   2.702 -0.2857 -0.1069 -0.4964
  939MOL0     C29460   6.319   7.804   2.856  0.1991 -0.7643  0.1932
  939MOL0     N29461   6.257   7.676   2.881 -0.7406 -0.3419 -0.5463
  939MOL0     C29462   6.322   7.570   2.934  0.5409  1.1034  0.2706
  939MOL0     C29463   6.228   7.471   2.926  0.2289  0.5636 -0.3948
  939MOL0     C29464   6.252   7.324   2.967 -0.4001  0.2383 -0.5047
  939MOL0     C29465   6.316   7.242   2.851  0.2236 -0.5101 -0.1391
  939MOL0     C29466   6.474   7.253   2.832  0.7461  0.3610 -0.0320
  939MOL0     C29467   6.569   7.212   2.949  0.3778  0.1126  0.9062
  939MOL0     O29468   6.602   7.324   3.031  0.0966 -0.1032 -0.3406
  939MOL0     C29469   6.710   7.300   3.110  0.2631 -0.4918  0.9119
  939MOL0     C29470   6.686   7.295   3.247  0.5960 -0.1743  0.3363
  939MOL0     C29471   6.798   7.306   3.334  0.8320  0.0238  0.1573
  939MOL0     C29472   6.773   7.300   3.488  0.6689  0.2007  0.3779
  939MOL0     C29473   6.929   7.300   3.283  0.2484  0.5186  0.4848
  939MOL0     C29474   7.052   7.318   3.370  0.4784  1.0617 -0.0701
  939MOL0     O29475   7.151   7.400   3.328  0.0282  0.4590  0.2279
  939MOL0     C29476   7.272   7.407   3.395  0.3055 -0.6260  1.8211
  939MOL0     C29477   7.284   7.462   3.523  0.7740  0.3747  0.5793
  939MOL0     C29478   7.405   7.499   3.576  0.5869  0.0688 -0.0628
  939MOL0     C29479   7.525   7.469   3.509  0.5741 -0.0937 -0.2216
  939MOL0     O29480   7.651   7.482   3.567 -0.0040  0.1697 -0.2355
  939MOL0     C29481   7.660   7.428   3.696  0.3391 -0.7007  0.3031
  939MOL0     C29482   7.805   7.437   3.751 -0.4195  0.3420 -0.5907
  939MOL0     C29483   7.833   7.352   3.878 -0.6301 -0.9621 -0.4005
  939MOL0     C29484   7.801   7.202   3.854  0.1240 -0.0433 -0.3500
  939MOL0     C29485   7.810   7.116   3.980 -0.2822 -0.0922 -1.2160
  939MOL0     C29486   7.759   6.974   3.953  0.4208  0.7192  1.2795
  939MOL0     C29487   7.783   6.873   4.065 -0.1286  0.3467 -0.3101
  939MOL0     C29488   7.679   6.767   4.069 -0.0031 -0.0366  0.6399
  939MOL0    Cl29489   7.728   6.626   4.163  0.2515 -0.0363  0.3612
  939MOL0     C29490   7.505   7.407   3.379 -0.2847 -0.6273 -0.4530
  939MOL0     C29491   7.389   7.380   3.328  0.0958 -0.0540  0.7216
  939MOL0     O29492   7.052   7.243   3.472  0.4377  0.1584  0.4853
  939MOL0     C29493   6.947   7.291   3.145  0.5318 -0.1958 -0.2811
  939MOL0     C29494   6.839   7.287   3.060  0.3971  0.0927  0.4064
  939MOL0     N29495   6.111   7.513   2.868 -0.6089  0.4180 -0.2963
  939MOL0     N29496   6.132   7.637   2.836  0.5110 -0.1996 -0.2737
  939MOL0     C29497   5.662   8.226   2.453  0.3250 -1.1739 -0.2587
  939MOL0     C29498   5.536   8.181   2.420  0.8406 -0.4476 -0.1098
  939MOL0     C29499   5.149   8.002   2.326  0.9030  0.5742  0.3925
  939MOL0     C29500   5.099   8.024   2.195  0.2128 -0.2405  0.2972
  939MOL0     C29501   4.964   7.995   2.162 -0.0241  0.4835 -0.4001
  939MOL0     C29502   4.879   7.948   2.262  0.0324 -1.3409 -0.1138
  939MOL0     O29503   4.746   7.936   2.216  0.5797 -0.3552  0.1358
  939MOL0     C29504   4.659   7.862   2.301 -0.1594  0.3421  0.7054
  939MOL0     C29505   4.538   7.823   2.210 -0.1106 -0.0724  0.4395
  939MOL0     C29506   4.445   7.720   2.269 -0.8469  0.4371  0.3198
  939MOL0     C29507   4.294   7.739   2.202  0.5854 -0.4590  0.4729
  939MOL0     C29508   4.221   7.611   2.207  0.2327 -0.0830  0.9582
  939MOL0     C29509   4.162   7.507   2.184  0.8408 -0.0994  0.7985
  939MOL0     C29510   4.924   7.935   2.392  0.6883  0.5422  0.3731
  939MOL0     C29511   5.059   7.958   2.423  0.1736 -0.6171 -0.7362
  939MOL0     C29512   5.109   7.939   2.559  0.6407  0.2398  0.3426
  939MOL0     H29513   5.527   8.223   2.086  1.1899  0.3448 -0.3972
  939MOL0     H29514   5.750   8.274   2.127 -1.3658 -0.0580 -1.1423
  939MOL0     H29515   6.066   8.309   2.323 -1.1362  0.7275 -0.8953
  939MOL0     H29516   5.960   8.206   2.223 -1.2705 -0.5542  0.0095
  939MOL0     H29517   5.921   8.075   2.419 -0.0451 -0.8701 -1.1236
  939MOL0     H29518   6.091   8.089   2.381  0.6321  1.0238 -0.4293
  939MOL0     H29519   6.025   8.304   2.562 -0.2508 -0.5557 -4.2829
  939MOL0     H29520   5.958   8.165   2.641 -0.1440 -0.9100  0.2225
  939MOL0     H29521   6.248   8.200   2.557  2.6132  0.6630  2.6763
  939MOL0     H29522   6.177   8.234   2.712  2.4698  1.5119 -1.4506
  939MOL0     H29523   6.132   7.949   2.591 -3.1835 -0.1491  2.0863
  939MOL0     H29524   6.135   7.994   2.754  0.4852 -1.4552  0.3384
  939MOL0     H29525   6.366   7.984   2.557 -2.7141  1.1168 -0.8649
  939MOL0     H29526   6.399   8.027   2.727 -1.5386  0.4061  0.6018
  939MOL0     H29527   6.438   7.776   2.669  0.4940  0.3926  1.0231
  939MOL0     H29528   6.273   7.761   2.640 -2.0287  2.5007 -1.1351
  939MOL0     H29529   6.421   7.810   2.895  1.1612  0.4309 -2.2760
  939MOL0     H29530   6.278   7.901   2.884  3.1205  1.2050 -1.7360
  939MOL0     H29531   6.426   7.561   2.964  0.4889 -2.0942 -0.1695
  939MOL0     H29532   6.154   7.294   3.004  0.5482  0.9230  2.9889
  939MOL0     H29533   6.321   7.311   3.052  0.8810  3.5784 -0.8835
  939MOL0     H29534   6.299   7.137   2.874  1.8945 -0.7405  0.2326
  939MOL0     H29535   6.276   7.273   2.754  1.1647  1.2500 -0.0063
  939MOL0     H29536   6.488   7.170   2.762 -0.4582  1.9047 -2.2472
  939MOL0     H29537   6.509   7.349   2.793  1.1746  0.3829  0.3977
  939MOL0     H29538   6.531   7.127   3.007  2.0233 -1.0813  0.3232
  939MOL0     H29539   6.661   7.183   2.897 -0.1933  1.0562 -0.6687
  939MOL0     H29540   6.583   7.297   3.283  0.2037  0.7476 -0.7963
  939MOL0     H29541   6.826   7.386   3.530 -0.5115  2.2499 -2.0665
  939MOL0     H29542   6.800   7.211   3.546 -3.3384 -0.6206  1.2846
  939MOL0     H29543   6.666   7.290   3.510  1.0699 -4.3482  1.1401
  939MOL0     H29544   7.192   7.465   3.579 -1.0437 -0.4143 -2.1711
  939MOL0     H29545   7.409   7.548   3.673 -2.0242 -1.4556  0.9365
  939MOL0     H29546   7.589   7.483   3.759 -1.2639 -0.2110 -1.7988
  939MOL0     H29547   7.632   7.322   3.695 -0.3718 -0.5208  0.4826
  939MOL0     H29548   7.874   7.412   3.670 -0.0461 -0.2029 -0.1077
  939MOL0     H29549   7.825   7.541   3.780 -2.2404  0.4925  0.2674
  939MOL0     H29550   7.770   7.396   3.955  0.3831  3.3484 -1.7723
  939MOL0     H29551   7.939   7.374   3.899 -0.6879  1.0985 -1.9318
  939MOL0     H29552   7.862   7.166   3.770 -0.7422 -0.5833 -0.7735
  939MOL0     H29553   7.699   7.181   3.819 -0.0458 -1.6343  0.9811
  939MOL0     H29554   7.916   7.120   4.010 -0.6676  3.0105  0.0357
  939MOL0     H29555   7.748   7.168   4.053 -1.1446 -0.3093 -1.7900
  939MOL0     H29556   7.812   6.937   3.865  1.0392 -0.0924  1.9810
  939MOL0     H29557   7.654   6.981   3.923  0.9189  0.5565 -0.6350
  939MOL0     H29558   7.780   6.922   4.163 -1.6723 -2.0968  0.9801
  939MOL0     H29559   7.887   6.843   4.053 -0.3174 -0.1576 -0.7501
  939MOL0     H29560   7.656   6.736   3.967 -3.9613  0.1757  1.3315
  939MOL0     H29561   7.585   6.799   4.115 -1.4751 -0.1966 -2.1078
  939MOL0     H29562   7.596   7.382   3.325 -0.6280 -2.1250 -0.3742
  939MOL0     H29563   7.376   7.332   3.231  3.4738 -0.1651  0.2182
  939MOL0     H29564   7.045   7.273   3.103  0.5218 -0.7934 -0.0468
  939MOL0     H29565   6.854   7.279   2.953 -2.7492 -1.9477 -0.0382
  939MOL0     H29566   5.697   8.217   2.555 -1.5239  0.7075  0.6108
  939MOL0     H29567   5.487   8.155   2.514 -0.0446  0.7811 -0.1981
  939MOL0     H29568   5.173   8.049   2.120  2.9600 -2.8570  1.8781
  939MOL0     H29569   4.926   7.997   2.060 -1.7620 -0.1404  0.1987
  939MOL0     H29570   4.705   7.777   2.351  0.1724 -0.4143 -0.8224
  939MOL0     H29571   4.624   7.918   2.388  0.3583  0.1663  1.0282
  939MOL0     H29572   4.575   7.782   2.116 -2.7024  1.5922 -1.4430
  939MOL0     H29573   4.486   7.915   2.182  0.9121  0.5378  0.4622
  939MOL0     H29574   4.475   7.621   2.233  0.5590  1.7705 -2.4902
  939MOL0     H29575   4.456   7.732   2.377  4.5602  2.1891 -0.1320
  939MOL0     H29576   4.310   7.759   2.096  2.2002  0.2171  0.8084
  939MOL0     H29577   4.242   7.825   2.245 -2.0852  0.2381 -3.5990
  939MOL0     H29578   4.107   7.417   2.162  2.5378 -1.2827  1.1990
  939MOL0     H29579   4.857   7.887   2.463  0.6712  1.1930  0.8019
  939MOL0     H29580   5.175   8.017   2.598  0.7640 -0.0272  0.6739
  939MOL0     H29581   5.025   7.933   2.628 -0.9498 -0.1568 -1.5209
  939MOL0     H29582   5.153   7.839   2.563  0.9367  0.2551 -1.5001
  940MOL0     O29583   9.503   9.475   4.910  0.4099 -0.0097  0.0148
  940MOL0     C29584   9.477   9.586   4.957 -0.4032  0.2502 -0.1864
  940MOL0     O29585   9.576   9.682   4.989  0.1751 -0.4371 -0.2007
  940MOL0     C29586   9.703   9.639   5.021 -0.1423 -0.2906 -0.0752
  940MOL0     C29587   9.812   9.653   4.928  0.6887  0.1166  0.0536
  940MOL0     C29588   9.947   9.616   4.966 -0.4772 -0.5394  0.2917
  940MOL0     C29589   9.978   9.584   5.095 -0.8488 -0.7591 -0.3799
  940MOL0     O29590  10.116   9.581   5.127  0.2721  0.7691 -0.7695
  940MOL0     C29591  10.199   9.689   5.100  0.3062  0.9127  0.4661
  940MOL0     C29592  10.206   9.783   5.224  0.4088  0.5922 -0.1646
  940MOL0     C29593  10.080   9.857   5.258  0.6272  0.2664 -0.2079
  940MOL0     C29594  10.078   9.937   5.393  0.4384 -0.1304 -0.2342
  940MOL0     C29595  10.196  10.032   5.410 -0.1851  0.1930  0.5816
  940MOL0     C29596  10.182  10.119   5.529  0.3014 -0.2002 -0.0043
  940MOL0     C29597  10.311  10.182   5.584  0.1578  0.6629 -0.3408
  940MOL0     C29598  10.399  10.096   5.676 -0.2056 -0.4225 -0.7070
  940MOL0     N29599  10.524  10.157   5.718  0.2371  0.2134  0.0264
  940MOL0     C29600  10.651  10.108   5.700 -0.6944 -0.8978  0.1602
  940MOL0     C29601  10.731  10.194   5.769  0.0655  0.5677 -0.2587
  940MOL0     C29602  10.883  10.178   5.791  0.0770 -0.4340 -0.0323
  940MOL0     C29603  10.964  10.300   5.758 -0.3690 -0.2051  0.0290
  940MOL0     C29604  10.985  10.302   5.605 -0.4521 -0.0718 -0.0200
  940MOL0     C29605  11.027  10.440   5.556  0.1233 -0.0793  0.5523
  940MOL0     O29606  11.150  10.476   5.614  0.3204  0.1682  0.5299
  940MOL0     C29607  11.226  10.547   5.527  0.7184 -0.0479  0.1464
  940MOL0     C29608  11.216  10.681   5.542 -0.0708  0.0471 -0.2190
  940MOL0     C29609  11.268  10.763   5.442 -0.7492 -0.0022 -0.1551
  940MOL0     C29610  11.227  10.903   5.451 -1.1839 -0.8737  0.4228
  940MOL0     C29611  11.360  10.712   5.351  0.2046  0.2018  1.5566
  940MOL0     C29612  11.431  10.804   5.260  0.1902 -0.2641  0.4834
  940MOL0     O29613  11.426  10.778   5.127  0.6341  0.2677 -0.1327
  940MOL0     C29614  11.524  10.811   5.046 -0.1211 -0.2397  0.0725
  940MOL0     C29615  11.659  10.820   5.098  0.3113 -0.0660  1.0081
  940MOL0     C29616  11.763  10.867   5.016 -0.4911  0.7073  0.6455
  940MOL0     C29617  11.745  10.908   4.878  0.0827  0.2352 -1.0235
  940MOL0     O29618  11.856  10.964   4.809 -0.0447  0.6341  0.0503
  940MOL0     C29619  11.832  11.043   4.693 -0.3229  0.9096  0.6280
  940MOL0     C29620  11.962  11.112   4.645 -0.7597  0.2043  0.1016
  940MOL0     C29621  12.081  11.026   4.619 -0.3223 -0.2080 -0.3761
  940MOL0     C29622  12.200  11.113   4.583 -0.3954  0.6393  0.1638
  940MOL0     C29623  12.325  11.033   4.559 -0.1209 -0.4055 -0.6819
  940MOL0     C29624  12.437  11.124   4.505  0.0864  0.4831 -0.5094
  940MOL0     C29625  12.566  11.046   4.495  0.7637  0.7607  0.3345
  940MOL0     C29626  12.692  11.133   4.509 -0.1630  0.1747 -0.1163
  940MOL0    Cl29627  12.699  11.273   4.397  0.2469  0.3889 -0.1057
  940MOL0     C29628  11.614  10.884   4.828  1.3672 -1.0986  0.1460
  940MOL0     C29629  11.500  10.842   4.910 -0.0446 -0.2048 -0.7547
  940MOL0     O29630  11.490  10.898   5.311 -0.6276 -0.3651  0.3225
  940MOL0     C29631  11.379  10.578   5.331 -0.0722 -0.0573 -0.6813
  940MOL0     C29632  11.307  10.496   5.424  0.1497  0.2062  0.1323
  940MOL0     N29633  10.657  10.296   5.821 -0.5830 -0.1152 -0.7963
  940MOL0     N29634  10.532  10.270   5.791  0.3888 -0.1181 -0.7583
  940MOL0     C29635   9.877   9.566   5.187  0.4890  0.8308 -0.1330
  940MOL0     C29636   9.739   9.589   5.146 -0.5500 -0.5666  0.5111
  940MOL0     C29637   9.333   9.628   4.955 -0.3286 -0.1066 -0.2758
  940MOL0     C29638   9.319   9.767   4.985 -0.0019  0.8910  0.0527
  940MOL0     C29639   9.194   9.826   4.995  0.3281 -1.1187  0.9054
  940MOL0     C29640   9.074   9.760   4.970  0.1701  0.0620 -0.4224
  940MOL0     O29641   8.955   9.826   4.961  0.7472 -0.6448 -0.3507
  940MOL0     C29642   8.949   9.967   4.996  1.2442 -0.1984  0.4063
  940MOL0     C29643   8.977  10.063   4.879 -0.1029  0.2943 -0.3319
  940MOL0     C29644   8.895  10.040   4.755  0.7366 -0.5580  0.1252
  940MOL0     C29645   8.752  10.095   4.765 -0.1777 -0.8587 -0.4872
  940MOL0     C29646   8.734  10.241   4.792 -0.2763  0.3319 -0.2460
  940MOL0     C29647   8.716  10.352   4.835  0.5086  0.0686  0.1915
  940MOL0     C29648   9.084   9.623   4.943 -0.4336 -0.2101  0.0788
  940MOL0     C29649   9.207   9.551   4.943  0.4517  0.4170 -0.0764
  940MOL0     C29650   9.219   9.403   4.929  0.1252  0.3532  0.5013
  940MOL0     H29651   9.782   9.683   4.828 -1.0692  0.9160  0.7808
  940MOL0     H29652  10.028   9.636   4.896 -0.1199 -0.7969  0.6285
  940MOL0     H29653  10.164   9.746   5.014 -0.2460 -0.5717 -0.3248
  940MOL0     H29654  10.298   9.647   5.079  0.3749 -1.6087  4.6451
  940MOL0     H29655  10.227   9.722   5.313 -1.9044 -3.9093 -2.3576
  940MOL0     H29656  10.292   9.850   5.216  1.8927 -1.2545 -0.3770
  940MOL0     H29657  10.052   9.929   5.180  0.9183  0.1269 -0.4448
  940MOL0     H29658   9.995   9.788   5.249  0.2803  0.6707 -0.0681
  940MOL0     H29659   9.983   9.990   5.403  0.4056 -0.0325 -1.0008
  940MOL0     H29660  10.086   9.877   5.484  1.0378 -0.5052 -0.5304
  940MOL0     H29661  10.200  10.100   5.324 -2.1900  0.2658  0.5188
  940MOL0     H29662  10.293   9.981   5.412 -0.1788  0.0001 -1.7822
  940MOL0     H29663  10.119  10.199   5.489 -0.4229 -1.1407 -0.7759
  940MOL0     H29664  10.124  10.077   5.612  0.4649  1.6375  1.0960
  940MOL0     H29665  10.287  10.263   5.654 -1.8586 -2.4860  2.9888
  940MOL0     H29666  10.362  10.219   5.495 -0.2581  0.0721 -0.8395
  940MOL0     H29667  10.348  10.054   5.763 -0.4034 -1.5079 -1.3252
  940MOL0     H29668  10.429  10.010   5.615  0.4769 -1.2908  0.8118
  940MOL0     H29669  10.685  10.025   5.639  1.2526  1.0914 -1.6343
  940MOL0     H29670  10.920  10.100   5.725 -2.1642 -0.6048 -1.1865
  940MOL0     H29671  10.900  10.147   5.894  1.0326  2.3844  0.7622
  940MOL0     H29672  10.916  10.389   5.800  1.9258 -0.0039  2.4944
  940MOL0     H29673  11.066  10.297   5.796  0.2471  0.0419 -1.5377
  940MOL0     H29674  11.057  10.225   5.577 -0.8650  0.3989 -2.5712
  940MOL0     H29675  10.894  10.283   5.548 -0.1633  1.6813 -1.1280
  940MOL0     H29676  11.037  10.445   5.448  4.8077 -1.2714  0.7146
  940MOL0     H29677  10.952  10.512   5.591  1.6114  0.2211  3.4979
  940MOL0     H29678  11.166  10.723   5.628  1.6073 -1.3095  1.5146
  940MOL0     H29679  11.282  10.945   5.536  0.6000 -2.9355  0.3968
  940MOL0     H29680  11.119  10.913   5.465 -1.4559  0.0385 -1.8552
  940MOL0     H29681  11.253  10.949   5.356  0.8991 -0.3101  1.1904
  940MOL0     H29682  11.678  10.788   5.200  0.4095  0.1983  1.0738
  940MOL0     H29683  11.863  10.872   5.057  0.5792 -0.3872 -1.6095
  940MOL0     H29684  11.802  10.970   4.617 -1.3012 -2.3315  3.8200
  940MOL0     H29685  11.751  11.114   4.714 -0.0012  1.5386 -0.2229
  940MOL0     H29686  11.934  11.162   4.552  1.7953 -0.2120 -0.9748
  940MOL0     H29687  11.985  11.188   4.721  1.7364  0.9812 -1.3393
  940MOL0     H29688  12.063  10.946   4.547  0.5338 -1.1270  0.4032
  940MOL0     H29689  12.102  10.959   4.703 -1.6565 -2.0214 -1.4305
  940MOL0     H29690  12.226  11.175   4.669 -0.3629  1.4838 -0.4428
  940MOL0     H29691  12.172  11.182   4.504 -0.0158  2.5804  1.6468
  940MOL0     H29692  12.352  10.988   4.655 -1.6788  0.2385  0.0842
  940MOL0     H29693  12.310  10.958   4.481  1.9714  0.4668 -2.0424
  940MOL0     H29694  12.442  11.217   4.562 -1.5898  0.9177 -1.0307
  940MOL0     H29695  12.423  11.158   4.401  4.1554  0.7361 -1.1311
  940MOL0     H29696  12.572  11.013   4.391  1.3060 -1.6877  1.0944
  940MOL0     H29697  12.567  10.967   4.570  0.2791 -0.6425 -1.0883
  940MOL0     H29698  12.780  11.073   4.482  1.2881  2.1782 -0.0929
  940MOL0     H29699  12.696  11.159   4.615 -2.3984 -2.0874  0.6167
  940MOL0     H29700  11.601  10.897   4.721  0.4200  2.3450  0.5600
  940MOL0     H29701  11.401  10.815   4.873 -1.1500  0.3685  1.5882
  940MOL0     H29702  11.439  10.541   5.249  0.4337 -0.7336 -0.0145
  940MOL0     H29703  11.300  10.390   5.403 -1.7234  0.3852 -0.3170
  940MOL0     H29704   9.884   9.543   5.293 -0.9301  1.7253  0.1770
  940MOL0     H29705   9.661   9.573   5.220  0.6608 -4.5176  1.1644
  940MOL0     H29706   9.407   9.829   4.995 -0.3859  1.2608  1.4789
  940MOL0     H29707   9.194   9.934   5.005 -0.1416 -1.0297  0.0273
  940MOL0     H29708   8.846   9.982   5.031  1.4391 -0.9380  1.3213
  940MOL0     H29709   9.003   9.981   5.090  0.1901 -1.6441  1.2629
  940MOL0     H29710   9.082  10.037   4.863  0.6228 -0.2951  4.1630
  940MOL0     H29711   8.974  10.167   4.910 -0.3583 -0.5857  3.0070
  940MOL0     H29712   8.941  10.097   4.675 -2.3681  2.1664  0.0660
  940MOL0     H29713   8.905   9.936   4.721  1.7981  0.8183 -4.3739
  940MOL0     H29714   8.691  10.046   4.842 -3.8936  1.2313 -1.8260
  940MOL0     H29715   8.700  10.089   4.669  1.0424  1.1451 -1.3123
  940MOL0     H29716   8.698  10.445   4.885  1.6988  0.1490  0.5031
  940MOL0     H29717   8.996   9.567   4.913  0.0298 -0.6315 -0.5131
  940MOL0     H29718   9.270   9.370   5.020  0.0325 -0.0687  0.4007
  940MOL0     H29719   9.121   9.361   4.908  0.0004  1.0508 -0.3974
  940MOL0     H29720   9.283   9.388   4.841 -0.2712  0.5251  0.1842
  941MOL0     O29721   5.816   6.185   0.789  0.0142  0.0713 -0.3624
  941MOL0     C29722   5.813   6.101   0.696  0.7945 -0.4910 -0.2337
  941MOL0     O29723   5.906   6.007   0.664 -1.0618  0.0763 -0.2010
  941MOL0     C29724   6.035   6.029   0.704  0.8212 -0.1813  0.0601
  941MOL0     C29725   6.114   6.120   0.623  0.4519  0.0855 -0.0133
  941MOL0     C29726   6.249   6.141   0.658 -0.2738  0.3781  0.1777
  941MOL0     C29727   6.300   6.075   0.775  0.1806  0.3473 -0.6337
  941MOL0     O29728   6.435   6.099   0.801 -0.1523  0.4015  0.4676
  941MOL0     C29729   6.512   5.982   0.847 -0.3634  0.3472  1.5191
  941MOL0     C29730   6.537   6.000   0.999  0.8494 -0.1627  0.6954
  941MOL0     C29731   6.569   5.873   1.071  0.8573 -0.0557 -0.0400
  941MOL0     C29732   6.473   5.828   1.185 -0.4366 -0.6664  0.1089
  941MOL0     C29733   6.516   5.709   1.269  0.1309  0.2718 -0.2196
  941MOL0     C29734   6.621   5.746   1.377  0.6362  0.4557 -1.1179
  941MOL0     C29735   6.664   5.618   1.465  0.9377 -0.2475 -0.0670
  941MOL0     C29736   6.778   5.649   1.561  0.1891  0.0914 -0.1542
  941MOL0     N29737   6.912   5.664   1.501 -0.0987 -0.2335 -0.3311
  941MOL0     C29738   6.958   5.783   1.446  0.5001  0.3642  0.2452
  941MOL0     C29739   7.065   5.744   1.373 -0.6412  0.6847  0.1248
  941MOL0     C29740   7.153   5.836   1.302 -0.4474 -0.3397  0.1391
  941MOL0     C29741   7.300   5.807   1.347 -0.0172  0.0841 -0.2205
  941MOL0     C29742   7.398   5.907   1.274  0.2227  1.5688  0.1414
  941MOL0     C29743   7.393   6.048   1.331 -0.8490 -0.3840  0.3301
  941MOL0     O29744   7.438   6.058   1.464 -0.1389  0.1247  0.4764
  941MOL0     C29745   7.567   6.094   1.488  0.1335 -0.0344  0.4506
  941MOL0     C29746   7.599   6.117   1.626 -0.4001 -0.8005 -0.4025
  941MOL0     C29747   7.720   6.172   1.667 -0.0613  0.5633  0.5091
  941MOL0     C29748   7.738   6.173   1.816  0.3292 -0.4573 -0.0126
  941MOL0     C29749   7.813   6.225   1.569  0.5489 -0.9797 -0.2002
  941MOL0     C29750   7.944   6.304   1.604  0.3295  0.1012  0.4819
  941MOL0     O29751   8.025   6.341   1.502  0.0568 -0.2304 -0.0726
  941MOL0     C29752   8.141   6.407   1.531  0.9859  0.5188  0.4050
  941MOL0     C29753   8.152   6.515   1.621  0.3454  0.5775  0.4536
  941MOL0     C29754   8.273   6.565   1.643 -0.2448 -0.5819 -0.6569
  941MOL0     C29755   8.382   6.520   1.576 -0.1641  0.1875 -0.7898
  941MOL0     O29756   8.497   6.579   1.621 -0.3331 -0.0988 -0.2692
  941MOL0     C29757   8.608   6.551   1.542  1.2621  0.4480 -0.1458
  941MOL0     C29758   8.712   6.642   1.590  0.1707 -0.8366 -0.4535
  941MOL0     C29759   8.843   6.622   1.515  0.0870  0.8537  0.2545
  941MOL0     C29760   8.965   6.657   1.613 -0.5253  0.4617  0.3466
  941MOL0     C29761   9.105   6.640   1.548  0.3214  0.2711 -0.2911
  941MOL0     C29762   9.209   6.654   1.669 -0.5045  0.0706 -0.2380
  941MOL0     C29763   9.354   6.633   1.629 -0.2897 -0.2295 -0.0257
  941MOL0     C29764   9.455   6.711   1.708 -0.9705 -0.3004 -0.4147
  941MOL0    Cl29765   9.605   6.705   1.613  0.5487 -0.1048 -0.4915
  941MOL0     C29766   8.375   6.414   1.478  0.2311  0.4010 -0.2299
  941MOL0     C29767   8.249   6.355   1.456 -0.6839  0.1070 -0.4363
  941MOL0     O29768   7.954   6.339   1.721  0.1286  0.2328  0.2290
  941MOL0     C29769   7.787   6.183   1.440  0.1144  0.0807  0.3201
  941MOL0     C29770   7.674   6.111   1.397  0.1591  0.5037 -0.5017
  941MOL0     N29771   7.082   5.605   1.398  0.0975 -1.2468  0.0882
  941MOL0     N29772   6.985   5.556   1.465  0.1533 -0.7246  0.3607
  941MOL0     C29773   6.215   5.992   0.858 -0.0906 -0.6556 -0.1882
  941MOL0     C29774   6.084   5.974   0.827  0.3017  0.7733  0.4948
  941MOL0     C29775   5.683   6.097   0.619  0.0249  0.9826  0.0643
  941MOL0     C29776   5.632   5.967   0.612  0.6402 -0.3537 -0.0669
  941MOL0     C29777   5.504   5.942   0.550  1.0323  0.0042  0.0390
  941MOL0     C29778   5.424   6.052   0.500 -0.1024 -0.0678  0.4006
  941MOL0     O29779   5.298   6.044   0.451 -0.0326  0.3823 -0.1094
  941MOL0     C29780   5.215   5.932   0.485 -0.2160  0.6736 -0.6010
  941MOL0     C29781   5.067   5.978   0.500 -1.5959 -0.1144 -0.3162
  941MOL0     C29782   4.987   5.856   0.542  0.5799  0.1955 -0.0715
  941MOL0     C29783   4.838   5.881   0.503 -0.1500 -0.2650  0.1346
  941MOL0     C29784   4.783   5.998   0.569  0.2460  0.3439 -0.1631
  941MOL0     C29785   4.751   6.101   0.626  0.4027  0.2192  0.5558
  941MOL0     C29786   5.487   6.177   0.500 -0.2091  0.0079 -0.4403
  941MOL0     C29787   5.609   6.205   0.563 -0.1369 -0.0518  0.5268
  941MOL0     C29788   5.648   6.350   0.585  0.6113  1.0240  0.4184
  941MOL0     H29789   6.051   6.168   0.549 -2.4881  0.3824  2.4977
  941MOL0     H29790   6.299   6.204   0.585 -0.6780 -0.0444 -0.4737
  941MOL0     H29791   6.602   5.993   0.786 -1.8290  0.1216 -0.7729
  941MOL0     H29792   6.466   5.888   0.816  2.2359 -0.5793  0.1979
  941MOL0     H29793   6.618   6.073   1.010 -0.0490  1.0472 -0.4499
  941MOL0     H29794   6.446   6.039   1.045 -1.9036 -4.7390 -0.2799
  941MOL0     H29795   6.572   5.784   1.007 -4.1429 -0.6499  0.1690
  941MOL0     H29796   6.670   5.882   1.113  0.4789 -1.3021  1.2327
  941MOL0     H29797   6.443   5.905   1.258  2.4481  1.0193 -0.3359
  941MOL0     H29798   6.378   5.814   1.133 -0.4074 -0.4025 -0.0163
  941MOL0     H29799   6.550   5.631   1.201 -1.0196  0.5610 -1.1533
  941MOL0     H29800   6.428   5.669   1.319 -1.3044  2.7042 -0.6274
  941MOL0     H29801   6.716   5.786   1.341  1.4256 -0.2134  0.1203
  941MOL0     H29802   6.571   5.819   1.442  0.4128  1.3594 -2.2829
  941MOL0     H29803   6.693   5.532   1.404 -1.5410 -1.2455  0.0633
  941MOL0     H29804   6.575   5.588   1.520 -0.5070  2.5590 -0.6914
  941MOL0     H29805   6.743   5.732   1.623 -0.6321 -0.5010  0.1887
  941MOL0     H29806   6.791   5.559   1.621  0.4155  0.7891  0.8691
  941MOL0     H29807   6.922   5.883   1.466  1.1646  0.6445  0.0377
  941MOL0     H29808   7.123   5.937   1.330 -1.9371 -0.7437  0.0447
  941MOL0     H29809   7.144   5.835   1.193 -0.6909  2.5225  0.0589
  941MOL0     H29810   7.313   5.810   1.455 -2.2666 -0.2063  0.0989
  941MOL0     H29811   7.321   5.710   1.300 -1.2636  1.0947 -3.1226
  941MOL0     H29812   7.501   5.872   1.285 -0.7940 -2.2454 -1.0695
  941MOL0     H29813   7.383   5.907   1.166 -0.0757 -1.5758  0.0822
  941MOL0     H29814   7.451   6.107   1.259 -2.1347 -1.3900 -1.6197
  941MOL0     H29815   7.291   6.086   1.339 -1.7906 -2.3042 -1.6152
  941MOL0     H29816   7.519   6.100   1.697 -0.0538  0.1100  0.2248
  941MOL0     H29817   7.647   6.139   1.865 -0.3454  2.0349  0.6366
  941MOL0     H29818   7.741   6.279   1.842 -1.5250 -0.6800  1.2898
  941MOL0     H29819   7.831   6.126   1.851  0.6015  0.5266  0.6219
  941MOL0     H29820   8.060   6.544   1.670  0.7592 -0.9361  2.1865
  941MOL0     H29821   8.292   6.653   1.703  1.2069 -2.4112  1.7565
  941MOL0     H29822   8.623   6.444   1.560 -1.2709 -0.7041 -3.8172
  941MOL0     H29823   8.596   6.563   1.434 -0.0694 -2.3362 -0.4053
  941MOL0     H29824   8.688   6.748   1.580  1.4695 -0.5144 -0.3478
  941MOL0     H29825   8.716   6.629   1.699 -0.5336  2.3167  0.0414
  941MOL0     H29826   8.844   6.695   1.434 -1.8023  0.0807 -0.5029
  941MOL0     H29827   8.851   6.521   1.475  0.1534  2.1423 -3.3681
  941MOL0     H29828   8.961   6.591   1.700 -1.6375 -0.7456 -0.5866
  941MOL0     H29829   8.952   6.763   1.639 -3.1208  0.7783 -1.8225
  941MOL0     H29830   9.101   6.535   1.517  1.1151  0.7552 -2.1813
  941MOL0     H29831   9.130   6.710   1.468 -1.7174  1.6772  0.2145
  941MOL0     H29832   9.197   6.570   1.738 -0.4335 -1.0599 -1.5397
  941MOL0     H29833   9.195   6.748   1.723 -2.4443 -1.0316  1.3131
  941MOL0     H29834   9.376   6.651   1.523  3.4259  1.6084  0.8863
  941MOL0     H29835   9.379   6.527   1.633 -1.9070 -0.7675 -2.2418
  941MOL0     H29836   9.466   6.670   1.809 -0.1123  0.0702 -0.3447
  941MOL0     H29837   9.424   6.815   1.725 -3.1178 -0.8891 -0.4655
  941MOL0     H29838   8.458   6.366   1.426  1.6945  0.9463  1.4885
  941MOL0     H29839   8.231   6.277   1.384 -0.6770  2.7760 -3.5777
  941MOL0     H29840   7.869   6.202   1.372 -1.6161 -0.8458 -2.1556
  941MOL0     H29841   7.664   6.087   1.292 -1.3128 -0.1038 -0.2325
  941MOL0     H29842   6.249   5.945   0.950  1.0616  0.1022 -0.2171
  941MOL0     H29843   6.023   5.908   0.888  0.6540 -0.0770 -0.0556
  941MOL0     H29844   5.686   5.880   0.649  0.3842 -1.3162 -1.8634
  941MOL0     H29845   5.462   5.843   0.563  0.5789  0.1668 -0.1644
  941MOL0     H29846   5.225   5.848   0.415  0.8335 -0.8420  1.2871
  941MOL0     H29847   5.244   5.899   0.585 -0.0095  1.0459 -0.5323
  941MOL0     H29848   5.027   6.015   0.405 -4.5963 -0.7153  0.6007
  941MOL0     H29849   5.062   6.055   0.577 -2.4423 -0.9268  0.4684
  941MOL0     H29850   5.007   5.762   0.490 -0.5228 -0.0916 -0.0050
  941MOL0     H29851   5.014   5.828   0.644 -1.1311 -0.1375  0.3175
  941MOL0     H29852   4.784   5.787   0.518 -1.4470  0.1790 -1.4421
  941MOL0     H29853   4.837   5.888   0.394  4.4677 -0.5290 -0.1242
  941MOL0     H29854   4.729   6.193   0.675 -1.5026  1.2108 -1.9280
  941MOL0     H29855   5.429   6.261   0.464  0.2621  0.4573 -0.1553
  941MOL0     H29856   5.577   6.407   0.646 -0.7776 -0.6071  0.4199
  941MOL0     H29857   5.742   6.350   0.640  1.1003  0.5691 -0.3950
  941MOL0     H29858   5.662   6.404   0.491 -1.2111  0.0943 -0.4507
  942MOL0     O29859   1.324   5.552   7.503  0.0442 -0.2327 -0.1178
  942MOL0     C29860   1.275   5.667   7.482  0.8769  0.1435 -0.1150
  942MOL0     O29861   1.345   5.777   7.451  0.4285 -0.0425  1.0124
  942MOL0     C29862   1.469   5.750   7.407 -0.8013  0.4592 -0.1461
  942MOL0     C29863   1.495   5.731   7.271 -0.4761  0.0141  0.1997
  942MOL0     C29864   1.624   5.702   7.229 -0.6948  0.2123  0.0807
  942MOL0     C29865   1.722   5.677   7.327 -0.3734 -1.1724  0.5747
  942MOL0     O29866   1.850   5.643   7.291 -0.1614 -0.1304  0.5071
  942MOL0     C29867   1.886   5.511   7.340 -0.1297  0.7541 -0.2916
  942MOL0     C29868   2.003   5.447   7.265 -0.9216  0.4023 -0.8079
  942MOL0     C29869   1.959   5.425   7.119  0.1796  0.2030 -0.7288
  942MOL0     C29870   2.046   5.324   7.048  0.1172  0.0032 -0.4964
  942MOL0     C29871   2.202   5.367   7.057 -0.3142  0.1838 -0.7347
  942MOL0     C29872   2.298   5.276   6.977 -0.3522  0.1065  0.1249
  942MOL0     C29873   2.435   5.331   7.009  0.2591 -0.2196 -0.1942
  942MOL0     C29874   2.536   5.285   6.893  0.0150  0.1923 -0.2769
  942MOL0     N29875   2.572   5.149   6.914  0.0026 -0.5627 -0.7297
  942MOL0     C29876   2.652   5.110   7.018 -0.0547 -0.4108 -0.2617
  942MOL0     C29877   2.666   4.981   6.997 -0.7383  0.1020 -0.5572
  942MOL0     C29878   2.752   4.881   7.087 -0.7287  0.0782 -0.7699
  942MOL0     C29879   2.870   4.828   7.009 -0.4145  0.7364  0.4484
  942MOL0     C29880   2.972   4.757   7.096 -0.1528  0.2291 -0.1105
  942MOL0     C29881   2.919   4.662   7.190 -0.2056  0.6839  0.4057
  942MOL0     O29882   3.026   4.591   7.253 -1.0709  0.9189 -0.2461
  942MOL0     C29883   3.071   4.651   7.369  0.1650  0.0226  0.5001
  942MOL0     C29884   2.997   4.659   7.489  0.3112  0.0438 -0.6125
  942MOL0     C29885   3.037   4.707   7.617  0.3798  0.9316  0.5243
  942MOL0     C29886   2.931   4.702   7.728  0.1180 -0.9430 -0.1978
  942MOL0     C29887   3.175   4.741   7.626  0.3351  0.5381  0.2015
  942MOL0     C29888   3.239   4.793   7.747 -0.7762 -0.0010  0.3196
  942MOL0     O29889   3.354   4.869   7.715 -0.6808  0.4441 -0.0314
  942MOL0     C29890   3.429   4.911   7.826  0.1725 -0.0584  0.0590
  942MOL0     C29891   3.536   4.825   7.867  0.2394 -0.7470  0.2653
  942MOL0     C29892   3.611   4.857   7.978 -0.6097  0.1095 -0.3730
  942MOL0     C29893   3.595   4.974   8.039  0.1254 -0.4032 -0.1316
  942MOL0     O29894   3.673   4.990   8.142 -1.0290  0.1509  0.1834
  942MOL0     C29895   3.659   5.104   8.224 -0.9669 -0.1290 -0.8696
  942MOL0     C29896   3.779   5.114   8.317 -0.2978  0.2272  0.0541
  942MOL0     C29897   3.916   5.092   8.253 -0.5684 -0.4803  0.0460
  942MOL0     C29898   4.036   5.103   8.349  0.4892 -0.1239  0.3849
  942MOL0     C29899   4.157   5.035   8.276  0.4643 -0.0042 -0.2398
  942MOL0     C29900   4.272   5.026   8.375  0.9387  0.0296  0.3006
  942MOL0     C29901   4.317   5.165   8.423  0.5047  0.2146  0.1757
  942MOL0     C29902   4.438   5.160   8.514 -0.7758  0.1240 -0.3908
  942MOL0    Cl29903   4.404   5.083   8.671  0.1976 -0.2800  0.2762
  942MOL0     C29904   3.497   5.068   8.001 -0.2900 -0.0832 -0.2117
  942MOL0     C29905   3.410   5.036   7.897  0.0097 -0.4341 -0.0110
  942MOL0     O29906   3.202   4.757   7.868  0.5126  0.7240  0.1911
  942MOL0     C29907   3.253   4.741   7.504  0.3653 -0.5116 -0.0164
  942MOL0     C29908   3.196   4.708   7.383 -0.5817 -0.3444  0.1303
  942MOL0     N29909   2.588   4.940   6.887  0.3177 -0.1753  0.0343
  942MOL0     N29910   2.548   5.046   6.832 -0.7841  1.3012 -0.6516
  942MOL0     C29911   1.701   5.706   7.459  0.2888 -0.4050  0.6176
  942MOL0     C29912   1.573   5.745   7.497 -0.5845 -0.1423 -0.2162
  942MOL0     C29913   1.118   5.689   7.488 -0.6790  0.0243  0.6227
  942MOL0     C29914   1.074   5.821   7.453 -0.1492 -0.4735  0.1897
  942MOL0     C29915   0.937   5.843   7.445  0.9058 -0.1637 -0.5874
  942MOL0     C29916   0.835   5.752   7.477  0.3775 -0.4633 -0.6435
  942MOL0     O29917   0.702   5.778   7.477 -0.7640 -0.3307  0.6420
  942MOL0     C29918   0.661   5.912   7.437  0.4279 -0.6619 -0.5353
  942MOL0     C29919   0.503   5.932   7.446 -0.5749 -0.5486 -0.0839
  942MOL0     C29920   0.446   5.956   7.583 -0.4401 -0.7772 -0.1932
  942MOL0     C29921   0.492   5.849   7.690 -1.0099  0.1482  0.1039
  942MOL0     C29922   0.424   5.884   7.810  1.6015  0.2283  0.5586
  942MOL0     C29923   0.361   5.908   7.917  0.8037 -0.2362  0.9684
  942MOL0     C29924   0.884   5.627   7.515  0.4469  0.6181 -0.1588
  942MOL0     C29925   1.019   5.585   7.514 -0.5016  0.1342  0.6235
  942MOL0     C29926   1.048   5.444   7.544  0.8512  0.5381  0.8656
  942MOL0     H29927   1.413   5.737   7.200  1.2455  1.7783 -1.7848
  942MOL0     H29928   1.648   5.704   7.123  1.8497 -0.6438  0.5657
  942MOL0     H29929   1.807   5.437   7.323  1.9602 -1.0822 -2.9407
  942MOL0     H29930   1.915   5.516   7.445 -1.7255  2.8284  0.1086
  942MOL0     H29931   2.081   5.523   7.255 -1.9666  1.7848  0.8846
  942MOL0     H29932   2.041   5.358   7.317  1.6294  2.2977  0.8788
  942MOL0     H29933   1.854   5.394   7.116  0.4567 -1.3713  2.0798
  942MOL0     H29934   1.971   5.521   7.069  2.1404 -0.6110 -1.9756
  942MOL0     H29935   2.031   5.221   7.082 -1.2380  1.1050  2.6704
  942MOL0     H29936   2.022   5.321   6.942 -0.5097 -1.3883 -0.3360
  942MOL0     H29937   2.235   5.368   7.161 -0.3683  3.1745 -0.6675
  942MOL0     H29938   2.208   5.467   7.014  3.5969  0.4827  0.1510
  942MOL0     H29939   2.283   5.170   6.998 -6.8212  0.6978  0.7599
  942MOL0     H29940   2.261   5.285   6.874  2.7128 -0.3728 -1.1136
  942MOL0     H29941   2.460   5.291   7.108 -2.1167 -3.1473 -0.6206
  942MOL0     H29942   2.428   5.440   7.008 -2.8834 -0.2660  1.2805
  942MOL0     H29943   2.495   5.289   6.792 -3.3435 -1.8248  0.8282
  942MOL0     H29944   2.633   5.333   6.910  0.0444 -0.1973  0.7343
  942MOL0     H29945   2.697   5.171   7.095  0.3665 -2.9340  1.6210
  942MOL0     H29946   2.702   4.799   7.139  2.4011 -1.1784  0.4681
  942MOL0     H29947   2.790   4.942   7.169  0.0305 -1.7712  0.3111
  942MOL0     H29948   2.833   4.763   6.929  0.1382  0.6904  0.2254
  942MOL0     H29949   2.915   4.914   6.959  1.2918 -0.6779 -0.5705
  942MOL0     H29950   3.038   4.702   7.029  1.7986  0.1017  1.8228
  942MOL0     H29951   3.029   4.829   7.156 -1.4427  0.4870  0.8514
  942MOL0     H29952   2.857   4.714   7.264 -0.9373  0.2661  0.1036
  942MOL0     H29953   2.848   4.596   7.140 -1.8619  3.4826 -1.1977
  942MOL0     H29954   2.893   4.633   7.474 -1.1000  4.5479 -0.1059
  942MOL0     H29955   2.926   4.798   7.780  2.4182 -0.7878 -0.1627
  942MOL0     H29956   2.953   4.630   7.808  0.5844  1.2959  1.8012
  942MOL0     H29957   2.840   4.653   7.691  0.8025 -2.7653  0.4093
  942MOL0     H29958   3.544   4.736   7.805  5.6837  2.0006 -3.9529
  942MOL0     H29959   3.684   4.785   8.013 -0.1455  1.0759  0.7121
  942MOL0     H29960   3.655   5.198   8.168 -1.1709  0.7011  0.4864
  942MOL0     H29961   3.566   5.102   8.282  0.6588  1.9407  2.0470
  942MOL0     H29962   3.777   5.216   8.355  1.6574 -0.1600  1.3230
  942MOL0     H29963   3.770   5.045   8.402  1.8966  0.9981  1.0024
  942MOL0     H29964   3.934   5.155   8.166  0.4875  0.6680  1.0553
  942MOL0     H29965   3.913   4.995   8.202 -2.8584  1.1983 -3.2868
  942MOL0     H29966   4.012   5.058   8.446  0.6994 -1.3861 -0.1245
  942MOL0     H29967   4.067   5.207   8.362  1.7758  0.1335 -3.5954
  942MOL0     H29968   4.130   4.933   8.244  0.4412  0.6008 -2.2680
  942MOL0     H29969   4.195   5.091   8.190 -3.7677 -0.5634 -2.7884
  942MOL0     H29970   4.364   4.985   8.332  2.9513  2.2713  2.1977
  942MOL0     H29971   4.244   4.958   8.457 -1.2696  1.7135  1.0324
  942MOL0     H29972   4.236   5.221   8.472  2.7432  2.0282  2.0253
  942MOL0     H29973   4.339   5.224   8.334 -0.4701 -2.3920 -1.9562
  942MOL0     H29974   4.484   5.259   8.526 -4.4589  2.2595 -1.8914
  942MOL0     H29975   4.514   5.096   8.469  0.5035  1.1567  0.2264
  942MOL0     H29976   3.483   5.161   8.055 -3.3998  0.1319 -1.1574
  942MOL0     H29977   3.337   5.108   7.862  1.0650  1.3306  1.2498
  942MOL0     H29978   3.356   4.776   7.505 -0.2943  2.0312 -2.8660
  942MOL0     H29979   3.258   4.700   7.294  1.8080 -0.3363  1.7045
  942MOL0     H29980   1.773   5.705   7.540 -1.0659  0.6872  1.8767
  942MOL0     H29981   1.561   5.768   7.602  2.8137  3.2833 -0.3507
  942MOL0     H29982   1.144   5.898   7.425  2.0045 -2.3862  0.0024
  942MOL0     H29983   0.908   5.942   7.412 -1.4208  0.1557  2.0242
  942MOL0     H29984   0.713   5.987   7.498 -1.6348 -0.5627  1.2295
  942MOL0     H29985   0.681   5.918   7.330  0.4455  0.9860 -0.4747
  942MOL0     H29986   0.454   5.843   7.406 -0.5613 -0.9949  0.8844
  942MOL0     H29987   0.473   6.020   7.388 -1.2037 -0.7346 -0.0466
  942MOL0     H29988   0.476   6.057   7.612 -0.8847  0.1681 -2.7567
  942MOL0     H29989   0.338   5.945   7.573 -1.1523  2.2496  2.4977
  942MOL0     H29990   0.600   5.858   7.707 -0.5992  0.9145 -2.4970
  942MOL0     H29991   0.464   5.747   7.662 -2.2582  0.4009  0.3823
  942MOL0     H29992   0.321   5.937   8.012  0.2017  2.0940  0.0552
  942MOL0     H29993   0.810   5.550   7.538  1.4562 -0.5445 -0.6816
  942MOL0     H29994   1.085   5.433   7.646 -0.1363 -2.0545  1.0102
  942MOL0     H29995   0.967   5.374   7.525  1.3171  0.0789  0.5544
  942MOL0     H29996   1.126   5.405   7.479  1.0990 -2.0669  2.5765
  943MOL0     O29997   1.877   7.690   9.126  0.0150  0.2143 -0.3387
  943MOL0     C29998   1.968   7.629   9.063 -0.4100  0.1089 -0.4500
  943MOL0     O29999   2.093   7.677   9.030  0.4597 -0.6860 -0.2414
  943MOL0     C30000   2.126   7.787   9.100 -0.5759  0.3118  0.8404
  943MOL0     C30001   2.131   7.917   9.043 -0.3853  0.5733  0.6545
  943MOL0     C30002   2.191   8.025   9.112  0.3878  1.1140 -0.5199
  943MOL0     C30003   2.245   8.008   9.240 -0.0608 -0.2687  0.0331
  943MOL0     O30004   2.315   8.106   9.311  0.4838 -0.4426  0.3272
  943MOL0     C30005   2.362   8.226   9.238  0.5341  0.1298  0.5751
  943MOL0     C30006   2.450   8.311   9.327  0.0579  0.3830 -0.4126
  943MOL0     C30007   2.364   8.368   9.447 -0.0926 -0.4508 -0.2000
  943MOL0     C30008   2.444   8.492   9.502 -0.6156  0.4453 -0.0017
  943MOL0     C30009   2.369   8.563   9.610 -0.6719 -0.2997 -0.2878
  943MOL0     C30010   2.452   8.627   9.720 -0.2207  0.5775 -1.2215
  943MOL0     C30011   2.521   8.750   9.680 -0.5666 -0.3789 -0.0021
  943MOL0     C30012   2.572   8.817   9.811  0.8536 -0.0066 -0.7237
  943MOL0     N30013   2.660   8.922   9.774  0.3549  0.0772  0.2815
  943MOL0     C30014   2.733   8.996   9.863 -0.7789  0.6500 -0.0139
  943MOL0     C30015   2.772   9.103   9.796 -0.1370  0.3289  0.0319
  943MOL0     C30016   2.862   9.210   9.852  0.6368 -0.2406  0.0046
  943MOL0     C30017   3.011   9.204   9.813  0.1542  0.4640  0.6943
  943MOL0     C30018   3.105   9.295   9.889 -0.2896 -0.3147  0.1199
  943MOL0     C30019   3.253   9.261   9.873 -0.0438 -0.2482 -0.1497
  943MOL0     O30020   3.343   9.371   9.887  0.3431  0.5530 -1.0570
  943MOL0     C30021   3.474   9.358   9.947  0.4773 -0.4322 -0.3258
  943MOL0     C30022   3.544   9.238   9.978 -0.0211  0.0376 -0.8191
  943MOL0     C30023   3.669   9.247  10.048  0.2289 -0.4608  0.4420
  943MOL0     C30024   3.730   9.108  10.081  0.2169  0.3411  0.3707
  943MOL0     C30025   3.716   9.380  10.084  0.6339 -0.1012 -1.0006
  943MOL0     C30026   3.837   9.404  10.177  0.1214 -0.2408 -0.3980
  943MOL0     O30027   3.879   9.533  10.194  0.8824 -0.2806  0.3404
  943MOL0     C30028   3.985   9.568  10.280 -0.0738 -0.2930  0.5804
  943MOL0     C30029   4.010   9.509  10.411  0.4578  0.5277 -0.2461
  943MOL0     C30030   4.107   9.555  10.497 -0.5011 -0.5513 -0.4996
  943MOL0     C30031   4.195   9.658  10.448  0.4832 -0.1753  0.8871
  943MOL0     O30032   4.295   9.717  10.522 -0.6035  0.5054  0.0386
  943MOL0     C30033   4.331   9.658  10.652  0.1742 -0.0058 -0.0098
  943MOL0     C30034   4.455   9.728  10.712 -0.6996 -0.3106 -0.1944
  943MOL0     C30035   4.590   9.703  10.641  0.5421  0.6042 -0.2205
  943MOL0     C30036   4.701   9.796  10.688 -0.0756 -0.0702  0.3565
  943MOL0     C30037   4.839   9.739  10.645  0.1804 -0.7024  0.5982
  943MOL0     C30038   4.960   9.823  10.657  0.0487  0.2952 -0.2968
  943MOL0     C30039   5.080   9.749  10.607 -0.1679  0.2251  0.1890
  943MOL0     C30040   5.215   9.818  10.614  0.2588  0.0398  1.0651
  943MOL0    Cl30041   5.355   9.703  10.629 -0.1361 -0.0156 -0.7787
  943MOL0     C30042   4.165   9.717  10.325 -1.1023 -0.6496  0.1607
  943MOL0     C30043   4.066   9.677  10.248  0.7439 -0.2467  0.2163
  943MOL0     O30044   3.897   9.308  10.216  0.8519  0.9017  0.3079
  943MOL0     C30045   3.645   9.491  10.040 -0.5352  0.2852  0.3229
  943MOL0     C30046   3.525   9.487   9.978  0.6407  0.3915  0.7482
  943MOL0     N30047   2.735   9.092   9.658  0.0748  0.1041  0.3918
  943MOL0     N30048   2.668   8.981   9.655 -0.1222  0.3404 -0.0088
  943MOL0     C30049   2.246   7.880   9.294  0.5714  0.6990  0.8626
  943MOL0     C30050   2.183   7.774   9.230  0.0784 -0.6350  0.2732
  943MOL0     C30051   1.940   7.491   9.009 -0.6562 -0.2326 -0.3613
  943MOL0     C30052   2.048   7.399   9.004 -0.6343  0.2442 -0.4170
  943MOL0     C30053   2.035   7.269   8.950 -0.1629  0.0535 -0.2534
  943MOL0     C30054   1.912   7.228   8.899  0.6342  0.3890  0.7215
  943MOL0     O30055   1.881   7.099   8.855  0.4927 -0.2828  0.3586
  943MOL0     C30056   1.967   6.989   8.879  0.7138  0.2261  0.0202
  943MOL0     C30057   1.879   6.862   8.857  0.7347 -0.3130  0.7308
  943MOL0     C30058   1.951   6.745   8.922 -0.9308 -0.5760  0.3268
  943MOL0     C30059   1.905   6.612   8.849  0.9794 -0.4331  0.0399
  943MOL0     C30060   1.918   6.494   8.934  0.6538  0.2371  0.5261
  943MOL0     C30061   1.947   6.401   9.001  0.6563 -0.6133  0.1945
  943MOL0     C30062   1.807   7.326   8.887 -0.8587  0.2903 -0.2513
  943MOL0     C30063   1.817   7.452   8.944 -0.5907 -0.4988  0.0073
  943MOL0     C30064   1.703   7.556   8.931  0.8187  0.2458 -0.5763
  943MOL0     H30065   2.099   7.935   8.940 -4.5200 -0.1451  1.6291
  943MOL0     H30066   2.187   8.118   9.056  1.5356 -0.0262 -2.6313
  943MOL0     H30067   2.272   8.281   9.210 -0.9968 -3.7389 -3.2488
  943MOL0     H30068   2.415   8.197   9.147  2.0136  0.0217  1.4355
  943MOL0     H30069   2.523   8.238   9.362  0.2873 -0.1842 -1.9704
  943MOL0     H30070   2.500   8.386   9.265  5.2069  0.4868  3.2698
  943MOL0     H30071   2.273   8.413   9.407  2.1766  1.3958 -3.7642
  943MOL0     H30072   2.346   8.299   9.530  1.8533 -2.2048 -1.1510
  943MOL0     H30073   2.536   8.447   9.538 -0.5536 -0.4332 -1.1877
  943MOL0     H30074   2.473   8.558   9.420  0.3778  2.2313  1.7087
  943MOL0     H30075   2.299   8.490   9.652  1.2703 -0.9967  1.9580
  943MOL0     H30076   2.309   8.643   9.566  0.8027 -0.2907 -2.4771
  943MOL0     H30077   2.390   8.644   9.809  2.5213  1.1441  0.7226
  943MOL0     H30078   2.531   8.556   9.746  0.3406  1.6372  0.0966
  943MOL0     H30079   2.444   8.807   9.628 -1.5156 -1.9295 -0.3509
  943MOL0     H30080   2.599   8.724   9.608 -1.1382 -1.1443 -0.3535
  943MOL0     H30081   2.490   8.861   9.869  0.0150  1.9456 -3.2018
  943MOL0     H30082   2.630   8.746   9.870 -2.7977 -1.0523  2.0177
  943MOL0     H30083   2.764   8.986   9.966  0.3969 -0.0226 -0.4185
  943MOL0     H30084   2.848   9.211   9.961 -0.6999 -1.7066 -0.1268
  943MOL0     H30085   2.816   9.304   9.821  2.3899  0.1446 -1.5377
  943MOL0     H30086   3.047   9.101   9.822  0.1746  0.5762  2.1922
  943MOL0     H30087   3.029   9.227   9.707  1.5066 -0.5813  0.6659
  943MOL0     H30088   3.086   9.393   9.845 -1.2627  0.8469  2.9122
  943MOL0     H30089   3.091   9.299   9.997  4.2771  2.1525  0.8593
  943MOL0     H30090   3.277   9.184   9.947 -1.1067  1.4599  2.1170
  943MOL0     H30091   3.272   9.214   9.777  0.0164  0.1855 -0.3506
  943MOL0     H30092   3.513   9.140   9.941  0.5861 -1.9283  3.3467
  943MOL0     H30093   3.831   9.094  10.041  0.4770  0.6340  0.9133
  943MOL0     H30094   3.673   9.019  10.054  1.6826 -1.0784  1.7686
  943MOL0     H30095   3.752   9.105  10.188 -0.1028  0.3301  0.4378
  943MOL0     H30096   3.966   9.417  10.449  3.0486  1.1399  5.1698
  943MOL0     H30097   4.134   9.503  10.588  1.3255  1.5245  0.2364
  943MOL0     H30098   4.247   9.663  10.723  1.6653 -1.9006  2.0543
  943MOL0     H30099   4.349   9.550  10.644 -0.4234 -0.0392 -1.0655
  943MOL0     H30100   4.419   9.831  10.716 -0.9823 -0.2647 -2.5870
  943MOL0     H30101   4.468   9.701  10.818 -2.6517 -2.2289 -0.3791
  943MOL0     H30102   4.567   9.717  10.535 -0.8212  0.8667  0.0893
  943MOL0     H30103   4.614   9.597  10.658 -0.7939  0.6188  2.3411
  943MOL0     H30104   4.691   9.794  10.797  0.3307  2.0180  0.4778
  943MOL0     H30105   4.697   9.898  10.648  2.9061  0.9249  2.3100
  943MOL0     H30106   4.857   9.647  10.701  3.7561 -0.5214 -0.0005
  943MOL0     H30107   4.835   9.712  10.539  0.6665  0.3536  0.2981
  943MOL0     H30108   4.982   9.839  10.763 -6.0003  3.6929  0.9501
  943MOL0     H30109   4.944   9.922  10.613  0.4575  0.3240 -0.3825
  943MOL0     H30110   5.064   9.716  10.504 -1.8007 -3.3383  1.4523
  943MOL0     H30111   5.095   9.668  10.678  0.1637 -1.3921 -1.6485
  943MOL0     H30112   5.232   9.880  10.703  3.4466  1.2839 -0.2756
  943MOL0     H30113   5.230   9.878  10.524 -0.4474 -1.8497 -0.3822
  943MOL0     H30114   4.229   9.787  10.273 -0.7384  0.0195  1.4562
  943MOL0     H30115   4.040   9.727  10.155 -1.0241 -1.6071 -0.0918
  943MOL0     H30116   3.679   9.592  10.062 -2.3332  0.8576  0.6792
  943MOL0     H30117   3.467   9.575   9.950 -0.9877 -1.1774 -1.1048
  943MOL0     H30118   2.290   7.866   9.392  2.4171 -1.5615 -0.1705
  943MOL0     H30119   2.212   7.674   9.262  1.1850 -0.6603 -0.7307
  943MOL0     H30120   2.138   7.436   9.053 -1.9223  0.8135  1.6853
  943MOL0     H30121   2.117   7.198   8.948 -2.0744 -2.2653 -1.1243
  943MOL0     H30122   2.054   6.985   8.812  2.0056 -1.2990  1.7072
  943MOL0     H30123   2.016   6.999   8.976 -0.2878 -0.6928  0.6453
  943MOL0     H30124   1.859   6.834   8.753 -2.7285 -0.5468  1.3419
  943MOL0     H30125   1.781   6.879   8.902 -0.4897  0.6638 -2.1203
  943MOL0     H30126   2.060   6.751   8.912 -0.7731 -2.8678  0.1536
  943MOL0     H30127   1.929   6.746   9.029  2.2731 -0.3585  1.1057
  943MOL0     H30128   1.956   6.589   8.755 -1.4277 -0.2714 -1.4000
  943MOL0     H30129   1.796   6.624   8.840  1.1149  2.6224  1.1225
  943MOL0     H30130   1.971   6.318   9.064  1.0970 -0.4617  0.2318
  943MOL0     H30131   1.721   7.293   8.830  0.3847 -3.3360 -0.2982
  943MOL0     H30132   1.668   7.598   9.026  2.5737  0.9866 -0.2161
  943MOL0     H30133   1.727   7.638   8.864  2.0308  1.4811  1.2774
  943MOL0     H30134   1.616   7.507   8.887  0.0962 -0.7223  1.7365
  944MOL0     O30135   9.839   2.856  11.037  0.4937  0.3030 -0.1716
  944MOL0     C30136   9.841   2.925  10.936  0.4894  0.0780 -0.4169
  944MOL0     O30137   9.953   2.954  10.869  0.1723  0.1895  0.5242
  944MOL0     C30138  10.063   2.878  10.901 -0.1905 -0.0152 -0.1481
  944MOL0     C30139  10.123   2.884  11.026  1.1406 -0.4281  0.1168
  944MOL0     C30140  10.245   2.828  11.054  0.7325  0.1626 -0.3610
  944MOL0     C30141  10.314   2.758  10.954 -0.1274 -1.0107  0.1558
  944MOL0     O30142  10.421   2.686  10.994 -0.2080  0.0530 -0.0958
  944MOL0     C30143  10.527   2.667  10.897 -0.1406  1.2327 -0.0151
  944MOL0     C30144  10.650   2.622  10.972 -0.6785  0.6509  0.1563
  944MOL0     C30145  10.743   2.544  10.875  0.1420  0.0223  0.1214
  944MOL0     C30146  10.853   2.648  10.824 -0.2931 -0.2975 -0.8040
  944MOL0     C30147  10.955   2.585  10.737 -0.1882 -0.0804 -0.0572
  944MOL0     C30148  11.034   2.705  10.679 -0.5273 -0.2402  0.4503
  944MOL0     C30149  11.169   2.675  10.608  0.4612 -0.7511  0.1186
  944MOL0     C30150  11.281   2.637  10.704 -0.0986  0.0358  0.0423
  944MOL0     N30151  11.400   2.613  10.628 -0.9707  0.1562 -0.4678
  944MOL0     C30152  11.449   2.496  10.574 -0.8163  0.4982  0.0709
  944MOL0     C30153  11.568   2.527  10.511 -0.6975 -0.5803  0.6797
  944MOL0     C30154  11.666   2.432  10.437  1.0027 -0.3744 -0.3760
  944MOL0     C30155  11.726   2.331  10.533  1.2207  1.1616 -0.3012
  944MOL0     C30156  11.846   2.269  10.470 -0.9865 -0.0749 -0.2303
  944MOL0     C30157  11.949   2.227  10.582  0.6680 -0.3801 -0.1764
  944MOL0     O30158  12.078   2.239  10.528  0.1894  0.5217 -0.2410
  944MOL0     C30159  12.184   2.253  10.617 -0.3200 -0.1312  0.0861
  944MOL0     C30160  12.265   2.357  10.596 -0.6234 -1.0139  1.0648
  944MOL0     C30161  12.367   2.398  10.675  0.1795  0.7510 -0.1171
  944MOL0     C30162  12.460   2.507  10.630  0.5146 -1.4214  1.0632
  944MOL0     C30163  12.394   2.330  10.796  0.5871 -0.1575 -0.2286
  944MOL0     C30164  12.493   2.365  10.904 -1.1532 -0.9983  0.0262
  944MOL0     O30165  12.534   2.259  10.981  0.5432 -0.0529 -0.4376
  944MOL0     C30166  12.653   2.259  11.051 -0.1243  0.4108 -0.1513
  944MOL0     C30167  12.754   2.355  11.043 -0.3108  0.0234  0.7561
  944MOL0     C30168  12.874   2.337  11.111  0.1205 -0.0229  0.4843
  944MOL0     C30169  12.894   2.219  11.183 -0.1098  0.0426  0.7145
  944MOL0     O30170  13.006   2.202  11.255  0.7807  0.1041  0.8228
  944MOL0     C30171  13.121   2.206  11.178  0.3129 -0.5933  0.7223
  944MOL0     C30172  13.220   2.108  11.246 -0.2438 -1.2049  0.2987
  944MOL0     C30173  13.274   2.156  11.378 -0.0380 -0.1816  0.7421
  944MOL0     C30174  13.370   2.044  11.431  0.3221 -0.0168 -0.0314
  944MOL0     C30175  13.447   2.093  11.556 -0.6186  0.4784 -0.3210
  944MOL0     C30176  13.515   1.975  11.620 -0.3857 -0.4027 -0.2340
  944MOL0     C30177  13.414   1.885  11.688  0.2465 -0.2938  0.3393
  944MOL0     C30178  13.477   1.809  11.807  0.2422  0.4066  0.3832
  944MOL0    Cl30179  13.590   1.682  11.754 -0.4152 -0.0643 -0.3112
  944MOL0     C30180  12.793   2.123  11.188 -1.1751 -0.1555  0.4316
  944MOL0     C30181  12.678   2.145  11.120 -0.5789 -0.4183 -0.5988
  944MOL0     O30182  12.520   2.479  10.930  0.7126  0.2178  0.5957
  944MOL0     C30183  12.313   2.222  10.822  0.4610  0.8400 -0.6594
  944MOL0     C30184  12.206   2.183  10.738 -0.3913  0.2867  0.2714
  944MOL0     N30185  11.585   2.663  10.528  0.2599  0.3003  0.2391
  944MOL0     N30186  11.491   2.710  10.603 -0.5394  0.0884  0.6525
  944MOL0     C30187  10.258   2.749  10.820 -0.9512 -0.2975 -1.1092
  944MOL0     C30188  10.135   2.810  10.798  0.6382  0.2995 -1.0336
  944MOL0     C30189   9.715   2.992  10.889 -0.1054 -0.4736 -0.0049
  944MOL0     C30190   9.728   3.093  10.802  0.0928 -0.4585  0.3343
  944MOL0     C30191   9.621   3.166  10.757 -0.2365  0.6621  0.4330
  944MOL0     C30192   9.489   3.142  10.805  0.1276  0.3762  0.4559
  944MOL0     O30193   9.394   3.228  10.763 -0.3938 -0.2165  0.8012
  944MOL0     C30194   9.406   3.370  10.769 -0.3182  0.5503 -0.1756
  944MOL0     C30195   9.267   3.425  10.732  0.1313 -0.4078 -0.5528
  944MOL0     C30196   9.266   3.576  10.743  0.5339 -0.3799 -0.6538
  944MOL0     C30197   9.124   3.643  10.711 -0.4536 -0.2877 -0.5104
  944MOL0     C30198   9.025   3.621  10.823 -0.5665  0.2732  0.1830
  944MOL0     C30199   8.941   3.614  10.911  0.6343 -0.8894  0.0511
  944MOL0     C30200   9.467   3.037  10.886 -0.7821 -0.0830 -0.2439
  944MOL0     C30201   9.574   2.958  10.930  0.4948  0.3319 -0.2888
  944MOL0     C30202   9.550   2.842  11.021 -0.8340 -0.2934 -0.2292
  944MOL0     H30203  10.071   2.936  11.105  3.1692  2.8288 -0.4603
  944MOL0     H30204  10.293   2.825  11.151  2.4261  0.9111 -1.1337
  944MOL0     H30205  10.540   2.759  10.839 -1.8796 -0.2772 -3.0013
  944MOL0     H30206  10.507   2.589  10.824  1.5627 -0.4364  1.2125
  944MOL0     H30207  10.704   2.705  11.017  0.5380 -0.8794  1.6633
  944MOL0     H30208  10.606   2.563  11.053  0.6209 -2.9924 -1.5539
  944MOL0     H30209  10.798   2.465  10.927  0.9111 -0.4612 -1.3744
  944MOL0     H30210  10.689   2.495  10.793  0.8260  0.5991 -0.6867
  944MOL0     H30211  10.807   2.734  10.775 -0.8529 -0.7861 -1.1496
  944MOL0     H30212  10.912   2.677  10.912  0.2603 -1.4312 -0.7782
  944MOL0     H30213  10.914   2.523  10.657  1.2815  1.1507 -1.8599
  944MOL0     H30214  11.022   2.530  10.804  1.0090  2.7653  1.2568
  944MOL0     H30215  10.970   2.754  10.605  2.0564  1.4730 -0.7938
  944MOL0     H30216  11.070   2.762  10.765 -0.4661 -1.4961  1.2669
  944MOL0     H30217  11.198   2.759  10.545  0.2005  0.2096  1.2533
  944MOL0     H30218  11.143   2.593  10.540 -0.8151 -0.8021  0.6318
  944MOL0     H30219  11.296   2.726  10.767  0.5814  1.7630 -2.4336
  944MOL0     H30220  11.271   2.550  10.769  1.8392 -0.1511  0.1560
  944MOL0     H30221  11.393   2.404  10.586 -2.5076  1.1285 -2.4689
  944MOL0     H30222  11.751   2.492  10.406  1.5859  0.5837  2.7782
  944MOL0     H30223  11.615   2.380  10.355  0.4780 -0.3016 -0.1011
  944MOL0     H30224  11.760   2.385  10.621  2.5527 -0.0685 -0.0188
  944MOL0     H30225  11.652   2.254  10.559 -0.2173  1.6628 -2.6048
  944MOL0     H30226  11.817   2.188  10.403 -1.1125 -0.8637  0.7464
  944MOL0     H30227  11.894   2.333  10.395  0.3322 -3.1929 -2.2679
  944MOL0     H30228  11.943   2.294  10.668  1.7213 -1.9574  1.2071
  944MOL0     H30229  11.936   2.123  10.613 -0.7127  0.0544  0.7604
  944MOL0     H30230  12.243   2.420  10.510 -1.6173 -1.4817  0.9505
  944MOL0     H30231  12.404   2.562  10.553 -0.2393 -0.8061  2.0259
  944MOL0     H30232  12.548   2.485  10.568  0.2800  2.3052 -0.9023
  944MOL0     H30233  12.482   2.581  10.707  1.4811 -0.1177 -0.3859
  944MOL0     H30234  12.746   2.458  11.011  3.3095  1.2188  3.1382
  944MOL0     H30235  12.940   2.423  11.115 -0.2712  0.2834  0.4426
  944MOL0     H30236  13.113   2.179  11.073 -1.3106  2.9447 -0.1868
  944MOL0     H30237  13.156   2.309  11.175 -1.7960  0.3329  3.4599
  944MOL0     H30238  13.160   2.018  11.264 -1.0295 -0.3904  1.9724
  944MOL0     H30239  13.303   2.089  11.177 -1.0503 -3.4038 -0.1561
  944MOL0     H30240  13.186   2.176  11.440 -0.6277  0.1671 -0.1841
  944MOL0     H30241  13.338   2.243  11.361 -1.1484 -0.0741 -4.3103
  944MOL0     H30242  13.429   2.010  11.345 -1.6927  0.1117 -1.5339
  944MOL0     H30243  13.312   1.962  11.474  3.2815 -1.1185  2.1627
  944MOL0     H30244  13.532   2.156  11.529  0.9651 -1.4679 -0.0827
  944MOL0     H30245  13.389   2.155  11.626 -0.2915  1.0712 -0.5648
  944MOL0     H30246  13.581   2.006  11.703  0.3941 -1.3205 -0.4937
  944MOL0     H30247  13.569   1.918  11.544 -2.6460 -0.6998 -1.6856
  944MOL0     H30248  13.368   1.812  11.620 -0.7066  0.0728  0.5773
  944MOL0     H30249  13.328   1.946  11.719  2.2298  1.3627  2.9577
  944MOL0     H30250  13.397   1.766  11.868 -1.1721  3.0238  0.5193
  944MOL0     H30251  13.533   1.887  11.860 -1.2868  0.5414  1.8890
  944MOL0     H30252  12.798   2.038  11.255  0.2775 -0.7117 -0.3465
  944MOL0     H30253  12.605   2.066  11.129  0.9940 -1.7696  1.3939
  944MOL0     H30254  12.332   2.159  10.908 -1.1739  1.5438  0.2702
  944MOL0     H30255  12.135   2.111  10.776 -2.1186  1.1632 -1.1246
  944MOL0     H30256  10.313   2.696  10.744  1.4566 -0.4896  0.6650
  944MOL0     H30257  10.069   2.794  10.714 -1.9362 -3.1199  1.3361
  944MOL0     H30258   9.823   3.132  10.767  0.6270 -1.4930  0.5877
  944MOL0     H30259   9.643   3.249  10.690  2.5219 -0.8741 -0.7482
  944MOL0     H30260   9.440   3.399  10.869  2.1214 -0.8346 -0.5182
  944MOL0     H30261   9.474   3.408  10.691 -1.2056 -0.4228 -1.4726
  944MOL0     H30262   9.192   3.371  10.791  2.3718 -2.2376  0.8261
  944MOL0     H30263   9.255   3.393  10.628 -3.3545 -3.8432  0.6401
  944MOL0     H30264   9.293   3.610  10.844 -2.7230 -2.5563  1.1207
  944MOL0     H30265   9.347   3.617  10.681  2.4521 -1.4789  1.0054
  944MOL0     H30266   9.090   3.588  10.623 -0.8144  2.5271 -2.2389
  944MOL0     H30267   9.125   3.749  10.687 -0.6078  0.3177  1.9654
  944MOL0     H30268   8.868   3.629  10.987 -0.3930  3.7009 -1.5115
  944MOL0     H30269   9.363   3.013  10.906  0.2075 -2.3968  2.9169
  944MOL0     H30270   9.605   2.749  11.001 -0.5184  0.1665 -1.5851
  944MOL0     H30271   9.575   2.867  11.124  2.0013 -2.5497 -0.2416
  944MOL0     H30272   9.450   2.799  11.008 -0.8733  0.4480 -2.8753
  945MOL0     O30273   9.032   9.331   8.371 -0.7295 -0.0268  0.8723
  945MOL0     C30274   9.039   9.414   8.274 -0.5353  0.1607  1.1148
  945MOL0     O30275   8.991   9.400   8.148  0.5279 -0.2436  0.0633
  945MOL0     C30276   8.973   9.267   8.112  0.3785 -0.2410  0.8278
  945MOL0     C30277   8.841   9.226   8.101 -0.2827  0.4345 -0.2925
  945MOL0     C30278   8.807   9.100   8.052 -0.0454  0.6559  0.0458
  945MOL0     C30279   8.907   9.010   8.020 -0.9689 -0.3549  0.3071
  945MOL0     O30280   8.891   8.883   7.982 -0.2816  0.0098 -0.0183
  945MOL0     C30281   8.767   8.842   7.915 -0.3724 -0.5237  0.2220
  945MOL0     C30282   8.671   8.781   8.022 -0.4503 -0.9859  0.9349
  945MOL0     C30283   8.521   8.788   7.965 -0.2442  0.1222 -0.3724
  945MOL0     C30284   8.417   8.754   8.067 -0.4965 -0.2077  1.1205
  945MOL0     C30285   8.395   8.840   8.192  0.3342 -0.5609 -0.1493
  945MOL0     C30286   8.316   8.787   8.307 -1.0874  0.1565 -0.0974
  945MOL0     C30287   8.367   8.655   8.366 -0.2139  0.2540  0.2250
  945MOL0     C30288   8.507   8.668   8.431 -0.1403 -0.1708  0.9453
  945MOL0     N30289   8.623   8.643   8.346  0.2514  0.2541  0.0733
  945MOL0     C30290   8.737   8.716   8.344 -0.4504 -0.0343  0.3479
  945MOL0     C30291   8.831   8.626   8.292  0.1891 -0.2461 -0.9962
  945MOL0     C30292   8.973   8.661   8.258 -0.3859  0.3452 -0.3684
  945MOL0     C30293   9.034   8.580   8.140  0.1082  0.8535  0.4407
  945MOL0     C30294   9.179   8.623   8.099  0.1620  0.1661  0.3232
  945MOL0     C30295   9.272   8.542   8.196 -0.3449 -0.0119 -0.1166
  945MOL0     O30296   9.401   8.592   8.167  0.1833 -0.2511 -0.5503
  945MOL0     C30297   9.492   8.598   8.276 -0.3006 -0.3255  0.2531
  945MOL0     C30298   9.486   8.533   8.399  0.7100  0.2632  0.6382
  945MOL0     C30299   9.581   8.551   8.497 -0.6193  0.5805  0.9496
  945MOL0     C30300   9.575   8.469   8.621  0.2613 -1.0074  0.3546
  945MOL0     C30301   9.690   8.640   8.476  0.4285  0.2824  0.7540
  945MOL0     C30302   9.801   8.666   8.559  0.1759  0.4669 -0.0075
  945MOL0     O30303   9.865   8.559   8.616  0.4904 -0.5747  0.8332
  945MOL0     C30304   9.983   8.577   8.687  0.0364 -0.9930  0.1925
  945MOL0     C30305   9.998   8.563   8.827 -0.1741  1.2301  0.4659
  945MOL0     C30306  10.123   8.565   8.878 -0.0846  0.2099  0.0898
  945MOL0     C30307  10.238   8.602   8.800  0.8385 -0.1650  0.4176
  945MOL0     O30308  10.354   8.619   8.868  0.0245 -0.0578  0.3145
  945MOL0     C30309  10.450   8.707   8.815 -0.6874  0.7078  0.7055
  945MOL0     C30310  10.560   8.747   8.920 -0.8973 -0.6769  0.1306
  945MOL0     C30311  10.631   8.876   8.897 -0.5999  0.1066  0.3171
  945MOL0     C30312  10.726   8.912   9.015 -0.6551 -0.6268 -0.5838
  945MOL0     C30313  10.879   8.921   8.971  0.6498 -0.1950  0.3568
  945MOL0     C30314  10.948   8.791   8.945 -0.1561 -0.4207 -0.6655
  945MOL0     C30315  11.096   8.798   8.921 -0.4639 -0.2679  0.4517
  945MOL0     C30316  11.141   8.881   8.804  0.7996 -0.2291 -0.0872
  945MOL0    Cl30317  11.066   8.810   8.663 -0.3735  0.0285  0.0605
  945MOL0     C30318  10.227   8.620   8.660 -0.0283  0.1516 -0.1902
  945MOL0     C30319  10.095   8.613   8.607 -0.4213 -0.7098  0.1063
  945MOL0     O30320   9.842   8.782   8.558 -0.3431 -0.4799  0.2121
  945MOL0     C30321   9.702   8.702   8.345 -0.6077  0.5006  1.0873
  945MOL0     C30322   9.603   8.687   8.254 -0.5413 -0.1372  0.1740
  945MOL0     N30323   8.772   8.505   8.272  1.0374  0.3058  0.2014
  945MOL0     N30324   8.647   8.516   8.308 -0.0523 -0.4352 -0.7916
  945MOL0     C30325   9.036   9.045   8.032 -0.1995 -0.6213  0.4690
  945MOL0     C30326   9.074   9.173   8.076  0.2496  0.8824  0.0831
  945MOL0     C30327   9.116   9.540   8.302  0.2333 -0.3212  0.3056
  945MOL0     C30328   9.069   9.657   8.236  0.5206 -0.2354 -0.9428
  945MOL0     C30329   9.133   9.778   8.244  0.0576 -0.0106 -0.4372
  945MOL0     C30330   9.247   9.799   8.323 -0.1450  0.4104 -0.3098
  945MOL0     O30331   9.315   9.915   8.347 -0.9935  0.1978  0.2754
  945MOL0     C30332   9.326  10.014   8.243 -0.1429 -1.0589  0.8510
  945MOL0     C30333   9.415   9.960   8.128  0.6797 -0.0690 -0.6147
  945MOL0     C30334   9.561   9.931   8.168 -0.1624 -0.3115 -0.2329
  945MOL0     C30335   9.639  10.060   8.158 -0.0653 -0.3577 -0.5268
  945MOL0     C30336   9.785  10.042   8.175 -0.0878  0.0833 -0.0677
  945MOL0     C30337   9.905  10.022   8.183  1.0663  0.2778  0.1789
  945MOL0     C30338   9.302   9.685   8.386  0.2360 -0.3760 -0.8555
  945MOL0     C30339   9.232   9.560   8.381  0.0116  0.1695 -1.1384
  945MOL0     C30340   9.278   9.450   8.470 -0.5866  0.7679 -0.1483
  945MOL0     H30341   8.765   9.302   8.115  0.1280  1.0046 -1.0462
  945MOL0     H30342   8.699   9.089   8.051 -0.2941  1.6697  3.2861
  945MOL0     H30343   8.793   8.773   7.834 -0.5890 -0.1061 -0.2131
  945MOL0     H30344   8.718   8.930   7.871  2.3137  2.0288  1.9621
  945MOL0     H30345   8.701   8.688   8.071  0.6715  0.4512  3.1886
  945MOL0     H30346   8.673   8.848   8.109 -2.0392  0.8758 -0.3628
  945MOL0     H30347   8.502   8.887   7.924 -0.8344  0.0263 -0.3415
  945MOL0     H30348   8.515   8.714   7.885 -1.5211  0.0670 -0.2543
  945MOL0     H30349   8.324   8.739   8.012  0.8414  1.5615 -1.8589
  945MOL0     H30350   8.430   8.650   8.097  0.0242 -0.9194 -1.3450
  945MOL0     H30351   8.349   8.935   8.164  0.6603 -0.1415  0.6870
  945MOL0     H30352   8.491   8.878   8.229 -0.6485  1.7769  0.2078
  945MOL0     H30353   8.291   8.863   8.382 -1.6878 -2.3971  2.4980
  945MOL0     H30354   8.212   8.767   8.279 -1.5168  2.7189 -0.5992
  945MOL0     H30355   8.369   8.576   8.292 -1.4756  1.9183 -1.6914
  945MOL0     H30356   8.295   8.628   8.444 -0.0897 -0.7643 -0.0103
  945MOL0     H30357   8.515   8.766   8.479  0.4824  1.3276 -1.9967
  945MOL0     H30358   8.517   8.600   8.517  2.9799  0.1346  0.9407
  945MOL0     H30359   8.752   8.822   8.363  0.2905  0.5062 -2.6558
  945MOL0     H30360   9.034   8.640   8.346  1.9871 -1.5353 -2.3097
  945MOL0     H30361   8.975   8.767   8.230 -2.3461 -0.1757 -2.7875
  945MOL0     H30362   9.024   8.476   8.172  0.9752  0.7204  0.2909
  945MOL0     H30363   8.975   8.594   8.048 -2.4792 -0.3306  1.8210
  945MOL0     H30364   9.205   8.596   7.996  3.0020  0.7271  0.7888
  945MOL0     H30365   9.190   8.730   8.118  0.9111 -0.0768  1.3527
  945MOL0     H30366   9.238   8.554   8.299 -3.1380 -0.2101 -0.9374
  945MOL0     H30367   9.279   8.437   8.166  2.1765 -0.4850  1.8451
  945MOL0     H30368   9.406   8.461   8.412 -0.0571  0.9774  0.0748
  945MOL0     H30369   9.470   8.474   8.650  0.3651  0.1195  0.5701
  945MOL0     H30370   9.639   8.505   8.701  0.4811  1.5509 -0.8600
  945MOL0     H30371   9.603   8.367   8.594 -3.8668 -1.4184 -3.7458
  945MOL0     H30372   9.906   8.541   8.880 -1.2158  1.9240 -0.9628
  945MOL0     H30373  10.144   8.539   8.982  1.0133  2.7058  0.5771
  945MOL0     H30374  10.503   8.659   8.732 -2.9655 -0.6791 -0.0272
  945MOL0     H30375  10.403   8.800   8.782  1.5707  1.9802  0.8953
  945MOL0     H30376  10.510   8.758   9.016 -0.3032  1.8741  0.2228
  945MOL0     H30377  10.634   8.669   8.938  0.8332  0.8313 -0.1682
  945MOL0     H30378  10.552   8.952   8.897 -1.6360 -0.9097  2.0819
  945MOL0     H30379  10.683   8.878   8.801  1.4457  0.9439  1.3908
  945MOL0     H30380  10.727   8.837   9.095  0.4620 -0.3117 -0.2816
  945MOL0     H30381  10.688   9.000   9.066 -1.0775 -0.5152 -1.0822
  945MOL0     H30382  10.881   8.985   8.882  0.7973  1.8362  1.7556
  945MOL0     H30383  10.936   8.973   9.048 -2.1416  4.3600 -0.2978
  945MOL0     H30384  10.910   8.745   8.854  2.6582 -1.1937 -1.5476
  945MOL0     H30385  10.949   8.709   9.018  1.5811 -1.5325 -1.8568
  945MOL0     H30386  11.119   8.697   8.888 -0.8191  0.2084 -1.3684
  945MOL0     H30387  11.154   8.818   9.012 -0.7431  0.0991  0.5549
  945MOL0     H30388  11.251   8.883   8.802  0.8026 -0.2078  0.0726
  945MOL0     H30389  11.105   8.983   8.819 -2.6307 -1.5474  1.5787
  945MOL0     H30390  10.322   8.643   8.612 -0.4706  1.4541 -0.4874
  945MOL0     H30391  10.074   8.616   8.501  1.4579 -0.1269 -0.2886
  945MOL0     H30392   9.781   8.773   8.321 -1.0261  0.9691  1.0609
  945MOL0     H30393   9.607   8.740   8.159  3.6504 -0.5504 -0.0516
  945MOL0     H30394   9.114   8.974   8.003  0.0333 -0.6118  1.0536
  945MOL0     H30395   9.179   9.194   8.094 -0.0641  1.5363  1.2955
  945MOL0     H30396   8.979   9.646   8.176  0.0375 -2.8897  0.0870
  945MOL0     H30397   9.087   9.859   8.189 -0.9959  0.5376  1.1968
  945MOL0     H30398   9.233  10.034   8.190  1.9500  3.3479 -1.8328
  945MOL0     H30399   9.360  10.110   8.283 -2.0243  0.6471 -1.3498
  945MOL0     H30400   9.392  10.020   8.040 -4.9386 -1.6221 -0.6176
  945MOL0     H30401   9.367   9.866   8.098 -1.0686  0.3158  0.7806
  945MOL0     H30402   9.556   9.902   8.273 -0.0236  1.7387  0.3849
  945MOL0     H30403   9.595   9.847   8.107 -1.7935  1.5199 -4.0611
  945MOL0     H30404   9.600  10.124   8.238 -2.5736  0.9020 -2.6214
  945MOL0     H30405   9.609  10.108   8.064 -1.3750 -0.6368 -0.2775
  945MOL0     H30406  10.008   9.997   8.192  0.2593 -2.5854  2.7743
  945MOL0     H30407   9.384   9.693   8.456 -1.0801 -0.2133  0.7311
  945MOL0     H30408   9.299   9.364   8.407  0.8798  1.4036 -0.5645
  945MOL0     H30409   9.368   9.482   8.523 -0.5419  0.6557 -0.1586
  945MOL0     H30410   9.205   9.413   8.543  1.4360 -2.0166  0.6041
  946MOL0     O30411  10.935   3.883   3.181 -0.3680 -0.2869 -0.3404
  946MOL0     C30412  10.901   3.866   3.061  0.1930 -0.2750 -0.0224
  946MOL0     O30413  10.780   3.891   3.008  0.4261  0.2105  0.6644
  946MOL0     C30414  10.681   3.929   3.097  0.1780 -0.5052  1.0297
  946MOL0     C30415  10.607   4.051   3.067 -0.5666  0.3847  0.1431
  946MOL0     C30416  10.482   4.066   3.136 -0.0559 -0.6108  0.6567
  946MOL0     C30417  10.436   3.976   3.232 -0.2043 -0.5413  0.4138
  946MOL0     O30418  10.312   3.989   3.281  0.3449 -0.1374 -0.0958
  946MOL0     C30419  10.238   4.111   3.257 -0.3622  0.1318  0.5124
  946MOL0     C30420  10.112   4.131   3.344 -0.0079  0.6683 -0.0225
  946MOL0     C30421   9.996   4.028   3.305  0.0394  0.3814 -0.0316
  946MOL0     C30422   9.870   4.023   3.399  0.3732  0.2998 -0.4764
  946MOL0     C30423   9.757   3.927   3.353 -0.0394 -0.5445  0.3811
  946MOL0     C30424   9.624   3.908   3.433 -0.0544  0.2776 -0.4130
  946MOL0     C30425   9.536   4.028   3.411  0.4570  0.0176 -0.4816
  946MOL0     C30426   9.464   4.077   3.536  0.4096  0.3030  0.0099
  946MOL0     N30427   9.561   4.139   3.625 -0.3714 -0.1230 -0.0791
  946MOL0     C30428   9.615   4.259   3.604 -0.3748  0.3274  0.6828
  946MOL0     C30429   9.696   4.283   3.704  0.3400  0.0067  0.0038
  946MOL0     C30430   9.769   4.409   3.740 -0.3262 -0.8156  0.0059
  946MOL0     C30431   9.900   4.399   3.667  0.4149  0.2121 -0.5850
  946MOL0     C30432   9.997   4.502   3.719 -0.7173 -0.6688  0.0096
  946MOL0     C30433  10.120   4.514   3.628 -0.5184  0.8684 -0.2892
  946MOL0     O30434  10.203   4.392   3.631  0.6222  0.3880 -0.3101
  946MOL0     C30435  10.315   4.389   3.549  0.0475 -0.1397  0.4822
  946MOL0     C30436  10.394   4.278   3.565 -0.5295  0.0233 -0.5678
  946MOL0     C30437  10.512   4.262   3.483 -0.8146 -0.1912 -0.4470
  946MOL0     C30438  10.603   4.141   3.488 -0.4219  0.2655  0.1528
  946MOL0     C30439  10.548   4.376   3.398  0.5152 -1.0581  0.4900
  946MOL0     C30440  10.678   4.383   3.329  0.1954 -0.5448 -0.2389
  946MOL0     O30441  10.691   4.316   3.212  0.4215 -0.5031 -0.7158
  946MOL0     C30442  10.810   4.326   3.140 -0.4578  0.1637 -0.0192
  946MOL0     C30443  10.799   4.426   3.038  0.1611 -0.0463 -0.0218
  946MOL0     C30444  10.903   4.438   2.940  0.3557  0.7317 -0.5561
  946MOL0     C30445  11.018   4.352   2.956 -0.1705 -0.0000 -0.8443
  946MOL0     O30446  11.120   4.363   2.859 -0.4102 -0.6973  0.3839
  946MOL0     C30447  11.256   4.371   2.914  1.1880  0.0862  0.0698
  946MOL0     C30448  11.345   4.285   2.826 -0.4894 -0.9369 -0.3823
  946MOL0     C30449  11.291   4.145   2.816 -0.4335  0.1330 -0.5936
  946MOL0     C30450  11.370   4.055   2.732  0.9579 -1.0996  0.3723
  946MOL0     C30451  11.359   3.908   2.759  0.0115  0.3662 -0.3988
  946MOL0     C30452  11.440   3.817   2.664 -0.4072  0.8732  0.3201
  946MOL0     C30453  11.582   3.853   2.640  0.1634 -0.5949 -0.1168
  946MOL0     C30454  11.663   3.758   2.551 -0.0921  0.3888  0.1730
  946MOL0    Cl30455  11.838   3.808   2.577  0.1656 -0.0227  0.1364
  946MOL0     C30456  11.023   4.246   3.056 -0.4499 -0.8791 -0.6288
  946MOL0     C30457  10.927   4.238   3.157  0.3623 -0.6073  0.0227
  946MOL0     O30458  10.756   4.474   3.375  0.1818 -0.0694 -0.6501
  946MOL0     C30459  10.465   4.486   3.389 -0.5411 -0.0981  0.5832
  946MOL0     C30460  10.348   4.488   3.454 -0.4410  0.1043 -0.2724
  946MOL0     N30461   9.721   4.166   3.770  0.3230 -0.5481 -0.5348
  946MOL0     N30462   9.640   4.078   3.724  0.2222  0.0667 -0.3546
  946MOL0     C30463  10.518   3.872   3.268 -0.1549 -0.4545 -0.1633
  946MOL0     C30464  10.635   3.845   3.198  0.3197  0.3357 -0.4459
  946MOL0     C30465  10.999   3.785   2.979  0.3279 -0.2396  0.2130
  946MOL0     C30466  10.959   3.715   2.861  0.2773  0.2808 -0.4330
  946MOL0     C30467  11.042   3.620   2.799  0.5822 -0.3175  0.2155
  946MOL0     C30468  11.174   3.599   2.850 -0.1665  0.3005  0.5556
  946MOL0     O30469  11.267   3.516   2.791  0.4309 -0.1766  0.0914
  946MOL0     C30470  11.240   3.485   2.655 -0.1209 -0.9162  0.6637
  946MOL0     C30471  11.336   3.384   2.602 -0.0595  0.3686  0.1806
  946MOL0     C30472  11.475   3.438   2.554 -0.9046  0.2709 -0.0288
  946MOL0     C30473  11.564   3.316   2.517  0.0663 -0.7078  0.2792
  946MOL0     C30474  11.508   3.237   2.399 -0.6078  0.1972  0.2347
  946MOL0     C30475  11.503   3.165   2.300  0.6102 -0.1470  0.6931
  946MOL0     C30476  11.216   3.678   2.951  0.5866  0.0478 -0.7813
  946MOL0     C30477  11.136   3.774   3.012 -0.3042  0.7087  0.7620
  946MOL0     C30478  11.216   3.859   3.105 -0.7569  0.2332  0.2345
  946MOL0     H30479  10.637   4.116   2.985 -2.8449  1.0624 -0.2180
  946MOL0     H30480  10.418   4.141   3.092  0.7333 -0.3268 -0.0399
  946MOL0     H30481  10.212   4.116   3.151  2.3671 -0.5995 -0.2804
  946MOL0     H30482  10.310   4.191   3.279 -0.6644  0.0090  2.0450
  946MOL0     H30483  10.143   4.109   3.446  1.0992  0.6644 -0.3529
  946MOL0     H30484  10.086   4.236   3.334  0.7304  1.0807  1.9200
  946MOL0     H30485   9.958   4.047   3.205 -1.1378 -1.9639 -0.0965
  946MOL0     H30486  10.030   3.924   3.303 -2.0720 -0.3490 -1.9554
  946MOL0     H30487   9.901   3.978   3.493 -2.2149 -1.0372 -0.1762
  946MOL0     H30488   9.838   4.126   3.420 -0.5343 -0.2913  1.2199
  946MOL0     H30489   9.810   3.833   3.338  1.8595  0.5083  0.1801
  946MOL0     H30490   9.713   3.954   3.257 -0.3148 -0.6455  0.4787
  946MOL0     H30491   9.580   3.822   3.383  1.6522 -0.4513 -0.7267
  946MOL0     H30492   9.644   3.893   3.540  2.2774  0.0699 -0.8216
  946MOL0     H30493   9.453   3.989   3.352 -0.6072  2.5108 -0.7316
  946MOL0     H30494   9.577   4.111   3.353 -0.8154  1.9922  1.3026
  946MOL0     H30495   9.395   4.143   3.484  0.1588 -1.1481 -1.5982
  946MOL0     H30496   9.402   4.005   3.590  0.0568  0.4583 -0.1912
  946MOL0     H30497   9.586   4.343   3.542 -1.3053  1.0128  1.9892
  946MOL0     H30498   9.769   4.405   3.849 -1.0431 -3.2429 -0.0243
  946MOL0     H30499   9.706   4.496   3.719 -0.2485  0.7152  4.9001
  946MOL0     H30500   9.950   4.303   3.678  1.7837  0.9559 -0.1552
  946MOL0     H30501   9.875   4.430   3.565  1.2335 -0.3516 -0.9670
  946MOL0     H30502   9.954   4.602   3.714  2.4039  0.7193 -2.1637
  946MOL0     H30503  10.028   4.481   3.822  3.7107  0.4633 -0.8483
  946MOL0     H30504  10.084   4.535   3.527 -0.5262  2.6162  0.0623
  946MOL0     H30505  10.178   4.602   3.658 -1.5542  2.0709 -1.6986
  946MOL0     H30506  10.371   4.206   3.644 -0.3122  0.4047 -0.1509
  946MOL0     H30507  10.528   4.062   3.473 -1.4794  0.6411  2.8076
  946MOL0     H30508  10.654   4.127   3.584 -2.7130 -0.9834  1.2938
  946MOL0     H30509  10.677   4.132   3.408 -1.2447 -0.1662 -0.5771
  946MOL0     H30510  10.716   4.496   3.037 -0.5811 -0.8593  1.3066
  946MOL0     H30511  10.900   4.509   2.858 -1.4568 -0.3097 -1.4495
  946MOL0     H30512  11.285   4.477   2.906  2.4675 -0.3309 -1.1750
  946MOL0     H30513  11.260   4.340   3.019 -0.0238 -1.6960 -0.3653
  946MOL0     H30514  11.361   4.325   2.726 -2.2211  2.8025  0.6665
  946MOL0     H30515  11.450   4.294   2.853  0.9137  2.4218 -5.4965
  946MOL0     H30516  11.191   4.151   2.772  0.4794 -2.2097 -3.3073
  946MOL0     H30517  11.293   4.117   2.922  3.0560 -0.9276 -0.8084
  946MOL0     H30518  11.473   4.087   2.749 -0.3086  2.6119  2.0926
  946MOL0     H30519  11.335   4.077   2.630 -1.6796 -1.4539  1.1207
  946MOL0     H30520  11.405   3.905   2.858 -4.8046 -2.3513  2.1148
  946MOL0     H30521  11.258   3.866   2.771  1.3858 -2.7892  1.5956
  946MOL0     H30522  11.393   3.824   2.565  1.1391 -0.1651 -0.5173
  946MOL0     H30523  11.436   3.713   2.698  2.0561  0.6049 -0.0289
  946MOL0     H30524  11.629   3.855   2.739  0.2080  1.4675 -0.1388
  946MOL0     H30525  11.594   3.957   2.610 -0.6831 -0.2523  0.6889
  946MOL0     H30526  11.643   3.780   2.446 -0.2844  1.8579  0.4924
  946MOL0     H30527  11.660   3.652   2.578  0.5577  0.5080  0.7439
  946MOL0     H30528  11.100   4.170   3.046  0.9052  0.3451  0.1797
  946MOL0     H30529  10.939   4.172   3.243  0.8763  2.1830  2.2282
  946MOL0     H30530  10.499   4.572   3.332  1.3738 -1.2469 -0.0832
  946MOL0     H30531  10.292   4.581   3.445 -0.8736 -0.2211 -1.0462
  946MOL0     H30532  10.469   3.802   3.335 -1.9518  0.1057 -0.8043
  946MOL0     H30533  10.695   3.755   3.206  0.0470  0.2318  0.5298
  946MOL0     H30534  10.860   3.735   2.822 -0.5264  0.1685  1.4400
  946MOL0     H30535  10.994   3.567   2.717 -1.5371 -1.7709  2.2634
  946MOL0     H30536  11.139   3.446   2.643 -1.6349  2.7709  0.0837
  946MOL0     H30537  11.238   3.571   2.587 -1.6605  1.4959  3.5573
  946MOL0     H30538  11.285   3.332   2.521  2.3126 -0.7087 -0.6723
  946MOL0     H30539  11.350   3.305   2.676 -1.9288 -1.2828 -1.1000
  946MOL0     H30540  11.468   3.505   2.468  1.8643  0.5307 -0.1249
  946MOL0     H30541  11.525   3.492   2.635  0.5499 -3.0715  1.5017
  946MOL0     H30542  11.583   3.251   2.603 -0.2463 -2.9075 -1.2430
  946MOL0     H30543  11.665   3.350   2.491  0.2805 -0.2730  1.5609
  946MOL0     H30544  11.489   3.112   2.209 -2.0054 -0.2698  1.0908
  946MOL0     H30545  11.321   3.673   2.977  0.1339 -4.4611  1.0727
  946MOL0     H30546  11.321   3.873   3.080  0.0049 -0.6931  2.6226
  946MOL0     H30547  11.179   3.962   3.115  1.4677  1.0830  0.3729
  946MOL0     H30548  11.219   3.818   3.207  3.2772  0.4032  0.3345
  947MOL0     O30549   8.965   8.119   9.898 -0.4043 -0.4694 -0.5166
  947MOL0     C30550   8.969   8.072  10.013  0.1081 -0.3510  0.4334
  947MOL0     O30551   9.085   8.034  10.089  0.6750 -0.3222 -0.0314
  947MOL0     C30552   9.200   8.028  10.021 -0.4907  0.0209  0.1519
  947MOL0     C30553   9.318   8.052  10.094  0.7614  0.7213 -0.9837
  947MOL0     C30554   9.445   8.021  10.034 -0.0842  0.3041 -0.4073
  947MOL0     C30555   9.455   7.990   9.903 -0.3950 -0.4452  0.0808
  947MOL0     O30556   9.585   7.962   9.859 -0.1693 -0.4730  0.3385
  947MOL0     C30557   9.642   8.034   9.750 -0.1338  0.6249 -0.1870
  947MOL0     C30558   9.785   8.013   9.726  0.0639 -0.0113  0.6154
  947MOL0     C30559   9.828   7.861   9.710  0.2595 -0.6748  0.3149
  947MOL0     C30560   9.968   7.826   9.659 -0.1217 -0.6402  0.1819
  947MOL0     C30561  10.028   7.929   9.551  0.3330 -0.2181  0.4048
  947MOL0     C30562  10.154   7.873   9.490 -0.8438 -0.0027  0.3572
  947MOL0     C30563  10.205   7.965   9.383 -0.5080  0.4269  0.6190
  947MOL0     C30564  10.336   7.893   9.334 -0.3331 -0.5096  0.0983
  947MOL0     N30565  10.459   7.937   9.407 -0.0571  0.5920 -0.4801
  947MOL0     C30566  10.591   7.896   9.381 -0.1459  0.2467  0.6025
  947MOL0     C30567  10.665   7.963   9.469 -0.1798 -0.0535 -0.3642
  947MOL0     C30568  10.809   7.953   9.475  0.0145  0.4092  0.0397
  947MOL0     C30569  10.883   8.058   9.553  0.4359  0.5729 -0.4278
  947MOL0     C30570  11.028   8.031   9.554 -0.2659  0.2457 -0.2389
  947MOL0     C30571  11.061   7.908   9.632  0.6560  0.2512  0.9679
  947MOL0     O30572  11.198   7.890   9.638 -0.0515  0.0829  0.3486
  947MOL0     C30573  11.259   7.824   9.531 -0.1502 -0.2405 -0.0646
  947MOL0     C30574  11.205   7.788   9.405 -0.7262  0.0460 -0.6635
  947MOL0     C30575  11.286   7.721   9.310  0.0312  0.3074 -0.1630
  947MOL0     C30576  11.220   7.675   9.190 -0.6413 -0.6862  0.6702
  947MOL0     C30577  11.424   7.709   9.332 -0.2335 -0.4032  0.3664
  947MOL0     C30578  11.525   7.672   9.224 -0.1405 -0.0738 -0.1736
  947MOL0     O30579  11.646   7.618   9.260 -0.0985  0.3538 -0.5752
  947MOL0     C30580  11.743   7.596   9.165  0.3700  1.3877 -0.0490
  947MOL0     C30581  11.829   7.697   9.126 -0.5299 -0.0197  0.4455
  947MOL0     C30582  11.932   7.676   9.035 -0.0368  0.6381  0.0300
  947MOL0     C30583  11.939   7.543   8.976 -0.1447  0.8188 -0.9793
  947MOL0     O30584  12.024   7.507   8.876 -0.6974  0.2291  0.4923
  947MOL0     C30585  12.162   7.560   8.885 -0.1529  1.0571  0.7138
  947MOL0     C30586  12.240   7.473   8.988  0.3111 -0.7647  0.2384
  947MOL0     C30587  12.378   7.534   9.018  0.4453  0.5619  0.0568
  947MOL0     C30588  12.493   7.471   8.943 -0.0432  0.9127 -0.1659
  947MOL0     C30589  12.537   7.533   8.810  0.0517  0.9285 -0.2121
  947MOL0     C30590  12.635   7.438   8.735  0.0537 -0.2334 -0.6244
  947MOL0     C30591  12.674   7.478   8.592  0.8477  0.3571  0.8377
  947MOL0     C30592  12.752   7.358   8.530  0.1555  0.2450 -0.1278
  947MOL0    Cl30593  12.907   7.342   8.630 -0.3523 -0.2032 -0.3072
  947MOL0     C30594  11.842   7.446   9.000 -0.4933 -0.1456 -0.2922
  947MOL0     C30595  11.749   7.471   9.102  0.1250 -0.5534  0.0060
  947MOL0     O30596  11.484   7.693   9.112  0.3399  0.5340 -0.3776
  947MOL0     C30597  11.475   7.738   9.462  0.6713 -0.5433  0.1960
  947MOL0     C30598  11.393   7.791   9.560  0.0046 -0.3839 -0.1513
  947MOL0     N30599  10.586   8.027   9.558 -0.1251 -0.8497 -0.2732
  947MOL0     N30600  10.462   8.019   9.517  0.0106  0.0719  0.6788
  947MOL0     C30601   9.339   7.968   9.829  0.5989 -0.5957  0.4963
  947MOL0     C30602   9.214   7.994   9.887 -0.4644  1.0389  0.7120
  947MOL0     C30603   8.839   8.052  10.071 -0.1506 -0.4949 -0.2075
  947MOL0     C30604   8.846   8.014  10.203 -1.3801  0.7980  0.4538
  947MOL0     C30605   8.731   8.014  10.283 -0.2417 -1.1840  0.2199
  947MOL0     C30606   8.602   8.012  10.231  0.5704 -0.1834 -0.2436
  947MOL0     O30607   8.488   7.990  10.303  0.0755 -0.1174 -0.3075
  947MOL0     C30608   8.479   7.893  10.411  0.1872  0.2465  0.2199
  947MOL0     C30609   8.361   7.810  10.388  0.2568  0.4025  0.3674
  947MOL0     C30610   8.230   7.879  10.408  0.7387 -0.2121 -0.8889
  947MOL0     C30611   8.118   7.784  10.419  0.4913  0.8303 -0.9633
  947MOL0     C30612   8.115   7.691  10.314  0.3452  0.3673 -0.1229
  947MOL0     C30613   8.094   7.593  10.239 -0.9449 -0.5803  0.4556
  947MOL0     C30614   8.595   8.053  10.094 -0.2033  1.0648 -0.3732
  947MOL0     C30615   8.706   8.067  10.015 -0.3962  0.1129  0.0732
  947MOL0     C30616   8.676   8.100   9.870 -0.0562 -0.3630  0.1176
  947MOL0     H30617   9.313   8.073  10.200  0.5006  0.0001 -0.8462
  947MOL0     H30618   9.536   8.015  10.094  0.4449  0.1808 -1.2025
  947MOL0     H30619   9.631   8.139   9.776  0.6231  0.5843  0.3364
  947MOL0     H30620   9.585   7.997   9.664 -1.5873 -1.1412  1.4483
  947MOL0     H30621   9.814   8.069   9.636 -2.3935  0.0747 -0.1945
  947MOL0     H30622   9.847   8.052   9.808  2.4674 -1.1737 -0.5230
  947MOL0     H30623   9.814   7.804   9.802  1.2436 -2.8861 -0.8201
  947MOL0     H30624   9.753   7.826   9.638 -1.3160  1.0601  1.0195
  947MOL0     H30625  10.043   7.813   9.737 -0.4743 -0.4265  0.5595
  947MOL0     H30626   9.955   7.734   9.602  0.0472  0.1382 -1.1645
  947MOL0     H30627  10.049   8.028   9.593  0.6608 -0.6762  1.3470
  947MOL0     H30628   9.957   7.945   9.469 -0.0656 -2.9329  0.1084
  947MOL0     H30629  10.236   7.854   9.561 -0.0402 -0.9146 -0.7757
  947MOL0     H30630  10.125   7.785   9.432 -2.4854  0.1273  0.9251
  947MOL0     H30631  10.223   8.071   9.405 -1.7452  0.6827  0.4675
  947MOL0     H30632  10.132   7.968   9.301 -0.3029 -1.0736  0.3574
  947MOL0     H30633  10.334   7.784   9.335 -0.7868 -0.5165 -0.9906
  947MOL0     H30634  10.348   7.921   9.229  0.3967  1.2639  0.6213
  947MOL0     H30635  10.633   7.837   9.300 -0.7722  2.2406 -1.2616
  947MOL0     H30636  10.847   7.961   9.373 -0.9830 -1.2503 -0.5094
  947MOL0     H30637  10.838   7.852   9.508  2.8416  0.0432 -3.0282
  947MOL0     H30638  10.862   8.152   9.501 -0.0133  1.0594  0.6133
  947MOL0     H30639  10.853   8.077   9.656  0.9474  1.6617 -0.4659
  947MOL0     H30640  11.066   8.016   9.452 -1.5576  0.3204 -0.7503
  947MOL0     H30641  11.085   8.117   9.588  0.9644 -0.3125 -0.8319
  947MOL0     H30642  11.023   7.914   9.735  1.6848 -0.5970  1.4196
  947MOL0     H30643  11.011   7.818   9.597 -1.0721  1.0858  1.1985
  947MOL0     H30644  11.099   7.798   9.384 -0.8007 -0.8031 -0.7225
  947MOL0     H30645  11.256   7.575   9.163 -1.0016 -0.6474  0.0276
  947MOL0     H30646  11.232   7.739   9.102  0.9139  0.1764  1.4644
  947MOL0     H30647  11.113   7.671   9.210 -0.8356 -3.1253 -0.4523
  947MOL0     H30648  11.806   7.794   9.171 -0.9206  0.2276 -0.2756
  947MOL0     H30649  11.997   7.756   9.001 -0.6576  0.3183 -1.9992
  947MOL0     H30650  12.197   7.549   8.782 -0.3101  2.5015  0.4820
  947MOL0     H30651  12.172   7.666   8.911  1.1571  0.3053  3.8671
  947MOL0     H30652  12.185   7.475   9.082 -2.1205  0.7477 -1.1169
  947MOL0     H30653  12.242   7.370   8.953 -0.7397 -1.5433  2.3311
  947MOL0     H30654  12.390   7.524   9.126 -4.8462 -0.4852  0.8373
  947MOL0     H30655  12.382   7.641   8.996 -2.2579  0.3083 -2.2631
  947MOL0     H30656  12.473   7.365   8.925 -0.6353  0.4782  2.6032
  947MOL0     H30657  12.575   7.465   9.014 -0.6368  0.4049  0.4825
  947MOL0     H30658  12.460   7.554   8.735  1.7159  2.7849 -1.5114
  947MOL0     H30659  12.586   7.623   8.848  0.5939  0.0259  1.3043
  947MOL0     H30660  12.570   7.351   8.729 -1.8729  1.0189  0.7257
  947MOL0     H30661  12.722   7.415   8.797  1.0781  0.8386 -1.6121
  947MOL0     H30662  12.731   7.572   8.598  0.0120  0.8706  0.8119
  947MOL0     H30663  12.588   7.488   8.525  1.0308 -0.2075  0.5122
  947MOL0     H30664  12.784   7.378   8.428  0.8546  2.7425  0.5080
  947MOL0     H30665  12.693   7.267   8.545  0.3478  0.5369  3.2760
  947MOL0     H30666  11.848   7.349   8.952  2.6837  0.1627 -0.7816
  947MOL0     H30667  11.679   7.392   9.130 -1.5262  0.2508 -1.6327
  947MOL0     H30668  11.577   7.717   9.493 -0.3574 -2.9055  2.4344
  947MOL0     H30669  11.424   7.802   9.663 -2.1107 -0.1952  0.5114
  947MOL0     H30670   9.336   7.928   9.729 -4.1671 -1.0673  0.6049
  947MOL0     H30671   9.131   7.970   9.821 -2.7501  0.5257  3.6052
  947MOL0     H30672   8.938   8.023  10.260  0.4380  2.2867 -2.4769
  947MOL0     H30673   8.746   8.004  10.390  0.3407  0.0657  0.2672
  947MOL0     H30674   8.570   7.832  10.407  2.1706  2.9116  1.5592
  947MOL0     H30675   8.473   7.945  10.507  3.3023 -3.8810  3.0454
  947MOL0     H30676   8.375   7.717  10.444  0.1449 -0.0861 -0.3976
  947MOL0     H30677   8.363   7.768  10.287 -0.6179 -2.7595  1.5214
  947MOL0     H30678   8.231   7.933  10.503  1.4955  0.7848 -1.4524
  947MOL0     H30679   8.211   7.950  10.327 -0.7495  2.6538  1.7478
  947MOL0     H30680   8.023   7.838  10.422 -0.2765 -0.4726  1.7135
  947MOL0     H30681   8.128   7.729  10.514  0.2401  2.2765 -0.0619
  947MOL0     H30682   8.082   7.513  10.169  0.2976 -0.2511 -0.1618
  947MOL0     H30683   8.493   8.057  10.057 -0.7365  0.0584  0.9088
  947MOL0     H30684   8.574   8.080   9.837 -0.1425 -0.7331  0.5979
  947MOL0     H30685   8.707   8.205   9.862  0.3484 -0.0609  3.8051
  947MOL0     H30686   8.729   8.033   9.803 -0.1184 -0.0450 -0.2494
  948MOL0     O30687   8.982  11.182   2.309  0.4970 -0.6950  0.4521
  948MOL0     C30688   8.944  11.197   2.427 -0.2397 -0.6220 -0.2285
  948MOL0     O30689   9.019  11.234   2.532  0.2400 -0.4511  0.4666
  948MOL0     C30690   9.150  11.278   2.518 -0.1524  0.5051  0.4946
  948MOL0     C30691   9.191  11.394   2.588 -0.0895  0.6565 -0.4413
  948MOL0     C30692   9.329  11.441   2.568  0.2673 -0.1464 -1.1572
  948MOL0     C30693   9.418  11.366   2.484  0.2494 -0.4396 -0.2114
  948MOL0     O30694   9.542  11.415   2.448  0.4407 -0.1592 -0.1141
  948MOL0     C30695   9.626  11.438   2.563 -0.7815 -0.4157  0.0845
  948MOL0     C30696   9.757  11.497   2.501 -0.0924 -0.2140 -0.8826
  948MOL0     C30697   9.823  11.398   2.406  0.2643 -0.1377  0.5114
  948MOL0     C30698   9.947  11.456   2.333  0.1180 -0.8596 -0.1992
  948MOL0     C30699  10.065  11.454   2.424 -0.0659 -0.1975  0.3305
  948MOL0     C30700  10.147  11.587   2.409 -0.6172  0.5703  0.0894
  948MOL0     C30701  10.283  11.567   2.480  0.5981  1.3305  0.2665
  948MOL0     C30702  10.358  11.696   2.492  0.3798 -1.0634  1.3623
  948MOL0     N30703  10.477  11.690   2.579  0.3403  0.0345 -0.0982
  948MOL0     C30704  10.477  11.686   2.711 -0.0297 -0.5276 -0.4932
  948MOL0     C30705  10.610  11.646   2.738 -1.3511  0.0385  0.0722
  948MOL0     C30706  10.659  11.604   2.878  0.3000  0.3071 -0.0397
  948MOL0     C30707  10.640  11.713   2.986 -0.0288 -0.1329 -0.0203
  948MOL0     C30708  10.705  11.675   3.113  0.8415 -0.2593  0.2088
  948MOL0     C30709  10.865  11.691   3.101 -0.7618 -0.0812 -0.6766
  948MOL0     O30710  10.923  11.728   3.228  0.1104  0.0137 -0.9862
  948MOL0     C30711  11.035  11.810   3.237  0.6599  0.2531  0.0160
  948MOL0     C30712  11.069  11.844   3.367 -0.4594  0.2166  0.0551
  948MOL0     C30713  11.193  11.913   3.396  0.5123 -0.0673 -0.1707
  948MOL0     C30714  11.218  11.941   3.542  0.2887 -0.3429 -0.5176
  948MOL0     C30715  11.280  11.948   3.293 -0.5101 -0.4756  0.6452
  948MOL0     C30716  11.414  12.031   3.310  0.4795 -0.2695  0.6951
  948MOL0     O30717  11.457  12.093   3.196  0.0876  0.5499 -0.1468
  948MOL0     C30718  11.544  12.200   3.187 -0.7323  0.3855 -0.3172
  948MOL0     C30719  11.652  12.224   3.268  0.0653  0.3860 -0.0863
  948MOL0     C30720  11.745  12.329   3.254  0.6038 -0.3846  0.2605
  948MOL0     C30721  11.709  12.426   3.154 -0.0941  0.0443  0.3349
  948MOL0     O30722  11.812  12.524   3.131 -0.6269 -0.2051 -0.5204
  948MOL0     C30723  11.870  12.537   2.990 -0.1204  0.2244 -0.0718
  948MOL0     C30724  11.981  12.648   2.992  0.1922  0.0329 -0.9051
  948MOL0     C30725  12.106  12.637   3.085 -1.3721 -0.2351  0.0211
  948MOL0     C30726  12.233  12.573   3.026 -0.3692 -0.2412 -0.4661
  948MOL0     C30727  12.290  12.635   2.899 -0.5276  0.0174 -0.3432
  948MOL0     C30728  12.437  12.582   2.872  0.3914 -1.2567  0.4532
  948MOL0     C30729  12.483  12.660   2.746  1.1355  0.1036 -0.2455
  948MOL0     C30730  12.627  12.626   2.720 -0.6497 -0.5002  0.5060
  948MOL0    Cl30731  12.658  12.661   2.550 -0.3173  0.0404 -0.0272
  948MOL0     C30732  11.594  12.408   3.076 -0.0480  0.1971 -0.6023
  948MOL0     C30733  11.518  12.295   3.092 -0.4251 -0.2017 -1.0039
  948MOL0     O30734  11.469  12.049   3.413  0.1591  0.2505  0.0851
  948MOL0     C30735  11.248  11.911   3.164  0.4156 -1.6745 -0.2284
  948MOL0     C30736  11.124  11.853   3.136 -0.7633  0.2002  0.0903
  948MOL0     N30737  10.683  11.629   2.617  0.6508  0.7000 -0.8538
  948MOL0     N30738  10.595  11.648   2.527 -0.0651 -0.9328 -0.0095
  948MOL0     C30739   9.376  11.250   2.422 -0.2901  0.0202  0.2150
  948MOL0     C30740   9.244  11.202   2.434 -0.2188  0.0598  0.0803
  948MOL0     C30741   8.795  11.181   2.461 -0.4134  0.1400  0.6665
  948MOL0     C30742   8.702  11.237   2.377  0.2943  0.1290 -0.3900
  948MOL0     C30743   8.564  11.245   2.420  0.3635  0.4895 -0.7049
  948MOL0     C30744   8.533  11.199   2.546  0.1439 -0.6605  1.0492
  948MOL0     O30745   8.404  11.210   2.585  0.4178 -0.2202 -0.8257
  948MOL0     C30746   8.315  11.102   2.533 -0.7790  0.8550 -0.4661
  948MOL0     C30747   8.222  11.073   2.646 -0.0999 -0.2111 -0.3219
  948MOL0     C30748   8.263  10.975   2.755 -0.4189  0.1178 -0.3660
  948MOL0     C30749   8.174  10.952   2.879 -0.5914 -0.0320 -0.2734
  948MOL0     C30750   8.041  10.899   2.832  0.2357 -0.5364 -0.9194
  948MOL0     C30751   7.937  10.839   2.814  0.3057 -0.8199 -0.0691
  948MOL0     C30752   8.628  11.131   2.625  0.5303 -0.3272 -0.4314
  948MOL0     C30753   8.762  11.121   2.587  0.0477 -0.2144 -0.4923
  948MOL0     C30754   8.857  11.060   2.691 -0.0227  0.4423  0.0432
  948MOL0     H30755   9.127  11.446   2.659  1.4845 -0.7906  2.2158
  948MOL0     H30756   9.356  11.542   2.599  0.3431  0.0521 -1.8620
  948MOL0     H30757   9.665  11.355   2.624  1.6423 -0.8122 -1.8239
  948MOL0     H30758   9.580  11.514   2.627  1.2245  0.5345  0.4694
  948MOL0     H30759   9.746  11.599   2.463  1.7667 -0.7444 -3.0500
  948MOL0     H30760   9.817  11.511   2.592 -3.6805 -1.5648  1.9600
  948MOL0     H30761   9.853  11.303   2.452 -0.9044 -1.1837 -0.7922
  948MOL0     H30762   9.750  11.365   2.332  0.3052 -0.8903  0.7921
  948MOL0     H30763   9.966  11.406   2.238 -1.8241 -0.3565 -0.9132
  948MOL0     H30764   9.927  11.560   2.305  2.5415  0.1481  1.4767
  948MOL0     H30765  10.129  11.375   2.381  0.5037  0.0514  0.7068
  948MOL0     H30766  10.049  11.444   2.531  3.8787  2.1653  1.3278
  948MOL0     H30767  10.159  11.622   2.307  0.4177  1.7758  0.5959
  948MOL0     H30768  10.096  11.664   2.467  1.6254  0.4605  2.4013
  948MOL0     H30769  10.345  11.487   2.437 -0.5465  0.4909  0.1476
  948MOL0     H30770  10.260  11.536   2.582 -0.1535  0.6907 -0.0894
  948MOL0     H30771  10.388  11.729   2.392  2.5203 -0.0499  2.2765
  948MOL0     H30772  10.297  11.778   2.530 -0.6185 -1.3117  0.3721
  948MOL0     H30773  10.403  11.718   2.783  2.4873  0.8990  1.6793
  948MOL0     H30774  10.766  11.586   2.868  0.7131  1.6552  1.5735
  948MOL0     H30775  10.616  11.508   2.910  3.6995 -0.7566  1.7889
  948MOL0     H30776  10.679  11.808   2.947  0.7469  0.2833  1.6681
  948MOL0     H30777  10.532  11.731   2.995  0.4663  3.5625  0.2671
  948MOL0     H30778  10.672  11.741   3.193 -1.0678 -0.3813 -0.4381
  948MOL0     H30779  10.681  11.569   3.130  0.7076 -0.6528 -2.1547
  948MOL0     H30780  10.893  11.589   3.074 -1.6301 -0.4426 -0.2599
  948MOL0     H30781  10.888  11.767   3.026 -1.0369  1.0701  0.3611
  948MOL0     H30782  11.010  11.808   3.451  0.3466 -1.3706 -0.0153
  948MOL0     H30783  11.124  11.921   3.594 -0.2133 -0.0216 -1.2683
  948MOL0     H30784  11.244  12.047   3.546  2.0171 -0.7754  1.6069
  948MOL0     H30785  11.300  11.888   3.590 -0.6557 -0.0283  1.5641
  948MOL0     H30786  11.674  12.147   3.342  1.4454  1.0194  0.2004
  948MOL0     H30787  11.841  12.347   3.302  1.3774  1.9938 -1.9134
  948MOL0     H30788  11.913  12.441   2.959  0.9166 -0.0530  2.0063
  948MOL0     H30789  11.795  12.576   2.921 -1.7146  0.3198  1.6388
  948MOL0     H30790  12.012  12.658   2.887 -0.1973  1.3367 -0.9032
  948MOL0     H30791  11.929  12.741   3.017 -1.3257 -1.0232  0.0714
  948MOL0     H30792  12.057  12.593   3.173 -3.0987 -0.5062 -1.0172
  948MOL0     H30793  12.134  12.739   3.111 -1.7752 -0.5056  1.6753
  948MOL0     H30794  12.209  12.468   3.007  1.1202 -0.8202  0.6683
  948MOL0     H30795  12.312  12.579   3.101 -0.7194  0.5396 -0.1479
  948MOL0     H30796  12.220  12.616   2.817  3.3420 -0.9889 -3.7452
  948MOL0     H30797  12.305  12.741   2.918  1.3864 -0.6937  2.8760
  948MOL0     H30798  12.439  12.477   2.843  3.8137 -1.2205  0.1029
  948MOL0     H30799  12.497  12.600   2.962  1.6417 -0.3690 -0.5184
  948MOL0     H30800  12.489  12.768   2.766  0.2620  0.2139 -0.5507
  948MOL0     H30801  12.421  12.631   2.661 -1.2813 -0.0085  1.4683
  948MOL0     H30802  12.664  12.526   2.744  3.0102  1.2049  3.0831
  948MOL0     H30803  12.687  12.692   2.783 -0.9468  0.3757 -0.1035
  948MOL0     H30804  11.576  12.486   3.003  0.8770 -0.3827 -1.4677
  948MOL0     H30805  11.428  12.290   3.031 -1.8633 -0.8547  1.0714
  948MOL0     H30806  11.314  11.936   3.082  0.8782  0.1747  0.6598
  948MOL0     H30807  11.098  11.825   3.034  3.4114 -0.1086 -1.0805
  948MOL0     H30808   9.452  11.208   2.358  0.6721  1.7606  0.1622
  948MOL0     H30809   9.213  11.105   2.396 -0.4324 -0.6415  1.9554
  948MOL0     H30810   8.719  11.272   2.276 -0.4371  1.7753  0.0145
  948MOL0     H30811   8.492  11.288   2.353 -1.6308 -1.4684  0.0566
  948MOL0     H30812   8.254  11.139   2.450 -1.1000 -0.7058 -0.9589
  948MOL0     H30813   8.373  11.019   2.490 -0.3157 -0.3931  2.3481
  948MOL0     H30814   8.130  11.031   2.604 -1.8366  1.8372  1.1908
  948MOL0     H30815   8.191  11.169   2.687  1.4635  0.0959  0.2012
  948MOL0     H30816   8.270  10.872   2.719 -2.4879 -0.1679 -0.0771
  948MOL0     H30817   8.363  11.015   2.777 -1.3028  1.3037  1.8344
  948MOL0     H30818   8.165  11.043   2.938 -2.6938  2.0186 -3.4449
  948MOL0     H30819   8.218  10.877   2.945  1.7654  1.3352 -0.1695
  948MOL0     H30820   7.864  10.768   2.781  0.7937 -0.8642 -1.1017
  948MOL0     H30821   8.602  11.095   2.724  2.2650 -0.5275 -0.0108
  948MOL0     H30822   8.929  10.997   2.638 -1.3211  0.6528 -2.1164
  948MOL0     H30823   8.913  11.136   2.745  1.9171 -0.8368 -0.0860
  948MOL0     H30824   8.807  10.993   2.762  1.8265 -0.2077  0.8037
  949MOL0     O30825   2.099  10.838   5.108 -0.1860  1.2838 -0.1941
  949MOL0     C30826   1.988  10.874   5.127  0.1155 -0.5788 -0.1067
  949MOL0     O30827   1.955  10.992   5.196  0.9141 -0.5216  1.1740
  949MOL0     C30828   2.047  11.066   5.267  0.0966 -1.1626 -0.8502
  949MOL0     C30829   2.182  11.022   5.304 -0.3091 -0.8864  0.6512
  949MOL0     C30830   2.266  11.098   5.389  0.6399  0.2680 -0.6908
  949MOL0     C30831   2.223  11.227   5.420  0.0559  0.2037  0.3154
  949MOL0     O30832   2.288  11.317   5.505 -0.7632 -0.1019 -0.5391
  949MOL0     C30833   2.431  11.307   5.537 -0.3817 -0.5605 -0.2817
  949MOL0     C30834   2.501  11.418   5.613  0.7721  0.0501 -0.6246
  949MOL0     C30835   2.646  11.426   5.600  0.4070  0.3909  0.3368
  949MOL0     C30836   2.707  11.560   5.630 -0.7302  0.3672  0.3813
  949MOL0     C30837   2.861  11.567   5.599  1.1288 -0.2129  0.6798
  949MOL0     C30838   2.943  11.479   5.690  0.8016  0.3453  0.2298
  949MOL0     C30839   3.094  11.500   5.678 -0.3511 -0.5312 -0.2041
  949MOL0     C30840   3.161  11.475   5.809  0.0742  0.4665 -0.3094
  949MOL0     N30841   3.299  11.512   5.799  0.8227 -0.7452  0.4461
  949MOL0     C30842   3.410  11.432   5.777 -0.6991  0.1038 -0.8081
  949MOL0     C30843   3.506  11.516   5.796 -0.2702 -0.2848 -0.8028
  949MOL0     C30844   3.653  11.481   5.799  0.8137  0.1919 -0.1836
  949MOL0     C30845   3.707  11.402   5.931 -0.3605 -0.2037 -0.1761
  949MOL0     C30846   3.656  11.469   6.060  0.3890 -0.4962 -0.0422
  949MOL0     C30847   3.732  11.610   6.081 -0.2715  0.1742 -0.0115
  949MOL0     O30848   3.874  11.609   6.110  0.0544 -0.5882  0.6888
  949MOL0     C30849   3.921  11.550   6.221 -0.2923  0.2570 -0.3705
  949MOL0     C30850   3.845  11.507   6.327  0.5491  1.0852  0.3895
  949MOL0     C30851   3.914  11.458   6.445  0.5036 -0.1410 -0.0135
  949MOL0     C30852   3.830  11.430   6.571 -0.7398  0.3566  0.0623
  949MOL0     C30853   4.056  11.441   6.448 -0.2315 -0.0007 -0.5770
  949MOL0     C30854   4.138  11.384   6.562 -0.1122  0.5610  0.6146
  949MOL0     O30855   4.266  11.339   6.531  0.1266 -0.1396 -0.3961
  949MOL0     C30856   4.357  11.307   6.632 -0.0670 -0.3361  0.4781
  949MOL0     C30857   4.465  11.402   6.645  0.4494 -0.5435 -0.5867
  949MOL0     C30858   4.574  11.361   6.724  0.9616  0.0175  0.2759
  949MOL0     C30859   4.575  11.238   6.795 -0.7883  0.2211 -0.2131
  949MOL0     O30860   4.698  11.208   6.857 -0.2666 -0.5704 -0.4445
  949MOL0     C30861   4.705  11.076   6.922 -0.3769 -0.3058 -0.0517
  949MOL0     C30862   4.855  11.057   6.952  0.6199  0.8749  0.1876
  949MOL0     C30863   4.926  11.177   7.020  0.2994  0.3107 -0.0228
  949MOL0     C30864   5.071  11.139   7.060 -0.6225 -0.2154 -0.5356
  949MOL0     C30865   5.154  11.262   7.091 -0.2832 -0.2640 -0.9728
  949MOL0     C30866   5.302  11.224   7.126  0.8017  0.2210  0.7118
  949MOL0     C30867   5.383  11.335   7.184  0.6739  1.1407  0.0727
  949MOL0     C30868   5.527  11.291   7.199  0.1296  0.1712  0.0475
  949MOL0    Cl30869   5.602  11.267   7.038  0.7163  0.3355  0.2293
  949MOL0     C30870   4.458  11.156   6.791 -0.2695  0.5067  0.9623
  949MOL0     C30871   4.353  11.184   6.697 -0.4951 -0.3007 -1.0048
  949MOL0     O30872   4.097  11.379   6.674 -0.3867 -0.6759 -0.1478
  949MOL0     C30873   4.123  11.483   6.337  0.0103 -0.2441  0.9418
  949MOL0     C30874   4.062  11.536   6.226 -0.4512  0.0421  0.2861
  949MOL0     N30875   3.456  11.642   5.823  0.3937 -0.2518 -0.5105
  949MOL0     N30876   3.331  11.631   5.826  0.2689  0.5995 -0.6093
  949MOL0     C30877   2.097  11.276   5.383  1.2263  0.1142 -0.7660
  949MOL0     C30878   2.016  11.192   5.315 -0.1605 -0.1931  1.0717
  949MOL0     C30879   1.878  10.790   5.081 -0.1456  0.3386 -0.4242
  949MOL0     C30880   1.746  10.820   5.113  0.5263  0.0601 -0.6708
  949MOL0     C30881   1.640  10.746   5.058 -0.7464  0.3795 -1.7925
  949MOL0     C30882   1.657  10.650   4.962 -0.0324 -0.0411 -0.6387
  949MOL0     O30883   1.554  10.597   4.894  0.2580 -0.8847  0.1398
  949MOL0     C30884   1.562  10.474   4.823  0.2837 -0.2121  0.0845
  949MOL0     C30885   1.421  10.453   4.757 -0.1485  0.6522  0.6531
  949MOL0     C30886   1.416  10.325   4.678  0.4235 -0.8570  0.9128
  949MOL0     C30887   1.299  10.323   4.584 -1.2345  0.0290  0.7119
  949MOL0     C30888   1.179  10.275   4.660  0.2525 -0.8245 -0.4241
  949MOL0     C30889   1.094  10.228   4.726  0.2558  0.5505 -0.3053
  949MOL0     C30890   1.790  10.612   4.932 -0.3915 -0.0366  0.0150
  949MOL0     C30891   1.898  10.679   4.993 -0.5221  0.3634 -0.5723
  949MOL0     C30892   2.040  10.627   4.956 -0.0004 -0.2880  0.4525
  949MOL0     H30893   2.209  10.918   5.296  0.1942 -0.8190  1.3650
  949MOL0     H30894   2.364  11.068   5.424  0.5420  1.5864  0.8311
  949MOL0     H30895   2.480  11.293   5.440  0.0556 -0.5107 -0.0709
  949MOL0     H30896   2.451  11.221   5.601 -4.3625 -0.4987  1.3142
  949MOL0     H30897   2.449  11.512   5.591 -0.2847 -0.8498 -2.1204
  949MOL0     H30898   2.481  11.412   5.721  1.7401  1.0731 -0.3646
  949MOL0     H30899   2.699  11.358   5.667 -0.0772 -0.7425 -0.3874
  949MOL0     H30900   2.670  11.400   5.496  1.1834 -0.2530  0.6590
  949MOL0     H30901   2.665  11.639   5.567 -1.4648  0.2283  0.6832
  949MOL0     H30902   2.690  11.588   5.734  0.2860  2.0037  0.1383
  949MOL0     H30903   2.894  11.667   5.629  0.8950 -0.2875  1.2040
  949MOL0     H30904   2.879  11.557   5.492 -1.4627  1.9440 -0.0692
  949MOL0     H30905   2.910  11.490   5.794 -2.1635 -0.1338 -0.5939
  949MOL0     H30906   2.917  11.379   5.654 -1.4031  1.9388 -3.1415
  949MOL0     H30907   3.113  11.601   5.639 -0.8441 -0.0900  0.6648
  949MOL0     H30908   3.140  11.432   5.606  1.1489 -0.4368  0.6172
  949MOL0     H30909   3.116  11.541   5.884  3.4312  1.2067  1.2095
  949MOL0     H30910   3.144  11.373   5.846  3.6770  0.5404  2.0180
  949MOL0     H30911   3.416  11.326   5.758  0.1042 -0.0782  0.3498
  949MOL0     H30912   3.709  11.574   5.782 -0.9270  1.0278 -1.6493
  949MOL0     H30913   3.668  11.419   5.710 -2.4455 -0.1596 -0.5972
  949MOL0     H30914   3.662  11.304   5.919 -2.6614  0.8874 -1.1213
  949MOL0     H30915   3.815  11.389   5.945 -0.7558 -2.2188  1.4434
  949MOL0     H30916   3.549  11.485   6.048  0.5907  3.4792  1.7831
  949MOL0     H30917   3.668  11.404   6.147  0.0196 -0.7038 -0.1447
  949MOL0     H30918   3.706  11.669   5.994  1.1150  0.5219 -0.2117
  949MOL0     H30919   3.685  11.662   6.166 -4.1898 -0.7448 -1.4025
  949MOL0     H30920   3.737  11.519   6.332  0.2828  0.4887 -2.3031
  949MOL0     H30921   3.874  11.339   6.613  0.4933  1.9585  2.4212
  949MOL0     H30922   3.722  11.420   6.552 -0.7877 -0.7031  0.8171
  949MOL0     H30923   3.845  11.508   6.646 -1.0460  0.5840 -0.1116
  949MOL0     H30924   4.482  11.500   6.603 -0.1855  0.2336  0.8871
  949MOL0     H30925   4.660  11.426   6.735  1.4692 -0.9401  2.7983
  949MOL0     H30926   4.647  11.057   7.013  1.8477 -0.8685  1.3285
  949MOL0     H30927   4.676  10.998   6.851 -1.8330  1.9395 -2.1121
  949MOL0     H30928   4.870  10.958   6.997  1.6978  1.2973  0.7975
  949MOL0     H30929   4.908  11.056   6.857  4.9657  0.2893  2.3487
  949MOL0     H30930   4.861  11.209   7.102 -1.3112 -0.4473 -0.9549
  949MOL0     H30931   4.928  11.257   6.946  0.0696 -0.9965 -1.5067
  949MOL0     H30932   5.121  11.078   6.984 -0.8312 -2.9216  1.3343
  949MOL0     H30933   5.051  11.073   7.146 -0.8161  0.2278 -0.2344
  949MOL0     H30934   5.153  11.322   7.000  0.8868 -2.1993 -2.3242
  949MOL0     H30935   5.112  11.318   7.175  2.2231 -1.9584  1.5997
  949MOL0     H30936   5.334  11.178   7.031 -3.7266 -0.6914 -0.6163
  949MOL0     H30937   5.305  11.141   7.198 -0.2386 -0.0524  0.4533
  949MOL0     H30938   5.346  11.360   7.284  0.9770 -1.0942  0.7984
  949MOL0     H30939   5.373  11.431   7.133  1.1441  3.9708  4.7266
  949MOL0     H30940   5.522  11.201   7.261 -0.1442 -1.5863 -2.3976
  949MOL0     H30941   5.578  11.377   7.244 -1.4583  2.8409 -2.8703
  949MOL0     H30942   4.448  11.060   6.840 -1.8911 -0.4783 -1.1131
  949MOL0     H30943   4.275  11.110   6.685  0.1525 -1.0108 -0.9248
  949MOL0     H30944   4.231  11.474   6.337 -0.0423 -1.0086  0.0541
  949MOL0     H30945   4.124  11.570   6.143  1.0612 -2.9278  0.0706
  949MOL0     H30946   2.060  11.378   5.387 -3.5117 -1.3353 -1.0871
  949MOL0     H30947   1.916  11.225   5.289  0.6461 -0.9413 -3.9750
  949MOL0     H30948   1.714  10.904   5.173 -0.1638 -0.2093 -0.6575
  949MOL0     H30949   1.539  10.771   5.091  0.4066  1.4178  1.2289
  949MOL0     H30950   1.641  10.473   4.747  0.5903 -1.1445  0.4021
  949MOL0     H30951   1.584  10.395   4.896 -0.4050  2.4852  3.4473
  949MOL0     H30952   1.391  10.536   4.692 -1.5904 -2.1748 -2.5326
  949MOL0     H30953   1.344  10.442   4.834 -0.5702  1.2967  0.3335
  949MOL0     H30954   1.509  10.322   4.621  0.2287  0.6230  0.4855
  949MOL0     H30955   1.416  10.236   4.743 -0.4035  0.2984  2.5685
  949MOL0     H30956   1.312  10.251   4.503  1.4473 -0.6485  1.6531
  949MOL0     H30957   1.283  10.423   4.541  0.0482 -0.9358 -2.2810
  949MOL0     H30958   1.022  10.170   4.779 -0.9368  1.3817 -0.9784
  949MOL0     H30959   1.817  10.533   4.863  1.8440 -0.8681  1.7227
  949MOL0     H30960   2.038  10.542   4.887  5.2672  0.4192 -0.9806
  949MOL0     H30961   2.092  10.703   4.897  0.7514 -2.2043 -1.5121
  949MOL0     H30962   2.114  10.608   5.034  0.3565 -2.0261 -0.2556
  950MOL0     O30963   9.025   1.332  11.320 -0.3856 -0.7873  0.0177
  950MOL0     C30964   8.964   1.305  11.219 -1.1767  0.2342 -0.0963
  950MOL0     O30965   9.013   1.296  11.087 -0.0043  0.2678  0.5479
  950MOL0     C30966   9.143   1.316  11.055  0.9547  0.6423  0.5778
  950MOL0     C30967   9.228   1.406  11.117  0.0880 -0.3377 -0.0870
  950MOL0     C30968   9.360   1.423  11.066 -0.3528 -0.8751  0.3888
  950MOL0     C30969   9.409   1.344  10.962  0.6674 -0.2789  0.3804
  950MOL0     O30970   9.531   1.373  10.909  0.7242 -0.6659 -0.2091
  950MOL0     C30971   9.617   1.270  10.858 -0.3573 -0.4746  0.1327
  950MOL0     C30972   9.693   1.325  10.731  0.7333 -0.8984  0.5362
  950MOL0     C30973   9.828   1.257  10.696  0.0401  0.2121  0.3463
  950MOL0     C30974   9.907   1.343  10.601 -0.1366 -0.4310 -0.8330
  950MOL0     C30975  10.060   1.306  10.608  0.0862  0.0925  0.4158
  950MOL0     C30976  10.125   1.369  10.477  0.0075 -0.7342  0.0032
  950MOL0     C30977  10.235   1.288  10.428 -0.4290  1.0288 -0.5801
  950MOL0     C30978  10.357   1.279  10.521 -0.3157 -0.2056  0.9990
  950MOL0     N30979  10.481   1.229  10.453 -0.7082  0.0713 -0.4845
  950MOL0     C30980  10.582   1.157  10.518 -0.0722 -0.4435 -0.0734
  950MOL0     C30981  10.690   1.167  10.439 -0.7568 -0.5478  0.3929
  950MOL0     C30982  10.821   1.085  10.451 -0.3678 -1.2133 -0.2752
  950MOL0     C30983  10.807   0.937  10.434  1.0832  0.8067 -0.1917
  950MOL0     C30984  10.744   0.898  10.303 -0.1045  0.7894 -0.2224
  950MOL0     C30985  10.838   0.926  10.185  0.0489 -0.4128 -0.3945
  950MOL0     O30986  10.964   0.859  10.218  0.0581  0.6550  0.9679
  950MOL0     C30987  11.083   0.901  10.159 -0.1927 -0.4002  0.1663
  950MOL0     C30988  11.088   0.994  10.055  0.4707  0.0164 -0.3171
  950MOL0     C30989  11.208   1.019   9.981 -0.1868 -0.7434  0.7858
  950MOL0     C30990  11.196   1.122   9.873 -0.0330 -0.1073  0.4822
  950MOL0     C30991  11.324   0.958  10.019 -0.2969  0.0338  0.4509
  950MOL0     C30992  11.458   0.986   9.964  0.2952 -0.2474  0.1074
  950MOL0     O30993  11.473   1.110   9.908  0.3330  0.2370 -0.0390
  950MOL0     C30994  11.590   1.155   9.861 -0.0411  0.0947 -0.3258
  950MOL0     C30995  11.688   1.081   9.799 -0.3501  0.4431 -0.1197
  950MOL0     C30996  11.816   1.139   9.778 -0.5273  0.0746  0.5845
  950MOL0     C30997  11.839   1.275   9.804  0.2681  0.0834  0.3062
  950MOL0     O30998  11.965   1.319   9.776 -0.3579 -0.0769  0.3393
  950MOL0     C30999  12.003   1.452   9.798  0.1318 -0.6564 -0.1267
  950MOL0     C31000  12.149   1.489   9.774 -0.2444  0.2320 -0.6361
  950MOL0     C31001  12.238   1.366   9.775  0.2089  0.6680 -0.1289
  950MOL0     C31002  12.386   1.428   9.772  0.5498  0.0948 -0.0086
  950MOL0     C31003  12.479   1.311   9.765 -0.5087  0.6262  0.4669
  950MOL0     C31004  12.626   1.347   9.723  0.4127 -1.0268 -0.0753
  950MOL0     C31005  12.687   1.432   9.835  0.1336  0.1528 -0.1531
  950MOL0     C31006  12.838   1.461   9.824 -0.1320 -0.0718  0.2963
  950MOL0    Cl31007  12.932   1.317   9.817 -0.3279 -0.0372 -0.0013
  950MOL0     C31008  11.734   1.349   9.866  0.6742 -0.3679  0.7280
  950MOL0     C31009  11.618   1.289   9.896 -0.5548  0.1991 -0.5029
  950MOL0     O31010  11.545   0.897   9.973  0.4094 -0.7890 -0.0596
  950MOL0     C31011  11.321   0.871  10.124  0.6829  1.0767  0.8663
  950MOL0     C31012  11.204   0.837  10.194  0.7949  0.1357 -0.4882
  950MOL0     N31013  10.640   1.222  10.319 -0.6015  0.4490 -1.0759
  950MOL0     N31014  10.521   1.263  10.330 -0.4470 -0.0287 -0.0136
  950MOL0     C31015   9.326   1.245  10.908 -0.4400 -0.2203  1.0332
  950MOL0     C31016   9.198   1.231  10.958 -0.7307  1.0996 -0.3340
  950MOL0     C31017   8.823   1.283  11.236  0.5783 -0.9758  0.2932
  950MOL0     C31018   8.746   1.319  11.127  0.2795 -0.3593  0.4384
  950MOL0     C31019   8.609   1.317  11.126 -0.5944 -0.5068 -0.3963
  950MOL0     C31020   8.541   1.275  11.234  0.0833  0.5876  0.7795
  950MOL0     O31021   8.404   1.264  11.209  0.3318 -0.1210  0.1365
  950MOL0     C31022   8.321   1.226  11.325 -0.3468 -0.5641 -0.3144
  950MOL0     C31023   8.167   1.236  11.296  1.3747  0.1569 -0.7578
  950MOL0     C31024   8.097   1.215  11.437 -0.4884  0.4564 -0.2324
  950MOL0     C31025   7.943   1.226  11.436 -1.1269  0.4932 -0.4588
  950MOL0     C31026   7.880   1.239  11.569 -0.2231 -0.5604  0.0162
  950MOL0     C31027   7.836   1.241  11.681 -0.1874  0.2346  0.3546
  950MOL0     C31028   8.611   1.243  11.353  0.0057  1.0675  0.5401
  950MOL0     C31029   8.750   1.246  11.355  0.1405  0.7040  0.5928
  950MOL0     C31030   8.831   1.186  11.472  0.2384 -0.5184  0.7727
  950MOL0     H31031   9.188   1.478  11.188 -1.6094 -0.5247 -0.8185
  950MOL0     H31032   9.424   1.501  11.105  0.4269 -1.7721  0.9484
  950MOL0     H31033   9.568   1.173  10.850  3.3711 -2.5568  0.6807
  950MOL0     H31034   9.700   1.254  10.926  1.2110 -2.2568 -2.0588
  950MOL0     H31035   9.625   1.333  10.646 -1.5385  1.4164  2.3976
  950MOL0     H31036   9.719   1.427  10.764 -0.3742 -0.4691  0.1176
  950MOL0     H31037   9.880   1.230  10.789 -1.5106  2.1497  1.8784
  950MOL0     H31038   9.802   1.166  10.642 -2.0978  2.3377 -2.4747
  950MOL0     H31039   9.861   1.338  10.502  0.7303 -1.6190 -1.1928
  950MOL0     H31040   9.897   1.445  10.640 -2.1017 -1.6422  2.1386
  950MOL0     H31041  10.070   1.198  10.593  1.2032  0.1695  0.4810
  950MOL0     H31042  10.106   1.326  10.706 -0.3335 -2.0732  1.1131
  950MOL0     H31043  10.051   1.379  10.397 -0.1271  1.3894  0.3341
  950MOL0     H31044  10.168   1.466  10.504  0.0551 -0.3680 -1.3349
  950MOL0     H31045  10.275   1.338  10.340  0.7328  1.2542  0.0669
  950MOL0     H31046  10.199   1.186  10.410  0.1900  1.0064 -1.8086
  950MOL0     H31047  10.384   1.373  10.571  2.3957  2.1732 -4.2134
  950MOL0     H31048  10.326   1.213  10.603 -0.2814  0.5644  1.6460
  950MOL0     H31049  10.570   1.104  10.612 -1.8014  0.8118  0.4712
  950MOL0     H31050  10.849   1.105  10.555 -0.3422 -0.0700 -0.4900
  950MOL0     H31051  10.898   1.127  10.386 -1.7319  3.1063  0.6215
  950MOL0     H31052  10.901   0.881  10.443 -0.2550 -1.8813 -1.5028
  950MOL0     H31053  10.753   0.896  10.520 -1.3579 -0.2631 -2.1090
  950MOL0     H31054  10.720   0.791  10.303  0.2162  0.5601 -4.4014
  950MOL0     H31055  10.648   0.949  10.293 -0.5393 -0.0214 -0.3193
  950MOL0     H31056  10.799   0.880  10.094  2.4379 -2.2914 -0.5647
  950MOL0     H31057  10.845   1.035  10.174  1.1725 -0.6751 -3.2154
  950MOL0     H31058  10.993   1.037  10.025  0.7882  1.3159  0.4714
  950MOL0     H31059  11.216   1.223   9.910 -0.8205  0.1503  0.2358
  950MOL0     H31060  11.093   1.141   9.841  0.5945  0.2272 -1.5382
  950MOL0     H31061  11.256   1.115   9.782 -0.3931  2.1787  0.0042
  950MOL0     H31062  11.655   0.984   9.764 -1.4109  1.8279 -3.3545
  950MOL0     H31063  11.890   1.091   9.716 -4.8376 -4.0731 -2.0456
  950MOL0     H31064  11.944   1.525   9.741 -0.6854 -2.5390 -1.7941
  950MOL0     H31065  11.974   1.488   9.897  2.1406  3.3351 -0.7854
  950MOL0     H31066  12.156   1.528   9.673  0.3722  1.1752 -0.2414
  950MOL0     H31067  12.175   1.570   9.842 -0.9195 -0.0979  0.0330
  950MOL0     H31068  12.222   1.305   9.686 -0.1845  2.1139 -1.0835
  950MOL0     H31069  12.218   1.322   9.873 -0.7488  1.0847 -0.1184
  950MOL0     H31070  12.407   1.495   9.856 -2.6940  1.5621 -0.2309
  950MOL0     H31071  12.408   1.485   9.681  2.0476  1.2394  1.0216
  950MOL0     H31072  12.477   1.246   9.853 -1.1283 -2.1289 -1.4244
  950MOL0     H31073  12.455   1.250   9.677  0.6462  0.8342 -0.0071
  950MOL0     H31074  12.626   1.399   9.628  0.5180 -1.9954 -0.6196
  950MOL0     H31075  12.680   1.253   9.708  0.9373 -0.2076 -4.5595
  950MOL0     H31076  12.663   1.389   9.933 -0.1227  1.0702  0.2032
  950MOL0     H31077  12.648   1.534   9.837  0.4570  0.2744  0.2877
  950MOL0     H31078  12.865   1.519   9.912 -0.1421  2.8013 -1.4531
  950MOL0     H31079  12.854   1.530   9.740  1.1699 -1.4839 -0.6752
  950MOL0     H31080  11.755   1.453   9.886  1.0314 -0.4845  0.9809
  950MOL0     H31081  11.528   1.337   9.932  0.3578 -0.5654  3.1825
  950MOL0     H31082  11.415   0.832  10.162  1.2583  3.5553  2.2627
  950MOL0     H31083  11.206   0.756  10.267 -2.8256 -0.0541 -0.3928
  950MOL0     H31084   9.353   1.186  10.821  1.2380  0.1765  1.2503
  950MOL0     H31085   9.138   1.152  10.915  0.7140 -0.2191  0.0244
  950MOL0     H31086   8.794   1.332  11.031 -1.7304  0.1074 -0.5650
  950MOL0     H31087   8.553   1.350  11.039 -1.6208  2.9339  1.3702
  950MOL0     H31088   8.349   1.129  11.366 -1.1645  0.6657  3.5283
  950MOL0     H31089   8.335   1.294  11.409 -2.1824  0.6542 -0.9214
  950MOL0     H31090   8.128   1.156  11.232 -0.1264  0.3721 -0.1590
  950MOL0     H31091   8.150   1.337  11.257  0.4710  0.4297  0.2921
  950MOL0     H31092   8.126   1.113  11.466 -1.1550  0.8582  1.9998
  950MOL0     H31093   8.134   1.290  11.507  0.0965 -0.0218 -0.0219
  950MOL0     H31094   7.901   1.137  11.388  0.9080 -1.6605  1.5032
  950MOL0     H31095   7.919   1.319  11.383 -1.5994  1.9600  2.1555
  950MOL0     H31096   7.782   1.249  11.774  0.4712  2.0410  0.6196
  950MOL0     H31097   8.553   1.207  11.437  0.5296 -0.5418  0.2340
  950MOL0     H31098   8.918   1.131  11.434  0.3540  0.8483 -1.1085
  950MOL0     H31099   8.879   1.274  11.518  1.1924 -0.6753  0.1074
  950MOL0     H31100   8.765   1.136  11.543 -3.2530  3.5514  0.8058
  951MOL0     O31101   1.461  11.315   7.375 -0.1749  0.5382  0.0987
  951MOL0     C31102   1.421  11.366   7.274  0.0709 -0.8867  0.2467
  951MOL0     O31103   1.490  11.377   7.164  0.9449 -0.0633 -0.1720
  951MOL0     C31104   1.614  11.316   7.177 -0.2417 -0.9320 -0.2772
  951MOL0     C31105   1.716  11.346   7.277 -0.2614  0.2176  0.1982
  951MOL0     C31106   1.822  11.258   7.296  0.4610 -0.8786 -0.4243
  951MOL0     C31107   1.841  11.146   7.213 -0.2467 -0.1332  0.2031
  951MOL0     O31108   1.958  11.078   7.248 -0.3602  0.2154  0.5685
  951MOL0     C31109   1.964  10.937   7.217 -0.5768 -0.0487  0.5424
  951MOL0     C31110   2.114  10.889   7.245  0.7430  0.3633 -0.7595
  951MOL0     C31111   2.141  10.921   7.387  0.2308 -0.4311 -0.5723
  951MOL0     C31112   2.286  10.955   7.397  0.2422  0.7593 -0.5634
  951MOL0     C31113   2.331  10.966   7.547 -0.5007 -0.2361 -0.1605
  951MOL0     C31114   2.471  10.996   7.570 -0.3755 -0.1986  0.1812
  951MOL0     C31115   2.513  11.011   7.723 -0.4654  0.0032 -0.4501
  951MOL0     C31116   2.663  11.046   7.747 -0.1746  0.3813  0.3612
  951MOL0     N31117   2.780  10.954   7.723 -0.5079 -0.6690 -0.0260
  951MOL0     C31118   2.808  10.843   7.796  0.6228 -0.4806 -1.0385
  951MOL0     C31119   2.921  10.791   7.740  0.1160 -0.3498  0.2328
  951MOL0     C31120   3.009  10.685   7.800 -0.0237 -0.7892 -0.2841
  951MOL0     C31121   3.097  10.607   7.700  0.5148 -1.3108  0.0448
  951MOL0     C31122   3.168  10.487   7.762  0.1915 -0.2519  0.2831
  951MOL0     C31123   3.275  10.425   7.665 -0.5875 -0.4291 -0.3066
  951MOL0     O31124   3.205  10.404   7.539 -0.1349 -0.1384 -0.4610
  951MOL0     C31125   3.270  10.361   7.428  0.6496 -0.0257 -0.3816
  951MOL0     C31126   3.410  10.331   7.422  0.8812  0.1098  0.4153
  951MOL0     C31127   3.470  10.275   7.306  0.0588  0.5554  0.3389
  951MOL0     C31128   3.607  10.222   7.327 -0.1210 -0.0987  0.3151
  951MOL0     C31129   3.388  10.242   7.189 -0.4463  0.2299 -0.6495
  951MOL0     C31130   3.432  10.184   7.061 -0.6303  0.2326  0.4815
  951MOL0     O31131   3.348  10.118   6.979 -0.7946  0.6615 -0.0328
  951MOL0     C31132   3.383  10.090   6.850  0.0589  0.3272 -0.0056
  951MOL0     C31133   3.336   9.967   6.808  0.5868 -1.1044  0.0775
  951MOL0     C31134   3.375   9.918   6.684  0.0188  0.2671  0.4921
  951MOL0     C31135   3.470   9.984   6.607  0.5271 -0.6772 -0.1150
  951MOL0     O31136   3.496   9.927   6.488 -0.2913 -0.5827 -0.4517
  951MOL0     C31137   3.628   9.935   6.443  0.5070  0.2214  0.2422
  951MOL0     C31138   3.648   9.822   6.342  0.3983 -0.2918 -0.4277
  951MOL0     C31139   3.661   9.686   6.406 -0.5818 -0.0601 -0.0255
  951MOL0     C31140   3.795   9.651   6.476  0.4633 -0.7199  0.7171
  951MOL0     C31141   3.809   9.491   6.490  0.0192  0.7049 -0.5010
  951MOL0     C31142   3.948   9.449   6.544 -0.2999 -0.3675  0.1466
  951MOL0     C31143   3.969   9.303   6.529  0.0645 -0.0537  0.2873
  951MOL0     C31144   4.079   9.256   6.615  0.0987  0.9277 -0.2747
  951MOL0    Cl31145   4.239   9.323   6.579 -0.4058  1.0103 -0.1376
  951MOL0     C31146   3.523  10.105   6.653  0.6537 -0.9669  0.6344
  951MOL0     C31147   3.471  10.168   6.769  0.3367  0.3483 -0.4611
  951MOL0     O31148   3.550  10.208   7.029 -0.3481 -0.2437 -0.5780
  951MOL0     C31149   3.254  10.272   7.192  0.3452 -0.5915 -0.5864
  951MOL0     C31150   3.200  10.325   7.308  0.8033 -0.1627  0.0960
  951MOL0     N31151   2.945  10.863   7.629 -0.2482  0.1377 -0.5438
  951MOL0     N31152   2.868  10.960   7.618 -0.4749 -0.4702 -0.3366
  951MOL0     C31153   1.754  11.127   7.109 -0.0040  0.3253 -0.3120
  951MOL0     C31154   1.643  11.214   7.093 -0.3862  0.6187 -0.2355
  951MOL0     C31155   1.283  11.415   7.265 -0.1895  0.2606 -0.8030
  951MOL0     C31156   1.212  11.389   7.151  0.7142  0.0549  0.4147
  951MOL0     C31157   1.081  11.440   7.136 -0.5660 -0.1540 -1.4750
  951MOL0     C31158   1.020  11.519   7.241 -0.2003 -0.1884  0.7965
  951MOL0     O31159   0.896  11.564   7.210 -0.3001 -0.3635  0.7879
  951MOL0     C31160   0.789  11.544   7.311  0.3094 -0.3218  0.1180
  951MOL0     C31161   0.663  11.639   7.287 -0.6318  0.2975  0.1523
  951MOL0     C31162   0.597  11.618   7.152 -0.3988  0.4519 -0.1546
  951MOL0     C31163   0.470  11.709   7.124 -0.1649 -0.0343  0.2403
  951MOL0     C31164   0.518  11.850   7.130  0.4270  0.9095  0.0996
  951MOL0     C31165   0.569  11.964   7.115 -0.3876  0.0254  0.2250
  951MOL0     C31166   1.081  11.528   7.361 -0.1286  0.2662 -0.4214
  951MOL0     C31167   1.217  11.479   7.374 -0.3266 -0.2897  0.3112
  951MOL0     C31168   1.283  11.514   7.509  1.0244 -0.2559 -0.9267
  951MOL0     H31169   1.720  11.431   7.345  0.3463  0.0252  0.4075
  951MOL0     H31170   1.902  11.274   7.368 -2.6602  2.3966  2.7239
  951MOL0     H31171   1.946  10.924   7.110 -2.2273 -1.3794  0.9395
  951MOL0     H31172   1.891  10.876   7.271 -2.5874  0.3872 -1.5306
  951MOL0     H31173   2.115  10.780   7.238 -1.7836 -0.1284  3.1817
  951MOL0     H31174   2.177  10.936   7.169  0.3597  0.1290 -1.2273
  951MOL0     H31175   2.089  11.012   7.417  3.3281  1.0025  0.9178
  951MOL0     H31176   2.110  10.841   7.455 -0.7171  1.9641  2.0394
  951MOL0     H31177   2.342  10.871   7.356 -1.8984 -1.6012  1.0666
  951MOL0     H31178   2.307  11.050   7.346  2.1650  1.6066  1.6718
  951MOL0     H31179   2.303  10.874   7.600  0.9031  0.4413  1.8736
  951MOL0     H31180   2.272  11.043   7.597 -0.7356 -1.7631  2.1067
  951MOL0     H31181   2.529  10.916   7.523 -0.0280  0.8455 -1.2334
  951MOL0     H31182   2.496  11.091   7.523 -0.2556  0.8621  2.2726
  951MOL0     H31183   2.483  10.920   7.775 -3.0520  0.4970 -0.9615
  951MOL0     H31184   2.463  11.102   7.757  0.9763  0.5258  0.3586
  951MOL0     H31185   2.691  11.133   7.687 -0.9046  1.1255  1.0802
  951MOL0     H31186   2.683  11.072   7.852 -1.3935  1.1727  0.4207
  951MOL0     H31187   2.756  10.808   7.885 -2.1451  2.7066 -1.2230
  951MOL0     H31188   2.945  10.613   7.853  1.4095 -1.6265  0.3711
  951MOL0     H31189   3.080  10.731   7.869  2.1775  0.3939 -3.1678
  951MOL0     H31190   3.035  10.578   7.615 -1.7186 -0.5314  1.3335
  951MOL0     H31191   3.177  10.676   7.671  1.5848 -1.3557  2.5925
  951MOL0     H31192   3.210  10.509   7.860 -0.5154  0.2783  0.4680
  951MOL0     H31193   3.093  10.408   7.779 -2.0365  1.9812  1.4596
  951MOL0     H31194   3.359  10.494   7.653  0.1503 -1.1550  0.5023
  951MOL0     H31195   3.313  10.329   7.701 -0.8673 -0.5506 -0.3366
  951MOL0     H31196   3.477  10.358   7.504  0.3717 -1.4560  1.3772
  951MOL0     H31197   3.668  10.232   7.236 -1.5245  0.8126 -0.5681
  951MOL0     H31198   3.591  10.116   7.350 -3.0219 -0.2545 -1.8138
  951MOL0     H31199   3.663  10.270   7.407  0.2954 -0.1105  0.0360
  951MOL0     H31200   3.273   9.907   6.873  2.5697 -2.5290  0.7645
  951MOL0     H31201   3.320   9.829   6.656 -0.3970  0.6813 -0.0156
  951MOL0     H31202   3.643  10.033   6.397 -0.2302  0.0179 -0.4672
  951MOL0     H31203   3.697   9.929   6.527 -0.2664 -0.3697  0.8489
  951MOL0     H31204   3.564   9.832   6.273  0.6590  1.6550 -0.5336
  951MOL0     H31205   3.742   9.837   6.287 -0.5394  1.8331 -1.5470
  951MOL0     H31206   3.651   9.618   6.321 -0.6479  1.8479 -1.6172
  951MOL0     H31207   3.579   9.657   6.472 -2.7412 -0.0739 -2.5144
  951MOL0     H31208   3.805   9.705   6.570 -0.8151 -0.7687  0.8875
  951MOL0     H31209   3.880   9.678   6.411  0.0409 -0.0056  0.4524
  951MOL0     H31210   3.747   9.456   6.573  2.4073  0.5024  1.2997
  951MOL0     H31211   3.785   9.444   6.395 -2.7910 -0.3850  0.6292
  951MOL0     H31212   3.952   9.479   6.649  3.0448 -3.7527  1.1922
  951MOL0     H31213   4.031   9.501   6.496 -0.6169  1.2137  1.2045
  951MOL0     H31214   4.000   9.283   6.426 -0.9755  0.3659 -0.1160
  951MOL0     H31215   3.878   9.247   6.553 -1.8805  3.5239  2.0898
  951MOL0     H31216   4.087   9.148   6.603  3.1045  0.8085  1.6570
  951MOL0     H31217   4.061   9.258   6.723  1.5278  3.7873  0.0025
  951MOL0     H31218   3.599  10.156   6.595  2.6413 -4.4890 -0.1645
  951MOL0     H31219   3.503  10.261   6.815 -0.5935  0.0797  0.7826
  951MOL0     H31220   3.187  10.250   7.110 -1.3589 -1.0540  0.8721
  951MOL0     H31221   3.092  10.342   7.309  0.9383  0.8560  2.0126
  951MOL0     H31222   1.756  11.045   7.038 -0.4678  1.7485 -2.0455
  951MOL0     H31223   1.578  11.184   7.012  2.5251  1.2143 -2.9895
  951MOL0     H31224   1.254  11.341   7.063 -0.3498  1.6707 -1.0601
  951MOL0     H31225   1.019  11.435   7.047 -0.3328 -0.3860 -1.6244
  951MOL0     H31226   0.752  11.441   7.300  1.4133 -0.7419  0.2360
  951MOL0     H31227   0.824  11.551   7.414 -0.2026 -2.3160  0.4812
  951MOL0     H31228   0.693  11.743   7.304  2.0629 -0.7861  3.2131
  951MOL0     H31229   0.595  11.622   7.371  0.4806  1.4160  1.3275
  951MOL0     H31230   0.661  11.648   7.069 -0.5074  0.7149 -0.1421
  951MOL0     H31231   0.572  11.512   7.141 -2.5002  1.1016 -2.4239
  951MOL0     H31232   0.393  11.700   7.201 -1.9253  2.9558 -1.0209
  951MOL0     H31233   0.417  11.675   7.034 -1.9863  0.7757  0.9559
  951MOL0     H31234   0.624  12.054   7.098  3.1911 -1.9177  0.5833
  951MOL0     H31235   1.043  11.577   7.450  0.5772 -0.2704  0.1933
  951MOL0     H31236   1.238  11.448   7.583 -2.1325 -0.5917 -2.9706
  951MOL0     H31237   1.390  11.491   7.518  1.2524 -0.6568 -3.6594
  951MOL0     H31238   1.264  11.618   7.534  2.0621 -0.3813  0.5149
  952MOL0     O31239   8.822   5.694   0.993 -0.5429  0.3534  1.4335
  952MOL0     C31240   8.797   5.668   1.114  0.2418 -0.2338  1.0627
  952MOL0     O31241   8.882   5.689   1.218  0.2667 -0.0333 -0.7783
  952MOL0     C31242   9.003   5.750   1.193  0.6733 -0.1695  0.6280
  952MOL0     C31243   9.110   5.697   1.257 -0.2902 -0.2206 -0.7142
  952MOL0     C31244   9.244   5.743   1.227  0.2945  0.3282 -0.0963
  952MOL0     C31245   9.266   5.830   1.116  0.1949 -0.3155  0.0305
  952MOL0     O31246   9.392   5.862   1.065 -0.0545 -0.3679 -0.3381
  952MOL0     C31247   9.509   5.781   1.091  0.6550  0.5422 -0.6028
  952MOL0     C31248   9.608   5.794   0.987 -1.0351 -0.5472  1.0122
  952MOL0     C31249   9.565   5.769   0.843 -0.4005  0.3217 -0.6723
  952MOL0     C31250   9.684   5.736   0.749  0.5018 -0.4098 -0.0992
  952MOL0     C31251   9.746   5.856   0.680  0.4720 -0.1205  0.3888
  952MOL0     C31252   9.855   5.823   0.589 -0.5090 -0.6229 -0.0922
  952MOL0     C31253   9.904   5.943   0.495  0.1996 -0.4557  0.8325
  952MOL0     C31254   9.993   5.906   0.385  0.2088 -0.2181  0.2566
  952MOL0     N31255  10.140   5.884   0.418  0.3299 -1.0017 -0.0358
  952MOL0     C31256  10.239   5.923   0.326  1.1241  0.2153 -1.1140
  952MOL0     C31257  10.353   5.881   0.390 -0.5445 -0.2036  0.2530
  952MOL0     C31258  10.488   5.904   0.330 -0.3307  0.3435 -0.1768
  952MOL0     C31259  10.543   6.044   0.337  0.4705 -0.0818  0.3207
  952MOL0     C31260  10.698   6.044   0.328 -1.0434  0.5451  0.5539
  952MOL0     C31261  10.751   6.188   0.297  0.1269  0.5875 -0.7472
  952MOL0     O31262  10.893   6.194   0.314 -0.2166 -0.1864 -0.3316
  952MOL0     C31263  10.973   6.179   0.210  0.0394  0.4518 -0.3148
  952MOL0     C31264  10.994   6.281   0.117 -0.0021  0.5701  0.4679
  952MOL0     C31265  11.055   6.267  -0.003  0.3343 -0.1682 -0.5627
  952MOL0     C31266  11.040   6.381  -0.103 -0.5150  0.7481  0.0526
  952MOL0     C31267  11.113   6.142  -0.038 -0.7105  0.1806 -0.5434
  952MOL0     C31268  11.186   6.116  -0.163  0.8128  0.1607 -0.1989
  952MOL0     O31269  11.282   6.021  -0.154 -0.9080 -0.7376  1.4144
  952MOL0     C31270  11.381   6.023  -0.250  0.0392  0.3341 -0.5936
  952MOL0     C31271  11.387   5.913  -0.336 -0.1797  0.1907  0.2041
  952MOL0     C31272  11.500   5.889  -0.415 -0.2695 -0.1469  0.5082
  952MOL0     C31273  11.610   5.978  -0.417  0.0468  0.2925 -0.2495
  952MOL0     O31274  11.714   5.961  -0.502  0.0270 -1.1384  0.1617
  952MOL0     C31275  11.725   5.837  -0.576  0.5747 -0.0922  0.6161
  952MOL0     C31276  11.845   5.834  -0.664 -0.2411  0.1575  0.2735
  952MOL0     C31277  11.972   5.814  -0.581  1.2367  0.3485  0.4293
  952MOL0     C31278  12.092   5.774  -0.678 -0.1779  0.9942 -0.3588
  952MOL0     C31279  12.230   5.790  -0.615 -0.3574  0.1925  0.8012
  952MOL0     C31280  12.347   5.763  -0.710 -0.1907 -0.2881  0.0274
  952MOL0     C31281  12.489   5.807  -0.661 -0.2800 -0.2021  0.0748
  952MOL0     C31282  12.594   5.720  -0.721 -0.3524 -0.6326 -0.2060
  952MOL0    Cl31283  12.756   5.769  -0.645 -0.4813  0.0612  0.1218
  952MOL0     C31284  11.599   6.096  -0.341  0.4726 -0.4718 -0.1876
  952MOL0     C31285  11.488   6.117  -0.262  0.3532  0.2656 -0.6347
  952MOL0     O31286  11.158   6.169  -0.266  0.0927  0.0498  0.4982
  952MOL0     C31287  11.095   6.037   0.055 -0.1847  0.2396 -1.0264
  952MOL0     C31288  11.023   6.054   0.174  0.0849  0.6433 -0.1145
  952MOL0     N31289  10.325   5.834   0.507  0.0737  0.3343 -0.5128
  952MOL0     N31290  10.194   5.820   0.527  0.3966  0.4650 -0.2823
  952MOL0     C31291   9.156   5.896   1.069 -0.1130  0.3228 -0.4073
  952MOL0     C31292   9.026   5.855   1.103  0.0339 -0.0281  0.9823
  952MOL0     C31293   8.672   5.587   1.148 -0.5069  0.5189 -0.6391
  952MOL0     C31294   8.682   5.510   1.267  0.2841  0.1172  0.6404
  952MOL0     C31295   8.574   5.435   1.316 -0.5755 -0.5214 -0.0572
  952MOL0     C31296   8.450   5.433   1.246 -0.0196  0.2832 -0.0409
  952MOL0     O31297   8.348   5.359   1.293 -0.1869  0.1874 -0.7008
  952MOL0     C31298   8.345   5.311   1.435  0.1326 -0.3072  0.6764
  952MOL0     C31299   8.201   5.312   1.484 -0.0238 -1.2828 -0.2705
  952MOL0     C31300   8.127   5.444   1.477  0.1417  0.4350  0.1932
  952MOL0     C31301   7.983   5.443   1.525  0.0411  0.0785  0.4268
  952MOL0     C31302   7.887   5.356   1.454  0.2797 -0.1800  0.5987
  952MOL0     C31303   7.811   5.273   1.404  0.1610 -0.7832  0.0970
  952MOL0     C31304   8.449   5.501   1.119 -0.0136  0.2287 -0.6502
  952MOL0     C31305   8.552   5.585   1.080  0.0045 -0.2073  0.2373
  952MOL0     C31306   8.520   5.667   0.952  0.0671  0.3581 -0.4405
  952MOL0     H31307   9.100   5.609   1.319  1.8366  0.2692  0.4091
  952MOL0     H31308   9.322   5.685   1.275 -3.1057 -3.7305  1.1641
  952MOL0     H31309   9.485   5.674   1.091  2.0563  0.2078 -2.0884
  952MOL0     H31310   9.557   5.809   1.186  3.3516 -1.5216 -1.2518
  952MOL0     H31311   9.654   5.893   0.991  1.8672 -1.8145  1.4600
  952MOL0     H31312   9.686   5.724   1.017  0.7490  1.3171  0.9377
  952MOL0     H31313   9.505   5.677   0.840  2.6652 -1.8134 -0.6174
  952MOL0     H31314   9.512   5.848   0.790 -0.6951 -0.8779 -2.2523
  952MOL0     H31315   9.763   5.692   0.811 -0.3573 -2.5441 -0.4165
  952MOL0     H31316   9.649   5.663   0.675 -3.3805 -0.6356  1.7148
  952MOL0     H31317   9.784   5.927   0.753 -1.2282 -1.8446  3.1116
  952MOL0     H31318   9.668   5.914   0.629  1.3905 -0.2503 -1.2574
  952MOL0     H31319   9.942   5.793   0.648  2.4706  3.2912 -2.0389
  952MOL0     H31320   9.812   5.745   0.524 -2.5564  0.7652 -0.4988
  952MOL0     H31321   9.943   6.018   0.565 -2.7042  0.4078  1.7028
  952MOL0     H31322   9.819   5.998   0.455  0.7273 -0.6496 -0.5930
  952MOL0     H31323   9.954   5.812   0.343 -2.6359  1.1570 -0.4110
  952MOL0     H31324   9.985   5.986   0.310 -0.8393  0.6692  1.2912
  952MOL0     H31325  10.215   5.966   0.230  3.2290  1.8648 -0.9707
  952MOL0     H31326  10.470   5.892   0.222 -0.0332 -2.2104  0.0061
  952MOL0     H31327  10.552   5.822   0.365 -1.6801 -0.4148  0.5880
  952MOL0     H31328  10.491   6.102   0.260 -0.0568 -2.3357 -1.1364
  952MOL0     H31329  10.510   6.085   0.433 -2.4520  1.7739 -1.3310
  952MOL0     H31330  10.734   6.006   0.424 -1.2393  1.4177  0.9939
  952MOL0     H31331  10.737   5.978   0.251 -0.2334  0.2780  1.1775
  952MOL0     H31332  10.719   6.204   0.194 -1.7307 -1.0234 -0.4958
  952MOL0     H31333  10.712   6.269   0.359  1.3242  0.6781 -0.0852
  952MOL0     H31334  10.930   6.368   0.127 -0.7327  0.0504  0.5023
  952MOL0     H31335  11.141   6.413  -0.130  0.6034 -3.2414 -1.0805
  952MOL0     H31336  10.978   6.462  -0.062 -0.8273 -0.0560  1.2292
  952MOL0     H31337  10.992   6.352  -0.197 -0.1229 -0.9885  0.3572
  952MOL0     H31338  11.297   5.854  -0.320 -0.0024 -0.6901 -1.7437
  952MOL0     H31339  11.484   5.805  -0.482 -0.3774  0.6914 -0.5319
  952MOL0     H31340  11.731   5.755  -0.503 -4.0174  0.7178  2.2722
  952MOL0     H31341  11.645   5.815  -0.646  1.5984 -2.1536  0.0308
  952MOL0     H31342  11.847   5.758  -0.743  2.3005  0.5335 -0.1361
  952MOL0     H31343  11.864   5.931  -0.712  2.1609 -0.3759 -0.0142
  952MOL0     H31344  11.968   5.733  -0.507 -0.3625  0.6718  0.7373
  952MOL0     H31345  11.993   5.911  -0.535 -4.5411  1.1584  2.2723
  952MOL0     H31346  12.081   5.825  -0.774 -1.2689 -0.6884 -1.1742
  952MOL0     H31347  12.083   5.666  -0.694  1.7794  0.8472 -0.6939
  952MOL0     H31348  12.237   5.895  -0.588 -0.5499  1.3909 -3.1152
  952MOL0     H31349  12.239   5.715  -0.535  3.7451 -0.4586 -0.0225
  952MOL0     H31350  12.326   5.808  -0.807  1.1374 -1.7979 -1.0079
  952MOL0     H31351  12.343   5.654  -0.721 -1.6861 -0.3382  0.8182
  952MOL0     H31352  12.499   5.804  -0.552 -1.5870 -2.5482  0.1961
  952MOL0     H31353  12.502   5.907  -0.702  3.4020 -0.6169 -0.1356
  952MOL0     H31354  12.597   5.729  -0.830 -2.5437 -1.7194 -0.4249
  952MOL0     H31355  12.571   5.619  -0.685 -1.0441  0.0931  1.5014
  952MOL0     H31356  11.677   6.171  -0.350 -3.1324  3.7521  0.2897
  952MOL0     H31357  11.476   6.209  -0.206 -0.7110 -0.7478  0.8856
  952MOL0     H31358  11.130   5.936   0.037 -2.7444 -1.4523  2.3226
  952MOL0     H31359  11.005   5.972   0.243  0.3122  1.6459  1.1710
  952MOL0     H31360   9.160   5.980   1.000 -2.0801 -0.6825 -1.8734
  952MOL0     H31361   8.933   5.907   1.082  0.6554  1.8364  2.4926
  952MOL0     H31362   8.768   5.532   1.330 -0.0886  0.3175  1.0901
  952MOL0     H31363   8.582   5.384   1.411 -0.4420 -0.6201 -0.1197
  952MOL0     H31364   8.382   5.209   1.444  3.2789  0.8744  3.4540
  952MOL0     H31365   8.399   5.377   1.505  0.3359 -1.2303  1.4062
  952MOL0     H31366   8.186   5.285   1.589 -0.2896  2.8003  0.9236
  952MOL0     H31367   8.143   5.242   1.424  1.5065 -3.1209  0.2853
  952MOL0     H31368   8.180   5.519   1.536 -0.9006  1.1359  0.2584
  952MOL0     H31369   8.124   5.480   1.373 -1.7290 -0.4877 -0.1144
  952MOL0     H31370   7.942   5.544   1.513 -1.9038 -0.5165  1.6219
  952MOL0     H31371   7.993   5.403   1.626  1.5526 -2.5400 -0.6607
  952MOL0     H31372   7.733   5.211   1.364 -0.2768 -1.2754  1.6580
  952MOL0     H31373   8.359   5.489   1.061  1.4573  4.1227 -4.2688
  952MOL0     H31374   8.422   5.636   0.914 -0.4436  2.5166 -1.0260
  952MOL0     H31375   8.522   5.774   0.974 -0.8101  0.5267 -1.1143
  952MOL0     H31376   8.594   5.653   0.873 -0.1330  3.2016 -1.2128
  953MOL0     O31377   9.724   7.228   0.956 -0.5461  0.2480 -0.5522
  953MOL0     C31378   9.639   7.284   0.886  0.8145  0.0909  0.3195
  953MOL0     O31379   9.670   7.363   0.787  0.3695 -0.0429  0.9489
  953MOL0     C31380   9.801   7.374   0.755  0.6315  0.2774  0.8171
  953MOL0     C31381   9.888   7.478   0.782  0.0054  0.2735 -0.2651
  953MOL0     C31382  10.024   7.481   0.753 -0.2770  0.1357 -0.2080
  953MOL0     C31383  10.094   7.371   0.698 -0.1454 -0.3455 -0.0761
  953MOL0     O31384  10.226   7.347   0.663  0.6098  0.1236  0.6367
  953MOL0     C31385  10.322   7.446   0.692  0.8698  0.6279  1.0318
  953MOL0     C31386  10.447   7.388   0.625  0.4607 -0.6532  0.1135
  953MOL0     C31387  10.570   7.482   0.602 -0.3032  0.1772  0.1399
  953MOL0     C31388  10.635   7.531   0.732 -0.6053 -0.5443  0.2364
  953MOL0     C31389  10.769   7.608   0.707  0.3988  0.3363  0.1633
  953MOL0     C31390  10.871   7.534   0.633 -0.5721 -0.6725  0.6262
  953MOL0     C31391  10.998   7.636   0.615  0.0092  0.4379 -0.1636
  953MOL0     C31392  11.109   7.566   0.543  0.1350  0.4670  0.4002
  953MOL0     N31393  11.246   7.622   0.556 -0.1190  0.4039  0.4953
  953MOL0     C31394  11.324   7.594   0.665  0.6230  0.6414 -0.2511
  953MOL0     C31395  11.443   7.649   0.637  0.1269  0.2308  0.3795
  953MOL0     C31396  11.565   7.647   0.729 -0.4264  0.1566  0.3254
  953MOL0     C31397  11.685   7.715   0.656  0.1452  0.5847 -0.1586
  953MOL0     C31398  11.668   7.877   0.653  0.0238  0.3903  0.4017
  953MOL0     C31399  11.718   7.927   0.786 -0.1587 -0.4058 -0.2178
  953MOL0     O31400  11.863   7.904   0.809  0.2650 -0.7681  0.3443
  953MOL0     C31401  11.925   7.983   0.902  0.0176 -0.3098  0.7211
  953MOL0     C31402  11.857   8.074   0.984 -0.1513 -0.6877 -0.3385
  953MOL0     C31403  11.929   8.149   1.078  0.2711 -0.1169  0.1025
  953MOL0     C31404  11.852   8.265   1.129  0.6888  0.3488 -0.4204
  953MOL0     C31405  12.061   8.108   1.116  0.6023 -0.3154  0.1393
  953MOL0     C31406  12.154   8.169   1.222  0.3189  0.1063  1.0233
  953MOL0     O31407  12.287   8.146   1.208 -0.2003 -0.3459 -0.1130
  953MOL0     C31408  12.384   8.158   1.305  0.2980  0.0244  0.0123
  953MOL0     C31409  12.396   8.266   1.395 -0.2584  0.2186 -0.4460
  953MOL0     C31410  12.509   8.268   1.486  0.1134 -0.3143  0.4658
  953MOL0     C31411  12.617   8.180   1.473 -0.6575  0.2977 -0.0355
  953MOL0     O31412  12.723   8.177   1.565 -0.2735 -0.3945  0.6800
  953MOL0     C31413  12.828   8.088   1.547  0.3963  0.4324 -0.1896
  953MOL0     C31414  12.809   7.961   1.626 -0.5275 -0.0648 -0.6514
  953MOL0     C31415  12.936   7.876   1.641  0.1089  0.4539 -0.6090
  953MOL0     C31416  13.015   7.836   1.514  0.2061 -0.1242  0.1516
  953MOL0     C31417  13.159   7.772   1.538 -0.1954 -0.3267  0.2546
  953MOL0     C31418  13.255   7.849   1.634  0.0140  0.2561 -0.1171
  953MOL0     C31419  13.388   7.777   1.648  0.6876  0.1042  0.2237
  953MOL0     C31420  13.493   7.866   1.724  0.2101  0.5588  0.2322
  953MOL0    Cl31421  13.652   7.792   1.729  0.2333 -0.6557  0.0104
  953MOL0     C31422  12.607   8.081   1.370 -0.3893  0.5557  0.2713
  953MOL0     C31423  12.482   8.061   1.301  0.2500  0.0021  1.2639
  953MOL0     O31424  12.100   8.231   1.311 -0.4537 -0.4375  0.6337
  953MOL0     C31425  12.132   8.017   1.036  0.3328  0.3966  0.2246
  953MOL0     C31426  12.057   7.965   0.929 -0.4409  0.3077 -0.2379
  953MOL0     N31427  11.434   7.710   0.518  0.0128 -0.2909 -0.5412
  953MOL0     N31428  11.318   7.691   0.465  0.1869  0.1813  0.2796
  953MOL0     C31429  10.013   7.261   0.671 -0.0805 -0.6381 -0.1575
  953MOL0     C31430   9.871   7.268   0.687 -0.7897  0.1221  0.1684
  953MOL0     C31431   9.497   7.265   0.911  0.4249  0.0384 -0.2932
  953MOL0     C31432   9.406   7.339   0.829  0.4465 -0.5343 -0.8533
  953MOL0     C31433   9.260   7.326   0.837 -0.5304  0.5129  0.3640
  953MOL0     C31434   9.217   7.229   0.927  0.8195 -0.4737 -0.4767
  953MOL0     O31435   9.076   7.212   0.937 -0.1664  0.1620 -0.1585
  953MOL0     C31436   9.016   7.108   1.017 -0.3473 -0.0481  0.5739
  953MOL0     C31437   8.997   7.156   1.161 -0.1050  0.2247  0.5163
  953MOL0     C31438   8.965   7.047   1.268  0.8364 -0.2198  0.6457
  953MOL0     C31439   8.968   7.083   1.413 -0.4795 -0.2434 -0.4057
  953MOL0     C31440   9.102   7.044   1.460 -0.4856  1.0294 -0.1042
  953MOL0     C31441   9.211   7.010   1.477 -0.2964  0.3869 -0.6511
  953MOL0     C31442   9.303   7.169   1.018  0.6217  0.0923 -0.4048
  953MOL0     C31443   9.443   7.175   1.014  0.0983 -0.7423 -0.2352
  953MOL0     C31444   9.518   7.089   1.108 -0.2783 -0.1819  0.1123
  953MOL0     H31445   9.860   7.567   0.837  2.0438 -0.9999  3.0904
  953MOL0     H31446  10.086   7.567   0.776 -0.0676  0.4699 -1.8802
  953MOL0     H31447  10.320   7.467   0.799 -1.9522  2.6689  0.6983
  953MOL0     H31448  10.291   7.542   0.651  2.2674  1.7569  2.4892
  953MOL0     H31449  10.486   7.303   0.681 -1.7506 -0.4996  2.0803
  953MOL0     H31450  10.412   7.362   0.525 -2.1852 -1.2134  1.0835
  953MOL0     H31451  10.649   7.437   0.542  0.6749 -0.7253  2.0077
  953MOL0     H31452  10.548   7.576   0.552  1.6659 -0.5533 -2.2639
  953MOL0     H31453  10.563   7.583   0.797  0.4112  0.6026  0.4747
  953MOL0     H31454  10.656   7.441   0.790  2.0032 -0.6958 -0.8031
  953MOL0     H31455  10.799   7.637   0.808 -2.7378  1.6647  0.8287
  953MOL0     H31456  10.743   7.703   0.658 -1.1276  0.9079  1.9724
  953MOL0     H31457  10.893   7.450   0.699 -2.0004 -0.6151  1.2278
  953MOL0     H31458  10.843   7.494   0.535 -0.0565 -1.2907  0.7319
  953MOL0     H31459  11.041   7.660   0.713 -0.1054 -2.0380  0.5812
  953MOL0     H31460  10.977   7.728   0.561  1.4085  0.3488 -0.9042
  953MOL0     H31461  11.112   7.470   0.595 -0.7727  0.9941  1.4732
  953MOL0     H31462  11.087   7.545   0.438  0.6269  0.7070  0.2429
  953MOL0     H31463  11.294   7.548   0.759  0.5475  3.2680  1.1263
  953MOL0     H31464  11.591   7.541   0.745  2.5710  0.9227  1.1889
  953MOL0     H31465  11.546   7.698   0.823 -1.0329  2.8926 -1.1823
  953MOL0     H31466  11.776   7.677   0.703 -0.0659 -0.3563 -0.4884
  953MOL0     H31467  11.695   7.673   0.556 -1.5676 -0.7839  0.1989
  953MOL0     H31468  11.730   7.924   0.576  1.4674 -0.0404  1.2738
  953MOL0     H31469  11.560   7.896   0.646  0.2453  2.5403  1.9048
  953MOL0     H31470  11.713   8.036   0.773  1.2610 -0.0616  1.7344
  953MOL0     H31471  11.660   7.888   0.871 -0.6865 -0.2613 -0.5039
  953MOL0     H31472  11.756   8.107   0.961 -0.3554 -0.9353  0.1937
  953MOL0     H31473  11.792   8.230   1.213  3.9703 -0.1836  1.8679
  953MOL0     H31474  11.787   8.309   1.052  0.8504  1.6575  0.1602
  953MOL0     H31475  11.909   8.351   1.166  0.7511  0.7770 -1.4546
  953MOL0     H31476  12.316   8.338   1.412  0.1281  0.4514  0.4479
  953MOL0     H31477  12.515   8.342   1.565 -0.1714 -0.1748  0.3565
  953MOL0     H31478  12.840   8.056   1.443 -0.8722  1.9761 -0.8351
  953MOL0     H31479  12.914   8.139   1.591 -0.1095  0.2716  1.0332
  953MOL0     H31480  12.746   7.978   1.714 -0.7861  1.8884 -1.1687
  953MOL0     H31481  12.744   7.896   1.568 -0.7229 -2.4863  2.0820
  953MOL0     H31482  12.899   7.783   1.685  0.4652  0.7344  0.3081
  953MOL0     H31483  12.999   7.930   1.712 -0.9965  0.2148  0.5753
  953MOL0     H31484  13.035   7.930   1.461 -0.1217 -2.0111 -3.6345
  953MOL0     H31485  12.953   7.763   1.461 -0.6647 -0.6409  1.8321
  953MOL0     H31486  13.150   7.673   1.583 -3.1431 -0.5627 -0.6573
  953MOL0     H31487  13.198   7.770   1.436 -1.9841  0.1612 -0.4792
  953MOL0     H31488  13.218   7.848   1.737  2.7362 -0.1053  0.9385
  953MOL0     H31489  13.276   7.951   1.602 -0.8489  0.0437 -1.3992
  953MOL0     H31490  13.411   7.750   1.545 -0.1522 -1.0962  0.3293
  953MOL0     H31491  13.378   7.682   1.702 -1.5388  0.6521  0.8980
  953MOL0     H31492  13.458   7.906   1.819  1.1616 -0.2623  0.9462
  953MOL0     H31493  13.495   7.953   1.658 -0.7302  1.1455  0.9581
  953MOL0     H31494  12.687   8.009   1.356  0.0238  0.4711  2.6112
  953MOL0     H31495  12.465   7.980   1.232  0.7881  2.3136 -1.7642
  953MOL0     H31496  12.237   7.993   1.041  0.8172  2.0137 -1.1497
  953MOL0     H31497  12.105   7.881   0.879 -1.0360 -0.0245 -0.2541
  953MOL0     H31498  10.047   7.167   0.629 -3.4749 -1.2638 -1.8694
  953MOL0     H31499   9.813   7.181   0.660  0.2773 -0.3904 -0.5316
  953MOL0     H31500   9.459   7.405   0.761  5.3974 -3.1554 -0.0420
  953MOL0     H31501   9.191   7.383   0.776  0.3690  1.1257 -0.1067
  953MOL0     H31502   8.919   7.081   0.972 -0.0972 -0.8040  0.4704
  953MOL0     H31503   9.080   7.019   1.017  0.5496  0.5866  1.3439
  953MOL0     H31504   8.909   7.219   1.148 -0.4936  0.1358  2.4581
  953MOL0     H31505   9.090   7.205   1.192  1.7596 -0.7368 -3.0110
  953MOL0     H31506   8.862   7.017   1.251  0.5918 -0.3508  2.2433
  953MOL0     H31507   9.021   6.957   1.240 -2.4346 -1.3101 -3.3145
  953MOL0     H31508   8.884   7.041   1.468 -0.3662  2.2007  1.8239
  953MOL0     H31509   8.963   7.193   1.418  1.3121 -0.1941  1.3541
  953MOL0     H31510   9.317   6.993   1.480 -0.3926 -0.6396 -1.9778
  953MOL0     H31511   9.260   7.095   1.085 -1.4991 -0.7395 -2.5560
  953MOL0     H31512   9.451   7.041   1.180  0.0997 -0.4455  0.2917
  953MOL0     H31513   9.574   7.010   1.056 -0.9037 -0.0366 -0.8153
  953MOL0     H31514   9.598   7.138   1.164 -0.8596  0.3448  0.4943
  954MOL0     O31515   1.284   7.103   9.750 -0.4700 -0.6534  0.4647
  954MOL0     C31516   1.341   7.085   9.642 -0.9053 -0.0831  0.6302
  954MOL0     O31517   1.449   7.152   9.596 -0.6269  0.0228  0.4574
  954MOL0     C31518   1.541   7.215   9.680 -0.2438 -0.5328 -0.5053
  954MOL0     C31519   1.566   7.184   9.813 -0.3350  0.4037 -0.3806
  954MOL0     C31520   1.667   7.252   9.891  0.0451  0.1221  0.0125
  954MOL0     C31521   1.744   7.361   9.833 -0.0466 -0.6685 -0.1998
  954MOL0     O31522   1.830   7.434   9.913  0.5227 -1.0623  0.2523
  954MOL0     C31523   1.963   7.453   9.869  0.7107 -0.3940 -0.3558
  954MOL0     C31524   1.998   7.596   9.905  0.2757  0.0647  0.0759
  954MOL0     C31525   2.138   7.634   9.868  0.3425  0.0230  0.5555
  954MOL0     C31526   2.155   7.786   9.874 -0.0743  0.9222  1.0419
  954MOL0     C31527   2.297   7.832   9.838 -0.3998  0.0579  0.1065
  954MOL0     C31528   2.305   7.978   9.832 -0.5001 -0.4052  0.3040
  954MOL0     C31529   2.447   8.036   9.814  0.0355  0.7757  0.5585
  954MOL0     C31530   2.421   8.189   9.799 -0.2576 -0.3921  0.6812
  954MOL0     N31531   2.546   8.265   9.790  0.3414  0.1900  0.3034
  954MOL0     C31532   2.626   8.244   9.682 -0.5026 -0.5557  0.0193
  954MOL0     C31533   2.730   8.328   9.704  0.4593  0.1418  0.4383
  954MOL0     C31534   2.854   8.347   9.603  0.4192 -0.1847 -1.5005
  954MOL0     C31535   2.826   8.464   9.504 -0.7044  0.5162 -0.3011
  954MOL0     C31536   2.953   8.536   9.457  0.0774 -0.4751  0.9025
  954MOL0     C31537   3.041   8.466   9.354  0.2383 -0.5447  0.1716
  954MOL0     O31538   3.093   8.342   9.393 -0.2815 -0.0158 -0.3559
  954MOL0     C31539   3.147   8.249   9.302 -0.1749 -0.2615 -0.3321
  954MOL0     C31540   3.174   8.279   9.164 -0.4841 -0.8847 -0.0719
  954MOL0     C31541   3.214   8.189   9.063  0.4173 -0.4509  0.4110
  954MOL0     C31542   3.224   8.230   8.919 -0.0891 -0.3587 -0.2487
  954MOL0     C31543   3.245   8.057   9.111 -0.8654  0.1578 -0.4734
  954MOL0     C31544   3.308   7.957   9.024 -0.7189  0.4618 -0.6321
  954MOL0     O31545   3.284   7.829   9.065 -0.4398  0.1572 -0.0345
  954MOL0     C31546   3.370   7.733   9.010  0.6719 -0.0805  0.4456
  954MOL0     C31547   3.443   7.673   9.110  0.3076 -0.0465  0.1496
  954MOL0     C31548   3.529   7.565   9.079 -0.6886 -0.5505 -0.5483
  954MOL0     C31549   3.547   7.516   8.951 -0.5060  0.5676  0.0794
  954MOL0     O31550   3.623   7.408   8.929  0.5212  0.7754  0.5309
  954MOL0     C31551   3.621   7.346   8.800  0.7643  1.2155  0.5632
  954MOL0     C31552   3.668   7.198   8.816  0.3731 -0.2301  0.3213
  954MOL0     C31553   3.825   7.181   8.804 -0.2253  0.0815  0.0454
  954MOL0     C31554   3.858   7.037   8.784  0.4232  0.0174  0.9740
  954MOL0     C31555   3.999   7.007   8.749 -0.0590  0.4563 -0.9467
  954MOL0     C31556   4.004   6.855   8.702  0.0016 -0.7204 -0.4269
  954MOL0     C31557   3.952   6.768   8.813  0.2547  0.2904  0.0481
  954MOL0     C31558   4.034   6.644   8.823 -0.4537 -1.0249 -0.1588
  954MOL0    Cl31559   3.996   6.533   8.685 -0.0454  0.4767 -0.4173
  954MOL0     C31560   3.474   7.580   8.846  0.1600  0.4911 -0.5026
  954MOL0     C31561   3.378   7.682   8.883 -0.5246 -0.6249  0.1793
  954MOL0     O31562   3.376   7.995   8.931 -0.7443  0.4030  0.1130
  954MOL0     C31563   3.220   8.026   9.245  0.3846 -0.8066 -0.1849
  954MOL0     C31564   3.177   8.119   9.340  0.2884 -0.5143  0.1963
  954MOL0     N31565   2.711   8.404   9.826  0.2398 -0.0965 -0.0509
  954MOL0     N31566   2.595   8.368   9.871  0.5509  0.6585  0.4977
  954MOL0     C31567   1.713   7.394   9.699  0.0949 -0.0940 -0.4147
  954MOL0     C31568   1.611   7.318   9.625  0.0738  0.0594 -0.5611
  954MOL0     C31569   1.275   6.982   9.561 -0.3619 -0.3014 -0.4034
  954MOL0     C31570   1.355   6.885   9.499  0.6582 -0.0428  0.3506
  954MOL0     C31571   1.296   6.787   9.413 -0.1677 -0.4706 -0.1508
  954MOL0     C31572   1.160   6.784   9.394  0.8503 -0.3958  0.1228
  954MOL0     O31573   1.101   6.693   9.316  0.2127  0.3919  0.3161
  954MOL0     C31574   1.187   6.632   9.220  1.1820  0.1098 -0.6821
  954MOL0     C31575   1.102   6.578   9.103  0.2876  0.7524 -0.2277
  954MOL0     C31576   1.177   6.498   8.988 -0.0117 -0.3657  0.3739
  954MOL0     C31577   1.078   6.449   8.879  0.5677 -0.4219  0.0987
  954MOL0     C31578   1.150   6.399   8.767  0.1959  1.4159 -0.1024
  954MOL0     C31579   1.231   6.365   8.678 -0.3234  0.6741 -0.0622
  954MOL0     C31580   1.073   6.874   9.460  0.0003  0.4563  0.3971
  954MOL0     C31581   1.130   6.973   9.547 -0.0907  1.0597 -0.3105
  954MOL0     C31582   1.036   7.079   9.610 -0.4603  0.5474  0.1857
  954MOL0     H31583   1.511   7.106   9.864 -0.3942  1.0644  0.6051
  954MOL0     H31584   1.677   7.219   9.994 -0.0866 -1.6175 -0.4965
  954MOL0     H31585   1.986   7.432   9.764  1.5736 -1.8189  0.0834
  954MOL0     H31586   2.028   7.385   9.925  2.1580  0.6308 -0.7374
  954MOL0     H31587   1.931   7.661   9.848  2.3086  1.0166 -1.4016
  954MOL0     H31588   1.985   7.614  10.012  2.1563  1.5459  0.1148
  954MOL0     H31589   2.199   7.593   9.950 -1.3658 -0.6581  1.5475
  954MOL0     H31590   2.172   7.593   9.773  0.2883  2.5900 -0.6561
  954MOL0     H31591   2.098   7.820   9.787  2.5110  3.6161  0.2081
  954MOL0     H31592   2.114   7.835   9.962 -1.3471 -0.2110  1.1064
  954MOL0     H31593   2.325   7.797   9.739  0.7827  1.5318 -0.1135
  954MOL0     H31594   2.369   7.783   9.905 -2.7908 -3.5435  0.3426
  954MOL0     H31595   2.245   8.015   9.749  0.6711 -0.9487 -0.8080
  954MOL0     H31596   2.265   8.024   9.923  1.0826  1.0701  0.2808
  954MOL0     H31597   2.485   7.998   9.719 -0.5062  1.0072  0.2438
  954MOL0     H31598   2.521   8.020   9.893  2.8590  0.4482 -1.9479
  954MOL0     H31599   2.363   8.223   9.714 -0.6940  0.8325  1.4534
  954MOL0     H31600   2.363   8.221   9.886 -2.0513 -0.6164 -0.3848
  954MOL0     H31601   2.614   8.183   9.592  4.5974  1.3594 -2.3373
  954MOL0     H31602   2.852   8.259   9.539  1.5490 -1.6175  0.3425
  954MOL0     H31603   2.947   8.355   9.660 -0.3762 -2.4735  0.2815
  954MOL0     H31604   2.776   8.425   9.415 -1.9973  2.5007 -0.5214
  954MOL0     H31605   2.768   8.548   9.544  2.1518  1.3854  2.3655
  954MOL0     H31606   2.923   8.638   9.432  1.6365 -0.6960 -2.3663
  954MOL0     H31607   3.009   8.557   9.549 -3.3519  1.5452  2.7101
  954MOL0     H31608   2.985   8.451   9.261  0.8446 -0.9238 -0.1359
  954MOL0     H31609   3.135   8.519   9.338 -0.2378  0.4426  0.5772
  954MOL0     H31610   3.162   8.382   9.131 -2.4604 -1.2256 -0.5697
  954MOL0     H31611   3.186   8.145   8.863  0.7502 -1.7829  1.2580
  954MOL0     H31612   3.329   8.251   8.897 -0.1734  0.9088  0.4122
  954MOL0     H31613   3.173   8.324   8.894  1.9484  0.7741 -0.3469
  954MOL0     H31614   3.441   7.712   9.211  0.0439 -0.5440  0.3421
  954MOL0     H31615   3.579   7.514   9.161  1.7980 -0.8078 -2.1126
  954MOL0     H31616   3.518   7.339   8.764  0.5391 -3.6967  1.4294
  954MOL0     H31617   3.686   7.393   8.726  1.7050  0.4367  0.8689
  954MOL0     H31618   3.633   7.160   8.912 -1.2170 -3.6640 -1.4377
  954MOL0     H31619   3.616   7.134   8.744 -0.6100 -2.1126  2.5701
  954MOL0     H31620   3.868   7.218   8.898  0.5391  0.0255 -0.2733
  954MOL0     H31621   3.867   7.246   8.727 -0.4109  0.1955  0.0408
  954MOL0     H31622   3.793   7.001   8.704  0.0128  1.1555  0.7824
  954MOL0     H31623   3.818   6.988   8.873  0.6396  2.4653  2.4860
  954MOL0     H31624   4.034   7.063   8.662 -4.0271  0.7346 -2.5696
  954MOL0     H31625   4.064   7.028   8.834  1.5024  1.3138 -2.2997
  954MOL0     H31626   4.104   6.822   8.674 -0.0657 -1.9755  0.6790
  954MOL0     H31627   3.938   6.852   8.615 -1.3034  0.1211  0.4850
  954MOL0     H31628   3.844   6.754   8.817  0.5922 -2.7508  2.9159
  954MOL0     H31629   3.979   6.819   8.906 -1.4413 -0.7671  1.1551
  954MOL0     H31630   4.013   6.598   8.920 -0.8078 -1.6436 -0.5147
  954MOL0     H31631   4.137   6.679   8.825 -0.8704  0.3826 -1.4264
  954MOL0     H31632   3.480   7.561   8.739 -4.4468 -3.4537 -0.3892
  954MOL0     H31633   3.310   7.731   8.814 -3.1983 -1.4165  2.1137
  954MOL0     H31634   3.241   7.927   9.285 -0.5928 -0.4031  1.4184
  954MOL0     H31635   3.157   8.099   9.445  1.7797  3.3429  1.3756
  954MOL0     H31636   1.770   7.470   9.646 -1.6413  1.5799  0.0355
  954MOL0     H31637   1.587   7.358   9.527 -2.9668 -2.8289 -1.1782
  954MOL0     H31638   1.463   6.877   9.504  0.8749 -0.4101 -2.7146
  954MOL0     H31639   1.361   6.704   9.387 -0.2898 -0.1776 -1.4797
  954MOL0     H31640   1.259   6.706   9.186 -1.2766  2.2661 -1.5684
  954MOL0     H31641   1.242   6.548   9.264  2.8784  1.6062  0.1821
  954MOL0     H31642   1.060   6.668   9.057 -1.2042  0.9461  1.4222
  954MOL0     H31643   1.028   6.512   9.149  1.6450 -0.8187 -0.1811
  954MOL0     H31644   1.253   6.555   8.935 -1.4116 -0.4584 -1.8990
  954MOL0     H31645   1.231   6.419   9.039 -2.3551 -3.4033 -1.4623
  954MOL0     H31646   1.024   6.536   8.841  1.6014 -0.6660 -2.0399
  954MOL0     H31647   1.008   6.378   8.926 -1.0145  1.3982  0.6476
  954MOL0     H31648   1.299   6.345   8.598 -0.6354  2.9255 -0.9673
  954MOL0     H31649   0.966   6.869   9.444 -0.0642 -0.7011  1.1098
  954MOL0     H31650   0.934   7.058   9.576  0.3195 -1.4246 -1.1211
  954MOL0     H31651   1.043   7.055   9.716 -0.5261  0.0661  0.0834
  954MOL0     H31652   1.062   7.182   9.585  0.5947  0.2376 -0.0426
  955MOL0     O31653   1.844   2.838  11.301  0.0366  0.3701 -0.5717
  955MOL0     C31654   1.758   2.870  11.385  0.4974 -1.0806 -1.2307
  955MOL0     O31655   1.770   2.870  11.523  0.1088 -0.3554 -0.0211
  955MOL0     C31656   1.885   2.850  11.584 -0.7940  0.3571  0.5371
  955MOL0     C31657   1.880   2.804  11.716 -0.8470 -0.2594  0.0641
  955MOL0     C31658   2.001   2.780  11.786 -0.3766 -0.4816 -1.0223
  955MOL0     C31659   2.126   2.824  11.730 -0.1999 -0.1082  0.6903
  955MOL0     O31660   2.239   2.800  11.802  0.2365 -0.8685 -0.1401
  955MOL0     C31661   2.345   2.742  11.737 -0.1419  0.8961  0.5110
  955MOL0     C31662   2.462   2.726  11.832  0.5494  0.7283  0.4899
  955MOL0     C31663   2.504   2.867  11.876  0.5966 -0.4252  0.9569
  955MOL0     C31664   2.628   2.857  11.954 -0.2998  1.0815  0.1966
  955MOL0     C31665   2.688   2.990  11.998  0.2875  0.7088  0.2459
  955MOL0     C31666   2.835   2.979  12.047 -1.0778 -0.1397  0.8193
  955MOL0     C31667   2.857   2.874  12.152  0.0953  0.6145  0.4584
  955MOL0     C31668   2.847   2.925  12.290  0.8715 -0.2678 -0.1400
  955MOL0     N31669   2.863   2.815  12.385 -0.3429  0.5058 -0.1054
  955MOL0     C31670   2.988   2.754  12.400  0.2344 -0.6588  0.2489
  955MOL0     C31671   2.952   2.654  12.483 -0.2466  0.2684  0.2800
  955MOL0     C31672   3.037   2.545  12.540 -0.2309  0.9614 -0.8673
  955MOL0     C31673   3.053   2.414  12.465 -0.9988 -0.5315 -0.8012
  955MOL0     C31674   3.166   2.324  12.514  0.5207  0.6321 -0.7592
  955MOL0     C31675   3.302   2.399  12.500  0.1219  1.1724 -0.1861
  955MOL0     O31676   3.313   2.489  12.390  0.0333  0.6644  0.0957
  955MOL0     C31677   3.427   2.557  12.373  0.1147 -0.8325  0.1584
  955MOL0     C31678   3.448   2.627  12.256 -0.8737  0.5914 -0.1058
  955MOL0     C31679   3.569   2.683  12.213  0.8326 -0.3245  0.0938
  955MOL0     C31680   3.576   2.745  12.082  0.4940 -0.5195 -0.2222
  955MOL0     C31681   3.685   2.670  12.299 -0.0486 -0.2672 -0.1088
  955MOL0     C31682   3.814   2.731  12.281 -0.5233  0.9121 -0.1859
  955MOL0     O31683   3.922   2.672  12.334  0.3095  0.1086 -0.3228
  955MOL0     C31684   4.048   2.699  12.282  0.3154 -0.4860 -0.3647
  955MOL0     C31685   4.148   2.718  12.384 -0.3132  0.5583 -0.3351
  955MOL0     C31686   4.278   2.746  12.342  0.8688 -0.5024 -0.5758
  955MOL0     C31687   4.314   2.774  12.213  0.0443  0.1322 -0.6277
  955MOL0     O31688   4.445   2.798  12.188 -0.3582  0.3672 -0.5827
  955MOL0     C31689   4.479   2.900  12.101  0.2090  0.0791  0.0479
  955MOL0     C31690   4.624   2.932  12.116 -0.2866  0.7707 -0.2492
  955MOL0     C31691   4.678   3.013  12.238 -0.2005  0.0991  0.1211
  955MOL0     C31692   4.830   3.013  12.257  0.4684 -0.3907  0.8317
  955MOL0     C31693   4.871   3.086  12.381  0.9584  0.4930 -0.1931
  955MOL0     C31694   5.025   3.092  12.392  0.0252  0.9127  0.2504
  955MOL0     C31695   5.068   3.146  12.531 -1.2641 -1.0509  0.3189
  955MOL0     C31696   5.116   3.297  12.547 -0.3640  0.1470 -0.4607
  955MOL0    Cl31697   5.155   3.306  12.726 -0.2617 -0.0244 -0.2909
  955MOL0     C31698   4.223   2.769  12.115  0.3513 -0.0817  0.0744
  955MOL0     C31699   4.085   2.726  12.146 -0.2093 -0.1429 -0.2671
  955MOL0     O31700   3.814   2.846  12.230  0.4229 -0.3365 -0.0460
  955MOL0     C31701   3.663   2.612  12.429 -0.0778 -0.8088  0.0198
  955MOL0     C31702   3.534   2.555  12.462 -0.0806  0.1392 -0.5520
  955MOL0     N31703   2.814   2.663  12.510 -0.1087  0.5783  0.7312
  955MOL0     N31704   2.757   2.763  12.456  0.3458  0.0477  0.1171
  955MOL0     C31705   2.126   2.875  11.603 -0.2058  0.1002  0.3411
  955MOL0     C31706   2.009   2.892  11.534  0.0487 -0.4646  0.1640
  955MOL0     C31707   1.619   2.905  11.343 -0.8294  0.0524 -0.2159
  955MOL0     C31708   1.521   2.899  11.439  0.7504  0.4713 -0.4552
  955MOL0     C31709   1.390   2.911  11.397  0.1388 -0.3319 -0.7693
  955MOL0     C31710   1.359   2.940  11.267  0.0156  0.7247 -0.1568
  955MOL0     O31711   1.223   2.950  11.238 -0.4832  0.3955  0.3690
  955MOL0     C31712   1.184   2.911  11.110  0.7607 -0.1649  0.1741
  955MOL0     C31713   1.036   2.866  11.122 -0.0912 -0.3739 -0.1418
  955MOL0     C31714   0.946   2.982  11.182  0.1544  0.0641 -0.4502
  955MOL0     C31715   0.805   2.931  11.198  0.7724  0.1251 -0.3816
  955MOL0     C31716   0.723   3.047  11.257 -0.1659  0.4346  0.4577
  955MOL0     C31717   0.650   3.120  11.311  0.4043 -1.3747 -0.1703
  955MOL0     C31718   1.455   2.973  11.177 -0.3598 -0.3080  0.7793
  955MOL0     C31719   1.590   2.951  11.212  0.4225 -0.7250 -0.5459
  955MOL0     C31720   1.694   2.981  11.106 -0.2267 -0.1620  0.1207
  955MOL0     H31721   1.782   2.779  11.753 -1.2355 -2.0101 -1.9236
  955MOL0     H31722   2.006   2.730  11.882  0.4621 -0.9569 -1.3042
  955MOL0     H31723   2.383   2.809  11.659 -0.4581 -0.2457 -0.6685
  955MOL0     H31724   2.306   2.649  11.695  2.0718  0.3058 -0.4102
  955MOL0     H31725   2.432   2.661  11.915  1.5264 -2.2635 -1.3285
  955MOL0     H31726   2.545   2.675  11.781  0.8566  1.5731  0.1336
  955MOL0     H31727   2.526   2.933  11.792  1.1468 -1.9284 -0.1033
  955MOL0     H31728   2.427   2.907  11.943  2.1601  2.7684  1.0289
  955MOL0     H31729   2.604   2.789  12.037 -0.8948  0.5375 -0.4132
  955MOL0     H31730   2.703   2.800  11.898  0.9581  1.7102  1.1742
  955MOL0     H31731   2.617   3.038  12.066  0.2783  1.7076 -0.4363
  955MOL0     H31732   2.695   3.067  11.920 -1.3539 -0.4340 -1.1065
  955MOL0     H31733   2.889   2.948  11.957 -1.4737 -1.4386  1.0061
  955MOL0     H31734   2.877   3.072  12.086 -0.5131 -0.6333  1.4122
  955MOL0     H31735   2.952   2.821  12.136 -0.2180 -0.1666  1.1435
  955MOL0     H31736   2.785   2.792  12.145  0.4941  0.2035  1.0974
  955MOL0     H31737   2.923   2.998  12.318 -0.2233 -0.4412  3.8801
  955MOL0     H31738   2.759   2.988  12.305  1.1354  0.1175 -0.2065
  955MOL0     H31739   3.082   2.792  12.360  0.4392 -0.6821  0.7082
  955MOL0     H31740   3.016   2.549  12.647 -2.3805  2.9253 -1.2810
  955MOL0     H31741   3.139   2.585  12.533  0.7373 -1.4586 -1.7084
  955MOL0     H31742   2.955   2.366  12.453 -1.7178  1.0823 -1.7244
  955MOL0     H31743   3.092   2.442  12.367  0.3195  2.9561  0.5567
  955MOL0     H31744   3.151   2.286  12.615 -5.7371 -0.8430 -1.8497
  955MOL0     H31745   3.166   2.235  12.451 -0.0538 -1.5055  2.0841
  955MOL0     H31746   3.323   2.452  12.593  0.3135 -0.2068  0.5752
  955MOL0     H31747   3.370   2.316  12.477 -1.7082 -1.0922  1.9860
  955MOL0     H31748   3.372   2.628  12.179  0.2961 -0.5016 -1.3276
  955MOL0     H31749   3.677   2.740  12.040  0.9076  2.4685  0.1366
  955MOL0     H31750   3.538   2.848  12.091 -1.6520 -1.4346  3.2186
  955MOL0     H31751   3.513   2.684  12.018 -1.8936  0.3327  1.1714
  955MOL0     H31752   4.125   2.702  12.489 -0.0345 -0.2584 -0.3920
  955MOL0     H31753   4.357   2.748  12.417  0.1463 -1.3466  0.2302
  955MOL0     H31754   4.462   2.878  11.995  0.5008  2.3861 -0.5211
  955MOL0     H31755   4.425   2.994  12.117  0.9920  0.4674  0.4168
  955MOL0     H31756   4.669   2.833  12.107 -2.8968 -0.3657 -2.0692
  955MOL0     H31757   4.657   2.971  12.019 -4.5083 -2.5891 -3.4748
  955MOL0     H31758   4.626   2.967  12.323 -0.2973 -1.8749 -0.9536
  955MOL0     H31759   4.648   3.118  12.231 -3.2856 -0.6729  0.2272
  955MOL0     H31760   4.895   3.045  12.175  6.1085 -3.6243  3.4715
  955MOL0     H31761   4.858   2.908  12.266 -1.0810 -0.9164 -0.0127
  955MOL0     H31762   4.835   3.189  12.374  2.1645  0.8863 -1.0170
  955MOL0     H31763   4.829   3.024  12.461 -1.3526 -1.0103 -2.3939
  955MOL0     H31764   5.065   3.161  12.316  0.5921  0.2485 -0.0626
  955MOL0     H31765   5.062   2.993  12.364 -0.1889  0.7098  0.6758
  955MOL0     H31766   5.147   3.081  12.569  1.8749  3.0872  1.6082
  955MOL0     H31767   4.976   3.155  12.590 -1.9177 -1.1064 -0.6673
  955MOL0     H31768   5.030   3.360  12.522 -1.3709 -1.2331 -0.5435
  955MOL0     H31769   5.206   3.321  12.491 -1.9723  2.3374 -2.2935
  955MOL0     H31770   4.240   2.808  12.015  0.0864  0.8851  0.4023
  955MOL0     H31771   4.017   2.725  12.061  0.5997 -2.7305 -0.9931
  955MOL0     H31772   3.738   2.623  12.506 -0.7437 -2.6343  0.9970
  955MOL0     H31773   3.536   2.504  12.557  1.0433 -1.6501 -1.4799
  955MOL0     H31774   2.217   2.897  11.547 -1.9087  0.3754 -2.5133
  955MOL0     H31775   2.013   2.932  11.433 -0.6079 -3.5173 -1.2068
  955MOL0     H31776   1.529   2.865  11.542  0.3229 -1.5160 -1.0218
  955MOL0     H31777   1.313   2.881  11.467  0.8325 -2.5211 -0.8797
  955MOL0     H31778   1.185   3.002  11.049 -0.2244  0.3401  0.8703
  955MOL0     H31779   1.245   2.834  11.062 -0.1863 -1.4572  0.9741
  955MOL0     H31780   1.038   2.777  11.186 -3.3161  0.2064  0.9270
  955MOL0     H31781   0.996   2.830  11.027 -0.5951  1.7386 -0.7834
  955MOL0     H31782   0.985   2.997  11.283 -0.9137  0.5087 -0.0876
  955MOL0     H31783   0.961   3.063  11.110  0.9786 -0.7957 -1.2560
  955MOL0     H31784   0.806   2.849  11.270 -0.2492 -0.7042 -1.2640
  955MOL0     H31785   0.757   2.891  11.107  1.1561 -2.7939  0.5859
  955MOL0     H31786   0.586   3.179  11.374 -0.2218 -2.5610  0.3255
  955MOL0     H31787   1.444   2.998  11.072  1.4684 -0.6692  0.4698
  955MOL0     H31788   1.765   3.055  11.147 -0.4925  1.5318 -2.2743
  955MOL0     H31789   1.747   2.888  11.088  2.2232  0.5548  2.7560
  955MOL0     H31790   1.653   3.025  11.015  0.9514  2.0580  0.5802
  956MOL0     O31791   1.160   2.687   6.782  0.0436 -0.8617  0.5365
  956MOL0     C31792   1.155   2.790   6.845 -0.3656 -0.2612 -0.6905
  956MOL0     O31793   1.055   2.880   6.839 -0.0974  0.3313  0.5824
  956MOL0     C31794   0.927   2.836   6.826  0.5395  0.4316  0.0653
  956MOL0     C31795   0.865   2.715   6.878  0.4603  0.1858  0.2723
  956MOL0     C31796   0.726   2.691   6.851  0.1724 -0.2486 -0.6827
  956MOL0     C31797   0.647   2.793   6.788  1.2620  0.0118 -0.0761
  956MOL0     O31798   0.510   2.792   6.766 -0.3153  0.3434  0.1406
  956MOL0     C31799   0.445   2.775   6.897  1.3306 -0.4686  0.4641
  956MOL0     C31800   0.320   2.872   6.889 -0.3742  0.5323 -0.8123
  956MOL0     C31801   0.245   2.862   7.020  1.2965 -0.3325 -1.1494
  956MOL0     C31802   0.287   2.965   7.122  1.0866  0.3749 -0.2441
  956MOL0     C31803   0.206   2.954   7.251  0.2189 -0.0990 -1.2612
  956MOL0     C31804   0.227   3.071   7.343 -0.5809 -0.5993 -0.2327
  956MOL0     C31805   0.357   3.078   7.423 -0.0457  0.0155  0.8653
  956MOL0     C31806   0.370   2.971   7.522  1.0621 -0.3100  0.2130
  956MOL0     N31807   0.491   2.988   7.591 -0.3735  0.6223  0.1633
  956MOL0     C31808   0.618   2.941   7.543  1.1896 -0.0876 -0.0957
  956MOL0     C31809   0.708   2.977   7.638 -0.1496 -0.4526 -0.2815
  956MOL0     C31810   0.854   2.952   7.607  0.1562 -0.3596  0.0304
  956MOL0     C31811   0.920   2.899   7.726  0.2310  0.0073 -0.5905
  956MOL0     C31812   0.875   2.770   7.808  0.6772 -0.0118 -0.2200
  956MOL0     C31813   0.969   2.738   7.924  0.8970  0.0611  0.0073
  956MOL0     O31814   1.106   2.735   7.878  0.3987  0.5342 -0.0628
  956MOL0     C31815   1.195   2.686   7.970  0.7531 -0.3784  0.4963
  956MOL0     C31816   1.321   2.668   7.911  0.4649  0.5571 -0.4627
  956MOL0     C31817   1.429   2.590   7.972 -0.6439 -0.0064 -0.5612
  956MOL0     C31818   1.555   2.560   7.889 -0.2107  0.0751  0.2666
  956MOL0     C31819   1.410   2.541   8.107 -0.0722  0.3363  0.0756
  956MOL0     C31820   1.498   2.454   8.189  0.3094  0.0782  0.1419
  956MOL0     O31821   1.451   2.404   8.304  0.3050 -0.2809 -0.6353
  956MOL0     C31822   1.535   2.320   8.373  0.5784 -0.1736 -0.6937
  956MOL0     C31823   1.587   2.202   8.325  0.7404  0.2044  0.0251
  956MOL0     C31824   1.657   2.115   8.411 -0.4034 -0.3936  0.1939
  956MOL0     C31825   1.704   2.147   8.539 -0.1855  0.1333 -0.1529
  956MOL0     O31826   1.786   2.069   8.614 -0.5792 -0.0665  0.4637
  956MOL0     C31827   1.916   2.065   8.551  0.1217 -0.4331 -0.1046
  956MOL0     C31828   2.005   1.964   8.635 -0.7171 -0.6169 -0.0247
  956MOL0     C31829   1.945   1.824   8.653 -1.3002  0.3863 -0.5560
  956MOL0     C31830   2.057   1.719   8.707 -0.2293  0.5525  0.5493
  956MOL0     C31831   1.992   1.591   8.753  0.1027  0.7475 -0.2062
  956MOL0     C31832   2.000   1.481   8.644  0.4601  0.8057 -0.1733
  956MOL0     C31833   1.978   1.340   8.703  0.4390 -0.7060 -0.3501
  956MOL0     C31834   1.999   1.234   8.594  1.1172  0.7695 -0.1449
  956MOL0    Cl31835   2.165   1.191   8.543  0.1441  0.2578  0.1525
  956MOL0     C31836   1.652   2.266   8.585  0.1163 -0.3974  0.2996
  956MOL0     C31837   1.576   2.351   8.505  0.2911 -0.3502 -0.2665
  956MOL0     O31838   1.607   2.425   8.139  0.0405 -0.6457 -0.5427
  956MOL0     C31839   1.278   2.571   8.165 -0.5108  0.0720 -0.0071
  956MOL0     C31840   1.176   2.650   8.102 -0.1842 -0.1591 -0.2021
  956MOL0     N31841   0.639   3.041   7.744 -0.2789 -0.4853 -0.1031
  956MOL0     N31842   0.510   3.049   7.708  0.6495 -0.0437  0.7628
  956MOL0     C31843   0.709   2.908   6.743 -0.9991  0.6765  0.6554
  956MOL0     C31844   0.848   2.929   6.757  0.3439  0.2530  0.2734
  956MOL0     C31845   1.276   2.821   6.925 -0.0947  1.0527  0.2187
  956MOL0     C31846   1.302   2.733   7.029 -0.5322  0.1270  0.1240
  956MOL0     C31847   1.414   2.753   7.113  0.0385  0.0564 -0.2315
  956MOL0     C31848   1.499   2.872   7.095 -0.2293 -0.8013  1.1379
  956MOL0     O31849   1.610   2.897   7.172 -0.5522 -0.0443  0.4666
  956MOL0     C31850   1.676   3.026   7.166  0.0535 -0.3834 -0.3025
  956MOL0     C31851   1.819   3.004   7.225 -0.5625 -0.4141  0.0761
  956MOL0     C31852   1.898   3.143   7.233  0.6058  0.5245  0.1670
  956MOL0     C31853   2.051   3.137   7.218 -0.3317 -0.3202  0.6394
  956MOL0     C31854   2.096   3.068   7.099 -0.2411 -0.2404  0.8384
  956MOL0     C31855   2.145   3.025   6.996  0.1094  0.7202 -0.0803
  956MOL0     C31856   1.470   2.952   6.986 -0.6331  0.6791 -0.7988
  956MOL0     C31857   1.369   2.926   6.902  0.5498 -0.2927 -1.0822
  956MOL0     C31858   1.351   3.015   6.787  0.4568 -0.0949 -0.1430
  956MOL0     H31859   0.923   2.644   6.937  1.0251  0.6428  0.2824
  956MOL0     H31860   0.675   2.616   6.910 -0.0386  1.5987  1.6086
  956MOL0     H31861   0.506   2.803   6.983  0.2964  0.9906  0.7623
  956MOL0     H31862   0.410   2.672   6.910 -0.4854  0.4438  3.9145
  956MOL0     H31863   0.357   2.972   6.868  0.7830  0.6327  1.4570
  956MOL0     H31864   0.256   2.841   6.805 -1.1823 -0.0104 -0.0138
  956MOL0     H31865   0.141   2.870   6.986  1.0854 -0.3537 -0.5293
  956MOL0     H31866   0.248   2.765   7.071 -1.0956 -0.8286 -1.8263
  956MOL0     H31867   0.393   2.954   7.147  1.3033 -2.8435 -2.0376
  956MOL0     H31868   0.264   3.061   7.075 -0.5229 -0.4781 -1.2970
  956MOL0     H31869   0.214   2.856   7.300 -2.0175  1.2125  2.1019
  956MOL0     H31870   0.099   2.972   7.233  0.0848 -0.3975 -0.7907
  956MOL0     H31871   0.238   3.158   7.278  2.4930 -1.2608 -0.7775
  956MOL0     H31872   0.147   3.083   7.417 -0.5465 -1.0749 -0.1121
  956MOL0     H31873   0.370   3.172   7.477  1.9855  1.1977 -1.5000
  956MOL0     H31874   0.436   3.084   7.348  0.7831  0.5140  1.7524
  956MOL0     H31875   0.285   2.971   7.590  0.4790 -2.0793 -0.4776
  956MOL0     H31876   0.361   2.869   7.485  0.2478 -0.5770  1.1075
  956MOL0     H31877   0.653   2.908   7.447  1.0819  2.7287 -1.2096
  956MOL0     H31878   0.906   3.033   7.554  2.1528 -1.4355  0.2271
  956MOL0     H31879   0.858   2.877   7.528 -0.6536  1.3529 -1.7176
  956MOL0     H31880   1.025   2.884   7.697  0.1690  1.6634 -1.8620
  956MOL0     H31881   0.903   2.988   7.787 -2.8882  0.0297 -1.3441
  956MOL0     H31882   0.775   2.791   7.847  0.6013  2.2441 -1.4326
  956MOL0     H31883   0.882   2.684   7.740 -1.5698  0.8848 -1.7352
  956MOL0     H31884   0.946   2.809   8.004 -2.8984  2.0081 -2.5028
  956MOL0     H31885   0.934   2.639   7.958  0.4051 -0.6686 -2.3901
  956MOL0     H31886   1.329   2.711   7.811  0.5103 -0.0764 -0.7324
  956MOL0     H31887   1.571   2.452   7.885  2.9173  0.4859 -2.0395
  956MOL0     H31888   1.647   2.605   7.927 -0.2795  2.4236 -2.0284
  956MOL0     H31889   1.542   2.595   7.786 -0.2886 -3.9823 -1.2971
  956MOL0     H31890   1.570   2.162   8.226 -2.4057 -1.1325  0.9863
  956MOL0     H31891   1.666   2.013   8.376  0.2318  0.3077 -1.7993
  956MOL0     H31892   1.902   2.006   8.460  0.4217  0.5650 -0.8128
  956MOL0     H31893   1.957   2.166   8.551  0.7904 -0.6641 -1.7196
  956MOL0     H31894   2.100   1.942   8.587  0.2757 -2.1698  2.4596
  956MOL0     H31895   2.027   2.015   8.729  4.1476 -0.1152 -1.2071
  956MOL0     H31896   1.904   1.786   8.559 -1.4009  0.2847 -0.4706
  956MOL0     H31897   1.856   1.829   8.716 -2.8160 -1.6282 -2.3686
  956MOL0     H31898   2.124   1.749   8.787  2.8011 -1.3041 -1.1161
  956MOL0     H31899   2.120   1.699   8.620 -1.1016 -0.8495  0.1847
  956MOL0     H31900   2.041   1.571   8.849 -2.0085 -0.7009  0.6467
  956MOL0     H31901   1.889   1.602   8.788  0.5842 -3.8365  3.7262
  956MOL0     H31902   2.098   1.475   8.596  1.2596 -0.2301  1.4792
  956MOL0     H31903   1.923   1.498   8.568 -0.1017 -1.4186 -0.1785
  956MOL0     H31904   1.873   1.326   8.732 -0.5046 -0.2098 -3.1843
  956MOL0     H31905   2.044   1.323   8.788 -0.2098  3.4575  1.1896
  956MOL0     H31906   1.946   1.260   8.502  1.5223 -0.9345 -0.8893
  956MOL0     H31907   1.965   1.139   8.636  0.0810  1.6315  1.0297
  956MOL0     H31908   1.677   2.303   8.684  0.6587  0.1164 -0.0242
  956MOL0     H31909   1.551   2.445   8.552  0.9637 -0.8368  1.1087
  956MOL0     H31910   1.247   2.529   8.261  0.6687 -0.9631 -0.0606
  956MOL0     H31911   1.079   2.663   8.150  0.7798  1.7008  1.3850
  956MOL0     H31912   0.645   2.964   6.675  0.0255 -2.4639 -3.2902
  956MOL0     H31913   0.891   3.019   6.713  0.0580 -1.5210 -4.2209
  956MOL0     H31914   1.231   2.652   7.037  0.4331 -1.0208 -2.0276
  956MOL0     H31915   1.442   2.684   7.192 -0.3643  1.4531  1.2032
  956MOL0     H31916   1.699   3.056   7.064 -1.2779 -2.2342 -1.2105
  956MOL0     H31917   1.619   3.099   7.225  0.3638 -0.8463  0.6005
  956MOL0     H31918   1.871   2.922   7.175 -5.2265 -4.4640  1.0831
  956MOL0     H31919   1.810   2.960   7.325 -1.7478 -0.7467 -0.1710
  956MOL0     H31920   1.854   3.195   7.147 -0.4585  0.3213  0.5836
  956MOL0     H31921   1.864   3.195   7.323 -0.4225  2.7199 -1.3927
  956MOL0     H31922   2.101   3.091   7.304  1.1740 -1.2612 -0.6727
  956MOL0     H31923   2.094   3.236   7.204 -2.7606  0.6674 -0.3521
  956MOL0     H31924   2.194   2.985   6.909  2.2773  0.2453  1.2741
  956MOL0     H31925   1.519   3.044   6.955  1.1572  0.9520  2.3619
  956MOL0     H31926   1.452   3.039   6.751  0.7307  0.6326  1.0443
  956MOL0     H31927   1.293   2.971   6.705 -0.4215  0.9299 -0.0969
  956MOL0     H31928   1.301   3.105   6.823  2.4309  1.0718 -0.1559
  957MOL0     O31929   5.444   6.040   9.157  0.5531  1.1543  0.2247
  957MOL0     C31930   5.492   5.933   9.124 -0.4843  0.3856 -0.6991
  957MOL0     O31931   5.631   5.916   9.078  0.2822 -0.1275  0.2548
  957MOL0     C31932   5.720   6.021   9.092 -0.2044  0.1619  0.4167
  957MOL0     C31933   5.729   6.091   9.210 -0.1521  0.9614 -0.2833
  957MOL0     C31934   5.829   6.185   9.217 -0.6869 -0.3134  1.2097
  957MOL0     C31935   5.911   6.223   9.106  0.3230  0.8290 -0.5482
  957MOL0     O31936   5.998   6.328   9.133 -0.4870  1.0057  0.1902
  957MOL0     C31937   6.086   6.372   9.033 -0.6238  0.1749  0.4201
  957MOL0     C31938   6.206   6.271   9.008 -1.0160  0.3810 -0.1125
  957MOL0     C31939   6.285   6.309   8.885  0.0922  0.1922  0.2859
  957MOL0     C31940   6.415   6.224   8.884  0.0648 -0.4247 -0.0795
  957MOL0     C31941   6.516   6.272   8.775  0.2063  0.1339  0.2006
  957MOL0     C31942   6.468   6.304   8.633  0.0284  0.2882 -0.4500
  957MOL0     C31943   6.588   6.314   8.533  0.2077  0.2585  0.3178
  957MOL0     C31944   6.536   6.328   8.392 -0.3665  0.2782  0.7239
  957MOL0     N31945   6.648   6.331   8.294 -0.0121  0.1100 -1.0860
  957MOL0     C31946   6.741   6.432   8.279  0.7090 -0.6208  0.0719
  957MOL0     C31947   6.784   6.417   8.148 -0.6963 -0.3836  0.1591
  957MOL0     C31948   6.897   6.493   8.075  0.7374  0.0325  0.2795
  957MOL0     C31949   7.025   6.414   8.118 -0.8432 -0.3258  0.0995
  957MOL0     C31950   7.159   6.488   8.080  0.5338  0.3201 -0.1554
  957MOL0     C31951   7.283   6.408   8.128 -0.2067  0.3602  1.0874
  957MOL0     O31952   7.411   6.461   8.075  0.1596 -1.1015  0.3153
  957MOL0     C31953   7.529   6.424   8.142 -0.0628  0.6879 -0.8860
  957MOL0     C31954   7.542   6.309   8.219 -0.1293  0.3709 -0.5000
  957MOL0     C31955   7.652   6.271   8.297 -0.2381 -0.5195 -1.0234
  957MOL0     C31956   7.643   6.162   8.406 -0.1752 -0.6123  0.6374
  957MOL0     C31957   7.764   6.360   8.281 -0.3445 -0.0031 -0.2984
  957MOL0     C31958   7.880   6.340   8.373 -0.3111 -0.8891 -0.0532
  957MOL0     O31959   7.903   6.438   8.452  0.4697 -0.0103  0.5785
  957MOL0     C31960   7.989   6.420   8.558 -0.1081 -0.1443 -0.6406
  957MOL0     C31961   8.112   6.483   8.565  0.4483  0.4372  0.5934
  957MOL0     C31962   8.200   6.453   8.672 -0.0814  0.4659  0.3414
  957MOL0     C31963   8.169   6.351   8.760 -0.1572 -0.1525 -0.0914
  957MOL0     O31964   8.242   6.302   8.868 -0.8780  0.8364  0.0896
  957MOL0     C31965   8.344   6.384   8.918  0.3328 -0.5663 -0.0411
  957MOL0     C31966   8.414   6.307   9.030 -0.0848 -0.4870 -0.7903
  957MOL0     C31967   8.531   6.389   9.088 -0.1899 -0.0395 -0.2806
  957MOL0     C31968   8.611   6.313   9.196 -0.8616  0.2109 -0.2732
  957MOL0     C31969   8.691   6.184   9.153  0.0140 -0.8798  0.5037
  957MOL0     C31970   8.807   6.165   9.258 -0.2220  0.6454  0.0010
  957MOL0     C31971   8.905   6.054   9.215  0.3119 -0.1643 -0.3588
  957MOL0     C31972   9.050   6.065   9.261 -0.2036  0.0601  0.5431
  957MOL0    Cl31973   9.136   5.914   9.190 -0.3579 -0.4968 -0.2410
  957MOL0     C31974   8.037   6.296   8.755  0.5765 -0.1743 -1.1953
  957MOL0     C31975   7.942   6.335   8.662  0.3339  0.4218 -0.2852
  957MOL0     O31976   7.944   6.238   8.369 -0.2347 -0.0179  0.3570
  957MOL0     C31977   7.756   6.474   8.202  0.5278 -0.4373 -0.5822
  957MOL0     C31978   7.642   6.508   8.126 -0.6964  0.4933 -0.1629
  957MOL0     N31979   6.724   6.312   8.088 -0.4181 -0.3053 -0.2389
  957MOL0     N31980   6.638   6.258   8.173  0.0351  0.1223 -0.1312
  957MOL0     C31981   5.891   6.152   8.989  0.9221 -0.3297  0.1363
  957MOL0     C31982   5.799   6.048   8.983  0.1152  0.0662  0.1099
  957MOL0     C31983   5.410   5.817   9.110 -0.6574 -0.2070 -0.4557
  957MOL0     C31984   5.477   5.696   9.108 -0.2476  0.0363 -0.8206
  957MOL0     C31985   5.416   5.566   9.104 -0.2702 -0.0473  0.1226
  957MOL0     C31986   5.270   5.563   9.126  0.2453  0.3571  0.2203
  957MOL0     O31987   5.199   5.448   9.148  0.0715  0.2094  0.1312
  957MOL0     C31988   5.264   5.321   9.146 -0.9880 -0.9659 -0.0757
  957MOL0     C31989   5.175   5.196   9.174  0.3942 -0.5771 -0.4619
  957MOL0     C31990   5.027   5.224   9.210  0.7963 -0.8157  0.6958
  957MOL0     C31991   4.948   5.094   9.220  0.6615 -0.4287 -0.5756
  957MOL0     C31992   4.990   5.009   9.329  0.0819  0.6792 -0.1193
  957MOL0     C31993   5.028   4.941   9.421  0.2182  0.8121 -0.1406
  957MOL0     C31994   5.205   5.687   9.122  0.2519 -0.6241 -0.5489
  957MOL0     C31995   5.270   5.809   9.111  0.5745  0.1956  0.2473
  957MOL0     C31996   5.180   5.932   9.109 -0.1373 -0.5631  0.4549
  957MOL0     H31997   5.674   6.059   9.298 -1.9998  2.2628 -0.9076
  957MOL0     H31998   5.850   6.240   9.308  2.1136 -0.0986  0.5027
  957MOL0     H31999   6.123   6.470   9.065  2.2887 -0.6576 -0.1233
  957MOL0     H32000   6.033   6.372   8.937  1.6703  1.1897 -0.9568
  957MOL0     H32001   6.268   6.286   9.097 -2.2740 -0.1672  0.8833
  957MOL0     H32002   6.177   6.166   9.010 -1.1728  0.3545 -1.9758
  957MOL0     H32003   6.225   6.295   8.794  0.2668  1.7371 -0.0987
  957MOL0     H32004   6.313   6.415   8.881  0.5857  0.0534 -0.1304
  957MOL0     H32005   6.466   6.228   8.981 -0.8777 -0.9786  0.4478
  957MOL0     H32006   6.386   6.121   8.864 -0.1481 -1.0395  2.9596
  957MOL0     H32007   6.593   6.197   8.754 -0.2915 -0.0504 -1.0773
  957MOL0     H32008   6.561   6.366   8.808  2.3049 -0.1219 -1.7031
  957MOL0     H32009   6.391   6.237   8.595  2.3217 -1.0229 -3.1681
  957MOL0     H32010   6.421   6.402   8.623 -0.1530  0.0345 -2.6580
  957MOL0     H32011   6.646   6.222   8.532  1.7650  1.1944  0.4349
  957MOL0     H32012   6.655   6.395   8.565  1.1562 -0.2360 -0.3888
  957MOL0     H32013   6.467   6.248   8.366 -0.2033  0.6014 -0.7884
  957MOL0     H32014   6.487   6.424   8.378 -2.0637 -0.4445  1.4253
  957MOL0     H32015   6.777   6.510   8.345 -2.7644  2.6456 -1.5163
  957MOL0     H32016   6.912   6.593   8.116 -0.9412 -0.3577  1.9912
  957MOL0     H32017   6.883   6.501   7.967  2.6951  3.5688  0.1290
  957MOL0     H32018   7.026   6.401   8.226  1.8904 -0.1665  0.1768
  957MOL0     H32019   7.016   6.316   8.070 -0.7115 -0.4108  0.2489
  957MOL0     H32020   7.162   6.496   7.971 -1.3030  1.6700 -0.1581
  957MOL0     H32021   7.145   6.588   8.122  0.6981  1.0398 -1.7460
  957MOL0     H32022   7.282   6.389   8.236 -3.2180  2.5534  1.5885
  957MOL0     H32023   7.268   6.308   8.088 -1.3730 -0.1764  2.7284
  957MOL0     H32024   7.463   6.235   8.211 -1.0177  1.3882 -1.4583
  957MOL0     H32025   7.705   6.080   8.369  0.8042  0.8241 -1.0984
  957MOL0     H32026   7.542   6.133   8.435 -0.2752 -0.2107  0.6960
  957MOL0     H32027   7.685   6.205   8.497  2.0352 -2.5479  0.6267
  957MOL0     H32028   8.144   6.555   8.490  0.5329 -1.7512 -1.5938
  957MOL0     H32029   8.291   6.511   8.670 -0.2735  0.7688  0.2603
  957MOL0     H32030   8.418   6.415   8.844 -1.8086  2.1134 -1.2360
  957MOL0     H32031   8.292   6.475   8.950  1.1896 -0.0150 -0.1798
  957MOL0     H32032   8.349   6.284   9.114 -0.0308  0.6469 -0.4254
  957MOL0     H32033   8.440   6.209   8.989 -0.3329 -0.9948  0.2419
  957MOL0     H32034   8.485   6.476   9.137 -0.1905 -0.7002  0.9343
  957MOL0     H32035   8.599   6.424   9.010 -0.1041  0.3389 -0.0375
  957MOL0     H32036   8.537   6.271   9.265  0.6997 -1.2424  0.6031
  957MOL0     H32037   8.676   6.384   9.248 -0.7977  1.1632 -1.6078
  957MOL0     H32038   8.614   6.107   9.158 -0.9503  0.0938  4.3965
  957MOL0     H32039   8.723   6.181   9.049 -3.9046 -0.5633 -0.8854
  957MOL0     H32040   8.781   6.153   9.364  3.5860 -0.5411  0.9607
  957MOL0     H32041   8.862   6.259   9.259 -1.7481  1.5630 -0.2505
  957MOL0     H32042   8.909   6.060   9.106  0.8483  0.0063 -0.3331
  957MOL0     H32043   8.858   5.958   9.240 -0.7432  0.6746  1.0046
  957MOL0     H32044   9.046   6.073   9.370 -2.2470  0.2490  0.5055
  957MOL0     H32045   9.100   6.147   9.209  1.9915 -2.3075 -1.3497
  957MOL0     H32046   7.996   6.220   8.820  0.6097 -0.1325 -1.1260
  957MOL0     H32047   7.846   6.284   8.654  1.4072 -1.4908 -1.7892
  957MOL0     H32048   7.842   6.540   8.213 -0.5495  0.7148  1.4031
  957MOL0     H32049   7.640   6.598   8.066  2.3057  1.7666  1.3978
  957MOL0     H32050   5.934   6.189   8.896  0.7830 -0.3874  0.0492
  957MOL0     H32051   5.780   5.982   8.899 -1.1699  0.6465 -0.0931
  957MOL0     H32052   5.582   5.688   9.083 -0.3463  0.8422 -1.5429
  957MOL0     H32053   5.478   5.477   9.110 -1.2254 -0.6849  0.9749
  957MOL0     H32054   5.300   5.300   9.045 -0.2603  0.1861 -0.0701
  957MOL0     H32055   5.349   5.327   9.214 -0.6494  1.0028 -0.6237
  957MOL0     H32056   5.218   5.141   9.258 -0.1661 -1.9676 -1.0625
  957MOL0     H32057   5.188   5.116   9.100 -0.2003 -3.6897  2.5260
  957MOL0     H32058   5.011   5.299   9.288 -1.2689  0.3790 -0.7550
  957MOL0     H32059   4.982   5.284   9.129 -1.5834  0.2054  2.6242
  957MOL0     H32060   4.969   5.041   9.126 -1.0448 -2.2968  0.0259
  957MOL0     H32061   4.841   5.117   9.221  0.9352  0.9409 -1.0855
  957MOL0     H32062   5.050   4.870   9.498 -3.5719 -0.2763  0.1842
  957MOL0     H32063   5.097   5.677   9.123  0.2741 -0.8471 -0.4042
  957MOL0     H32064   5.191   5.983   9.205 -0.5141  0.2817  0.0625
  957MOL0     H32065   5.213   6.000   9.030  2.0295 -1.8278  0.1798
  957MOL0     H32066   5.072   5.917   9.094 -0.5281  1.7796  0.6355
  958MOL0     O32067   5.630  10.247   5.917 -0.0494  0.8342  0.2859
  958MOL0     C32068   5.646  10.363   5.958 -0.0137 -0.0997 -0.1275
  958MOL0     O32069   5.543  10.456   5.962 -0.4833  0.8250 -0.5172
  958MOL0     C32070   5.409  10.429   5.947 -0.5182  0.0588  0.1463
  958MOL0     C32071   5.321  10.537   5.943 -0.2391 -0.4401 -0.1767
  958MOL0     C32072   5.185  10.519   5.921 -0.5894 -0.3587  0.3718
  958MOL0     C32073   5.128  10.395   5.900  0.1881 -0.4138  0.3725
  958MOL0     O32074   4.990  10.376   5.889 -0.5055  0.3534  0.1795
  958MOL0     C32075   4.898  10.485   5.887 -0.1849 -0.2938  0.7191
  958MOL0     C32076   4.893  10.561   5.751  0.5869 -0.2494 -0.5580
  958MOL0     C32077   4.807  10.693   5.771  0.0480 -0.8659 -0.0794
  958MOL0     C32078   4.658  10.657   5.793 -0.8060 -0.3315  0.3891
  958MOL0     C32079   4.572  10.783   5.782  0.3955  0.5746  0.2685
  958MOL0     C32080   4.618  10.908   5.849 -0.0222  0.3464  0.0905
  958MOL0     C32081   4.521  11.021   5.830  0.4398 -0.2119  0.0023
  958MOL0     C32082   4.565  11.155   5.896 -0.0554  0.0257  0.0904
  958MOL0     N32083   4.681  11.234   5.826 -0.0180 -0.0385 -0.2523
  958MOL0     C32084   4.758  11.325   5.889 -0.0840 -0.4782  0.2304
  958MOL0     C32085   4.853  11.367   5.801  0.4269  0.3451  1.3785
  958MOL0     C32086   4.942  11.484   5.802 -0.7815  0.5447  0.2027
  958MOL0     C32087   5.051  11.468   5.905 -0.8261  0.7984 -0.0305
  958MOL0     C32088   5.117  11.610   5.918 -0.2664  0.0619  0.7709
  958MOL0     C32089   5.232  11.599   6.014  0.3259  0.2175  0.3148
  958MOL0     O32090   5.307  11.493   5.984 -0.4652 -0.0173  0.2555
  958MOL0     C32091   5.432  11.485   6.046  0.0788  0.4853  0.3370
  958MOL0     C32092   5.531  11.421   5.970 -0.1365 -0.0174  0.8009
  958MOL0     C32093   5.665  11.428   6.006 -0.0190  1.0177 -0.0643
  958MOL0     C32094   5.768  11.371   5.909  0.4118 -0.3075 -0.2049
  958MOL0     C32095   5.696  11.462   6.143 -0.8004 -0.3429  0.4670
  958MOL0     C32096   5.830  11.461   6.212  0.9534 -0.9289 -0.1347
  958MOL0     O32097   5.856  11.538   6.314  0.1125 -0.9795 -0.3696
  958MOL0     C32098   5.982  11.533   6.365 -0.4100  0.2700 -0.1293
  958MOL0     C32099   6.002  11.477   6.491  0.2097  0.0075  0.4678
  958MOL0     C32100   6.136  11.470   6.538  1.0833  0.0659  0.0413
  958MOL0     C32101   6.239  11.539   6.477 -0.2048 -0.3771  0.2434
  958MOL0     O32102   6.373  11.544   6.528 -0.1113  0.7429  0.0416
  958MOL0     C32103   6.404  11.474   6.650  0.0604 -0.0262  0.5063
  958MOL0     C32104   6.546  11.426   6.657 -0.7113  0.4384  0.1723
  958MOL0     C32105   6.584  11.356   6.795  0.3640 -0.2104 -0.1474
  958MOL0     C32106   6.735  11.343   6.817 -0.8246  0.1141  0.0128
  958MOL0     C32107   6.772  11.244   6.927  0.7358  0.3300 -0.2146
  958MOL0     C32108   6.911  11.264   6.991  0.1978 -0.2111  0.1545
  958MOL0     C32109   6.940  11.141   7.080 -0.3777  0.3985 -0.4932
  958MOL0     C32110   7.086  11.139   7.129  0.3668 -0.0507  0.0153
  958MOL0    Cl32111   7.125  11.268   7.251 -0.1857  0.6016 -0.0235
  958MOL0     C32112   6.205  11.605   6.354 -0.7850  0.5534 -0.6181
  958MOL0     C32113   6.081  11.602   6.297  0.6648 -0.3272 -0.8459
  958MOL0     O32114   5.905  11.378   6.165 -0.4092  0.4358  0.4521
  958MOL0     C32115   5.592  11.515   6.221  0.5612 -0.0217 -0.1620
  958MOL0     C32116   5.462  11.531   6.175 -0.3670  0.3518  0.1374
  958MOL0     N32117   4.836  11.281   5.691  0.3163  0.2141 -0.2243
  958MOL0     N32118   4.728  11.213   5.706  0.8111  0.5623 -0.7645
  958MOL0     C32119   5.213  10.281   5.919  0.4052  0.6546 -0.0382
  958MOL0     C32120   5.351  10.303   5.944 -0.1118  0.5604 -0.2194
  958MOL0     C32121   5.787  10.406   6.008  0.9703 -0.1597 -0.2334
  958MOL0     C32122   5.811  10.541   6.032  0.2835 -0.9264 -0.7921
  958MOL0     C32123   5.947  10.587   6.058 -1.1513 -0.3608 -0.3557
  958MOL0     C32124   6.055  10.491   6.067  0.2876 -0.1082  0.3995
  958MOL0     O32125   6.187  10.517   6.090  0.5977  0.2339 -0.4684
  958MOL0     C32126   6.242  10.646   6.051  0.1189 -0.6700  0.1608
  958MOL0     C32127   6.383  10.626   6.020  0.1164  0.4603 -0.2724
  958MOL0     C32128   6.461  10.572   6.133 -0.4790  0.2151  0.7319
  958MOL0     C32129   6.492  10.688   6.229 -0.0041  0.0800  0.5065
  958MOL0     C32130   6.533  10.637   6.359  0.2377 -0.3921 -0.0376
  958MOL0     C32131   6.569  10.619   6.470 -0.1961 -0.0618  0.1518
  958MOL0     C32132   6.027  10.361   6.059  0.1009  0.6291  0.3696
  958MOL0     C32133   5.893  10.318   6.021 -0.6985  0.2428  0.6590
  958MOL0     C32134   5.889  10.168   5.996  1.1589 -0.7833  0.0285
  958MOL0     H32135   5.370  10.632   5.952  0.0288 -0.4799 -1.0775
  958MOL0     H32136   5.130  10.611   5.900  0.5135 -0.0131 -1.2140
  958MOL0     H32137   4.914  10.546   5.976 -0.6854 -1.0317  1.3218
  958MOL0     H32138   4.797  10.446   5.900 -0.3317  0.2025  1.0947
  958MOL0     H32139   4.998  10.577   5.722  0.6544  0.1606 -0.0803
  958MOL0     H32140   4.849  10.494   5.676 -0.7989 -0.6247  0.5616
  958MOL0     H32141   4.847  10.744   5.859 -2.8621 -1.5637  1.8008
  958MOL0     H32142   4.824  10.749   5.679 -0.0909 -0.7433 -0.0305
  958MOL0     H32143   4.624  10.577   5.726  0.6291 -1.3276  0.7901
  958MOL0     H32144   4.642  10.615   5.893  1.2394  0.5290  1.1155
  958MOL0     H32145   4.472  10.744   5.799  0.1777 -0.1253 -2.1599
  958MOL0     H32146   4.568  10.809   5.676 -2.4934  1.0214  0.4288
  958MOL0     H32147   4.638  10.898   5.956 -2.6361  0.2068  0.6439
  958MOL0     H32148   4.710  10.944   5.804 -2.5051  3.6340 -2.9371
  958MOL0     H32149   4.429  10.987   5.878  1.1484 -0.6050  1.1042
  958MOL0     H32150   4.499  11.045   5.725 -1.0527 -0.3473  0.2542
  958MOL0     H32151   4.488  11.232   5.891 -1.6544 -1.5757 -1.4032
  958MOL0     H32152   4.594  11.140   6.000 -0.6606 -0.1534  0.2363
  958MOL0     H32153   4.751  11.358   5.992  3.2236  1.3741  0.0135
  958MOL0     H32154   4.887  11.578   5.817 -0.4976  0.4851  1.7529
  958MOL0     H32155   4.989  11.485   5.703  1.0695 -0.2726  1.0370
  958MOL0     H32156   5.012  11.425   5.997 -0.6615  1.9018  0.5692
  958MOL0     H32157   5.114  11.387   5.866  0.2526  2.0523 -0.9741
  958MOL0     H32158   5.141  11.651   5.820  0.5816 -0.1812  0.8671
  958MOL0     H32159   5.048  11.687   5.953  1.7382  2.4847 -0.3169
  958MOL0     H32160   5.293  11.689   6.005  0.2258  0.4240  1.5436
  958MOL0     H32161   5.199  11.600   6.119 -1.9788  0.1833 -0.3448
  958MOL0     H32162   5.495  11.398   5.870 -0.6808  1.4793  0.6153
  958MOL0     H32163   5.813  11.289   5.966  1.2716  1.3244  1.5961
  958MOL0     H32164   5.854  11.438   5.900  2.1428 -2.1686  1.4383
  958MOL0     H32165   5.719  11.351   5.813 -3.3765  1.1168  1.2753
  958MOL0     H32166   5.920  11.415   6.525 -0.9995 -1.0765 -3.7466
  958MOL0     H32167   6.153  11.428   6.636 -0.0666  4.0450  2.1887
  958MOL0     H32168   6.384  11.540   6.734 -0.7477  3.0163 -1.8892
  958MOL0     H32169   6.347  11.381   6.664  1.8958 -1.5918 -1.6246
  958MOL0     H32170   6.558  11.357   6.573 -0.8162 -1.3944  1.6119
  958MOL0     H32171   6.612  11.509   6.628  0.7261 -0.1207  1.6652
  958MOL0     H32172   6.549  11.252   6.797  2.3122 -0.9744  3.3361
  958MOL0     H32173   6.533  11.401   6.881  0.0930  1.0599 -0.9530
  958MOL0     H32174   6.782  11.437   6.847 -1.0502  0.6299 -1.1739
  958MOL0     H32175   6.782  11.319   6.722 -2.1232 -2.5328 -0.0548
  958MOL0     H32176   6.705  11.257   7.012 -0.4716  4.1005 -1.5158
  958MOL0     H32177   6.758  11.141   6.892 -1.9355  0.3930  0.4841
  958MOL0     H32178   6.911  11.355   7.052  0.0836 -0.2646  0.2356
  958MOL0     H32179   6.984  11.279   6.912  1.5973 -1.0022  1.2427
  958MOL0     H32180   6.920  11.054   7.016 -0.4800  0.6095 -0.7527
  958MOL0     H32181   6.869  11.126   7.161 -2.7006 -0.1731 -2.4925
  958MOL0     H32182   7.146  11.136   7.037 -2.4376  0.1957 -1.9642
  958MOL0     H32183   7.101  11.044   7.181  1.7143  0.4599  0.6060
  958MOL0     H32184   6.284  11.662   6.307  1.0428 -2.7133 -1.8295
  958MOL0     H32185   6.067  11.641   6.196  2.0983  2.3359 -0.0908
  958MOL0     H32186   5.605  11.556   6.321  0.5832  1.9805 -0.9391
  958MOL0     H32187   5.383  11.563   6.242 -1.0180  1.7058 -1.2125
  958MOL0     H32188   5.177  10.178   5.926  0.4728  0.6920  1.0422
  958MOL0     H32189   5.420  10.221   5.961  1.8572  2.1740 -0.0928
  958MOL0     H32190   5.733  10.617   6.029 -0.1038 -1.0232  2.9885
  958MOL0     H32191   5.979  10.689   6.073  0.3827 -0.9268  0.3498
  958MOL0     H32192   6.191  10.670   5.957  1.0324 -0.2114 -0.2371
  958MOL0     H32193   6.224  10.721   6.128 -0.7182 -0.2970 -0.3868
  958MOL0     H32194   6.423  10.721   5.981 -1.2709  0.6876 -1.2275
  958MOL0     H32195   6.384  10.554   5.937  0.6165  1.2324 -0.9594
  958MOL0     H32196   6.400  10.491   6.176 -1.7067  1.0616  0.6314
  958MOL0     H32197   6.549  10.526   6.088 -1.1374 -0.4060  0.0357
  958MOL0     H32198   6.406  10.751   6.252 -0.8490 -1.3927  1.6309
  958MOL0     H32199   6.571  10.752   6.188 -1.5709  3.1849  1.9859
  958MOL0     H32200   6.605  10.607   6.571 -0.4868 -1.0272  0.1452
  958MOL0     H32201   6.107  10.289   6.064  1.0897  1.7106  0.5624
  958MOL0     H32202   5.982  10.116   6.023  1.0221 -1.3386 -0.5433
  958MOL0     H32203   5.807  10.113   6.042  1.7700 -2.2064 -0.5329
  958MOL0     H32204   5.871  10.143   5.891  2.1473 -2.1737  0.1677
  959MOL0     O32205   1.113   0.775   6.884 -0.1434 -0.1182 -0.7912
  959MOL0     C32206   1.014   0.826   6.837 -0.4651  1.2461  0.3147
  959MOL0     O32207   1.001   0.863   6.710  0.0763 -0.2822 -0.3870
  959MOL0     C32208   1.094   0.823   6.619  0.0689  0.7687 -0.7717
  959MOL0     C32209   1.118   0.916   6.513  0.1870 -0.0320 -0.4812
  959MOL0     C32210   1.208   0.886   6.414  0.5017 -0.0345  0.3843
  959MOL0     C32211   1.273   0.763   6.413  0.6425  0.0557 -0.6441
  959MOL0     O32212   1.371   0.731   6.322 -0.0392  0.0525  0.4847
  959MOL0     C32213   1.418   0.819   6.222 -0.3032  0.5768 -0.2070
  959MOL0     C32214   1.545   0.776   6.146 -0.0885 -0.6554  0.0759
  959MOL0     C32215   1.514   0.675   6.040 -0.1960  0.5380  0.0704
  959MOL0     C32216   1.643   0.643   5.957  0.4319  0.1121  0.7000
  959MOL0     C32217   1.633   0.571   5.819  0.6152  0.0549 -0.1775
  959MOL0     C32218   1.579   0.670   5.716 -0.0599  0.7900  0.5118
  959MOL0     C32219   1.575   0.590   5.580 -0.9721  0.3628  0.3673
  959MOL0     C32220   1.527   0.676   5.463  0.6982 -0.2771 -0.4093
  959MOL0     N32221   1.553   0.607   5.336  0.2780  0.2253  0.3380
  959MOL0     C32222   1.675   0.592   5.274  0.5244 -0.2267  0.1018
  959MOL0     C32223   1.647   0.522   5.162 -0.7225 -0.3744 -0.2587
  959MOL0     C32224   1.751   0.473   5.063 -0.4268 -0.0747 -0.0013
  959MOL0     C32225   1.753   0.324   5.052 -0.5107  0.9385  0.0213
  959MOL0     C32226   1.856   0.265   4.948  0.0753 -0.8728 -0.0801
  959MOL0     C32227   1.993   0.335   4.972  0.9680  0.2971 -0.0123
  959MOL0     O32228   2.088   0.289   4.882  0.3036  0.2887 -0.1914
  959MOL0     C32229   2.224   0.309   4.907  1.0269  0.4133 -0.8606
  959MOL0     C32230   2.318   0.217   4.843 -0.1001  0.4778 -0.3872
  959MOL0     C32231   2.459   0.225   4.866  0.9079  0.1918 -0.1133
  959MOL0     C32232   2.544   0.122   4.796  0.0997  0.1423  0.1182
  959MOL0     C32233   2.513   0.331   4.952  0.3635  0.0764 -0.7349
  959MOL0     C32234   2.656   0.349   4.979 -0.1891  0.5881  0.4891
  959MOL0     O32235   2.755   0.286   4.905 -0.5107 -0.9761 -0.1710
  959MOL0     C32236   2.889   0.307   4.930  0.4238 -0.4081 -0.2685
  959MOL0     C32237   2.949   0.429   4.940  0.3265 -0.0053 -0.1069
  959MOL0     C32238   3.084   0.446   4.971 -1.2045 -0.5713  0.7018
  959MOL0     C32239   3.168   0.338   4.970 -0.4084 -0.2565 -0.2428
  959MOL0     O32240   3.304   0.330   4.976  0.1531  0.2938 -0.7309
  959MOL0     C32241   3.378   0.459   4.964 -0.6444 -0.7074 -0.5155
  959MOL0     C32242   3.523   0.430   4.975  0.6466 -0.0866  0.4865
  959MOL0     C32243   3.568   0.423   5.120 -0.0935  0.2820 -0.1746
  959MOL0     C32244   3.715   0.371   5.137  0.5409 -0.4649  0.3571
  959MOL0     C32245   3.723   0.318   5.283  0.1348 -0.4573 -0.2503
  959MOL0     C32246   3.868   0.312   5.332 -0.5000 -0.5297  0.1801
  959MOL0     C32247   3.963   0.233   5.232  0.2055 -0.2960 -0.3641
  959MOL0     C32248   4.107   0.207   5.280  0.2933  0.0074  0.1304
  959MOL0    Cl32249   4.107   0.074   5.397  0.1306 -0.3789 -0.5061
  959MOL0     C32250   3.111   0.213   4.966  0.0064  0.0386 -0.1922
  959MOL0     C32251   2.970   0.198   4.957  0.7304  0.4260  0.3903
  959MOL0     O32252   2.680   0.440   5.053  0.2396 -0.2045 -0.4503
  959MOL0     C32253   2.418   0.417   5.005  0.5155 -0.0439 -0.4367
  959MOL0     C32254   2.279   0.401   4.988  0.5315  0.0786  0.0712
  959MOL0     N32255   1.523   0.472   5.174  0.2500 -0.3549 -0.3434
  959MOL0     N32256   1.460   0.533   5.268  0.7093  0.4543  0.7263
  959MOL0     C32257   1.249   0.673   6.512 -0.1290  0.2294 -0.3529
  959MOL0     C32258   1.160   0.695   6.619  0.0789 -0.5001 -0.0704
  959MOL0     C32259   0.905   0.837   6.928  0.6458 -0.0865  0.0261
  959MOL0     C32260   0.935   0.851   7.069 -0.1685 -0.1752  0.0129
  959MOL0     C32261   0.832   0.866   7.159  0.1690  0.7623  0.4043
  959MOL0     C32262   0.704   0.882   7.116 -0.2138  0.7702 -0.9885
  959MOL0     O32263   0.596   0.890   7.198 -1.0226 -0.4583 -0.1731
  959MOL0     C32264   0.607   0.864   7.338  0.7310 -0.5931  0.3428
  959MOL0     C32265   0.459   0.879   7.396  0.2761 -0.6534 -0.8661
  959MOL0     C32266   0.396   1.024   7.402 -0.4320  0.8348  0.6795
  959MOL0     C32267   0.242   1.011   7.421  0.2396  0.0765  0.5556
  959MOL0     C32268   0.191   0.959   7.551 -0.6122  0.4844 -0.3840
  959MOL0     C32269   0.137   0.912   7.649 -0.4834  0.5379 -0.3597
  959MOL0     C32270   0.672   0.884   6.985 -0.2383  0.5244  0.5676
  959MOL0     C32271   0.769   0.863   6.887  0.6245  0.0444 -0.5856
  959MOL0     C32272   0.721   0.872   6.742 -0.0889  0.7373  0.0612
  959MOL0     H32273   1.065   1.010   6.516  0.8229  0.4107 -1.9736
  959MOL0     H32274   1.200   0.950   6.327 -0.2341  3.5451  2.8394
  959MOL0     H32275   1.443   0.918   6.260 -1.6355  1.5134 -1.6697
  959MOL0     H32276   1.348   0.839   6.141  1.0045  0.7148 -1.3458
  959MOL0     H32277   1.588   0.858   6.087  0.9445 -2.0886 -1.2345
  959MOL0     H32278   1.614   0.737   6.221 -2.3372 -1.5295  1.7979
  959MOL0     H32279   1.463   0.589   6.084 -0.8352  1.2630  0.7948
  959MOL0     H32280   1.446   0.720   5.968  0.7796 -0.1975 -1.3640
  959MOL0     H32281   1.693   0.740   5.945 -0.8899  0.7423  0.0517
  959MOL0     H32282   1.709   0.589   6.025  1.8485  0.4798 -0.3302
  959MOL0     H32283   1.575   0.479   5.832 -2.1995  1.6841 -0.5714
  959MOL0     H32284   1.730   0.533   5.784 -0.5760 -2.7836 -0.6396
  959MOL0     H32285   1.478   0.706   5.739 -0.3148  0.7565 -0.5078
  959MOL0     H32286   1.638   0.760   5.701  0.6824  0.2226 -0.0469
  959MOL0     H32287   1.505   0.506   5.586 -0.6508  0.0763  0.1245
  959MOL0     H32288   1.678   0.555   5.579 -0.7782  0.8892 -1.3730
  959MOL0     H32289   1.422   0.706   5.473  0.5472 -1.2671  1.2973
  959MOL0     H32290   1.584   0.769   5.468  0.0546  0.0538  2.7360
  959MOL0     H32291   1.761   0.645   5.312 -0.4286 -0.2805  2.4861
  959MOL0     H32292   1.852   0.502   5.094  0.7373 -1.5709 -2.1619
  959MOL0     H32293   1.733   0.514   4.963  1.9851 -0.4336 -0.6347
  959MOL0     H32294   1.792   0.270   5.140 -0.1721  0.5284 -0.3753
  959MOL0     H32295   1.658   0.273   5.034  1.0460 -2.9157  1.5189
  959MOL0     H32296   1.867   0.156   4.951 -0.9667 -0.9764  0.4235
  959MOL0     H32297   1.824   0.293   4.847 -2.3490 -0.8059  0.6284
  959MOL0     H32298   1.991   0.442   4.953 -1.4875  0.1287 -1.0530
  959MOL0     H32299   2.022   0.327   5.077 -0.9714 -0.1271  0.5238
  959MOL0     H32300   2.275   0.138   4.782 -3.1355  1.8161 -0.1677
  959MOL0     H32301   2.611   0.168   4.722 -0.1226 -0.8760 -0.7428
  959MOL0     H32302   2.486   0.041   4.752 -0.3170 -0.2319  1.3354
  959MOL0     H32303   2.615   0.067   4.858 -0.5594 -3.0723 -1.7641
  959MOL0     H32304   2.886   0.517   4.932  0.4327  0.7324  4.4981
  959MOL0     H32305   3.121   0.547   4.990 -0.6010 -0.9135  1.3797
  959MOL0     H32306   3.357   0.507   4.869 -4.3549 -2.2526 -0.6773
  959MOL0     H32307   3.350   0.531   5.042  1.7814 -0.4178  0.1680
  959MOL0     H32308   3.550   0.344   4.913  1.4526 -0.8357  1.8364
  959MOL0     H32309   3.577   0.514   4.931 -1.6759  0.6192 -1.2469
  959MOL0     H32310   3.492   0.372   5.181  1.3922 -0.6436  0.9664
  959MOL0     H32311   3.565   0.525   5.160  1.0441  1.7326 -3.4724
  959MOL0     H32312   3.774   0.460   5.110  0.0327 -0.3027 -0.2449
  959MOL0     H32313   3.737   0.292   5.065 -0.7468 -2.1202  1.7162
  959MOL0     H32314   3.654   0.382   5.339 -1.3513 -1.6216 -0.6793
  959MOL0     H32315   3.682   0.216   5.285  1.5673 -1.1066 -1.7504
  959MOL0     H32316   3.876   0.273   5.434 -1.2335 -1.0933  0.0314
  959MOL0     H32317   3.912   0.412   5.327  1.7032 -1.4944 -1.5308
  959MOL0     H32318   3.961   0.290   5.139 -2.6193 -0.7181 -0.6808
  959MOL0     H32319   3.926   0.132   5.208  1.2998 -0.8498  0.2007
  959MOL0     H32320   4.149   0.292   5.335  0.8801 -0.7815  0.9358
  959MOL0     H32321   4.171   0.187   5.195  0.8021  3.0278 -0.3238
  959MOL0     H32322   3.174   0.125   4.960 -1.5758 -1.2610  1.0093
  959MOL0     H32323   2.923   0.102   4.975 -0.0342  0.8546  0.7686
  959MOL0     H32324   2.444   0.511   5.052 -0.4913 -0.3928  0.8494
  959MOL0     H32325   2.215   0.477   5.030 -0.0136  1.3291 -2.7688
  959MOL0     H32326   1.319   0.590   6.502  0.7631  0.9305 -0.0153
  959MOL0     H32327   1.124   0.633   6.700  1.3585  2.4183  2.9476
  959MOL0     H32328   1.038   0.845   7.102  0.4318  2.9989 -0.9003
  959MOL0     H32329   0.857   0.866   7.265 -0.6798 -0.3739  0.6299
  959MOL0     H32330   0.649   0.767   7.367 -0.1006 -0.7099  1.1976
  959MOL0     H32331   0.666   0.945   7.382 -0.7488  0.2388  0.8836
  959MOL0     H32332   0.451   0.825   7.491  1.7187  0.0335 -0.3250
  959MOL0     H32333   0.401   0.818   7.326  0.2569  0.4132 -1.8104
  959MOL0     H32334   0.450   1.093   7.467 -0.8560  1.3435  0.4959
  959MOL0     H32335   0.411   1.076   7.307  0.7985 -1.2488 -0.3609
  959MOL0     H32336   0.191   0.955   7.341 -3.1204  0.9427  1.9442
  959MOL0     H32337   0.200   1.111   7.407  0.9236  0.2942 -0.0167
  959MOL0     H32338   0.096   0.867   7.738  0.2575 -1.7565 -1.1243
  959MOL0     H32339   0.569   0.885   6.948 -0.5114 -0.5473  1.2620
  959MOL0     H32340   0.791   0.937   6.689  2.2583 -0.5225  1.4546
  959MOL0     H32341   0.734   0.770   6.704 -0.1963 -0.3248  2.6757
  959MOL0     H32342   0.618   0.905   6.726 -0.1153 -0.4885 -3.3717
  960MOL0     O32343   1.916   4.087   6.575  0.0202 -0.5445 -0.0633
  960MOL0     C32344   1.877   3.970   6.574  0.5651  0.1718  1.3688
  960MOL0     O32345   1.956   3.860   6.604 -0.0758 -0.0071 -0.0858
  960MOL0     C32346   2.088   3.875   6.614  0.0792 -0.2355 -0.1365
  960MOL0     C32347   2.157   3.871   6.733 -1.0397  0.1646  0.0039
  960MOL0     C32348   2.300   3.882   6.734  0.3007 -0.7114  0.3942
  960MOL0     C32349   2.373   3.879   6.613 -0.2391 -0.0264  0.0649
  960MOL0     O32350   2.512   3.892   6.601 -0.6231 -0.5122 -0.6772
  960MOL0     C32351   2.571   3.830   6.485 -0.6081  0.2695 -0.8263
  960MOL0     C32352   2.701   3.766   6.528  2.1825 -0.1601 -0.1785
  960MOL0     C32353   2.676   3.652   6.643  0.4345 -0.1832 -0.2867
  960MOL0     C32354   2.814   3.587   6.679 -0.0476  1.4382  0.3849
  960MOL0     C32355   2.808   3.454   6.764 -0.0117 -1.2265  0.1463
  960MOL0     C32356   2.730   3.343   6.688  0.2236 -0.3441 -0.8530
  960MOL0     C32357   2.770   3.202   6.731 -0.0109  0.1476  0.4283
  960MOL0     C32358   2.677   3.113   6.650  0.3985  0.0628  0.1933
  960MOL0     N32359   2.717   2.974   6.660  0.0367  0.0817  0.3523
  960MOL0     C32360   2.848   2.924   6.639  0.4024 -0.1090  0.0823
  960MOL0     C32361   2.848   2.797   6.689 -0.4335 -0.6085 -0.1630
  960MOL0     C32362   2.968   2.699   6.708  1.1363  0.5030 -0.2437
  960MOL0     C32363   2.933   2.549   6.739  0.1032 -0.2333 -0.0000
  960MOL0     C32364   2.872   2.481   6.612 -0.1992  0.3095 -0.1116
  960MOL0     C32365   2.855   2.329   6.629 -0.8503 -0.2425 -0.8514
  960MOL0     O32366   2.819   2.303   6.766  0.5583  0.2129  0.4775
  960MOL0     C32367   2.689   2.280   6.795  0.2565  0.0968 -0.3751
  960MOL0     C32368   2.690   2.237   6.923 -0.2429  0.2803 -0.6900
  960MOL0     C32369   2.571   2.204   6.990  0.8756 -0.8096 -1.6035
  960MOL0     C32370   2.583   2.158   7.134 -0.6421 -0.3055 -0.2431
  960MOL0     C32371   2.447   2.229   6.921 -0.0428  0.7387 -0.0016
  960MOL0     C32372   2.318   2.228   6.997 -0.2030 -0.2287 -0.9769
  960MOL0     O32373   2.313   2.285   7.129 -0.1501 -0.1419 -0.3195
  960MOL0     C32374   2.203   2.262   7.200  0.2893 -0.1753 -0.0904
  960MOL0     C32375   2.193   2.132   7.272  0.6076 -0.3784  0.4962
  960MOL0     C32376   2.075   2.104   7.351 -0.7405 -0.4340 -0.1881
  960MOL0     C32377   1.969   2.190   7.343  0.2587 -0.6138  0.2410
  960MOL0     O32378   1.853   2.162   7.404 -0.0469 -0.4933  0.1077
  960MOL0     C32379   1.846   2.048   7.490  0.3080  0.3958 -0.0898
  960MOL0     C32380   1.701   2.045   7.560 -0.5895  0.0621 -0.5096
  960MOL0     C32381   1.594   2.012   7.450 -0.2245  0.4683 -0.7026
  960MOL0     C32382   1.459   2.001   7.518 -0.0729 -0.1240 -0.0152
  960MOL0     C32383   1.369   1.904   7.441  0.0342  0.1851 -0.2973
  960MOL0     C32384   1.221   1.901   7.483  0.1027  0.8330  0.1422
  960MOL0     C32385   1.145   1.801   7.391  0.6158 -0.9039 -0.0872
  960MOL0     C32386   1.112   1.859   7.263  0.1295  0.0917  0.6688
  960MOL0    Cl32387   0.976   1.982   7.289  0.2755  0.2000  0.2166
  960MOL0     C32388   1.977   2.305   7.267  0.6832  0.1530  0.5739
  960MOL0     C32389   2.097   2.353   7.199 -0.6310 -0.5567  0.0821
  960MOL0     O32390   2.222   2.180   6.939 -0.5954 -0.0697 -0.0434
  960MOL0     C32391   2.448   2.276   6.790 -0.3211 -0.1329 -0.1330
  960MOL0     C32392   2.571   2.304   6.723  0.4567 -0.1322  0.0380
  960MOL0     N32393   2.724   2.765   6.738  0.1140  0.2558 -0.0456
  960MOL0     N32394   2.646   2.874   6.722 -0.1147 -0.0330  0.5298
  960MOL0     C32395   2.301   3.877   6.495 -0.2503  0.0454  0.0221
  960MOL0     C32396   2.161   3.879   6.493 -0.0569  0.0749 -0.1432
  960MOL0     C32397   1.736   3.949   6.538 -0.7976  0.8418 -0.2562
  960MOL0     C32398   1.648   4.057   6.532  0.6153 -0.2528  0.9185
  960MOL0     C32399   1.509   4.046   6.515  0.0231  0.0668 -0.7495
  960MOL0     C32400   1.457   3.921   6.498 -0.0736  0.2924  0.3682
  960MOL0     O32401   1.323   3.908   6.476  0.0071  0.7872  0.3820
  960MOL0     C32402   1.244   3.792   6.528  0.6586 -0.3497  0.4112
  960MOL0     C32403   1.131   3.862   6.613 -0.3354 -0.2594 -0.4517
  960MOL0     C32404   1.019   3.763   6.652 -0.0876 -0.1871  0.3433
  960MOL0     C32405   0.911   3.811   6.748  0.3093 -0.2967 -0.3306
  960MOL0     C32406   0.857   3.943   6.717 -0.1389  0.8013 -0.7474
  960MOL0     C32407   0.817   4.056   6.694 -0.1990  0.2394  0.0768
  960MOL0     C32408   1.536   3.810   6.496 -0.1663  0.5398 -0.1434
  960MOL0     C32409   1.670   3.822   6.514 -0.0891  0.0401 -0.5261
  960MOL0     C32410   1.752   3.695   6.504 -0.4139 -0.0450 -0.0770
  960MOL0     H32411   2.105   3.856   6.827 -1.5842  0.0245 -0.3148
  960MOL0     H32412   2.355   3.887   6.828 -1.7823 -1.4126  1.7181
  960MOL0     H32413   2.593   3.903   6.406  6.0098 -0.3189 -0.0982
  960MOL0     H32414   2.508   3.749   6.448 -0.6533  0.9140 -2.2310
  960MOL0     H32415   2.750   3.710   6.447 -0.1290 -0.3311 -1.5250
  960MOL0     H32416   2.772   3.843   6.559  1.3569 -0.0651  1.5810
  960MOL0     H32417   2.625   3.699   6.728 -0.5553 -1.1940 -0.3026
  960MOL0     H32418   2.611   3.573   6.605  1.9915 -2.7529  2.0455
  960MOL0     H32419   2.865   3.566   6.585 -0.0692 -2.4883  1.1131
  960MOL0     H32420   2.874   3.656   6.740  0.2416 -0.3912  2.2850
  960MOL0     H32421   2.753   3.471   6.857 -0.0593  0.1475 -0.1106
  960MOL0     H32422   2.909   3.423   6.793  0.1000 -0.6121  0.4321
  960MOL0     H32423   2.624   3.366   6.701  0.3896  0.0947 -0.2210
  960MOL0     H32424   2.752   3.360   6.582  1.4340  1.6468 -0.3294
  960MOL0     H32425   2.765   3.185   6.839 -2.2158 -0.1683  0.3266
  960MOL0     H32426   2.873   3.191   6.696 -0.0979 -0.6190  0.4097
  960MOL0     H32427   2.576   3.126   6.689 -0.1413 -1.1211 -0.7712
  960MOL0     H32428   2.686   3.129   6.542  3.1437  0.9272  0.4529
  960MOL0     H32429   2.932   2.987   6.612  0.8169 -1.0510 -0.9017
  960MOL0     H32430   3.025   2.734   6.795  0.6006 -1.2584  0.8668
  960MOL0     H32431   3.029   2.699   6.617  3.3890  0.6250  1.1787
  960MOL0     H32432   3.023   2.494   6.766  1.5087  2.5161  1.3666
  960MOL0     H32433   2.874   2.542   6.831  2.9386 -1.1600  1.8669
  960MOL0     H32434   2.775   2.521   6.580  0.3780  2.5169  0.6551
  960MOL0     H32435   2.945   2.489   6.532  1.5053 -1.8553  1.0976
  960MOL0     H32436   2.788   2.282   6.556  0.2164 -2.6779 -0.3457
  960MOL0     H32437   2.955   2.290   6.609 -0.8411 -1.6975  1.6371
  960MOL0     H32438   2.783   2.235   6.980 -0.7261 -1.3573  0.1172
  960MOL0     H32439   2.492   2.102   7.161  1.1173 -3.4270 -0.2824
  960MOL0     H32440   2.613   2.246   7.190  1.2432 -0.5548 -0.8174
  960MOL0     H32441   2.660   2.083   7.154  0.6445  1.2662  0.9039
  960MOL0     H32442   2.282   2.071   7.268  1.1747  0.4716 -0.2542
  960MOL0     H32443   2.074   2.013   7.411 -3.8589  0.2728  1.0043
  960MOL0     H32444   1.848   1.954   7.434 -1.0391  0.2410  0.0789
  960MOL0     H32445   1.918   2.052   7.572 -1.5679 -1.0851  1.7609
  960MOL0     H32446   1.698   1.972   7.641 -1.9854  1.8953  1.1786
  960MOL0     H32447   1.685   2.151   7.585 -3.5519  0.1407 -2.3096
  960MOL0     H32448   1.630   1.922   7.399 -0.0436  0.0259  0.1920
  960MOL0     H32449   1.605   2.088   7.372 -2.3317  1.9066  0.2851
  960MOL0     H32450   1.413   2.100   7.512 -0.2496 -0.2547 -0.8872
  960MOL0     H32451   1.467   1.972   7.624  0.6341  1.2109  0.3178
  960MOL0     H32452   1.375   1.911   7.332 -1.9952 -0.1529 -0.4684
  960MOL0     H32453   1.418   1.809   7.465  1.6983  1.1204  0.1392
  960MOL0     H32454   1.173   1.999   7.479 -0.1976  0.6851  0.1281
  960MOL0     H32455   1.209   1.870   7.588 -2.1575 -1.7362 -0.7562
  960MOL0     H32456   1.054   1.756   7.432 -0.0692  1.0689  0.6509
  960MOL0     H32457   1.213   1.720   7.364  2.4604  1.4162 -3.0342
  960MOL0     H32458   1.064   1.780   7.203 -1.4352  1.4120  0.1221
  960MOL0     H32459   1.201   1.902   7.218 -0.8826  0.7258 -0.8203
  960MOL0     H32460   1.885   2.363   7.272 -0.0477 -1.0535  1.5958
  960MOL0     H32461   2.112   2.444   7.140 -2.1457 -0.6866 -0.5400
  960MOL0     H32462   2.361   2.310   6.735  0.7077  1.5002 -0.8594
  960MOL0     H32463   2.577   2.359   6.630  1.1457  2.0382  1.2932
  960MOL0     H32464   2.348   3.881   6.397  0.2192 -2.6761  0.0661
  960MOL0     H32465   2.116   3.871   6.394  2.3310 -0.0526 -1.3036
  960MOL0     H32466   1.685   4.157   6.550  0.6795 -0.1673  0.3488
  960MOL0     H32467   1.444   4.133   6.507 -0.0550 -0.0257 -1.1565
  960MOL0     H32468   1.203   3.746   6.437 -2.5560 -0.4701  1.8104
  960MOL0     H32469   1.295   3.735   6.605  1.1807  2.8310  2.6183
  960MOL0     H32470   1.082   3.939   6.554  0.1052 -1.2963 -2.2727
  960MOL0     H32471   1.168   3.910   6.704 -0.2064  0.7459 -1.0182
  960MOL0     H32472   0.973   3.714   6.566 -2.8053 -3.6482  3.4127
  960MOL0     H32473   1.076   3.680   6.694  2.1812 -0.2034 -2.4663
  960MOL0     H32474   0.941   3.805   6.853 -1.5754 -1.6620  0.1856
  960MOL0     H32475   0.831   3.738   6.738  1.2913 -1.4143 -0.2551
  960MOL0     H32476   0.777   4.153   6.672  0.6884 -0.0327 -3.1027
  960MOL0     H32477   1.494   3.712   6.474  0.2031  0.0975  1.0332
  960MOL0     H32478   1.822   3.715   6.423  1.0031 -0.8149  0.9003
  960MOL0     H32479   1.804   3.676   6.599  1.9490  2.7244 -0.6753
  960MOL0     H32480   1.700   3.604   6.472 -1.3000  1.0439 -1.8724
  961MOL0     O32481   2.022   3.977   3.265  0.0078 -0.8646  0.5415
  961MOL0     C32482   2.026   4.029   3.378 -0.1658  1.0778 -1.0373
  961MOL0     O32483   2.139   4.031   3.457  0.0716 -0.2953  0.2350
  961MOL0     C32484   2.265   3.998   3.401  0.5259  0.3231  0.5654
  961MOL0     C32485   2.309   4.025   3.266 -0.5819  0.2319  0.0295
  961MOL0     C32486   2.431   3.969   3.217  0.1822 -0.2686 -0.0328
  961MOL0     C32487   2.505   3.880   3.298 -0.1194  0.4691 -0.2846
  961MOL0     O32488   2.617   3.813   3.254 -0.3373 -0.4143  0.4562
  961MOL0     C32489   2.699   3.879   3.154 -0.1111 -0.7168  0.1796
  961MOL0     C32490   2.778   3.767   3.082 -0.9041 -0.6689  0.3214
  961MOL0     C32491   2.915   3.828   3.033  0.1174 -0.5704  0.8602
  961MOL0     C32492   2.975   3.750   2.906 -0.2939 -0.1949  0.0263
  961MOL0     C32493   2.981   3.596   2.931  0.0844 -0.4111 -0.4480
  961MOL0     C32494   3.055   3.531   2.819  0.4878 -0.3686  0.2475
  961MOL0     C32495   3.092   3.385   2.857  0.4914 -0.3369  0.3102
  961MOL0     C32496   3.136   3.315   2.733 -0.2309 -0.5036  0.0492
  961MOL0     N32497   3.263   3.360   2.675  0.2357 -0.3216  0.8079
  961MOL0     C32498   3.389   3.345   2.731 -0.4670 -0.3045  0.4365
  961MOL0     C32499   3.472   3.348   2.619 -0.4845 -0.6020 -0.3376
  961MOL0     C32500   3.616   3.340   2.611 -0.3428 -0.0733  0.0825
  961MOL0     C32501   3.700   3.464   2.563  1.4997  0.0081 -0.1439
  961MOL0     C32502   3.850   3.435   2.555 -0.2850  0.5213  0.9767
  961MOL0     C32503   3.930   3.563   2.528  0.1820  0.6767 -0.7544
  961MOL0     O32504   4.068   3.527   2.514 -0.1642  0.2063 -0.5746
  961MOL0     C32505   4.152   3.561   2.616 -0.7746  0.6161 -0.3307
  961MOL0     C32506   4.113   3.553   2.745  0.6001 -0.0135  0.5123
  961MOL0     C32507   4.190   3.596   2.849  0.5293 -0.1227  0.7308
  961MOL0     C32508   4.114   3.598   2.985 -0.6395 -0.7158 -0.2924
  961MOL0     C32509   4.315   3.641   2.824  0.2374 -0.3877  0.0626
  961MOL0     C32510   4.409   3.690   2.921  0.3778 -1.4549  0.6784
  961MOL0     O32511   4.507   3.768   2.875  0.1780  1.0724  0.0091
  961MOL0     C32512   4.590   3.836   2.961  0.2723 -1.1183 -0.6809
  961MOL0     C32513   4.672   3.769   3.056  0.2091 -0.4884  0.0218
  961MOL0     C32514   4.749   3.843   3.140 -1.3408 -0.9847  0.3125
  961MOL0     C32515   4.753   3.987   3.135  0.3010 -0.4784  0.9681
  961MOL0     O32516   4.829   4.070   3.209 -0.1334  0.1323 -0.4855
  961MOL0     C32517   4.834   4.029   3.341 -0.8656 -0.9667  0.8822
  961MOL0     C32518   4.862   4.141   3.438 -0.0469  0.6883  1.3815
  961MOL0     C32519   4.990   4.219   3.429  0.2956  0.2275  0.1880
  961MOL0     C32520   5.106   4.139   3.485  0.4979 -1.1265 -0.0154
  961MOL0     C32521   5.237   4.215   3.440 -0.6534 -0.2975 -0.4415
  961MOL0     C32522   5.251   4.356   3.505 -0.5133 -0.1881  0.9032
  961MOL0     C32523   5.260   4.363   3.659  0.2945  0.7351 -0.4316
  961MOL0     C32524   5.272   4.508   3.703 -0.4512  1.2069 -0.1844
  961MOL0    Cl32525   5.446   4.544   3.723 -0.0593  0.0590 -0.1791
  961MOL0     C32526   4.670   4.053   3.043  0.5429  0.4012  0.1427
  961MOL0     C32527   4.592   3.983   2.951 -0.1087 -0.2101 -0.1990
  961MOL0     O32528   4.376   3.681   3.039 -0.9840 -0.4663  0.2063
  961MOL0     C32529   4.360   3.641   2.694 -0.7548 -0.5211  0.2269
  961MOL0     C32530   4.286   3.601   2.583 -0.5147 -0.1826 -0.5754
  961MOL0     N32531   3.397   3.365   2.505 -0.4041 -0.5912 -0.5067
  961MOL0     N32532   3.274   3.370   2.538  0.5368  0.5253 -0.2721
  961MOL0     C32533   2.460   3.855   3.430 -0.7997 -0.5619 -0.1925
  961MOL0     C32534   2.349   3.922   3.483 -0.5031 -0.2127 -0.6372
  961MOL0     C32535   1.899   4.091   3.430  0.3058 -0.6053  0.0260
  961MOL0     C32536   1.793   4.104   3.337  0.2710 -0.3631 -0.0908
  961MOL0     C32537   1.667   4.167   3.371 -0.3661  0.0140 -0.1871
  961MOL0     C32538   1.645   4.214   3.500  0.3252  0.0454  0.4821
  961MOL0     O32539   1.515   4.262   3.518 -0.1392  0.2537 -0.4898
  961MOL0     C32540   1.481   4.307   3.650  0.5245  0.2940 -1.0693
  961MOL0     C32541   1.355   4.390   3.641  0.3141 -0.4829  0.1090
  961MOL0     C32542   1.233   4.312   3.588 -1.1580  0.2931 -0.8729
  961MOL0     C32543   1.116   4.416   3.583  1.2316 -0.0815 -0.2658
  961MOL0     C32544   0.994   4.345   3.541  0.1470  0.0805  0.7840
  961MOL0     C32545   0.895   4.277   3.513 -0.1139  0.3577  0.8918
  961MOL0     C32546   1.755   4.206   3.590  0.1014 -0.3969 -0.0030
  961MOL0     C32547   1.879   4.141   3.561  0.5633 -0.1298 -1.0932
  961MOL0     C32548   1.977   4.133   3.673  0.1588 -0.3458 -0.2274
  961MOL0     H32549   2.256   4.089   3.196  2.2945  0.2412 -2.3059
  961MOL0     H32550   2.470   4.013   3.126 -0.1695  1.7990  0.7702
  961MOL0     H32551   2.763   3.955   3.200 -1.4141  0.1081  0.6904
  961MOL0     H32552   2.637   3.928   3.079 -0.7390 -0.5838  0.7698
  961MOL0     H32553   2.809   3.690   3.154  0.7079 -1.4782 -1.1618
  961MOL0     H32554   2.718   3.724   3.002  0.6534 -1.5140 -0.4486
  961MOL0     H32555   2.913   3.927   2.987  0.3129 -2.0093 -2.5928
  961MOL0     H32556   2.983   3.815   3.118  0.1349 -0.0412  0.9314
  961MOL0     H32557   2.903   3.765   2.826  0.4845 -0.3475 -0.7132
  961MOL0     H32558   3.076   3.788   2.885  1.7476 -2.3290  4.4258
  961MOL0     H32559   2.877   3.563   2.935 -0.1399  0.4296  2.4956
  961MOL0     H32560   3.041   3.577   3.020  4.5149  0.9431 -2.8059
  961MOL0     H32561   3.006   3.530   2.721  0.2273  0.6904  0.3556
  961MOL0     H32562   3.141   3.595   2.800  1.7830 -1.1262  2.9712
  961MOL0     H32563   3.010   3.329   2.905  2.4490 -3.4016  0.3909
  961MOL0     H32564   3.173   3.386   2.931 -1.0833  1.4591  2.1652
  961MOL0     H32565   3.158   3.210   2.758 -1.1956 -0.4572  1.1721
  961MOL0     H32566   3.045   3.307   2.673 -1.2605  1.4480  1.2599
  961MOL0     H32567   3.423   3.359   2.833 -0.9162  3.6540  0.2067
  961MOL0     H32568   3.633   3.269   2.529  3.0516  0.9979 -0.3298
  961MOL0     H32569   3.658   3.300   2.705 -0.9578 -1.3776 -0.1789
  961MOL0     H32570   3.669   3.481   2.459  1.5235  0.8958 -0.0170
  961MOL0     H32571   3.680   3.547   2.632 -0.3963  0.5120 -1.2419
  961MOL0     H32572   3.877   3.381   2.646 -0.0731 -4.5443 -1.7490
  961MOL0     H32573   3.876   3.363   2.478 -2.7121 -0.3757  0.9202
  961MOL0     H32574   3.896   3.597   2.430 -0.3732  4.7856  0.6750
  961MOL0     H32575   3.908   3.642   2.600 -0.3934 -0.3104  0.1826
  961MOL0     H32576   4.017   3.504   2.761  1.3841 -1.5813  0.5965
  961MOL0     H32577   4.148   3.518   3.051  0.1858  0.2225  0.4508
  961MOL0     H32578   4.005   3.593   2.973 -0.5390 -0.7556 -1.2777
  961MOL0     H32579   4.140   3.693   3.032  0.4341 -0.7644 -0.7477
  961MOL0     H32580   4.679   3.661   3.058  0.2224 -0.4918 -0.1606
  961MOL0     H32581   4.827   3.785   3.189 -1.3474 -1.0124  0.2898
  961MOL0     H32582   4.745   3.976   3.374 -1.1186 -1.4245 -0.4590
  961MOL0     H32583   4.923   3.966   3.353  0.6521  1.0090  0.5972
  961MOL0     H32584   4.783   4.217   3.428 -0.7485  0.2235  2.9165
  961MOL0     H32585   4.861   4.100   3.540 -0.9462 -1.2097  0.6501
  961MOL0     H32586   4.978   4.313   3.483  1.3782  2.6596 -3.4223
  961MOL0     H32587   5.011   4.254   3.327 -0.9088 -1.3575 -0.6553
  961MOL0     H32588   5.107   4.037   3.445 -2.0608 -1.1597 -0.1246
  961MOL0     H32589   5.106   4.138   3.594  1.3559 -0.0605  0.0139
  961MOL0     H32590   5.320   4.158   3.482 -2.1702 -2.3700 -0.1019
  961MOL0     H32591   5.235   4.219   3.331 -1.7839 -1.3277 -0.4744
  961MOL0     H32592   5.170   4.413   3.458  2.2492  0.2857 -3.8814
  961MOL0     H32593   5.345   4.403   3.473 -0.3253 -1.0806  0.1095
  961MOL0     H32594   5.338   4.300   3.702 -1.0564 -2.3632 -2.1824
  961MOL0     H32595   5.167   4.331   3.707 -0.7000  1.1564 -1.9980
  961MOL0     H32596   5.216   4.523   3.796  0.5373  1.6995  0.3535
  961MOL0     H32597   5.225   4.568   3.624 -0.2831  0.0293 -1.2106
  961MOL0     H32598   4.661   4.160   3.034 -1.5694  0.4359  1.8262
  961MOL0     H32599   4.527   4.027   2.876  1.3259 -0.4175 -1.6251
  961MOL0     H32600   4.459   3.677   2.667 -0.6599 -1.4908 -0.7787
  961MOL0     H32601   4.342   3.611   2.491  0.7709 -0.5145  0.1447
  961MOL0     H32602   2.505   3.778   3.492 -2.5981 -0.8013  0.9125
  961MOL0     H32603   2.317   3.886   3.581 -2.5159 -5.2875 -2.8001
  961MOL0     H32604   1.817   4.058   3.241  2.7483 -1.6053  1.0531
  961MOL0     H32605   1.584   4.170   3.301 -0.7313 -0.4253  0.2228
  961MOL0     H32606   1.460   4.217   3.708  0.1949  1.2815  0.3882
  961MOL0     H32607   1.560   4.375   3.684 -0.0675  0.5677 -0.2089
  961MOL0     H32608   1.370   4.466   3.565 -2.7854 -0.0008 -0.1505
  961MOL0     H32609   1.330   4.436   3.737 -2.4481 -1.5468  0.0037
  961MOL0     H32610   1.257   4.270   3.489  2.3193  0.5456 -0.2717
  961MOL0     H32611   1.207   4.229   3.654 -2.6504  0.4721 -1.2073
  961MOL0     H32612   1.145   4.501   3.521 -3.6487  2.9496  1.0471
  961MOL0     H32613   1.094   4.454   3.683  1.6689  1.4195 -0.7179
  961MOL0     H32614   0.809   4.226   3.476  0.7654 -1.4327  1.2022
  961MOL0     H32615   1.744   4.249   3.689 -1.4739  1.4331 -0.9251
  961MOL0     H32616   2.009   4.030   3.691  0.5464  0.2347  3.0303
  961MOL0     H32617   2.072   4.186   3.657  1.0611 -0.7691  3.1232
  961MOL0     H32618   1.934   4.176   3.763  0.6332 -1.0634  0.3512
  962MOL0     O32619   4.907   6.426   5.643  0.6177 -0.0057  0.4739
  962MOL0     C32620   4.922   6.411   5.766 -0.0257 -0.1457 -0.1064
  962MOL0     O32621   4.824   6.409   5.854 -0.0259  0.0304  0.1924
  962MOL0     C32622   4.698   6.441   5.820 -0.3899 -0.3755 -1.5105
  962MOL0     C32623   4.647   6.568   5.822  0.5714 -0.0239 -0.2803
  962MOL0     C32624   4.515   6.598   5.803  0.2510  0.5763  0.2306
  962MOL0     C32625   4.415   6.491   5.780 -0.0652 -1.3086  0.8675
  962MOL0     O32626   4.277   6.515   5.765  0.1186 -0.0373 -0.4145
  962MOL0     C32627   4.202   6.415   5.696 -0.5481 -0.0492 -0.4882
  962MOL0     C32628   4.057   6.455   5.697  0.2084 -0.5528 -0.3923
  962MOL0     C32629   3.999   6.444   5.840  0.1910 -0.1927 -0.0740
  962MOL0     C32630   3.849   6.470   5.834  0.4241  0.0082  0.3995
  962MOL0     C32631   3.809   6.454   5.983  0.0415  0.2130 -0.3547
  962MOL0     C32632   3.668   6.482   6.007 -0.1846  0.1718 -0.9123
  962MOL0     C32633   3.632   6.638   5.999 -0.4103  0.9217 -0.1180
  962MOL0     C32634   3.500   6.675   6.074 -0.1221  0.0241  0.5499
  962MOL0     N32635   3.386   6.597   6.024  0.1197 -0.2955 -0.0387
  962MOL0     C32636   3.333   6.489   6.090  0.2745  0.1995 -1.5356
  962MOL0     C32637   3.202   6.483   6.037 -0.0918 -0.6503  0.3030
  962MOL0     C32638   3.094   6.390   6.080  0.2008  0.2340  0.0798
  962MOL0     C32639   3.096   6.258   5.995 -0.6395 -0.4909  0.9504
  962MOL0     C32640   3.142   6.131   6.060 -0.0187 -0.2307 -0.0678
  962MOL0     C32641   3.286   6.128   6.046 -0.1269  0.2643  0.6255
  962MOL0     O32642   3.331   6.144   5.906 -0.2213  0.1278  0.2107
  962MOL0     C32643   3.464   6.124   5.880 -0.3421  0.2377  0.6084
  962MOL0     C32644   3.512   6.110   5.749  0.2342 -0.1379 -0.1813
  962MOL0     C32645   3.648   6.098   5.718 -0.2097  0.5769 -0.1787
  962MOL0     C32646   3.681   6.089   5.568 -0.0885  0.0766 -0.1941
  962MOL0     C32647   3.741   6.075   5.819 -0.2546 -0.0645 -1.0445
  962MOL0     C32648   3.885   6.049   5.808  0.4856  0.3866  0.1020
  962MOL0     O32649   3.948   5.984   5.915  0.5434 -0.2255  0.1512
  962MOL0     C32650   4.082   5.969   5.950 -0.7930 -0.0724  0.7206
  962MOL0     C32651   4.199   6.033   5.883  1.0674 -0.3368 -0.0020
  962MOL0     C32652   4.330   6.013   5.919 -0.6338  0.0350 -0.0802
  962MOL0     C32653   4.358   5.930   6.035  0.8495 -0.3164 -0.0043
  962MOL0     O32654   4.483   5.879   6.056 -0.0794 -0.6242 -0.0346
  962MOL0     C32655   4.559   5.952   6.152  0.5300  0.1556 -0.7996
  962MOL0     C32656   4.702   5.913   6.166 -0.0033 -0.3675  0.7857
  962MOL0     C32657   4.769   5.906   6.025  1.4487 -0.1595  0.4703
  962MOL0     C32658   4.909   5.843   6.013 -0.2286 -0.0403  0.4279
  962MOL0     C32659   4.956   5.861   5.860 -0.8034 -0.5382 -0.2846
  962MOL0     C32660   5.092   5.781   5.825  0.9966  0.8207  0.2237
  962MOL0     C32661   5.166   5.830   5.694  0.6030  0.2320 -0.0305
  962MOL0     C32662   5.241   5.709   5.628 -0.3691  0.0347 -0.2917
  962MOL0    Cl32663   5.400   5.700   5.690 -0.2721  0.3027  0.0856
  962MOL0     C32664   4.245   5.890   6.115  0.1643 -1.0390 -0.4153
  962MOL0     C32665   4.111   5.903   6.072  0.3846 -0.9129 -0.1510
  962MOL0     O32666   3.948   6.081   5.709 -0.2474  0.1099  0.4159
  962MOL0     C32667   3.696   6.099   5.950 -0.8075  0.2042 -0.3363
  962MOL0     C32668   3.561   6.116   5.978  0.2732  0.9731  0.7021
  962MOL0     N32669   3.190   6.583   5.938  0.0124  0.5955 -0.3404
  962MOL0     N32670   3.298   6.653   5.936 -0.1159  0.5633  0.3646
  962MOL0     C32671   4.462   6.356   5.784 -0.9305 -0.3887  0.8949
  962MOL0     C32672   4.606   6.337   5.808 -0.5318  0.5460  0.3469
  962MOL0     C32673   5.046   6.341   5.815  0.1837  0.1343  0.5441
  962MOL0     C32674   5.026   6.249   5.924  0.3049  0.2591  0.9030
  962MOL0     C32675   5.131   6.164   5.969  0.0812  0.1490 -0.0981
  962MOL0     C32676   5.255   6.183   5.902  0.2569  0.2927 -0.2401
  962MOL0     O32677   5.367   6.106   5.932  0.2121 -0.3016 -1.2400
  962MOL0     C32678   5.363   6.004   6.034 -0.3806  0.1437  0.0949
  962MOL0     C32679   5.467   5.897   5.994  0.3315  0.2098  0.0414
  962MOL0     C32680   5.614   5.954   5.957 -0.5351 -1.5812 -0.1441
  962MOL0     C32681   5.663   6.065   6.064 -0.0599  0.5015  0.2321
  962MOL0     C32682   5.793   6.115   6.028  0.2350 -0.2179  0.3681
  962MOL0     C32683   5.892   6.165   5.982  0.8675  0.0600 -0.6337
  962MOL0     C32684   5.269   6.255   5.788 -0.5293  0.0500  0.2750
  962MOL0     C32685   5.170   6.338   5.743 -0.2386 -0.6560  0.2068
  962MOL0     C32686   5.190   6.421   5.614 -0.5654 -0.3252 -0.7238
  962MOL0     H32687   4.723   6.640   5.851  1.0948 -1.2003  1.4440
  962MOL0     H32688   4.487   6.703   5.800 -1.0551  0.3069  1.7562
  962MOL0     H32689   4.217   6.319   5.746 -1.4178  0.5084  0.8976
  962MOL0     H32690   4.224   6.406   5.589 -2.5642 -0.1121 -0.9215
  962MOL0     H32691   4.041   6.557   5.661 -1.5672  0.1751  2.1535
  962MOL0     H32692   3.995   6.389   5.637 -2.3829  0.4049  1.0716
  962MOL0     H32693   4.024   6.346   5.884  3.9768  1.3831  1.7827
  962MOL0     H32694   4.049   6.520   5.901 -0.4198  0.5322 -0.4715
  962MOL0     H32695   3.841   6.569   5.788  0.8786  0.8582  2.0767
  962MOL0     H32696   3.796   6.397   5.771  0.6730  0.2480 -0.0975
  962MOL0     H32697   3.871   6.518   6.047  0.6462 -0.3045 -0.4066
  962MOL0     H32698   3.832   6.350   6.004 -0.2347  0.0776 -0.7062
  962MOL0     H32699   3.608   6.426   5.935 -0.7990 -0.1589 -0.1551
  962MOL0     H32700   3.645   6.444   6.107 -0.6972  0.5540 -0.8770
  962MOL0     H32701   3.614   6.674   5.897 -3.2077 -2.0233 -0.8082
  962MOL0     H32702   3.716   6.690   6.047  1.1656 -1.9658  0.5062
  962MOL0     H32703   3.507   6.666   6.183  1.0304  2.2781  0.7102
  962MOL0     H32704   3.484   6.779   6.047  0.9690 -0.0824 -0.5786
  962MOL0     H32705   3.395   6.431   6.157 -1.6797 -0.6609 -0.3782
  962MOL0     H32706   3.002   6.440   6.049  0.2221 -0.6588 -1.5633
  962MOL0     H32707   3.091   6.386   6.189  1.1656  0.6989  0.1397
  962MOL0     H32708   2.991   6.252   5.962 -0.4747  0.4135  0.1959
  962MOL0     H32709   3.149   6.274   5.900  1.4396 -1.2186  1.9259
  962MOL0     H32710   3.117   6.124   6.166 -3.6984 -1.4200 -0.8740
  962MOL0     H32711   3.104   6.043   6.008  0.9433  0.4329 -2.0142
  962MOL0     H32712   3.343   6.195   6.110  1.2768 -0.1571 -0.1535
  962MOL0     H32713   3.310   6.030   6.087 -1.4956  1.1506  3.8892
  962MOL0     H32714   3.444   6.110   5.665 -1.4014 -0.9126  1.0823
  962MOL0     H32715   3.590   6.085   5.507 -0.5525  0.9873  0.4240
  962MOL0     H32716   3.735   5.995   5.558  1.9737  1.4146 -3.0387
  962MOL0     H32717   3.738   6.170   5.523 -2.6371  0.9594 -2.0754
  962MOL0     H32718   4.193   6.075   5.783  1.9778 -0.6032 -0.1790
  962MOL0     H32719   4.413   6.041   5.856  0.9893 -3.2530  0.3413
  962MOL0     H32720   4.542   6.060   6.147  0.8566  0.1803 -1.3641
  962MOL0     H32721   4.520   5.922   6.250  0.1115 -2.1625 -1.6052
  962MOL0     H32722   4.765   5.977   6.228  0.7071 -0.8668  0.5918
  962MOL0     H32723   4.706   5.819   6.222 -1.0942 -1.1146 -0.3383
  962MOL0     H32724   4.761   6.003   5.976  3.0693  0.5655  1.5780
  962MOL0     H32725   4.709   5.838   5.963  1.5058  0.3001 -0.0966
  962MOL0     H32726   4.915   5.735   6.025  1.5135 -0.4501 -2.9408
  962MOL0     H32727   4.977   5.902   6.075  0.2460 -1.7239  1.5800
  962MOL0     H32728   4.882   5.836   5.783  0.8779 -0.6057 -1.9444
  962MOL0     H32729   4.965   5.969   5.844  0.6157 -0.7574 -1.1660
  962MOL0     H32730   5.072   5.674   5.836  0.1636  0.6820 -2.2123
  962MOL0     H32731   5.163   5.796   5.908 -0.3702  1.4334  1.3366
  962MOL0     H32732   5.231   5.916   5.712  3.2709 -1.6722 -0.0345
  962MOL0     H32733   5.093   5.871   5.623  0.0625  0.1840  0.4818
  962MOL0     H32734   5.244   5.716   5.518 -2.0592 -2.5378 -0.5802
  962MOL0     H32735   5.197   5.611   5.645  2.0180 -1.1984 -0.8089
  962MOL0     H32736   4.267   5.856   6.216  0.7021  0.7398  0.1073
  962MOL0     H32737   4.025   5.866   6.126 -1.3848 -0.6309 -2.5811
  962MOL0     H32738   3.768   6.096   6.030 -0.8728  0.1601 -0.2788
  962MOL0     H32739   3.529   6.131   6.081 -2.9046 -2.0148  0.3463
  962MOL0     H32740   4.399   6.268   5.784  1.5681 -2.3117  2.7251
  962MOL0     H32741   4.641   6.238   5.837 -1.4173  0.5375  1.4380
  962MOL0     H32742   4.929   6.247   5.972 -0.9092  1.6082 -1.3319
  962MOL0     H32743   5.124   6.100   6.056  2.2963  1.5669  1.2298
  962MOL0     H32744   5.383   6.043   6.134 -1.2779 -1.8760  1.1160
  962MOL0     H32745   5.265   5.956   6.024 -0.4951 -0.0305  1.8354
  962MOL0     H32746   5.424   5.843   5.909 -0.4569 -0.9042  1.1147
  962MOL0     H32747   5.469   5.824   6.076  0.2674 -0.4828 -0.5580
  962MOL0     H32748   5.667   5.859   5.965 -0.6697 -1.7981 -1.5009
  962MOL0     H32749   5.611   5.992   5.854 -2.3958  0.4896  0.5940
  962MOL0     H32750   5.662   6.012   6.160 -1.8891 -1.6471 -0.8802
  962MOL0     H32751   5.589   6.145   6.065 -1.0116 -0.2706 -2.2039
  962MOL0     H32752   5.975   6.202   5.926  1.1635 -0.7232 -0.7294
  962MOL0     H32753   5.365   6.251   5.739 -0.3340  1.3403  0.5029
  962MOL0     H32754   5.162   6.526   5.622  1.3320  0.3531 -2.2710
  962MOL0     H32755   5.294   6.428   5.582  0.1002  0.6826  1.5067
  962MOL0     H32756   5.141   6.380   5.525  1.5710 -1.5893 -1.3773
  963MOL0     O32757   7.305   3.991   4.909  0.0417 -0.4727 -0.4144
  963MOL0     C32758   7.263   4.071   4.823  0.7922  0.2829 -0.0998
  963MOL0     O32759   7.311   4.198   4.814  0.6509  0.1899  1.7101
  963MOL0     C32760   7.396   4.258   4.904  0.0579  0.5007  0.5687
  963MOL0     C32761   7.360   4.388   4.944  0.5915  0.3736  0.5029
  963MOL0     C32762   7.443   4.457   5.029 -0.6904 -0.4150  0.7181
  963MOL0     C32763   7.560   4.397   5.077 -0.1204  0.6444 -0.0778
  963MOL0     O32764   7.658   4.457   5.158  0.6311  0.0602 -0.4630
  963MOL0     C32765   7.638   4.584   5.216 -0.1530 -0.3908 -0.0232
  963MOL0     C32766   7.729   4.616   5.335  0.3291  0.8693 -0.5136
  963MOL0     C32767   7.658   4.567   5.467 -0.8331  0.0905  0.0301
  963MOL0     C32768   7.751   4.583   5.588 -0.4288  0.1761 -0.0102
  963MOL0     C32769   7.680   4.556   5.722 -0.5908  0.4794  0.6370
  963MOL0     C32770   7.634   4.410   5.734  0.0351 -0.2063  0.2448
  963MOL0     C32771   7.634   4.370   5.877  0.5472  0.6002  0.0918
  963MOL0     C32772   7.605   4.222   5.891  0.1977  0.1439  0.0221
  963MOL0     N32773   7.621   4.174   6.026  0.7546 -0.1493  0.1238
  963MOL0     C32774   7.735   4.118   6.077 -1.3870  0.0426  0.6496
  963MOL0     C32775   7.734   4.133   6.211  0.4166 -0.2394  0.4153
  963MOL0     C32776   7.840   4.082   6.294  0.0217  0.5319  0.4418
  963MOL0     C32777   7.967   4.170   6.275  0.3304  0.4377  0.7799
  963MOL0     C32778   8.081   4.093   6.341 -0.1253  0.5135  0.2183
  963MOL0     C32779   8.212   4.176   6.329 -0.7235  0.8307  0.6654
  963MOL0     O32780   8.203   4.301   6.400 -0.4644  0.3188 -0.6694
  963MOL0     C32781   8.318   4.365   6.436  0.1061  0.2996  0.4549
  963MOL0     C32782   8.322   4.427   6.557 -0.3620 -0.5399  0.9764
  963MOL0     C32783   8.433   4.509   6.598 -0.1625  0.1451 -0.6391
  963MOL0     C32784   8.426   4.569   6.738 -0.8290  0.4410  0.7212
  963MOL0     C32785   8.545   4.523   6.510  0.5008 -0.5825 -0.5798
  963MOL0     C32786   8.665   4.598   6.564 -0.5220  0.0084 -0.1085
  963MOL0     O32787   8.724   4.674   6.470 -0.2020  0.0435  0.4178
  963MOL0     C32788   8.860   4.711   6.473 -0.0392  1.1029 -0.2525
  963MOL0     C32789   8.952   4.636   6.541 -1.5119 -0.3344  0.9592
  963MOL0     C32790   9.091   4.662   6.518 -0.1568  0.4055 -0.5914
  963MOL0     C32791   9.127   4.772   6.441 -0.5980  0.1399  0.1444
  963MOL0     O32792   9.253   4.817   6.427 -0.3649  0.2743 -0.3725
  963MOL0     C32793   9.282   4.792   6.285  0.0436 -0.0208  0.3086
  963MOL0     C32794   9.378   4.898   6.244 -0.2415 -0.0156 -0.6900
  963MOL0     C32795   9.456   4.863   6.117  0.3980 -0.1456  0.2288
  963MOL0     C32796   9.577   4.958   6.094 -1.3903  1.4541 -0.0635
  963MOL0     C32797   9.683   4.891   5.993  0.0497  0.4153  0.0291
  963MOL0     C32798   9.820   4.968   5.981  0.1158  0.3838  0.3925
  963MOL0     C32799   9.819   5.105   5.904  0.1201  0.2493 -0.0674
  963MOL0     C32800   9.949   5.168   5.909  0.5878  0.4057  0.6801
  963MOL0    Cl32801   9.992   5.211   6.080  0.3887  0.3689  0.1007
  963MOL0     C32802   9.027   4.859   6.394 -0.7600 -0.3654  0.4065
  963MOL0     C32803   8.897   4.826   6.407 -0.1596 -1.0659 -0.8595
  963MOL0     O32804   8.701   4.574   6.682  0.0584 -0.0665 -0.3580
  963MOL0     C32805   8.538   4.455   6.390  0.7607  0.3873  0.3752
  963MOL0     C32806   8.422   4.384   6.347 -0.4924 -0.3476 -0.0167
  963MOL0     N32807   7.602   4.179   6.230  0.4715  0.3819 -0.1648
  963MOL0     N32808   7.538   4.201   6.130 -0.0606 -0.1702 -0.0500
  963MOL0     C32809   7.587   4.263   5.041 -0.1378 -0.2450  0.3433
  963MOL0     C32810   7.503   4.191   4.964 -0.0925 -0.6930  0.2337
  963MOL0     C32811   7.154   4.028   4.725 -0.1326  0.1420 -0.0889
  963MOL0     C32812   7.123   4.115   4.621  0.7667 -0.1274  0.2164
  963MOL0     C32813   7.015   4.091   4.533 -0.0268  0.3782  0.0530
  963MOL0     C32814   6.927   3.989   4.552 -0.1534  0.4599 -0.0502
  963MOL0     O32815   6.818   3.979   4.463  0.8335  0.1003  0.3690
  963MOL0     C32816   6.834   3.874   4.363  0.2668  0.4687 -0.1639
  963MOL0     C32817   6.718   3.855   4.270 -0.3639 -0.4737  0.7883
  963MOL0     C32818   6.603   3.781   4.341 -1.0097 -0.5632  1.1162
  963MOL0     C32819   6.473   3.807   4.249  0.4046  1.0277 -0.4507
  963MOL0     C32820   6.465   3.726   4.125  0.5354  0.2466  0.5660
  963MOL0     C32821   6.453   3.659   4.024  0.6052  0.5543 -0.2707
  963MOL0     C32822   6.967   3.889   4.643 -0.8583 -0.2495 -0.8801
  963MOL0     C32823   7.078   3.912   4.729 -0.3489  0.7626 -0.5000
  963MOL0     C32824   7.112   3.795   4.822 -0.4716  0.1388  0.2728
  963MOL0     H32825   7.273   4.439   4.902 -1.7383 -1.5460  2.6840
  963MOL0     H32826   7.438   4.564   5.052  0.0317 -0.8346  3.1379
  963MOL0     H32827   7.534   4.599   5.249 -0.1985 -0.2665 -0.2238
  963MOL0     H32828   7.645   4.661   5.139  2.0291 -0.2790  0.2281
  963MOL0     H32829   7.822   4.561   5.315  0.1387  0.1078  0.6196
  963MOL0     H32830   7.750   4.723   5.328  0.6169  0.8505  0.0359
  963MOL0     H32831   7.567   4.624   5.487  0.5673  2.1426  0.8989
  963MOL0     H32832   7.627   4.462   5.463 -1.0121  0.1481 -0.1077
  963MOL0     H32833   7.841   4.521   5.578 -1.1770 -1.0746  0.7383
  963MOL0     H32834   7.791   4.685   5.592 -1.7664  0.7361 -0.2374
  963MOL0     H32835   7.588   4.615   5.723 -1.5967 -0.9514 -1.2596
  963MOL0     H32836   7.745   4.586   5.805 -2.7985  1.6664  2.0406
  963MOL0     H32837   7.530   4.399   5.703 -0.8546  1.8005  2.2684
  963MOL0     H32838   7.697   4.350   5.667 -1.3292 -0.9104 -0.4346
  963MOL0     H32839   7.550   4.432   5.911 -1.3391 -0.6264 -2.0116
  963MOL0     H32840   7.724   4.395   5.934  2.2497 -0.2282 -2.0946
  963MOL0     H32841   7.504   4.190   5.865 -0.5452  2.0059  0.4746
  963MOL0     H32842   7.676   4.164   5.831 -3.1421 -2.8686 -1.3464
  963MOL0     H32843   7.819   4.086   6.016 -2.4408 -1.6509 -0.0027
  963MOL0     H32844   7.853   3.978   6.264  2.5342  0.0339  2.8408
  963MOL0     H32845   7.803   4.072   6.397  0.5978  0.7337  0.6742
  963MOL0     H32846   7.990   4.189   6.170 -0.5058  1.2314  0.7248
  963MOL0     H32847   7.955   4.262   6.334  1.8181  0.3170  1.2976
  963MOL0     H32848   8.059   4.069   6.445 -1.1555 -1.0294 -0.3197
  963MOL0     H32849   8.091   3.996   6.290  0.8057  0.9189 -0.4051
  963MOL0     H32850   8.294   4.116   6.369 -1.2844  0.8210  1.8324
  963MOL0     H32851   8.218   4.190   6.221  0.0878  2.9357  0.9450
  963MOL0     H32852   8.243   4.408   6.629 -1.9624 -5.1065 -1.6018
  963MOL0     H32853   8.330   4.556   6.789 -2.0533 -0.6903 -1.7222
  963MOL0     H32854   8.454   4.674   6.730  2.6855 -0.4227 -0.2991
  963MOL0     H32855   8.499   4.527   6.808 -0.4492 -0.2984 -0.0941
  963MOL0     H32856   8.924   4.548   6.597 -2.5022 -1.1047 -0.6750
  963MOL0     H32857   9.167   4.598   6.561 -1.7138 -2.7895 -2.2335
  963MOL0     H32858   9.332   4.697   6.265  0.4423  0.3508 -0.4788
  963MOL0     H32859   9.200   4.789   6.212  1.4319  5.0053 -1.9311
  963MOL0     H32860   9.333   4.997   6.237  2.3661  1.2679 -0.5983
  963MOL0     H32861   9.452   4.899   6.325 -0.7319 -1.5731 -0.1746
  963MOL0     H32862   9.381   4.874   6.039 -0.8161  1.2038  1.5409
  963MOL0     H32863   9.483   4.757   6.125 -1.2406 -0.6687 -0.7468
  963MOL0     H32864   9.628   4.989   6.186  0.7019  0.6393 -0.8608
  963MOL0     H32865   9.524   5.046   6.058 -2.3408  1.6232  1.6523
  963MOL0     H32866   9.715   4.789   6.019 -0.8283  0.0743 -0.1903
  963MOL0     H32867   9.628   4.882   5.899  1.1378 -0.1280 -0.5758
  963MOL0     H32868   9.895   4.898   5.944  0.7098 -0.6840  3.3860
  963MOL0     H32869   9.858   4.996   6.079  2.7130 -2.5940  0.3781
  963MOL0     H32870   9.749   5.177   5.947  1.2627  0.4843  1.4602
  963MOL0     H32871   9.796   5.084   5.799 -3.4116  1.9376  0.2145
  963MOL0     H32872   9.946   5.261   5.851 -2.5038  0.4546  0.7579
  963MOL0     H32873  10.025   5.101   5.869 -0.0776  0.8125 -1.3978
  963MOL0     H32874   9.043   4.947   6.333  0.0322 -1.5133 -1.1189
  963MOL0     H32875   8.835   4.883   6.338 -1.6275 -3.8576 -2.0254
  963MOL0     H32876   8.625   4.445   6.325 -1.2169  0.3425 -2.4713
  963MOL0     H32877   8.421   4.329   6.254  0.0667 -2.3837  1.1280
  963MOL0     H32878   7.680   4.221   5.079  0.2084  1.2148  1.1785
  963MOL0     H32879   7.522   4.087   4.938 -2.5926 -1.3075  0.5738
  963MOL0     H32880   7.181   4.206   4.610 -0.4181  0.4594 -1.7505
  963MOL0     H32881   6.985   4.165   4.459 -1.3462 -0.2729 -0.0976
  963MOL0     H32882   6.919   3.904   4.300  0.2230 -1.7363 -1.3824
  963MOL0     H32883   6.839   3.773   4.403 -2.0045 -0.5308 -2.1841
  963MOL0     H32884   6.747   3.789   4.187  2.3189 -1.5826  2.4405
  963MOL0     H32885   6.680   3.952   4.237  0.9895 -0.5344 -1.1224
  963MOL0     H32886   6.626   3.675   4.348  1.8210 -0.3500 -2.1859
  963MOL0     H32887   6.591   3.814   4.444  2.2274 -2.4631  2.2373
  963MOL0     H32888   6.467   3.913   4.223 -2.3063  1.3712  1.2471
  963MOL0     H32889   6.384   3.784   4.309 -3.7195  0.5667 -5.9636
  963MOL0     H32890   6.468   3.601   3.935 -0.9607  0.0983 -0.2612
  963MOL0     H32891   6.906   3.800   4.648  0.2678 -1.0226 -0.3786
  963MOL0     H32892   7.220   3.781   4.810 -0.1884  0.1876  2.4462
  963MOL0     H32893   7.074   3.834   4.916 -3.3111  0.9542 -1.1027
  963MOL0     H32894   7.057   3.702   4.803  0.3078 -0.8548  2.5608
  964MOL0     O32895   7.728  10.246  10.409 -0.5059  0.0697  0.5076
  964MOL0     C32896   7.665  10.345  10.384  0.7831 -0.5406  1.1372
  964MOL0     O32897   7.702  10.473  10.401  0.1849 -0.4227  0.2353
  964MOL0     C32898   7.822  10.503  10.452  0.0120  0.1830 -0.3368
  964MOL0     C32899   7.864  10.442  10.575 -0.4491 -0.6282  0.3519
  964MOL0     C32900   7.991  10.462  10.621 -0.9081 -0.6669 -0.1371
  964MOL0     C32901   8.090  10.537  10.553  1.2845 -0.0690  0.4280
  964MOL0     O32902   8.218  10.538  10.585  0.1577  0.1044 -0.4471
  964MOL0     C32903   8.261  10.540  10.723  0.1247  0.2243 -0.1487
  964MOL0     C32904   8.357  10.658  10.758  0.2841  0.6490  0.0487
  964MOL0     C32905   8.462  10.686  10.653 -0.3025 -0.2739 -0.2458
  964MOL0     C32906   8.577  10.590  10.666 -0.4872 -0.0002  0.2962
  964MOL0     C32907   8.698  10.651  10.598 -0.2357 -0.4642  0.4966
  964MOL0     C32908   8.828  10.576  10.644  0.1321 -0.2293 -0.1673
  964MOL0     C32909   8.867  10.592  10.789  0.1904  0.0098  0.0996
  964MOL0     C32910   8.839  10.468  10.883 -0.0621 -0.6803  0.2917
  964MOL0     N32911   8.957  10.383  10.876 -0.2414  0.3111 -0.2480
  964MOL0     C32912   8.993  10.308  10.767  0.3203 -0.6895  0.1690
  964MOL0     C32913   9.106  10.241  10.806 -0.9020 -0.0074  0.0013
  964MOL0     C32914   9.174  10.128  10.730  0.4465  0.0018 -1.0040
  964MOL0     C32915   9.322  10.087  10.773  0.0362  0.4042 -0.5797
  964MOL0     C32916   9.430  10.186  10.749  1.1029 -0.2133 -0.0325
  964MOL0     C32917   9.456  10.199  10.600 -0.4856 -0.0136  0.4187
  964MOL0     O32918   9.555  10.299  10.589  0.2761 -0.2090  0.1027
  964MOL0     C32919   9.607  10.322  10.462 -0.1781  0.4376 -0.0495
  964MOL0     C32920   9.695  10.428  10.446  0.4907  0.4761 -0.6754
  964MOL0     C32921   9.752  10.476  10.330  0.3506  0.0802  0.6094
  964MOL0     C32922   9.837  10.600  10.340  0.1908 -0.3543 -0.1560
  964MOL0     C32923   9.718  10.404  10.211 -0.6974  0.0190 -0.3468
  964MOL0     C32924   9.774  10.445  10.077 -0.7732 -0.1408  0.3063
  964MOL0     O32925   9.897  10.506  10.078  0.2730  0.0947 -0.4614
  964MOL0     C32926   9.983  10.534   9.972 -0.0185  0.3003 -0.0574
  964MOL0     C32927   9.993  10.478   9.848 -0.3755  0.1137 -0.2124
  964MOL0     C32928  10.078  10.529   9.749  0.2189  0.3340 -0.8635
  964MOL0     C32929  10.150  10.653   9.767  0.0419  0.9133 -0.4961
  964MOL0     O32930  10.221  10.703   9.661 -0.3304 -0.5582  0.0898
  964MOL0     C32931  10.309  10.812   9.689 -0.0101 -0.0586 -0.4159
  964MOL0     C32932  10.387  10.831   9.562  1.0084  0.2479  0.5346
  964MOL0     C32933  10.508  10.732   9.548 -0.4509 -0.1000 -0.7681
  964MOL0     C32934  10.564  10.732   9.403 -0.9901  0.5133  0.1613
  964MOL0     C32935  10.712  10.689   9.397  0.3774 -0.4849  0.1172
  964MOL0     C32936  10.798  10.731   9.288 -0.3598  0.4839 -0.2663
  964MOL0     C32937  10.933  10.667   9.287 -0.6852  0.3491 -0.4660
  964MOL0     C32938  11.011  10.744   9.183 -0.2940  0.9813 -0.1050
  964MOL0    Cl32939  11.188  10.700   9.183  0.1528  0.2075  0.4652
  964MOL0     C32940  10.140  10.710   9.896  0.4082 -0.5905  0.1119
  964MOL0     C32941  10.074  10.641   9.996 -0.4915 -0.2582  0.5546
  964MOL0     O32942   9.721  10.403   9.976  0.5730 -1.0585 -0.7790
  964MOL0     C32943   9.621  10.295  10.225  0.5394  0.5040 -0.0001
  964MOL0     C32944   9.555  10.265  10.344 -0.1813 -0.3585  0.0505
  964MOL0     N32945   9.140  10.283  10.933 -0.2974  0.2878  0.6058
  964MOL0     N32946   9.053  10.369  10.973 -0.2395  0.4183  0.2278
  964MOL0     C32947   8.050  10.601  10.434 -0.2625 -0.5836  0.5894
  964MOL0     C32948   7.918  10.577  10.381 -0.0645  0.7649  0.3280
  964MOL0     C32949   7.529  10.309  10.316 -0.2913  0.6148 -0.9418
  964MOL0     C32950   7.522  10.189  10.249 -0.2431 -0.2282  0.3576
  964MOL0     C32951   7.399  10.143  10.203 -0.8794 -1.1090  0.2435
  964MOL0     C32952   7.276  10.213  10.236  0.1841 -0.7412  0.4032
  964MOL0     O32953   7.168  10.137  10.207  0.6741 -0.2540  0.5822
  964MOL0     C32954   7.045  10.167  10.275  0.5768  0.4053  0.2714
  964MOL0     C32955   7.027  10.065  10.391  1.2130 -0.6562 -0.2909
  964MOL0     C32956   6.884  10.058  10.456  0.1024 -1.0202 -0.4224
  964MOL0     C32957   6.778  10.005  10.341 -0.0098 -0.1175 -0.6678
  964MOL0     C32958   6.656   9.970  10.418  0.9075 -0.7069  0.4259
  964MOL0     C32959   6.562   9.936  10.497  1.0367 -0.4060 -0.1660
  964MOL0     C32960   7.287  10.333  10.296  0.3962 -0.2480 -0.6602
  964MOL0     C32961   7.412  10.385  10.340  0.0856 -0.1030 -0.6092
  964MOL0     C32962   7.409  10.516  10.415 -0.1238 -0.1781 -0.0161
  964MOL0     H32963   7.789  10.387  10.630  0.0071  0.6931  2.3854
  964MOL0     H32964   8.028  10.402  10.703  1.4171  0.1743 -0.5115
  964MOL0     H32965   8.308  10.441  10.730  1.1848  0.7627  0.6177
  964MOL0     H32966   8.185  10.530  10.801 -1.1779 -1.9747 -1.5668
  964MOL0     H32967   8.305  10.752  10.775 -0.2263  0.0919  1.6880
  964MOL0     H32968   8.403  10.634  10.854 -2.7232 -1.1425  1.1558
  964MOL0     H32969   8.426  10.694  10.550 -3.7923 -2.0900  0.7055
  964MOL0     H32970   8.494  10.788  10.681 -0.7895  0.3024 -1.7111
  964MOL0     H32971   8.590  10.567  10.772 -0.6255 -0.3223  0.2458
  964MOL0     H32972   8.542  10.499  10.615  0.3090 -0.4924  0.6137
  964MOL0     H32973   8.704  10.757  10.623 -0.9567 -0.7468  2.0177
  964MOL0     H32974   8.687  10.635  10.491  4.2132 -0.0693 -0.1857
  964MOL0     H32975   8.826  10.469  10.619  2.2139 -0.9568  2.2318
  964MOL0     H32976   8.903  10.627  10.583 -1.5877  1.6352 -0.8152
  964MOL0     H32977   8.835  10.686  10.835 -0.4074 -1.9903  4.3047
  964MOL0     H32978   8.976  10.599  10.785  0.4926  1.0630  4.6410
  964MOL0     H32979   8.840  10.500  10.988  1.1359 -0.0072  0.1017
  964MOL0     H32980   8.749  10.413  10.856 -1.4493  2.0213 -0.9512
  964MOL0     H32981   8.927  10.295  10.681 -3.7760  0.5629  2.8274
  964MOL0     H32982   9.183  10.154  10.624  3.7280 -3.5890 -1.8665
  964MOL0     H32983   9.106  10.044  10.740 -0.3866  0.4034 -2.9173
  964MOL0     H32984   9.307  10.063  10.879 -3.3119 -2.1535 -1.4693
  964MOL0     H32985   9.342   9.993  10.722 -2.7649  0.4571 -1.9409
  964MOL0     H32986   9.402  10.288  10.776 -1.3030 -0.8188 -0.0826
  964MOL0     H32987   9.513  10.154  10.813 -1.4697  0.0147  3.7084
  964MOL0     H32988   9.484  10.102  10.557  2.4127  0.7838  0.3028
  964MOL0     H32989   9.367  10.233  10.548 -0.1311 -0.1489 -0.2921
  964MOL0     H32990   9.728  10.481  10.534  1.3747  0.8220 -1.1915
  964MOL0     H32991   9.798  10.662  10.259 -1.9749 -0.7032  0.5555
  964MOL0     H32992   9.946  10.593  10.328  0.5143  1.1735  1.3745
  964MOL0     H32993   9.816  10.661  10.429  1.3845  0.6552 -0.5348
  964MOL0     H32994   9.934  10.389   9.827  0.1769 -0.1135 -0.8571
  964MOL0     H32995  10.085  10.498   9.645 -1.4481  2.5465 -1.7216
  964MOL0     H32996  10.257  10.903   9.720  2.9747  1.6092  0.1030
  964MOL0     H32997  10.385  10.785   9.763 -0.1810 -0.2464 -0.3082
  964MOL0     H32998  10.317  10.809   9.482 -0.2409  0.7792  1.4473
  964MOL0     H32999  10.430  10.932   9.555  1.5963  0.1349  2.0654
  964MOL0     H33000  10.483  10.628   9.568  2.9825 -0.7658  0.9203
  964MOL0     H33001  10.587  10.759   9.619 -0.1220  0.7201 -1.4212
  964MOL0     H33002  10.548  10.833   9.363 -2.4029  0.9743  1.7508
  964MOL0     H33003  10.515  10.649   9.352  2.1633 -1.5865  0.2603
  964MOL0     H33004  10.754  10.751   9.477 -1.2142  0.3050  0.3688
  964MOL0     H33005  10.714  10.581   9.414 -0.1053 -1.0923 -3.0093
  964MOL0     H33006  10.792  10.839   9.300 -4.1869  0.7352 -2.6268
  964MOL0     H33007  10.742  10.705   9.198 -0.7020  1.4342 -0.3349
  964MOL0     H33008  10.935  10.563   9.255 -0.3462 -0.2931  1.5125
  964MOL0     H33009  10.989  10.661   9.381  0.6653 -2.2174 -1.3347
  964MOL0     H33010  10.999  10.849   9.213 -1.2625  0.9111 -0.2305
  964MOL0     H33011  10.965  10.734   9.085  0.6192 -2.1893 -0.3122
  964MOL0     H33012  10.204  10.793   9.927 -0.3935 -0.9894  3.1656
  964MOL0     H33013  10.078  10.670  10.101  0.1613  0.3762  0.3549
  964MOL0     H33014   9.596  10.224  10.147  0.1142 -1.2031  1.6167
  964MOL0     H33015   9.477  10.190  10.338 -0.6643  0.0576  0.9504
  964MOL0     H33016   8.128  10.655  10.380 -0.4718 -1.8556 -1.0760
  964MOL0     H33017   7.892  10.609  10.280 -1.4237 -2.6071 -0.5241
  964MOL0     H33018   7.610  10.125  10.241 -1.1415 -1.3055 -1.5846
  964MOL0     H33019   7.400  10.050  10.147  0.9766 -1.7989  1.3242
  964MOL0     H33020   7.038  10.270  10.312  1.0541  0.1163  1.1811
  964MOL0     H33021   6.965  10.151  10.202  4.1925  0.4389 -4.1647
  964MOL0     H33022   7.100  10.088  10.469  1.5259 -4.1842  0.6496
  964MOL0     H33023   7.057   9.965  10.358 -0.6558 -1.9906  1.8003
  964MOL0     H33024   6.891   9.987  10.538  0.0046  1.8145  2.2233
  964MOL0     H33025   6.844  10.151  10.499  0.2234 -2.1234  2.2589
  964MOL0     H33026   6.813   9.921  10.281 -1.1630 -1.1975  0.1220
  964MOL0     H33027   6.762  10.079  10.262  1.1345  0.0425 -0.7568
  964MOL0     H33028   6.498   9.903  10.577  1.2072 -1.3452 -0.4006
  964MOL0     H33029   7.198  10.393  10.314  1.5733  1.3141  0.2466
  964MOL0     H33030   7.313  10.568  10.408  0.0130  0.0005 -0.6303
  964MOL0     H33031   7.422  10.492  10.521 -1.5215  1.9415  0.7148
  964MOL0     H33032   7.489  10.588  10.392 -1.5187  1.6971  0.6739
  965MOL0     O33033   7.663   1.353   7.403 -0.1979 -1.3178  0.1713
  965MOL0     C33034   7.652   1.235   7.380  0.3066  0.0909  0.5764
  965MOL0     O33035   7.758   1.155   7.370 -0.0686  0.3958  0.6765
  965MOL0     C33036   7.880   1.213   7.350 -0.2452  0.4842  0.3801
  965MOL0     C33037   7.904   1.295   7.231 -0.5218  0.6728  0.4752
  965MOL0     C33038   8.029   1.364   7.203 -0.2900  1.1727 -0.4009
  965MOL0     C33039   8.130   1.348   7.297 -0.7607  0.2167  0.4748
  965MOL0     O33040   8.245   1.417   7.266 -0.3979 -0.1425 -0.1255
  965MOL0     C33041   8.358   1.434   7.350 -0.5011  0.9677 -0.0952
  965MOL0     C33042   8.333   1.538   7.467  0.1076 -0.0581  0.0660
  965MOL0     C33043   8.462   1.575   7.542  0.3797 -0.1230  0.2700
  965MOL0     C33044   8.531   1.685   7.454  0.2963  0.3470 -0.2125
  965MOL0     C33045   8.670   1.720   7.508 -0.0813  0.2231  0.1253
  965MOL0     C33046   8.656   1.762   7.655  0.2852  0.3606  0.3080
  965MOL0     C33047   8.783   1.835   7.704 -0.2266  0.2875  0.7636
  965MOL0     C33048   8.751   1.914   7.827 -0.2562 -0.0783  0.5066
  965MOL0     N33049   8.870   1.931   7.909  0.8809 -0.0028 -0.4508
  965MOL0     C33050   8.996   1.963   7.878  0.2967 -0.2066  0.5208
  965MOL0     C33051   9.057   1.959   7.995  0.2479  0.6245 -0.1099
  965MOL0     C33052   9.205   1.981   8.025  0.5514  0.4027  0.7288
  965MOL0     C33053   9.243   2.129   8.024  0.3426 -1.0788 -0.7670
  965MOL0     C33054   9.252   2.197   7.884  0.4600 -0.3778  0.5280
  965MOL0     C33055   9.360   2.135   7.794  0.2151 -0.8435  0.3163
  965MOL0     O33056   9.301   2.019   7.733  0.3605  0.0658  0.5857
  965MOL0     C33057   9.378   1.907   7.702 -0.2070  1.2223 -0.1277
  965MOL0     C33058   9.311   1.786   7.667 -0.1612  0.1298  0.1486
  965MOL0     C33059   9.382   1.665   7.645  0.5620  0.3327 -0.4230
  965MOL0     C33060   9.291   1.544   7.628 -0.3734 -0.0975 -0.7929
  965MOL0     C33061   9.527   1.668   7.636  0.2216 -1.5051 -0.2055
  965MOL0     C33062   9.606   1.549   7.613  0.0281  0.9279  0.2152
  965MOL0     O33063   9.742   1.564   7.634 -0.1558  1.1199  0.4153
  965MOL0     C33064   9.827   1.469   7.578 -0.0805 -0.9271 -0.5806
  965MOL0     C33065   9.857   1.357   7.647 -0.5571 -1.0965  1.2174
  965MOL0     C33066   9.947   1.263   7.586  1.2862  0.6314 -0.3258
  965MOL0     C33067  10.014   1.292   7.470 -0.0251  0.8842  0.6203
  965MOL0     O33068  10.117   1.219   7.408 -0.2683  0.1585 -0.2726
  965MOL0     C33069  10.164   1.100   7.469  0.3103  0.0147  0.2933
  965MOL0     C33070  10.245   1.026   7.366  0.4261  0.5902 -0.4032
  965MOL0     C33071  10.177   1.000   7.222  0.7230 -0.3237  0.4842
  965MOL0     C33072  10.250   0.903   7.138 -0.6644  0.1351  0.0642
  965MOL0     C33073  10.197   0.884   6.988  0.3038 -1.0497  0.3342
  965MOL0     C33074  10.250   0.758   6.914  0.5925 -1.1111 -0.3657
  965MOL0     C33075  10.404   0.769   6.885  0.2750  0.3445 -0.3914
  965MOL0     C33076  10.455   0.636   6.831 -0.7009 -0.8305  1.0254
  965MOL0    Cl33077  10.616   0.650   6.777  0.3211 -0.1502 -0.2028
  965MOL0     C33078   9.982   1.416   7.410 -0.1101  0.9897  0.5468
  965MOL0     C33079   9.889   1.504   7.458 -0.2531  0.1612 -0.2935
  965MOL0     O33080   9.544   1.450   7.565 -0.0099 -1.1642 -0.1869
  965MOL0     C33081   9.594   1.793   7.675  0.1572  0.7279  0.6897
  965MOL0     C33082   9.520   1.904   7.713 -0.4112 -0.4000  0.1521
  965MOL0     N33083   8.969   1.936   8.100  0.5292 -0.1554  0.0425
  965MOL0     N33084   8.857   1.920   8.051  0.0753  0.9067  0.3740
  965MOL0     C33085   8.108   1.273   7.414 -0.1079 -0.2735 -0.7689
  965MOL0     C33086   7.983   1.201   7.443 -0.2513 -1.1945  0.1811
  965MOL0     C33087   7.517   1.164   7.354 -1.4228 -0.1222 -0.1957
  965MOL0     C33088   7.524   1.022   7.328  0.4198  0.0420  0.2298
  965MOL0     C33089   7.412   0.945   7.324  0.0360  0.3327 -0.1517
  965MOL0     C33090   7.286   0.995   7.343 -0.6670 -0.5210 -0.0598
  965MOL0     O33091   7.180   0.912   7.353  0.6907  0.0581  0.3150
  965MOL0     C33092   7.087   0.956   7.453 -0.6038 -0.2566  0.3637
  965MOL0     C33093   7.036   0.829   7.518 -0.4990 -0.0169 -0.0470
  965MOL0     C33094   6.991   0.850   7.660 -1.0692 -0.1689  0.4502
  965MOL0     C33095   6.926   0.731   7.739  0.2171  0.3757  0.2226
  965MOL0     C33096   6.798   0.679   7.681 -0.0440 -0.0678 -0.6734
  965MOL0     C33097   6.693   0.638   7.630  0.4499  0.1702  1.1182
  965MOL0     C33098   7.280   1.136   7.350  0.8567 -0.0032 -0.4048
  965MOL0     C33099   7.389   1.222   7.345  0.3692  0.5010 -0.2350
  965MOL0     C33100   7.370   1.369   7.361 -0.3788 -0.3819  0.0520
  965MOL0     H33101   7.825   1.302   7.156 -0.7857 -1.7843  0.4436
  965MOL0     H33102   8.048   1.410   7.107  1.0534  1.1891 -0.1466
  965MOL0     H33103   8.437   1.475   7.287 -2.1362  2.3280 -1.3286
  965MOL0     H33104   8.396   1.339   7.389  0.0540  1.5061  0.7000
  965MOL0     H33105   8.276   1.619   7.420 -2.8114 -0.5040  2.5379
  965MOL0     H33106   8.260   1.494   7.535  2.1868 -0.1629  2.3920
  965MOL0     H33107   8.453   1.610   7.645 -0.2965  0.0340  0.1606
  965MOL0     H33108   8.515   1.480   7.539 -0.2941 -0.5339  1.0287
  965MOL0     H33109   8.548   1.656   7.350  0.9730  0.8237 -0.2418
  965MOL0     H33110   8.467   1.774   7.459 -2.0156 -1.3261  1.8878
  965MOL0     H33111   8.705   1.802   7.445  0.1533 -1.3134 -1.8304
  965MOL0     H33112   8.735   1.632   7.503 -2.1465 -1.4722  1.3693
  965MOL0     H33113   8.572   1.829   7.676 -0.6666 -0.5196 -0.5592
  965MOL0     H33114   8.654   1.673   7.719  2.3942  1.9474  2.8256
  965MOL0     H33115   8.820   1.900   7.625 -1.9321  0.1630 -0.2006
  965MOL0     H33116   8.857   1.757   7.724 -0.2404  0.3193  0.9368
  965MOL0     H33117   8.715   2.006   7.782 -2.3018 -0.0022  2.1377
  965MOL0     H33118   8.673   1.861   7.884 -0.9049 -2.3026 -2.2530
  965MOL0     H33119   9.039   1.978   7.779  0.8082 -0.4365  0.7010
  965MOL0     H33120   9.274   1.920   7.967  0.8351  0.2581  1.2111
  965MOL0     H33121   9.216   1.944   8.128  0.1427 -0.8293  0.3502
  965MOL0     H33122   9.161   2.178   8.078  1.4319 -1.5180  1.4182
  965MOL0     H33123   9.334   2.149   8.081 -0.5467 -0.0373  0.3497
  965MOL0     H33124   9.164   2.197   7.819  1.8246 -0.2788 -1.3913
  965MOL0     H33125   9.284   2.301   7.891  3.0792 -0.9710 -1.0689
  965MOL0     H33126   9.400   2.208   7.724 -0.4514  0.2940  1.0770
  965MOL0     H33127   9.445   2.114   7.861  0.8930  0.1619 -0.1999
  965MOL0     H33128   9.202   1.787   7.667 -0.1763  0.1470  1.4422
  965MOL0     H33129   9.321   1.475   7.708  0.2066  0.6792 -0.3281
  965MOL0     H33130   9.298   1.500   7.528  0.7497 -3.2317  0.5234
  965MOL0     H33131   9.186   1.556   7.656 -1.9483 -1.2476 -5.3436
  965MOL0     H33132   9.809   1.345   7.744 -0.0212 -2.5805  1.3372
  965MOL0     H33133   9.973   1.182   7.655 -1.4012  1.9361  2.4511
  965MOL0     H33134  10.228   1.131   7.552  1.7959 -2.6948  0.2962
  965MOL0     H33135  10.088   1.037   7.517  0.9646  0.5068  2.0709
  965MOL0     H33136  10.334   1.089   7.356 -0.1197  1.2587 -1.2018
  965MOL0     H33137  10.266   0.933   7.420  1.0570  1.0783  0.2070
  965MOL0     H33138  10.191   1.098   7.174 -2.7312  0.5357  0.9487
  965MOL0     H33139  10.071   0.974   7.225  0.1092  1.7179 -0.8551
  965MOL0     H33140  10.232   0.803   7.178  0.8229  0.1809  0.9100
  965MOL0     H33141  10.359   0.910   7.139 -0.5771 -0.9379  1.0312
  965MOL0     H33142  10.088   0.881   6.990  0.1905  0.3866 -1.3151
  965MOL0     H33143  10.225   0.972   6.930  0.3681 -1.0444  0.3734
  965MOL0     H33144  10.190   0.750   6.822  0.0643 -1.0220 -0.0343
  965MOL0     H33145  10.238   0.667   6.973  0.4273 -1.7512 -1.3601
  965MOL0     H33146  10.460   0.798   6.974  1.0932 -0.7638 -0.5198
  965MOL0     H33147  10.411   0.852   6.814 -2.1552  1.7295  0.8597
  965MOL0     H33148  10.382   0.598   6.759 -1.2185 -1.4586  1.8688
  965MOL0     H33149  10.465   0.571   6.918  2.8602  1.4933  2.5874
  965MOL0     H33150  10.035   1.436   7.317  0.4759  1.8366  1.0605
  965MOL0     H33151   9.865   1.597   7.409  0.2715 -1.0930 -3.1538
  965MOL0     H33152   9.702   1.790   7.665 -0.0150  0.8639 -1.7796
  965MOL0     H33153   9.579   1.988   7.750 -0.7470 -0.7466  1.5492
  965MOL0     H33154   8.177   1.271   7.498  0.8967  2.5235 -1.4433
  965MOL0     H33155   7.976   1.166   7.545  2.5196  2.0666  1.7067
  965MOL0     H33156   7.624   0.986   7.307  1.3050  2.1607  0.6045
  965MOL0     H33157   7.429   0.839   7.311  0.9183  0.2778  1.3471
  965MOL0     H33158   7.128   1.026   7.527  2.7749 -0.5145 -1.0700
  965MOL0     H33159   7.004   1.008   7.406 -1.5193  0.4579  2.6038
  965MOL0     H33160   7.109   0.747   7.515 -0.4642  0.0404 -1.3934
  965MOL0     H33161   6.952   0.802   7.453  0.6369  0.0091 -1.5980
  965MOL0     H33162   7.078   0.884   7.717 -2.2315  4.5615 -0.1341
  965MOL0     H33163   6.913   0.926   7.672  1.0061  2.2500 -0.3788
  965MOL0     H33164   6.903   0.763   7.841 -0.1017 -1.0752  0.6185
  965MOL0     H33165   6.998   0.649   7.741  0.0400  0.1700 -0.9195
  965MOL0     H33166   6.596   0.612   7.593  0.2726  2.8583 -0.5836
  965MOL0     H33167   7.184   1.178   7.377 -0.3527 -3.0140  0.4224
  965MOL0     H33168   7.445   1.419   7.300 -1.3354  0.4016 -0.5032
  965MOL0     H33169   7.273   1.394   7.318 -0.3023  0.7805  0.5207
  965MOL0     H33170   7.375   1.410   7.462 -0.6475 -2.8546  1.1633
  966MOL0     O33171   8.681   8.289   6.314 -0.0923  0.1799 -0.5122
  966MOL0     C33172   8.641   8.403   6.311 -0.4653  0.0539 -0.3227
  966MOL0     O33173   8.693   8.505   6.390 -0.0551 -0.1988 -0.3169
  966MOL0     C33174   8.789   8.480   6.483 -0.2713 -1.0064  0.4768
  966MOL0     C33175   8.765   8.439   6.615 -0.2779  0.2031  0.5711
  966MOL0     C33176   8.867   8.402   6.707  1.2425 -0.0016  0.3887
  966MOL0     C33177   8.995   8.414   6.668  0.3647 -0.5400  0.1578
  966MOL0     O33178   9.094   8.385   6.760  0.1755  0.1516 -0.4338
  966MOL0     C33179   9.210   8.316   6.711  0.0073  0.5838 -0.6159
  966MOL0     C33180   9.312   8.289   6.826  0.5413 -0.2407 -0.5702
  966MOL0     C33181   9.376   8.425   6.875  0.3071 -0.3189 -0.6632
  966MOL0     C33182   9.491   8.419   6.979 -0.3540 -0.1046 -0.3667
  966MOL0     C33183   9.615   8.371   6.915 -0.7674 -0.3544 -0.5732
  966MOL0     C33184   9.737   8.363   7.013  0.4040 -0.2119  0.6771
  966MOL0     C33185   9.856   8.286   6.944  0.3009  0.5161 -0.1629
  966MOL0     C33186   9.935   8.222   7.056  0.4341 -0.2891 -0.0809
  966MOL0     N33187  10.023   8.311   7.141 -0.6450  0.0285  0.6417
  966MOL0     C33188  10.068   8.438   7.114  0.1612  0.0540  0.0622
  966MOL0     C33189  10.143   8.479   7.218 -0.3859  0.0601 -0.6251
  966MOL0     C33190  10.197   8.613   7.247  0.0864  0.5687  0.4281
  966MOL0     C33191  10.336   8.618   7.193  0.1422 -0.5155 -0.1372
  966MOL0     C33192  10.354   8.657   7.048  1.1874  0.3380  0.5346
  966MOL0     C33193  10.503   8.674   7.003  0.2339 -0.1752  1.1437
  966MOL0     O33194  10.584   8.742   7.101 -0.1903  0.4264 -0.0683
  966MOL0     C33195  10.707   8.797   7.073 -0.6033  0.0783 -0.1662
  966MOL0     C33196  10.777   8.870   7.169  0.2140  0.4381 -0.3020
  966MOL0     C33197  10.892   8.937   7.144  1.0048  0.1827 -0.7288
  966MOL0     C33198  10.946   9.007   7.255  0.3140 -0.2560 -0.5015
  966MOL0     C33199  10.950   8.934   7.016  1.3241  0.9060 -0.4923
  966MOL0     C33200  11.080   8.999   6.989 -0.0809  0.0632  0.2012
  966MOL0     O33201  11.085   9.137   7.006  0.0376 -0.2584 -0.3989
  966MOL0     C33202  11.182   9.203   6.942 -0.2695 -0.3769 -0.3573
  966MOL0     C33203  11.196   9.212   6.801 -1.3336  1.0881 -0.6236
  966MOL0     C33204  11.297   9.292   6.742  0.0093  1.0097 -0.3395
  966MOL0     C33205  11.395   9.347   6.826  0.6239 -0.4605  0.9755
  966MOL0     O33206  11.499   9.425   6.775 -0.1568  0.1312  0.0445
  966MOL0     C33207  11.614   9.350   6.744  0.3936 -0.0313  1.0670
  966MOL0     C33208  11.705   9.320   6.867  0.5681 -0.2306 -0.2311
  966MOL0     C33209  11.738   9.446   6.956  0.2719  0.0157  0.0569
  966MOL0     C33210  11.820   9.395   7.070  0.3838 -1.2146  0.5009
  966MOL0     C33211  11.877   9.503   7.163 -0.4750  0.5171 -0.6832
  966MOL0     C33212  11.978   9.458   7.280  0.3438  0.2434 -0.9277
  966MOL0     C33213  11.932   9.326   7.353 -0.3931 -0.1869 -0.7779
  966MOL0     C33214  12.025   9.284   7.471  0.2853 -0.3100 -0.0234
  966MOL0    Cl33215  11.969   9.124   7.519 -0.4541  0.0627 -0.2365
  966MOL0     C33216  11.382   9.336   6.962 -0.2776 -0.2386  0.2050
  966MOL0     C33217  11.275   9.276   7.022  0.4520 -0.5038 -0.1441
  966MOL0     O33218  11.172   8.925   6.943  1.0573 -1.0545  0.1750
  966MOL0     C33219  10.891   8.856   6.915  0.6762 -0.6478  0.4438
  966MOL0     C33220  10.764   8.793   6.941  0.2692  1.2246 -0.0455
  966MOL0     N33221  10.143   8.368   7.308 -0.0931 -0.2549  0.0210
  966MOL0     N33222  10.070   8.271   7.262 -0.4739 -0.3075  0.0281
  966MOL0     C33223   9.019   8.460   6.540  0.3753  0.1593 -0.1147
  966MOL0     C33224   8.924   8.506   6.447 -0.9788  0.1837  0.3053
  966MOL0     C33225   8.544   8.438   6.197  0.3382  0.5431 -0.0891
  966MOL0     C33226   8.501   8.570   6.190 -0.4569  0.2180  0.0400
  966MOL0     C33227   8.420   8.626   6.082 -0.1509  0.2564  0.6689
  966MOL0     C33228   8.377   8.538   5.988 -0.2960 -0.1980 -0.0987
  966MOL0     O33229   8.307   8.579   5.875  0.0317  0.3301 -0.3027
  966MOL0     C33230   8.286   8.719   5.846  1.1518 -0.3311 -0.3971
  966MOL0     C33231   8.198   8.741   5.721 -0.4834  0.0076  0.2195
  966MOL0     C33232   8.269   8.699   5.594  0.8924  0.6367  0.6236
  966MOL0     C33233   8.168   8.721   5.480 -0.0388  0.9425  0.3992
  966MOL0     C33234   8.240   8.710   5.354 -0.1140 -0.8832  0.0958
  966MOL0     C33235   8.313   8.695   5.259 -0.7933 -0.3928  0.3996
  966MOL0     C33236   8.409   8.405   5.998 -0.1453  1.0625 -0.2473
  966MOL0     C33237   8.495   8.353   6.098  0.4141 -0.0851  0.0608
  966MOL0     C33238   8.526   8.204   6.101 -0.3226 -0.2755 -0.0925
  966MOL0     H33239   8.664   8.437   6.657 -0.5708  1.0745 -0.0694
  966MOL0     H33240   8.841   8.389   6.811 -0.1132 -0.9870 -0.0445
  966MOL0     H33241   9.260   8.366   6.628 -0.3310 -0.3890 -1.4256
  966MOL0     H33242   9.174   8.223   6.665  0.2112  1.9439 -3.8365
  966MOL0     H33243   9.263   8.247   6.915  0.1391 -0.8089 -1.0492
  966MOL0     H33244   9.391   8.223   6.788  1.8457  1.2897 -0.6521
  966MOL0     H33245   9.404   8.489   6.791 -0.3150  0.4083 -0.3342
  966MOL0     H33246   9.298   8.482   6.927  2.2764  3.7067 -1.7501
  966MOL0     H33247   9.500   8.523   7.014 -0.3523  0.6732 -2.5459
  966MOL0     H33248   9.455   8.360   7.064 -0.6704  0.3623 -0.1697
  966MOL0     H33249   9.638   8.430   6.826  1.1826 -1.0270 -0.5724
  966MOL0     H33250   9.599   8.271   6.872 -0.0750 -0.7034 -0.0530
  966MOL0     H33251   9.755   8.464   7.049  0.4164  1.3500 -3.1672
  966MOL0     H33252   9.707   8.305   7.100 -1.3766  1.7748  1.4717
  966MOL0     H33253   9.910   8.359   6.882  2.2164  1.7926  2.7899
  966MOL0     H33254   9.822   8.202   6.883  0.4395 -0.5763  1.2273
  966MOL0     H33255   9.874   8.156   7.118  0.7142  0.5501  1.1489
  966MOL0     H33256  10.005   8.154   7.008 -2.1833 -1.3786 -2.6336
  966MOL0     H33257  10.052   8.503   7.029 -0.5894 -0.2167 -0.0075
  966MOL0     H33258  10.195   8.645   7.352 -0.4916 -0.6556  0.8113
  966MOL0     H33259  10.133   8.682   7.191  0.3682  0.8103  0.3966
  966MOL0     H33260  10.394   8.684   7.258 -0.9849 -2.6370  3.3174
  966MOL0     H33261  10.389   8.523   7.207 -2.9246 -2.5858 -1.3596
  966MOL0     H33262  10.299   8.587   6.985 -0.8097 -0.0414  2.5881
  966MOL0     H33263  10.305   8.753   7.032  2.3996  0.8538 -0.3248
  966MOL0     H33264  10.550   8.579   6.974  0.1454  0.3574 -0.8576
  966MOL0     H33265  10.494   8.739   6.916 -0.3286 -0.8040  0.7200
  966MOL0     H33266  10.735   8.873   7.269  2.4285 -0.7210  0.7490
  966MOL0     H33267  10.872   9.022   7.334 -1.1406  1.5849 -2.0965
  966MOL0     H33268  10.981   9.106   7.222  0.1068 -0.2532 -0.7165
  966MOL0     H33269  11.031   8.948   7.289  1.3799  0.9464 -0.9840
  966MOL0     H33270  11.130   9.167   6.728  0.1062 -1.1050 -0.6465
  966MOL0     H33271  11.292   9.301   6.634  1.9819 -3.1745 -0.9731
  966MOL0     H33272  11.591   9.251   6.703  3.1147  0.6249 -2.5079
  966MOL0     H33273  11.669   9.399   6.663 -0.8066  1.8904  1.3490
  966MOL0     H33274  11.645   9.247   6.922 -1.8263  0.0500 -2.2878
  966MOL0     H33275  11.801   9.273   6.844  0.8467  0.2074  0.0093
  966MOL0     H33276  11.648   9.497   6.991 -0.7397 -1.7917  0.2335
  966MOL0     H33277  11.791   9.515   6.891  3.2927 -0.1781  2.1091
  966MOL0     H33278  11.899   9.333   7.027  0.6373 -0.6150  0.0860
  966MOL0     H33279  11.752   9.339   7.136  0.2183 -0.8601  0.6370
  966MOL0     H33280  11.916   9.577   7.092 -1.8860  1.0766 -0.8985
  966MOL0     H33281  11.795   9.552   7.216  0.4467 -0.7085  2.0707
  966MOL0     H33282  11.992   9.541   7.349  1.5716  0.9551 -1.9811
  966MOL0     H33283  12.075   9.442   7.231  1.3192 -2.1173  1.5294
  966MOL0     H33284  11.928   9.240   7.285  1.4917 -1.9935  1.2231
  966MOL0     H33285  11.833   9.334   7.398  0.7289 -2.4477  2.4743
  966MOL0     H33286  12.008   9.352   7.554 -1.8098 -0.3268 -0.3800
  966MOL0     H33287  12.128   9.289   7.436  1.3503 -0.5207  2.8942
  966MOL0     H33288  11.449   9.390   7.028 -1.1215  1.2648 -0.1362
  966MOL0     H33289  11.261   9.298   7.127  1.4895 -0.6734  0.0482
  966MOL0     H33290  10.946   8.853   6.821  1.3219  1.7278  0.6674
  966MOL0     H33291  10.723   8.748   6.851  1.7884  2.0328 -1.2034
  966MOL0     H33292   9.122   8.484   6.515 -0.7949  2.5029 -3.3340
  966MOL0     H33293   8.942   8.573   6.363 -1.8915  1.4927  1.1108
  966MOL0     H33294   8.545   8.634   6.265  2.0520 -0.8779 -0.3944
  966MOL0     H33295   8.388   8.730   6.076 -0.4300  0.0948 -2.0526
  966MOL0     H33296   8.241   8.776   5.928 -1.0993 -1.6382 -0.6448
  966MOL0     H33297   8.386   8.757   5.825  0.7150  1.2771  0.2604
  966MOL0     H33298   8.190   8.850   5.722  1.0357  0.1504 -0.6034
  966MOL0     H33299   8.104   8.690   5.745 -0.3867 -0.8063 -1.0243
  966MOL0     H33300   8.357   8.764   5.583  0.2485  1.2241 -1.7334
  966MOL0     H33301   8.298   8.594   5.594 -1.1782 -0.0270 -1.3551
  966MOL0     H33302   8.113   8.816   5.479  0.4068  1.2509 -1.9602
  966MOL0     H33303   8.089   8.648   5.461 -1.8986  3.4526 -2.5716
  966MOL0     H33304   8.373   8.661   5.177 -2.2019 -1.1752 -0.3433
  966MOL0     H33305   8.383   8.334   5.920  0.5692  0.3424  0.1552
  966MOL0     H33306   8.634   8.187   6.094 -0.4799 -1.8287  0.7115
  966MOL0     H33307   8.489   8.165   6.197  0.0798  1.8618  0.9765
  966MOL0     H33308   8.473   8.147   6.025  0.8582  1.8582 -2.6521
  967MOL0     O33309   2.410   4.180   7.125 -0.0532 -0.1528 -0.3049
  967MOL0     C33310   2.341   4.150   7.027 -0.1422 -0.0057 -0.3366
  967MOL0     O33311   2.389   4.171   6.901  0.3788 -0.1850  0.1885
  967MOL0     C33312   2.497   4.246   6.880  0.3627 -0.1781  0.3629
  967MOL0     C33313   2.515   4.381   6.913  0.1937  0.3720 -0.2368
  967MOL0     C33314   2.635   4.442   6.877 -0.1417 -0.1635  0.5651
  967MOL0     C33315   2.738   4.378   6.811 -0.2450  0.5433 -0.1792
  967MOL0     O33316   2.851   4.449   6.778  0.5956 -0.2396  0.2805
  967MOL0     C33317   2.926   4.400   6.669 -0.2538  0.3559  0.1656
  967MOL0     C33318   3.009   4.512   6.611 -0.0445  0.1960 -0.5003
  967MOL0     C33319   3.113   4.560   6.699  0.2571 -0.0199  0.0706
  967MOL0     C33320   3.175   4.690   6.658  0.1333 -0.3700  0.6289
  967MOL0     C33321   3.317   4.724   6.714  0.3481  0.0656  0.1515
  967MOL0     C33322   3.366   4.852   6.654  0.5535 -0.8934 -0.2356
  967MOL0     C33323   3.506   4.879   6.714 -0.1012  0.4356  0.7289
  967MOL0     C33324   3.615   4.772   6.687  0.4183  0.1081  0.1591
  967MOL0     N33325   3.751   4.811   6.749 -0.7927  0.5439  0.3218
  967MOL0     C33326   3.805   4.936   6.759  0.6043 -0.5506  0.0164
  967MOL0     C33327   3.891   4.926   6.867  0.1641  0.4018  0.3682
  967MOL0     C33328   3.971   5.037   6.928 -0.4738 -0.0807 -0.9541
  967MOL0     C33329   4.122   5.026   6.897  0.7617 -0.4403 -0.7280
  967MOL0     C33330   4.191   5.158   6.940 -0.0698 -0.3916 -0.2567
  967MOL0     C33331   4.344   5.143   6.920  0.4463  0.1788 -0.4248
  967MOL0     O33332   4.362   5.135   6.780 -0.0276  0.1808  0.5062
  967MOL0     C33333   4.476   5.063   6.740  0.4839 -0.2081 -0.9288
  967MOL0     C33334   4.479   5.011   6.611 -0.5045  1.4054  0.0627
  967MOL0     C33335   4.584   4.953   6.549 -0.5310 -0.0588  1.0504
  967MOL0     C33336   4.562   4.922   6.403 -0.1874  0.1942  0.4757
  967MOL0     C33337   4.709   4.950   6.617 -0.2570 -0.4440  0.7646
  967MOL0     C33338   4.842   4.896   6.557  0.4507 -0.1927  0.6270
  967MOL0     O33339   4.939   4.909   6.642 -0.1013 -0.0433  0.6202
  967MOL0     C33340   5.064   4.855   6.606  0.0353  0.6440  0.5985
  967MOL0     C33341   5.150   4.900   6.504 -0.3937 -0.0073 -0.1787
  967MOL0     C33342   5.266   4.831   6.481 -0.0220  0.1690 -0.1100
  967MOL0     C33343   5.307   4.719   6.560  0.3448  0.5589  0.7972
  967MOL0     O33344   5.427   4.651   6.548  0.0226  0.7732 -0.0188
  967MOL0     C33345   5.547   4.698   6.489  0.7990 -0.3663 -0.3512
  967MOL0     C33346   5.591   4.823   6.558  0.3267 -0.2170  0.2937
  967MOL0     C33347   5.731   4.854   6.512  0.0554 -0.2244  0.0600
  967MOL0     C33348   5.774   4.985   6.569 -0.5818 -0.1162 -0.1876
  967MOL0     C33349   5.927   4.984   6.544 -0.2840 -0.0685 -0.1909
  967MOL0     C33350   5.984   5.122   6.574  0.1359 -0.4384 -0.6648
  967MOL0     C33351   5.973   5.225   6.466 -0.0507 -0.2335  0.0703
  967MOL0     C33352   6.061   5.352   6.480  0.0689 -0.6979 -0.2564
  967MOL0    Cl33353   5.968   5.489   6.561 -0.1581  0.4336  0.2100
  967MOL0     C33354   5.211   4.672   6.650 -0.1850 -0.0739  0.0009
  967MOL0     C33355   5.098   4.743   6.680  0.4678 -0.5626  0.0342
  967MOL0     O33356   4.849   4.839   6.451  0.2059  0.3875  0.2477
  967MOL0     C33357   4.710   5.003   6.749  0.4642  0.6797  0.3249
  967MOL0     C33358   4.602   5.060   6.811 -0.5445  0.1356  0.2754
  967MOL0     N33359   3.896   4.796   6.904 -0.0408  0.3291  0.0094
  967MOL0     N33360   3.812   4.728   6.839  0.2632  0.0463 -1.0006
  967MOL0     C33361   2.713   4.246   6.776  0.0013  0.9487  0.7559
  967MOL0     C33362   2.604   4.177   6.812  0.2589 -0.6654 -0.1839
  967MOL0     C33363   2.195   4.116   7.034 -0.2017  0.3460 -0.9051
  967MOL0     C33364   2.151   4.040   7.147  0.9299  0.3919 -0.0494
  967MOL0     C33365   2.019   3.990   7.146  0.0154 -1.0637  0.0463
  967MOL0     C33366   1.935   4.020   7.049 -0.4555 -0.1927  0.4336
  967MOL0     O33367   1.812   3.965   7.061  0.8757 -0.3883 -0.5757
  967MOL0     C33368   1.792   3.866   6.963 -0.9330  0.6717 -0.2861
  967MOL0     C33369   1.673   3.775   6.985 -0.5016 -0.9193 -0.4415
  967MOL0     C33370   1.541   3.847   7.014  0.0027 -0.4439 -0.2905
  967MOL0     C33371   1.452   3.891   6.903 -0.1239 -0.0724 -0.3825
  967MOL0     C33372   1.321   3.943   6.957 -0.4170  0.7230  0.4975
  967MOL0     C33373   1.215   3.962   7.010 -0.4450 -0.1006  0.8606
  967MOL0     C33374   1.971   4.100   6.941 -0.9398 -0.8872  0.3279
  967MOL0     C33375   2.101   4.152   6.930  0.3229 -0.1778 -0.3636
  967MOL0     C33376   2.134   4.244   6.816  0.9382  0.3192 -0.1157
  967MOL0     H33377   2.426   4.434   6.946 -0.3441 -0.9980  0.6246
  967MOL0     H33378   2.674   4.542   6.894 -0.5738  0.6345 -2.6579
  967MOL0     H33379   2.861   4.356   6.594 -1.3066  0.9834  0.6869
  967MOL0     H33380   2.989   4.321   6.711 -0.5050  0.3287  0.4951
  967MOL0     H33381   3.061   4.467   6.525  1.3752 -1.0569  0.9468
  967MOL0     H33382   2.939   4.592   6.585 -1.8371 -1.4503 -0.9609
  967MOL0     H33383   3.068   4.569   6.799 -1.6708  0.9322 -0.8308
  967MOL0     H33384   3.195   4.488   6.691 -0.0050 -0.2520 -0.6474
  967MOL0     H33385   3.178   4.691   6.549 -2.7485  0.4099  0.4901
  967MOL0     H33386   3.099   4.767   6.673  0.4749  0.4871 -1.7077
  967MOL0     H33387   3.382   4.639   6.692 -0.9478 -0.3894 -2.2419
  967MOL0     H33388   3.321   4.731   6.823 -1.4843 -0.5995  0.2874
  967MOL0     H33389   3.364   4.858   6.545 -2.5999 -0.0491 -0.2266
  967MOL0     H33390   3.302   4.933   6.691  0.3286 -0.7131 -1.0068
  967MOL0     H33391   3.516   4.894   6.822  0.9960  2.1756  0.4339
  967MOL0     H33392   3.538   4.975   6.673 -0.3750  0.6487  1.0067
  967MOL0     H33393   3.578   4.673   6.716 -1.7161  0.9089  0.3852
  967MOL0     H33394   3.643   4.769   6.582  0.1644 -2.3195  0.0926
  967MOL0     H33395   3.796   5.027   6.701  0.6564  0.5188  1.6079
  967MOL0     H33396   3.951   5.026   7.035  1.9478  0.5931 -0.3711
  967MOL0     H33397   3.922   5.128   6.893 -1.8218 -0.7617 -0.9346
  967MOL0     H33398   4.151   4.934   6.948 -2.4118 -0.7953  0.7365
  967MOL0     H33399   4.142   5.021   6.790  0.6286  1.4027 -0.8666
  967MOL0     H33400   4.161   5.239   6.873  0.5804  1.8914  2.0247
  967MOL0     H33401   4.156   5.186   7.040 -1.3638 -0.7538 -0.5967
  967MOL0     H33402   4.399   5.227   6.963  4.0862 -2.5432  0.7366
  967MOL0     H33403   4.374   5.058   6.982 -0.2247  0.1511 -0.1258
  967MOL0     H33404   4.392   5.041   6.553  0.6114  0.8357 -1.9986
  967MOL0     H33405   4.641   4.969   6.343  0.7442  1.1285  2.3316
  967MOL0     H33406   4.467   4.953   6.360 -0.2544 -1.3654 -0.6084
  967MOL0     H33407   4.563   4.813   6.388 -0.7114  0.2529 -0.0279
  967MOL0     H33408   5.123   4.990   6.450  3.0794  1.7912  0.7738
  967MOL0     H33409   5.332   4.858   6.399  1.0921 -2.4845 -0.1662
  967MOL0     H33410   5.626   4.624   6.500  2.4221  1.1733 -1.2381
  967MOL0     H33411   5.527   4.707   6.382 -0.5070  1.7813  0.0116
  967MOL0     H33412   5.528   4.908   6.532  0.5865 -0.8813 -2.8497
  967MOL0     H33413   5.589   4.810   6.667 -1.2158  0.6220  0.3901
  967MOL0     H33414   5.737   4.862   6.403 -1.3347  3.7682  0.1087
  967MOL0     H33415   5.791   4.769   6.547 -2.2066 -2.2023 -0.5345
  967MOL0     H33416   5.748   4.984   6.675  1.7133 -1.4247  0.4442
  967MOL0     H33417   5.728   5.069   6.516 -1.8390 -0.3120  0.5695
  967MOL0     H33418   5.977   4.914   6.612 -1.1932 -2.3404 -1.7249
  967MOL0     H33419   5.958   4.949   6.445  1.5196 -3.2170  1.3084
  967MOL0     H33420   6.086   5.117   6.613  0.3599  0.5236 -1.0914
  967MOL0     H33421   5.926   5.146   6.664  0.8632 -0.3031 -0.2186
  967MOL0     H33422   5.869   5.255   6.454 -0.8346 -1.9189  1.9768
  967MOL0     H33423   5.995   5.183   6.367 -3.5577 -1.0703 -0.4823
  967MOL0     H33424   6.093   5.386   6.381  2.5287 -0.3184  0.6155
  967MOL0     H33425   6.146   5.335   6.546  0.0429  2.9740  0.9569
  967MOL0     H33426   5.232   4.582   6.707 -1.2311  1.0666  2.3232
  967MOL0     H33427   5.036   4.707   6.761 -1.1954 -1.8571 -1.7393
  967MOL0     H33428   4.800   5.021   6.808  0.7579  0.3152 -0.0088
  967MOL0     H33429   4.608   5.108   6.908 -1.2263  1.8526 -0.4945
  967MOL0     H33430   2.786   4.177   6.735 -2.3868 -1.1785 -0.1843
  967MOL0     H33431   2.588   4.072   6.788 -0.6785 -0.9798  1.6553
  967MOL0     H33432   2.213   4.022   7.234 -0.2893 -2.5335  0.3310
  967MOL0     H33433   1.996   3.933   7.235  2.1045 -2.8337 -0.4538
  967MOL0     H33434   1.768   3.908   6.865 -1.2738  4.3820  1.2126
  967MOL0     H33435   1.882   3.804   6.956 -1.9654 -0.8755 -0.2775
  967MOL0     H33436   1.696   3.721   7.077 -2.5471  0.2615  0.8597
  967MOL0     H33437   1.656   3.709   6.900 -1.4850  0.2360 -1.1847
  967MOL0     H33438   1.485   3.781   7.082  1.2750  2.4314  3.9200
  967MOL0     H33439   1.553   3.938   7.072  0.9255 -0.4451 -0.4726
  967MOL0     H33440   1.417   3.804   6.848 -1.8221  0.3624 -0.0473
  967MOL0     H33441   1.503   3.958   6.833  2.4204 -2.5656 -1.1294
  967MOL0     H33442   1.122   3.984   7.058  0.1525  0.0174  1.9959
  967MOL0     H33443   1.904   4.130   6.861 -2.0612  0.6764  1.7882
  967MOL0     H33444   2.197   4.328   6.846  0.9105  0.4585 -0.4416
  967MOL0     H33445   2.185   4.192   6.734 -3.0161 -2.6223 -1.0333
  967MOL0     H33446   2.050   4.286   6.760  1.7927  0.6565 -1.1923
  968MOL0     O33447   0.822   7.233   5.221 -0.1424 -0.4434  0.8491
  968MOL0     C33448   0.789   7.353   5.228 -0.8419  0.2175  0.3917
  968MOL0     O33449   0.880   7.459   5.213  0.3003  0.7072 -0.0938
  968MOL0     C33450   1.000   7.441   5.139 -0.4111  0.4569  0.5740
  968MOL0     C33451   1.112   7.512   5.182 -0.6454  0.2919 -0.1801
  968MOL0     C33452   1.235   7.481   5.126 -0.6300  0.7570  0.1152
  968MOL0     C33453   1.257   7.395   5.015  0.2334  0.2783 -0.5786
  968MOL0     O33454   1.386   7.370   4.967  0.7084 -0.0483  0.1777
  968MOL0     C33455   1.410   7.252   4.887 -0.5080  0.1815  0.1241
  968MOL0     C33456   1.559   7.241   4.837  0.0908  0.5932  0.6235
  968MOL0     C33457   1.581   7.143   4.718  0.2157  0.2064  0.1830
  968MOL0     C33458   1.580   6.992   4.751 -0.4134  0.1041  0.0336
  968MOL0     C33459   1.629   6.905   4.635  1.1499  0.4844 -0.3729
  968MOL0     C33460   1.630   6.758   4.689  0.2708  0.6450  0.4046
  968MOL0     C33461   1.679   6.681   4.568 -0.4323  0.4731  0.6301
  968MOL0     C33462   1.593   6.683   4.436  0.4871  0.3221  0.7445
  968MOL0     N33463   1.634   6.579   4.333  0.8397 -0.6237  0.1014
  968MOL0     C33464   1.746   6.584   4.256  0.2469  0.2476  0.0168
  968MOL0     C33465   1.762   6.471   4.194  0.7575  1.2473 -0.1761
  968MOL0     C33466   1.855   6.435   4.082  0.3062 -0.4074 -0.4415
  968MOL0     C33467   1.997   6.409   4.140  0.4369 -0.3565 -0.3749
  968MOL0     C33468   2.085   6.382   4.020  0.7161 -1.1280  0.0525
  968MOL0     C33469   2.233   6.360   4.060  0.2087 -0.0751 -0.3469
  968MOL0     O33470   2.253   6.230   4.122  0.1679  0.0457 -1.0052
  968MOL0     C33471   2.379   6.194   4.156  0.0594 -1.2423 -0.3119
  968MOL0     C33472   2.493   6.291   4.156 -0.4477 -0.5822  0.2163
  968MOL0     C33473   2.623   6.253   4.188  0.4846  0.4161  0.0006
  968MOL0     C33474   2.731   6.359   4.197 -0.6150 -0.4449  0.0340
  968MOL0     C33475   2.649   6.110   4.199 -0.4209 -0.4202 -0.4516
  968MOL0     C33476   2.788   6.069   4.223 -0.4305 -0.1616  0.3593
  968MOL0     O33477   2.800   5.984   4.325  0.1267 -0.5163 -0.0187
  968MOL0     C33478   2.927   5.944   4.354 -0.0820  0.3147 -0.2026
  968MOL0     C33479   2.997   5.847   4.276 -0.1763 -1.0962 -0.6042
  968MOL0     C33480   3.122   5.793   4.313 -0.1672  0.2914 -0.5560
  968MOL0     C33481   3.178   5.826   4.443  0.3361  0.3252 -0.5294
  968MOL0     O33482   3.286   5.758   4.485 -0.4470 -0.7772 -0.1131
  968MOL0     C33483   3.405   5.761   4.411 -0.7723 -0.1158  0.4242
  968MOL0     C33484   3.506   5.653   4.460  0.3214 -0.0527  0.0773
  968MOL0     C33485   3.439   5.517   4.490 -0.1582 -0.5079 -0.5713
  968MOL0     C33486   3.532   5.403   4.495  0.3317 -0.3812  0.1071
  968MOL0     C33487   3.625   5.420   4.615 -0.0956 -0.4065  0.2890
  968MOL0     C33488   3.747   5.325   4.599  0.1358  0.1496 -0.0417
  968MOL0     C33489   3.826   5.314   4.735  0.4046  0.0846 -0.5472
  968MOL0     C33490   3.925   5.189   4.748 -0.3740  0.5308 -0.0347
  968MOL0    Cl33491   3.971   5.143   4.921 -0.0643  0.0567  0.3972
  968MOL0     C33492   3.105   5.910   4.523  0.4025 -0.0182 -0.4134
  968MOL0     C33493   2.988   5.979   4.478 -0.0382  0.2626 -0.0203
  968MOL0     O33494   2.880   6.112   4.155 -0.1524  0.6643 -0.2094
  968MOL0     C33495   2.542   6.016   4.190  0.0818  0.0704  0.4849
  968MOL0     C33496   2.408   6.059   4.169 -0.2951  0.9474  0.2789
  968MOL0     N33497   1.659   6.385   4.239  0.1859  0.3555  0.5774
  968MOL0     N33498   1.588   6.447   4.322  0.6561 -0.5109  1.1726
  968MOL0     C33499   1.148   7.332   4.969 -0.2148 -0.0873 -0.1445
  968MOL0     C33500   1.024   7.344   5.031  0.4094 -0.3150  0.4173
  968MOL0     C33501   0.643   7.393   5.250 -0.7443 -0.1035  0.2305
  968MOL0     C33502   0.613   7.516   5.309  0.1282  0.3761 -0.1096
  968MOL0     C33503   0.481   7.551   5.348 -0.3970 -0.2526 -0.8670
  968MOL0     C33504   0.374   7.478   5.321  0.0841  0.7817  0.2173
  968MOL0     O33505   0.250   7.527   5.360  0.1837 -0.0595 -0.1066
  968MOL0     C33506   0.139   7.504   5.275 -0.1678  0.2647  0.2224
  968MOL0     C33507   0.059   7.384   5.331  0.7697  0.6137 -0.1733
  968MOL0     C33508  -0.022   7.289   5.232 -0.5376 -0.0968  0.1743
  968MOL0     C33509  -0.060   7.158   5.306  0.2267  0.0811 -0.1711
  968MOL0     C33510  -0.189   7.175   5.379  0.1306  1.3505  0.9124
  968MOL0     C33511  -0.290   7.195   5.450  0.1111 -0.4671 -0.6816
  968MOL0     C33512   0.399   7.357   5.256  0.2987 -0.2797  0.1793
  968MOL0     C33513   0.528   7.317   5.215 -0.7887 -0.7909  0.6275
  968MOL0     C33514   0.545   7.193   5.123 -0.6667 -0.4330  0.0980
  968MOL0     H33515   1.106   7.584   5.263  1.9839 -0.5496  0.8617
  968MOL0     H33516   1.322   7.527   5.172 -0.2745  0.7886 -0.5678
  968MOL0     H33517   1.346   7.252   4.798  0.8565  2.4816 -0.9407
  968MOL0     H33518   1.395   7.162   4.948 -1.7365 -1.8439 -2.9362
  968MOL0     H33519   1.582   7.335   4.785  0.4947  0.2191  0.1232
  968MOL0     H33520   1.637   7.229   4.912  1.3577 -1.7929 -0.9626
  968MOL0     H33521   1.506   7.160   4.641  0.6581  3.9047  0.4076
  968MOL0     H33522   1.681   7.156   4.676 -0.8212 -0.5876 -2.7582
  968MOL0     H33523   1.652   6.986   4.833  2.3466  0.8252 -2.1866
  968MOL0     H33524   1.480   6.958   4.780 -0.8877  3.0034  2.3442
  968MOL0     H33525   1.725   6.936   4.591  1.0575 -0.2318 -1.0885
  968MOL0     H33526   1.556   6.909   4.554 -0.2295  0.1076  0.8187
  968MOL0     H33527   1.706   6.745   4.766  1.1738  2.2076 -0.1805
  968MOL0     H33528   1.532   6.721   4.720  0.9218 -1.5492 -0.0065
  968MOL0     H33529   1.680   6.574   4.592  1.8666 -0.4240 -2.7685
  968MOL0     H33530   1.784   6.696   4.544 -1.2599  2.0028 -2.5252
  968MOL0     H33531   1.494   6.647   4.463 -0.4408  1.7028 -0.6593
  968MOL0     H33532   1.596   6.788   4.405  3.8838 -0.0159 -0.6138
  968MOL0     H33533   1.814   6.666   4.233  0.5119  0.3670  1.1863
  968MOL0     H33534   1.854   6.522   4.016  0.2276 -1.2511 -1.5694
  968MOL0     H33535   1.817   6.350   4.025 -0.1327 -0.2811 -0.3438
  968MOL0     H33536   2.040   6.489   4.201 -0.6545  0.2860 -0.4346
  968MOL0     H33537   1.995   6.317   4.200  3.4303 -2.2574 -2.8273
  968MOL0     H33538   2.054   6.295   3.962  0.8237  0.2707 -2.2578
  968MOL0     H33539   2.085   6.471   3.956  2.4905 -1.7255 -0.8485
  968MOL0     H33540   2.301   6.363   3.975  1.2707 -1.4989  0.4091
  968MOL0     H33541   2.266   6.448   4.116  0.6355  0.9216 -2.0963
  968MOL0     H33542   2.482   6.398   4.144  2.7810 -0.0598  1.0076
  968MOL0     H33543   2.691   6.452   4.154  2.4299  0.8587 -0.1911
  968MOL0     H33544   2.810   6.336   4.125  1.6532 -0.0938  2.2788
  968MOL0     H33545   2.767   6.378   4.298  0.3244 -0.7299 -0.2383
  968MOL0     H33546   2.943   5.826   4.183 -1.7780 -0.6133  0.1752
  968MOL0     H33547   3.168   5.710   4.260  0.0389  0.3321 -0.4432
  968MOL0     H33548   3.396   5.744   4.303  2.0043 -3.2132  0.5060
  968MOL0     H33549   3.449   5.861   4.416 -2.2066  0.5017  1.3728
  968MOL0     H33550   3.587   5.648   4.386  0.2351  0.7502 -0.0796
  968MOL0     H33551   3.550   5.694   4.551  0.6967  0.3097 -0.2663
  968MOL0     H33552   3.360   5.498   4.417 -0.6558 -0.0558 -0.1553
  968MOL0     H33553   3.388   5.516   4.586 -0.9116  0.0450 -0.9582
  968MOL0     H33554   3.584   5.407   4.399 -0.6367  0.5179 -0.4065
  968MOL0     H33555   3.474   5.311   4.492 -0.5847  0.1845  0.0037
  968MOL0     H33556   3.653   5.524   4.630 -0.4107 -0.2219 -0.3798
  968MOL0     H33557   3.575   5.406   4.711  2.5877  3.5059  2.5365
  968MOL0     H33558   3.816   5.368   4.526  2.5123 -2.2311  0.6606
  968MOL0     H33559   3.710   5.230   4.560 -1.0512  1.0473 -1.1920
  968MOL0     H33560   3.750   5.294   4.810 -1.5736 -0.5182 -2.5917
  968MOL0     H33561   3.878   5.409   4.749 -0.8742  0.5871  1.0678
  968MOL0     H33562   4.009   5.195   4.678 -0.4921  0.1325 -0.2129
  968MOL0     H33563   3.871   5.104   4.705 -1.6605  2.0950 -1.7207
  968MOL0     H33564   3.146   5.928   4.622  0.4203 -2.3989  0.0723
  968MOL0     H33565   2.935   6.049   4.542 -0.5293 -0.2093  0.0968
  968MOL0     H33566   2.571   5.916   4.221 -4.6948 -0.2391  5.6694
  968MOL0     H33567   2.333   5.980   4.169  3.1009 -2.5543  0.3723
  968MOL0     H33568   1.157   7.265   4.884 -1.7850 -0.3679 -0.1312
  968MOL0     H33569   0.942   7.286   4.989 -1.3764  0.3556  2.7156
  968MOL0     H33570   0.697   7.577   5.341  2.9124 -2.6205 -1.1593
  968MOL0     H33571   0.466   7.646   5.398  2.4393  0.1152 -0.5034
  968MOL0     H33572   0.082   7.598   5.271  0.3441  0.6523  1.4670
  968MOL0     H33573   0.161   7.482   5.170 -1.8999 -0.0440 -0.1088
  968MOL0     H33574  -0.014   7.422   5.403  1.8666 -0.2069  1.4212
  968MOL0     H33575   0.118   7.313   5.389 -0.5012  0.5987  1.1532
  968MOL0     H33576  -0.113   7.338   5.196 -1.0446 -1.6708 -0.7981
  968MOL0     H33577   0.045   7.263   5.150 -1.5008  1.4389 -1.1604
  968MOL0     H33578   0.015   7.123   5.377 -3.0196 -0.3659  3.3428
  968MOL0     H33579  -0.075   7.083   5.228 -2.0580 -1.1379  1.3225
  968MOL0     H33580  -0.369   7.227   5.514  1.1222  0.4201  0.1732
  968MOL0     H33581   0.314   7.297   5.225  0.2191  0.3229 -0.8137
  968MOL0     H33582   0.584   7.108   5.180 -0.5181  0.8737  2.0418
  968MOL0     H33583   0.447   7.173   5.077 -0.9971 -0.8381  0.9461
  968MOL0     H33584   0.610   7.201   5.036 -0.1142  1.4027  0.6370
  969MOL0     O33585   0.216   0.481   1.640 -0.0379  0.0900 -0.7045
  969MOL0     C33586   0.270   0.590   1.671  0.1098  0.3748  0.3210
  969MOL0     O33587   0.362   0.612   1.766 -0.5611  0.8205 -0.8876
  969MOL0     C33588   0.425   0.504   1.835  0.0846 -0.2524 -0.3971
  969MOL0     C33589   0.433   0.511   1.973 -0.3218  0.1874  0.8946
  969MOL0     C33590   0.502   0.420   2.043  0.0234 -0.6794  0.1197
  969MOL0     C33591   0.553   0.301   1.989  0.1681  0.5650  0.6468
  969MOL0     O33592   0.588   0.188   2.055 -0.3144 -0.7539  0.0306
  969MOL0     C33593   0.550   0.195   2.190 -0.6403  0.4944 -1.0100
  969MOL0     C33594   0.573   0.065   2.263  0.9945 -0.3485  0.4408
  969MOL0     C33595   0.726   0.039   2.267 -0.0588 -0.0540  0.6543
  969MOL0     C33596   0.797   0.133   2.367  0.1331 -0.0871  0.0430
  969MOL0     C33597   0.952   0.131   2.365 -0.0747  0.2764  0.6286
  969MOL0     C33598   0.999  -0.009   2.406  0.4287 -0.0462  0.5594
  969MOL0     C33599   1.152  -0.017   2.411  0.3579  0.1211  1.1166
  969MOL0     C33600   1.205  -0.036   2.260  0.4353  0.0245  0.0667
  969MOL0     N33601   1.350  -0.059   2.266  1.2822 -0.3509  0.1928
  969MOL0     C33602   1.443   0.020   2.211 -0.4621 -0.6363  0.4411
  969MOL0     C33603   1.559  -0.052   2.215 -0.0835  0.2702 -0.0102
  969MOL0     C33604   1.683   0.004   2.152  0.0450  0.2615  0.7505
  969MOL0     C33605   1.818  -0.032   2.219 -0.7831 -0.0727  0.3421
  969MOL0     C33606   1.933   0.013   2.132  0.0755  0.0571  1.4010
  969MOL0     C33607   2.065  -0.033   2.184 -0.0950 -0.0710  0.6973
  969MOL0     O33608   2.158  -0.027   2.069 -0.2834  0.4210  0.8276
  969MOL0     C33609   2.282  -0.093   2.084  1.0843  0.0122 -0.0116
  969MOL0     C33610   2.320  -0.159   2.204 -0.4638  1.3707  0.7657
  969MOL0     C33611   2.453  -0.211   2.206  0.4533 -0.2644 -0.0578
  969MOL0     C33612   2.504  -0.259   2.344  0.0505  0.0705 -1.0064
  969MOL0     C33613   2.542  -0.206   2.099 -0.5060  0.1153  0.0845
  969MOL0     C33614   2.677  -0.265   2.093  0.0554  0.2986 -0.5039
  969MOL0     O33615   2.761  -0.182   2.029  0.3213  0.2410  0.2689
  969MOL0     C33616   2.893  -0.195   2.055 -0.2599  0.3875  0.9710
  969MOL0     C33617   2.947  -0.115   2.148 -0.3365  0.0416  0.0160
  969MOL0     C33618   3.086  -0.120   2.154 -0.5402 -0.1701  0.2504
  969MOL0     C33619   3.168  -0.193   2.070 -0.6724  0.7614  0.3084
  969MOL0     O33620   3.311  -0.195   2.057  0.0098 -0.1536  0.0854
  969MOL0     C33621   3.391  -0.166   2.167  0.0568 -0.0593  0.0208
  969MOL0     C33622   3.508  -0.262   2.179 -0.2339  0.4831 -0.3362
  969MOL0     C33623   3.480  -0.403   2.235  0.0203  0.1051 -0.4308
  969MOL0     C33624   3.622  -0.453   2.267 -0.4431  1.0875  0.6379
  969MOL0     C33625   3.635  -0.606   2.319 -1.3583 -0.3262  0.9968
  969MOL0     C33626   3.566  -0.714   2.237  0.2847 -0.6099 -0.6965
  969MOL0     C33627   3.603  -0.846   2.302  0.1977 -0.5523 -0.3254
  969MOL0     C33628   3.681  -0.934   2.204  0.0076 -0.2261  0.3640
  969MOL0    Cl33629   3.733  -1.091   2.279  0.2332 -0.0556 -0.4480
  969MOL0     C33630   3.100  -0.283   1.975 -0.7758 -0.4310  0.6365
  969MOL0     C33631   2.972  -0.282   1.970  0.5651 -1.5100 -0.7790
  969MOL0     O33632   2.713  -0.366   2.159  1.1140 -0.5431  0.4754
  969MOL0     C33633   2.490  -0.159   1.983 -0.7582 -0.9681  0.7062
  969MOL0     C33634   2.371  -0.084   1.977  0.0805  0.3256 -0.4287
  969MOL0     N33635   1.529  -0.177   2.265 -0.3983 -0.2250 -0.0031
  969MOL0     N33636   1.401  -0.181   2.300 -0.5535 -0.1333  0.1189
  969MOL0     C33637   0.548   0.291   1.850  0.4700  0.5503  0.5016
  969MOL0     C33638   0.483   0.388   1.771 -0.1422  0.3088  0.1267
  969MOL0     C33639   0.226   0.705   1.589 -0.6671 -0.0371 -0.7143
  969MOL0     C33640   0.310   0.818   1.577 -0.3202 -0.0212 -0.0285
  969MOL0     C33641   0.278   0.939   1.505 -0.3551  0.3480  1.2619
  969MOL0     C33642   0.159   0.935   1.434 -0.1355  0.0154 -0.4355
  969MOL0     O33643   0.114   1.037   1.353  0.2429 -0.2172 -0.9341
  969MOL0     C33644   0.175   1.168   1.359 -0.4327  0.3630  0.0121
  969MOL0     C33645   0.074   1.273   1.299  0.9965  0.3704  0.2371
  969MOL0     C33646   0.121   1.419   1.305 -0.5163  0.0335  0.5648
  969MOL0     C33647   0.203   1.465   1.184  0.5028  1.4700 -0.4502
  969MOL0     C33648   0.346   1.430   1.190  0.2508 -0.0080 -0.7812
  969MOL0     C33649   0.465   1.404   1.199  0.3440  0.7069 -0.8848
  969MOL0     C33650   0.078   0.829   1.440  1.2706 -0.5557 -0.1846
  969MOL0     C33651   0.103   0.714   1.515  0.0526 -0.8432  0.0482
  969MOL0     C33652  -0.008   0.609   1.518 -0.0781 -0.2034 -0.0953
  969MOL0     H33653   0.398   0.596   2.031  2.1294 -1.0625  4.5771
  969MOL0     H33654   0.510   0.448   2.148 -0.5394  2.4277 -0.5591
  969MOL0     H33655   0.445   0.216   2.213 -1.4442 -3.1954 -0.7073
  969MOL0     H33656   0.620   0.268   2.232  0.0545 -1.2254  1.0289
  969MOL0     H33657   0.531   0.073   2.364  1.3133  0.0571  0.5449
  969MOL0     H33658   0.525  -0.013   2.203  1.2922  0.8624 -1.4830
  969MOL0     H33659   0.747  -0.066   2.292  1.3462 -0.4550 -1.8687
  969MOL0     H33660   0.767   0.053   2.167  1.5782  1.2103  1.4459
  969MOL0     H33661   0.755   0.233   2.363 -2.6685 -1.2116 -1.3688
  969MOL0     H33662   0.763   0.086   2.461  1.2248  0.4945  0.7462
  969MOL0     H33663   0.984   0.207   2.438 -0.5638  0.1527  0.9748
  969MOL0     H33664   0.996   0.164   2.271  3.6730  0.2587  2.1984
  969MOL0     H33665   0.959  -0.023   2.507  3.1525 -0.7812  1.6329
  969MOL0     H33666   0.949  -0.086   2.346 -2.1363  2.3123 -0.5986
  969MOL0     H33667   1.173  -0.110   2.464 -1.0738 -0.5596  0.5515
  969MOL0     H33668   1.208   0.056   2.470 -1.3275  2.7573 -0.3373
  969MOL0     H33669   1.157  -0.120   2.209  3.2195 -2.8105  1.6541
  969MOL0     H33670   1.191   0.054   2.200 -2.8885  1.1655  2.3062
  969MOL0     H33671   1.432   0.118   2.167  1.2710 -0.2423  0.7877
  969MOL0     H33672   1.668   0.112   2.155  1.1579  0.4469  0.1995
  969MOL0     H33673   1.691  -0.034   2.050 -1.0252  1.9454  0.0006
  969MOL0     H33674   1.822   0.015   2.317  0.8258 -3.7451  2.2289
  969MOL0     H33675   1.824  -0.138   2.248 -1.0848 -0.3433 -0.5307
  969MOL0     H33676   1.924  -0.019   2.028  1.9685  0.4411  1.0825
  969MOL0     H33677   1.939   0.122   2.141  2.3445 -0.0226  1.3603
  969MOL0     H33678   2.102   0.025   2.269  0.4159  0.9011 -0.1747
  969MOL0     H33679   2.057  -0.137   2.216 -0.9708  0.3665  1.9916
  969MOL0     H33680   2.277  -0.172   2.303  3.8271 -2.5593  2.4894
  969MOL0     H33681   2.586  -0.190   2.365  0.7413 -0.2795 -2.4434
  969MOL0     H33682   2.548  -0.358   2.356  0.3474  0.2812 -0.2842
  969MOL0     H33683   2.426  -0.260   2.421 -1.3595  0.2233 -2.3783
  969MOL0     H33684   2.895  -0.044   2.211  1.1653  0.9182  0.3368
  969MOL0     H33685   3.133  -0.045   2.215 -1.5264  1.7742 -1.2647
  969MOL0     H33686   3.419  -0.060   2.166 -0.3667  0.0759  1.2799
  969MOL0     H33687   3.341  -0.180   2.263 -1.9736  1.2025 -0.7922
  969MOL0     H33688   3.559  -0.264   2.081  3.9599 -0.4282  1.6335
  969MOL0     H33689   3.580  -0.205   2.238 -2.7690  1.3175  2.1463
  969MOL0     H33690   3.431  -0.464   2.158  0.6330  0.6674 -1.2946
  969MOL0     H33691   3.420  -0.395   2.325 -1.9169 -0.1631 -1.6500
  969MOL0     H33692   3.669  -0.384   2.337 -0.6793  0.7647  1.1243
  969MOL0     H33693   3.674  -0.454   2.171 -1.8393  2.3429 -0.1576
  969MOL0     H33694   3.742  -0.629   2.317 -1.1849  0.3355 -1.5784
  969MOL0     H33695   3.594  -0.619   2.419 -1.7071 -1.1198  0.7511
  969MOL0     H33696   3.602  -0.702   2.134  2.2169  0.6613  0.0741
  969MOL0     H33697   3.457  -0.709   2.238  0.3417  0.9055  0.0000
  969MOL0     H33698   3.512  -0.902   2.325  0.5407 -1.0541 -0.1692
  969MOL0     H33699   3.668  -0.851   2.390  2.3343  2.6260 -1.5549
  969MOL0     H33700   3.770  -0.879   2.171 -0.7649 -0.6154 -2.6522
  969MOL0     H33701   3.622  -0.962   2.117 -2.2492  1.0148  1.4229
  969MOL0     H33702   3.154  -0.338   1.899 -3.1236 -0.4259 -1.1370
  969MOL0     H33703   2.938  -0.350   1.893  1.4089 -3.5626  0.5969
  969MOL0     H33704   2.544  -0.180   1.891 -1.1629 -1.2405  0.5254
  969MOL0     H33705   2.345  -0.033   1.885  0.5082  0.7045 -0.3458
  969MOL0     H33706   0.590   0.206   1.798 -0.7945  0.6992 -0.8424
  969MOL0     H33707   0.471   0.401   1.664 -0.7058  1.4512  0.3210
  969MOL0     H33708   0.408   0.807   1.621  1.3572 -1.1082 -3.6211
  969MOL0     H33709   0.348   1.022   1.503  0.2727 -0.1788  0.6255
  969MOL0     H33710   0.204   1.187   1.462 -0.1030 -2.5281  0.5319
  969MOL0     H33711   0.271   1.163   1.306  0.0886 -0.2515  0.9772
  969MOL0     H33712  -0.026   1.277   1.344  0.0430 -0.2102 -1.6814
  969MOL0     H33713   0.046   1.240   1.199 -1.5817 -0.2029  1.0761
  969MOL0     H33714   0.035   1.486   1.299  0.6251  1.4441 -0.9653
  969MOL0     H33715   0.174   1.436   1.400 -1.4857  2.4768  0.7499
  969MOL0     H33716   0.193   1.574   1.183  2.6502  1.8265  2.5432
  969MOL0     H33717   0.166   1.420   1.091  1.1827 -2.2774  0.9124
  969MOL0     H33718   0.569   1.404   1.225 -0.1801  1.3661  1.3947
  969MOL0     H33719  -0.010   0.832   1.376  0.9686  0.2807  0.2627
  969MOL0     H33720  -0.007   0.553   1.424 -0.2317  1.4991 -1.1538
  969MOL0     H33721   0.013   0.555   1.610  2.4572 -1.0109 -1.0740
  969MOL0     H33722  -0.106   0.657   1.526  0.1394  0.2841 -0.2855
  970MOL0     O33723   5.721   5.975  11.289  0.1938 -0.3790  0.0537
  970MOL0     C33724   5.613   6.008  11.347 -0.4525 -0.0171  0.2199
  970MOL0     O33725   5.605   6.067  11.475 -0.4122  0.1746  0.2845
  970MOL0     C33726   5.709   6.130  11.539  0.2774  1.2731 -0.2214
  970MOL0     C33727   5.803   6.192  11.469 -0.2400 -0.5124  0.3041
  970MOL0     C33728   5.910   6.252  11.526  0.3094  1.0682  0.2372
  970MOL0     C33729   5.933   6.227  11.664  0.7576 -0.6498 -0.5439
  970MOL0     O33730   6.048   6.266  11.730 -0.0110  0.3898 -0.4841
  970MOL0     C33731   6.106   6.379  11.674  0.1862 -0.3460  0.2151
  970MOL0     C33732   6.165   6.467  11.775 -0.0175  0.0201 -0.0760
  970MOL0     C33733   6.074   6.505  11.896 -1.8275 -0.2894 -0.1626
  970MOL0     C33734   6.155   6.596  11.988 -0.3155  0.5969 -0.5470
  970MOL0     C33735   6.265   6.525  12.051 -0.7678 -0.1535 -0.0537
  970MOL0     C33736   6.319   6.614  12.164 -0.2004 -0.0180 -0.4941
  970MOL0     C33737   6.440   6.543  12.239 -0.1998  0.6264  0.0882
  970MOL0     C33738   6.404   6.411  12.314 -0.6467 -0.6222 -0.2690
  970MOL0     N33739   6.279   6.406  12.392 -0.2247 -0.3736 -0.0633
  970MOL0     C33740   6.154   6.363  12.347 -0.2107 -0.0607  1.4013
  970MOL0     C33741   6.069   6.395  12.445  0.2276 -0.2911 -0.2372
  970MOL0     C33742   5.927   6.395  12.433  0.4375  0.2360 -0.2338
  970MOL0     C33743   5.877   6.488  12.326 -0.2439  0.3193 -0.3203
  970MOL0     C33744   5.939   6.629  12.334  0.3824  0.3835 -1.1406
  970MOL0     C33745   5.903   6.707  12.457 -0.7501  0.4765  0.0390
  970MOL0     O33746   5.958   6.836  12.467 -1.1907  0.0306  0.3856
  970MOL0     C33747   6.088   6.855  12.459 -1.1845  0.3446  0.4268
  970MOL0     C33748   6.185   6.781  12.529  0.3564 -0.9301 -0.1343
  970MOL0     C33749   6.325   6.802  12.507 -0.7866  0.7061  0.2423
  970MOL0     C33750   6.423   6.701  12.581 -0.0174  0.0773 -0.5192
  970MOL0     C33751   6.377   6.900  12.420  0.3213  0.6372  0.0047
  970MOL0     C33752   6.516   6.920  12.385 -0.8973  0.3176  1.0483
  970MOL0     O33753   6.532   7.000  12.270 -0.6919  0.2865  0.4139
  970MOL0     C33754   6.660   7.020  12.227 -0.9631 -0.9237  0.3653
  970MOL0     C33755   6.736   6.929  12.163 -0.0010 -0.7800  0.0925
  970MOL0     C33756   6.863   6.951  12.115  0.3714 -0.0203  0.2087
  970MOL0     C33757   6.921   7.075  12.134 -0.2968 -0.1149  0.3081
  970MOL0     O33758   7.052   7.108  12.089 -0.1389  0.1885 -0.0629
  970MOL0     C33759   7.137   6.996  12.073  0.0321 -0.7344  0.0440
  970MOL0     C33760   7.283   7.022  12.094 -0.1430 -0.5214 -0.1575
  970MOL0     C33761   7.333   7.143  12.012 -0.6450 -0.3597 -0.4924
  970MOL0     C33762   7.483   7.167  12.040  0.4320  0.3192 -0.1376
  970MOL0     C33763   7.545   7.274  11.947 -0.5542  0.0040  0.7048
  970MOL0     C33764   7.702   7.297  11.976  0.3102 -0.5260 -0.4874
  970MOL0     C33765   7.789   7.178  11.930 -0.6528  0.2794  0.3745
  970MOL0     C33766   7.936   7.218  11.965  0.3894 -0.5099 -0.2875
  970MOL0    Cl33767   8.031   7.072  11.949 -0.2887 -0.0234 -0.1544
  970MOL0     C33768   6.845   7.177  12.187  0.4015 -0.3190 -0.2498
  970MOL0     C33769   6.716   7.149  12.232  0.0209  0.2125  0.2607
  970MOL0     O33770   6.607   6.854  12.439  0.2421 -0.2155  0.3749
  970MOL0     C33771   6.279   6.972  12.349  0.2026 -0.1003  0.0392
  970MOL0     C33772   6.140   6.950  12.372 -0.3524  0.0069  0.2593
  970MOL0     N33773   6.146   6.430  12.555  0.2878 -0.3904 -0.1584
  970MOL0     N33774   6.269   6.443  12.524 -0.2280  0.4530  0.3293
  970MOL0     C33775   5.839   6.165  11.734 -0.2289 -0.6255  0.2957
  970MOL0     C33776   5.726   6.105  11.675 -0.2741 -0.4559 -0.2383
  970MOL0     C33777   5.482   5.966  11.290 -0.2604 -0.6763  0.4273
  970MOL0     C33778   5.360   6.003  11.356 -0.0400 -0.0599 -0.2205
  970MOL0     C33779   5.238   5.974  11.299 -0.4156  0.3700 -0.3938
  970MOL0     C33780   5.229   5.881  11.191  0.4766 -0.8496  0.1941
  970MOL0     O33781   5.113   5.833  11.138 -0.3367  0.4777 -0.0339
  970MOL0     C33782   5.000   5.847  11.217 -0.2099  0.1530 -0.5069
  970MOL0     C33783   4.887   5.769  11.149 -0.4344 -1.4757  0.6600
  970MOL0     C33784   4.928   5.622  11.134 -0.3866  0.1826  0.0131
  970MOL0     C33785   4.822   5.540  11.059  0.2676  0.1863 -0.6353
  970MOL0     C33786   4.717   5.510  11.156  0.5677 -0.0591 -0.0383
  970MOL0     C33787   4.621   5.492  11.229 -0.3229 -0.5640 -0.5231
  970MOL0     C33788   5.341   5.829  11.137 -0.4903 -0.3923  0.1206
  970MOL0     C33789   5.466   5.877  11.181  0.6148  1.3599  0.2644
  970MOL0     C33790   5.581   5.819  11.097 -0.5233 -0.2198 -0.6158
  970MOL0     H33791   5.796   6.197  11.360  2.9478 -2.2527 -0.1234
  970MOL0     H33792   5.980   6.304  11.461  1.4769 -1.1798 -0.3712
  970MOL0     H33793   6.031   6.446  11.631  0.3687 -0.3934 -0.1903
  970MOL0     H33794   6.183   6.357  11.599  2.0748  0.5850  1.7778
  970MOL0     H33795   6.250   6.407  11.810 -0.7645 -1.0341 -0.0334
  970MOL0     H33796   6.199   6.554  11.717 -2.9686 -0.1333 -2.2582
  970MOL0     H33797   5.990   6.559  11.852 -1.3356 -1.0552 -2.1546
  970MOL0     H33798   6.039   6.414  11.947 -0.3508 -0.2469  0.9772
  970MOL0     H33799   6.183   6.689  11.938 -0.7715  0.3865 -1.2036
  970MOL0     H33800   6.079   6.618  12.063  0.6981 -0.7623  0.9386
  970MOL0     H33801   6.346   6.506  11.980 -3.8014 -3.6607 -3.0720
  970MOL0     H33802   6.241   6.424  12.087  4.0205 -0.4116  3.2915
  970MOL0     H33803   6.361   6.707  12.125  1.4598  0.4203  2.0396
  970MOL0     H33804   6.241   6.635  12.238  0.5103  0.2523  0.1945
  970MOL0     H33805   6.484   6.623  12.298  0.7624  1.6685 -1.9459
  970MOL0     H33806   6.519   6.515  12.169  3.1593 -1.5347  4.2801
  970MOL0     H33807   6.403   6.333  12.238 -0.0160 -0.6695 -0.2356
  970MOL0     H33808   6.481   6.398  12.391  0.6523  3.2667 -0.6652
  970MOL0     H33809   6.129   6.310  12.255 -0.2691 -0.4431  1.6342
  970MOL0     H33810   5.890   6.426  12.531  0.0638 -3.9679  1.1533
  970MOL0     H33811   5.882   6.296  12.422  2.6382 -0.8205 -0.1529
  970MOL0     H33812   5.909   6.442  12.232 -2.8041 -1.2646 -0.5261
  970MOL0     H33813   5.770   6.492  12.305 -0.1562  1.3204 -0.6035
  970MOL0     H33814   6.047   6.629  12.319  1.0435 -1.2972  2.5012
  970MOL0     H33815   5.907   6.696  12.253 -0.3048  1.5746  0.0687
  970MOL0     H33816   5.794   6.711  12.470 -0.5085  1.0047  2.4001
  970MOL0     H33817   5.938   6.646  12.541 -0.2034 -1.7601 -1.7384
  970MOL0     H33818   6.153   6.701  12.594 -3.8171  0.3270 -0.3741
  970MOL0     H33819   6.486   6.647  12.510  2.8068  2.0665  0.2661
  970MOL0     H33820   6.377   6.632  12.652 -0.1339  3.5600  3.1547
  970MOL0     H33821   6.497   6.756  12.640  1.1514  1.2275 -2.9032
  970MOL0     H33822   6.694   6.829  12.159  3.7244 -2.4894 -2.6708
  970MOL0     H33823   6.906   6.867  12.062  1.9566  0.7843  0.1566
  970MOL0     H33824   7.115   6.916  12.144  2.1919 -1.1282  0.3640
  970MOL0     H33825   7.122   6.955  11.973 -3.0356 -0.3185  0.2416
  970MOL0     H33826   7.292   7.037  12.202  0.1438 -0.0083 -0.2515
  970MOL0     H33827   7.338   6.929  12.072  0.8136 -0.3504  1.3520
  970MOL0     H33828   7.281   7.238  12.031  0.2900 -0.0408  0.5827
  970MOL0     H33829   7.324   7.127  11.904  1.0852  1.7346 -1.0301
  970MOL0     H33830   7.530   7.075  12.004  0.3893  0.6384 -1.0388
  970MOL0     H33831   7.506   7.176  12.147  0.7177 -3.1002  0.2049
  970MOL0     H33832   7.553   7.240  11.844  0.7175  1.2126  0.3911
  970MOL0     H33833   7.486   7.365  11.963  0.1647  0.5784  0.1556
  970MOL0     H33834   7.707   7.313  12.084 -1.6799  3.1063 -0.7312
  970MOL0     H33835   7.733   7.393  11.934  0.7686 -1.0633 -1.3887
  970MOL0     H33836   7.782   7.160  11.823 -1.7952 -0.0453  0.4960
  970MOL0     H33837   7.765   7.086  11.984 -1.8045  0.5118  0.2906
  970MOL0     H33838   7.948   7.252  12.068  3.4806  2.9442 -1.5869
  970MOL0     H33839   7.968   7.291  11.891  0.2829 -0.6288 -0.4520
  970MOL0     H33840   6.888   7.276  12.193  0.1356 -0.0433 -2.2818
  970MOL0     H33841   6.654   7.228  12.273 -0.2507 -0.4315  1.1295
  970MOL0     H33842   6.290   7.056  12.281 -0.3056 -0.8853 -1.0501
  970MOL0     H33843   6.075   7.016  12.315 -0.8885 -0.3799  0.4120
  970MOL0     H33844   5.862   6.149  11.839  0.5361 -0.0748  0.2182
  970MOL0     H33845   5.654   6.040  11.724 -1.2361 -0.8507 -2.0503
  970MOL0     H33846   5.369   6.070  11.441  1.2897 -0.1710 -0.2460
  970MOL0     H33847   5.151   6.027  11.334 -1.1128 -0.7929 -0.2935
  970MOL0     H33848   5.017   5.809  11.318 -0.2679  0.8471 -0.2323
  970MOL0     H33849   4.970   5.951  11.231 -0.6899 -0.1621  0.9355
  970MOL0     H33850   4.867   5.798  11.046  1.3102 -3.3788 -0.2962
  970MOL0     H33851   4.802   5.770  11.218  0.1138 -0.7450  1.3563
  970MOL0     H33852   5.021   5.620  11.076 -0.9443 -0.5125 -0.8855
  970MOL0     H33853   4.951   5.590  11.235 -1.4264  1.3010  0.6399
  970MOL0     H33854   4.857   5.443  11.022 -0.8980 -1.4777  2.3302
  970MOL0     H33855   4.787   5.597  10.972 -0.6361  0.0490 -0.3723
  970MOL0     H33856   4.543   5.489  11.303  0.3380 -1.7529  0.1692
  970MOL0     H33857   5.337   5.767  11.049  1.4984 -1.1122  0.4814
  970MOL0     H33858   5.550   5.738  11.030  0.3339  0.5395 -1.9839
  970MOL0     H33859   5.620   5.897  11.031 -0.8915 -0.7693 -1.5030
  970MOL0     H33860   5.665   5.784  11.157  0.5087 -0.5995 -2.2181
  971MOL0     O33861   0.418   8.649   0.042  0.2804  0.2302 -0.1675
  971MOL0     C33862   0.420   8.617  -0.072 -0.3183 -0.8757  1.6845
  971MOL0     O33863   0.533   8.611  -0.148 -0.6044 -0.9710  0.3874
  971MOL0     C33864   0.647   8.680  -0.121 -0.5751 -0.5668 -0.4453
  971MOL0     C33865   0.730   8.722  -0.226 -0.1386 -0.6898  0.6034
  971MOL0     C33866   0.860   8.771  -0.204  0.3618 -0.9254  0.0002
  971MOL0     C33867   0.901   8.813  -0.074  0.3672  0.0016  0.0587
  971MOL0     O33868   1.023   8.865  -0.040 -0.2519 -0.2229 -0.6196
  971MOL0     C33869   1.112   8.899  -0.148 -0.8654  0.1754 -0.0323
  971MOL0     C33870   1.238   8.977  -0.099  0.8796  0.7740  0.1493
  971MOL0     C33871   1.336   8.892  -0.015 -0.5312  0.2642 -1.1117
  971MOL0     C33872   1.452   8.972   0.036 -1.3043  0.1567  0.3615
  971MOL0     C33873   1.544   8.881   0.113  0.2508  0.6958 -0.6861
  971MOL0     C33874   1.678   8.947   0.147 -0.4619 -0.7214 -0.5559
  971MOL0     C33875   1.759   8.866   0.242  0.9018  0.0511 -0.1387
  971MOL0     C33876   1.702   8.858   0.383 -0.0029 -0.4287  0.2664
  971MOL0     N33877   1.801   8.849   0.495  0.4752 -0.5622 -0.0974
  971MOL0     C33878   1.843   8.954   0.569 -0.5907  0.0167 -0.3368
  971MOL0     C33879   1.951   8.910   0.641  0.0470 -0.4860  0.3925
  971MOL0     C33880   2.051   8.990   0.722 -0.1945  0.6011 -0.1805
  971MOL0     C33881   2.055   8.934   0.861 -1.0622  0.2932  0.9394
  971MOL0     C33882   2.163   8.999   0.939  0.0374  0.0207 -0.4895
  971MOL0     C33883   2.177   8.945   1.080  0.2139  0.3174 -0.0935
  971MOL0     O33884   2.285   9.002   1.163  0.2764 -1.0248  0.2426
  971MOL0     C33885   2.413   9.024   1.112  0.1970  0.0430  0.2343
  971MOL0     C33886   2.473   8.935   1.033 -0.5533 -0.0162 -0.1853
  971MOL0     C33887   2.618   8.942   1.011 -0.2792 -0.6487 -0.2937
  971MOL0     C33888   2.695   8.827   0.932  0.5969 -0.3716 -0.4125
  971MOL0     C33889   2.688   9.059   1.063 -0.8599  0.5344 -0.1100
  971MOL0     C33890   2.827   9.085   1.033  0.0931 -0.8471  0.6878
  971MOL0     O33891   2.903   9.142   1.123  0.7324  1.1955  0.0837
  971MOL0     C33892   3.032   9.166   1.106  0.6505  0.0562 -0.1696
  971MOL0     C33893   3.137   9.080   1.141  0.8787 -0.1157 -0.2546
  971MOL0     C33894   3.273   9.125   1.130 -0.3738  0.5308 -0.6641
  971MOL0     C33895   3.297   9.259   1.075 -0.5706  0.6258 -0.2658
  971MOL0     O33896   3.425   9.312   1.047 -0.0375 -0.6842  0.5651
  971MOL0     C33897   3.515   9.315   1.155 -0.1769 -0.7055  0.3345
  971MOL0     C33898   3.650   9.255   1.110  0.5810 -0.1878 -0.1680
  971MOL0     C33899   3.643   9.106   1.086  0.5290 -0.4439  0.5616
  971MOL0     C33900   3.788   9.061   1.063  0.3929  0.0007 -0.0478
  971MOL0     C33901   3.788   8.919   0.995 -0.8489  0.3824  0.0340
  971MOL0     C33902   3.708   8.819   1.080 -0.4620 -1.1609  0.4144
  971MOL0     C33903   3.733   8.681   1.023 -0.0033  1.0217 -0.4292
  971MOL0     C33904   3.708   8.571   1.120  0.3868  0.1745  0.1769
  971MOL0    Cl33905   3.750   8.414   1.052 -0.1818 -0.0556  0.2989
  971MOL0     C33906   3.195   9.332   1.036  0.3383 -0.2867  0.9849
  971MOL0     C33907   3.060   9.290   1.049  0.4227 -0.1612  0.8980
  971MOL0     O33908   2.874   9.042   0.931 -0.5611 -0.2288  0.8484
  971MOL0     C33909   2.618   9.155   1.143  0.1929 -0.4714  0.0198
  971MOL0     C33910   2.479   9.130   1.161 -0.2180 -0.3984  0.0198
  971MOL0     N33911   1.975   8.778   0.608 -0.0288  0.6876 -0.2275
  971MOL0     N33912   1.882   8.741   0.523 -0.5110 -0.4456 -1.0969
  971MOL0     C33913   0.816   8.784   0.032 -0.9744  0.3604  1.1522
  971MOL0     C33914   0.700   8.705   0.013 -0.0618  0.0296 -0.3729
  971MOL0     C33915   0.297   8.568  -0.142  0.4092  0.9386  0.7189
  971MOL0     C33916   0.312   8.516  -0.274  0.3516 -0.1127 -0.3562
  971MOL0     C33917   0.206   8.445  -0.329 -0.0069  0.0194 -1.0163
  971MOL0     C33918   0.078   8.432  -0.269  0.2231  0.1785 -0.2644
  971MOL0     O33919  -0.036   8.372  -0.322 -0.7276  0.2260 -0.8061
  971MOL0     C33920  -0.044   8.341  -0.461  0.1932 -0.3273  0.9955
  971MOL0     C33921  -0.169   8.250  -0.479  0.8795  0.5373  0.6453
  971MOL0     C33922  -0.205   8.251  -0.625 -0.0539 -0.0005 -0.7518
  971MOL0     C33923  -0.317   8.150  -0.654  0.9626  0.2480 -0.4174
  971MOL0     C33924  -0.374   8.144  -0.792 -0.1772  0.5190  0.0800
  971MOL0     C33925  -0.430   8.129  -0.896  0.6793 -0.1003  0.0948
  971MOL0     C33926   0.059   8.488  -0.145 -0.0672  0.7114 -0.4384
  971MOL0     C33927   0.167   8.557  -0.079  0.2479  0.4799 -0.2788
  971MOL0     C33928   0.141   8.627   0.051 -0.3491  0.2054 -0.5980
  971MOL0     H33929   0.705   8.701  -0.330  0.0799 -1.1124  0.6349
  971MOL0     H33930   0.924   8.765  -0.291  0.8779 -0.0157  0.3014
  971MOL0     H33931   1.056   8.964  -0.216 -3.1593 -0.7790  0.8738
  971MOL0     H33932   1.141   8.811  -0.205  1.6850  0.1829  1.1233
  971MOL0     H33933   1.289   9.013  -0.189 -1.0950  1.5531 -0.6998
  971MOL0     H33934   1.210   9.066  -0.042  2.4444  0.8411  0.8757
  971MOL0     H33935   1.279   8.855   0.070  1.0636  2.0816  0.8677
  971MOL0     H33936   1.371   8.815  -0.085 -0.5406 -0.1057 -0.7085
  971MOL0     H33937   1.507   9.029  -0.040 -0.4480 -2.5302 -1.1939
  971MOL0     H33938   1.420   9.046   0.110  0.1356  0.4102  0.7721
  971MOL0     H33939   1.563   8.789   0.058 -2.1900 -1.2612  1.4612
  971MOL0     H33940   1.490   8.847   0.203  2.2287 -0.9346 -0.0323
  971MOL0     H33941   1.739   8.959   0.056 -3.1808 -4.4821 -3.2004
  971MOL0     H33942   1.660   9.045   0.192  1.2882 -0.5581 -0.1305
  971MOL0     H33943   1.851   8.924   0.253  1.9512 -1.4183 -0.8470
  971MOL0     H33944   1.778   8.766   0.203  0.9367  0.4159 -1.0887
  971MOL0     H33945   1.644   8.951   0.386  0.6133 -0.0217 -0.2225
  971MOL0     H33946   1.634   8.773   0.380 -1.0348  0.3852 -0.7694
  971MOL0     H33947   1.795   9.051   0.569 -3.7710 -1.4419  0.3981
  971MOL0     H33948   2.029   9.096   0.732 -0.5125  0.4527  0.7591
  971MOL0     H33949   2.150   8.986   0.675  0.4740 -1.0835  1.2620
  971MOL0     H33950   1.961   8.950   0.914 -1.4944  0.4384  0.1360
  971MOL0     H33951   2.079   8.828   0.850  0.8857  0.6806  1.0868
  971MOL0     H33952   2.262   8.994   0.892 -0.7181 -2.9960 -2.0415
  971MOL0     H33953   2.133   9.104   0.946 -1.4250 -0.4083 -0.0623
  971MOL0     H33954   2.077   8.952   1.124 -0.2263 -1.9395 -0.5996
  971MOL0     H33955   2.202   8.839   1.068  0.4436  0.5504 -1.8935
  971MOL0     H33956   2.432   8.844   0.991  1.9775 -2.0523  1.4127
  971MOL0     H33957   2.656   8.728   0.957  2.0053 -1.0587 -0.8327
  971MOL0     H33958   2.804   8.815   0.938  1.1528  2.2169 -2.8743
  971MOL0     H33959   2.676   8.849   0.827 -0.2416  2.6448  0.2556
  971MOL0     H33960   3.115   8.984   1.187  0.5404 -0.8186 -1.8281
  971MOL0     H33961   3.355   9.064   1.163 -1.1744 -0.8308 -1.1193
  971MOL0     H33962   3.518   9.422   1.178 -0.1506 -0.8001  0.7736
  971MOL0     H33963   3.478   9.277   1.250  1.9736  0.4937  1.7418
  971MOL0     H33964   3.679   9.309   1.019 -1.3099 -0.7078 -1.1276
  971MOL0     H33965   3.724   9.273   1.188  0.1517 -0.1280  0.2299
  971MOL0     H33966   3.589   9.080   0.995 -1.8055  2.2504  1.0762
  971MOL0     H33967   3.599   9.055   1.172  0.3631 -2.0984 -0.4500
  971MOL0     H33968   3.834   9.059   1.161 -0.5554  0.6403  0.4267
  971MOL0     H33969   3.837   9.127   0.991 -3.2253  0.9724 -1.8463
  971MOL0     H33970   3.737   8.945   0.901 -0.5478  0.1510 -0.1988
  971MOL0     H33971   3.889   8.884   0.972 -1.0366 -1.1948  1.4605
  971MOL0     H33972   3.601   8.841   1.083 -0.5684 -1.5101 -0.6603
  971MOL0     H33973   3.747   8.821   1.183 -0.9877  0.1789  0.6145
  971MOL0     H33974   3.838   8.674   0.994 -0.2813 -1.6468 -1.1122
  971MOL0     H33975   3.669   8.674   0.934 -1.3541 -1.4375  0.6076
  971MOL0     H33976   3.603   8.559   1.147  0.4281 -4.4194 -0.8426
  971MOL0     H33977   3.772   8.586   1.207 -1.8122 -0.2811  1.9565
  971MOL0     H33978   3.197   9.436   1.005  1.7760  0.4718  3.3752
  971MOL0     H33979   2.976   9.348   1.011 -0.5695 -3.2037 -2.0254
  971MOL0     H33980   2.674   9.231   1.196 -2.2925  1.4430  0.1212
  971MOL0     H33981   2.426   9.200   1.225  1.0013 -0.4591  1.1558
  971MOL0     H33982   0.847   8.817   0.131  1.8072  1.2484  0.1011
  971MOL0     H33983   0.640   8.682   0.100  1.4230 -2.6339  0.0782
  971MOL0     H33984   0.404   8.523  -0.330  0.5489  2.5570  0.1433
  971MOL0     H33985   0.223   8.393  -0.423 -0.0543 -0.2279 -0.8877
  971MOL0     H33986  -0.065   8.434  -0.513 -2.7464 -2.3840 -1.8766
  971MOL0     H33987   0.044   8.303  -0.513 -0.0851  2.2217 -1.5630
  971MOL0     H33988  -0.262   8.277  -0.427 -0.5634 -1.4498 -0.7552
  971MOL0     H33989  -0.139   8.149  -0.451 -1.1113  0.1394  1.5557
  971MOL0     H33990  -0.240   8.352  -0.650  1.0728  0.8653  0.9352
  971MOL0     H33991  -0.115   8.235  -0.685 -1.9233  0.4659 -3.8824
  971MOL0     H33992  -0.397   8.173  -0.583 -0.1844 -0.5032 -1.4104
  971MOL0     H33993  -0.293   8.047  -0.624 -1.7761  0.3909  2.8473
  971MOL0     H33994  -0.497   8.112  -0.978 -1.0353 -3.9343  2.0277
  971MOL0     H33995  -0.042   8.474  -0.110 -0.7235 -1.0123 -2.7762
  971MOL0     H33996   0.173   8.731   0.041 -0.0814 -0.0530 -2.7923
  971MOL0     H33997   0.035   8.622   0.079 -0.9895  0.2034 -2.8103
  971MOL0     H33998   0.193   8.572   0.130 -1.6573 -2.0551 -1.2402
  972MOL0     O33999   1.396   7.899  11.178 -0.0932 -0.2427  0.1152
  972MOL0     C34000   1.461   7.943  11.274  0.5684 -0.1144 -0.4786
  972MOL0     O34001   1.404   8.010  11.377  0.2806  0.0289 -0.5206
  972MOL0     C34002   1.276   8.063  11.370  0.0219 -0.5551  0.4805
  972MOL0     C34003   1.209   8.078  11.497  0.3386  0.5927  0.3170
  972MOL0     C34004   1.088   8.150  11.503 -0.2442  0.4710 -0.0504
  972MOL0     C34005   1.007   8.195  11.382  0.6167  0.0823 -0.9750
  972MOL0     O34006   0.889   8.276  11.384  0.1963 -0.4208 -0.1355
  972MOL0     C34007   0.811   8.304  11.506  1.0737  0.5177  1.5819
  972MOL0     C34008   0.659   8.323  11.484  1.3855 -0.2113 -0.2932
  972MOL0     C34009   0.587   8.191  11.452 -0.2215 -0.2983 -0.3694
  972MOL0     C34010   0.452   8.227  11.379 -0.1455 -1.0326  0.0304
  972MOL0     C34011   0.388   8.094  11.330 -0.5324  0.7865  0.1687
  972MOL0     C34012   0.275   8.117  11.231 -0.1111 -1.3564  0.3625
  972MOL0     C34013   0.188   7.993  11.204 -0.8879 -0.3132  0.0288
  972MOL0     C34014   0.117   7.986  11.078 -0.5057  0.7232  0.8101
  972MOL0     N34015   0.220   7.977  10.976  0.1604 -0.5102  0.4689
  972MOL0     C34016   0.306   7.874  10.953 -0.3951  0.7594  0.6007
  972MOL0     C34017   0.394   7.915  10.854  0.4815  0.2212  0.0728
  972MOL0     C34018   0.525   7.856  10.805 -0.6792  0.2344  0.3648
  972MOL0     C34019   0.498   7.746  10.710 -0.1087 -0.1518 -0.2748
  972MOL0     C34020   0.622   7.717  10.629 -0.3673  0.9118 -0.2795
  972MOL0     C34021   0.589   7.601  10.535  0.5296 -0.0996 -0.1109
  972MOL0     O34022   0.548   7.480  10.598  0.0928 -0.1371 -0.1894
  972MOL0     C34023   0.640   7.408  10.670  0.5077  0.8620  0.8435
  972MOL0     C34024   0.598   7.298  10.752 -0.4745 -1.0489 -0.2504
  972MOL0     C34025   0.683   7.216  10.823 -0.8499 -1.1362  0.5178
  972MOL0     C34026   0.619   7.114  10.906 -0.3287 -0.6908  0.2816
  972MOL0     C34027   0.822   7.239  10.822  0.4127 -0.1400  0.1085
  972MOL0     C34028   0.931   7.162  10.884 -0.5565  0.9233 -0.2191
  972MOL0     O34029   1.045   7.154  10.815  0.1745  1.2215  0.5002
  972MOL0     C34030   1.159   7.089  10.854 -0.3487  1.0509 -0.8468
  972MOL0     C34031   1.266   7.130  10.775 -0.0872 -0.6187 -0.1831
  972MOL0     C34032   1.402   7.090  10.803 -0.3752  0.5552 -0.2290
  972MOL0     C34033   1.422   7.008  10.919  0.1485  0.3902 -0.3963
  972MOL0     O34034   1.551   6.979  10.953 -0.0315 -0.4241 -0.0856
  972MOL0     C34035   1.576   6.873  11.056  0.4912  0.1012  0.6411
  972MOL0     C34036   1.716   6.880  11.122  0.2435 -1.0067  0.0630
  972MOL0     C34037   1.718   7.011  11.216 -0.0621 -0.2109 -0.7581
  972MOL0     C34038   1.856   7.027  11.271  0.2329  0.0910 -0.4164
  972MOL0     C34039   1.866   7.116  11.402 -0.2250  0.4528  0.2687
  972MOL0     C34040   2.009   7.151  11.443  0.3781  0.6567 -0.2425
  972MOL0     C34041   1.995   7.229  11.579  0.1874 -1.1397 -0.9817
  972MOL0     C34042   2.111   7.320  11.626 -1.1461  1.1256  0.5951
  972MOL0    Cl34043   2.253   7.220  11.669  0.0423 -0.0373  0.2689
  972MOL0     C34044   1.311   6.949  10.989  0.0518 -0.3975  0.1742
  972MOL0     C34045   1.182   6.995  10.964  0.2775 -0.1864  0.8295
  972MOL0     O34046   0.902   7.105  10.983  0.1131 -0.0585 -0.3062
  972MOL0     C34047   0.866   7.342  10.740  0.0221  0.5829 -0.5086
  972MOL0     C34048   0.779   7.421  10.666  0.0838  0.1615  0.7923
  972MOL0     N34049   0.346   8.039  10.807 -0.7861 -0.3072  0.3744
  972MOL0     N34050   0.245   8.074  10.880  0.7960  0.0407 -0.9810
  972MOL0     C34051   1.083   8.189  11.266  0.7131 -0.1375 -0.0932
  972MOL0     C34052   1.211   8.123  11.259  0.5063 -1.1033  0.9386
  972MOL0     C34053   1.610   7.920  11.281 -0.4423 -0.1763 -0.5252
  972MOL0     C34054   1.671   7.976  11.399 -0.6901  0.1974  0.5220
  972MOL0     C34055   1.806   7.977  11.414  0.4250  0.3438 -0.7671
  972MOL0     C34056   1.885   7.912  11.320  0.4122  0.8496 -0.0863
  972MOL0     O34057   2.024   7.903  11.341 -0.3690  0.2605 -0.1873
  972MOL0     C34058   2.092   8.025  11.385 -0.5111  0.1124 -0.2976
  972MOL0     C34059   2.232   8.043  11.322 -0.9247  0.8618 -0.0776
  972MOL0     C34060   2.320   8.148  11.405 -0.2632  0.5977 -0.3124
  972MOL0     C34061   2.448   8.181  11.320  0.0721 -0.5105 -0.1746
  972MOL0     C34062   2.557   8.233  11.402  0.7858 -0.3203  0.0772
  972MOL0     C34063   2.650   8.274  11.461 -0.3239 -0.8148 -0.2782
  972MOL0     C34064   1.826   7.855  11.201  0.1141  0.0245 -0.7115
  972MOL0     C34065   1.691   7.852  11.191  1.3351  0.0629  0.2752
  972MOL0     C34066   1.634   7.778  11.071 -0.0922 -0.2520  0.3334
  972MOL0     H34067   1.267   8.028  11.573 -1.7454  1.4076  2.5584
  972MOL0     H34068   1.038   8.168  11.598 -2.4167 -0.1500 -1.0318
  972MOL0     H34069   0.844   8.395  11.557  1.5890  1.7615 -0.8302
  972MOL0     H34070   0.817   8.220  11.576  3.0994  0.8525  1.8695
  972MOL0     H34071   0.608   8.372  11.567 -0.2452 -0.5717 -1.0327
  972MOL0     H34072   0.633   8.400  11.410 -0.6302 -2.8417 -2.5530
  972MOL0     H34073   0.661   8.128  11.403 -0.7791 -0.7849 -0.6009
  972MOL0     H34074   0.555   8.133  11.539 -3.0230 -2.7245 -2.7631
  972MOL0     H34075   0.385   8.273  11.452  1.3692 -1.1385  1.5407
  972MOL0     H34076   0.459   8.298  11.296  1.5314 -0.3584  0.7120
  972MOL0     H34077   0.353   8.037  11.417  0.3580 -1.0303 -0.6185
  972MOL0     H34078   0.462   8.030  11.280 -1.8766  0.6149 -1.7208
  972MOL0     H34079   0.215   8.199  11.270 -0.5458 -2.1638  1.4645
  972MOL0     H34080   0.310   8.159  11.137  1.5229 -0.8312  1.1684
  972MOL0     H34081   0.105   7.993  11.276 -1.7381 -1.2451 -0.9140
  972MOL0     H34082   0.253   7.907  11.224  1.1990  1.3394  0.6677
  972MOL0     H34083   0.057   7.894  11.084 -1.0492  1.1247  1.6432
  972MOL0     H34084   0.045   8.067  11.072 -2.7478 -1.2156 -0.1402
  972MOL0     H34085   0.308   7.777  11.002 -0.3469  1.1673  1.4093
  972MOL0     H34086   0.591   7.817  10.884  1.4586  1.1777 -0.8638
  972MOL0     H34087   0.594   7.930  10.764 -0.3804  0.3107  0.9932
  972MOL0     H34088   0.474   7.663  10.777 -0.6358 -2.3628 -3.0134
  972MOL0     H34089   0.419   7.772  10.639  0.9778  0.9120 -1.1349
  972MOL0     H34090   0.644   7.804  10.567  0.6433  0.5112 -0.5108
  972MOL0     H34091   0.714   7.702  10.687 -0.4423  0.8614 -0.1722
  972MOL0     H34092   0.505   7.630  10.471  0.2293 -1.5315 -0.3865
  972MOL0     H34093   0.678   7.593  10.472  0.6423  3.9940 -0.7688
  972MOL0     H34094   0.491   7.285  10.765 -0.1798 -1.5745  2.1444
  972MOL0     H34095   0.667   7.103  11.004 -2.5877  0.6177  1.6230
  972MOL0     H34096   0.620   7.023  10.845 -2.7647 -1.9503  1.9173
  972MOL0     H34097   0.513   7.132  10.930 -0.0078  2.9041 -0.4796
  972MOL0     H34098   1.242   7.202  10.696  1.8895  0.0169 -0.2713
  972MOL0     H34099   1.478   7.134  10.739 -1.6839  0.8804 -1.6149
  972MOL0     H34100   1.505   6.878  11.139  0.3227  0.7148  0.4640
  972MOL0     H34101   1.567   6.777  11.004  0.4343  0.0931  0.6650
  972MOL0     H34102   1.726   6.784  11.173 -2.0766 -2.1714 -1.5025
  972MOL0     H34103   1.797   6.881  11.048  0.5712  2.4301  0.3110
  972MOL0     H34104   1.660   7.011  11.309  2.8925  0.5514  1.2058
  972MOL0     H34105   1.705   7.102  11.156  0.8910  0.5798  0.2094
  972MOL0     H34106   1.923   7.065  11.194  0.0630 -0.0454 -0.6318
  972MOL0     H34107   1.896   6.931  11.302  1.5162  0.8609  0.3784
  972MOL0     H34108   1.803   7.205  11.409 -0.8356  0.2338 -1.6818
  972MOL0     H34109   1.829   7.059  11.488  2.9970 -0.6440  1.0513
  972MOL0     H34110   2.067   7.206  11.369  0.4009 -1.2400 -1.7204
  972MOL0     H34111   2.069   7.061  11.459  0.1439  0.3007 -1.3167
  972MOL0     H34112   1.973   7.159  11.661  1.9318 -1.0738 -0.4111
  972MOL0     H34113   1.911   7.299  11.586 -0.1267 -1.6374  0.8602
  972MOL0     H34114   2.060   7.363  11.712 -1.7048 -1.1333  1.4586
  972MOL0     H34115   2.129   7.403  11.557 -0.6930 -0.7397 -1.6393
  972MOL0     H34116   1.303   6.869  11.061 -0.1818 -1.1031 -0.6214
  972MOL0     H34117   1.096   6.964  11.022 -1.1150 -0.6771 -1.4109
  972MOL0     H34118   0.972   7.364  10.729  0.5683 -1.8192 -0.5140
  972MOL0     H34119   0.825   7.500  10.607 -0.8082  1.6827  2.0491
  972MOL0     H34120   1.047   8.237  11.175 -1.9644 -0.2582  0.8256
  972MOL0     H34121   1.267   8.128  11.167  0.0677  1.3738  0.7371
  972MOL0     H34122   1.611   8.024  11.476  0.0061  0.7608  0.7235
  972MOL0     H34123   1.860   8.021  11.497 -0.5256  0.5821 -0.2671
  972MOL0     H34124   2.032   8.107  11.345 -0.6736  0.4514  0.6119
  972MOL0     H34125   2.095   8.031  11.494  0.1477  0.7727 -0.3409
  972MOL0     H34126   2.223   8.054  11.214 -2.4429  0.3548 -0.0387
  972MOL0     H34127   2.288   7.951  11.341 -0.1512  1.1215 -1.0676
  972MOL0     H34128   2.272   8.245  11.423 -0.8369  0.2338  0.1765
  972MOL0     H34129   2.353   8.106  11.500 -3.6438  2.3819  1.8741
  972MOL0     H34130   2.434   8.255  11.240 -2.6721 -0.8944 -0.1101
  972MOL0     H34131   2.490   8.089  11.277 -0.6225 -1.0875  0.3491
  972MOL0     H34132   2.726   8.327  11.515  0.3051 -1.9385 -0.0265
  972MOL0     H34133   1.895   7.787  11.151  0.1623 -0.6889  0.3033
  972MOL0     H34134   1.602   7.842  10.988 -0.5070 -1.0573 -0.1401
  972MOL0     H34135   1.710   7.706  11.039  1.1394  0.1571  2.1876
  972MOL0     H34136   1.537   7.732  11.093 -1.0367  2.5621  2.7100
  973MOL0     O34137   3.543   7.738   2.967 -0.0599 -0.0702  0.4588
  973MOL0     C34138   3.505   7.770   2.855  0.1211 -0.1758 -0.1679
  973MOL0     O34139   3.575   7.860   2.772  0.8561 -0.5744 -0.1616
  973MOL0     C34140   3.693   7.915   2.816  1.1026  0.2528 -0.0839
  973MOL0     C34141   3.811   7.868   2.757 -0.3039 -0.5703  0.4638
  973MOL0     C34142   3.938   7.914   2.815  0.2091 -0.2748 -0.4218
  973MOL0     C34143   3.943   8.021   2.905 -0.2540  0.6440  1.3713
  973MOL0     O34144   4.050   8.091   2.951 -0.1792  0.4711 -0.0571
  973MOL0     C34145   4.184   8.049   2.926  0.1067  0.1561  0.1233
  973MOL0     C34146   4.277   8.123   3.023  0.8689 -0.1209  0.0393
  973MOL0     C34147   4.427   8.083   3.009 -0.6417 -0.5524  0.2617
  973MOL0     C34148   4.501   8.169   2.901 -0.4759  0.5238  0.5456
  973MOL0     C34149   4.649   8.111   2.872  0.2285 -0.2965 -1.1863
  973MOL0     C34150   4.758   8.161   2.960 -0.2937  0.5372  0.0802
  973MOL0     C34151   4.905   8.114   2.916 -0.4001 -0.4040  0.4040
  973MOL0     C34152   5.017   8.194   2.980  0.8314  0.0922 -0.1822
  973MOL0     N34153   5.157   8.157   2.952  0.7406 -0.0061  1.0590
  973MOL0     C34154   5.199   8.030   2.917 -0.6379  0.6678  0.0731
  973MOL0     C34155   5.328   8.049   2.891  0.0250  0.4488  0.1219
  973MOL0     C34156   5.415   7.932   2.839  0.2164 -0.1900 -0.1301
  973MOL0     C34157   5.561   7.971   2.812  0.0347 -0.3757  0.4303
  973MOL0     C34158   5.652   7.866   2.758 -0.6313 -0.7591  0.0329
  973MOL0     C34159   5.698   7.769   2.867  0.7171  0.1419 -0.1170
  973MOL0     O34160   5.600   7.674   2.893 -0.9045 -0.1457  0.3992
  973MOL0     C34161   5.622   7.586   2.995  0.0637  0.3155  0.2595
  973MOL0     C34162   5.752   7.554   3.060 -0.4843 -0.5045  0.0504
  973MOL0     C34163   5.762   7.472   3.169  0.1843 -0.1942 -0.0618
  973MOL0     C34164   5.900   7.435   3.218 -0.2280 -0.0020 -0.9076
  973MOL0     C34165   5.651   7.405   3.215  0.5434  0.4582  0.4425
  973MOL0     C34166   5.653   7.292   3.314  0.9084 -0.5428 -0.2162
  973MOL0     O34167   5.600   7.167   3.279 -0.3957 -0.5014  0.5356
  973MOL0     C34168   5.648   7.061   3.355 -0.3631 -0.0540 -0.2289
  973MOL0     C34169   5.552   6.971   3.407 -0.1684  1.3866 -0.5930
  973MOL0     C34170   5.597   6.865   3.489  0.1654  0.7694 -0.9754
  973MOL0     C34171   5.734   6.842   3.506  0.7486  1.2113  0.3485
  973MOL0     O34172   5.777   6.731   3.572 -0.2028  0.1917  0.4749
  973MOL0     C34173   5.786   6.734   3.719  0.2151  0.7133 -0.2406
  973MOL0     C34174   5.817   6.594   3.771 -0.0614 -0.4498  0.5422
  973MOL0     C34175   5.811   6.593   3.923 -0.2337 -0.3287 -0.2810
  973MOL0     C34176   5.845   6.450   3.976 -0.4896  0.2759  0.2118
  973MOL0     C34177   5.716   6.383   4.034  0.2664 -0.0126 -0.3474
  973MOL0     C34178   5.705   6.397   4.184 -1.0426 -0.3261 -0.4442
  973MOL0     C34179   5.570   6.377   4.239 -0.1408 -0.2260  0.3674
  973MOL0     C34180   5.538   6.406   4.390  0.0999 -0.7195  0.1403
  973MOL0    Cl34181   5.362   6.399   4.425 -0.6550 -0.0831  0.0028
  973MOL0     C34182   5.826   6.927   3.451 -0.4723 -0.7662 -0.6215
  973MOL0     C34183   5.783   7.046   3.383  0.0042 -0.1476 -0.4216
  973MOL0     O34184   5.702   7.318   3.422  0.1212  0.2131 -0.2872
  973MOL0     C34185   5.527   7.430   3.160  0.1200 -0.8238  0.5032
  973MOL0     C34186   5.510   7.523   3.050  1.1171 -0.0354 -0.3061
  973MOL0     N34187   5.369   8.182   2.909 -0.4915  0.3249 -0.7093
  973MOL0     N34188   5.260   8.240   2.950 -0.2158  0.5066 -0.3537
  973MOL0     C34189   3.820   8.042   2.968 -0.4357 -0.4500  0.0043
  973MOL0     C34190   3.698   7.993   2.927 -0.3559  0.2815 -0.1890
  973MOL0     C34191   3.381   7.705   2.797  0.1468 -0.0016 -0.6723
  973MOL0     C34192   3.334   7.750   2.668 -0.8581 -0.6694 -0.5150
  973MOL0     C34193   3.210   7.704   2.627 -0.1549 -0.4267  0.3524
  973MOL0     C34194   3.128   7.626   2.701 -0.0906  0.0723  0.4358
  973MOL0     O34195   2.997   7.608   2.677 -0.2131 -0.5845 -0.0144
  973MOL0     C34196   2.944   7.613   2.545 -0.3261 -0.0535  0.6443
  973MOL0     C34197   2.989   7.483   2.469  0.0010 -0.6824  0.3683
  973MOL0     C34198   2.927   7.356   2.536 -0.4030  0.1949  0.1279
  973MOL0     C34199   2.962   7.230   2.460  0.6235  0.4090 -0.8844
  973MOL0     C34200   2.903   7.106   2.510  0.0059 -0.4185 -0.1633
  973MOL0     C34201   2.842   7.019   2.557 -0.0755 -0.1528 -0.1438
  973MOL0     C34202   3.170   7.584   2.825  0.1746  0.8022  0.2487
  973MOL0     C34203   3.301   7.610   2.873  0.2064 -0.1072  0.6235
  973MOL0     C34204   3.330   7.554   3.005  0.4685 -0.1001 -0.2370
  973MOL0     H34205   3.809   7.794   2.677 -1.4339  1.6934 -1.7166
  973MOL0     H34206   4.032   7.876   2.778  0.3931  0.5261 -0.7853
  973MOL0     H34207   4.206   8.068   2.821  0.9403 -1.7441 -0.0868
  973MOL0     H34208   4.200   7.942   2.940  2.7792  0.4878  0.0847
  973MOL0     H34209   4.265   8.229   3.002  1.2513  0.3660  2.0898
  973MOL0     H34210   4.239   8.110   3.125 -0.5112 -2.4039 -0.6793
  973MOL0     H34211   4.465   8.103   3.110 -2.5897 -3.8251  1.8044
  973MOL0     H34212   4.434   7.974   3.002 -2.1668 -0.7551  1.3223
  973MOL0     H34213   4.438   8.166   2.812  2.5792  0.5961 -1.7577
  973MOL0     H34214   4.508   8.275   2.928  0.6317  0.9164 -1.1673
  973MOL0     H34215   4.672   8.142   2.770 -1.5189  0.9811 -1.2311
  973MOL0     H34216   4.642   8.002   2.878  2.6022 -0.5147 -1.4663
  973MOL0     H34217   4.750   8.270   2.963 -0.6616  0.6677 -2.7680
  973MOL0     H34218   4.738   8.117   3.058 -3.1781 -1.5084 -1.2755
  973MOL0     H34219   4.910   8.132   2.808  0.5847  1.2968  0.6931
  973MOL0     H34220   4.925   8.008   2.935 -0.2462 -0.3346  0.6320
  973MOL0     H34221   5.016   8.300   2.954 -0.0975 -1.0904 -6.4524
  973MOL0     H34222   4.999   8.172   3.086  0.0338  0.6188 -0.2039
  973MOL0     H34223   5.150   7.934   2.928 -3.0802  1.9565  1.4354
  973MOL0     H34224   5.364   7.885   2.754 -1.2858  2.5717 -0.8640
  973MOL0     H34225   5.416   7.850   2.912  0.8741 -1.2782 -1.3185
  973MOL0     H34226   5.566   8.061   2.750 -1.3336  0.4568  1.4866
  973MOL0     H34227   5.600   7.999   2.911 -0.3441  1.1746  0.1654
  973MOL0     H34228   5.599   7.812   2.678 -3.4551 -1.7110  2.3520
  973MOL0     H34229   5.738   7.926   2.729 -0.7890 -0.4614  0.1755
  973MOL0     H34230   5.788   7.716   2.836  1.2808  0.3545  1.1176
  973MOL0     H34231   5.704   7.830   2.957 -2.4083  1.7024 -0.8345
  973MOL0     H34232   5.841   7.600   3.018  0.1409 -2.5428 -1.0051
  973MOL0     H34233   5.966   7.517   3.188  1.9376 -0.3546  2.3332
  973MOL0     H34234   5.921   7.347   3.156 -3.2742 -0.5621 -1.3163
  973MOL0     H34235   5.918   7.423   3.325  0.9878  0.9137 -0.9833
  973MOL0     H34236   5.446   6.977   3.386 -0.5421 -0.7868  0.3893
  973MOL0     H34237   5.531   6.800   3.545 -1.8564  0.2770 -3.7207
  973MOL0     H34238   5.861   6.806   3.753 -0.1082  1.9755 -2.0271
  973MOL0     H34239   5.688   6.762   3.758  0.1774  0.8130 -0.4047
  973MOL0     H34240   5.737   6.532   3.730 -0.7433  0.8653 -0.2074
  973MOL0     H34241   5.916   6.563   3.736 -0.1821  0.2799 -0.4998
  973MOL0     H34242   5.712   6.613   3.963  1.5613  1.1764  4.0729
  973MOL0     H34243   5.881   6.671   3.957  1.6261 -1.4782 -1.3051
  973MOL0     H34244   5.925   6.454   4.051 -0.3386  1.6871 -0.0044
  973MOL0     H34245   5.883   6.394   3.889 -1.5650  0.8369 -0.6429
  973MOL0     H34246   5.628   6.434   3.994 -0.7819 -2.4903 -1.4480
  973MOL0     H34247   5.719   6.276   4.011  2.1414  0.0640 -0.6115
  973MOL0     H34248   5.747   6.493   4.216  0.5391 -1.2470  0.3697
  973MOL0     H34249   5.770   6.320   4.225  0.1128  1.3281  0.9882
  973MOL0     H34250   5.545   6.271   4.232 -0.5038 -0.0601 -1.3979
  973MOL0     H34251   5.503   6.440   4.178 -0.2398 -0.9083 -0.2422
  973MOL0     H34252   5.571   6.507   4.412 -0.4477 -0.2842 -0.9702
  973MOL0     H34253   5.591   6.348   4.466 -0.5237  0.6337  1.6600
  973MOL0     H34254   5.933   6.909   3.455 -0.3672 -0.5067 -1.8197
  973MOL0     H34255   5.859   7.116   3.350 -0.6341  0.7144 -0.0991
  973MOL0     H34256   5.432   7.385   3.184 -1.2829  1.1478 -0.9308
  973MOL0     H34257   5.411   7.555   3.018  0.3974  2.1336  3.3769
  973MOL0     H34258   3.818   8.105   3.057  1.3547  1.3450 -1.1252
  973MOL0     H34259   3.604   8.015   2.977 -1.8166 -1.9703 -1.7778
  973MOL0     H34260   3.387   7.824   2.609  0.3014 -0.9349  0.1574
  973MOL0     H34261   3.174   7.741   2.531  0.7402  0.2531  0.2659
  973MOL0     H34262   2.835   7.618   2.550 -0.6971 -2.0449 -2.5031
  973MOL0     H34263   2.974   7.709   2.501  0.1793  1.8946  4.7933
  973MOL0     H34264   3.096   7.460   2.471  0.2913  0.4138 -0.8623
  973MOL0     H34265   2.945   7.488   2.369 -0.9144 -3.8552  0.5083
  973MOL0     H34266   2.961   7.352   2.640 -0.4112 -1.7277  0.0830
  973MOL0     H34267   2.818   7.366   2.533 -0.3070  1.3413  0.0956
  973MOL0     H34268   3.071   7.233   2.456  0.5835  2.1908 -3.5078
  973MOL0     H34269   2.930   7.234   2.355  0.4638 -1.2409 -0.9162
  973MOL0     H34270   2.776   6.937   2.581  0.9927 -0.9469  0.1582
  973MOL0     H34271   3.101   7.524   2.882 -0.8367  0.4328 -1.2883
  973MOL0     H34272   3.300   7.448   3.005  0.8790 -0.2294 -1.1850
  973MOL0     H34273   3.436   7.530   3.018 -0.1541 -3.3044 -0.0325
  973MOL0     H34274   3.280   7.609   3.085  0.9689 -2.7179  2.0707
  974MOL0     O34275   7.298   5.445   6.533  0.6046  0.3279 -0.0392
  974MOL0     C34276   7.218   5.413   6.614  0.0237 -0.2723 -0.3559
  974MOL0     O34277   7.241   5.419   6.749  0.4341 -0.5666 -0.9414
  974MOL0     C34278   7.361   5.445   6.792  0.0854  0.1486  0.8021
  974MOL0     C34279   7.452   5.343   6.813  0.2399  0.4973  0.7445
  974MOL0     C34280   7.581   5.371   6.870 -0.5099  0.2915  0.9931
  974MOL0     C34281   7.621   5.501   6.896 -0.3020  0.5093 -0.2304
  974MOL0     O34282   7.744   5.548   6.919  0.9194  0.0841  0.2888
  974MOL0     C34283   7.841   5.460   6.957 -0.3763 -1.3206 -1.0160
  974MOL0     C34284   7.966   5.548   6.970 -0.2017 -0.0930  0.2879
  974MOL0     C34285   8.086   5.456   6.991  0.0142  0.6274  1.8176
  974MOL0     C34286   8.216   5.541   7.018  0.1614 -0.5626  0.1697
  974MOL0     C34287   8.345   5.450   7.000  0.3529 -0.2426 -0.1678
  974MOL0     C34288   8.349   5.348   7.122 -0.5724  0.1684  0.3650
  974MOL0     C34289   8.454   5.231   7.096  0.5089 -0.4021 -0.3992
  974MOL0     C34290   8.600   5.287   7.086 -0.0279  1.0781 -0.6373
  974MOL0     N34291   8.668   5.277   7.223 -0.1778  1.1698  0.3417
  974MOL0     C34292   8.655   5.369   7.326  0.0776  0.3063  0.0407
  974MOL0     C34293   8.719   5.313   7.432 -1.0865 -0.3002  1.4293
  974MOL0     C34294   8.736   5.372   7.565 -0.6070 -0.0996  0.0372
  974MOL0     C34295   8.838   5.491   7.580 -0.2434  0.1667 -1.2924
  974MOL0     C34296   8.938   5.474   7.701  0.5734  0.1180  0.0680
  974MOL0     C34297   9.035   5.591   7.713 -0.1659  0.0337  0.2159
  974MOL0     O34298   9.148   5.574   7.618 -0.2336  0.4620 -0.1286
  974MOL0     C34299   9.271   5.550   7.669  0.4865 -0.1478  0.4047
  974MOL0     C34300   9.360   5.648   7.639  0.2652 -0.2657 -0.2208
  974MOL0     C34301   9.496   5.632   7.678 -0.3790 -0.3605 -0.0387
  974MOL0     C34302   9.605   5.723   7.618 -0.5357  0.3675 -0.1218
  974MOL0     C34303   9.531   5.521   7.759  0.4916  0.5503 -0.1224
  974MOL0     C34304   9.672   5.493   7.798  0.9239  0.7284 -1.1005
  974MOL0     O34305   9.729   5.377   7.745 -0.1187  0.4658  0.0120
  974MOL0     C34306   9.866   5.363   7.748  0.4682 -1.0644  0.3689
  974MOL0     C34307   9.934   5.320   7.859 -0.5505 -0.3752  0.4427
  974MOL0     C34308  10.070   5.310   7.855  0.2094  0.6310 -0.3301
  974MOL0     C34309  10.139   5.333   7.742 -0.6384 -0.4568  0.0779
  974MOL0     O34310  10.274   5.295   7.749  0.3354 -0.3186  0.0952
  974MOL0     C34311  10.362   5.372   7.678 -0.1622 -0.9634  0.5756
  974MOL0     C34312  10.379   5.522   7.722 -0.3157  1.3390  0.4395
  974MOL0     C34313  10.465   5.548   7.850  0.6376 -0.2727 -0.1651
  974MOL0     C34314  10.624   5.530   7.835  0.3874 -0.4850 -0.4679
  974MOL0     C34315  10.701   5.538   7.981  0.3053  0.6610  0.4533
  974MOL0     C34316  10.677   5.671   8.035 -0.8008 -0.9484 -0.5611
  974MOL0     C34317  10.762   5.691   8.162 -0.5009  0.2596 -0.2219
  974MOL0     C34318  10.719   5.816   8.233  0.1458 -0.1210 -0.5409
  974MOL0    Cl34319  10.759   5.837   8.407  0.3685 -0.2869  0.2583
  974MOL0     C34320  10.073   5.374   7.625 -0.1689  0.6318 -0.5999
  974MOL0     C34321   9.933   5.392   7.629  0.5145 -0.3124  0.0066
  974MOL0     O34322   9.719   5.590   7.862  0.6858 -0.2395 -0.4623
  974MOL0     C34323   9.434   5.434   7.808 -0.7926  0.4505 -0.5201
  974MOL0     C34324   9.306   5.446   7.754  0.8248 -0.2715 -0.2015
  974MOL0     N34325   8.781   5.201   7.390  0.6077  0.3404  0.1098
  974MOL0     N34326   8.739   5.175   7.266  0.4494  0.4427  0.0833
  974MOL0     C34327   7.534   5.607   6.862 -1.2786  0.8130 -0.0435
  974MOL0     C34328   7.402   5.578   6.822  0.3068  0.1709 -0.3122
  974MOL0     C34329   7.089   5.348   6.567  0.4934  1.0768  0.1660
  974MOL0     C34330   6.998   5.319   6.663 -0.3266  0.1767 -0.4954
  974MOL0     C34331   6.876   5.265   6.635  0.3610  0.6041  0.4516
  974MOL0     C34332   6.837   5.217   6.516  0.6709 -0.3743 -0.1915
  974MOL0     O34333   6.710   5.161   6.501  0.0840 -0.0136  0.5563
  974MOL0     C34334   6.646   5.126   6.377  0.3401  0.1018  0.3434
  974MOL0     C34335   6.501   5.077   6.392  0.3159 -0.4802  0.0540
  974MOL0     C34336   6.486   4.962   6.489 -0.0584 -0.4297 -0.7441
  974MOL0     C34337   6.344   4.916   6.493  0.1832  0.3810  0.4905
  974MOL0     C34338   6.277   4.878   6.370  0.2006  0.0498  0.1820
  974MOL0     C34339   6.219   4.848   6.268 -0.7969 -0.4468 -0.1097
  974MOL0     C34340   6.935   5.235   6.417 -0.2659  0.0368  0.3977
  974MOL0     C34341   7.054   5.303   6.433  0.6030  0.9432 -0.3049
  974MOL0     C34342   7.138   5.333   6.312 -0.4908  1.0750 -0.5504
  974MOL0     H34343   7.422   5.240   6.800 -2.1801  0.9421  2.2041
  974MOL0     H34344   7.642   5.283   6.891 -0.6837 -0.4769 -1.3771
  974MOL0     H34345   7.856   5.382   6.882 -3.5104 -0.4902 -2.6874
  974MOL0     H34346   7.819   5.420   7.056  0.9253 -0.9124 -0.5339
  974MOL0     H34347   7.984   5.621   6.891  0.9457  1.0840  1.5803
  974MOL0     H34348   7.950   5.612   7.056 -1.3391  0.6169 -0.4293
  974MOL0     H34349   8.065   5.382   7.069  0.4517  0.0393  1.3938
  974MOL0     H34350   8.092   5.398   6.898 -1.6684  0.4841  1.7687
  974MOL0     H34351   8.221   5.618   6.940  2.8204 -3.5223 -2.9005
  974MOL0     H34352   8.220   5.580   7.120 -0.3481 -0.3998  0.1303
  974MOL0     H34353   8.431   5.517   6.993  0.6623 -0.5139  0.8388
  974MOL0     H34354   8.345   5.383   6.913  0.7628 -0.3356 -0.1005
  974MOL0     H34355   8.371   5.417   7.204  1.1007  0.0207  0.0720
  974MOL0     H34356   8.257   5.298   7.155 -0.6260  1.2128  1.9159
  974MOL0     H34357   8.430   5.163   7.014  2.1962 -1.5158 -0.0176
  974MOL0     H34358   8.445   5.168   7.185  2.0004  1.9065  1.5180
  974MOL0     H34359   8.658   5.228   7.015  0.8011  2.6808 -1.3231
  974MOL0     H34360   8.597   5.393   7.060 -1.1011  0.7189 -2.0961
  974MOL0     H34361   8.599   5.461   7.339 -1.1099 -0.1214 -1.7329
  974MOL0     H34362   8.751   5.294   7.639 -0.6296 -2.6695 -2.5025
  974MOL0     H34363   8.640   5.416   7.594 -0.5515 -1.2154  2.0739
  974MOL0     H34364   8.897   5.495   7.488 -0.7992  1.6900 -1.6145
  974MOL0     H34365   8.797   5.588   7.610 -0.5122 -0.1754 -0.5228
  974MOL0     H34366   8.872   5.468   7.788 -1.6582  1.7790 -1.4205
  974MOL0     H34367   9.004   5.388   7.685 -0.0004 -0.3579  0.1891
  974MOL0     H34368   8.978   5.683   7.696 -0.7475 -0.0365  1.6133
  974MOL0     H34369   9.071   5.584   7.816 -1.6967  0.5636  0.8216
  974MOL0     H34370   9.336   5.725   7.566  1.8570 -1.1820 -1.8084
  974MOL0     H34371   9.650   5.791   7.691  3.5807 -1.6052 -0.5473
  974MOL0     H34372   9.563   5.784   7.538 -0.4866 -0.5059 -0.8312
  974MOL0     H34373   9.685   5.659   7.578 -0.1995  0.0293  1.0361
  974MOL0     H34374   9.869   5.290   7.940 -2.0247 -0.4170 -0.7196
  974MOL0     H34375  10.120   5.272   7.944  0.6359  0.2447 -0.7317
  974MOL0     H34376  10.450   5.307   7.685 -0.9566 -2.0964  0.2549
  974MOL0     H34377  10.334   5.356   7.573 -0.6166 -1.5405  0.7808
  974MOL0     H34378  10.439   5.563   7.640 -0.2015 -3.6790 -2.4196
  974MOL0     H34379  10.289   5.583   7.727 -1.3222 -0.1728  1.5565
  974MOL0     H34380  10.416   5.496   7.932  0.1191  1.7092  0.8489
  974MOL0     H34381  10.455   5.656   7.869  0.7186 -0.5981  1.8759
  974MOL0     H34382  10.671   5.598   7.763  2.5399 -2.2087 -0.8083
  974MOL0     H34383  10.633   5.434   7.784  1.9634  1.3754 -4.0674
  974MOL0     H34384  10.669   5.451   8.039  0.2711 -2.5213 -3.8541
  974MOL0     H34385  10.808   5.531   7.958  0.1286 -1.7094  0.0492
  974MOL0     H34386  10.573   5.665   8.067  0.0829 -0.7065  2.7269
  974MOL0     H34387  10.702   5.748   7.961 -4.0825  2.0628  1.1306
  974MOL0     H34388  10.868   5.704   8.138 -0.2939 -1.0205 -0.0827
  974MOL0     H34389  10.747   5.608   8.232  0.0697  2.0446  2.1252
  974MOL0     H34390  10.609   5.814   8.237  0.0526 -4.9549  2.9773
  974MOL0     H34391  10.769   5.896   8.179  0.9521  0.0787  0.4666
  974MOL0     H34392  10.126   5.398   7.533  0.5189  0.5776 -0.2243
  974MOL0     H34393   9.870   5.417   7.545 -1.3500  0.0303  1.4443
  974MOL0     H34394   9.473   5.352   7.867  0.2781  0.4715 -1.1715
  974MOL0     H34395   9.239   5.366   7.786 -0.0044 -0.6714 -2.6836
  974MOL0     H34396   7.578   5.706   6.857 -1.1381  0.6865 -2.3998
  974MOL0     H34397   7.338   5.658   6.787  0.7143 -1.1628 -4.7054
  974MOL0     H34398   7.015   5.340   6.768  3.1103  0.9447 -1.0630
  974MOL0     H34399   6.815   5.257   6.724 -0.5220 -1.5947 -0.2769
  974MOL0     H34400   6.658   5.210   6.307 -2.7533 -0.9538 -1.6413
  974MOL0     H34401   6.706   5.040   6.345 -1.1320 -0.5577 -0.7513
  974MOL0     H34402   6.466   5.030   6.299 -0.3938  0.4324 -0.1558
  974MOL0     H34403   6.440   5.164   6.418 -0.4465 -1.1572  0.6004
  974MOL0     H34404   6.552   4.876   6.472 -0.9643 -0.9429 -1.8329
  974MOL0     H34405   6.503   4.996   6.592  1.0449  1.5797 -1.5391
  974MOL0     H34406   6.286   4.999   6.535 -0.3311  0.8476 -1.0763
  974MOL0     H34407   6.329   4.828   6.556 -0.1341  0.2390  0.2213
  974MOL0     H34408   6.177   4.843   6.169 -2.1717  3.1028  0.1381
  974MOL0     H34409   6.913   5.187   6.322  3.9393 -0.9822 -0.2321
  974MOL0     H34410   7.237   5.287   6.325 -1.9782 -2.8357 -1.7086
  974MOL0     H34411   7.090   5.280   6.229 -1.4578 -0.5386  0.9651
  974MOL0     H34412   7.146   5.437   6.282  0.6508  0.6381 -1.8778
  975MOL0     O34413  10.958   7.684   9.842  0.5613  0.8748 -1.1487
  975MOL0     C34414  10.930   7.600   9.762  0.1812 -0.2632  0.3958
  975MOL0     O34415  11.016   7.512   9.709 -0.0312 -0.6511  0.0692
  975MOL0     C34416  11.124   7.472   9.791  0.6309 -1.5818 -0.4867
  975MOL0     C34417  11.142   7.341   9.819 -0.2504 -0.3460  0.2670
  975MOL0     C34418  11.255   7.291   9.881 -0.1069  0.3005 -0.2080
  975MOL0     C34419  11.353   7.377   9.920 -0.0615 -0.5954 -0.4773
  975MOL0     O34420  11.457   7.336   9.995  0.0642  0.3665  0.8781
  975MOL0     C34421  11.427   7.259  10.109 -0.0124 -0.3059 -0.2322
  975MOL0     C34422  11.558   7.250  10.194 -0.7316 -0.4091  0.0936
  975MOL0     C34423  11.676   7.354  10.158 -0.0445 -0.4958 -0.0113
  975MOL0     C34424  11.641   7.503  10.212 -0.5917 -0.3927  0.1244
  975MOL0     C34425  11.738   7.613  10.160  0.0258  0.5793  0.8232
  975MOL0     C34426  11.886   7.566  10.160 -0.0890 -0.1032 -0.7149
  975MOL0     C34427  11.982   7.673  10.140 -0.0982  0.4104 -0.3792
  975MOL0     C34428  12.123   7.624  10.107 -0.3446  0.0747  0.8808
  975MOL0     N34429  12.171   7.550  10.223 -0.4156 -0.0486  0.5006
  975MOL0     C34430  12.148   7.417  10.240 -0.3678  0.7079 -0.2167
  975MOL0     C34431  12.239   7.367  10.327  0.2022 -0.5603 -0.2200
  975MOL0     C34432  12.238   7.214  10.373 -0.2309  0.2559  0.8836
  975MOL0     C34433  12.354   7.166  10.455 -0.1884  0.0393 -0.8088
  975MOL0     C34434  12.480   7.120  10.374 -0.5212 -0.7230 -0.1583
  975MOL0     C34435  12.534   7.236  10.286 -0.4594  0.2615  0.5127
  975MOL0     O34436  12.648   7.175  10.220  0.0278  0.0305  0.5648
  975MOL0     C34437  12.766   7.159  10.288  0.4589 -0.3820 -0.0377
  975MOL0     C34438  12.852   7.064  10.234  0.7417 -0.3879 -0.0104
  975MOL0     C34439  12.968   7.020  10.299  0.2002 -0.5885  0.2848
  975MOL0     C34440  13.046   6.910  10.228  0.0104  0.0703  0.1341
  975MOL0     C34441  13.013   7.095  10.411 -0.2685  1.2440 -0.3437
  975MOL0     C34442  13.134   7.058  10.493  0.0293 -0.2090  0.3416
  975MOL0     O34443  13.173   7.146  10.593 -0.2318  0.7764 -0.4068
  975MOL0     C34444  13.290   7.104  10.650 -0.1511  0.1248  0.4220
  975MOL0     C34445  13.294   7.027  10.766 -0.0133  0.6461 -0.3649
  975MOL0     C34446  13.417   7.002  10.824 -0.5134 -0.0815 -0.0033
  975MOL0     C34447  13.531   7.042  10.770 -0.0002  0.2258  0.0937
  975MOL0     O34448  13.645   6.988  10.830 -0.4572  0.3234  0.2387
  975MOL0     C34449  13.750   7.080  10.858  0.0505  0.1333  0.5637
  975MOL0     C34450  13.884   7.006  10.854 -0.0791 -0.1173 -0.0034
  975MOL0     C34451  13.889   6.907  10.974 -0.3985 -0.0836  0.6076
  975MOL0     C34452  14.039   6.862  11.007  0.7206  0.4848  0.0057
  975MOL0     C34453  14.078   6.750  10.909 -0.0043 -0.6047 -0.1378
  975MOL0     C34454  14.063   6.608  10.961 -0.2570  0.2606  0.7783
  975MOL0     C34455  14.103   6.523  10.844 -0.4332  0.0928 -0.1630
  975MOL0     C34456  14.066   6.382  10.883  0.3332  0.3342 -0.3409
  975MOL0    Cl34457  14.084   6.286  10.742  0.1652 -0.4835  0.8049
  975MOL0     C34458  13.523   7.108  10.648  0.8275 -0.5893  0.2358
  975MOL0     C34459  13.406   7.145  10.591  0.5195 -0.4955  0.2195
  975MOL0     O34460  13.190   6.958  10.462 -0.6809  0.6403  0.1015
  975MOL0     C34461  12.932   7.196  10.464 -0.2548  0.8995  0.3211
  975MOL0     C34462  12.804   7.224  10.407 -0.7087 -0.2682 -0.5416
  975MOL0     N34463  12.324   7.474  10.355  1.0236 -0.2961 -0.9782
  975MOL0     N34464  12.278   7.583  10.298 -0.0418 -0.3456  0.5381
  975MOL0     C34465  11.340   7.513   9.896 -0.2964  0.0343 -0.2207
  975MOL0     C34466  11.224   7.562   9.832  0.4335 -0.0353  0.2410
  975MOL0     C34467  10.791   7.608   9.706 -0.1646 -0.0708  0.3464
  975MOL0     C34468  10.745   7.498   9.635 -0.1860  0.5370  0.0119
  975MOL0     C34469  10.620   7.491   9.577  0.5550 -0.0153 -0.3717
  975MOL0     C34470  10.527   7.596   9.599 -0.2582 -0.3316 -0.6604
  975MOL0     O34471  10.403   7.600   9.536  0.3647  0.3335  0.6834
  975MOL0     C34472  10.317   7.484   9.536 -0.2293 -0.3113 -1.1073
  975MOL0     C34473  10.242   7.492   9.406  0.6113  0.2513 -0.3934
  975MOL0     C34474  10.327   7.453   9.282 -1.5879 -0.1822  0.0251
  975MOL0     C34475  10.307   7.302   9.243  0.0920 -1.4824 -0.3040
  975MOL0     C34476  10.375   7.222   9.342  0.5750  0.3420 -0.4674
  975MOL0     C34477  10.420   7.159   9.434 -0.8043 -0.2698 -0.7374
  975MOL0     C34478  10.566   7.706   9.678 -0.1865 -0.0344 -0.0098
  975MOL0     C34479  10.698   7.717   9.731  0.2316  0.3373  0.2966
  975MOL0     C34480  10.732   7.841   9.821  1.2341  1.0105  0.5700
  975MOL0     H34481  11.061   7.271   9.797  1.3404 -1.8516 -1.0993
  975MOL0     H34482  11.273   7.184   9.891  0.9851  0.5659  0.9654
  975MOL0     H34483  11.383   7.164  10.077 -0.5609  1.1056 -4.2453
  975MOL0     H34484  11.346   7.302  10.169  1.9937 -0.6159  2.9856
  975MOL0     H34485  11.533   7.266  10.300 -0.9101  0.8975 -0.1267
  975MOL0     H34486  11.606   7.152  10.187  0.4977  0.1728  0.2232
  975MOL0     H34487  11.768   7.307  10.194  0.3790 -1.8727 -2.6999
  975MOL0     H34488  11.693   7.342  10.051 -1.6125 -1.0726 -0.2190
  975MOL0     H34489  11.542   7.526  10.173 -0.1999 -0.5942 -1.0079
  975MOL0     H34490  11.632   7.503  10.321  3.1431 -0.9675  0.5708
  975MOL0     H34491  11.741   7.699  10.227  0.4250  0.2893  1.1881
  975MOL0     H34492  11.710   7.642  10.058 -0.5148  0.3713  0.9110
  975MOL0     H34493  11.908   7.513  10.253  1.1181  0.5486 -0.6089
  975MOL0     H34494  11.891   7.488  10.084 -2.8866 -0.1626 -0.9427
  975MOL0     H34495  11.977   7.728  10.235 -0.7056  0.2874 -0.3368
  975MOL0     H34496  11.948   7.741  10.062  2.1168  1.3948 -0.5527
  975MOL0     H34497  12.123   7.557  10.021 -0.9318 -2.7263  2.9206
  975MOL0     H34498  12.189   7.710  10.090  2.2420 -1.8890  0.4464
  975MOL0     H34499  12.072   7.355  10.193 -2.3801  2.3943  0.6782
  975MOL0     H34500  12.232   7.153  10.283  2.5994  0.6987  0.3071
  975MOL0     H34501  12.145   7.211  10.432 -0.3564  0.2349  0.6847
  975MOL0     H34502  12.381   7.252  10.518  0.6600  0.3414 -1.5532
  975MOL0     H34503  12.325   7.078  10.513 -0.2186 -0.2887 -1.3206
  975MOL0     H34504  12.562   7.092  10.442 -1.2478 -0.8723  0.6715
  975MOL0     H34505  12.448   7.034  10.315 -3.3686  0.4412 -0.4531
  975MOL0     H34506  12.465   7.265  10.207  0.1490 -1.9654 -0.9196
  975MOL0     H34507  12.551   7.322  10.352 -3.2778  0.4988  1.0499
  975MOL0     H34508  12.821   7.016  10.142  0.7138 -0.9785  0.3024
  975MOL0     H34509  13.000   6.885  10.131 -0.9493 -1.8427  1.0269
  975MOL0     H34510  13.048   6.817  10.285  1.1480  0.6086  1.0215
  975MOL0     H34511  13.152   6.929  10.206 -0.3496  3.6368  0.8003
  975MOL0     H34512  13.197   6.998  10.806  0.2711 -0.8232 -0.6941
  975MOL0     H34513  13.418   6.939  10.913  0.8850 -1.1511 -0.7325
  975MOL0     H34514  13.753   7.164  10.787  1.9447 -2.1491 -2.2858
  975MOL0     H34515  13.727   7.124  10.956 -3.8633 -1.2481  0.4675
  975MOL0     H34516  13.898   6.960  10.756 -0.3371  2.2167 -1.1939
  975MOL0     H34517  13.969   7.074  10.844  0.2361 -0.8026 -2.7206
  975MOL0     H34518  13.831   6.819  10.946 -0.0476 -0.5937  1.4449
  975MOL0     H34519  13.842   6.965  11.054 -1.7836  2.8389 -2.0965
  975MOL0     H34520  14.041   6.814  11.105 -2.1238 -0.8249 -0.4948
  975MOL0     H34521  14.102   6.951  10.992 -1.4517  2.7375  3.1326
  975MOL0     H34522  14.031   6.757  10.811 -1.1323 -2.9692  0.1693
  975MOL0     H34523  14.181   6.779  10.884 -1.1380  3.0069 -1.3606
  975MOL0     H34524  13.958   6.592  10.987 -0.5713  2.6632  1.1581
  975MOL0     H34525  14.126   6.590  11.049  1.0639  1.1523  0.0454
  975MOL0     H34526  14.209   6.534  10.824 -0.7529  0.4993 -1.7835
  975MOL0     H34527  14.045   6.548  10.755 -1.3566 -0.1840  0.3322
  975MOL0     H34528  13.959   6.377  10.905  0.4207  1.6744  0.4315
  975MOL0     H34529  14.119   6.356  10.975 -0.6215 -1.4144 -0.2227
  975MOL0     H34530  13.615   7.123  10.592  0.9398 -0.7627  0.3736
  975MOL0     H34531  13.405   7.196  10.495  3.0873 -1.8966 -0.6708
  975MOL0     H34532  12.966   7.248  10.553 -0.1302  3.1869 -0.9863
  975MOL0     H34533  12.739   7.295  10.458 -2.9716 -0.4442 -2.9115
  975MOL0     H34534  11.423   7.574   9.932  0.0433 -1.4573  1.6959
  975MOL0     H34535  11.226   7.667   9.805  0.8457 -0.4453 -1.4371
  975MOL0     H34536  10.819   7.427   9.598 -0.5218  1.0331 -1.6874
  975MOL0     H34537  10.588   7.399   9.529  0.5601 -0.4705  0.4751
  975MOL0     H34538  10.368   7.388   9.549  0.2580  0.1242  0.3676
  975MOL0     H34539  10.245   7.490   9.618 -1.6172 -1.1034 -2.2256
  975MOL0     H34540  10.208   7.596   9.405  0.7111  0.3515 -3.3877
  975MOL0     H34541  10.158   7.423   9.411  1.7836 -1.3163 -1.4253
  975MOL0     H34542  10.298   7.517   9.198 -2.6386  0.6127  0.9649
  975MOL0     H34543  10.433   7.482   9.290 -1.6271 -0.1789  0.5789
  975MOL0     H34544  10.366   7.279   9.153  1.1138 -0.3087  0.0247
  975MOL0     H34545  10.200   7.280   9.234 -0.1069 -0.8981  0.5775
  975MOL0     H34546  10.465   7.094   9.506  1.2866  1.1002 -0.7195
  975MOL0     H34547  10.501   7.792   9.695  0.8934  1.1163 -1.4760
  975MOL0     H34548  10.644   7.906   9.814 -1.6552 -2.3506  2.2149
  975MOL0     H34549  10.759   7.798   9.917 -2.5067 -0.4255  1.1549
  975MOL0     H34550  10.810   7.896   9.767 -0.0465  1.7416 -0.6028
  976MOL0     O34551   0.066   1.874   2.046 -0.1709  0.1386  0.1084
  976MOL0     C34552  -0.032   1.795   2.022 -0.4016 -0.1866  0.1821
  976MOL0     O34553  -0.011   1.660   1.990 -0.3479 -0.4791 -0.1499
  976MOL0     C34554   0.115   1.606   2.002  0.0844 -0.1536  0.3527
  976MOL0     C34555   0.130   1.506   2.091 -0.0586  0.6425  0.3048
  976MOL0     C34556   0.255   1.438   2.106  0.1219  0.4248 -0.1653
  976MOL0     C34557   0.357   1.456   2.010 -0.0809  0.4684 -0.0620
  976MOL0     O34558   0.477   1.396   2.024  0.2996 -0.0604 -0.1836
  976MOL0     C34559   0.565   1.403   1.915 -0.6183  1.5176  0.3366
  976MOL0     C34560   0.685   1.324   1.954  0.9447 -1.2582 -0.1099
  976MOL0     C34561   0.809   1.368   1.854  0.0992 -0.0265 -0.6691
  976MOL0     C34562   0.945   1.292   1.887  0.5060  0.6132 -0.7333
  976MOL0     C34563   1.014   1.314   2.026  0.1776  0.4486  0.9298
  976MOL0     C34564   1.024   1.462   2.054  0.3152 -0.1886 -0.2791
  976MOL0     C34565   1.110   1.490   2.174 -0.3571 -0.3459 -0.2618
  976MOL0     C34566   1.261   1.453   2.157 -0.5190 -0.0251 -0.7086
  976MOL0     N34567   1.323   1.527   2.048  0.3356  0.2333  0.2526
  976MOL0     C34568   1.420   1.623   2.063  0.3802  0.9902  0.1588
  976MOL0     C34569   1.474   1.649   1.938  0.1135 -0.0097 -0.8534
  976MOL0     C34570   1.585   1.743   1.920 -1.1279  1.2901  0.1253
  976MOL0     C34571   1.723   1.677   1.922  0.2453  0.2900 -0.5031
  976MOL0     C34572   1.823   1.779   1.971 -0.2553  0.4638  0.5384
  976MOL0     C34573   1.963   1.723   2.022 -0.5724 -1.0669  0.1697
  976MOL0     O34574   2.015   1.635   1.922 -0.3715  0.3340  0.1604
  976MOL0     C34575   2.146   1.595   1.926  0.9398 -0.0269  0.3579
  976MOL0     C34576   2.234   1.629   2.026  0.7186 -0.3563 -0.9680
  976MOL0     C34577   2.374   1.598   2.016  0.4380  0.1989  0.3080
  976MOL0     C34578   2.459   1.649   2.131 -0.4497  0.4846  0.2392
  976MOL0     C34579   2.425   1.527   1.900 -0.3357 -0.3117  0.3946
  976MOL0     C34580   2.574   1.481   1.880  0.7881  0.9623 -0.8215
  976MOL0     O34581   2.593   1.373   1.803  0.7048  0.6405 -0.2105
  976MOL0     C34582   2.702   1.283   1.825 -0.4302  0.6135  0.0304
  976MOL0     C34583   2.696   1.159   1.755  0.3778 -0.0532  0.8819
  976MOL0     C34584   2.795   1.064   1.759  0.7899  0.8826  0.0578
  976MOL0     C34585   2.900   1.078   1.844 -0.2091 -0.4867 -0.1535
  976MOL0     O34586   2.977   0.963   1.850  0.1865 -0.3004 -0.9716
  976MOL0     C34587   3.110   0.974   1.911  0.9424  0.0137 -0.4905
  976MOL0     C34588   3.222   1.009   1.812 -0.2825 -0.8090  0.5525
  976MOL0     C34589   3.219   0.917   1.687 -0.5744  0.2415 -0.1929
  976MOL0     C34590   3.337   0.959   1.593 -1.0815 -0.1329 -0.7529
  976MOL0     C34591   3.342   0.880   1.462  0.7036  1.4432 -0.4739
  976MOL0     C34592   3.461   0.923   1.378 -0.1697 -0.1641  0.1366
  976MOL0     C34593   3.471   0.849   1.242 -0.3537  0.2417  0.2937
  976MOL0     C34594   3.565   0.733   1.249 -0.4366 -0.2525  0.0379
  976MOL0    Cl34595   3.596   0.649   1.091  0.2803 -0.2984 -0.2769
  976MOL0     C34596   2.911   1.199   1.906 -0.1642  0.1948 -0.3365
  976MOL0     C34597   2.817   1.303   1.902  0.4493  0.3734 -0.2798
  976MOL0     O34598   2.652   1.524   1.964  0.3214 -0.0350  0.0852
  976MOL0     C34599   2.333   1.495   1.800  0.4567 -0.6209  0.0056
  976MOL0     C34600   2.198   1.531   1.821 -0.1708  0.1482  0.4701
  976MOL0     N34601   1.412   1.556   1.850 -0.2929 -0.1646 -0.5354
  976MOL0     N34602   1.326   1.486   1.916 -0.1071 -0.7670 -0.0151
  976MOL0     C34603   0.334   1.558   1.914 -0.3300  0.1905  0.0557
  976MOL0     C34604   0.219   1.632   1.913  0.9056  0.7296  0.1887
  976MOL0     C34605  -0.164   1.846   2.041  0.2968 -0.5845  0.2711
  976MOL0     C34606  -0.183   1.978   2.096 -0.0907 -0.4738  0.0536
  976MOL0     C34607  -0.305   2.046   2.100  0.2024 -0.4121 -0.3630
  976MOL0     C34608  -0.418   1.976   2.067  0.1676 -0.0369 -0.1803
  976MOL0     O34609  -0.538   2.041   2.086  0.3173 -0.2000  0.4322
  976MOL0     C34610  -0.650   1.991   2.012 -0.6068 -0.3048 -0.2729
  976MOL0     C34611  -0.772   2.081   2.019  0.5300  0.6207 -0.6265
  976MOL0     C34612  -0.905   1.999   2.000  1.2063  1.1228  0.2993
  976MOL0     C34613  -0.926   1.939   1.862 -1.0719 -0.8010  1.1219
  976MOL0     C34614  -1.046   1.861   1.846 -0.2301 -0.0340 -0.3751
  976MOL0     C34615  -1.152   1.801   1.839  0.5707 -0.1926  0.1699
  976MOL0     C34616  -0.405   1.838   2.030 -1.1833 -0.2180 -0.9790
  976MOL0     C34617  -0.285   1.777   2.015  0.8923  1.0856  0.4371
  976MOL0     C34618  -0.297   1.624   1.982  0.6451 -0.2139  0.2762
  976MOL0     H34619   0.055   1.487   2.167 -2.1500 -0.1029 -1.8219
  976MOL0     H34620   0.268   1.370   2.190  1.0135  1.4305  0.5460
  976MOL0     H34621   0.596   1.506   1.895  1.0832  1.4267  2.2177
  976MOL0     H34622   0.520   1.370   1.820 -0.5754  1.0791  0.4667
  976MOL0     H34623   0.713   1.343   2.059 -0.4612  1.9880 -0.1856
  976MOL0     H34624   0.652   1.220   1.948 -0.9243 -0.7763  0.9626
  976MOL0     H34625   0.777   1.353   1.751 -1.6418 -0.1520 -0.1396
  976MOL0     H34626   0.825   1.475   1.869  0.5099 -0.3493  1.6129
  976MOL0     H34627   0.917   1.186   1.880 -2.9441  1.3497  0.2031
  976MOL0     H34628   1.021   1.321   1.814  2.0659 -0.3592  0.4482
  976MOL0     H34629   1.114   1.271   2.021  0.0867 -0.1045  2.9408
  976MOL0     H34630   0.956   1.254   2.097  2.6212 -2.7710  0.4515
  976MOL0     H34631   1.061   1.500   1.958 -1.3178 -2.2703 -1.8379
  976MOL0     H34632   0.924   1.498   2.079 -0.3937 -2.6452  0.7240
  976MOL0     H34633   1.073   1.442   2.266  1.6838  1.8404  1.8396
  976MOL0     H34634   1.099   1.597   2.191  0.0337  0.4012 -3.8879
  976MOL0     H34635   1.310   1.489   2.247 -2.2450 -0.3869  0.4250
  976MOL0     H34636   1.273   1.344   2.151 -1.3868 -0.1361 -0.5903
  976MOL0     H34637   1.457   1.663   2.157  2.1009  1.8682 -0.8408
  976MOL0     H34638   1.566   1.811   2.004 -0.2629  0.5607  0.9348
  976MOL0     H34639   1.580   1.797   1.825  2.2289 -0.0459 -0.9839
  976MOL0     H34640   1.718   1.599   1.999  1.6265  0.1544 -0.5301
  976MOL0     H34641   1.742   1.645   1.819  1.3455 -0.0897 -0.1924
  976MOL0     H34642   1.842   1.845   1.886 -2.0375  0.8209  0.3947
  976MOL0     H34643   1.791   1.843   2.054  2.6297  1.8462  0.7300
  976MOL0     H34644   2.030   1.803   2.053 -0.6058 -2.0814  3.2213
  976MOL0     H34645   1.948   1.667   2.115  3.0351  0.0373  1.5792
  976MOL0     H34646   2.194   1.691   2.106  2.4104 -0.3434 -0.0895
  976MOL0     H34647   2.507   1.564   2.182  2.6103  3.5421  2.9372
  976MOL0     H34648   2.415   1.715   2.205  0.1085  0.5788  0.4874
  976MOL0     H34649   2.538   1.710   2.086  1.1172 -0.8990  0.9950
  976MOL0     H34650   2.605   1.141   1.699 -1.1493  1.9199  2.6068
  976MOL0     H34651   2.787   0.975   1.697 -1.8286  0.6927  0.5744
  976MOL0     H34652   3.115   1.043   1.995 -0.7817  0.3237 -0.6041
  976MOL0     H34653   3.125   0.870   1.942 -0.3713  0.0305  0.2702
  976MOL0     H34654   3.225   1.113   1.778 -2.1006 -1.5905 -2.3472
  976MOL0     H34655   3.317   1.004   1.867 -2.2339 -3.5301  4.0994
  976MOL0     H34656   3.127   0.931   1.630 -0.3410 -0.9270 -0.8916
  976MOL0     H34657   3.236   0.811   1.705 -0.4462  0.2642 -0.1774
  976MOL0     H34658   3.433   0.948   1.644 -0.1590  1.2370 -2.1092
  976MOL0     H34659   3.327   1.065   1.571 -1.5268 -0.1468 -0.6251
  976MOL0     H34660   3.335   0.772   1.480 -1.6222  1.4809 -0.8461
  976MOL0     H34661   3.248   0.900   1.409  0.3013 -2.3401 -1.4920
  976MOL0     H34662   3.543   0.897   1.445  3.4924 -2.4379 -4.5989
  976MOL0     H34663   3.452   1.029   1.352 -1.7811 -0.6630 -1.6120
  976MOL0     H34664   3.495   0.917   1.160  0.1507 -2.6006 -2.1103
  976MOL0     H34665   3.370   0.815   1.214  0.0486 -0.6335 -0.1605
  976MOL0     H34666   3.536   0.654   1.320 -0.7374  0.6935  0.9907
  976MOL0     H34667   3.662   0.772   1.283  0.4229  0.9227 -3.3815
  976MOL0     H34668   2.995   1.221   1.972 -0.4936  0.5344 -0.0291
  976MOL0     H34669   2.839   1.397   1.951  0.8087  1.9199 -3.1552
  976MOL0     H34670   2.375   1.456   1.709  2.5326  0.5324  0.4001
  976MOL0     H34671   2.128   1.528   1.738 -0.4223  2.0835  0.5641
  976MOL0     H34672   0.416   1.581   1.846  0.7683 -5.6946 -1.1142
  976MOL0     H34673   0.198   1.718   1.850 -0.5001  1.2550  1.2967
  976MOL0     H34674  -0.100   2.034   2.137 -0.4928  2.0918 -2.3702
  976MOL0     H34675  -0.305   2.150   2.131  3.0364 -1.3933  3.6864
  976MOL0     H34676  -0.623   1.963   1.910 -0.3501  1.2850 -0.6776
  976MOL0     H34677  -0.681   1.899   2.062 -0.7707  0.6832  1.5286
  976MOL0     H34678  -0.763   2.153   1.937 -0.7986  3.0194  1.1989
  976MOL0     H34679  -0.774   2.137   2.113  0.6018 -1.4513  0.6704
  976MOL0     H34680  -0.905   1.913   2.067 -1.7480  1.9928  1.5534
  976MOL0     H34681  -0.993   2.061   2.019  0.6819  0.7893 -0.8922
  976MOL0     H34682  -0.844   1.870   1.840 -0.4788  0.5156 -1.2179
  976MOL0     H34683  -0.910   2.013   1.783  0.6978 -0.9778  1.2764
  976MOL0     H34684  -1.248   1.754   1.833  1.0234 -0.9134 -2.8641
  976MOL0     H34685  -0.493   1.785   1.996 -0.4905 -0.4953 -2.4117
  976MOL0     H34686  -0.272   1.555   2.062  0.8120 -1.5531 -0.8960
  976MOL0     H34687  -0.403   1.603   1.961  0.3866  2.2433 -1.3992
  976MOL0     H34688  -0.244   1.599   1.890 -1.9860 -0.5373 -1.2628
  977MOL0     O34689   3.456   9.123   3.618 -0.1315  0.2375  0.5392
  977MOL0     C34690   3.460   9.008   3.654 -0.7105  0.9724  0.4416
  977MOL0     O34691   3.349   8.936   3.694 -0.4363 -0.4309 -0.1742
  977MOL0     C34692   3.224   8.977   3.644  0.2833 -0.4327 -0.4562
  977MOL0     C34693   3.185   8.961   3.507  0.2948 -0.6825 -0.3175
  977MOL0     C34694   3.058   9.010   3.466  0.9952  0.5652  1.2158
  977MOL0     C34695   2.963   9.067   3.554  0.2534 -1.1525  0.4728
  977MOL0     O34696   2.842   9.116   3.505 -0.1927 -0.2587 -0.4388
  977MOL0     C34697   2.816   9.108   3.362 -0.2280 -0.1019 -0.3889
  977MOL0     C34698   2.670   9.145   3.338  0.4642  0.1655 -0.0722
  977MOL0     C34699   2.578   9.063   3.434  0.1824  0.9219 -0.1283
  977MOL0     C34700   2.421   9.092   3.405  0.6152  0.0316  1.0435
  977MOL0     C34701   2.339   8.966   3.429  0.1304 -0.2506  0.1371
  977MOL0     C34702   2.187   8.971   3.379  0.2360 -0.3763  0.0143
  977MOL0     C34703   2.109   8.860   3.437  0.7807 -0.3560 -0.0412
  977MOL0     C34704   1.952   8.877   3.409  0.4535  0.2765 -0.4378
  977MOL0     N34705   1.879   8.778   3.495 -0.7755 -0.4271  0.2872
  977MOL0     C34706   1.889   8.779   3.636  0.2798  0.4598  0.4385
  977MOL0     C34707   1.827   8.656   3.671 -0.5586 -0.9635  0.9874
  977MOL0     C34708   1.812   8.596   3.811  0.5774 -0.1775  0.0300
  977MOL0     C34709   1.949   8.571   3.875  0.0189  0.1305 -0.1871
  977MOL0     C34710   2.043   8.496   3.784 -0.2377  0.2729  0.1877
  977MOL0     C34711   2.171   8.477   3.859  0.1404  0.2496 -0.7640
  977MOL0     O34712   2.244   8.604   3.867  0.9084  0.4232 -0.4730
  977MOL0     C34713   2.376   8.597   3.901  0.2184  0.1965  1.0407
  977MOL0     C34714   2.446   8.477   3.940 -0.1439 -0.8623 -0.3228
  977MOL0     C34715   2.580   8.481   3.984 -0.3929 -0.4351  0.6392
  977MOL0     C34716   2.644   8.359   4.028 -0.0012 -0.1767  1.1369
  977MOL0     C34717   2.651   8.604   3.987 -0.0957 -1.4001 -0.0962
  977MOL0     C34718   2.799   8.622   4.009 -0.1040 -0.2387 -1.5739
  977MOL0     O34719   2.849   8.746   4.027 -0.2576 -0.7291 -0.8381
  977MOL0     C34720   2.984   8.743   4.042  0.2778  0.1500 -0.4813
  977MOL0     C34721   3.057   8.751   3.923  0.1008  0.5819 -0.5537
  977MOL0     C34722   3.199   8.767   3.937 -1.1630  0.3580 -1.1675
  977MOL0     C34723   3.267   8.753   4.057 -0.5816  0.3603  0.1916
  977MOL0     O34724   3.398   8.743   4.078  0.8907 -0.5981 -0.1089
  977MOL0     C34725   3.480   8.831   3.992 -0.0290  0.3413  0.1421
  977MOL0     C34726   3.627   8.835   4.045 -0.5881  0.1181  0.4151
  977MOL0     C34727   3.688   8.696   4.044 -0.3455  0.3409  0.4679
  977MOL0     C34728   3.844   8.685   4.036  0.8805 -0.2977 -0.6037
  977MOL0     C34729   3.887   8.533   4.037 -0.2658  0.4926  0.5781
  977MOL0     C34730   3.855   8.452   4.162 -0.1739 -0.0740 -0.0518
  977MOL0     C34731   3.956   8.345   4.201 -0.0681 -0.5281 -0.0684
  977MOL0     C34732   3.927   8.272   4.332 -0.2900  0.1621  0.0119
  977MOL0    Cl34733   3.909   8.380   4.475  0.1766 -0.1466 -0.0011
  977MOL0     C34734   3.186   8.731   4.165  0.0010  0.2356  0.1273
  977MOL0     C34735   3.047   8.732   4.161 -0.2607  0.0339  0.3498
  977MOL0     O34736   2.865   8.520   3.999 -0.1951  0.0950  0.0434
  977MOL0     C34737   2.579   8.721   3.949 -0.6217 -0.7666  0.4031
  977MOL0     C34738   2.447   8.716   3.909  0.8802  0.4304  0.0603
  977MOL0     N34739   1.791   8.595   3.549 -0.7678 -0.0457  0.0072
  977MOL0     N34740   1.827   8.659   3.448 -0.2849  0.2629  0.1024
  977MOL0     C34741   3.002   9.085   3.683  0.0940  0.1408 -0.6371
  977MOL0     C34742   3.131   9.038   3.731  1.0385 -0.3807 -0.7545
  977MOL0     C34743   3.594   8.950   3.645  0.2219  0.0736 -0.0482
  977MOL0     C34744   3.701   9.022   3.706 -0.0220 -0.3994 -0.7541
  977MOL0     C34745   3.835   8.978   3.703  0.4123 -0.2687  0.6455
  977MOL0     C34746   3.872   8.872   3.625 -0.6671  1.0210  0.0179
  977MOL0     O34747   4.007   8.831   3.600  0.6181 -0.0448  0.3256
  977MOL0     C34748   4.111   8.879   3.685  0.0319 -0.0296  0.5446
  977MOL0     C34749   4.249   8.822   3.643 -0.1535  0.0943  0.4759
  977MOL0     C34750   4.257   8.668   3.655  0.1108 -0.8934 -1.5330
  977MOL0     C34751   4.394   8.606   3.641  0.1243  0.3994  0.0680
  977MOL0     C34752   4.488   8.626   3.750  1.0310 -0.0157  0.2953
  977MOL0     C34753   4.556   8.650   3.845  0.8037 -0.1620  0.2183
  977MOL0     C34754   3.761   8.797   3.564 -0.9138  0.3492  0.0065
  977MOL0     C34755   3.625   8.831   3.578  0.3299 -0.0516  0.2534
  977MOL0     C34756   3.523   8.751   3.495  0.8112 -0.1706  0.2993
  977MOL0     H34757   3.252   8.919   3.432  0.0899  1.2952 -1.6866
  977MOL0     H34758   3.038   8.999   3.360 -2.9748 -3.2027  2.0461
  977MOL0     H34759   2.824   9.003   3.333 -1.7135 -0.5775  0.7631
  977MOL0     H34760   2.886   9.163   3.300  0.0035  3.2352  2.5290
  977MOL0     H34761   2.663   9.254   3.343  2.3049  0.2681  1.6178
  977MOL0     H34762   2.644   9.120   3.235 -1.0389  0.9934  0.0806
  977MOL0     H34763   2.602   8.957   3.439 -2.2570  0.3870  3.3566
  977MOL0     H34764   2.587   9.086   3.540  0.3509 -0.3320  0.1400
  977MOL0     H34765   2.394   9.176   3.469 -2.4237 -0.4149  0.4976
  977MOL0     H34766   2.399   9.131   3.305 -4.1183  2.4566  2.6923
  977MOL0     H34767   2.337   8.949   3.537 -0.1997 -1.7364 -0.0893
  977MOL0     H34768   2.391   8.882   3.383 -2.1366 -1.7497  0.2006
  977MOL0     H34769   2.121   9.056   3.400 -1.6392 -2.2872  2.5006
  977MOL0     H34770   2.173   8.962   3.271 -2.7020 -1.3777  0.3882
  977MOL0     H34771   2.121   8.856   3.546 -0.5912 -1.6209  0.0875
  977MOL0     H34772   2.149   8.768   3.394  0.7329 -0.5129  0.2515
  977MOL0     H34773   1.908   8.975   3.432  1.0078  0.5371 -0.4709
  977MOL0     H34774   1.931   8.868   3.302  1.1097  1.3130 -0.6714
  977MOL0     H34775   1.928   8.849   3.710  2.5688 -0.9138  0.6235
  977MOL0     H34776   1.761   8.500   3.795 -0.3411  0.5098 -1.3401
  977MOL0     H34777   1.743   8.660   3.866 -1.4549 -1.1176 -1.2895
  977MOL0     H34778   1.998   8.667   3.895  4.4553 -1.8445 -0.4284
  977MOL0     H34779   1.950   8.523   3.973  3.1738  0.6689  0.1531
  977MOL0     H34780   2.001   8.399   3.756 -1.2924  1.3833 -2.4316
  977MOL0     H34781   2.055   8.547   3.688 -0.3578  1.7229  0.9139
  977MOL0     H34782   2.152   8.437   3.959  1.0740 -0.7571 -0.9593
  977MOL0     H34783   2.231   8.403   3.805  2.9059  0.8880  1.2236
  977MOL0     H34784   2.393   8.382   3.942  0.1987 -1.1275 -1.9952
  977MOL0     H34785   2.713   8.327   3.949  1.1863  3.6851  0.3840
  977MOL0     H34786   2.560   8.292   4.050 -2.8398  2.2080 -1.5082
  977MOL0     H34787   2.707   8.376   4.116  1.2945 -1.3047  0.4749
  977MOL0     H34788   3.008   8.766   3.828  2.4013 -0.3424 -1.9604
  977MOL0     H34789   3.259   8.768   3.847 -0.5283  0.3626 -0.7500
  977MOL0     H34790   3.470   8.812   3.885  0.2712  1.0198 -0.0164
  977MOL0     H34791   3.436   8.931   4.000 -4.7885 -1.4472 -0.3709
  977MOL0     H34792   3.689   8.899   3.982  2.8390 -3.1251  0.1232
  977MOL0     H34793   3.625   8.867   4.149 -0.1025  0.0569  0.4498
  977MOL0     H34794   3.654   8.646   3.952  1.2174  1.1470 -0.5871
  977MOL0     H34795   3.646   8.640   4.128 -1.7154  1.4398  0.5539
  977MOL0     H34796   3.886   8.742   4.119 -0.8797 -2.6684  2.1049
  977MOL0     H34797   3.871   8.723   3.937  1.9939 -1.4481 -0.7707
  977MOL0     H34798   3.855   8.477   3.949 -2.0029  0.1455  1.3894
  977MOL0     H34799   3.995   8.544   4.026  0.3140 -0.6785  4.0700
  977MOL0     H34800   3.760   8.401   4.145 -0.8360  1.5663 -1.4333
  977MOL0     H34801   3.843   8.512   4.253  0.2252 -2.4434  1.6891
  977MOL0     H34802   4.052   8.394   4.222 -0.8638  0.5132  1.2481
  977MOL0     H34803   3.974   8.272   4.121 -2.4379 -1.5459  0.2320
  977MOL0     H34804   4.005   8.197   4.347 -1.2108 -0.8716 -0.3158
  977MOL0     H34805   3.833   8.221   4.313 -0.0398  0.2260 -1.5547
  977MOL0     H34806   3.235   8.706   4.258  0.2297 -2.7236 -0.6989
  977MOL0     H34807   2.991   8.727   4.254 -0.3243  3.0236  0.5465
  977MOL0     H34808   2.633   8.815   3.943  1.3600 -1.9399 -3.1371
  977MOL0     H34809   2.396   8.807   3.880 -5.2215 -2.0007  1.5106
  977MOL0     H34810   2.939   9.138   3.754  1.3472 -0.1843  0.7646
  977MOL0     H34811   3.170   9.042   3.833  0.4600 -1.1677 -0.4877
  977MOL0     H34812   3.680   9.108   3.768  1.8163 -0.9349  0.6923
  977MOL0     H34813   3.902   9.037   3.763 -2.2959 -0.3569  4.0945
  977MOL0     H34814   4.098   8.987   3.676 -1.0805 -0.2097 -0.3027
  977MOL0     H34815   4.093   8.841   3.786 -0.8969  0.0222  0.4100
  977MOL0     H34816   4.331   8.870   3.698  2.1177 -2.4249 -0.4749
  977MOL0     H34817   4.269   8.849   3.539  0.3436  1.3337  0.8713
  977MOL0     H34818   4.236   8.652   3.762 -0.0550  2.7536 -0.9161
  977MOL0     H34819   4.180   8.624   3.591 -2.3955  3.9984 -2.3301
  977MOL0     H34820   4.437   8.659   3.555  0.4443 -1.2698 -0.8593
  977MOL0     H34821   4.401   8.501   3.608  3.3645  1.0261 -1.6247
  977MOL0     H34822   4.635   8.684   3.908  3.2837 -2.7258 -1.2596
  977MOL0     H34823   3.792   8.712   3.505 -1.7109  0.3267 -0.3998
  977MOL0     H34824   3.432   8.735   3.553  0.1174 -0.1579 -0.7534
  977MOL0     H34825   3.500   8.805   3.403 -1.5565  0.3635  1.1269
  977MOL0     H34826   3.562   8.655   3.461  2.9847 -0.0166  2.1585
  978MOL0     O34827   1.787   4.324   8.446  0.3249 -0.2397 -0.1497
  978MOL0     C34828   1.715   4.369   8.360 -0.7389  0.6626 -0.1255
  978MOL0     O34829   1.749   4.371   8.229  0.1329 -0.0251  0.6940
  978MOL0     C34830   1.869   4.309   8.200 -0.2670 -0.1746 -0.2603
  978MOL0     C34831   1.887   4.176   8.159 -0.8739 -1.4916 -0.5000
  978MOL0     C34832   2.010   4.126   8.133 -0.1756 -0.4819 -0.3521
  978MOL0     C34833   2.122   4.197   8.158 -0.4918  0.0717 -0.1286
  978MOL0     O34834   2.247   4.130   8.129 -0.2342  0.0227  0.1824
  978MOL0     C34835   2.361   4.167   8.203  0.1406 -0.3247 -1.1288
  978MOL0     C34836   2.485   4.095   8.152  0.3111 -0.5206 -0.1522
  978MOL0     C34837   2.618   4.143   8.207 -0.0670  0.4243 -0.6588
  978MOL0     C34838   2.619   4.189   8.369 -0.2834 -0.0015  0.3701
  978MOL0     C34839   2.773   4.176   8.410 -0.5602  0.4668  0.1026
  978MOL0     C34840   2.803   4.209   8.556 -0.1843  0.4285 -0.5021
  978MOL0     C34841   2.920   4.302   8.579 -0.7880  0.4073  0.0587
  978MOL0     C34842   3.054   4.249   8.531  0.5931 -0.3604  0.1979
  978MOL0     N34843   3.084   4.110   8.552 -0.2801 -0.4431  0.0533
  978MOL0     C34844   3.100   4.010   8.456  0.6838 -0.4455  0.2992
  978MOL0     C34845   3.123   3.897   8.533  0.5163 -0.2799 -0.7522
  978MOL0     C34846   3.157   3.754   8.493 -0.3892 -0.1359 -0.4371
  978MOL0     C34847   3.293   3.758   8.426  0.2003  0.1185  0.3193
  978MOL0     C34848   3.362   3.622   8.458 -0.0956 -0.2079  0.2237
  978MOL0     C34849   3.496   3.591   8.378  1.0212 -0.3700  0.8740
  978MOL0     O34850   3.598   3.689   8.405 -0.6234 -0.0916  0.2424
  978MOL0     C34851   3.718   3.615   8.391  0.2304 -0.2843 -0.5617
  978MOL0     C34852   3.788   3.639   8.271 -0.0043  0.0701  0.1269
  978MOL0     C34853   3.908   3.568   8.241  0.4595 -0.5662  0.5634
  978MOL0     C34854   3.998   3.623   8.126  0.0803  0.2080  0.1392
  978MOL0     C34855   3.940   3.463   8.325 -0.1714 -0.2099  0.2698
  978MOL0     C34856   4.051   3.375   8.290  0.1023 -0.5881 -0.2674
  978MOL0     O34857   4.118   3.322   8.396 -0.2032  0.0656  0.0672
  978MOL0     C34858   4.233   3.248   8.372  0.7343  0.2152  0.3135
  978MOL0     C34859   4.342   3.306   8.311 -0.5086  0.3457  0.3101
  978MOL0     C34860   4.455   3.221   8.288  0.4452 -0.5342 -0.0745
  978MOL0     C34861   4.450   3.091   8.320  0.1482  0.2412 -0.2547
  978MOL0     O34862   4.565   3.010   8.287 -0.1264  0.0164  0.1352
  978MOL0     C34863   4.555   2.872   8.293 -0.3657  0.1715 -0.9339
  978MOL0     C34864   4.452   2.807   8.196 -0.5806  0.2836  0.5843
  978MOL0     C34865   4.451   2.653   8.203 -0.3304 -0.2037  0.5654
  978MOL0     C34866   4.370   2.595   8.091  0.7555 -0.3759  0.3125
  978MOL0     C34867   4.344   2.444   8.092  0.0097  0.1216  0.4437
  978MOL0     C34868   4.461   2.348   8.116 -0.5717  0.4243  0.2357
  978MOL0     C34869   4.414   2.205   8.129  1.2504 -0.3070  0.4228
  978MOL0     C34870   4.534   2.101   8.126 -0.6126 -0.0156 -0.3709
  978MOL0    Cl34871   4.627   2.117   7.974  0.1378  0.0787  0.2541
  978MOL0     C34872   4.340   3.036   8.381  0.1223  1.0323 -0.6278
  978MOL0     C34873   4.234   3.113   8.404  1.7189 -1.0467  0.3007
  978MOL0     O34874   4.066   3.343   8.175 -0.2896  0.0744  0.0727
  978MOL0     C34875   3.869   3.429   8.441 -0.2918  0.2283  0.2547
  978MOL0     C34876   3.752   3.502   8.472  0.4409 -0.0467 -0.5217
  978MOL0     N34877   3.125   3.935   8.667 -0.1419  0.0016  0.3090
  978MOL0     N34878   3.100   4.064   8.681  0.2219  0.5916  0.5032
  978MOL0     C34879   2.110   4.332   8.210 -1.4161 -0.3582  0.4816
  978MOL0     C34880   1.982   4.383   8.226 -0.5297  0.2360 -0.0966
  978MOL0     C34881   1.603   4.440   8.411  0.5214 -0.5973  0.7767
  978MOL0     C34882   1.569   4.550   8.331 -0.9234 -0.2956  0.0269
  978MOL0     C34883   1.470   4.636   8.377 -0.7872  0.1703 -0.3996
  978MOL0     C34884   1.404   4.606   8.501  0.1203  0.0701  0.4952
  978MOL0     O34885   1.303   4.695   8.530 -0.3839 -0.2439 -0.1834
  978MOL0     C34886   1.199   4.650   8.618 -0.5836  0.5974  0.3021
  978MOL0     C34887   1.106   4.771   8.648 -0.4414  0.0146  0.6907
  978MOL0     C34888   0.977   4.742   8.724  0.3686  0.4176 -0.4448
  978MOL0     C34889   0.863   4.665   8.637  0.0398 -0.0101 -0.0747
  978MOL0     C34890   0.870   4.520   8.669 -0.5103 -0.0504 -0.5814
  978MOL0     C34891   0.867   4.397   8.657 -0.3275  0.0052  0.0009
  978MOL0     C34892   1.432   4.485   8.562  0.3635 -0.4945  0.0119
  978MOL0     C34893   1.529   4.398   8.523 -0.4710  0.6212 -0.6671
  978MOL0     C34894   1.548   4.266   8.606 -0.4168  0.0402 -0.5506
  978MOL0     H34895   1.799   4.112   8.155 -3.7385  1.9029  1.7762
  978MOL0     H34896   2.013   4.022   8.100  2.1525 -0.6204  0.1638
  978MOL0     H34897   2.353   4.148   8.310  0.1312  1.0294 -0.8788
  978MOL0     H34898   2.379   4.274   8.191  1.8790 -0.3273  0.9322
  978MOL0     H34899   2.484   3.990   8.181 -0.8962 -0.1747  1.1916
  978MOL0     H34900   2.484   4.093   8.043 -1.8023 -1.1820 -0.1670
  978MOL0     H34901   2.684   4.057   8.213  1.2104  1.2622 -2.0228
  978MOL0     H34902   2.661   4.228   8.153 -0.9786  1.1884 -0.2229
  978MOL0     H34903   2.586   4.291   8.391  1.2836  0.8855 -1.1165
  978MOL0     H34904   2.554   4.115   8.416 -2.4075  0.2150 -2.0587
  978MOL0     H34905   2.832   4.240   8.343 -2.0051  2.5441  0.6825
  978MOL0     H34906   2.807   4.074   8.390 -2.5093  0.0331 -1.4031
  978MOL0     H34907   2.721   4.270   8.593  0.5001  2.0967 -1.6490
  978MOL0     H34908   2.817   4.122   8.622 -1.0778 -0.6761 -1.7023
  978MOL0     H34909   2.929   4.338   8.682  2.1589 -0.7667  0.3066
  978MOL0     H34910   2.910   4.394   8.520  0.1991  1.6873  1.8011
  978MOL0     H34911   3.061   4.275   8.425  0.5355 -1.2762 -0.0428
  978MOL0     H34912   3.120   4.315   8.589 -0.0924 -0.1078  0.6997
  978MOL0     H34913   3.086   4.020   8.349 -0.8343 -2.8432  0.1974
  978MOL0     H34914   3.082   3.708   8.428  1.0358 -1.7097 -1.0374
  978MOL0     H34915   3.146   3.698   8.587  2.5557  1.8982  1.2773
  978MOL0     H34916   3.289   3.778   8.318 -0.5092 -1.5938 -0.0072
  978MOL0     H34917   3.354   3.832   8.478 -1.4010  2.0088 -0.4179
  978MOL0     H34918   3.373   3.600   8.565  0.4798  0.0120  0.2111
  978MOL0     H34919   3.287   3.546   8.434 -0.7796  0.2235  0.9405
  978MOL0     H34920   3.528   3.490   8.403 -0.4869 -0.8886  0.8157
  978MOL0     H34921   3.467   3.593   8.273 -2.8128  2.5203  1.7310
  978MOL0     H34922   3.750   3.713   8.201  1.4791  0.3760 -0.3751
  978MOL0     H34923   3.937   3.620   8.035 -0.5802 -3.5508  0.5489
  978MOL0     H34924   4.082   3.563   8.090  0.8193  0.7062  0.9770
  978MOL0     H34925   4.040   3.722   8.144  2.4102 -0.6089 -0.4084
  978MOL0     H34926   4.327   3.411   8.287  0.8105  0.3634 -0.5792
  978MOL0     H34927   4.546   3.261   8.246 -0.7820  0.8857 -1.5173
  978MOL0     H34928   4.651   2.833   8.259  0.4230  0.2362  1.1215
  978MOL0     H34929   4.552   2.831   8.394  0.4924  2.4637  0.0788
  978MOL0     H34930   4.352   2.837   8.228  0.1855  1.6102  1.8771
  978MOL0     H34931   4.461   2.836   8.091 -0.2656 -2.1759 -0.1399
  978MOL0     H34932   4.411   2.626   8.301 -3.0717  0.2076 -0.3238
  978MOL0     H34933   4.552   2.615   8.192 -0.6795 -1.7615  2.3686
  978MOL0     H34934   4.409   2.627   7.994  0.5215 -1.0884 -0.0230
  978MOL0     H34935   4.268   2.637   8.093  0.6783 -0.4310 -1.3168
  978MOL0     H34936   4.278   2.421   8.176  0.2040 -1.0006  0.3107
  978MOL0     H34937   4.290   2.415   8.001  1.6779  0.7301 -0.7831
  978MOL0     H34938   4.518   2.379   8.204 -2.4991 -1.5821  2.3535
  978MOL0     H34939   4.533   2.350   8.034  3.7218 -3.5803  3.3527
  978MOL0     H34940   4.354   2.181   8.041  2.7153  0.3239 -0.7909
  978MOL0     H34941   4.352   2.197   8.219  1.0633  3.2656  0.7837
  978MOL0     H34942   4.491   2.001   8.136 -0.0582 -0.4453 -1.8938
  978MOL0     H34943   4.604   2.104   8.210 -0.2245 -0.7341 -0.6594
  978MOL0     H34944   4.341   2.935   8.419  1.4820  1.0908 -0.4620
  978MOL0     H34945   4.141   3.080   8.449  0.8936 -0.2531 -0.7571
  978MOL0     H34946   3.885   3.339   8.500 -3.1072 -0.7327 -0.3045
  978MOL0     H34947   3.686   3.470   8.552  0.7791  0.6577  0.0463
  978MOL0     H34948   2.196   4.394   8.231 -0.9932 -0.7807  0.0155
  978MOL0     H34949   1.983   4.486   8.262 -0.7913 -0.8165  3.2023
  978MOL0     H34950   1.621   4.578   8.240  0.9899 -0.6211  0.9746
  978MOL0     H34951   1.428   4.722   8.327 -4.2676 -0.5615  0.9622
  978MOL0     H34952   1.148   4.560   8.583  1.1478 -0.1645 -0.3837
  978MOL0     H34953   1.246   4.626   8.714 -0.2025  1.3285  0.2974
  978MOL0     H34954   1.089   4.817   8.550  1.6409 -1.8072 -0.6285
  978MOL0     H34955   1.164   4.842   8.707 -1.0265  3.3986 -2.4783
  978MOL0     H34956   0.985   4.688   8.819  2.7812  0.3523 -0.6167
  978MOL0     H34957   0.933   4.841   8.739  2.4108  0.9954  2.7772
  978MOL0     H34958   0.874   4.679   8.529  0.2580  0.4369  0.0020
  978MOL0     H34959   0.767   4.710   8.663  1.8855  3.5643  1.2420
  978MOL0     H34960   0.860   4.290   8.656 -2.3225  0.0389 -3.4124
  978MOL0     H34961   1.368   4.453   8.644 -0.8681 -1.2502 -1.1934
  978MOL0     H34962   1.621   4.281   8.686 -0.7761 -1.0644  0.0043
  978MOL0     H34963   1.460   4.230   8.660 -0.1583 -0.3969 -0.4150
  978MOL0     H34964   1.578   4.180   8.545  0.7382 -1.6799  2.2588
  979MOL0     O34965   4.257   7.806   3.598 -0.6485 -0.1588 -0.0193
  979MOL0     C34966   4.278   7.689   3.618  0.0637  0.1859 -0.8604
  979MOL0     O34967   4.401   7.630   3.608  0.7401 -0.1466  0.3097
  979MOL0     C34968   4.509   7.701   3.577 -0.2462 -0.6397  0.4738
  979MOL0     C34969   4.628   7.655   3.643 -0.1780  0.3213 -0.4162
  979MOL0     C34970   4.748   7.722   3.607  0.1543 -0.0204  0.3641
  979MOL0     C34971   4.748   7.831   3.522  0.5231  0.4604  0.2044
  979MOL0     O34972   4.872   7.870   3.480  0.3240  1.3081  0.3304
  979MOL0     C34973   4.892   7.927   3.345 -0.1748 -0.0396 -0.1320
  979MOL0     C34974   5.035   7.917   3.294 -0.3615 -0.3404 -1.4672
  979MOL0     C34975   5.077   7.778   3.279 -0.3280 -0.3751  0.2349
  979MOL0     C34976   5.213   7.758   3.238 -0.3926  0.7927  0.7034
  979MOL0     C34977   5.315   7.806   3.333  0.6320  0.1134  0.2047
  979MOL0     C34978   5.447   7.814   3.260 -0.4958  0.0490  0.1977
  979MOL0     C34979   5.554   7.867   3.352  0.1457 -0.0031 -0.4165
  979MOL0     C34980   5.685   7.928   3.299 -0.2089  0.0411  0.6549
  979MOL0     N34981   5.792   7.922   3.401 -0.4119  0.3733 -0.6061
  979MOL0     C34982   5.838   7.803   3.459  0.2253  0.7140  0.0651
  979MOL0     C34983   5.912   7.842   3.557  0.3231 -0.0551 -0.7073
  979MOL0     C34984   5.997   7.752   3.651  0.6428  0.8473  0.2271
  979MOL0     C34985   6.136   7.707   3.591 -0.4685  0.3431  0.3940
  979MOL0     C34986   6.200   7.626   3.700  0.2693  0.0650 -0.1233
  979MOL0     C34987   6.344   7.607   3.647  0.2308  0.5899 -1.1758
  979MOL0     O34988   6.408   7.512   3.739 -0.1829 -0.7148  0.0220
  979MOL0     C34989   6.536   7.539   3.763  0.3385  0.3535  0.6370
  979MOL0     C34990   6.586   7.501   3.888 -0.3540 -0.2828  0.5684
  979MOL0     C34991   6.717   7.521   3.933 -0.1367  0.2376 -0.3534
  979MOL0     C34992   6.752   7.475   4.073 -0.1352  0.1846  0.1514
  979MOL0     C34993   6.820   7.571   3.847  0.5180 -0.3963  0.1394
  979MOL0     C34994   6.965   7.575   3.892  0.0629  0.1852 -0.6099
  979MOL0     O34995   7.003   7.593   4.013  0.3059  0.7301 -0.1244
  979MOL0     C34996   7.137   7.614   4.044  0.0761  0.0314 -1.0775
  979MOL0     C34997   7.217   7.520   4.103 -0.6295 -0.4099  0.0553
  979MOL0     C34998   7.338   7.553   4.160 -0.6611 -0.6064 -1.0510
  979MOL0     C34999   7.382   7.680   4.142 -0.7270 -1.3211  0.3648
  979MOL0     O35000   7.520   7.690   4.172  0.3034 -0.7270 -0.1331
  979MOL0     C35001   7.596   7.740   4.063  0.0318 -0.0232  0.1480
  979MOL0     C35002   7.746   7.707   4.076 -0.2205  0.3519  0.1212
  979MOL0     C35003   7.830   7.791   3.983 -0.2262  0.3484  0.0560
  979MOL0     C35004   7.979   7.753   3.995  0.5434 -0.9402 -0.0788
  979MOL0     C35005   8.071   7.868   3.995  0.4012  0.3986  0.7700
  979MOL0     C35006   8.063   7.941   4.123  0.2555 -0.0328 -0.3406
  979MOL0     C35007   8.165   8.049   4.150 -0.1919  0.0585  0.9054
  979MOL0     C35008   8.150   8.105   4.289 -0.5237  0.1496  0.0698
  979MOL0    Cl35009   8.273   8.233   4.302 -0.1871  0.7442 -0.7209
  979MOL0     C35010   7.310   7.778   4.074  0.5103  0.2407  0.0056
  979MOL0     C35011   7.178   7.750   4.041  0.3362  0.3709  0.0528
  979MOL0     O35012   7.050   7.568   3.796  0.2959 -0.2278  0.1574
  979MOL0     C35013   6.769   7.592   3.717 -0.2902 -0.5616 -0.4645
  979MOL0     C35014   6.638   7.583   3.672  0.6587 -0.0651 -1.2238
  979MOL0     N35015   5.916   7.976   3.551  0.3916 -0.6147  0.2806
  979MOL0     N35016   5.849   8.029   3.452 -0.3050  0.4577 -0.3317
  979MOL0     C35017   4.628   7.877   3.469  0.2890  0.4153 -0.4347
  979MOL0     C35018   4.511   7.810   3.485 -0.2673 -0.4090 -0.0773
  979MOL0     C35019   4.160   7.615   3.662  0.4706  2.0001 -0.1260
  979MOL0     C35020   4.183   7.491   3.731 -0.3148 -0.7397 -0.4781
  979MOL0     C35021   4.078   7.422   3.796 -0.2516  0.5572  0.2898
  979MOL0     C35022   3.947   7.462   3.781 -0.2410  0.1890  0.0643
  979MOL0     O35023   3.856   7.379   3.844  0.1530 -0.1246 -0.5128
  979MOL0     C35024   3.719   7.424   3.847 -0.3563  0.1868  0.7600
  979MOL0     C35025   3.645   7.404   3.712  1.0080 -0.6048  0.2655
  979MOL0     C35026   3.493   7.454   3.715  0.6009  0.4621  0.7167
  979MOL0     C35027   3.432   7.409   3.582  0.5032 -0.5650 -0.1582
  979MOL0     C35028   3.487   7.490   3.465 -0.3823  0.6598 -0.5796
  979MOL0     C35029   3.518   7.557   3.371  0.6448  0.3716  0.5704
  979MOL0     C35030   3.918   7.579   3.707  0.3982  0.7250  0.8416
  979MOL0     C35031   4.021   7.661   3.655  0.5717  0.1816  0.6961
  979MOL0     C35032   3.977   7.803   3.606  0.3097  0.7587 -0.3672
  979MOL0     H35033   4.621   7.572   3.713  1.1384  0.4542 -0.1127
  979MOL0     H35034   4.838   7.684   3.654  0.5201  1.8725  1.2669
  979MOL0     H35035   4.872   8.035   3.344  0.3315  0.0652  0.5152
  979MOL0     H35036   4.827   7.870   3.277 -0.3502  0.8207 -0.7046
  979MOL0     H35037   5.057   7.978   3.206  0.6199 -0.7109 -1.4997
  979MOL0     H35038   5.092   7.963   3.376 -2.0163  0.7099 -0.8516
  979MOL0     H35039   5.063   7.730   3.376 -0.8027 -0.2904  0.2117
  979MOL0     H35040   5.016   7.728   3.204  2.6303  0.2328 -2.8282
  979MOL0     H35041   5.234   7.651   3.232 -0.7527  0.3331  4.7050
  979MOL0     H35042   5.234   7.809   3.143  1.4897 -1.0488  0.0649
  979MOL0     H35043   5.337   7.735   3.413  0.0276 -0.6230 -0.2686
  979MOL0     H35044   5.279   7.896   3.384 -1.4415 -0.7265  0.3274
  979MOL0     H35045   5.473   7.717   3.217  0.8592 -0.3158  1.7390
  979MOL0     H35046   5.427   7.884   3.179  1.4094  1.2189  0.6959
  979MOL0     H35047   5.574   7.787   3.423  0.4993  1.2877  0.9705
  979MOL0     H35048   5.506   7.939   3.418 -0.7546 -1.2091  0.2985
  979MOL0     H35049   5.724   7.889   3.205 -1.8517  1.7459 -0.8053
  979MOL0     H35050   5.671   8.033   3.270  1.5487 -0.5745 -2.8869
  979MOL0     H35051   5.815   7.703   3.424 -0.9783  1.1195 -0.3715
  979MOL0     H35052   5.952   7.658   3.682  2.0895  0.1319  0.2551
  979MOL0     H35053   6.012   7.813   3.741  0.6536  1.6972 -0.3369
  979MOL0     H35054   6.123   7.645   3.502  2.2767  0.3143 -0.0537
  979MOL0     H35055   6.181   7.798   3.551  0.8405 -0.0243  0.9955
  979MOL0     H35056   6.215   7.669   3.799 -1.9389 -0.4579  0.4978
  979MOL0     H35057   6.139   7.536   3.716 -0.1267  0.4589  0.6144
  979MOL0     H35058   6.349   7.567   3.546  0.8211 -0.6395 -0.6796
  979MOL0     H35059   6.387   7.707   3.658 -0.5335  0.8805 -0.7028
  979MOL0     H35060   6.516   7.448   3.952 -0.1748 -1.7461 -0.3952
  979MOL0     H35061   6.845   7.418   4.068 -0.7034 -0.6457 -1.2890
  979MOL0     H35062   6.666   7.420   4.111  0.1985 -0.0093  0.6396
  979MOL0     H35063   6.771   7.568   4.127  1.9449  0.0796 -0.3194
  979MOL0     H35064   7.182   7.417   4.103  0.5969 -0.9858 -3.8693
  979MOL0     H35065   7.397   7.476   4.208 -1.2233  0.7015  2.0074
  979MOL0     H35066   7.568   7.682   3.975 -0.3780 -4.1261  2.7106
  979MOL0     H35067   7.582   7.846   4.043 -2.3541 -0.2416  0.3962
  979MOL0     H35068   7.770   7.736   4.179 -0.2845 -1.0958  0.5692
  979MOL0     H35069   7.764   7.599   4.068  0.8779  0.3254  2.2650
  979MOL0     H35070   7.803   7.895   4.003 -2.8104  0.1537 -1.9620
  979MOL0     H35071   7.809   7.768   3.878  2.6975 -0.9087 -0.3704
  979MOL0     H35072   8.006   7.685   3.914  1.5062 -1.6704  0.8282
  979MOL0     H35073   7.992   7.693   4.085 -1.7042 -1.2227  0.1034
  979MOL0     H35074   8.176   7.839   3.979  0.3626  0.0671  1.0989
  979MOL0     H35075   8.035   7.940   3.920 -2.1708  0.8117  2.2855
  979MOL0     H35076   8.074   7.864   4.199  2.4467 -0.6798 -1.2441
  979MOL0     H35077   7.965   7.989   4.133  1.0513  1.6680 -0.2175
  979MOL0     H35078   8.150   8.125   4.073 -0.7125 -0.8020  0.1322
  979MOL0     H35079   8.262   8.000   4.143 -0.1310  0.4403 -3.7741
  979MOL0     H35080   8.168   8.031   4.367 -1.0025 -2.0238 -1.7740
  979MOL0     H35081   8.053   8.153   4.306  0.0819  1.4894 -0.1301
  979MOL0     H35082   7.351   7.876   4.048  2.2350  0.2115  2.3139
  979MOL0     H35083   7.112   7.822   3.993 -0.2529 -0.6349 -0.6938
  979MOL0     H35084   6.838   7.634   3.643 -0.6192 -0.8517 -0.9404
  979MOL0     H35085   6.618   7.615   3.571 -0.3625  2.4097 -0.3198
  979MOL0     H35086   4.631   7.966   3.406  2.3001  2.9570  2.9056
  979MOL0     H35087   4.436   7.844   3.414  0.2809 -0.0494 -0.4896
  979MOL0     H35088   4.284   7.450   3.733  0.7553  1.6719  2.4714
  979MOL0     H35089   4.095   7.335   3.858  2.0206  0.4812 -0.3547
  979MOL0     H35090   3.667   7.373   3.929 -2.1233  1.0474  0.2164
  979MOL0     H35091   3.721   7.532   3.866 -1.0399  0.2427  0.5521
  979MOL0     H35092   3.631   7.296   3.700 -1.6738 -0.3377  0.3364
  979MOL0     H35093   3.694   7.438   3.621  1.1619  0.8287  0.8613
  979MOL0     H35094   3.430   7.410   3.794 -1.3790 -2.3335 -2.1786
  979MOL0     H35095   3.479   7.563   3.720  2.7547  1.0313 -2.6565
  979MOL0     H35096   3.323   7.420   3.578  0.5842  0.6434  0.2949
  979MOL0     H35097   3.448   7.301   3.574  0.0910 -0.6446  0.0837
  979MOL0     H35098   3.534   7.613   3.281 -0.9579 -1.3536 -0.8371
  979MOL0     H35099   3.817   7.614   3.691  0.6720  1.8104  1.3663
  979MOL0     H35100   4.039   7.846   3.528 -0.2239 -0.8867 -1.7717
  979MOL0     H35101   3.881   7.785   3.556  1.1368  0.5414 -1.8999
  979MOL0     H35102   3.957   7.879   3.682 -0.3932  1.0315 -0.8161
  980MOL0     O35103   6.905   7.709   8.574  0.8990 -0.5253  0.3066
  980MOL0     C35104   6.842   7.805   8.604  0.0735 -0.0899  0.0872
  980MOL0     O35105   6.736   7.854   8.529 -0.7026  0.7192 -0.6960
  980MOL0     C35106   6.714   7.792   8.405 -0.0122 -0.6296 -0.6160
  980MOL0     C35107   6.796   7.812   8.290 -0.8877  0.0709  0.6192
  980MOL0     C35108   6.770   7.738   8.163 -0.0793 -1.2214 -0.7073
  980MOL0     C35109   6.656   7.667   8.146 -0.2676 -0.5515  0.5993
  980MOL0     O35110   6.614   7.605   8.031 -0.1230 -0.0298  0.3746
  980MOL0     C35111   6.626   7.463   8.024  0.1949 -0.2293 -0.1590
  980MOL0     C35112   6.761   7.424   7.965  0.7853  0.7918 -0.5495
  980MOL0     C35113   6.788   7.281   7.962  0.4822  0.6626  0.1061
  980MOL0     C35114   6.818   7.234   8.096  0.3465 -0.0489 -0.6215
  980MOL0     C35115   6.861   7.088   8.103 -0.9200 -0.0784  0.8362
  980MOL0     C35116   6.853   7.031   8.244  0.2661 -0.1509 -0.8999
  980MOL0     C35117   6.892   6.886   8.271 -0.3352 -0.1406  0.1925
  980MOL0     C35118   6.937   6.867   8.421 -0.2745 -0.0796 -0.2607
  980MOL0     N35119   7.029   6.755   8.441  0.5266 -0.5617 -0.5706
  980MOL0     C35120   7.127   6.768   8.528  0.1406  0.5971 -0.3370
  980MOL0     C35121   7.180   6.643   8.530 -0.1019  0.6822 -0.1736
  980MOL0     C35122   7.296   6.592   8.600 -0.0316  0.8025 -0.1485
  980MOL0     C35123   7.430   6.640   8.548 -0.4342 -0.2427  0.3831
  980MOL0     C35124   7.555   6.545   8.543  0.5911 -0.5636  0.1174
  980MOL0     C35125   7.586   6.478   8.679 -0.4612 -0.3376 -0.5966
  980MOL0     O35126   7.655   6.581   8.749 -0.2477 -0.6703  0.0146
  980MOL0     C35127   7.735   6.544   8.860  0.5450  0.3492 -0.2738
  980MOL0     C35128   7.744   6.415   8.919 -0.4731 -0.1148 -0.4266
  980MOL0     C35129   7.814   6.389   9.034  0.4448  0.9470  0.5831
  980MOL0     C35130   7.795   6.254   9.092 -0.1364 -0.2611 -0.0287
  980MOL0     C35131   7.896   6.490   9.089 -0.0607 -0.0003 -0.2967
  980MOL0     C35132   7.989   6.472   9.208  0.6072 -0.5918  0.7484
  980MOL0     O35133   8.021   6.598   9.266  0.4524  0.4744 -0.3407
  980MOL0     C35134   8.072   6.582   9.395 -0.0186 -0.9239 -0.4138
  980MOL0     C35135   7.999   6.637   9.499 -0.9344 -1.1477 -0.5923
  980MOL0     C35136   8.059   6.646   9.625 -0.2279 -0.5597  0.2628
  980MOL0     C35137   8.196   6.611   9.640  0.4491  1.0191 -0.4775
  980MOL0     O35138   8.240   6.638   9.770 -0.0626  0.8637 -0.1066
  980MOL0     C35139   8.377   6.612   9.799 -0.7673 -0.5477  1.5822
  980MOL0     C35140   8.404   6.463   9.835 -0.9772  0.1525  0.1312
  980MOL0     C35141   8.561   6.423   9.851 -1.0355  0.0903  0.6594
  980MOL0     C35142   8.617   6.382   9.715  0.7101  0.0052 -0.2498
  980MOL0     C35143   8.767   6.339   9.728  0.3638  0.1249 -0.3684
  980MOL0     C35144   8.820   6.278   9.602 -0.0314  0.5688 -0.2990
  980MOL0     C35145   8.952   6.209   9.620 -0.8739  0.2465 -0.7677
  980MOL0     C35146   9.077   6.288   9.609  0.0361 -0.5595  0.7280
  980MOL0    Cl35147   9.221   6.184   9.590 -0.2893  0.3412 -0.4350
  980MOL0     C35148   8.270   6.554   9.531  0.1209  1.3225  0.2607
  980MOL0     C35149   8.201   6.530   9.407  0.4904 -0.2718  0.2998
  980MOL0     O35150   8.023   6.366   9.253 -0.4251 -0.1767 -0.5939
  980MOL0     C35151   7.899   6.608   9.019 -0.6326 -0.1234 -0.3778
  980MOL0     C35152   7.822   6.637   8.912  0.2516  0.4911  0.1508
  980MOL0     N35153   7.111   6.553   8.448 -0.1933 -0.6244  0.0597
  980MOL0     N35154   7.013   6.622   8.403 -0.2319  0.4702 -0.0119
  980MOL0     C35155   6.571   7.654   8.254  0.7005  0.5076  0.0084
  980MOL0     C35156   6.598   7.714   8.380 -0.7976  0.1300  0.4943
  980MOL0     C35157   6.891   7.874   8.734 -0.3043  0.2246  1.3259
  980MOL0     C35158   6.862   8.013   8.737  0.6790 -0.1823 -0.3294
  980MOL0     C35159   6.920   8.093   8.833 -0.3001  0.8014  0.4538
  980MOL0     C35160   7.000   8.035   8.931  0.3463 -0.0696  0.0418
  980MOL0     O35161   7.045   8.126   9.028  0.4794  0.2786  0.3050
  980MOL0     C35162   7.077   8.082   9.160 -0.2081 -0.1445  0.6310
  980MOL0     C35163   7.095   8.203   9.257  0.2788 -0.0018 -0.3904
  980MOL0     C35164   7.236   8.261   9.243  0.0402 -0.3199  0.4779
  980MOL0     C35165   7.352   8.199   9.328  0.1172  0.2351  0.8961
  980MOL0     C35166   7.474   8.268   9.287  0.0914 -0.2252  0.2615
  980MOL0     C35167   7.574   8.325   9.254  0.1002  0.3881 -0.0793
  980MOL0     C35168   7.021   7.901   8.937 -0.2302  0.6993 -0.4042
  980MOL0     C35169   6.970   7.818   8.836  0.2895 -0.7568  0.4667
  980MOL0     C35170   7.005   7.674   8.841  0.1783  0.0577  0.0501
  980MOL0     H35171   6.892   7.863   8.299  0.4644 -2.1724 -0.1160
  980MOL0     H35172   6.844   7.740   8.083 -0.7173  3.3577 -1.4808
  980MOL0     H35173   6.551   7.443   7.948 -2.4918 -0.6019  2.3939
  980MOL0     H35174   6.590   7.408   8.112 -3.5074 -0.8964 -1.8875
  980MOL0     H35175   6.757   7.467   7.865  0.9632 -0.4963 -1.1394
  980MOL0     H35176   6.836   7.474   8.027 -0.2142  2.3288 -0.5477
  980MOL0     H35177   6.707   7.228   7.913  0.1454  1.0128  0.2725
  980MOL0     H35178   6.871   7.258   7.895 -0.6539  1.1176 -1.4933
  980MOL0     H35179   6.886   7.302   8.148 -1.1632  0.6651  0.5096
  980MOL0     H35180   6.725   7.249   8.153  0.5224  2.0316 -0.7923
  980MOL0     H35181   6.964   7.082   8.065 -0.8659 -0.5466  1.0536
  980MOL0     H35182   6.796   7.031   8.036  0.2949 -3.5922  2.4278
  980MOL0     H35183   6.913   7.094   8.311  1.9878 -1.3149 -1.2859
  980MOL0     H35184   6.747   7.039   8.268  0.5831  0.9475  0.2699
  980MOL0     H35185   6.985   6.860   8.219  1.2812  3.0709  1.2259
  980MOL0     H35186   6.811   6.821   8.236 -0.3497  1.7485 -3.8604
  980MOL0     H35187   6.995   6.955   8.452 -0.6769  0.0807  0.0321
  980MOL0     H35188   6.851   6.855   8.487  0.9752 -2.8561  1.0442
  980MOL0     H35189   7.165   6.856   8.579  0.8768  1.3913 -2.1708
  980MOL0     H35190   7.291   6.483   8.610 -0.1353  0.7061 -1.1647
  980MOL0     H35191   7.289   6.628   8.703  2.7613 -0.3556  0.5580
  980MOL0     H35192   7.418   6.680   8.447  1.1259  0.8088  0.5787
  980MOL0     H35193   7.455   6.724   8.613 -1.5101  0.4463 -0.0871
  980MOL0     H35194   7.523   6.467   8.473 -2.0552 -0.2192  0.8216
  980MOL0     H35195   7.635   6.610   8.506  0.0069  1.2367  1.8596
  980MOL0     H35196   7.495   6.444   8.730 -0.3882 -0.5847 -0.6307
  980MOL0     H35197   7.654   6.394   8.661  1.4457  1.4875 -2.4324
  980MOL0     H35198   7.679   6.336   8.883 -0.6254  0.1956 -0.8300
  980MOL0     H35199   7.736   6.192   9.024  1.4901 -0.4016 -1.3711
  980MOL0     H35200   7.726   6.266   9.177 -1.9692  3.4550 -1.7750
  980MOL0     H35201   7.892   6.210   9.117  0.8950 -1.2121 -4.8473
  980MOL0     H35202   7.900   6.674   9.474 -0.2964  1.1754  0.1529
  980MOL0     H35203   8.018   6.676   9.721  2.1444 -0.1514  1.2132
  980MOL0     H35204   8.446   6.634   9.717  1.2141 -3.7974  2.1985
  980MOL0     H35205   8.415   6.679   9.877  2.5970  1.8153 -1.6751
  980MOL0     H35206   8.343   6.434   9.922 -0.8231 -2.5841 -0.5859
  980MOL0     H35207   8.360   6.403   9.755  0.2263  0.8759 -1.1081
  980MOL0     H35208   8.554   6.332   9.912 -2.7299  0.1314  0.5866
  980MOL0     H35209   8.628   6.500   9.890  0.3659  0.2619 -1.8560
  980MOL0     H35210   8.618   6.470   9.650 -2.9545  1.2362  1.1136
  980MOL0     H35211   8.557   6.303   9.669 -0.5403  0.8012 -0.0254
  980MOL0     H35212   8.831   6.426   9.743 -0.4139  1.1415 -2.5181
  980MOL0     H35213   8.775   6.271   9.813 -0.0343  0.7078  0.1458
  980MOL0     H35214   8.829   6.352   9.522 -0.1898  0.8508 -0.0563
  980MOL0     H35215   8.746   6.200   9.583  0.1369 -0.0850  1.5442
  980MOL0     H35216   8.960   6.127   9.548  1.4747  2.0487 -2.7438
  980MOL0     H35217   8.952   6.164   9.720  0.6807 -1.1196 -1.3323
  980MOL0     H35218   9.082   6.346   9.702  3.1700  1.7940 -0.7300
  980MOL0     H35219   9.077   6.361   9.528  1.8063 -0.2545  0.9517
  980MOL0     H35220   8.375   6.526   9.533  0.8003  3.5847 -0.0480
  980MOL0     H35221   8.247   6.486   9.319 -0.2777  1.3228 -0.9540
  980MOL0     H35222   7.968   6.689   9.040 -0.6393  0.2855 -1.8045
  980MOL0     H35223   7.838   6.737   8.873  1.2473  1.9684  3.9233
  980MOL0     H35224   6.485   7.590   8.236  0.8709 -0.2827  1.7919
  980MOL0     H35225   6.522   7.691   8.454 -1.1326  1.0647  0.4590
  980MOL0     H35226   6.795   8.040   8.656 -0.2042 -0.6269  0.2379
  980MOL0     H35227   6.878   8.192   8.841 -1.4258  0.5561 -1.6192
  980MOL0     H35228   6.997   8.018   9.197 -0.5979 -0.3262 -0.4937
  980MOL0     H35229   7.166   8.019   9.156  1.9398  2.5828  1.6370
  980MOL0     H35230   7.073   8.158   9.355  2.1139 -0.5012 -0.1675
  980MOL0     H35231   7.022   8.281   9.233 -1.1735  0.0088  3.3374
  980MOL0     H35232   7.273   8.243   9.142 -0.3777 -0.8204  0.4108
  980MOL0     H35233   7.226   8.369   9.260 -1.3219 -0.2324 -0.7617
  980MOL0     H35234   7.364   8.096   9.293 -0.4901  0.4529  0.0033
  980MOL0     H35235   7.342   8.221   9.435  1.3597  1.3199  0.8154
  980MOL0     H35236   7.672   8.357   9.226 -0.0409  2.4545  1.5214
  980MOL0     H35237   7.082   7.855   9.015 -0.3416  0.1627 -0.6296
  980MOL0     H35238   7.080   7.641   8.768 -0.4433 -2.4460  0.4370
  980MOL0     H35239   7.034   7.636   8.940  2.4182 -1.8418 -1.2273
  980MOL0     H35240   6.913   7.619   8.820  0.0511 -0.4699  1.7521
  981MOL0     O35241   6.773   9.039  11.122 -0.0255 -0.4204 -0.2181
  981MOL0     C35242   6.832   9.116  11.049  0.1772  1.5664  0.5537
  981MOL0     O35243   6.773   9.173  10.933 -0.1950 -0.1131  1.2399
  981MOL0     C35244   6.650   9.123  10.896 -0.9177  0.1173  0.0300
  981MOL0     C35245   6.546   9.201  10.845  0.1559  0.8209 -0.0834
  981MOL0     C35246   6.435   9.139  10.784 -0.2945 -0.0224 -0.6181
  981MOL0     C35247   6.412   9.000  10.785 -0.2748 -0.0419 -0.1274
  981MOL0     O35248   6.298   8.939  10.749 -0.5001  0.5791  0.2688
  981MOL0     C35249   6.195   9.016  10.675  0.1856 -0.1687 -0.0920
  981MOL0     C35250   6.102   8.901  10.628 -0.3619 -0.1302 -0.0901
  981MOL0     C35251   5.978   8.956  10.547 -0.2765  0.0267 -0.0373
  981MOL0     C35252   5.862   8.963  10.641 -1.7619  0.6679 -0.2585
  981MOL0     C35253   5.741   8.988  10.562 -0.0070  0.3265  0.0021
  981MOL0     C35254   5.629   9.044  10.652  0.0928 -0.0141 -0.2744
  981MOL0     C35255   5.501   9.080  10.578  0.4716 -0.5945  1.1365
  981MOL0     C35256   5.518   9.218  10.506 -0.2923 -0.7636  0.5332
  981MOL0     N35257   5.382   9.247  10.463  1.1384  0.3806 -0.5596
  981MOL0     C35258   5.290   9.346  10.505 -0.6704  0.2495 -1.4440
  981MOL0     C35259   5.180   9.318  10.445  0.2839 -0.2458  0.0694
  981MOL0     C35260   5.050   9.400  10.472  0.0704 -0.5077  0.8343
  981MOL0     C35261   4.931   9.329  10.534  0.8691  0.5801  0.7686
  981MOL0     C35262   4.966   9.246  10.649 -0.2031 -0.1968 -1.0411
  981MOL0     C35263   4.977   9.315  10.788 -0.6839  0.3819 -0.4306
  981MOL0     O35264   5.106   9.384  10.808  0.0538  0.0453 -0.3702
  981MOL0     C35265   5.219   9.319  10.850  0.3926  0.0798  0.4066
  981MOL0     C35266   5.335   9.396  10.855  0.4376  0.5041  0.1456
  981MOL0     C35267   5.454   9.340  10.897 -0.3998 -0.1868  0.0250
  981MOL0     C35268   5.561   9.441  10.900 -0.5325 -0.7486 -0.8331
  981MOL0     C35269   5.454   9.203  10.931  0.0194 -0.5720  0.4706
  981MOL0     C35270   5.576   9.130  10.995  0.3864  0.6010 -0.4480
  981MOL0     O35271   5.546   9.021  11.077 -0.3550 -0.2529 -0.1267
  981MOL0     C35272   5.650   8.934  11.099 -0.0970 -0.0830  0.5586
  981MOL0     C35273   5.719   8.948  11.220 -0.0115 -0.6755  0.5125
  981MOL0     C35274   5.833   8.872  11.243  0.8516  0.2679 -0.4016
  981MOL0     C35275   5.882   8.795  11.145 -0.1203  0.5691 -0.3318
  981MOL0     O35276   6.007   8.726  11.167  0.4043 -0.7534 -0.3334
  981MOL0     C35277   6.121   8.791  11.109  1.0643 -0.1169  0.1976
  981MOL0     C35278   6.188   8.692  11.019  0.7738  0.4907  0.3095
  981MOL0     C35279   6.255   8.584  11.104 -0.3447  0.4494 -0.0832
  981MOL0     C35280   6.404   8.632  11.111 -0.0785  0.0639  0.2252
  981MOL0     C35281   6.503   8.518  11.155  0.3932 -0.0729  0.1902
  981MOL0     C35282   6.651   8.557  11.149  0.3194 -0.0001  0.3673
  981MOL0     C35283   6.697   8.673  11.238 -0.3253  0.5558 -0.0766
  981MOL0     C35284   6.847   8.697  11.214 -0.7930 -0.2130  0.4996
  981MOL0    Cl35285   6.946   8.560  11.287 -0.4843 -0.3685 -0.0835
  981MOL0     C35286   5.811   8.787  11.025  0.5146 -0.3639  0.5057
  981MOL0     C35287   5.697   8.854  10.999  0.6137  0.9844  0.7152
  981MOL0     O35288   5.685   9.158  10.949  0.5263 -0.2597 -0.0394
  981MOL0     C35289   5.338   9.127  10.915  0.3798  0.7271 -0.0497
  981MOL0     C35290   5.220   9.183  10.881  0.3752 -0.0651 -0.3740
  981MOL0     N35291   5.196   9.211  10.369  0.4593 -0.1925 -0.4039
  981MOL0     N35292   5.313   9.155  10.385  0.2818 -0.3215  0.3352
  981MOL0     C35293   6.516   8.922  10.839 -0.0732 -0.4524 -0.3583
  981MOL0     C35294   6.633   8.984  10.886  0.0824  0.0913 -0.5660
  981MOL0     C35295   6.965   9.165  11.085  0.3327  0.1645  0.4623
  981MOL0     C35296   7.045   9.215  10.981 -0.3758  0.3771 -0.0930
  981MOL0     C35297   7.178   9.256  10.999  0.8927  0.3314 -0.0849
  981MOL0     C35298   7.247   9.241  11.121  0.6019  0.9304 -0.2160
  981MOL0     O35299   7.380   9.268  11.127  0.0729  0.3676 -0.1225
  981MOL0     C35300   7.431   9.318  11.253 -0.3216 -0.8709  0.2713
  981MOL0     C35301   7.575   9.361  11.255 -0.6164  0.8574  0.2146
  981MOL0     C35302   7.676   9.246  11.223  0.9962  0.3770 -0.3235
  981MOL0     C35303   7.813   9.308  11.248 -0.2852  0.0709 -0.2009
  981MOL0     C35304   7.908   9.211  11.185 -0.5253 -0.3820 -0.9000
  981MOL0     C35305   7.960   9.123  11.122 -0.8418  0.8512 -0.5172
  981MOL0     C35306   7.167   9.191  11.225  0.1785 -0.2153  0.8052
  981MOL0     C35307   7.035   9.147  11.207  1.0127  0.5693  0.5717
  981MOL0     C35308   6.969   9.099  11.337  0.2170 -0.3023  1.0429
  981MOL0     H35309   6.567   9.307  10.838  1.7598  0.5021 -0.4838
  981MOL0     H35310   6.354   9.212  10.773  0.0707  0.4948  0.0758
  981MOL0     H35311   6.245   9.070  10.594  0.2379  0.3555  0.2879
  981MOL0     H35312   6.134   9.089  10.728 -0.9888 -1.1236 -0.0837
  981MOL0     H35313   6.159   8.832  10.564  2.2244  3.2102 -1.6924
  981MOL0     H35314   6.074   8.841  10.715 -0.8187  0.2547  0.0272
  981MOL0     H35315   6.006   9.051  10.501  1.5937 -0.4436  0.0642
  981MOL0     H35316   5.969   8.892  10.459  1.3898 -0.8125  0.3663
  981MOL0     H35317   5.843   8.862  10.680  1.0346 -0.5475 -1.7925
  981MOL0     H35318   5.888   9.041  10.713  1.1107  0.5868 -1.1143
  981MOL0     H35319   5.714   8.892  10.518  2.3792 -0.4013 -0.0298
  981MOL0     H35320   5.769   9.062  10.486  0.7835 -1.1560 -1.1892
  981MOL0     H35321   5.585   8.970  10.720 -0.1147  0.6915  0.3722
  981MOL0     H35322   5.659   9.128  10.716 -1.6970  0.7315 -0.3380
  981MOL0     H35323   5.413   9.088  10.642 -0.2221 -1.2758  0.3013
  981MOL0     H35324   5.475   8.999  10.509  3.7080 -0.7660 -0.0502
  981MOL0     H35325   5.559   9.296  10.571  0.4464 -0.4123 -0.3326
  981MOL0     H35326   5.581   9.216  10.417  0.2012  2.3103  0.7309
  981MOL0     H35327   5.293   9.428  10.576  1.1797  0.6430 -1.9310
  981MOL0     H35328   5.004   9.433  10.378 -0.3181 -1.7195  0.5846
  981MOL0     H35329   5.068   9.489  10.532 -2.1939 -0.4098  1.4694
  981MOL0     H35330   4.854   9.403  10.561  0.2371 -0.5036  2.0292
  981MOL0     H35331   4.879   9.268  10.459  0.5434  1.6121  0.1236
  981MOL0     H35332   4.879   9.186  10.676  0.1819 -0.0302  0.6996
  981MOL0     H35333   5.043   9.170  10.634  2.1335  1.7303  0.3832
  981MOL0     H35334   4.889   9.378  10.803 -0.4358  0.4641  0.8515
  981MOL0     H35335   4.964   9.236  10.863  1.6932  1.2286  1.0018
  981MOL0     H35336   5.333   9.504  10.851  0.3756  0.4753 -1.3487
  981MOL0     H35337   5.655   9.392  10.873 -0.3242  0.0140 -1.5060
  981MOL0     H35338   5.574   9.482  11.001  2.4350 -4.3852  0.5075
  981MOL0     H35339   5.537   9.524  10.832 -0.6371  0.0521  0.1493
  981MOL0     H35340   5.692   9.017  11.299 -2.9769  0.0138 -0.9558
  981MOL0     H35341   5.889   8.897  11.333 -0.0540 -0.2623  0.3200
  981MOL0     H35342   6.100   8.877  11.044 -1.4982 -0.9324 -0.1588
  981MOL0     H35343   6.181   8.818  11.196  3.6713 -0.9134 -1.2602
  981MOL0     H35344   6.116   8.640  10.955  0.9056  1.8872 -1.0367
  981MOL0     H35345   6.244   8.748  10.943 -1.6539 -0.6708 -2.5550
  981MOL0     H35346   6.245   8.486  11.058  0.6900  0.4977 -0.4222
  981MOL0     H35347   6.217   8.592  11.207 -2.7357  4.1719 -1.0343
  981MOL0     H35348   6.410   8.719  11.176 -0.1615  1.0882 -1.0825
  981MOL0     H35349   6.437   8.670  11.014 -1.2403 -1.9528 -1.0518
  981MOL0     H35350   6.472   8.486  11.255 -2.1532 -2.2245 -1.1583
  981MOL0     H35351   6.486   8.439  11.082  1.2638  1.5525 -1.8855
  981MOL0     H35352   6.682   8.591  11.050 -0.0351  0.2637  0.3458
  981MOL0     H35353   6.709   8.467  11.172 -2.0414 -1.4195  1.1469
  981MOL0     H35354   6.676   8.648  11.342  2.5199 -3.0214 -0.1673
  981MOL0     H35355   6.644   8.768  11.224 -1.0319  0.2743  0.6514
  981MOL0     H35356   6.873   8.788  11.268  0.5268  2.2042 -3.7759
  981MOL0     H35357   6.866   8.714  11.108  0.8695 -0.6112  0.7113
  981MOL0     H35358   5.851   8.731  10.941  0.6021 -0.9948  0.9602
  981MOL0     H35359   5.644   8.859  10.904  0.0934  0.0734  0.9469
  981MOL0     H35360   5.339   9.020  10.934  0.1452  0.6971 -0.1958
  981MOL0     H35361   5.129   9.124  10.881 -0.3450  0.9813  1.2141
  981MOL0     H35362   6.507   8.814  10.834 -2.2069 -0.2591 -1.9784
  981MOL0     H35363   6.717   8.921  10.913  0.8065  1.6650  1.1120
  981MOL0     H35364   6.998   9.216  10.883  0.3931  2.1184 -0.4759
  981MOL0     H35365   7.238   9.294  10.917  2.3838 -0.8631  0.4180
  981MOL0     H35366   7.379   9.408  11.287  0.6524 -1.3795  3.4356
  981MOL0     H35367   7.415   9.251  11.338  0.9828  0.0509  1.2743
  981MOL0     H35368   7.593   9.388  11.360  1.6146 -2.1537  0.7510
  981MOL0     H35369   7.594   9.449  11.193 -1.6772  0.0202 -1.3701
  981MOL0     H35370   7.658   9.159  11.287  0.2036 -1.4462 -2.8607
  981MOL0     H35371   7.664   9.206  11.122  0.3789 -1.6229  0.4945
  981MOL0     H35372   7.827   9.328  11.355  0.9460  0.1818 -0.3615
  981MOL0     H35373   7.814   9.402  11.192  2.4764  0.8825  0.9874
  981MOL0     H35374   8.018   9.067  11.052  0.5559  2.2815 -0.5606
  981MOL0     H35375   7.206   9.172  11.324  0.0369  2.3926  1.4245
  981MOL0     H35376   6.988   8.992  11.331  1.9595  0.0367 -0.0924
  981MOL0     H35377   7.011   9.127  11.435 -1.7829 -2.8260  2.7663
  981MOL0     H35378   6.862   9.124  11.343  0.2923  0.0438  0.9355
  982MOL0     O35379   7.827   2.698   9.070 -0.2483  0.3476 -0.2940
  982MOL0     C35380   7.771   2.590   9.048 -0.4456  1.0728 -0.2808
  982MOL0     O35381   7.812   2.504   8.954  0.5455  0.7584  0.2083
  982MOL0     C35382   7.910   2.544   8.866 -0.2289 -1.4132  0.2830
  982MOL0     C35383   7.879   2.621   8.756  0.3541  0.5524 -0.0768
  982MOL0     C35384   7.982   2.682   8.687  0.6040 -0.5859 -0.1558
  982MOL0     C35385   8.120   2.671   8.722  0.2896 -0.2971  0.0001
  982MOL0     O35386   8.219   2.740   8.650  0.0575  0.2575  0.2435
  982MOL0     C35387   8.355   2.746   8.710 -0.4133  0.5168 -0.4905
  982MOL0     C35388   8.382   2.826   8.839 -0.2170  0.5437  0.4427
  982MOL0     C35389   8.377   2.981   8.822  0.6403  1.1029 -0.5698
  982MOL0     C35390   8.331   3.053   8.948  0.0166 -0.3842 -0.3872
  982MOL0     C35391   8.176   3.070   8.961  0.1296  0.4538 -0.5175
  982MOL0     C35392   8.100   2.940   8.992  0.2915  1.0250  0.0271
  982MOL0     C35393   8.129   2.874   9.127 -0.0317  0.8343  0.8119
  982MOL0     C35394   8.057   2.926   9.252 -0.8162  0.7115  0.3714
  982MOL0     N35395   8.098   2.846   9.377 -0.9701 -0.6300 -0.0093
  982MOL0     C35396   8.107   2.897   9.509  0.5147  0.1578  1.2430
  982MOL0     C35397   8.089   2.780   9.583  0.1674 -0.4271 -0.4475
  982MOL0     C35398   8.039   2.786   9.720 -1.0089 -0.0985 -0.5828
  982MOL0     C35399   7.884   2.804   9.735 -0.2046  0.0865  0.6703
  982MOL0     C35400   7.816   2.703   9.643  0.6302 -0.6319 -0.1988
  982MOL0     C35401   7.660   2.723   9.659 -0.4054 -0.1554  0.7740
  982MOL0     O35402   7.627   2.841   9.578 -0.4611 -0.1691  0.1688
  982MOL0     C35403   7.485   2.881   9.591 -0.5783  0.6271 -0.5567
  982MOL0     C35404   7.447   2.979   9.506  0.5410  0.3511 -0.0453
  982MOL0     C35405   7.323   3.050   9.514 -0.1503  0.7744 -0.5048
  982MOL0     C35406   7.302   3.174   9.426 -0.5698 -0.0601 -0.4736
  982MOL0     C35407   7.228   3.002   9.607 -0.1477  0.2818 -0.6692
  982MOL0     C35408   7.096   3.048   9.610  0.4684  0.5586 -0.8013
  982MOL0     O35409   7.037   3.070   9.730 -0.7315 -1.1688 -0.3291
  982MOL0     C35410   6.901   3.105   9.739  0.6496  0.0632  0.9633
  982MOL0     C35411   6.835   3.048   9.839 -0.4973  0.1004 -0.3433
  982MOL0     C35412   6.702   3.076   9.866 -0.2509  0.3957 -0.1509
  982MOL0     C35413   6.630   3.172   9.788 -0.2599 -1.1046 -0.0578
  982MOL0     O35414   6.507   3.230   9.813  0.3054  0.2358  0.0719
  982MOL0     C35415   6.456   3.232   9.956 -0.3864 -0.6644  0.9286
  982MOL0     C35416   6.333   3.315   9.979 -0.4659  0.0528  0.3104
  982MOL0     C35417   6.359   3.463   9.988  0.3757  0.1014  0.2364
  982MOL0     C35418   6.234   3.544   9.960  0.2952 -1.0429 -0.0918
  982MOL0     C35419   6.253   3.691   9.977 -0.7393 -0.6786  0.5221
  982MOL0     C35420   6.260   3.729  10.122 -0.1507  0.0673  0.3108
  982MOL0     C35421   6.317   3.881  10.137 -0.9726  0.6107 -0.1083
  982MOL0     C35422   6.348   3.913  10.284 -0.9038 -0.1179 -0.0185
  982MOL0    Cl35423   6.475   4.038  10.290  0.0685 -0.6132  0.3090
  982MOL0     C35424   6.697   3.226   9.677  0.6707 -0.3953 -0.8203
  982MOL0     C35425   6.828   3.187   9.650  0.4924 -0.7705  0.4693
  982MOL0     O35426   7.038   3.061   9.505  0.4264 -0.4869 -0.1190
  982MOL0     C35427   7.258   2.889   9.692 -0.2797 -0.6976  0.0743
  982MOL0     C35428   7.388   2.839   9.687 -0.0472  0.0894  0.2565
  982MOL0     N35429   8.102   2.668   9.496  0.0746  0.3746  0.3647
  982MOL0     N35430   8.096   2.716   9.373  0.1953 -0.5906 -0.5671
  982MOL0     C35431   8.152   2.591   8.832 -0.5036 -0.4595 -0.5743
  982MOL0     C35432   8.044   2.536   8.904 -0.2274 -0.9427 -0.3770
  982MOL0     C35433   7.653   2.556   9.137  0.5610  0.8017 -0.1235
  982MOL0     C35434   7.606   2.413   9.138 -0.0191 -0.5987  0.4893
  982MOL0     C35435   7.505   2.378   9.223 -0.1216  0.4544  0.8894
  982MOL0     C35436   7.453   2.469   9.314  0.4322  0.7738  0.1367
  982MOL0     O35437   7.347   2.425   9.393  0.1732  0.6173  0.5567
  982MOL0     C35438   7.358   2.461   9.530  0.0727 -0.4373 -0.7899
  982MOL0     C35439   7.377   2.331   9.619  1.3597  0.1340 -0.0190
  982MOL0     C35440   7.268   2.225   9.604 -0.9452  0.6851  1.0007
  982MOL0     C35441   7.123   2.282   9.593  0.4186 -0.1882 -0.3462
  982MOL0     C35442   7.019   2.183   9.579 -0.2353 -0.1459 -0.5808
  982MOL0     C35443   6.921   2.112   9.557 -0.9973 -1.1363 -0.6929
  982MOL0     C35444   7.497   2.599   9.309 -0.2371  0.7288  0.4166
  982MOL0     C35445   7.584   2.658   9.219  0.1778  1.2506  0.3354
  982MOL0     C35446   7.614   2.804   9.233 -0.0788  0.7196  0.7336
  982MOL0     H35447   7.776   2.620   8.721  0.2236 -2.4641  0.1345
  982MOL0     H35448   7.965   2.730   8.592  0.0207  2.2126  1.2645
  982MOL0     H35449   8.420   2.789   8.633  2.2622 -4.4624 -1.4574
  982MOL0     H35450   8.401   2.647   8.723 -0.0343  0.8724  1.1505
  982MOL0     H35451   8.314   2.793   8.918  0.9522 -0.4904  1.0693
  982MOL0     H35452   8.481   2.792   8.872  0.1725  0.2518 -0.9691
  982MOL0     H35453   8.481   3.010   8.801  1.9156 -1.1199  2.0267
  982MOL0     H35454   8.313   3.001   8.736 -0.8687 -0.2216  0.2022
  982MOL0     H35455   8.380   3.012   9.036  1.1223  3.1179  0.8080
  982MOL0     H35456   8.371   3.155   8.949 -0.6096 -0.0870 -2.2728
  982MOL0     H35457   8.140   3.111   8.866  2.2630 -0.7272 -1.9242
  982MOL0     H35458   8.151   3.147   9.034 -0.5273  0.6019 -0.8909
  982MOL0     H35459   7.992   2.953   8.985  0.6820  4.3781 -2.5007
  982MOL0     H35460   8.114   2.876   8.904  1.1863  1.1594  0.0604
  982MOL0     H35461   8.235   2.858   9.148  0.2240  1.8852  0.3848
  982MOL0     H35462   8.098   2.770   9.108  0.3507  1.0182 -0.9767
  982MOL0     H35463   8.093   3.027   9.271  3.1048 -1.0108  3.8758
  982MOL0     H35464   7.950   2.928   9.228 -0.3147 -0.1097 -2.3167
  982MOL0     H35465   8.101   3.000   9.544  1.3983  0.0961  1.6050
  982MOL0     H35466   8.078   2.873   9.773 -2.0558 -0.2432  0.4647
  982MOL0     H35467   8.067   2.688   9.762  1.4321  0.4143 -0.8347
  982MOL0     H35468   7.861   2.787   9.840 -2.1836  0.9129  0.4123
  982MOL0     H35469   7.858   2.909   9.716  1.4472  0.1661 -1.6459
  982MOL0     H35470   7.850   2.715   9.540  3.2022  1.1499  0.7504
  982MOL0     H35471   7.833   2.606   9.690 -2.4063 -1.4825 -0.6294
  982MOL0     H35472   7.615   2.631   9.619  0.2115  0.8871 -2.5915
  982MOL0     H35473   7.641   2.730   9.767 -0.0271 -2.6677  1.0790
  982MOL0     H35474   7.515   3.016   9.430  1.1376  0.7632  0.6698
  982MOL0     H35475   7.335   3.258   9.488  0.3734  0.3099 -1.4461
  982MOL0     H35476   7.199   3.190   9.394 -0.7874  0.7214  0.5451
  982MOL0     H35477   7.367   3.174   9.338  1.8630 -0.6794  1.2097
  982MOL0     H35478   6.889   2.979   9.902 -0.7186 -0.8542 -1.1755
  982MOL0     H35479   6.652   3.024   9.947  3.4196  0.2328  2.2337
  982MOL0     H35480   6.441   3.127   9.983 -1.4219 -1.3482 -2.0342
  982MOL0     H35481   6.530   3.275  10.025  0.0266  0.6393 -0.2662
  982MOL0     H35482   6.263   3.296   9.897 -0.7597 -0.9217  0.7743
  982MOL0     H35483   6.286   3.290  10.075  2.0703  0.4170  1.7550
  982MOL0     H35484   6.437   3.496   9.919 -0.1615  1.2636  0.1618
  982MOL0     H35485   6.405   3.491  10.083  2.9034  1.2853 -1.2228
  982MOL0     H35486   6.145   3.516  10.018 -0.4038 -0.6463 -0.9572
  982MOL0     H35487   6.210   3.537   9.854 -0.9423 -0.9837  0.1594
  982MOL0     H35488   6.347   3.720   9.930 -0.9929 -3.8091 -2.3026
  982MOL0     H35489   6.175   3.747   9.924 -0.7983 -0.9327  0.3368
  982MOL0     H35490   6.306   3.647  10.178 -4.6872 -2.9749  0.1369
  982MOL0     H35491   6.158   3.732  10.161 -1.2386  0.2742 -2.3376
  982MOL0     H35492   6.243   3.947  10.090  0.7920  2.2606 -0.7234
  982MOL0     H35493   6.406   3.894  10.074 -0.1632  0.2403  0.9296
  982MOL0     H35494   6.395   3.822  10.323  1.9622  0.4723 -1.8370
  982MOL0     H35495   6.263   3.957  10.336 -2.1559  0.9796 -2.8016
  982MOL0     H35496   6.656   3.292   9.603 -1.1662 -1.2514 -0.6091
  982MOL0     H35497   6.866   3.232   9.559  0.8804 -0.9361  0.5447
  982MOL0     H35498   7.183   2.861   9.766  0.6480  1.1579  1.8020
  982MOL0     H35499   7.410   2.761   9.760  2.2662 -1.0921 -1.5570
  982MOL0     H35500   8.255   2.576   8.863 -1.4227 -0.6982  2.7936
  982MOL0     H35501   8.060   2.470   8.990 -0.4118 -0.6809 -0.1405
  982MOL0     H35502   7.649   2.336   9.075  0.5065  1.9478 -2.5521
  982MOL0     H35503   7.479   2.273   9.218 -0.1833  0.5161 -2.6016
  982MOL0     H35504   7.423   2.544   9.559 -1.5139  0.1210  1.3884
  982MOL0     H35505   7.259   2.504   9.540  1.3702  2.8744 -0.9824
  982MOL0     H35506   7.374   2.365   9.723 -0.7275  0.0261 -0.0160
  982MOL0     H35507   7.475   2.283   9.607  0.3962 -1.5641 -1.7244
  982MOL0     H35508   7.291   2.146   9.531  0.4618  1.0627  1.0058
  982MOL0     H35509   7.277   2.176   9.701 -1.1615  3.1653  2.3487
  982MOL0     H35510   7.129   2.349   9.507 -0.4833 -0.9124 -0.9952
  982MOL0     H35511   7.102   2.345   9.680 -2.6930 -0.2458 -0.9435
  982MOL0     H35512   6.834   2.050   9.547 -0.6727 -1.4370 -1.7855
  982MOL0     H35513   7.457   2.667   9.384 -0.3120 -0.2784  1.3136
  982MOL0     H35514   7.674   2.844   9.152  0.3537  1.0532  1.2175
  982MOL0     H35515   7.528   2.871   9.242 -0.5801  0.3730 -1.1132
  982MOL0     H35516   7.678   2.803   9.321  1.4850  2.3742 -0.3306
  983MOL0     O35517  10.992  11.102   5.713  0.4995 -0.2147 -0.7598
  983MOL0     C35518  10.976  11.080   5.841  0.0248 -0.4662  0.5708
  983MOL0     O35519  11.078  11.077   5.935 -0.1380 -0.4506 -0.3690
  983MOL0     C35520  11.206  11.071   5.896  0.6376 -0.1877 -0.1787
  983MOL0     C35521  11.291  11.172   5.920 -0.4738 -0.3505  0.7301
  983MOL0     C35522  11.420  11.164   5.867  1.0384 -0.6717 -0.1682
  983MOL0     C35523  11.471  11.044   5.820 -0.2382 -0.2784  0.5626
  983MOL0     O35524  11.589  11.020   5.755  0.8233 -0.0883  1.0081
  983MOL0     C35525  11.687  10.955   5.827 -0.1819  0.1231  0.5452
  983MOL0     C35526  11.793  11.052   5.875 -0.4303  0.3194 -0.8672
  983MOL0     C35527  11.884  11.089   5.753 -0.2728  0.5087  0.7226
  983MOL0     C35528  12.009  11.166   5.798  0.5057 -0.8262  0.3825
  983MOL0     C35529  12.107  11.208   5.689  0.8484  0.2726 -0.6087
  983MOL0     C35530  12.162  11.104   5.608  0.1418  0.3113 -1.1374
  983MOL0     C35531  12.262  11.165   5.506  0.6945 -0.3435  0.0642
  983MOL0     C35532  12.330  11.048   5.428  0.5117  0.0123 -0.0363
  983MOL0     N35533  12.449  11.094   5.347 -0.3511 -0.8266 -0.1385
  983MOL0     C35534  12.568  11.121   5.408 -0.2896  0.2903 -0.0196
  983MOL0     C35535  12.666  11.121   5.312 -0.5530 -0.5353  0.2935
  983MOL0     C35536  12.812  11.153   5.339  0.7341  1.1066 -0.6102
  983MOL0     C35537  12.877  11.066   5.449  1.0165 -0.1102 -0.1470
  983MOL0     C35538  13.006  11.125   5.501 -0.5891  0.0172 -0.7737
  983MOL0     C35539  13.071  11.038   5.607 -0.5835  0.3825  0.4140
  983MOL0     O35540  13.119  10.922   5.542  0.7526 -0.2121 -0.9051
  983MOL0     C35541  13.214  10.844   5.608  0.7456 -0.0680 -0.1176
  983MOL0     C35542  13.283  10.752   5.535 -0.0819  0.6241 -0.1477
  983MOL0     C35543  13.381  10.667   5.596  0.3928 -0.0476  0.0776
  983MOL0     C35544  13.461  10.592   5.496  0.1244  0.5207  0.0658
  983MOL0     C35545  13.402  10.674   5.734  1.0072 -0.4116  0.1970
  983MOL0     C35546  13.496  10.594   5.809 -0.1056  0.0488 -0.8183
  983MOL0     O35547  13.529  10.647   5.929 -0.2561  0.5998 -0.1974
  983MOL0     C35548  13.647  10.600   5.983  0.5600  0.5603  0.7147
  983MOL0     C35549  13.771  10.615   5.927 -0.5051  0.4337 -0.7016
  983MOL0     C35550  13.884  10.560   5.988  0.2476 -0.4092  0.7777
  983MOL0     C35551  13.868  10.488   6.105  0.3077  0.9372 -0.0201
  983MOL0     O35552  13.983  10.432   6.167  0.3014 -0.6784 -0.6434
  983MOL0     C35553  13.966  10.298   6.220 -0.1522 -0.0293 -1.3107
  983MOL0     C35554  14.089  10.252   6.302 -0.2800  0.4174 -0.7751
  983MOL0     C35555  14.215  10.262   6.218 -0.1573  0.2164  0.7103
  983MOL0     C35556  14.329  10.166   6.264  0.6044 -0.5173  0.0527
  983MOL0     C35557  14.389  10.228   6.398 -0.2615 -0.7096  1.2482
  983MOL0     C35558  14.517  10.158   6.435 -0.8791 -0.9621  0.3304
  983MOL0     C35559  14.592  10.227   6.543 -0.0794  0.2586  0.0255
  983MOL0     C35560  14.516  10.222   6.677  0.1240  0.0192  0.1058
  983MOL0    Cl35561  14.446  10.049   6.708 -0.1437  0.3702 -0.1485
  983MOL0     C35562  13.740  10.475   6.162 -1.3721  0.5878  0.9645
  983MOL0     C35563  13.630  10.533   6.103 -0.5511  0.6728 -0.0661
  983MOL0     O35564  13.530  10.478   5.771  0.1077 -0.1924  0.4342
  983MOL0     C35565  13.320  10.765   5.811  0.0000  0.6147 -0.2348
  983MOL0     C35566  13.226  10.850   5.749 -0.4698  0.2902  0.2440
  983MOL0     N35567  12.607  11.085   5.196  0.4573  0.3360 -0.1522
  983MOL0     N35568  12.480  11.074   5.214  0.0142 -0.2796  0.1777
  983MOL0     C35569  11.385  10.939   5.801  0.2506 -0.4991 -0.0922
  983MOL0     C35570  11.249  10.954   5.836  0.6563  0.1275  0.2661
  983MOL0     C35571  10.835  11.078   5.887 -0.7707 -0.5162 -0.6654
  983MOL0     C35572  10.794  10.978   5.974  0.8110 -0.3478  0.3722
  983MOL0     C35573  10.660  10.976   6.020  0.4727  0.4685 -0.4105
  983MOL0     C35574  10.570  11.076   5.990  0.9965 -0.1747 -0.5814
  983MOL0     O35575  10.446  11.059   6.055 -0.2012  0.0914 -0.2282
  983MOL0     C35576  10.357  11.165   6.060  0.4022  0.8169  0.5453
  983MOL0     C35577  10.275  11.173   5.933 -0.8170 -0.7186 -0.6210
  983MOL0     C35578  10.155  11.268   5.946 -0.8753 -0.0162 -0.3571
  983MOL0     C35579  10.185  11.419   5.974  0.5981  0.1129  0.4586
  983MOL0     C35580  10.263  11.470   5.861  1.3308 -0.7108 -0.5066
  983MOL0     C35581  10.311  11.505   5.759 -0.4271 -0.1069 -0.0463
  983MOL0     C35582  10.610  11.177   5.903  0.7745  0.3422  0.0444
  983MOL0     C35583  10.741  11.179   5.858 -0.0684 -0.1236 -0.2090
  983MOL0     C35584  10.782  11.297   5.768  0.0173 -0.0321  1.0114
  983MOL0     H35585  11.270  11.259   5.983  0.1880  0.9509 -0.7704
  983MOL0     H35586  11.485  11.251   5.864  1.3502 -0.8968 -0.0209
  983MOL0     H35587  11.739  10.873   5.777  0.2095 -0.2442  1.5398
  983MOL0     H35588  11.643  10.906   5.915  1.5271 -1.5958  0.5167
  983MOL0     H35589  11.743  11.137   5.923 -1.1252 -1.5007  1.8663
  983MOL0     H35590  11.848  11.011   5.960  0.1814  1.0738 -0.8803
  983MOL0     H35591  11.920  11.004   5.695  2.6002  1.2691  1.2507
  983MOL0     H35592  11.829  11.150   5.680 -1.2336  2.3545  2.8744
  983MOL0     H35593  11.968  11.245   5.861  3.1801  0.6085  0.4894
  983MOL0     H35594  12.067  11.106   5.869 -0.8532  0.3499  2.5928
  983MOL0     H35595  12.190  11.258   5.741 -0.9658  1.5439  1.2499
  983MOL0     H35596  12.058  11.285   5.628 -1.1508 -1.8393 -1.7898
  983MOL0     H35597  12.215  11.030   5.668  0.2686  1.0884 -0.2741
  983MOL0     H35598  12.083  11.052   5.552 -2.0186  2.3995 -0.1898
  983MOL0     H35599  12.343  11.216   5.559  1.1359  1.4475 -2.1628
  983MOL0     H35600  12.210  11.232   5.438  1.4898  0.1371 -0.0748
  983MOL0     H35601  12.358  10.963   5.490  0.7107  0.1209  0.0228
  983MOL0     H35602  12.254  11.015   5.355 -1.6376  0.0552  2.0482
  983MOL0     H35603  12.585  11.149   5.512 -0.3197 -0.1663  0.1126
  983MOL0     H35604  12.817  11.259   5.367 -2.2582  1.2795 -0.4113
  983MOL0     H35605  12.873  11.142   5.248 -0.0902  0.8570 -1.1400
  983MOL0     H35606  12.808  11.040   5.530 -2.0173  0.0575 -2.4639
  983MOL0     H35607  12.880  10.968   5.401 -2.7442 -1.1788  1.4155
  983MOL0     H35608  13.066  11.142   5.411  3.7054 -1.7077  1.4630
  983MOL0     H35609  12.985  11.223   5.546  0.8953  2.2948 -4.5343
  983MOL0     H35610  13.152  11.091   5.658  1.7445 -1.5635 -1.0795
  983MOL0     H35611  12.998  11.007   5.683  0.5411  3.1090  2.8085
  983MOL0     H35612  13.249  10.742   5.433 -2.2579  0.0717  0.5680
  983MOL0     H35613  13.437  10.485   5.500  0.1966  0.3460 -2.6876
  983MOL0     H35614  13.568  10.610   5.511  0.1269  1.2288 -0.7225
  983MOL0     H35615  13.437  10.630   5.396 -2.0362  1.0001  0.7129
  983MOL0     H35616  13.781  10.665   5.831 -1.1202  2.8959  0.4453
  983MOL0     H35617  13.988  10.575   5.958 -0.3368  0.0902 -1.1274
  983MOL0     H35618  13.879  10.293   6.285  0.7970 -1.3020 -0.0586
  983MOL0     H35619  13.953  10.222   6.142 -0.5537 -1.6041  0.2494
  983MOL0     H35620  14.096  10.313   6.392 -2.3303 -1.9415  1.1444
  983MOL0     H35621  14.075  10.148   6.333  1.0237  0.0462 -1.3690
  983MOL0     H35622  14.241  10.368   6.215  0.0060  0.1641 -2.1331
  983MOL0     H35623  14.198  10.245   6.111  1.8347  1.8421  0.0759
  983MOL0     H35624  14.403  10.152   6.184  0.1283  0.4560 -0.5736
  983MOL0     H35625  14.297  10.065   6.291  0.5002 -0.3285  0.6380
  983MOL0     H35626  14.405  10.332   6.369 -2.8940 -0.9047 -1.3156
  983MOL0     H35627  14.312  10.228   6.476 -1.3748  1.6660  0.2356
  983MOL0     H35628  14.577  10.149   6.344 -2.2521  1.6043 -0.9471
  983MOL0     H35629  14.490  10.058   6.469 -2.2651 -1.0797 -1.0339
  983MOL0     H35630  14.604  10.331   6.511 -0.6606  0.9869  2.0463
  983MOL0     H35631  14.692  10.186   6.560  0.7741  2.4255  0.5211
  983MOL0     H35632  14.435  10.295   6.665  1.8030  2.6642  3.3303
  983MOL0     H35633  14.585  10.249   6.758 -1.4460 -1.7622  2.1914
  983MOL0     H35634  13.730  10.412   6.250  2.9547 -1.0568  0.5065
  983MOL0     H35635  13.532  10.528   6.148 -0.4058 -1.8127  0.1162
  983MOL0     H35636  13.320  10.764   5.920  0.8655  0.8562 -0.2208
  983MOL0     H35637  13.176  10.916   5.818 -2.2131 -1.8063  1.1175
  983MOL0     H35638  11.411  10.851   5.742  0.7042 -0.6544  0.3383
  983MOL0     H35639  11.179  10.876   5.812  0.9007 -0.4277  1.2896
  983MOL0     H35640  10.867  10.912   6.021  2.1037  1.0753  0.4298
  983MOL0     H35641  10.640  10.907   6.102  1.3519  1.7202  0.9106
  983MOL0     H35642  10.283  11.143   6.137  0.6331  0.4208  0.6590
  983MOL0     H35643  10.404  11.261   6.079 -2.5352  2.5790 -0.4216
  983MOL0     H35644  10.243  11.071   5.914 -0.7984 -0.5041 -1.9034
  983MOL0     H35645  10.343  11.197   5.851  1.1119 -2.7689  0.2885
  983MOL0     H35646  10.088  11.268   5.859  2.2153 -0.1900 -2.9360
  983MOL0     H35647  10.091  11.228   6.025  1.0297 -0.9036  0.8051
  983MOL0     H35648  10.233  11.442   6.070  0.9271  0.3340  0.2446
  983MOL0     H35649  10.092  11.476   5.972  1.3935  1.5714  2.1514
  983MOL0     H35650  10.366  11.529   5.670 -0.2296 -2.5743 -0.6397
  983MOL0     H35651  10.533  11.250   5.881  0.2094 -0.0246  0.7604
  983MOL0     H35652  10.888  11.323   5.777 -0.2386  1.0198  1.2043
  983MOL0     H35653  10.770  11.276   5.662 -1.0657 -0.3756  1.1904
  983MOL0     H35654  10.719  11.384   5.790  0.2392  0.1416  0.9563
  984MOL0     O35655   7.761   5.342   1.906  0.6164  0.4507 -0.0617
  984MOL0     C35656   7.793   5.238   1.954 -1.5662 -0.0903 -0.1855
  984MOL0     O35657   7.927   5.204   1.983 -0.7305  0.2693  0.7029
  984MOL0     C35658   8.031   5.277   1.934  0.6626 -0.3068  1.0795
  984MOL0     C35659   8.139   5.205   1.888 -0.2898 -0.2473  1.0237
  984MOL0     C35660   8.261   5.270   1.837  0.4770 -0.1679  0.5217
  984MOL0     C35661   8.268   5.410   1.829 -0.2195 -0.3545  0.2742
  984MOL0     O35662   8.372   5.474   1.776  0.0112  0.1166  0.1087
  984MOL0     C35663   8.389   5.621   1.783 -0.4036 -0.0496 -0.2046
  984MOL0     C35664   8.523   5.658   1.726  0.5120 -0.1784  0.4159
  984MOL0     C35665   8.552   5.811   1.737  0.3868  0.5905  0.3331
  984MOL0     C35666   8.678   5.856   1.674 -0.4207 -0.4913  0.5688
  984MOL0     C35667   8.804   5.776   1.735  0.0217  0.2691  0.4595
  984MOL0     C35668   8.931   5.828   1.658  0.3751  1.1866 -0.1118
  984MOL0     C35669   9.053   5.754   1.723  0.1520 -0.4350 -0.6363
  984MOL0     C35670   9.184   5.807   1.689 -0.0765 -0.4684  0.7976
  984MOL0     N35671   9.293   5.721   1.740 -0.9564  0.0637 -0.3221
  984MOL0     C35672   9.419   5.760   1.725 -0.7105  0.0149  1.0256
  984MOL0     C35673   9.491   5.682   1.803 -0.1756  1.4863 -1.0763
  984MOL0     C35674   9.642   5.687   1.823 -0.1439  1.4018 -0.0924
  984MOL0     C35675   9.683   5.813   1.901 -1.1976  0.9463 -0.1942
  984MOL0     C35676   9.744   5.773   2.039 -0.3621 -0.0689 -0.6002
  984MOL0     C35677   9.793   5.901   2.116  1.0384  0.1843  0.5472
  984MOL0     O35678   9.904   5.967   2.045  0.3020  0.0926  0.0988
  984MOL0     C35679  10.031   5.920   2.070 -0.3859  0.5822 -1.4302
  984MOL0     C35680  10.114   5.884   1.959  0.9080  0.7700 -1.3751
  984MOL0     C35681  10.242   5.833   1.977 -0.6561  0.9679 -0.0825
  984MOL0     C35682  10.328   5.789   1.857  0.2668 -1.4478  0.0453
  984MOL0     C35683  10.289   5.816   2.112  0.0169 -0.6338 -1.2236
  984MOL0     C35684  10.425   5.755   2.153 -0.1649  0.1832  0.3890
  984MOL0     O35685  10.527   5.768   2.060 -0.1522  0.3296  0.7171
  984MOL0     C35686  10.658   5.755   2.101 -0.2439  0.1901  0.2777
  984MOL0     C35687  10.709   5.764   2.230  0.5079 -0.4282  0.1983
  984MOL0     C35688  10.845   5.762   2.252  0.0206 -0.1444 -0.1369
  984MOL0     C35689  10.941   5.759   2.156  0.1864 -0.2167 -0.4936
  984MOL0     O35690  11.075   5.791   2.192  0.7917 -0.7863 -0.1851
  984MOL0     C35691  11.176   5.762   2.098  0.1431 -0.0189  0.2729
  984MOL0     C35692  11.312   5.818   2.152  0.2982  1.0268  0.6291
  984MOL0     C35693  11.434   5.770   2.059  0.1176  0.3179 -0.4532
  984MOL0     C35694  11.463   5.876   1.950 -0.4466 -0.1449  0.4592
  984MOL0     C35695  11.506   5.823   1.816  0.6884  0.6900  0.3772
  984MOL0     C35696  11.636   5.736   1.819  0.2998  1.0215  0.3194
  984MOL0     C35697  11.687   5.688   1.687 -0.2101 -0.3571  0.2490
  984MOL0     C35698  11.602   5.574   1.634 -0.2106  0.9595  1.3031
  984MOL0    Cl35699  11.641   5.417   1.714  0.6368 -0.3970 -0.2136
  984MOL0     C35700  10.895   5.727   2.025 -0.1015  0.2280 -0.4372
  984MOL0     C35701  10.753   5.720   2.000  0.2506  0.8138 -0.1974
  984MOL0     O35702  10.432   5.689   2.258 -0.1643 -0.2072 -0.1029
  984MOL0     C35703  10.205   5.851   2.221 -0.3900  0.2819 -0.0173
  984MOL0     C35704  10.083   5.908   2.203  0.1226  0.4861  0.8013
  984MOL0     N35705   9.411   5.588   1.864  0.5693 -0.0972  0.0930
  984MOL0     N35706   9.292   5.628   1.833 -0.9364  0.2924  0.1808
  984MOL0     C35707   8.155   5.480   1.857  0.5013 -0.1065  0.1675
  984MOL0     C35708   8.039   5.417   1.913 -0.3604  1.0297  0.0964
  984MOL0     C35709   7.693   5.146   2.008  0.0094 -0.2620 -0.5224
  984MOL0     C35710   7.742   5.024   2.073  0.1959  1.5846 -0.0212
  984MOL0     C35711   7.661   4.941   2.139  0.2003  0.3103 -0.2699
  984MOL0     C35712   7.523   4.958   2.148  0.0711  0.1086  0.2567
  984MOL0     O35713   7.442   4.868   2.207  0.3734  0.3171  0.2994
  984MOL0     C35714   7.489   4.767   2.298  0.5454 -0.0459 -0.6567
  984MOL0     C35715   7.368   4.673   2.333 -0.0651  0.3227 -0.0502
  984MOL0     C35716   7.303   4.594   2.214  0.1030  0.0304  0.3642
  984MOL0     C35717   7.225   4.462   2.240 -0.8009 -1.4845  0.5471
  984MOL0     C35718   7.325   4.358   2.258  0.9829  0.4318 -0.3605
  984MOL0     C35719   7.407   4.274   2.293 -0.4709 -0.0128 -0.2380
  984MOL0     C35720   7.470   5.069   2.083 -0.7703 -0.3889  0.3426
  984MOL0     C35721   7.552   5.166   2.020  0.1370 -0.3895 -0.7509
  984MOL0     C35722   7.483   5.272   1.940 -0.0208 -0.7421  0.3592
  984MOL0     H35723   8.147   5.097   1.896  3.1061 -0.1057  0.5874
  984MOL0     H35724   8.341   5.202   1.811 -1.6317 -2.4233 -0.5312
  984MOL0     H35725   8.390   5.646   1.889  1.8441 -0.9839  0.0619
  984MOL0     H35726   8.316   5.672   1.719  0.8265 -0.5708 -2.1362
  984MOL0     H35727   8.602   5.602   1.777  1.9747  1.0158 -0.4613
  984MOL0     H35728   8.525   5.631   1.621 -3.0889  1.0644 -0.1491
  984MOL0     H35729   8.466   5.868   1.701  0.1166  2.2440  3.3089
  984MOL0     H35730   8.559   5.826   1.845 -1.4643  1.1903  0.4136
  984MOL0     H35731   8.678   5.835   1.566 -2.2327 -0.4259  0.5152
  984MOL0     H35732   8.689   5.963   1.696  1.7865 -0.7496  0.9032
  984MOL0     H35733   8.796   5.669   1.714 -0.9697  0.4101  0.0573
  984MOL0     H35734   8.798   5.787   1.844 -1.7729 -3.3030  0.8493
  984MOL0     H35735   8.923   5.804   1.552  1.3690 -1.3718  0.3262
  984MOL0     H35736   8.933   5.937   1.669  0.2539  1.0738  1.3373
  984MOL0     H35737   9.048   5.654   1.680 -1.9573 -0.6607  0.0089
  984MOL0     H35738   9.043   5.738   1.831 -1.5134 -1.2989 -0.8841
  984MOL0     H35739   9.185   5.819   1.580  0.2852  1.3071  0.9636
  984MOL0     H35740   9.183   5.909   1.727 -3.5476  0.2322 -0.7664
  984MOL0     H35741   9.450   5.846   1.665 -2.9118  0.9323  1.1292
  984MOL0     H35742   9.708   5.669   1.738  2.9891  0.9188  2.2573
  984MOL0     H35743   9.673   5.601   1.883 -1.1524  1.5749  0.6949
  984MOL0     H35744   9.756   5.866   1.839  1.5508 -1.1753  0.9970
  984MOL0     H35745   9.604   5.886   1.924 -3.0298 -0.4006 -1.8696
  984MOL0     H35746   9.672   5.717   2.100 -0.7513 -0.1906 -1.1677
  984MOL0     H35747   9.835   5.716   2.018  0.7661  2.0266 -1.6770
  984MOL0     H35748   9.704   5.964   2.121 -1.2688 -2.7409 -0.6101
  984MOL0     H35749   9.811   5.870   2.220 -1.3803  0.0188  0.9891
  984MOL0     H35750  10.062   5.892   1.864 -2.7909  5.0782  0.6211
  984MOL0     H35751  10.267   5.784   1.766  0.2076  4.9330 -0.7134
  984MOL0     H35752  10.383   5.696   1.874 -1.8556 -3.1020 -1.5405
  984MOL0     H35753  10.400   5.867   1.831 -1.6007 -0.4315 -2.4939
  984MOL0     H35754  10.636   5.775   2.309  0.7612  1.1172  0.2605
  984MOL0     H35755  10.874   5.776   2.355 -0.5055 -0.9394  0.1294
  984MOL0     H35756  11.184   5.653   2.102  2.2880  0.1052  1.1158
  984MOL0     H35757  11.151   5.807   2.002 -1.2272  0.8957  1.0190
  984MOL0     H35758  11.308   5.927   2.168  2.4836  0.8664  3.0192
  984MOL0     H35759  11.325   5.774   2.251 -2.8707 -1.9255 -0.0677
  984MOL0     H35760  11.403   5.680   2.006 -0.0922  0.4277 -0.5176
  984MOL0     H35761  11.519   5.757   2.126 -1.5380  0.5833  1.8225
  984MOL0     H35762  11.543   5.943   1.982  0.6275  0.8705 -3.7131
  984MOL0     H35763  11.371   5.925   1.917 -0.4365 -0.1600  0.4084
  984MOL0     H35764  11.423   5.760   1.783  0.7213  2.0837 -2.8011
  984MOL0     H35765  11.519   5.904   1.743  0.1332  0.8669  0.4740
  984MOL0     H35766  11.618   5.648   1.882 -3.6038 -0.7106 -2.8165
  984MOL0     H35767  11.715   5.802   1.856  0.8481  0.6372 -0.1599
  984MOL0     H35768  11.794   5.668   1.687 -0.1253  0.0778 -0.0412
  984MOL0     H35769  11.670   5.775   1.623  1.6231  0.0666  0.3041
  984MOL0     H35770  11.629   5.562   1.529  2.1415  1.3997  1.7951
  984MOL0     H35771  11.497   5.603   1.646 -0.4677  0.6531 -0.0550
  984MOL0     H35772  10.970   5.718   1.947  0.2839 -0.8582  0.0357
  984MOL0     H35773  10.719   5.723   1.897 -1.0499  4.6315  0.1686
  984MOL0     H35774  10.255   5.837   2.317  0.6795 -1.5097 -0.7946
  984MOL0     H35775  10.020   5.928   2.289 -0.8320 -0.6137  0.3825
  984MOL0     H35776   8.144   5.587   1.846  0.2770 -0.1849 -0.4091
  984MOL0     H35777   7.952   5.476   1.941 -0.5363  0.1861  1.4285
  984MOL0     H35778   7.846   4.993   2.078 -0.3571 -0.9495 -1.9297
  984MOL0     H35779   7.710   4.858   2.190 -2.7701 -2.2074 -1.1995
  984MOL0     H35780   7.574   4.710   2.260  2.4765  0.5876  2.3967
  984MOL0     H35781   7.528   4.818   2.387 -0.2951 -1.8406  0.8280
  984MOL0     H35782   7.287   4.734   2.374  0.7048  0.9458  0.5685
  984MOL0     H35783   7.409   4.607   2.410  0.5422  1.0327  0.2370
  984MOL0     H35784   7.227   4.663   2.176 -1.6140 -2.0093 -0.1113
  984MOL0     H35785   7.376   4.580   2.134  1.2233  1.6165  1.0742
  984MOL0     H35786   7.178   4.436   2.145 -0.0616  0.2072 -0.3168
  984MOL0     H35787   7.154   4.483   2.320  1.4262  0.3083  2.2000
  984MOL0     H35788   7.472   4.195   2.325  0.7546 -0.5621 -3.6717
  984MOL0     H35789   7.362   5.067   2.087 -0.8730  1.8827  0.1254
  984MOL0     H35790   7.382   5.275   1.980  0.1432 -3.0649  1.0981
  984MOL0     H35791   7.526   5.371   1.958  2.1726 -1.6862  0.7213
  984MOL0     H35792   7.475   5.246   1.834 -0.7593  2.0343 -0.3307
  985MOL0     O35793   9.864   7.855   0.223 -0.3615  0.4105 -0.3215
  985MOL0     C35794   9.884   7.810   0.337 -0.3402  0.1093 -0.2411
  985MOL0     O35795  10.011   7.757   0.371 -0.6373 -0.3178  0.3897
  985MOL0     C35796  10.121   7.771   0.282  0.5276 -0.9070  0.6989
  985MOL0     C35797  10.144   7.887   0.215 -0.7143 -0.4549 -0.4677
  985MOL0     C35798  10.244   7.898   0.122 -0.4746  0.0711  0.3219
  985MOL0     C35799  10.329   7.789   0.101  1.1470  0.8343  0.1466
  985MOL0     O35800  10.434   7.798   0.017 -0.2706  0.1830  0.7110
  985MOL0     C35801  10.472   7.920  -0.056  0.0940  0.5742  0.7989
  985MOL0     C35802  10.624   7.935  -0.082  0.6027 -0.0188  0.4950
  985MOL0     C35803  10.667   7.824  -0.187  1.2864 -1.4386 -0.1229
  985MOL0     C35804  10.783   7.734  -0.135 -0.1913  0.2275 -0.4731
  985MOL0     C35805  10.808   7.598  -0.212 -0.0589 -0.9743 -0.1909
  985MOL0     C35806  10.834   7.615  -0.358 -0.1708 -0.2038 -0.7998
  985MOL0     C35807  10.961   7.691  -0.395 -0.4583 -0.4481  1.2303
  985MOL0     C35808  11.018   7.663  -0.536  0.2634 -0.3891  1.1216
  985MOL0     N35809  11.144   7.734  -0.566 -0.2572  0.0525  0.0034
  985MOL0     C35810  11.190   7.741  -0.694  0.1462 -0.6345  0.9237
  985MOL0     C35811  11.305   7.816  -0.684 -0.0758 -0.3225  0.7993
  985MOL0     C35812  11.386   7.884  -0.790  0.1960 -0.3687 -1.1209
  985MOL0     C35813  11.526   7.822  -0.797 -0.0264  0.6122  0.8405
  985MOL0     C35814  11.598   7.856  -0.928 -0.2009  0.1026  0.0564
  985MOL0     C35815  11.630   8.003  -0.934 -0.7078 -0.4418  0.3784
  985MOL0     O35816  11.728   8.015  -1.038 -0.3661 -0.3316 -0.0440
  985MOL0     C35817  11.710   8.019  -1.172 -0.4073 -0.4245 -0.2761
  985MOL0     C35818  11.581   8.011  -1.231  0.4033 -0.4089  0.3197
  985MOL0     C35819  11.570   7.989  -1.372 -0.1874  0.1234  0.6413
  985MOL0     C35820  11.436   7.959  -1.431 -0.4698  0.7070  0.3797
  985MOL0     C35821  11.688   7.978  -1.454 -1.2488  0.6232  0.7430
  985MOL0     C35822  11.697   7.963  -1.600  0.3137 -1.0272 -0.2033
  985MOL0     O35823  11.753   8.067  -1.663 -0.1385 -0.4923  0.7424
  985MOL0     C35824  11.751   8.068  -1.805  0.3182 -0.8652  0.2228
  985MOL0     C35825  11.671   8.155  -1.870  0.9415  0.4722 -0.2739
  985MOL0     C35826  11.666   8.159  -2.005 -0.1663  0.1649  0.0867
  985MOL0     C35827  11.751   8.077  -2.081  0.0904  0.6841  1.0526
  985MOL0     O35828  11.738   8.073  -2.217 -0.2412 -0.2240  0.2434
  985MOL0     C35829  11.602   8.045  -2.270 -0.4222  0.2323  0.0477
  985MOL0     C35830  11.620   8.057  -2.418 -1.0812 -0.3082  0.1205
  985MOL0     C35831  11.500   8.010  -2.495 -0.5692 -0.2334 -0.7790
  985MOL0     C35832  11.367   8.037  -2.426 -0.3999  0.2024  0.6886
  985MOL0     C35833  11.254   7.969  -2.493 -0.9384  0.0012  0.5566
  985MOL0     C35834  11.115   8.008  -2.428 -0.4596 -0.1538 -0.3668
  985MOL0     C35835  11.008   7.919  -2.498  0.1859  0.2724  0.2657
  985MOL0     C35836  10.865   7.979  -2.478  0.6241 -0.5635  0.3858
  985MOL0    Cl35837  10.828   7.983  -2.301  0.5468  0.1094 -0.4117
  985MOL0     C35838  11.848   8.000  -2.014 -0.1647 -0.7096  0.3075
  985MOL0     C35839  11.841   7.988  -1.875  0.1225 -0.1685  0.5520
  985MOL0     O35840  11.654   7.863  -1.652  0.9062 -0.5578 -0.2847
  985MOL0     C35841  11.812   7.990  -1.387 -0.2874  0.2188 -0.6389
  985MOL0     C35842  11.822   8.009  -1.255 -0.3092  0.4219  0.1601
  985MOL0     N35843  11.328   7.835  -0.549 -0.0418  0.2671  0.2943
  985MOL0     N35844  11.238   7.782  -0.486 -0.1249 -0.7196  0.0432
  985MOL0     C35845  10.307   7.667   0.168 -0.4660 -0.1229  0.0386
  985MOL0     C35846  10.198   7.664   0.259  0.4131  0.1288 -0.1215
  985MOL0     C35847   9.771   7.803   0.432  0.1155 -0.3111  1.0718
  985MOL0     C35848   9.764   7.707   0.531  0.1766  0.0450  0.5793
  985MOL0     C35849   9.663   7.695   0.623  0.5511  0.4568  0.2030
  985MOL0     C35850   9.559   7.788   0.618 -0.0870  0.0617  0.5196
  985MOL0     O35851   9.455   7.765   0.699  0.4718  0.2493  0.1473
  985MOL0     C35852   9.322   7.799   0.650  0.2447  0.4543 -0.3107
  985MOL0     C35853   9.233   7.738   0.758  0.8428 -0.5431 -0.3031
  985MOL0     C35854   9.079   7.756   0.749  0.3075  0.6804  1.4672
  985MOL0     C35855   9.017   7.863   0.837  0.1754  0.3513 -0.1123
  985MOL0     C35856   8.889   7.817   0.884 -0.0800 -0.0762  0.5430
  985MOL0     C35857   8.776   7.779   0.900  0.3277  0.2283 -0.1962
  985MOL0     C35858   9.560   7.885   0.519  0.9169  0.6853  0.8706
  985MOL0     C35859   9.660   7.894   0.424  0.0485  0.6045 -0.0944
  985MOL0     C35860   9.657   8.018   0.340  0.0494 -0.2737  0.1646
  985MOL0     H35861  10.082   7.976   0.228 -0.4653 -0.2275 -0.8198
  985MOL0     H35862  10.253   7.985   0.058 -3.7246 -0.8702 -1.7037
  985MOL0     H35863  10.456   8.013  -0.001 -1.2970  1.1399 -0.4774
  985MOL0     H35864  10.415   7.920  -0.149  0.3256 -1.0192  0.6235
  985MOL0     H35865  10.629   8.032  -0.131 -2.1270  0.3997  0.8685
  985MOL0     H35866  10.667   7.924   0.018 -2.9818 -1.7910  2.0180
  985MOL0     H35867  10.588   7.754  -0.213  2.8013 -2.8253 -1.2052
  985MOL0     H35868  10.704   7.874  -0.277 -3.0139  2.0117 -0.2980
  985MOL0     H35869  10.873   7.796  -0.133 -1.0120  1.4704 -0.6432
  985MOL0     H35870  10.767   7.713  -0.029  0.0184 -0.2411 -0.5312
  985MOL0     H35871  10.716   7.541  -0.194 -3.7480  3.9576 -1.2685
  985MOL0     H35872  10.898   7.547  -0.177  1.3551  0.8070 -1.0234
  985MOL0     H35873  10.842   7.513  -0.398 -1.5103 -0.5507 -0.2334
  985MOL0     H35874  10.748   7.670  -0.396  0.6248  2.1392  0.5802
  985MOL0     H35875  11.030   7.661  -0.316 -1.5472  1.4395  2.9916
  985MOL0     H35876  10.953   7.800  -0.392 -2.8741 -0.6139  2.7850
  985MOL0     H35877  11.039   7.558  -0.555 -2.2169 -0.9868  1.2857
  985MOL0     H35878  10.940   7.683  -0.609 -0.0575  0.1526  1.6028
  985MOL0     H35879  11.149   7.713  -0.790  0.7744  0.1840  0.4035
  985MOL0     H35880  11.393   7.993  -0.777  3.1975 -0.5136 -0.9054
  985MOL0     H35881  11.343   7.868  -0.889  2.9567  2.1174 -2.9150
  985MOL0     H35882  11.578   7.867  -0.712 -1.7155  1.2919  1.5442
  985MOL0     H35883  11.525   7.715  -0.776  1.5964 -0.0069 -1.7772
  985MOL0     H35884  11.685   7.790  -0.928  0.0268  0.1646 -4.1592
  985MOL0     H35885  11.526   7.822  -1.002 -0.3710  0.2734  0.1425
  985MOL0     H35886  11.546   8.072  -0.944  0.3932  1.2331  1.9494
  985MOL0     H35887  11.669   8.028  -0.835  1.0485 -0.7314 -0.2034
  985MOL0     H35888  11.491   8.010  -1.170  0.6155 -2.0994  0.6690
  985MOL0     H35889  11.348   7.980  -1.370 -3.7881 -0.3842 -3.5901
  985MOL0     H35890  11.425   7.853  -1.456  0.9862  1.1259 -2.5255
  985MOL0     H35891  11.426   8.005  -1.530  1.0996  0.5932  0.1508
  985MOL0     H35892  11.613   8.232  -1.819 -0.9413 -2.1965  1.9524
  985MOL0     H35893  11.589   8.223  -2.048 -0.2834  0.4904  0.7646
  985MOL0     H35894  11.576   7.940  -2.254  0.1704  0.0499 -0.1543
  985MOL0     H35895  11.533   8.113  -2.220  2.8164  5.2543 -1.4815
  985MOL0     H35896  11.634   8.163  -2.440 -1.9314 -0.3447 -0.6611
  985MOL0     H35897  11.708   7.996  -2.439  0.1019  1.0157  1.0181
  985MOL0     H35898  11.501   7.903  -2.514  1.2040 -0.1459 -1.3700
  985MOL0     H35899  11.503   8.065  -2.589 -1.5093  0.5034 -0.4011
  985MOL0     H35900  11.345   8.145  -2.425 -1.2536  0.1040 -1.7131
  985MOL0     H35901  11.367   8.012  -2.320  0.2162  3.3394  1.5442
  985MOL0     H35902  11.262   7.993  -2.600 -0.8719 -0.3703  0.4764
  985MOL0     H35903  11.268   7.861  -2.479 -2.1890 -0.5669 -1.9225
  985MOL0     H35904  11.097   8.115  -2.439  0.9478  0.4452  2.2883
  985MOL0     H35905  11.125   7.987  -2.322  2.1166  2.9977  0.1871
  985MOL0     H35906  11.015   7.825  -2.444 -0.8212 -0.0971 -0.2182
  985MOL0     H35907  11.029   7.911  -2.605  1.0918 -1.0710  0.5242
  985MOL0     H35908  10.797   7.912  -2.532 -1.7738  2.5075 -0.6769
  985MOL0     H35909  10.844   8.072  -2.531 -1.7665 -0.7855  0.8289
  985MOL0     H35910  11.930   7.946  -2.061 -0.0687  0.7584 -1.3232
  985MOL0     H35911  11.920   7.928  -1.830 -1.5180 -2.0456  1.0297
  985MOL0     H35912  11.898   7.980  -1.452 -0.1448  1.8355 -0.7324
  985MOL0     H35913  11.924   8.007  -1.219 -0.6317  1.5694  1.2214
  985MOL0     H35914  10.355   7.570   0.154 -0.4294  0.0736 -1.3057
  985MOL0     H35915  10.167   7.572   0.308 -2.1801 -0.5441 -2.7253
  985MOL0     H35916   9.856   7.650   0.535  0.5401  0.5035 -0.8163
  985MOL0     H35917   9.669   7.618   0.698  0.7409 -0.8025 -1.0652
  985MOL0     H35918   9.317   7.908   0.649  1.5840  0.5578  0.6304
  985MOL0     H35919   9.291   7.762   0.552 -0.1305 -0.5761  0.1849
  985MOL0     H35920   9.259   7.775   0.858  1.7039 -1.2247 -0.2664
  985MOL0     H35921   9.266   7.634   0.761 -1.0089 -1.1746 -0.6654
  985MOL0     H35922   9.055   7.790   0.648  0.0304  0.9922  1.6372
  985MOL0     H35923   9.035   7.659   0.773 -2.2195  1.3741 -0.0775
  985MOL0     H35924   9.004   7.963   0.794  1.6888  0.8975  0.6115
  985MOL0     H35925   9.084   7.870   0.924  1.3626 -2.2496 -0.7126
  985MOL0     H35926   8.672   7.753   0.895 -0.1495  2.1057 -0.7074
  985MOL0     H35927   9.479   7.955   0.504  1.7713  1.3834 -0.6817
  985MOL0     H35928   9.569   8.081   0.359  0.0801 -0.3073  0.4215
  985MOL0     H35929   9.741   8.083   0.367 -0.9399  1.5643 -0.9427
  985MOL0     H35930   9.673   7.991   0.236 -2.1257  1.2009 -0.6341
  986MOL0     O35931   7.525   4.992   1.008  0.0234 -1.4711  0.2776
  986MOL0     C35932   7.419   4.939   0.988  0.6311 -0.3291 -0.3382
  986MOL0     O35933   7.391   4.845   0.885 -0.2756  0.1370 -0.0604
  986MOL0     C35934   7.502   4.809   0.813 -0.3146  0.3681  0.5257
  986MOL0     C35935   7.557   4.680   0.835  0.5247  0.0817  0.2520
  986MOL0     C35936   7.666   4.638   0.761 -0.8999  1.0572 -0.5031
  986MOL0     C35937   7.728   4.724   0.667 -0.6249  0.3401  0.5808
  986MOL0     O35938   7.837   4.687   0.590 -0.1921 -0.5730  0.4869
  986MOL0     C35939   7.950   4.764   0.601 -0.7869 -0.4731  0.2989
  986MOL0     C35940   8.071   4.661   0.610  0.0905 -0.9931  0.6128
  986MOL0     C35941   8.176   4.727   0.703  0.5443 -0.5786 -0.4363
  986MOL0     C35942   8.305   4.649   0.687  1.0443  0.6314  0.2054
  986MOL0     C35943   8.422   4.677   0.779  0.3796 -0.1269  0.4185
  986MOL0     C35944   8.565   4.649   0.708 -0.3135 -0.8996  0.6939
  986MOL0     C35945   8.678   4.639   0.812  0.4247 -0.1410  0.6311
  986MOL0     C35946   8.815   4.583   0.768  0.3052  0.5623  1.9147
  986MOL0     N35947   8.802   4.437   0.733 -0.3668 -0.7181  0.1346
  986MOL0     C35948   8.796   4.335   0.829 -0.3647  0.7080  0.8294
  986MOL0     C35949   8.750   4.222   0.770  0.2593 -0.9672  0.8402
  986MOL0     C35950   8.706   4.088   0.822  0.7905  0.7031 -0.0436
  986MOL0     C35951   8.802   3.980   0.759 -0.1770  0.1954 -0.7426
  986MOL0     C35952   8.762   3.836   0.796 -0.0809  0.3826 -0.0380
  986MOL0     C35953   8.885   3.742   0.787 -0.1104 -0.2674 -0.6489
  986MOL0     O35954   8.983   3.751   0.893 -0.1702 -0.4806 -0.5723
  986MOL0     C35955   9.088   3.660   0.903  0.5600  0.4569  0.1122
  986MOL0     C35956   9.174   3.665   1.010  0.4336  0.4416  0.1159
  986MOL0     C35957   9.294   3.591   1.023  0.4170 -0.1850  0.0118
  986MOL0     C35958   9.371   3.634   1.140  0.7774 -0.0578 -0.1141
  986MOL0     C35959   9.301   3.483   0.934 -0.1271  0.2191  0.5091
  986MOL0     C35960   9.402   3.370   0.956  0.7395 -0.5996 -0.2201
  986MOL0     O35961   9.382   3.255   0.884 -0.2038 -0.8773  0.0180
  986MOL0     C35962   9.501   3.192   0.841  0.0527  0.1330 -0.4121
  986MOL0     C35963   9.518   3.061   0.800 -0.0770  0.0366  0.1590
  986MOL0     C35964   9.639   3.002   0.767 -0.5391 -0.5058  0.9460
  986MOL0     C35965   9.758   3.078   0.754  0.5856 -0.0261  0.7151
  986MOL0     O35966   9.872   3.020   0.716 -0.6169  0.2616  0.2742
  986MOL0     C35967   9.991   3.089   0.691 -0.1913  0.2115  0.9520
  986MOL0     C35968  10.103   3.000   0.627  0.2729  0.7321 -1.0784
  986MOL0     C35969  10.122   2.869   0.705  0.8786  0.2455 -0.2239
  986MOL0     C35970  10.244   2.789   0.655  0.4358  0.0732  0.6057
  986MOL0     C35971  10.268   2.662   0.736  0.3249  0.7846  0.2627
  986MOL0     C35972  10.261   2.668   0.885 -0.1917  0.0337 -0.1052
  986MOL0     C35973  10.360   2.752   0.960 -0.1754  0.2814  0.5412
  986MOL0     C35974  10.504   2.717   0.923 -0.5691 -0.1566  0.3415
  986MOL0    Cl35975  10.618   2.761   1.052  0.2425  0.2920  0.0556
  986MOL0     C35976   9.748   3.217   0.788  0.6586  0.0501 -1.3013
  986MOL0     C35977   9.624   3.272   0.827 -0.4360 -0.1826 -0.3226
  986MOL0     O35978   9.479   3.383   1.053  0.2676  0.2201  0.2654
  986MOL0     C35979   9.213   3.467   0.828 -0.3492 -0.2126  0.0422
  986MOL0     C35980   9.112   3.555   0.812 -0.2544 -0.8131  0.3361
  986MOL0     N35981   8.736   4.261   0.638 -0.2807  0.4928  0.3078
  986MOL0     N35982   8.765   4.385   0.618 -0.6901  0.3953  0.3235
  986MOL0     C35983   7.681   4.857   0.656 -0.3038 -0.2075 -0.7907
  986MOL0     C35984   7.566   4.894   0.718  0.2148  0.4646  0.1959
  986MOL0     C35985   7.308   4.978   1.074 -0.2143  0.2327  0.2841
  986MOL0     C35986   7.177   4.937   1.034  0.1182  0.0123  0.4201
  986MOL0     C35987   7.064   4.960   1.116  0.5066 -0.6999  0.4709
  986MOL0     C35988   7.076   5.024   1.242  0.0858 -0.0005  0.9457
  986MOL0     O35989   6.960   5.017   1.315 -0.2528  0.1274  0.8257
  986MOL0     C35990   6.964   5.078   1.448 -0.3112 -0.1805 -0.1351
  986MOL0     C35991   6.819   5.120   1.488 -0.4404  0.4665 -0.5327
  986MOL0     C35992   6.761   5.253   1.423  0.3184 -0.2852 -0.0254
  986MOL0     C35993   6.615   5.273   1.465  0.1646 -0.2569 -0.0306
  986MOL0     C35994   6.599   5.279   1.609  0.2638  0.3866 -0.0778
  986MOL0     C35995   6.583   5.286   1.732 -0.0238  0.2295  0.3187
  986MOL0     C35996   7.204   5.075   1.272 -0.5764  0.5869  0.6520
  986MOL0     C35997   7.322   5.058   1.192 -0.2092  0.0287 -0.2173
  986MOL0     C35998   7.450   5.108   1.247 -0.1678  0.3093  0.0473
  986MOL0     H35999   7.512   4.617   0.912 -0.3141  0.0867 -0.2186
  986MOL0     H36000   7.699   4.536   0.777  0.2997  1.2659 -1.4453
  986MOL0     H36001   7.961   4.828   0.689 -0.2419  0.6769 -0.5855
  986MOL0     H36002   7.956   4.824   0.510  1.7678 -2.4793 -0.9985
  986MOL0     H36003   8.048   4.566   0.659 -1.1618 -1.1647 -0.2514
  986MOL0     H36004   8.105   4.634   0.510 -0.6329  3.4689 -1.1003
  986MOL0     H36005   8.190   4.835   0.690  3.5874 -0.7654  0.5608
  986MOL0     H36006   8.151   4.720   0.809  0.9145  0.4611 -0.2746
  986MOL0     H36007   8.279   4.544   0.674 -1.0981  1.3220 -1.6132
  986MOL0     H36008   8.331   4.676   0.584  0.0427  1.2896  0.1101
  986MOL0     H36009   8.413   4.612   0.866  0.8264  0.5651  0.9931
  986MOL0     H36010   8.417   4.783   0.805  3.0082  0.2251 -0.1875
  986MOL0     H36011   8.555   4.556   0.651 -0.9426  0.2223 -1.1233
  986MOL0     H36012   8.588   4.720   0.628  0.1684 -0.7891  0.9208
  986MOL0     H36013   8.640   4.573   0.891 -2.2716  1.1845  0.5685
  986MOL0     H36014   8.683   4.739   0.854 -1.0819 -1.6165  4.7993
  986MOL0     H36015   8.858   4.640   0.685 -0.7711 -0.9486  0.2589
  986MOL0     H36016   8.897   4.580   0.841  3.4445 -4.1280 -1.2183
  986MOL0     H36017   8.798   4.348   0.937 -2.8055 -0.5431  1.1084
  986MOL0     H36018   8.606   4.056   0.790  0.6012 -0.2437  1.3987
  986MOL0     H36019   8.708   4.079   0.931 -0.9702  3.8345  0.3595
  986MOL0     H36020   8.805   3.995   0.651 -1.0853  0.6085 -0.7262
  986MOL0     H36021   8.902   3.997   0.799  0.0923 -0.9018 -0.9183
  986MOL0     H36022   8.712   3.832   0.893 -0.3563 -1.0478 -0.2145
  986MOL0     H36023   8.682   3.806   0.728 -0.6375  1.7445 -0.0209
  986MOL0     H36024   8.863   3.636   0.796 -0.9097 -0.1323 -0.9328
  986MOL0     H36025   8.936   3.763   0.692  0.7989  2.6524  0.3436
  986MOL0     H36026   9.153   3.740   1.086  0.8037  0.1938  0.4657
  986MOL0     H36027   9.470   3.656   1.098 -0.6755 -0.1052 -3.9668
  986MOL0     H36028   9.373   3.556   1.216 -0.2233  1.2624  1.3342
  986MOL0     H36029   9.339   3.727   1.189  0.1167 -1.4042  2.1652
  986MOL0     H36030   9.431   2.999   0.816  1.0313 -1.8103 -0.6561
  986MOL0     H36031   9.633   2.895   0.748  0.5472 -0.6583  1.3816
  986MOL0     H36032   9.970   3.161   0.612 -2.1881 -1.0688  0.2278
  986MOL0     H36033  10.043   3.134   0.776  0.5601 -0.4772  0.8661
  986MOL0     H36034  10.065   2.965   0.530 -5.9275  0.6142  0.9673
  986MOL0     H36035  10.197   3.055   0.621  0.0792  1.3361  0.8477
  986MOL0     H36036  10.037   2.800   0.701  2.4180 -1.6745 -2.4203
  986MOL0     H36037  10.132   2.896   0.811 -0.9787  0.2447 -0.0052
  986MOL0     H36038  10.333   2.852   0.664  1.1045 -0.9582  1.3784
  986MOL0     H36039  10.229   2.775   0.547 -0.1206  2.6860  0.2869
  986MOL0     H36040  10.198   2.584   0.704  0.8848 -0.1155  1.1772
  986MOL0     H36041  10.361   2.613   0.707 -1.2226 -1.4759 -1.1532
  986MOL0     H36042  10.276   2.569   0.929 -2.1841 -1.1385 -1.8561
  986MOL0     H36043  10.156   2.692   0.903 -0.2589 -0.8882  0.8502
  986MOL0     H36044  10.345   2.735   1.067 -0.0196  1.4434  0.7657
  986MOL0     H36045  10.333   2.857   0.948  0.9051  0.9544  3.1759
  986MOL0     H36046  10.537   2.771   0.834  3.3642 -1.6073  0.7098
  986MOL0     H36047  10.523   2.614   0.894  0.4426 -0.4373  1.8984
  986MOL0     H36048   9.837   3.278   0.781  0.7071 -0.1604 -2.9243
  986MOL0     H36049   9.620   3.381   0.830  2.1800 -0.0476  1.2054
  986MOL0     H36050   9.225   3.383   0.762  0.9516 -1.8465  2.2228
  986MOL0     H36051   9.053   3.545   0.721  0.3641  0.0167 -0.1662
  986MOL0     H36052   7.728   4.922   0.583 -1.7328  0.6823 -0.9688
  986MOL0     H36053   7.542   4.999   0.706 -0.8868  0.0270 -1.7055
  986MOL0     H36054   7.167   4.887   0.938 -0.7403 -0.8382  0.9406
  986MOL0     H36055   6.962   4.929   1.098 -0.8743  2.4275  1.9802
  986MOL0     H36056   7.017   5.027   1.529  2.6571  1.3303 -1.0020
  986MOL0     H36057   7.016   5.174   1.448 -1.1715  0.2908 -0.3131
  986MOL0     H36058   6.803   5.117   1.596  1.6375  1.6731 -0.1426
  986MOL0     H36059   6.755   5.037   1.457  0.7792 -1.3121  1.4792
  986MOL0     H36060   6.821   5.342   1.445  0.4168  0.1983 -2.0519
  986MOL0     H36061   6.770   5.242   1.315  0.1320  0.1395 -0.0861
  986MOL0     H36062   6.563   5.182   1.435  2.0610 -0.9569 -1.3782
  986MOL0     H36063   6.569   5.361   1.419  0.1674 -0.0110  0.4360
  986MOL0     H36064   6.579   5.309   1.836  1.3799 -3.7825  1.4587
  986MOL0     H36065   7.225   5.120   1.368  1.4749 -1.5965  1.3232
  986MOL0     H36066   7.492   5.160   1.161  2.5442  3.9872  3.2458
  986MOL0     H36067   7.440   5.176   1.332  1.0420 -1.7752  1.9875
  986MOL0     H36068   7.515   5.025   1.277  0.6191  0.0817 -2.0950
  987MOL0     O36069   0.801  11.200   0.609 -0.8415 -0.3354 -0.0438
  987MOL0     C36070   0.766  11.129   0.517 -0.2611 -0.4534  0.5240
  987MOL0     O36071   0.803  11.003   0.505  0.2103  0.2058  0.6657
  987MOL0     C36072   0.884  10.945   0.602 -0.5663 -0.9144 -0.3385
  987MOL0     C36073   1.021  10.907   0.568  0.6741 -0.4197 -0.2810
  987MOL0     C36074   1.093  10.829   0.658  0.1674  0.2810  0.1809
  987MOL0     C36075   1.038  10.792   0.776 -0.5276 -0.0715  0.1174
  987MOL0     O36076   1.125  10.748   0.878 -0.6761  0.2107 -0.0757
  987MOL0     C36077   1.098  10.762   1.016  0.8281  0.2254  0.7266
  987MOL0     C36078   1.025  10.652   1.094 -0.6359  0.4782 -0.3354
  987MOL0     C36079   1.118  10.519   1.093  0.2013 -0.2004  0.2794
  987MOL0     C36080   1.047  10.401   1.172 -0.4748  0.1031 -0.3291
  987MOL0     C36081   1.138  10.287   1.199  0.4921  0.1327  0.7888
  987MOL0     C36082   1.195  10.214   1.076  0.2597  0.0839  0.2457
  987MOL0     C36083   1.300  10.115   1.123 -0.0018  0.3778  0.2101
  987MOL0     C36084   1.234  10.006   1.196 -0.2010  0.0096  0.2001
  987MOL0     N36085   1.318   9.885   1.194  0.1311 -0.0908  0.5568
  987MOL0     C36086   1.382   9.846   1.307  0.6033  0.5394 -0.1205
  987MOL0     C36087   1.438   9.725   1.281  0.5407  0.4676 -0.5331
  987MOL0     C36088   1.521   9.639   1.376  0.2165 -0.1367  0.4572
  987MOL0     C36089   1.654   9.693   1.397 -0.7370  1.0534 -0.0200
  987MOL0     C36090   1.750   9.586   1.459  0.2570 -0.0122  0.5294
  987MOL0     C36091   1.877   9.645   1.518 -0.2623  0.3544  0.0639
  987MOL0     O36092   1.935   9.534   1.585  0.5191 -0.1775 -0.7953
  987MOL0     C36093   2.067   9.515   1.585 -0.0730  0.0897  0.4121
  987MOL0     C36094   2.170   9.615   1.576  0.8289 -0.5298 -0.2311
  987MOL0     C36095   2.303   9.574   1.554 -0.5954  1.0787 -1.2808
  987MOL0     C36096   2.403   9.675   1.557  0.3320 -0.1531  0.2428
  987MOL0     C36097   2.330   9.430   1.527 -0.0655  0.4242 -0.2757
  987MOL0     C36098   2.459   9.389   1.495 -0.5576  0.6119 -1.2862
  987MOL0     O36099   2.563   9.460   1.546 -0.3470  0.2993  0.3783
  987MOL0     C36100   2.687   9.395   1.542  0.6179 -0.2993 -0.1496
  987MOL0     C36101   2.709   9.287   1.625 -0.1841 -0.3359  0.5687
  987MOL0     C36102   2.834   9.222   1.611  0.6106  0.4668  0.5832
  987MOL0     C36103   2.943   9.272   1.537  0.3610 -0.3075  0.7691
  987MOL0     O36104   3.061   9.203   1.546 -0.3787  0.8331 -0.5103
  987MOL0     C36105   3.180   9.283   1.531  0.3227 -0.1209 -0.5895
  987MOL0     C36106   3.304   9.200   1.580  0.0721 -0.2114 -0.6668
  987MOL0     C36107   3.435   9.287   1.563 -0.0486  0.7920 -0.1649
  987MOL0     C36108   3.566   9.205   1.556 -0.5484 -0.2727 -0.2541
  987MOL0     C36109   3.687   9.298   1.534 -0.6186 -0.7846 -0.2237
  987MOL0     C36110   3.823   9.227   1.563 -0.0311 -0.3821  0.3726
  987MOL0     C36111   3.884   9.153   1.444  0.1629 -0.0328 -0.3501
  987MOL0     C36112   4.015   9.094   1.485  0.0208  0.6617 -0.4826
  987MOL0    Cl36113   4.093   9.031   1.332 -0.2019  0.2296  0.5831
  987MOL0     C36114   2.915   9.398   1.466 -0.1021  0.2542  0.7198
  987MOL0     C36115   2.790   9.453   1.471  0.0848 -0.5674 -0.2655
  987MOL0     O36116   2.470   9.282   1.441  0.5995  0.2799  0.8799
  987MOL0     C36117   2.224   9.338   1.526 -0.6309 -0.2190  0.8614
  987MOL0     C36118   2.096   9.382   1.559 -0.2294 -0.2614  0.2085
  987MOL0     N36119   1.396   9.685   1.155 -0.8968 -0.3866 -0.4777
  987MOL0     N36120   1.330   9.785   1.102 -0.2087  0.5575  0.2041
  987MOL0     C36121   0.910  10.830   0.810 -0.2400 -0.2112 -0.6901
  987MOL0     C36122   0.825  10.902   0.724 -0.1791  0.1528  0.0318
  987MOL0     C36123   0.679  11.183   0.399 -0.0672 -0.5513 -0.2722
  987MOL0     C36124   0.595  11.095   0.322 -0.7577 -0.3078 -0.1557
  987MOL0     C36125   0.524  11.143   0.210 -0.1269 -0.3483 -0.0868
  987MOL0     C36126   0.519  11.278   0.180 -0.4102 -0.4152 -0.0540
  987MOL0     O36127   0.450  11.340   0.075  0.0426  0.1488 -0.3632
  987MOL0     C36128   0.345  11.264   0.016  0.8089 -0.2405 -0.9825
  987MOL0     C36129   0.264  11.353  -0.081 -0.2244 -0.1878 -0.4836
  987MOL0     C36130   0.326  11.372  -0.224  0.0442 -0.0812 -0.3068
  987MOL0     C36131   0.323  11.251  -0.309 -1.1823 -0.6364 -0.2334
  987MOL0     C36132   0.195  11.188  -0.344 -1.0102 -0.6260 -0.3471
  987MOL0     C36133   0.098  11.120  -0.360 -0.4670  0.2271 -0.3473
  987MOL0     C36134   0.582  11.363   0.266 -0.7361 -0.3653 -0.8706
  987MOL0     C36135   0.664  11.319   0.375  0.1353 -0.0327 -0.4578
  987MOL0     C36136   0.719  11.430   0.460  0.5751 -0.1472  0.0471
  987MOL0     H36137   1.049  10.922   0.465  0.4528  1.3918 -0.1082
  987MOL0     H36138   1.195  10.805   0.630 -0.7380 -0.5840 -2.7512
  987MOL0     H36139   1.030  10.846   1.031 -1.0426 -1.0487 -0.2348
  987MOL0     H36140   1.182  10.794   1.077 -0.4757  0.0396  2.6911
  987MOL0     H36141   1.018  10.690   1.196  0.7794 -1.2081  0.4172
  987MOL0     H36142   0.924  10.637   1.054  0.1481 -0.8792 -1.9517
  987MOL0     H36143   1.137  10.493   0.988  0.0657  1.1179 -0.0954
  987MOL0     H36144   1.213  10.539   1.142 -0.6635  1.1522  1.5051
  987MOL0     H36145   1.008  10.434   1.269  1.0786 -1.1238  0.7751
  987MOL0     H36146   0.952  10.380   1.122 -1.3589  1.0009  0.8865
  987MOL0     H36147   1.081  10.210   1.252 -0.9701  1.1090  0.6965
  987MOL0     H36148   1.215  10.332   1.263  0.8417  0.9583 -0.1718
  987MOL0     H36149   1.118  10.167   1.014 -0.4687 -0.0667  1.2379
  987MOL0     H36150   1.253  10.273   1.003 -0.0789 -1.7245 -1.5823
  987MOL0     H36151   1.380  10.165   1.178 -0.3354 -0.6457  1.7017
  987MOL0     H36152   1.333  10.058   1.036  1.1538  1.0912  0.1696
  987MOL0     H36153   1.206  10.042   1.296 -0.7585  1.8049 -0.5670
  987MOL0     H36154   1.141   9.983   1.143  0.6058 -1.2022 -0.7327
  987MOL0     H36155   1.370   9.897   1.402 -3.0877  1.1785 -0.7701
  987MOL0     H36156   1.528   9.532   1.356 -2.1688 -0.2038 -0.3916
  987MOL0     H36157   1.465   9.640   1.470 -0.2457  0.0247  0.1896
  987MOL0     H36158   1.688   9.727   1.299 -1.0746  2.3805  0.2949
  987MOL0     H36159   1.638   9.783   1.458 -1.2837  1.7333 -1.1393
  987MOL0     H36160   1.695   9.529   1.535  0.6806  0.9415  1.5778
  987MOL0     H36161   1.780   9.514   1.382 -0.2364  0.1912  0.1374
  987MOL0     H36162   1.943   9.680   1.439 -1.8739  0.0930 -1.4488
  987MOL0     H36163   1.851   9.726   1.588 -0.4210 -0.3639  0.8534
  987MOL0     H36164   2.141   9.719   1.586 -1.3240 -1.1534  0.6503
  987MOL0     H36165   2.473   9.654   1.638 -0.9843 -0.1730  1.4119
  987MOL0     H36166   2.369   9.777   1.575 -0.0308  0.0408 -1.3656
  987MOL0     H36167   2.454   9.679   1.461  1.8929  1.6462  1.0811
  987MOL0     H36168   2.639   9.232   1.687 -0.0899 -1.8873 -0.6478
  987MOL0     H36169   2.852   9.121   1.649 -1.7792 -1.4116 -2.7478
  987MOL0     H36170   3.199   9.307   1.426  0.3948  5.3908  0.3941
  987MOL0     H36171   3.176   9.379   1.583 -1.9217  0.7770 -2.2584
  987MOL0     H36172   3.289   9.178   1.686  1.0666 -2.0101 -0.8553
  987MOL0     H36173   3.316   9.108   1.522  0.3001 -2.8285  3.1095
  987MOL0     H36174   3.443   9.356   1.647 -2.8278 -0.5022  1.3017
  987MOL0     H36175   3.418   9.344   1.471 -2.1913  0.9730  0.2880
  987MOL0     H36176   3.568   9.136   1.471  1.3492  0.0078 -0.4733
  987MOL0     H36177   3.583   9.159   1.654 -0.2371 -0.6253 -0.4734
  987MOL0     H36178   3.686   9.347   1.437  1.5796  1.5775  0.8216
  987MOL0     H36179   3.680   9.378   1.608 -1.6798 -0.9917 -0.0840
  987MOL0     H36180   3.807   9.160   1.648  1.1176 -1.8158 -0.4970
  987MOL0     H36181   3.894   9.300   1.603 -0.2813  0.8376 -1.3069
  987MOL0     H36182   3.892   9.222   1.359 -1.1963 -1.2097 -1.4958
  987MOL0     H36183   3.821   9.071   1.410  1.4316 -0.1586 -2.6476
  987MOL0     H36184   3.996   9.017   1.561 -3.3634  1.1789 -0.6748
  987MOL0     H36185   4.077   9.168   1.535  1.0979  0.7573 -1.8736
  987MOL0     H36186   2.998   9.455   1.427 -3.6598  3.6091 -2.8384
  987MOL0     H36187   2.781   9.554   1.431 -4.5323 -0.0806  1.3660
  987MOL0     H36188   2.228   9.240   1.479 -0.0607  0.4132 -0.4732
  987MOL0     H36189   2.023   9.303   1.562 -1.0143  0.4606  0.4741
  987MOL0     H36190   0.875  10.807   0.910 -2.0582 -0.0190 -1.2395
  987MOL0     H36191   0.719  10.919   0.741 -0.1811  1.2316 -0.9238
  987MOL0     H36192   0.590  10.988   0.340 -0.0242 -1.0596 -3.7099
  987MOL0     H36193   0.476  11.078   0.139  2.1987  0.5714 -2.6744
  987MOL0     H36194   0.375  11.167  -0.025 -0.0689 -1.3396  0.8135
  987MOL0     H36195   0.281  11.233   0.100  0.8401 -1.9886 -1.5706
  987MOL0     H36196   0.258  11.454  -0.038  5.7083  1.2298 -1.9706
  987MOL0     H36197   0.165  11.307  -0.087  0.1190 -1.4164  1.9057
  987MOL0     H36198   0.278  11.449  -0.285 -1.3884 -0.7729 -0.0864
  987MOL0     H36199   0.431  11.400  -0.208  0.3878 -1.8928  0.9029
  987MOL0     H36200   0.383  11.170  -0.266  2.1210  1.6011 -0.2754
  987MOL0     H36201   0.377  11.285  -0.398  1.6087  1.0445  1.9054
  987MOL0     H36202   0.009  11.061  -0.354  0.1038 -0.5564  1.0202
  987MOL0     H36203   0.563  11.469   0.255 -2.1692  0.2491  4.6394
  987MOL0     H36204   0.827  11.433   0.447  0.8209  0.4449  1.9489
  987MOL0     H36205   0.677  11.531   0.447 -1.4561 -0.7257  1.5284
  987MOL0     H36206   0.695  11.421   0.567 -0.7440  0.3837 -0.1782
  988MOL0     O36207   8.485   7.657   9.739 -0.3271  0.4368  0.1444
  988MOL0     C36208   8.379   7.589   9.725 -0.2024 -0.1742  0.2582
  988MOL0     O36209   8.361   7.478   9.641 -0.5466 -0.6254  0.0039
  988MOL0     C36210   8.475   7.412   9.599  0.2334 -0.9989  0.3972
  988MOL0     C36211   8.531   7.318   9.678  0.2717  0.1415  0.2390
  988MOL0     C36212   8.660   7.274   9.649  0.5270  0.7468 -0.3477
  988MOL0     C36213   8.721   7.317   9.534  0.4785  0.2015 -0.1293
  988MOL0     O36214   8.837   7.252   9.503  0.3547  0.1816 -0.2668
  988MOL0     C36215   8.838   7.165   9.384  0.5580 -0.3834 -0.5091
  988MOL0     C36216   8.972   7.099   9.376  0.1218 -1.2317  0.2061
  988MOL0     C36217   9.079   7.206   9.324 -0.0789  1.3759 -0.6383
  988MOL0     C36218   9.224   7.156   9.350  0.0706 -0.5482 -0.2080
  988MOL0     C36219   9.318   7.258   9.296 -0.2714 -0.0501 -0.2527
  988MOL0     C36220   9.468   7.255   9.331 -0.9402 -0.3568  0.3487
  988MOL0     C36221   9.540   7.383   9.280  1.0698 -0.5099  0.5789
  988MOL0     C36222   9.659   7.406   9.372  1.1388 -0.0432  0.4461
  988MOL0     N36223   9.756   7.300   9.364 -0.1169  0.0344  0.9755
  988MOL0     C36224   9.794   7.222   9.471  0.2891  0.8285  0.0358
  988MOL0     C36225   9.916   7.176   9.433  0.1089  0.1648 -0.5367
  988MOL0     C36226  10.004   7.087   9.511 -0.2978  0.5720 -0.0437
  988MOL0     C36227  10.055   6.961   9.440 -0.0732  0.8765  1.0991
  988MOL0     C36228  10.127   6.864   9.533 -0.5005 -0.3732  0.4022
  988MOL0     C36229  10.150   6.741   9.457  0.2824  0.2760  1.2651
  988MOL0     O36230  10.217   6.641   9.537 -0.3583 -0.6599 -0.0282
  988MOL0     C36231  10.356   6.647   9.537 -0.4308  0.4418  1.1097
  988MOL0     C36232  10.438   6.744   9.471  0.0748  0.4456 -0.2552
  988MOL0     C36233  10.581   6.727   9.465  0.0789  0.0384  0.1137
  988MOL0     C36234  10.655   6.838   9.401 -0.0992 -0.3678 -0.0967
  988MOL0     C36235  10.640   6.611   9.515  0.1192  0.7009  0.2781
  988MOL0     C36236  10.787   6.573   9.500  0.5104 -0.2904 -0.6927
  988MOL0     O36237  10.833   6.465   9.572 -0.0115 -0.4249  0.4267
  988MOL0     C36238  10.963   6.429   9.550 -0.5129 -0.3911 -0.2253
  988MOL0     C36239  10.988   6.312   9.480 -0.8639  0.6963  0.0219
  988MOL0     C36240  11.122   6.271   9.458  0.1026 -0.6398 -0.3224
  988MOL0     C36241  11.233   6.347   9.501 -0.0989  0.4782  0.0757
  988MOL0     O36242  11.361   6.300   9.481 -0.0476 -0.0517  0.5603
  988MOL0     C36243  11.446   6.387   9.403  0.4719 -0.1718  0.1036
  988MOL0     C36244  11.584   6.320   9.384 -0.4085 -0.3028  0.6672
  988MOL0     C36245  11.684   6.427   9.331  0.2735  0.4517 -0.2312
  988MOL0     C36246  11.819   6.357   9.310 -0.5106 -0.8934  0.2009
  988MOL0     C36247  11.937   6.444   9.236 -0.0368 -0.1278  0.0786
  988MOL0     C36248  11.899   6.499   9.092  0.5526  0.7458 -0.7775
  988MOL0     C36249  12.023   6.546   9.027  0.4680 -0.0118 -0.1411
  988MOL0     C36250  12.044   6.695   9.056 -0.3144  0.3370  0.1248
  988MOL0    Cl36251  12.217   6.739   9.026  0.4168  0.0956  0.2047
  988MOL0     C36252  11.206   6.457   9.575  0.7809 -0.3856 -1.0719
  988MOL0     C36253  11.075   6.504   9.598 -0.8256  0.2703 -0.3228
  988MOL0     O36254  10.864   6.642   9.428 -0.5551  0.1313 -0.3642
  988MOL0     C36255  10.561   6.530   9.592  0.3134  0.0291  0.2128
  988MOL0     C36256  10.422   6.544   9.603 -0.4055 -0.2273 -0.4728
  988MOL0     N36257   9.955   7.224   9.310  0.0843 -0.4152 -0.3158
  988MOL0     N36258   9.855   7.291   9.264  0.2823  0.0401  0.4864
  988MOL0     C36259   8.648   7.396   9.437 -0.2603  0.7827 -0.4682
  988MOL0     C36260   8.529   7.451   9.476  0.1367 -0.4493  0.1966
  988MOL0     C36261   8.251   7.633   9.795  0.1848  0.0837  0.3639
  988MOL0     C36262   8.136   7.546   9.788 -0.5170  0.2182  1.1304
  988MOL0     C36263   8.014   7.575   9.846  0.5336 -1.2948  0.2142
  988MOL0     C36264   7.998   7.699   9.907 -0.1518 -0.8412  0.3415
  988MOL0     O36265   7.878   7.759   9.953 -0.0906 -0.9328 -0.3323
  988MOL0     C36266   7.782   7.667   9.997  0.5573  1.2390 -0.6818
  988MOL0     C36267   7.669   7.745  10.051  0.2893 -0.6221  0.0154
  988MOL0     C36268   7.625   7.840   9.934 -0.4818  0.9974  0.4836
  988MOL0     C36269   7.510   7.933   9.969 -0.0544 -0.4860  0.5332
  988MOL0     C36270   7.552   8.038  10.058 -0.1316 -0.8196 -0.6511
  988MOL0     C36271   7.582   8.119  10.145  0.0692  0.1543  1.0584
  988MOL0     C36272   8.109   7.781   9.920  0.8160  0.5075 -0.0464
  988MOL0     C36273   8.240   7.747   9.868  0.3946 -0.2664 -0.0286
  988MOL0     C36274   8.352   7.849   9.903  0.4464  0.4397  0.1776
  988MOL0     H36275   8.487   7.310   9.777  0.4140  1.5962  0.4351
  988MOL0     H36276   8.716   7.204   9.710  0.8892 -1.8298 -3.4070
  988MOL0     H36277   8.832   7.222   9.290  1.6049 -1.1378 -1.0551
  988MOL0     H36278   8.764   7.085   9.389  1.9558 -1.6807  0.2953
  988MOL0     H36279   8.997   7.055   9.473  1.9385 -1.3681 -0.2947
  988MOL0     H36280   8.971   7.017   9.305 -0.8534  0.9505 -2.4783
  988MOL0     H36281   9.063   7.216   9.216  0.3008  1.5699 -0.6779
  988MOL0     H36282   9.061   7.298   9.380 -0.6041  1.2196 -0.5407
  988MOL0     H36283   9.250   7.140   9.455 -0.9402 -0.5721  0.0465
  988MOL0     H36284   9.237   7.061   9.297  0.5103  1.9576 -5.2054
  988MOL0     H36285   9.289   7.356   9.335 -2.9687 -0.6100 -0.6833
  988MOL0     H36286   9.311   7.268   9.187  1.4034  2.3876 -0.2172
  988MOL0     H36287   9.475   7.240   9.440 -1.6714 -2.6388  0.1289
  988MOL0     H36288   9.514   7.165   9.289  2.0083  1.0547  0.3195
  988MOL0     H36289   9.476   7.469   9.299  0.4351 -0.5621 -1.1313
  988MOL0     H36290   9.567   7.378   9.174  0.0225  0.1088  0.2748
  988MOL0     H36291   9.714   7.498   9.350  0.5657 -0.0797 -1.3272
  988MOL0     H36292   9.627   7.417   9.476 -0.0643  0.5523  0.0223
  988MOL0     H36293   9.733   7.192   9.556 -0.3572 -0.3769 -0.8163
  988MOL0     H36294   9.946   7.067   9.601  1.5429 -1.9658  0.6866
  988MOL0     H36295  10.089   7.145   9.550 -0.7063  0.3215  1.2378
  988MOL0     H36296   9.966   6.913   9.397  1.9170 -1.1971 -0.9713
  988MOL0     H36297  10.113   6.989   9.352  0.5120 -0.3341  1.0831
  988MOL0     H36298  10.210   6.900   9.593  0.4349 -1.6193 -0.1078
  988MOL0     H36299  10.058   6.843   9.615 -2.1259  0.3154 -0.7124
  988MOL0     H36300  10.055   6.690   9.438  1.3734 -2.3285  2.2658
  988MOL0     H36301  10.197   6.757   9.359 -0.8092  0.2552  0.7127
  988MOL0     H36302  10.394   6.838   9.438 -1.0578  0.4880  1.2664
  988MOL0     H36303  10.748   6.868   9.452 -1.2568 -0.9715  2.5793
  988MOL0     H36304  10.593   6.927   9.390  0.3214 -0.1310 -0.5847
  988MOL0     H36305  10.680   6.820   9.296 -4.7411 -1.4625 -1.2231
  988MOL0     H36306  10.908   6.248   9.444 -2.0240  0.8836  2.1031
  988MOL0     H36307  11.143   6.176   9.411  2.5165 -0.0117 -0.6400
  988MOL0     H36308  11.405   6.423   9.308 -3.5235  1.9115  2.3236
  988MOL0     H36309  11.456   6.474   9.468 -0.0574  0.2519 -0.3787
  988MOL0     H36310  11.624   6.280   9.478 -0.1206  0.3429  0.8308
  988MOL0     H36311  11.570   6.246   9.306  0.0856 -0.1864  0.4638
  988MOL0     H36312  11.701   6.505   9.406 -3.4862 -0.4325  1.8136
  988MOL0     H36313  11.647   6.473   9.240  1.0718  0.1821 -0.7026
  988MOL0     H36314  11.794   6.279   9.238 -1.4680  1.7947 -2.6529
  988MOL0     H36315  11.856   6.324   9.407  0.1076 -1.4759 -0.2239
  988MOL0     H36316  11.977   6.521   9.303 -0.5023 -2.6222  3.4348
  988MOL0     H36317  12.025   6.381   9.218 -1.8094 -2.1158 -2.4156
  988MOL0     H36318  11.815   6.569   9.098 -0.1640 -0.0443 -1.4166
  988MOL0     H36319  11.859   6.412   9.040 -3.1524  1.6631  0.2980
  988MOL0     H36320  12.014   6.525   8.920  0.3439 -0.8026  0.0109
  988MOL0     H36321  12.111   6.489   9.061  1.0264  0.4522 -0.7818
  988MOL0     H36322  12.024   6.715   9.162 -2.2865 -2.2215  0.3423
  988MOL0     H36323  11.979   6.761   8.998  1.0003  3.7136  2.1864
  988MOL0     H36324  11.283   6.520   9.618  1.5414 -2.5525  0.9540
  988MOL0     H36325  11.063   6.600   9.647 -2.2934  0.6781 -1.4186
  988MOL0     H36326  10.610   6.454   9.651 -3.2342 -1.4171  1.5493
  988MOL0     H36327  10.361   6.472   9.656  1.5549 -0.5996  1.3939
  988MOL0     H36328   8.695   7.418   9.342  0.8173 -0.5306 -0.2818
  988MOL0     H36329   8.478   7.526   9.417  0.8977  1.6991  2.0702
  988MOL0     H36330   8.138   7.440   9.765 -3.2306  0.0594  1.2478
  988MOL0     H36331   7.939   7.496   9.844  1.8150 -2.6733  2.2245
  988MOL0     H36332   7.740   7.618   9.908 -5.0548 -0.0172  2.2068
  988MOL0     H36333   7.817   7.592  10.068  0.4809  1.6307 -0.2291
  988MOL0     H36334   7.691   7.808  10.138  2.5538 -0.3242 -0.7069
  988MOL0     H36335   7.590   7.679  10.087  1.5670 -1.6129  1.1183
  988MOL0     H36336   7.705   7.906   9.898  1.9649 -2.3469 -0.6984
  988MOL0     H36337   7.606   7.774   9.848 -0.9358  1.1261  0.4852
  988MOL0     H36338   7.429   7.882  10.023  0.1963  2.1430  3.7037
  988MOL0     H36339   7.471   7.967   9.873 -0.9421 -3.0116 -0.0733
  988MOL0     H36340   7.616   8.193  10.214 -2.0247  3.1533 -0.8735
  988MOL0     H36341   8.093   7.865   9.987  0.0222  1.1330 -0.9838
  988MOL0     H36342   8.431   7.805   9.966  1.7539  1.5657 -0.6123
  988MOL0     H36343   8.383   7.896   9.810 -0.9831 -0.7571 -0.9500
  988MOL0     H36344   8.320   7.935   9.963 -0.5263 -0.8561  1.5910
  989MOL0     O36345  11.127   6.449   3.121 -0.2681 -0.7478  0.0259
  989MOL0     C36346  11.199   6.392   3.043  1.6042 -0.3909  0.3438
  989MOL0     O36347  11.309   6.441   2.987 -0.5632 -0.3894  0.1982
  989MOL0     C36348  11.391   6.535   3.041 -0.1902 -0.0576 -0.5194
  989MOL0     C36349  11.465   6.616   2.962 -0.0877 -0.0812  0.1410
  989MOL0     C36350  11.550   6.718   3.009  0.5661 -0.1327 -0.5546
  989MOL0     C36351  11.567   6.733   3.150 -0.9669  0.7479 -1.1532
  989MOL0     O36352  11.658   6.838   3.172 -0.8527  0.5513 -0.4428
  989MOL0     C36353  11.720   6.835   3.298 -0.1778 -0.5331  0.1669
  989MOL0     C36354  11.802   6.965   3.316 -0.2163  0.7584  0.5558
  989MOL0     C36355  11.948   6.956   3.265  0.0836 -0.0966 -0.0192
  989MOL0     C36356  12.024   7.085   3.274  1.1829 -0.9221 -0.2902
  989MOL0     C36357  12.179   7.044   3.264 -0.0097  0.3154  0.5636
  989MOL0     C36358  12.265   7.173   3.256 -0.0540  0.7583 -0.3569
  989MOL0     C36359  12.411   7.138   3.255 -0.3832 -0.4185  0.1236
  989MOL0     C36360  12.502   7.245   3.216  0.3232 -0.0214  0.4529
  989MOL0     N36361  12.640   7.185   3.210  0.5815  0.1914  0.2364
  989MOL0     C36362  12.715   7.172   3.095 -0.1506 -0.0003  0.1018
  989MOL0     C36363  12.829   7.117   3.136 -0.3067  0.4863 -0.1397
  989MOL0     C36364  12.950   7.098   3.046  0.4135  0.4851  0.2676
  989MOL0     C36365  13.047   7.000   3.112  0.3573 -0.1921 -0.3035
  989MOL0     C36366  13.170   6.972   3.018  1.0545 -0.1866 -0.7334
  989MOL0     C36367  13.298   6.926   3.098  0.5579  0.6242  0.0761
  989MOL0     O36368  13.268   6.804   3.162 -0.2351  0.1300  0.5920
  989MOL0     C36369  13.385   6.743   3.181 -0.0723  0.3192 -0.9998
  989MOL0     C36370  13.480   6.784   3.277 -0.2466  0.1004 -0.2055
  989MOL0     C36371  13.612   6.729   3.284 -0.0022 -0.3563 -0.4544
  989MOL0     C36372  13.701   6.786   3.383  0.0393  1.0611 -0.9907
  989MOL0     C36373  13.645   6.613   3.206 -0.2334 -0.3846  0.1881
  989MOL0     C36374  13.783   6.542   3.209 -0.0213 -0.5370 -0.8347
  989MOL0     O36375  13.833   6.512   3.086 -0.0095 -0.1521  0.2349
  989MOL0     C36376  13.955   6.451   3.075 -0.1108  0.2134  0.3969
  989MOL0     C36377  13.965   6.334   3.005 -0.1262 -0.3182  0.0269
  989MOL0     C36378  14.087   6.265   2.984 -0.5086  0.0691 -0.5769
  989MOL0     C36379  14.199   6.319   3.039 -0.0989 -0.4533 -0.4928
  989MOL0     O36380  14.315   6.260   2.989 -0.6911 -0.0554  0.1459
  989MOL0     C36381  14.442   6.325   3.004 -0.2002 -0.2854 -1.1295
  989MOL0     C36382  14.506   6.290   3.136  0.1130  0.0924 -0.0789
  989MOL0     C36383  14.636   6.371   3.145  0.0494  0.5747  0.2207
  989MOL0     C36384  14.746   6.294   3.217 -1.2144 -0.2250 -0.6734
  989MOL0     C36385  14.724   6.272   3.365  0.2890  0.9689 -0.3155
  989MOL0     C36386  14.839   6.183   3.426 -0.3968 -0.5302  0.6708
  989MOL0     C36387  14.869   6.218   3.569 -0.9066  0.0298 -0.3373
  989MOL0     C36388  14.956   6.119   3.652 -0.4884  0.2908  0.3543
  989MOL0    Cl36389  14.859   5.976   3.700 -0.5333 -0.2382 -0.3913
  989MOL0     C36390  14.192   6.445   3.102 -0.2855  0.7624 -0.3687
  989MOL0     C36391  14.070   6.509   3.129 -0.0392 -0.2112  1.0193
  989MOL0     O36392  13.816   6.491   3.317 -0.0036  1.6332  0.5109
  989MOL0     C36393  13.553   6.574   3.104  0.2965  0.1970  0.3332
  989MOL0     C36394  13.425   6.641   3.090  0.0672 -0.5007 -0.4931
  989MOL0     N36395  12.815   7.084   3.264 -0.1272  0.4650  0.2932
  989MOL0     N36396  12.706   7.135   3.311  0.7403  0.3262 -0.3297
  989MOL0     C36397  11.505   6.649   3.235  0.1526  0.5760  0.1912
  989MOL0     C36398  11.412   6.551   3.178 -0.3240 -0.2997  0.0432
  989MOL0     C36399  11.124   6.273   2.986 -0.9794 -0.6236 -0.6111
  989MOL0     C36400  11.004   6.229   3.053 -0.2531  0.6000 -0.2069
  989MOL0     C36401  10.926   6.123   2.996 -0.3930 -0.4060  0.1888
  989MOL0     C36402  10.966   6.073   2.875  0.2929  0.3219  0.9015
  989MOL0     O36403  10.881   5.989   2.816 -0.2679  0.0506  0.0492
  989MOL0     C36404  10.932   5.897   2.721 -0.3931 -0.5457 -0.7905
  989MOL0     C36405  10.840   5.780   2.706 -0.2584 -0.4460 -0.1611
  989MOL0     C36406  10.689   5.808   2.723  0.3870  0.6307 -0.5957
  989MOL0     C36407  10.611   5.686   2.655 -0.0667 -0.6049 -0.2462
  989MOL0     C36408  10.470   5.714   2.665 -0.0244  0.1850 -0.1218
  989MOL0     C36409  10.354   5.756   2.678 -0.4028 -0.2051  0.0568
  989MOL0     C36410  11.087   6.115   2.814  0.0942  1.1198 -0.4013
  989MOL0     C36411  11.167   6.205   2.872 -0.2355  0.1223  1.0308
  989MOL0     C36412  11.294   6.239   2.794  0.1373  0.4516  0.7758
  989MOL0     H36413  11.447   6.595   2.857  0.2565 -0.5250  0.1658
  989MOL0     H36414  11.608   6.790   2.953  3.7211  0.0641  2.5942
  989MOL0     H36415  11.800   6.760   3.297  0.6952  0.3755  0.6633
  989MOL0     H36416  11.643   6.815   3.373 -0.7362 -1.9370 -0.7339
  989MOL0     H36417  11.752   7.052   3.271 -0.1874  1.4726  1.8520
  989MOL0     H36418  11.797   6.982   3.424  1.3711 -0.9422  0.9440
  989MOL0     H36419  12.012   6.908   3.340  4.9883  5.7459  0.2480
  989MOL0     H36420  11.951   6.912   3.165 -1.1975  0.2863 -0.2402
  989MOL0     H36421  12.004   7.166   3.202  3.3046  1.6397  1.7985
  989MOL0     H36422  11.996   7.132   3.368  1.0874  0.3825 -0.9430
  989MOL0     H36423  12.190   6.982   3.175  0.3847 -0.6435  1.2533
  989MOL0     H36424  12.195   6.990   3.359 -0.3269 -1.0571 -0.1380
  989MOL0     H36425  12.226   7.236   3.175 -0.2335 -0.7404 -1.4800
  989MOL0     H36426  12.236   7.234   3.342 -2.6380 -1.8651  0.7887
  989MOL0     H36427  12.424   7.057   3.183 -0.2586  0.7340 -1.1871
  989MOL0     H36428  12.441   7.090   3.349  0.1235 -0.6345 -0.1452
  989MOL0     H36429  12.474   7.303   3.128  2.5481  2.7273  1.3892
  989MOL0     H36430  12.506   7.325   3.291  1.6603  1.3229 -0.9816
  989MOL0     H36431  12.700   7.221   3.000 -0.5369  2.2312  1.2586
  989MOL0     H36432  12.993   7.191   3.010  0.6764 -0.9838 -3.7955
  989MOL0     H36433  12.912   7.039   2.961 -1.2932  0.2347  1.1548
  989MOL0     H36434  13.086   7.046   3.203 -0.2808 -2.7999  1.4211
  989MOL0     H36435  12.998   6.907   3.144  1.8747 -0.7059  0.6213
  989MOL0     H36436  13.143   6.896   2.943  0.9643 -0.6213 -0.2661
  989MOL0     H36437  13.203   7.062   2.967 -0.4510  2.1372  2.0666
  989MOL0     H36438  13.381   6.929   3.027 -0.5374 -1.7294 -1.4569
  989MOL0     H36439  13.320   6.995   3.180 -1.1940 -0.3170  1.4024
  989MOL0     H36440  13.451   6.867   3.341 -0.0699 -1.0732  1.4623
  989MOL0     H36441  13.728   6.705   3.451 -3.6514 -0.9891 -1.6678
  989MOL0     H36442  13.670   6.873   3.442  0.0716  0.4283 -0.0142
  989MOL0     H36443  13.792   6.814   3.330 -1.0658  0.7959 -3.1437
  989MOL0     H36444  13.878   6.285   2.963 -2.7178  1.2708  3.1046
  989MOL0     H36445  14.105   6.176   2.924  1.7922  1.3673 -1.9852
  989MOL0     H36446  14.508   6.286   2.927 -0.0135  1.0973 -1.6949
  989MOL0     H36447  14.449   6.433   2.990 -1.6944  0.1954  1.2266
  989MOL0     H36448  14.441   6.325   3.216  0.5012 -1.1710  0.8320
  989MOL0     H36449  14.522   6.182   3.134  2.5566  0.3778  0.8929
  989MOL0     H36450  14.606   6.455   3.208  0.1275  0.5097  0.3449
  989MOL0     H36451  14.671   6.413   3.051  1.1344 -0.5516  0.0903
  989MOL0     H36452  14.839   6.351   3.213 -1.3342  0.0134 -0.1095
  989MOL0     H36453  14.764   6.194   3.176 -1.4768  0.0417 -1.4761
  989MOL0     H36454  14.720   6.370   3.413  0.5125  1.7527 -1.8174
  989MOL0     H36455  14.627   6.225   3.379  0.3514  1.0002  0.2234
  989MOL0     H36456  14.931   6.195   3.369 -0.4274 -0.8148  0.5634
  989MOL0     H36457  14.808   6.079   3.436  0.0132 -0.4824  2.9400
  989MOL0     H36458  14.776   6.241   3.623 -0.5777 -3.3843  2.0147
  989MOL0     H36459  14.928   6.309   3.563 -0.7768 -0.1253 -2.0037
  989MOL0     H36460  15.000   6.173   3.736  5.1735  0.9571 -2.5563
  989MOL0     H36461  15.040   6.088   3.590  0.9736  2.7799  0.9554
  989MOL0     H36462  14.284   6.496   3.131 -0.6847  1.6332 -0.6044
  989MOL0     H36463  14.065   6.609   3.171 -0.4119  1.0212 -1.6961
  989MOL0     H36464  13.592   6.508   3.027 -1.2017  1.0558 -1.2070
  989MOL0     H36465  13.363   6.610   3.007 -0.4806  0.7074 -0.5587
  989MOL0     H36466  11.521   6.653   3.343 -0.8533  0.5113  0.3508
  989MOL0     H36467  11.345   6.497   3.244 -2.2947  4.0939  1.9984
  989MOL0     H36468  10.967   6.270   3.146 -2.0013 -0.1799 -0.5093
  989MOL0     H36469  10.825   6.097   3.025 -0.0190 -3.4252 -0.8945
  989MOL0     H36470  10.955   5.947   2.627 -0.2936 -1.3797 -1.2254
  989MOL0     H36471  11.027   5.851   2.751  0.1591 -1.1939 -3.3114
  989MOL0     H36472  10.872   5.707   2.781  5.1832  1.9332  0.2651
  989MOL0     H36473  10.859   5.734   2.609 -0.6320 -0.8539 -0.0462
  989MOL0     H36474  10.659   5.818   2.828 -1.6277  0.4792 -1.1158
  989MOL0     H36475  10.657   5.896   2.666  1.5951 -0.5207 -3.1685
  989MOL0     H36476  10.634   5.588   2.697 -0.0096  0.0165  1.2278
  989MOL0     H36477  10.629   5.677   2.548 -0.6242  1.0404 -0.5055
  989MOL0     H36478  10.250   5.772   2.696 -0.0274  1.3821  0.9689
  989MOL0     H36479  11.119   6.075   2.719 -0.2011 -2.0638  0.7010
  989MOL0     H36480  11.281   6.335   2.743  1.5528  1.5258  2.3453
  989MOL0     H36481  11.370   6.248   2.872 -1.8554 -1.9441  3.2482
  989MOL0     H36482  11.320   6.159   2.725 -5.0845 -0.7655 -0.2145
  990MOL0     O36483  11.233   1.447   6.358 -0.4256  0.2794 -0.1818
  990MOL0     C36484  11.159   1.383   6.287  0.7806 -0.1693 -1.3660
  990MOL0     O36485  11.150   1.381   6.151  0.0303 -0.3963  0.5590
  990MOL0     C36486  11.230   1.444   6.064 -0.6104 -0.9435 -0.0647
  990MOL0     C36487  11.335   1.534   6.092  0.0519  0.9848 -0.2629
  990MOL0     C36488  11.424   1.577   5.990 -0.5120  0.2274 -0.1986
  990MOL0     C36489  11.396   1.530   5.856  0.3335  0.3472  0.0929
  990MOL0     O36490  11.473   1.564   5.746 -0.4455  0.4842 -0.1834
  990MOL0     C36491  11.588   1.485   5.738 -0.5997  0.5691  0.1334
  990MOL0     C36492  11.662   1.507   5.609 -0.3261  0.0610  0.6388
  990MOL0     C36493  11.745   1.639   5.623 -0.7469 -0.4930 -0.6590
  990MOL0     C36494  11.822   1.680   5.502  0.7202  0.0440 -0.0136
  990MOL0     C36495  11.878   1.821   5.526  0.2707 -0.3478 -0.4310
  990MOL0     C36496  11.965   1.868   5.407  0.2643  0.2374  1.2482
  990MOL0     C36497  11.886   1.917   5.288  0.0504 -0.7629 -0.0845
  990MOL0     C36498  11.982   1.960   5.178  0.5378  0.2518  0.0331
  990MOL0     N36499  11.905   2.012   5.059  0.0747  0.0208  0.6700
  990MOL0     C36500  11.934   2.123   4.984  0.7898 -1.5228 -0.0168
  990MOL0     C36501  11.823   2.147   4.907  0.7336  0.9229  0.3333
  990MOL0     C36502  11.802   2.264   4.810  0.1561 -0.5034 -0.1061
  990MOL0     C36503  11.919   2.308   4.728  0.6341 -0.2120  0.3101
  990MOL0     C36504  11.919   2.457   4.690 -0.2876 -0.3953  0.9636
  990MOL0     C36505  12.037   2.496   4.610 -0.0380 -0.0935 -0.7552
  990MOL0     O36506  12.161   2.461   4.679 -0.1715  0.0179  0.3728
  990MOL0     C36507  12.278   2.489   4.610  0.5560 -0.3717 -0.0823
  990MOL0     C36508  12.393   2.421   4.653  0.2348  0.5395  0.2840
  990MOL0     C36509  12.520   2.427   4.595  0.4940 -0.1022  0.0530
  990MOL0     C36510  12.624   2.343   4.663 -0.1982  0.2763 -0.9943
  990MOL0     C36511  12.541   2.520   4.491 -0.0031  0.2569 -0.1814
  990MOL0     C36512  12.670   2.536   4.418  0.0883  0.6320  0.7775
  990MOL0     O36513  12.671   2.646   4.338  0.1139  0.2205  0.8256
  990MOL0     C36514  12.787   2.669   4.275  0.2811  0.5440  0.0771
  990MOL0     C36515  12.780   2.676   4.135  0.0082  0.6199 -0.3897
  990MOL0     C36516  12.888   2.721   4.063  0.3014 -0.3747 -0.3654
  990MOL0     C36517  13.012   2.753   4.125 -0.0380  0.3394  0.3347
  990MOL0     O36518  13.127   2.787   4.054  0.2148 -0.6296 -0.1018
  990MOL0     C36519  13.118   2.833   3.921  0.2241 -0.4403  0.0605
  990MOL0     C36520  13.254   2.888   3.871  0.4068 -0.8257  0.9923
  990MOL0     C36521  13.327   2.982   3.969  0.1509 -0.5257  0.3243
  990MOL0     C36522  13.452   3.037   3.903 -1.1097  0.1700  0.8955
  990MOL0     C36523  13.538   3.096   4.014 -0.5885  0.1890 -0.4050
  990MOL0     C36524  13.658   3.174   3.957 -0.3618  0.8571  0.0867
  990MOL0     C36525  13.772   3.176   4.061 -0.0888 -0.3984 -0.0026
  990MOL0     C36526  13.870   3.290   4.023  0.9660  0.4783 -0.0069
  990MOL0    Cl36527  13.796   3.453   4.058 -0.0351  0.0293 -0.0617
  990MOL0     C36528  13.016   2.732   4.260  0.7054 -0.5130  0.2576
  990MOL0     C36529  12.912   2.684   4.339  0.2541  0.3540 -0.3052
  990MOL0     O36530  12.755   2.446   4.423  0.6336 -0.4341 -0.1618
  990MOL0     C36531  12.426   2.599   4.449  0.0249 -0.3607 -0.5612
  990MOL0     C36532  12.299   2.581   4.508  0.6705 -0.1126  1.1148
  990MOL0     N36533  11.727   2.049   4.931 -1.0264 -0.7711 -0.5724
  990MOL0     N36534  11.781   1.963   5.015  0.8069  0.5133 -0.3578
  990MOL0     C36535  11.282   1.458   5.831 -0.3935 -0.1302  0.1631
  990MOL0     C36536  11.206   1.411   5.935  0.3816  0.3513  0.5215
  990MOL0     C36537  11.057   1.297   6.354 -0.0530 -0.0887 -0.6245
  990MOL0     C36538  10.996   1.200   6.269 -0.3806 -0.0686 -0.6160
  990MOL0     C36539  10.901   1.112   6.316  0.5004  0.0104 -0.2791
  990MOL0     C36540  10.861   1.116   6.451  1.2782 -0.8786  0.5721
  990MOL0     O36541  10.751   1.055   6.500  0.1127 -0.2050 -0.0932
  990MOL0     C36542  10.690   0.951   6.423 -0.6643 -0.3722 -0.9590
  990MOL0     C36543  10.580   0.884   6.505 -0.4561 -0.2055  0.0262
  990MOL0     C36544  10.531   0.755   6.437 -0.3636 -0.5381  0.1968
  990MOL0     C36545  10.380   0.723   6.453 -0.5448  0.8369 -0.5115
  990MOL0     C36546  10.294   0.774   6.351 -0.4277 -0.4715  0.7824
  990MOL0     C36547  10.236   0.807   6.250  0.3356  1.2143  0.1272
  990MOL0     C36548  10.911   1.215   6.538  0.3257 -0.2497 -0.5566
  990MOL0     C36549  11.012   1.308   6.491  0.8209  0.3957  0.2101
  990MOL0     C36550  11.064   1.404   6.596 -0.1831 -0.4573 -0.3176
  990MOL0     H36551  11.356   1.563   6.194 -0.5610  0.1809  0.1030
  990MOL0     H36552  11.518   1.630   6.004  0.6360 -1.2558 -1.7706
  990MOL0     H36553  11.563   1.379   5.730 -0.0131  0.3581  1.0138
  990MOL0     H36554  11.656   1.507   5.821 -0.8897  2.7259 -0.1318
  990MOL0     H36555  11.729   1.423   5.593 -2.1530 -1.3772  0.2207
  990MOL0     H36556  11.594   1.521   5.524 -0.4052  0.5201  0.7738
  990MOL0     H36557  11.674   1.718   5.649  1.9769  1.5075  1.3204
  990MOL0     H36558  11.820   1.634   5.703 -1.2272 -0.1270 -0.1775
  990MOL0     H36559  11.904   1.611   5.481  2.3341  2.4801 -2.4760
  990MOL0     H36560  11.760   1.683   5.411 -1.3018  4.0250  1.2332
  990MOL0     H36561  11.937   1.816   5.618 -0.0576 -2.5231 -0.2829
  990MOL0     H36562  11.795   1.891   5.542  1.3845  0.9977 -0.2780
  990MOL0     H36563  12.031   1.950   5.437 -0.4481  1.4083 -0.2947
  990MOL0     H36564  12.032   1.786   5.376 -0.6037 -0.8671  2.2180
  990MOL0     H36565  11.824   2.004   5.311  1.4345  0.3494 -0.4566
  990MOL0     H36566  11.825   1.836   5.247 -2.1149 -0.0772  1.5776
  990MOL0     H36567  12.039   2.043   5.219  0.4549  0.1329  0.3954
  990MOL0     H36568  12.052   1.885   5.140 -0.5218 -0.8043  0.0949
  990MOL0     H36569  12.024   2.183   4.982 -0.1872 -0.0255 -0.5348
  990MOL0     H36570  11.769   2.353   4.865 -2.3929  0.7453 -3.2504
  990MOL0     H36571  11.716   2.231   4.750  0.8051 -0.6296 -0.9941
  990MOL0     H36572  12.008   2.301   4.791  1.5151 -1.2486 -1.0246
  990MOL0     H36573  11.939   2.247   4.640  1.0141 -1.7112  1.3855
  990MOL0     H36574  11.823   2.478   4.641 -2.3315  1.7139  5.3008
  990MOL0     H36575  11.904   2.522   4.777 -3.2096  1.5436 -0.8277
  990MOL0     H36576  12.025   2.433   4.521 -2.1664 -0.7534 -0.0640
  990MOL0     H36577  12.025   2.602   4.588  0.2227  0.2653  0.7122
  990MOL0     H36578  12.388   2.360   4.743  0.9655 -0.0614 -0.0726
  990MOL0     H36579  12.727   2.381   4.661  0.9378 -1.6260  4.2426
  990MOL0     H36580  12.628   2.243   4.620  0.1369  0.1490 -0.6685
  990MOL0     H36581  12.610   2.325   4.770  2.9868  0.0900 -0.5029
  990MOL0     H36582  12.683   2.663   4.088 -0.3926  0.5949  0.4279
  990MOL0     H36583  12.875   2.728   3.956 -1.6968 -2.0707 -0.3021
  990MOL0     H36584  13.083   2.755   3.854 -1.1195  1.2073 -1.2238
  990MOL0     H36585  13.037   2.906   3.915 -1.3190 -2.1696 -1.4077
  990MOL0     H36586  13.312   2.797   3.854 -0.1276 -0.9954 -0.0042
  990MOL0     H36587  13.233   2.933   3.774 -1.5665  1.1640  2.2570
  990MOL0     H36588  13.358   2.922   4.055 -0.3728 -3.3688 -1.3599
  990MOL0     H36589  13.260   3.063   3.998 -0.2211 -0.9781  0.7488
  990MOL0     H36590  13.424   3.096   3.815  3.4808 -2.6874 -3.0415
  990MOL0     H36591  13.503   2.951   3.857 -0.6882  0.4823  0.7715
  990MOL0     H36592  13.476   3.159   4.079 -0.2907 -1.2441  1.3353
  990MOL0     H36593  13.575   3.013   4.075 -0.3632 -0.1484 -0.9881
  990MOL0     H36594  13.635   3.279   3.935  1.3715  1.9779  3.0616
  990MOL0     H36595  13.699   3.124   3.869 -0.2262 -0.0763  0.6589
  990MOL0     H36596  13.816   3.076   4.066 -1.8170 -1.1793  0.3200
  990MOL0     H36597  13.731   3.193   4.161 -0.3968 -2.3063  0.2482
  990MOL0     H36598  13.889   3.286   3.915  1.3106 -0.8228  0.0924
  990MOL0     H36599  13.963   3.280   4.081  0.3009  0.5702  1.1029
  990MOL0     H36600  13.115   2.760   4.295 -0.0157  1.5309  0.7897
  990MOL0     H36601  12.921   2.667   4.446 -3.7303 -0.7857  0.0245
  990MOL0     H36602  12.435   2.662   4.361 -1.3892  3.1044  1.5575
  990MOL0     H36603  12.215   2.637   4.469  0.1543 -0.3893  1.8104
  990MOL0     H36604  11.247   1.433   5.731  0.3155  0.8484 -0.3378
  990MOL0     H36605  11.137   1.329   5.917  0.3628 -1.0093  5.4203
  990MOL0     H36606  11.035   1.190   6.169  1.8410  0.0759  0.1828
  990MOL0     H36607  10.876   1.036   6.243  1.4086 -1.3812  0.8230
  990MOL0     H36608  10.646   0.990   6.330 -0.2302 -3.5077 -2.6332
  990MOL0     H36609  10.764   0.874   6.398 -0.1957 -0.9502  1.9384
  990MOL0     H36610  10.499   0.956   6.519 -3.8530 -3.6852 -0.0445
  990MOL0     H36611  10.614   0.869   6.607 -1.2539 -1.5947  0.1161
  990MOL0     H36612  10.561   0.765   6.332 -0.2945  2.3890  0.4024
  990MOL0     H36613  10.578   0.665   6.478  0.8767 -1.0347 -2.1146
  990MOL0     H36614  10.355   0.775   6.546  2.8665 -0.1649  1.1534
  990MOL0     H36615  10.360   0.617   6.467 -2.1594  1.1821 -0.1037
  990MOL0     H36616  10.180   0.830   6.161 -1.2703  1.8820  1.2581
  990MOL0     H36617  10.879   1.214   6.641  0.1958 -0.8262 -0.6036
  990MOL0     H36618  10.989   1.416   6.675 -2.1917 -2.6429 -1.7537
  990MOL0     H36619  11.155   1.366   6.643 -0.1251  0.6467  0.4900
  990MOL0     H36620  11.078   1.503   6.553  2.7511 -0.2286  0.9676
  991MOL0     O36621  10.899   6.845  11.353  0.9106 -0.2490  0.4417
  991MOL0     C36622  10.898   6.789  11.460 -0.3306  0.2791  0.2237
  991MOL0     O36623  10.996   6.802  11.556  0.4812  0.4676  0.3147
  991MOL0     C36624  11.123   6.845  11.527 -0.4877 -0.3044  0.5990
  991MOL0     C36625  11.199   6.883  11.637  0.3580 -0.1131 -0.0961
  991MOL0     C36626  11.329   6.928  11.613 -0.6282 -0.5313 -0.0329
  991MOL0     C36627  11.393   6.923  11.491 -0.7324 -0.4480 -0.0246
  991MOL0     O36628  11.518   6.976  11.475 -0.4199  0.1454 -0.4003
  991MOL0     C36629  11.558   7.007  11.343 -0.8205 -0.8149 -0.1472
  991MOL0     C36630  11.684   7.092  11.358  0.0551  0.3887 -0.7395
  991MOL0     C36631  11.808   7.011  11.342  0.9314 -0.4088 -0.1882
  991MOL0     C36632  11.921   7.106  11.372 -0.2547  0.0198  0.1157
  991MOL0     C36633  12.053   7.032  11.331 -0.3507 -0.1140  0.0354
  991MOL0     C36634  12.163   7.140  11.298  0.0269  0.4074 -0.5291
  991MOL0     C36635  12.200   7.222  11.420  0.8704 -1.1228  0.0993
  991MOL0     C36636  12.282   7.137  11.512  0.0848 -1.2581 -0.3655
  991MOL0     N36637  12.424   7.171  11.493 -0.0241  0.5273 -0.7544
  991MOL0     C36638  12.508   7.128  11.390  0.2279 -0.5207  0.3520
  991MOL0     C36639  12.631   7.177  11.427 -0.5072  0.4809 -0.3535
  991MOL0     C36640  12.745   7.167  11.332  0.2471 -0.0313  0.0770
  991MOL0     C36641  12.751   7.291  11.230 -0.3052 -0.9542 -0.7450
  991MOL0     C36642  12.739   7.428  11.300  0.5528 -0.4239 -0.5392
  991MOL0     C36643  12.833   7.471  11.410 -0.0390  0.0784  0.4397
  991MOL0     O36644  12.968   7.453  11.378  0.1147  1.2376 -0.6350
  991MOL0     C36645  13.063   7.519  11.456  0.7332  0.2777  0.3252
  991MOL0     C36646  13.048   7.540  11.591  0.5537  0.1730 -0.3607
  991MOL0     C36647  13.144   7.600  11.668  0.1517  0.3070  0.5877
  991MOL0     C36648  13.111   7.620  11.813  0.4794 -0.5291 -0.6011
  991MOL0     C36649  13.277   7.628  11.613 -0.0961 -0.0570  1.1666
  991MOL0     C36650  13.408   7.653  11.681  0.9174 -0.1908  0.0303
  991MOL0     O36651  13.524   7.677  11.607  0.1568 -0.0414 -0.3314
  991MOL0     C36652  13.639   7.715  11.676 -1.2274  0.3658  0.9195
  991MOL0     C36653  13.716   7.622  11.751 -0.3602 -0.3785 -0.2240
  991MOL0     C36654  13.842   7.661  11.801  0.2485 -0.5745  0.6380
  991MOL0     C36655  13.900   7.782  11.769  0.4894  0.4980  0.2389
  991MOL0     O36656  14.030   7.776  11.795  0.2851 -0.5480  0.0024
  991MOL0     C36657  14.111   7.892  11.783 -1.0052 -1.2637 -0.4133
  991MOL0     C36658  14.205   7.898  11.654  0.3117  0.3471 -0.0932
  991MOL0     C36659  14.283   8.024  11.646 -0.0469  0.1566 -0.1431
  991MOL0     C36660  14.354   8.043  11.514  0.3987  0.1145  0.4227
  991MOL0     C36661  14.454   8.149  11.543  0.1110 -0.1931  0.4466
  991MOL0     C36662  14.507   8.191  11.404  0.1013  0.9253 -0.0345
  991MOL0     C36663  14.611   8.297  11.427  0.2555 -0.2819  0.2443
  991MOL0     C36664  14.673   8.358  11.297 -0.1402 -0.4125 -1.1166
  991MOL0    Cl36665  14.794   8.464  11.362  0.2700 -0.1022  0.2226
  991MOL0     C36666  13.831   7.871  11.685 -1.2566  0.9351 -0.6753
  991MOL0     C36667  13.698   7.845  11.654  0.5353 -0.5772  0.0775
  991MOL0     O36668  13.405   7.636  11.802  0.6387  0.7442  0.2224
  991MOL0     C36669  13.286   7.615  11.479 -0.6187  0.8936 -0.0092
  991MOL0     C36670  13.183   7.557  11.401 -0.0053 -0.2449 -1.3989
  991MOL0     N36671  12.618   7.242  11.549  0.1230 -0.1928  0.7524
  991MOL0     N36672  12.492   7.246  11.584 -0.4183 -0.3799  0.7112
  991MOL0     C36673  11.314   6.880  11.383  0.8578  1.0581 -0.0977
  991MOL0     C36674  11.182   6.837  11.399 -0.3117 -0.4830  1.1035
  991MOL0     C36675  10.787   6.692  11.493  0.3115  0.6759 -0.0511
  991MOL0     C36676  10.761   6.673  11.629 -0.3033 -0.0074 -0.7991
  991MOL0     C36677  10.667   6.582  11.677  0.0463  0.6573  0.4517
  991MOL0     C36678  10.591   6.512  11.585 -0.1059 -0.3652 -0.1974
  991MOL0     O36679  10.502   6.417  11.625 -0.2793  0.6118 -0.1443
  991MOL0     C36680  10.395   6.462  11.711 -0.1426 -0.1416  0.2381
  991MOL0     C36681  10.328   6.349  11.783 -0.5002 -1.1135 -0.8652
  991MOL0     C36682  10.179   6.380  11.813  0.3740  0.0926  0.6102
  991MOL0     C36683  10.090   6.259  11.853 -0.1989  0.5814 -0.7451
  991MOL0     C36684   9.951   6.292  11.861 -0.6236 -0.3499 -0.0241
  991MOL0     C36685   9.840   6.333  11.858 -0.1767 -0.3349  0.7382
  991MOL0     C36686  10.621   6.527  11.447 -0.1733 -0.3748  0.6065
  991MOL0     C36687  10.722   6.614  11.398 -0.0495  0.2139  0.1010
  991MOL0     C36688  10.748   6.615  11.251 -0.4921 -0.8414  0.0114
  991MOL0     H36689  11.149   6.883  11.733  1.6891 -1.1160  0.6308
  991MOL0     H36690  11.390   6.953  11.699  0.3340 -2.3677 -0.1324
  991MOL0     H36691  11.476   7.072  11.311 -2.9556 -3.0233  0.5302
  991MOL0     H36692  11.588   6.922  11.281  0.9049 -0.9249  0.7772
  991MOL0     H36693  11.688   7.160  11.273  2.3486 -1.2377 -2.0399
  991MOL0     H36694  11.681   7.144  11.454  0.1467  0.0909 -0.5750
  991MOL0     H36695  11.812   6.934  11.419  0.3230  3.5592  4.3176
  991MOL0     H36696  11.817   6.977  11.239 -4.0271  0.9210 -1.3232
  991MOL0     H36697  11.905   7.196  11.313 -2.0491 -0.4936 -0.2429
  991MOL0     H36698  11.911   7.140  11.475 -0.0095  0.7349 -0.0884
  991MOL0     H36699  12.049   6.983  11.234  2.4707 -2.0549  0.7613
  991MOL0     H36700  12.080   6.954  11.403 -3.6018 -1.7808 -0.3384
  991MOL0     H36701  12.256   7.094  11.264 -0.4954  1.3886 -3.5368
  991MOL0     H36702  12.122   7.206  11.222 -1.0132 -0.0682 -0.4006
  991MOL0     H36703  12.115   7.274  11.465  2.3273  3.7059 -2.0172
  991MOL0     H36704  12.261   7.304  11.380 -0.5819 -0.1349 -0.1631
  991MOL0     H36705  12.257   7.145  11.618  0.1940 -0.4488 -0.3958
  991MOL0     H36706  12.276   7.032  11.481  2.1894 -1.2650 -0.9003
  991MOL0     H36707  12.476   7.091  11.293  0.8700 -0.4891  0.1249
  991MOL0     H36708  12.730   7.080  11.266 -1.6565  0.6395 -0.4358
  991MOL0     H36709  12.835   7.148  11.391 -0.1054 -1.2903  0.2501
  991MOL0     H36710  12.847   7.292  11.177 -0.1498  3.7963 -0.7569
  991MOL0     H36711  12.669   7.269  11.161  0.3827 -3.4976 -0.8723
  991MOL0     H36712  12.749   7.504  11.223 -1.7429  1.6139  1.0245
  991MOL0     H36713  12.636   7.442  11.334  0.9004 -2.0468  1.3581
  991MOL0     H36714  12.815   7.572  11.447 -3.2540 -0.9189  1.9399
  991MOL0     H36715  12.808   7.402  11.491 -2.1086  1.2400  0.8902
  991MOL0     H36716  12.954   7.520  11.640  1.0371  1.0810  1.0113
  991MOL0     H36717  13.023   7.568  11.849  1.3792 -0.3533  2.0528
  991MOL0     H36718  13.087   7.726  11.828 -1.4278 -1.0773  0.4286
  991MOL0     H36719  13.187   7.585  11.884 -0.4843  1.5333  1.5607
  991MOL0     H36720  13.668   7.526  11.765 -1.1414  0.2587  1.7269
  991MOL0     H36721  13.905   7.588  11.851 -1.8832 -3.0903 -0.1196
  991MOL0     H36722  14.043   7.978  11.786  0.1115 -0.3701  0.2397
  991MOL0     H36723  14.173   7.891  11.874 -0.6085  3.5276 -0.3800
  991MOL0     H36724  14.274   7.814  11.663  0.4221  0.5973  1.9105
  991MOL0     H36725  14.140   7.880  11.568 -1.8687 -1.7315  1.8783
  991MOL0     H36726  14.364   8.010  11.719 -0.0925 -2.8245 -0.5261
  991MOL0     H36727  14.221   8.112  11.663 -2.4647 -1.3491 -0.6014
  991MOL0     H36728  14.288   8.081  11.436 -0.5893  1.6246  1.9190
  991MOL0     H36729  14.402   7.951  11.480  0.1849 -0.2983  1.2177
  991MOL0     H36730  14.405   8.232  11.595  0.6050  0.1027  0.4474
  991MOL0     H36731  14.534   8.116  11.610  0.0553 -3.6162 -0.9723
  991MOL0     H36732  14.424   8.237  11.349  0.2775  0.9739 -0.2550
  991MOL0     H36733  14.562   8.107  11.361  1.5945  0.7324  2.0877
  991MOL0     H36734  14.695   8.261  11.488  2.3544  1.7359 -1.2649
  991MOL0     H36735  14.557   8.379  11.475 -0.1382  0.5983 -1.5996
  991MOL0     H36736  14.598   8.409  11.235 -1.3058 -2.3146 -1.3763
  991MOL0     H36737  14.715   8.275  11.239  1.3396  0.1131 -0.8403
  991MOL0     H36738  13.878   7.957  11.639  0.7040  1.6088  2.3256
  991MOL0     H36739  13.648   7.916  11.588  0.9889  0.0458  0.3947
  991MOL0     H36740  13.380   7.634  11.429 -1.2167 -0.4959 -1.7800
  991MOL0     H36741  13.200   7.522  11.299  0.6168 -4.4045 -0.0340
  991MOL0     H36742  11.363   6.865  11.288 -0.0955  1.2125 -0.6304
  991MOL0     H36743  11.131   6.811  11.307  1.3324  0.5158 -0.1498
  991MOL0     H36744  10.811   6.722  11.712  1.1359  0.4782 -1.9041
  991MOL0     H36745  10.658   6.555  11.782 -1.4023  1.9815  0.7059
  991MOL0     H36746  10.436   6.534  11.783  4.1745 -2.0782  0.0823
  991MOL0     H36747  10.328   6.520  11.648 -0.4202  0.2511  0.8773
  991MOL0     H36748  10.381   6.329  11.877 -4.2111 -2.8350  1.0645
  991MOL0     H36749  10.343   6.258  11.723  1.5020  0.0339 -2.2294
  991MOL0     H36750  10.175   6.461  11.886  2.4359  0.6749  0.1582
  991MOL0     H36751  10.146   6.419  11.716 -0.3132  0.5851  1.0381
  991MOL0     H36752  10.140   6.216  11.940  2.2678  0.5403 -2.0609
  991MOL0     H36753  10.102   6.182  11.776  1.0117 -0.4441  0.4186
  991MOL0     H36754   9.756   6.400  11.849  0.4537  0.3481 -0.2099
  991MOL0     H36755  10.553   6.482  11.376 -0.7983  0.3998  0.6917
  991MOL0     H36756  10.697   6.534  11.198 -0.5456  0.7402 -2.5258
  991MOL0     H36757  10.723   6.714  11.212 -1.2052 -0.0207  2.4055
  991MOL0     H36758  10.854   6.598  11.229 -0.0352 -1.7172  2.5703
  992MOL0     O36759   9.972   4.546   3.273 -0.3219  0.6217 -0.0409
  992MOL0     C36760   9.894   4.481   3.212  0.7325 -0.3037 -0.4415
  992MOL0     O36761   9.931   4.411   3.109  0.5153  0.1978 -0.0252
  992MOL0     C36762  10.062   4.385   3.070  0.4116 -0.5802  0.3252
  992MOL0     C36763  10.187   4.422   3.131  0.5215  0.0728 -0.6504
  992MOL0     C36764  10.306   4.383   3.069 -0.2596  0.1005 -0.3004
  992MOL0     C36765  10.309   4.310   2.948  0.1000  0.5917  0.0333
  992MOL0     O36766  10.438   4.288   2.893  0.8146  0.7063 -0.6310
  992MOL0     C36767  10.451   4.182   2.795  0.5627  0.0876 -0.4773
  992MOL0     C36768  10.417   4.222   2.655  0.0843  0.2507  0.4568
  992MOL0     C36769  10.455   4.362   2.629 -0.0344 -0.1579 -0.1587
  992MOL0     C36770  10.470   4.401   2.480 -0.6913 -0.2829  0.0839
  992MOL0     C36771  10.342   4.435   2.422  0.1461 -0.7223  0.8290
  992MOL0     C36772  10.372   4.486   2.275  0.3430  0.3476 -0.0543
  992MOL0     C36773  10.258   4.582   2.230 -0.4837 -0.2240  0.3591
  992MOL0     C36774  10.246   4.613   2.085 -0.0261 -0.4198  0.0269
  992MOL0     N36775  10.374   4.672   2.035  0.2132  0.2451 -0.0793
  992MOL0     C36776  10.494   4.611   2.006 -0.2045  0.6858  0.5922
  992MOL0     C36777  10.581   4.712   2.002  0.0654  0.8990  0.7889
  992MOL0     C36778  10.724   4.712   1.973 -0.2651  0.2656 -0.3310
  992MOL0     C36779  10.782   4.601   1.886 -0.2182  0.1268 -0.3413
  992MOL0     C36780  10.937   4.592   1.873 -0.4307 -0.5342  0.0555
  992MOL0     C36781  10.994   4.725   1.807 -0.4339  0.0696 -0.9574
  992MOL0     O36782  10.926   4.748   1.685 -0.3624 -0.0016 -0.0628
  992MOL0     C36783  10.984   4.701   1.571 -0.4367  0.3547  0.3341
  992MOL0     C36784  10.915   4.699   1.448 -0.6619 -0.1542 -0.0381
  992MOL0     C36785  10.971   4.642   1.330 -1.1517  0.4091 -0.1611
  992MOL0     C36786  10.899   4.655   1.209  0.4229 -0.0895  0.1262
  992MOL0     C36787  11.101   4.587   1.328 -0.7682  0.4053 -0.2771
  992MOL0     C36788  11.184   4.549   1.208  0.3131 -0.7880  0.1683
  992MOL0     O36789  11.301   4.477   1.226  0.3909 -0.0870 -0.3972
  992MOL0     C36790  11.420   4.478   1.151 -0.2811  0.4529  0.1239
  992MOL0     C36791  11.536   4.430   1.229  1.0359  0.2476  1.0404
  992MOL0     C36792  11.657   4.433   1.161 -0.1707  0.3060 -0.7274
  992MOL0     C36793  11.670   4.475   1.030 -0.1942 -0.5174 -0.5763
  992MOL0     O36794  11.801   4.487   0.988  0.6877  0.1626  0.0153
  992MOL0     C36795  11.821   4.414   0.867  0.0222  0.2544 -0.0102
  992MOL0     C36796  11.947   4.477   0.802  0.4653 -0.0893  0.6547
  992MOL0     C36797  12.001   4.400   0.686 -0.7389 -0.1046  1.1679
  992MOL0     C36798  12.130   4.464   0.637  0.6178  1.5757 -0.1280
  992MOL0     C36799  12.171   4.381   0.511 -0.1068 -0.6722  0.0078
  992MOL0     C36800  12.316   4.400   0.471 -0.0227  0.5321 -0.4894
  992MOL0     C36801  12.352   4.548   0.453 -0.5340  0.3457 -0.9411
  992MOL0     C36802  12.285   4.612   0.345  0.9711  0.0363 -0.0486
  992MOL0    Cl36803  12.366   4.764   0.273  0.2568  0.6837  0.3364
  992MOL0     C36804  11.560   4.519   0.963  0.2706 -0.9551 -0.0958
  992MOL0     C36805  11.431   4.523   1.017 -0.7142 -0.7821  0.2381
  992MOL0     O36806  11.146   4.601   1.103 -0.3918 -0.2129  0.4776
  992MOL0     C36807  11.157   4.567   1.456 -0.5190 -0.5500  0.9249
  992MOL0     C36808  11.107   4.630   1.571 -0.3622  0.0519  0.5044
  992MOL0     N36809  10.519   4.835   2.023  0.1443 -0.9725 -0.0825
  992MOL0     N36810  10.396   4.806   2.054  0.0798 -0.1697  0.0644
  992MOL0     C36811  10.190   4.269   2.891  0.4343 -0.0217  0.5431
  992MOL0     C36812  10.071   4.312   2.952 -0.0851 -0.4647 -0.5967
  992MOL0     C36813   9.751   4.476   3.244 -0.8021  0.1084  0.6726
  992MOL0     C36814   9.675   4.372   3.190 -0.2154 -0.5864 -1.0567
  992MOL0     C36815   9.535   4.368   3.215  0.0596  0.3090  0.5158
  992MOL0     C36816   9.468   4.464   3.293 -0.4354  0.3769  0.0533
  992MOL0     O36817   9.339   4.469   3.333 -0.2730 -0.1260 -0.1075
  992MOL0     C36818   9.253   4.363   3.287  0.8255  0.2380  0.2600
  992MOL0     C36819   9.110   4.373   3.332  0.6802 -0.5466  0.0241
  992MOL0     C36820   9.043   4.234   3.306 -0.1001 -0.0307  0.0664
  992MOL0     C36821   8.892   4.258   3.330 -0.3996 -0.5117 -0.1444
  992MOL0     C36822   8.806   4.147   3.307 -0.2662  0.3341 -1.2477
  992MOL0     C36823   8.729   4.051   3.295  0.4794 -0.3909  0.6409
  992MOL0     C36824   9.546   4.559   3.354 -0.4827 -0.0264  0.2406
  992MOL0     C36825   9.684   4.574   3.320 -0.0507 -0.4447  0.7003
  992MOL0     C36826   9.749   4.700   3.358 -0.1124  0.1662 -0.1326
  992MOL0     H36827  10.186   4.481   3.222  0.8925 -2.4425  1.0815
  992MOL0     H36828  10.403   4.424   3.096  0.5770 -1.2626 -1.0685
  992MOL0     H36829  10.397   4.091   2.823  0.9543 -0.7255 -2.2571
  992MOL0     H36830  10.556   4.152   2.796 -0.2016 -2.9358 -0.3988
  992MOL0     H36831  10.472   4.167   2.578  0.2681  1.4716 -0.3135
  992MOL0     H36832  10.313   4.199   2.631  0.1734 -0.5518  0.8064
  992MOL0     H36833  10.388   4.429   2.684  1.4620  0.3080  1.1777
  992MOL0     H36834  10.556   4.373   2.669  0.8692 -1.1820 -2.0395
  992MOL0     H36835  10.526   4.494   2.483 -1.5846  0.3692 -1.9397
  992MOL0     H36836  10.504   4.316   2.421 -5.3059 -2.4424  0.0391
  992MOL0     H36837  10.283   4.512   2.473  0.3026  0.0466 -0.1282
  992MOL0     H36838  10.278   4.347   2.409 -2.6639  1.3695 -0.5649
  992MOL0     H36839  10.470   4.535   2.279  0.0280  1.1223 -1.2325
  992MOL0     H36840  10.385   4.396   2.215 -1.3618 -2.6207  3.5574
  992MOL0     H36841  10.269   4.676   2.284 -0.4209  0.4953 -0.8606
  992MOL0     H36842  10.166   4.532   2.263  0.3801 -2.4368 -0.3482
  992MOL0     H36843  10.225   4.520   2.032  1.2106 -0.9268  0.3874
  992MOL0     H36844  10.164   4.683   2.067  0.4151  0.2057  0.4008
  992MOL0     H36845  10.506   4.504   1.999 -3.2553  0.3191 -0.6493
  992MOL0     H36846  10.768   4.704   2.073 -1.4272  1.4642  0.3054
  992MOL0     H36847  10.761   4.808   1.936 -1.0473  0.6234 -0.2050
  992MOL0     H36848  10.751   4.504   1.925 -0.2029  0.5247  0.6818
  992MOL0     H36849  10.736   4.600   1.787  0.3947 -0.4681 -0.6247
  992MOL0     H36850  10.986   4.583   1.971 -0.8177 -0.2506  0.2803
  992MOL0     H36851  10.967   4.509   1.809 -0.2673 -1.0920  0.8388
  992MOL0     H36852  10.977   4.814   1.868  0.5085 -1.3942  1.6100
  992MOL0     H36853  11.103   4.727   1.795 -0.4379  0.7445 -0.9411
  992MOL0     H36854  10.817   4.744   1.460 -0.3566 -0.1794  3.7658
  992MOL0     H36855  10.903   4.566   1.145  0.4176 -0.9655  1.3184
  992MOL0     H36856  10.912   4.745   1.148 -1.0640  0.2603  0.2729
  992MOL0     H36857  10.796   4.669   1.244  0.5261 -0.0607  0.4160
  992MOL0     H36858  11.520   4.398   1.331 -0.3005 -2.9860 -0.0461
  992MOL0     H36859  11.741   4.393   1.218 -2.9828 -0.1730  3.5053
  992MOL0     H36860  11.846   4.313   0.900  1.5497 -0.0484 -1.9093
  992MOL0     H36861  11.737   4.411   0.796 -1.6849  0.7777  1.8774
  992MOL0     H36862  11.930   4.575   0.758  0.0087 -0.9957 -1.3195
  992MOL0     H36863  12.025   4.478   0.878  2.4228 -5.9714 -0.6914
  992MOL0     H36864  11.927   4.398   0.605  0.4201  1.5708 -0.0063
  992MOL0     H36865  12.018   4.299   0.724 -1.8387 -0.2143  1.4108
  992MOL0     H36866  12.202   4.453   0.719 -3.2175  0.5018  3.3881
  992MOL0     H36867  12.115   4.570   0.614  0.4080  1.3502 -1.0945
  992MOL0     H36868  12.155   4.274   0.528 -2.6920 -0.2136  0.9373
  992MOL0     H36869  12.097   4.398   0.433  0.8120 -3.0541 -1.4702
  992MOL0     H36870  12.325   4.349   0.375 -0.2542  1.1789 -0.8631
  992MOL0     H36871  12.380   4.350   0.544 -2.4204 -0.0532  1.3428
  992MOL0     H36872  12.460   4.551   0.436  0.2262 -4.4681  1.3219
  992MOL0     H36873  12.333   4.601   0.546  1.2011 -4.1384  2.3420
  992MOL0     H36874  12.188   4.640   0.388  1.1670 -1.5632  1.5565
  992MOL0     H36875  12.268   4.543   0.261 -0.3713 -1.9895  1.7755
  992MOL0     H36876  11.561   4.563   0.863  0.6847  0.1565  0.3857
  992MOL0     H36877  11.346   4.551   0.957 -0.8194 -1.9152 -0.1745
  992MOL0     H36878  11.251   4.513   1.467  0.6214  0.6681 -1.9587
  992MOL0     H36879  11.177   4.609   1.651 -0.4933 -1.4330  0.2513
  992MOL0     H36880  10.194   4.213   2.799  2.7134  2.1987 -0.8391
  992MOL0     H36881   9.972   4.281   2.920 -2.0109  3.8456  0.4901
  992MOL0     H36882   9.718   4.293   3.129 -1.2609 -2.9760  1.1300
  992MOL0     H36883   9.476   4.285   3.177 -1.8759 -0.1935  4.2341
  992MOL0     H36884   9.242   4.381   3.179  2.1175  2.7078  0.4763
  992MOL0     H36885   9.287   4.265   3.322 -3.2881 -1.5973 -0.2727
  992MOL0     H36886   9.057   4.443   3.268 -0.9061  0.3832  2.2344
  992MOL0     H36887   9.110   4.395   3.439 -0.9069 -1.8981  0.3359
  992MOL0     H36888   9.059   4.202   3.202 -1.3496  0.0634 -0.1670
  992MOL0     H36889   9.095   4.163   3.371  2.5455  0.9406 -0.8612
  992MOL0     H36890   8.870   4.346   3.269  5.5001  1.9141  0.5780
  992MOL0     H36891   8.878   4.282   3.436  1.5515 -0.2619  0.0913
  992MOL0     H36892   8.655   3.973   3.289  3.3152 -3.1659 -1.3097
  992MOL0     H36893   9.491   4.627   3.418  0.0261  1.1789 -0.5593
  992MOL0     H36894   9.819   4.683   3.440  0.6400 -1.4322 -1.0491
  992MOL0     H36895   9.807   4.747   3.278  0.7036  1.3182  1.0988
  992MOL0     H36896   9.674   4.771   3.394  0.2858  1.3039 -1.4680
  993MOL0     O36897   2.732   3.778   1.661 -0.5817 -0.3232 -0.5718
  993MOL0     C36898   2.846   3.727   1.678  0.6805  0.2612  0.2001
  993MOL0     O36899   2.863   3.620   1.770 -0.2194  0.0649  0.1252
  993MOL0     C36900   2.760   3.546   1.827 -0.5741 -0.1462  0.0743
  993MOL0     C36901   2.758   3.406   1.820 -0.5319 -0.0497 -0.0405
  993MOL0     C36902   2.648   3.328   1.861 -0.0492  0.2920  0.0091
  993MOL0     C36903   2.541   3.392   1.925  1.9703 -0.4276 -0.1527
  993MOL0     O36904   2.441   3.305   1.958  0.0680  0.7033 -0.7032
  993MOL0     C36905   2.320   3.369   2.014  0.0554 -0.0370 -0.0723
  993MOL0     C36906   2.210   3.269   2.035  0.0255 -0.2927  0.2680
  993MOL0     C36907   2.212   3.205   2.168 -1.0589  0.3331  0.5623
  993MOL0     C36908   2.080   3.145   2.205  0.2622  0.2819  1.2673
  993MOL0     C36909   2.023   3.044   2.108  0.0554  0.5130  0.9612
  993MOL0     C36910   1.971   2.922   2.175  0.3387  0.4996 -0.1476
  993MOL0     C36911   1.903   2.808   2.097  0.0816  0.2323  0.5336
  993MOL0     C36912   1.866   2.684   2.182 -0.4334  0.5840  0.1913
  993MOL0     N36913   1.993   2.623   2.192 -0.2424  0.8284  0.5665
  993MOL0     C36914   2.073   2.642   2.300 -0.1188  0.1284  0.7208
  993MOL0     C36915   2.183   2.575   2.260 -0.0780  0.1358  0.7830
  993MOL0     C36916   2.291   2.564   2.355  0.3080  0.1923  0.1536
  993MOL0     C36917   2.344   2.702   2.414 -0.6686 -0.3862  0.2423
  993MOL0     C36918   2.406   2.792   2.310  0.1704 -0.2328  0.8910
  993MOL0     C36919   2.489   2.908   2.355  0.2065 -0.6233 -0.6623
  993MOL0     O36920   2.526   2.989   2.242  0.1347 -0.0406 -0.0372
  993MOL0     C36921   2.642   2.957   2.179  0.6178 -0.1959 -0.5692
  993MOL0     C36922   2.733   2.858   2.208 -0.8736  0.4107 -0.0112
  993MOL0     C36923   2.866   2.839   2.152  0.2330  0.5635  0.1067
  993MOL0     C36924   2.947   2.731   2.216  0.1676 -0.1185  0.7988
  993MOL0     C36925   2.908   2.941   2.061  0.4434  0.1222 -0.1523
  993MOL0     C36926   3.041   2.922   1.989 -0.2165  0.4171 -0.2275
  993MOL0     O36927   3.148   2.875   2.061 -0.2649 -0.2615  0.0005
  993MOL0     C36928   3.268   2.886   1.992  0.2620  0.4418 -0.7310
  993MOL0     C36929   3.353   2.987   2.028 -0.6293  0.5715 -0.5868
  993MOL0     C36930   3.489   2.990   1.983  0.0084  0.5432 -0.2515
  993MOL0     C36931   3.529   2.912   1.874  0.6994  0.4164  0.3029
  993MOL0     O36932   3.657   2.920   1.818  0.3710  1.2950  0.5306
  993MOL0     C36933   3.674   2.869   1.684  0.8906  0.2656  0.3116
  993MOL0     C36934   3.808   2.923   1.635  0.2992  0.2217 -0.0613
  993MOL0     C36935   3.930   2.834   1.688  0.5200  0.1956 -0.0482
  993MOL0     C36936   4.070   2.896   1.664  0.0002  0.6065  0.4407
  993MOL0     C36937   4.111   2.985   1.781  0.1840 -0.2339 -0.1554
  993MOL0     C36938   4.229   3.072   1.753  0.2797  0.7481 -1.1164
  993MOL0     C36939   4.183   3.190   1.674  0.3361  0.0689 -0.1268
  993MOL0     C36940   4.282   3.286   1.627 -0.6746 -0.0829  1.0200
  993MOL0    Cl36941   4.238   3.393   1.493 -0.0240 -0.5761 -0.6859
  993MOL0     C36942   3.439   2.803   1.845 -0.0454 -1.3077 -0.9332
  993MOL0     C36943   3.312   2.788   1.908  0.0215 -0.1252 -0.2711
  993MOL0     O36944   3.046   2.965   1.877  0.5344 -0.0516 -0.6775
  993MOL0     C36945   2.810   3.036   2.020 -0.0098 -0.1879  0.6494
  993MOL0     C36946   2.682   3.045   2.082  0.1333 -0.4152  0.3341
  993MOL0     N36947   2.170   2.513   2.135  0.0955 -0.3980  0.1565
  993MOL0     N36948   2.048   2.542   2.093  0.0194 -0.6053  0.0481
  993MOL0     C36949   2.542   3.536   1.943  0.2128 -0.1756 -0.3748
  993MOL0     C36950   2.649   3.611   1.888 -0.5605 -0.5075 -0.7321
  993MOL0     C36951   2.962   3.791   1.611  0.6822  0.2700 -0.3128
  993MOL0     C36952   2.949   3.923   1.566  0.1141 -0.3212 -1.2896
  993MOL0     C36953   3.051   3.991   1.502 -0.7382 -0.6817  0.1290
  993MOL0     C36954   3.182   3.935   1.499  1.2440  0.0212  0.5715
  993MOL0     O36955   3.290   4.007   1.457 -0.1845 -0.3855  0.2048
  993MOL0     C36956   3.283   4.150   1.476 -0.6648  0.6806  0.2777
  993MOL0     C36957   3.425   4.212   1.442  0.5168  0.5772  1.2046
  993MOL0     C36958   3.526   4.148   1.538 -0.1947  1.0860  0.7246
  993MOL0     C36959   3.660   4.213   1.521  0.1291  1.4302  0.3326
  993MOL0     C36960   3.660   4.346   1.588  0.5641 -0.6389  0.9274
  993MOL0     C36961   3.645   4.462   1.624 -0.2757 -0.7989  0.0325
  993MOL0     C36962   3.198   3.801   1.532 -1.4072 -0.2456  0.3652
  993MOL0     C36963   3.085   3.726   1.585 -0.2926  0.0076  0.4213
  993MOL0     C36964   3.095   3.578   1.600  0.9366 -0.0431 -0.2460
  993MOL0     H36965   2.839   3.359   1.765 -0.1195 -0.1333  0.6289
  993MOL0     H36966   2.652   3.220   1.851  1.9660  0.2885  0.3957
  993MOL0     H36967   2.283   3.453   1.954 -0.8771  0.0639  0.6243
  993MOL0     H36968   2.352   3.412   2.109  2.1554 -0.3313 -0.6059
  993MOL0     H36969   2.116   3.325   2.028 -0.1817 -0.7758 -1.2893
  993MOL0     H36970   2.198   3.190   1.960  1.0755 -0.5438  0.3431
  993MOL0     H36971   2.293   3.132   2.174  0.5745  1.9223 -0.7078
  993MOL0     H36972   2.225   3.277   2.249 -1.7829  0.9800  0.1174
  993MOL0     H36973   2.095   3.096   2.301  0.1946  0.6848  1.4850
  993MOL0     H36974   2.005   3.223   2.217  0.9697  0.9843  1.2454
  993MOL0     H36975   2.107   3.001   2.053  0.6692  1.1280  1.4013
  993MOL0     H36976   1.941   3.080   2.045 -1.2111 -0.0837  2.2204
  993MOL0     H36977   2.057   2.882   2.229  2.1661  4.6432  0.4018
  993MOL0     H36978   1.909   2.958   2.258  2.0935 -0.9361  1.9061
  993MOL0     H36979   1.955   2.771   2.008 -2.5781 -2.4965 -0.0408
  993MOL0     H36980   1.807   2.846   2.060  0.2758 -1.9458 -2.5290
  993MOL0     H36981   1.830   2.708   2.282  1.2182  1.8688  0.5161
  993MOL0     H36982   1.795   2.620   2.129 -0.4270  0.7556 -0.0293
  993MOL0     H36983   2.054   2.686   2.397  1.8827  0.4577  1.0159
  993MOL0     H36984   2.379   2.512   2.316 -0.0265  0.1875 -0.6168
  993MOL0     H36985   2.263   2.506   2.443 -0.1323  0.1961  0.0182
  993MOL0     H36986   2.265   2.749   2.473 -0.7945 -1.1750  0.7179
  993MOL0     H36987   2.423   2.665   2.481 -1.0482 -2.2643 -0.3006
  993MOL0     H36988   2.482   2.738   2.253  2.1461  2.8462  0.4025
  993MOL0     H36989   2.326   2.833   2.247  0.9117  0.1380  0.1681
  993MOL0     H36990   2.433   2.967   2.428 -2.6539 -2.9641 -0.7716
  993MOL0     H36991   2.575   2.869   2.410 -0.6496 -1.2494  0.2577
  993MOL0     H36992   2.705   2.787   2.285  2.4978 -1.9387 -0.7646
  993MOL0     H36993   2.884   2.660   2.271  2.0998 -3.3810 -0.8604
  993MOL0     H36994   3.016   2.769   2.292  0.0961  0.9877  0.3197
  993MOL0     H36995   3.007   2.672   2.146  2.1085  1.0236  1.4286
  993MOL0     H36996   3.330   3.052   2.112  0.0990 -0.3461  0.3514
  993MOL0     H36997   3.566   3.060   2.016 -0.1652  2.4867 -3.5128
  993MOL0     H36998   3.679   2.760   1.681 -3.7376 -0.1163 -0.9402
  993MOL0     H36999   3.597   2.904   1.616  0.5589  0.9679  1.0392
  993MOL0     H37000   3.803   2.936   1.527 -2.2172  1.4414  0.1107
  993MOL0     H37001   3.820   3.029   1.660 -0.9939  0.0633  1.4002
  993MOL0     H37002   3.926   2.742   1.629 -0.2262 -0.1070  0.4674
  993MOL0     H37003   3.921   2.811   1.794 -1.3412 -0.5565 -0.3327
  993MOL0     H37004   4.054   2.965   1.580  1.7869 -0.4669 -0.8466
  993MOL0     H37005   4.145   2.823   1.632 -1.8873 -1.7163  0.9923
  993MOL0     H37006   4.031   3.057   1.802 -0.4605 -0.0649 -2.9279
  993MOL0     H37007   4.143   2.932   1.871  0.6814  1.2861  0.6078
  993MOL0     H37008   4.300   3.005   1.705 -0.8356 -0.8575 -0.6283
  993MOL0     H37009   4.270   3.106   1.848 -1.4931  2.1693 -0.8136
  993MOL0     H37010   4.123   3.250   1.743 -0.3936 -2.2729  1.3980
  993MOL0     H37011   4.126   3.155   1.588 -0.3449 -2.2581  1.2004
  993MOL0     H37012   4.368   3.230   1.591 -1.5019 -0.7908  0.0957
  993MOL0     H37013   4.314   3.353   1.708  0.5576  0.5211  0.0620
  993MOL0     H37014   3.467   2.732   1.768 -0.2991 -1.9148 -0.4743
  993MOL0     H37015   3.239   2.713   1.880 -2.6681  2.0599  0.4050
  993MOL0     H37016   2.824   3.101   1.934 -0.5526  2.1793  2.2514
  993MOL0     H37017   2.620   3.130   2.057  3.0221  1.5318 -0.7921
  993MOL0     H37018   2.464   3.592   1.992 -0.8978 -2.4411  0.5960
  993MOL0     H37019   2.651   3.719   1.893  1.5164 -0.4523 -1.6620
  993MOL0     H37020   2.859   3.981   1.585 -0.5125 -1.0978 -1.8362
  993MOL0     H37021   3.025   4.092   1.469 -0.1226  0.1131  1.9314
  993MOL0     H37022   3.204   4.192   1.414 -1.4188 -0.5209  0.3796
  993MOL0     H37023   3.255   4.174   1.579 -2.3767  0.1933 -0.0344
  993MOL0     H37024   3.417   4.319   1.463 -0.1894  0.5790  0.9463
  993MOL0     H37025   3.462   4.194   1.340 -0.1693 -0.0193  1.0556
  993MOL0     H37026   3.474   4.158   1.634 -3.4132  1.7233 -0.9519
  993MOL0     H37027   3.550   4.044   1.515  2.0605  1.9242 -1.0435
  993MOL0     H37028   3.683   4.223   1.414  0.3008 -1.1943  0.0800
  993MOL0     H37029   3.738   4.150   1.565 -1.7655 -2.0803 -0.9540
  993MOL0     H37030   3.662   4.565   1.650 -1.3096  0.4380 -3.5397
  993MOL0     H37031   3.291   3.750   1.507 -1.8886 -1.8209  1.6203
  993MOL0     H37032   2.997   3.535   1.576  1.0108  0.5105 -1.6408
  993MOL0     H37033   3.175   3.538   1.536  1.1922 -1.9830  1.1894
  993MOL0     H37034   3.113   3.548   1.703  1.2560  0.2335 -0.2174
  994MOL0     O37035   1.007  10.716   5.784  0.0945  0.4811 -0.7470
  994MOL0     C37036   1.098  10.743   5.864  0.1279 -0.1225  0.4079
  994MOL0     O37037   1.171  10.652   5.940 -0.4794  0.1976  0.1704
  994MOL0     C37038   1.183  10.518   5.899  1.2438  0.4100 -0.5237
  994MOL0     C37039   1.092  10.424   5.946  0.2441  0.4437  0.6708
  994MOL0     C37040   1.107  10.289   5.899 -0.4833 -1.2315  0.2024
  994MOL0     C37041   1.206  10.253   5.809 -0.3161 -0.5139 -0.0751
  994MOL0     O37042   1.215  10.127   5.764 -0.8020  0.2067  0.0596
  994MOL0     C37043   1.313  10.093   5.653  0.3151 -0.4676 -0.0942
  994MOL0     C37044   1.301   9.956   5.606 -1.0896  0.0270 -0.5379
  994MOL0     C37045   1.372   9.917   5.478  0.5573 -0.3852  0.7950
  994MOL0     C37046   1.523   9.910   5.484  0.0262  0.7150 -0.6772
  994MOL0     C37047   1.591   9.816   5.384 -1.0168  0.4629 -0.1098
  994MOL0     C37048   1.743   9.813   5.398 -0.6413  1.2161 -0.1955
  994MOL0     C37049   1.819   9.949   5.381  0.1015 -0.1484 -0.8287
  994MOL0     C37050   1.788  10.040   5.259  0.1377  0.0825  0.6647
  994MOL0     N37051   1.888  10.158   5.253  0.1870  0.8505 -0.1988
  994MOL0     C37052   2.021  10.143   5.227  0.1482 -0.0581  0.2933
  994MOL0     C37053   2.081  10.267   5.236  0.8783 -0.2120 -0.4866
  994MOL0     C37054   2.225  10.305   5.222  0.0821  0.1146  0.4827
  994MOL0     C37055   2.261  10.422   5.313  0.1575 -0.4271  0.1260
  994MOL0     C37056   2.390  10.484   5.288 -0.3001 -0.0108  0.2159
  994MOL0     C37057   2.436  10.610   5.373 -0.3783 -0.0515  0.1566
  994MOL0     O37058   2.400  10.592   5.514 -0.4844 -0.6039 -1.2907
  994MOL0     C37059   2.464  10.503   5.591 -0.8101  0.6252  0.0275
  994MOL0     C37060   2.405  10.390   5.652  0.9438  0.0447 -1.0369
  994MOL0     C37061   2.484  10.300   5.730  0.7505  0.3072  0.0042
  994MOL0     C37062   2.413  10.198   5.803 -0.2428 -0.8390  0.0883
  994MOL0     C37063   2.632  10.324   5.746  0.5005  0.9759 -0.3165
  994MOL0     C37064   2.721  10.229   5.821 -1.3118 -0.1730  1.1745
  994MOL0     O37065   2.675  10.106   5.859 -0.0941 -0.3125 -0.0609
  994MOL0     C37066   2.756  10.012   5.927 -0.3927 -0.3387 -0.1984
  994MOL0     C37067   2.704   9.947   6.040 -0.2252  0.0139 -0.0140
  994MOL0     C37068   2.781   9.864   6.118  0.1399  0.0026 -0.3224
  994MOL0     C37069   2.908   9.824   6.072 -0.3167 -0.5476 -0.2878
  994MOL0     O37070   2.993   9.745   6.143 -0.3136  0.2975 -0.5517
  994MOL0     C37071   3.058   9.827   6.249 -0.1231  0.2844 -0.4200
  994MOL0     C37072   3.198   9.762   6.274 -0.4613  0.4771 -0.3176
  994MOL0     C37073   3.194   9.615   6.280 -0.6801 -0.0341  0.5327
  994MOL0     C37074   3.325   9.564   6.322 -0.2234 -0.0333 -0.6662
  994MOL0     C37075   3.312   9.411   6.336 -0.0455 -0.2659  0.0842
  994MOL0     C37076   3.421   9.370   6.435 -0.0365 -0.6481 -0.0505
  994MOL0     C37077   3.427   9.225   6.466  1.2622  0.2671  0.1058
  994MOL0     C37078   3.560   9.171   6.511  0.2335  0.4593 -0.2908
  994MOL0    Cl37079   3.605   9.232   6.674  0.0095  0.0930 -0.8417
  994MOL0     C37080   2.958   9.880   5.955 -0.2153 -0.2040 -0.5293
  994MOL0     C37081   2.886   9.977   5.885 -0.0581 -0.7217 -0.6322
  994MOL0     O37082   2.834  10.267   5.838  0.5199 -0.3954 -0.2796
  994MOL0     C37083   2.679  10.437   5.674  0.2532  0.4347 -0.3467
  994MOL0     C37084   2.600  10.519   5.601  0.0256 -0.2532 -0.1713
  994MOL0     N37085   1.971  10.349   5.258 -0.3278 -0.1942  0.2981
  994MOL0     N37086   1.860  10.288   5.264  0.4663  0.3095  0.6592
  994MOL0     C37087   1.293  10.357   5.773  0.3898 -0.2170  0.0708
  994MOL0     C37088   1.286  10.488   5.816  0.4979 -0.6653  0.0254
  994MOL0     C37089   1.136  10.888   5.865 -0.9475  1.0494  0.5059
  994MOL0     C37090   1.264  10.916   5.857  0.1762 -0.3642 -0.3557
  994MOL0     C37091   1.316  11.042   5.854  0.8542 -0.3945  0.4485
  994MOL0     C37092   1.234  11.152   5.864 -0.8153  0.1240  0.4726
  994MOL0     O37093   1.300  11.267   5.851 -0.4926  0.3622  0.4754
  994MOL0     C37094   1.226  11.390   5.865  0.6181  0.6676  0.0830
  994MOL0     C37095   1.320  11.508   5.838 -0.0930  0.6560 -0.2670
  994MOL0     C37096   1.440  11.507   5.939 -0.3890 -0.6482  0.3024
  994MOL0     C37097   1.556  11.434   5.880 -0.6532  0.4991  1.3303
  994MOL0     C37098   1.679  11.483   5.945  0.3050 -0.1001 -0.1171
  994MOL0     C37099   1.782  11.529   5.995 -0.2247  0.1177 -0.1112
  994MOL0     C37100   1.098  11.127   5.878 -0.4327  0.5927 -0.1309
  994MOL0     C37101   1.050  10.993   5.887 -0.1528 -1.1645  0.4907
  994MOL0     C37102   0.900  10.974   5.923 -0.1581 -0.0424 -0.1965
  994MOL0     H37103   1.008  10.445   6.012 -0.5481  1.4004 -0.5820
  994MOL0     H37104   1.038  10.213   5.936  0.3731 -2.2893 -0.3094
  994MOL0     H37105   1.408  10.127   5.696  0.1004 -0.3994  0.3301
  994MOL0     H37106   1.288  10.158   5.569 -2.7107 -1.6550 -0.2244
  994MOL0     H37107   1.342   9.891   5.683 -0.2412  1.8559  0.6189
  994MOL0     H37108   1.195   9.931   5.589 -0.7476 -0.3485 -2.3996
  994MOL0     H37109   1.332   9.819   5.450 -3.3439  0.7171  1.7796
  994MOL0     H37110   1.340   9.991   5.404  1.5404 -1.2322 -0.5118
  994MOL0     H37111   1.564  10.010   5.472 -1.3489  1.2241 -1.2850
  994MOL0     H37112   1.546   9.877   5.586  3.8450 -1.7503 -2.1265
  994MOL0     H37113   1.566   9.858   5.286  0.7214  1.4818 -0.1484
  994MOL0     H37114   1.548   9.715   5.388  2.1679 -1.0236 -0.6871
  994MOL0     H37115   1.776   9.777   5.496  0.5372  2.6924 -0.0040
  994MOL0     H37116   1.785   9.758   5.313  1.1631 -1.9404  2.4764
  994MOL0     H37117   1.924   9.922   5.365 -0.3250 -1.4241 -1.6404
  994MOL0     H37118   1.804  10.006   5.473 -1.5093 -1.2357 -0.3735
  994MOL0     H37119   1.801   9.981   5.168 -0.4289 -0.1443  0.7291
  994MOL0     H37120   1.683  10.070   5.262  0.2546  0.4248  1.8411
  994MOL0     H37121   2.074  10.048   5.221  2.2632  1.1369 -1.1769
  994MOL0     H37122   2.230  10.341   5.119  0.3299  1.3812  0.9201
  994MOL0     H37123   2.296  10.224   5.242 -1.0577 -0.5824  1.9092
  994MOL0     H37124   2.188  10.494   5.275  0.9581  0.6547  0.6071
  994MOL0     H37125   2.244  10.394   5.417  1.7089 -0.0229  0.5063
  994MOL0     H37126   2.470  10.409   5.296  1.9496  2.2863  0.6964
  994MOL0     H37127   2.393  10.515   5.183  1.4798 -2.0305 -0.3978
  994MOL0     H37128   2.543  10.632   5.363 -0.4575  0.2501 -0.0220
  994MOL0     H37129   2.372  10.691   5.338  0.5660 -0.8109 -3.7094
  994MOL0     H37130   2.298  10.372   5.646  1.4381 -3.1488 -1.9457
  994MOL0     H37131   2.470  10.184   5.895  1.9612 -2.7628 -1.4528
  994MOL0     H37132   2.418  10.108   5.741  0.0228  0.7457 -2.3382
  994MOL0     H37133   2.310  10.225   5.827 -0.0448  2.4462 -2.1548
  994MOL0     H37134   2.600   9.966   6.066  0.2397  1.0405  1.2051
  994MOL0     H37135   2.737   9.836   6.213  2.8791 -1.7460  0.5149
  994MOL0     H37136   3.082   9.928   6.212  2.1509 -0.0832 -0.1318
  994MOL0     H37137   2.993   9.834   6.337  2.0836 -2.3355  1.5935
  994MOL0     H37138   3.267   9.783   6.192  1.3294 -0.8832  0.7537
  994MOL0     H37139   3.242   9.800   6.367  0.3741  1.5263 -1.1277
  994MOL0     H37140   3.169   9.576   6.181  2.0539 -2.5217  0.6960
  994MOL0     H37141   3.118   9.580   6.350 -2.8278 -2.8607 -2.8980
  994MOL0     H37142   3.344   9.613   6.417  0.0079  0.4875 -0.9795
  994MOL0     H37143   3.405   9.592   6.252  0.7379 -0.1904  0.3536
  994MOL0     H37144   3.212   9.391   6.377  0.0112  1.4871  1.1973
  994MOL0     H37145   3.331   9.365   6.239  0.3103  0.7118 -0.3270
  994MOL0     H37146   3.405   9.422   6.530  0.4924  0.6510 -0.6452
  994MOL0     H37147   3.516   9.394   6.385 -0.3652  0.6163 -0.0927
  994MOL0     H37148   3.389   9.177   6.375 -2.1374  2.9464 -0.0731
  994MOL0     H37149   3.355   9.198   6.543 -0.1347 -0.0253 -1.2543
  994MOL0     H37150   3.638   9.196   6.438 -0.0595 -0.7841 -1.0661
  994MOL0     H37151   3.553   9.062   6.517 -2.1105  0.4896 -1.6858
  994MOL0     H37152   3.052   9.835   5.926  1.7287  2.0834  1.8080
  994MOL0     H37153   2.918  10.032   5.797  0.0604 -0.1272 -0.2216
  994MOL0     H37154   2.786  10.455   5.681  0.7447 -1.9982 -0.7917
  994MOL0     H37155   2.643  10.605   5.550 -1.3540  0.5097 -0.1066
  994MOL0     H37156   1.370  10.350   5.697 -0.6234  1.5546 -1.1948
  994MOL0     H37157   1.348  10.572   5.788 -0.4603  0.0801  0.0769
  994MOL0     H37158   1.340  10.840   5.872  1.9177  1.5940  1.5288
  994MOL0     H37159   1.424  11.041   5.851  0.8313 -1.2809 -0.4143
  994MOL0     H37160   1.150  11.409   5.789  0.3926  0.0427  0.1470
  994MOL0     H37161   1.181  11.387   5.965  1.9476  2.1595  0.7662
  994MOL0     H37162   1.273  11.607   5.835 -0.3534  0.5409 -0.0642
  994MOL0     H37163   1.348  11.507   5.732  1.7606  0.1501  0.1967
  994MOL0     H37164   1.471  11.612   5.947  0.9987 -0.7708 -2.2047
  994MOL0     H37165   1.403  11.460   6.030 -1.6899 -0.1611  0.0451
  994MOL0     H37166   1.562  11.460   5.774  2.6267  0.3984  1.3792
  994MOL0     H37167   1.546  11.326   5.886 -1.3341  0.4727  0.1115
  994MOL0     H37168   1.875  11.567   6.033  0.3588 -0.6027 -0.7758
  994MOL0     H37169   1.031  11.207   5.909  0.7990  2.0674 -1.1263
  994MOL0     H37170   0.887  10.929   6.022 -2.6087  2.9917  1.0358
  994MOL0     H37171   0.855  11.074   5.929 -0.1582  0.0321 -1.1862
  994MOL0     H37172   0.850  10.916   5.845 -0.2104  0.1362 -0.2948
  995MOL0     O37173   3.225   1.281   0.556  0.1541  0.3553 -0.2039
  995MOL0     C37174   3.225   1.400   0.534 -0.1582 -0.0944  0.3248
  995MOL0     O37175   3.339   1.471   0.530 -0.2081  0.3982 -0.1259
  995MOL0     C37176   3.460   1.423   0.558 -0.5291 -0.2964 -0.5650
  995MOL0     C37177   3.539   1.495   0.648  0.1577 -0.2658 -0.7212
  995MOL0     C37178   3.664   1.457   0.674  0.0910 -0.5496  0.7396
  995MOL0     C37179   3.719   1.335   0.625 -0.2111  0.1511  0.0778
  995MOL0     O37180   3.857   1.306   0.633  0.4075 -0.3425  0.7590
  995MOL0     C37181   3.952   1.406   0.678  0.0177  0.2493 -0.2646
  995MOL0     C37182   4.083   1.336   0.642  0.1148 -0.5753 -0.5181
  995MOL0     C37183   4.197   1.418   0.713 -0.3266  0.0603  0.1631
  995MOL0     C37184   4.337   1.383   0.652  0.6125 -0.1955  0.3100
  995MOL0     C37185   4.444   1.454   0.717 -0.4585 -0.0587  0.4656
  995MOL0     C37186   4.492   1.404   0.846  0.0837 -0.3661  0.8630
  995MOL0     C37187   4.637   1.449   0.879  0.0499 -0.8877  1.3486
  995MOL0     C37188   4.751   1.357   0.811 -0.1263  1.3120  0.6433
  995MOL0     N37189   4.882   1.414   0.833 -0.2081 -0.4806  0.4120
  995MOL0     C37190   4.952   1.476   0.738 -0.2034  0.9324 -0.4005
  995MOL0     C37191   5.084   1.483   0.788  0.1002  0.7762  0.5420
  995MOL0     C37192   5.208   1.544   0.716  0.2969  0.0152 -0.0026
  995MOL0     C37193   5.336   1.481   0.765 -0.8850 -0.7661  0.2248
  995MOL0     C37194   5.455   1.500   0.667  0.9375  0.2038 -0.0392
  995MOL0     C37195   5.583   1.428   0.719  0.1113  0.3445  0.2721
  995MOL0     O37196   5.688   1.390   0.624  0.5576  0.0009  0.3785
  995MOL0     C37197   5.778   1.488   0.603 -0.7450  0.5098 -0.3381
  995MOL0     C37198   5.906   1.442   0.586 -0.0778  0.4637 -0.0802
  995MOL0     C37199   6.011   1.528   0.570 -0.1286 -0.2910  0.1480
  995MOL0     C37200   6.140   1.461   0.559  0.2255  0.2581  0.5718
  995MOL0     C37201   5.986   1.669   0.544  0.3228 -0.3301 -0.0181
  995MOL0     C37202   6.085   1.776   0.510 -0.0898 -0.0835  0.1421
  995MOL0     O37203   6.039   1.903   0.506 -0.3243  0.0515  0.4310
  995MOL0     C37204   6.125   2.000   0.475  0.3298 -0.3289  0.1924
  995MOL0     C37205   6.159   2.103   0.569  0.2316 -0.5265  0.2304
  995MOL0     C37206   6.235   2.216   0.530  0.2448  0.2032 -0.7425
  995MOL0     C37207   6.279   2.226   0.397 -0.4449  0.4856 -0.4729
  995MOL0     O37208   6.342   2.341   0.352 -1.0672  0.3843  0.0710
  995MOL0     C37209   6.366   2.447   0.443  0.3642 -0.0784 -0.1122
  995MOL0     C37210   6.391   2.574   0.358 -0.1741 -0.3659 -0.5106
  995MOL0     C37211   6.412   2.699   0.452 -0.6871 -1.4763  0.2344
  995MOL0     C37212   6.561   2.707   0.498  0.5211 -0.1136 -0.7822
  995MOL0     C37213   6.606   2.827   0.588  0.5904  0.7244 -0.1453
  995MOL0     C37214   6.740   2.782   0.667 -0.5679 -0.0241  0.5016
  995MOL0     C37215   6.808   2.897   0.748  0.1932  0.3711  0.0825
  995MOL0     C37216   6.877   2.829   0.860  1.1692 -0.8109  0.2198
  995MOL0    Cl37217   6.991   2.941   0.949 -0.4086  0.0899  0.0477
  995MOL0     C37218   6.247   2.125   0.309 -0.5689 -0.3235  0.2581
  995MOL0     C37219   6.177   2.014   0.346  0.4176 -0.2253  0.7509
  995MOL0     O37220   6.199   1.742   0.494 -0.2179  0.2423 -0.6033
  995MOL0     C37221   5.850   1.708   0.576  0.0738 -0.4356  0.4143
  995MOL0     C37222   5.751   1.626   0.600  1.4869  0.1644  0.5662
  995MOL0     N37223   5.081   1.429   0.915  0.9735 -0.5355  0.4988
  995MOL0     N37224   4.967   1.380   0.941 -0.6112  0.6579 -0.4117
  995MOL0     C37225   3.638   1.256   0.542 -0.6050 -0.5753 -0.4647
  995MOL0     C37226   3.513   1.295   0.508 -0.2691  0.0706  0.5999
  995MOL0     C37227   3.095   1.462   0.504  0.3006 -0.3549  0.4301
  995MOL0     C37228   3.094   1.584   0.443  0.4059 -0.2177  0.0366
  995MOL0     C37229   2.979   1.645   0.402  0.7526 -0.4508  0.0211
  995MOL0     C37230   2.854   1.580   0.423  0.0118 -0.3061  0.2931
  995MOL0     O37231   2.735   1.653   0.380 -1.0540 -0.2604 -0.5957
  995MOL0     C37232   2.617   1.576   0.354 -0.1012 -0.5547  1.1677
  995MOL0     C37233   2.536   1.651   0.248  0.8337  1.0440  0.1871
  995MOL0     C37234   2.612   1.660   0.109  0.4363  0.4403 -0.3307
  995MOL0     C37235   2.516   1.710   0.012  1.0820 -0.0208 -0.4939
  995MOL0     C37236   2.577   1.733  -0.116 -0.3620  0.8814 -0.1625
  995MOL0     C37237   2.633   1.757  -0.219 -0.6162 -1.0153  0.4225
  995MOL0     C37238   2.861   1.456   0.484 -0.4189  1.0033 -0.4175
  995MOL0     C37239   2.974   1.397   0.530 -0.2533  0.7000 -0.1284
  995MOL0     C37240   2.950   1.273   0.611  0.7400  0.1260 -0.3195
  995MOL0     H37241   3.504   1.586   0.694 -0.0102 -0.5782 -0.2165
  995MOL0     H37242   3.723   1.530   0.728 -0.9585  1.4000 -0.6502
  995MOL0     H37243   3.948   1.421   0.786  3.5457 -0.1863  0.0417
  995MOL0     H37244   3.961   1.498   0.618  0.3356 -0.4763 -1.3729
  995MOL0     H37245   4.097   1.231   0.669 -0.7014 -0.1279  1.8346
  995MOL0     H37246   4.084   1.349   0.533 -1.6939  3.5347 -0.2177
  995MOL0     H37247   4.189   1.525   0.694  1.9550  0.0402 -1.3443
  995MOL0     H37248   4.187   1.383   0.816 -2.2250 -0.7158 -0.2408
  995MOL0     H37249   4.354   1.275   0.653  1.3564 -0.1091 -0.8192
  995MOL0     H37250   4.337   1.418   0.548 -0.6001 -0.4571  0.2048
  995MOL0     H37251   4.419   1.560   0.728 -0.7339 -0.2681  2.2557
  995MOL0     H37252   4.522   1.444   0.641 -1.7443  0.2729 -0.9414
  995MOL0     H37253   4.422   1.436   0.924  0.2634 -0.1708  0.9453
  995MOL0     H37254   4.504   1.295   0.840 -0.2183 -0.3320 -3.5570
  995MOL0     H37255   4.649   1.444   0.987 -0.0545  1.7292  1.5415
  995MOL0     H37256   4.637   1.554   0.849  1.4706 -1.3076 -0.2759
  995MOL0     H37257   4.727   1.259   0.853 -3.0895 -0.0621 -3.6036
  995MOL0     H37258   4.728   1.353   0.704  1.2133  3.4700  0.1990
  995MOL0     H37259   4.921   1.500   0.637  0.5875 -2.5436 -1.6248
  995MOL0     H37260   5.210   1.650   0.744  1.7483 -0.3530  1.4834
  995MOL0     H37261   5.187   1.541   0.609 -2.0480  0.3458  0.3968
  995MOL0     H37262   5.366   1.531   0.858  0.2854  2.3541 -1.6609
  995MOL0     H37263   5.323   1.375   0.788  0.1174 -1.5432 -2.3335
  995MOL0     H37264   5.438   1.468   0.563  0.2403 -2.9246  0.9229
  995MOL0     H37265   5.473   1.607   0.674  1.5198  0.1075  0.0609
  995MOL0     H37266   5.622   1.489   0.801 -1.7019  1.6631  0.2276
  995MOL0     H37267   5.537   1.332   0.749  0.7898 -0.0458  0.0739
  995MOL0     H37268   5.926   1.336   0.600 -0.7279 -0.1022 -2.8416
  995MOL0     H37269   6.137   1.414   0.461 -1.7690 -1.9206  1.5660
  995MOL0     H37270   6.140   1.376   0.629 -2.0674  0.4067  0.8542
  995MOL0     H37271   6.228   1.526   0.563  0.1386  1.0321 -4.2401
  995MOL0     H37272   6.136   2.088   0.674  0.0065 -1.3905  0.0611
  995MOL0     H37273   6.250   2.289   0.610 -0.2944 -0.6880  0.1921
  995MOL0     H37274   6.288   2.462   0.517  1.3699  0.6029  0.8460
  995MOL0     H37275   6.453   2.427   0.506  1.4028  0.5099 -1.3100
  995MOL0     H37276   6.481   2.556   0.297 -0.4525  3.5246 -2.3953
  995MOL0     H37277   6.322   2.588   0.274  0.4117 -0.1523 -0.9710
  995MOL0     H37278   6.350   2.686   0.541 -0.8138 -0.0380  0.3745
  995MOL0     H37279   6.379   2.785   0.394  0.1183 -1.0109  0.4482
  995MOL0     H37280   6.621   2.707   0.407  0.0475  2.7390 -1.1755
  995MOL0     H37281   6.584   2.611   0.546  0.2568 -1.4322 -3.1707
  995MOL0     H37282   6.613   2.916   0.524  1.1540  1.6500  1.1595
  995MOL0     H37283   6.525   2.861   0.653  0.2556  0.1913 -0.2809
  995MOL0     H37284   6.815   2.748   0.595 -0.2527  1.3396  0.1630
  995MOL0     H37285   6.704   2.703   0.735 -3.3285  1.4765  0.9619
  995MOL0     H37286   6.732   2.963   0.789 -0.7721 -1.8360  2.0710
  995MOL0     H37287   6.873   2.962   0.689  0.1036  0.4859  0.1123
  995MOL0     H37288   6.934   2.744   0.821  1.0154 -0.8440  0.0636
  995MOL0     H37289   6.804   2.786   0.929  0.6429 -2.3250 -1.2091
  995MOL0     H37290   6.286   2.139   0.209  2.0918  1.3820  1.4442
  995MOL0     H37291   6.146   1.945   0.268  0.8220  1.4704 -0.9747
  995MOL0     H37292   5.812   1.809   0.575  1.9125  0.2992 -0.5932
  995MOL0     H37293   5.650   1.664   0.603  1.1435 -0.8138  1.8660
  995MOL0     H37294   3.678   1.165   0.499 -0.3407 -1.0286  0.7136
  995MOL0     H37295   3.456   1.240   0.434 -0.2989  0.4177  0.3616
  995MOL0     H37296   3.187   1.638   0.423  0.0941  0.0916 -0.6072
  995MOL0     H37297   2.971   1.743   0.356 -0.2402 -0.5281  0.0078
  995MOL0     H37298   2.624   1.475   0.314 -1.0315  0.1284 -0.8184
  995MOL0     H37299   2.553   1.575   0.443 -0.7485 -0.5639  0.7059
  995MOL0     H37300   2.511   1.754   0.275 -2.1056  1.1488 -2.3003
  995MOL0     H37301   2.441   1.599   0.228  0.8435  1.0518  0.1223
  995MOL0     H37302   2.691   1.735   0.117 -0.6508  1.5600  0.3576
  995MOL0     H37303   2.657   1.562   0.093  1.3845  0.6770  0.7940
  995MOL0     H37304   2.474   1.802   0.055  0.7952 -1.5591  2.8430
  995MOL0     H37305   2.437   1.635   0.009  0.1303  0.9656 -0.6161
  995MOL0     H37306   2.695   1.776  -0.304  0.8366  0.2591  1.6892
  995MOL0     H37307   2.760   1.423   0.510 -0.0199 -0.1391 -0.2676
  995MOL0     H37308   2.946   1.184   0.547 -2.9604 -1.6890  2.1168
  995MOL0     H37309   3.019   1.264   0.695  1.2032  2.2247 -0.4210
  995MOL0     H37310   2.851   1.283   0.656  0.7982 -0.2195 -0.1132
  996MOL0     O37311   4.837   3.144   7.456  0.7744  0.2737  0.7198
  996MOL0     C37312   4.764   3.173   7.360 -0.0641 -0.2140  0.4946
  996MOL0     O37313   4.797   3.269   7.268 -1.0407 -0.3402  0.1147
  996MOL0     C37314   4.931   3.301   7.267  0.3107  0.2847 -0.0772
  996MOL0     C37315   4.990   3.425   7.316 -0.1748 -0.4797  0.4780
  996MOL0     C37316   5.124   3.449   7.315 -0.1643  0.1143 -0.4737
  996MOL0     C37317   5.217   3.353   7.276  0.1980  0.0690  0.1627
  996MOL0     O37318   5.354   3.370   7.289 -0.8249 -0.3083 -0.3385
  996MOL0     C37319   5.415   3.500   7.292 -0.1202  0.0819  0.0152
  996MOL0     C37320   5.564   3.483   7.286  0.6886 -0.2872  0.3291
  996MOL0     C37321   5.610   3.422   7.155  0.5480  0.2037  0.1492
  996MOL0     C37322   5.618   3.531   7.049  0.2226 -0.3335 -0.1591
  996MOL0     C37323   5.671   3.479   6.913 -0.4389 -0.4881  0.0461
  996MOL0     C37324   5.589   3.369   6.857  0.8405  0.3473 -0.5963
  996MOL0     C37325   5.444   3.419   6.812 -0.1953 -0.3238  0.1785
  996MOL0     C37326   5.335   3.409   6.920 -0.2774  0.5948 -0.4551
  996MOL0     N37327   5.202   3.420   6.862  0.2341  0.1500 -0.0874
  996MOL0     C37328   5.168   3.516   6.771  0.6115  0.2801  1.0748
  996MOL0     C37329   5.051   3.470   6.731 -0.5323  0.1446  0.2576
  996MOL0     C37330   4.969   3.542   6.625 -0.3138 -0.2920  0.0669
  996MOL0     C37331   5.020   3.504   6.487 -0.1685  0.5630 -0.3145
  996MOL0     C37332   5.159   3.562   6.450  0.5152  0.9436 -0.2621
  996MOL0     C37333   5.175   3.566   6.294 -0.5491  0.6574 -0.1427
  996MOL0     O37334   5.214   3.435   6.250  0.0144 -0.6108  0.1706
  996MOL0     C37335   5.300   3.445   6.138  0.0405  0.2986 -0.1053
  996MOL0     C37336   5.441   3.442   6.154  0.4935 -0.3201 -0.4688
  996MOL0     C37337   5.528   3.439   6.043 -0.0380 -0.0264 -0.2339
  996MOL0     C37338   5.679   3.452   6.062 -0.3707  0.4017 -1.0382
  996MOL0     C37339   5.468   3.425   5.914 -0.2979  0.0892  0.6451
  996MOL0     C37340   5.559   3.428   5.791 -0.6291  0.3870  0.0969
  996MOL0     O37341   5.586   3.307   5.743 -0.3014  0.4398  0.6158
  996MOL0     C37342   5.689   3.297   5.654  0.4847 -0.0213  0.0027
  996MOL0     C37343   5.816   3.275   5.704 -0.8986  0.4776 -0.5932
  996MOL0     C37344   5.921   3.240   5.611 -0.2309 -0.7060 -0.0341
  996MOL0     C37345   5.890   3.228   5.469  0.0574 -0.2929 -0.1885
  996MOL0     O37346   5.992   3.201   5.382 -0.3297 -0.2631  0.0754
  996MOL0     C37347   5.974   3.131   5.258 -1.0344  0.0975  1.3025
  996MOL0     C37348   6.114   3.080   5.196 -0.1973 -0.2970  0.6784
  996MOL0     C37349   6.218   3.193   5.194  0.3655  0.3837  0.5088
  996MOL0     C37350   6.328   3.174   5.299 -0.0926  0.0285  0.0252
  996MOL0     C37351   6.446   3.269   5.269  0.2282 -0.0533  0.3820
  996MOL0     C37352   6.536   3.223   5.148  0.4659 -0.5635 -0.3062
  996MOL0     C37353   6.682   3.285   5.161 -0.2391  0.5437 -0.1131
  996MOL0     C37354   6.785   3.222   5.075  0.1722 -1.1141 -0.8146
  996MOL0    Cl37355   6.738   3.263   4.909  0.4575 -0.1926  0.5603
  996MOL0     C37356   5.761   3.266   5.426  0.0738 -0.3906  0.2361
  996MOL0     C37357   5.660   3.296   5.522 -0.2918  0.4837 -0.2227
  996MOL0     O37358   5.604   3.536   5.741 -0.5297  0.5009  0.6984
  996MOL0     C37359   5.327   3.427   5.899  0.4115  0.3526  0.1671
  996MOL0     C37360   5.244   3.435   6.015 -0.3179  0.5990  0.1526
  996MOL0     N37361   5.012   3.349   6.791  0.3303 -0.1797 -0.2366
  996MOL0     N37362   5.109   3.317   6.870  0.3558 -0.8331 -0.3403
  996MOL0     C37363   5.168   3.235   7.231  0.3787  0.9539  0.1720
  996MOL0     C37364   5.028   3.207   7.217 -0.3659 -0.4108  0.1389
  996MOL0     C37365   4.623   3.136   7.366  0.6870  0.2306  0.0037
  996MOL0     C37366   4.530   3.232   7.323 -0.1051 -0.4997 -0.7676
  996MOL0     C37367   4.390   3.206   7.339 -0.1269  0.1805  0.0948
  996MOL0     C37368   4.346   3.087   7.383 -0.4711  0.7104  0.4501
  996MOL0     O37369   4.209   3.077   7.397 -0.6537 -0.0756 -0.3757
  996MOL0     C37370   4.146   2.949   7.417  0.0637  0.3744 -0.6687
  996MOL0     C37371   4.126   2.869   7.286 -0.5495 -0.3604 -0.2120
  996MOL0     C37372   4.056   2.949   7.175 -0.2007  0.4457  0.4636
  996MOL0     C37373   3.943   2.864   7.112  0.4536  0.6294  0.6190
  996MOL0     C37374   3.885   2.944   7.000  0.6309 -0.6963 -0.4952
  996MOL0     C37375   3.838   3.024   6.923 -0.6369  0.8400  0.0636
  996MOL0     C37376   4.434   2.990   7.426 -0.3074 -0.0373  0.7179
  996MOL0     C37377   4.574   3.012   7.413 -0.0884  0.9556 -0.5765
  996MOL0     C37378   4.655   2.894   7.457 -0.2595 -0.1176 -1.1137
  996MOL0     H37379   4.925   3.503   7.355  1.1529  1.3203 -0.8059
  996MOL0     H37380   5.161   3.545   7.348  3.3813 -1.2595  0.0433
  996MOL0     H37381   5.392   3.560   7.380 -1.1882  0.6052 -0.5965
  996MOL0     H37382   5.381   3.556   7.204  0.8292  1.2548  0.3671
  996MOL0     H37383   5.610   3.582   7.300 -1.6678  0.6867  1.7001
  996MOL0     H37384   5.601   3.423   7.369  1.7121 -0.1200  0.0060
  996MOL0     H37385   5.711   3.395   7.188  0.4011  0.3116  0.7117
  996MOL0     H37386   5.552   3.335   7.123  2.1533 -0.5673 -0.7360
  996MOL0     H37387   5.523   3.584   7.048  0.9523  1.0866  0.9622
  996MOL0     H37388   5.677   3.614   7.089 -1.5643  0.9211 -0.0179
  996MOL0     H37389   5.775   3.451   6.933 -0.1682  1.5755  1.9768
  996MOL0     H37390   5.674   3.569   6.851 -5.6304  0.0725  0.1169
  996MOL0     H37391   5.641   3.329   6.769 -1.9144 -0.3899 -1.9939
  996MOL0     H37392   5.581   3.289   6.932  0.3352  1.8473  1.0086
  996MOL0     H37393   5.410   3.352   6.732 -2.2507  0.7221  0.0952
  996MOL0     H37394   5.446   3.521   6.773 -0.4842  0.8342  2.9543
  996MOL0     H37395   5.347   3.316   6.976  0.6704  0.0632 -1.4948
  996MOL0     H37396   5.345   3.496   6.985 -0.8891  1.0290 -0.9284
  996MOL0     H37397   5.237   3.594   6.741 -0.6158  1.4747  1.2782
  996MOL0     H37398   4.964   3.651   6.627 -4.2209 -0.2806 -1.5158
  996MOL0     H37399   4.864   3.512   6.634 -0.1527 -0.8207  0.1990
  996MOL0     H37400   5.017   3.396   6.469 -2.2899  0.5702 -0.2208
  996MOL0     H37401   4.945   3.533   6.414 -1.7820 -1.3120  0.4777
  996MOL0     H37402   5.158   3.664   6.490 -2.4483  1.4818 -1.4584
  996MOL0     H37403   5.238   3.504   6.499 -0.1938 -0.1891 -0.4103
  996MOL0     H37404   5.090   3.605   6.237  0.4096 -0.9447 -2.8600
  996MOL0     H37405   5.254   3.635   6.262 -1.0974  0.8772 -1.0670
  996MOL0     H37406   5.479   3.444   6.255 -0.5927  0.6887 -0.0479
  996MOL0     H37407   5.690   3.446   6.171 -2.4229  0.0028 -0.8052
  996MOL0     H37408   5.717   3.548   6.027  1.8680  0.9733  2.5121
  996MOL0     H37409   5.718   3.364   6.009 -2.6054 -0.5501 -1.2179
  996MOL0     H37410   5.837   3.284   5.810 -2.3455  1.9815 -0.3908
  996MOL0     H37411   6.025   3.229   5.639  0.0574 -1.8594 -1.4460
  996MOL0     H37412   5.902   3.051   5.279 -2.6436  0.8801 -0.8264
  996MOL0     H37413   5.911   3.197   5.197 -1.0810  2.0786  3.3601
  996MOL0     H37414   6.143   2.994   5.257 -0.1916  1.4785  3.3315
  996MOL0     H37415   6.082   3.053   5.095 -2.8512  2.3220  0.6817
  996MOL0     H37416   6.178   3.289   5.228 -1.7606 -0.5320  0.7928
  996MOL0     H37417   6.254   3.211   5.092  0.7292 -1.2696  0.3091
  996MOL0     H37418   6.366   3.072   5.300 -3.3070 -1.4093 -3.3253
  996MOL0     H37419   6.293   3.206   5.398  1.8647  0.2010  0.7103
  996MOL0     H37420   6.397   3.364   5.245 -1.4669 -0.9859  0.0571
  996MOL0     H37421   6.509   3.288   5.357 -0.5777  0.7109  0.8113
  996MOL0     H37422   6.501   3.254   5.049 -2.3397 -3.4229 -0.3874
  996MOL0     H37423   6.546   3.114   5.151 -1.2126 -0.7257  0.8572
  996MOL0     H37424   6.710   3.279   5.267 -0.7314 -2.9404 -0.0542
  996MOL0     H37425   6.676   3.388   5.124 -0.4933 -0.4960 -3.2487
  996MOL0     H37426   6.784   3.113   5.088  1.1505 -0.8814  1.9721
  996MOL0     H37427   6.889   3.252   5.095  0.3107 -1.7684 -0.5311
  996MOL0     H37428   5.740   3.265   5.319  3.8642  0.1024 -0.6238
  996MOL0     H37429   5.556   3.314   5.498 -1.0641 -2.1252  0.9085
  996MOL0     H37430   5.282   3.417   5.800  0.6544 -2.1109  0.2552
  996MOL0     H37431   5.135   3.437   6.014 -0.3806 -0.8579 -0.6933
  996MOL0     H37432   5.235   3.155   7.201 -2.2303 -1.2402 -0.1988
  996MOL0     H37433   4.992   3.108   7.189 -1.5816 -1.0056  3.3325
  996MOL0     H37434   4.545   3.328   7.274  0.8541 -0.2966 -0.1011
  996MOL0     H37435   4.325   3.291   7.316  0.6036  1.2937  1.9331
  996MOL0     H37436   4.201   2.894   7.494 -1.5683  2.2190  1.9693
  996MOL0     H37437   4.048   2.968   7.461 -0.2741 -2.5290  0.0272
  996MOL0     H37438   4.052   2.793   7.313 -0.6262  0.0819  0.9085
  996MOL0     H37439   4.224   2.832   7.255 -0.1890  0.2712  0.1539
  996MOL0     H37440   4.023   3.043   7.221 -0.4718  0.9723 -0.7609
  996MOL0     H37441   4.127   2.977   7.097 -1.0536 -0.5965 -0.7463
  996MOL0     H37442   3.874   2.834   7.192  0.8104 -2.6314 -0.1523
  996MOL0     H37443   3.991   2.772   7.077  0.0594  0.8468 -0.5239
  996MOL0     H37444   3.792   3.100   6.863 -1.2556  1.2815  1.0628
  996MOL0     H37445   4.410   2.890   7.459 -3.8772 -0.5863 -2.7157
  996MOL0     H37446   4.763   2.905   7.443 -0.1833  3.2488  1.0850
  996MOL0     H37447   4.638   2.898   7.565 -2.4239  2.3264 -1.4317
  996MOL0     H37448   4.618   2.796   7.425 -0.9215 -0.1463 -0.2819
  997MOL0     O37449   1.129   3.001   0.382 -0.0262 -0.0999 -0.4358
  997MOL0     C37450   1.042   3.077   0.364  0.3158 -0.1542 -0.0581
  997MOL0     O37451   1.040   3.201   0.405  0.2114  0.6749  0.0316
  997MOL0     C37452   1.147   3.278   0.436 -0.4648  0.1598  0.2716
  997MOL0     C37453   1.121   3.388   0.512  0.4765  0.8739 -0.0559
  997MOL0     C37454   1.226   3.475   0.541 -0.3701 -0.0160  0.6540
  997MOL0     C37455   1.350   3.460   0.483  0.1651  0.3005 -0.4337
  997MOL0     O37456   1.436   3.562   0.514 -0.0612 -0.1506 -0.3201
  997MOL0     C37457   1.570   3.575   0.467 -0.5875  0.6603  0.6723
  997MOL0     C37458   1.648   3.644   0.577 -0.4254  0.2066 -1.3928
  997MOL0     C37459   1.626   3.790   0.561  0.7779 -0.3685 -0.4632
  997MOL0     C37460   1.694   3.871   0.663  0.1398  0.6103  0.4870
  997MOL0     C37461   1.681   4.017   0.641  0.3026 -0.5488 -0.0955
  997MOL0     C37462   1.551   4.095   0.633 -0.5860  0.0007  0.2394
  997MOL0     C37463   1.463   4.079   0.767  0.5574 -0.1727  0.5793
  997MOL0     C37464   1.358   4.199   0.763  0.8717  0.8509  0.5492
  997MOL0     N37465   1.261   4.177   0.646 -0.3481  0.1933 -0.3887
  997MOL0     C37466   1.163   4.081   0.649 -0.5091  0.4716 -0.4387
  997MOL0     C37467   1.129   4.060   0.515  0.3554 -0.3474  0.0024
  997MOL0     C37468   1.027   3.970   0.461  0.4941 -0.0231  0.9697
  997MOL0     C37469   1.072   3.823   0.441  0.8467  0.0078 -0.0360
  997MOL0     C37470   1.189   3.818   0.344 -0.2957  0.1343  0.0289
  997MOL0     C37471   1.175   3.907   0.219  0.7319 -0.3166  0.1906
  997MOL0     O37472   1.285   3.883   0.131 -0.1226  0.0680  0.5304
  997MOL0     C37473   1.406   3.924   0.173  0.7056 -0.2496 -0.1661
  997MOL0     C37474   1.517   3.842   0.140  0.0571  0.0845 -0.3482
  997MOL0     C37475   1.644   3.882   0.166 -0.0047 -0.7943  0.1482
  997MOL0     C37476   1.751   3.789   0.128 -1.1161  0.4741 -0.4222
  997MOL0     C37477   1.663   4.007   0.232  0.2054 -0.5776  0.0288
  997MOL0     C37478   1.794   4.067   0.267  0.1664 -0.3832 -0.7921
  997MOL0     O37479   1.805   4.210   0.292  0.4516  0.1037  0.3431
  997MOL0     C37480   1.922   4.262   0.326 -0.4194  0.2172 -0.3770
  997MOL0     C37481   2.004   4.220   0.432  0.0540 -0.6107 -0.2311
  997MOL0     C37482   2.126   4.287   0.476 -0.6034 -0.2606  0.0308
  997MOL0     C37483   2.158   4.408   0.407 -0.2619  0.8155  0.1350
  997MOL0     O37484   2.257   4.493   0.432  0.1385 -0.1391  0.7814
  997MOL0     C37485   2.388   4.434   0.412  0.3438 -0.1771  0.1584
  997MOL0     C37486   2.427   4.424   0.264 -0.3705 -0.7702 -0.7545
  997MOL0     C37487   2.467   4.561   0.211 -0.4350 -0.7717  0.4495
  997MOL0     C37488   2.459   4.569   0.055 -0.3527  0.1544 -0.7917
  997MOL0     C37489   2.581   4.636  -0.001 -0.6262  0.9977  0.8815
  997MOL0     C37490   2.582   4.642  -0.154 -0.4915  0.3609  0.2313
  997MOL0     C37491   2.718   4.696  -0.206 -0.1914  0.7418  0.7036
  997MOL0     C37492   2.707   4.697  -0.365 -0.4323 -0.6378  0.0245
  997MOL0    Cl37493   2.877   4.706  -0.421  0.2049 -0.3267  0.4573
  997MOL0     C37494   2.082   4.442   0.293  0.2886  0.8557 -0.4652
  997MOL0     C37495   1.962   4.382   0.266 -0.2580 -0.4046 -0.0465
  997MOL0     O37496   1.884   3.984   0.287 -0.5220  0.1434  0.1562
  997MOL0     C37497   1.546   4.090   0.258 -0.4489 -0.0799 -0.1108
  997MOL0     C37498   1.424   4.054   0.223  0.6235 -0.3446  1.0195
  997MOL0     N37499   1.206   4.153   0.440 -0.4282 -0.1380 -0.1795
  997MOL0     N37500   1.278   4.224   0.522  0.0011  0.3496 -1.0411
  997MOL0     C37501   1.376   3.342   0.413  0.6418 -0.3314 -0.5013
  997MOL0     C37502   1.276   3.249   0.396  0.0478 -0.5561  0.1044
  997MOL0     C37503   0.912   3.019   0.309 -0.5366  0.0125 -0.3445
  997MOL0     C37504   0.793   3.069   0.355 -0.0548 -0.0413 -0.1441
  997MOL0     C37505   0.672   3.014   0.306 -0.6073 -0.7872  0.3771
  997MOL0     C37506   0.667   2.913   0.219  0.2241 -0.6522  0.5851
  997MOL0     O37507   0.536   2.885   0.169  0.0486 -0.4850  1.0638
  997MOL0     C37508   0.527   2.777   0.070  0.1498 -0.4317 -0.7698
  997MOL0     C37509   0.385   2.753   0.022 -0.6862 -0.2235 -0.2717
  997MOL0     C37510   0.376   2.852  -0.106  0.2601  1.1435 -0.2821
  997MOL0     C37511   0.234   2.860  -0.172  0.3336 -0.4325  1.1449
  997MOL0     C37512   0.125   2.899  -0.090  0.1574  0.8383  0.1992
  997MOL0     C37513   0.023   2.927  -0.029  0.4558 -0.0230  0.8115
  997MOL0     C37514   0.784   2.867   0.173 -0.3444  0.0571 -0.6232
  997MOL0     C37515   0.911   2.922   0.218  1.3052  0.4041  0.2124
  997MOL0     C37516   1.038   2.868   0.156  0.8190 -0.0519 -0.6800
  997MOL0     H37517   1.018   3.400   0.541 -0.1665 -4.4305  0.6732
  997MOL0     H37518   1.201   3.559   0.605 -0.5361  0.3952  0.0575
  997MOL0     H37519   1.575   3.629   0.373 -0.0765 -1.6697 -0.7075
  997MOL0     H37520   1.611   3.477   0.442  1.1824  1.4745  0.2182
  997MOL0     H37521   1.610   3.602   0.671  0.6217  2.9207  0.3665
  997MOL0     H37522   1.752   3.611   0.575  0.3276  2.4268 -2.3757
  997MOL0     H37523   1.657   3.827   0.463 -1.3426 -0.7491 -1.3519
  997MOL0     H37524   1.518   3.808   0.571  0.5193 -0.6414 -2.3890
  997MOL0     H37525   1.642   3.845   0.756 -2.2058  3.0713 -0.0079
  997MOL0     H37526   1.795   3.832   0.673  0.1699  0.6730  0.4257
  997MOL0     H37527   1.726   4.051   0.548 -0.1062  0.7732  0.1657
  997MOL0     H37528   1.742   4.056   0.723  0.0133  0.0053 -0.1403
  997MOL0     H37529   1.576   4.201   0.622  0.1430 -0.2938 -1.1672
  997MOL0     H37530   1.496   4.060   0.545 -1.3116  2.4049 -0.3433
  997MOL0     H37531   1.525   4.086   0.858  0.2019  2.2472  0.6895
  997MOL0     H37532   1.401   3.989   0.772  1.1462 -0.6498 -0.3160
  997MOL0     H37533   1.299   4.205   0.855 -0.0582 -0.5661  0.0693
  997MOL0     H37534   1.399   4.301   0.760 -2.7166  2.4967  1.7632
  997MOL0     H37535   1.122   4.039   0.740  2.7646 -0.5518  0.7118
  997MOL0     H37536   0.984   4.007   0.368  3.0099 -0.6470 -0.5505
  997MOL0     H37537   0.950   3.960   0.537 -1.0630 -0.2189 -0.5710
  997MOL0     H37538   1.121   3.782   0.530  0.4686 -0.5827 -0.0919
  997MOL0     H37539   0.990   3.758   0.409 -0.1368  1.1798  0.0005
  997MOL0     H37540   1.278   3.852   0.399  0.0334  1.5361 -1.2897
  997MOL0     H37541   1.218   3.716   0.316  1.8959 -0.3949  3.5954
  997MOL0     H37542   1.084   3.881   0.165  1.0492  0.2778 -0.6474
  997MOL0     H37543   1.174   4.013   0.244  2.7209 -0.1062 -0.4183
  997MOL0     H37544   1.504   3.745   0.093  2.6501 -1.2380  1.4112
  997MOL0     H37545   1.727   3.714   0.052  0.0062  0.0928 -0.4172
  997MOL0     H37546   1.789   3.731   0.212 -2.0181 -2.7687 -2.1222
  997MOL0     H37547   1.839   3.839   0.086 -0.2119 -0.7168  0.0084
  997MOL0     H37548   1.967   4.133   0.486  0.1413 -0.9166 -0.6548
  997MOL0     H37549   2.177   4.253   0.565 -0.3199 -1.1217 -0.4474
  997MOL0     H37550   2.459   4.500   0.463 -0.1244  0.3228  0.1761
  997MOL0     H37551   2.373   4.333   0.449  0.2756  0.4686  1.9662
  997MOL0     H37552   2.508   4.351   0.261 -0.1775 -0.5580 -0.6849
  997MOL0     H37553   2.342   4.376   0.214 -0.0607 -3.0403  0.7250
  997MOL0     H37554   2.567   4.596   0.238 -1.5730  3.3371  0.0510
  997MOL0     H37555   2.401   4.639   0.251 -0.5832 -1.6129  1.9093
  997MOL0     H37556   2.363   4.613   0.026 -1.2846 -1.4793 -0.2656
  997MOL0     H37557   2.447   4.474   0.003 -3.3769  0.1428 -0.2739
  997MOL0     H37558   2.594   4.734   0.045  0.7643  2.2299 -1.8921
  997MOL0     H37559   2.669   4.574   0.018 -0.5025  0.8063 -0.2702
  997MOL0     H37560   2.499   4.710  -0.176 -0.4954  0.2590 -0.0707
  997MOL0     H37561   2.556   4.548  -0.203 -3.2525  1.3691 -0.3949
  997MOL0     H37562   2.808   4.646  -0.168  0.3139  0.1209 -1.2336
  997MOL0     H37563   2.728   4.800  -0.174 -1.3996  1.1095 -0.0494
  997MOL0     H37564   2.649   4.788  -0.383 -0.9166 -0.5731  1.7676
  997MOL0     H37565   2.651   4.610  -0.400 -0.2016 -0.7868  0.0260
  997MOL0     H37566   2.104   4.530   0.233  0.5442  0.8386 -0.3980
  997MOL0     H37567   1.898   4.432   0.194 -0.3717 -1.4688 -0.6931
  997MOL0     H37568   1.562   4.189   0.299 -1.1567  2.4721 -5.1548
  997MOL0     H37569   1.351   4.133   0.243 -0.0960  1.2473 -5.5031
  997MOL0     H37570   1.478   3.326   0.378  0.0548 -1.2338 -1.9028
  997MOL0     H37571   1.297   3.160   0.338 -3.6662  0.0216 -2.4602
  997MOL0     H37572   0.796   3.147   0.430  0.0382  0.1048 -0.3000
  997MOL0     H37573   0.582   3.060   0.344 -0.5539  1.5751 -2.1153
  997MOL0     H37574   0.587   2.801  -0.018  2.0030  1.3690  0.8889
  997MOL0     H37575   0.578   2.689   0.110  0.0516  0.1507  0.6895
  997MOL0     H37576   0.315   2.766   0.105 -0.3950  0.2350 -0.0889
  997MOL0     H37577   0.396   2.651  -0.014  0.0026 -0.3600  0.2861
  997MOL0     H37578   0.413   2.948  -0.070  1.0762  1.0498 -0.8438
  997MOL0     H37579   0.443   2.824  -0.188 -0.5170 -0.1746 -0.5015
  997MOL0     H37580   0.215   2.767  -0.227 -0.0479 -0.1699  0.8345
  997MOL0     H37581   0.251   2.944  -0.239  0.4838 -0.4682  1.1357
  997MOL0     H37582  -0.061   2.969   0.022 -0.3476  0.0276 -0.5196
  997MOL0     H37583   0.781   2.781   0.106 -0.9489 -0.2489 -0.2201
  997MOL0     H37584   1.003   2.797   0.080  1.1749 -2.2839  1.1347
  997MOL0     H37585   1.105   2.944   0.115 -3.3162  4.9839  0.8781
  997MOL0     H37586   1.086   2.804   0.230  1.7319 -0.7002 -1.7935
  998MOL0     O37587   0.520   7.509   7.366 -0.1132  0.2799  0.5768
  998MOL0     C37588   0.482   7.618   7.393  0.5960 -0.1815 -0.7311
  998MOL0     O37589   0.570   7.727   7.428 -0.0376 -0.0820  0.2345
  998MOL0     C37590   0.699   7.697   7.419 -0.2520  0.1218 -0.1765
  998MOL0     C37591   0.773   7.654   7.301 -0.1817  0.0529  0.6348
  998MOL0     C37592   0.912   7.634   7.299  0.1874 -0.5158 -0.1390
  998MOL0     C37593   0.988   7.649   7.421 -0.1670 -0.2497 -0.1363
  998MOL0     O37594   1.125   7.633   7.423  0.2072  0.3838  0.0228
  998MOL0     C37595   1.189   7.644   7.545 -0.1022 -1.1561 -0.0136
  998MOL0     C37596   1.337   7.611   7.520 -0.6868  0.4232 -0.5382
  998MOL0     C37597   1.439   7.627   7.633  0.5288  0.2553 -0.8939
  998MOL0     C37598   1.580   7.599   7.573  0.1853 -0.8716 -0.6414
  998MOL0     C37599   1.695   7.586   7.671 -0.1539 -0.0028  0.3793
  998MOL0     C37600   1.827   7.594   7.589 -0.4781  0.4854  0.8528
  998MOL0     C37601   1.945   7.564   7.684  1.0152 -0.0928  0.9396
  998MOL0     C37602   2.058   7.496   7.603  0.0122  0.7757 -0.1885
  998MOL0     N37603   2.179   7.454   7.679  0.2373  0.0000  0.0978
  998MOL0     C37604   2.222   7.322   7.699  1.1715 -0.4461  0.0968
  998MOL0     C37605   2.351   7.336   7.746 -0.5968  1.1348  0.6879
  998MOL0     C37606   2.430   7.213   7.798  0.0558 -0.9676 -0.2957
  998MOL0     C37607   2.572   7.254   7.800 -0.9309  0.1577 -0.3983
  998MOL0     C37608   2.666   7.138   7.822 -0.3360 -0.3126  0.1662
  998MOL0     C37609   2.810   7.163   7.764 -0.1267  1.0597  0.6929
  998MOL0     O37610   2.889   7.082   7.848 -0.2282 -0.1623 -0.7316
  998MOL0     C37611   3.026   7.061   7.805  0.5277 -0.7427 -0.5288
  998MOL0     C37612   3.099   6.975   7.887  1.3114 -0.7990 -0.3497
  998MOL0     C37613   3.231   6.939   7.860 -0.0997  0.2024  0.0340
  998MOL0     C37614   3.294   6.846   7.959  0.7054  0.1530 -0.5609
  998MOL0     C37615   3.305   6.991   7.752  1.0139 -0.6294 -0.1574
  998MOL0     C37616   3.442   6.960   7.721  0.8257  0.5445 -0.8559
  998MOL0     O37617   3.545   6.947   7.816  0.1179  0.5511  0.7400
  998MOL0     C37618   3.674   6.941   7.764  0.3727 -1.0287 -0.3416
  998MOL0     C37619   3.743   6.824   7.774 -0.0713 -0.1673 -0.9679
  998MOL0     C37620   3.879   6.810   7.746 -0.2198 -0.4595 -0.4931
  998MOL0     C37621   3.934   6.917   7.670 -1.7514 -0.4618 -0.5223
  998MOL0     O37622   4.071   6.917   7.641  0.2447 -0.3165  0.5000
  998MOL0     C37623   4.167   6.850   7.717 -0.3908 -1.0289 -0.5388
  998MOL0     C37624   4.210   6.933   7.835  0.7540  0.2854  0.8238
  998MOL0     C37625   4.278   7.058   7.773  0.6835  0.5268 -0.1672
  998MOL0     C37626   4.340   7.144   7.879  0.5748 -0.3777 -0.2048
  998MOL0     C37627   4.394   7.281   7.839  0.2415  0.4899  0.0175
  998MOL0     C37628   4.510   7.269   7.725  0.1719  0.4120 -0.5378
  998MOL0     C37629   4.631   7.182   7.775 -0.8305 -0.0901  0.2145
  998MOL0     C37630   4.685   7.219   7.911  0.4592  0.1975 -0.4818
  998MOL0    Cl37631   4.843   7.145   7.933  0.2484  0.0204 -0.5727
  998MOL0     C37632   3.862   7.036   7.645  0.0477  0.6018  0.6017
  998MOL0     C37633   3.738   7.049   7.705  0.6872  0.6903  0.4152
  998MOL0     O37634   3.458   6.930   7.603 -0.2239  0.0087  0.4260
  998MOL0     C37635   3.220   7.066   7.662 -0.1672  0.2797  0.0131
  998MOL0     C37636   3.087   7.103   7.690  0.0116 -0.0919  0.1280
  998MOL0     N37637   2.387   7.467   7.750 -0.2392  0.0601  0.5812
  998MOL0     N37638   2.286   7.537   7.701 -0.2585 -0.0312  0.1633
  998MOL0     C37639   0.918   7.691   7.535  0.5572  0.1403 -0.1001
  998MOL0     C37640   0.776   7.715   7.539  0.5404  0.2997  0.5554
  998MOL0     C37641   0.339   7.660   7.375 -0.3604 -0.0114 -0.4024
  998MOL0     C37642   0.303   7.791   7.398 -0.7753 -0.2812  0.4309
  998MOL0     C37643   0.177   7.840   7.377  0.2589  0.4140 -0.4852
  998MOL0     C37644   0.074   7.752   7.331 -0.2388  0.7290 -0.2521
  998MOL0     O37645  -0.044   7.805   7.279  0.7642 -0.6128 -0.5409
  998MOL0     C37646  -0.079   7.759   7.149 -0.3133  0.1736  0.0149
  998MOL0     C37647  -0.150   7.877   7.078 -0.3670 -0.1532  0.0278
  998MOL0     C37648  -0.053   7.997   7.089  0.4562 -0.0605  0.1161
  998MOL0     C37649  -0.103   8.122   7.027  0.0315 -0.2059  0.8317
  998MOL0     C37650  -0.032   8.238   7.086  0.2782 -0.0433  0.3333
  998MOL0     C37651   0.009   8.339   7.137  0.4979 -0.9297 -0.2307
  998MOL0     C37652   0.107   7.614   7.314  0.1501  0.2961  0.1900
  998MOL0     C37653   0.236   7.568   7.340 -1.3364  0.1063  0.4232
  998MOL0     C37654   0.268   7.424   7.305  0.0179 -0.1259 -0.5376
  998MOL0     H37655   0.719   7.638   7.209 -0.2172 -0.6719  0.7733
  998MOL0     H37656   0.962   7.590   7.213 -4.1314  0.1738 -3.3299
  998MOL0     H37657   1.147   7.586   7.628 -1.0395  2.6981  2.4594
  998MOL0     H37658   1.179   7.751   7.566  2.1819 -0.7645 -0.5762
  998MOL0     H37659   1.336   7.506   7.491  2.5570  0.4122 -1.0164
  998MOL0     H37660   1.367   7.673   7.435 -0.4501  2.1511  0.7427
  998MOL0     H37661   1.437   7.726   7.680  0.4377 -0.6738  1.1672
  998MOL0     H37662   1.402   7.555   7.708  2.9533  1.5403  1.7320
  998MOL0     H37663   1.572   7.512   7.506 -0.1467  0.8040 -2.9138
  998MOL0     H37664   1.602   7.677   7.500 -0.7613 -2.0801 -2.2928
  998MOL0     H37665   1.665   7.494   7.722 -1.9426 -0.5278 -1.4839
  998MOL0     H37666   1.686   7.666   7.745 -0.4193  0.9273 -0.6423
  998MOL0     H37667   1.832   7.524   7.505 -1.3324  2.1111 -0.6257
  998MOL0     H37668   1.844   7.687   7.534  0.1468 -1.7309 -3.0642
  998MOL0     H37669   1.908   7.492   7.758  0.0247  1.4373  1.9940
  998MOL0     H37670   1.984   7.658   7.724 -2.2131  2.4601 -1.3904
  998MOL0     H37671   2.033   7.406   7.547  0.0157  1.1909 -0.8753
  998MOL0     H37672   2.087   7.570   7.528 -1.6360  1.3594 -0.2915
  998MOL0     H37673   2.157   7.236   7.701 -1.0734  1.1597  0.4009
  998MOL0     H37674   2.406   7.127   7.735 -0.3733 -0.4626 -0.8339
  998MOL0     H37675   2.392   7.192   7.899  1.4627 -2.2836 -0.0042
  998MOL0     H37676   2.599   7.302   7.706 -1.0629  0.1483 -0.4398
  998MOL0     H37677   2.595   7.336   7.869 -0.3984  1.0172 -1.5600
  998MOL0     H37678   2.674   7.121   7.929 -0.7682 -0.4133  0.1847
  998MOL0     H37679   2.629   7.045   7.779  1.9258 -0.3738 -1.8661
  998MOL0     H37680   2.824   7.126   7.663  2.1291 -0.9326  1.6644
  998MOL0     H37681   2.841   7.268   7.763  1.3958  0.6306 -0.6851
  998MOL0     H37682   3.052   6.928   7.973  1.0640 -1.6437 -0.9345
  998MOL0     H37683   3.225   6.790   8.022  0.8525  0.4819 -0.1000
  998MOL0     H37684   3.337   6.911   8.036 -0.2348  1.0895 -0.8033
  998MOL0     H37685   3.353   6.767   7.912  0.0167 -0.6164 -0.1541
  998MOL0     H37686   3.684   6.744   7.819 -1.2539  1.3419  0.2825
  998MOL0     H37687   3.937   6.720   7.762  2.3951  0.9638 -1.4145
  998MOL0     H37688   4.131   6.750   7.745  1.2635 -1.0532  1.9150
  998MOL0     H37689   4.254   6.839   7.653 -0.6087 -2.7691 -0.5875
  998MOL0     H37690   4.117   6.966   7.884  0.5836  0.2470  0.5258
  998MOL0     H37691   4.278   6.874   7.897  0.7981 -1.3148 -0.6665
  998MOL0     H37692   4.202   7.107   7.711 -2.6452 -1.5785  1.9514
  998MOL0     H37693   4.356   7.022   7.704  2.0025  0.9958  1.0257
  998MOL0     H37694   4.419   7.076   7.912  0.1912 -1.0244 -0.5982
  998MOL0     H37695   4.270   7.156   7.963  1.6844 -3.0894  1.2404
  998MOL0     H37696   4.314   7.337   7.790  0.2646 -0.0095 -0.6009
  998MOL0     H37697   4.427   7.334   7.929 -0.9420 -1.3373  1.5997
  998MOL0     H37698   4.544   7.368   7.694 -0.8495  0.7574 -0.6058
  998MOL0     H37699   4.460   7.218   7.642 -0.2605  1.6445 -1.0490
  998MOL0     H37700   4.706   7.188   7.695 -1.8301  0.1545 -0.7204
  998MOL0     H37701   4.607   7.076   7.781 -2.1758  0.2758  2.0356
  998MOL0     H37702   4.613   7.191   7.989  0.0256 -0.1918 -1.0200
  998MOL0     H37703   4.700   7.327   7.915 -1.4637  0.5193 -0.8416
  998MOL0     H37704   3.903   7.124   7.597  0.8556 -1.6486 -3.2293
  998MOL0     H37705   3.684   7.142   7.694 -1.2342 -0.1493  2.0570
  998MOL0     H37706   3.264   7.089   7.565 -0.3812 -2.7242 -0.9018
  998MOL0     H37707   3.035   7.165   7.617  1.9619 -1.2825 -2.4261
  998MOL0     H37708   0.968   7.709   7.630 -0.0891  4.0438 -0.3328
  998MOL0     H37709   0.718   7.733   7.629 -0.5800 -0.4193  0.0074
  998MOL0     H37710   0.374   7.871   7.418 -0.7294  0.0640 -0.9750
  998MOL0     H37711   0.158   7.946   7.390 -1.6975 -0.1600  2.3206
  998MOL0     H37712   0.012   7.725   7.099  1.2110  1.7878  1.5159
  998MOL0     H37713  -0.156   7.683   7.162  0.2889 -0.1833  1.8368
  998MOL0     H37714  -0.241   7.897   7.135 -1.4085 -1.2329 -1.2118
  998MOL0     H37715  -0.190   7.862   6.977 -1.4184  2.2630  0.0158
  998MOL0     H37716  -0.044   8.022   7.195  0.4153 -1.5607  0.4830
  998MOL0     H37717   0.046   7.957   7.064  0.4593  0.3593 -0.5762
  998MOL0     H37718  -0.210   8.128   7.050  0.1369  2.4645  1.0207
  998MOL0     H37719  -0.079   8.124   6.920 -1.4355 -1.4609  0.4507
  998MOL0     H37720   0.057   8.426   7.177  2.4369 -0.3925 -3.3337
  998MOL0     H37721   0.037   7.548   7.264  2.4739 -0.0953 -2.7853
  998MOL0     H37722   0.333   7.373   7.377  0.5442 -0.9641 -1.5886
  998MOL0     H37723   0.176   7.366   7.295 -1.6092  1.8582  1.4850
  998MOL0     H37724   0.316   7.432   7.208 -0.3895  2.8508 -0.6109
  999MOL0     O37725   5.625  10.711   3.246 -0.6914 -0.3324 -0.0527
  999MOL0     C37726   5.571  10.615   3.189  0.8857  0.0702 -0.6181
  999MOL0     O37727   5.635  10.493   3.176  0.1220 -0.3343 -0.2408
  999MOL0     C37728   5.765  10.474   3.215  0.4905 -0.2534  0.4690
  999MOL0     C37729   5.845  10.395   3.134  0.3212  0.2016 -0.9382
  999MOL0     C37730   5.966  10.350   3.187 -0.7028 -0.3303  0.0258
  999MOL0     C37731   6.012  10.391   3.309  0.5713 -0.2120  0.2016
  999MOL0     O37732   6.141  10.354   3.338 -0.8045 -0.5904 -0.2485
  999MOL0     C37733   6.188  10.393   3.469 -0.3951  0.3045  0.7462
  999MOL0     C37734   6.311  10.307   3.504 -0.5814  0.6888  0.4008
  999MOL0     C37735   6.431  10.354   3.407 -1.2863  0.1261 -0.6220
  999MOL0     C37736   6.555  10.258   3.417 -0.2507 -0.5472  0.2403
  999MOL0     C37737   6.680  10.301   3.328 -0.6555  0.0212  0.3146
  999MOL0     C37738   6.813  10.246   3.388  0.4419  0.1162 -0.3630
  999MOL0     C37739   6.935  10.247   3.290  0.5670  0.3003  0.0953
  999MOL0     C37740   7.068  10.207   3.355 -0.4982  0.6237  0.0302
  999MOL0     N37741   7.127  10.314   3.434  0.3579 -0.0722  0.1137
  999MOL0     C37742   7.206  10.414   3.375  0.3104  0.0472  0.5888
  999MOL0     C37743   7.273  10.470   3.475  0.5641 -0.3891 -0.2208
  999MOL0     C37744   7.346  10.597   3.461 -0.0276  0.3150  1.2193
  999MOL0     C37745   7.495  10.566   3.462  0.2477  0.5909 -0.7035
  999MOL0     C37746   7.549  10.565   3.611  0.7349 -0.0295  0.8004
  999MOL0     C37747   7.697  10.568   3.626 -0.2287 -0.4162 -0.2324
  999MOL0     O37748   7.752  10.456   3.551  0.1085  0.0791 -0.8338
  999MOL0     C37749   7.880  10.419   3.590 -0.2527  0.2035 -0.8351
  999MOL0     C37750   7.934  10.316   3.508  0.2951  0.0195  0.1118
  999MOL0     C37751   8.068  10.266   3.527  0.1699 -0.1127 -0.6373
  999MOL0     C37752   8.102  10.152   3.430 -0.9443 -0.2085  0.5384
  999MOL0     C37753   8.149  10.319   3.629  0.4233  0.6426  0.4215
  999MOL0     C37754   8.292  10.287   3.649 -0.1736  0.1689 -0.7065
  999MOL0     O37755   8.373  10.375   3.718  0.0028  0.7635  0.2449
  999MOL0     C37756   8.506  10.338   3.744 -0.5691  0.5795  0.2931
  999MOL0     C37757   8.544  10.262   3.853  0.1348  0.8179  0.4017
  999MOL0     C37758   8.673  10.228   3.888  0.1961  0.5863  0.0257
  999MOL0     C37759   8.777  10.272   3.811 -0.6580  0.3351 -0.6197
  999MOL0     O37760   8.910  10.257   3.824  0.1812 -0.4100 -0.4787
  999MOL0     C37761   8.948  10.195   3.941 -0.3463  0.1263  0.4149
  999MOL0     C37762   9.076  10.114   3.924 -0.4395  0.5817 -0.3694
  999MOL0     C37763   9.190  10.205   3.872 -1.0930 -0.0745 -1.1902
  999MOL0     C37764   9.234  10.288   3.993  0.8284  0.2374 -0.6076
  999MOL0     C37765   9.325  10.400   3.933  0.2015 -0.5937  0.2142
  999MOL0     C37766   9.390  10.478   4.045 -0.0427 -0.2749 -0.0889
  999MOL0     C37767   9.474  10.601   4.000  0.3445 -0.4848 -1.4006
  999MOL0     C37768   9.561  10.580   3.874 -0.5235  0.5797  0.6348
  999MOL0    Cl37769   9.631  10.740   3.815  0.4254  0.4694 -0.0666
  999MOL0     C37770   8.747  10.356   3.704  0.7109  0.6577 -0.5082
  999MOL0     C37771   8.613  10.382   3.668  0.4192 -0.1988 -0.2247
  999MOL0     O37772   8.330  10.180   3.607  0.6863 -0.2828 -0.0203
  999MOL0     C37773   8.095  10.415   3.708  0.2119 -0.3296  0.2484
  999MOL0     C37774   7.968  10.465   3.693 -0.1137  0.5523  0.4464
  999MOL0     N37775   7.239  10.400   3.596 -0.5043 -0.1835  0.3835
  999MOL0     N37776   7.150  10.304   3.569 -0.1456 -0.2776  0.6407
  999MOL0     C37777   5.926  10.462   3.394 -0.3647  0.1243 -0.2794
  999MOL0     C37778   5.803  10.499   3.347 -1.1624  0.6726 -0.9300
  999MOL0     C37779   5.426  10.635   3.145 -0.2531 -0.0869  0.2340
  999MOL0     C37780   5.348  10.722   3.218  0.1142  0.1889  0.0656
  999MOL0     C37781   5.215  10.752   3.185 -0.2414  0.3214 -0.1991
  999MOL0     C37782   5.164  10.698   3.068 -0.2911 -0.6056  0.1336
  999MOL0     O37783   5.041  10.736   3.011 -0.2337 -0.4874 -0.2789
  999MOL0     C37784   5.020  10.881   2.984  0.4211 -0.8395 -0.0578
  999MOL0     C37785   4.881  10.930   3.034  0.0964 -0.4839 -0.6319
  999MOL0     C37786   4.766  10.834   3.012 -0.4916  0.2933  0.5216
  999MOL0     C37787   4.629  10.880   3.051 -1.8236  0.1895 -0.4272
  999MOL0     C37788   4.599  11.006   2.975 -0.5717  0.5963 -0.8835
  999MOL0     C37789   4.555  11.110   2.922  0.3262  0.1653  0.4746
  999MOL0     C37790   5.247  10.624   2.989  0.0622 -0.0207 -0.1890
  999MOL0     C37791   5.379  10.597   3.016  0.4351  0.3155 -0.9404
  999MOL0     C37792   5.463  10.523   2.910 -0.7415  0.3230  0.0867
  999MOL0     H37793   5.808  10.352   3.042  1.3834 -2.3829 -0.2462
  999MOL0     H37794   6.025  10.286   3.123 -0.1992  0.0535  0.1043
  999MOL0     H37795   6.124  10.353   3.548  0.0808 -3.6134 -0.6145
  999MOL0     H37796   6.205  10.501   3.477  4.9435 -0.0377 -1.7429
  999MOL0     H37797   6.334  10.315   3.610  2.2330 -0.9641  0.0331
  999MOL0     H37798   6.296  10.200   3.483  2.6859  0.1596  0.1569
  999MOL0     H37799   6.396  10.332   3.306  0.6026 -2.6934 -0.7811
  999MOL0     H37800   6.459  10.459   3.418 -0.4383 -0.3169  2.3410
  999MOL0     H37801   6.588  10.237   3.519  0.3051  0.4406  0.2737
  999MOL0     H37802   6.509  10.167   3.377 -1.4663 -0.1695  0.7420
  999MOL0     H37803   6.690  10.408   3.308  0.7819 -0.2568 -0.6050
  999MOL0     H37804   6.674  10.255   3.229 -0.8377 -3.0596  1.6439
  999MOL0     H37805   6.853  10.301   3.474  0.2254  0.3463 -0.4059
  999MOL0     H37806   6.798  10.150   3.436 -3.7013  2.1857  3.1749
  999MOL0     H37807   6.944  10.348   3.247  0.4274  0.8458  1.3183
  999MOL0     H37808   6.910  10.174   3.212 -1.5988  0.5375  0.5047
  999MOL0     H37809   7.050  10.118   3.416 -2.4261  0.8339 -0.1663
  999MOL0     H37810   7.137  10.197   3.271  1.1566  2.3284  1.1134
  999MOL0     H37811   7.196  10.450   3.273 -0.9363  1.0688  1.0491
  999MOL0     H37812   7.320  10.667   3.542  0.7904  2.1392 -0.0181
  999MOL0     H37813   7.318  10.649   3.369 -2.0030 -2.8911 -0.1693
  999MOL0     H37814   7.524  10.469   3.422  3.1458  0.8819  0.4824
  999MOL0     H37815   7.539  10.649   3.407  0.4079  1.5102  0.7517
  999MOL0     H37816   7.505  10.651   3.663 -1.2381 -0.9034  0.6833
  999MOL0     H37817   7.506  10.477   3.660 -1.7189  0.6363 -0.0112
  999MOL0     H37818   7.720  10.668   3.586  1.0461  0.4103  2.3771
  999MOL0     H37819   7.720  10.561   3.732 -0.3360  1.4755 -0.0568
  999MOL0     H37820   7.874  10.272   3.429  0.9426  1.4048 -1.1945
  999MOL0     H37821   8.093  10.061   3.490 -2.5461 -0.2380  0.3001
  999MOL0     H37822   8.202  10.156   3.388 -0.4468 -2.0996  1.4298
  999MOL0     H37823   8.034  10.159   3.345 -0.1611 -1.8355 -0.2578
  999MOL0     H37824   8.455  10.230   3.906 -0.3899  0.7471 -0.5169
  999MOL0     H37825   8.676  10.168   3.978  0.4151  1.5139  0.6428
  999MOL0     H37826   8.952  10.277   4.013  4.3522  2.0973 -1.6757
  999MOL0     H37827   8.881  10.113   3.969 -0.0705 -0.9713 -1.8711
  999MOL0     H37828   9.106  10.077   4.023 -1.0189  2.0347  0.3786
  999MOL0     H37829   9.058  10.030   3.856  1.9518 -1.1070  0.9204
  999MOL0     H37830   9.160  10.271   3.790 -1.2742  2.1434  0.5726
  999MOL0     H37831   9.276  10.141   3.849  0.5839  0.7095  2.3003
  999MOL0     H37832   9.285  10.227   4.068 -0.3525 -0.5194 -0.3940
  999MOL0     H37833   9.147  10.336   4.041 -0.3220 -0.0836 -2.3034
  999MOL0     H37834   9.404  10.349   3.877 -1.1518 -0.7105 -1.6732
  999MOL0     H37835   9.270  10.471   3.872  1.9588  1.2310  0.6585
  999MOL0     H37836   9.446  10.413   4.113 -0.5441  0.0056  0.6043
  999MOL0     H37837   9.306  10.510   4.108  0.9519 -1.9669  2.2803
  999MOL0     H37838   9.539  10.635   4.080 -0.8762 -0.7472 -0.2557
  999MOL0     H37839   9.418  10.686   3.960  1.8250 -0.0059 -2.5403
  999MOL0     H37840   9.502  10.541   3.791  0.4528  0.4149 -0.0019
  999MOL0     H37841   9.650  10.520   3.893 -1.3453 -1.2009 -0.8494
  999MOL0     H37842   8.831  10.388   3.643 -0.2703 -0.0393 -2.3186
  999MOL0     H37843   8.602  10.445   3.580  0.0839 -0.2199 -0.2008
  999MOL0     H37844   8.148  10.462   3.790 -0.1150 -0.1486  0.3596
  999MOL0     H37845   7.939  10.546   3.758 -4.2094 -0.6855  0.4661
  999MOL0     H37846   5.959  10.494   3.493 -0.5704  1.7400 -0.7176
  999MOL0     H37847   5.744  10.559   3.416  0.3127  0.8043  0.2704
  999MOL0     H37848   5.379  10.768   3.312  2.3206 -1.3544  0.1466
  999MOL0     H37849   5.155  10.825   3.237  0.0135  0.7870 -0.5468
  999MOL0     H37850   5.097  10.948   3.023  0.9667 -0.8529 -1.0934
  999MOL0     H37851   5.023  10.905   2.878 -3.4869  2.3099  0.2910
  999MOL0     H37852   4.870  11.030   2.990 -2.1429 -1.4489 -2.4201
  999MOL0     H37853   4.882  10.934   3.143 -3.0244  2.5762 -0.5260
  999MOL0     H37854   4.765  10.803   2.907  3.8381  0.6886  0.1696
  999MOL0     H37855   4.794  10.744   3.067  0.0773  1.4533  2.2025
  999MOL0     H37856   4.623  10.910   3.155 -0.8258  0.1296 -0.3488
  999MOL0     H37857   4.548  10.813   3.019 -1.0662 -0.7475 -0.4090
  999MOL0     H37858   4.530  11.202   2.874  3.2527  1.7580  1.7447
  999MOL0     H37859   5.196  10.605   2.894 -0.9677 -1.6717  0.6513
  999MOL0     H37860   5.460  10.597   2.829  0.4408  1.6041  1.1713
  999MOL0     H37861   5.565  10.507   2.944 -0.6777 -1.0010 -0.6545
  999MOL0     H37862   5.421  10.425   2.883 -0.1366 -0.7383  2.7106
 1000MOL0     O37863  10.889   2.137   0.846  0.3916 -0.1565 -0.2723
 1000MOL0     C37864  10.803   2.070   0.798  0.9881 -0.2176  0.1235
 1000MOL0     O37865  10.817   1.967   0.712 -0.1443 -0.1315 -0.1914
 1000MOL0     C37866  10.946   1.936   0.665  0.0489 -0.1926 -0.3408
 1000MOL0     C37867  10.967   1.925   0.525  0.0172 -0.6325 -0.7296
 1000MOL0     C37868  11.090   1.910   0.465 -0.0280  0.3047 -0.7047
 1000MOL0     C37869  11.203   1.891   0.555  0.6161  0.3030  0.4272
 1000MOL0     O37870  11.307   1.820   0.505 -0.2847 -0.2024 -0.4438
 1000MOL0     C37871  11.434   1.855   0.567 -0.6962 -0.4360  0.0511
 1000MOL0     C37872  11.554   1.791   0.495  0.4983 -0.3000 -0.3838
 1000MOL0     C37873  11.689   1.850   0.546 -0.6067  0.0654  0.0644
 1000MOL0     C37874  11.813   1.772   0.478  0.4272 -0.1193 -0.1364
 1000MOL0     C37875  11.937   1.789   0.555  0.3215 -0.4238  0.0151
 1000MOL0     C37876  12.061   1.716   0.486 -0.3457 -0.3788  0.8122
 1000MOL0     C37877  12.156   1.679   0.614 -0.1595 -0.0318 -0.0815
 1000MOL0     C37878  12.295   1.669   0.542 -0.7088 -0.1795 -0.2129
 1000MOL0     N37879  12.393   1.593   0.625 -0.0514 -0.3554 -0.3730
 1000MOL0     C37880  12.411   1.602   0.763  0.4924  0.7759 -0.3929
 1000MOL0     C37881  12.521   1.533   0.791  0.6694  0.4014 -0.0616
 1000MOL0     C37882  12.579   1.536   0.929 -0.0968 -0.1864 -0.6721
 1000MOL0     C37883  12.664   1.655   0.959  0.0682  0.0126  0.2684
 1000MOL0     C37884  12.735   1.650   1.102  0.4269  0.1804 -1.5061
 1000MOL0     C37885  12.864   1.740   1.125 -0.1842 -0.8892 -0.0366
 1000MOL0     O37886  12.956   1.742   1.015  0.8869  0.9464 -0.0902
 1000MOL0     C37887  13.085   1.762   1.049 -0.4234 -0.3434 -1.6294
 1000MOL0     C37888  13.128   1.894   1.065 -0.7130 -0.1138 -0.7944
 1000MOL0     C37889  13.253   1.926   1.108  0.4158 -0.8395 -0.6150
 1000MOL0     C37890  13.272   2.068   1.151  0.0332 -0.6798  0.4527
 1000MOL0     C37891  13.348   1.823   1.145  0.1880 -0.6244 -0.7465
 1000MOL0     C37892  13.486   1.848   1.203 -0.1436 -0.0821 -0.0870
 1000MOL0     O37893  13.570   1.745   1.192  0.2007 -0.4065 -0.4293
 1000MOL0     C37894  13.683   1.736   1.263 -0.5277 -1.0542  1.0867
 1000MOL0     C37895  13.803   1.719   1.186  0.2579 -0.3297  0.4297
 1000MOL0     C37896  13.930   1.699   1.241  0.8236  0.1801 -0.4915
 1000MOL0     C37897  13.933   1.685   1.382 -0.3544  0.6086 -0.4181
 1000MOL0     O37898  14.056   1.643   1.432 -0.5196 -0.6062  0.5538
 1000MOL0     C37899  14.112   1.713   1.541 -0.2883  0.9270  0.0981
 1000MOL0     C37900  14.234   1.643   1.602  0.4837  0.2184 -0.7343
 1000MOL0     C37901  14.364   1.651   1.513 -0.2596  0.8696 -1.6405
 1000MOL0     C37902  14.479   1.558   1.573 -0.1799  0.3664  0.5455
 1000MOL0     C37903  14.452   1.409   1.583  0.7445  0.4635  0.1147
 1000MOL0     C37904  14.476   1.351   1.444 -0.3032 -0.1977  0.1445
 1000MOL0     C37905  14.462   1.204   1.463  0.7575  0.2428  0.2625
 1000MOL0     C37906  14.470   1.124   1.332  0.4731  0.8258 -0.4309
 1000MOL0    Cl37907  14.359   0.988   1.303  0.0693 -0.0309 -0.3224
 1000MOL0     C37908  13.817   1.711   1.463  0.3633 -0.0327 -0.0294
 1000MOL0     C37909  13.686   1.731   1.399  0.1461  0.4186  0.1232
 1000MOL0     O37910  13.526   1.955   1.244  0.5639 -0.3490  0.4353
 1000MOL0     C37911  13.295   1.696   1.137 -0.0028  0.2205 -1.0883
 1000MOL0     C37912  13.174   1.660   1.086 -0.6692 -0.5232  0.6709
 1000MOL0     N37913  12.574   1.485   0.674  0.6925  0.0371  0.2273
 1000MOL0     N37914  12.493   1.517   0.582  0.8451  0.4635  1.1552
 1000MOL0     C37915  11.186   1.915   0.690 -0.8286  0.9031  0.7000
 1000MOL0     C37916  11.063   1.936   0.747  0.9138  0.1927 -0.3115
 1000MOL0     C37917  10.667   2.122   0.814 -0.7621 -0.8248  0.1205
 1000MOL0     C37918  10.567   2.031   0.860  0.3812  0.2843  0.3432
 1000MOL0     C37919  10.441   2.074   0.901 -0.6352 -0.2760 -0.3493
 1000MOL0     C37920  10.399   2.210   0.882 -0.7055 -0.0311  1.2491
 1000MOL0     O37921  10.280   2.260   0.910  0.0034 -0.9593 -0.8172
 1000MOL0     C37922  10.172   2.177   0.939 -0.4712  0.2624 -0.8948
 1000MOL0     C37923  10.051   2.242   0.888  0.5427 -0.2097 -0.7257
 1000MOL0     C37924  10.012   2.369   0.969 -0.2341 -0.0357 -0.4543
 1000MOL0     C37925   9.875   2.415   0.921 -0.7712 -0.1502 -0.7440
 1000MOL0     C37926   9.778   2.340   1.009  0.6776  0.0213  0.9409
 1000MOL0     C37927   9.700   2.277   1.078  0.4617  0.0763 -0.8131
 1000MOL0     C37928  10.491   2.293   0.817  0.1582 -0.3602  0.3832
 1000MOL0     C37929  10.624   2.256   0.789  0.8798  0.7773 -0.1388
 1000MOL0     C37930  10.722   2.354   0.731  0.3240 -0.1808 -0.4346
 1000MOL0     H37931  10.878   1.929   0.463  0.2333  2.9685 -1.0551
 1000MOL0     H37932  11.101   1.898   0.358 -0.7309  1.0450 -0.8690
 1000MOL0     H37933  11.442   1.823   0.671  1.6353  2.3991  0.8754
 1000MOL0     H37934  11.453   1.962   0.571  1.9005 -0.7384 -1.7138
 1000MOL0     H37935  11.552   1.683   0.509  0.4042 -0.1375  0.9708
 1000MOL0     H37936  11.544   1.808   0.387 -1.1301 -3.1166 -0.7563
 1000MOL0     H37937  11.689   1.954   0.511  0.5893 -0.4478 -1.5599
 1000MOL0     H37938  11.707   1.856   0.654  3.1613 -0.8287 -0.3719
 1000MOL0     H37939  11.795   1.666   0.459  0.3538 -0.4929  1.7569
 1000MOL0     H37940  11.822   1.822   0.381  0.9440  0.0417 -0.0075
 1000MOL0     H37941  11.919   1.741   0.652  1.7685  1.8130  1.4978
 1000MOL0     H37942  11.955   1.895   0.577 -1.0012 -0.1028 -0.3320
 1000MOL0     H37943  12.025   1.626   0.436  1.9202 -1.1463  0.4787
 1000MOL0     H37944  12.109   1.773   0.406 -3.2454 -0.0947 -0.8820
 1000MOL0     H37945  12.115   1.582   0.642  3.4349 -1.4702  0.7427
 1000MOL0     H37946  12.151   1.756   0.691  1.4392 -2.0713  2.1958
 1000MOL0     H37947  12.290   1.631   0.439  0.3419 -2.5734  0.5529
 1000MOL0     H37948  12.335   1.770   0.541  0.6427 -0.6945  0.4701
 1000MOL0     H37949  12.353   1.670   0.824 -0.1778  0.0341 -0.1881
 1000MOL0     H37950  12.636   1.443   0.944  1.4772  0.7251 -0.7808
 1000MOL0     H37951  12.502   1.525   1.006 -0.3752 -3.0037 -1.2402
 1000MOL0     H37952  12.739   1.679   0.883 -1.2130  5.2268  0.3048
 1000MOL0     H37953  12.593   1.737   0.948  0.2363 -0.0209 -1.2814
 1000MOL0     H37954  12.662   1.663   1.183  2.5360  0.2421  0.5105
 1000MOL0     H37955  12.769   1.548   1.119  0.4689  0.0380 -2.4454
 1000MOL0     H37956  12.837   1.845   1.138 -1.5300 -1.0897 -0.9888
 1000MOL0     H37957  12.921   1.711   1.214 -0.1354  2.6570  1.2192
 1000MOL0     H37958  13.059   1.972   1.034  0.9985  0.8925 -2.2432
 1000MOL0     H37959  13.355   2.101   1.088 -0.6243  1.7899  0.7546
 1000MOL0     H37960  13.303   2.086   1.255  2.1159  1.4193 -0.4279
 1000MOL0     H37961  13.187   2.130   1.122 -2.3154 -3.9590 -0.1127
 1000MOL0     H37962  13.792   1.715   1.078  1.3342 -1.3497  0.3434
 1000MOL0     H37963  14.019   1.695   1.179 -0.1176 -2.2764 -1.7997
 1000MOL0     H37964  14.134   1.816   1.513 -1.4417  1.1217 -0.1384
 1000MOL0     H37965  14.034   1.716   1.617  0.1450 -2.0218  0.7727
 1000MOL0     H37966  14.255   1.678   1.704 -0.3629 -2.5723  0.4897
 1000MOL0     H37967  14.203   1.539   1.611 -0.4999  0.6328  1.3474
 1000MOL0     H37968  14.405   1.753   1.516  2.1793 -0.0200  1.5683
 1000MOL0     H37969  14.342   1.628   1.409 -0.6111  0.2425 -1.4333
 1000MOL0     H37970  14.491   1.582   1.679 -3.1174 -1.5464  1.4662
 1000MOL0     H37971  14.572   1.581   1.521 -0.5274  0.9090  0.1526
 1000MOL0     H37972  14.523   1.364   1.653  0.6190  0.1111  0.0208
 1000MOL0     H37973  14.354   1.371   1.614  0.4617  0.2763 -0.9640
 1000MOL0     H37974  14.579   1.373   1.412 -0.2017 -2.1069 -0.9951
 1000MOL0     H37975  14.407   1.390   1.368  0.5260  1.8680  0.3811
 1000MOL0     H37976  14.361   1.190   1.503  0.3285  1.2103 -0.4511
 1000MOL0     H37977  14.532   1.162   1.536 -2.0160 -5.1086  0.3503
 1000MOL0     H37978  14.574   1.094   1.319  0.7607  0.5662  2.0666
 1000MOL0     H37979  14.458   1.197   1.251  1.3064  1.1930 -0.2380
 1000MOL0     H37980  13.814   1.705   1.572  0.4618 -0.8844 -0.0625
 1000MOL0     H37981  13.594   1.749   1.453  1.2385  1.1394  1.8378
 1000MOL0     H37982  13.360   1.614   1.168 -1.7896 -1.8243 -2.4447
 1000MOL0     H37983  13.142   1.557   1.074  0.6973 -0.7583 -1.5372
 1000MOL0     H37984  11.274   1.918   0.754 -2.1166 -0.2469  2.6338
 1000MOL0     H37985  11.064   1.947   0.855  1.7632 -0.1343 -0.2843
 1000MOL0     H37986  10.590   1.927   0.879  3.2786  0.7043 -0.3780
 1000MOL0     H37987  10.378   2.007   0.960 -0.5696 -3.2722 -3.3783
 1000MOL0     H37988  10.176   2.077   0.894 -0.2968 -1.2562  2.2573
 1000MOL0     H37989  10.158   2.163   1.046 -0.3821  1.3452 -0.7261
 1000MOL0     H37990   9.973   2.166   0.896  1.6750 -1.4371 -1.0632
 1000MOL0     H37991  10.054   2.262   0.780 -0.6361 -0.2275 -0.7750
 1000MOL0     H37992  10.011   2.355   1.078  2.4562 -0.1851 -0.3881
 1000MOL0     H37993  10.089   2.444   0.948  0.1395 -0.8699 -2.2996
 1000MOL0     H37994   9.845   2.406   0.816 -4.5329 -0.6668  0.2028
 1000MOL0     H37995   9.870   2.524   0.930  0.7655 -0.2321  1.8685
 1000MOL0     H37996   9.629   2.234   1.146  0.1663 -0.5288 -1.4835
 1000MOL0     H37997  10.453   2.392   0.791  1.2354 -0.0782 -0.1947
 1000MOL0     H37998  10.797   2.309   0.666 -1.9035 -1.7097 -2.1137
 1000MOL0     H37999  10.673   2.426   0.664 -1.0287 -1.2380 -0.6260
 1000MOL0     H38000  10.775   2.415   0.805 -0.8852  1.3110 -0.7408
 1001MOL0     O38001   3.753   8.618   5.163 -0.2677  0.5004 -0.6456
 1001MOL0     C38002   3.673   8.600   5.074 -0.1503 -0.1154  0.9346
 1001MOL0     O38003   3.705   8.620   4.937 -0.0942 -0.7518  0.3627
 1001MOL0     C38004   3.833   8.641   4.895 -0.1423  0.4448 -1.3072
 1001MOL0     C38005   3.900   8.552   4.814 -0.4074 -0.7742 -0.1598
 1001MOL0     C38006   4.031   8.584   4.770  0.6673  0.5592 -0.0273
 1001MOL0     C38007   4.088   8.705   4.803  0.6590 -0.1697  0.4398
 1001MOL0     O38008   4.214   8.743   4.761  0.3175 -0.0405 -0.2967
 1001MOL0     C38009   4.316   8.651   4.792  0.1075  0.5295 -0.5892
 1001MOL0     C38010   4.389   8.607   4.668 -0.2761 -0.3448  0.1967
 1001MOL0     C38011   4.502   8.506   4.710 -1.7154  0.1719  0.0127
 1001MOL0     C38012   4.622   8.506   4.613  0.1017 -0.8340 -0.2415
 1001MOL0     C38013   4.703   8.643   4.601  0.1441  0.6390 -0.2996
 1001MOL0     C38014   4.754   8.699   4.733  0.1076 -0.1132  0.0138
 1001MOL0     C38015   4.838   8.598   4.817 -0.9530  0.4728 -0.0137
 1001MOL0     C38016   4.965   8.558   4.738 -0.3539  0.0458 -0.0469
 1001MOL0     N38017   5.056   8.485   4.823  0.0353  0.6060 -0.2029
 1001MOL0     C38018   5.100   8.359   4.781 -0.0917 -0.0615 -0.3285
 1001MOL0     C38019   5.162   8.307   4.892 -1.5390  0.2345  0.5372
 1001MOL0     C38020   5.238   8.177   4.897  0.3889 -0.0275 -1.0529
 1001MOL0     C38021   5.132   8.068   4.916  0.4038  0.5471 -0.0042
 1001MOL0     C38022   5.176   7.918   4.900 -0.3677 -0.0305  0.8960
 1001MOL0     C38023   5.253   7.852   5.011 -0.0401  0.9492 -0.5050
 1001MOL0     O38024   5.294   7.721   4.975 -0.1003  0.1318 -1.0612
 1001MOL0     C38025   5.422   7.691   4.949  0.5544 -0.0305 -0.0985
 1001MOL0     C38026   5.451   7.590   4.857  0.1131  0.4404  0.1485
 1001MOL0     C38027   5.584   7.551   4.825  0.1193 -0.5507  0.2927
 1001MOL0     C38028   5.611   7.435   4.733  0.1446 -0.7191 -0.5501
 1001MOL0     C38029   5.698   7.619   4.890 -0.1966 -0.2627  0.1217
 1001MOL0     C38030   5.848   7.593   4.872  0.4721 -0.7144 -0.5842
 1001MOL0     O38031   5.931   7.681   4.946  0.4101  1.0356  1.3054
 1001MOL0     C38032   6.062   7.658   4.963  0.2893  0.8605 -0.7414
 1001MOL0     C38033   6.118   7.534   4.997  0.1508 -0.9470  0.4216
 1001MOL0     C38034   6.259   7.527   5.021  0.0932  0.6553 -0.0971
 1001MOL0     C38035   6.341   7.639   5.018 -0.2435 -0.0418  0.2243
 1001MOL0     O38036   6.469   7.615   5.043  0.1384 -0.5339 -0.3940
 1001MOL0     C38037   6.559   7.725   5.040  0.9068  0.6279  0.0293
 1001MOL0     C38038   6.697   7.669   5.067  0.3019 -0.2010 -0.2797
 1001MOL0     C38039   6.793   7.786   5.089  0.6539 -0.5085  0.2057
 1001MOL0     C38040   6.915   7.730   5.154 -0.6233 -0.5230 -0.2692
 1001MOL0     C38041   7.025   7.849   5.161 -0.4803 -0.0035 -0.3095
 1001MOL0     C38042   7.137   7.819   5.265 -0.5620 -0.4580  0.1329
 1001MOL0     C38043   7.231   7.719   5.202 -0.3040  0.6584  0.1480
 1001MOL0     C38044   7.375   7.741   5.239  0.0643  0.7520  0.1265
 1001MOL0    Cl38045   7.483   7.630   5.158 -0.0706 -0.0264  0.2297
 1001MOL0     C38046   6.277   7.765   4.993  0.8494 -0.3042  0.3736
 1001MOL0     C38047   6.140   7.770   4.966 -0.1885  0.7763 -0.3977
 1001MOL0     O38048   5.891   7.510   4.796  1.3055  0.1286  0.1030
 1001MOL0     C38049   5.662   7.716   4.985  1.1519  0.3615  0.4170
 1001MOL0     C38050   5.526   7.751   5.009  0.8066  0.7573  0.3021
 1001MOL0     N38051   5.142   8.388   5.001  0.6421 -0.0064  0.6909
 1001MOL0     N38052   5.072   8.486   4.955  0.2797 -0.2156  0.0990
 1001MOL0     C38053   4.021   8.799   4.886 -0.0896 -0.3809 -0.0054
 1001MOL0     C38054   3.898   8.757   4.937 -0.0377 -0.3770  0.0163
 1001MOL0     C38055   3.533   8.571   5.097 -1.0174 -0.5153 -0.3189
 1001MOL0     C38056   3.487   8.623   5.220 -0.2740 -0.0785 -0.6086
 1001MOL0     C38057   3.358   8.617   5.261 -0.3203  0.1112  0.4715
 1001MOL0     C38058   3.262   8.560   5.177  0.3161  0.0844  0.0217
 1001MOL0     O38059   3.135   8.565   5.232  0.1256  0.6861 -0.4365
 1001MOL0     C38060   3.010   8.554   5.159  0.4844 -1.2577 -0.6049
 1001MOL0     C38061   2.917   8.672   5.200  0.4098 -0.1055  0.4256
 1001MOL0     C38062   2.770   8.655   5.148 -0.1965 -0.4211 -0.3275
 1001MOL0     C38063   2.701   8.785   5.115  0.1727 -0.0293 -0.0240
 1001MOL0     C38064   2.714   8.885   5.228  0.2444  0.3007  0.4197
 1001MOL0     C38065   2.727   8.962   5.323  0.1379  0.1673  0.1046
 1001MOL0     C38066   3.300   8.510   5.051 -0.7370  0.8442  0.0251
 1001MOL0     C38067   3.435   8.516   5.015  0.0803  0.2311  0.9013
 1001MOL0     C38068   3.482   8.450   4.883  0.6122 -0.7360 -0.7716
 1001MOL0     H38069   3.841   8.465   4.789  0.2231 -1.2578  0.0179
 1001MOL0     H38070   4.088   8.510   4.713  0.7052  0.7452 -0.2330
 1001MOL0     H38071   4.275   8.570   4.852 -0.5903  0.4166 -1.2015
 1001MOL0     H38072   4.392   8.704   4.850 -0.8633  2.8565 -1.3058
 1001MOL0     H38073   4.315   8.556   4.606 -2.4367  1.3123  1.2627
 1001MOL0     H38074   4.426   8.695   4.614 -2.4678  0.6052  0.1259
 1001MOL0     H38075   4.550   8.535   4.803 -1.1268  0.9647 -0.5244
 1001MOL0     H38076   4.466   8.403   4.712  0.7002 -0.7160  0.4874
 1001MOL0     H38077   4.694   8.434   4.652 -3.0237 -3.6672  0.7777
 1001MOL0     H38078   4.586   8.486   4.512 -0.2093  0.7107 -0.4532
 1001MOL0     H38079   4.642   8.719   4.552  0.1460  0.3587 -0.7384
 1001MOL0     H38080   4.794   8.623   4.544 -0.2195 -0.5515 -0.4821
 1001MOL0     H38081   4.806   8.794   4.719 -0.0952  0.1395  0.9457
 1001MOL0     H38082   4.665   8.720   4.793 -0.1569 -0.8226 -0.1156
 1001MOL0     H38083   4.778   8.514   4.853 -1.8886  0.7672 -0.8604
 1001MOL0     H38084   4.866   8.645   4.912  0.9865 -0.3936 -0.1180
 1001MOL0     H38085   4.939   8.505   4.646 -0.5415  1.5662 -0.8980
 1001MOL0     H38086   5.010   8.654   4.709  2.6681 -1.0496  0.5649
 1001MOL0     H38087   5.115   8.323   4.680 -0.9012  1.3304 -0.9695
 1001MOL0     H38088   5.302   8.180   4.985 -0.8840 -1.7830 -0.0231
 1001MOL0     H38089   5.303   8.169   4.808  3.2350 -0.7014  0.9437
 1001MOL0     H38090   5.079   8.083   5.010 -0.3814 -0.7497 -0.2152
 1001MOL0     H38091   5.065   8.098   4.835  0.7314  0.9645 -0.1260
 1001MOL0     H38092   5.087   7.861   4.871 -0.7510  0.6269  0.7604
 1001MOL0     H38093   5.236   7.899   4.811  2.0048  1.9837  1.9616
 1001MOL0     H38094   5.336   7.920   5.035  1.2721 -1.0895  1.0407
 1001MOL0     H38095   5.185   7.850   5.097  0.9129 -1.7840  0.2800
 1001MOL0     H38096   5.362   7.541   4.819 -0.9180  0.7769  2.0357
 1001MOL0     H38097   5.695   7.469   4.671  1.1913 -2.8532 -0.3949
 1001MOL0     H38098   5.528   7.404   4.668  0.8577  0.9033 -2.3345
 1001MOL0     H38099   5.635   7.344   4.788 -0.0641 -0.9986 -0.9092
 1001MOL0     H38100   6.044   7.455   5.010 -2.0529  0.6479 -1.5775
 1001MOL0     H38101   6.307   7.433   5.048  1.2564  1.3367  0.2737
 1001MOL0     H38102   6.562   7.775   4.943  0.5422 -0.5180 -0.5909
 1001MOL0     H38103   6.536   7.791   5.124 -0.8292  1.3574 -0.9569
 1001MOL0     H38104   6.692   7.599   5.151  1.8799 -0.4260 -0.3564
 1001MOL0     H38105   6.725   7.613   4.979  5.1432  0.5976  0.5043
 1001MOL0     H38106   6.748   7.848   5.167 -1.3532 -2.2625  0.5311
 1001MOL0     H38107   6.818   7.851   5.005  0.5689 -0.1358  0.4647
 1001MOL0     H38108   6.962   7.660   5.085 -0.1336  1.1909 -1.7644
 1001MOL0     H38109   6.889   7.681   5.248 -1.7364 -2.0555 -1.3172
 1001MOL0     H38110   7.068   7.856   5.061  1.8037 -0.3067  0.5787
 1001MOL0     H38111   6.982   7.948   5.178 -0.1177  0.2855 -1.0527
 1001MOL0     H38112   7.087   7.778   5.353 -2.8583  0.3093 -0.7263
 1001MOL0     H38113   7.188   7.910   5.298 -1.0175 -1.0871  2.8867
 1001MOL0     H38114   7.227   7.727   5.093 -1.3707  0.3621  0.1513
 1001MOL0     H38115   7.201   7.617   5.227 -3.8216  1.0299 -1.8312
 1001MOL0     H38116   7.401   7.740   5.345  2.6267 -0.0719 -0.4633
 1001MOL0     H38117   7.397   7.842   5.203  2.3453 -0.5978 -2.6631
 1001MOL0     H38118   6.325   7.862   4.993  0.6815 -0.2209  0.5418
 1001MOL0     H38119   6.084   7.863   4.956 -1.0678  0.5231  1.7117
 1001MOL0     H38120   5.729   7.776   5.046  0.7038  1.8682 -0.5390
 1001MOL0     H38121   5.515   7.833   5.080 -0.3782 -0.4937  1.6024
 1001MOL0     H38122   4.058   8.900   4.899 -2.2027  0.3642  0.6811
 1001MOL0     H38123   3.846   8.832   4.996  0.4339 -0.7452  0.9214
 1001MOL0     H38124   3.557   8.666   5.292  0.4151 -1.9878 -0.0776
 1001MOL0     H38125   3.331   8.656   5.358  0.8058  2.6564 -0.1609
 1001MOL0     H38126   3.020   8.560   5.050 -2.6106  0.1551 -0.9269
 1001MOL0     H38127   2.967   8.456   5.180 -0.4371 -1.4029 -2.8508
 1001MOL0     H38128   2.960   8.762   5.156 -0.1881  1.5791  3.0416
 1001MOL0     H38129   2.911   8.688   5.308 -0.8227 -0.1340  0.3787
 1001MOL0     H38130   2.764   8.605   5.051  1.3145 -1.3363  0.0225
 1001MOL0     H38131   2.713   8.604   5.226  1.0406  1.6130  2.0504
 1001MOL0     H38132   2.596   8.760   5.099  0.1831  0.3999 -0.8158
 1001MOL0     H38133   2.721   8.830   5.018 -3.9437  1.9854 -0.1736
 1001MOL0     H38134   2.733   9.032   5.404 -2.7351  0.0031  0.5759
 1001MOL0     H38135   3.221   8.473   4.987 -1.3767  1.2028  0.5954
 1001MOL0     H38136   3.567   8.385   4.904 -1.4656 -3.1251  0.8635
 1001MOL0     H38137   3.413   8.399   4.816  0.1413 -2.0454  0.6464
 1001MOL0     H38138   3.517   8.538   4.828  0.1610  0.9568  1.4695
 1002MOL0     O38139   2.441  10.572   9.682  0.0636  0.1273  0.3698
 1002MOL0     C38140   2.371  10.483   9.646 -0.6934  0.2552  0.0456
 1002MOL0     O38141   2.385  10.417   9.521  0.4462 -0.5045 -0.5932
 1002MOL0     C38142   2.468  10.485   9.436  0.2214  0.0421 -1.0172
 1002MOL0     C38143   2.418  10.584   9.356  0.0261  0.3780 -0.3977
 1002MOL0     C38144   2.493  10.648   9.272 -0.3435  0.3784  0.3911
 1002MOL0     C38145   2.628  10.618   9.257 -0.5975  0.3798  0.1563
 1002MOL0     O38146   2.709  10.682   9.172 -0.4180  0.5006  0.0163
 1002MOL0     C38147   2.692  10.820   9.183 -0.5246  0.2632 -0.4251
 1002MOL0     C38148   2.816  10.889   9.126  0.8323 -0.2279  0.0388
 1002MOL0     C38149   2.946  10.851   9.213 -0.4239  0.0899 -0.2414
 1002MOL0     C38150   3.061  10.929   9.154 -0.5923 -0.2464  0.6182
 1002MOL0     C38151   3.180  10.954   9.250  0.6151  0.4340 -0.4790
 1002MOL0     C38152   3.308  10.970   9.175 -0.0703  0.2724 -0.5923
 1002MOL0     C38153   3.417  11.035   9.264 -0.2972  0.0104 -0.5623
 1002MOL0     C38154   3.486  10.927   9.343 -0.0504  0.2935  0.3639
 1002MOL0     N38155   3.597  10.992   9.418 -0.3299 -0.4988 -0.4469
 1002MOL0     C38156   3.590  11.007   9.556 -0.0173  1.1281  0.2608
 1002MOL0     C38157   3.714  11.057   9.589 -0.7506  0.1864 -0.4742
 1002MOL0     C38158   3.750  11.108   9.728 -0.5751  0.3974  1.4128
 1002MOL0     C38159   3.888  11.166   9.733  0.6388  0.5799  0.3237
 1002MOL0     C38160   3.906  11.225   9.871  0.0374 -0.0742 -1.1369
 1002MOL0     C38161   4.051  11.262   9.914  0.2775 -0.2419 -0.0150
 1002MOL0     O38162   4.096  11.343   9.802  1.2982 -0.5562  0.2544
 1002MOL0     C38163   4.204  11.428   9.815  0.7867  0.6439  0.2401
 1002MOL0     C38164   4.228  11.528   9.723  0.7397  0.1705 -0.0021
 1002MOL0     C38165   4.333  11.613   9.726 -0.3400  0.1807  0.3203
 1002MOL0     C38166   4.349  11.716   9.618 -0.5368  0.1584  0.3173
 1002MOL0     C38167   4.423  11.604   9.829  0.2220 -0.7017 -0.7591
 1002MOL0     C38168   4.533  11.703   9.862  0.7880  0.1172  0.4538
 1002MOL0     O38169   4.618  11.685   9.967  0.1479 -0.1183  0.2230
 1002MOL0     C38170   4.735  11.763   9.978  0.1916  0.2647 -0.1720
 1002MOL0     C38171   4.745  11.905   9.955 -0.1932  0.4650 -0.5287
 1002MOL0     C38172   4.866  11.973   9.985 -0.5332  0.3813 -0.7021
 1002MOL0     C38173   4.976  11.903  10.027  0.6766 -0.1642  0.3049
 1002MOL0     O38174   5.091  11.970  10.044  0.1910  0.0202 -0.2179
 1002MOL0     C38175   5.192  11.924   9.952  1.0132 -1.3887 -0.4238
 1002MOL0     C38176   5.301  11.853  10.018 -0.1989  0.2482 -0.4289
 1002MOL0     C38177   5.356  11.927  10.133 -0.1050 -0.2051  0.5971
 1002MOL0     C38178   5.496  11.883  10.165  0.1763  0.0128 -0.9000
 1002MOL0     C38179   5.568  11.967  10.263  0.5621 -0.4808 -0.5835
 1002MOL0     C38180   5.712  11.922  10.293 -0.0366 -1.1582 -0.2999
 1002MOL0     C38181   5.708  11.824  10.409  0.5159 -0.6979 -0.1051
 1002MOL0     C38182   5.825  11.723  10.414  0.3057 -0.0689 -0.0645
 1002MOL0    Cl38183   5.978  11.806  10.434 -0.4997  0.0660 -0.1070
 1002MOL0     C38184   4.967  11.763  10.039  0.2327 -0.5137 -0.1385
 1002MOL0     C38185   4.843  11.696  10.026 -0.0955  0.4499  0.6367
 1002MOL0     O38186   4.522  11.807   9.801 -0.1369  0.0733  0.2731
 1002MOL0     C38187   4.404  11.503   9.926  0.4783  0.0709 -0.8960
 1002MOL0     C38188   4.297  11.410   9.919 -0.1725 -0.8250 -0.2876
 1002MOL0     N38189   3.787  11.075   9.475  0.1748 -0.4018  0.0599
 1002MOL0     N38190   3.720  11.032   9.370 -0.5582  0.1223 -0.1624
 1002MOL0     C38191   2.687  10.525   9.346 -0.3730 -0.0816 -0.4116
 1002MOL0     C38192   2.605  10.465   9.444  0.9861 -0.1922  0.0341
 1002MOL0     C38193   2.256  10.454   9.732 -0.3467  0.5715 -0.7260
 1002MOL0     C38194   2.142  10.390   9.673  0.6623  0.5765  0.0484
 1002MOL0     C38195   2.024  10.363   9.750 -0.6103  0.6661  0.1895
 1002MOL0     C38196   2.009  10.417   9.873 -0.4085 -0.6507 -0.2500
 1002MOL0     O38197   1.894  10.432   9.935  0.0012  0.0466 -0.2213
 1002MOL0     C38198   1.810  10.314   9.942  0.9098 -0.2724  0.1481
 1002MOL0     C38199   1.674  10.361  10.006 -0.2504  0.1596  0.3250
 1002MOL0     C38200   1.593  10.466   9.934 -0.3142 -0.2067  0.2368
 1002MOL0     C38201   1.465  10.484  10.011  0.4397  0.0484 -0.8007
 1002MOL0     C38202   1.362  10.536   9.921  0.6481  0.3130  0.5084
 1002MOL0     C38203   1.269  10.575   9.853 -0.0172  0.2069 -0.9878
 1002MOL0     C38204   2.128  10.460   9.936 -0.6461 -0.4294  0.5390
 1002MOL0     C38205   2.254  10.483   9.869  0.2790 -0.1870  1.5030
 1002MOL0     C38206   2.360  10.543   9.953  0.1622  0.0010 -0.7621
 1002MOL0     H38207   2.310  10.599   9.354 -0.4197 -1.4855 -6.1660
 1002MOL0     H38208   2.455  10.720   9.200  1.6184 -0.9230 -2.1103
 1002MOL0     H38209   2.682  10.843   9.290 -0.4791 -3.1093  0.4271
 1002MOL0     H38210   2.599  10.844   9.131 -2.3730  1.3381  3.0217
 1002MOL0     H38211   2.831  10.868   9.019  0.0531 -1.1289  0.0858
 1002MOL0     H38212   2.807  10.997   9.135  0.8555 -0.3898  2.8920
 1002MOL0     H38213   2.939  10.869   9.321  1.6100 -0.7170  0.0605
 1002MOL0     H38214   2.967  10.744   9.203 -0.9250  0.2351 -4.2818
 1002MOL0     H38215   3.104  10.872   9.071  0.3487  0.2438  0.7611
 1002MOL0     H38216   3.038  11.026   9.109  1.3637  0.1155  0.3010
 1002MOL0     H38217   3.196  10.872   9.321 -0.3819  1.3863  0.8963
 1002MOL0     H38218   3.145  11.047   9.296  1.3285  0.7492 -0.5785
 1002MOL0     H38219   3.336  10.884   9.114 -1.4664 -0.4870 -0.2151
 1002MOL0     H38220   3.299  11.049   9.100 -0.4238  2.4064  1.5392
 1002MOL0     H38221   3.365  11.105   9.330 -3.8023 -2.6936 -0.1603
 1002MOL0     H38222   3.494  11.080   9.201 -1.2687 -2.3532 -3.6877
 1002MOL0     H38223   3.416  10.873   9.407  2.4303  0.5640  3.5527
 1002MOL0     H38224   3.538  10.853   9.281 -2.5718  0.8997 -2.6919
 1002MOL0     H38225   3.510  10.986   9.625 -0.3604  0.5075 -0.3258
 1002MOL0     H38226   3.733  11.030   9.803 -5.8152 -0.2814 -0.0581
 1002MOL0     H38227   3.671  11.182   9.747  0.1921  2.0338 -1.1448
 1002MOL0     H38228   3.957  11.082   9.716 -2.4814 -1.5990 -3.1508
 1002MOL0     H38229   3.911  11.242   9.658  1.4443  0.0006 -0.0394
 1002MOL0     H38230   3.850  11.319   9.874  0.0243 -0.1126 -0.1347
 1002MOL0     H38231   3.864  11.155   9.943  0.8366  0.8041  0.2268
 1002MOL0     H38232   4.043  11.330   9.999  2.4183 -0.6311  0.5439
 1002MOL0     H38233   4.100  11.167   9.936 -2.1289 -1.0849  2.2542
 1002MOL0     H38234   4.154  11.537   9.645  0.5782  1.0356  0.2446
 1002MOL0     H38235   4.448  11.707   9.571 -1.6000  0.6997 -2.2017
 1002MOL0     H38236   4.328  11.821   9.643 -3.1665 -0.2135 -0.1332
 1002MOL0     H38237   4.284  11.695   9.533 -1.6764  3.1719  0.3236
 1002MOL0     H38238   4.667  11.967   9.912 -3.1445  0.0135  3.6012
 1002MOL0     H38239   4.868  12.080   9.967 -0.1003  0.2672 -1.4012
 1002MOL0     H38240   5.147  11.867   9.870  0.3409 -1.1330 -0.2385
 1002MOL0     H38241   5.231  12.018   9.911 -1.3107 -0.7403 -1.3363
 1002MOL0     H38242   5.269  11.761  10.068 -0.8637  1.0271  0.6125
 1002MOL0     H38243   5.381  11.843   9.944  1.0200  1.5374  0.6561
 1002MOL0     H38244   5.291  11.926  10.221 -1.7243  0.6462 -0.5415
 1002MOL0     H38245   5.370  12.030  10.098  0.8594 -0.6609 -0.3850
 1002MOL0     H38246   5.559  11.877  10.076 -0.4570 -0.9794 -1.3080
 1002MOL0     H38247   5.484  11.781  10.203 -1.0152  0.1781 -0.7873
 1002MOL0     H38248   5.577  12.066  10.216  2.5071 -0.6871 -0.7298
 1002MOL0     H38249   5.506  11.986  10.351 -1.4411 -0.9091 -1.8316
 1002MOL0     H38250   5.781  12.003  10.322 -0.5593  0.0383 -2.2395
 1002MOL0     H38251   5.754  11.877  10.203  0.6855  3.5202 -2.5906
 1002MOL0     H38252   5.614  11.769  10.399 -0.2042  0.7949 -2.4918
 1002MOL0     H38253   5.708  11.889  10.496  2.1105  3.5620 -2.9474
 1002MOL0     H38254   5.827  11.677  10.315  0.6945  2.7562 -1.4798
 1002MOL0     H38255   5.814  11.653  10.498  1.6867 -0.6502 -0.3506
 1002MOL0     H38256   5.054  11.712  10.079 -0.1056 -1.3003 -0.3952
 1002MOL0     H38257   4.843  11.589  10.043  0.5954  0.6580  2.1679
 1002MOL0     H38258   4.466  11.499  10.016 -2.8983 -1.4707  1.5925
 1002MOL0     H38259   4.284  11.329   9.990 -1.4423 -2.8088 -2.6191
 1002MOL0     H38260   2.794  10.514   9.332 -0.2923 -0.8993  0.6934
 1002MOL0     H38261   2.640  10.407   9.530 -0.6239  0.5148  1.2147
 1002MOL0     H38262   2.140  10.349   9.572 -2.3636  0.1464  0.1983
 1002MOL0     H38263   1.944  10.314   9.695  1.0494 -1.2644 -0.6664
 1002MOL0     H38264   1.800  10.262   9.847  0.0499 -1.6302  0.9462
 1002MOL0     H38265   1.848  10.243  10.016  2.8638 -1.5854 -2.0169
 1002MOL0     H38266   1.707  10.408  10.099  0.6750  2.7299 -1.1886
 1002MOL0     H38267   1.609  10.275  10.025 -0.3537 -0.0754 -0.9819
 1002MOL0     H38268   1.651  10.559   9.933  3.2920 -2.2148  1.6753
 1002MOL0     H38269   1.569  10.440   9.830 -0.8956 -3.0268  0.9878
 1002MOL0     H38270   1.485  10.545  10.099  0.1973  1.1879 -1.5083
 1002MOL0     H38271   1.425  10.387  10.041  1.9404  0.1154  1.7024
 1002MOL0     H38272   1.189  10.623   9.800 -1.5990  1.3608  2.1982
 1002MOL0     H38273   2.125  10.493  10.040 -0.6495  1.5635 -0.0461
 1002MOL0     H38274   2.371  10.649   9.926 -0.5311 -0.1924 -1.8408
 1002MOL0     H38275   2.334  10.535  10.059 -0.3647  0.5823 -0.8381
 1002MOL0     H38276   2.454  10.490   9.938  2.4230  2.6476  2.4516
 1003MOL0     O38277   5.916   3.672   0.545 -0.5740  0.5965 -0.1696
 1003MOL0     C38278   5.855   3.629   0.446 -0.7747 -0.3732  0.1564
 1003MOL0     O38279   5.924   3.564   0.341  0.6055 -0.3799 -0.6411
 1003MOL0     C38280   6.061   3.577   0.331 -1.4807 -0.5503 -0.2045
 1003MOL0     C38281   6.154   3.489   0.393 -0.4384 -0.1482  0.1797
 1003MOL0     C38282   6.290   3.515   0.383 -0.3822 -0.3688 -1.0425
 1003MOL0     C38283   6.343   3.636   0.322 -0.0130 -0.1583 -0.2097
 1003MOL0     O38284   6.480   3.659   0.323  0.8929 -0.3250  0.2675
 1003MOL0     C38285   6.531   3.788   0.273  0.6019  0.2971  0.3539
 1003MOL0     C38286   6.686   3.796   0.297  0.3810 -0.6180  0.0573
 1003MOL0     C38287   6.775   3.691   0.235  0.6447  0.0945  0.4694
 1003MOL0     C38288   6.915   3.744   0.249 -0.6466 -0.4430 -0.2418
 1003MOL0     C38289   7.020   3.661   0.170 -0.1725  0.2590 -0.0799
 1003MOL0     C38290   7.152   3.709   0.216  0.4769 -0.2985 -0.1856
 1003MOL0     C38291   7.269   3.626   0.165  0.6370  0.5731  1.0290
 1003MOL0     C38292   7.269   3.626   0.009 -0.4546  0.0361 -0.0950
 1003MOL0     N38293   7.405   3.575  -0.032  0.2619 -0.1074  0.3158
 1003MOL0     C38294   7.461   3.455  -0.007  0.2451  0.3901 -0.0286
 1003MOL0     C38295   7.590   3.463  -0.055  0.3392  0.3024  1.3686
 1003MOL0     C38296   7.696   3.363  -0.015  0.2406  0.1134  0.5117
 1003MOL0     C38297   7.721   3.261  -0.123 -0.2288  0.6052  0.3579
 1003MOL0     C38298   7.817   3.146  -0.076  0.1534 -0.8990  0.0993
 1003MOL0     C38299   7.744   3.021  -0.048  0.0498 -0.2448  0.1800
 1003MOL0     O38300   7.688   2.974  -0.171  0.0298 -0.2835  0.3349
 1003MOL0     C38301   7.550   2.983  -0.196  0.2305  1.0247  0.2450
 1003MOL0     C38302   7.503   2.971  -0.327 -0.4329  0.3032 -1.3876
 1003MOL0     C38303   7.365   2.976  -0.355 -0.0357 -0.9932 -0.7637
 1003MOL0     C38304   7.326   2.980  -0.504  0.2678  0.5879 -0.0357
 1003MOL0     C38305   7.267   2.989  -0.249 -0.0144 -0.4855  0.5405
 1003MOL0     C38306   7.117   3.010  -0.276 -1.0203  0.3639 -0.3467
 1003MOL0     O38307   7.039   3.017  -0.158 -0.0122  0.0740  0.2071
 1003MOL0     C38308   6.902   3.031  -0.177 -0.2025 -0.0225  0.1800
 1003MOL0     C38309   6.820   2.918  -0.196  0.0135  0.1668 -0.2572
 1003MOL0     C38310   6.682   2.919  -0.207  0.5516 -0.8921  1.2425
 1003MOL0     C38311   6.623   3.046  -0.214  0.2049  0.3806  0.2408
 1003MOL0     O38312   6.482   3.033  -0.233 -0.2437  0.6250  0.4473
 1003MOL0     C38313   6.396   3.117  -0.153  0.8371 -0.0525  0.0291
 1003MOL0     C38314   6.265   3.151  -0.215  0.1046 -0.9173  0.2408
 1003MOL0     C38315   6.278   3.252  -0.332 -0.7781 -0.3716  0.3472
 1003MOL0     C38316   6.155   3.333  -0.367 -0.2355 -0.1325 -0.8401
 1003MOL0     C38317   6.170   3.415  -0.499 -0.1936  0.0589  1.0119
 1003MOL0     C38318   6.063   3.524  -0.513  0.7008  0.3060 -0.5123
 1003MOL0     C38319   5.922   3.462  -0.545  0.2348 -1.1011 -0.1557
 1003MOL0     C38320   5.805   3.552  -0.518  0.5534 -0.5444  0.3989
 1003MOL0    Cl38321   5.656   3.473  -0.592 -0.2619  0.2027  0.1157
 1003MOL0     C38322   6.688   3.163  -0.205 -0.1486 -0.2595 -0.8270
 1003MOL0     C38323   6.829   3.156  -0.182 -0.1799 -0.4802  0.4360
 1003MOL0     O38324   7.073   3.013  -0.390 -0.2012  0.5259  0.0859
 1003MOL0     C38325   7.316   2.993  -0.118  0.2775  0.2214 -0.3111
 1003MOL0     C38326   7.452   3.000  -0.099 -0.0270 -0.4607 -0.0950
 1003MOL0     N38327   7.611   3.591  -0.105  0.0662 -0.1035  0.3666
 1003MOL0     N38328   7.502   3.652  -0.083  0.1769  0.1988  0.2744
 1003MOL0     C38329   6.249   3.728   0.267  0.2145  0.8848 -0.0625
 1003MOL0     C38330   6.111   3.694   0.262 -0.3538  0.2570 -0.8536
 1003MOL0     C38331   5.712   3.650   0.424  0.6540  0.1931  0.2965
 1003MOL0     C38332   5.652   3.607   0.296 -0.4966  0.2672  0.5106
 1003MOL0     C38333   5.521   3.639   0.280  0.6020 -0.3637  0.5169
 1003MOL0     C38334   5.435   3.678   0.378  0.9969  0.2694 -0.3780
 1003MOL0     O38335   5.306   3.716   0.334  0.1359  0.3563 -0.3357
 1003MOL0     C38336   5.210   3.686   0.438 -0.2964 -1.1139  0.7983
 1003MOL0     C38337   5.074   3.710   0.379 -0.3035  0.0700 -0.5051
 1003MOL0     C38338   5.032   3.611   0.272  0.4645  0.0352 -0.7707
 1003MOL0     C38339   4.936   3.509   0.328 -0.3789 -0.2981  0.1762
 1003MOL0     C38340   5.001   3.399   0.405  0.1747 -0.5118  0.2465
 1003MOL0     C38341   5.040   3.315   0.480 -0.4301  0.1408 -0.0589
 1003MOL0     C38342   5.485   3.711   0.503 -0.5455  0.3998  0.1743
 1003MOL0     C38343   5.623   3.699   0.521  0.3450 -0.4303 -1.1506
 1003MOL0     C38344   5.663   3.740   0.658  0.0755 -0.7317  0.5897
 1003MOL0     H38345   6.114   3.399   0.439 -3.4450  0.7386 -0.4594
 1003MOL0     H38346   6.357   3.452   0.442 -0.6028  0.2255 -0.1396
 1003MOL0     H38347   6.494   3.880   0.319  0.2389 -0.0907  0.8409
 1003MOL0     H38348   6.512   3.795   0.166  2.2661  3.7634  0.1509
 1003MOL0     H38349   6.724   3.896   0.274 -1.2351  0.2066  0.7667
 1003MOL0     H38350   6.706   3.777   0.403  1.5671  0.4227  0.0496
 1003MOL0     H38351   6.753   3.596   0.284  0.8527  0.4614  1.2831
 1003MOL0     H38352   6.740   3.676   0.132  0.0899 -1.1876  0.8213
 1003MOL0     H38353   6.934   3.847   0.217  0.5686 -0.7518 -0.5545
 1003MOL0     H38354   6.934   3.743   0.356  1.2985  0.9937 -0.5150
 1003MOL0     H38355   7.020   3.679   0.062 -0.7926  0.7021 -0.0125
 1003MOL0     H38356   7.007   3.553   0.187 -0.9003 -1.1164 -6.6341
 1003MOL0     H38357   7.156   3.816   0.194 -0.1443 -0.1800  0.2577
 1003MOL0     H38358   7.166   3.706   0.325  2.6710 -3.7914 -0.4007
 1003MOL0     H38359   7.270   3.522   0.199  2.2351 -0.2727 -1.3141
 1003MOL0     H38360   7.356   3.679   0.205  0.2503  0.1485  2.4804
 1003MOL0     H38361   7.183   3.571  -0.031  0.5538 -0.5826 -1.4884
 1003MOL0     H38362   7.267   3.730  -0.025 -1.4866  0.0354 -0.0744
 1003MOL0     H38363   7.413   3.371   0.043  1.3710 -0.2921 -0.0586
 1003MOL0     H38364   7.654   3.314   0.073  0.9266  1.4683  1.6376
 1003MOL0     H38365   7.783   3.418   0.021  0.4349  0.1153  0.0425
 1003MOL0     H38366   7.627   3.234  -0.172 -0.7244  2.2137  0.3638
 1003MOL0     H38367   7.777   3.307  -0.205  0.6909  2.3068  1.8545
 1003MOL0     H38368   7.885   3.128  -0.160  1.1907 -2.1509  1.1682
 1003MOL0     H38369   7.868   3.177   0.015  0.2131 -0.4848 -0.0740
 1003MOL0     H38370   7.811   2.938  -0.021 -1.8499 -1.0703  2.7742
 1003MOL0     H38371   7.679   3.034   0.039  1.1251 -0.0648  0.9687
 1003MOL0     H38372   7.590   2.954  -0.390  1.1177 -0.7578  0.8633
 1003MOL0     H38373   7.413   2.968  -0.569  0.3550  1.0070  0.0037
 1003MOL0     H38374   7.288   3.081  -0.522 -1.9606  0.6999  4.0054
 1003MOL0     H38375   7.255   2.900  -0.529  2.5798 -3.7708  5.2814
 1003MOL0     H38376   6.871   2.823  -0.197  0.7587  0.3917 -4.6379
 1003MOL0     H38377   6.621   2.830  -0.199  0.2483 -0.6133  2.2136
 1003MOL0     H38378   6.369   3.065  -0.061  1.6842  0.0433  0.3447
 1003MOL0     H38379   6.442   3.211  -0.120 -1.4383  0.1678  2.9292
 1003MOL0     H38380   6.203   3.069  -0.253  0.2540 -0.7751 -0.3270
 1003MOL0     H38381   6.200   3.190  -0.137 -0.5426 -0.0045 -0.7218
 1003MOL0     H38382   6.298   3.185  -0.417  0.6581  0.6118 -0.1301
 1003MOL0     H38383   6.361   3.323  -0.328 -0.2059 -0.9864  4.7880
 1003MOL0     H38384   6.136   3.401  -0.283 -1.2846  4.4559 -4.4200
 1003MOL0     H38385   6.075   3.261  -0.379  0.1852 -0.5165 -1.3981
 1003MOL0     H38386   6.270   3.458  -0.512 -0.4837 -0.2875 -5.0014
 1003MOL0     H38387   6.163   3.352  -0.588 -3.5900  0.4484  0.8978
 1003MOL0     H38388   6.092   3.592  -0.594  0.3084  0.0638 -0.8642
 1003MOL0     H38389   6.064   3.583  -0.421  1.4531  0.8018 -0.8356
 1003MOL0     H38390   5.925   3.370  -0.486  0.5835 -1.4953 -0.7860
 1003MOL0     H38391   5.915   3.435  -0.650 -0.4734 -0.4289 -0.2926
 1003MOL0     H38392   5.820   3.653  -0.559  0.8285 -0.8335 -0.2353
 1003MOL0     H38393   5.797   3.569  -0.410 -1.4381 -0.0530  0.1975
 1003MOL0     H38394   6.642   3.261  -0.211  3.8745  1.9793  0.5318
 1003MOL0     H38395   6.886   3.247  -0.170  0.3218 -1.0106  2.3277
 1003MOL0     H38396   7.243   3.026  -0.044  0.4205  2.2933 -1.0311
 1003MOL0     H38397   7.481   3.012   0.005  2.1650  2.6370 -0.9295
 1003MOL0     H38398   6.290   3.820   0.227  2.2885  0.4671  0.9417
 1003MOL0     H38399   6.039   3.761   0.215  1.0501  1.3326 -1.5369
 1003MOL0     H38400   5.715   3.568   0.217  1.4888 -0.4823  2.3686
 1003MOL0     H38401   5.464   3.639   0.188 -1.5253  0.2331  1.7736
 1003MOL0     H38402   5.216   3.581   0.468 -3.1816 -1.5147  0.2718
 1003MOL0     H38403   5.216   3.756   0.522 -3.1545  1.3552 -0.8393
 1003MOL0     H38404   5.074   3.812   0.337  3.4898  0.8891  1.1314
 1003MOL0     H38405   5.001   3.724   0.459 -1.3327 -0.6121 -1.2899
 1003MOL0     H38406   4.987   3.665   0.188  0.3250  1.8053  0.3891
 1003MOL0     H38407   5.113   3.555   0.225 -1.2239  0.1316 -4.0734
 1003MOL0     H38408   4.871   3.461   0.254 -0.0216 -1.7958  0.7990
 1003MOL0     H38409   4.861   3.556   0.394 -1.2967 -1.4526 -0.0156
 1003MOL0     H38410   5.080   3.239   0.545 -2.6641 -0.9874  0.0899
 1003MOL0     H38411   5.430   3.755   0.585  2.2386  3.0368  0.7807
 1003MOL0     H38412   5.732   3.824   0.662  0.7787 -1.2454 -0.2535
 1003MOL0     H38413   5.572   3.758   0.716 -0.8035  0.2661 -1.0158
 1003MOL0     H38414   5.716   3.658   0.708  0.9967  0.0795  0.9744
 1004MOL0     O38415   0.987   6.576   7.952  0.1097  0.1472  0.0682
 1004MOL0     C38416   1.030   6.694   7.961 -0.2273  0.2634  0.2175
 1004MOL0     O38417   1.161   6.729   7.964  0.2264  0.9107 -0.1819
 1004MOL0     C38418   1.255   6.630   7.944  0.0506 -0.5253  0.1439
 1004MOL0     C38419   1.361   6.611   8.029  0.0005  0.1486 -0.6684
 1004MOL0     C38420   1.457   6.508   8.005  0.2798  0.1465  0.0693
 1004MOL0     C38421   1.443   6.430   7.893 -0.7668  0.6006 -0.1138
 1004MOL0     O38422   1.558   6.352   7.862  0.0077 -0.1118 -0.2327
 1004MOL0     C38423   1.603   6.338   7.726  0.7827  0.4382  0.9343
 1004MOL0     C38424   1.718   6.232   7.727  0.6729 -0.5881  0.0311
 1004MOL0     C38425   1.845   6.276   7.794 -0.5610  0.3392 -0.2341
 1004MOL0     C38426   1.963   6.181   7.777  0.2900 -0.8186  0.0882
 1004MOL0     C38427   2.098   6.228   7.832 -0.2975 -0.0679  0.4580
 1004MOL0     C38428   2.215   6.138   7.796  0.8781 -0.5737  0.3107
 1004MOL0     C38429   2.332   6.170   7.891  0.1405  0.3462 -0.4675
 1004MOL0     C38430   2.454   6.069   7.889  0.8781 -0.3188  0.1406
 1004MOL0     N38431   2.528   6.082   7.764 -0.0931  0.3946  0.0944
 1004MOL0     C38432   2.603   6.195   7.721  0.0530 -0.5109 -0.6467
 1004MOL0     C38433   2.671   6.155   7.614 -0.5939  0.1290 -0.7685
 1004MOL0     C38434   2.772   6.234   7.539 -0.2110 -1.0323  0.6515
 1004MOL0     C38435   2.878   6.144   7.477 -0.6172  0.2841 -0.4258
 1004MOL0     C38436   2.975   6.198   7.376 -0.3267 -0.0844 -0.0862
 1004MOL0     C38437   3.054   6.314   7.431 -0.5810 -0.6425 -0.2260
 1004MOL0     O38438   3.142   6.273   7.537 -0.0108 -0.6137  0.1526
 1004MOL0     C38439   3.270   6.228   7.510 -0.1383  1.3360  0.7742
 1004MOL0     C38440   3.357   6.213   7.615 -0.7213  0.2753 -1.4107
 1004MOL0     C38441   3.493   6.196   7.600  0.1866  1.1925 -0.4650
 1004MOL0     C38442   3.586   6.184   7.724 -1.0485  0.0882 -0.3582
 1004MOL0     C38443   3.546   6.177   7.472 -0.7211 -0.9323  0.7372
 1004MOL0     C38444   3.684   6.140   7.432  0.5010  0.7598  0.4022
 1004MOL0     O38445   3.784   6.142   7.524 -0.1773 -0.3880  0.7462
 1004MOL0     C38446   3.921   6.127   7.498  0.4929  0.6300  0.1913
 1004MOL0     C38447   3.985   6.188   7.390  0.6117  0.6737  0.1778
 1004MOL0     C38448   4.119   6.166   7.371 -0.7323 -1.0465 -0.8362
 1004MOL0     C38449   4.200   6.090   7.460  0.3085 -0.6660 -0.7113
 1004MOL0     O38450   4.332   6.074   7.459 -0.0983 -0.2784  0.1968
 1004MOL0     C38451   4.390   6.102   7.332 -0.0882 -0.2320  0.1083
 1004MOL0     C38452   4.521   6.033   7.311 -0.1801  0.5066 -0.1642
 1004MOL0     C38453   4.639   6.094   7.374 -0.4644  0.6677  0.5985
 1004MOL0     C38454   4.749   5.981   7.400  0.5244 -0.1692 -0.4149
 1004MOL0     C38455   4.869   6.049   7.467  0.2306 -0.1567  0.2468
 1004MOL0     C38456   4.956   6.104   7.361  0.4336  0.3907 -0.2270
 1004MOL0     C38457   5.065   6.001   7.305 -0.5867  0.6437  0.2133
 1004MOL0     C38458   5.173   6.076   7.222  0.2788 -0.0508 -0.4883
 1004MOL0    Cl38459   5.245   6.219   7.313 -0.3044  0.0475 -0.0449
 1004MOL0     C38460   4.139   6.040   7.571 -0.1882  0.8386  0.0217
 1004MOL0     C38461   4.000   6.062   7.594 -0.2179 -0.0672  0.2353
 1004MOL0     O38462   3.698   6.113   7.309  0.5117  0.0817  0.0773
 1004MOL0     C38463   3.451   6.182   7.366  0.5465  0.5895 -0.4923
 1004MOL0     C38464   3.319   6.202   7.382  0.7407 -0.7061 -0.0195
 1004MOL0     N38465   2.639   6.022   7.589 -0.3306 -0.3522 -0.6375
 1004MOL0     N38466   2.555   5.975   7.677  0.7441 -0.0489  0.1947
 1004MOL0     C38467   1.337   6.441   7.809  1.0109 -0.2702  0.6273
 1004MOL0     C38468   1.244   6.548   7.826 -0.3139 -0.6024 -0.2306
 1004MOL0     C38469   0.935   6.809   7.972  0.7203  0.5801  0.3053
 1004MOL0     C38470   0.808   6.764   8.021  0.3563 -1.2500  0.2361
 1004MOL0     C38471   0.709   6.859   8.054 -0.3149 -0.2350  0.2898
 1004MOL0     C38472   0.723   6.993   8.035 -0.0839  0.4933 -0.2958
 1004MOL0     O38473   0.637   7.091   8.073  0.6731  0.0522  0.5941
 1004MOL0     C38474   0.536   7.064   8.170  0.6125  0.1886 -0.3696
 1004MOL0     C38475   0.478   7.208   8.202 -0.5792  0.2701  0.1464
 1004MOL0     C38476   0.348   7.215   8.288  0.2987 -0.0745 -0.2735
 1004MOL0     C38477   0.224   7.152   8.222 -0.4296 -0.4075  0.3186
 1004MOL0     C38478   0.105   7.164   8.303 -0.5109 -0.0670 -0.2173
 1004MOL0     C38479   0.015   7.188   8.380 -0.6293  0.8370 -0.2179
 1004MOL0     C38480   0.848   7.035   7.980  0.4290 -0.3463 -0.2794
 1004MOL0     C38481   0.953   6.945   7.945 -0.2366  0.1820 -0.4615
 1004MOL0     C38482   1.085   7.003   7.893 -0.1055 -0.7545 -0.1687
 1004MOL0     H38483   1.376   6.683   8.109  0.2198  1.4521 -1.8554
 1004MOL0     H38484   1.545   6.489   8.066  0.6013  0.8302 -0.1686
 1004MOL0     H38485   1.637   6.437   7.695 -0.8772  1.0679  1.0221
 1004MOL0     H38486   1.519   6.292   7.672  0.3890  3.8441 -1.7139
 1004MOL0     H38487   1.681   6.144   7.780 -0.8632 -0.7799 -1.2733
 1004MOL0     H38488   1.738   6.203   7.623  0.2342  1.1373 -0.5787
 1004MOL0     H38489   1.876   6.372   7.752  0.5950 -0.0232 -0.2390
 1004MOL0     H38490   1.826   6.287   7.902  0.8913  0.5475  0.0282
 1004MOL0     H38491   1.938   6.087   7.826 -0.6344 -0.1649  0.9099
 1004MOL0     H38492   1.973   6.166   7.669 -1.4320 -0.1214 -0.2189
 1004MOL0     H38493   2.097   6.219   7.941  0.2546 -1.2613  0.3826
 1004MOL0     H38494   2.127   6.330   7.802  1.9321 -0.6709  0.4036
 1004MOL0     H38495   2.168   6.041   7.814  1.6837 -1.6972 -2.9776
 1004MOL0     H38496   2.235   6.146   7.689 -0.2748  1.7564  0.1866
 1004MOL0     H38497   2.292   6.172   7.993  1.0162 -4.3178  0.1747
 1004MOL0     H38498   2.382   6.264   7.867 -1.4496  0.7365 -2.4776
 1004MOL0     H38499   2.526   6.082   7.971  2.5913  1.0707 -1.4835
 1004MOL0     H38500   2.420   5.966   7.904 -0.7579  0.2850  0.7947
 1004MOL0     H38501   2.616   6.291   7.771 -0.3725 -2.3181  3.2499
 1004MOL0     H38502   2.813   6.320   7.594 -2.8658  0.7215  0.0569
 1004MOL0     H38503   2.706   6.279   7.464  0.9715 -0.2376  0.0593
 1004MOL0     H38504   2.936   6.096   7.557  1.1371  0.8104 -1.3455
 1004MOL0     H38505   2.816   6.069   7.427 -1.8803  0.4497  0.8262
 1004MOL0     H38506   3.041   6.116   7.346 -1.1972 -0.9762  0.3599
 1004MOL0     H38507   2.919   6.236   7.290 -2.2917  3.4175  2.4686
 1004MOL0     H38508   3.107   6.358   7.346 -3.7370 -0.5738 -2.2880
 1004MOL0     H38509   2.984   6.385   7.474  1.6097  0.8690  1.0742
 1004MOL0     H38510   3.322   6.230   7.717  2.8537 -0.3618  0.0840
 1004MOL0     H38511   3.664   6.261   7.722 -2.7404  1.8798 -2.1762
 1004MOL0     H38512   3.633   6.085   7.718 -0.1991  0.5273 -1.1397
 1004MOL0     H38513   3.520   6.203   7.809 -2.0061 -0.1563 -1.0185
 1004MOL0     H38514   3.937   6.253   7.318  1.2489 -0.7866 -1.6219
 1004MOL0     H38515   4.161   6.223   7.290  0.2489 -2.0693 -1.0702
 1004MOL0     H38516   4.322   6.078   7.249 -0.2486 -1.0816  0.4765
 1004MOL0     H38517   4.410   6.209   7.339 -0.6615 -0.0946 -0.2780
 1004MOL0     H38518   4.509   5.927   7.336  2.1557  0.1910 -0.1677
 1004MOL0     H38519   4.530   6.044   7.202 -1.2278 -0.5875 -0.3803
 1004MOL0     H38520   4.603   6.128   7.472 -2.8404  1.7911 -0.5687
 1004MOL0     H38521   4.671   6.184   7.321 -1.4245  1.9176  2.0328
 1004MOL0     H38522   4.776   5.926   7.310 -0.3077 -0.8154 -0.2887
 1004MOL0     H38523   4.705   5.905   7.466 -2.3403 -0.2261 -2.2045
 1004MOL0     H38524   4.836   6.130   7.533  0.2405 -0.0160  0.0806
 1004MOL0     H38525   4.922   5.983   7.536 -0.4865  0.8804  1.8446
 1004MOL0     H38526   4.999   6.194   7.404 -4.5953  2.3348  1.4166
 1004MOL0     H38527   4.900   6.154   7.281 -0.4995 -0.4822 -0.1412
 1004MOL0     H38528   5.024   5.918   7.247  0.1580 -0.6829  1.4968
 1004MOL0     H38529   5.113   5.956   7.393 -2.8041  0.6566  1.4899
 1004MOL0     H38530   5.130   6.128   7.136 -0.0747  0.4994  0.0092
 1004MOL0     H38531   5.242   6.004   7.177 -0.1558  0.3567 -1.8563
 1004MOL0     H38532   4.195   5.984   7.645  3.0419  1.2077 -1.9237
 1004MOL0     H38533   3.956   6.038   7.690 -0.8273 -1.4706 -0.3748
 1004MOL0     H38534   3.483   6.168   7.264  1.1150  1.9830 -0.5283
 1004MOL0     H38535   3.243   6.202   7.304  0.0525 -2.3302  0.6093
 1004MOL0     H38536   1.331   6.383   7.717  2.2475  1.2387 -0.4700
 1004MOL0     H38537   1.156   6.567   7.765 -1.0887 -2.3357  0.2852
 1004MOL0     H38538   0.790   6.662   8.055 -0.5764 -0.8406  1.0372
 1004MOL0     H38539   0.618   6.818   8.098 -0.8120  2.0610  1.5528
 1004MOL0     H38540   0.459   6.999   8.128  2.6156 -1.0285 -2.4330
 1004MOL0     H38541   0.583   7.020   8.259  1.2071 -0.4000 -0.9607
 1004MOL0     H38542   0.456   7.264   8.111 -1.9446 -0.3099  0.0929
 1004MOL0     H38543   0.565   7.253   8.252  1.2322 -3.4919  0.7184
 1004MOL0     H38544   0.371   7.178   8.389  1.8245  1.5482  0.0215
 1004MOL0     H38545   0.329   7.323   8.295  0.1488 -0.1950  1.8101
 1004MOL0     H38546   0.233   7.044   8.203  0.8655 -0.0297 -1.4115
 1004MOL0     H38547   0.205   7.206   8.129 -0.0317 -0.4289  0.2246
 1004MOL0     H38548  -0.060   7.193   8.456 -0.7124 -0.8113 -0.1489
 1004MOL0     H38549   0.848   7.142   7.963 -3.0865 -0.5254 -2.3247
 1004MOL0     H38550   1.087   7.110   7.916  3.1486 -0.9294  0.8129
 1004MOL0     H38551   1.169   6.971   7.955 -0.8127  0.6352  1.6118
 1004MOL0     H38552   1.101   6.985   7.787  0.0248  0.8942 -0.4522
 1005MOL0     O38553   4.658   4.055   8.696 -0.0697 -0.0387 -0.3124
 1005MOL0     C38554   4.584   4.145   8.718 -0.1351 -0.4644 -0.4219
 1005MOL0     O38555   4.621   4.277   8.741  0.1794  0.4969  0.0246
 1005MOL0     C38556   4.750   4.322   8.764  0.1892 -0.0146  0.1362
 1005MOL0     C38557   4.766   4.463   8.776 -0.3773 -0.1508 -0.4481
 1005MOL0     C38558   4.890   4.527   8.786  0.1859 -0.1183  0.5480
 1005MOL0     C38559   5.002   4.445   8.764  0.6680 -0.9483  0.1853
 1005MOL0     O38560   5.127   4.491   8.770 -0.1414  0.1372 -0.0048
 1005MOL0     C38561   5.163   4.624   8.723  0.1133  0.7510 -0.4639
 1005MOL0     C38562   5.306   4.669   8.741 -0.0067  0.6138 -0.0027
 1005MOL0     C38563   5.341   4.818   8.706 -0.3353  0.8285  0.7295
 1005MOL0     C38564   5.243   4.919   8.764  0.5978 -0.1346 -0.0219
 1005MOL0     C38565   5.288   5.067   8.747  0.1871  0.4855  0.4938
 1005MOL0     C38566   5.183   5.171   8.765 -0.2946  0.3438 -0.9995
 1005MOL0     C38567   5.219   5.298   8.682  0.2282 -0.5153 -0.1454
 1005MOL0     C38568   5.345   5.378   8.729  0.4291 -0.4410  0.2598
 1005MOL0     N38569   5.342   5.515   8.688  0.9241 -0.4834 -0.0942
 1005MOL0     C38570   5.325   5.626   8.766  0.5810 -0.4326 -0.0032
 1005MOL0     C38571   5.331   5.737   8.687  0.8490 -0.2117 -0.2401
 1005MOL0     C38572   5.302   5.876   8.740 -0.6048  0.6636 -0.0775
 1005MOL0     C38573   5.415   5.973   8.735  0.2096  0.1320  0.8536
 1005MOL0     C38574   5.452   6.021   8.589 -0.7576  0.6413 -0.5362
 1005MOL0     C38575   5.561   6.126   8.591  0.3633 -0.8116  0.1211
 1005MOL0     O38576   5.586   6.177   8.461  1.1477 -0.4181  0.1863
 1005MOL0     C38577   5.710   6.237   8.452  0.0146 -0.7300 -0.5554
 1005MOL0     C38578   5.748   6.328   8.550  0.5201 -0.8320  0.2373
 1005MOL0     C38579   5.877   6.374   8.557  0.0212 -0.6452 -0.2239
 1005MOL0     C38580   5.907   6.473   8.665  1.0443  0.1804 -0.6710
 1005MOL0     C38581   5.975   6.343   8.452  0.0227 -0.0015  0.0812
 1005MOL0     C38582   6.114   6.401   8.437  0.7449 -0.2215 -0.6208
 1005MOL0     O38583   6.165   6.398   8.317  0.6256  0.2291 -0.0707
 1005MOL0     C38584   6.231   6.509   8.262  0.6905 -0.3911  0.2919
 1005MOL0     C38585   6.347   6.491   8.181  0.2329 -0.1104 -0.2879
 1005MOL0     C38586   6.419   6.600   8.126  0.2663  0.0700 -0.3297
 1005MOL0     C38587   6.382   6.733   8.162  0.2254 -0.1800  0.5735
 1005MOL0     O38588   6.452   6.849   8.137 -0.3710  0.1112  0.4531
 1005MOL0     C38589   6.569   6.842   8.058 -0.1038 -0.1467 -0.2498
 1005MOL0     C38590   6.541   6.824   7.905  0.7977 -0.7577  0.5927
 1005MOL0     C38591   6.422   6.916   7.849 -0.2365 -0.5269 -0.9987
 1005MOL0     C38592   6.431   7.065   7.905  0.8867  1.0558 -0.4127
 1005MOL0     C38593   6.312   7.165   7.864  0.6309  0.0195 -0.1117
 1005MOL0     C38594   6.177   7.111   7.883  0.6497 -0.2747 -1.1578
 1005MOL0     C38595   6.160   7.055   8.026  0.0673  0.0567  0.0039
 1005MOL0     C38596   6.011   7.068   8.061 -0.0466 -0.7613  0.2217
 1005MOL0    Cl38597   5.968   7.022   8.234  0.0584  0.0251  0.1228
 1005MOL0     C38598   6.266   6.756   8.235 -0.8042  0.5185  0.5218
 1005MOL0     C38599   6.193   6.648   8.277  0.5246 -0.5097 -0.3617
 1005MOL0     O38600   6.172   6.439   8.541  0.7824 -0.0824 -0.2450
 1005MOL0     C38601   5.940   6.257   8.344 -0.6792 -0.5853 -0.7080
 1005MOL0     C38602   5.804   6.202   8.354 -0.4116 -1.0024 -0.3007
 1005MOL0     N38603   5.367   5.696   8.560  0.2668  0.1871 -0.5335
 1005MOL0     N38604   5.378   5.568   8.564 -0.0997 -0.7852  0.5186
 1005MOL0     C38605   4.985   4.310   8.765  0.2509  0.3637  0.7393
 1005MOL0     C38606   4.863   4.245   8.759  0.2193 -0.3284  0.0648
 1005MOL0     C38607   4.435   4.118   8.720  0.1882 -0.1392  0.1012
 1005MOL0     C38608   4.364   4.225   8.663  0.9514 -0.3234 -0.3591
 1005MOL0     C38609   4.230   4.219   8.649  0.5698  0.6496 -0.1275
 1005MOL0     C38610   4.155   4.115   8.712  0.1500  0.0893  0.8865
 1005MOL0     O38611   4.014   4.099   8.695  0.1660 -0.7178  0.2713
 1005MOL0     C38612   3.931   4.118   8.807  1.0159  0.9340  0.0482
 1005MOL0     C38613   3.825   4.223   8.775  0.0943  0.3283  0.6772
 1005MOL0     C38614   3.888   4.358   8.739 -0.5069 -0.2662 -0.0577
 1005MOL0     C38615   3.812   4.481   8.769 -0.2127  0.3982  0.4068
 1005MOL0     C38616   3.792   4.513   8.913  0.3906  0.8276  0.1428
 1005MOL0     C38617   3.779   4.564   9.024 -0.0969 -0.1000  0.1634
 1005MOL0     C38618   4.219   4.007   8.763 -0.3701  0.1174 -0.9572
 1005MOL0     C38619   4.365   4.002   8.767  0.1444  0.2947  0.6226
 1005MOL0     C38620   4.416   3.887   8.850  0.0751  0.3600 -0.2511
 1005MOL0     H38621   4.679   4.527   8.779  0.1480  0.5418  1.0882
 1005MOL0     H38622   4.902   4.634   8.775  0.0825 -0.2183 -0.6253
 1005MOL0     H38623   5.103   4.696   8.779 -2.0905 -0.2103 -1.4129
 1005MOL0     H38624   5.135   4.624   8.617 -6.5074  1.4640  0.8118
 1005MOL0     H38625   5.345   4.656   8.843  1.0632  1.8935 -0.2365
 1005MOL0     H38626   5.370   4.612   8.673 -1.4301  0.0505 -0.9204
 1005MOL0     H38627   5.443   4.834   8.741 -0.1543  1.1448  0.0709
 1005MOL0     H38628   5.347   4.841   8.599 -1.2567  0.2041  0.5212
 1005MOL0     H38629   5.149   4.915   8.709 -0.1812  1.3961  1.1259
 1005MOL0     H38630   5.230   4.910   8.872  2.0295 -0.2999  0.1639
 1005MOL0     H38631   5.320   5.069   8.643  0.7708  1.3888  0.6746
 1005MOL0     H38632   5.369   5.095   8.816  0.6974 -0.9151  0.4834
 1005MOL0     H38633   5.086   5.130   8.736 -1.1143  1.1486  0.4423
 1005MOL0     H38634   5.167   5.196   8.871 -0.7830  1.0578 -1.2353
 1005MOL0     H38635   5.131   5.364   8.684  1.8040  1.7103  0.4440
 1005MOL0     H38636   5.240   5.283   8.576 -1.2307  1.2867 -0.7636
 1005MOL0     H38637   5.339   5.367   8.838 -1.9423  1.8336  0.4666
 1005MOL0     H38638   5.435   5.325   8.699  0.2268 -1.2347  1.0228
 1005MOL0     H38639   5.296   5.606   8.869  0.5305 -1.6256 -0.2363
 1005MOL0     H38640   5.269   5.871   8.844  1.9877 -0.4656  0.7669
 1005MOL0     H38641   5.215   5.918   8.689 -0.8367 -1.2729 -1.3987
 1005MOL0     H38642   5.384   6.058   8.798  3.4162  2.1365  0.0254
 1005MOL0     H38643   5.505   5.930   8.781  1.7849  0.8840 -1.3260
 1005MOL0     H38644   5.477   5.939   8.521  0.5376 -0.1979  0.8653
 1005MOL0     H38645   5.367   6.074   8.545  0.0874  4.1075  1.5804
 1005MOL0     H38646   5.529   6.205   8.660  4.3447  1.4386 -0.2599
 1005MOL0     H38647   5.656   6.086   8.628  1.6441  2.8532  1.3300
 1005MOL0     H38648   5.672   6.363   8.619  1.7456  1.7312  0.4095
 1005MOL0     H38649   5.990   6.433   8.724  1.2556 -2.0543 -2.3352
 1005MOL0     H38650   5.816   6.472   8.725 -1.2206 -0.2490 -3.8842
 1005MOL0     H38651   5.942   6.572   8.636  0.7338  0.8529  1.0989
 1005MOL0     H38652   6.374   6.389   8.155 -2.0640 -0.5931 -0.9915
 1005MOL0     H38653   6.503   6.577   8.063 -2.9625 -0.5470 -4.8785
 1005MOL0     H38654   6.632   6.931   8.064 -1.7173  1.1616 -1.6452
 1005MOL0     H38655   6.634   6.758   8.084 -2.0664 -0.7448  3.4216
 1005MOL0     H38656   6.636   6.848   7.857  0.6998  3.5430  2.1580
 1005MOL0     H38657   6.516   6.724   7.869 -1.5395  0.9739 -3.2924
 1005MOL0     H38658   6.327   6.869   7.878 -1.4473  2.1075 -0.4203
 1005MOL0     H38659   6.432   6.922   7.741  0.6836  1.2535 -0.8531
 1005MOL0     H38660   6.526   7.097   7.861  1.8124  0.4592  1.0463
 1005MOL0     H38661   6.447   7.074   8.013 -0.1011  0.5180 -0.2143
 1005MOL0     H38662   6.314   7.263   7.912 -3.7017  0.0188  0.4830
 1005MOL0     H38663   6.327   7.167   7.756  0.6843 -2.1627 -0.2007
 1005MOL0     H38664   6.155   7.036   7.807 -0.9451  0.8536 -1.8589
 1005MOL0     H38665   6.102   7.187   7.859  0.1871 -0.2141  0.4030
 1005MOL0     H38666   6.231   7.099   8.095  0.5479  1.0761 -1.1022
 1005MOL0     H38667   6.164   6.946   8.012 -0.6201  0.2039 -1.5960
 1005MOL0     H38668   5.948   7.016   7.988  0.9525 -1.2679 -0.2997
 1005MOL0     H38669   5.982   7.174   8.051 -2.9875 -1.5112 -0.2914
 1005MOL0     H38670   6.225   6.853   8.262 -2.1581  0.0828  0.1409
 1005MOL0     H38671   6.097   6.667   8.324 -0.2276  2.3284 -2.7660
 1005MOL0     H38672   6.006   6.238   8.260  0.9930 -0.8225  0.6191
 1005MOL0     H38673   5.771   6.155   8.262 -0.7058  0.7001 -1.0975
 1005MOL0     H38674   5.071   4.243   8.759 -0.8909 -1.0864 -0.3928
 1005MOL0     H38675   4.854   4.137   8.757 -0.1514 -0.3109  0.6221
 1005MOL0     H38676   4.416   4.312   8.623 -2.0341  0.9965 -1.6250
 1005MOL0     H38677   4.179   4.299   8.596 -0.3111  0.5454  0.5249
 1005MOL0     H38678   3.890   4.019   8.826 -0.3514  0.1709 -5.3012
 1005MOL0     H38679   3.984   4.155   8.895 -1.3009 -0.9427  2.3759
 1005MOL0     H38680   3.759   4.228   8.862  0.7229 -3.0071  1.4791
 1005MOL0     H38681   3.758   4.192   8.694  0.0804  2.8268 -0.3467
 1005MOL0     H38682   3.985   4.378   8.786 -0.9425  2.2616 -0.1202
 1005MOL0     H38683   3.909   4.351   8.632 -0.4338  2.0794 -0.2565
 1005MOL0     H38684   3.720   4.480   8.708  1.1811 -0.9429 -1.8330
 1005MOL0     H38685   3.874   4.559   8.724  0.0570 -1.4562 -2.8090
 1005MOL0     H38686   3.785   4.604   9.123  3.8153 -0.2306  0.1250
 1005MOL0     H38687   4.158   3.928   8.806  1.4331 -0.0438  1.5185
 1005MOL0     H38688   4.369   3.793   8.821 -0.4816  0.7685 -0.7088
 1005MOL0     H38689   4.525   3.882   8.863  0.1503 -2.7002 -1.1735
 1005MOL0     H38690   4.383   3.903   8.953 -0.0502  1.4743 -0.4525
 1006MOL0     O38691   1.944   5.335   2.052 -0.3951 -0.4179 -0.3478
 1006MOL0     C38692   1.937   5.451   2.096  0.3471  0.7390  0.2305
 1006MOL0     O38693   2.045   5.540   2.110  0.6563  1.1702 -0.0245
 1006MOL0     C38694   2.164   5.496   2.055 -0.5774 -0.9857  0.8170
 1006MOL0     C38695   2.176   5.476   1.909 -0.6009  0.5880 -0.8975
 1006MOL0     C38696   2.297   5.432   1.855 -1.2549  0.6394 -0.5631
 1006MOL0     C38697   2.417   5.424   1.931 -0.3885  0.4757  0.3629
 1006MOL0     O38698   2.548   5.406   1.884  0.4158  0.5895 -0.3732
 1006MOL0     C38699   2.584   5.405   1.748 -0.0132 -0.1990 -0.5820
 1006MOL0     C38700   2.736   5.420   1.748 -0.4997  0.2197  0.5804
 1006MOL0     C38701   2.804   5.365   1.624  0.4459  0.6862 -0.5623
 1006MOL0     C38702   2.942   5.423   1.612  0.1718 -0.2425 -0.7544
 1006MOL0     C38703   3.006   5.386   1.475  0.1513  0.3030  0.2588
 1006MOL0     C38704   3.162   5.413   1.449  0.3311  0.5574  0.2064
 1006MOL0     C38705   3.255   5.370   1.562  1.2918 -0.3920  0.4548
 1006MOL0     C38706   3.399   5.370   1.533 -0.2094 -1.0100  0.2256
 1006MOL0     N38707   3.448   5.261   1.453  0.7336  0.2482 -0.5597
 1006MOL0     C38708   3.487   5.136   1.503 -0.3449 -0.2144  0.0766
 1006MOL0     C38709   3.538   5.063   1.398  0.3575 -0.4739 -0.3602
 1006MOL0     C38710   3.575   4.916   1.411  0.0809 -0.6134 -0.4292
 1006MOL0     C38711   3.479   4.825   1.341 -0.2246 -0.2779 -0.0680
 1006MOL0     C38712   3.496   4.684   1.383 -0.7715 -0.2304 -0.4192
 1006MOL0     C38713   3.420   4.565   1.312  0.6227 -0.3570  0.5006
 1006MOL0     O38714   3.284   4.563   1.356  0.5151  0.4467  0.3834
 1006MOL0     C38715   3.193   4.467   1.309  0.3034  0.2899  0.7181
 1006MOL0     C38716   3.217   4.386   1.198  0.9205 -0.1416  0.3981
 1006MOL0     C38717   3.132   4.275   1.157 -0.3739 -0.1480  1.0699
 1006MOL0     C38718   3.200   4.180   1.061 -0.1047  0.2476 -0.1424
 1006MOL0     C38719   3.006   4.250   1.220 -1.3564 -1.0842  0.4092
 1006MOL0     C38720   2.908   4.133   1.196  0.3520 -0.0788  0.0876
 1006MOL0     O38721   2.818   4.106   1.295 -0.5408  0.2227  0.5208
 1006MOL0     C38722   2.707   4.030   1.264 -0.0753 -0.1029 -0.2075
 1006MOL0     C38723   2.641   4.010   1.144 -0.3272  0.2406 -0.4997
 1006MOL0     C38724   2.527   3.930   1.124  0.0809 -0.1903  0.1620
 1006MOL0     C38725   2.468   3.882   1.234 -0.0852 -0.0072  0.5537
 1006MOL0     O38726   2.348   3.805   1.210 -1.1330 -0.9633  0.5362
 1006MOL0     C38727   2.327   3.690   1.291 -0.9280 -0.8631 -0.0266
 1006MOL0     C38728   2.187   3.657   1.284 -0.1678 -0.1302 -0.3152
 1006MOL0     C38729   2.159   3.530   1.362  0.0809 -1.1620 -0.4885
 1006MOL0     C38730   2.014   3.504   1.372 -0.6497  0.4676  0.6537
 1006MOL0     C38731   1.947   3.595   1.474 -0.6291  0.7439 -0.8797
 1006MOL0     C38732   1.811   3.542   1.488  1.8262  1.3892 -0.3610
 1006MOL0     C38733   1.733   3.599   1.605  0.3900 -1.1536  0.4392
 1006MOL0     C38734   1.589   3.554   1.613 -0.2864  0.0329 -0.7205
 1006MOL0    Cl38735   1.585   3.375   1.641 -0.3246 -0.3500 -0.3126
 1006MOL0     C38736   2.523   3.911   1.363 -0.0277  0.1545  0.1235
 1006MOL0     C38737   2.645   3.975   1.370 -0.4171  0.3816 -0.2479
 1006MOL0     O38738   2.917   4.074   1.087  0.7441 -0.1380 -0.7444
 1006MOL0     C38739   2.979   4.336   1.324  0.3431 -0.8514  0.4346
 1006MOL0     C38740   3.064   4.451   1.358  0.0389  0.0447  0.6482
 1006MOL0     N38741   3.534   5.140   1.291  0.8975  0.2739 -0.2664
 1006MOL0     N38742   3.471   5.249   1.317  0.0935  0.4441 -0.4234
 1006MOL0     C38743   2.408   5.450   2.074 -0.1659 -0.2633  0.6840
 1006MOL0     C38744   2.281   5.486   2.131 -0.3948 -0.8190 -0.0537
 1006MOL0     C38745   1.800   5.512   2.120 -0.0298 -0.8441 -0.0287
 1006MOL0     C38746   1.793   5.636   2.179 -0.2441 -0.3648  0.8931
 1006MOL0     C38747   1.671   5.691   2.214  0.0995  0.1140 -0.4993
 1006MOL0     C38748   1.549   5.619   2.218  0.1282 -1.2928 -0.4063
 1006MOL0     O38749   1.432   5.659   2.283  0.1979 -0.5087  0.6345
 1006MOL0     C38750   1.409   5.791   2.332 -0.3002 -0.1044 -0.1950
 1006MOL0     C38751   1.360   5.897   2.228  0.9742  0.6270  0.3237
 1006MOL0     C38752   1.217   5.866   2.184 -0.6655 -0.2325  0.8666
 1006MOL0     C38753   1.184   5.978   2.082 -0.1223  0.1429  0.4082
 1006MOL0     C38754   1.042   5.969   2.044  0.3197  0.3319 -0.9549
 1006MOL0     C38755   0.920   5.978   2.030  0.3840 -0.3214 -0.2054
 1006MOL0     C38756   1.555   5.491   2.163 -0.6560  0.4490 -0.5911
 1006MOL0     C38757   1.677   5.440   2.114  0.2058 -0.3241 -0.0744
 1006MOL0     C38758   1.662   5.292   2.087  0.8955 -0.8004 -0.0475
 1006MOL0     H38759   2.087   5.497   1.851 -2.1663 -0.0549  1.1349
 1006MOL0     H38760   2.314   5.421   1.748  3.0010 -1.8320  0.1112
 1006MOL0     H38761   2.536   5.479   1.683  1.8078  0.4016 -1.2909
 1006MOL0     H38762   2.574   5.305   1.703  0.8279  0.0612 -1.3657
 1006MOL0     H38763   2.767   5.524   1.751  1.0066 -0.1843  0.0084
 1006MOL0     H38764   2.779   5.368   1.834  1.7798  3.5690  1.6252
 1006MOL0     H38765   2.810   5.256   1.612  0.9111  0.1736  3.2272
 1006MOL0     H38766   2.740   5.404   1.544 -1.0142  1.2304  0.8276
 1006MOL0     H38767   2.937   5.532   1.618 -0.0552 -0.2695 -0.4400
 1006MOL0     H38768   3.000   5.388   1.698  0.2370  1.6795  0.0390
 1006MOL0     H38769   2.944   5.432   1.399 -1.8714 -0.7918  1.1782
 1006MOL0     H38770   2.994   5.279   1.457  0.4860  0.4926 -1.2030
 1006MOL0     H38771   3.188   5.370   1.351 -1.6894  0.8928 -0.5277
 1006MOL0     H38772   3.175   5.521   1.444 -4.3376  1.2673 -1.7196
 1006MOL0     H38773   3.227   5.270   1.594  1.6658 -0.9236 -0.8009
 1006MOL0     H38774   3.243   5.447   1.639 -1.9993  0.7352 -0.9825
 1006MOL0     H38775   3.412   5.469   1.489 -1.2534 -0.4706  1.0945
 1006MOL0     H38776   3.458   5.386   1.624 -1.7931  0.4549  1.0522
 1006MOL0     H38777   3.476   5.108   1.607  0.2358  0.1714  0.2457
 1006MOL0     H38778   3.585   4.891   1.517 -0.7235  2.3884  0.4491
 1006MOL0     H38779   3.671   4.896   1.365 -0.1670 -3.5163  0.1347
 1006MOL0     H38780   3.378   4.855   1.371 -0.1970 -0.4282  0.1825
 1006MOL0     H38781   3.498   4.829   1.233  3.4655 -1.1133  0.4319
 1006MOL0     H38782   3.602   4.656   1.383 -0.4344  0.9214  0.5898
 1006MOL0     H38783   3.469   4.690   1.489  1.6686  1.1957  0.2187
 1006MOL0     H38784   3.413   4.586   1.205 -2.5652  2.4707  1.0632
 1006MOL0     H38785   3.470   4.469   1.324  1.6838  0.2859  1.4165
 1006MOL0     H38786   3.317   4.386   1.157  0.0590  1.4073 -1.9298
 1006MOL0     H38787   3.223   4.086   1.112 -1.6383  0.7276  1.5200
 1006MOL0     H38788   3.290   4.214   1.009 -1.2697  1.6129 -1.3720
 1006MOL0     H38789   3.127   4.153   0.983  0.1368 -1.6363  0.2503
 1006MOL0     H38790   2.681   4.057   1.054 -1.2813  0.6537 -0.7155
 1006MOL0     H38791   2.496   3.917   1.020  0.8561  1.6192 -0.3242
 1006MOL0     H38792   2.388   3.605   1.259  0.3525  0.6130 -1.7031
 1006MOL0     H38793   2.350   3.711   1.396  1.4777  0.5326 -0.7695
 1006MOL0     H38794   2.129   3.743   1.318  0.6681  0.8717 -1.3498
 1006MOL0     H38795   2.162   3.640   1.179 -0.7105 -0.2618 -0.1684
 1006MOL0     H38796   2.192   3.540   1.466 -0.4056  3.4680 -0.5705
 1006MOL0     H38797   2.208   3.451   1.304  0.7134 -0.1092 -1.4396
 1006MOL0     H38798   2.005   3.401   1.406  3.4049 -0.0912  0.4845
 1006MOL0     H38799   1.973   3.518   1.271 -0.4440 -0.8126  0.3862
 1006MOL0     H38800   1.994   3.577   1.571 -0.0588 -2.2886 -1.6139
 1006MOL0     H38801   1.939   3.701   1.449  4.0890  1.1719 -1.4110
 1006MOL0     H38802   1.814   3.434   1.504  0.9192  1.5861  1.5046
 1006MOL0     H38803   1.758   3.570   1.396  3.0939  1.1351 -1.1878
 1006MOL0     H38804   1.728   3.706   1.582  0.7030 -0.6800  2.3834
 1006MOL0     H38805   1.775   3.588   1.705 -0.4117 -0.6377  0.8416
 1006MOL0     H38806   1.547   3.569   1.513 -1.2899 -0.1300 -0.3342
 1006MOL0     H38807   1.529   3.601   1.692 -1.1113 -2.3765  0.1945
 1006MOL0     H38808   2.485   3.864   1.453 -1.6925  0.0551 -0.5850
 1006MOL0     H38809   2.685   3.986   1.470 -1.0993  3.6930 -0.2097
 1006MOL0     H38810   2.884   4.323   1.375  0.1263 -1.3676 -0.0865
 1006MOL0     H38811   3.032   4.521   1.434 -0.3191  3.1334 -2.0973
 1006MOL0     H38812   2.499   5.450   2.132 -0.2408  0.6763  0.8176
 1006MOL0     H38813   2.281   5.495   2.240  2.3193 -0.5585  0.0150
 1006MOL0     H38814   1.882   5.695   2.200 -1.2254  1.2853  0.6309
 1006MOL0     H38815   1.684   5.791   2.253  1.2273 -0.4927  0.7766
 1006MOL0     H38816   1.335   5.793   2.413  2.0375  0.9846  2.0685
 1006MOL0     H38817   1.500   5.819   2.385 -1.2078  0.7165  1.0023
 1006MOL0     H38818   1.426   5.899   2.140  0.3785 -0.0573 -0.1511
 1006MOL0     H38819   1.373   5.996   2.271  0.2702  2.0265 -2.4521
 1006MOL0     H38820   1.211   5.771   2.130 -1.6210 -0.5507  1.5089
 1006MOL0     H38821   1.152   5.868   2.272  0.7666  0.0000  1.9685
 1006MOL0     H38822   1.247   5.982   1.993 -1.8366  2.0264 -0.8106
 1006MOL0     H38823   1.203   6.074   2.130  0.7974 -1.6149  3.8917
 1006MOL0     H38824   0.814   5.992   2.022  0.1569 -0.3346  2.0754
 1006MOL0     H38825   1.459   5.444   2.181 -1.0004  1.5169  0.4595
 1006MOL0     H38826   1.560   5.256   2.100  1.4255 -1.9833  1.1122
 1006MOL0     H38827   1.684   5.265   1.983 -0.7481 -2.9727  0.1116
 1006MOL0     H38828   1.726   5.234   2.155 -1.4401 -1.8711  1.3456
 1007MOL0     O38829   4.407   6.969   3.395 -0.2468 -0.1828  0.3831
 1007MOL0     C38830   4.364   7.018   3.499  0.5355 -0.1296 -0.6487
 1007MOL0     O38831   4.425   7.110   3.586 -0.4566 -0.4523  0.8677
 1007MOL0     C38832   4.557   7.139   3.562  1.0255 -0.6080  0.2352
 1007MOL0     C38833   4.660   7.039   3.553  0.7529 -0.9035 -0.6879
 1007MOL0     C38834   4.792   7.086   3.527  0.7502  0.0128 -0.0515
 1007MOL0     C38835   4.815   7.224   3.508  0.0362 -0.3471 -0.0601
 1007MOL0     O38836   4.938   7.282   3.491 -0.5151 -0.8923  0.6340
 1007MOL0     C38837   5.034   7.207   3.407  0.4330  0.2168 -0.2968
 1007MOL0     C38838   5.170   7.272   3.395  0.3825  0.0524 -0.3386
 1007MOL0     C38839   5.233   7.305   3.527  0.0014 -0.8411 -0.7547
 1007MOL0     C38840   5.323   7.442   3.511 -0.1506 -0.1106  0.6816
 1007MOL0     C38841   5.433   7.432   3.623  0.7488 -0.3213  0.5354
 1007MOL0     C38842   5.533   7.540   3.584 -0.8380 -0.6867 -0.0597
 1007MOL0     C38843   5.651   7.526   3.685 -0.2988  0.2626  0.7607
 1007MOL0     C38844   5.618   7.570   3.830 -0.6120  0.6266  0.2663
 1007MOL0     N38845   5.738   7.548   3.910  0.3525 -0.9022 -0.2195
 1007MOL0     C38846   5.824   7.442   3.911 -0.2505 -0.5037 -0.3370
 1007MOL0     C38847   5.936   7.483   3.978  1.0369 -1.2040  0.2698
 1007MOL0     C38848   6.067   7.406   4.001  0.1011  0.3270 -1.1443
 1007MOL0     C38849   6.176   7.511   4.045 -0.2270 -0.4041 -0.7540
 1007MOL0     C38850   6.189   7.557   4.191  0.1018 -0.4936  0.0757
 1007MOL0     C38851   6.163   7.443   4.295 -0.6869  0.8690  0.5093
 1007MOL0     O38852   6.226   7.314   4.268  0.5018  0.4490 -0.0102
 1007MOL0     C38853   6.358   7.291   4.299 -0.3806  0.1496  0.2867
 1007MOL0     C38854   6.401   7.163   4.261  0.2206  0.5454  0.1641
 1007MOL0     C38855   6.537   7.121   4.282 -0.4258  0.5896 -0.2488
 1007MOL0     C38856   6.569   6.982   4.244  0.1763  0.0699  0.1092
 1007MOL0     C38857   6.626   7.221   4.336  0.5729 -0.0979 -0.4937
 1007MOL0     C38858   6.768   7.179   4.358  0.9268  0.4605 -0.5862
 1007MOL0     O38859   6.861   7.279   4.357 -0.3906 -0.0249 -0.7145
 1007MOL0     C38860   6.999   7.249   4.327  0.0852  0.5041 -0.2674
 1007MOL0     C38861   7.079   7.321   4.409 -0.5528 -1.0264  0.7080
 1007MOL0     C38862   7.219   7.308   4.392  0.3106 -0.3154  0.3108
 1007MOL0     C38863   7.284   7.216   4.294  0.6001  0.3299  0.2371
 1007MOL0     O38864   7.415   7.216   4.265  0.7899  0.3443 -0.0517
 1007MOL0     C38865   7.507   7.241   4.372 -0.3925  0.2473  0.5174
 1007MOL0     C38866   7.638   7.180   4.340 -0.0129  0.3845 -0.1635
 1007MOL0     C38867   7.718   7.168   4.464 -0.0831 -0.2984 -0.0565
 1007MOL0     C38868   7.857   7.100   4.445 -0.5882  0.3720 -0.4401
 1007MOL0     C38869   7.905   7.084   4.579 -0.1493 -0.5937 -1.2027
 1007MOL0     C38870   8.061   7.079   4.575 -0.9243  0.0117 -0.1840
 1007MOL0     C38871   8.129   7.059   4.711  0.0433 -0.0076 -0.1831
 1007MOL0     C38872   8.275   7.024   4.689 -0.5406 -0.4725  0.4520
 1007MOL0    Cl38873   8.370   7.014   4.835 -0.0640  0.0546  0.1525
 1007MOL0     C38874   7.189   7.147   4.210  0.3609  0.0619  0.4822
 1007MOL0     C38875   7.052   7.164   4.231 -0.5542  0.0666 -0.4313
 1007MOL0     O38876   6.789   7.061   4.397 -0.3641 -0.2705 -0.0844
 1007MOL0     C38877   6.577   7.353   4.373  0.5576  0.4891  0.3930
 1007MOL0     C38878   6.446   7.391   4.353  0.9331  0.8488  0.9439
 1007MOL0     N38879   5.919   7.614   4.009 -0.3024  0.2327 -0.0909
 1007MOL0     N38880   5.801   7.647   3.977 -1.7067  0.3687  0.2308
 1007MOL0     C38881   4.708   7.317   3.518 -0.2248 -0.0349  0.9520
 1007MOL0     C38882   4.580   7.274   3.536 -0.5841 -0.0795 -0.4715
 1007MOL0     C38883   4.219   6.979   3.529  0.4572  0.1617  0.1902
 1007MOL0     C38884   4.148   7.063   3.620  0.2107 -0.5468 -0.0687
 1007MOL0     C38885   4.018   7.043   3.658 -0.2507 -0.7615 -0.0825
 1007MOL0     C38886   3.940   6.941   3.601  0.8162 -0.6429  0.2114
 1007MOL0     O38887   3.808   6.924   3.619 -0.2010  0.1970  1.5732
 1007MOL0     C38888   3.739   6.991   3.726  0.6657 -0.1045 -0.2339
 1007MOL0     C38889   3.596   6.937   3.757  0.3169 -1.4008 -0.0813
 1007MOL0     C38890   3.534   6.986   3.894 -0.1017  0.9273 -0.1277
 1007MOL0     C38891   3.630   6.981   4.015 -0.1783  0.3325  0.1395
 1007MOL0     C38892   3.565   7.008   4.141  0.5630  0.2991  0.9455
 1007MOL0     C38893   3.509   7.030   4.247 -0.6466  0.0339  0.3714
 1007MOL0     C38894   4.000   6.867   3.501 -0.2999 -0.0828 -0.4431
 1007MOL0     C38895   4.139   6.878   3.474 -0.0607 -0.4302 -0.3876
 1007MOL0     C38896   4.195   6.781   3.368 -0.1886  0.7237 -0.8404
 1007MOL0     H38897   4.637   6.935   3.569  0.5316 -0.7599 -0.0481
 1007MOL0     H38898   4.855   7.000   3.510 -1.7998 -1.4305 -3.1408
 1007MOL0     H38899   4.985   7.189   3.311 -0.0975  0.4556 -0.0780
 1007MOL0     H38900   5.048   7.108   3.451  1.6733  0.6558  0.3291
 1007MOL0     H38901   5.228   7.213   3.323 -0.4506 -0.6950 -0.4190
 1007MOL0     H38902   5.155   7.367   3.344 -2.2007 -0.8135 -1.3740
 1007MOL0     H38903   5.158   7.339   3.599  2.9220  1.5310  1.4509
 1007MOL0     H38904   5.296   7.224   3.563  0.5614  0.0009  0.2142
 1007MOL0     H38905   5.354   7.455   3.407 -0.4080 -0.2665  0.5862
 1007MOL0     H38906   5.255   7.528   3.520 -1.2559 -0.6789 -1.5190
 1007MOL0     H38907   5.484   7.336   3.622  0.8835 -0.2853 -1.6659
 1007MOL0     H38908   5.395   7.456   3.723  1.3507 -0.3016  0.7659
 1007MOL0     H38909   5.563   7.523   3.480 -0.8008 -1.6654  0.1055
 1007MOL0     H38910   5.487   7.639   3.590 -0.7059 -0.4396 -2.1638
 1007MOL0     H38911   5.728   7.592   3.645 -0.2006 -0.3964 -0.1744
 1007MOL0     H38912   5.689   7.424   3.682 -0.4372  0.2246  0.0975
 1007MOL0     H38913   5.570   7.669   3.825 -2.6901 -0.3302  0.1391
 1007MOL0     H38914   5.539   7.503   3.864 -0.9378  0.1315 -1.3863
 1007MOL0     H38915   5.809   7.338   3.882  0.9669 -1.0832  0.9850
 1007MOL0     H38916   6.084   7.361   3.903 -2.9593 -0.3289 -1.4752
 1007MOL0     H38917   6.064   7.327   4.077 -1.0134  2.1730  0.8315
 1007MOL0     H38918   6.275   7.471   4.020 -0.0126 -2.5348  2.7782
 1007MOL0     H38919   6.159   7.605   3.993 -1.4562 -0.7025 -0.9211
 1007MOL0     H38920   6.290   7.598   4.201 -1.1014  3.1162 -1.0887
 1007MOL0     H38921   6.119   7.641   4.199 -0.0616 -0.6868  0.7428
 1007MOL0     H38922   6.180   7.482   4.396 -0.7209  4.3511 -0.6819
 1007MOL0     H38923   6.054   7.432   4.288 -0.8872  3.1218 -1.1550
 1007MOL0     H38924   6.336   7.093   4.209  2.1978 -0.0171 -1.7510
 1007MOL0     H38925   6.666   6.978   4.195  0.6051  0.8083  0.8668
 1007MOL0     H38926   6.490   6.938   4.182 -1.7529  0.3724  2.1958
 1007MOL0     H38927   6.569   6.933   4.342 -1.6848 -1.2377 -0.4816
 1007MOL0     H38928   7.043   7.384   4.490 -0.8228 -0.2023 -0.0320
 1007MOL0     H38929   7.282   7.352   4.469 -1.9229  0.5852  1.7308
 1007MOL0     H38930   7.511   7.351   4.375  0.6619  0.2001  1.6176
 1007MOL0     H38931   7.468   7.206   4.468 -1.3906 -0.9457 -0.2908
 1007MOL0     H38932   7.618   7.087   4.287  0.2952  0.0547  0.2860
 1007MOL0     H38933   7.697   7.241   4.271  1.6470 -0.3098  0.5698
 1007MOL0     H38934   7.655   7.125   4.542 -1.9405  5.1197  1.8804
 1007MOL0     H38935   7.745   7.269   4.495 -0.6229 -0.4728  1.0033
 1007MOL0     H38936   7.919   7.174   4.392 -0.2949  1.8048  1.7658
 1007MOL0     H38937   7.851   7.004   4.394 -0.4514  0.5975 -0.8889
 1007MOL0     H38938   7.873   7.160   4.651  1.1947 -1.0764 -0.0704
 1007MOL0     H38939   7.874   6.985   4.612  1.8210 -0.7101  0.5149
 1007MOL0     H38940   8.110   7.153   4.512 -1.3948 -1.4742 -2.4148
 1007MOL0     H38941   8.082   6.985   4.522 -2.4112  0.2233 -1.2229
 1007MOL0     H38942   8.088   6.973   4.764 -1.3695 -0.4369 -1.8831
 1007MOL0     H38943   8.114   7.147   4.774 -3.0655 -0.6895  0.1813
 1007MOL0     H38944   8.326   7.096   4.625  1.6864 -0.7516  1.7907
 1007MOL0     H38945   8.290   6.929   4.636  1.7935  0.9145 -1.6105
 1007MOL0     H38946   7.227   7.076   4.138  2.4590  3.7694 -2.4440
 1007MOL0     H38947   6.976   7.110   4.176  1.0189 -2.3884 -0.3622
 1007MOL0     H38948   6.652   7.420   4.415  2.2963 -0.7145 -0.6403
 1007MOL0     H38949   6.402   7.489   4.369 -1.1634  0.0318  0.5591
 1007MOL0     H38950   4.725   7.424   3.514 -0.3213  0.1422  3.6203
 1007MOL0     H38951   4.499   7.346   3.540 -1.6878 -1.1768 -1.8297
 1007MOL0     H38952   4.179   7.156   3.668 -1.3062 -0.7686  1.4160
 1007MOL0     H38953   3.972   7.118   3.721 -1.3128 -2.9215  1.8912
 1007MOL0     H38954   3.806   6.986   3.812  4.2452 -2.3593 -2.8630
 1007MOL0     H38955   3.720   7.094   3.696 -2.6707 -0.5453  0.0268
 1007MOL0     H38956   3.603   6.828   3.762 -0.1243 -1.3868  1.4336
 1007MOL0     H38957   3.533   6.966   3.672  2.5065 -0.0738 -1.3680
 1007MOL0     H38958   3.509   7.092   3.880  1.1451  1.3948  0.9175
 1007MOL0     H38959   3.443   6.930   3.913 -0.6793  1.8974  0.0433
 1007MOL0     H38960   3.711   7.055   4.008 -0.3119  0.5323  0.6898
 1007MOL0     H38961   3.676   6.882   4.016  2.0650  1.2770  2.4573
 1007MOL0     H38962   3.458   7.050   4.340 -0.6052 -0.9419  0.6177
 1007MOL0     H38963   3.950   6.789   3.445  0.9052 -1.6251  0.5421
 1007MOL0     H38964   4.123   6.702   3.347 -0.9608  0.3552  2.5495
 1007MOL0     H38965   4.229   6.829   3.276  0.7822  0.3877 -0.6693
 1007MOL0     H38966   4.280   6.726   3.409 -1.1233 -1.4821 -1.6943
 1008MOL0     O38967   1.205   8.219   6.054 -0.2727  1.0534  0.2002
 1008MOL0     C38968   1.131   8.250   6.148 -0.3326  0.7744  0.4657
 1008MOL0     O38969   1.123   8.206   6.272  0.5336  0.4010 -1.1062
 1008MOL0     C38970   1.223   8.117   6.311 -0.0427 -0.6404 -0.6390
 1008MOL0     C38971   1.203   7.981   6.285  0.2576 -0.4858 -1.2114
 1008MOL0     C38972   1.314   7.898   6.304 -0.0637 -0.1428 -0.6116
 1008MOL0     C38973   1.441   7.948   6.343 -0.6940  0.3020 -0.0768
 1008MOL0     O38974   1.553   7.869   6.361  0.2811  0.7754  0.0854
 1008MOL0     C38975   1.533   7.722   6.381 -0.0214  0.4110  0.0358
 1008MOL0     C38976   1.640   7.661   6.467 -0.0919  0.4740  1.0133
 1008MOL0     C38977   1.781   7.656   6.422 -0.5663  0.2927 -0.0578
 1008MOL0     C38978   1.869   7.575   6.518  0.0139  0.4033 -0.1907
 1008MOL0     C38979   2.013   7.627   6.532  1.2600  0.6369  0.3408
 1008MOL0     C38980   2.088   7.546   6.638 -0.1015  0.2333  0.7584
 1008MOL0     C38981   2.237   7.596   6.665 -0.4678  0.2055  0.1132
 1008MOL0     C38982   2.310   7.503   6.760  0.1102 -0.4648 -0.1075
 1008MOL0     N38983   2.416   7.578   6.835 -0.5008  0.0667 -0.4500
 1008MOL0     C38984   2.531   7.606   6.780 -0.1771 -1.0081  0.8136
 1008MOL0     C38985   2.597   7.682   6.869 -0.6024 -0.9566  0.6540
 1008MOL0     C38986   2.721   7.762   6.866 -0.1508 -0.8523  0.8203
 1008MOL0     C38987   2.701   7.893   6.786 -0.2043 -0.3968  0.0497
 1008MOL0     C38988   2.828   7.960   6.745  0.6055 -0.3622 -0.2327
 1008MOL0     C38989   2.913   8.008   6.859  0.3574  0.2151 -0.7482
 1008MOL0     O38990   3.037   8.059   6.804 -0.5581 -0.5300 -0.1515
 1008MOL0     C38991   3.152   8.069   6.885  0.2595  0.1728  0.5462
 1008MOL0     C38992   3.135   8.101   7.018  0.1382 -0.4972  0.2781
 1008MOL0     C38993   3.237   8.147   7.099  0.1965 -0.2110  0.1818
 1008MOL0     C38994   3.218   8.215   7.229  0.0414  0.8472 -0.5965
 1008MOL0     C38995   3.368   8.129   7.053  0.4311 -0.5170 -0.1461
 1008MOL0     C38996   3.494   8.135   7.129 -0.0788 -1.0390  0.4593
 1008MOL0     O38997   3.488   8.108   7.262  0.0690  0.3945 -0.8893
 1008MOL0     C38998   3.602   8.107   7.332 -0.2268  0.1918  0.0325
 1008MOL0     C38999   3.698   8.210   7.324  0.1009  0.0248 -0.9542
 1008MOL0     C39000   3.803   8.213   7.413  0.9476 -0.4644  0.1150
 1008MOL0     C39001   3.819   8.111   7.512  0.2909 -0.4653  0.5299
 1008MOL0     O39002   3.922   8.119   7.606 -0.1618  0.6589 -0.0397
 1008MOL0     C39003   3.875   8.181   7.728  0.0090 -0.3308  0.3946
 1008MOL0     C39004   3.986   8.259   7.797  0.1572  0.6477 -0.3021
 1008MOL0     C39005   4.043   8.382   7.722 -1.1450 -0.0236 -0.3245
 1008MOL0     C39006   3.937   8.495   7.705 -0.1908  0.4808 -0.0035
 1008MOL0     C39007   3.889   8.576   7.824 -0.5353 -1.3046 -0.7625
 1008MOL0     C39008   3.764   8.657   7.776  0.1277  0.5276 -0.6994
 1008MOL0     C39009   3.705   8.740   7.890  0.8350 -0.5976 -0.7428
 1008MOL0     C39010   3.560   8.778   7.887  0.1635 -0.2081  0.1171
 1008MOL0    Cl39011   3.521   8.843   8.050  0.1093  0.3637 -0.3583
 1008MOL0     C39012   3.736   8.004   7.503  0.0408  0.3690 -0.7833
 1008MOL0     C39013   3.635   7.997   7.406  0.6282  0.1947  0.4209
 1008MOL0     O39014   3.600   8.147   7.066 -0.1131 -0.5362 -0.0392
 1008MOL0     C39015   3.390   8.093   6.922  0.1115 -0.2228 -0.9656
 1008MOL0     C39016   3.278   8.060   6.842 -0.2118 -0.2378  0.1929
 1008MOL0     N39017   2.532   7.681   6.986 -0.4408  0.0459 -0.6673
 1008MOL0     N39018   2.421   7.620   6.962  0.4513  0.0520 -0.8210
 1008MOL0     C39019   1.452   8.085   6.371  0.0875 -0.0864  0.7121
 1008MOL0     C39020   1.347   8.169   6.352  0.2517  0.1691  1.6133
 1008MOL0     C39021   1.029   8.343   6.103 -0.3615  1.0423 -0.2218
 1008MOL0     C39022   0.913   8.340   6.184  0.9503  0.1424  0.9281
 1008MOL0     C39023   0.807   8.424   6.155  0.3246  1.3445  0.1134
 1008MOL0     C39024   0.811   8.525   6.066  0.2591 -0.0955 -0.0511
 1008MOL0     O39025   0.713   8.617   6.058  0.1615 -0.2756 -0.9568
 1008MOL0     C39026   0.681   8.662   5.930 -0.2117 -0.3183 -0.0201
 1008MOL0     C39027   0.552   8.762   5.917  0.1981  0.8622 -0.7867
 1008MOL0     C39028   0.589   8.893   5.992  1.1149  0.1085 -0.6270
 1008MOL0     C39029   0.470   8.994   5.977  1.1220 -0.7866  0.8079
 1008MOL0     C39030   0.502   9.122   6.033 -0.2754  0.3400 -0.3113
 1008MOL0     C39031   0.541   9.222   6.098  0.2407  0.4775 -0.2068
 1008MOL0     C39032   0.923   8.533   5.985 -0.1125  0.4556 -0.4509
 1008MOL0     C39033   1.039   8.446   6.005  0.5744  0.2532 -0.4974
 1008MOL0     C39034   1.168   8.485   5.936 -0.6738 -0.0705 -0.3859
 1008MOL0     H39035   1.106   7.945   6.251  0.2336 -0.4914 -1.1369
 1008MOL0     H39036   1.306   7.794   6.275  0.3388  0.3737 -2.7799
 1008MOL0     H39037   1.537   7.681   6.280  0.9775  0.7875 -0.0948
 1008MOL0     H39038   1.440   7.699   6.434  1.2619 -1.8969  1.4356
 1008MOL0     H39039   1.637   7.716   6.561 -1.0425  1.6537  0.3231
 1008MOL0     H39040   1.618   7.557   6.496  2.6245 -0.6364 -0.5656
 1008MOL0     H39041   1.788   7.616   6.320  0.0439  2.4782 -0.9274
 1008MOL0     H39042   1.821   7.758   6.411  0.1693  0.2189  1.7006
 1008MOL0     H39043   1.815   7.572   6.613 -0.2462  2.0537 -0.2496
 1008MOL0     H39044   1.876   7.473   6.480  1.0631 -0.6842  2.6376
 1008MOL0     H39045   2.022   7.731   6.563 -2.9396  1.6861 -1.2985
 1008MOL0     H39046   2.073   7.610   6.442  0.9288  0.4152  0.1596
 1008MOL0     H39047   2.040   7.557   6.736  1.1980  0.0403  1.4451
 1008MOL0     H39048   2.082   7.438   6.619 -1.1943  0.6469 -1.5117
 1008MOL0     H39049   2.236   7.702   6.690 -1.9708  1.6358 -4.9034
 1008MOL0     H39050   2.296   7.595   6.573 -0.2250  1.4871  0.2458
 1008MOL0     H39051   2.232   7.485   6.835 -1.8218  1.9924 -1.3797
 1008MOL0     H39052   2.350   7.415   6.709  4.5259  3.0895 -3.4636
 1008MOL0     H39053   2.569   7.582   6.681  1.6754  0.2305  1.1675
 1008MOL0     H39054   2.804   7.717   6.811  2.3604  3.6846  0.3899
 1008MOL0     H39055   2.753   7.793   6.966 -1.1648 -1.2994  1.2955
 1008MOL0     H39056   2.644   7.880   6.693 -0.9761 -0.4901  0.5255
 1008MOL0     H39057   2.651   7.966   6.849  1.1039 -0.1944  0.8913
 1008MOL0     H39058   2.895   7.891   6.693  1.3350 -0.3397  0.6634
 1008MOL0     H39059   2.808   8.043   6.677  0.9993  1.0779  1.3501
 1008MOL0     H39060   2.852   8.090   6.898 -1.6824 -1.4002 -0.3807
 1008MOL0     H39061   2.922   7.927   6.931 -2.8962  0.5925  0.2703
 1008MOL0     H39062   3.031   8.104   7.049 -0.3567  1.3516 -1.3758
 1008MOL0     H39063   3.275   8.308   7.240  0.4748  0.5396 -0.2507
 1008MOL0     H39064   3.253   8.148   7.308  0.4223  1.4276 -0.2623
 1008MOL0     H39065   3.111   8.234   7.244 -0.0102  0.3497 -0.3136
 1008MOL0     H39066   3.691   8.298   7.262  0.2029  1.1809  0.6351
 1008MOL0     H39067   3.864   8.303   7.411 -2.5125  2.0805 -0.3147
 1008MOL0     H39068   3.785   8.242   7.723 -2.0864 -2.9635  2.6290
 1008MOL0     H39069   3.842   8.099   7.793 -0.7236 -0.6601 -0.3759
 1008MOL0     H39070   3.942   8.304   7.887  0.7435 -1.1687  0.9419
 1008MOL0     H39071   4.068   8.197   7.833 -0.3892  1.1839  2.0681
 1008MOL0     H39072   4.082   8.345   7.627 -1.7203 -1.8328  0.1069
 1008MOL0     H39073   4.120   8.427   7.786 -1.2975 -0.2737  0.0439
 1008MOL0     H39074   3.853   8.438   7.664  0.2242  0.6986 -1.2208
 1008MOL0     H39075   3.976   8.562   7.627 -0.0490  0.0972 -0.2678
 1008MOL0     H39076   3.859   8.509   7.905 -0.8731 -2.3088 -1.6923
 1008MOL0     H39077   3.978   8.632   7.855  0.3932 -1.9449 -2.1520
 1008MOL0     H39078   3.686   8.585   7.749  0.6076  0.1716 -1.1371
 1008MOL0     H39079   3.780   8.726   7.692 -0.4684  1.7583  0.1551
 1008MOL0     H39080   3.759   8.835   7.896 -1.3160  0.6157  1.1961
 1008MOL0     H39081   3.710   8.682   7.983  0.2928  2.1627  1.1477
 1008MOL0     H39082   3.494   8.691   7.876 -0.8430  0.5773 -0.1961
 1008MOL0     H39083   3.540   8.864   7.822 -0.4356  1.0126  1.8536
 1008MOL0     H39084   3.760   7.916   7.562  1.6608 -0.7528 -2.9778
 1008MOL0     H39085   3.573   7.909   7.389 -1.4033  2.1943 -4.6097
 1008MOL0     H39086   3.481   8.086   6.864  0.7676 -2.7935  0.2568
 1008MOL0     H39087   3.287   8.036   6.737 -1.4097  0.2399 -0.0291
 1008MOL0     H39088   1.547   8.124   6.404  0.3639 -0.9709  0.9988
 1008MOL0     H39089   1.362   8.275   6.371  0.6068  0.6960 -1.1708
 1008MOL0     H39090   0.899   8.265   6.262  2.2736  0.1547  1.1918
 1008MOL0     H39091   0.726   8.393   6.220  0.1587 -0.5270 -0.8982
 1008MOL0     H39092   0.766   8.715   5.886  0.2011 -2.1735 -1.5703
 1008MOL0     H39093   0.669   8.575   5.865 -1.7156 -0.9069  0.9969
 1008MOL0     H39094   0.462   8.723   5.965  0.8519 -1.1243 -1.0806
 1008MOL0     H39095   0.519   8.769   5.813  0.3968 -3.6922 -1.3756
 1008MOL0     H39096   0.607   8.862   6.095 -0.6947  0.1188 -0.2741
 1008MOL0     H39097   0.675   8.932   5.937 -0.4027  3.1283 -1.0777
 1008MOL0     H39098   0.392   8.950   6.040  0.5303  2.1593  2.3173
 1008MOL0     H39099   0.441   9.006   5.873  0.9500 -0.7107  0.8631
 1008MOL0     H39100   0.573   9.303   6.160 -1.2923  0.2015  1.0098
 1008MOL0     H39101   0.943   8.622   5.926  1.4585  1.4287  1.4464
 1008MOL0     H39102   1.250   8.473   6.007 -1.2797 -1.2412  0.1422
 1008MOL0     H39103   1.177   8.427   5.843  1.5125  2.4660 -1.9075
 1008MOL0     H39104   1.167   8.586   5.895 -4.0055 -0.6043 -1.9515
 1009MOL0     O39105  10.916   4.596   4.306 -0.6781 -0.0935 -0.2542
 1009MOL0     C39106  10.894   4.693   4.230 -0.9634  0.7234 -0.7494
 1009MOL0     O39107  10.986   4.753   4.140 -0.6063 -0.0280  0.6438
 1009MOL0     C39108  11.111   4.692   4.122 -0.8007  0.1554  0.4919
 1009MOL0     C39109  11.146   4.647   3.992  0.1558 -0.5048 -0.7613
 1009MOL0     C39110  11.274   4.597   3.962  0.7514  0.0860  0.3990
 1009MOL0     C39111  11.372   4.593   4.062  0.2657 -0.0919 -0.9010
 1009MOL0     O39112  11.508   4.554   4.038  0.9792  0.5779  0.4844
 1009MOL0     C39113  11.591   4.653   3.989  0.3615 -1.2719  0.5069
 1009MOL0     C39114  11.546   4.716   3.843 -0.5631  0.8530 -0.5752
 1009MOL0     C39115  11.652   4.818   3.808 -0.4039  0.2844  0.0020
 1009MOL0     C39116  11.656   4.817   3.649 -0.1476 -0.0396 -0.1441
 1009MOL0     C39117  11.734   4.940   3.602  0.1242  0.1645  0.7844
 1009MOL0     C39118  11.742   4.935   3.446  0.1214  1.1357 -0.2411
 1009MOL0     C39119  11.828   5.055   3.392 -0.2461  0.5205 -0.2224
 1009MOL0     C39120  11.748   5.170   3.354  0.4250  0.8292 -0.5272
 1009MOL0     N39121  11.820   5.270   3.268 -0.1060  0.1130 -0.5925
 1009MOL0     C39122  11.896   5.373   3.313  0.5162  0.2273  0.5036
 1009MOL0     C39123  11.954   5.425   3.200 -0.1745 -0.3239 -0.5509
 1009MOL0     C39124  12.064   5.525   3.195 -0.2219 -0.2184  0.0965
 1009MOL0     C39125  12.123   5.555   3.062 -0.0759 -0.3116  0.1235
 1009MOL0     C39126  12.230   5.656   3.060  0.0892  0.3897  0.2690
 1009MOL0     C39127  12.298   5.677   2.928 -0.2933 -0.3906 -0.1005
 1009MOL0     O39128  12.394   5.789   2.940  0.5002  0.2916  0.5564
 1009MOL0     C39129  12.506   5.777   3.019 -0.2105 -0.1980 -0.4605
 1009MOL0     C39130  12.584   5.896   3.042  0.8980 -0.1900 -0.5168
 1009MOL0     C39131  12.707   5.891   3.108  0.1169  0.1017  0.2230
 1009MOL0     C39132  12.792   6.019   3.117  0.2095  0.1760  0.1365
 1009MOL0     C39133  12.764   5.766   3.154 -0.3315  0.3923 -0.2655
 1009MOL0     C39134  12.907   5.741   3.198 -0.2388 -0.4686 -0.5654
 1009MOL0     O39135  12.947   5.612   3.215 -0.7535  0.1264 -0.4428
 1009MOL0     C39136  13.075   5.570   3.180 -0.3539  0.6765  1.0405
 1009MOL0     C39137  13.110   5.440   3.227 -0.1432  0.4683  0.4661
 1009MOL0     C39138  13.250   5.406   3.223  0.3854 -0.8594  0.1421
 1009MOL0     C39139  13.340   5.479   3.150 -0.6660  0.6447 -0.1324
 1009MOL0     O39140  13.467   5.441   3.130 -0.2932  0.0229 -0.3623
 1009MOL0     C39141  13.540   5.366   3.226 -0.4201 -0.1399  0.2284
 1009MOL0     C39142  13.670   5.307   3.167  0.4413 -0.5054 -0.3988
 1009MOL0     C39143  13.791   5.403   3.154 -0.1421 -0.2163  0.2149
 1009MOL0     C39144  13.925   5.336   3.132  0.0283  0.0060  0.3512
 1009MOL0     C39145  14.034   5.441   3.116  0.4039  0.1168  0.1413
 1009MOL0     C39146  14.183   5.397   3.142  0.3953 -0.0779  0.0063
 1009MOL0     C39147  14.234   5.301   3.031 -0.4909  0.4678 -1.5426
 1009MOL0     C39148  14.382   5.271   3.055  0.2645 -0.3783  0.6237
 1009MOL0    Cl39149  14.493   5.395   2.990 -0.0647  0.2208 -0.1221
 1009MOL0     C39150  13.297   5.593   3.091 -0.7177 -0.2848  0.7026
 1009MOL0     C39151  13.172   5.650   3.112  0.2651  0.7924  0.5513
 1009MOL0     O39152  12.979   5.837   3.209 -0.2099 -0.3198  0.2024
 1009MOL0     C39153  12.681   5.653   3.139 -0.3853  0.6522 -0.5170
 1009MOL0     C39154  12.554   5.661   3.076 -0.6136  0.9117 -0.0392
 1009MOL0     N39155  11.896   5.365   3.090  0.3132  0.1412  0.0202
 1009MOL0     N39156  11.809   5.279   3.132  0.9491 -0.8524  0.0488
 1009MOL0     C39157  11.336   4.627   4.191  0.3408  0.8290 -0.0366
 1009MOL0     C39158  11.205   4.682   4.223 -0.2763  1.0039 -0.4757
 1009MOL0     C39159  10.769   4.768   4.262 -0.0171  0.2397 -0.6558
 1009MOL0     C39160  10.661   4.691   4.313 -0.5337  0.1280  0.6099
 1009MOL0     C39161  10.541   4.759   4.347  0.6544 -0.0127 -0.0069
 1009MOL0     C39162  10.523   4.895   4.353 -0.3509  0.1124  0.1815
 1009MOL0     O39163  10.403   4.960   4.386 -0.5148  0.1438 -0.5417
 1009MOL0     C39164  10.304   4.892   4.464  0.5159  0.7361  0.0740
 1009MOL0     C39165  10.189   4.994   4.488  0.4489  0.1836  0.8311
 1009MOL0     C39166  10.082   4.911   4.552  0.4712 -0.1826  0.3748
 1009MOL0     C39167   9.951   4.982   4.569 -0.5537  0.9831 -0.6333
 1009MOL0     C39168   9.846   4.906   4.631  0.0539 -1.3432 -0.6186
 1009MOL0     C39169   9.762   4.847   4.702 -0.3402  0.4635  0.9031
 1009MOL0     C39170  10.627   4.972   4.287  0.0867 -0.2299 -0.4532
 1009MOL0     C39171  10.749   4.912   4.250 -0.0647  0.2424 -0.0437
 1009MOL0     C39172  10.859   4.992   4.211 -0.0769 -0.3640  0.8141
 1009MOL0     H39173  11.069   4.649   3.915 -1.5310  1.9317  0.8256
 1009MOL0     H39174  11.294   4.558   3.862  1.9026  0.6461  0.3933
 1009MOL0     H39175  11.694   4.616   3.987  2.6742  4.0106 -3.4573
 1009MOL0     H39176  11.596   4.735   4.061 -0.4992  1.0089 -1.8512
 1009MOL0     H39177  11.538   4.636   3.768 -2.0973 -0.3272  0.7630
 1009MOL0     H39178  11.454   4.775   3.849 -1.4608 -0.6096  0.7748
 1009MOL0     H39179  11.615   4.913   3.846 -3.6755 -0.9657  0.2987
 1009MOL0     H39180  11.752   4.787   3.841  0.1226  0.6782 -1.1499
 1009MOL0     H39181  11.708   4.727   3.614  1.5505  0.9529 -0.3281
 1009MOL0     H39182  11.555   4.825   3.608  0.2976  1.7532 -1.0060
 1009MOL0     H39183  11.832   4.947   3.650  0.7503  3.9089 -0.6826
 1009MOL0     H39184  11.697   5.034   3.644  0.2864  0.0045  1.2955
 1009MOL0     H39185  11.796   4.845   3.413  0.3319 -0.3743  3.7395
 1009MOL0     H39186  11.641   4.935   3.404  1.6156 -0.9799 -4.4383
 1009MOL0     H39187  11.874   5.017   3.301  1.7660  0.1072  0.9035
 1009MOL0     H39188  11.910   5.078   3.461 -0.1400 -4.0326  1.5168
 1009MOL0     H39189  11.660   5.139   3.297  1.6551 -1.5803 -1.2166
 1009MOL0     H39190  11.718   5.215   3.449 -0.3420 -0.8552  0.0733
 1009MOL0     H39191  11.915   5.399   3.416 -1.0835 -1.1656  1.2010
 1009MOL0     H39192  12.149   5.472   3.240  0.6054  0.3318 -0.7718
 1009MOL0     H39193  12.043   5.618   3.250 -0.5620 -1.8113  2.8610
 1009MOL0     H39194  12.156   5.456   3.029  2.9522  0.4615  0.5467
 1009MOL0     H39195  12.050   5.592   2.990  0.5936  0.6636 -0.0797
 1009MOL0     H39196  12.194   5.751   3.100 -0.7198  0.0492  0.3702
 1009MOL0     H39197  12.300   5.629   3.139 -1.1063 -2.6063  0.4444
 1009MOL0     H39198  12.346   5.585   2.893  0.7552  0.4349 -0.9320
 1009MOL0     H39199  12.218   5.704   2.859 -0.9050 -0.0904  0.7095
 1009MOL0     H39200  12.549   5.990   3.002  0.6851  0.6226  1.5013
 1009MOL0     H39201  12.752   6.109   3.069  1.8516  0.7717 -0.1965
 1009MOL0     H39202  12.870   6.001   3.043 -0.0927 -0.6649  0.0052
 1009MOL0     H39203  12.824   6.037   3.220 -0.5333  1.7375  0.1296
 1009MOL0     H39204  13.040   5.381   3.286 -0.7245 -1.2870 -1.8313
 1009MOL0     H39205  13.274   5.309   3.266  0.7109 -0.8476 -0.0088
 1009MOL0     H39206  13.553   5.431   3.313  0.2941  3.1480 -2.1232
 1009MOL0     H39207  13.477   5.283   3.257 -2.2227  0.1159 -2.3835
 1009MOL0     H39208  13.692   5.217   3.225  0.0566 -0.4714 -0.1986
 1009MOL0     H39209  13.633   5.277   3.069 -1.5237  0.2032  0.0920
 1009MOL0     H39210  13.782   5.466   3.243 -4.4027 -0.1396 -0.0736
 1009MOL0     H39211  13.783   5.462   3.062 -0.0790 -0.2105  0.2134
 1009MOL0     H39212  13.933   5.265   3.049  5.0669  1.2714 -0.5481
 1009MOL0     H39213  13.939   5.276   3.223  0.0274 -0.1962  0.2185
 1009MOL0     H39214  14.041   5.486   3.016 -1.4392 -0.4500 -0.2674
 1009MOL0     H39215  14.015   5.520   3.190  1.3426 -0.8828  1.5074
 1009MOL0     H39216  14.196   5.367   3.247  0.1105  1.2383  0.4320
 1009MOL0     H39217  14.252   5.482   3.142  1.5132 -0.9418 -0.6467
 1009MOL0     H39218  14.207   5.332   2.929  0.2016  1.1913 -1.5191
 1009MOL0     H39219  14.189   5.203   3.049  0.1147  0.2005 -1.4482
 1009MOL0     H39220  14.390   5.176   3.001 -1.4533  0.8442 -1.9591
 1009MOL0     H39221  14.396   5.258   3.163  0.7737  1.9270  0.8868
 1009MOL0     H39222  13.376   5.641   3.033 -2.0199 -2.3474 -3.0993
 1009MOL0     H39223  13.165   5.751   3.071  1.8254 -0.6825 -3.9485
 1009MOL0     H39224  12.710   5.552   3.169 -0.8301  1.2045  1.9998
 1009MOL0     H39225  12.503   5.565   3.070  0.6455 -0.1312  3.4986
 1009MOL0     H39226  11.415   4.630   4.265  3.2659 -1.1365 -2.8012
 1009MOL0     H39227  11.175   4.707   4.324  2.3636 -1.4944  1.0663
 1009MOL0     H39228  10.653   4.582   4.316 -2.2838  0.1981 -0.1758
 1009MOL0     H39229  10.457   4.696   4.375  0.6059  1.2539  3.0022
 1009MOL0     H39230  10.280   4.808   4.398  3.9858  0.0743 -0.5255
 1009MOL0     H39231  10.339   4.861   4.562 -1.4544 -0.9268  0.3194
 1009MOL0     H39232  10.141   5.028   4.395  0.1939 -0.0992  0.8581
 1009MOL0     H39233  10.232   5.078   4.544  1.2334 -0.5900  1.4266
 1009MOL0     H39234  10.068   4.815   4.501 -1.3041 -0.3476  1.0628
 1009MOL0     H39235  10.117   4.890   4.654  0.8716 -1.6607 -0.0365
 1009MOL0     H39236   9.910   5.004   4.470 -3.3410 -0.0405  0.2032
 1009MOL0     H39237   9.957   5.075   4.625  1.3137  0.5816 -0.0976
 1009MOL0     H39238   9.715   4.782   4.773  0.1433 -1.1317 -0.1698
 1009MOL0     H39239  10.617   5.080   4.286  2.6762  0.1056  1.2359
 1009MOL0     H39240  10.942   4.997   4.282  2.7635 -0.6055 -2.2489
 1009MOL0     H39241  10.896   4.958   4.114  1.1639 -0.7525  1.4084
 1009MOL0     H39242  10.811   5.087   4.184  0.1010 -1.0281 -2.1660
 1010MOL0     O39243  10.606  10.592   8.553  0.5704 -0.0965  0.5887
 1010MOL0     C39244  10.555  10.656   8.459 -0.7828 -0.5116 -0.3189
 1010MOL0     O39245  10.627  10.705   8.352  0.5013  0.1032 -0.0541
 1010MOL0     C39246  10.763  10.709   8.354  0.0419 -0.6908  0.6801
 1010MOL0     C39247  10.834  10.825   8.338  0.0591 -0.3623 -0.3058
 1010MOL0     C39248  10.976  10.823   8.325 -1.4714  0.1256  0.8995
 1010MOL0     C39249  11.045  10.703   8.343  0.3042 -0.8185  0.4445
 1010MOL0     O39250  11.183  10.703   8.324  0.6063  0.6972  0.0658
 1010MOL0     C39251  11.253  10.634   8.436  0.5757  0.1107  0.0605
 1010MOL0     C39252  11.405  10.660   8.431  0.6126 -0.0802 -0.6533
 1010MOL0     C39253  11.483  10.551   8.508 -0.6476  0.4353  0.1113
 1010MOL0     C39254  11.629  10.601   8.530 -0.1862  0.2789  0.1047
 1010MOL0     C39255  11.719  10.487   8.568 -0.2744  0.3126 -0.2729
 1010MOL0     C39256  11.872  10.524   8.589  0.3337 -0.2817 -0.0245
 1010MOL0     C39257  11.965  10.537   8.474  0.1191  0.0669  0.0162
 1010MOL0     C39258  12.107  10.548   8.517  0.7797  0.0740  0.3831
 1010MOL0     N39259  12.135  10.686   8.556  0.2525 -0.3011 -0.7204
 1010MOL0     C39260  12.197  10.787   8.474  1.1863 -0.5650  0.1472
 1010MOL0     C39261  12.244  10.881   8.564  0.1359 -0.0384  0.2176
 1010MOL0     C39262  12.338  10.989   8.517  0.4358 -0.4284 -0.9217
 1010MOL0     C39263  12.461  10.989   8.611 -0.7110  0.0139  0.5398
 1010MOL0     C39264  12.559  10.882   8.580 -0.3331  0.2206 -1.2665
 1010MOL0     C39265  12.708  10.906   8.625 -0.2983  0.0045 -0.8260
 1010MOL0     O39266  12.789  10.901   8.519 -0.5528 -1.3490 -1.1259
 1010MOL0     C39267  12.917  10.930   8.521 -0.7937 -0.2641 -0.2798
 1010MOL0     C39268  12.978  11.015   8.616 -0.0507 -0.7907 -0.3007
 1010MOL0     C39269  13.114  11.049   8.608 -0.3647  0.2558 -0.3114
 1010MOL0     C39270  13.180  11.113   8.731  0.0235 -0.8555 -0.6930
 1010MOL0     C39271  13.185  11.013   8.491  0.1918  0.4026  0.3294
 1010MOL0     C39272  13.331  11.033   8.469 -0.2608  0.8210 -0.6153
 1010MOL0     O39273  13.383  10.971   8.354 -0.8091 -0.3669  0.1352
 1010MOL0     C39274  13.509  10.923   8.345  0.2831 -0.3153  0.3027
 1010MOL0     C39275  13.591  10.896   8.455  0.1994 -0.1901 -0.2341
 1010MOL0     C39276  13.723  10.855   8.445  0.4428 -0.0182  0.6317
 1010MOL0     C39277  13.775  10.825   8.314 -0.3986  0.2649 -1.1374
 1010MOL0     O39278  13.910  10.799   8.316  0.2614  0.7617  0.2198
 1010MOL0     C39279  13.980  10.832   8.192  0.2448  0.5579 -0.7889
 1010MOL0     C39280  14.126  10.831   8.230  0.2040 -0.2428  0.5309
 1010MOL0     C39281  14.193  10.701   8.243 -0.4665  0.2054  0.5277
 1010MOL0     C39282  14.257  10.658   8.118 -0.0914 -0.0733  0.0567
 1010MOL0     C39283  14.344  10.531   8.127  0.2190 -0.1165 -0.3237
 1010MOL0     C39284  14.467  10.541   8.220 -0.7533  0.8572  0.3791
 1010MOL0     C39285  14.547  10.412   8.219 -1.0819 -0.8633 -0.2006
 1010MOL0     C39286  14.656  10.400   8.323  0.8009  0.9755  0.1966
 1010MOL0    Cl39287  14.585  10.409   8.487 -0.1450  0.2203 -0.0582
 1010MOL0     C39288  13.696  10.845   8.201  0.6532 -0.6919  0.4347
 1010MOL0     C39289  13.561  10.892   8.218 -0.7481 -0.0408  0.4596
 1010MOL0     O39290  13.401  11.089   8.557  0.6769  0.4722  0.3493
 1010MOL0     C39291  13.117  10.932   8.396 -0.7965 -1.0934 -1.0398
 1010MOL0     C39292  12.989  10.885   8.421 -0.7151  0.6242  0.2805
 1010MOL0     N39293  12.216  10.844   8.699 -0.3576  0.2524 -0.0736
 1010MOL0     N39294  12.140  10.738   8.693 -0.9045 -0.1001  0.5606
 1010MOL0     C39295  10.974  10.580   8.357  0.6323 -0.1108 -0.0244
 1010MOL0     C39296  10.833  10.587   8.364  0.9222 -0.1946 -0.8965
 1010MOL0     C39297  10.402  10.672   8.460  0.2720 -0.6522  0.6996
 1010MOL0     C39298  10.341  10.722   8.338 -1.3352  0.0914 -0.4237
 1010MOL0     C39299  10.201  10.711   8.324 -1.0606  0.0350 -0.5034
 1010MOL0     C39300  10.118  10.659   8.420 -0.3402 -0.1665 -0.0033
 1010MOL0     O39301   9.987  10.654   8.416  0.1213  0.9616 -0.4773
 1010MOL0     C39302   9.914  10.674   8.294  0.0715  0.3483  0.3581
 1010MOL0     C39303   9.823  10.553   8.258  0.3418 -0.4562 -0.3480
 1010MOL0     C39304   9.753  10.504   8.387 -0.2494  0.3850  0.2779
 1010MOL0     C39305   9.655  10.391   8.354 -0.0163  0.0755  0.7099
 1010MOL0     C39306   9.619  10.336   8.483  0.5501 -0.3591 -0.0370
 1010MOL0     C39307   9.599  10.280   8.591 -0.6576  0.0764  0.1903
 1010MOL0     C39308  10.177  10.612   8.536 -0.1742 -0.2284 -0.9967
 1010MOL0     C39309  10.315  10.621   8.564 -1.1385 -0.1253 -0.5328
 1010MOL0     C39310  10.365  10.574   8.693 -0.3281 -0.5348  0.1175
 1010MOL0     H39311  10.778  10.917   8.346  0.0938 -0.2477 -1.1859
 1010MOL0     H39312  11.030  10.914   8.301 -2.8721  0.1856 -2.5175
 1010MOL0     H39313  11.237  10.528   8.415  2.5418 -0.5414  1.5317
 1010MOL0     H39314  11.214  10.655   8.536 -0.7602  1.2673 -0.6739
 1010MOL0     H39315  11.434  10.653   8.325  0.0130  2.1846 -1.0246
 1010MOL0     H39316  11.433  10.756   8.475  1.5084 -1.9445  3.2566
 1010MOL0     H39317  11.441  10.516   8.603  0.1446 -0.4637  0.1517
 1010MOL0     H39318  11.486  10.463   8.443  0.2488  0.4693  0.0968
 1010MOL0     H39319  11.663  10.654   8.441 -1.6876  1.5002  0.2217
 1010MOL0     H39320  11.626  10.666   8.618 -1.3712  0.0578  0.2441
 1010MOL0     H39321  11.719  10.417   8.484  1.8561  2.2916 -2.0318
 1010MOL0     H39322  11.686  10.437   8.660  3.4532  0.5871  1.3574
 1010MOL0     H39323  11.865  10.620   8.641 -0.2791  0.7316 -1.8971
 1010MOL0     H39324  11.911  10.446   8.656  3.4951 -0.2412 -1.6196
 1010MOL0     H39325  11.936  10.632   8.427  1.3888  1.8059  2.5289
 1010MOL0     H39326  11.959  10.460   8.396 -0.5693 -0.3036  0.4252
 1010MOL0     H39327  12.126  10.478   8.599  0.3462 -0.2943  0.1716
 1010MOL0     H39328  12.171  10.517   8.434 -0.1574 -1.0401  0.0514
 1010MOL0     H39329  12.210  10.786   8.366 -3.2013 -2.6176 -0.5781
 1010MOL0     H39330  12.300  11.091   8.504  0.1077 -0.5617 -1.0189
 1010MOL0     H39331  12.388  10.968   8.421  4.0578  1.2945  0.3956
 1010MOL0     H39332  12.509  11.086   8.598 -4.2991  1.9918  0.7486
 1010MOL0     H39333  12.437  10.977   8.717  0.2411  0.2277  0.7825
 1010MOL0     H39334  12.531  10.788   8.627  1.4293  1.2958  2.1996
 1010MOL0     H39335  12.556  10.878   8.470 -3.2280  1.7230 -1.3386
 1010MOL0     H39336  12.708  11.004   8.673 -3.2837 -1.2098  1.9835
 1010MOL0     H39337  12.736  10.828   8.697 -0.2857 -1.1506 -2.0363
 1010MOL0     H39338  12.924  11.042   8.707  0.0073 -0.3347 -0.4003
 1010MOL0     H39339  13.117  11.126   8.820 -2.1677  2.0947 -2.4772
 1010MOL0     H39340  13.211  11.212   8.697 -6.3095  1.7733 -0.3406
 1010MOL0     H39341  13.274  11.061   8.748  0.6094  0.6547  1.1240
 1010MOL0     H39342  13.564  10.902   8.560  1.5830  0.6139  0.0923
 1010MOL0     H39343  13.785  10.834   8.531  0.0403 -0.1634  0.8890
 1010MOL0     H39344  13.953  10.763   8.112 -2.0783  1.2044 -0.6193
 1010MOL0     H39345  13.961  10.937   8.166 -1.3180  0.1135 -1.5397
 1010MOL0     H39346  14.176  10.906   8.168  1.2722  0.1907  1.8641
 1010MOL0     H39347  14.131  10.866   8.334  0.2858  1.8342 -0.1289
 1010MOL0     H39348  14.118  10.631   8.280  1.8832 -1.6770  2.0547
 1010MOL0     H39349  14.281  10.712   8.309  0.1188  0.0907 -0.2195
 1010MOL0     H39350  14.331  10.732   8.087 -0.6778  1.5587  2.2996
 1010MOL0     H39351  14.183  10.659   8.038 -0.2843  3.5185  0.1305
 1010MOL0     H39352  14.276  10.451   8.157 -0.8594  1.2674  1.0750
 1010MOL0     H39353  14.383  10.512   8.026 -0.9747 -1.9043 -0.5127
 1010MOL0     H39354  14.427  10.554   8.321  0.5652  0.7611  0.9310
 1010MOL0     H39355  14.531  10.624   8.188 -1.1490  0.1219 -2.6163
 1010MOL0     H39356  14.585  10.394   8.118  0.1129  0.9166 -0.1295
 1010MOL0     H39357  14.490  10.320   8.229  0.7032 -1.8639  1.4984
 1010MOL0     H39358  14.737  10.472   8.310  0.7695  0.8319 -0.8536
 1010MOL0     H39359  14.695  10.298   8.309  0.2502  0.9160 -1.0416
 1010MOL0     H39360  13.741  10.832   8.103 -0.6644 -1.1469 -0.1365
 1010MOL0     H39361  13.503  10.896   8.126  1.8375  0.2801 -1.2564
 1010MOL0     H39362  13.161  10.899   8.303 -2.0365 -1.7044 -1.4178
 1010MOL0     H39363  12.934  10.819   8.354  0.6032 -2.1606  1.7829
 1010MOL0     H39364  11.029  10.487   8.343 -0.3932 -1.2448  2.6595
 1010MOL0     H39365  10.778  10.494   8.374 -1.4971  1.3654  1.8646
 1010MOL0     H39366  10.402  10.758   8.257 -1.8000  0.7129 -0.5025
 1010MOL0     H39367  10.172  10.735   8.222 -1.8444 -1.8192 -0.7491
 1010MOL0     H39368   9.842  10.755   8.306  1.1865  1.8308 -2.1163
 1010MOL0     H39369   9.970  10.703   8.205  0.5530 -1.0660  0.1766
 1010MOL0     H39370   9.883  10.468   8.227 -0.6792 -0.6801 -1.8555
 1010MOL0     H39371   9.751  10.585   8.181 -1.4468  1.1932  1.8437
 1010MOL0     H39372   9.828  10.459   8.454  1.4054 -3.8079 -3.8304
 1010MOL0     H39373   9.699  10.581   8.441 -4.1152 -0.7746 -1.5814
 1010MOL0     H39374   9.701  10.309   8.297 -0.2825 -0.9189  1.8814
 1010MOL0     H39375   9.574  10.434   8.293  1.6462 -0.0844 -1.7503
 1010MOL0     H39376   9.579  10.260   8.694 -0.1717  3.0273  0.9440
 1010MOL0     H39377  10.107  10.570   8.608  0.8932  1.8852  1.4171
 1010MOL0     H39378  10.301  10.598   8.778 -1.5408 -0.3336 -0.8180
 1010MOL0     H39379  10.379  10.465   8.686 -1.2244 -0.6566  0.0771
 1010MOL0     H39380  10.463  10.609   8.726 -0.6837  0.1244  0.4885
 1011MOL0     O39381   1.396   4.726   3.584  0.2750 -0.1435 -0.2155
 1011MOL0     C39382   1.440   4.814   3.521 -0.0293 -0.2859  0.0206
 1011MOL0     O39383   1.549   4.796   3.437 -0.0578  0.5813 -0.2826
 1011MOL0     C39384   1.662   4.727   3.468 -1.1690  0.3631  0.4262
 1011MOL0     C39385   1.684   4.652   3.578  0.6780  0.0145 -0.3432
 1011MOL0     C39386   1.794   4.573   3.588  0.7544 -0.8517  0.3744
 1011MOL0     C39387   1.901   4.575   3.496  0.3912 -0.7810  0.0340
 1011MOL0     O39388   2.014   4.504   3.501 -0.8362  0.4505 -0.0926
 1011MOL0     C39389   2.084   4.515   3.624 -0.2610  0.3946  0.2952
 1011MOL0     C39390   2.235   4.524   3.601 -0.4461 -0.5418 -0.2827
 1011MOL0     C39391   2.305   4.410   3.520 -0.4865 -0.3716  0.1227
 1011MOL0     C39392   2.449   4.438   3.480 -0.3419 -0.3669  0.2146
 1011MOL0     C39393   2.507   4.334   3.382  0.2860 -0.1654 -0.3250
 1011MOL0     C39394   2.569   4.207   3.441  0.0209  0.2314 -1.0908
 1011MOL0     C39395   2.639   4.222   3.577 -0.0795 -0.0720 -0.5617
 1011MOL0     C39396   2.683   4.089   3.636  0.2607 -0.5624 -0.1397
 1011MOL0     N39397   2.802   4.026   3.583  0.8268  0.1356  0.3388
 1011MOL0     C39398   2.935   4.044   3.624  0.4826  0.2575 -0.2419
 1011MOL0     C39399   3.008   3.953   3.552  0.0539  0.0841  0.3623
 1011MOL0     C39400   3.157   3.915   3.576  1.4564  0.1902  0.0486
 1011MOL0     C39401   3.250   3.937   3.455  0.0759 -0.5577  0.1111
 1011MOL0     C39402   3.262   4.090   3.411 -0.6501  0.1731 -0.0797
 1011MOL0     C39403   3.303   4.185   3.523 -0.4207 -0.0594  0.9481
 1011MOL0     O39404   3.442   4.173   3.538 -0.1840  0.0703 -0.1470
 1011MOL0     C39405   3.538   4.268   3.492  0.2754  0.7254 -0.2183
 1011MOL0     C39406   3.512   4.373   3.404 -0.2542 -0.2688 -0.5736
 1011MOL0     C39407   3.614   4.455   3.360  0.0454  0.2323 -0.3054
 1011MOL0     C39408   3.571   4.567   3.266  0.6410 -0.4075  0.2080
 1011MOL0     C39409   3.750   4.435   3.393 -0.6846  0.1362 -0.1677
 1011MOL0     C39410   3.866   4.509   3.332 -0.3903 -0.9759  0.2155
 1011MOL0     O39411   3.854   4.575   3.218  0.8375 -0.8035 -0.3295
 1011MOL0     C39412   3.966   4.638   3.176  0.2189 -0.0864 -0.2212
 1011MOL0     C39413   3.997   4.765   3.223 -0.4182  0.5536 -0.1084
 1011MOL0     C39414   4.111   4.830   3.178  0.9850 -0.7527  0.0966
 1011MOL0     C39415   4.201   4.755   3.088  1.2129  0.0046  0.4826
 1011MOL0     O39416   4.330   4.800   3.046  0.8001  0.1701 -0.2252
 1011MOL0     C39417   4.375   4.923   3.081 -0.8908 -1.4371  0.2758
 1011MOL0     C39418   4.506   4.950   3.013  0.2458 -0.1405  0.3148
 1011MOL0     C39419   4.553   5.095   3.040  0.3987  0.6210 -0.2773
 1011MOL0     C39420   4.553   5.175   2.908 -0.7129  0.3271  1.1761
 1011MOL0     C39421   4.651   5.292   2.935 -0.3857 -0.2473 -0.1373
 1011MOL0     C39422   4.658   5.397   2.819 -0.1508  0.2558 -0.1594
 1011MOL0     C39423   4.766   5.505   2.852  1.2912  0.9668  0.3849
 1011MOL0     C39424   4.757   5.631   2.770 -0.6885 -0.0900 -0.0649
 1011MOL0    Cl39425   4.766   5.600   2.602 -0.2041 -0.1015  0.2908
 1011MOL0     C39426   4.165   4.635   3.038 -0.4208  0.0531 -0.1417
 1011MOL0     C39427   4.045   4.578   3.074  0.0388  0.5495 -0.7256
 1011MOL0     O39428   3.975   4.493   3.392  0.0388 -0.5825  0.0466
 1011MOL0     C39429   3.777   4.327   3.491 -0.1307 -0.6176  0.5188
 1011MOL0     C39430   3.675   4.243   3.532 -0.2038 -0.4594  0.2757
 1011MOL0     N39431   2.920   3.895   3.459 -0.5197 -0.1211 -0.2937
 1011MOL0     N39432   2.797   3.940   3.482  0.4962 -0.2133 -0.2043
 1011MOL0     C39433   1.886   4.660   3.385  0.7239 -0.2857 -0.4079
 1011MOL0     C39434   1.767   4.732   3.370  0.9969 -0.3738 -0.2512
 1011MOL0     C39435   1.390   4.960   3.520 -0.2602  0.4613  0.5001
 1011MOL0     C39436   1.460   5.058   3.442  0.2746  1.3657  0.2568
 1011MOL0     C39437   1.417   5.187   3.450  0.0329  0.6197  0.1267
 1011MOL0     C39438   1.298   5.225   3.519  0.3367  0.1833  0.0914
 1011MOL0     O39439   1.251   5.351   3.516 -0.3441 -0.6518  0.0447
 1011MOL0     C39440   1.343   5.458   3.486 -0.1951 -0.1275  0.2088
 1011MOL0     C39441   1.253   5.578   3.514 -0.1043 -0.2780 -0.1340
 1011MOL0     C39442   1.343   5.695   3.562  0.5634  0.9247  0.6657
 1011MOL0     C39443   1.270   5.833   3.563 -0.0975 -0.2500  0.5678
 1011MOL0     C39444   1.142   5.846   3.638 -0.5037 -0.4706  0.2205
 1011MOL0     C39445   1.036   5.837   3.692 -0.1571  0.8802 -0.5574
 1011MOL0     C39446   1.235   5.131   3.585  0.1959  0.3147  0.3508
 1011MOL0     C39447   1.280   4.997   3.593  0.0045 -0.4145  0.8980
 1011MOL0     C39448   1.199   4.905   3.679 -0.4936 -0.2036  0.0398
 1011MOL0     H39449   1.609   4.641   3.655 -1.2771 -1.6981 -2.3761
 1011MOL0     H39450   1.793   4.504   3.672 -0.5255 -5.3188 -2.9327
 1011MOL0     H39451   2.062   4.427   3.685 -0.9810  1.1042  1.0871
 1011MOL0     H39452   2.050   4.608   3.669 -0.4919 -0.0750  1.1076
 1011MOL0     H39453   2.270   4.619   3.560 -0.8756 -1.1181 -2.1242
 1011MOL0     H39454   2.296   4.528   3.691  4.5095 -2.7263 -3.1399
 1011MOL0     H39455   2.300   4.309   3.561  2.1290 -0.2786  0.8368
 1011MOL0     H39456   2.250   4.411   3.425  0.2603  4.0332 -0.4602
 1011MOL0     H39457   2.478   4.529   3.427  2.7457 -2.3323 -1.7986
 1011MOL0     H39458   2.506   4.442   3.573  1.0721 -1.5732 -0.5667
 1011MOL0     H39459   2.585   4.388   3.326  2.5930 -1.1350  1.7489
 1011MOL0     H39460   2.431   4.294   3.315 -0.4212 -2.7324  1.8560
 1011MOL0     H39461   2.485   4.138   3.455 -1.7470  2.5395  0.3973
 1011MOL0     H39462   2.642   4.163   3.373  0.4140  0.6343 -0.9298
 1011MOL0     H39463   2.572   4.265   3.652 -0.0577 -0.7459 -0.1401
 1011MOL0     H39464   2.722   4.292   3.563  1.1518 -1.7227 -1.8803
 1011MOL0     H39465   2.700   4.096   3.744  2.6197 -0.4936 -0.4673
 1011MOL0     H39466   2.601   4.018   3.619  0.5915 -1.2000  0.8700
 1011MOL0     H39467   2.964   4.107   3.707 -0.2625 -0.4486  0.5780
 1011MOL0     H39468   3.151   3.807   3.595 -2.1637 -0.0743 -1.8194
 1011MOL0     H39469   3.186   3.969   3.666 -1.2957 -1.8409  2.3128
 1011MOL0     H39470   3.350   3.907   3.486  0.6461 -1.7436 -2.6147
 1011MOL0     H39471   3.221   3.886   3.362 -2.7534 -0.5981  0.9048
 1011MOL0     H39472   3.329   4.101   3.326 -1.8247 -1.4911 -1.2953
 1011MOL0     H39473   3.162   4.119   3.378 -0.3842 -0.3343 -1.3724
 1011MOL0     H39474   3.271   4.288   3.504  0.1095  0.1531  1.2008
 1011MOL0     H39475   3.255   4.149   3.614  1.6796 -2.1772  1.3131
 1011MOL0     H39476   3.405   4.377   3.387 -0.0726 -2.2625 -2.5866
 1011MOL0     H39477   3.597   4.534   3.165 -1.3797  0.9727 -0.8240
 1011MOL0     H39478   3.625   4.655   3.303 -2.0014 -0.7429  5.7414
 1011MOL0     H39479   3.463   4.580   3.269  0.5815  0.1562 -2.1430
 1011MOL0     H39480   3.926   4.815   3.288 -0.8403 -0.7168  0.4393
 1011MOL0     H39481   4.143   4.929   3.208 -0.4149 -0.3417  0.3150
 1011MOL0     H39482   4.296   4.993   3.053 -3.5230 -4.0921  0.4679
 1011MOL0     H39483   4.381   4.934   3.189  0.7926 -0.4249  0.0977
 1011MOL0     H39484   4.580   4.875   3.041 -2.5752 -3.8850 -1.4650
 1011MOL0     H39485   4.494   4.946   2.904 -1.4961  1.1298  0.4061
 1011MOL0     H39486   4.654   5.106   3.081  0.8079 -1.6056 -0.5367
 1011MOL0     H39487   4.491   5.146   3.114  1.3964 -0.7224  1.5556
 1011MOL0     H39488   4.456   5.216   2.877  1.1098  2.5854 -2.1653
 1011MOL0     H39489   4.593   5.116   2.826 -1.1200  0.9869  0.4891
 1011MOL0     H39490   4.613   5.344   3.024 -2.0338  0.6839 -1.3339
 1011MOL0     H39491   4.754   5.263   2.958 -0.8685 -1.8000  0.1551
 1011MOL0     H39492   4.560   5.444   2.809  0.6788  2.0617 -0.0658
 1011MOL0     H39493   4.669   5.339   2.727 -2.8713 -0.6073 -0.0239
 1011MOL0     H39494   4.860   5.452   2.830 -0.4004 -1.6446 -1.0312
 1011MOL0     H39495   4.751   5.526   2.958  1.2065  1.8322  0.2111
 1011MOL0     H39496   4.851   5.684   2.788  1.8685 -4.0019 -0.6864
 1011MOL0     H39497   4.667   5.690   2.787 -1.0932 -0.7956  0.2989
 1011MOL0     H39498   4.241   4.586   2.978 -0.0627 -2.4960  2.2090
 1011MOL0     H39499   4.006   4.485   3.034 -1.7245  0.1392  1.6946
 1011MOL0     H39500   3.874   4.308   3.536  0.5225  2.0910  0.4645
 1011MOL0     H39501   3.699   4.154   3.589  1.9098  1.1239  2.1042
 1011MOL0     H39502   1.959   4.677   3.306  0.2628  3.3647 -0.2537
 1011MOL0     H39503   1.744   4.790   3.281 -1.9065 -2.4670 -1.0137
 1011MOL0     H39504   1.550   5.043   3.384 -0.7217 -0.6687 -0.8726
 1011MOL0     H39505   1.473   5.255   3.387 -0.1406 -0.0028 -0.7200
 1011MOL0     H39506   1.419   5.449   3.564 -0.2937 -2.9927  0.0890
 1011MOL0     H39507   1.395   5.456   3.390  1.5907  0.1780  1.1318
 1011MOL0     H39508   1.188   5.556   3.600  0.8812 -0.6326  0.5375
 1011MOL0     H39509   1.189   5.611   3.431  2.6249  1.4938 -1.6705
 1011MOL0     H39510   1.385   5.676   3.661 -2.3809  0.5647  1.9828
 1011MOL0     H39511   1.429   5.697   3.495 -2.0835  0.0632 -3.1359
 1011MOL0     H39512   1.265   5.878   3.463  0.9090 -0.0556  0.5974
 1011MOL0     H39513   1.332   5.907   3.615  0.7519  0.8210 -1.8008
 1011MOL0     H39514   0.941   5.831   3.742 -0.9652 -2.9893 -2.2189
 1011MOL0     H39515   1.158   5.159   3.656 -0.7083 -1.3178  0.0769
 1011MOL0     H39516   1.125   4.953   3.744 -1.5589 -2.2186  0.3879
 1011MOL0     H39517   1.149   4.828   3.619 -1.8946  0.8089 -0.1433
 1011MOL0     H39518   1.262   4.859   3.757 -0.3305 -0.7831 -0.4263
 1012MOL0     O39519   0.042   3.282   7.052 -0.2261  0.3136  0.2261
 1012MOL0     C39520   0.069   3.389   7.000 -0.4854  0.0258 -0.2205
 1012MOL0     O39521   0.201   3.441   6.987 -0.0684 -0.5623  0.5448
 1012MOL0     C39522   0.306   3.359   7.023  0.4737 -0.7716 -0.2611
 1012MOL0     C39523   0.374   3.279   6.931 -0.1002 -0.0831  0.2249
 1012MOL0     C39524   0.489   3.214   6.963 -0.7962  0.6880 -1.7650
 1012MOL0     C39525   0.537   3.206   7.098 -0.1155  0.6840  0.0492
 1012MOL0     O39526   0.644   3.142   7.155  0.2206  0.6894  0.0427
 1012MOL0     C39527   0.756   3.113   7.065  0.1936  0.5703  0.0394
 1012MOL0     C39528   0.887   3.082   7.152  0.2890  0.1520 -0.3907
 1012MOL0     C39529   0.877   2.943   7.205 -0.6310  0.5223 -0.7938
 1012MOL0     C39530   1.015   2.896   7.262  1.3546 -0.5382 -0.0640
 1012MOL0     C39531   1.009   2.741   7.285 -0.3281 -0.0935 -0.9958
 1012MOL0     C39532   1.130   2.693   7.365  0.3554  0.0913 -0.4371
 1012MOL0     C39533   1.082   2.578   7.451 -0.4590 -0.4927  0.4591
 1012MOL0     C39534   1.178   2.548   7.564 -0.7744  0.1661 -0.3638
 1012MOL0     N39535   1.315   2.538   7.525  0.2193 -0.1786 -0.2952
 1012MOL0     C39536   1.393   2.649   7.526  0.0864  0.1155 -0.4537
 1012MOL0     C39537   1.513   2.597   7.485 -1.0096 -0.4055 -0.2543
 1012MOL0     C39538   1.640   2.675   7.467 -0.3110  0.1105 -0.7132
 1012MOL0     C39539   1.745   2.653   7.568 -1.5284  0.1399 -0.7911
 1012MOL0     C39540   1.783   2.504   7.558  0.2742  0.3205  0.4951
 1012MOL0     C39541   1.907   2.473   7.644 -0.2113 -0.7574 -0.4421
 1012MOL0     O39542   2.031   2.527   7.586 -0.8343 -0.0636 -0.0193
 1012MOL0     C39543   2.148   2.486   7.634  0.1257  0.6020 -0.7611
 1012MOL0     C39544   2.259   2.480   7.545  1.2930 -0.6859 -0.1460
 1012MOL0     C39545   2.386   2.442   7.584 -0.8981 -0.4771  0.4122
 1012MOL0     C39546   2.478   2.408   7.477 -0.0812 -0.2482  0.7352
 1012MOL0     C39547   2.413   2.403   7.718  0.8903  0.0783  0.0008
 1012MOL0     C39548   2.544   2.356   7.768 -0.1514 -0.3902  0.9272
 1012MOL0     O39549   2.546   2.270   7.866  0.4994 -0.5990 -0.2340
 1012MOL0     C39550   2.662   2.215   7.921 -0.8888  0.5478 -0.6006
 1012MOL0     C39551   2.746   2.145   7.834  0.6145  0.0743 -0.7867
 1012MOL0     C39552   2.874   2.104   7.873 -1.1502  1.1128 -0.6747
 1012MOL0     C39553   2.907   2.101   8.008 -0.4130 -0.6365  0.1366
 1012MOL0     O39554   3.029   2.049   8.033 -0.4236 -0.0239 -0.2425
 1012MOL0     C39555   3.108   2.086   8.146 -0.0803 -0.0969  0.8132
 1012MOL0     C39556   3.225   1.993   8.172 -0.1050 -0.5668  0.1506
 1012MOL0     C39557   3.318   2.053   8.271  0.0442  0.3909  0.8579
 1012MOL0     C39558   3.443   1.961   8.284 -0.2789  0.2031 -0.0133
 1012MOL0     C39559   3.550   2.020   8.380  0.7985 -0.3703  0.8849
 1012MOL0     C39560   3.666   1.929   8.410 -0.3219  0.3192  0.9685
 1012MOL0     C39561   3.769   2.001   8.488 -0.4235 -0.0329  0.0738
 1012MOL0     C39562   3.731   2.039   8.634 -0.7328  0.3844  0.0429
 1012MOL0    Cl39563   3.705   1.892   8.730  0.3347  0.2667 -0.0906
 1012MOL0     C39564   2.820   2.155   8.102  0.4384 -1.2168  0.3198
 1012MOL0     C39565   2.698   2.218   8.064 -0.0101  0.0821  0.3077
 1012MOL0     O39566   2.643   2.409   7.724  0.0754 -0.1683  0.5098
 1012MOL0     C39567   2.302   2.414   7.811  0.2488 -0.4280 -0.5254
 1012MOL0     C39568   2.174   2.464   7.774 -1.1097  0.1471  0.2807
 1012MOL0     N39569   1.502   2.459   7.477  0.4133 -0.2778  0.0522
 1012MOL0     N39570   1.383   2.427   7.505  0.7737  0.0610 -0.5286
 1012MOL0     C39571   0.466   3.288   7.192 -0.7658 -0.4911 -0.2218
 1012MOL0     C39572   0.358   3.363   7.156  0.0633 -0.2437 -0.2047
 1012MOL0     C39573  -0.038   3.487   6.953  0.8935 -0.3927 -0.5849
 1012MOL0     C39574  -0.180   3.447   6.942 -0.2260  0.0238  0.6029
 1012MOL0     C39575  -0.281   3.538   6.909 -0.0781  0.0954 -0.2951
 1012MOL0     C39576  -0.256   3.676   6.885 -0.4582  0.2862  0.0185
 1012MOL0     O39577  -0.347   3.776   6.854  0.1994  0.5191 -0.1822
 1012MOL0     C39578  -0.479   3.729   6.856 -0.1642  0.8865 -0.2033
 1012MOL0     C39579  -0.571   3.854   6.825  0.2800  0.1516  1.0329
 1012MOL0     C39580  -0.707   3.808   6.755 -0.5125  0.0256  0.3818
 1012MOL0     C39581  -0.798   3.930   6.744  0.3190  0.3056  0.0222
 1012MOL0     C39582  -0.762   4.024   6.639  0.2016  0.0485  0.6901
 1012MOL0     C39583  -0.746   4.111   6.558  0.6311  0.5018 -0.5021
 1012MOL0     C39584  -0.121   3.709   6.884  0.3485 -0.0570  0.3091
 1012MOL0     C39585  -0.016   3.625   6.925  0.6038  0.9273  0.0994
 1012MOL0     C39586   0.116   3.694   6.956 -0.3375  0.5427 -0.2861
 1012MOL0     H39587   0.321   3.280   6.836  0.1897 -0.6186  0.0513
 1012MOL0     H39588   0.537   3.147   6.893 -0.5146 -0.9872 -0.0636
 1012MOL0     H39589   0.766   3.201   7.001  0.0484  0.0626 -0.6875
 1012MOL0     H39590   0.726   3.030   7.001 -1.6371  1.3520 -0.1792
 1012MOL0     H39591   0.963   3.099   7.075 -0.2730  1.4574 -0.6818
 1012MOL0     H39592   0.893   3.146   7.241 -2.3818 -0.0490  0.0108
 1012MOL0     H39593   0.794   2.929   7.275  0.9191 -2.2277  0.6631
 1012MOL0     H39594   0.853   2.869   7.129 -0.0244  1.5808 -2.0547
 1012MOL0     H39595   1.096   2.919   7.193 -0.2620 -1.9464 -2.5781
 1012MOL0     H39596   1.041   2.946   7.356  1.6532  0.1185 -0.4954
 1012MOL0     H39597   1.018   2.694   7.187 -1.4118  1.8057 -2.0609
 1012MOL0     H39598   0.912   2.718   7.331 -0.2013 -1.4462 -1.3574
 1012MOL0     H39599   1.220   2.670   7.307  0.0546 -2.3122 -0.0485
 1012MOL0     H39600   1.166   2.775   7.428 -1.9982  0.0768  1.0292
 1012MOL0     H39601   1.069   2.488   7.390  0.0055 -1.3510  1.5830
 1012MOL0     H39602   0.985   2.611   7.490  0.4845  2.1173  0.7873
 1012MOL0     H39603   1.159   2.610   7.652 -1.0448 -0.5274  0.0851
 1012MOL0     H39604   1.151   2.450   7.606 -0.2742  0.9080  1.8399
 1012MOL0     H39605   1.360   2.751   7.543 -2.6969 -0.3906 -2.2017
 1012MOL0     H39606   1.631   2.783   7.450 -1.0852  0.0584 -0.6751
 1012MOL0     H39607   1.686   2.643   7.373  6.1720  0.5611  1.7944
 1012MOL0     H39608   1.836   2.708   7.539 -2.2563  0.0869 -3.4499
 1012MOL0     H39609   1.706   2.679   7.666 -1.1463 -0.4690 -0.4736
 1012MOL0     H39610   1.701   2.441   7.594 -0.9096  0.8334 -1.1701
 1012MOL0     H39611   1.808   2.482   7.453 -3.1137  0.8212 -0.5416
 1012MOL0     H39612   1.898   2.499   7.750  1.3855  0.9994 -0.6725
 1012MOL0     H39613   1.915   2.364   7.639 -1.9318 -0.8998 -0.8464
 1012MOL0     H39614   2.248   2.500   7.439 -1.5671  0.3770  0.2749
 1012MOL0     H39615   2.575   2.364   7.500 -0.0505 -0.8612 -0.5288
 1012MOL0     H39616   2.517   2.497   7.426 -2.3915  0.7023  0.5144
 1012MOL0     H39617   2.436   2.342   7.401  0.6793  1.9001 -1.7240
 1012MOL0     H39618   2.712   2.136   7.731  2.0802  1.5892 -1.4519
 1012MOL0     H39619   2.946   2.066   7.801  0.6414  0.5139  1.3198
 1012MOL0     H39620   3.150   2.184   8.122  1.3076 -0.9045 -0.1910
 1012MOL0     H39621   3.043   2.087   8.234 -3.2732 -1.9603 -1.2906
 1012MOL0     H39622   3.183   1.902   8.216  1.0473 -0.7267  0.9923
 1012MOL0     H39623   3.276   1.970   8.078 -1.6196 -4.5471  0.1300
 1012MOL0     H39624   3.257   2.069   8.360 -1.5643  2.7751 -0.5756
 1012MOL0     H39625   3.358   2.147   8.232  0.7496 -0.2015  0.1092
 1012MOL0     H39626   3.496   1.942   8.190  0.2999 -3.4846  0.8934
 1012MOL0     H39627   3.416   1.861   8.320 -0.1173 -0.5307 -1.8257
 1012MOL0     H39628   3.581   2.110   8.328  2.2048 -2.0025 -1.2707
 1012MOL0     H39629   3.494   2.054   8.468 -1.0816  1.0297 -0.7692
 1012MOL0     H39630   3.696   1.899   8.309 -1.5415  0.5269  0.5174
 1012MOL0     H39631   3.630   1.842   8.467  1.8100 -0.4139  1.2734
 1012MOL0     H39632   3.784   2.095   8.434  1.8904 -1.0703 -1.2376
 1012MOL0     H39633   3.865   1.947   8.490 -1.1959 -1.5038 -1.0151
 1012MOL0     H39634   3.645   2.106   8.633 -2.0489 -1.2602 -0.4615
 1012MOL0     H39635   3.818   2.082   8.684 -0.8320 -1.9006  2.3982
 1012MOL0     H39636   2.834   2.143   8.209  1.5913  0.1095  0.3475
 1012MOL0     H39637   2.620   2.252   8.131  0.3712  2.1391 -0.2021
 1012MOL0     H39638   2.327   2.394   7.914 -2.5367 -0.6629  0.1895
 1012MOL0     H39639   2.099   2.488   7.849  1.6642  1.3126  2.8983
 1012MOL0     H39640   0.502   3.284   7.294  0.3835  1.8136 -0.4810
 1012MOL0     H39641   0.315   3.439   7.221  3.2299  0.6200  1.0340
 1012MOL0     H39642  -0.219   3.349   6.964  0.8524 -0.3658  0.8654
 1012MOL0     H39643  -0.383   3.502   6.905  0.0191 -0.1490 -0.5954
 1012MOL0     H39644  -0.486   3.646   6.786 -2.4221  1.1244 -0.3454
 1012MOL0     H39645  -0.511   3.700   6.957 -1.6900  0.0077 -0.9056
 1012MOL0     H39646  -0.516   3.921   6.759 -1.1628  0.4486  0.0941
 1012MOL0     H39647  -0.597   3.897   6.922 -0.5306  2.2297 -0.0668
 1012MOL0     H39648  -0.693   3.754   6.661 -1.6980 -0.8510  0.6840
 1012MOL0     H39649  -0.766   3.740   6.817  0.4379  0.2668  1.5870
 1012MOL0     H39650  -0.804   3.987   6.837  0.0307  1.3121 -0.5881
 1012MOL0     H39651  -0.897   3.893   6.716  0.4001  1.1122 -1.4186
 1012MOL0     H39652  -0.727   4.197   6.498  3.6016  0.7232  0.5581
 1012MOL0     H39653  -0.110   3.815   6.862 -0.5751 -0.0053  0.0674
 1012MOL0     H39654   0.095   3.800   6.972 -0.0785  0.6581 -0.6844
 1012MOL0     H39655   0.172   3.660   7.043 -0.1704  0.9057 -0.2524
 1012MOL0     H39656   0.178   3.692   6.865  1.6479  0.7430  1.0150
 1013MOL0     O39657   1.041   2.365   1.552 -0.0435 -0.4199 -0.3831
 1013MOL0     C39658   1.047   2.436   1.650 -0.5095 -0.2300  0.3022
 1013MOL0     O39659   1.157   2.464   1.725  0.6936 -0.0405  0.1839
 1013MOL0     C39660   1.293   2.461   1.684  0.1136  0.0597 -0.0921
 1013MOL0     C39661   1.345   2.433   1.556  0.4106 -0.3234 -0.0564
 1013MOL0     C39662   1.478   2.443   1.532  0.5383 -0.4866 -0.0255
 1013MOL0     C39663   1.571   2.484   1.621  0.4940  0.1796  0.0234
 1013MOL0     O39664   1.702   2.506   1.591  0.1440 -0.0352  0.1791
 1013MOL0     C39665   1.765   2.405   1.511 -0.4668 -0.9895 -0.1018
 1013MOL0     C39666   1.912   2.434   1.477  0.2011 -0.8014 -0.3322
 1013MOL0     C39667   1.984   2.394   1.606 -0.5651 -0.2828  0.1710
 1013MOL0     C39668   2.130   2.442   1.586  0.3930 -0.8359 -0.4960
 1013MOL0     C39669   2.202   2.392   1.708 -1.1222 -0.3601  0.5073
 1013MOL0     C39670   2.350   2.395   1.678 -0.3728  0.0818 -0.2349
 1013MOL0     C39671   2.431   2.354   1.802 -0.7126 -0.2902  0.4544
 1013MOL0     C39672   2.469   2.474   1.890  0.2518  0.0375 -0.7789
 1013MOL0     N39673   2.580   2.447   1.986 -0.2297  0.9763 -0.8763
 1013MOL0     C39674   2.702   2.386   1.967  0.0351 -0.3231  0.4359
 1013MOL0     C39675   2.769   2.402   2.087 -0.3182  0.2996  0.6124
 1013MOL0     C39676   2.902   2.343   2.125  0.2494  0.3300 -0.2801
 1013MOL0     C39677   3.019   2.406   2.050 -0.9492  0.2645  0.1711
 1013MOL0     C39678   3.140   2.402   2.144  0.0610  0.8748  0.2384
 1013MOL0     C39679   3.267   2.449   2.067  0.6517 -0.4039 -0.2754
 1013MOL0     O39680   3.322   2.351   1.982  0.3171 -0.2380 -0.7293
 1013MOL0     C39681   3.453   2.354   1.937 -0.0274  0.3657  0.4199
 1013MOL0     C39682   3.502   2.245   1.873  0.0740  0.1254  1.4543
 1013MOL0     C39683   3.632   2.235   1.819  0.5512 -0.0953  0.8460
 1013MOL0     C39684   3.671   2.114   1.739 -0.1840  0.5934  0.2638
 1013MOL0     C39685   3.715   2.348   1.833 -0.4988 -0.5838 -0.1034
 1013MOL0     C39686   3.838   2.351   1.761 -0.9796 -0.1524  0.0499
 1013MOL0     O39687   3.908   2.239   1.755 -0.5878  0.0239 -0.3782
 1013MOL0     C39688   4.043   2.261   1.722 -0.4505  0.4394 -0.3832
 1013MOL0     C39689   4.133   2.280   1.824  0.5055  0.2900 -0.6239
 1013MOL0     C39690   4.267   2.312   1.794 -0.5257 -0.7058  0.0117
 1013MOL0     C39691   4.312   2.325   1.656  0.2461 -0.2691 -0.4863
 1013MOL0     O39692   4.431   2.362   1.615  0.0555  0.3404  0.0760
 1013MOL0     C39693   4.505   2.463   1.686  0.5787  0.1954 -0.6549
 1013MOL0     C39694   4.650   2.460   1.632  0.3443 -0.5753 -0.2340
 1013MOL0     C39695   4.642   2.474   1.484  0.2223  0.1014  0.6448
 1013MOL0     C39696   4.564   2.599   1.429  0.3602 -0.0150 -0.4775
 1013MOL0     C39697   4.570   2.606   1.277  0.2290 -0.3312 -0.0358
 1013MOL0     C39698   4.712   2.633   1.215  0.2983  0.9033 -0.0148
 1013MOL0     C39699   4.699   2.650   1.059  0.4313  0.4046  0.3344
 1013MOL0     C39700   4.826   2.604   0.986  0.6894  0.8797  0.2977
 1013MOL0    Cl39701   4.965   2.697   1.041 -0.2007  0.2541  0.3834
 1013MOL0     C39702   4.216   2.303   1.561 -0.6057  0.2048 -0.0248
 1013MOL0     C39703   4.087   2.280   1.595 -0.1447 -0.1422  0.7605
 1013MOL0     O39704   3.878   2.468   1.738 -0.1598  0.7717 -0.3328
 1013MOL0     C39705   3.672   2.461   1.899 -0.7190  0.0952 -0.5635
 1013MOL0     C39706   3.538   2.464   1.945 -0.3213  0.5593 -0.3896
 1013MOL0     N39707   2.688   2.476   2.174 -0.3282  0.4361 -0.1981
 1013MOL0     N39708   2.574   2.494   2.115 -0.0139  0.5091  0.4398
 1013MOL0     C39709   1.524   2.503   1.750 -0.7762  0.6347 -0.6549
 1013MOL0     C39710   1.391   2.491   1.785 -0.6456  0.0883 -0.0232
 1013MOL0     C39711   0.925   2.480   1.717  0.2979  0.3057  0.7221
 1013MOL0     C39712   0.927   2.531   1.848 -0.1232  1.2604 -1.0312
 1013MOL0     C39713   0.816   2.554   1.924  0.0990 -0.5258 -0.7996
 1013MOL0     C39714   0.693   2.564   1.869  0.1567  0.0487  0.5456
 1013MOL0     O39715   0.576   2.613   1.917 -0.2990  0.2187  0.8334
 1013MOL0     C39716   0.579   2.662   2.049 -0.1401 -0.0475  0.9400
 1013MOL0     C39717   0.441   2.660   2.093  0.9312  0.1684 -0.0342
 1013MOL0     C39718   0.339   2.735   1.997  0.3610  0.1926  0.1706
 1013MOL0     C39719   0.218   2.777   2.071  0.2753 -0.4459  0.0848
 1013MOL0     C39720   0.129   2.851   1.993  0.7752 -0.6816  0.6351
 1013MOL0     C39721   0.057   2.925   1.925  0.3655 -0.0961  0.2663
 1013MOL0     C39722   0.684   2.532   1.729  0.0405  0.3280  0.2799
 1013MOL0     C39723   0.795   2.480   1.655  0.1569  0.5433  0.3474
 1013MOL0     C39724   0.766   2.420   1.519  0.1539  1.0089  0.3496
 1013MOL0     H39725   1.279   2.406   1.473 -2.4504  2.6955  0.9926
 1013MOL0     H39726   1.501   2.425   1.427  2.0001 -0.0780  0.2109
 1013MOL0     H39727   1.721   2.412   1.412  1.0618  2.1257 -0.6891
 1013MOL0     H39728   1.757   2.307   1.558  2.2195 -1.6785 -0.9452
 1013MOL0     H39729   1.942   2.379   1.387  0.6446  0.7573 -1.1725
 1013MOL0     H39730   1.927   2.538   1.448  1.5022 -0.7201  0.5477
 1013MOL0     H39731   1.932   2.434   1.694 -0.5419 -1.3406  0.6836
 1013MOL0     H39732   1.987   2.285   1.619 -0.1457 -0.7558 -3.0490
 1013MOL0     H39733   2.174   2.417   1.489 -0.1030  1.4018 -1.3597
 1013MOL0     H39734   2.129   2.552   1.590  0.1227 -0.8729  0.6011
 1013MOL0     H39735   2.167   2.291   1.730 -3.4922  0.0804 -0.8787
 1013MOL0     H39736   2.183   2.452   1.798  2.2130  0.8018  0.5622
 1013MOL0     H39737   2.381   2.326   1.598  2.6726  2.4060 -1.2398
 1013MOL0     H39738   2.384   2.495   1.650  2.0465 -0.5593  0.1756
 1013MOL0     H39739   2.524   2.303   1.777 -0.0976  1.2556 -0.5178
 1013MOL0     H39740   2.380   2.289   1.874  0.3329 -0.2943  1.2194
 1013MOL0     H39741   2.492   2.562   1.830  0.4332  0.1811 -0.5067
 1013MOL0     H39742   2.393   2.508   1.961  1.9307  1.2107  0.5720
 1013MOL0     H39743   2.733   2.337   1.875 -1.8717 -0.6157 -0.1107
 1013MOL0     H39744   2.908   2.234   2.119  3.5523  0.3215  1.2537
 1013MOL0     H39745   2.909   2.370   2.231 -3.2395  0.9549 -0.0688
 1013MOL0     H39746   3.039   2.349   1.959 -1.6534  1.0654 -0.5063
 1013MOL0     H39747   2.993   2.509   2.025 -4.2785 -0.5434 -0.1271
 1013MOL0     H39748   3.123   2.465   2.232  0.1089 -2.8186  3.1477
 1013MOL0     H39749   3.154   2.301   2.184  2.4868  0.2880 -1.8445
 1013MOL0     H39750   3.249   2.530   1.996  1.5731 -1.0674 -1.2926
 1013MOL0     H39751   3.337   2.487   2.143  1.2102 -0.8787 -0.5431
 1013MOL0     H39752   3.443   2.157   1.850  0.3985 -0.5936  3.2210
 1013MOL0     H39753   3.578   2.066   1.710  0.8190  0.0363 -2.3092
 1013MOL0     H39754   3.736   2.050   1.800  0.4204  1.9588  1.1059
 1013MOL0     H39755   3.716   2.142   1.643  0.4389  4.7352  1.5608
 1013MOL0     H39756   4.104   2.264   1.927  2.4169  2.5431  0.3556
 1013MOL0     H39757   4.336   2.324   1.876 -2.0368 -1.0113  1.3732
 1013MOL0     H39758   4.451   2.557   1.671 -1.8978 -1.6647 -5.5350
 1013MOL0     H39759   4.515   2.434   1.791 -0.6822 -1.8590 -1.0510
 1013MOL0     H39760   4.709   2.539   1.680  0.9902 -0.7452 -0.7363
 1013MOL0     H39761   4.688   2.362   1.662  0.2612 -0.4884  0.1583
 1013MOL0     H39762   4.609   2.385   1.430 -0.7705  0.4559  0.6484
 1013MOL0     H39763   4.748   2.486   1.463 -0.2855  0.0325 -2.4723
 1013MOL0     H39764   4.602   2.685   1.484  1.8859 -2.1509  2.0102
 1013MOL0     H39765   4.458   2.585   1.452 -0.3679  1.2976 -2.6836
 1013MOL0     H39766   4.523   2.514   1.241 -2.8656  0.0489  2.6110
 1013MOL0     H39767   4.502   2.686   1.248  1.7868  1.4007  0.8578
 1013MOL0     H39768   4.779   2.551   1.242 -1.1695  0.0029  1.0524
 1013MOL0     H39769   4.768   2.717   1.258  2.9962 -0.9385  0.3261
 1013MOL0     H39770   4.688   2.755   1.028  3.4723  1.0584  1.1206
 1013MOL0     H39771   4.621   2.586   1.016  0.3398  0.4406  0.4483
 1013MOL0     H39772   4.806   2.624   0.880 -1.4906  1.6898  0.8038
 1013MOL0     H39773   4.847   2.497   0.999 -0.6029  0.4627 -0.7809
 1013MOL0     H39774   4.259   2.311   1.461  2.3129 -2.3688  0.8671
 1013MOL0     H39775   4.017   2.286   1.513  1.1847  1.0885 -0.3452
 1013MOL0     H39776   3.736   2.548   1.911  2.0463 -2.1071  1.9915
 1013MOL0     H39777   3.499   2.547   2.003  2.4190 -0.6290  3.6459
 1013MOL0     H39778   1.593   2.528   1.830  1.4796 -2.4163 -1.4948
 1013MOL0     H39779   1.357   2.517   1.885  0.0441 -1.5698  0.6816
 1013MOL0     H39780   1.023   2.542   1.898 -0.0783  1.2889 -1.1239
 1013MOL0     H39781   0.832   2.571   2.030 -0.8231 -0.2552 -0.6929
 1013MOL0     H39782   0.635   2.594   2.113 -2.3846 -1.9257  1.0551
 1013MOL0     H39783   0.618   2.764   2.057  1.2575 -0.5428  0.5294
 1013MOL0     H39784   0.424   2.703   2.192 -1.1272 -1.8952  0.6072
 1013MOL0     H39785   0.409   2.558   2.115 -0.7051  0.9433  1.4660
 1013MOL0     H39786   0.387   2.824   1.954  0.1443 -0.1755 -0.8569
 1013MOL0     H39787   0.304   2.669   1.917 -1.1338  1.9546 -0.7034
 1013MOL0     H39788   0.254   2.840   2.152  2.3789 -0.8077 -0.5048
 1013MOL0     H39789   0.179   2.681   2.106 -0.3938 -0.3235 -0.3046
 1013MOL0     H39790  -0.006   2.992   1.870  0.9543  0.9482  0.8205
 1013MOL0     H39791   0.586   2.533   1.683  0.2333  0.2283 -0.1418
 1013MOL0     H39792   0.821   2.472   1.439 -0.5713  0.8930 -0.2305
 1013MOL0     H39793   0.798   2.316   1.511 -4.1160 -0.3537 -2.7906
 1013MOL0     H39794   0.659   2.422   1.497 -0.2723  0.0450  2.2159
 1014MOL0     O39795   0.606   5.028   5.443  0.0382 -0.1245 -0.4604
 1014MOL0     C39796   0.567   4.954   5.355 -0.1444  0.8544 -0.1634
 1014MOL0     O39797   0.635   4.860   5.278  0.5203 -0.7210  0.7610
 1014MOL0     C39798   0.778   4.859   5.271 -0.3857 -0.5368  0.3468
 1014MOL0     C39799   0.843   4.903   5.158  0.0237  1.2564  0.2621
 1014MOL0     C39800   0.981   4.916   5.148 -0.0855  0.5054 -0.3582
 1014MOL0     C39801   1.061   4.879   5.264  0.1043 -0.3786  0.3434
 1014MOL0     O39802   1.193   4.892   5.271  0.0991 -0.3156 -0.0096
 1014MOL0     C39803   1.245   4.985   5.168 -0.2865  0.6075  0.2030
 1014MOL0     C39804   1.391   5.031   5.201 -0.0316 -0.5703  0.2687
 1014MOL0     C39805   1.492   4.927   5.224 -0.1055  0.0001 -0.0379
 1014MOL0     C39806   1.539   4.856   5.102  0.1824 -0.2523 -0.2087
 1014MOL0     C39807   1.661   4.768   5.135 -1.1668 -0.0748  1.3017
 1014MOL0     C39808   1.723   4.739   4.994 -0.2934  0.4858  0.1742
 1014MOL0     C39809   1.837   4.632   4.998 -0.4391 -0.6334  0.0871
 1014MOL0     C39810   1.919   4.638   4.867  0.3595 -0.3053  0.4914
 1014MOL0     N39811   2.011   4.525   4.869  0.0292  0.2057  0.0924
 1014MOL0     C39812   2.118   4.501   4.952 -0.4387 -0.9711  0.2479
 1014MOL0     C39813   2.182   4.397   4.897 -0.4878  1.2651  0.2231
 1014MOL0     C39814   2.301   4.325   4.963  0.8098 -0.1961 -0.2321
 1014MOL0     C39815   2.320   4.181   4.918 -0.5714 -0.0048  0.2523
 1014MOL0     C39816   2.445   4.110   4.982  0.4836  0.0991  0.9635
 1014MOL0     C39817   2.578   4.118   4.903  0.6623 -0.4436 -0.4577
 1014MOL0     O39818   2.676   4.053   4.976  0.0628  0.0852  0.6002
 1014MOL0     C39819   2.800   4.028   4.926 -0.2433 -0.0662 -0.4193
 1014MOL0     C39820   2.895   3.965   5.003  0.6954  0.3193  0.0885
 1014MOL0     C39821   3.029   3.945   4.960 -0.6472  0.7690 -0.3622
 1014MOL0     C39822   3.124   3.877   5.044  0.2298 -0.0229 -0.1603
 1014MOL0     C39823   3.063   3.975   4.825 -0.2013  0.1849  0.2350
 1014MOL0     C39824   3.189   3.946   4.759 -0.7897 -1.2141 -0.8299
 1014MOL0     O39825   3.256   4.056   4.702  0.0527  0.0802  0.2279
 1014MOL0     C39826   3.380   4.036   4.646  1.0757 -0.1028  0.4760
 1014MOL0     C39827   3.497   3.984   4.712  0.2416  0.4753  0.5927
 1014MOL0     C39828   3.622   3.979   4.645  0.6239 -0.1655 -0.4028
 1014MOL0     C39829   3.627   4.026   4.510 -0.5056 -0.6348 -0.4081
 1014MOL0     O39830   3.750   4.014   4.452 -0.7060  0.2815 -0.0009
 1014MOL0     C39831   3.762   4.065   4.325  0.4697 -0.2545  0.3626
 1014MOL0     C39832   3.917   4.059   4.282  0.9653  0.4931 -0.8254
 1014MOL0     C39833   3.976   3.922   4.269  0.6907 -0.6605  1.0638
 1014MOL0     C39834   4.121   3.904   4.275  0.1089  0.6091 -0.1533
 1014MOL0     C39835   4.180   3.964   4.150 -0.5248  0.0053 -0.0151
 1014MOL0     C39836   4.324   3.916   4.145 -0.1010 -0.1864  0.6117
 1014MOL0     C39837   4.395   3.948   4.016 -0.3989  0.3863  0.5101
 1014MOL0     C39838   4.526   3.886   4.011 -0.1126  1.2288 -0.7820
 1014MOL0    Cl39839   4.621   3.927   3.864 -0.6492 -0.2280 -0.3349
 1014MOL0     C39840   3.514   4.094   4.449 -0.4488 -0.4533 -0.0469
 1014MOL0     C39841   3.398   4.094   4.518 -0.9757 -1.1032  0.4282
 1014MOL0     O39842   3.233   3.833   4.769  0.0287  0.1547 -0.8419
 1014MOL0     C39843   2.963   4.045   4.752  0.4079 -0.0062 -0.3910
 1014MOL0     C39844   2.836   4.071   4.796 -0.7383  0.5666  0.3420
 1014MOL0     N39845   2.121   4.362   4.779 -0.1466  0.2236  0.9151
 1014MOL0     N39846   2.015   4.439   4.764  0.5707  0.6411 -0.2770
 1014MOL0     C39847   0.996   4.826   5.373  0.3813 -0.3446  0.0279
 1014MOL0     C39848   0.857   4.821   5.384  0.3344  0.3494  0.3165
 1014MOL0     C39849   0.425   4.944   5.337  0.3950 -0.2003  0.2605
 1014MOL0     C39850   0.380   4.929   5.205  0.4617  0.8052  0.7685
 1014MOL0     C39851   0.251   4.925   5.168 -0.2313 -0.6182 -0.2559
 1014MOL0     C39852   0.146   4.933   5.263 -0.9422 -0.1080  0.0293
 1014MOL0     O39853   0.010   4.931   5.236  0.5185 -0.7085  0.0295
 1014MOL0     C39854  -0.055   4.945   5.113 -0.2023 -0.3766  0.3152
 1014MOL0     C39855  -0.030   5.075   5.048  0.0916 -0.3221 -0.2658
 1014MOL0     C39856  -0.058   5.200   5.138  0.8571  0.4051  0.7844
 1014MOL0     C39857  -0.060   5.338   5.064 -0.1602  0.5680 -0.5089
 1014MOL0     C39858  -0.180   5.352   4.978 -0.3448  0.2149  0.1891
 1014MOL0     C39859  -0.282   5.361   4.911 -0.1594 -0.2462  0.4680
 1014MOL0     C39860   0.190   4.949   5.394 -0.1634 -0.3239 -0.3216
 1014MOL0     C39861   0.324   4.966   5.436  0.0838 -0.3720  0.5397
 1014MOL0     C39862   0.352   4.993   5.577 -0.5591  0.1585  0.3484
 1014MOL0     H39863   0.793   4.933   5.066  1.0001 -0.3075 -0.8137
 1014MOL0     H39864   1.016   4.960   5.056  1.0211  2.0430  0.7554
 1014MOL0     H39865   1.184   5.075   5.159 -0.6641  0.2643 -0.8857
 1014MOL0     H39866   1.256   4.946   5.066  1.4335  1.2524  0.0985
 1014MOL0     H39867   1.430   5.099   5.124 -0.4104  2.1774  2.3298
 1014MOL0     H39868   1.381   5.089   5.294 -2.4044  0.5643 -0.6059
 1014MOL0     H39869   1.579   4.980   5.262  0.4059 -2.5297  2.6584
 1014MOL0     H39870   1.456   4.850   5.294  1.3295 -2.0042 -1.3994
 1014MOL0     H39871   1.456   4.806   5.052  1.7393 -3.2662  0.0011
 1014MOL0     H39872   1.569   4.931   5.028  0.5441 -0.3680 -0.1804
 1014MOL0     H39873   1.621   4.678   5.182 -5.2719  0.6463 -0.4015
 1014MOL0     H39874   1.733   4.820   5.199  1.5554  0.2139 -1.7097
 1014MOL0     H39875   1.648   4.705   4.922  2.9888 -3.3276 -1.8607
 1014MOL0     H39876   1.760   4.836   4.959 -0.4409  1.9289  3.5831
 1014MOL0     H39877   1.798   4.530   5.006  1.3508 -1.2259  2.0979
 1014MOL0     H39878   1.913   4.651   5.075  1.0816  0.9681 -1.7091
 1014MOL0     H39879   1.844   4.626   4.789 -0.9346  3.8475  0.8439
 1014MOL0     H39880   1.971   4.733   4.851 -1.5438  0.4382 -1.8928
 1014MOL0     H39881   2.138   4.551   5.046 -2.6051  0.0166  0.2528
 1014MOL0     H39882   2.303   4.328   5.072 -2.7778  2.5014 -0.0502
 1014MOL0     H39883   2.386   4.389   4.936  0.0285  0.5051 -1.0886
 1014MOL0     H39884   2.223   4.134   4.937 -2.1866  3.2174  0.7840
 1014MOL0     H39885   2.339   4.178   4.810 -0.8310  2.0345  0.0972
 1014MOL0     H39886   2.452   4.150   5.083  0.8764  2.7391 -0.0171
 1014MOL0     H39887   2.433   4.002   4.975  1.2383  0.0578 -5.1461
 1014MOL0     H39888   2.552   4.069   4.809 -0.2936  0.0225 -0.4484
 1014MOL0     H39889   2.609   4.220   4.877  0.8365 -0.4613 -0.3266
 1014MOL0     H39890   2.869   3.935   5.104  0.4533  0.1490 -0.0228
 1014MOL0     H39891   3.101   3.770   5.034  0.0096  0.1355 -1.6142
 1014MOL0     H39892   3.099   3.916   5.143 -0.2807 -2.1787  0.6152
 1014MOL0     H39893   3.231   3.888   5.024 -0.0990  1.8443 -1.1289
 1014MOL0     H39894   3.473   3.967   4.817 -1.4940  0.3538  0.2085
 1014MOL0     H39895   3.713   3.937   4.685  1.2208 -1.1285 -2.6194
 1014MOL0     H39896   3.718   4.006   4.245  0.9274 -0.6825  0.4254
 1014MOL0     H39897   3.730   4.170   4.328 -3.2079 -1.2295  0.2750
 1014MOL0     H39898   3.929   4.112   4.187  0.7921 -1.5197 -2.0416
 1014MOL0     H39899   3.967   4.109   4.366 -1.4222  0.5250  0.6794
 1014MOL0     H39900   3.940   3.899   4.169 -1.7495  0.1716  1.6967
 1014MOL0     H39901   3.927   3.851   4.336  1.9431 -4.0026 -1.3239
 1014MOL0     H39902   4.143   3.797   4.269  0.9211  0.7186  0.6556
 1014MOL0     H39903   4.157   3.949   4.368 -1.1638  1.6037 -0.1030
 1014MOL0     H39904   4.118   3.938   4.064 -1.4194 -0.7445  0.8391
 1014MOL0     H39905   4.185   4.073   4.154 -0.5966  0.1665 -2.7963
 1014MOL0     H39906   4.329   3.807   4.152 -0.2654 -0.0878  3.2820
 1014MOL0     H39907   4.381   3.958   4.228  2.1809  1.2104 -1.5319
 1014MOL0     H39908   4.412   4.056   4.007  2.6346 -0.1161 -1.2888
 1014MOL0     H39909   4.343   3.909   3.928  0.2811 -0.9357  0.6672
 1014MOL0     H39910   4.523   3.776   4.008  0.4282  0.9159  3.7140
 1014MOL0     H39911   4.582   3.909   4.102  0.7161  1.2912 -1.2963
 1014MOL0     H39912   3.517   4.138   4.350 -2.0662 -0.7743 -0.2582
 1014MOL0     H39913   3.311   4.136   4.468 -0.9579  1.0543  2.0758
 1014MOL0     H39914   2.991   4.071   4.650 -1.7876 -2.8448 -1.8489
 1014MOL0     H39915   2.760   4.111   4.731 -0.7035 -1.8336 -1.3020
 1014MOL0     H39916   1.051   4.790   5.460  1.6140  0.6910 -0.2941
 1014MOL0     H39917   0.807   4.772   5.467  1.8713 -0.2960  0.8999
 1014MOL0     H39918   0.453   4.903   5.129 -0.4384 -0.6357  0.3539
 1014MOL0     H39919   0.230   4.915   5.062  0.3961  0.2439 -0.4711
 1014MOL0     H39920  -0.029   4.865   5.043  0.0189  0.9838 -1.2032
 1014MOL0     H39921  -0.163   4.930   5.122 -0.6787  2.1214 -0.4993
 1014MOL0     H39922  -0.102   5.089   4.967 -0.7265  0.4788  0.5693
 1014MOL0     H39923   0.071   5.080   5.007  0.0374 -0.0435 -0.3688
 1014MOL0     H39924  -0.158   5.172   5.171  2.3374 -3.6957  2.3522
 1014MOL0     H39925   0.019   5.201   5.215  1.8207 -1.7591 -0.0864
 1014MOL0     H39926   0.033   5.357   5.011  0.5525 -1.4937 -0.0822
 1014MOL0     H39927  -0.072   5.407   5.149  1.4149  0.9124 -0.5431
 1014MOL0     H39928  -0.373   5.350   4.854 -0.1458 -1.5852  0.6768
 1014MOL0     H39929   0.115   4.982   5.464 -0.4738  1.2359 -1.3565
 1014MOL0     H39930   0.408   5.087   5.575 -1.2017  0.6351 -3.6895
 1014MOL0     H39931   0.265   4.995   5.643 -0.4300 -3.2409  0.7685
 1014MOL0     H39932   0.419   4.917   5.617  1.1669  0.2530 -2.1721
 1015MOL0     O39933   0.317   8.648   0.894  0.0630  0.5264 -0.1404
 1015MOL0     C39934   0.306   8.594   0.780  0.2080  0.0664  0.3391
 1015MOL0     O39935   0.414   8.551   0.702  0.1527 -0.3307 -0.7562
 1015MOL0     C39936   0.535   8.550   0.760 -1.2895  0.4838 -0.2287
 1015MOL0     C39937   0.635   8.644   0.731 -0.8003 -0.0518  0.0110
 1015MOL0     C39938   0.771   8.637   0.792  0.1247 -0.9174 -0.2720
 1015MOL0     C39939   0.803   8.541   0.887  0.1411  1.1580 -0.0331
 1015MOL0     O39940   0.932   8.543   0.945  0.0187  0.0170  0.6840
 1015MOL0     C39941   0.931   8.536   1.088 -0.1020  0.8129 -0.5444
 1015MOL0     C39942   0.991   8.661   1.145 -0.5236  0.4004 -0.3167
 1015MOL0     C39943   1.121   8.630   1.211 -0.2974 -0.1446 -0.1889
 1015MOL0     C39944   1.163   8.751   1.296 -0.4408  0.0953 -0.0514
 1015MOL0     C39945   1.313   8.732   1.328  0.5797 -0.1850 -0.5433
 1015MOL0     C39946   1.349   8.601   1.387 -0.2715  0.3960  0.6318
 1015MOL0     C39947   1.494   8.595   1.431 -0.3356  0.5334  0.4068
 1015MOL0     C39948   1.604   8.611   1.318  0.3001  0.3206 -0.0665
 1015MOL0     N39949   1.594   8.501   1.226 -0.8794  0.0053 -0.0472
 1015MOL0     C39950   1.577   8.524   1.091 -0.2271  0.0433  1.0064
 1015MOL0     C39951   1.551   8.406   1.035 -0.9753 -0.0577  0.2200
 1015MOL0     C39952   1.492   8.371   0.901 -0.4489 -0.0090 -0.5064
 1015MOL0     C39953   1.599   8.389   0.790  1.3482 -0.7081 -0.2285
 1015MOL0     C39954   1.724   8.304   0.822  0.1598  0.3200 -0.1470
 1015MOL0     C39955   1.811   8.269   0.699  0.6127 -0.7956  0.1759
 1015MOL0     O39956   1.929   8.208   0.749  0.2693 -0.4102 -0.2871
 1015MOL0     C39957   2.040   8.289   0.788 -0.0998 -0.8936  0.5797
 1015MOL0     C39958   2.076   8.419   0.729 -0.0325  0.0259 -0.0807
 1015MOL0     C39959   2.201   8.478   0.754  0.6463 -0.0526 -0.2573
 1015MOL0     C39960   2.250   8.585   0.659 -0.0638  0.8193 -0.3943
 1015MOL0     C39961   2.282   8.430   0.858 -0.0457 -0.0801  0.8020
 1015MOL0     C39962   2.418   8.479   0.896  0.8098 -0.3535  0.3852
 1015MOL0     O39963   2.499   8.397   0.957  0.5904 -0.1706  0.0045
 1015MOL0     C39964   2.624   8.437   0.994  0.1384  0.2396 -0.1351
 1015MOL0     C39965   2.650   8.487   1.122  0.2388  0.3452  0.2386
 1015MOL0     C39966   2.772   8.546   1.158  0.1313 -0.1653 -0.0521
 1015MOL0     C39967   2.879   8.549   1.066 -0.4934  0.8125 -0.9895
 1015MOL0     O39968   3.001   8.593   1.107 -0.7734 -0.2404  0.0512
 1015MOL0     C39969   3.112   8.621   1.017  0.6833 -0.4970  0.5531
 1015MOL0     C39970   3.226   8.700   1.072  0.3750 -0.2280 -0.0337
 1015MOL0     C39971   3.274   8.657   1.211  0.9623  1.2537 -0.1888
 1015MOL0     C39972   3.337   8.766   1.292 -0.3840  0.1880  0.3708
 1015MOL0     C39973   3.449   8.736   1.395  0.3959 -0.4702  0.2915
 1015MOL0     C39974   3.533   8.859   1.436  0.2370 -0.4914  0.5834
 1015MOL0     C39975   3.638   8.847   1.547 -0.3649  0.2278 -0.5146
 1015MOL0     C39976   3.770   8.765   1.495  0.7751  0.1260 -0.4480
 1015MOL0    Cl39977   3.900   8.788   1.616  0.1540 -0.4902  0.1119
 1015MOL0     C39978   2.860   8.491   0.938 -0.4801 -0.1181 -0.2287
 1015MOL0     C39979   2.737   8.430   0.914  0.2276  0.2277  0.2131
 1015MOL0     O39980   2.449   8.591   0.852 -0.1350  0.4004 -0.1615
 1015MOL0     C39981   2.235   8.311   0.925 -0.1468 -0.7031 -0.0196
 1015MOL0     C39982   2.111   8.248   0.895  0.0192 -0.1439 -0.2214
 1015MOL0     N39983   1.575   8.305   1.128 -0.4779  0.3317  0.6662
 1015MOL0     N39984   1.602   8.362   1.242  0.3056  0.7087 -0.5709
 1015MOL0     C39985   0.700   8.445   0.921  1.3172 -0.1871  0.3365
 1015MOL0     C39986   0.574   8.447   0.856 -0.5002 -0.0272 -0.6625
 1015MOL0     C39987   0.167   8.582   0.721  0.3930  0.7728  0.2484
 1015MOL0     C39988   0.152   8.487   0.614 -0.1905  0.0285 -0.3333
 1015MOL0     C39989   0.024   8.445   0.564  0.0528 -0.7938 -0.2505
 1015MOL0     C39990  -0.083   8.532   0.594  0.0716 -0.5068 -1.0049
 1015MOL0     O39991  -0.207   8.498   0.557  0.4741 -0.1021 -0.0819
 1015MOL0     C39992  -0.234   8.497   0.421 -0.9358  0.4458  0.8406
 1015MOL0     C39993  -0.381   8.482   0.379  0.1322 -0.5872  0.2762
 1015MOL0     C39994  -0.456   8.612   0.388  0.2340  0.1049  0.7992
 1015MOL0     C39995  -0.600   8.579   0.338  0.1454 -0.4700  0.4547
 1015MOL0     C39996  -0.604   8.598   0.193  0.1936  0.0308  0.8847
 1015MOL0     C39997  -0.611   8.600   0.073 -1.2419 -0.1573  0.4808
 1015MOL0     C39998  -0.074   8.631   0.696  0.5021  0.1496 -0.1905
 1015MOL0     C39999   0.052   8.657   0.754 -0.5476 -0.8003  0.1292
 1015MOL0     C40000   0.056   8.772   0.846 -0.3032 -1.1163 -0.0947
 1015MOL0     H40001   0.606   8.729   0.670  0.5941 -1.1516 -2.3231
 1015MOL0     H40002   0.847   8.705   0.755  0.0260 -0.8313 -0.3194
 1015MOL0     H40003   0.961   8.437   1.123 -2.8006 -0.7004 -2.1893
 1015MOL0     H40004   0.831   8.534   1.132  0.1392  0.0218 -0.0115
 1015MOL0     H40005   1.002   8.746   1.077 -1.6400  3.7620  3.3139
 1015MOL0     H40006   0.912   8.700   1.210 -1.5006  0.1349 -1.3044
 1015MOL0     H40007   1.114   8.540   1.273  0.3319  0.5029  0.8350
 1015MOL0     H40008   1.199   8.621   1.134 -1.0262  0.1647 -0.9840
 1015MOL0     H40009   1.154   8.837   1.228  3.2659 -0.0613 -0.9570
 1015MOL0     H40010   1.099   8.748   1.384 -1.5358 -2.1951 -0.8665
 1015MOL0     H40011   1.348   8.808   1.398  1.7352  0.4041 -1.7139
 1015MOL0     H40012   1.375   8.742   1.238 -0.1766 -1.5176 -1.2469
 1015MOL0     H40013   1.279   8.585   1.468 -0.3481  1.2530  0.7440
 1015MOL0     H40014   1.340   8.525   1.309 -0.5092  0.1475  0.9041
 1015MOL0     H40015   1.502   8.492   1.468 -0.3362  0.8169  1.2054
 1015MOL0     H40016   1.511   8.663   1.515 -0.1097 -1.3975  2.0014
 1015MOL0     H40017   1.588   8.709   1.271  1.5214 -0.0057 -1.2298
 1015MOL0     H40018   1.707   8.611   1.355 -0.0158 -1.7972  0.9429
 1015MOL0     H40019   1.567   8.622   1.046  1.2488  1.4011  3.3989
 1015MOL0     H40020   1.403   8.429   0.877  0.4501  0.8378 -1.9032
 1015MOL0     H40021   1.469   8.264   0.900 -0.2109 -0.1337 -4.0456
 1015MOL0     H40022   1.554   8.343   0.701 -0.4223  0.8226 -0.1766
 1015MOL0     H40023   1.628   8.492   0.767 -1.4191  0.2187  0.0612
 1015MOL0     H40024   1.784   8.354   0.899 -0.2539  1.3391 -0.4572
 1015MOL0     H40025   1.689   8.208   0.860  1.5754 -0.3225 -0.4255
 1015MOL0     H40026   1.764   8.217   0.615  1.2933  0.8108 -1.2391
 1015MOL0     H40027   1.835   8.369   0.662 -1.6226  2.3076  5.9209
 1015MOL0     H40028   2.007   8.460   0.656 -2.0716 -2.1244  0.4777
 1015MOL0     H40029   2.353   8.572   0.623  0.4178  2.8083  0.1026
 1015MOL0     H40030   2.251   8.684   0.706 -0.9797  0.4314  0.4486
 1015MOL0     H40031   2.182   8.593   0.574 -0.4702 -0.1314 -0.1680
 1015MOL0     H40032   2.565   8.490   1.189 -1.6016 -2.1191 -1.7968
 1015MOL0     H40033   2.798   8.584   1.257  1.6836  3.4042 -1.6108
 1015MOL0     H40034   3.144   8.520   0.989 -0.7869 -1.3426  1.7442
 1015MOL0     H40035   3.072   8.671   0.929 -0.1683  1.4853  1.9863
 1015MOL0     H40036   3.317   8.693   1.011  0.7356 -2.7841  0.6582
 1015MOL0     H40037   3.185   8.799   1.089 -0.3566 -0.8602  2.1562
 1015MOL0     H40038   3.344   8.575   1.192  1.8262  2.1358 -0.9554
 1015MOL0     H40039   3.188   8.632   1.273  0.2478  0.4230 -1.4734
 1015MOL0     H40040   3.268   8.831   1.346 -0.5174  0.3716 -0.0153
 1015MOL0     H40041   3.377   8.839   1.222 -0.8280 -0.6055 -0.7373
 1015MOL0     H40042   3.397   8.692   1.480 -4.6161  0.4155 -1.9528
 1015MOL0     H40043   3.510   8.655   1.354  0.5835 -0.3801  0.3879
 1015MOL0     H40044   3.465   8.936   1.471  2.3656 -0.2173  4.8104
 1015MOL0     H40045   3.593   8.890   1.350  0.7969  0.4826  1.3017
 1015MOL0     H40046   3.598   8.820   1.645  1.8129 -1.1196  0.0521
 1015MOL0     H40047   3.691   8.941   1.566 -0.3839  0.2203 -0.4279
 1015MOL0     H40048   3.816   8.811   1.407 -1.5491  1.2609 -1.1352
 1015MOL0     H40049   3.740   8.661   1.482  0.4995 -0.0371  1.2187
 1015MOL0     H40050   2.937   8.493   0.861  0.6103 -0.9880  0.7854
 1015MOL0     H40051   2.723   8.374   0.822 -0.6034 -1.7726  1.4989
 1015MOL0     H40052   2.280   8.279   1.018  2.9599  0.3653 -1.0360
 1015MOL0     H40053   2.077   8.158   0.945 -0.2586 -0.4817 -0.9925
 1015MOL0     H40054   0.714   8.381   1.007 -1.3151 -0.9622  0.2667
 1015MOL0     H40055   0.507   8.364   0.878 -1.4065  0.3569 -1.8834
 1015MOL0     H40056   0.241   8.428   0.593 -0.3898 -2.0494  3.7110
 1015MOL0     H40057   0.016   8.351   0.511  0.1995 -2.1209  1.9698
 1015MOL0     H40058  -0.183   8.590   0.395  0.5178 -0.5617 -0.0608
 1015MOL0     H40059  -0.182   8.414   0.373 -1.3480  0.6628  0.0062
 1015MOL0     H40060  -0.428   8.415   0.451  0.6334  0.2178  1.3706
 1015MOL0     H40061  -0.389   8.427   0.284 -0.7448 -0.7913  0.4593
 1015MOL0     H40062  -0.456   8.653   0.489 -3.4221  0.3352  0.8085
 1015MOL0     H40063  -0.409   8.684   0.321  2.8463 -0.0113  2.3290
 1015MOL0     H40064  -0.674   8.649   0.379 -1.2842 -0.7433 -1.5392
 1015MOL0     H40065  -0.637   8.480   0.366  2.7083 -1.2650  1.2768
 1015MOL0     H40066  -0.629   8.587  -0.032 -0.8970  0.2574  0.3696
 1015MOL0     H40067  -0.165   8.687   0.717 -0.0004  0.0701 -1.9243
 1015MOL0     H40068  -0.037   8.829   0.854  1.3402  1.5043  2.0161
 1015MOL0     H40069   0.079   8.737   0.947 -0.3540  0.4932  0.5083
 1015MOL0     H40070   0.136   8.844   0.822 -0.6648 -0.3332  0.9974
 1016MOL0     O40071   8.837   2.365   4.958 -0.8845  0.1643  0.0612
 1016MOL0     C40072   8.837   2.265   4.895 -0.0025  0.9176 -0.1476
 1016MOL0     O40073   8.933   2.167   4.894  0.1485 -0.9611 -0.2302
 1016MOL0     C40074   9.051   2.168   4.957 -0.6443 -0.0158  0.0367
 1016MOL0     C40075   9.138   2.068   4.921 -0.5984 -0.8113  0.0844
 1016MOL0     C40076   9.272   2.065   4.972 -0.5927 -0.1804 -0.5194
 1016MOL0     C40077   9.303   2.157   5.074  0.0784 -0.7430 -0.2273
 1016MOL0     O40078   9.420   2.140   5.148  0.0651 -0.2349  1.0257
 1016MOL0     C40079   9.467   2.256   5.216 -0.0682 -0.0591 -0.2028
 1016MOL0     C40080   9.611   2.252   5.267  0.4005  0.1913 -0.0867
 1016MOL0     C40081   9.637   2.133   5.364  1.1163  0.0463 -0.2171
 1016MOL0     C40082   9.733   2.165   5.482 -0.0411  0.5974 -0.6248
 1016MOL0     C40083   9.734   2.055   5.591  0.2351  0.4601  0.4475
 1016MOL0     C40084   9.846   2.085   5.695 -0.7918  0.7822  0.7762
 1016MOL0     C40085   9.839   1.969   5.793  1.1231 -0.2454  0.5237
 1016MOL0     C40086   9.953   1.985   5.885  0.8545  0.8136  0.0966
 1016MOL0     N40087   9.937   1.876   5.985 -0.2520  0.4859  0.2168
 1016MOL0     C40088   9.999   1.749   5.960 -0.2230 -0.5125 -0.0912
 1016MOL0     C40089   9.951   1.671   6.068 -0.1781  0.2369  0.3267
 1016MOL0     C40090   9.981   1.530   6.099  0.2519 -0.5203 -1.0173
 1016MOL0     C40091  10.116   1.477   6.030  0.0873  0.4579  0.0799
 1016MOL0     C40092  10.097   1.420   5.888  0.0388 -0.1000  0.9486
 1016MOL0     C40093  10.242   1.399   5.832 -0.4881  0.6029 -0.0857
 1016MOL0     O40094  10.304   1.534   5.818  0.3344  1.0445 -0.5926
 1016MOL0     C40095  10.442   1.537   5.802  0.0312  0.4876 -0.2844
 1016MOL0     C40096  10.526   1.431   5.757 -0.8046  0.0655  0.1648
 1016MOL0     C40097  10.662   1.446   5.727  0.4414 -0.1275 -0.4201
 1016MOL0     C40098  10.730   1.315   5.691 -0.3946  0.1088 -0.0330
 1016MOL0     C40099  10.723   1.576   5.738  0.0412  1.0709 -0.2955
 1016MOL0     C40100  10.865   1.604   5.702 -0.1123  0.3437  0.3958
 1016MOL0     O40101  10.894   1.714   5.637 -0.0336  0.5769 -0.7977
 1016MOL0     C40102  11.024   1.746   5.601  0.8244 -0.5998 -0.4452
 1016MOL0     C40103  11.052   1.881   5.590  0.4208 -0.2566 -0.5347
 1016MOL0     C40104  11.175   1.931   5.558 -0.1847 -0.6814 -0.9940
 1016MOL0     C40105  11.282   1.840   5.533 -0.4102 -0.6482 -0.5527
 1016MOL0     O40106  11.405   1.880   5.496  0.0379 -0.8269 -0.3619
 1016MOL0     C40107  11.453   1.836   5.371  0.6037  0.6267  0.2403
 1016MOL0     C40108  11.369   1.884   5.247 -0.7128 -0.2685  0.0503
 1016MOL0     C40109  11.372   2.042   5.253  0.0690 -0.4556 -0.4520
 1016MOL0     C40110  11.509   2.113   5.256  0.0858  0.0850  0.1724
 1016MOL0     C40111  11.504   2.246   5.189 -0.4807 -0.0207 -0.3210
 1016MOL0     C40112  11.627   2.336   5.238  0.6707 -0.0920 -0.9075
 1016MOL0     C40113  11.620   2.463   5.150 -0.6406  0.0899 -0.6065
 1016MOL0     C40114  11.745   2.550   5.168  0.1412 -0.1788  0.0451
 1016MOL0    Cl40115  11.883   2.459   5.117 -0.2959 -0.5683 -0.7088
 1016MOL0     C40116  11.254   1.706   5.559 -0.2143  0.0419  0.0934
 1016MOL0     C40117  11.125   1.653   5.567 -0.3456  0.0347 -0.5929
 1016MOL0     O40118  10.942   1.527   5.753  0.3541 -0.4065  0.3362
 1016MOL0     C40119  10.640   1.684   5.773 -0.3032 -0.2715  0.6026
 1016MOL0     C40120  10.500   1.666   5.800 -0.3728  0.4647  0.6300
 1016MOL0     N40121   9.875   1.753   6.152 -0.0583  0.4875  0.3336
 1016MOL0     N40122   9.863   1.874   6.109 -0.2088  0.2816 -0.2003
 1016MOL0     C40123   9.205   2.250   5.124 -0.5828  0.3676  0.3722
 1016MOL0     C40124   9.080   2.258   5.064 -0.2177 -0.8301 -0.2200
 1016MOL0     C40125   8.719   2.245   4.806 -0.3625 -0.7493 -0.1873
 1016MOL0     C40126   8.720   2.141   4.715 -0.0149  0.1299 -0.1869
 1016MOL0     C40127   8.612   2.117   4.628  0.2897 -0.4239 -0.5267
 1016MOL0     C40128   8.510   2.213   4.619 -1.0369  0.0874  1.0562
 1016MOL0     O40129   8.413   2.193   4.522 -0.0096  0.4197 -0.2503
 1016MOL0     C40130   8.283   2.252   4.524 -0.4914 -0.1653  0.0822
 1016MOL0     C40131   8.172   2.178   4.609 -0.2931  0.2888  1.4649
 1016MOL0     C40132   8.125   2.039   4.553 -0.2265  0.9272 -0.8664
 1016MOL0     C40133   8.244   1.940   4.521 -0.2462  0.6278  0.6096
 1016MOL0     C40134   8.304   1.904   4.643 -1.3221  0.1819  0.0104
 1016MOL0     C40135   8.357   1.900   4.753  0.5615 -0.1878 -0.5399
 1016MOL0     C40136   8.511   2.315   4.709  0.4667 -0.6257 -0.0129
 1016MOL0     C40137   8.607   2.330   4.805  0.6528 -0.4240  0.5935
 1016MOL0     C40138   8.576   2.425   4.911 -0.3925  0.2583 -0.6684
 1016MOL0     H40139   9.111   2.005   4.837  0.0754 -1.1343  0.0969
 1016MOL0     H40140   9.341   1.985   4.949 -1.6404 -1.2341 -0.0992
 1016MOL0     H40141   9.390   2.269   5.293 -2.3053 -2.1637 -1.9119
 1016MOL0     H40142   9.469   2.342   5.149 -0.4277 -1.1427 -1.6485
 1016MOL0     H40143   9.680   2.256   5.181 -0.9880  3.7461 -1.2354
 1016MOL0     H40144   9.626   2.349   5.316  0.2742  0.7460 -1.1156
 1016MOL0     H40145   9.544   2.099   5.410  1.3258 -0.4369 -0.1509
 1016MOL0     H40146   9.686   2.059   5.300 -0.1532 -0.7358 -0.3388
 1016MOL0     H40147   9.835   2.165   5.443  0.1924  0.5637 -0.0301
 1016MOL0     H40148   9.707   2.258   5.533 -0.5367 -1.2404  2.7417
 1016MOL0     H40149   9.743   1.956   5.545  1.6723  0.8217 -0.1001
 1016MOL0     H40150   9.636   2.067   5.638  0.4244 -0.4982  1.1267
 1016MOL0     H40151   9.950   2.085   5.659 -0.5844  2.1956  1.3154
 1016MOL0     H40152   9.830   2.184   5.737 -0.9443  1.7507 -1.4580
 1016MOL0     H40153   9.841   1.872   5.743  1.3203  0.7395 -1.4532
 1016MOL0     H40154   9.744   1.980   5.847 -1.7840 -0.1612 -4.0555
 1016MOL0     H40155  10.047   1.982   5.831 -1.0159  4.4870 -3.9594
 1016MOL0     H40156   9.946   2.080   5.940 -3.6376  0.4657  0.5111
 1016MOL0     H40157  10.050   1.738   5.865 -1.4636  2.7236 -1.2938
 1016MOL0     H40158   9.894   1.468   6.072 -1.2411  0.8403  0.4635
 1016MOL0     H40159   9.984   1.522   6.208 -4.3565  0.4080 -0.6196
 1016MOL0     H40160  10.197   1.550   6.043  0.4299  0.1260 -0.1772
 1016MOL0     H40161  10.154   1.390   6.083 -2.5155 -1.3736 -0.8901
 1016MOL0     H40162  10.049   1.323   5.899  1.7310 -0.8529  2.2941
 1016MOL0     H40163  10.050   1.499   5.829  2.7884 -0.0923 -1.4846
 1016MOL0     H40164  10.301   1.334   5.898  1.5452  2.5020  0.0663
 1016MOL0     H40165  10.240   1.350   5.735  0.8152 -0.6590  0.4846
 1016MOL0     H40166  10.479   1.334   5.743 -1.9198  0.6827 -0.5856
 1016MOL0     H40167  10.652   1.239   5.678 -1.3320  1.0169  0.1575
 1016MOL0     H40168  10.790   1.292   5.779 -0.3023  3.0391  0.7864
 1016MOL0     H40169  10.797   1.313   5.604  0.4785 -3.2634  0.5970
 1016MOL0     H40170  10.969   1.946   5.614  0.6884 -0.0345 -0.1935
 1016MOL0     H40171  11.181   2.039   5.570 -0.3323 -0.8942  1.7013
 1016MOL0     H40172  11.545   1.893   5.357  0.8416 -0.1921 -1.8933
 1016MOL0     H40173  11.466   1.728   5.369 -1.3579  0.3379  0.7654
 1016MOL0     H40174  11.412   1.856   5.151 -0.2554  1.0431 -0.1472
 1016MOL0     H40175  11.263   1.856   5.247 -1.8932  3.4416  2.7436
 1016MOL0     H40176  11.326   2.069   5.348 -2.1437 -1.0113 -1.3186
 1016MOL0     H40177  11.320   2.086   5.167  0.7090  4.0731  1.2209
 1016MOL0     H40178  11.585   2.047   5.212  0.7159  0.1430  1.1432
 1016MOL0     H40179  11.551   2.122   5.356  0.3665  2.5484 -0.1178
 1016MOL0     H40180  11.513   2.234   5.080  2.2361 -0.6534 -0.1011
 1016MOL0     H40181  11.415   2.305   5.209  0.7652  2.0486 -0.5619
 1016MOL0     H40182  11.725   2.287   5.234  1.3529  1.2356 -0.7495
 1016MOL0     H40183  11.620   2.373   5.341  0.3018  1.4482 -1.4720
 1016MOL0     H40184  11.535   2.526   5.178 -2.0846 -1.2512 -1.7783
 1016MOL0     H40185  11.617   2.426   5.047 -1.3761 -3.5267  0.5530
 1016MOL0     H40186  11.764   2.594   5.267 -0.2233  0.0597  0.0128
 1016MOL0     H40187  11.734   2.641   5.108 -0.1017 -0.5378 -0.4632
 1016MOL0     H40188  11.332   1.630   5.557 -1.3349 -1.1860  0.8637
 1016MOL0     H40189  11.124   1.545   5.570  2.1259 -0.1467 -2.4751
 1016MOL0     H40190  10.682   1.785   5.771  0.1530 -0.4744 -0.6425
 1016MOL0     H40191  10.441   1.754   5.826  0.2834  0.5194  2.0416
 1016MOL0     H40192   9.222   2.321   5.204 -2.1659  0.6270  0.5019
 1016MOL0     H40193   9.015   2.338   5.098 -1.0462 -1.7566  0.4367
 1016MOL0     H40194   8.807   2.077   4.721 -0.6506 -1.0627 -2.4223
 1016MOL0     H40195   8.624   2.032   4.561  2.6836 -1.7649  1.4286
 1016MOL0     H40196   8.300   2.353   4.562  1.4985 -0.3823 -0.1682
 1016MOL0     H40197   8.245   2.273   4.424  0.0874  1.5324  0.1834
 1016MOL0     H40198   8.086   2.245   4.612 -1.8936 -1.7365  2.5343
 1016MOL0     H40199   8.210   2.156   4.709  0.4822 -2.8982  0.5905
 1016MOL0     H40200   8.062   1.993   4.630 -0.9933 -0.0138 -2.0075
 1016MOL0     H40201   8.061   2.048   4.465 -0.7144 -0.2181 -0.6604
 1016MOL0     H40202   8.313   1.989   4.452 -1.2070  2.8280  1.1203
 1016MOL0     H40203   8.207   1.852   4.468  1.4520  0.8253 -1.0323
 1016MOL0     H40204   8.416   1.905   4.842 -1.0240  2.7047  0.4543
 1016MOL0     H40205   8.431   2.388   4.708  1.4574  0.5450 -2.5129
 1016MOL0     H40206   8.476   2.469   4.904 -0.6951 -0.0700  1.2623
 1016MOL0     H40207   8.584   2.384   5.011  0.1926 -0.2793 -0.9286
 1016MOL0     H40208   8.641   2.513   4.905 -0.2833  0.1747 -0.7209
 1017MOL0     O40209   4.527   7.801   2.657 -0.3113  0.5579 -0.4501
 1017MOL0     C40210   4.476   7.699   2.709 -0.2934 -0.3054 -0.3873
 1017MOL0     O40211   4.543   7.607   2.788 -0.3784 -0.4680 -0.4334
 1017MOL0     C40212   4.675   7.619   2.821  0.6474  0.6975  0.3050
 1017MOL0     C40213   4.721   7.501   2.872 -0.6614  0.7252 -0.2102
 1017MOL0     C40214   4.852   7.478   2.912 -0.0588 -0.4485  1.1881
 1017MOL0     C40215   4.948   7.582   2.900  0.2193  1.0608  0.3630
 1017MOL0     O40216   5.085   7.567   2.920 -0.1914  0.6791 -0.4794
 1017MOL0     C40217   5.154   7.457   2.864 -1.1914  0.7929 -0.3921
 1017MOL0     C40218   5.187   7.342   2.965 -0.1708  0.0078  0.1636
 1017MOL0     C40219   5.302   7.248   2.915  0.5975  0.2877 -1.7069
 1017MOL0     C40220   5.307   7.131   3.013  0.9261 -0.0315  0.5202
 1017MOL0     C40221   5.432   7.045   2.989  0.2407 -0.0501  0.1612
 1017MOL0     C40222   5.434   6.920   3.065  0.3140 -0.5380  0.0640
 1017MOL0     C40223   5.574   6.853   3.045 -0.3321 -0.6346 -0.7506
 1017MOL0     C40224   5.594   6.717   3.129  0.2390 -0.3230  0.2798
 1017MOL0     N40225   5.736   6.677   3.104  0.1863 -1.2546 -0.4330
 1017MOL0     C40226   5.853   6.732   3.150  0.0549  0.8270  0.0973
 1017MOL0     C40227   5.954   6.645   3.108  0.3810 -0.7985 -0.7017
 1017MOL0     C40228   6.100   6.671   3.121  0.2102  0.3614 -0.1711
 1017MOL0     C40229   6.163   6.732   3.248 -0.0306 -1.2882  0.5430
 1017MOL0     C40230   6.156   6.633   3.366 -0.3748  0.3761 -1.1711
 1017MOL0     C40231   6.203   6.689   3.510  0.2872  0.0595  0.1110
 1017MOL0     O40232   6.157   6.605   3.619 -0.1750  0.9400  0.1359
 1017MOL0     C40233   6.242   6.583   3.724  1.3407 -0.0095 -0.1256
 1017MOL0     C40234   6.191   6.622   3.847  0.4849 -0.5116  0.3348
 1017MOL0     C40235   6.269   6.625   3.964 -0.7007 -0.6223  0.1273
 1017MOL0     C40236   6.196   6.659   4.087 -0.1859  0.1019  0.3609
 1017MOL0     C40237   6.397   6.582   3.954 -0.6090 -0.0978 -0.2441
 1017MOL0     C40238   6.484   6.577   4.077 -0.2710  0.2666  0.5765
 1017MOL0     O40239   6.621   6.560   4.045  0.9022 -0.3323  0.1011
 1017MOL0     C40240   6.707   6.573   4.149  0.1196 -0.3834  0.2768
 1017MOL0     C40241   6.686   6.644   4.264  0.2766  0.4279 -0.4005
 1017MOL0     C40242   6.793   6.660   4.356  0.1415  0.8684  0.0161
 1017MOL0     C40243   6.908   6.583   4.354 -0.4719  1.1638  0.4980
 1017MOL0     O40244   7.002   6.587   4.460  0.7105 -0.0304 -0.3148
 1017MOL0     C40245   7.099   6.485   4.474 -0.6045  0.0385  0.3215
 1017MOL0     C40246   7.144   6.498   4.616 -0.4440 -0.1484 -0.9445
 1017MOL0     C40247   7.259   6.401   4.642 -1.2552 -0.5625  0.4003
 1017MOL0     C40248   7.362   6.477   4.738  0.2749  0.8440 -0.5352
 1017MOL0     C40249   7.423   6.379   4.844  0.2400  0.5256  0.3894
 1017MOL0     C40250   7.315   6.340   4.944  0.0262  0.0932  0.7554
 1017MOL0     C40251   7.369   6.277   5.067  0.5477  0.0596 -0.9972
 1017MOL0     C40252   7.286   6.314   5.197 -0.9004 -0.8455 -0.0711
 1017MOL0    Cl40253   7.352   6.208   5.323  0.0001  0.1647  0.5191
 1017MOL0     C40254   6.928   6.500   4.244  0.4016 -0.3967  0.0216
 1017MOL0     C40255   6.829   6.499   4.143  0.0016  0.4700  0.0981
 1017MOL0     O40256   6.430   6.570   4.188 -0.7346 -0.3095  0.0427
 1017MOL0     C40257   6.451   6.531   3.835  0.6420  0.5019  0.5539
 1017MOL0     C40258   6.371   6.534   3.723  0.0257  0.4807 -0.4288
 1017MOL0     N40259   5.895   6.549   3.031  0.1441 -0.0001  0.5574
 1017MOL0     N40260   5.766   6.571   3.036 -0.3948  0.2560  1.1197
 1017MOL0     C40261   4.898   7.702   2.868 -0.0969  0.3010  0.6448
 1017MOL0     C40262   4.766   7.723   2.820  0.2976 -0.8079 -0.2856
 1017MOL0     C40263   4.334   7.667   2.670  0.7531 -0.6482 -1.2389
 1017MOL0     C40264   4.277   7.542   2.700  0.0360 -0.8784 -0.1084
 1017MOL0     C40265   4.150   7.514   2.660 -0.0633  0.0554  0.6620
 1017MOL0     C40266   4.074   7.605   2.587 -0.4381 -0.4971  0.3701
 1017MOL0     O40267   3.956   7.570   2.527  0.1181 -0.5183  0.7218
 1017MOL0     C40268   3.926   7.609   2.386 -0.2616 -0.4762 -0.4896
 1017MOL0     C40269   3.780   7.641   2.382 -0.5592 -0.4151 -0.4281
 1017MOL0     C40270   3.719   7.624   2.241  0.6135 -0.1433 -0.2682
 1017MOL0     C40271   3.579   7.690   2.223  0.3672  0.0794 -0.0501
 1017MOL0     C40272   3.473   7.636   2.305 -0.3007  0.5903 -0.1840
 1017MOL0     C40273   3.379   7.575   2.358 -0.4166 -0.0320  0.3740
 1017MOL0     C40274   4.127   7.730   2.563  0.7436 -0.6843  0.2755
 1017MOL0     C40275   4.255   7.773   2.611 -0.0394  0.2550  0.1357
 1017MOL0     C40276   4.291   7.917   2.576 -0.4644  0.5328  0.9168
 1017MOL0     H40277   4.653   7.419   2.894 -0.2463  0.8198  1.6523
 1017MOL0     H40278   4.887   7.383   2.950  0.3529  1.0340  5.0528
 1017MOL0     H40279   5.245   7.510   2.832  1.2989 -1.6865  1.9933
 1017MOL0     H40280   5.105   7.413   2.776 -2.1491 -1.5648  1.2276
 1017MOL0     H40281   5.225   7.383   3.060  1.1956  2.0573 -1.1808
 1017MOL0     H40282   5.092   7.292   2.983 -1.9306  2.2845 -2.0975
 1017MOL0     H40283   5.283   7.223   2.810  1.8731  2.3149 -2.4942
 1017MOL0     H40284   5.397   7.300   2.930 -0.2985  0.9184  5.0678
 1017MOL0     H40285   5.312   7.175   3.112  0.4607  3.3137 -0.8169
 1017MOL0     H40286   5.219   7.065   3.009  1.8084 -1.2202  0.0547
 1017MOL0     H40287   5.516   7.109   3.016 -1.5856  2.6943 -0.3597
 1017MOL0     H40288   5.429   7.013   2.885 -1.1792  0.7504 -0.0640
 1017MOL0     H40289   5.418   6.947   3.171 -1.5833  0.0976 -0.3347
 1017MOL0     H40290   5.356   6.851   3.033 -2.0573  2.0665 -0.1962
 1017MOL0     H40291   5.634   6.932   3.091 -2.8261  1.0597 -0.1930
 1017MOL0     H40292   5.593   6.834   2.939  0.1774 -0.7669 -0.6379
 1017MOL0     H40293   5.581   6.738   3.235  2.4632  2.1929  0.1602
 1017MOL0     H40294   5.531   6.632   3.102  1.1728 -0.2858 -2.2980
 1017MOL0     H40295   5.859   6.823   3.209 -2.1603  1.3618 -0.3894
 1017MOL0     H40296   6.133   6.737   3.040 -0.6664 -1.0758 -1.7693
 1017MOL0     H40297   6.152   6.579   3.093 -1.4034 -0.3974 -0.8132
 1017MOL0     H40298   6.266   6.758   3.222 -0.8428  0.7506 -0.8822
 1017MOL0     H40299   6.121   6.828   3.280  0.0009 -0.9656 -0.3651
 1017MOL0     H40300   6.057   6.588   3.378  0.0670  0.0460  1.7497
 1017MOL0     H40301   6.222   6.550   3.338  0.6401  0.3078  1.2239
 1017MOL0     H40302   6.312   6.699   3.510  0.1247  3.2535  2.8002
 1017MOL0     H40303   6.159   6.787   3.529  0.0972 -0.2150  1.1417
 1017MOL0     H40304   6.089   6.657   3.840  1.1028  1.1736 -0.8259
 1017MOL0     H40305   6.237   6.744   4.142  1.4321  2.4596 -4.0201
 1017MOL0     H40306   6.183   6.576   4.157  2.5908 -1.5791 -0.9182
 1017MOL0     H40307   6.095   6.691   4.059 -0.5003 -2.7105 -2.2429
 1017MOL0     H40308   6.602   6.710   4.284  0.6764  0.5680  0.9324
 1017MOL0     H40309   6.779   6.720   4.446  0.0187 -0.9754  1.2907
 1017MOL0     H40310   7.054   6.385   4.480  1.0072 -0.6799  1.1653
 1017MOL0     H40311   7.179   6.498   4.401 -1.1885 -1.5218 -0.6594
 1017MOL0     H40312   7.174   6.601   4.637 -1.2602 -0.1370  0.3191
 1017MOL0     H40313   7.049   6.472   4.665 -0.0667 -2.2806 -1.2784
 1017MOL0     H40314   7.302   6.372   4.545 -1.3486 -0.5925  0.3677
 1017MOL0     H40315   7.215   6.316   4.695  2.8004 -3.5847 -0.5247
 1017MOL0     H40316   7.311   6.561   4.785 -1.1517  0.9769 -2.2046
 1017MOL0     H40317   7.445   6.514   4.676 -0.6968  1.8251 -1.2926
 1017MOL0     H40318   7.461   6.291   4.791 -1.9817 -1.6165  2.1538
 1017MOL0     H40319   7.499   6.430   4.905 -0.2295  2.0696 -0.2704
 1017MOL0     H40320   7.238   6.275   4.903  1.1007 -0.8901  0.2342
 1017MOL0     H40321   7.260   6.433   4.960 -0.0966  0.1018  0.2987
 1017MOL0     H40322   7.468   6.314   5.097 -0.3672  1.0711  1.0275
 1017MOL0     H40323   7.372   6.169   5.052  1.0259  0.2115 -2.0633
 1017MOL0     H40324   7.179   6.295   5.189 -0.6817 -1.8733 -0.6594
 1017MOL0     H40325   7.293   6.421   5.222 -0.9652 -1.0372  0.8003
 1017MOL0     H40326   7.006   6.424   4.241  2.0860  1.2497  0.6495
 1017MOL0     H40327   6.858   6.447   4.052  0.6473 -0.0005  0.5617
 1017MOL0     H40328   6.555   6.506   3.815  0.1733 -1.5839  0.4596
 1017MOL0     H40329   6.411   6.494   3.630 -2.7472 -1.7964 -0.7477
 1017MOL0     H40330   4.969   7.783   2.854  0.3696  0.0617  1.5974
 1017MOL0     H40331   4.742   7.824   2.787 -0.2951 -0.1151  2.0950
 1017MOL0     H40332   4.331   7.477   2.768 -1.3116 -0.1657  1.7200
 1017MOL0     H40333   4.111   7.414   2.674  1.1244 -0.3494  1.2505
 1017MOL0     H40334   3.981   7.700   2.363  0.4538 -0.1440  2.2398
 1017MOL0     H40335   3.960   7.531   2.316 -0.2178 -0.0810 -0.9132
 1017MOL0     H40336   3.777   7.746   2.413 -2.9277 -0.7356  0.6416
 1017MOL0     H40337   3.732   7.577   2.456  4.0733 -1.5138  1.9606
 1017MOL0     H40338   3.791   7.654   2.164  2.8411  1.9804  2.4071
 1017MOL0     H40339   3.698   7.519   2.221 -1.3619  0.4784 -1.7348
 1017MOL0     H40340   3.555   7.685   2.117 -0.0360 -1.5544  0.0857
 1017MOL0     H40341   3.575   7.797   2.243  0.0493  0.4221 -1.8245
 1017MOL0     H40342   3.310   7.519   2.417  0.5772  0.0803  1.6955
 1017MOL0     H40343   4.072   7.801   2.502  1.4086 -1.8726 -1.8295
 1017MOL0     H40344   4.344   7.921   2.480  0.5954  0.5032  1.4806
 1017MOL0     H40345   4.205   7.981   2.559 -1.5826 -1.3653 -1.0937
 1017MOL0     H40346   4.356   7.959   2.654  1.4217 -2.3826  1.1004
 1018MOL0     O40347   1.183   3.878   7.807  0.4769  0.4650  0.9831
 1018MOL0     C40348   1.109   3.828   7.724 -0.3688  0.4743 -0.0095
 1018MOL0     O40349   1.117   3.698   7.682  0.5695 -0.6576 -0.3835
 1018MOL0     C40350   1.237   3.631   7.707  0.5132  0.0111 -0.4032
 1018MOL0     C40351   1.365   3.681   7.687 -0.3013  0.3616 -0.3714
 1018MOL0     C40352   1.480   3.603   7.716 -0.7622 -0.6939 -0.4228
 1018MOL0     C40353   1.470   3.476   7.773 -0.0623 -1.0853  0.4448
 1018MOL0     O40354   1.575   3.391   7.811 -0.1271  0.0625 -0.2307
 1018MOL0     C40355   1.703   3.447   7.824 -0.7826  0.5955 -0.3178
 1018MOL0     C40356   1.796   3.323   7.820  0.5586  0.2432  0.5584
 1018MOL0     C40357   1.933   3.347   7.865  0.1755 -0.8286 -0.6332
 1018MOL0     C40358   2.027   3.224   7.853  0.3725 -0.1090  0.7520
 1018MOL0     C40359   2.155   3.254   7.929  0.1652 -0.5949 -0.1305
 1018MOL0     C40360   2.269   3.166   7.892 -0.6027 -0.2807 -0.3909
 1018MOL0     C40361   2.405   3.219   7.959  0.5719 -0.1996 -0.2332
 1018MOL0     C40362   2.518   3.117   7.929  0.8857 -0.2799  0.4604
 1018MOL0     N40363   2.648   3.151   7.988  0.0043 -0.4237 -0.4767
 1018MOL0     C40364   2.676   3.132   8.118 -0.3492 -0.9858 -0.3621
 1018MOL0     C40365   2.802   3.188   8.125  0.1716 -0.1777 -0.6033
 1018MOL0     C40366   2.868   3.195   8.251 -0.7114 -0.5107 -0.0873
 1018MOL0     C40367   2.870   3.337   8.317 -0.2834  0.1532  0.4503
 1018MOL0     C40368   2.948   3.330   8.451  0.5343  0.1922  0.0900
 1018MOL0     C40369   3.093   3.290   8.449 -0.7107  0.7823 -0.5724
 1018MOL0     O40370   3.146   3.293   8.583 -0.4923 -0.1502 -0.0306
 1018MOL0     C40371   3.282   3.279   8.603  0.4252 -0.0770  0.6788
 1018MOL0     C40372   3.368   3.219   8.513 -0.5650 -0.0753 -0.1490
 1018MOL0     C40373   3.499   3.180   8.546 -0.3573  0.1454  0.2919
 1018MOL0     C40374   3.574   3.120   8.427 -0.9886 -0.7111 -0.9640
 1018MOL0     C40375   3.545   3.203   8.678  0.4266  0.5634 -0.1169
 1018MOL0     C40376   3.685   3.155   8.728  0.3733 -0.1798  0.1913
 1018MOL0     O40377   3.756   3.057   8.662  0.9564  0.5672 -0.4442
 1018MOL0     C40378   3.887   3.028   8.707  1.0781  0.6868  0.9393
 1018MOL0     C40379   3.927   2.893   8.711 -0.3475  0.0648  1.2578
 1018MOL0     C40380   4.060   2.856   8.735 -0.2800  0.0669  0.1288
 1018MOL0     C40381   4.163   2.950   8.751  0.8016 -0.1785  0.7256
 1018MOL0     O40382   4.294   2.922   8.798  0.3348  0.4255  0.1713
 1018MOL0     C40383   4.355   2.807   8.733  0.1896  0.4382  0.3796
 1018MOL0     C40384   4.502   2.811   8.764 -0.0690 -0.3336 -1.0685
 1018MOL0     C40385   4.583   2.697   8.693 -0.6898  0.5802 -0.6211
 1018MOL0     C40386   4.748   2.713   8.713 -0.2134  0.1540 -0.6041
 1018MOL0     C40387   4.834   2.604   8.640  0.4222 -1.1523 -0.5524
 1018MOL0     C40388   4.809   2.594   8.492 -0.0525 -0.3609  0.2391
 1018MOL0     C40389   4.933   2.515   8.431  0.4432 -0.2042 -0.4484
 1018MOL0     C40390   4.906   2.487   8.285 -0.1185 -0.0567 -0.1685
 1018MOL0    Cl40391   4.802   2.347   8.280 -0.2037  0.1540  0.1175
 1018MOL0     C40392   4.126   3.081   8.747  0.4571 -1.1918  0.7240
 1018MOL0     C40393   3.988   3.128   8.728 -0.3460  0.0827 -0.2719
 1018MOL0     O40394   3.732   3.207   8.825  0.1972  0.9945 -0.2994
 1018MOL0     C40395   3.468   3.296   8.758  0.6092  0.0794 -0.3538
 1018MOL0     C40396   3.341   3.326   8.720  0.8797 -0.1243  0.1290
 1018MOL0     N40397   2.843   3.241   8.012 -0.0937 -0.3220 -0.0954
 1018MOL0     N40398   2.746   3.224   7.934 -0.3601  0.9865  0.2787
 1018MOL0     C40399   1.339   3.427   7.798 -0.5864  0.0476 -0.1033
 1018MOL0     C40400   1.223   3.495   7.759 -0.1146 -0.1169  0.0972
 1018MOL0     C40401   0.976   3.886   7.689 -0.1866 -0.1569 -0.4627
 1018MOL0     C40402   0.878   3.809   7.629 -0.4059  0.0424  0.9624
 1018MOL0     C40403   0.744   3.858   7.598 -0.8427 -0.2522  0.3590
 1018MOL0     C40404   0.733   3.997   7.605  0.6451 -0.3418  0.8121
 1018MOL0     O40405   0.616   4.047   7.549  0.4538  0.2414  0.4208
 1018MOL0     C40406   0.596   4.190   7.529 -0.4158 -0.0276 -0.2287
 1018MOL0     C40407   0.682   4.260   7.409  0.2063  0.0903  0.4775
 1018MOL0     C40408   0.702   4.410   7.429 -0.0666  0.3438 -0.3923
 1018MOL0     C40409   0.563   4.483   7.420  0.0681 -0.1513  0.4141
 1018MOL0     C40410   0.590   4.623   7.436 -1.1012 -0.1045  0.5896
 1018MOL0     C40411   0.632   4.736   7.457  0.4446  0.5769  0.1224
 1018MOL0     C40412   0.832   4.078   7.661 -0.8952 -0.1225  0.2272
 1018MOL0     C40413   0.951   4.023   7.699 -0.6850 -1.1278  0.9289
 1018MOL0     C40414   1.053   4.130   7.746 -0.1575  0.6248  0.3084
 1018MOL0     H40415   1.385   3.779   7.645  2.4478  0.1513  0.2711
 1018MOL0     H40416   1.579   3.643   7.694  0.7415 -3.7857  0.2113
 1018MOL0     H40417   1.708   3.494   7.923  3.8345 -0.8249  0.3596
 1018MOL0     H40418   1.737   3.516   7.746 -0.3892  0.4181 -0.3084
 1018MOL0     H40419   1.761   3.232   7.871  2.6347 -0.3834  0.9773
 1018MOL0     H40420   1.807   3.297   7.714  1.1235 -1.0704  0.9134
 1018MOL0     H40421   1.962   3.441   7.817  1.5982  0.2422  2.0585
 1018MOL0     H40422   1.945   3.375   7.970  1.0623  0.4938 -1.0522
 1018MOL0     H40423   1.979   3.134   7.892 -3.6277  1.3650 -0.2232
 1018MOL0     H40424   2.055   3.201   7.749  0.9228  1.0322  0.6340
 1018MOL0     H40425   2.143   3.255   8.038 -2.8689  2.8027 -0.3020
 1018MOL0     H40426   2.184   3.355   7.898 -2.2359 -0.3133 -1.7577
 1018MOL0     H40427   2.247   3.071   7.943  3.8437 -1.0907  0.4162
 1018MOL0     H40428   2.289   3.153   7.785  0.4804  2.0174 -0.5136
 1018MOL0     H40429   2.394   3.234   8.066 -1.1432 -1.3351 -0.2025
 1018MOL0     H40430   2.419   3.315   7.909 -0.1219  0.4238  0.7438
 1018MOL0     H40431   2.480   3.021   7.964 -1.2308 -0.2165 -1.4282
 1018MOL0     H40432   2.521   3.101   7.821 -2.3170 -1.5666  0.4719
 1018MOL0     H40433   2.615   3.081   8.192 -0.6392  0.2359  0.2502
 1018MOL0     H40434   2.970   3.157   8.252  0.0674  1.4936  1.0923
 1018MOL0     H40435   2.821   3.126   8.323  1.2183 -0.1211  1.6213
 1018MOL0     H40436   2.920   3.400   8.243  0.0367  0.5776  1.0168
 1018MOL0     H40437   2.771   3.380   8.333 -0.4746 -0.6965  1.7188
 1018MOL0     H40438   2.944   3.434   8.485  0.1836 -0.0144  0.7115
 1018MOL0     H40439   2.885   3.278   8.525 -0.3715  2.6606  1.1870
 1018MOL0     H40440   3.102   3.186   8.415 -0.0781  0.5169  0.3677
 1018MOL0     H40441   3.150   3.353   8.381  2.9376  0.3989  1.8350
 1018MOL0     H40442   3.332   3.206   8.411  0.4279  0.0804 -0.5287
 1018MOL0     H40443   3.672   3.164   8.408  1.1117 -4.9671 -1.1765
 1018MOL0     H40444   3.514   3.136   8.337  2.8251  2.1837 -3.3090
 1018MOL0     H40445   3.597   3.013   8.436 -0.9375 -0.7571 -1.5474
 1018MOL0     H40446   3.857   2.813   8.689 -1.8740  1.6585  0.0100
 1018MOL0     H40447   4.086   2.752   8.750  0.6156  0.4812  1.6203
 1018MOL0     H40448   4.299   2.720   8.768 -4.8882  2.9855 -0.5822
 1018MOL0     H40449   4.352   2.813   8.624  1.1866  1.2893  0.3795
 1018MOL0     H40450   4.550   2.896   8.714  1.5916 -0.5927  0.0028
 1018MOL0     H40451   4.511   2.821   8.872 -2.9552  1.7620 -0.9189
 1018MOL0     H40452   4.570   2.694   8.585  1.9760 -4.5210 -1.0980
 1018MOL0     H40453   4.546   2.602   8.732  2.6346 -0.1953  1.0222
 1018MOL0     H40454   4.780   2.709   8.817  3.3665  1.6503 -1.4771
 1018MOL0     H40455   4.782   2.813   8.684 -3.1314  1.3739 -0.1555
 1018MOL0     H40456   4.940   2.631   8.644  0.3330 -0.1387 -3.0379
 1018MOL0     H40457   4.826   2.500   8.674  2.6456 -1.3169 -0.3961
 1018MOL0     H40458   4.802   2.695   8.451  0.3140 -0.5810 -0.3732
 1018MOL0     H40459   4.719   2.538   8.468  0.3711 -0.9144 -0.0876
 1018MOL0     H40460   4.956   2.424   8.486 -1.6756 -0.0610  0.7794
 1018MOL0     H40461   5.025   2.574   8.437  0.6681 -0.6185  0.3301
 1018MOL0     H40462   4.994   2.464   8.225 -1.1270 -1.1857 -1.2773
 1018MOL0     H40463   4.871   2.578   8.236 -0.7980 -1.7821 -3.1077
 1018MOL0     H40464   4.205   3.152   8.769  0.6660 -2.0792  3.0737
 1018MOL0     H40465   3.960   3.233   8.731 -0.9016 -0.0082 -1.6353
 1018MOL0     H40466   3.502   3.323   8.857 -0.8529  2.0327 -0.3231
 1018MOL0     H40467   3.286   3.377   8.799  0.1378 -3.3017  1.8338
 1018MOL0     H40468   1.325   3.330   7.844  0.4566  0.0504  0.2479
 1018MOL0     H40469   1.127   3.445   7.775 -0.7070  0.6173 -1.0151
 1018MOL0     H40470   0.900   3.704   7.616 -0.3862  0.0209  1.1694
 1018MOL0     H40471   0.662   3.804   7.552 -2.2242  1.0659  1.1816
 1018MOL0     H40472   0.489   4.212   7.525 -0.3673  0.6980  1.4721
 1018MOL0     H40473   0.610   4.239   7.626  1.8988  0.7338 -0.8950
 1018MOL0     H40474   0.640   4.237   7.310  3.7929 -1.7186 -0.7976
 1018MOL0     H40475   0.771   4.197   7.416 -0.3739 -1.1447 -1.9721
 1018MOL0     H40476   0.758   4.426   7.522 -0.4325 -0.1493 -0.0836
 1018MOL0     H40477   0.769   4.447   7.351 -1.0560  0.9376 -0.9831
 1018MOL0     H40478   0.494   4.459   7.501 -2.5619  0.6172 -1.4417
 1018MOL0     H40479   0.521   4.452   7.323  1.1960 -0.1251 -0.1036
 1018MOL0     H40480   0.664   4.837   7.475 -1.7678  1.2886  0.3847
 1018MOL0     H40481   0.819   4.185   7.671 -3.1302 -0.5334  2.7076
 1018MOL0     H40482   1.155   4.111   7.710 -0.9299 -0.3032 -1.5108
 1018MOL0     H40483   1.027   4.229   7.709 -0.8416 -0.0351 -1.0699
 1018MOL0     H40484   1.055   4.117   7.854  0.8968 -2.2726  0.0469
 1019MOL0     O40485   6.707  11.308   4.416 -0.3316 -0.3338  1.2342
 1019MOL0     C40486   6.603  11.331   4.479 -0.2676  0.8828 -0.4297
 1019MOL0     O40487   6.599  11.328   4.612 -0.8592  0.6587 -0.1152
 1019MOL0     C40488   6.709  11.340   4.695  0.2426  1.3051 -0.2403
 1019MOL0     C40489   6.706  11.272   4.823 -0.7265 -0.3793 -0.1427
 1019MOL0     C40490   6.796  11.307   4.924 -0.5231 -0.5769  0.1738
 1019MOL0     C40491   6.905  11.393   4.883 -0.0508 -0.2526 -0.9968
 1019MOL0     O40492   7.004  11.433   4.969  0.7268  0.0359 -0.2557
 1019MOL0     C40493   7.005  11.407   5.109  0.1380  0.0232  0.4194
 1019MOL0     C40494   7.140  11.439   5.165 -0.1797 -0.4795 -0.7033
 1019MOL0     C40495   7.183  11.352   5.282  0.4071  0.2013  0.1056
 1019MOL0     C40496   7.233  11.417   5.415 -1.0562  0.2859  0.0778
 1019MOL0     C40497   7.258  11.314   5.524  0.0868  0.5720 -0.7686
 1019MOL0     C40498   7.320  11.384   5.642  0.5229  0.1982  0.9248
 1019MOL0     C40499   7.358  11.276   5.754  0.3345  0.4684 -0.4798
 1019MOL0     C40500   7.469  11.327   5.847 -0.2166  0.0142  0.4771
 1019MOL0     N40501   7.594  11.351   5.774 -0.1772  0.4921 -1.4577
 1019MOL0     C40502   7.697  11.263   5.751 -0.8973 -0.3687  0.0132
 1019MOL0     C40503   7.800  11.347   5.726 -0.6996  0.0378 -0.2975
 1019MOL0     C40504   7.943  11.308   5.688  0.4473 -0.0414  0.6277
 1019MOL0     C40505   8.002  11.408   5.583 -0.3989 -0.4021  0.3842
 1019MOL0     C40506   8.118  11.354   5.501 -0.0300 -0.5257 -0.3136
 1019MOL0     C40507   8.180  11.463   5.421  0.2387  0.0156 -0.4647
 1019MOL0     O40508   8.234  11.565   5.505 -0.1257 -0.7619 -0.1954
 1019MOL0     C40509   8.358  11.557   5.552 -0.1611  1.1792 -0.4434
 1019MOL0     C40510   8.460  11.552   5.457 -0.4658  0.2781 -0.4787
 1019MOL0     C40511   8.590  11.511   5.485  0.5856  0.8626 -0.2687
 1019MOL0     C40512   8.679  11.485   5.370  0.7099 -0.5247 -0.1136
 1019MOL0     C40513   8.624  11.477   5.619  0.2991  0.2159  1.0693
 1019MOL0     C40514   8.760  11.420   5.664 -0.3401 -0.6550  0.1019
 1019MOL0     O40515   8.848  11.376   5.570 -0.0203  0.6650 -0.3172
 1019MOL0     C40516   8.975  11.329   5.593  0.5520  0.4111  0.9405
 1019MOL0     C40517   9.054  11.397   5.688 -0.9083  0.1355 -0.3398
 1019MOL0     C40518   9.180  11.348   5.719  0.6241  0.8004  0.0658
 1019MOL0     C40519   9.232  11.233   5.650 -0.1873 -0.6011 -0.1218
 1019MOL0     O40520   9.361  11.196   5.679  0.3618  0.0744 -0.3151
 1019MOL0     C40521   9.419  11.083   5.616  0.2712 -0.9692 -0.1744
 1019MOL0     C40522   9.570  11.074   5.679 -0.8516 -0.1769  0.1507
 1019MOL0     C40523   9.662  10.981   5.596  0.7732  0.6201  0.0070
 1019MOL0     C40524   9.807  11.001   5.648  0.2261  0.3904  0.3259
 1019MOL0     C40525   9.878  11.109   5.569  0.3636 -1.2797  0.4568
 1019MOL0     C40526  10.026  11.106   5.612 -0.0229  0.2526  1.1559
 1019MOL0     C40527  10.099  10.981   5.559  0.0864 -0.1797 -0.1894
 1019MOL0     C40528  10.247  11.013   5.529 -0.2908 -0.1362  0.5721
 1019MOL0    Cl40529  10.251  11.091   5.363  0.2938 -0.5711 -0.2658
 1019MOL0     C40530   9.148  11.160   5.569 -0.3111  0.1358 -0.3612
 1019MOL0     C40531   9.020  11.205   5.540  0.1658  0.4209  0.0161
 1019MOL0     O40532   8.779  11.410   5.783 -0.2806 -0.1265  0.8345
 1019MOL0     C40533   8.536  11.494   5.719  0.4991 -0.6463 -0.7104
 1019MOL0     C40534   8.405  11.528   5.683  0.7208 -0.2725  0.4226
 1019MOL0     N40535   7.761  11.478   5.721  0.2503  0.1128 -0.4362
 1019MOL0     N40536   7.637  11.479   5.760 -0.3884  0.1078  0.1300
 1019MOL0     C40537   6.901  11.464   4.769 -0.5273  0.0199  0.2446
 1019MOL0     C40538   6.798  11.441   4.673 -0.7391 -0.3427 -1.1283
 1019MOL0     C40539   6.476  11.350   4.407 -0.2827  0.0743 -0.2758
 1019MOL0     C40540   6.349  11.330   4.474 -0.8278  0.3766 -0.5707
 1019MOL0     C40541   6.233  11.356   4.412 -0.4089  0.9081  0.0732
 1019MOL0     C40542   6.227  11.383   4.275 -0.3828  1.1703  0.5328
 1019MOL0     O40543   6.118  11.419   4.208  0.6111  0.1956 -0.1284
 1019MOL0     C40544   5.988  11.405   4.271  0.1646  0.0352  0.2335
 1019MOL0     C40545   5.875  11.437   4.171  0.0774  0.8967 -0.0589
 1019MOL0     C40546   5.750  11.354   4.195  0.3312  0.1349  0.0261
 1019MOL0     C40547   5.632  11.429   4.132 -0.3983 -0.3815  0.2467
 1019MOL0     C40548   5.513  11.346   4.169  0.0314  0.1563 -0.0965
 1019MOL0     C40549   5.409  11.284   4.191  0.5330 -0.3735 -0.1659
 1019MOL0     C40550   6.347  11.405   4.213 -0.3404 -0.3421  0.4965
 1019MOL0     C40551   6.468  11.396   4.275 -1.1729  0.5215  0.4092
 1019MOL0     C40552   6.590  11.429   4.185 -0.2945 -0.2958 -0.6619
 1019MOL0     H40553   6.616  11.213   4.841 -0.2688 -1.7129 -1.8904
 1019MOL0     H40554   6.790  11.265   5.024 -1.9678  0.0831  0.3885
 1019MOL0     H40555   6.982  11.300   5.117 -1.5806  0.3937  0.8148
 1019MOL0     H40556   6.931  11.458   5.171  1.8250 -0.6307  3.1651
 1019MOL0     H40557   7.216  11.428   5.087 -1.1773 -1.7256 -1.5364
 1019MOL0     H40558   7.144  11.544   5.197 -2.3120 -1.2612  2.5507
 1019MOL0     H40559   7.093  11.297   5.311  1.0516  0.9951  4.2527
 1019MOL0     H40560   7.257  11.278   5.249 -0.6716  0.0485 -2.1199
 1019MOL0     H40561   7.324  11.474   5.392 -1.5523  0.0213 -2.9261
 1019MOL0     H40562   7.156  11.481   5.457 -0.7168  0.3555  0.5972
 1019MOL0     H40563   7.323  11.234   5.488  0.9312  1.7419 -1.9711
 1019MOL0     H40564   7.161  11.269   5.546  1.4233 -2.2064 -0.1252
 1019MOL0     H40565   7.411  11.431   5.603  0.6469  2.5400  3.6777
 1019MOL0     H40566   7.259  11.468   5.677  1.6687  2.0764 -1.3214
 1019MOL0     H40567   7.396  11.188   5.702  0.6311 -0.0294  0.5724
 1019MOL0     H40568   7.267  11.245   5.807  0.0001 -0.3532 -1.5021
 1019MOL0     H40569   7.441  11.420   5.896 -3.0127  1.5726 -3.5772
 1019MOL0     H40570   7.489  11.248   5.921  2.3498 -0.2429 -0.3895
 1019MOL0     H40571   7.701  11.155   5.762  0.2609 -0.1198  2.8103
 1019MOL0     H40572   7.943  11.208   5.644 -1.9881 -0.0103  0.3735
 1019MOL0     H40573   8.001  11.306   5.781 -0.6809 -0.7693  1.3539
 1019MOL0     H40574   7.927  11.422   5.505  0.1467 -1.1383 -0.2895
 1019MOL0     H40575   8.032  11.494   5.643  2.0664 -0.6681 -0.3331
 1019MOL0     H40576   8.204  11.315   5.557 -0.2686  0.2035  0.5754
 1019MOL0     H40577   8.082  11.278   5.430 -1.3516 -0.2878  0.0696
 1019MOL0     H40578   8.242  11.423   5.339 -1.5582  0.3739 -2.0733
 1019MOL0     H40579   8.101  11.513   5.364  1.0629  1.3077 -0.5276
 1019MOL0     H40580   8.437  11.571   5.353  1.3464 -2.7282 -1.5515
 1019MOL0     H40581   8.765  11.553   5.368  0.1717  0.1682  0.0415
 1019MOL0     H40582   8.626  11.501   5.276  0.2450 -0.0847  0.2237
 1019MOL0     H40583   8.709  11.380   5.362  0.2646 -0.8146  1.5604
 1019MOL0     H40584   9.026  11.495   5.726 -0.9774 -0.0826  0.1796
 1019MOL0     H40585   9.233  11.397   5.801 -0.4385  0.0538  1.2312
 1019MOL0     H40586   9.358  10.993   5.625 -0.3324 -0.4869  0.6811
 1019MOL0     H40587   9.438  11.119   5.514  0.8611 -2.4680 -0.6246
 1019MOL0     H40588   9.613  11.175   5.681 -0.2468 -0.4387  1.6518
 1019MOL0     H40589   9.561  11.032   5.780 -0.2922  3.0506  1.6956
 1019MOL0     H40590   9.656  11.009   5.490 -0.7809  3.0316  0.6355
 1019MOL0     H40591   9.625  10.879   5.608  1.0410  0.5082 -0.0980
 1019MOL0     H40592   9.855  10.907   5.619 -5.5139 -1.9276 -3.6398
 1019MOL0     H40593   9.809  11.010   5.757 -0.0664 -0.1780  0.3807
 1019MOL0     H40594   9.878  11.091   5.461 -0.6706  2.5987 -0.3483
 1019MOL0     H40595   9.830  11.206   5.584 -1.2936 -2.1372  0.9296
 1019MOL0     H40596  10.032  11.109   5.721  1.8662  3.0812  1.0625
 1019MOL0     H40597  10.084  11.192   5.577  0.8615 -0.9896 -0.5863
 1019MOL0     H40598  10.047  10.953   5.467  0.0393  1.6050 -0.7423
 1019MOL0     H40599  10.090  10.903   5.635  1.5389 -1.1361 -0.9527
 1019MOL0     H40600  10.305  10.921   5.532  0.8579  0.5532  0.2456
 1019MOL0     H40601  10.295  11.082   5.599  0.1317 -0.7634  0.8980
 1019MOL0     H40602   9.164  11.062   5.524 -1.7635 -1.0694  1.5905
 1019MOL0     H40603   8.949  11.146   5.484  1.6886 -0.2387 -1.2898
 1019MOL0     H40604   8.560  11.467   5.821  0.2954 -1.7247 -0.9246
 1019MOL0     H40605   8.337  11.531   5.768 -1.2733  0.3271 -1.1144
 1019MOL0     H40606   6.987  11.524   4.743 -1.0730 -0.1807 -2.2735
 1019MOL0     H40607   6.801  11.501   4.583 -0.4399 -1.1046 -1.6322
 1019MOL0     H40608   6.348  11.299   4.578  0.8401 -2.0350 -1.2056
 1019MOL0     H40609   6.142  11.350   4.471 -1.3732 -1.8886 -1.5124
 1019MOL0     H40610   5.984  11.304   4.313  1.2263 -0.4586 -0.7948
 1019MOL0     H40611   5.988  11.477   4.354  2.9069  0.8402 -0.3601
 1019MOL0     H40612   5.910  11.420   4.069  0.0215  2.0589 -0.2823
 1019MOL0     H40613   5.842  11.540   4.186 -3.8625 -0.0728 -0.7697
 1019MOL0     H40614   5.754  11.256   4.145  0.5485 -0.0120  0.3341
 1019MOL0     H40615   5.730  11.342   4.301 -5.3727 -0.1207 -0.7769
 1019MOL0     H40616   5.649  11.419   4.025 -1.4524 -2.3004  0.1987
 1019MOL0     H40617   5.618  11.530   4.171 -0.7446 -0.5150  0.4764
 1019MOL0     H40618   5.316  11.237   4.215 -0.2785  1.5985  0.7908
 1019MOL0     H40619   6.344  11.429   4.107 -0.6331 -1.2552  0.2905
 1019MOL0     H40620   6.641  11.341   4.146 -3.2895 -2.4201 -0.0805
 1019MOL0     H40621   6.563  11.484   4.095  0.9394 -2.7639 -2.6478
 1019MOL0     H40622   6.660  11.489   4.245 -0.8655  2.3051 -2.4292
 1020MOL0     O40623   4.004   8.008   8.113  0.2806  0.8602  0.6167
 1020MOL0     C40624   4.023   7.926   8.202 -0.6089  0.3353 -0.3547
 1020MOL0     O40625   3.940   7.830   8.235 -0.1841 -0.5784  0.0757
 1020MOL0     C40626   3.812   7.846   8.179 -0.8663  0.1763 -1.0122
 1020MOL0     C40627   3.723   7.958   8.200 -0.4159  1.2179  0.4053
 1020MOL0     C40628   3.610   7.968   8.114 -0.3681 -0.1869 -0.0128
 1020MOL0     C40629   3.580   7.871   8.010  0.1886  0.1571 -0.3429
 1020MOL0     O40630   3.469   7.880   7.931 -0.1557 -0.8648  0.2278
 1020MOL0     C40631   3.357   7.963   7.961 -0.5303 -0.2911  0.7470
 1020MOL0     C40632   3.385   8.107   7.907  0.5679  0.1999  0.5234
 1020MOL0     C40633   3.338   8.110   7.755  0.7753  0.8013 -0.4771
 1020MOL0     C40634   3.390   8.227   7.674 -0.6517  0.2098 -0.0581
 1020MOL0     C40635   3.380   8.364   7.719 -0.3584  0.4687 -1.1139
 1020MOL0     C40636   3.437   8.466   7.614 -0.4665  0.9473  0.4434
 1020MOL0     C40637   3.352   8.489   7.488  0.0532 -0.2564  0.3682
 1020MOL0     C40638   3.415   8.576   7.378 -0.6202 -0.1139  0.1610
 1020MOL0     N40639   3.421   8.714   7.420  0.5420 -0.9310 -0.4747
 1020MOL0     C40640   3.346   8.828   7.362 -0.2265 -0.4236 -0.1952
 1020MOL0     C40641   3.410   8.935   7.407  0.7346 -1.3773 -0.1864
 1020MOL0     C40642   3.382   9.082   7.367 -0.8674  0.0505  0.2701
 1020MOL0     C40643   3.483   9.122   7.256 -1.1119 -0.1734 -0.2261
 1020MOL0     C40644   3.476   9.274   7.226 -1.3250 -0.3554  0.7151
 1020MOL0     C40645   3.585   9.302   7.122 -0.2183 -0.1060  0.2109
 1020MOL0     O40646   3.717   9.293   7.184 -0.3514  0.2307 -0.7910
 1020MOL0     C40647   3.827   9.347   7.111  0.3418  0.4521  0.1633
 1020MOL0     C40648   3.943   9.336   7.177 -0.1340  0.7491 -0.3074
 1020MOL0     C40649   4.057   9.402   7.134 -0.4531  0.1734  0.1430
 1020MOL0     C40650   4.180   9.384   7.223 -0.3699  0.4507  0.0371
 1020MOL0     C40651   4.046   9.480   7.009 -0.1235 -0.1436 -0.2589
 1020MOL0     C40652   4.175   9.521   6.940  0.2146  0.7414  1.3311
 1020MOL0     O40653   4.178   9.642   6.874  0.5399  0.2320  0.9208
 1020MOL0     C40654   4.307   9.691   6.840  0.5696 -0.6151  0.1775
 1020MOL0     C40655   4.372   9.642   6.731  0.2018 -0.8794  0.3822
 1020MOL0     C40656   4.512   9.670   6.710 -0.1696 -0.0067  0.9505
 1020MOL0     C40657   4.572   9.768   6.797  0.0016 -0.2788  0.1405
 1020MOL0     O40658   4.707   9.803   6.791  0.0068  0.2225  0.6046
 1020MOL0     C40659   4.803   9.696   6.786  0.0264 -0.3412 -0.1406
 1020MOL0     C40660   4.947   9.738   6.773  0.9303 -0.1912  0.6107
 1020MOL0     C40661   4.998   9.835   6.886  0.7020  0.1047  0.0597
 1020MOL0     C40662   4.938   9.792   7.022  0.7024  0.5345  0.0155
 1020MOL0     C40663   4.991   9.873   7.133 -0.2813  0.6165  0.2031
 1020MOL0     C40664   4.994  10.027   7.118 -0.0714  0.5091  0.5912
 1020MOL0     C40665   4.856  10.085   7.103  0.1277  0.2871 -0.1817
 1020MOL0     C40666   4.860  10.238   7.077  0.2760  0.5594  0.7338
 1020MOL0    Cl40667   4.697  10.294   7.037 -0.3699 -0.0295 -0.2145
 1020MOL0     C40668   4.495   9.808   6.912 -0.1558  0.2721 -0.7455
 1020MOL0     C40669   4.367   9.767   6.933  0.4173 -0.3514 -0.4436
 1020MOL0     O40670   4.265   9.439   6.932  0.0119 -0.7401 -0.7854
 1020MOL0     C40671   3.924   9.493   6.939 -0.4715  0.3357  0.3873
 1020MOL0     C40672   3.818   9.429   6.992  0.5129  0.6312 -0.0009
 1020MOL0     N40673   3.507   8.899   7.502  0.7684  0.0881 -0.0174
 1020MOL0     N40674   3.515   8.768   7.507  0.3332 -0.4187  0.2164
 1020MOL0     C40675   3.663   7.756   8.006  0.0304 -1.3436  0.2617
 1020MOL0     C40676   3.777   7.753   8.087 -0.7258 -0.3120 -0.4882
 1020MOL0     C40677   4.157   7.919   8.263  0.4435  0.2711 -0.0301
 1020MOL0     C40678   4.205   7.799   8.318  0.2003 -0.4593  0.2800
 1020MOL0     C40679   4.328   7.773   8.361  0.2385  1.1752  0.5451
 1020MOL0     C40680   4.426   7.864   8.345 -0.1858 -0.6161  0.9365
 1020MOL0     O40681   4.557   7.825   8.391 -0.0799 -0.7027 -0.4118
 1020MOL0     C40682   4.669   7.907   8.369  0.7416  0.5976 -0.6193
 1020MOL0     C40683   4.775   7.846   8.456  1.3201  0.0549  0.4852
 1020MOL0     C40684   4.901   7.938   8.450 -0.2387 -0.0813 -0.0442
 1020MOL0     C40685   4.988   7.938   8.326 -0.0772 -0.7164  0.4613
 1020MOL0     C40686   5.031   7.810   8.281 -0.6452  0.7611 -0.0603
 1020MOL0     C40687   5.082   7.701   8.246 -0.1528 -0.6955 -0.8916
 1020MOL0     C40688   4.394   7.988   8.281 -0.7241  0.8178 -0.9951
 1020MOL0     C40689   4.258   8.010   8.245  0.3898 -0.6942  0.1042
 1020MOL0     C40690   4.228   8.151   8.207 -0.0442 -0.2902  0.6589
 1020MOL0     H40691   3.732   8.039   8.272  0.0980  0.6612  0.9891
 1020MOL0     H40692   3.540   8.051   8.122  0.3240  0.3667  0.4457
 1020MOL0     H40693   3.347   7.978   8.069  0.1927  0.9742  0.6605
 1020MOL0     H40694   3.258   7.929   7.931 -0.1475 -1.6156  0.9118
 1020MOL0     H40695   3.335   8.189   7.959 -0.7125 -2.0924  3.1345
 1020MOL0     H40696   3.492   8.129   7.905  0.6161  0.0137  0.9744
 1020MOL0     H40697   3.375   8.021   7.703  2.3474  0.0681  1.7613
 1020MOL0     H40698   3.230   8.092   7.755  1.1067 -1.5507 -1.0034
 1020MOL0     H40699   3.496   8.207   7.659  0.5379  4.0647  1.8623
 1020MOL0     H40700   3.342   8.226   7.576  0.2764  0.7869 -0.5343
 1020MOL0     H40701   3.434   8.372   7.814 -1.4132 -1.4392 -0.2909
 1020MOL0     H40702   3.274   8.378   7.742 -0.6329 -2.3199 -0.2451
 1020MOL0     H40703   3.467   8.563   7.656  1.9059  0.2145  0.5895
 1020MOL0     H40704   3.529   8.424   7.573 -0.6547  2.9180 -2.3110
 1020MOL0     H40705   3.266   8.555   7.507 -0.3272  0.1802 -2.4162
 1020MOL0     H40706   3.325   8.395   7.438  0.4689  0.1103 -0.5689
 1020MOL0     H40707   3.519   8.549   7.359  0.7274  1.8449  3.7638
 1020MOL0     H40708   3.357   8.557   7.287  0.0590 -0.3608 -0.2257
 1020MOL0     H40709   3.268   8.828   7.286 -0.9996  0.4113  0.5788
 1020MOL0     H40710   3.395   9.141   7.459  2.8498 -3.0203  1.9753
 1020MOL0     H40711   3.281   9.089   7.327 -0.7471  2.0097  0.1849
 1020MOL0     H40712   3.586   9.098   7.286 -1.0981 -0.0829 -0.2014
 1020MOL0     H40713   3.459   9.065   7.165  0.6449 -1.2666 -0.0563
 1020MOL0     H40714   3.375   9.280   7.183 -0.6234 -3.4469 -1.8288
 1020MOL0     H40715   3.485   9.342   7.311 -2.1123  1.4294 -0.5761
 1020MOL0     H40716   3.575   9.244   7.030 -2.8732 -0.3045  0.5309
 1020MOL0     H40717   3.570   9.408   7.098  1.4525  0.5106  1.6798
 1020MOL0     H40718   3.943   9.279   7.269  2.5821  2.7451  1.0602
 1020MOL0     H40719   4.264   9.447   7.193  1.4229 -1.2815  1.1335
 1020MOL0     H40720   4.214   9.281   7.210 -1.4021  0.1313 -0.2040
 1020MOL0     H40721   4.161   9.391   7.330 -0.2271 -1.3226  0.2140
 1020MOL0     H40722   4.318   9.584   6.657  0.4397 -1.3869  0.5977
 1020MOL0     H40723   4.565   9.628   6.625  0.7114 -0.0171  1.4884
 1020MOL0     H40724   4.797   9.624   6.868  0.8570 -0.3568 -0.0810
 1020MOL0     H40725   4.783   9.640   6.695 -1.5740  1.2168 -0.7948
 1020MOL0     H40726   5.007   9.646   6.777  0.6514 -0.4098 -0.1733
 1020MOL0     H40727   4.961   9.773   6.671  0.3129 -1.6315  0.0106
 1020MOL0     H40728   4.977   9.939   6.857 -0.7101 -1.0563 -3.8071
 1020MOL0     H40729   5.105   9.816   6.877  0.4545 -0.5277 -2.6142
 1020MOL0     H40730   4.953   9.685   7.042 -5.3605 -0.6523  0.2683
 1020MOL0     H40731   4.828   9.796   7.027  0.6588  0.9156 -1.1523
 1020MOL0     H40732   4.933   9.860   7.225 -1.3954 -2.5194 -0.8106
 1020MOL0     H40733   5.093   9.842   7.156 -0.9233 -1.0337  1.0272
 1020MOL0     H40734   5.052  10.051   7.028 -0.4455  0.8144  0.4303
 1020MOL0     H40735   5.054  10.076   7.196  0.8410  1.3723 -0.6030
 1020MOL0     H40736   4.789  10.060   7.187 -1.2204 -0.0238 -1.3064
 1020MOL0     H40737   4.815  10.033   7.016  1.4134 -1.8132  0.4178
 1020MOL0     H40738   4.923  10.254   6.989 -2.8232  2.8930 -1.2814
 1020MOL0     H40739   4.890  10.283   7.172  0.7311 -0.9559  1.3249
 1020MOL0     H40740   4.539   9.863   6.994 -2.6460  1.0044  0.1677
 1020MOL0     H40741   4.323   9.792   7.029  0.0956  3.6076 -1.4646
 1020MOL0     H40742   3.921   9.567   6.860 -2.6369  1.1453  1.1569
 1020MOL0     H40743   3.729   9.424   6.929  1.5939  1.7713 -1.6953
 1020MOL0     H40744   3.634   7.685   7.929  0.8102 -1.0208 -0.3486
 1020MOL0     H40745   3.854   7.679   8.066  2.1334  2.2417  0.2522
 1020MOL0     H40746   4.130   7.722   8.334 -0.3632  0.3455  1.7087
 1020MOL0     H40747   4.351   7.669   8.384 -0.4302  0.0870 -2.9543
 1020MOL0     H40748   4.693   7.908   8.262  0.9511  3.7474 -0.6322
 1020MOL0     H40749   4.633   8.006   8.397 -2.8083 -0.3331 -1.3720
 1020MOL0     H40750   4.796   7.744   8.424  0.6241 -0.3810  1.3835
 1020MOL0     H40751   4.734   7.849   8.557  1.4769  1.1307  0.5326
 1020MOL0     H40752   4.858   8.038   8.455 -0.0854  0.1685 -2.5353
 1020MOL0     H40753   4.949   7.912   8.544 -1.5708  1.4403  1.1128
 1020MOL0     H40754   5.081   7.992   8.348 -0.2979  0.5243 -1.4284
 1020MOL0     H40755   4.943   7.996   8.245 -0.9961  0.6929  1.9120
 1020MOL0     H40756   5.132   7.609   8.224  0.3156 -0.1496 -2.2438
 1020MOL0     H40757   4.469   8.066   8.272  1.1628 -0.3753  2.3713
 1020MOL0     H40758   4.132   8.187   8.245 -0.0652  2.1273 -1.4670
 1020MOL0     H40759   4.299   8.228   8.236  0.8216  1.3826 -4.7911
 1020MOL0     H40760   4.214   8.173   8.101  3.7374  0.9078  0.2727
 1021MOL0     O40761   5.741   1.779   1.407  0.4777 -0.9249  0.0587
 1021MOL0     C40762   5.768   1.748   1.520  0.7571  0.5884 -0.1033
 1021MOL0     O40763   5.891   1.719   1.570  0.5397  0.3011  0.1265
 1021MOL0     C40764   5.994   1.729   1.482  0.3880 -0.5410 -0.2996
 1021MOL0     C40765   6.016   1.623   1.400 -0.1694  0.6074  0.1586
 1021MOL0     C40766   6.123   1.613   1.313  0.0253  0.0244 -0.0392
 1021MOL0     C40767   6.211   1.720   1.300 -0.2028 -0.3411  0.2716
 1021MOL0     O40768   6.318   1.711   1.217 -0.5042  0.5764 -0.3257
 1021MOL0     C40769   6.437   1.789   1.243 -0.1303 -0.3958 -0.0264
 1021MOL0     C40770   6.552   1.736   1.152  0.1979  0.0141 -0.5540
 1021MOL0     C40771   6.559   1.799   1.018 -0.1944  1.1667  0.0761
 1021MOL0     C40772   6.664   1.728   0.936  0.3773  0.1513 -0.2201
 1021MOL0     C40773   6.689   1.796   0.804  0.3457  0.1941  0.1678
 1021MOL0     C40774   6.565   1.809   0.707  0.4060  0.1168 -0.4463
 1021MOL0     C40775   6.610   1.873   0.582  0.8293  0.3097 -0.0064
 1021MOL0     C40776   6.495   1.881   0.475  0.0842 -0.8087  0.0044
 1021MOL0     N40777   6.550   1.966   0.369 -0.6026 -0.0587 -0.1602
 1021MOL0     C40778   6.602   2.094   0.386 -0.2345  0.7705  0.0371
 1021MOL0     C40779   6.608   2.141   0.263 -0.1571  0.4487 -0.2095
 1021MOL0     C40780   6.663   2.285   0.235 -0.3922  0.5715 -1.3946
 1021MOL0     C40781   6.764   2.300   0.121  0.4208  0.1448 -0.5614
 1021MOL0     C40782   6.834   2.430   0.132 -0.8707 -0.5422 -0.0472
 1021MOL0     C40783   6.925   2.457   0.009  0.7443  0.7823  0.1473
 1021MOL0     O40784   7.035   2.358   0.030  0.0637 -0.1103  0.6948
 1021MOL0     C40785   7.147   2.403   0.100  0.1495  1.0480 -0.1039
 1021MOL0     C40786   7.218   2.514   0.057  0.2381  0.1432 -0.3987
 1021MOL0     C40787   7.338   2.550   0.122  0.2890  1.0246 -0.1733
 1021MOL0     C40788   7.422   2.667   0.071  0.4113  0.6607  0.3898
 1021MOL0     C40789   7.387   2.477   0.234 -0.6603 -0.9028 -1.8997
 1021MOL0     C40790   7.516   2.505   0.306  0.5410 -0.8914  0.1497
 1021MOL0     O40791   7.504   2.519   0.445 -0.0575 -0.1051 -0.5372
 1021MOL0     C40792   7.619   2.484   0.509 -0.6266  0.0287 -0.3415
 1021MOL0     C40793   7.661   2.346   0.534 -0.3251  0.1528  0.5325
 1021MOL0     C40794   7.786   2.330   0.603 -0.4922 -0.0702  0.2629
 1021MOL0     C40795   7.848   2.431   0.668 -0.0299  0.0485 -0.4175
 1021MOL0     O40796   7.955   2.408   0.752 -0.9714  0.1281 -0.3394
 1021MOL0     C40797   8.037   2.288   0.741  0.3224 -0.6115 -0.2980
 1021MOL0     C40798   8.170   2.305   0.819 -0.3367  0.2858 -0.1063
 1021MOL0     C40799   8.267   2.177   0.817  0.1805  1.1145 -0.0251
 1021MOL0     C40800   8.405   2.223   0.857 -0.3681  0.5210  0.6191
 1021MOL0     C40801   8.508   2.109   0.839  0.4182 -0.0896 -0.3883
 1021MOL0     C40802   8.640   2.163   0.889 -0.4163 -0.4438 -0.6057
 1021MOL0     C40803   8.763   2.074   0.843  0.5503 -0.2693 -0.1429
 1021MOL0     C40804   8.901   2.112   0.916 -0.0992  0.9161  0.9843
 1021MOL0    Cl40805   8.989   2.250   0.860 -0.2560  0.0935 -0.3755
 1021MOL0     C40806   7.793   2.559   0.657 -0.4482  1.2249  0.5653
 1021MOL0     C40807   7.677   2.592   0.585 -0.4925  0.3560 -0.2322
 1021MOL0     O40808   7.617   2.540   0.246 -0.1198 -0.1094  0.7151
 1021MOL0     C40809   7.317   2.365   0.276  1.0556 -0.3924  0.0355
 1021MOL0     C40810   7.204   2.328   0.201 -0.0469 -0.1889 -0.3373
 1021MOL0     N40811   6.586   2.044   0.172  0.6764  0.3872  0.4385
 1021MOL0     N40812   6.546   1.940   0.238  0.5602  0.1020 -0.2032
 1021MOL0     C40813   6.190   1.833   1.380  0.4548 -0.3349  0.0226
 1021MOL0     C40814   6.084   1.837   1.474 -0.8501  0.6971 -0.5476
 1021MOL0     C40815   5.654   1.764   1.618 -0.8483  0.0132 -0.5608
 1021MOL0     C40816   5.685   1.805   1.745  0.0456  1.7313 -0.7031
 1021MOL0     C40817   5.595   1.806   1.848  0.1153  0.1006  0.5621
 1021MOL0     C40818   5.461   1.782   1.832  0.3095  0.3913 -0.8007
 1021MOL0     O40819   5.376   1.794   1.943 -0.1292  0.0829  0.2034
 1021MOL0     C40820   5.237   1.796   1.931  0.3784 -0.1029  0.6001
 1021MOL0     C40821   5.190   1.918   1.853 -0.1977  0.2596 -0.0924
 1021MOL0     C40822   5.210   2.043   1.934  0.3772 -0.1772 -0.3545
 1021MOL0     C40823   5.150   2.171   1.884 -1.0232 -0.2787 -0.2145
 1021MOL0     C40824   5.209   2.281   1.959  0.6148  0.3191  0.5759
 1021MOL0     C40825   5.263   2.377   2.000 -0.7925  0.6083 -0.1513
 1021MOL0     C40826   5.425   1.740   1.707  0.7369 -0.1535 -0.3109
 1021MOL0     C40827   5.518   1.722   1.602  0.0713  0.2973  0.8850
 1021MOL0     C40828   5.464   1.664   1.473  0.3183  0.4054  0.3425
 1021MOL0     H40829   5.966   1.529   1.422  1.8070 -0.4973  0.1941
 1021MOL0     H40830   6.131   1.524   1.251 -2.1116  1.2757 -2.2931
 1021MOL0     H40831   6.464   1.772   1.348 -1.0743 -1.8221  0.0041
 1021MOL0     H40832   6.428   1.897   1.224  0.7837 -0.6213 -1.9273
 1021MOL0     H40833   6.647   1.756   1.203 -1.7582  1.2530  2.9051
 1021MOL0     H40834   6.539   1.628   1.156 -0.3789  0.0817 -0.5256
 1021MOL0     H40835   6.463   1.781   0.969  0.6130  2.0906 -1.9424
 1021MOL0     H40836   6.573   1.904   1.044 -2.8165  2.2198 -2.2810
 1021MOL0     H40837   6.755   1.716   0.995  1.6337 -1.0903 -2.2952
 1021MOL0     H40838   6.633   1.624   0.921  0.1310  0.2280 -0.2473
 1021MOL0     H40839   6.771   1.747   0.751 -0.0659 -0.0540 -0.2503
 1021MOL0     H40840   6.721   1.898   0.825 -0.2646  0.5551 -0.5781
 1021MOL0     H40841   6.527   1.708   0.685 -2.0988  0.8972  0.0266
 1021MOL0     H40842   6.478   1.864   0.745 -1.9723 -1.8580 -2.6000
 1021MOL0     H40843   6.695   1.810   0.554 -0.6466 -1.4560 -0.7661
 1021MOL0     H40844   6.649   1.972   0.606  2.5211  0.3252 -2.5060
 1021MOL0     H40845   6.462   1.787   0.430 -1.5342  0.6638 -2.0946
 1021MOL0     H40846   6.406   1.928   0.519 -0.1730 -0.7785 -0.5377
 1021MOL0     H40847   6.616   2.147   0.480 -3.9189  0.3778  0.9659
 1021MOL0     H40848   6.706   2.321   0.329 -0.9795 -0.7905 -0.5574
 1021MOL0     H40849   6.574   2.343   0.210 -0.3285  0.1692 -2.6091
 1021MOL0     H40850   6.836   2.219   0.133 -0.8499 -1.3194 -2.2475
 1021MOL0     H40851   6.710   2.287   0.027  2.6429 -0.1616 -1.8390
 1021MOL0     H40852   6.760   2.511   0.142 -0.7603 -0.7684  3.7603
 1021MOL0     H40853   6.892   2.431   0.224 -1.4124  0.3949  0.2982
 1021MOL0     H40854   6.864   2.439  -0.080  0.9635  2.2195 -0.3177
 1021MOL0     H40855   6.958   2.560  -0.004 -2.2323  2.0148  1.5148
 1021MOL0     H40856   7.191   2.563  -0.035 -0.3503 -0.4207 -0.5401
 1021MOL0     H40857   7.361   2.725   0.001 -1.0519  0.7292  1.6440
 1021MOL0     H40858   7.519   2.637   0.032  2.0921  3.6174  1.9304
 1021MOL0     H40859   7.446   2.735   0.153 -2.1237  1.2956  0.7102
 1021MOL0     H40860   7.612   2.266   0.480 -3.8296  1.8002  1.0110
 1021MOL0     H40861   7.820   2.228   0.617 -2.5055 -0.9209 -0.6679
 1021MOL0     H40862   7.966   2.208   0.766  0.1686 -0.9557 -1.7100
 1021MOL0     H40863   8.070   2.274   0.637 -3.2993 -1.8274 -1.4610
 1021MOL0     H40864   8.211   2.395   0.772  0.2746 -0.0142 -0.1523
 1021MOL0     H40865   8.157   2.332   0.924 -0.4313  0.4096 -0.1504
 1021MOL0     H40866   8.271   2.133   0.717 -1.6120  2.5562 -0.8026
 1021MOL0     H40867   8.232   2.105   0.891 -0.2929  3.5190  2.2264
 1021MOL0     H40868   8.394   2.239   0.964 -0.1163  2.1596  0.4220
 1021MOL0     H40869   8.440   2.313   0.806  6.3095 -2.9963 -2.2323
 1021MOL0     H40870   8.468   2.023   0.893  1.1794 -1.9521 -2.6398
 1021MOL0     H40871   8.516   2.084   0.733  0.3194  1.7359 -0.8579
 1021MOL0     H40872   8.636   2.156   0.998 -0.3372 -0.4633 -0.6040
 1021MOL0     H40873   8.662   2.262   0.849 -0.1340 -0.7602 -1.2420
 1021MOL0     H40874   8.765   2.092   0.735 -1.6089  1.6213  0.0559
 1021MOL0     H40875   8.734   1.970   0.861  2.3950 -0.4537  2.2141
 1021MOL0     H40876   8.956   2.017   0.918 -0.5826  0.6073  0.2234
 1021MOL0     H40877   8.886   2.128   1.023 -2.1551 -0.1883  0.9019
 1021MOL0     H40878   7.832   2.634   0.724 -3.9999  2.7028  1.2168
 1021MOL0     H40879   7.636   2.693   0.580 -1.8265 -0.2189 -3.1821
 1021MOL0     H40880   7.357   2.292   0.346  2.8385  0.7096  0.2293
 1021MOL0     H40881   7.150   2.234   0.203  2.1499 -1.5147 -0.3451
 1021MOL0     H40882   6.261   1.915   1.370  2.5467 -1.3594  4.1665
 1021MOL0     H40883   6.081   1.919   1.545 -3.3284 -0.6692  1.0871
 1021MOL0     H40884   5.789   1.826   1.766 -0.0457  0.4776  1.2504
 1021MOL0     H40885   5.626   1.821   1.951 -2.5316 -1.3169  1.6517
 1021MOL0     H40886   5.204   1.702   1.886  1.2559 -0.5440  0.8632
 1021MOL0     H40887   5.197   1.789   2.032 -5.9885  1.5875 -1.3558
 1021MOL0     H40888   5.083   1.919   1.828 -0.0223  1.4418 -0.8743
 1021MOL0     H40889   5.243   1.926   1.758  1.6039  0.1123  0.8608
 1021MOL0     H40890   5.193   2.032   2.042  1.0057 -1.6934 -0.3828
 1021MOL0     H40891   5.319   2.055   1.927  0.4371 -0.5562 -0.1490
 1021MOL0     H40892   5.044   2.171   1.912 -1.1792  1.8922 -0.6117
 1021MOL0     H40893   5.164   2.178   1.776  0.7408 -0.8018 -0.0528
 1021MOL0     H40894   5.305   2.464   2.046  1.4271 -0.2613 -0.4198
 1021MOL0     H40895   5.319   1.726   1.685  0.8493  0.0572 -1.0030
 1021MOL0     H40896   5.423   1.738   1.404  1.2690 -0.5714 -1.3382
 1021MOL0     H40897   5.540   1.607   1.418 -0.9596 -0.7400 -0.2934
 1021MOL0     H40898   5.385   1.592   1.495  0.5198 -1.1627 -3.3689
 1022MOL0     O40899   6.789   4.293   6.373  0.5081  0.1291 -0.2322
 1022MOL0     C40900   6.685   4.320   6.435 -0.2834 -1.1924  0.1177
 1022MOL0     O40901   6.672   4.329   6.567  0.3675  0.2657 -0.2282
 1022MOL0     C40902   6.787   4.332   6.652 -0.1070  0.1791  1.0251
 1022MOL0     C40903   6.901   4.412   6.617  0.7541 -0.2009 -0.3128
 1022MOL0     C40904   7.010   4.417   6.706  0.2593  0.0605 -0.6685
 1022MOL0     C40905   6.999   4.350   6.831  0.4612  1.2090 -0.3502
 1022MOL0     O40906   7.099   4.343   6.930 -0.0766  0.0901 -0.9715
 1022MOL0     C40907   7.142   4.474   6.980  0.0099  0.4373  0.0672
 1022MOL0     C40908   7.085   4.509   7.115  0.5789 -0.3171 -0.2935
 1022MOL0     C40909   6.940   4.563   7.108  0.8028 -0.6914 -0.0496
 1022MOL0     C40910   6.841   4.483   7.211 -1.0566 -0.6686  0.6243
 1022MOL0     C40911   6.701   4.535   7.227 -0.4322  0.8887 -0.2270
 1022MOL0     C40912   6.627   4.548   7.095  0.5967 -0.2222  0.5491
 1022MOL0     C40913   6.483   4.606   7.112  0.2429  0.1872 -0.2278
 1022MOL0     C40914   6.409   4.616   6.980 -0.3532  0.4113  0.4369
 1022MOL0     N40915   6.493   4.692   6.885  0.2992  0.0024 -0.0589
 1022MOL0     C40916   6.564   4.806   6.909  0.1343  1.1188  0.1564
 1022MOL0     C40917   6.635   4.834   6.793 -0.0653  0.5349  0.1840
 1022MOL0     C40918   6.734   4.947   6.772 -0.5835 -1.0142  0.0765
 1022MOL0     C40919   6.876   4.884   6.731  0.2929 -0.7110  0.2716
 1022MOL0     C40920   6.963   4.811   6.833 -0.4188 -0.1167  0.0864
 1022MOL0     C40921   7.019   4.900   6.938 -0.4043 -0.1156 -0.1340
 1022MOL0     O40922   6.909   4.955   7.021 -0.0966 -0.0255  0.4193
 1022MOL0     C40923   6.941   5.030   7.129 -0.4571  0.7890 -0.4021
 1022MOL0     C40924   6.836   5.057   7.213  0.1811  0.2711 -0.1840
 1022MOL0     C40925   6.860   5.127   7.338 -0.4301  0.1545 -0.4689
 1022MOL0     C40926   6.730   5.148   7.416  0.7858  0.2835  0.2043
 1022MOL0     C40927   6.988   5.176   7.376  0.0932  0.6085  0.0403
 1022MOL0     C40928   7.017   5.239   7.504 -0.4680 -0.1440  1.0418
 1022MOL0     O40929   7.136   5.219   7.567  0.3796 -0.4502  0.8516
 1022MOL0     C40930   7.178   5.236   7.697  0.3692  0.5594 -0.0141
 1022MOL0     C40931   7.100   5.279   7.799 -0.5177  0.3717 -0.3765
 1022MOL0     C40932   7.158   5.285   7.932  0.4235 -0.2308  0.3005
 1022MOL0     C40933   7.293   5.257   7.952  0.3170 -0.7217  0.0225
 1022MOL0     O40934   7.358   5.265   8.074 -0.1519  0.1443  0.1156
 1022MOL0     C40935   7.335   5.145   8.153  0.7101  0.4254  0.3448
 1022MOL0     C40936   7.404   5.153   8.293  0.2987 -1.0830  0.7648
 1022MOL0     C40937   7.387   5.285   8.362 -0.3588  0.3306 -0.2120
 1022MOL0     C40938   7.485   5.301   8.478  1.1529 -0.1979  0.3219
 1022MOL0     C40939   7.434   5.258   8.615  0.5163 -0.3270  0.3257
 1022MOL0     C40940   7.541   5.259   8.724  0.5955 -0.5195  0.5576
 1022MOL0     C40941   7.468   5.240   8.859 -0.0774  0.9477 -0.7894
 1022MOL0     C40942   7.401   5.374   8.903  0.6633  0.7229  0.5091
 1022MOL0    Cl40943   7.360   5.380   9.079 -0.0896  0.6243 -0.4174
 1022MOL0     C40944   7.371   5.216   7.848  0.2128 -0.6810  0.0607
 1022MOL0     C40945   7.319   5.213   7.714 -0.6096  0.3949 -1.0770
 1022MOL0     O40946   6.935   5.326   7.534  0.1744  0.3972  0.3433
 1022MOL0     C40947   7.088   5.139   7.287 -1.0376  0.1741  0.3746
 1022MOL0     C40948   7.071   5.063   7.165  1.0061 -0.8413  0.6352
 1022MOL0     N40949   6.581   4.749   6.701  0.0495  0.3255  0.8068
 1022MOL0     N40950   6.500   4.665   6.755  0.3524 -0.4587  0.7930
 1022MOL0     C40951   6.899   4.262   6.856 -0.0957  0.5395 -0.0575
 1022MOL0     C40952   6.793   4.258   6.767 -0.1661 -0.0514  0.4548
 1022MOL0     C40953   6.568   4.330   6.337  0.8803 -0.0827 -0.1845
 1022MOL0     C40954   6.561   4.246   6.224 -0.1917  0.0796 -0.2459
 1022MOL0     C40955   6.441   4.249   6.149  1.2391  0.8258 -0.1572
 1022MOL0     C40956   6.332   4.331   6.184  0.5398 -1.2209  0.4550
 1022MOL0     O40957   6.208   4.321   6.116 -0.2621  0.5253  0.3072
 1022MOL0     C40958   6.208   4.365   5.979  0.0638  1.3231  0.3509
 1022MOL0     C40959   6.192   4.519   5.979 -0.5659  0.0607 -0.2269
 1022MOL0     C40960   6.186   4.571   5.834 -0.0877  0.1575  0.6831
 1022MOL0     C40961   6.212   4.730   5.824  0.8875  0.9930 -0.1215
 1022MOL0     C40962   6.228   4.778   5.685 -0.8943  0.3714 -0.1462
 1022MOL0     C40963   6.234   4.837   5.577  0.1055  0.1931 -0.0412
 1022MOL0     C40964   6.348   4.424   6.285  0.5422 -0.6605  0.0051
 1022MOL0     C40965   6.461   4.418   6.364 -1.0739  0.3489  0.5082
 1022MOL0     C40966   6.473   4.524   6.470  0.2220 -0.0102 -0.3867
 1022MOL0     H40967   6.896   4.473   6.527  0.6544  1.1236  0.5626
 1022MOL0     H40968   7.088   4.489   6.682 -1.1810  1.1944 -2.2473
 1022MOL0     H40969   7.122   4.545   6.900  0.0688 -0.2303 -0.5461
 1022MOL0     H40970   7.250   4.460   6.985 -0.2282 -1.5090  1.0576
 1022MOL0     H40971   7.094   4.423   7.183  4.4925  0.9709  1.1559
 1022MOL0     H40972   7.146   4.589   7.158 -0.3754 -0.5668  1.6702
 1022MOL0     H40973   6.945   4.667   7.141  0.7125 -0.7243  0.0667
 1022MOL0     H40974   6.891   4.559   7.010 -2.2430 -2.6927  1.3917
 1022MOL0     H40975   6.838   4.380   7.175 -2.5895  0.1881 -1.9792
 1022MOL0     H40976   6.884   4.488   7.312  0.3243 -1.3400  0.0995
 1022MOL0     H40977   6.694   4.628   7.286 -5.4966 -1.3822  3.5051
 1022MOL0     H40978   6.647   4.472   7.298 -1.5399  0.9603 -0.9828
 1022MOL0     H40979   6.686   4.623   7.041  0.5190 -1.8015 -1.8763
 1022MOL0     H40980   6.619   4.453   7.041 -1.3130  0.3244 -0.2104
 1022MOL0     H40981   6.495   4.708   7.151 -2.8140  0.4384  0.3331
 1022MOL0     H40982   6.431   4.548   7.190  0.4263  1.3837  0.8257
 1022MOL0     H40983   6.387   4.521   6.929 -0.6442  1.5460 -1.6874
 1022MOL0     H40984   6.317   4.670   7.004 -0.6516 -0.1408  0.5747
 1022MOL0     H40985   6.595   4.846   7.006  2.5567 -1.4262  0.5581
 1022MOL0     H40986   6.750   5.015   6.857 -1.6503  1.9710 -1.9354
 1022MOL0     H40987   6.706   5.017   6.693  4.2562  1.7280  0.3626
 1022MOL0     H40988   6.846   4.806   6.660 -1.8638  0.5402 -0.2858
 1022MOL0     H40989   6.930   4.959   6.672  3.6944 -2.0223  1.4779
 1022MOL0     H40990   6.900   4.735   6.881 -4.2949  0.8486 -2.8815
 1022MOL0     H40991   7.040   4.760   6.776 -3.1684 -0.1861 -3.9569
 1022MOL0     H40992   7.092   4.848   7.000 -0.0548 -0.0433 -0.4769
 1022MOL0     H40993   7.080   4.971   6.881 -1.0993  0.2372 -0.4635
 1022MOL0     H40994   6.741   5.018   7.180  0.5587  0.4775 -1.5505
 1022MOL0     H40995   6.710   5.255   7.402  1.1248  0.2701 -0.4299
 1022MOL0     H40996   6.741   5.129   7.523 -1.1370  0.2490  0.4383
 1022MOL0     H40997   6.639   5.094   7.388  1.4363 -0.2546 -0.9528
 1022MOL0     H40998   6.994   5.300   7.787 -0.7530 -1.0457 -1.0406
 1022MOL0     H40999   7.098   5.291   8.023 -0.4918 -2.5958 -0.0662
 1022MOL0     H41000   7.228   5.127   8.165  0.6786 -0.4359 -1.0169
 1022MOL0     H41001   7.381   5.060   8.102  1.6579  1.2334 -0.1857
 1022MOL0     H41002   7.377   5.075   8.365 -0.3049 -2.1893 -0.5988
 1022MOL0     H41003   7.511   5.145   8.269 -0.0862  0.3719 -1.8798
 1022MOL0     H41004   7.285   5.291   8.402  0.9595  2.1834  3.2668
 1022MOL0     H41005   7.384   5.368   8.291 -3.6130  0.6603  0.1437
 1022MOL0     H41006   7.498   5.410   8.478 -0.5496  0.1000 -2.0660
 1022MOL0     H41007   7.582   5.255   8.459  3.2339  2.7775  2.7364
 1022MOL0     H41008   7.355   5.329   8.638 -0.7047 -1.4355 -0.2754
 1022MOL0     H41009   7.385   5.161   8.599 -1.0748  0.6198 -0.7671
 1022MOL0     H41010   7.592   5.356   8.724 -1.8978  0.8828  0.5364
 1022MOL0     H41011   7.621   5.186   8.708  0.9241  0.1892 -1.2736
 1022MOL0     H41012   7.537   5.211   8.938 -1.4378 -0.1674  0.0359
 1022MOL0     H41013   7.399   5.156   8.846  0.7088  0.2593 -0.5917
 1022MOL0     H41014   7.307   5.378   8.848 -0.8480  2.1763  3.0117
 1022MOL0     H41015   7.453   5.464   8.868 -0.1701  1.4565  1.1043
 1022MOL0     H41016   7.473   5.187   7.871  0.3063  0.6923  1.5964
 1022MOL0     H41017   7.383   5.180   7.633  0.8620  1.3487 -0.3614
 1022MOL0     H41018   7.191   5.160   7.314 -1.1268  0.8496  0.1879
 1022MOL0     H41019   7.158   5.045   7.103  2.1329  2.0926  1.1857
 1022MOL0     H41020   6.897   4.209   6.950  0.9079 -0.3856 -0.5361
 1022MOL0     H41021   6.705   4.201   6.797  0.1845 -1.2030 -0.6384
 1022MOL0     H41022   6.643   4.176   6.211 -1.4085 -1.2650 -0.8981
 1022MOL0     H41023   6.429   4.188   6.061 -1.7054 -0.1157  0.7834
 1022MOL0     H41024   6.289   4.328   5.916 -2.8804 -0.0948 -2.9385
 1022MOL0     H41025   6.125   4.311   5.933  1.0481  2.5639 -3.2091
 1022MOL0     H41026   6.282   4.555   6.031 -1.3709 -2.7085  3.5005
 1022MOL0     H41027   6.107   4.547   6.042  0.3677  2.3599  0.1389
 1022MOL0     H41028   6.251   4.517   5.765 -0.3492 -0.8602  1.2182
 1022MOL0     H41029   6.088   4.550   5.790  1.1664 -0.4946 -1.9797
 1022MOL0     H41030   6.297   4.759   5.887 -0.4033  0.1682  2.1450
 1022MOL0     H41031   6.117   4.772   5.859 -0.9601 -1.2038 -2.1737
 1022MOL0     H41032   6.233   4.885   5.481  1.0753 -0.8992 -0.6252
 1022MOL0     H41033   6.264   4.490   6.303  2.6778  2.2601 -0.0750
 1022MOL0     H41034   6.472   4.476   6.568  3.4045  1.0897  0.3149
 1022MOL0     H41035   6.563   4.585   6.454  0.8849 -1.5459 -3.2343
 1022MOL0     H41036   6.392   4.596   6.459  0.6971  0.7560  0.8572
 1023MOL0     O41037   8.241   7.280   8.739  0.0686 -0.4312 -0.0890
 1023MOL0     C41038   8.186   7.279   8.631 -0.3058  0.0069 -0.1030
 1023MOL0     O41039   8.251   7.263   8.511 -0.0848  1.1595  0.2481
 1023MOL0     C41040   8.381   7.212   8.501  1.5572 -0.7133 -0.3800
 1023MOL0     C41041   8.486   7.254   8.585  0.1750  0.0623 -0.1817
 1023MOL0     C41042   8.616   7.203   8.551 -0.2130  0.3223 -0.3605
 1023MOL0     C41043   8.641   7.114   8.444  0.7483 -0.2373 -0.1446
 1023MOL0     O41044   8.761   7.055   8.433 -0.0327 -0.4749  0.1899
 1023MOL0     C41045   8.786   6.949   8.346 -0.3630 -0.4329  0.2093
 1023MOL0     C41046   8.941   6.913   8.363 -0.2238  0.4537 -0.7744
 1023MOL0     C41047   8.988   6.796   8.290  0.3492  0.3203  0.1751
 1023MOL0     C41048   9.133   6.809   8.260  1.0498 -0.0113  0.2082
 1023MOL0     C41049   9.199   6.669   8.223  0.1975  0.1829  0.4703
 1023MOL0     C41050   9.348   6.683   8.215  0.2484  0.7936 -0.4436
 1023MOL0     C41051   9.397   6.760   8.097  0.4951  0.0038  0.3358
 1023MOL0     C41052   9.515   6.696   8.030 -0.3823  0.1639 -0.3040
 1023MOL0     N41053   9.642   6.684   8.110  0.3345 -0.1527  0.3124
 1023MOL0     C41054   9.689   6.775   8.200 -0.0399  0.0724 -0.5717
 1023MOL0     C41055   9.816   6.742   8.221  0.3613  0.3380 -0.1286
 1023MOL0     C41056   9.906   6.803   8.317  0.7766 -0.4743  0.8402
 1023MOL0     C41057  10.043   6.820   8.254  0.2509  0.4405 -0.8802
 1023MOL0     C41058  10.129   6.896   8.357  0.0572 -0.2546  0.5206
 1023MOL0     C41059  10.243   6.966   8.280 -0.3596 -0.3339  0.3113
 1023MOL0     O41060  10.345   6.876   8.259  0.3343  0.5191  0.0269
 1023MOL0     C41061  10.458   6.919   8.197 -0.8762  0.4792 -0.4657
 1023MOL0     C41062  10.548   6.823   8.152 -0.2476 -0.1561 -0.5915
 1023MOL0     C41063  10.680   6.855   8.118  0.1377 -0.3249 -0.4172
 1023MOL0     C41064  10.767   6.730   8.091 -0.2618  0.3537 -0.5740
 1023MOL0     C41065  10.721   6.995   8.119  0.6276 -0.4167  0.8132
 1023MOL0     C41066  10.853   7.045   8.070  0.2734  0.2438  0.2160
 1023MOL0     O41067  10.871   7.173   8.043  0.3802 -0.0466  0.2477
 1023MOL0     C41068  10.997   7.217   7.995 -0.1580  0.3524 -0.5110
 1023MOL0     C41069  11.023   7.249   7.867  0.0371  0.3781  0.1496
 1023MOL0     C41070  11.145   7.296   7.830 -0.0355  0.3395  0.5186
 1023MOL0     C41071  11.249   7.294   7.921 -0.3940  0.3272 -0.7512
 1023MOL0     O41072  11.379   7.320   7.893 -0.3389 -0.4190  0.8513
 1023MOL0     C41073  11.408   7.363   7.757  0.3192  0.3004 -0.7976
 1023MOL0     C41074  11.552   7.408   7.749 -0.5869  0.4462  0.2075
 1023MOL0     C41075  11.646   7.295   7.789 -0.3764 -0.4390  0.0327
 1023MOL0     C41076  11.796   7.321   7.768  0.2576 -0.0329  0.0285
 1023MOL0     C41077  11.894   7.206   7.793 -0.1478  0.2232 -0.8463
 1023MOL0     C41078  11.863   7.081   7.701 -0.3559 -0.3578 -0.0376
 1023MOL0     C41079  11.976   6.969   7.692 -0.5896 -0.2931  0.2989
 1023MOL0     C41080  11.932   6.851   7.604  0.5529  0.1859  0.1768
 1023MOL0    Cl41081  12.060   6.731   7.570  0.1588  0.5629  0.6304
 1023MOL0     C41082  11.236   7.252   8.055 -0.1638  0.5476 -0.2992
 1023MOL0     C41083  11.106   7.217   8.087  0.2149  0.4022  0.0263
 1023MOL0     O41084  10.934   6.962   8.032  1.1771  0.2429  0.3468
 1023MOL0     C41085  10.624   7.090   8.151 -0.6599  0.1144 -0.0101
 1023MOL0     C41086  10.495   7.053   8.179 -0.0606  0.1904  0.0815
 1023MOL0     N41087   9.850   6.637   8.143  0.1544  0.1212 -0.1508
 1023MOL0     N41088   9.744   6.602   8.083  0.0353  1.2727 -0.0434
 1023MOL0     C41089   8.526   7.083   8.358 -0.1166 -0.7705  0.3648
 1023MOL0     C41090   8.399   7.132   8.389  0.0983 -1.4297 -0.0984
 1023MOL0     C41091   8.043   7.305   8.633  0.4809 -0.4868 -0.0916
 1023MOL0     C41092   7.990   7.354   8.505 -0.0309  0.1402 -0.3937
 1023MOL0     C41093   7.858   7.381   8.490 -0.3100 -0.6202  0.3667
 1023MOL0     C41094   7.769   7.386   8.592 -0.0512  0.2272  0.6058
 1023MOL0     O41095   7.644   7.426   8.547  0.0317 -0.5616  0.2385
 1023MOL0     C41096   7.542   7.423   8.646  0.4038  0.0657 -0.1874
 1023MOL0     C41097   7.407   7.467   8.593  0.4338 -0.5115 -0.0265
 1023MOL0     C41098   7.407   7.612   8.550 -0.0562  0.0701  0.0336
 1023MOL0     C41099   7.278   7.677   8.513  0.0429 -0.2572  0.4299
 1023MOL0     C41100   7.226   7.636   8.383 -0.1859 -0.1252 -0.6071
 1023MOL0     C41101   7.165   7.602   8.283 -0.3912  0.2426 -0.9761
 1023MOL0     C41102   7.811   7.342   8.722  0.4277  1.2249 -0.0765
 1023MOL0     C41103   7.945   7.301   8.745 -0.3178  0.2063  0.1184
 1023MOL0     C41104   7.989   7.262   8.884 -0.1818  0.8371 -0.6007
 1023MOL0     H41105   8.487   7.320   8.671  1.7176  0.8427 -0.7730
 1023MOL0     H41106   8.706   7.235   8.603 -1.7286  1.0355  1.9697
 1023MOL0     H41107   8.756   6.968   8.243 -3.5392 -3.9207  0.2446
 1023MOL0     H41108   8.724   6.867   8.385 -2.0797 -0.1163 -1.6793
 1023MOL0     H41109   9.002   6.998   8.331  0.5536  0.5466  0.8345
 1023MOL0     H41110   8.962   6.899   8.470  0.4751 -0.7382 -1.0484
 1023MOL0     H41111   8.982   6.705   8.350  2.0565 -1.1551 -1.7194
 1023MOL0     H41112   8.929   6.780   8.199  1.6874  1.2899 -0.9119
 1023MOL0     H41113   9.145   6.885   8.183  0.3547  1.4764  1.5007
 1023MOL0     H41114   9.186   6.851   8.346  1.3668 -0.0853  0.0504
 1023MOL0     H41115   9.155   6.629   8.132 -0.7025 -3.2092  2.2279
 1023MOL0     H41116   9.180   6.588   8.295 -2.8321 -0.0232 -0.4587
 1023MOL0     H41117   9.382   6.731   8.307  0.9548  0.5205 -0.5509
 1023MOL0     H41118   9.402   6.587   8.215 -0.6476  0.2783  0.4158
 1023MOL0     H41119   9.423   6.861   8.129 -1.0054  1.4066 -2.4550
 1023MOL0     H41120   9.323   6.775   8.017 -0.1766  0.5935  1.0500
 1023MOL0     H41121   9.480   6.603   7.986 -0.6757 -0.8120  1.8789
 1023MOL0     H41122   9.534   6.769   7.951 -6.7511  2.5302 -0.2476
 1023MOL0     H41123   9.637   6.861   8.241 -0.4366 -0.8354  0.9024
 1023MOL0     H41124   9.897   6.734   8.401 -0.6964 -3.6588 -1.6752
 1023MOL0     H41125   9.865   6.901   8.345  1.0639 -0.6761  2.0227
 1023MOL0     H41126  10.089   6.722   8.236  0.3153 -0.0420  1.5852
 1023MOL0     H41127  10.037   6.869   8.156 -2.2169  0.1266 -0.9488
 1023MOL0     H41128  10.076   6.975   8.410  0.6022 -0.7421  1.8210
 1023MOL0     H41129  10.166   6.822   8.428  0.6067  2.0388  2.7687
 1023MOL0     H41130  10.203   7.017   8.192 -0.2390  2.4357  1.7611
 1023MOL0     H41131  10.282   7.042   8.349 -0.7516  0.3138 -0.1715
 1023MOL0     H41132  10.526   6.718   8.164 -1.3034  0.0688 -0.5178
 1023MOL0     H41133  10.702   6.643   8.087  0.6903 -0.4450  0.6051
 1023MOL0     H41134  10.834   6.724   8.177 -1.5698  0.8110  0.5070
 1023MOL0     H41135  10.829   6.730   8.000  0.4582 -2.8303 -0.1994
 1023MOL0     H41136  10.951   7.243   7.786  0.6578  1.2461 -0.4836
 1023MOL0     H41137  11.160   7.328   7.727  0.9801 -2.7233 -0.3673
 1023MOL0     H41138  11.375   7.281   7.692 -0.8027 -0.3717  0.5778
 1023MOL0     H41139  11.338   7.444   7.734 -1.1684 -1.0589 -1.2961
 1023MOL0     H41140  11.573   7.440   7.647 -0.9158  0.1184  0.0365
 1023MOL0     H41141  11.568   7.493   7.816 -1.9744  1.5781 -0.8453
 1023MOL0     H41142  11.616   7.207   7.732 -0.6383  0.5757 -1.4763
 1023MOL0     H41143  11.623   7.268   7.892 -1.1745  1.6082  0.4417
 1023MOL0     H41144  11.818   7.399   7.841  2.5612 -1.8028  1.3609
 1023MOL0     H41145  11.809   7.364   7.668 -0.8887  0.7831  0.2081
 1023MOL0     H41146  11.998   7.233   7.776  0.5296 -1.9224 -0.5087
 1023MOL0     H41147  11.871   7.177   7.896 -0.8980  0.6289 -0.8943
 1023MOL0     H41148  11.834   7.119   7.603 -2.6452 -1.6385  0.0804
 1023MOL0     H41149  11.778   7.035   7.752  1.9326 -0.8932  3.6645
 1023MOL0     H41150  11.993   6.927   7.792  2.7500 -1.4831 -0.6421
 1023MOL0     H41151  12.070   7.019   7.667  0.6797 -2.6884 -0.0210
 1023MOL0     H41152  11.895   6.885   7.507  1.1880  0.5439  0.0557
 1023MOL0     H41153  11.847   6.811   7.660  1.4587 -0.5511  1.0678
 1023MOL0     H41154  11.317   7.238   8.126 -0.7128  0.1998  0.2665
 1023MOL0     H41155  11.082   7.196   8.191 -0.1495 -0.2385 -0.1813
 1023MOL0     H41156  10.646   7.196   8.137  0.4580 -0.0440  0.4182
 1023MOL0     H41157  10.424   7.131   8.205 -0.2282  0.3208 -0.7700
 1023MOL0     H41158   8.547   7.028   8.266 -0.4609 -3.2994  1.7016
 1023MOL0     H41159   8.317   7.103   8.324 -1.0630  0.2571  0.5149
 1023MOL0     H41160   8.048   7.366   8.414  0.8114 -0.2998  0.0694
 1023MOL0     H41161   7.815   7.423   8.400  1.7098 -0.9865 -0.8200
 1023MOL0     H41162   7.518   7.319   8.667 -0.1683  0.0257 -0.9930
 1023MOL0     H41163   7.572   7.488   8.729 -1.3578  2.5522 -1.3548
 1023MOL0     H41164   7.327   7.439   8.662 -0.7225 -1.4763 -1.6961
 1023MOL0     H41165   7.388   7.405   8.505 -0.5910 -0.4441  0.1294
 1023MOL0     H41166   7.449   7.673   8.631  1.4399 -2.7426  1.5311
 1023MOL0     H41167   7.475   7.623   8.465  0.0124 -1.0271 -0.0605
 1023MOL0     H41168   7.288   7.786   8.509  4.3167 -0.5070 -0.3261
 1023MOL0     H41169   7.214   7.654   8.599  1.7104  1.6454  2.2942
 1023MOL0     H41170   7.100   7.586   8.199 -1.6096 -0.4961  0.0895
 1023MOL0     H41171   7.739   7.341   8.804 -0.1725 -0.7882 -0.5715
 1023MOL0     H41172   7.913   7.250   8.962  0.6913  0.1100  0.1670
 1023MOL0     H41173   8.037   7.164   8.875 -1.0222  0.4399 -0.8378
 1023MOL0     H41174   8.061   7.338   8.916  1.2399  0.1792 -2.0971
 1024MOL0     O41175   0.221   3.434   9.395 -0.3182 -0.0965  0.2748
 1024MOL0     C41176   0.211   3.382   9.509 -0.2433 -0.2262  0.4007
 1024MOL0     O41177   0.294   3.399   9.615 -0.2945  0.6817 -0.1936
 1024MOL0     C41178   0.414   3.465   9.601 -0.5132 -0.2652 -0.6821
 1024MOL0     C41179   0.434   3.576   9.524  0.7009 -0.8559 -0.9414
 1024MOL0     C41180   0.558   3.636   9.505  0.0122 -0.0330 -0.1099
 1024MOL0     C41181   0.676   3.584   9.577 -0.0744  0.3355 -0.3526
 1024MOL0     O41182   0.790   3.656   9.584 -0.0467  0.4538  1.0854
 1024MOL0     C41183   0.813   3.765   9.492 -0.1077 -0.4922  0.4437
 1024MOL0     C41184   0.972   3.802   9.513 -0.2301  0.5289  0.2102
 1024MOL0     C41185   1.060   3.695   9.469 -0.0928  0.6565  0.5457
 1024MOL0     C41186   1.195   3.747   9.400  0.1984  0.0750 -0.4805
 1024MOL0     C41187   1.309   3.641   9.382 -0.6808  0.0070 -0.1907
 1024MOL0     C41188   1.367   3.604   9.517  0.5993  0.5022  0.8879
 1024MOL0     C41189   1.484   3.512   9.512  0.3397 -0.5136  0.1818
 1024MOL0     C41190   1.548   3.489   9.655 -0.4704 -0.9753  0.7752
 1024MOL0     N41191   1.643   3.380   9.647 -0.6640 -0.9890 -0.1915
 1024MOL0     C41192   1.760   3.386   9.568 -0.0701 -0.9113  0.1626
 1024MOL0     C41193   1.815   3.264   9.580  0.0583 -0.2381  0.5051
 1024MOL0     C41194   1.925   3.194   9.516 -0.2578 -0.2042  0.4711
 1024MOL0     C41195   2.027   3.163   9.616 -1.0591  0.0909  0.6232
 1024MOL0     C41196   2.128   3.091   9.534  0.3526  0.0706 -0.0311
 1024MOL0     C41197   2.227   3.035   9.647  0.6180 -0.0724 -0.0670
 1024MOL0     O41198   2.342   2.984   9.575 -0.0116 -0.3944 -0.1153
 1024MOL0     C41199   2.451   2.943   9.652 -0.1015  0.2826 -0.0064
 1024MOL0     C41200   2.549   2.863   9.595 -0.3982  0.3985 -0.1732
 1024MOL0     C41201   2.668   2.812   9.660  0.0619  0.1195  0.4577
 1024MOL0     C41202   2.755   2.716   9.580 -0.8570 -0.3842  0.1747
 1024MOL0     C41203   2.691   2.850   9.792 -0.3820  0.1455 -0.5122
 1024MOL0     C41204   2.804   2.817   9.868  0.0383  0.7638  0.1255
 1024MOL0     O41205   2.784   2.746   9.982 -0.8391 -0.8416 -1.0271
 1024MOL0     C41206   2.867   2.763  10.088 -0.5281 -0.7357  0.3405
 1024MOL0     C41207   2.831   2.819  10.203  0.3738  0.6105 -0.4510
 1024MOL0     C41208   2.904   2.811  10.318 -0.5449 -0.9928 -0.6915
 1024MOL0     C41209   3.034   2.734  10.317 -0.4659 -0.1385  0.1151
 1024MOL0     O41210   3.114   2.720  10.431 -0.4685  0.2492  0.4162
 1024MOL0     C41211   3.107   2.811  10.537  0.0509 -0.8043 -0.2125
 1024MOL0     C41212   3.143   2.954  10.496  0.3720 -0.1534 -0.0068
 1024MOL0     C41213   3.045   3.059  10.552  0.2761 -0.1082  0.4193
 1024MOL0     C41214   3.107   3.196  10.561  0.6030 -0.8531  0.3222
 1024MOL0     C41215   3.004   3.305  10.587 -0.0459  0.3555 -0.5364
 1024MOL0     C41216   3.061   3.435  10.639 -0.3506  0.3012  0.2872
 1024MOL0     C41217   2.949   3.524  10.702  0.4018  0.7771 -0.2140
 1024MOL0     C41218   3.003   3.637  10.786 -0.5131  0.2594  0.0712
 1024MOL0    Cl41219   3.111   3.732  10.691  0.1922 -0.1225  0.0516
 1024MOL0     C41220   3.074   2.678  10.192  0.8623 -0.9752  1.0514
 1024MOL0     C41221   2.991   2.698  10.079 -0.3238 -0.4669 -0.5644
 1024MOL0     O41222   2.911   2.859   9.824  0.6926  0.6764  0.1715
 1024MOL0     C41223   2.588   2.927   9.852 -0.1492 -0.4189 -0.0838
 1024MOL0     C41224   2.479   2.977   9.785  0.3669 -0.1883 -0.2608
 1024MOL0     N41225   1.740   3.191   9.672 -0.3306  0.6289  0.8000
 1024MOL0     N41226   1.643   3.261   9.713  1.0077 -0.9297 -0.3475
 1024MOL0     C41227   0.665   3.472   9.666 -0.8789  0.5824  0.2621
 1024MOL0     C41228   0.537   3.413   9.672  0.6628  0.2466 -0.1836
 1024MOL0     C41229   0.081   3.308   9.519 -0.2873  0.3447 -0.7947
 1024MOL0     C41230  -0.000   3.326   9.636 -0.2146 -0.1738  0.4689
 1024MOL0     C41231  -0.110   3.254   9.658  0.2248 -0.4626  0.6357
 1024MOL0     C41232  -0.146   3.156   9.569  0.1579 -0.1752  1.1618
 1024MOL0     O41233  -0.262   3.091   9.592  0.4419 -0.2431  0.5459
 1024MOL0     C41234  -0.378   3.167   9.573 -0.0175 -0.1584  0.8135
 1024MOL0     C41235  -0.403   3.181   9.417 -0.8786  0.0955  0.1176
 1024MOL0     C41236  -0.542   3.256   9.384  0.5041 -0.2340  0.2482
 1024MOL0     C41237  -0.583   3.279   9.239 -0.2878 -0.0744 -1.2354
 1024MOL0     C41238  -0.608   3.146   9.184 -0.4902 -0.1025 -0.2205
 1024MOL0     C41239  -0.612   3.035   9.138 -0.7706 -0.6360 -0.0824
 1024MOL0     C41240  -0.074   3.125   9.457  1.2384 -0.3646  0.4424
 1024MOL0     C41241   0.034   3.210   9.430 -1.1203 -0.1056  0.3308
 1024MOL0     C41242   0.118   3.179   9.307  0.4558 -0.5293 -0.2621
 1024MOL0     H41243   0.337   3.610   9.491  0.3740 -1.6351 -0.8117
 1024MOL0     H41244   0.557   3.729   9.450  0.6558 -0.5666 -1.0412
 1024MOL0     H41245   0.746   3.848   9.515 -0.8169 -1.1264  0.7053
 1024MOL0     H41246   0.778   3.738   9.392 -1.9375 -0.7670  1.1135
 1024MOL0     H41247   0.999   3.894   9.459 -1.0124 -1.4497 -3.9606
 1024MOL0     H41248   0.984   3.812   9.621  1.2121  1.0903  0.0075
 1024MOL0     H41249   1.081   3.639   9.560 -1.1401  0.7731  0.8657
 1024MOL0     H41250   1.011   3.639   9.388 -2.7394  1.3306  1.5920
 1024MOL0     H41251   1.158   3.787   9.304 -3.4968 -2.5171 -0.3457
 1024MOL0     H41252   1.225   3.834   9.460  1.2424 -0.1993 -0.5959
 1024MOL0     H41253   1.388   3.676   9.315  1.8244 -1.6392  1.7185
 1024MOL0     H41254   1.261   3.556   9.332 -2.1252  0.9708 -0.5234
 1024MOL0     H41255   1.398   3.698   9.565  1.6190 -0.6239  2.5404
 1024MOL0     H41256   1.290   3.564   9.583  0.7201  3.5057  3.0461
 1024MOL0     H41257   1.557   3.545   9.437 -0.2414 -3.2830 -1.7869
 1024MOL0     H41258   1.440   3.420   9.472  2.0564  0.2062 -3.9112
 1024MOL0     H41259   1.606   3.581   9.667  1.0484 -1.6968 -0.6498
 1024MOL0     H41260   1.471   3.472   9.730 -1.1197  1.5865  0.7783
 1024MOL0     H41261   1.785   3.463   9.496 -0.8463  2.4652  3.2167
 1024MOL0     H41262   1.965   3.272   9.450 -4.6216  1.4821 -0.4993
 1024MOL0     H41263   1.881   3.105   9.470 -0.8328 -0.0400  0.7041
 1024MOL0     H41264   2.068   3.255   9.659 -2.9678  0.9953  0.6355
 1024MOL0     H41265   1.978   3.115   9.702 -0.1060  0.0211  1.1415
 1024MOL0     H41266   2.083   3.021   9.463  0.8035 -2.0398  1.6698
 1024MOL0     H41267   2.180   3.160   9.466  1.3693 -0.4489  0.1981
 1024MOL0     H41268   2.252   3.120   9.711  1.8430 -0.0750 -0.5323
 1024MOL0     H41269   2.186   2.951   9.702 -0.1829 -0.8198 -1.7247
 1024MOL0     H41270   2.537   2.850   9.488  2.6446  5.7374 -1.5114
 1024MOL0     H41271   2.716   2.680   9.485  1.3923 -1.9081 -0.2333
 1024MOL0     H41272   2.772   2.626   9.639 -4.1195 -0.8758  0.5893
 1024MOL0     H41273   2.845   2.776   9.563 -0.3460 -1.0774  0.4097
 1024MOL0     H41274   2.733   2.865  10.197 -0.4203 -0.3342  2.8609
 1024MOL0     H41275   2.868   2.859  10.409 -1.2780 -3.4433  0.4084
 1024MOL0     H41276   3.014   2.796  10.592  0.8119 -1.1353  1.0323
 1024MOL0     H41277   3.181   2.778  10.611  0.1671 -1.0855 -0.4553
 1024MOL0     H41278   3.242   2.990  10.526  0.4614 -0.6168  0.2611
 1024MOL0     H41279   3.146   2.956  10.387  1.5479  0.7426  0.0240
 1024MOL0     H41280   3.026   3.027  10.655  2.6511 -0.0131  0.9539
 1024MOL0     H41281   2.954   3.059  10.492  0.9675 -1.8480 -0.7255
 1024MOL0     H41282   3.148   3.222  10.463  0.8287  0.5028  0.7558
 1024MOL0     H41283   3.179   3.210  10.642  0.6999  1.9677 -0.1196
 1024MOL0     H41284   2.952   3.340  10.497 -1.3535 -1.4161 -0.5227
 1024MOL0     H41285   2.932   3.268  10.660  1.9304 -1.0930  0.7601
 1024MOL0     H41286   3.100   3.487  10.551 -1.1022  1.0391  0.3831
 1024MOL0     H41287   3.133   3.416  10.720  0.9961 -0.8288 -1.1042
 1024MOL0     H41288   2.896   3.460  10.773 -1.3345 -1.0289 -2.9346
 1024MOL0     H41289   2.883   3.559  10.622 -1.8173  0.3067  1.2946
 1024MOL0     H41290   3.044   3.604  10.882  0.5990  2.2961  0.3537
 1024MOL0     H41291   2.924   3.704  10.820  1.8749  2.1621  2.2808
 1024MOL0     H41292   3.167   2.626  10.171  1.5803  1.0457 -1.2503
 1024MOL0     H41293   3.016   2.652   9.985 -0.6402 -0.1182 -0.8211
 1024MOL0     H41294   2.596   2.957   9.956 -2.6941 -1.9491  0.6388
 1024MOL0     H41295   2.406   3.042   9.832 -0.6655  0.2538 -2.3899
 1024MOL0     H41296   0.755   3.435   9.715  0.1082 -0.1741 -1.9690
 1024MOL0     H41297   0.530   3.320   9.727 -0.7955 -0.5986 -1.7211
 1024MOL0     H41298   0.015   3.403   9.711 -2.6246 -0.9567  1.8514
 1024MOL0     H41299  -0.168   3.289   9.743  0.9977 -4.6306  3.1978
 1024MOL0     H41300  -0.462   3.112   9.617  0.6336 -2.6527 -0.8559
 1024MOL0     H41301  -0.378   3.262   9.628  1.3924 -0.9312  2.2353
 1024MOL0     H41302  -0.400   3.082   9.371  2.2390  1.5817 -3.2573
 1024MOL0     H41303  -0.330   3.238   9.360  0.2236 -1.0579  0.3446
 1024MOL0     H41304  -0.622   3.191   9.422 -0.7469  1.0535 -0.0805
 1024MOL0     H41305  -0.539   3.353   9.436 -1.3587  0.1444 -0.2973
 1024MOL0     H41306  -0.499   3.313   9.178  0.8325 -3.1673 -1.6255
 1024MOL0     H41307  -0.673   3.340   9.234 -0.6211 -0.2900  0.9180
 1024MOL0     H41308  -0.625   2.936   9.098 -2.8683 -0.1767 -0.6282
 1024MOL0     H41309  -0.105   3.041   9.395 -3.2640  0.2697  1.5306
 1024MOL0     H41310   0.092   3.240   9.220 -0.3186 -1.7067 -0.8855
 1024MOL0     H41311   0.226   3.191   9.320  0.4312 -0.4464 -0.1348
 1024MOL0     H41312   0.099   3.075   9.276 -2.0124 -0.0767 -0.4715
  11.41060  11.41060  11.41060
